/*--------------------------------*- C++ -*----------------------------------*\
| =========                 |                                                 |
| \\      /  F ield         | OpenFOAM: The Open Source CFD Toolbox           |
|  \\    /   O peration     | Version:  2.3.0                                 |
|   \\  /    A nd           | Web:      www.OpenFOAM.org                      |
|    \\/     M anipulation  |                                                 |
\*---------------------------------------------------------------------------*/
FoamFile
{
    version     2.0;
    format      ascii;
    class       volVectorField;
    location    "41";
    object      Ur;
}
// * * * * * * * * * * * * * * * * * * * * * * * * * * * * * * * * * * * * * //

dimensions      [0 1 -1 0 0 0 0];

internalField   nonuniform List<vector> 
6144
(
(-3.67521e-07 0.000352393 -7.56055e-08)
(-4.30001e-07 0.000383571 -1.28859e-07)
(-2.63992e-07 0.000419083 -1.02123e-07)
(-2.22451e-07 0.000453437 -8.95152e-08)
(-1.67193e-07 0.000500252 -6.60446e-08)
(-1.91314e-07 0.000558649 -1.03876e-07)
(-1.57527e-07 0.000610808 -8.28586e-08)
(-1.2698e-07 0.000651821 -7.18323e-08)
(-7.19699e-08 0.000681999 -3.5406e-08)
(-3.02427e-08 0.000697249 -2.47688e-08)
(-1.7514e-09 0.000701732 -2.29926e-08)
(6.75135e-09 0.000702763 -8.50719e-09)
(-1.89244e-09 0.000703298 2.0763e-09)
(-1.1685e-08 0.000703662 2.84001e-09)
(-1.99895e-08 0.000703867 5.242e-09)
(-3.24504e-08 0.000703936 3.95908e-09)
(-3.8923e-08 0.000703922 2.65432e-09)
(-5.28426e-08 0.000703865 -2.14335e-09)
(-6.08977e-08 0.000703784 -4.30042e-09)
(-7.73728e-08 0.000703685 -9.06869e-09)
(-8.55676e-08 0.000703573 -9.19818e-09)
(-1.03862e-07 0.000703447 -1.23773e-08)
(-1.11489e-07 0.000703324 -1.01493e-08)
(-1.30905e-07 0.000703207 -1.23531e-08)
(-1.37267e-07 0.000703109 -8.74175e-09)
(-1.57774e-07 0.000703032 -1.12506e-08)
(-1.62958e-07 0.000702985 -7.34759e-09)
(-1.85096e-07 0.000702962 -1.13221e-08)
(-1.8913e-07 0.000702974 -8.60398e-09)
(-2.12712e-07 0.000703023 -1.53695e-08)
(-2.14613e-07 0.000703118 -1.36492e-08)
(-2.38963e-07 0.00070326 -2.28417e-08)
(-2.37809e-07 0.000703462 -2.25177e-08)
(-2.61989e-07 0.000703725 -3.69518e-08)
(-2.56133e-07 0.000704066 -3.99442e-08)
(-2.7858e-07 0.000704487 -5.82787e-08)
(-2.63826e-07 0.000705003 -6.45619e-08)
(-2.78349e-07 0.000705606 -8.84762e-08)
(-2.4846e-07 0.000706301 -9.75542e-08)
(-2.4991e-07 0.00070709 -1.20466e-07)
(-2.02867e-07 0.000707992 -1.10087e-07)
(-2.03198e-07 0.000708875 -7.04654e-08)
(-1.86406e-07 0.000720297 6.26665e-08)
(-3.52503e-07 0.00077783 2.37129e-07)
(-9.0285e-07 0.000907898 5.02573e-07)
(-2.1804e-06 0.00109703 9.69119e-07)
(-3.60105e-06 0.00143911 1.73974e-06)
(-4.19544e-06 0.00218885 3.34269e-06)
(-4.84832e-06 0.00318083 -1.23312e-05)
(-2.57131e-05 0.00370886 -2.32535e-05)
(-5.19279e-05 0.0038014 -3.96344e-05)
(-7.55672e-05 0.00382416 -6.8352e-05)
(-7.65349e-05 0.00385199 -7.86623e-05)
(-6.72902e-05 0.00387564 -4.07239e-05)
(-7.28974e-05 0.0040242 5.72795e-06)
(-3.63468e-05 0.00408641 -6.2339e-06)
(-0.000188851 0.00477174 9.19839e-06)
(0.000131405 0.00600907 -3.64008e-05)
(-0.000154975 0.0159662 -1.80682e-05)
(0.0111156 0.137707 0.00280496)
(-0.0218292 0.633256 -0.00109619)
(-0.0245014 0.445927 -0.00414153)
(-0.00033444 0.0203709 2.11583e-05)
(2.43878e-05 0.0062903 -1.23483e-05)
(-5.35084e-05 0.00646792 -1.4279e-06)
(-5.04874e-05 0.00650205 -2.78716e-06)
(-5.90846e-05 0.00653609 -1.00723e-05)
(-7.06845e-05 0.00659067 -2.12595e-05)
(-7.05315e-05 0.00674338 -3.99778e-05)
(-4.56096e-05 0.00698373 -4.67198e-05)
(-2.65046e-05 0.00719656 -3.01811e-05)
(-1.582e-05 0.00731756 -1.35844e-05)
(-8.54581e-06 0.00739893 -8.42977e-06)
(-1.26924e-05 0.00729496 -2.03003e-06)
(-2.02345e-05 0.00684552 -6.05057e-07)
(-1.63221e-05 0.00640129 2.42066e-05)
(-1.78638e-05 0.00625627 3.42757e-05)
(-2.55292e-05 0.00628982 -4.03169e-06)
(-1.65138e-05 0.00632681 -3.36914e-05)
(-9.17757e-06 0.00633142 -3.77062e-05)
(-7.83202e-06 0.00633953 -3.1816e-05)
(-7.53312e-06 0.00636117 -3.24627e-05)
(3.83342e-06 0.00635923 -1.62898e-05)
(7.93316e-06 0.00633881 -1.78634e-08)
(1.07712e-06 0.00633105 -3.48461e-06)
(-2.24286e-06 0.00630215 -1.05717e-05)
(-7.83196e-07 0.00623737 -1.1149e-05)
(-3.91355e-06 0.0061511 -1.20473e-05)
(-1.26998e-06 0.00607897 -9.46949e-06)
(-2.80467e-06 0.00608418 -6.50132e-06)
(-2.53786e-06 0.00617355 -9.89514e-06)
(2.65482e-06 0.00633965 -1.62697e-05)
(4.37106e-06 0.00653446 -2.17771e-05)
(4.34503e-06 0.0066682 -2.78338e-05)
(-1.44849e-06 0.00652213 -3.43902e-05)
(-6.04732e-06 0.0061012 -2.34654e-05)
(-5.25341e-07 0.000338203 -9.9978e-08)
(-6.25559e-07 0.000385014 -1.42277e-07)
(-5.283e-07 0.000437234 -8.67894e-08)
(-5.5409e-07 0.000480988 -1.10122e-07)
(-4.59514e-07 0.00052867 -6.95687e-08)
(-4.3905e-07 0.000576006 -5.11552e-08)
(-3.53243e-07 0.000617535 -2.96985e-08)
(-2.71918e-07 0.000654663 -2.82264e-08)
(-1.70903e-07 0.000682693 -1.06141e-08)
(-8.98336e-08 0.00069688 9.91321e-09)
(-4.57563e-08 0.000701439 1.91785e-08)
(-2.99965e-08 0.000702759 2.80285e-08)
(-5.42773e-08 0.000703431 3.80714e-08)
(-8.72781e-08 0.00070393 5.39767e-08)
(-1.13485e-07 0.000704236 5.43611e-08)
(-1.40748e-07 0.000704343 5.5294e-08)
(-1.60649e-07 0.000704326 4.48958e-08)
(-1.87707e-07 0.000704258 4.05916e-08)
(-2.13146e-07 0.000704163 2.7775e-08)
(-2.46879e-07 0.000704053 2.45787e-08)
(-2.78831e-07 0.00070393 1.3192e-08)
(-3.22119e-07 0.000703794 1.67954e-08)
(-3.59521e-07 0.000703665 9.73004e-09)
(-4.05225e-07 0.000703551 1.69352e-08)
(-4.42851e-07 0.000703457 1.03753e-08)
(-4.89074e-07 0.000703392 1.90971e-08)
(-5.27491e-07 0.000703351 1.27473e-08)
(-5.77009e-07 0.000703337 2.4749e-08)
(-6.15336e-07 0.000703358 1.66799e-08)
(-6.64121e-07 0.000703421 2.82143e-08)
(-6.97873e-07 0.000703531 1.61087e-08)
(-7.41666e-07 0.000703695 2.69131e-08)
(-7.67888e-07 0.000703919 1.0918e-08)
(-8.04604e-07 0.000704207 2.12976e-08)
(-8.1708e-07 0.000704566 1.12699e-09)
(-8.37067e-07 0.000705003 1.12416e-08)
(-8.21596e-07 0.000705526 -1.41068e-08)
(-8.05031e-07 0.000706137 -6.73624e-09)
(-7.3779e-07 0.00070684 -4.03542e-08)
(-6.5967e-07 0.000707638 -3.54984e-08)
(-5.12042e-07 0.000708482 -6.10697e-08)
(-3.58137e-07 0.000709764 3.67858e-08)
(-1.39448e-07 0.000724148 1.99183e-07)
(-5.1665e-08 0.000789392 5.18978e-07)
(-4.39996e-07 0.000940479 8.61401e-07)
(-2.25309e-06 0.00119552 1.42119e-06)
(-6.2033e-06 0.00165753 2.29844e-06)
(-1.41068e-06 0.00254311 -5.11096e-06)
(-1.198e-05 0.00355188 -1.43829e-05)
(-4.92694e-05 0.00387734 -2.1389e-05)
(-7.10973e-05 0.0038198 -4.55096e-05)
(-0.000101433 0.00380085 -7.08926e-05)
(-0.00012256 0.00383182 -9.44669e-05)
(-0.000121762 0.00383996 -5.36639e-05)
(-6.69616e-05 0.00397155 8.44612e-06)
(4.57346e-06 0.0039008 1.76817e-05)
(-0.000242617 0.00513556 8.96606e-05)
(0.000301527 0.00673879 -7.0875e-05)
(2.17215e-05 0.0117291 -9.1407e-05)
(0.00799478 0.127229 0.0021718)
(-0.0461639 0.653676 -0.00470504)
(-0.0230853 0.332728 -0.022152)
(0.000383767 0.0208032 -7.37871e-05)
(2.24847e-05 0.00805087 4.45373e-05)
(-7.64033e-05 0.00841106 -1.23476e-05)
(-8.88451e-05 0.00852074 7.5145e-05)
(-0.000104382 0.00875015 2.92376e-05)
(-8.58057e-05 0.00901125 -1.37912e-05)
(-7.83854e-05 0.00915729 -4.26246e-05)
(-6.16124e-05 0.00911475 -4.05166e-05)
(-4.38831e-05 0.00897383 -3.62237e-05)
(-2.88956e-05 0.00875054 -2.06527e-05)
(-2.99394e-05 0.00825625 -2.11647e-05)
(-3.12341e-05 0.00748652 -1.34183e-05)
(-3.6757e-05 0.00678629 -6.35508e-06)
(-3.76224e-05 0.00642146 5.33203e-06)
(-4.13672e-05 0.00637072 1.19966e-05)
(-2.84684e-05 0.00643578 -7.99252e-06)
(-1.83229e-05 0.00648987 -4.15259e-05)
(-2.24665e-05 0.00649778 -5.06069e-05)
(-1.76781e-05 0.00650361 -4.22401e-05)
(3.36345e-09 0.00654943 -3.99211e-05)
(5.41978e-06 0.00664892 -4.38028e-05)
(-4.24703e-06 0.00671977 -2.65986e-05)
(-6.13061e-06 0.00676822 -1.51311e-05)
(-8.44841e-06 0.00683297 -1.40352e-05)
(-9.16403e-06 0.00692662 -1.73463e-05)
(-1.23122e-05 0.00703162 -1.6775e-05)
(-1.67855e-05 0.00709028 -7.92669e-06)
(-1.77334e-05 0.00706498 -3.1517e-06)
(-1.48826e-05 0.00695644 -9.58287e-06)
(-8.54694e-06 0.0068256 -1.56124e-05)
(-3.94441e-06 0.0067586 -2.39731e-05)
(6.41697e-07 0.00675817 -2.88852e-05)
(3.8593e-06 0.00648711 -3.16481e-05)
(2.29566e-06 0.00590658 -1.52196e-05)
(-4.67364e-07 0.000319787 -2.72828e-07)
(-6.11258e-07 0.000365376 -7.67237e-08)
(-7.85362e-07 0.000427679 -1.16246e-07)
(-8.6022e-07 0.000483899 -1.20797e-07)
(-7.50071e-07 0.000536935 -4.24452e-08)
(-6.88132e-07 0.000582531 1.35238e-08)
(-5.73776e-07 0.000619748 3.06157e-08)
(-4.5908e-07 0.000651768 3.89294e-08)
(-3.4642e-07 0.000675487 5.25907e-08)
(-2.57002e-07 0.000689844 6.29312e-08)
(-2.17054e-07 0.000697095 6.45343e-08)
(-2.38654e-07 0.000700553 7.43541e-08)
(-2.91392e-07 0.000702423 7.98289e-08)
(-3.53707e-07 0.000703468 8.93406e-08)
(-4.06032e-07 0.000704006 9.2844e-08)
(-4.60789e-07 0.000704228 9.33195e-08)
(-5.02852e-07 0.000704263 9.10323e-08)
(-5.51559e-07 0.000704207 8.75092e-08)
(-5.96919e-07 0.000704112 8.47416e-08)
(-6.52031e-07 0.000703997 8.22096e-08)
(-7.04245e-07 0.000703868 8.16748e-08)
(-7.69006e-07 0.000703734 8.0679e-08)
(-8.3061e-07 0.000703606 8.17197e-08)
(-9.05405e-07 0.000703491 8.20854e-08)
(-9.73514e-07 0.000703394 8.41399e-08)
(-1.05425e-06 0.000703321 8.46995e-08)
(-1.12442e-06 0.000703277 8.6487e-08)
(-1.20667e-06 0.000703262 8.60748e-08)
(-1.27396e-06 0.000703284 8.72101e-08)
(-1.3523e-06 0.000703345 8.60121e-08)
(-1.41093e-06 0.000703454 8.60042e-08)
(-1.48109e-06 0.000703611 8.18006e-08)
(-1.52445e-06 0.000703822 7.96583e-08)
(-1.57506e-06 0.000704093 7.36792e-08)
(-1.59066e-06 0.000704439 6.89024e-08)
(-1.60619e-06 0.000704867 6.07596e-08)
(-1.57227e-06 0.000705389 5.45416e-08)
(-1.52424e-06 0.000706008 4.581e-08)
(-1.40694e-06 0.000706748 4.0133e-08)
(-1.25529e-06 0.000707639 3.95859e-08)
(-1.00087e-06 0.000708678 6.33768e-08)
(-6.4782e-07 0.000710622 1.45581e-07)
(-1.12447e-07 0.000724448 3.69028e-07)
(5.56199e-07 0.000778319 8.26705e-07)
(1.29702e-06 0.000904382 1.5043e-06)
(1.6867e-06 0.00116847 2.69939e-06)
(-1.77611e-06 0.00179016 5.48213e-06)
(-4.36307e-06 0.00282553 -1.14583e-05)
(-2.7958e-05 0.0036945 -1.51759e-05)
(-2.81508e-05 0.00383532 -2.19703e-05)
(-4.30154e-05 0.00376542 -7.41512e-05)
(-7.17398e-05 0.00376742 -0.000108481)
(-3.99356e-05 0.00381183 -0.000147418)
(-1.90219e-05 0.00380609 -3.45542e-05)
(1.33826e-05 0.00392346 4.07397e-05)
(-0.000126715 0.00384039 -1.07745e-06)
(-0.000667387 0.00545742 0.000100129)
(-3.78301e-05 0.00782572 -0.00021842)
(-6.30896e-05 0.00848945 8.54484e-05)
(0.0148215 0.114473 -0.00137886)
(-0.00497884 0.518115 0.00567902)
(-0.000339996 0.0555699 -0.000787838)
(0.00317572 0.16284 0.000846026)
(-0.000313447 0.0341915 4.17764e-05)
(-0.000239172 0.0113274 -1.8319e-05)
(-0.000319731 0.0114931 -2.39856e-07)
(-0.000177296 0.011149 -1.64447e-05)
(-7.9277e-05 0.0110394 -4.36147e-05)
(-8.00264e-05 0.0106161 -5.68009e-05)
(-0.000118579 0.00955781 -7.79132e-05)
(-5.07938e-05 0.00883289 -5.89084e-05)
(-0.000249222 0.0085364 -7.03529e-05)
(-0.00020785 0.0080374 -5.29059e-05)
(-0.000192804 0.0074138 -2.39719e-05)
(-0.000119979 0.00687642 -3.39911e-06)
(2.33302e-06 0.00668285 2.37948e-05)
(0.000155171 0.00684185 3.55489e-05)
(8.51078e-06 0.0069946 -1.05204e-05)
(-1.09641e-05 0.00684347 -6.99166e-05)
(-1.19126e-05 0.00677365 -8.20961e-05)
(1.76653e-05 0.00677717 -7.21014e-05)
(3.19337e-05 0.00667431 -6.56554e-05)
(-6.48141e-06 0.00658273 -6.43359e-05)
(-0.000108563 0.00658764 -4.35011e-05)
(-1.52234e-05 0.00680985 -4.03124e-05)
(-1.02552e-05 0.00712364 -4.01529e-05)
(-1.55879e-05 0.0074187 -2.79128e-05)
(-3.19511e-05 0.00754167 -1.48475e-05)
(-3.02673e-05 0.00741876 -5.2489e-07)
(-9.67626e-06 0.00722938 5.71478e-06)
(-1.38705e-05 0.0071406 -4.42704e-06)
(-1.56091e-05 0.00710364 -1.37028e-05)
(-8.11003e-06 0.00705993 -2.12936e-05)
(-1.22802e-06 0.00700443 -2.87076e-05)
(5.73095e-06 0.00666907 -2.92272e-05)
(5.91935e-06 0.00603184 -1.39727e-05)
(-5.66543e-07 0.000307307 -1.14926e-08)
(-8.18608e-07 0.000343432 6.19062e-08)
(-1.17696e-06 0.000403339 -4.89886e-08)
(-1.15758e-06 0.000462748 -1.26188e-08)
(-1.04346e-06 0.000521974 1.80941e-08)
(-8.81454e-07 0.000574582 4.98217e-08)
(-7.87282e-07 0.000614526 6.56779e-08)
(-6.58364e-07 0.000646198 6.96948e-08)
(-5.42135e-07 0.000669991 7.43804e-08)
(-4.53731e-07 0.000685547 7.94993e-08)
(-4.29364e-07 0.000694389 8.3415e-08)
(-4.62661e-07 0.000699243 8.98909e-08)
(-5.28919e-07 0.000701842 9.09763e-08)
(-6.08007e-07 0.000703129 1.02671e-07)
(-6.89554e-07 0.000703722 1.00358e-07)
(-7.75639e-07 0.000703952 1.05124e-07)
(-8.59753e-07 0.000703975 9.93871e-08)
(-9.4195e-07 0.000703908 1.0295e-07)
(-1.02827e-06 0.000703803 9.53165e-08)
(-1.11169e-06 0.000703678 1.0051e-07)
(-1.20191e-06 0.000703541 9.26928e-08)
(-1.28949e-06 0.000703399 1.00295e-07)
(-1.38754e-06 0.000703259 9.15874e-08)
(-1.48273e-06 0.000703131 1.00828e-07)
(-1.58956e-06 0.000703018 9.02704e-08)
(-1.69061e-06 0.000702931 1.00537e-07)
(-1.80199e-06 0.000702874 8.75002e-08)
(-1.90372e-06 0.000702855 9.89552e-08)
(-2.01483e-06 0.000702877 8.36097e-08)
(-2.11163e-06 0.000702949 9.63094e-08)
(-2.21459e-06 0.000703072 7.75302e-08)
(-2.29685e-06 0.000703255 9.04501e-08)
(-2.37909e-06 0.000703494 6.65037e-08)
(-2.43116e-06 0.000703801 7.82423e-08)
(-2.47683e-06 0.000704183 4.9899e-08)
(-2.47886e-06 0.000704655 6.18873e-08)
(-2.45923e-06 0.000705222 3.15155e-08)
(-2.37636e-06 0.000705901 4.70868e-08)
(-2.25258e-06 0.000706706 1.87316e-08)
(-2.04253e-06 0.000707664 4.94882e-08)
(-1.76208e-06 0.000708885 5.77245e-08)
(-1.32679e-06 0.000711436 1.73262e-07)
(-6.70414e-07 0.000722025 3.54832e-07)
(2.4807e-07 0.00075507 7.72753e-07)
(1.50186e-06 0.000832728 1.45269e-06)
(3.30974e-06 0.00100763 2.72297e-06)
(5.01648e-06 0.00161537 6.56274e-06)
(-1.84323e-05 0.00279265 6.63632e-06)
(-3.63254e-05 0.00369864 -2.09259e-05)
(-3.77814e-05 0.00383429 -5.03679e-05)
(-3.65166e-05 0.00378023 -7.9155e-05)
(6.71674e-06 0.0038046 -0.000142654)
(7.67477e-05 0.00382996 -0.000143104)
(7.10816e-05 0.00379343 -7.71321e-06)
(-5.62771e-07 0.00368149 1.46349e-05)
(-0.00020821 0.00322532 6.26842e-05)
(-6.28254e-05 0.00627222 0.000549155)
(-0.000327965 0.0111819 -0.00028652)
(-0.00173863 0.0145664 -8.45633e-05)
(0.0269941 0.152712 -0.00466182)
(-0.0515095 0.730722 0.00247845)
(0.0070501 0.519209 0.00740385)
(0.00377319 0.564275 0.00604133)
(0.00740409 0.540885 0.00313018)
(0.00305287 0.539083 0.00295574)
(0.00237901 0.533332 0.00519807)
(-0.00176399 0.53554 0.000648724)
(-0.00523082 0.526375 -0.000576054)
(-0.0103752 0.4898 -0.000406456)
(-0.0102503 0.348185 -0.00101559)
(-0.000171607 0.0518526 -0.000229716)
(-0.00519212 0.207697 -0.00166818)
(-0.0116696 0.448558 -0.00343514)
(-0.00833048 0.490516 -0.00626616)
(0.00543021 0.507997 -0.01409)
(0.0175397 0.493832 -0.00418679)
(0.0297909 0.348019 -0.00316091)
(0.000490323 0.026812 1.78748e-05)
(0.000307762 0.00896184 -0.000353797)
(-2.06966e-05 0.0107055 -0.00046939)
(-0.000345148 0.0113747 -0.000576412)
(-0.000548099 0.0313476 -0.000513047)
(-0.002916 0.117396 -0.00315266)
(-0.000202461 0.285492 -0.00627365)
(0.000215254 0.0288015 -1.22367e-05)
(0.000106661 0.00804001 -5.1394e-05)
(-6.66878e-07 0.00795243 -3.74275e-05)
(-1.17652e-05 0.00761229 1.02488e-06)
(-1.70599e-05 0.00738392 2.21325e-05)
(-1.46278e-05 0.00737677 1.50213e-05)
(-3.52953e-05 0.00747577 -1.42421e-05)
(-3.18203e-05 0.00757155 -2.56678e-05)
(-1.43172e-05 0.00757186 -2.27364e-05)
(-1.03095e-05 0.00742589 -2.53243e-05)
(-9.931e-06 0.00689928 -2.39135e-05)
(-6.01983e-06 0.00610842 -1.37369e-05)
(-9.25597e-07 0.00029836 -1.29011e-07)
(-1.29162e-06 0.000324518 2.33409e-08)
(-1.70858e-06 0.000380395 -1.0311e-07)
(-1.47625e-06 0.000439087 -6.24273e-08)
(-1.29516e-06 0.000495992 1.71771e-08)
(-1.03963e-06 0.000552791 4.59717e-08)
(-9.33283e-07 0.000603464 4.8196e-08)
(-7.98723e-07 0.00064031 6.98978e-08)
(-7.0775e-07 0.000664568 6.59584e-08)
(-6.30682e-07 0.000681511 6.80403e-08)
(-6.0906e-07 0.000692149 6.96109e-08)
(-6.34414e-07 0.000698397 7.28708e-08)
(-6.95009e-07 0.000701686 7.55024e-08)
(-7.85909e-07 0.000703183 8.13048e-08)
(-8.84826e-07 0.000703807 8.67351e-08)
(-1.00444e-06 0.000704021 8.52508e-08)
(-1.12466e-06 0.000704036 9.13653e-08)
(-1.2529e-06 0.000703966 8.62682e-08)
(-1.3779e-06 0.000703865 9.16684e-08)
(-1.50709e-06 0.000703745 8.24965e-08)
(-1.63102e-06 0.000703613 8.7419e-08)
(-1.76011e-06 0.00070347 7.5549e-08)
(-1.88384e-06 0.00070333 8.14973e-08)
(-2.01445e-06 0.000703195 6.77448e-08)
(-2.13892e-06 0.000703077 7.48116e-08)
(-2.27187e-06 0.00070298 5.87933e-08)
(-2.39758e-06 0.000702914 6.71706e-08)
(-2.53155e-06 0.000702878 4.93187e-08)
(-2.6554e-06 0.000702885 5.9322e-08)
(-2.78426e-06 0.000702934 3.8451e-08)
(-2.89578e-06 0.000703038 4.82572e-08)
(-3.00563e-06 0.0007032 2.30051e-08)
(-3.09074e-06 0.00070343 3.17604e-08)
(-3.16576e-06 0.000703735 1.32207e-09)
(-3.20251e-06 0.000704129 8.42025e-09)
(-3.21327e-06 0.00070462 -2.64569e-08)
(-3.16566e-06 0.000705221 -1.92245e-08)
(-3.07216e-06 0.00070594 -5.59044e-08)
(-2.90076e-06 0.000706806 -4.61045e-08)
(-2.66244e-06 0.000707836 -7.08369e-08)
(-2.32686e-06 0.000709178 -2.49812e-08)
(-1.86685e-06 0.000711962 3.99402e-08)
(-1.21456e-06 0.000721119 2.28926e-07)
(-2.83744e-07 0.000745435 5.12557e-07)
(1.11937e-06 0.000798878 1.12591e-06)
(3.14765e-06 0.000917193 2.15441e-06)
(9.0103e-06 0.00143923 5.80542e-06)
(-3.52069e-06 0.00261426 1.41748e-05)
(-5.58644e-05 0.00362349 -1.45133e-05)
(-8.25318e-05 0.0038702 -5.20919e-05)
(-1.57234e-05 0.00383304 -8.52123e-05)
(5.80055e-05 0.00386379 -0.000168347)
(7.00528e-05 0.00387868 -0.000153004)
(8.04855e-05 0.00382355 -3.64867e-05)
(1.29288e-05 0.00376292 -0.000160527)
(2.95926e-05 0.00383575 1.82432e-05)
(0.00120729 0.00623505 0.00023988)
(0.00061698 0.0084436 -0.000125523)
(-0.00155029 0.0153655 -0.000146086)
(0.0399663 0.221895 -0.00655117)
(-0.0207222 0.673883 0.00497187)
(0.0200627 0.527411 0.0133618)
(0.00322119 0.555915 0.00827637)
(0.00714062 0.541603 0.00576791)
(0.00239445 0.538883 0.00395758)
(0.0017912 0.536769 0.00389194)
(-0.00466142 0.535237 0.0027274)
(-0.0114058 0.531619 0.000550901)
(-0.0214498 0.525051 -0.00412752)
(-0.0340586 0.523387 -0.010011)
(-0.0354989 0.52612 -0.0166354)
(-0.0223603 0.533639 -0.0159378)
(-0.0178059 0.540091 -0.0160022)
(-0.0038811 0.546419 -0.00576143)
(0.0152083 0.54574 -0.000659939)
(0.0237665 0.554694 0.0149878)
(0.00961873 0.556086 0.0259367)
(-0.0112496 0.57132 0.00956939)
(-0.00805373 0.546847 -0.00689451)
(-0.00524198 0.534045 -0.00529619)
(-0.000773218 0.527637 -0.0105848)
(0.0109024 0.529959 -0.0268559)
(0.0234111 0.533884 -0.0401881)
(0.0221391 0.517409 -0.0246201)
(0.010264 0.462593 -0.00203493)
(-0.00120369 0.280711 0.00462932)
(-0.000176559 0.0291021 -3.32598e-05)
(-0.000291684 0.00672392 -2.8856e-05)
(-0.00028469 0.00637099 6.85605e-06)
(-7.82153e-05 0.00670023 -1.03571e-05)
(-6.00692e-05 0.00701529 -3.86067e-05)
(-3.684e-05 0.00726399 -4.43263e-05)
(-1.62499e-05 0.00745804 -2.26971e-05)
(-1.88378e-05 0.00743813 -2.00058e-05)
(-2.99662e-05 0.00697106 -2.08579e-05)
(-2.19557e-05 0.00620191 -1.67821e-05)
(-1.29709e-06 0.000292848 -4.97943e-07)
(-1.81188e-06 0.00031128 -1.93775e-07)
(-2.20942e-06 0.000359593 -2.45678e-07)
(-1.6881e-06 0.000415982 -1.58628e-07)
(-1.50008e-06 0.000472169 -6.14578e-08)
(-1.17358e-06 0.000529169 -1.49363e-08)
(-9.97143e-07 0.000586433 4.435e-09)
(-8.20502e-07 0.000631071 3.73755e-08)
(-8.02814e-07 0.00065842 4.25653e-08)
(-7.10466e-07 0.000677091 3.90151e-08)
(-7.25537e-07 0.000689622 3.38752e-08)
(-7.44691e-07 0.000697222 4.17591e-08)
(-8.17602e-07 0.000701142 3.86564e-08)
(-9.14764e-07 0.000702773 5.69442e-08)
(-1.04192e-06 0.000703371 6.00838e-08)
(-1.18594e-06 0.000703557 7.53094e-08)
(-1.34015e-06 0.000703551 7.51594e-08)
(-1.49363e-06 0.000703467 8.42806e-08)
(-1.65134e-06 0.000703356 7.572e-08)
(-1.8054e-06 0.000703233 7.9857e-08)
(-1.95969e-06 0.000703104 6.5211e-08)
(-2.10862e-06 0.000702975 6.70516e-08)
(-2.25651e-06 0.000702844 4.82584e-08)
(-2.39946e-06 0.000702723 5.04994e-08)
(-2.5448e-06 0.000702613 3.03755e-08)
(-2.68546e-06 0.000702528 3.43747e-08)
(-2.82754e-06 0.000702468 1.22771e-08)
(-2.9644e-06 0.000702445 1.81127e-08)
(-3.10147e-06 0.000702458 -5.01189e-09)
(-3.22961e-06 0.000702521 2.10537e-09)
(-3.35146e-06 0.000702636 -2.45109e-08)
(-3.45566e-06 0.000702817 -1.89354e-08)
(-3.54321e-06 0.000703069 -5.08504e-08)
(-3.60033e-06 0.000703406 -4.8876e-08)
(-3.62357e-06 0.000703838 -8.79949e-08)
(-3.59773e-06 0.000704382 -9.24817e-08)
(-3.51464e-06 0.000705046 -1.39143e-07)
(-3.36196e-06 0.000705849 -1.50103e-07)
(-3.1344e-06 0.000706794 -2.01926e-07)
(-2.82911e-06 0.000707882 -2.13569e-07)
(-2.44255e-06 0.000709304 -2.48171e-07)
(-1.98134e-06 0.00071208 -2.28138e-07)
(-1.35034e-06 0.000719864 -1.62691e-07)
(-5.02501e-07 0.00073998 1.35069e-08)
(8.28299e-07 0.000782447 3.41047e-07)
(2.68683e-06 0.000860253 9.55251e-07)
(7.10497e-06 0.00113886 2.60102e-06)
(1.63275e-05 0.0020246 9.23847e-06)
(-4.81102e-05 0.00324211 1.38706e-05)
(-0.000100262 0.00384185 -1.56228e-05)
(-5.16878e-05 0.00392316 -7.45568e-05)
(2.14752e-05 0.00392723 -0.000110866)
(-5.68759e-07 0.00394821 -0.00011062)
(4.55721e-05 0.00395532 -0.000136508)
(7.11202e-05 0.00396319 -0.000209215)
(0.00011671 0.00439999 -9.55323e-05)
(0.000758143 0.00656287 -0.000339322)
(0.00105871 0.00680785 -0.000456181)
(-0.00010365 0.011244 0.00037111)
(0.036428 0.236169 -0.0138505)
(-0.00321327 0.67498 0.00245714)
(0.0118716 0.538772 0.0104578)
(0.00193507 0.553311 0.00682644)
(0.00175789 0.545735 0.00505232)
(-0.000385934 0.546426 0.00203201)
(-0.00177767 0.543541 0.000881301)
(-0.00254582 0.53348 0.00126278)
(-0.00712314 0.528565 -0.00292734)
(-0.0158436 0.517483 -0.00972079)
(-0.023768 0.511486 -0.0169004)
(-0.0271907 0.525535 -0.0176998)
(-0.0150478 0.54521 -0.0115422)
(-0.010311 0.548668 -0.00480831)
(-0.00180122 0.561363 0.0125865)
(0.00480836 0.564232 0.0219966)
(-0.000257787 0.558704 0.012697)
(-0.00744703 0.547903 0.00227379)
(0.000956764 0.543115 -0.0013252)
(0.00626747 0.538877 -0.0101489)
(0.00507185 0.535704 -0.0227711)
(0.00591893 0.536534 -0.0347966)
(0.0139297 0.550032 -0.03893)
(0.0154629 0.553868 -0.00365235)
(0.0140293 0.554094 0.0149675)
(-0.00428268 0.545126 0.0156577)
(-0.0111728 0.52871 0.0114903)
(-0.0193402 0.516532 0.00945792)
(-0.0279243 0.472324 0.0175307)
(-0.0237191 0.318759 0.0139816)
(-0.000366527 0.0295198 -0.000401809)
(-0.000261214 0.00516485 -0.00100302)
(-6.40905e-06 0.0045628 -2.66436e-05)
(-4.16482e-06 0.00531519 -1.64753e-05)
(-1.31075e-05 0.00579597 -9.43932e-06)
(-2.35799e-05 0.0059748 -6.96276e-06)
(-2.4159e-05 0.0056548 -4.38931e-06)
(-1.83764e-06 0.000289917 -1.02828e-06)
(-2.48181e-06 0.000304868 -4.06981e-07)
(-2.69591e-06 0.0003441 -2.57343e-07)
(-1.93622e-06 0.000396259 -6.22933e-08)
(-1.60809e-06 0.000455179 -1.04076e-07)
(-1.22243e-06 0.000509862 -7.97318e-08)
(-9.98018e-07 0.000564709 -5.41903e-08)
(-7.88816e-07 0.00061802 -2.08946e-08)
(-8.61182e-07 0.000653068 9.65623e-09)
(-7.55257e-07 0.000673571 1.6857e-08)
(-7.76273e-07 0.000687391 1.6988e-08)
(-7.54751e-07 0.000696311 1.60627e-08)
(-8.32813e-07 0.000700982 2.19792e-08)
(-9.66351e-07 0.000702816 3.41126e-08)
(-1.14388e-06 0.000703449 5.76649e-08)
(-1.31837e-06 0.000703634 7.90387e-08)
(-1.48753e-06 0.000703616 9.94364e-08)
(-1.64047e-06 0.000703516 9.47831e-08)
(-1.79651e-06 0.000703395 9.24101e-08)
(-1.95078e-06 0.000703257 7.4016e-08)
(-2.10593e-06 0.000703105 6.81516e-08)
(-2.25492e-06 0.000702938 4.74346e-08)
(-2.40223e-06 0.000702781 4.29509e-08)
(-2.543e-06 0.000702638 2.21417e-08)
(-2.68198e-06 0.000702515 1.94796e-08)
(-2.81775e-06 0.000702413 -1.50375e-09)
(-2.95712e-06 0.000702344 -2.93884e-09)
(-3.08918e-06 0.000702312 -2.50122e-08)
(-3.22179e-06 0.000702329 -2.53547e-08)
(-3.33732e-06 0.000702397 -4.90841e-08)
(-3.44434e-06 0.000702526 -5.08949e-08)
(-3.52138e-06 0.00070272 -7.97776e-08)
(-3.57885e-06 0.000702994 -8.70045e-08)
(-3.58828e-06 0.000703357 -1.24337e-07)
(-3.56172e-06 0.000703826 -1.41609e-07)
(-3.46292e-06 0.000704414 -1.90145e-07)
(-3.3079e-06 0.000705136 -2.18054e-07)
(-3.05638e-06 0.000706009 -2.74907e-07)
(-2.74277e-06 0.000707041 -3.14269e-07)
(-2.32649e-06 0.000708239 -3.78471e-07)
(-1.85508e-06 0.000709723 -4.24294e-07)
(-1.28441e-06 0.000712361 -4.70266e-07)
(-6.43509e-07 0.00071882 -4.61405e-07)
(2.00436e-07 0.000735551 -3.73094e-07)
(1.29003e-06 0.000775932 -1.25554e-07)
(2.84426e-06 0.000873938 2.07254e-07)
(4.77887e-06 0.00106311 1.38275e-07)
(9.67455e-06 0.00157111 -7.56057e-07)
(1.00709e-05 0.00262238 2.03227e-05)
(-5.90558e-05 0.00357527 1.86053e-05)
(-5.55643e-05 0.00398612 -7.39416e-05)
(-2.23195e-05 0.00404263 -9.81179e-05)
(-1.51678e-05 0.0040625 -8.02719e-05)
(4.14313e-05 0.00403475 -7.0929e-05)
(9.2118e-05 0.003976 -0.000137762)
(0.000124679 0.00441269 -0.000161529)
(-2.13486e-05 0.00671383 -0.000867701)
(0.000254413 0.00552227 -0.00102752)
(0.00028888 0.0106184 0.000351587)
(0.014381 0.252253 -0.0195499)
(-0.00975175 0.679574 0.00191139)
(0.000491366 0.544771 0.0096574)
(0.000449036 0.555238 0.00586679)
(0.00349925 0.546726 0.00236957)
(0.0076638 0.544644 -0.000612534)
(0.0112157 0.545072 0.00118441)
(0.0141427 0.536384 0.00413555)
(0.00883717 0.532906 0.000227583)
(-0.000777471 0.528115 -0.00362214)
(-0.0103364 0.529442 -0.000461656)
(-0.0242755 0.525188 0.00243779)
(-0.0346811 0.529323 -0.00160331)
(-0.0168997 0.548242 -0.000152291)
(-0.00850442 0.553442 0.00330478)
(-0.000240813 0.550665 0.00273102)
(0.00356983 0.545818 -0.00447413)
(0.00360219 0.541928 -0.00943606)
(0.00386633 0.539856 -0.0146796)
(0.00719285 0.543306 -0.0221766)
(0.00930984 0.548147 -0.0158218)
(0.0124201 0.546158 -0.00459931)
(0.0139757 0.54472 0.00185178)
(0.0113944 0.546826 -0.000738818)
(0.00903977 0.5466 -0.00764936)
(0.00635523 0.546871 -0.00731253)
(-0.00113802 0.544961 -0.00555448)
(-0.00690302 0.53991 -0.00918561)
(-0.0152669 0.528476 -0.0102989)
(-0.0205477 0.504992 -0.0126371)
(-0.0127917 0.469243 -0.011872)
(-0.00576546 0.320749 -0.00383482)
(0.000174465 0.0277426 -0.000318212)
(2.05237e-06 0.004994 -0.000176365)
(-7.41055e-05 0.00499311 -0.000167517)
(-9.43548e-05 0.00467133 -0.00017314)
(-3.35058e-05 0.00452875 -0.00022715)
(-2.43713e-06 0.000289368 -1.73402e-06)
(-3.46069e-06 0.000306775 -5.85771e-07)
(-3.10855e-06 0.000336389 -1.7774e-07)
(-2.03282e-06 0.000380532 2.0926e-07)
(-1.54889e-06 0.000442992 4.81907e-09)
(-1.07865e-06 0.000498829 -3.18269e-08)
(-8.40636e-07 0.000549156 -6.61854e-08)
(-5.62057e-07 0.000605941 -7.0548e-08)
(-8.73764e-07 0.000648014 7.4524e-09)
(-7.45527e-07 0.000671575 1.54452e-08)
(-8.12848e-07 0.000686389 3.18597e-08)
(-8.34659e-07 0.000695715 4.94745e-08)
(-9.39439e-07 0.000700625 7.35081e-08)
(-1.11128e-06 0.000702565 1.08286e-07)
(-1.30647e-06 0.000703224 1.21831e-07)
(-1.4861e-06 0.000703434 1.46393e-07)
(-1.65453e-06 0.000703421 1.60481e-07)
(-1.81123e-06 0.000703313 1.77433e-07)
(-1.96167e-06 0.000703184 1.81926e-07)
(-2.11482e-06 0.000703044 1.89018e-07)
(-2.26011e-06 0.000702904 1.79628e-07)
(-2.40851e-06 0.000702775 1.72904e-07)
(-2.54731e-06 0.000702651 1.53087e-07)
(-2.68846e-06 0.000702538 1.41935e-07)
(-2.81822e-06 0.000702441 1.18892e-07)
(-2.9518e-06 0.000702365 1.07195e-07)
(-3.07344e-06 0.000702317 8.41056e-08)
(-3.19639e-06 0.000702308 7.27923e-08)
(-3.29768e-06 0.000702342 4.86906e-08)
(-3.38821e-06 0.00070243 3.65424e-08)
(-3.44259e-06 0.000702581 9.01576e-09)
(-3.47587e-06 0.000702806 -9.60418e-09)
(-3.4572e-06 0.000703118 -4.65681e-08)
(-3.40207e-06 0.000703535 -7.78775e-08)
(-3.27458e-06 0.000704072 -1.29686e-07)
(-3.08937e-06 0.000704743 -1.78584e-07)
(-2.80616e-06 0.000705567 -2.44988e-07)
(-2.4416e-06 0.000706545 -3.05011e-07)
(-1.95958e-06 0.000707689 -3.72467e-07)
(-1.40205e-06 0.000709013 -4.43265e-07)
(-7.42526e-07 0.00071063 -5.19157e-07)
(-2.97192e-08 0.00071312 -6.11876e-07)
(7.80192e-07 0.000718764 -6.40896e-07)
(1.72123e-06 0.00073408 -5.95578e-07)
(2.90782e-06 0.00077474 -2.4038e-07)
(4.59772e-06 0.000883924 1.33666e-07)
(6.86955e-06 0.00108726 5.52393e-08)
(1.03153e-05 0.00147329 -2.97756e-06)
(2.90415e-05 0.00223706 2.93768e-05)
(3.5168e-05 0.00319207 4.24977e-05)
(-2.19757e-05 0.0038374 -3.19271e-05)
(-4.23903e-05 0.00408582 -6.41514e-05)
(-2.91576e-05 0.00419955 -6.36705e-05)
(-3.85101e-05 0.00427891 -6.27023e-05)
(4.2947e-05 0.00420369 -8.27166e-05)
(8.41636e-05 0.00440199 -6.31529e-05)
(-0.000355446 0.00633936 -0.000662915)
(-0.000212078 0.00499251 -0.000415788)
(3.36012e-07 0.0104284 0.000115245)
(-0.00626693 0.247573 -0.0221219)
(-0.0154072 0.677352 -0.00469245)
(-0.00568683 0.538901 0.00511084)
(-0.00374809 0.548892 0.00369517)
(-0.00129925 0.543042 0.00300457)
(0.000406784 0.540954 0.000839855)
(0.00184179 0.546681 0.00154176)
(0.00694914 0.544232 0.00264251)
(0.0142379 0.54767 0.00100793)
(0.0167858 0.555488 -0.00563765)
(0.00836299 0.546225 -0.00580578)
(-0.00438803 0.540614 -0.00722451)
(-0.0183757 0.535706 -0.00804786)
(-0.0141745 0.534906 -0.00512543)
(-0.00319003 0.547272 -0.00686731)
(0.00129991 0.551578 -0.00815211)
(0.00331397 0.546404 -0.0106583)
(0.00779536 0.539516 -0.00894081)
(0.0111426 0.546933 -0.00325481)
(0.0109391 0.541341 -2.309e-06)
(0.0103333 0.540277 0.00426345)
(0.00902527 0.536555 0.00498469)
(0.00471643 0.536543 0.000881333)
(0.0030278 0.542275 -0.000376559)
(0.00488605 0.545366 -0.00199509)
(0.00319198 0.548108 -0.00605892)
(0.00071856 0.553408 -0.00422934)
(-0.00114389 0.555533 0.00456802)
(-0.00547416 0.553006 0.00559588)
(-0.00976874 0.545019 0.00328942)
(-0.0131961 0.532563 0.00127601)
(-0.0156136 0.525251 -0.00338983)
(-0.0143438 0.513501 -0.00327969)
(-0.0134081 0.506785 -0.0100005)
(-0.0157747 0.505707 -0.0174853)
(-0.0106721 0.506706 -0.0194139)
(-0.0085701 0.49518 -0.0233767)
(-5.02347e-06 0.000140634 -5.15071e-06)
(-4.25944e-06 0.000310764 -1.11825e-06)
(-3.33225e-06 0.000328556 -2.18154e-07)
(-1.84191e-06 0.000364472 2.79396e-07)
(-1.21978e-06 0.000428348 -7.58902e-09)
(-7.80003e-07 0.000491868 -3.20113e-08)
(-3.19209e-07 0.000542039 -5.75037e-09)