/*--------------------------------*- C++ -*----------------------------------*\
| =========                 |                                                 |
| \\      /  F ield         | OpenFOAM: The Open Source CFD Toolbox           |
|  \\    /   O peration     | Version:  2.3.0                                 |
|   \\  /    A nd           | Web:      www.OpenFOAM.org                      |
|    \\/     M anipulation  |                                                 |
\*---------------------------------------------------------------------------*/
FoamFile
{
    version     2.0;
    format      ascii;
    class       volScalarField;
    location    "50";
    object      alpha.water;
}
// * * * * * * * * * * * * * * * * * * * * * * * * * * * * * * * * * * * * * //

dimensions      [0 0 0 0 0 0 0];

internalField   nonuniform List<scalar> 
6144
(
3.86316e-06
4.46016e-06
4.94578e-06
5.37592e-06
5.80819e-06
6.65915e-06
7.7347e-06
8.71458e-06
9.50617e-06
9.89221e-06
9.96599e-06
9.97622e-06
9.97923e-06
9.98418e-06
9.98666e-06
9.98856e-06
9.98839e-06
9.98893e-06
9.98842e-06
9.98855e-06
9.98847e-06
9.98827e-06
9.98775e-06
9.98719e-06
9.98658e-06
9.98614e-06
9.98571e-06
9.98517e-06
9.98454e-06
9.98395e-06
9.9833e-06
9.98268e-06
9.98196e-06
9.9812e-06
9.98028e-06
9.97942e-06
9.97863e-06
9.97791e-06
9.97719e-06
9.97701e-06
9.97701e-06
9.97703e-06
1.0013e-05
1.09072e-05
1.69529e-05
3.24877e-05
5.51836e-05
7.48295e-05
8.64248e-05
9.89959e-05
0.000109788
0.000114065
0.000114992
0.000116352
0.000115998
0.000117491
0.000115904
0.000121392
0.000544866
0.0465427
0.940621
0.999573
0.999999
1
1
1
1
1
1
1
1
1
1
1
1
0.999999
0.999999
0.999999
0.999999
0.999999
0.999999
0.999999
0.999999
0.999999
0.999999
0.999999
0.999999
0.999999
0.999999
0.999999
1
1
1
1
1
1
3.52845e-06
4.20159e-06
5.11424e-06
5.5654e-06
6.2062e-06
6.97468e-06
7.86729e-06
8.77856e-06
9.53069e-06
9.87936e-06
9.95696e-06
9.97275e-06
9.97943e-06
9.98721e-06
9.9924e-06
9.99578e-06
9.99638e-06
9.99664e-06
9.99575e-06
9.99566e-06
9.99554e-06
9.99507e-06
9.99453e-06
9.99405e-06
9.99365e-06
9.99346e-06
9.9934e-06
9.99307e-06
9.99274e-06
9.99251e-06
9.9923e-06
9.99206e-06
9.99173e-06
9.99125e-06
9.99063e-06
9.98985e-06
9.98893e-06
9.98779e-06
9.98649e-06
9.98559e-06
9.98522e-06
9.98764e-06
1.01103e-05
1.25162e-05
2.31636e-05
3.79087e-05
4.90559e-05
5.96521e-05
7.77344e-05
0.000102316
0.000115566
0.00011714
0.000117556
0.000117902
0.000116782
0.000118248
0.000113998
0.000118516
0.000252153
0.0300254
0.941606
0.999647
0.999999
1
1
1
1
1
1
1
1
1
1
1
1
0.999999
0.999999
0.999999
0.999999
0.999999
0.999999
0.999999
0.999999
0.999999
0.999999
0.999999
0.999999
0.999999
0.999999
0.999999
1
1
1
1
1
1
3.39995e-06
3.87586e-06
4.84991e-06
5.44014e-06
6.38882e-06
7.15901e-06
7.99063e-06
8.82885e-06
9.398e-06
9.72591e-06
9.86509e-06
9.92617e-06
9.9589e-06
9.97684e-06
9.98635e-06
9.99292e-06
9.99506e-06
9.99566e-06
9.99567e-06
9.99574e-06
9.99548e-06
9.99524e-06
9.99484e-06
9.9944e-06
9.99396e-06
9.99362e-06
9.99321e-06
9.99286e-06
9.99256e-06
9.99228e-06
9.99189e-06
9.99131e-06
9.99042e-06
9.9894e-06
9.9883e-06
9.98721e-06
9.98605e-06
9.98489e-06
9.98424e-06
9.9845e-06
9.98964e-06
1.00225e-05
1.0276e-05
1.2469e-05
1.97208e-05
2.85648e-05
3.62887e-05
4.80822e-05
7.404e-05
0.000106028
0.000116898
0.000118049
0.000119133
0.000119907
0.000119502
0.000119041
0.000113564
0.0001224
0.000213015
0.0221924
0.943112
0.999675
0.999998
0.999999
0.999999
0.999999
1
1
1
1
1
0.999999
0.999999
0.999999
0.999999
0.999999
0.999999
0.999999
0.999999
0.999999
0.999999
0.999999
0.999999
0.999999
0.999999
0.999999
0.999999
0.999999
0.999999
0.999999
1
1
1
1
1
1
3.35817e-06
3.60225e-06
4.529e-06
5.12531e-06
6.39097e-06
7.19451e-06
7.98702e-06
8.71706e-06
9.28998e-06
9.64072e-06
9.81248e-06
9.90294e-06
9.94954e-06
9.97178e-06
9.98189e-06
9.9892e-06
9.99115e-06
9.99155e-06
9.99127e-06
9.9912e-06
9.99086e-06
9.99065e-06
9.9902e-06
9.98959e-06
9.98897e-06
9.98831e-06
9.98783e-06
9.98741e-06
9.98722e-06
9.98709e-06
9.98707e-06
9.98682e-06
9.98634e-06
9.98554e-06
9.98464e-06
9.9836e-06
9.98263e-06
9.98213e-06
9.98205e-06
9.9823e-06
9.99358e-06
1.00777e-05
1.04476e-05
1.18776e-05
1.60183e-05
2.16911e-05
2.73326e-05
3.81506e-05
6.35672e-05
0.000104818
0.000116946
0.000118775
0.000119937
0.000121136
0.000121717
0.000119785
0.000114421
0.000143169
0.000177058
0.019097
0.953268
0.999755
0.999962
0.99997
0.999981
0.999987
0.99999
0.99999
0.999991
0.999991
0.999993
0.999995
0.999997
0.999999
0.999999
0.999999
0.999999
0.999999
0.999999
1
1
1
1
1
1
1
1
1
0.999999
1
1
1
1
1
1
1
3.31997e-06
3.43824e-06
4.22645e-06
4.74732e-06
5.98495e-06
6.84845e-06
7.85535e-06
8.61768e-06
9.17922e-06
9.56047e-06
9.7701e-06
9.88946e-06
9.94798e-06
9.97366e-06
9.98468e-06
9.99239e-06
9.99458e-06
9.99505e-06
9.99498e-06
9.9951e-06
9.99495e-06
9.99488e-06
9.99447e-06
9.99392e-06
9.99321e-06
9.99254e-06
9.99183e-06
9.99121e-06
9.99055e-06
9.98996e-06
9.98932e-06
9.98862e-06
9.98772e-06
9.98672e-06
9.98563e-06
9.98454e-06
9.98349e-06
9.98292e-06
9.98278e-06
9.98387e-06
9.99844e-06
1.01262e-05
1.06311e-05
1.17255e-05
1.38285e-05
1.7492e-05
2.37012e-05
3.37916e-05
5.35826e-05
9.21624e-05
0.000116697
0.000119172
0.000120058
0.00012111
0.000122611
0.000123109
0.000120591
0.000165757
0.00016398
0.0308277
0.967465
0.999628
0.999728
0.999748
0.999752
0.999751
0.999773
0.999781
0.9998
0.999835
0.999891
0.999953
0.999987
0.999999
0.999999
0.999999
0.999999
0.999998
0.999998
1
0.999999
0.999999
0.999999
0.999999
0.999999
1
1
1
1
1
1
1
1
1
1
1
3.25798e-06
3.37592e-06
3.96183e-06
4.36224e-06
5.59446e-06
6.43153e-06
7.54454e-06
8.48441e-06
9.05189e-06
9.47944e-06
9.72908e-06
9.87465e-06
9.94241e-06
9.96969e-06
9.9796e-06
9.98663e-06
9.98854e-06
9.98882e-06
9.98873e-06
9.98881e-06
9.98882e-06
9.9889e-06
9.98877e-06
9.98849e-06
9.98806e-06
9.98759e-06
9.98715e-06
9.98667e-06
9.9862e-06
9.98571e-06
9.9852e-06
9.98455e-06
9.98382e-06
9.98298e-06
9.98222e-06
9.98147e-06
9.98102e-06
9.98096e-06
9.98134e-06
9.98246e-06
9.9945e-06
1.0104e-05
1.05683e-05
1.15891e-05
1.32114e-05
1.61607e-05
2.2294e-05
3.20713e-05
5.07194e-05
7.86263e-05
0.000111447
0.000119457
0.000120389
0.000120641
0.000122261
0.000123419
0.000123392
0.000171314
0.000507405
0.06312
0.970855
0.99875
0.998992
0.999254
0.999269
0.999248
0.999276
0.999276
0.999365
0.999444
0.999495
0.999484
0.999458
0.999463
0.99952
0.999509
0.999591
0.999634
0.999648
0.999634
0.999622
0.999655
0.9997
0.999784
0.999865
0.999934
0.999978
0.999993
0.999995
0.999995
0.999998
0.999999
1
1
1
1
3.18814e-06
3.36129e-06
3.79398e-06
4.07242e-06
5.27609e-06
6.10617e-06
7.03758e-06
8.27227e-06
8.9388e-06
9.40437e-06
9.69127e-06
9.86552e-06
9.94328e-06
9.97258e-06
9.98317e-06
9.99102e-06
9.99307e-06
9.99335e-06
9.9931e-06
9.99317e-06
9.99299e-06
9.99239e-06
9.99165e-06
9.99106e-06
9.99036e-06
9.98964e-06
9.98891e-06
9.9883e-06
9.98774e-06
9.9872e-06
9.98659e-06
9.98586e-06
9.98495e-06
9.98393e-06
9.98297e-06
9.98212e-06
9.9817e-06
9.98189e-06
9.98248e-06
9.98354e-06
9.99145e-06
1.00735e-05
1.04564e-05
1.13515e-05
1.28696e-05
1.59027e-05
2.24308e-05
3.33139e-05
5.54758e-05
8.6386e-05
0.00010476
0.000118424
0.000120904
0.000121104
0.000119901
0.000117327
0.000115056
0.000129111
0.000601789
0.100286
0.959169
0.993452
0.994513
0.996564
0.996354
0.996118
0.995842
0.995489
0.995098
0.994741
0.994434
0.994061
0.993539
0.99302
0.992495
0.991978
0.991432
0.990931
0.990531
0.99026
0.990153
0.990667
0.991392
0.992295
0.993183
0.994226
0.995245
0.996017
0.996607
0.997196
0.998166
0.999156
0.999853
0.99998
1
0.999988
3.05876e-06
3.37842e-06
3.73325e-06
3.92823e-06
5.05778e-06
5.93239e-06
6.82166e-06
7.99705e-06
8.81557e-06
9.34832e-06
9.66512e-06
9.85477e-06
9.94011e-06
9.97134e-06
9.98088e-06
9.99028e-06
9.9927e-06
9.99314e-06
9.99294e-06
9.993e-06
9.99295e-06
9.9931e-06
9.99317e-06
9.99313e-06
9.99308e-06
9.99291e-06
9.99266e-06
9.99237e-06
9.9921e-06
9.99168e-06
9.9911e-06
9.99039e-06
9.9895e-06
9.98852e-06
9.98767e-06
9.98686e-06
9.9863e-06
9.98603e-06
9.98608e-06
9.98651e-06
9.99457e-06
1.00813e-05
1.04577e-05
1.13587e-05
1.30244e-05
1.64765e-05
2.36091e-05
3.70891e-05
5.95647e-05
0.000101824
0.000119415
0.000121233
0.000121472
0.000122223
0.000121835
0.000120074
0.000115289
0.000117875
0.000107221
0.163477
0.952497
0.978952
0.976753
0.976449
0.976216
0.975245
0.974117
0.972925
0.971866
0.970891
0.969973
0.969185
0.968651
0.968205
0.967978
0.96794
0.967939
0.9677
0.967545
0.967275
0.966702
0.966387
0.966192
0.966012
0.965913
0.965886
0.965436
0.964925
0.964726
0.964827
0.965785
0.966734
0.967743
0.969853
0.973253
0.978623
2.77702e-06
3.39455e-06
3.70245e-06
3.89506e-06
4.92175e-06
5.87604e-06
7.14655e-06
7.81416e-06
8.66299e-06
9.27517e-06
9.63126e-06
9.83714e-06
9.93017e-06
9.9639e-06
9.97286e-06
9.98349e-06
9.98635e-06
9.98729e-06
9.98709e-06
9.98718e-06
9.98735e-06
9.98782e-06
9.98807e-06
9.98821e-06
9.9883e-06
9.9883e-06
9.98817e-06
9.98799e-06
9.98782e-06
9.98756e-06
9.98718e-06
9.98668e-06
9.986e-06
9.98523e-06
9.9845e-06
9.98391e-06
9.98379e-06
9.98382e-06
9.98409e-06
9.98462e-06
1.0009e-05
1.01577e-05
1.06637e-05
1.18399e-05
1.39819e-05
1.7981e-05
2.55557e-05
4.18759e-05
5.77937e-05
0.000103684
0.000121688
0.000122915
0.000121379
0.000122219
0.000121135
0.000122969
0.000115442
0.000120632
0.000107221
0.278761
0.965034
0.977836
0.977284
0.977369
0.978595
0.979123
0.980113
0.98121
0.982474
0.983552
0.984406
0.985017
0.985474
0.985784
0.985973
0.986272
0.986751
0.987315
0.987639
0.987728
0.987237
0.986764
0.986438
0.986286
0.986269
0.986509
0.98667
0.98697
0.987302
0.987782
0.988395
0.989401
0.990743
0.992866
0.995463
0.99753
2.45156e-06
3.00914e-06
3.39558e-06
3.73095e-06
4.81295e-06
5.90927e-06
7.33595e-06
7.84433e-06
8.59087e-06
9.27139e-06
9.62167e-06
9.82268e-06
9.9219e-06
9.96446e-06
9.9766e-06
9.98855e-06
9.99212e-06
9.99319e-06
9.99267e-06
9.99255e-06
9.99242e-06
9.99256e-06
9.99251e-06
9.99231e-06
9.99203e-06
9.99167e-06
9.99119e-06
9.99071e-06
9.99021e-06
9.98963e-06
9.98895e-06
9.98812e-06
9.98711e-06
9.98589e-06
9.98459e-06
9.98358e-06
9.98332e-06
9.98332e-06
9.98332e-06
9.98332e-06
1.0031e-05
1.02627e-05
1.09248e-05
1.23107e-05
1.4649e-05
1.87872e-05
2.67831e-05
4.42172e-05
6.11431e-05
9.14941e-05
0.000118323
0.000126342
0.000124867
0.000124061
0.000121726
0.000125282
0.000115303
0.000125565
0.000107221
0.306223
0.975975
0.985745
0.986915
0.989007
0.991393
0.993509
0.995281
0.996526
0.997451
0.997914
0.998011
0.997872
0.997862
0.99799
0.998178
0.99839
0.998577
0.998679
0.998709
0.998718
0.99869
0.998671
0.998665
0.998761
0.998871
0.998946
0.999015
0.99911
0.999207
0.9993
0.999413
0.999539
0.999682
0.99982
0.99992
0.999964
2.17789e-06
2.65978e-06
2.99129e-06
3.36438e-06
4.52805e-06
5.79387e-06
7.28896e-06
8.15414e-06
8.63268e-06
9.2827e-06
9.63477e-06
9.812e-06
9.90176e-06
9.95329e-06
9.96943e-06
9.98321e-06
9.98715e-06
9.98887e-06
9.98895e-06
9.98936e-06
9.98969e-06
9.99013e-06
9.99043e-06
9.99055e-06
9.99062e-06
9.99055e-06
9.99036e-06
9.99006e-06
9.98968e-06
9.98927e-06
9.98874e-06
9.988e-06
9.98713e-06
9.98613e-06
9.98508e-06
9.98427e-06
9.98394e-06
9.9839e-06
9.98405e-06
9.98458e-06
1.00327e-05
1.02583e-05
1.08976e-05
1.22829e-05
1.47567e-05
1.92934e-05
2.8218e-05
4.60392e-05
6.82488e-05
7.50415e-05
0.000103706
0.00012296
0.000125431
0.000126314
0.000125355
0.000126265
0.000115761
0.000127746
0.000107221
0.318722
0.991265
0.996549
0.997478
0.998575
0.999245
0.999677
0.999874
0.999947
0.999969
0.99997
0.999959
0.999953
0.999952
0.999962
0.999974
0.999983
0.999989
0.999991
0.999992
0.999991
0.99999
0.99999
0.999991
0.999994
0.999995
0.999996
0.999996
0.999997
0.999997
0.999998
0.999998
0.999998
0.999999
0.999999
0.999999
0.999999
1.99364e-06
2.31617e-06
2.50228e-06
2.75497e-06
3.84134e-06
5.23231e-06
7.08425e-06
8.30024e-06
8.75483e-06
9.33357e-06
9.68447e-06
9.82771e-06
9.88791e-06
9.92998e-06
9.95201e-06
9.97461e-06
9.98628e-06
9.98961e-06
9.9896e-06
9.98999e-06
9.9903e-06
9.9907e-06
9.99096e-06
9.99111e-06
9.99118e-06
9.99119e-06
9.99102e-06
9.99076e-06
9.99041e-06
9.99031e-06
9.99021e-06
9.98977e-06
9.98916e-06
9.98851e-06
9.98801e-06
9.98769e-06
9.98754e-06
9.98731e-06
9.98734e-06
9.98727e-06
1.00206e-05
1.01978e-05
1.07845e-05
1.21087e-05
1.47757e-05
1.99475e-05
2.95601e-05
4.73061e-05
6.96621e-05
7.55045e-05
8.53614e-05
0.000107905
0.000119321
0.000124117
0.000123651
0.000125276
0.000118604
0.000128067
0.000107221
0.231087
0.994252
0.999791
0.999891
0.999971
0.999991
0.999999
0.999999
0.999999
0.999999
0.999999
0.999999
0.999999
0.999999
0.999999
0.999999
0.999999
0.999999
0.999999
0.999999
0.999999
0.999999
0.999999
0.999999
0.999999
0.999999
1
1
1
0.999999
0.999999
0.999999
0.999999
0.999999
0.999999
1
1
1.81713e-06
2.09914e-06
2.16324e-06
2.27903e-06
2.9774e-06
4.1776e-06
6.17803e-06
8.03468e-06
9.01899e-06
9.42155e-06
9.7333e-06
9.85925e-06
9.90853e-06
9.93264e-06
9.95214e-06
9.98059e-06
9.99183e-06
9.99512e-06
9.99438e-06
9.99421e-06
9.99422e-06
9.99438e-06
9.9945e-06
9.99452e-06
9.99445e-06
9.99425e-06
9.99389e-06
9.99345e-06
9.99298e-06
9.99266e-06
9.99233e-06
9.99165e-06
9.99085e-06
9.99014e-06
9.98962e-06
9.98919e-06
9.98873e-06
9.98818e-06
9.9878e-06
9.98768e-06
1.00009e-05
1.01241e-05
1.06893e-05
1.22261e-05
1.52932e-05
2.08705e-05
3.04912e-05
4.78711e-05
6.77402e-05
8.29192e-05
8.57582e-05
9.36276e-05
0.000105649
0.000115152
0.000117132
0.000121777
0.000116734
0.000125221
0.000193107
0.144778
0.993483
0.999997
0.999999
0.999999
0.999999
0.999999
0.999999
0.999999
0.999999
0.999999
0.999999
0.999999
0.999999
0.999999
0.999999
0.999999
0.999999
0.999999
0.999999
0.999999
0.999999
0.999999
0.999999
0.999999
0.999999
0.999999
0.999999
0.999999
0.999999
0.999999
0.999999
1
1
1
1
1
1.77578e-06
2.03173e-06
2.01776e-06
2.1118e-06
2.40371e-06
3.26243e-06
5.04493e-06
7.40951e-06
9.17912e-06
9.55388e-06
9.77627e-06
9.86318e-06
9.90355e-06
9.92662e-06
9.94761e-06
9.98005e-06
9.99873e-06
9.99872e-06
9.99872e-06
9.99872e-06
9.99872e-06
9.99872e-06
9.99872e-06
9.99861e-06
9.99827e-06
9.99778e-06
9.99713e-06
9.99649e-06
9.99588e-06
9.99523e-06
9.99451e-06
9.9935e-06
9.9923e-06
9.99143e-06
9.99081e-06
9.99023e-06
9.98961e-06
9.98894e-06
9.98849e-06
9.98882e-06
9.99713e-06
1.00877e-05
1.06238e-05
1.24813e-05
1.64911e-05
2.27284e-05
3.22493e-05
4.77389e-05
6.60633e-05
8.34462e-05
8.93982e-05
9.1252e-05
9.70437e-05
0.000105695
0.00010995
0.00011784
0.00011511
0.000124849
0.000630444
0.0897231
0.991827
0.999999
0.999999
0.999999
0.999999
0.999999
0.999999
0.999999
0.999999
0.999999
0.999999
0.999999
0.999999
0.999999
0.999999
0.999999
0.999999
0.999999
0.999999
0.999999
0.999999
0.999999
0.999999
0.999999
0.999999
0.999999
0.999999
0.999999
0.999999
0.999999
0.999999
0.999999
1
1
1
1
1.83977e-06
2.34608e-06
2.42015e-06
2.44945e-06
2.37428e-06
2.99499e-06
4.20845e-06
6.59019e-06
9.03445e-06
9.65189e-06
9.79911e-06
9.85458e-06
9.88468e-06
9.91107e-06
9.93575e-06
9.97344e-06
9.9958e-06
9.99732e-06
9.99727e-06
9.99727e-06
9.99726e-06
9.9972e-06
9.99713e-06
9.99691e-06
9.99653e-06
9.99602e-06
9.99543e-06
9.99485e-06
9.99434e-06
9.99378e-06
9.99308e-06
9.99211e-06
9.99116e-06
9.99039e-06
9.98986e-06
9.98948e-06
9.98908e-06
9.98874e-06
9.98875e-06
9.99002e-06
9.99771e-06
1.00539e-05
1.04769e-05
1.24985e-05
1.76067e-05
2.49936e-05
3.40837e-05
4.6627e-05
6.20727e-05
8.01532e-05
8.90545e-05
8.92436e-05
9.06862e-05
9.66865e-05
0.000100907
0.000111346
0.000109818
0.000121242
0.001011
0.0726148
0.980215
0.999975
0.999999
0.999999
0.999999
0.999999
0.999999
0.999999
0.999999
0.999999
0.999999
0.999999
0.999999
0.999999
0.999999
0.999999
0.999999
0.999999
0.999999
0.999999
0.999999
0.999999
0.999999
0.999999
0.999999
0.999999
0.999999
0.999999
0.999999
0.999999
0.999999
0.999999
0.999999
1
1
1
1.48313e-06
1.603e-06
2.35221e-06
3.02841e-06
3.18747e-06
3.38145e-06
4.36175e-06
6.50599e-06
8.95098e-06
9.66144e-06
9.78707e-06
9.82623e-06
9.8558e-06
9.89081e-06
9.92648e-06
9.97896e-06
1.00041e-05
1.00041e-05
1.00041e-05
1.00041e-05
1.00041e-05
1.00041e-05
1.00041e-05
1.00038e-05
1.00034e-05
1.00029e-05
1.00024e-05
1.00018e-05
1.00014e-05
1.00009e-05
1.00002e-05
9.99926e-06
9.99832e-06
9.99757e-06
9.997e-06
9.9966e-06
9.99626e-06
9.99604e-06
9.99617e-06
9.99801e-06
1.00048e-05
1.00359e-05
1.02431e-05
1.20033e-05
1.76505e-05
2.5751e-05
3.39186e-05
4.31037e-05
5.55546e-05
7.71396e-05
9.33458e-05
9.19637e-05
9.07545e-05
9.28324e-05
9.46687e-05
0.000100415
0.000103975
0.000105188
0.00186094
0.0746615
0.962757
0.999775
0.999999
0.999999
0.999999
0.999999
0.999999
0.999999
0.999999
0.999999
0.999999
0.999999
0.999999
0.999999
0.999999
0.999999
0.999999
0.999999
0.999999
0.999999
0.999999
0.999999
0.999999
0.999999
0.999999
0.999999
0.999999
0.999999
0.999999
0.999999
0.999999
0.999999
0.999999
0.999999
0.999999
1
3.23754e-06
4.27779e-06
4.97938e-06
5.45787e-06
5.90385e-06
6.82807e-06
7.96544e-06
8.93663e-06
9.60144e-06
9.8461e-06
9.90699e-06
9.94309e-06
9.97151e-06
9.9898e-06
1.00014e-05
1.00087e-05
1.00087e-05
1.00087e-05
1.00087e-05
1.00087e-05
1.00081e-05
1.00073e-05
1.00066e-05
1.00059e-05
1.00054e-05
1.00054e-05
1.00054e-05
1.00054e-05
1.00054e-05
1.00054e-05
1.00052e-05
1.00049e-05
1.00044e-05
1.00039e-05
1.00033e-05
1.00027e-05
1.00021e-05
1.00013e-05
1.00005e-05
1.00002e-05
1.00068e-05
1.00252e-05
1.00754e-05
1.08739e-05
1.6686e-05
3.16382e-05
5.39845e-05
7.52715e-05
8.57004e-05
9.12497e-05
0.000100997
0.000110015
0.000112414
0.000114999
0.000115007
0.000116929
0.000114566
0.000131829
0.000385541
0.0318427
0.938037
0.999735
0.999999
1
1
1
1
1
1
1
1
1
1
1
1
1
1
1
1
1
1
1
0.999999
0.999999
0.999999
1
0.999999
0.999999
0.999999
0.999999
0.999999
1
1
1
1
1
2.54408e-06
3.75439e-06
5.37166e-06
5.93019e-06
6.56971e-06
7.36117e-06
8.31212e-06
8.99142e-06
9.40184e-06
9.60957e-06
9.75976e-06
9.86941e-06
9.9388e-06
9.97162e-06
9.98682e-06
1.00007e-05
1.00048e-05
1.00055e-05
1.00053e-05
1.00053e-05
1.00052e-05
1.00055e-05
1.00055e-05
1.00053e-05
1.00047e-05
1.00039e-05
1.00033e-05
1.00029e-05
1.00024e-05
1.0002e-05
1.00015e-05
1.00007e-05
9.99963e-06
9.99844e-06
9.99725e-06
9.99608e-06
9.99486e-06
9.99388e-06
9.99347e-06
9.99776e-06
1.00645e-05
1.03691e-05
1.09108e-05
1.25203e-05
2.13621e-05
3.72156e-05
5.14448e-05
6.07763e-05
6.84942e-05
8.26659e-05
0.000106633
0.000115219
0.000116073
0.000117012
0.000115921
0.0001166
0.000113348
0.000124026
0.000199617
0.052281
0.972932
0.999972
1
1
1
1
1
1
1
1
1
1
1
1
1
1
0.999999
0.999999
0.999999
0.999999
0.999999
0.999999
0.999999
0.999999
1
1
0.999999
0.999999
0.999999
0.999999
0.999999
1
1
1
1
1
2.30839e-06
3.01486e-06
4.88573e-06
5.75404e-06
6.564e-06
7.21572e-06
7.98777e-06
8.64862e-06
9.1273e-06
9.44396e-06
9.67158e-06
9.83258e-06
9.92552e-06
9.96605e-06
9.98111e-06
9.99724e-06
1.00017e-05
1.00023e-05
1.00022e-05
1.00022e-05
1.00022e-05
1.00021e-05
1.00019e-05
1.00015e-05
1.00009e-05
1.00005e-05
9.99996e-06
9.99949e-06
9.99904e-06
9.99861e-06
9.99806e-06
9.99722e-06
9.99617e-06
9.99505e-06
9.99395e-06
9.99295e-06
9.99207e-06
9.99151e-06
9.99151e-06
9.99867e-06
1.00852e-05
1.05637e-05
1.18796e-05
1.41285e-05
1.78816e-05
2.58362e-05
3.50231e-05
4.42143e-05
6.02308e-05
9.03958e-05
0.00011603
0.000118391
0.000118489
0.000118565
0.000115743
0.000116628
0.000113506
0.000120432
0.000148802
0.0456706
0.983474
0.999993
0.999999
0.999999
0.999999
0.999999
0.999999
0.999999
0.999999
0.999999
0.999999
0.999998
0.999999
0.999999
0.999999
0.999998
0.999999
0.999999
0.999999
0.999999
0.999999
0.999999
0.999999
0.999999
0.999999
0.999999
0.999999
0.999999
0.999999
0.999999
0.999999
1
1
1
1
1
2.21649e-06
2.43482e-06
4.11522e-06
5.09255e-06
5.98495e-06
6.76002e-06
7.60114e-06
8.34953e-06
8.94792e-06
9.36573e-06
9.63595e-06
9.81849e-06
9.92009e-06
9.9633e-06
9.97739e-06
9.99458e-06
9.99901e-06
9.9995e-06
9.99922e-06
9.9991e-06
9.99887e-06
9.99872e-06
9.99851e-06
9.99806e-06
9.99753e-06
9.99704e-06
9.99659e-06
9.99619e-06
9.99583e-06
9.99546e-06
9.99498e-06
9.99422e-06
9.99329e-06
9.99234e-06
9.99143e-06
9.99071e-06
9.99023e-06
9.99002e-06
9.99054e-06
9.99749e-06
1.00786e-05
1.04875e-05
1.14488e-05
1.30202e-05
1.54035e-05
2.00654e-05
2.3089e-05
3.16742e-05
5.52114e-05
0.000100581
0.000117521
0.000119345
0.000119941
0.000119293
0.00011572
0.000116441
0.000119309
0.000125422
0.000118095
0.0454885
0.987801
0.999948
0.999955
0.99997
0.99997
0.999972
0.999967
0.999962
0.999957
0.999952
0.999949
0.99995
0.999947
0.999939
0.999934
0.999931
0.999931
0.999948
0.999961
0.999975
0.999986
0.999992
0.999997
0.999998
0.999999
0.999999
1
1
1
1
1
1
1
1
1
1
2.14604e-06
2.07392e-06
3.41763e-06
4.50383e-06
5.52668e-06
6.38571e-06
7.31388e-06
8.13663e-06
8.82595e-06
9.32093e-06
9.61875e-06
9.81262e-06
9.91797e-06
9.96211e-06
9.97563e-06
9.99324e-06
9.99773e-06
9.99812e-06
9.99783e-06
9.99765e-06
9.99738e-06
9.99716e-06
9.99693e-06
9.99648e-06
9.99596e-06
9.99547e-06
9.99506e-06
9.99471e-06
9.99442e-06
9.99409e-06
9.99368e-06
9.99298e-06
9.99213e-06
9.9913e-06
9.99058e-06
9.99003e-06
9.98981e-06
9.98986e-06
9.9907e-06
9.99637e-06
1.00448e-05
1.03076e-05
1.10093e-05
1.22096e-05
1.39893e-05
1.6612e-05
2.1064e-05
2.73108e-05
5.12591e-05
0.000101173
0.000117924
0.00012155
0.000124078
0.000122317
0.000115717
0.000119119
0.000125645
0.00012903
0.000107221
0.0866178
0.990571
0.999094
0.999137
0.999224
0.999234
0.999207
0.999113
0.999023
0.9989
0.998755
0.99861
0.99847
0.998387
0.998319
0.998267
0.998196
0.998185
0.998441
0.998703
0.998975
0.999229
0.999458
0.99965
0.999799
0.9999
0.999959
0.999986
0.999997
0.999999
0.999999
0.999999
0.999999
0.999999
1
1
1
2.09531e-06
1.84481e-06
2.81799e-06
3.916e-06
5.0921e-06
6.07232e-06
7.11297e-06
7.99462e-06
8.74874e-06
9.29553e-06
9.61154e-06
9.81086e-06
9.91731e-06
9.96141e-06
9.97451e-06
9.9922e-06
9.99668e-06
9.99699e-06
9.99664e-06
9.99642e-06
9.99612e-06
9.99586e-06
9.99561e-06
9.99516e-06
9.99464e-06
9.99419e-06
9.9938e-06
9.9935e-06
9.99328e-06
9.99303e-06
9.9927e-06
9.99209e-06
9.99132e-06
9.99056e-06
9.98991e-06
9.98946e-06
9.98924e-06
9.98935e-06
9.99024e-06
9.99287e-06
1.00127e-05
1.01232e-05
1.05708e-05
1.15259e-05
1.32047e-05
1.59421e-05
2.1283e-05
2.90023e-05
6.62686e-05
0.000110576
0.000117127
0.000123376
0.000130026
0.000131424
0.000125682
0.000134955
0.000148219
0.000169615
0.000180545
0.129955
0.986735
0.995871
0.995834
0.995772
0.995762
0.995515
0.995308
0.995069
0.994607
0.994078
0.993602
0.9932
0.992759
0.992238
0.991878
0.991676
0.991488
0.991426
0.991827
0.992337
0.992942
0.993696
0.994587
0.995524
0.996523
0.997478
0.998298
0.998958
0.999428
0.999692
0.999831
0.99993
0.999989
0.999999
1
1
2.06871e-06
1.6847e-06
2.3684e-06
3.32629e-06
4.68892e-06
5.79767e-06
6.9693e-06
7.90761e-06
8.70692e-06
9.28284e-06
9.6089e-06
9.81044e-06
9.91798e-06
9.96117e-06
9.97407e-06
9.99172e-06
9.99619e-06
9.99644e-06
9.99612e-06
9.9959e-06
9.99567e-06
9.99539e-06
9.99515e-06
9.99471e-06
9.99422e-06
9.99379e-06
9.99344e-06
9.99314e-06
9.99294e-06
9.99273e-06
9.99243e-06
9.99184e-06
9.99108e-06
9.99018e-06
9.98942e-06
9.98885e-06
9.98829e-06
9.98805e-06
9.9886e-06
9.99014e-06
9.99956e-06
1.00474e-05
1.0333e-05
1.1157e-05
1.28021e-05
1.59329e-05
2.24075e-05
3.30584e-05
7.90167e-05
0.000117788
0.000116434
0.000124997
0.000135128
0.00014325
0.000147052
0.000155772
0.000164794
0.000170165
0.000171206
0.219542
0.981467
0.99117
0.991317
0.991519
0.991575
0.99105
0.990593
0.990163
0.989777
0.989304
0.988835
0.988291
0.98776
0.987321
0.987139
0.987073
0.986708
0.986068
0.985542
0.985165
0.984917
0.984661
0.98433
0.983836
0.98336
0.983104
0.982999
0.983601
0.984479
0.986122
0.988237
0.991057
0.994504
0.997828
0.999895
0.999955
2.04517e-06
1.58575e-06
2.0183e-06
2.71657e-06
4.10952e-06
5.48133e-06
6.83459e-06
7.84487e-06
8.68364e-06
9.27727e-06
9.60859e-06
9.81348e-06
9.92043e-06
9.96194e-06
9.9739e-06
9.99141e-06
9.9958e-06
9.99612e-06
9.99595e-06
9.99584e-06
9.99576e-06
9.99581e-06
9.99576e-06
9.99543e-06
9.99504e-06
9.99467e-06
9.9943e-06
9.99394e-06
9.99366e-06
9.99337e-06
9.99294e-06
9.99221e-06
9.99118e-06
9.99012e-06
9.98928e-06
9.9886e-06
9.98788e-06
9.98743e-06
9.98751e-06
9.9883e-06
9.99406e-06
1.00283e-05
1.02817e-05
1.11007e-05
1.27939e-05
1.65093e-05
2.36707e-05
3.69468e-05
8.31401e-05
0.000124881
0.000125993
0.000125414
0.000128314
0.000134026
0.0001349
0.00013068
0.000125826
0.000134341
0.000107221
0.332023
0.973293
0.981062
0.980069
0.979662
0.980038
0.980165
0.980325
0.980696
0.981378
0.982207
0.983055
0.983817
0.984616
0.985492
0.986275
0.986862
0.987167
0.986368
0.985578
0.984908
0.984379
0.983929
0.983126
0.98127
0.978326
0.97453
0.970782
0.966593
0.961541
0.955032
0.946133
0.934197
0.918312
0.893435
0.840073
0.641045
1.94247e-06
1.52869e-06
1.75923e-06
2.1718e-06
3.39772e-06
4.96973e-06
6.63632e-06
7.78631e-06
8.66818e-06
9.27664e-06
9.61591e-06
9.81813e-06
9.92534e-06
9.96421e-06
9.97569e-06
9.99332e-06
9.99758e-06
9.99763e-06
9.9974e-06
9.99721e-06
9.99707e-06
9.99695e-06
9.99694e-06
9.99666e-06
9.9963e-06
9.99595e-06
9.9956e-06
9.99529e-06
9.99504e-06
9.99478e-06
9.99437e-06
9.99371e-06
9.99282e-06
9.99182e-06
9.99096e-06
9.99016e-06
9.98952e-06
9.98913e-06
9.98906e-06
9.98939e-06
9.99403e-06
1.0029e-05
1.0295e-05
1.12899e-05
1.32712e-05
1.73768e-05
2.49909e-05
3.97707e-05
6.86203e-05
0.000125578
0.000130321
0.000128786
0.000125476
0.000125425
0.000125757
0.000123103
0.000118382
0.000133778
0.000107221
0.2744
0.979631
0.989002
0.989262
0.990002
0.991078
0.992492
0.993413
0.993609
0.993371
0.992918
0.992607
0.992565
0.992789
0.993416
0.994172
0.995084
0.995924
0.996316
0.996264
0.995688
0.99558
0.995738
0.995941
0.996151
0.996004
0.994927
0.993827
0.992373
0.990612
0.988332
0.985432
0.981768
0.977914
0.974852
0.973649
0.975875
1.8079e-06
1.4783e-06
1.55788e-06
1.78604e-06
2.68506e-06
4.33511e-06
6.39412e-06
7.7242e-06
8.66356e-06
9.28207e-06
9.62114e-06
9.82564e-06
9.93185e-06
9.9661e-06
9.9769e-06
9.99493e-06
9.99924e-06
9.99928e-06
9.99915e-06
9.99902e-06
9.99894e-06
9.9989e-06
9.99889e-06
9.9986e-06
9.99822e-06
9.99785e-06
9.99747e-06
9.99712e-06
9.99679e-06
9.99647e-06
9.99601e-06
9.9953e-06
9.99427e-06
9.99306e-06
9.99194e-06
9.99088e-06
9.99039e-06
9.98998e-06
9.98969e-06
9.9899e-06
9.99531e-06
1.00323e-05
1.03084e-05
1.14058e-05
1.36065e-05
1.77956e-05
2.54839e-05
4.01764e-05
5.96597e-05
0.000106514
0.000129771
0.000130697
0.000126495
0.000121999
0.000121726
0.000124723
0.000121046
0.000126531
0.000107221
0.225649
0.988466
0.997125
0.997833
0.998486
0.99882
0.999013
0.999022
0.998942
0.998894
0.998765
0.998671
0.998657
0.998885
0.999082
0.999284
0.999436
0.999513
0.999533
0.999512
0.999489
0.99947
0.999467
0.999511
0.999568
0.99959
0.999591
0.999554
0.999526
0.999487
0.999428
0.99936
0.999282
0.999248
0.99933
0.999607
0.999853
1.69001e-06
1.42073e-06
1.41402e-06
1.50932e-06
2.21451e-06
3.70424e-06
5.98656e-06
7.58036e-06
8.64886e-06
9.27854e-06
9.62477e-06
9.83322e-06
9.93698e-06
9.9664e-06
9.97614e-06
9.9951e-06
9.99952e-06
9.9995e-06
9.99952e-06
9.9995e-06
9.99951e-06
9.9995e-06
9.9995e-06
9.99924e-06
9.9989e-06
9.99854e-06
9.99819e-06
9.99785e-06
9.99753e-06
9.99725e-06
9.99682e-06
9.99614e-06
9.99517e-06
9.99408e-06
9.99305e-06
9.99231e-06
9.99181e-06
9.99136e-06
9.99104e-06
9.99149e-06
9.99712e-06
1.00355e-05
1.03057e-05
1.14413e-05
1.37842e-05
1.80185e-05
2.58705e-05
3.97597e-05
6.19284e-05
7.81651e-05
0.000114457
0.00012922
0.000129647
0.000126641
0.000122149
0.000126075
0.000120448
0.000130308
0.00011361
0.226365
0.996208
0.99956
0.999794
0.999933
0.999946
0.99995
0.999949
0.999947
0.999941
0.999935
0.999932
0.999943
0.999958
0.999967
0.999978
0.999984
0.999987
0.999988
0.999988
0.999989
0.999991
0.999993
0.999994
0.999996
0.999997
0.999997
0.999998
0.999998
0.999998
0.999998
0.999999
0.999999
0.999999
0.999999
0.999999
0.999999
1.60749e-06
1.36329e-06
1.32642e-06
1.32283e-06
1.85513e-06
3.19683e-06
5.45622e-06
7.41418e-06
8.66481e-06
9.29562e-06
9.63935e-06
9.84596e-06
9.94261e-06
9.96451e-06
9.97354e-06
9.99114e-06
9.99949e-06
9.99951e-06
9.9995e-06
9.99951e-06
9.9995e-06
9.9995e-06
9.99937e-06
9.9991e-06
9.9988e-06
9.99848e-06
9.99815e-06
9.99783e-06
9.99752e-06
9.99722e-06
9.99675e-06
9.99599e-06
9.99503e-06
9.99399e-06
9.99306e-06
9.99251e-06
9.99196e-06
9.99157e-06
9.99146e-06
9.99233e-06
9.99877e-06
1.00387e-05
1.03095e-05
1.14574e-05
1.38851e-05
1.81293e-05
2.6036e-05
3.94751e-05
5.89496e-05
8.16382e-05
9.33397e-05
0.000113183
0.000124215
0.000125916
0.000125743
0.000126092
0.000120714
0.000131042
0.0001851
0.195996
0.998924
0.999973
0.999989
0.999998
0.999998
0.999998
0.999999
0.999999
0.999999
0.999999
0.999998
0.999998
0.999999
0.999999
0.999999
0.999999
0.999999
0.999999
0.999999
0.999999
0.999999
0.999999
0.999999
0.999999
0.999999
0.999999
1
1
1
0.999999
0.999999
1
1
1
1
1
1.57629e-06
1.42064e-06
1.296e-06
1.24931e-06
1.38456e-06
2.19355e-06
4.19656e-06
6.85397e-06
8.71107e-06
9.34539e-06
9.65471e-06
9.85401e-06
9.94452e-06
9.95712e-06
9.96681e-06
9.98971e-06
9.99747e-06
9.99912e-06
9.99914e-06
9.9995e-06
9.9995e-06
9.99932e-06
9.99922e-06
9.99914e-06
9.99889e-06
9.99859e-06
9.99827e-06
9.99798e-06
9.99765e-06
9.99716e-06
9.9966e-06
9.99559e-06
9.99443e-06
9.99311e-06
9.9918e-06
9.99091e-06
9.99051e-06
9.99049e-06
9.99072e-06
9.99233e-06
9.99925e-06
1.0041e-05
1.03172e-05
1.15627e-05
1.40954e-05
1.87199e-05
2.74524e-05
4.02604e-05
5.65748e-05
7.91779e-05
9.68731e-05
0.00010224
0.00011026
0.000117108
0.000118252
0.000122384
0.000117092
0.000131263
0.000377238
0.121856
0.990904
0.999999
0.999999
0.999999
0.999999
0.999999
0.999999
0.999999
0.999999
0.999999
0.999999
0.999999
0.999999
0.999999
0.999999
0.999999
0.999999
0.999999
0.999999
0.999999
0.999999
0.999999
0.999999
0.999999
0.999999
0.999999
0.999999
0.999999
0.999999
0.999999
0.999999
1
1
1
1
1
1.65832e-06
1.77511e-06
1.51923e-06
1.40406e-06
1.19987e-06
1.34387e-06
2.29706e-06
5.09078e-06
8.53334e-06
9.46879e-06
9.70735e-06
9.86362e-06
9.92643e-06
9.93149e-06
9.94688e-06
9.98108e-06
9.99491e-06
9.99613e-06
9.99627e-06
9.99644e-06
9.99655e-06
9.99653e-06
9.99642e-06
9.99617e-06
9.99574e-06
9.99515e-06
9.99445e-06
9.99372e-06
9.99303e-06
9.99223e-06
9.9913e-06
9.98994e-06
9.98852e-06
9.98716e-06
9.98607e-06
9.98556e-06