/*--------------------------------*- C++ -*----------------------------------*\
| =========                 |                                                 |
| \\      /  F ield         | OpenFOAM: The Open Source CFD Toolbox           |
|  \\    /   O peration     | Version:  2.3.0                                 |
|   \\  /    A nd           | Web:      www.OpenFOAM.org                      |
|    \\/     M anipulation  |                                                 |
\*---------------------------------------------------------------------------*/
FoamFile
{
    version     2.0;
    format      ascii;
    class       volVectorField;
    location    "50";
    object      Ur;
}
// * * * * * * * * * * * * * * * * * * * * * * * * * * * * * * * * * * * * * //

dimensions      [0 1 -1 0 0 0 0];

internalField   nonuniform List<vector> 
6144
(
(-3.1079e-07 0.000342062 -2.08529e-08)
(-4.1022e-07 0.000370747 -7.02069e-08)
(-2.56351e-07 0.000403851 -6.8067e-08)
(-2.52242e-07 0.00043151 -7.7728e-08)
(-2.55539e-07 0.00046402 -7.8156e-08)
(-2.93601e-07 0.000512559 -1.08622e-07)
(-2.95061e-07 0.000571357 -1.18917e-07)
(-2.65082e-07 0.000625856 -1.14596e-07)
(-2.08105e-07 0.000666917 -7.8657e-08)
(-1.58728e-07 0.000689324 -6.48486e-08)
(-1.20328e-07 0.000696746 -6.17804e-08)
(-9.5589e-08 0.000698563 -5.11716e-08)
(-8.49812e-08 0.000699496 -3.52216e-08)
(-7.9418e-08 0.000700245 -3.22307e-08)
(-7.44736e-08 0.000700816 -2.67303e-08)
(-7.51603e-08 0.000701208 -2.57457e-08)
(-7.19012e-08 0.000701476 -2.39754e-08)
(-7.62914e-08 0.000701662 -2.63451e-08)
(-7.73209e-08 0.000701791 -2.69886e-08)
(-8.71839e-08 0.000701883 -3.05815e-08)
(-9.09246e-08 0.000701951 -3.06953e-08)
(-1.04564e-07 0.000701991 -3.28188e-08)
(-1.1006e-07 0.000702014 -3.02652e-08)
(-1.26707e-07 0.00070203 -3.19039e-08)
(-1.32639e-07 0.000702057 -2.86048e-08)
(-1.51632e-07 0.000702103 -3.09494e-08)
(-1.58002e-07 0.000702175 -2.75641e-08)
(-1.79538e-07 0.000702269 -3.0972e-08)
(-1.85123e-07 0.000702398 -2.85198e-08)
(-2.07963e-07 0.000702567 -3.45208e-08)
(-2.11681e-07 0.000702788 -3.40179e-08)
(-2.34929e-07 0.00070306 -4.42173e-08)
(-2.34953e-07 0.000703396 -4.73517e-08)
(-2.56354e-07 0.000703794 -6.39852e-08)
(-2.49547e-07 0.000704268 -7.43557e-08)
(-2.65853e-07 0.000704821 -1.02969e-07)
(-2.47737e-07 0.000705472 -1.26916e-07)
(-2.53537e-07 0.000706216 -1.72373e-07)
(-2.19138e-07 0.000707067 -2.1054e-07)
(-2.10993e-07 0.00070802 -2.67819e-07)
(-1.50263e-07 0.000709073 -2.98813e-07)
(-1.52411e-07 0.000710145 -3.11249e-07)
(-2.26513e-07 0.000718904 -2.58473e-07)
(-2.62714e-07 0.000803012 -2.64813e-07)
(5.67534e-07 0.0010956 -3.57898e-07)
(2.44933e-06 0.0016428 -7.47965e-07)
(2.27539e-06 0.00228799 -1.33689e-06)
(-5.3665e-06 0.00280075 -7.80755e-07)
(-1.55128e-05 0.00314258 2.1662e-06)
(-3.21535e-05 0.00343544 -9.01241e-06)
(-4.41573e-05 0.00366673 -2.30365e-05)
(-2.89968e-05 0.00376112 -2.03961e-05)
(-3.6927e-05 0.0037792 -1.70913e-05)
(-4.91871e-05 0.00378231 -6.2221e-06)
(-6.12345e-05 0.00389498 1.29958e-05)
(-5.81687e-05 0.00394211 1.64267e-05)
(-0.000165594 0.00523216 -0.000165132)
(1.12279e-06 0.00724565 0.000123403)
(-0.000199649 0.015472 -0.000112358)
(0.00849886 0.120427 -9.20018e-05)
(-0.0137848 0.634355 -0.0433641)
(-0.0307553 0.5534 -0.0473149)
(-0.0177062 0.228014 -0.022784)
(-0.000100974 0.0276226 -0.000104517)
(-8.3665e-05 0.00555788 -6.86828e-05)
(-8.34737e-05 0.00581946 -5.36428e-05)
(-5.37576e-05 0.00587933 -3.37134e-05)
(-3.33834e-05 0.00594316 -1.93329e-05)
(-3.02213e-05 0.0059918 1.69539e-05)
(-5.7243e-05 0.00606413 5.51017e-05)
(-5.49398e-05 0.00614381 4.33869e-05)
(-4.81785e-05 0.00614458 9.63998e-06)
(-5.99721e-05 0.00614826 -1.60047e-06)
(-2.48526e-05 0.00617354 2.12365e-06)
(3.09031e-06 0.00621216 5.77571e-07)
(8.01021e-06 0.0062855 -5.40986e-06)
(7.80471e-06 0.00638049 -5.06249e-06)
(9.76137e-06 0.00648706 -7.91264e-07)
(1.0367e-05 0.00658917 4.6335e-06)
(6.09507e-06 0.00665483 1.47106e-05)
(-8.03732e-06 0.00667395 2.376e-05)
(-2.42366e-05 0.00667516 1.49684e-05)
(-3.06535e-05 0.00667881 -8.65297e-07)
(-2.41098e-05 0.00668449 4.87391e-06)
(-1.30557e-05 0.00669208 1.41617e-05)
(-2.65661e-05 0.00672515 -1.42658e-05)
(-3.83522e-05 0.00684818 -5.11222e-05)
(-5.81648e-05 0.0070395 -7.01172e-05)
(-6.21136e-05 0.00711318 -8.20728e-05)
(-3.88601e-05 0.0065103 -4.06318e-05)
(-1.48681e-05 0.00530076 8.99197e-06)
(-2.73123e-06 0.00436257 8.45699e-06)
(3.43423e-06 0.004089 -1.14228e-05)
(4.50872e-06 0.0040965 -2.09043e-05)
(-3.28742e-06 0.0041377 -4.03934e-05)
(-2.86922e-08 0.00412896 -1.43929e-05)
(-4.2239e-07 0.00031935 4.83511e-08)
(-6.34902e-07 0.000358315 -8.99794e-09)
(-5.86929e-07 0.000408181 -1.72624e-08)
(-6.84652e-07 0.000446275 -6.48875e-08)
(-7.21333e-07 0.00048411 -8.10072e-08)
(-7.49357e-07 0.000530023 -8.1037e-08)
(-7.25409e-07 0.000580329 -9.21295e-08)
(-6.48649e-07 0.000629657 -7.93977e-08)
(-5.35094e-07 0.000668292 -6.78341e-08)
(-4.23636e-07 0.000689193 -4.44907e-08)
(-3.35682e-07 0.000696343 -3.09066e-08)
(-2.72396e-07 0.000698435 -2.04513e-08)
(-2.42399e-07 0.000699552 -3.12069e-09)
(-2.31009e-07 0.000700441 1.69843e-08)
(-2.19092e-07 0.000701126 2.26766e-08)
(-2.14916e-07 0.000701592 2.71387e-08)
(-2.09738e-07 0.000701885 2.14468e-08)
(-2.14044e-07 0.000702058 1.93323e-08)
(-2.21058e-07 0.00070216 9.22459e-09)
(-2.39428e-07 0.000702235 6.84528e-09)
(-2.59042e-07 0.000702292 -4.10753e-09)
(-2.92478e-07 0.00070232 -1.55313e-09)
(-3.24003e-07 0.000702338 -7.74145e-09)
(-3.65276e-07 0.000702359 -1.63415e-09)
(-4.0149e-07 0.000702393 -7.79773e-09)
(-4.47194e-07 0.000702454 -5.25641e-10)
(-4.87827e-07 0.00070254 -5.73626e-09)
(-5.3953e-07 0.00070265 4.74836e-09)
(-5.81102e-07 0.000702794 -2.98569e-09)
(-6.34136e-07 0.000702984 6.27735e-09)
(-6.73767e-07 0.000703227 -5.77518e-09)
(-7.22049e-07 0.000703526 1.81373e-09)
(-7.51905e-07 0.000703885 -1.52962e-08)
(-7.8783e-07 0.000704309 -1.05486e-08)
(-7.97558e-07 0.000704804 -3.53329e-08)
(-8.07661e-07 0.000705378 -3.74218e-08)
(-7.79037e-07 0.000706038 -7.63728e-08)
(-7.40051e-07 0.000706787 -9.43932e-08)
(-6.44337e-07 0.000707634 -1.57346e-07)
(-5.17206e-07 0.000708597 -2.05828e-07)
(-2.91459e-07 0.000709675 -2.98627e-07)
(1.36206e-08 0.000710711 -2.67538e-07)
(5.2183e-07 0.000736279 -1.07986e-07)
(1.46186e-06 0.000902823 1.23677e-07)
(3.70539e-06 0.001297 -1.14231e-08)
(5.26136e-06 0.00176748 -6.64359e-07)
(-4.40648e-07 0.00214061 -5.96374e-07)
(-1.35514e-05 0.00248365 1.29798e-06)
(-3.29489e-05 0.00294659 -1.01343e-06)
(-5.37738e-05 0.00346189 -1.68474e-05)
(-5.39961e-05 0.00378071 -2.80939e-05)
(-4.59917e-05 0.00383983 -2.95212e-05)
(-6.05681e-05 0.00381137 -1.18214e-05)
(-9.23748e-05 0.00378422 -8.49994e-07)
(-8.29524e-05 0.00388216 1.11307e-05)
(-1.60623e-05 0.00384779 2.94568e-05)
(-0.000255741 0.00552638 -0.000163714)
(0.000143739 0.00775598 3.34196e-05)
(-0.00033291 0.0120535 0.000184799)
(0.0111925 0.100029 0.00570747)
(-0.0169846 0.60537 -0.030542)
(-0.0441695 0.466173 -0.0551903)
(-0.00356507 0.0238679 -0.00103166)
(-0.000784477 0.00744298 9.35013e-05)
(-0.000144278 0.00583301 -1.38323e-05)
(-0.000124615 0.00581099 -6.20981e-05)
(-7.6199e-05 0.00586075 -5.52228e-05)
(-3.76861e-05 0.00596683 -3.48986e-05)
(-1.9533e-05 0.00607106 -2.05189e-05)
(4.3235e-07 0.00612791 3.33964e-05)
(-2.816e-05 0.00618758 6.52684e-05)
(-5.04443e-05 0.00621293 4.33847e-05)
(-1.33777e-05 0.00621395 2.15564e-05)
(1.12351e-05 0.00622723 2.28946e-05)
(-1.37267e-05 0.00628796 4.43062e-08)
(-1.84167e-05 0.00640564 -2.14473e-05)
(-1.33518e-05 0.00653093 -7.96834e-06)
(-1.29404e-05 0.00661168 8.35078e-06)
(-2.014e-05 0.00662544 2.76501e-05)
(-2.52007e-05 0.00657917 3.03985e-05)
(-2.66065e-05 0.00651059 1.57355e-05)
(-2.17476e-05 0.00645515 2.78614e-06)
(-8.86353e-06 0.00641493 -6.30583e-06)
(4.12978e-06 0.00639933 -4.481e-06)
(1.25525e-05 0.00639462 -1.57715e-06)
(-3.86917e-06 0.00639694 -1.51154e-05)
(-6.42875e-05 0.00645974 -5.15833e-05)
(-9.80344e-05 0.00666458 -7.4404e-05)
(-0.000103983 0.00684173 -6.29301e-05)
(-5.47289e-05 0.00652496 -3.41976e-05)
(-7.81855e-06 0.00556736 -9.06567e-06)
(1.70574e-06 0.00455166 3.70496e-06)
(6.5488e-06 0.00412605 -7.75879e-06)
(7.4318e-06 0.00410292 -1.9161e-05)
(-5.28894e-06 0.0041393 -3.33379e-05)
(-5.17401e-06 0.00413152 -1.29645e-05)
(-4.89567e-07 0.00030665 1.6006e-07)
(-7.83338e-07 0.000339909 1.50616e-07)
(-1.01243e-06 0.000391394 2.15305e-08)
(-1.13744e-06 0.000440528 -3.58975e-08)
(-1.11391e-06 0.000490777 -4.32054e-08)
(-1.18684e-06 0.000540162 -4.94739e-08)
(-1.14259e-06 0.000587295 -3.4974e-08)
(-1.00848e-06 0.000631184 -2.56506e-08)
(-8.60068e-07 0.000663293 -1.13317e-09)
(-7.17213e-07 0.000682122 8.12235e-09)
(-6.00185e-07 0.000691498 1.69211e-08)
(-5.44705e-07 0.000695942 2.8688e-08)
(-5.17953e-07 0.000698408 4.10261e-08)
(-5.11428e-07 0.000699898 5.36025e-08)
(-5.03654e-07 0.000700832 6.04983e-08)
(-5.08258e-07 0.000701439 6.35908e-08)
(-5.14165e-07 0.000701799 6.49497e-08)
(-5.31483e-07 0.000701994 6.47039e-08)
(-5.51678e-07 0.000702114 6.43055e-08)
(-5.86141e-07 0.00070219 6.33049e-08)
(-6.23602e-07 0.000702237 6.34773e-08)
(-6.75966e-07 0.000702264 6.29582e-08)
(-7.29698e-07 0.000702284 6.38726e-08)
(-7.98867e-07 0.000702302 6.41236e-08)
(-8.65663e-07 0.000702332 6.5748e-08)
(-9.46871e-07 0.000702381 6.59379e-08)
(-1.02128e-06 0.000702455 6.71254e-08)
(-1.1094e-06 0.000702561 6.58013e-08)
(-1.18745e-06 0.000702707 6.43453e-08)
(-1.2741e-06 0.000702896 6.23415e-08)
(-1.34369e-06 0.000703135 6.07593e-08)
(-1.42071e-06 0.000703423 5.54565e-08)
(-1.4709e-06 0.000703768 4.99231e-08)
(-1.521e-06 0.00070418 3.98294e-08)
(-1.52987e-06 0.000704676 2.77893e-08)
(-1.52495e-06 0.000705263 7.82551e-09)
(-1.46046e-06 0.000705949 -1.67277e-08)
(-1.36574e-06 0.000706746 -5.1774e-08)
(-1.18757e-06 0.000707679 -9.50293e-08)
(-9.48023e-07 0.000708809 -1.5339e-07)
(-5.52913e-07 0.000710459 -2.11304e-07)
(7.47014e-08 0.000714356 -1.68602e-07)
(1.18776e-06 0.00074398 1.14219e-07)
(2.86712e-06 0.000878084 4.03509e-07)
(4.348e-06 0.00115676 4.12958e-07)
(3.02955e-06 0.00147767 -5.45947e-07)
(-3.36724e-06 0.00177779 3.17727e-07)
(-1.78104e-05 0.00219235 1.10364e-06)
(-4.24251e-05 0.00285158 -2.56081e-06)
(-6.15816e-05 0.00350889 -1.40908e-05)
(-6.09749e-05 0.00381152 -8.55318e-06)
(-3.62503e-05 0.00381385 9.20806e-06)
(-7.62927e-05 0.0038012 -3.13887e-06)
(-0.000116931 0.00380312 5.65403e-06)
(-0.000122606 0.00390866 -3.07742e-05)
(-0.000104811 0.00385697 -2.44299e-05)
(-0.000823245 0.00567897 -1.36456e-05)
(9.74705e-05 0.00813563 -0.000148496)
(0.000373596 0.0113292 -0.000186218)
(0.0130218 0.0843871 0.00729294)
(-0.0178582 0.635224 -0.0186508)
(-0.0505878 0.563557 -0.0481285)
(-0.0504111 0.429817 -0.0428283)
(-0.00961788 0.310313 0.00320419)
(-0.000568703 0.0313004 -7.02236e-05)
(-0.000427003 0.00842274 -2.52909e-05)
(-0.000444539 0.00671409 -3.50456e-05)
(-0.000298993 0.00594967 -1.5369e-05)
(-0.000415834 0.00587358 -0.000173363)
(-0.00040972 0.00590066 1.02773e-05)
(7.49625e-05 0.00597757 5.97105e-05)
(0.000223821 0.00705391 0.000439535)
(-0.000195989 0.00822216 0.000160426)
(-0.0003806 0.00755727 -7.22077e-06)
(-4.3585e-05 0.00746448 -9.08981e-06)
(-4.79802e-05 0.00760623 -9.77047e-05)
(-3.76761e-05 0.00742807 -6.79898e-05)
(-3.131e-05 0.00713095 5.09301e-06)
(-3.14195e-05 0.00693826 1.71699e-05)
(-2.09749e-05 0.00680891 2.0981e-05)
(5.1249e-06 0.00673397 5.48463e-06)
(3.19111e-05 0.00667103 -3.3522e-05)
(5.20074e-05 0.00659547 -5.90145e-05)
(6.28701e-05 0.00649787 -5.53708e-05)
(4.72409e-05 0.00637645 -4.25267e-05)
(6.57521e-06 0.00628433 -1.82226e-05)
(-5.03016e-05 0.00633216 -2.33565e-06)
(-9.94421e-05 0.00652235 -1.24406e-05)
(-8.98332e-05 0.00669531 -2.65403e-05)
(-3.6337e-05 0.00644414 -3.37704e-05)
(-3.40055e-06 0.00554897 -1.77882e-05)
(-2.25876e-07 0.00455925 6.50005e-06)
(1.3676e-06 0.00413172 -1.69596e-07)
(5.85429e-06 0.00409616 -1.98129e-05)
(2.54023e-06 0.00413039 -3.93201e-05)
(-2.89544e-06 0.00412973 -2.27124e-05)
(-7.09752e-07 0.000299255 1.35221e-07)
(-1.1128e-06 0.000323621 2.34962e-07)
(-1.55141e-06 0.000370197 8.91353e-08)
(-1.60956e-06 0.000424759 3.86567e-08)
(-1.59241e-06 0.000486685 -1.59974e-08)
(-1.54061e-06 0.000541602 -1.27678e-08)
(-1.51785e-06 0.000586402 -2.0283e-09)
(-1.36451e-06 0.000626686 1.07614e-08)
(-1.18303e-06 0.00065791 2.46087e-08)
(-1.01227e-06 0.000677977 2.59801e-08)
(-8.88037e-07 0.0006889 3.33105e-08)
(-8.18105e-07 0.000694692 4.18763e-08)
(-7.86105e-07 0.000697907 4.89238e-08)
(-7.76642e-07 0.000699647 6.28429e-08)
(-7.79773e-07 0.000700625 6.56067e-08)
(-7.97813e-07 0.000701237 7.23561e-08)
(-8.30115e-07 0.000701581 7.11944e-08)
(-8.71916e-07 0.000701749 7.77201e-08)
(-9.25772e-07 0.000701842 7.41312e-08)
(-9.8464e-07 0.000701898 8.03828e-08)
(-1.05563e-06 0.000701929 7.46782e-08)
(-1.12986e-06 0.000701946 8.18711e-08)
(-1.21788e-06 0.000701951 7.45113e-08)
(-1.30789e-06 0.000701954 8.26795e-08)
(-1.41229e-06 0.000701966 7.34078e-08)
(-1.51572e-06 0.000701999 8.21977e-08)
(-1.63189e-06 0.000702061 7.01206e-08)
(-1.74283e-06 0.000702164 7.92777e-08)
(-1.86508e-06 0.000702316 6.49423e-08)
(-1.97267e-06 0.000702523 7.31037e-08)
(-2.08589e-06 0.000702784 5.399e-08)
(-2.17756e-06 0.000703105 6.22121e-08)
(-2.26449e-06 0.000703484 3.72058e-08)
(-2.31492e-06 0.000703937 4.0764e-08)
(-2.34513e-06 0.000704473 6.2886e-09)
(-2.3192e-06 0.00070511 3.34302e-09)
(-2.25426e-06 0.000705863 -4.23397e-08)
(-2.11073e-06 0.000706757 -5.40718e-08)
(-1.90464e-06 0.000707796 -1.1469e-07)
(-1.59327e-06 0.00070908 -1.45881e-07)
(-1.16382e-06 0.000711537 -2.32477e-07)
(-4.77366e-07 0.000719084 -2.40747e-07)
(6.14099e-07 0.000746189 -9.66128e-08)
(1.92395e-06 0.000833291 3.31684e-07)
(2.59327e-06 0.00101064 5.36262e-07)
(1.51427e-06 0.00123528 1.06129e-06)
(-2.11067e-06 0.0014862 1.0918e-06)
(-1.43935e-05 0.00189695 8.19666e-07)
(-3.82479e-05 0.00262523 -2.96771e-06)
(-7.39661e-05 0.00342544 -3.43309e-06)
(-7.62449e-05 0.00377985 2.44276e-07)
(-5.77019e-05 0.00380971 -1.0421e-05)
(-0.000127179 0.00381715 -3.4793e-05)
(-0.000170989 0.00378583 -2.92968e-05)
(-9.4694e-05 0.00378753 -0.000141365)
(-5.02922e-05 0.00334821 -2.76736e-05)
(-0.000190321 0.0069957 0.000248321)
(5.49922e-05 0.0133364 -0.000153941)
(-0.000180568 0.0121593 -0.000551936)
(0.012195 0.0809336 0.0063736)
(-0.0325665 0.641597 -0.0229444)
(-0.0587108 0.539938 -0.0380802)
(-0.0316839 0.534655 -0.0297659)
(-0.0244834 0.558327 -0.0320727)
(-0.029491 0.560985 -0.0150618)
(-0.023091 0.566906 0.0187974)
(-0.0113715 0.555378 0.0184628)
(-0.00516384 0.544476 0.0156304)
(-0.00464455 0.534837 0.0218117)
(-0.00628793 0.530838 0.011719)
(-0.0121898 0.523826 0.00158824)
(-0.011431 0.501118 -0.0110143)
(-0.00608335 0.462813 -0.0117629)
(0.000183652 0.323622 -0.00692701)
(-3.43613e-05 0.0291272 -7.13623e-05)
(-2.385e-05 0.00712731 -8.39347e-05)
(-9.66165e-05 0.00698072 4.30938e-05)
(-4.13085e-05 0.00658755 0.000107946)
(3.15502e-06 0.00638191 4.81959e-05)
(2.21641e-06 0.00622216 -0.000136556)
(9.29955e-06 0.0061504 -0.000340402)
(8.94496e-06 0.00615071 -0.000504537)
(-0.000126542 0.00617528 -0.000556869)
(-8.80246e-06 0.00604245 -0.000497083)
(1.26152e-05 0.00577285 -3.68088e-05)
(9.37901e-06 0.00546107 -2.8997e-05)
(1.02679e-06 0.00563234 -4.59384e-06)
(-2.06564e-05 0.00620616 -6.28939e-06)
(-3.11718e-05 0.006497 -2.20085e-05)
(-2.84793e-05 0.00609084 -2.70776e-05)
(-1.69119e-05 0.00519357 -1.60466e-05)
(-1.44757e-05 0.00450639 3.5453e-07)
(-5.04867e-06 0.0042472 -1.6415e-05)
(2.96798e-06 0.00413551 -2.98458e-05)
(9.50178e-06 0.00412598 -3.41829e-05)
(2.64838e-06 0.00412386 -2.48563e-05)
(-1.02633e-06 0.000293319 -1.41286e-08)
(-1.62346e-06 0.00031144 1.46455e-07)
(-2.19959e-06 0.000350438 1.51624e-08)
(-2.13511e-06 0.000401012 -3.455e-09)
(-2.05795e-06 0.00046294 1.54411e-08)
(-1.82642e-06 0.000523457 -4.28771e-10)
(-1.7859e-06 0.000576858 -1.84591e-08)
(-1.60832e-06 0.000621164 8.91014e-09)
(-1.43294e-06 0.000652781 1.85665e-08)
(-1.24974e-06 0.000674055 1.5231e-08)
(-1.11168e-06 0.000686794 2.23673e-08)
(-1.01052e-06 0.000693954 2.6082e-08)
(-9.60481e-07 0.000697831 3.4495e-08)
(-9.48936e-07 0.000699764 4.40214e-08)
(-9.57244e-07 0.000700775 5.36946e-08)
(-9.95865e-07 0.000701381 5.50605e-08)
(-1.05146e-06 0.000701713 6.33624e-08)
(-1.12756e-06 0.000701867 6.23926e-08)
(-1.213e-06 0.000701953 7.01121e-08)
(-1.31166e-06 0.000702004 6.47097e-08)
(-1.41374e-06 0.000702033 7.04072e-08)
(-1.52708e-06 0.000702044 6.10466e-08)
(-1.64132e-06 0.000702044 6.68423e-08)
(-1.7665e-06 0.000702039 5.52502e-08)
(-1.89043e-06 0.000702043 6.17037e-08)
(-2.02543e-06 0.000702065 4.74938e-08)
(-2.15682e-06 0.000702118 5.47589e-08)
(-2.2979e-06 0.000702206 3.8522e-08)
(-2.43031e-06 0.000702341 4.70466e-08)
(-2.56982e-06 0.000702526 2.78303e-08)
(-2.69252e-06 0.000702772 3.61339e-08)
(-2.81097e-06 0.000703082 1.27768e-08)
(-2.89979e-06 0.000703468 1.84757e-08)
(-2.96925e-06 0.000703939 -1.2976e-08)
(-2.99108e-06 0.000704512 -1.37761e-08)
(-2.97587e-06 0.000705196 -5.41798e-08)
(-2.89495e-06 0.000706013 -5.9984e-08)
(-2.75633e-06 0.000706984 -1.07481e-07)
(-2.52797e-06 0.000708132 -1.23784e-07)
(-2.21568e-06 0.000709568 -1.8933e-07)
(-1.77171e-06 0.000712659 -2.37227e-07)
(-1.21381e-06 0.00072343 -3.20544e-07)
(-3.65369e-07 0.000752548 -3.53102e-07)
(6.247e-07 0.000812343 -1.8962e-07)
(1.11757e-06 0.000917763 2.49015e-07)
(-3.36239e-07 0.00108824 9.43676e-07)
(-3.64534e-06 0.00134499 1.10864e-06)
(-9.58897e-06 0.00173277 5.98958e-07)
(-2.29618e-05 0.00237485 -6.25344e-06)
(-4.63e-05 0.00319427 -7.2926e-06)
(-3.98635e-05 0.00370604 -4.02656e-06)
(-4.10968e-05 0.00382747 -2.40823e-05)
(-0.000114823 0.00383541 -4.17267e-05)
(-0.000137281 0.00381513 -0.000107138)
(-6.2438e-05 0.00388454 -0.00023395)
(-2.17757e-05 0.00379377 -3.21077e-05)
(0.000692736 0.00640253 -0.000321018)
(-0.000284462 0.00959185 -0.000379976)
(-0.000746722 0.0116916 -8.53028e-06)
(0.0194044 0.10407 0.00814701)
(-0.0217049 0.649552 -0.0186865)
(-0.0456532 0.525055 -0.00996601)
(-0.0261015 0.540434 -0.0171735)
(-0.0345797 0.580067 -0.0395585)
(-0.0235541 0.579182 -0.0188421)
(-0.0145974 0.564809 0.0161026)
(-0.00941846 0.54511 0.0210946)
(-0.00460781 0.544936 0.0094703)
(-0.00241429 0.544559 0.00694978)
(-0.000176234 0.540871 0.00309203)
(0.00302875 0.537226 -0.00501191)
(0.00910889 0.526353 -0.0107905)
(0.0176487 0.455354 -0.019734)
(0.000576782 0.0352972 -0.000934299)
(-3.1291e-05 0.00767685 -0.000319144)
(-0.00022111 0.0298711 -0.000124119)
(-0.00146967 0.188494 0.000418307)
(-0.000867919 0.397787 -0.00161908)
(-0.000623735 0.399275 -0.00473672)
(-0.000121097 0.026571 -0.000259258)
(-0.000100545 0.00814999 -0.000339233)
(-5.07294e-06 0.0311208 -0.000259215)
(-0.000385327 0.190609 -0.00124765)
(-7.63996e-05 0.0293934 -0.000260721)
(-3.14494e-05 0.00713745 -0.000278124)
(8.13205e-05 0.00597793 -0.000203578)
(0.000325133 0.00534113 -4.27457e-05)
(0.00052238 0.00563785 1.77141e-05)
(0.000409317 0.00617715 1.15831e-05)
(0.000181249 0.00607976 -1.06853e-05)
(2.56485e-05 0.00557059 -1.91469e-05)
(-9.36507e-06 0.00498408 -2.0645e-05)
(-2.23005e-06 0.00451699 -4.9826e-05)
(9.39408e-06 0.00422638 -3.76558e-05)
(1.5851e-05 0.00413591 -2.69922e-05)
(5.82267e-06 0.00411736 -1.98675e-05)
(-1.45599e-06 0.000287095 -3.33024e-07)
(-2.2452e-06 0.000303052 -8.53147e-08)
(-2.885e-06 0.000333433 -1.23147e-07)
(-2.53327e-06 0.000377457 -6.51799e-08)
(-2.47873e-06 0.000438295 -6.29121e-08)
(-2.05866e-06 0.000500622 1.85661e-08)
(-1.90022e-06 0.000560299 -3.54045e-08)
(-1.70006e-06 0.000612077 -1.42507e-08)
(-1.57712e-06 0.000646873 -6.39666e-10)
(-1.36351e-06 0.000669944 -3.33809e-09)
(-1.21986e-06 0.000684726 -7.37802e-09)
(-1.11466e-06 0.00069316 -8.11597e-10)
(-1.0607e-06 0.000697556 5.94161e-09)
(-1.04922e-06 0.000699568 2.93319e-08)
(-1.08017e-06 0.000700511 3.84601e-08)
(-1.1406e-06 0.000701049 5.17155e-08)
(-1.22358e-06 0.000701333 5.38003e-08)
(-1.32116e-06 0.000701457 6.34438e-08)
(-1.43368e-06 0.000701519 5.90354e-08)
(-1.55443e-06 0.000701557 6.44125e-08)
(-1.68402e-06 0.000701578 5.30498e-08)
(-1.81719e-06 0.00070159 5.54068e-08)
(-1.95545e-06 0.000701593 3.95229e-08)
(-2.09448e-06 0.000701597 4.13182e-08)
(-2.23987e-06 0.000701607 2.34652e-08)
(-2.38526e-06 0.00070164 2.75909e-08)
(-2.53463e-06 0.000701701 8.0874e-09)
(-2.68088e-06 0.000701801 1.35053e-08)
(-2.8287e-06 0.000701945 -6.75026e-09)
(-2.97099e-06 0.000702146 7.99688e-10)
(-3.10874e-06 0.000702409 -2.18792e-08)
(-3.22964e-06 0.000702747 -1.70543e-08)
(-3.33276e-06 0.000703166 -4.68682e-08)
(-3.40445e-06 0.000703686 -4.79643e-08)
(-3.44099e-06 0.000704318 -8.63745e-08)
(-3.42883e-06 0.000705081 -9.29166e-08)
(-3.36156e-06 0.000705995 -1.34852e-07)
(-3.22654e-06 0.000707081 -1.45891e-07)
(-3.01234e-06 0.000708355 -1.9591e-07)
(-2.71847e-06 0.000709886 -2.26324e-07)
(-2.3135e-06 0.000712826 -2.84031e-07)
(-1.86305e-06 0.000722711 -3.38334e-07)
(-1.24268e-06 0.000750089 -5.00761e-07)
(-5.4726e-07 0.00080272 -5.91702e-07)
(-4.04741e-07 0.000888123 -5.38704e-07)
(-1.41705e-06 0.00103837 3.02752e-07)
(-4.86856e-06 0.00128943 3.20767e-07)
(-9.17661e-06 0.0016738 -4.64084e-07)
(-1.64135e-05 0.0022499 -9.7923e-06)
(-2.91274e-05 0.00297809 -1.21758e-05)
(-2.09802e-05 0.00359812 -2.34378e-05)
(-1.22777e-05 0.00383813 -4.51727e-05)
(-3.94133e-05 0.00380902 -5.43175e-05)
(-3.69979e-05 0.00381888 -0.000185851)
(-6.45079e-05 0.00391543 -0.000181319)
(-0.000135434 0.00386621 3.04589e-06)
(0.00013061 0.00614457 7.64258e-05)
(7.06885e-05 0.0090997 0.000635054)
(-2.59161e-05 0.0155268 -0.000190654)
(0.0308691 0.14699 0.0158778)
(-0.021887 0.660999 -0.0145745)
(-0.0361233 0.502422 0.00314858)
(-0.0340931 0.553846 -0.0276223)
(-0.0436045 0.574309 -0.039807)
(-0.00757384 0.577359 -0.000112441)
(0.00440769 0.560528 0.0200686)
(-0.00484044 0.545416 0.0133953)
(-0.00289016 0.541041 0.00369121)
(0.00161632 0.536751 -0.000161257)
(0.00382403 0.536581 -0.00822368)
(0.0058758 0.5381 -0.0198163)
(0.00660228 0.551151 -0.0250042)
(0.00624202 0.554802 -0.00560676)
(0.00438235 0.557935 0.00894617)
(-0.00159064 0.544128 0.00306388)
(-0.000305547 0.534886 -0.00285713)
(0.00362489 0.534154 -0.00496492)
(0.0050246 0.544596 -0.00502787)
(0.00435245 0.543034 -0.00335699)
(0.00513496 0.54057 -0.00227312)
(0.00700808 0.543136 0.000219893)
(0.00481155 0.543083 0.000209502)
(0.00288735 0.544018 -0.0016581)
(0.00285568 0.545847 -0.00398985)
(-0.0017101 0.544489 -0.0082213)
(-0.00942297 0.542235 -0.0107327)
(-0.0134664 0.538467 -0.00827099)
(-0.00731927 0.531121 -0.0027994)
(0.00540943 0.516742 0.00197671)
(0.0168066 0.479324 0.00275735)
(0.0142115 0.330744 0.000116924)
(-1.48887e-05 0.0297399 -0.000422444)
(-0.000100594 0.00556142 -0.000696784)
(2.51555e-05 0.00419388 -3.42609e-05)
(8.88417e-06 0.00410483 -1.44479e-05)
(-3.52019e-05 0.00407454 -1.10014e-05)
(-2.13382e-06 0.000280473 -9.02657e-07)
(-2.98786e-06 0.000297761 -4.00034e-07)
(-3.54796e-06 0.00032228 -1.84514e-07)
(-2.92705e-06 0.000359735 -4.51589e-09)
(-2.74262e-06 0.000418715 -1.31218e-07)
(-2.29053e-06 0.000478771 -2.79633e-08)
(-1.99353e-06 0.000537581 -3.89178e-08)
(-1.71186e-06 0.000597902 -3.67572e-08)
(-1.68778e-06 0.000640583 -3.48229e-09)
(-1.45302e-06 0.000666279 1.65849e-09)
(-1.31574e-06 0.000682875 -5.78467e-09)
(-1.14059e-06 0.000692642 3.2625e-09)
(-1.06881e-06 0.000697612 1.45759e-08)
(-1.09717e-06 0.000699739 2.95056e-08)
(-1.16803e-06 0.000700684 5.05966e-08)
(-1.24855e-06 0.000701212 6.44798e-08)
(-1.34368e-06 0.000701482 7.97796e-08)
(-1.44018e-06 0.000701581 7.87906e-08)
(-1.54951e-06 0.000701621 7.92329e-08)
(-1.66892e-06 0.000701638 6.52019e-08)
(-1.79808e-06 0.000701633 5.99645e-08)
(-1.93146e-06 0.000701603 4.21993e-08)
(-2.071e-06 0.000701569 3.74543e-08)
(-2.21025e-06 0.000701544 1.91632e-08)
(-2.35276e-06 0.000701535 1.64629e-08)
(-2.49448e-06 0.000701548 -1.35269e-09)
(-2.64429e-06 0.000701596 -1.62738e-09)
(-2.79068e-06 0.000701687 -2.13918e-08)
(-2.93986e-06 0.000701833 -2.14384e-08)
(-3.07796e-06 0.000702038 -4.27687e-08)
(-3.21073e-06 0.000702313 -4.37535e-08)
(-3.31993e-06 0.000702665 -6.9571e-08)
(-3.41368e-06 0.000703107 -7.62815e-08)
(-3.46707e-06 0.000703653 -1.10536e-07)
(-3.49175e-06 0.000704328 -1.27805e-07)
(-3.4565e-06 0.000705153 -1.74314e-07)
(-3.38216e-06 0.000706154 -2.07495e-07)
(-3.2279e-06 0.000707348 -2.50611e-07)
(-3.00316e-06 0.000708733 -2.68225e-07)
(-2.66516e-06 0.000710355 -3.09446e-07)
(-2.26278e-06 0.000713014 -3.3059e-07)
(-1.77291e-06 0.000721287 -3.65857e-07)
(-1.23909e-06 0.000744802 -5.24675e-07)
(-7.32039e-07 0.000791968 -8.36351e-07)
(-6.20684e-07 0.000874209 -1.15294e-06)
(-1.21013e-06 0.00102956 -4.64975e-07)
(-4.07562e-06 0.0012971 -3.20906e-07)
(-6.36253e-06 0.00172392 -3.26163e-06)
(-1.02547e-05 0.00237549 -1.00296e-05)
(-1.58887e-05 0.00307792 -1.15868e-05)
(-2.79835e-05 0.00355377 -2.79636e-05)
(-1.58458e-05 0.0038064 -1.98321e-05)
(-2.00693e-05 0.00384167 -1.10263e-05)
(-4.65016e-05 0.00380685 -8.84452e-05)
(-6.28923e-05 0.0038021 -7.71056e-05)
(-8.58921e-05 0.00372452 -4.24225e-05)
(-0.0004796 0.00624474 0.000109688)
(0.000449052 0.00989883 0.00062353)
(0.000541222 0.0182918 -0.00041009)
(0.0110803 0.188565 0.00889612)
(-0.0103697 0.663922 -0.00406633)
(-0.0149076 0.507847 0.0112081)
(-0.052087 0.548484 -0.0267095)
(-0.0205314 0.551964 -0.0280284)
(-0.00232799 0.557655 -0.00782993)
(-0.00175896 0.561616 0.00750983)
(-0.00323398 0.553453 0.00163015)
(-0.00239936 0.551892 -0.0127689)
(0.00235033 0.55676 -0.019023)
(0.00697494 0.565453 -0.0139722)
(0.00573645 0.564329 -0.00576253)
(0.00209781 0.554313 -0.000989306)
(-0.00299674 0.549487 0.00510532)
(-0.00312914 0.543508 0.00284732)
(-0.00384651 0.541793 0.00139296)
(-0.00315426 0.543622 -0.000986181)
(0.000279532 0.5429 -0.00300462)
(0.000815642 0.544101 -0.000441296)
(0.000551647 0.541335 -0.00156037)
(0.000232013 0.539773 -0.00187952)
(0.00129794 0.539571 0.00182776)
(-0.000438113 0.537403 0.00232236)
(-0.00220968 0.537028 0.000469528)
(-0.000761454 0.540222 -0.00300198)
(0.000394212 0.539734 -0.00371041)
(-0.00130541 0.537521 -0.00448046)
(-0.00201119 0.537964 -0.0051476)
(0.000298539 0.537234 -0.00159997)
(0.00311883 0.537026 0.0031705)
(-0.000759783 0.53403 0.00337584)
(-0.00731683 0.53103 0.00253674)
(-0.0135664 0.519381 0.00163093)
(-0.0172713 0.481711 0.00356967)
(-0.0160285 0.326583 0.00308984)
(-0.000466829 0.0522306 -0.000285399)
(-0.00433029 0.43295 -0.000248058)
(-3.13905e-06 0.000269934 -1.86236e-06)
(-4.00117e-06 0.000294476 -6.8927e-07)
(-4.13501e-06 0.000318225 -1.73246e-07)
(-3.23652e-06 0.000350645 1.898e-07)
(-2.80504e-06 0.00040682 -1.18899e-08)
(-2.41929e-06 0.000467298 -6.33673e-08)
(-2.00919e-06 0.0005251 7.09177e-09)
(-1.55572e-06 0.000585432 -5.31808e-08)
(-1.65909e-06 0.000633033 2.13125e-08)
(-1.38706e-06 0.00066325 1.27201e-08)
(-1.30173e-06 0.000681568 2.87737e-08)
(-1.153e-06 0.000692158 5.03317e-08)
(-1.14232e-06 0.000697468 7.98545e-08)
(-1.20607e-06 0.000699653 1.12019e-07)
(-1.30561e-06 0.000700565 1.32026e-07)
(-1.40099e-06 0.000701102 1.47893e-07)
(-1.50019e-06 0.000701376 1.56808e-07)
(-1.60027e-06 0.00070146 1.69642e-07)
(-1.7056e-06 0.000701482 1.7337e-07)
(-1.82525e-06 0.000701486 1.79437e-07)
(-1.94956e-06 0.00070148 1.71333e-07)
(-2.08422e-06 0.000701474 1.6606e-07)
(-2.21813e-06 0.00070147 1.49053e-07)
(-2.36024e-06 0.000701473 1.38348e-07)
(-2.49715e-06 0.00070149 1.16349e-07)
(-2.64111e-06 0.000701529 1.04286e-07)
(-2.77839e-06 0.000701598 8.16614e-08)
(-2.92056e-06 0.000701712 6.96944e-08)
(-3.04721e-06 0.000701877 4.59468e-08)
(-3.16916e-06 0.000702103 3.27137e-08)
(-3.26224e-06 0.000702401 4.77946e-09)
(-3.34209e-06 0.000702783 -1.55472e-08)
(-3.38215e-06 0.000703264 -5.28366e-08)
(-3.39624e-06 0.000703862 -8.56789e-08)
(-3.35413e-06 0.0007046 -1.36968e-07)
(-3.26429e-06 0.000705496 -1.86487e-07)
(-3.09661e-06 0.000706578 -2.55584e-07)
(-2.87424e-06 0.000707861 -3.22742e-07)
(-2.55063e-06 0.000709346 -4.02119e-07)
(-2.12934e-06 0.000711042 -4.71188e-07)
(-1.60494e-06 0.000713848 -5.26201e-07)
(-1.06e-06 0.000722271 -6.05163e-07)
(-4.93148e-07 0.000745741 -7.69131e-07)
(-8.38413e-08 0.000794243 -1.34659e-06)
(3.69349e-07 0.000884672 -1.44374e-06)
(1.05695e-07 0.00105496 -7.39367e-07)
(5.49594e-08 0.00135578 -3.45839e-07)
(1.98039e-06 0.00182218 -3.70839e-06)
(2.31071e-06 0.00253668 -5.32872e-06)
(2.00998e-05 0.00334505 1.51109e-06)
(8.50594e-06 0.00379171 -4.57917e-06)
(-2.28622e-05 0.00387537 1.572e-06)
(-7.69784e-05 0.00386518 4.51837e-05)
(-3.79253e-05 0.00383475 2.3864e-05)
(-2.19987e-05 0.00379989 -1.05541e-05)
(0.000139728 0.00349505 -0.000142187)
(-0.000609065 0.00660208 -0.000845069)
(0.000382395 0.0112979 0.000379925)
(-0.000248977 0.0119413 0.000889305)
(-0.00604764 0.220195 0.00226791)
(-0.00615409 0.661787 0.00912644)
(-0.00536882 0.528635 -0.00176067)
(-0.0244688 0.54417 -0.0139652)
(-0.0266375 0.565222 -0.0269049)
(-0.00589783 0.592171 -0.0052179)
(-0.00157422 0.570884 0.00384013)
(-0.00099502 0.558333 -0.00808441)
(0.00103168 0.560932 -0.00615396)
(0.00459801 0.560925 -0.00386963)
(0.000284465 0.551784 -0.001944)
(-0.00266906 0.543917 -0.00282851)
(-0.00477405 0.548667 -0.00172903)
(-0.00629429 0.547106 -0.000840986)
(-0.00546457 0.541245 0.000149311)
(-0.00695539 0.539747 0.00186816)
(-0.0069183 0.539508 0.00314054)
(-0.00239663 0.540257 0.00208333)
(-0.000389069 0.539773 -0.000846822)
(-0.00182876 0.53955 0.000304423)
(0.000449763 0.539664 0.00218801)
(-0.000512249 0.540679 0.00102483)
(-0.00170397 0.539246 0.00386808)
(-0.000751643 0.539188 0.00564717)
(0.000420992 0.53971 0.00454939)
(0.000495762 0.541017 0.0045543)
(-0.000291813 0.540897 0.00377005)
(-0.000229312 0.538693 0.00344387)
(-0.000623036 0.537508 0.00357367)
(-0.00187451 0.536104 0.00341242)
(-0.0036873 0.53458 0.00372226)
(-0.00887886 0.532085 0.0025337)
(-0.0149232 0.527472 0.000382231)
(-0.0199066 0.520717 -0.00160581)
(-0.0195023 0.513728 -0.00377802)
(-0.00939354 0.503211 -0.00864236)
(-0.00117752 0.509167 -0.0144366)
(-5.45637e-06 0.000126685 -5.1973e-06)
(-4.6526e-06 0.000296906 -1.27171e-06)
(-4.33916e-06 0.000317249 -3.18548e-07)
(-3.21739e-06 0.000347639 1.52282e-07)
(-2.62865e-06 0.000400928 1.37175e-09)