/*--------------------------------*- C++ -*----------------------------------*\
| =========                 |                                                 |
| \\      /  F ield         | OpenFOAM: The Open Source CFD Toolbox           |
|  \\    /   O peration     | Version:  2.3.0                                 |
|   \\  /    A nd           | Web:      www.OpenFOAM.org                      |
|    \\/     M anipulation  |                                                 |
\*---------------------------------------------------------------------------*/
FoamFile
{
    version     2.0;
    format      ascii;
    class       volScalarField;
    location    "33";
    object      alpha.water;
}
// * * * * * * * * * * * * * * * * * * * * * * * * * * * * * * * * * * * * * //

dimensions      [0 0 0 0 0 0 0];

internalField   nonuniform List<scalar> 
6144
(
4.56516e-06
5.4056e-06
6.02676e-06
6.57735e-06
7.04557e-06
7.65494e-06
8.34745e-06
9.16826e-06
9.75567e-06
9.94656e-06
9.97467e-06
9.98196e-06
9.98534e-06
9.98813e-06
9.98857e-06
9.98947e-06
9.98845e-06
9.98891e-06
9.98835e-06
9.98852e-06
9.9881e-06
9.98807e-06
9.98779e-06
9.98762e-06
9.98736e-06
9.9872e-06
9.987e-06
9.98688e-06
9.98667e-06
9.98638e-06
9.98592e-06
9.98549e-06
9.98489e-06
9.9843e-06
9.98358e-06
9.98317e-06
9.98278e-06
9.98259e-06
9.98217e-06
9.98161e-06
9.98134e-06
9.98134e-06
9.98135e-06
1.00085e-05
1.05331e-05
1.22814e-05
1.59841e-05
2.42691e-05
3.84055e-05
5.34296e-05
6.59833e-05
7.5568e-05
8.37996e-05
8.84152e-05
9.18448e-05
9.75895e-05
9.69543e-05
0.000103746
0.000511551
0.0352328
0.936381
0.999562
0.999999
0.999999
0.999999
0.999999
0.999999
0.999999
0.999999
0.999999
0.999999
0.999999
0.999999
0.999999
0.999999
0.999999
0.999999
0.999999
0.999999
0.999999
0.999999
0.999999
0.999999
0.999999
1
1
1
1
1
1
1
1
1
1
1
1
4.11769e-06
5.2049e-06
6.37639e-06
6.93578e-06
7.50567e-06
7.99011e-06
8.54704e-06
9.22363e-06
9.77633e-06
9.94604e-06
9.97324e-06
9.98294e-06
9.98893e-06
9.99513e-06
9.99718e-06
9.998e-06
9.99719e-06
9.9973e-06
9.99662e-06
9.99644e-06
9.99572e-06
9.99541e-06
9.99497e-06
9.99471e-06
9.99449e-06
9.99444e-06
9.99446e-06
9.99455e-06
9.99452e-06
9.99441e-06
9.99428e-06
9.99411e-06
9.99387e-06
9.99352e-06
9.99317e-06
9.99282e-06
9.99235e-06
9.99168e-06
9.99068e-06
9.9896e-06
9.98813e-06
9.9871e-06
9.98601e-06
1.00301e-05
1.04172e-05
1.16693e-05
1.5108e-05
2.29118e-05
3.64782e-05
5.63885e-05
8.45268e-05
0.000101297
0.000111999
0.000115812
0.000118139
0.000119358
0.000117832
0.000119481
0.000219031
0.0314252
0.953126
0.999798
0.999999
0.999999
0.999999
0.999999
0.999999
0.999999
0.999999
0.999999
0.999999
0.999999
0.999999
0.999999
0.999999
0.999999
0.999999
0.999999
0.999999
0.999999
0.999999
0.999999
0.999999
0.999999
0.999999
0.999999
0.999999
1
1
1
1
1
1
1
1
1
3.92367e-06
4.90362e-06
6.1683e-06
6.92351e-06
7.61827e-06
8.06745e-06
8.59965e-06
9.14162e-06
9.60256e-06
9.81844e-06
9.89347e-06
9.94134e-06
9.9728e-06
9.99021e-06
9.9962e-06
9.9981e-06
9.99771e-06
9.99787e-06
9.99742e-06
9.99728e-06
9.99665e-06
9.99638e-06
9.99592e-06
9.99561e-06
9.99532e-06
9.99517e-06
9.99503e-06
9.99496e-06
9.99484e-06
9.99472e-06
9.99452e-06
9.99431e-06
9.99394e-06
9.99345e-06
9.99268e-06
9.99179e-06
9.99059e-06
9.98938e-06
9.98809e-06
9.98739e-06
9.98697e-06
9.98912e-06
9.99796e-06
1.00919e-05
1.04739e-05
1.15151e-05
1.38462e-05
1.78209e-05
3.46314e-05
7.64816e-05
0.000114691
0.000131815
0.000137534
0.00013743
0.000136488
0.000135216
0.000130634
0.000131474
0.000244262
0.0322133
0.953053
0.99976
0.999999
0.999999
0.999999
0.999999
0.999999
0.999999
0.999999
0.999999
0.999999
0.999999
0.999999
0.999999
0.999999
0.999999
0.999999
0.999999
0.999999
0.999999
0.999999
0.999999
0.999999
0.999999
0.999999
0.999999
0.999999
0.999999
0.999999
0.999999
1
1
1
1
1
1
3.81316e-06
4.63765e-06
5.83001e-06
6.63875e-06
7.50004e-06
7.96654e-06
8.49097e-06
9.00576e-06
9.4647e-06
9.72445e-06
9.84326e-06
9.91967e-06
9.96347e-06
9.98528e-06
9.99207e-06
9.99427e-06
9.99395e-06
9.99395e-06
9.99363e-06
9.99352e-06
9.993e-06
9.99256e-06
9.99202e-06
9.99148e-06
9.99102e-06
9.99058e-06
9.99027e-06
9.98991e-06
9.98974e-06
9.98951e-06
9.98944e-06
9.9893e-06
9.98923e-06
9.98896e-06
9.98861e-06
9.98799e-06
9.98741e-06
9.98654e-06
9.98573e-06
9.98546e-06
9.98551e-06
9.98825e-06
1.00025e-05
1.01179e-05
1.04811e-05
1.13842e-05
1.26704e-05
1.74015e-05
6.40873e-05
0.000122047
0.000142853
0.00014307
0.0001419
0.000140115
0.000137813
0.000137175
0.000133632
0.000134772
0.000243349
0.0314133
0.957416
0.999773
0.999999
0.999999
0.999999
0.999999
0.999999
0.999999
0.999999
0.999999
0.999999
0.999999
0.999999
0.999999
0.999999
0.999999
0.999999
0.999999
0.999999
0.999999
0.999999
0.999999
0.999999
0.999999
0.999999
0.999999
0.999999
0.999999
0.999999
1
1
1
1
1
1
1
3.70369e-06
4.43468e-06
5.46487e-06
6.22209e-06
7.28123e-06
7.87512e-06
8.43854e-06
8.92464e-06
9.34377e-06
9.63376e-06
9.8022e-06
9.91139e-06
9.96519e-06
9.98818e-06
9.99512e-06
9.99728e-06
9.99725e-06
9.99764e-06
9.99746e-06
9.99766e-06
9.9973e-06
9.99713e-06
9.99664e-06
9.99622e-06
9.99564e-06
9.9952e-06
9.99465e-06
9.9942e-06
9.99365e-06
9.9932e-06
9.99264e-06
9.99209e-06
9.99142e-06
9.99081e-06
9.99005e-06
9.98936e-06
9.98858e-06
9.98775e-06
9.9867e-06
9.98578e-06
9.98518e-06
9.98987e-06
1.00179e-05
1.014e-05
1.04378e-05
1.11366e-05
1.21298e-05
3.35694e-05
0.000111387
0.000146988
0.000145517
0.000141726
0.000137072
0.000134547
0.000131745
0.000131567
0.000129725
0.000133457
0.000261666
0.0457507
0.974732
0.999895
0.999987
0.99999
0.999993
0.999996
0.999997
0.999998
0.999998
0.999998
0.999998
0.999998
0.999998
0.999998
0.999998
0.999999
0.999999
0.999999
0.999999
0.999999
0.999999
0.999999
0.999999
0.999999
0.999999
0.999999
1
1
1
1
1
1
1
1
1
1
3.55125e-06
4.24858e-06
5.07712e-06
5.7196e-06
6.86383e-06
7.6776e-06
8.34086e-06
8.83666e-06
9.23716e-06
9.54924e-06
9.75439e-06
9.89876e-06
9.96102e-06
9.98309e-06
9.98867e-06
9.99069e-06
9.99059e-06
9.9906e-06
9.99058e-06
9.99065e-06
9.9908e-06
9.99089e-06
9.99078e-06
9.9906e-06
9.99031e-06
9.98998e-06
9.98967e-06
9.9893e-06
9.98897e-06
9.98859e-06
9.98821e-06
9.98769e-06
9.98718e-06
9.98661e-06
9.98605e-06
9.98546e-06
9.98492e-06
9.98422e-06
9.98406e-06
9.98406e-06
9.98406e-06
9.98407e-06
1.00248e-05
1.01382e-05
1.04281e-05
1.07936e-05
1.41878e-05
5.29695e-05
0.000138427
0.000148682
0.000141624
0.00013853
0.000134133
0.000132974
0.00013101
0.000132044
0.00012917
0.0001408
0.000435559
0.0780718
0.982364
0.999423
0.999544
0.999592
0.999617
0.999667
0.999712
0.999741
0.999757
0.999764
0.999763
0.999759
0.999757
0.999769
0.999789
0.999823
0.999857
0.999888
0.999913
0.999931
0.999946
0.999962
0.999974
0.999979
0.999978
0.999969
0.999959
0.999949
0.999941
0.999953
0.999963
0.999981
0.999994
0.999999
1
1
3.35659e-06
4.03275e-06
4.70355e-06
5.25068e-06
6.45529e-06
7.39358e-06
8.1682e-06
8.76627e-06
9.17805e-06
9.48081e-06
9.70922e-06
9.88762e-06
9.96202e-06
9.98699e-06
9.99339e-06
9.99603e-06
9.99571e-06
9.99576e-06
9.99527e-06
9.99474e-06
9.99401e-06
9.99366e-06
9.99323e-06
9.99291e-06
9.99245e-06
9.99196e-06
9.99143e-06
9.99096e-06
9.99055e-06
9.99022e-06
9.98983e-06
9.98935e-06
9.98876e-06
9.98809e-06
9.98738e-06
9.98671e-06
9.98607e-06
9.9854e-06
9.98511e-06
9.98503e-06
9.98506e-06
9.9875e-06
1.00332e-05
1.0143e-05
1.03986e-05
1.07165e-05
1.60543e-05
5.85568e-05
0.000143443
0.00014807
0.000139853
0.000137695
0.000133535
0.000130544
0.000130553
0.000133011
0.000131172
0.000206908
0.000737996
0.11256
0.973477
0.996004
0.996281
0.996304
0.99613
0.996113
0.996087
0.996293
0.996452
0.996623
0.996712
0.996858
0.997019
0.997323
0.997656
0.998057
0.998403
0.998662
0.998899
0.999123
0.999244
0.999203
0.999142
0.999017
0.998831
0.998595
0.998343
0.99817
0.998136
0.99829
0.99824
0.998719
0.999137
0.999593
0.999914
1
3.10451e-06
3.80475e-06
4.40212e-06
4.88447e-06
6.09613e-06
7.1262e-06
7.90395e-06
8.62679e-06
9.11817e-06
9.45236e-06
9.6739e-06
9.87463e-06
9.95793e-06
9.98577e-06
9.99248e-06
9.99604e-06
9.99563e-06
9.9957e-06
9.99522e-06
9.99518e-06
9.99527e-06
9.99532e-06
9.9953e-06
9.99535e-06
9.99541e-06
9.99542e-06
9.99529e-06
9.99508e-06
9.9949e-06
9.99474e-06
9.99444e-06
9.99402e-06
9.99349e-06
9.9929e-06
9.99233e-06
9.99184e-06
9.9914e-06
9.99087e-06
9.99032e-06
9.99014e-06
9.99086e-06
9.99826e-06
1.0033e-05
1.01206e-05
1.03731e-05
1.0765e-05
1.43316e-05
4.85775e-05
0.000132559
0.000148427
0.000137591
0.000136237
0.000133116
0.000128946
0.000126799
0.000128157
0.000124476
0.00016296
0.00056847
0.192009
0.969958
0.987029
0.986396
0.986185
0.985702
0.98526
0.985081
0.984991
0.984944
0.984893
0.984877
0.984831
0.984755
0.984651
0.984507
0.984319
0.984044
0.983699
0.983271
0.98285
0.982508
0.982295
0.982048
0.981393
0.980115
0.97855
0.976696
0.974798
0.97318
0.972058
0.971414
0.971203
0.971838
0.972729
0.97507
0.978479
2.821e-06
3.53496e-06
4.09967e-06
4.6035e-06
5.66089e-06
6.71404e-06
7.66538e-06
8.37303e-06
9.07142e-06
9.45473e-06
9.66613e-06
9.85614e-06
9.94725e-06
9.981e-06
9.98608e-06
9.98972e-06
9.98908e-06
9.98927e-06
9.98883e-06
9.98924e-06
9.98969e-06
9.99005e-06
9.99023e-06
9.99042e-06
9.99058e-06
9.99068e-06
9.99065e-06
9.99053e-06
9.99039e-06
9.99024e-06
9.98998e-06
9.9897e-06
9.98928e-06
9.98877e-06
9.98825e-06
9.98778e-06
9.98762e-06
9.98762e-06
9.98762e-06
9.98762e-06
9.98763e-06
9.99323e-06
1.00237e-05
1.01075e-05
1.03922e-05
1.10968e-05
1.32053e-05
2.87805e-05
9.32578e-05
0.000155166
0.000143132
0.000136619
0.000134232
0.000133351
0.000139857
0.000144929
0.000140129
0.000126258
0.000114536
0.299622
0.976147
0.985183
0.985067
0.985212
0.985349
0.985337
0.98534
0.985018
0.984834
0.984669
0.984581
0.984482
0.984324
0.984266
0.984299
0.984177
0.983989
0.983763
0.983483
0.983139
0.982655
0.982111
0.981595
0.981261
0.981118
0.981451
0.982145
0.983171
0.984521
0.985657
0.986737
0.988143
0.989697
0.991845
0.994632
0.996947
2.60046e-06
3.17349e-06
3.67066e-06
4.18974e-06
5.22623e-06
6.37223e-06
7.65345e-06
8.31965e-06
9.00226e-06
9.47102e-06
9.6755e-06
9.84323e-06
9.93625e-06
9.97956e-06
9.98893e-06
9.99495e-06
9.99484e-06
9.99502e-06
9.99442e-06
9.99466e-06
9.99466e-06
9.99466e-06
9.99442e-06
9.99422e-06
9.99401e-06
9.99384e-06
9.99361e-06
9.99331e-06
9.99299e-06
9.99262e-06
9.99212e-06
9.99153e-06
9.99078e-06
9.98989e-06
9.98906e-06
9.98829e-06
9.98775e-06
9.98762e-06
9.98762e-06
9.98762e-06
9.98762e-06
9.98957e-06
1.00152e-05
1.01051e-05
1.04504e-05
1.1552e-05
1.32078e-05
2.02704e-05
3.52734e-05
8.85763e-05
0.000156257
0.000143856
0.00014064
0.000144144
0.000143457
0.000125474
0.000117562
0.000117532
0.000114536
0.205007
0.977956
0.993294
0.994195
0.995731
0.996531
0.996804
0.996813
0.9967
0.996591
0.996444
0.9963
0.996151
0.996036
0.995983
0.995964
0.995959
0.996013
0.996038
0.995909
0.995513
0.995051
0.994469
0.994067
0.993944
0.994671
0.995575
0.996749
0.997797
0.998597
0.998957
0.999122
0.999314
0.99951
0.999696
0.999859
0.999938
2.3791e-06
2.79248e-06
3.19223e-06
3.73395e-06
4.91648e-06
6.17301e-06
7.56471e-06
8.503e-06
9.04214e-06
9.49211e-06
9.69455e-06
9.82361e-06
9.89866e-06
9.94632e-06
9.9703e-06
9.98579e-06
9.98839e-06
9.99002e-06
9.99039e-06
9.99131e-06
9.99195e-06
9.99242e-06
9.99266e-06
9.99286e-06
9.99302e-06
9.99311e-06
9.99312e-06
9.99299e-06
9.99279e-06
9.99248e-06
9.99207e-06
9.99163e-06
9.99095e-06
9.99024e-06
9.98956e-06
9.98895e-06
9.98853e-06
9.98833e-06
9.98826e-06
9.9885e-06
9.98862e-06
9.99041e-06
1.00076e-05
1.01086e-05
1.06058e-05
1.20534e-05
1.45231e-05
1.90881e-05
2.65607e-05
4.67872e-05
0.000119763
0.000154274
0.000156859
0.00015247
0.000144862
0.000127742
0.000120314
0.000123971
0.000114536
0.123513
0.987736
0.999263
0.999546
0.999809
0.999831
0.999822
0.999814
0.999812
0.999813
0.999807
0.999803
0.999809
0.999813
0.999813
0.999811
0.99982
0.99983
0.999837
0.99984
0.999792
0.999756
0.999726
0.999716
0.999764
0.999833
0.999907
0.999961
0.999988
0.999996
0.999997
0.999997
0.999998
0.999999
0.999999
0.999999
0.999999
2.23654e-06
2.46988e-06
2.66648e-06
3.09339e-06
4.31646e-06
5.83279e-06
7.58433e-06
8.70031e-06
9.13877e-06
9.51093e-06
9.67593e-06
9.79416e-06
9.86949e-06
9.9406e-06
9.97534e-06
9.99062e-06
9.99013e-06
9.99078e-06
9.9908e-06
9.99171e-06
9.99241e-06
9.99292e-06
9.99319e-06
9.99346e-06
9.99365e-06
9.99381e-06
9.99389e-06
9.99387e-06
9.99369e-06
9.99349e-06
9.99363e-06
9.99377e-06
9.99349e-06
9.99332e-06
9.99313e-06
9.99298e-06
9.99298e-06
9.99293e-06
9.99293e-06
9.99317e-06
9.99369e-06
9.99574e-06
1.00064e-05
1.01247e-05
1.08016e-05
1.25507e-05
1.59895e-05
2.12801e-05
2.85738e-05
3.78475e-05
7.74536e-05
0.00013443
0.000156478
0.000164746
0.000155544
0.000131701
0.000120543
0.000129101
0.000114536
0.0721237
0.993494
0.999985
0.999995
0.999999
0.999999
0.999999
0.999999
0.999999
0.999999
0.999999
0.999999
0.999998
0.999999
0.999999
0.999999
0.999999
0.999999
0.999999
0.999999
0.999999
0.999999
0.999999
0.999998
0.999999
0.999999
0.999999
1
1
1
0.999999
0.999999
0.999999
0.999999
0.999999
1
1
2.13126e-06
2.28567e-06
2.28582e-06
2.48666e-06
3.41e-06
4.85859e-06
6.9526e-06
8.53572e-06
9.22783e-06
9.55346e-06
9.70626e-06
9.82615e-06
9.90319e-06
9.96934e-06
1.00025e-05
1.00074e-05
1.0003e-05
9.99795e-06
9.99586e-06
9.99585e-06
9.99614e-06
9.99646e-06
9.99666e-06
9.99681e-06
9.99688e-06
9.9969e-06
9.99681e-06
9.99662e-06
9.99628e-06
9.99593e-06
9.99588e-06
9.99583e-06
9.99533e-06
9.99501e-06
9.99473e-06
9.99438e-06
9.994e-06
9.99369e-06
9.99344e-06
9.99363e-06
9.99502e-06
9.99907e-06
1.00094e-05
1.01366e-05
1.09199e-05
1.30185e-05
1.73478e-05
2.36481e-05
3.05436e-05
3.93702e-05
5.43644e-05
9.86397e-05
0.000140472
0.000162371
0.00016174
0.000148969
0.000122731
0.000128113
0.000152867
0.0396042
0.989219
0.999995
0.999999
0.999999
0.999999
0.999999
0.999999
0.999999
0.999999
0.999999
0.999999
0.999999
0.999999
0.999999
0.999999
0.999999
0.999999
0.999999
0.999999
0.999999
0.999999
0.999999
0.999999
0.999999
0.999999
0.999999
0.999999
0.999999
0.999999
0.999999
0.999999
0.999999
0.999999
1
1
1
2.07796e-06
2.25295e-06
2.18971e-06
2.18796e-06
2.68879e-06
3.79396e-06
5.84627e-06
8.09599e-06
9.30935e-06
9.5895e-06
9.72175e-06
9.81852e-06
9.88953e-06
9.95928e-06
1.00025e-05
1.00074e-05
1.00074e-05
1.0006e-05
1.00032e-05
1.0002e-05
1.00015e-05
1.00013e-05
1.00011e-05
1.00009e-05
1.00007e-05
1.00004e-05
1e-05
9.99958e-06
9.99905e-06
9.99852e-06
9.99809e-06
9.99776e-06
9.99701e-06
9.99648e-06
9.99613e-06
9.99567e-06
9.99523e-06
9.99502e-06
9.99508e-06
9.99612e-06
9.99903e-06
1.00038e-05
1.00136e-05
1.01485e-05
1.09634e-05
1.32123e-05
1.79836e-05
2.50452e-05
3.28896e-05
4.22849e-05
5.44457e-05
7.39184e-05
0.000110989
0.000143035
0.000155545
0.000154088
0.000142384
0.000140114
0.000192611
0.0377691
0.961374
0.999999
0.999999
0.999999
0.999999
0.999999
0.999999
0.999999
0.999999
0.999999
0.999999
0.999999
0.999999
0.999999
0.999999
0.999999
0.999999
0.999999
0.999999
0.999999
0.999999
0.999999
0.999999
0.999999
0.999999
0.999999
0.999999
0.999999
0.999999
0.999999
0.999999
0.999999
0.999999
1
1
1
2.16967e-06
2.54793e-06
2.52268e-06
2.5108e-06
2.37866e-06
3.22452e-06
4.74308e-06
7.35773e-06
9.22229e-06
9.58916e-06
9.70887e-06
9.77924e-06
9.8475e-06
9.92865e-06
9.99203e-06
1.00057e-05
1.00061e-05
1.00053e-05
1.00027e-05
1.00012e-05
1.00004e-05
1.00001e-05
9.99974e-06
9.99941e-06
9.99912e-06
9.99881e-06
9.99845e-06
9.99801e-06
9.99753e-06
9.99705e-06
9.99665e-06
9.99635e-06
9.99596e-06
9.99555e-06
9.99521e-06
9.99484e-06
9.9945e-06
9.9944e-06
9.99458e-06
9.99575e-06
9.99836e-06
1.00027e-05
1.00143e-05
1.01711e-05
1.10808e-05
1.36176e-05
1.86761e-05
2.62915e-05
3.61586e-05
4.79232e-05
6.02381e-05
7.40988e-05
8.9289e-05
0.00011188
0.000125353
0.000143963
0.000133928
0.000135098
0.000303541
0.0403948
0.969893
0.999985
0.999999
0.999999
0.999999
0.999999
0.999999
0.999999
0.999999
0.999999
0.999999
0.999999
0.999999
0.999999
0.999999
0.999999
0.999999
0.999999
0.999999
0.999999
0.999999
0.999999
0.999999
0.999999
0.999999
0.999999
0.999999
0.999999
0.999999
0.999999
0.999999
0.999999
0.999999
1
1
1
1.84495e-06
1.97904e-06
2.44346e-06
3.07685e-06
3.07884e-06
3.175e-06
4.576e-06
6.95829e-06
9.18617e-06
9.60295e-06
9.71648e-06
9.79123e-06
9.85253e-06
9.9283e-06
1.00016e-05
1.00115e-05
1.00115e-05
1.00115e-05
1.00111e-05
1.00097e-05
1.00085e-05
1.00078e-05
1.00072e-05
1.00068e-05
1.00064e-05
1.0006e-05
1.00056e-05
1.00052e-05
1.00047e-05
1.00043e-05
1.00039e-05
1.00036e-05
1.00033e-05
1.0003e-05
1.00027e-05
1.00024e-05
1.00021e-05
1.00021e-05
1.00024e-05
1.00036e-05
1.00057e-05
1.00106e-05
1.00283e-05
1.02071e-05
1.12368e-05
1.46198e-05
2.12765e-05
3.0093e-05
4.09638e-05
5.44434e-05
6.82257e-05
7.9168e-05
8.77489e-05
9.87179e-05
0.00010167
0.00011898
0.00011509
0.000119775
0.000774562
0.0495015
0.963915
0.999814
0.999999
0.999999
0.999999
0.999999
0.999999
0.999999
0.999999
0.999999
0.999999
0.999999
0.999999
0.999999
0.999999
0.999999
0.999999
0.999999
0.999999
0.999999
0.999999
0.999999
0.999999
0.999999
0.999999
0.999999
0.999999
0.999999
0.999999
0.999999
0.999999
0.999999
0.999999
1
1
1
3.91867e-06
5.14468e-06
6.00148e-06
6.55959e-06
6.99594e-06
7.65397e-06
8.58767e-06
9.35403e-06
9.72417e-06
9.83126e-06
9.89307e-06
9.9449e-06
9.98452e-06
1.00067e-05
1.00107e-05
1.00107e-05
1.00107e-05
1.00107e-05
1.00103e-05
1.00093e-05
1.00082e-05
1.00077e-05
1.00072e-05
1.00069e-05
1.00067e-05
1.0007e-05
1.0007e-05
1.0007e-05
1.0007e-05
1.0007e-05
1.0007e-05
1.0007e-05
1.0007e-05
1.00069e-05
1.00066e-05
1.00064e-05
1.00061e-05
1.00055e-05
1.00046e-05
1.00039e-05
1.00028e-05
1.00044e-05
1.0013e-05
1.0073e-05
1.06047e-05
1.2539e-05
1.6569e-05
2.47451e-05
3.83561e-05
5.29856e-05
6.4797e-05
7.40339e-05
8.20054e-05
8.76393e-05
9.17919e-05
0.000101543
9.79107e-05
0.000112712
0.000302533
0.0363935
0.946513
0.999831
0.999999
0.999999
0.999999
0.999999
0.999999
0.999999
0.999999
0.999999
0.999999
0.999999
0.999999
0.999999
0.999999
0.999999
0.999999
0.999999
0.999999
0.999999
0.999999
0.999999
0.999999
1
1
1
1
1
1
1
0.999999
1
1
1
1
1
3.17553e-06
4.58197e-06
6.44622e-06
7.04951e-06
7.66026e-06
8.3486e-06
8.83907e-06
9.15743e-06
9.39186e-06
9.57263e-06
9.72962e-06
9.85554e-06
9.93989e-06
9.98682e-06
1.00034e-05
1.00088e-05
1.00085e-05
1.00089e-05
1.00085e-05
1.00088e-05
1.00087e-05
1.00085e-05
1.00081e-05
1.00078e-05
1.00074e-05
1.0007e-05
1.00065e-05
1.00059e-05
1.00056e-05
1.00052e-05
1.00047e-05
1.00043e-05
1.00037e-05
1.00031e-05
1.00023e-05
1.00014e-05
1.00005e-05
9.99959e-06
9.99893e-06
9.99887e-06
1.00007e-05
1.00087e-05
1.00312e-05
1.01488e-05
1.06159e-05
1.2249e-05
1.65596e-05
2.53732e-05
3.95593e-05
5.93646e-05
7.88463e-05
9.12178e-05
0.000102317
0.000107016
0.000110988
0.000115739
0.000112524
0.000123594
0.000169093
0.0609501
0.979377
0.999985
0.999999
0.999999
0.999999
0.999999
0.999999
0.999999
0.999999
0.999999
0.999999
0.999999
0.999999
0.999999
0.999999
0.999999
0.999999
0.999999
0.999999
0.999999
0.999999
0.999999
0.999999
0.999999
0.999999
0.999999
0.999999
0.999999
1
1
0.999999
0.999999
0.999999
0.999999
1
1
2.92352e-06
3.78323e-06
5.95979e-06
6.81678e-06
7.4979e-06
8.04725e-06
8.52898e-06
8.87832e-06
9.18342e-06
9.43593e-06
9.64698e-06
9.81702e-06
9.91979e-06
9.97769e-06
9.9983e-06
1.00054e-05
1.00054e-05
1.00058e-05
1.00054e-05
1.00054e-05
1.0005e-05
1.00047e-05
1.00043e-05
1.00039e-05
1.00034e-05
1.0003e-05
1.00026e-05
1.00023e-05
1.00019e-05
1.00015e-05
1.0001e-05
1.00006e-05
1.00001e-05
9.99951e-06
9.99871e-06
9.99791e-06
9.99716e-06
9.99638e-06
9.99595e-06
9.99608e-06
9.99987e-06
1.00106e-05
1.00348e-05
1.01715e-05
1.0767e-05
1.23376e-05
1.5556e-05
2.21295e-05
3.93287e-05
7.31331e-05
0.00010331
0.000119032
0.000126742
0.000125846
0.000123766
0.000122472
0.000119579
0.000128204
0.000224194
0.0599333
0.96976
0.999999
0.999999
0.999999
0.999999
0.999999
0.999999
0.999999
0.999999
0.999999
0.999999
0.999999
0.999999
0.999999
0.999999
0.999999
0.999999
0.999999
0.999999
0.999999
0.999999
0.999999
0.999999
0.999999
0.999999
0.999999
0.999999
0.999999
0.999999
0.999999
0.999999
0.999999
0.999999
0.999999
0.999999
1
2.83806e-06
3.16653e-06
5.31009e-06
6.29151e-06
7.05201e-06
7.67605e-06
8.26877e-06
8.72337e-06
9.09864e-06
9.39398e-06
9.62107e-06
9.80657e-06
9.91348e-06
9.97315e-06
9.99472e-06
1.00029e-05
1.00027e-05
1.00029e-05
1.00024e-05
1.00023e-05
1.00017e-05
1.00013e-05
1.00008e-05
1.00004e-05
9.99996e-06
9.99957e-06
9.9992e-06
9.99888e-06
9.99855e-06
9.99821e-06
9.99779e-06
9.99742e-06
9.99696e-06
9.9964e-06
9.99572e-06
9.99512e-06
9.99454e-06
9.99385e-06
9.99335e-06
9.99362e-06
9.99731e-06
1.00085e-05
1.00301e-05
1.01364e-05
1.0586e-05
1.18378e-05
1.40025e-05
2.06096e-05
5.93271e-05
0.000109972
0.000128111
0.000130669
0.000129354
0.000126678
0.00012453
0.000124972
0.000124699
0.000131499
0.000192498
0.0631219
0.97297
0.999999
0.999999
0.999999
0.999999
0.999999
0.999999
0.999999
0.999999
0.999999
0.999999
0.999999
0.999999
0.999999
0.999999
0.999999
0.999999
0.999999
0.999999
0.999999
0.999999
0.999999
0.999999
0.999999
0.999999
0.999999
0.999999
0.999999
0.999999
0.999999
0.999999
0.999999
0.999999
0.999999
0.999999
1
2.76007e-06
2.79295e-06
4.64995e-06
5.79833e-06
6.68763e-06
7.34511e-06
8.03043e-06
8.58807e-06
9.04252e-06
9.37553e-06
9.61215e-06
9.80457e-06
9.91214e-06
9.97128e-06
9.99291e-06
1.00016e-05
1.00015e-05
1.00016e-05
1.0001e-05
1.00008e-05
1.00002e-05
9.99973e-06
9.99922e-06
9.99875e-06
9.99829e-06
9.99791e-06
9.99757e-06
9.99728e-06
9.99699e-06
9.99668e-06
9.99632e-06
9.99597e-06
9.99555e-06
9.99505e-06
9.99448e-06
9.99398e-06
9.99346e-06
9.99285e-06
9.99239e-06
9.99297e-06
9.99705e-06
1.00086e-05
1.00307e-05
1.01237e-05
1.04728e-05
1.12142e-05
1.37443e-05
3.15506e-05
9.74249e-05
0.000131038
0.000129566
0.000129165
0.000126372
0.000126342
0.00012455
0.000125612
0.000124672
0.000134295
0.000156587
0.100519
0.994375
0.999928
0.999933
0.99996
0.999969
0.999979
0.999984
0.999988
0.99999
0.999991
0.99999
0.99999
0.999989
0.999988
0.999988
0.99999
0.999993
0.999996
0.999996
0.999996
0.999996
0.999997
0.999997
0.999997
0.999996
0.999995
0.999994
0.999993
0.999993
0.999995
0.999997
0.999998
0.999999
0.999999
1
1
2.62353e-06
2.5115e-06
3.96069e-06
5.23035e-06
6.35618e-06
7.08194e-06
7.84401e-06
8.48202e-06
9.00486e-06
9.36745e-06
9.60968e-06
9.80901e-06
9.91413e-06
9.97046e-06
9.9917e-06
1.00006e-05
1.00005e-05
1.00004e-05
9.99983e-06
9.99956e-06
9.9989e-06
9.99836e-06
9.99781e-06
9.99735e-06
9.99691e-06
9.99655e-06
9.99626e-06
9.99602e-06
9.99581e-06
9.99559e-06
9.99531e-06
9.99504e-06
9.99469e-06
9.99428e-06
9.99382e-06
9.9934e-06
9.99294e-06
9.99242e-06
9.99202e-06
9.99278e-06
9.99763e-06
1.00097e-05
1.00329e-05
1.01259e-05
1.04385e-05
1.09556e-05
1.37913e-05
4.49405e-05
0.000123371
0.000118903
0.000124099
0.000129596
0.000128784
0.00012912
0.00012827
0.000131307
0.000136069
0.000153536
0.00019025
0.165231
0.989736
0.997596
0.997704
0.997997
0.998064
0.998117
0.998423
0.998661
0.998904
0.999006
0.99901
0.998904
0.998842
0.998817
0.998852
0.998916
0.999004
0.99914
0.999273
0.999362
0.999414
0.999444
0.999442
0.999369
0.999282
0.999173
0.999012
0.998871
0.998792
0.998764
0.99892
0.999241
0.999656
0.999907
0.999992
1
2.48566e-06
2.27804e-06
3.35984e-06
4.59417e-06
6.01499e-06
6.88144e-06
7.73305e-06
8.42491e-06
8.98981e-06
9.36592e-06
9.61373e-06
9.81394e-06
9.91695e-06
9.97023e-06
9.99115e-06
1.00002e-05
1e-05
9.99987e-06
9.99934e-06
9.99908e-06
9.99844e-06
9.99788e-06
9.99735e-06
9.9969e-06
9.9965e-06
9.99617e-06
9.99591e-06
9.9957e-06
9.99554e-06
9.99535e-06
9.99511e-06
9.99488e-06
9.99456e-06
9.99419e-06
9.99376e-06
9.99337e-06
9.99293e-06
9.99244e-06
9.99207e-06
9.99301e-06
9.99758e-06
1.00096e-05
1.00338e-05
1.01225e-05
1.04247e-05
1.09877e-05
1.33614e-05
4.87469e-05
0.000126544
0.000105729
0.000124767
0.000131893
0.000129214
0.000131254
0.000139989
0.00014898
0.00016115
0.000180694
0.00023078
0.315795
0.97828
0.985946
0.986061
0.986165
0.984905
0.984225
0.984098
0.98449
0.984851
0.985152
0.985569
0.985816
0.985943
0.985895
0.985777
0.985693
0.98579
0.985983
0.986344
0.986906
0.987577
0.988258
0.98855
0.987605
0.986383
0.984952
0.983454
0.981618
0.979789
0.978548
0.978328
0.979693
0.98293
0.988187
0.995458
0.999742
2.35263e-06
2.09754e-06
2.88643e-06
3.87781e-06
5.45708e-06
6.63441e-06
7.64355e-06
8.39037e-06
8.98479e-06
9.37398e-06
9.62143e-06
9.82086e-06
9.92067e-06
9.97106e-06
9.99074e-06
9.9996e-06
9.99956e-06
9.99956e-06
9.99925e-06
9.99912e-06
9.99883e-06
9.99846e-06
9.99804e-06
9.99771e-06
9.9974e-06
9.99715e-06
9.9969e-06
9.99667e-06
9.99644e-06
9.99617e-06
9.99589e-06
9.99559e-06
9.99519e-06
9.99475e-06
9.99427e-06
9.99381e-06
9.99337e-06
9.99283e-06
9.99247e-06
9.99356e-06
9.99825e-06
1.00085e-05
1.00285e-05
1.01164e-05
1.04646e-05
1.16983e-05
1.33194e-05
3.85382e-05
9.74127e-05
8.29666e-05
0.000122889
0.000131756
0.000129505
0.000132073
0.000140874
0.000147502
0.000150096
0.000161001
0.000165971
0.485489
0.972501
0.976733
0.975988
0.974936
0.974301
0.973808
0.973269
0.972843
0.972416
0.972036
0.971742
0.971522
0.971349
0.971172
0.970822
0.970204
0.969298
0.968457
0.967495
0.966443
0.965437
0.964525
0.963573
0.962681
0.961643
0.960281
0.958273
0.95575
0.951966
0.947902
0.941759
0.933232
0.919228
0.896174
0.843054
0.650328
2.19522e-06
1.95784e-06
2.46946e-06
3.16119e-06
4.71033e-06
6.23574e-06
7.51865e-06
8.36926e-06
8.99136e-06
9.3871e-06
9.63428e-06
9.83163e-06
9.92721e-06
9.97336e-06
9.99296e-06
1.00016e-05
1.00014e-05
1.00012e-05
1.00008e-05
1.00005e-05
1.00001e-05
9.99969e-06
9.99929e-06
9.99898e-06
9.99868e-06
9.99842e-06
9.99818e-06
9.99797e-06
9.99779e-06
9.99757e-06
9.99737e-06
9.99711e-06
9.99678e-06
9.99639e-06
9.99593e-06
9.99549e-06
9.99505e-06
9.99458e-06
9.99431e-06
9.99563e-06
1.00012e-05
1.00124e-05
1.00324e-05
1.01329e-05
1.0643e-05
1.24652e-05
1.59204e-05
2.37993e-05
4.84228e-05
6.23757e-05
0.000128073
0.000139607
0.000139525
0.00014357
0.000143737
0.000140826
0.000128832
0.000122585
0.000114536
0.328323
0.980855
0.988345
0.989101
0.990264
0.990778
0.990908
0.990968
0.990847
0.990719
0.990602
0.990518
0.990532
0.99082
0.991008
0.99107
0.990645
0.989975
0.989056
0.987948
0.986703
0.985607
0.984773
0.984118
0.983811
0.983726
0.985495
0.987211
0.989099
0.990022
0.98876
0.986857
0.984039
0.980635
0.977565
0.976288
0.980456
2.05248e-06
1.82894e-06
2.09035e-06
2.58628e-06
3.76976e-06
5.58151e-06
7.3011e-06
8.35301e-06
9.00099e-06
9.40204e-06
9.65195e-06
9.84809e-06
9.93494e-06
9.97507e-06
9.99437e-06
1.00031e-05
1.0003e-05
1.00029e-05
1.00026e-05
1.00024e-05
1.0002e-05
1.00017e-05
1.00013e-05
1.00009e-05
1.00006e-05
1.00003e-05
1.00001e-05
9.99978e-06
9.99952e-06
9.99923e-06
9.999e-06
9.9987e-06
9.99831e-06
9.9978e-06
9.9972e-06
9.99665e-06
9.99609e-06
9.99564e-06
9.99544e-06
9.99702e-06
1.00025e-05
1.0014e-05
1.00369e-05
1.01664e-05
1.08501e-05
1.30795e-05
1.77863e-05
2.53762e-05
3.85104e-05
6.60936e-05
0.000149542
0.000144727
0.000141246
0.000142692
0.000136744
0.000125418
0.000122702
0.000125324
0.000114536
0.173201
0.987583
0.99749
0.998113
0.998756
0.998871
0.998964
0.999074
0.999164
0.99924
0.999284
0.999293
0.999243
0.999209
0.999146
0.999052
0.998927
0.998733
0.998466
0.998107
0.997653
0.997207
0.996962
0.996952
0.997621
0.998047
0.998492
0.998978
0.999343
0.999497
0.999516
0.999492
0.999447
0.999401
0.999494
0.999755
0.999945
1.91508e-06
1.70603e-06
1.79576e-06
2.09667e-06
2.88516e-06
4.73657e-06
6.94113e-06
8.25783e-06
8.99879e-06
9.41055e-06
9.67141e-06
9.86505e-06
9.94069e-06
9.97504e-06
9.99441e-06
1.00032e-05
1.00032e-05
1.00032e-05
1.00031e-05
1.00029e-05
1.00026e-05
1.00023e-05
1.00019e-05
1.00016e-05
1.00013e-05
1.0001e-05
1.00008e-05
1.00005e-05
1.00003e-05
1e-05
9.99981e-06
9.99956e-06
9.99921e-06
9.99875e-06
9.99821e-06
9.99774e-06
9.99734e-06
9.99701e-06
9.99682e-06
9.99841e-06
1.00041e-05
1.00159e-05
1.00425e-05
1.02031e-05
1.10179e-05
1.35252e-05
1.86898e-05
2.84619e-05
4.3917e-05
6.74584e-05
0.000122443
0.000147964
0.000147894
0.000147651
0.00013898
0.00013652
0.000124128
0.000128899
0.000114536
0.115472
0.993768
0.999783
0.999841
0.99989
0.999892
0.999893
0.999893
0.999894
0.999902
0.999909
0.999919
0.999927
0.999932
0.999935
0.999938
0.999941
0.999942
0.999933
0.99992
0.9999
0.999881
0.999873
0.999897
0.999934
0.999965
0.999983
0.999993
0.999998
0.999998
0.999998
0.999999
0.999999
0.999999
0.999999
1
1
1.82384e-06
1.59871e-06
1.59105e-06
1.71141e-06
2.29201e-06
3.9467e-06
6.39374e-06
8.12342e-06
9.01212e-06
9.44047e-06
9.7023e-06
9.88339e-06
9.9446e-06
9.9757e-06
9.99503e-06
1.0003e-05
1.0003e-05
1.00032e-05
1.0003e-05
1.00028e-05
1.00025e-05
1.00022e-05
1.00018e-05
1.00016e-05
1.00013e-05
1.0001e-05
1.00008e-05
1.00005e-05
1.00003e-05
1e-05
9.99981e-06
9.99951e-06
9.9991e-06
9.99862e-06
9.99805e-06
9.99761e-06
9.99732e-06
9.99702e-06
9.99685e-06
9.99853e-06
1.00044e-05
1.00169e-05
1.00477e-05
1.02331e-05
1.11679e-05
1.40609e-05
1.97643e-05
2.9641e-05
4.44099e-05
6.161e-05
8.36585e-05
0.000118605
0.000139185
0.000150997
0.000148691
0.000143781
0.00012509
0.000131027
0.000138825
0.0656092
0.993139
0.999997
0.999994
0.999998
0.999998
0.999999
0.999999
0.999999
0.999999
0.999999
0.999999
0.999999
0.999999
0.999999
0.999999
0.999999
0.999999
0.999999
0.999998
0.999999
0.999999
0.999999
0.999999
0.999999
0.999999
0.999999
0.999999
0.999999
0.999999
0.999999
0.999999
0.999999
0.999999
1
1
1
1.78028e-06
1.55264e-06
1.52574e-06
1.5166e-06
1.74895e-06
2.82877e-06
5.2497e-06
7.82796e-06
9.08413e-06
9.49158e-06
9.73994e-06
9.89197e-06
9.93902e-06
9.96506e-06
9.99291e-06
1.00033e-05
1.00033e-05
1.00033e-05
1.00033e-05
1.0003e-05
1.00027e-05
1.00024e-05
1.00021e-05
1.00018e-05
1.00015e-05
1.00012e-05
1.0001e-05
1.00007e-05
1.00004e-05
1.00001e-05
9.99957e-06
9.99892e-06
9.99821e-06
9.99739e-06
9.99663e-06
9.99593e-06
9.99539e-06
9.99516e-06
9.99517e-06
9.99689e-06
1.00028e-05
1.00171e-05
1.00501e-05
1.02483e-05
1.12656e-05
1.45579e-05
2.11817e-05
3.08686e-05
4.26596e-05
5.61215e-05
7.07459e-05
8.65776e-05
0.000106938
0.000134615
0.000142302
0.000142549
0.000127644
0.000138711
0.000278158
0.0401951
0.988592
0.999999
0.999999
0.999999
0.999999
0.999999
0.999999
0.999999
0.999999
0.999999
0.999999
0.999999
0.999999
0.999999
0.999999
0.999999