/*--------------------------------*- C++ -*----------------------------------*\
| =========                 |                                                 |
| \\      /  F ield         | OpenFOAM: The Open Source CFD Toolbox           |
|  \\    /   O peration     | Version:  2.3.0                                 |
|   \\  /    A nd           | Web:      www.OpenFOAM.org                      |
|    \\/     M anipulation  |                                                 |
\*---------------------------------------------------------------------------*/
FoamFile
{
    version     2.0;
    format      ascii;
    class       volScalarField;
    location    "33";
    object      alpha.water;
}
// * * * * * * * * * * * * * * * * * * * * * * * * * * * * * * * * * * * * * //

dimensions      [0 0 0 0 0 0 0];

internalField   nonuniform List<scalar> 
6144
(
5.31047e-06
6.03338e-06
6.42362e-06
6.83527e-06
7.28979e-06
7.86255e-06
8.56376e-06
9.4907e-06
9.92513e-06
9.98631e-06
9.9903e-06
9.99357e-06
9.99571e-06
9.99687e-06
9.99644e-06
9.99707e-06
9.99628e-06
9.99703e-06
9.99645e-06
9.99695e-06
9.99662e-06
9.99675e-06
9.99659e-06
9.99655e-06
9.99631e-06
9.99577e-06
9.99513e-06
9.99496e-06
9.99472e-06
9.99474e-06
9.99427e-06
9.99473e-06
9.99369e-06
9.99492e-06
9.99298e-06
9.99551e-06
9.99216e-06
9.99604e-06
9.99028e-06
9.99509e-06
9.98803e-06
9.99407e-06
9.9862e-06
9.99487e-06
9.98442e-06
9.99667e-06
9.98758e-06
1.00183e-05
1.03625e-05
1.35926e-05
2.06408e-05
3.20579e-05
5.02327e-05
7.56793e-05
0.000106469
0.00013853
0.000149954
0.000244148
0.00104004
0.0786307
0.976622
0.999943
0.999999
0.999999
0.999999
0.999999
0.999999
0.999999
0.999999
0.999999
0.999999
0.999999
0.999999
0.999999
0.999999
0.999999
0.999999
0.999999
0.999999
0.999999
0.999999
0.999999
0.999999
0.999999
0.999999
0.999999
0.999999
0.999999
0.999999
0.999999
0.999999
1
0.999999
0.999999
0.999999
1
4.89369e-06
5.86043e-06
6.5763e-06
7.07606e-06
7.66026e-06
8.19013e-06
8.84573e-06
9.60169e-06
9.94758e-06
9.98603e-06
9.98817e-06
9.99318e-06
9.99959e-06
1.00025e-05
1.00026e-05
1.0003e-05
1.00024e-05
1.00026e-05
1.0002e-05
1.0002e-05
1.00015e-05
1.00016e-05
1.00013e-05
1.00013e-05
1.00011e-05
1.00009e-05
1.00008e-05
1.00009e-05
1.0001e-05
1.00012e-05
1.0001e-05
1.00014e-05
1.00009e-05
1.0002e-05
1.00008e-05
1.0003e-05
1.00004e-05
1.00041e-05
9.99923e-06
1.00042e-05
9.99803e-06
1.00046e-05
9.99693e-06
1.00063e-05
9.99547e-06
1.00102e-05
9.99732e-06
1.00561e-05
1.01548e-05
1.14007e-05
1.81507e-05
3.10514e-05
5.07665e-05
7.29094e-05
8.48506e-05
0.000117701
0.000159246
0.000366667
0.000430796
0.124185
0.982237
0.999998
0.999999
0.999999
0.999999
0.999999
0.999999
0.999999
0.999999
0.999999
0.999999
0.999999
0.999999
0.999999
0.999999
0.999999
0.999999
0.999999
0.999999
0.999999
0.999999
0.999999
0.999999
0.999999
0.999999
0.999999
0.999999
0.999999
0.999999
0.999999
0.999999
0.999999
0.999999
0.999999
0.999999
1
4.51981e-06
5.39086e-06
6.26735e-06
6.85673e-06
7.63266e-06
8.22775e-06
8.87421e-06
9.48551e-06
9.83776e-06
9.91013e-06
9.93685e-06
9.97015e-06
9.99182e-06
1.0001e-05
1.00028e-05
1.00033e-05
1.0003e-05
1.00031e-05
1.00028e-05
1.00028e-05
1.00024e-05
1.00024e-05
1.00022e-05
1.0002e-05
1.00018e-05
1.00016e-05
1.00015e-05
1.00015e-05
1.00015e-05
1.00016e-05
1.00015e-05
1.00018e-05
1.00015e-05
1.00024e-05
1.00016e-05
1.0003e-05
1.00011e-05
1.00032e-05
9.9999e-06
1.00037e-05
9.99863e-06
1.00052e-05
9.99794e-06
1.00069e-05
9.99756e-06
1.00126e-05
9.99647e-06
1.00785e-05
1.02276e-05
1.13967e-05
1.83794e-05
3.36167e-05
4.86046e-05
6.61498e-05
7.4197e-05
0.000109552
0.000132139
0.00030687
9.94335e-05
0.177145
0.998376
0.999981
0.999984
0.999991
0.999994
0.999996
0.999997
0.999998
0.999999
0.999999
0.999999
0.999999
0.999999
0.999999
0.999999
0.999999
0.999999
0.999999
0.999999
0.999999
0.999999
0.999999
0.999999
0.999999
0.999999
0.999999
0.999999
0.999999
0.999999
0.999999
0.999999
0.999999
0.999999
0.999999
0.999999
1
4.22379e-06
4.89843e-06
5.87031e-06
6.43548e-06
7.23463e-06
7.83947e-06
8.58907e-06
9.32783e-06
9.77612e-06
9.87365e-06
9.91237e-06
9.95861e-06
9.98626e-06
9.99768e-06
9.99997e-06
1.00006e-05
1.00002e-05
1.00004e-05
1.00002e-05
1.00002e-05
9.99989e-06
9.99975e-06
9.99938e-06
9.99904e-06
9.99862e-06
9.99825e-06
9.998e-06
9.99789e-06
9.99777e-06
9.99777e-06
9.99768e-06
9.99789e-06
9.99782e-06
9.99858e-06
9.9982e-06
9.9994e-06
9.99824e-06
9.99993e-06
9.99738e-06
1.00008e-05
9.99664e-06
1.00024e-05
9.99614e-06
1.00047e-05
9.99521e-06
1.00106e-05
9.99429e-06
1.00751e-05
1.0277e-05
1.21429e-05
2.05056e-05
3.76979e-05
4.73252e-05
5.74393e-05
7.27673e-05
0.000116855
0.000151913
0.000245912
4.30249e-05
0.239396
0.997782
0.999134
0.999161
0.99946
0.999577
0.999632
0.999688
0.999813
0.999899
0.99995
0.999982
0.999995
0.999999
0.999999
0.999999
0.999999
0.999999
0.999999
0.999999
0.999999
0.999999
0.999999
0.999999
0.999999
0.999999
0.999999
0.999999
0.999999
0.999999
0.999999
0.999999
1
1
0.999999
0.999999
1
3.97728e-06
4.42232e-06
5.43652e-06
5.98419e-06
6.85284e-06
7.49076e-06
8.31275e-06
9.02618e-06
9.68842e-06
9.85443e-06
9.90524e-06
9.96152e-06
9.98938e-06
1.00001e-05
1.00023e-05
1.00031e-05
1.00029e-05
1.00034e-05
1.00034e-05
1.00036e-05
1.00034e-05
1.00034e-05
1.00032e-05
1.0003e-05
1.00026e-05
1.00022e-05
1.00018e-05
1.00016e-05
1.00013e-05
1.00011e-05
1.00007e-05
1.00006e-05
1.00001e-05
1.00006e-05
9.99983e-06
1.00009e-05
9.99938e-06
1.00009e-05
9.9981e-06
1.00013e-05
9.99722e-06
1.00026e-05
9.99657e-06
1.00053e-05
9.99601e-06
1.00104e-05
9.99425e-06
1.00736e-05
1.05343e-05
1.33116e-05
2.34355e-05
4.01365e-05
4.74433e-05
5.60083e-05
8.0153e-05
0.00013172
0.00013782
0.000165278
9.9935e-06
0.306512
0.989609
0.993844
0.994325
0.9955
0.995899
0.995956
0.996465
0.997046
0.997273
0.998039
0.999101
0.999618
0.999848
0.999957
0.999992
0.999999
0.999999
0.999999
0.999999
0.999999
0.999999
0.999999
0.999999
0.999999
0.999999
0.999999
0.999999
0.999999
0.999999
0.999999
1
1
1
0.999999
0.999999
1
3.80349e-06
4.061e-06
5.01579e-06
5.51685e-06
6.42359e-06
7.07843e-06
7.9463e-06
8.659e-06
9.51974e-06
9.83116e-06
9.88723e-06
9.95462e-06
9.98385e-06
9.9943e-06
9.99628e-06
9.99716e-06
9.99674e-06
9.9971e-06
9.99734e-06
9.99776e-06
9.99795e-06
9.99818e-06
9.99822e-06
9.99821e-06
9.99803e-06
9.99778e-06
9.99759e-06
9.99748e-06
9.99734e-06
9.99731e-06
9.99703e-06
9.99713e-06
9.99666e-06
9.99728e-06
9.99655e-06
9.99763e-06
9.99637e-06
9.99767e-06
9.99533e-06
9.99809e-06
9.99459e-06
9.9996e-06
9.99444e-06
1.0002e-05
9.99561e-06
1.00075e-05
9.99513e-06
1.01639e-05
1.09896e-05
1.45269e-05
2.54527e-05
3.81362e-05
4.7916e-05
6.29981e-05
7.93123e-05
0.000120332
0.000125367
0.000125693
9.99351e-06
0.323361
0.97889
0.985857
0.986794
0.989128
0.98951
0.989314
0.989434
0.987313
0.985728
0.987843
0.992763
0.995298
0.996961
0.998261
0.99922
0.999716
0.999905
0.999979
0.999997
0.999999
1
1
1
1
1
1
1
1
1
1
1
1
1
1
1
1
3.67981e-06
3.85e-06
4.62591e-06
5.04256e-06
5.98331e-06
6.64473e-06
7.58843e-06
8.3489e-06
9.18784e-06
9.74881e-06
9.84649e-06
9.947e-06
9.9872e-06
9.99951e-06
1.00019e-05
1.0003e-05
1.00021e-05
1.0002e-05
1.00015e-05
1.00011e-05
1.00005e-05
1.00002e-05
1e-05
9.99981e-06
9.99947e-06
9.99911e-06
9.99881e-06
9.99861e-06
9.9984e-06
9.99832e-06
9.99807e-06
9.99819e-06
9.99776e-06
9.99836e-06
9.99766e-06
9.9986e-06
9.99744e-06
9.99838e-06
9.9963e-06
9.99861e-06
9.99552e-06
1.00001e-05
9.9955e-06
1.00026e-05
9.99702e-06
1.0009e-05
1.00017e-05
1.02487e-05
1.12953e-05
1.50343e-05
2.56136e-05
3.41319e-05
4.40799e-05
6.74165e-05
8.90101e-05
0.000120952
0.000152647
0.000162014
9.99351e-06
0.328309
0.97579
0.983894
0.983392
0.984463
0.984796
0.984999
0.983671
0.977185
0.976025
0.97862
0.982294
0.985149
0.987379
0.989779
0.992112
0.994045
0.995461
0.997252
0.998539
0.999233
0.999613
0.999717
0.999755
0.999768
0.99987
0.999921
0.999939
0.99996
0.999963
0.999961
0.999958
0.999955
0.999959
0.999976
0.999993
1
3.57727e-06
3.76737e-06
4.27803e-06
4.56877e-06
5.50755e-06
6.17154e-06
7.28246e-06
8.22484e-06
8.90423e-06
9.59597e-06
9.78536e-06
9.92448e-06
9.98149e-06
9.99858e-06
1.00013e-05
1.00026e-05
1.0002e-05
1.00018e-05
1.00015e-05
1.00019e-05
1.00019e-05
1.00021e-05
1.00021e-05
1.00022e-05
1.00021e-05
1.00021e-05
1.00021e-05
1.00021e-05
1.00021e-05
1.00021e-05
1.0002e-05
1.00021e-05
1.00019e-05
1.00024e-05
1.0002e-05
1.00025e-05
1.00018e-05
1.00021e-05
1.00008e-05
1.00024e-05
1.00002e-05
1.00042e-05
1.00003e-05
1.00068e-05
1.00018e-05
1.0013e-05
1.00075e-05
1.02516e-05
1.14184e-05
1.61169e-05
2.48861e-05
3.03475e-05
4.0777e-05
7.00662e-05
0.00011945
0.000159932
0.000159231
0.000173822
9.99351e-06
0.287251
0.973362
0.983698
0.983959
0.985477
0.986984
0.986497
0.981566
0.976
0.974717
0.975629
0.978264
0.979837
0.980466
0.980802
0.981312
0.982562
0.982887
0.982287
0.981578
0.981688
0.982485
0.982647
0.982653
0.982543
0.982373
0.982549
0.984864
0.986937
0.987651
0.987662
0.989744
0.994179
0.997263
0.999185
1
0.999238
3.49431e-06
3.774e-06
4.01104e-06
4.14737e-06
5.0408e-06
5.66575e-06
6.911e-06
8.21056e-06
8.80825e-06
9.46604e-06
9.71554e-06
9.88738e-06
9.96691e-06
9.99276e-06
9.99507e-06
9.99612e-06
9.99597e-06
9.99597e-06
9.99625e-06
9.99701e-06
9.99748e-06
9.99787e-06
9.99808e-06
9.99824e-06
9.9983e-06
9.99838e-06
9.99847e-06
9.99855e-06
9.9986e-06
9.99867e-06
9.99863e-06
9.99876e-06
9.99869e-06
9.99917e-06
9.99895e-06
9.99946e-06
9.99893e-06
9.99912e-06
9.99813e-06
9.99953e-06
9.99788e-06
1.00017e-05
9.99857e-06
1.00051e-05
1.00012e-05
1.00144e-05
1.00141e-05
1.02666e-05
1.14795e-05
1.59129e-05
2.29481e-05
2.73963e-05
3.88448e-05
7.11335e-05
9.4367e-05
0.000139773
0.000153714
0.000257834
5.85975e-05
0.163188
0.970221
0.990927
0.991349
0.993428
0.993596
0.991994
0.990224
0.988497
0.988213
0.988488
0.988207
0.988154
0.987003
0.986396
0.986158
0.986136
0.98727
0.987914
0.985528
0.984789
0.986178
0.983981
0.982765
0.985733
0.988224
0.988589
0.989727
0.991005
0.993373
0.995208
0.996347
0.998321
0.999544
0.99996
0.999945
0.999992
3.52162e-06
3.81615e-06
3.8391e-06
3.85074e-06
4.68252e-06
5.23152e-06
6.48335e-06
8.07106e-06
8.8009e-06
9.39452e-06
9.69951e-06
9.87066e-06
9.95364e-06
9.98957e-06
9.99781e-06
1.00015e-05
1.0001e-05
1.0001e-05
1.00009e-05
1.00011e-05
1.00012e-05
1.00012e-05
1.0001e-05
1.00008e-05
1.00006e-05
1.00005e-05
1.00003e-05
1.00002e-05
1e-05
9.99991e-06
9.99977e-06
9.9998e-06
9.99967e-06
1e-05
9.9998e-06
1.00001e-05
9.99952e-06
9.99951e-06
9.99858e-06
9.9997e-06
9.99846e-06
1.00018e-05
9.9992e-06
1.00053e-05
1.00016e-05
1.00168e-05
1.00244e-05
1.02915e-05
1.13418e-05
1.48444e-05
2.05939e-05
2.44623e-05
3.64815e-05
7.13954e-05
8.57893e-05
0.000129043
0.000146923
0.000340968
0.000162748
0.0947651
0.980095
0.99828
0.998333
0.998459
0.998031
0.997602
0.997093
0.996882
0.996835
0.997143
0.997429
0.997489
0.997237
0.997071
0.996996
0.996708
0.99646
0.996428
0.996589
0.996372
0.995738
0.995766
0.996617
0.997199
0.997421
0.997801
0.998357
0.998683
0.999135
0.999455
0.999632
0.999782
0.999904
0.999968
0.999988
0.999997
3.41529e-06
3.78853e-06
3.70379e-06
3.68878e-06
4.47169e-06
4.95715e-06
6.17627e-06
7.85217e-06
8.91771e-06
9.42659e-06
9.70051e-06
9.84766e-06
9.91827e-06
9.96835e-06
9.98873e-06
9.99663e-06
9.99665e-06
9.99758e-06
9.99797e-06
9.99889e-06
9.99949e-06
9.99997e-06
1.00002e-05
1.00003e-05
1.00003e-05
1.00003e-05
1.00003e-05
1.00003e-05
1.00003e-05
1.00003e-05
1.00003e-05
1.00003e-05
1.00002e-05
1.00005e-05
1.00003e-05
1.00006e-05
9.99996e-06
9.99988e-06
9.99899e-06
1.00002e-05
9.99894e-06
1.00025e-05
9.9998e-06
1.00062e-05
1.00022e-05
1.0019e-05
1.00285e-05
1.02774e-05
1.0984e-05
1.30298e-05
1.70086e-05
2.19104e-05
3.54538e-05
6.98356e-05
8.86524e-05
0.000134115
0.000154829
0.000460007
0.00022463
0.0561355
0.976126
0.999775
0.999798
0.999805
0.999739
0.999721
0.999713
0.999709
0.999678
0.999669
0.999736
0.999813
0.999836
0.999833
0.999811
0.999803
0.999803
0.999816
0.999842
0.999864
0.999878
0.999886
0.999901
0.999923
0.999946
0.999958
0.999967
0.999979
0.999988
0.999992
0.999994
0.999996
0.999997
0.999998
0.999999
0.999999
3.09895e-06
3.36755e-06
3.46716e-06
3.48557e-06
4.33477e-06
4.83606e-06
6.13088e-06
7.74706e-06
8.92998e-06
9.44531e-06
9.70586e-06
9.855e-06
9.92209e-06
9.97945e-06
9.99457e-06
9.99992e-06
9.99807e-06
9.99861e-06
9.99845e-06
9.99933e-06
9.9999e-06
1.00004e-05
1.00006e-05
1.00007e-05
1.00008e-05
1.00009e-05
1.0001e-05
1.00012e-05
1.00013e-05
1.00013e-05
1.00015e-05
1.00019e-05
1.00022e-05
1.00026e-05
1.00026e-05
1.00029e-05
1.00025e-05
1.00026e-05
1.00018e-05
1.00032e-05
1.00017e-05
1.00057e-05
1.0002e-05
1.00096e-05
1.00048e-05
1.00194e-05
1.00218e-05
1.02021e-05
1.06123e-05
1.16454e-05
1.49115e-05
2.41395e-05
4.0484e-05
7.26075e-05
0.000104318
0.000144616
0.00017412
0.000567409
0.000276167
0.0490432
0.977196
0.999989
0.999993
0.999994
0.999994
0.999995
0.999995
0.999995
0.999996
0.999998
0.999999
0.999999
0.999999
0.999999
0.999999
0.999999
0.999998
0.999999
0.999999
0.999999
0.999999
0.999999
0.999999
0.999999
0.999999
0.999999
0.999999
0.999999
0.999999
0.999999
1
1
1
1
1
1
2.5223e-06
2.66793e-06
2.85537e-06
3.14376e-06
4.0941e-06
4.93949e-06
6.82565e-06
8.09226e-06
8.90444e-06
9.48547e-06
9.75554e-06
9.92028e-06
9.97435e-06
1.0006e-05
1.00097e-05
1.00097e-05
1.00061e-05
1.00041e-05
1.00027e-05
1.00029e-05
1.00031e-05
1.00034e-05
1.00035e-05
1.00035e-05
1.00035e-05
1.00036e-05
1.00037e-05
1.00037e-05
1.00036e-05
1.00034e-05
1.00035e-05
1.00038e-05
1.0004e-05
1.00043e-05
1.00041e-05
1.00044e-05
1.00038e-05
1.00039e-05
1.00029e-05
1.00053e-05
1.00028e-05
1.0008e-05
1.00027e-05
1.00122e-05
1.00043e-05
1.00177e-05
1.00077e-05
1.0121e-05
1.03228e-05
1.09243e-05
1.288e-05
2.35406e-05
4.08512e-05
6.82523e-05
9.55175e-05
0.000142183
0.000210582
0.000683553
0.000379575
0.0320887
0.956917
0.999964
1
1
1
1
1
0.999999
0.999999
0.999999
0.999999
0.999999
0.999999
0.999999
0.999999
0.999999
0.999999
0.999999
0.999999
0.999999
0.999999
0.999999
0.999999
0.999999
0.999999
0.999999
0.999999
0.999999
0.999999
0.999999
1
1
1
1
1
1
1.99223e-06
1.97531e-06
2.08776e-06
2.46782e-06
3.45341e-06
4.72042e-06
7.03044e-06
8.38044e-06
9.00356e-06
9.56137e-06
9.81923e-06
9.92821e-06
9.97439e-06
1.00085e-05
1.00097e-05
1.00097e-05
1.00097e-05
1.00097e-05
1.00083e-05
1.00079e-05
1.00076e-05
1.00075e-05
1.00072e-05
1.0007e-05
1.00068e-05
1.00068e-05
1.00068e-05
1.00066e-05
1.00063e-05
1.0006e-05
1.00059e-05
1.00059e-05
1.00059e-05
1.00059e-05
1.00057e-05
1.00057e-05
1.00052e-05
1.00052e-05
1.00049e-05
1.00053e-05
1.00047e-05
1.0008e-05
1.00042e-05
1.00122e-05
1.00036e-05
1.00171e-05
9.99643e-06
1.00767e-05
1.01725e-05
1.05619e-05
1.14914e-05
2.14012e-05
3.99063e-05
6.2168e-05
8.31096e-05
0.000120225
0.000302039
0.000812976
0.000709435
0.0223689
0.958181
0.999903
1
1
1
1
1
0.999999
0.999999
0.999999
0.999999
0.999999
0.999999
0.999999
0.999999
0.999999
0.999999
0.999999
0.999999
0.999999
0.999999
0.999999
0.999999
0.999999
0.999999
0.999999
0.999999
0.999999
0.999999
0.999999
1
1
1
1
1
1
1.6672e-06
1.62562e-06
1.70972e-06
1.94604e-06
2.8102e-06
4.08245e-06
6.53247e-06
8.82707e-06
9.27951e-06
9.65467e-06
9.82946e-06
9.91527e-06
9.96465e-06
1.00024e-05
1.00076e-05
1.00086e-05
1.00084e-05
1.00086e-05
1.00074e-05
1.0007e-05
1.00067e-05
1.00065e-05
1.00061e-05
1.00058e-05
1.00057e-05
1.00057e-05
1.00057e-05
1.00055e-05
1.00053e-05
1.0005e-05
1.00049e-05
1.00049e-05
1.0005e-05
1.00051e-05
1.00051e-05
1.0005e-05
1.00045e-05
1.00047e-05
1.00041e-05
1.0005e-05
1.00039e-05
1.00077e-05
1.00031e-05
1.00116e-05
1.00007e-05
1.00162e-05
9.99482e-06
1.00429e-05
1.00969e-05
1.0375e-05
1.09959e-05
1.98328e-05
4.08023e-05
6.56511e-05
8.51886e-05
0.000101333
0.000445961
0.000889639
0.000914962
0.0267126
0.952976
0.999821
1
1
1
1
1
1
1
0.999999
0.999999
0.999999
0.999999
0.999999
0.999999
0.999999
0.999999
0.999999
0.999999
0.999999
0.999999
0.999999
0.999999
0.999999
0.999999
0.999999
0.999999
0.999999
0.999999
0.999999
1
1
1
1
1
1
1.29726e-06
1.51423e-06
1.51503e-06
1.48046e-06
1.76568e-06
3.1724e-06
5.64231e-06
9.04535e-06
9.60837e-06
9.83258e-06
9.89079e-06
9.93315e-06
9.97118e-06
1.00093e-05
1.00135e-05
1.00135e-05
1.00135e-05
1.00135e-05
1.00133e-05
1.0013e-05
1.00126e-05
1.00124e-05
1.0012e-05
1.00117e-05
1.00115e-05
1.00115e-05
1.00115e-05
1.00114e-05
1.00112e-05
1.00111e-05
1.0011e-05
1.0011e-05
1.0011e-05
1.0011e-05
1.0011e-05
1.0011e-05
1.00109e-05
1.00109e-05
1.00105e-05
1.00116e-05
1.00116e-05
1.00134e-05
1.00126e-05
1.00149e-05
1.00106e-05
1.00162e-05
9.99877e-06
1.00432e-05
1.00874e-05
1.03931e-05
1.13675e-05
2.01639e-05
4.26234e-05
7.45048e-05
9.97866e-05
0.000166795
0.000265761
0.000796207
0.000729359
0.0349046
0.954673
0.999878
1
1
1
1
1
1
1
1
0.999999
0.999999
0.999999
0.999999
0.999999
0.999999
0.999999
0.999999
0.999999
0.999999
0.999999
0.999999
0.999999
0.999999
0.999999
0.999999
0.999999
0.999999
0.999999
1
1
1
1
0.999999
1
1
4.75075e-06
5.85479e-06
6.38308e-06
6.792e-06
7.17894e-06
7.80182e-06
8.87564e-06
9.63821e-06
9.83539e-06
9.87004e-06
9.9309e-06
9.97931e-06
1.00066e-05
1.00135e-05
1.00135e-05
1.00135e-05
1.00135e-05
1.00135e-05
1.0013e-05
1.00128e-05
1.0012e-05
1.00118e-05
1.00115e-05
1.00115e-05
1.00114e-05
1.00113e-05
1.00112e-05
1.00113e-05
1.00114e-05
1.00118e-05
1.0012e-05
1.00124e-05
1.00129e-05
1.00133e-05
1.00133e-05
1.00133e-05
1.00133e-05
1.00133e-05
1.00133e-05
1.00133e-05
1.00133e-05
1.00133e-05
1.00114e-05
1.00167e-05
1.00138e-05
1.00196e-05
1.00144e-05
1.00952e-05
1.0459e-05
1.36452e-05
2.12776e-05
3.20558e-05
4.86879e-05
7.29268e-05
9.94471e-05
0.000132805
0.00016564
0.000373062
0.00235399
0.0871666
0.96181
0.999867
0.999999
0.999999
0.999999
0.999999
0.999999
0.999999
0.999999
0.999999
0.999999
0.999999
0.999999
0.999999
0.999999
0.999999
0.999999
0.999999
0.999999
0.999999
0.999999
0.999999
0.999999
0.999999
0.999999
0.999999
0.999999
0.999999
0.999999
0.999999
0.999999
1
1
0.999999
1
1
3.9666e-06
5.47063e-06
6.66752e-06
7.2706e-06
7.96505e-06
8.77875e-06
9.10553e-06
9.24575e-06
9.45313e-06
9.60293e-06
9.76804e-06
9.89765e-06
9.97372e-06
1.00055e-05
1.00111e-05
1.00128e-05
1.00121e-05
1.00124e-05
1.00122e-05
1.00125e-05
1.00125e-05
1.00125e-05
1.00123e-05
1.00122e-05
1.0012e-05
1.00119e-05
1.00118e-05
1.00117e-05
1.00115e-05
1.00113e-05
1.00112e-05
1.00112e-05
1.00112e-05
1.00115e-05
1.00114e-05
1.00119e-05
1.00115e-05
1.00121e-05
1.00115e-05
1.00131e-05
1.00132e-05
1.00132e-05
1.00128e-05
1.00168e-05
1.00168e-05
1.00196e-05
1.00167e-05
1.01364e-05
1.05127e-05
1.19989e-05
1.98767e-05
3.09526e-05
4.86061e-05
7.19869e-05
8.60195e-05
0.000112917
0.000192358
0.000457664
0.00129101
0.11947
0.970641
0.999999
0.999999
0.999999
0.999998
0.999999
0.999999
0.999999
0.999999
0.999999
0.999999
0.999999
0.999999
0.999999
0.999999
0.999999
0.999999
0.999999
0.999999
0.999999
0.999999
0.999999
0.999999
0.999999
0.999999
0.999999
0.999999
0.999999
0.999999
0.999999
0.999999
0.999999
1
0.999999
0.999999
1
3.52896e-06
4.74148e-06
6.1767e-06
7.09737e-06
7.78984e-06
8.16692e-06
8.46595e-06
8.79012e-06
9.18409e-06
9.45385e-06
9.67032e-06
9.84441e-06
9.94933e-06
9.99943e-06
1.00082e-05
1.00104e-05
1.001e-05
1.00103e-05
1.00101e-05
1.00101e-05
1.001e-05
1.00099e-05
1.00097e-05
1.00095e-05
1.00093e-05
1.0009e-05
1.00088e-05
1.00087e-05
1.00086e-05
1.00085e-05
1.00083e-05
1.00083e-05
1.00083e-05
1.00086e-05
1.00085e-05
1.00087e-05
1.00084e-05
1.00085e-05
1.0008e-05
1.0009e-05
1.00076e-05
1.00109e-05
1.00075e-05
1.00135e-05
1.00087e-05
1.00196e-05
1.00124e-05
1.01585e-05
1.07458e-05
1.34565e-05
2.25122e-05
3.43696e-05
4.60275e-05
6.78502e-05
7.32415e-05
0.000116142
0.000198503
0.000360999
0.000235683
0.168098
0.9988
0.999985
0.999986
0.999989
0.99999
0.999989
0.999988
0.999992
0.999995
0.999998
0.999999
0.999999
0.999999
0.999999
0.999999
0.999999
0.999999
0.999999
0.999999
0.999999
0.999999
0.999999
0.999999
0.999999
0.999999
0.999999
0.999999
0.999999
0.999999
0.999999
0.999999
0.999999
1
0.999999
0.999999
1
3.23941e-06
4.01806e-06
5.3497e-06
6.17862e-06
6.96655e-06
7.5466e-06
8.00331e-06
8.48982e-06
9.0453e-06
9.39782e-06
9.63304e-06
9.82065e-06
9.93463e-06
9.99484e-06
1.00058e-05
1.00084e-05
1.00079e-05
1.0008e-05
1.00077e-05
1.00076e-05
1.00074e-05
1.00073e-05
1.00071e-05
1.00068e-05
1.00065e-05
1.00063e-05
1.00062e-05
1.0006e-05
1.00059e-05
1.00058e-05
1.00057e-05
1.00057e-05
1.00057e-05
1.0006e-05
1.00059e-05
1.0006e-05
1.00058e-05
1.00059e-05
1.00054e-05
1.00066e-05
1.00049e-05
1.00084e-05
1.00046e-05
1.00114e-05
1.0006e-05
1.00156e-05
1.00094e-05
1.01608e-05
1.08456e-05
1.45655e-05
2.54324e-05
3.69834e-05
4.51612e-05
5.94785e-05
9.2091e-05
0.000137983
0.000224147
0.000222936
6.15921e-05
0.184063
0.993504
0.999256
0.999245
0.999302
0.999296
0.999238
0.999228
0.99946
0.999654
0.999819
0.999913
0.99997
0.999992
0.999998
0.999999
0.999999
0.999999
0.999999
0.999999
0.999999
0.999999
0.999999
0.999999
0.999999
0.999999
0.999999
0.999999
0.999999
0.999999
0.999999
0.999999
0.999999
0.999999
0.999999
0.999999
1
3.0437e-06
3.45979e-06
4.76703e-06
5.59785e-06
6.38542e-06
7.14448e-06
7.69538e-06
8.2712e-06
8.95817e-06
9.37415e-06
9.62107e-06
9.81131e-06
9.92685e-06
9.99204e-06
1.00045e-05
1.00074e-05
1.00069e-05
1.0007e-05
1.00066e-05
1.00065e-05
1.00062e-05
1.00061e-05
1.00058e-05
1.00055e-05
1.00052e-05
1.0005e-05
1.00049e-05
1.00048e-05
1.00047e-05
1.00046e-05
1.00044e-05
1.00044e-05
1.00045e-05
1.00047e-05
1.00047e-05
1.00048e-05
1.00046e-05
1.00046e-05
1.00041e-05
1.00053e-05
1.00034e-05
1.00074e-05
1.0003e-05
1.00105e-05
1.00041e-05
1.00144e-05
1.00064e-05
1.01177e-05
1.07259e-05
1.49571e-05
2.59743e-05
3.7261e-05
4.581e-05
5.69223e-05
0.000128915
0.000143773
0.000135698
0.000102531
3.03736e-05
0.248941
0.986003
0.992332
0.992264
0.992233
0.991911
0.991734
0.992059
0.993504
0.99492
0.996053
0.997337
0.998684
0.999421
0.999807
0.999953
0.999991
0.999999
0.999999
0.999999
0.999999
0.999999
0.999999
0.999999
0.999999
0.999999
0.999999
0.999999
0.999999
0.999999
0.999999
0.999999
1
0.999999
0.999999
0.999999
1
2.91461e-06
3.03733e-06
4.26127e-06
5.16581e-06
5.9056e-06
6.8314e-06
7.46524e-06
8.11932e-06
8.90195e-06
9.36411e-06
9.61857e-06
9.80871e-06
9.92331e-06
9.99012e-06
1.00034e-05
1.00066e-05
1.00061e-05
1.0006e-05
1.00056e-05
1.00055e-05
1.00052e-05
1.0005e-05
1.00047e-05
1.00044e-05
1.00041e-05
1.00039e-05
1.00038e-05
1.00037e-05
1.00036e-05
1.00036e-05
1.00035e-05
1.00036e-05
1.00036e-05
1.00039e-05
1.00039e-05
1.00039e-05
1.00038e-05
1.00038e-05
1.00033e-05
1.00047e-05
1.00025e-05
1.00069e-05
1.00021e-05
1.00099e-05
1.00027e-05
1.00135e-05
1.00033e-05
1.0093e-05
1.04406e-05
1.29378e-05
2.19328e-05
3.5166e-05
4.79841e-05
6.51021e-05
0.000118283
0.000122886
0.000110929
0.000106476
2.91045e-05
0.293104
0.970705
0.980466
0.978758
0.977773
0.977058
0.976779
0.977323
0.978325
0.979821
0.981536
0.984243
0.98768
0.991423
0.994833
0.997384
0.998903
0.999616
0.999889
0.999975
0.999995
0.999997
0.999997
0.999996
0.999996
0.999995
0.999997
0.999997
0.999999
0.999999
0.999999
0.999999
0.999999
1
1
1
1
2.84696e-06
2.77392e-06
3.78932e-06
4.79395e-06
5.47676e-06
6.52268e-06
7.28165e-06
8.04098e-06
8.87944e-06
9.36139e-06
9.62741e-06
9.812e-06
9.92216e-06
9.98907e-06
1.00029e-05
1.00062e-05
1.00058e-05
1.00056e-05
1.00053e-05
1.00051e-05
1.00048e-05
1.00046e-05
1.00043e-05
1.00041e-05
1.00038e-05
1.00036e-05
1.00035e-05
1.00034e-05
1.00034e-05
1.00033e-05
1.00033e-05
1.00034e-05
1.00035e-05
1.00037e-05
1.00037e-05
1.00038e-05
1.00037e-05
1.00037e-05
1.00032e-05
1.00046e-05
1.00023e-05
1.0007e-05
1.00019e-05
1.001e-05
1.00021e-05
1.00133e-05
1.00012e-05
1.00798e-05
1.02905e-05
1.17543e-05
1.77626e-05
3.11017e-05
4.83313e-05
7.08786e-05
0.000104833
0.000175933
0.00020045
0.000166142
1.5834e-05
0.288241
0.962169
0.974879
0.973306
0.97265
0.972239
0.971296
0.970704
0.96997
0.969018
0.968036
0.96676
0.966463
0.969981
0.973626
0.977504
0.981979
0.986379
0.990556
0.99426
0.996678
0.997638
0.997462
0.997256
0.997183
0.997348
0.997465
0.997797
0.998502
0.998996
0.999195
0.998963
0.998675
0.998335
0.998011
0.997581
0.997138
2.80205e-06
2.59437e-06
3.3374e-06
4.24345e-06
5.11815e-06
6.1541e-06
7.09466e-06
7.99516e-06
8.87565e-06
9.37472e-06
9.63798e-06
9.81994e-06
9.92397e-06
9.98875e-06
1.00025e-05
1.00058e-05
1.00055e-05
1.00054e-05
1.00052e-05
1.00052e-05
1.00051e-05
1.00051e-05
1.00049e-05
1.00047e-05
1.00044e-05
1.00043e-05
1.00042e-05
1.00042e-05
1.00041e-05
1.0004e-05
1.00039e-05
1.0004e-05
1.00041e-05
1.00042e-05
1.00041e-05
1.00041e-05
1.00041e-05
1.00041e-05
1.00034e-05
1.00051e-05
1.00024e-05
1.00075e-05
1.00021e-05
1.00104e-05
1.0002e-05
1.00141e-05
1.00005e-05
1.00719e-05
1.02205e-05
1.12098e-05
1.52903e-05
2.74633e-05
4.50104e-05
7.88015e-05
0.000176268
0.000195594
0.000200633
0.000152797
1.36713e-05
0.255062
0.9658
0.981021
0.980674
0.979828
0.977613
0.975622
0.973786
0.971895
0.96968
0.966626
0.962532
0.959937
0.958369
0.956044
0.953006
0.948584
0.944339
0.941796
0.941039
0.940937
0.941661
0.943476
0.943535
0.938104
0.930091
0.924878
0.920415
0.913098
0.905054
0.895845
0.886382
0.874763
0.857725
0.832913
0.784528
0.589571
2.78869e-06
2.42326e-06
2.94754e-06
3.63795e-06
4.68412e-06
5.66891e-06
6.80376e-06
7.93369e-06
8.89538e-06
9.39245e-06
9.65415e-06
9.83009e-06
9.93167e-06
9.99175e-06
1.0004e-05
1.00072e-05
1.00068e-05
1.00066e-05
1.00064e-05
1.00063e-05
1.00061e-05
1.00061e-05
1.00059e-05
1.00057e-05
1.00055e-05
1.00053e-05
1.00052e-05
1.00052e-05
1.00052e-05
1.00051e-05
1.00051e-05
1.00052e-05
1.00053e-05
1.00054e-05
1.00054e-05
1.00054e-05
1.00055e-05
1.00055e-05
1.00049e-05
1.00065e-05
1.0004e-05
1.0009e-05
1.00038e-05
1.00119e-05
1.0003e-05
1.00158e-05
1.00005e-05
1.00706e-05
1.02045e-05
1.09847e-05
1.37681e-05
2.43378e-05
3.97769e-05
6.22376e-05
8.13734e-05
0.000172254
0.000240584
0.000270462
5.21443e-05
0.144832
0.971466
0.995323
0.996051
0.996926
0.996699
0.995572
0.99553
0.995893
0.995188
0.993322
0.990725
0.98803
0.985743
0.983313
0.979988
0.976126
0.970726
0.96407
0.958365
0.954901
0.952719
0.950999
0.949991
0.9482
0.945528
0.943559
0.942595
0.941814
0.939685
0.93458
0.930754
0.92958
0.933306
0.941831
0.949851
0.958559
2.73753e-06
2.35801e-06
2.60727e-06
3.05522e-06
4.05407e-06
4.96732e-06
6.23561e-06
7.74464e-06
8.9123e-06
9.41959e-06
9.67576e-06
9.84898e-06
9.94269e-06
9.99458e-06
1.00051e-05
1.00082e-05
1.00081e-05
1.00079e-05
1.00078e-05
1.00078e-05
1.00077e-05
1.00076e-05
1.00074e-05
1.00072e-05
1.0007e-05
1.00068e-05
1.00067e-05
1.00066e-05
1.00065e-05
1.00064e-05
1.00063e-05
1.00064e-05
1.00064e-05
1.00064e-05
1.00064e-05
1.00063e-05
1.00064e-05
1.00062e-05
1.00057e-05
1.0007e-05
1.00047e-05
1.00096e-05
1.00047e-05
1.00124e-05
1.00032e-05
1.00162e-05
9.99848e-06
1.0055e-05
1.02061e-05
1.09626e-05
1.32037e-05
2.3405e-05
3.90004e-05
6.48474e-05
7.617e-05
0.000114582
0.000249795
0.000357788
7.30334e-05
0.0872677
0.982361
0.999298
0.999326
0.999422
0.999405
0.999442
0.999512
0.99958
0.999609
0.999624
0.999543
0.999418
0.999294
0.999126
0.999009
0.99866
0.998053
0.997995
0.997724
0.997406
0.997039
0.995598
0.994753
0.994297
0.994042
0.993876
0.993819
0.993995
0.994189
0.994434
0.994916
0.996052
0.997376
0.998526
0.99929
0.999674
2.70031e-06
2.35364e-06
2.33119e-06
2.54139e-06
3.29253e-06
4.03765e-06
5.30217e-06
7.35947e-06
8.90616e-06
9.4455e-06
9.6987e-06
9.86873e-06
9.95311e-06
9.996e-06
1.00052e-05
1.00082e-05
1.00082e-05
1.00082e-05
1.00082e-05
1.00082e-05
1.00082e-05
1.00082e-05
1.0008e-05
1.00078e-05
1.00076e-05
1.00074e-05
1.00073e-05
1.00073e-05
1.00072e-05
1.00071e-05
1.0007e-05
1.00071e-05
1.00071e-05
1.00071e-05
1.00071e-05
1.00071e-05
1.00071e-05
1.00071e-05
1.00066e-05
1.0008e-05
1.00057e-05
1.00106e-05
1.00058e-05
1.00134e-05
1.00048e-05
1.00168e-05
9.99848e-06
1.00481e-05
1.01131e-05
1.06994e-05
1.25362e-05
2.32114e-05
4.12361e-05
6.88641e-05
8.01136e-05
0.000110668
0.000227738
0.000532416
0.000137875
0.0541114
0.977988
0.999929
0.999911
0.999933
0.999931
0.999937
0.999952
0.999966
0.999977
0.999988
0.999998
0.999999
0.999999
0.999999
0.999999
0.999999
0.999999
0.999999
0.999997
0.999997
0.999995
0.999993
0.999989
0.999983
0.999979
0.999978
0.99998
0.999983
0.999987
0.99999
0.999994
0.999997
0.999999
0.999999
0.999999
0.999999
2.38632e-06
2.00011e-06
2.01741e-06
2.11822e-06
2.53735e-06
3.03741e-06
4.41915e-06
6.92385e-06
8.92548e-06
9.50294e-06
9.73616e-06
9.8993e-06
9.96335e-06
9.99716e-06
1.00049e-05
1.00082e-05
1.00081e-05
1.00082e-05
1.00081e-05
1.00081e-05
1.00081e-05
1.00081e-05
1.0008e-05
1.00078e-05
1.00076e-05
1.00075e-05
1.00074e-05
1.00074e-05
1.00073e-05
1.00072e-05
1.00071e-05
1.00071e-05
1.00071e-05
1.00071e-05
1.00071e-05
1.00071e-05
1.00068e-05
1.00071e-05
1.00062e-05
1.0008e-05
1.00054e-05
1.00106e-05
1.00053e-05
1.00134e-05
1.00053e-05
1.00146e-05
9.99689e-06
1.00438e-05
1.00716e-05
1.0549e-05
1.2191e-05
2.18281e-05
4.06979e-05
7.00953e-05
8.25612e-05
0.000120878
0.000219328
0.000640363
0.000671872
0.0385095
0.938562
1
0.999987
0.999997
0.999998
0.999998
0.999999
0.999999
0.999999
0.999999
0.999999
0.999999
0.999999
0.999999
0.999999
0.999999
0.999999
0.999999
0.999999
0.999999
0.999999
0.999999
0.999999
0.999999
0.999999
0.999999
0.999999
0.999999
0.999999
0.999999
1
1
1
1
1
1
1.91425e-06
1.55002e-06
1.60892e-06
1.75861e-06
2.0883e-06
2.62747e-06
4.52645e-06
7.57831e-06
9.15609e-06
9.60987e-06
9.80111e-06
9.92412e-06
9.96583e-06
9.99463e-06
1.0005e-05
1.00083e-05
1.00083e-05
1.00083e-05
1.00083e-05
1.00083e-05
1.00083e-05
1.00083e-05
1.00083e-05
1.00081e-05
1.00079e-05
1.00078e-05
1.00076e-05
1.00076e-05
1.00074e-05
1.00073e-05
1.00072e-05
1.00072e-05
1.00071e-05
1.00071e-05
1.00066e-05
1.00069e-05
1.0006e-05
1.0007e-05
1.00051e-05
1.0008e-05
1.0004e-05
1.00106e-05
1.00041e-05
1.00134e-05
1.00056e-05
1.00121e-05
9.99689e-06
1.00375e-05
1.0064e-05
1.04635e-05
1.17676e-05
1.91259e-05
3.77664e-05
7.02053e-05
8.21594e-05
0.000122967
0.000258591
0.000693532
0.0013556
0.0342954
0.91712
1
0.999999
1
1
1
1
1
0.999999
0.999999
0.999999
0.999999
0.999999
0.999999
0.999999
0.999999
0.999999
0.999999
0.999999
0.999999
0.999999
0.999999
0.999999
0.999999
0.999999
0.999999
0.999999
0.999999
0.999999
0.999999
1
1
1
1
1
1
1.59539e-06
1.29502e-06