/*--------------------------------*- C++ -*----------------------------------*\
| =========                 |                                                 |
| \\      /  F ield         | OpenFOAM: The Open Source CFD Toolbox           |
|  \\    /   O peration     | Version:  2.3.0                                 |
|   \\  /    A nd           | Web:      www.OpenFOAM.org                      |
|    \\/     M anipulation  |                                                 |
\*---------------------------------------------------------------------------*/
FoamFile
{
    version     2.0;
    format      ascii;
    class       volScalarField;
    location    "33";
    object      alpha.air;
}
// * * * * * * * * * * * * * * * * * * * * * * * * * * * * * * * * * * * * * //

dimensions      [0 0 0 0 0 0 0];

internalField   nonuniform List<scalar> 
6144
(
0.999995
0.999995
0.999994
0.999993
0.999993
0.999992
0.999992
0.999991
0.99999
0.99999
0.99999
0.99999
0.99999
0.99999
0.99999
0.99999
0.99999
0.99999
0.99999
0.99999
0.99999
0.99999
0.99999
0.99999
0.99999
0.99999
0.99999
0.99999
0.99999
0.99999
0.99999
0.99999
0.99999
0.99999
0.99999
0.99999
0.99999
0.99999
0.99999
0.99999
0.99999
0.99999
0.99999
0.99999
0.999989
0.999988
0.999984
0.999976
0.999962
0.999947
0.999934
0.999924
0.999916
0.999912
0.999908
0.999902
0.999903
0.999896
0.999488
0.964767
0.0636185
0.000437732
1.0665e-06
5.29547e-07
5.32357e-07
5.36324e-07
5.44157e-07
5.53004e-07
5.61515e-07
5.60056e-07
5.55993e-07
5.54074e-07
5.56442e-07
5.56442e-07
5.38161e-07
5.8108e-07
6.21309e-07
6.39879e-07
6.47673e-07
6.48177e-07
6.16693e-07
5.83481e-07
5.43903e-07
5.04729e-07
4.65371e-07
4.42983e-07
4.32283e-07
4.25452e-07
4.15837e-07
4.05276e-07
3.99003e-07
3.94485e-07
3.91788e-07
3.91823e-07
3.91863e-07
3.91903e-07
0.999996
0.999995
0.999994
0.999993
0.999992
0.999992
0.999991
0.999991
0.99999
0.99999
0.99999
0.99999
0.99999
0.99999
0.99999
0.99999
0.99999
0.99999
0.99999
0.99999
0.99999
0.99999
0.99999
0.99999
0.99999
0.99999
0.99999
0.99999
0.99999
0.99999
0.99999
0.99999
0.99999
0.99999
0.99999
0.99999
0.99999
0.99999
0.99999
0.99999
0.99999
0.99999
0.99999
0.99999
0.99999
0.999988
0.999985
0.999977
0.999964
0.999944
0.999915
0.999899
0.999888
0.999884
0.999882
0.999881
0.999882
0.999881
0.999781
0.968575
0.0468743
0.000202198
5.25103e-07
5.2953e-07
5.35954e-07
5.73146e-07
6.17184e-07
6.19382e-07
6.08405e-07
5.74614e-07
5.45165e-07
5.45152e-07
5.47597e-07
5.46483e-07
5.59954e-07
6.74799e-07
7.18282e-07
7.2397e-07
7.22788e-07
7.23444e-07
7.23029e-07
6.98548e-07
6.68806e-07
6.56334e-07
6.15485e-07
5.52708e-07
5.06813e-07
4.90558e-07
4.81361e-07
4.51808e-07
4.36304e-07
4.31068e-07
4.2059e-07
4.13733e-07
4.03305e-07
3.96694e-07
0.999996
0.999995
0.999994
0.999993
0.999992
0.999992
0.999991
0.999991
0.99999
0.99999
0.99999
0.99999
0.99999
0.99999
0.99999
0.99999
0.99999
0.99999
0.99999
0.99999
0.99999
0.99999
0.99999
0.99999
0.99999
0.99999
0.99999
0.99999
0.99999
0.99999
0.99999
0.99999
0.99999
0.99999
0.99999
0.99999
0.99999
0.99999
0.99999
0.99999
0.99999
0.99999
0.99999
0.99999
0.99999
0.999988
0.999986
0.999982
0.999965
0.999924
0.999885
0.999868
0.999862
0.999863
0.999864
0.999865
0.999869
0.999869
0.999756
0.967787
0.0469472
0.000240101
5.2922e-07
5.34252e-07
5.56029e-07
6.2674e-07
6.33907e-07
6.23714e-07
6.12093e-07
6.11486e-07
6.07091e-07
5.70789e-07
5.59816e-07
5.61014e-07
6.40542e-07
7.21862e-07
7.22041e-07
7.16525e-07
7.07628e-07
7.09517e-07
7.15033e-07
6.96346e-07
6.60597e-07
6.67818e-07
6.8387e-07
6.56586e-07
6.07415e-07
5.77584e-07
5.56391e-07
5.0854e-07
4.86295e-07
4.71596e-07
4.58295e-07
4.45984e-07
4.25262e-07
4.06033e-07
0.999996
0.999995
0.999994
0.999993
0.999992
0.999992
0.999992
0.999991
0.999991
0.99999
0.99999
0.99999
0.99999
0.99999
0.99999
0.99999
0.99999
0.99999
0.99999
0.99999
0.99999
0.99999
0.99999
0.99999
0.99999
0.99999
0.99999
0.99999
0.99999
0.99999
0.99999
0.99999
0.99999
0.99999
0.99999
0.99999
0.99999
0.99999
0.99999
0.99999
0.99999
0.99999
0.99999
0.99999
0.99999
0.999989
0.999987
0.999983
0.999936
0.999878
0.999857
0.999857
0.999858
0.99986
0.999862
0.999863
0.999866
0.999865
0.999757
0.968587
0.0425839
0.000226812
5.95865e-07
9.17794e-07
7.4731e-07
6.13037e-07
5.57028e-07
5.57059e-07
5.57089e-07
5.57119e-07
5.94392e-07
6.32786e-07
6.97079e-07
7.93296e-07
8.66947e-07
8.18506e-07
7.91993e-07
7.84707e-07
7.83999e-07
7.83782e-07
7.89271e-07
7.60853e-07
6.73998e-07
6.8266e-07
7.52175e-07
7.31256e-07
6.54534e-07
5.95094e-07
5.42526e-07
4.89623e-07
4.72825e-07
4.66574e-07
4.65362e-07
4.55046e-07
4.27902e-07
4.03815e-07
0.999996
0.999996
0.999995
0.999994
0.999993
0.999992
0.999992
0.999991
0.999991
0.99999
0.99999
0.99999
0.99999
0.99999
0.99999
0.99999
0.99999
0.99999
0.99999
0.99999
0.99999
0.99999
0.99999
0.99999
0.99999
0.99999
0.99999
0.99999
0.99999
0.99999
0.99999
0.99999
0.99999
0.99999
0.99999
0.99999
0.99999
0.99999
0.99999
0.99999
0.99999
0.99999
0.99999
0.99999
0.99999
0.999989
0.999988
0.999966
0.999889
0.999853
0.999854
0.999858
0.999863
0.999865
0.999868
0.999868
0.99987
0.999867
0.999738
0.954249
0.0252684
0.000105336
1.34803e-05
9.92597e-06
6.84425e-06
4.39722e-06
2.86807e-06
2.16439e-06
1.83091e-06
1.70408e-06
1.73805e-06
1.89654e-06
2.2162e-06
2.36173e-06
2.17545e-06
1.30485e-06
8.6219e-07
8.26225e-07
8.40598e-07
8.03864e-07
8.44887e-07
8.52128e-07
8.64941e-07
7.18001e-07
7.0891e-07
6.11704e-07
4.39241e-07
4.39239e-07
4.39241e-07
4.39243e-07
4.39245e-07
4.48824e-07
4.34865e-07
4.19729e-07
4.19702e-07
3.99067e-07
0.999996
0.999996
0.999995
0.999994
0.999993
0.999992
0.999992
0.999991
0.999991
0.99999
0.99999
0.99999
0.99999
0.99999
0.99999
0.99999
0.99999
0.99999
0.99999
0.99999
0.99999
0.99999
0.99999
0.99999
0.99999
0.99999
0.99999
0.99999
0.99999
0.99999
0.99999
0.99999
0.99999
0.99999
0.99999
0.99999
0.99999
0.99999
0.99999
0.99999
0.99999
0.99999
0.99999
0.99999
0.99999
0.999989
0.999986
0.999947
0.999862
0.999851
0.999858
0.999861
0.999866
0.999867
0.999869
0.999868
0.999871
0.999859
0.999564
0.921928
0.0176362
0.000576795
0.000456191
0.000408068
0.000383236
0.000332782
0.000288406
0.000259409
0.000242767
0.000235621
0.000237132
0.000240781
0.000243212
0.000230924
0.000211053
0.000177287
0.000143393
0.000112215
8.70326e-05
6.92622e-05
5.37005e-05
3.84752e-05
2.63879e-05
2.13261e-05
2.1587e-05
3.11959e-05
4.08315e-05
5.11068e-05
5.88027e-05
4.65795e-05
3.73063e-05
1.8829e-05
5.9733e-06
1.22816e-06
3.3299e-07
3.32872e-07
0.999997
0.999996
0.999995
0.999995
0.999994
0.999993
0.999992
0.999991
0.999991
0.999991
0.99999
0.99999
0.99999
0.99999
0.99999
0.99999
0.99999
0.99999
0.99999
0.99999
0.99999
0.99999
0.99999
0.99999
0.99999
0.99999
0.99999
0.99999
0.99999
0.99999
0.99999
0.99999
0.99999
0.99999
0.99999
0.99999
0.99999
0.99999
0.99999
0.99999
0.99999
0.99999
0.99999
0.99999
0.99999
0.999989
0.999984
0.999941
0.999857
0.999852
0.99986
0.999862
0.999866
0.999869
0.999869
0.999867
0.999869
0.999793
0.999262
0.88744
0.0265233
0.00399605
0.00371866
0.00369595
0.0038699
0.00388708
0.00391255
0.00370723
0.00354815
0.00337738
0.00328838
0.00314165
0.00298099
0.00267741
0.00234388
0.00194347
0.00159716
0.00133849
0.0011007
0.000876644
0.000755667
0.000796799
0.000858023
0.000983388
0.00116926
0.00140542
0.00165698
0.00182977
0.00186436
0.00171047
0.00175995
0.00128073
0.00086327
0.000406678
8.61985e-05
2.35409e-07
0.999997
0.999996
0.999996
0.999995
0.999994
0.999993
0.999992
0.999991
0.999991
0.999991
0.99999
0.99999
0.99999
0.99999
0.99999
0.99999
0.99999
0.99999
0.99999
0.99999
0.99999
0.99999
0.99999
0.99999
0.99999
0.99999
0.99999
0.99999
0.99999
0.99999
0.99999
0.99999
0.99999
0.99999
0.99999
0.99999
0.99999
0.99999
0.99999
0.99999
0.99999
0.99999
0.99999
0.99999
0.99999
0.999989
0.999986
0.999951
0.999867
0.999852
0.999862
0.999864
0.999867
0.999871
0.999873
0.999872
0.999876
0.999837
0.999432
0.807991
0.030042
0.0129713
0.0136038
0.0138148
0.0142976
0.0147399
0.0149191
0.015009
0.0150556
0.0151069
0.0151229
0.0151692
0.0152454
0.0153489
0.0154931
0.0156812
0.0159558
0.0163015
0.0167292
0.0171502
0.0174923
0.017705
0.017952
0.0186069
0.019885
0.0214502
0.0233042
0.0252021
0.0268198
0.0279418
0.0285861
0.0287967
0.0281617
0.0272713
0.0249298
0.0215212
0.999997
0.999996
0.999996
0.999995
0.999994
0.999993
0.999992
0.999992
0.999991
0.999991
0.99999
0.99999
0.99999
0.99999
0.99999
0.99999
0.99999
0.99999
0.99999
0.99999
0.99999
0.99999
0.99999
0.99999
0.99999
0.99999
0.99999
0.99999
0.99999
0.99999
0.99999
0.99999
0.99999
0.99999
0.99999
0.99999
0.99999
0.99999
0.99999
0.99999
0.99999
0.99999
0.99999
0.99999
0.99999
0.999989
0.999987
0.999971
0.999907
0.999845
0.999857
0.999863
0.999866
0.999867
0.99986
0.999855
0.99986
0.999874
0.999885
0.700378
0.0238526
0.0148171
0.0149333
0.0147882
0.0146512
0.0146626
0.0146599
0.0149821
0.015166
0.015331
0.0154194
0.0155176
0.0156758
0.0157344
0.0157014
0.0158226
0.0160113
0.0162375
0.0165172
0.0168611
0.0173447
0.0178895
0.0184051
0.018739
0.0188825
0.0185486
0.0178545
0.0168293
0.0154791
0.0143432
0.0132635
0.0118574
0.0103029
0.0081547
0.00536828
0.0030526
0.999997
0.999997
0.999996
0.999996
0.999995
0.999994
0.999992
0.999992
0.999991
0.999991
0.99999
0.99999
0.99999
0.99999
0.99999
0.99999
0.99999
0.99999
0.99999
0.99999
0.99999
0.99999
0.99999
0.99999
0.99999
0.99999
0.99999
0.99999
0.99999
0.99999
0.99999
0.99999
0.99999
0.99999
0.99999
0.99999
0.99999
0.99999
0.99999
0.99999
0.99999
0.99999
0.99999
0.99999
0.99999
0.999988
0.999987
0.99998
0.999965
0.999911
0.999844
0.999856
0.999859
0.999856
0.999857
0.999875
0.999882
0.999882
0.999885
0.794993
0.0220441
0.0067056
0.00580533
0.00426866
0.00346872
0.00319581
0.00318701
0.00330025
0.00340906
0.00355634
0.00370002
0.00384881
0.00396352
0.00401735
0.00403567
0.00404105
0.00398662
0.00396202
0.00409124
0.00448658
0.00494908
0.00553114
0.00593299
0.00605626
0.00532859
0.00442454
0.00325113
0.0022034
0.00140324
0.00104315
0.000877831
0.000685677
0.000489875
0.000303952
0.000141439
6.2436e-05
0.999998
0.999997
0.999997
0.999996
0.999995
0.999994
0.999992
0.999991
0.999991
0.999991
0.99999
0.99999
0.99999
0.99999
0.99999
0.99999
0.99999
0.99999
0.99999
0.99999
0.99999
0.99999
0.99999
0.99999
0.99999
0.99999
0.99999
0.99999
0.99999
0.99999
0.99999
0.99999
0.99999
0.99999
0.99999
0.99999
0.99999
0.99999
0.99999
0.99999
0.99999
0.99999
0.99999
0.99999
0.999989
0.999988
0.999985
0.999981
0.999973
0.999953
0.99988
0.999846
0.999843
0.999848
0.999855
0.999872
0.99988
0.999876
0.999885
0.876487
0.0122639
0.000737172
0.000454013
0.000190729
0.000169117
0.000178025
0.000186088
0.000187901
0.000186979
0.00019269
0.000197155
0.000190519
0.00018713
0.000186825
0.000189203
0.000179739
0.000169895
0.000162562
0.000160435
0.000207784
0.000244233
0.000273501
0.000284444
0.000236021
0.000167435
9.25826e-05
3.91442e-05
1.19206e-05
3.68994e-06
3.1378e-06
3.10425e-06
2.05519e-06
1.45946e-06
1.06843e-06
9.66816e-07
9.48551e-07
0.999998
0.999998
0.999997
0.999997
0.999996
0.999994
0.999992
0.999991
0.999991
0.99999
0.99999
0.99999
0.99999
0.99999
0.99999
0.99999
0.99999
0.99999
0.99999
0.99999
0.99999
0.99999
0.99999
0.99999
0.99999
0.99999
0.99999
0.99999
0.99999
0.99999
0.99999
0.99999
0.99999
0.99999
0.99999
0.99999
0.99999
0.99999
0.99999
0.99999
0.99999
0.99999
0.99999
0.99999
0.999989
0.999987
0.999984
0.999979
0.999971
0.999962
0.999923
0.999866
0.999844
0.999835
0.999844
0.999868
0.999879
0.999871
0.999885
0.927876
0.0065057
1.48408e-05
5.09864e-06
6.2917e-07
6.2917e-07
6.2917e-07
7.29783e-07
1.03621e-06
6.53262e-07
6.55864e-07
9.09077e-07
1.6972e-06
1.4317e-06
7.65439e-07
6.98548e-07
7.16966e-07
6.70071e-07
5.59189e-07
5.5919e-07
5.59191e-07
5.59192e-07
1.1946e-06
2.03094e-06
1.0981e-06
7.97402e-07
6.31651e-07
4.63789e-07
4.63788e-07
4.63788e-07
5.14257e-07
5.89582e-07
6.74298e-07
7.10432e-07
6.53118e-07
4.39382e-07
3.67211e-07
0.999998
0.999998
0.999998
0.999998
0.999997
0.999995
0.999993
0.999991
0.999991
0.99999
0.99999
0.99999
0.99999
0.99999
0.99999
0.99999
0.99999
0.99999
0.99999
0.99999
0.99999
0.99999
0.99999
0.99999
0.99999
0.99999
0.99999
0.99999
0.99999
0.99999
0.99999
0.99999
0.99999
0.99999
0.99999
0.99999
0.99999
0.99999
0.99999
0.99999
0.99999
0.99999
0.99999
0.99999
0.999989
0.999987
0.999983
0.999976
0.999969
0.999961
0.999946
0.999901
0.99986
0.999838
0.999838
0.999851
0.999877
0.999872
0.999847
0.960396
0.0107812
5.43182e-06
6.2921e-07
6.4245e-07
6.29234e-07
6.37554e-07
6.47008e-07
6.51943e-07
6.53396e-07
6.55789e-07
6.58907e-07
6.69241e-07
6.82065e-07
6.86052e-07
6.89379e-07
6.97304e-07
6.97874e-07
6.94624e-07
6.84392e-07
6.738e-07
6.70457e-07
6.70685e-07
6.86103e-07
7.12068e-07
7.00855e-07
6.70031e-07
5.96608e-07
5.38143e-07
5.47206e-07
6.06114e-07
6.41481e-07
6.11001e-07
5.01969e-07
4.8196e-07
4.22223e-07
3.25848e-07
0.999998
0.999998
0.999998
0.999998
0.999997
0.999996
0.999994
0.999992
0.999991
0.99999
0.99999
0.99999
0.99999
0.99999
0.99999
0.99999
0.99999
0.99999
0.99999
0.99999
0.99999
0.99999
0.99999
0.99999
0.99999
0.99999
0.99999
0.99999
0.99999
0.99999
0.99999
0.99999
0.99999
0.99999
0.99999
0.99999
0.99999
0.99999
0.99999
0.99999
0.99999
0.99999
0.99999
0.99999
0.999989
0.999987
0.999982
0.999975
0.999967
0.999958
0.999946
0.999926
0.999889
0.999857
0.999844
0.999846
0.999858
0.99986
0.999807
0.962231
0.0386262
8.00943e-07
6.34611e-07
6.46546e-07
6.38522e-07
6.35289e-07
6.3583e-07
6.36436e-07
6.38315e-07
6.41043e-07
6.4266e-07
6.45052e-07
6.47682e-07
6.48205e-07
6.48665e-07
6.49266e-07
6.48793e-07
6.4818e-07
6.48336e-07
6.48653e-07
6.49401e-07
6.51081e-07
6.51982e-07
6.50692e-07
6.50454e-07
6.52614e-07
6.48852e-07
6.39177e-07
6.41079e-07
6.47758e-07
6.42053e-07
6.16369e-07
5.44748e-07
4.4648e-07
4.07156e-07
3.34399e-07
0.999998
0.999997
0.999997
0.999997
0.999998
0.999997
0.999995
0.999993
0.999991
0.99999
0.99999
0.99999
0.99999
0.99999
0.99999
0.99999
0.99999
0.99999
0.99999
0.99999
0.99999
0.99999
0.99999
0.99999
0.99999
0.99999
0.99999
0.99999
0.99999
0.99999
0.99999
0.99999
0.99999
0.99999
0.99999
0.99999
0.99999
0.99999
0.99999
0.99999
0.99999
0.99999
0.99999
0.99999
0.999989
0.999986
0.999981
0.999974
0.999964
0.999952
0.99994
0.999926
0.999911
0.999888
0.999875
0.999856
0.999866
0.999865
0.999696
0.959605
0.030107
1.53015e-05
6.292e-07
6.46639e-07
6.38837e-07
6.33682e-07
6.34333e-07
6.35101e-07
6.35853e-07
6.37076e-07
6.38407e-07
6.39563e-07
6.40894e-07
6.42617e-07
6.44838e-07
6.47353e-07
6.49071e-07
6.50203e-07
6.52287e-07
6.535e-07
6.54479e-07
6.56618e-07
6.57085e-07
6.57145e-07
6.55765e-07
6.55998e-07
6.56161e-07
6.56779e-07
6.56237e-07
6.55238e-07
6.44077e-07
6.16537e-07
5.59859e-07
4.34302e-07
3.84221e-07
3.33922e-07
0.999998
0.999998
0.999998
0.999997
0.999997
0.999997
0.999995
0.999993
0.999991
0.99999
0.99999
0.99999
0.99999
0.99999
0.99999
0.99999
0.99999
0.99999
0.99999
0.99999
0.99999
0.99999
0.99999
0.99999
0.99999
0.99999
0.99999
0.99999
0.99999
0.99999
0.99999
0.99999
0.99999
0.99999
0.99999
0.99999
0.99999
0.99999
0.99999
0.99999
0.99999
0.99999
0.99999
0.99999
0.999989
0.999985
0.999979
0.99997
0.999959
0.999946
0.999932
0.999921
0.999912
0.999901
0.999898
0.999881
0.999885
0.99988
0.999225
0.950498
0.0360849
0.000186124
7.45094e-07
6.37668e-07
6.38698e-07
6.37751e-07
6.36608e-07
6.37014e-07
6.38139e-07
6.39378e-07
6.4135e-07
6.43932e-07
6.45775e-07
6.46485e-07
6.46864e-07
6.47237e-07
6.47349e-07
6.47366e-07
6.48915e-07
6.50626e-07
6.52294e-07
6.55423e-07
6.57666e-07
6.59e-07
6.58594e-07
6.5902e-07
6.59959e-07
6.60464e-07
6.60466e-07
6.58686e-07
6.45458e-07
6.44585e-07
5.37339e-07
4.34542e-07
3.82184e-07
3.25781e-07
0.999996
0.999995
0.999994
0.999993
0.999993
0.999992
0.999991
0.999991
0.99999
0.99999
0.99999
0.99999
0.99999
0.99999
0.99999
0.99999
0.99999
0.99999
0.99999
0.99999
0.99999
0.99999
0.99999
0.99999
0.99999
0.99999
0.99999
0.99999
0.99999
0.99999
0.99999
0.99999
0.99999
0.99999
0.99999
0.99999
0.99999
0.99999
0.99999
0.99999
0.99999
0.99999
0.99999
0.99999
0.999989
0.999987
0.999983
0.999975
0.999962
0.999947
0.999935
0.999926
0.999918
0.999912
0.999908
0.999898
0.999902
0.999887
0.999697
0.963606
0.0534869
0.000169332
5.25103e-07
5.33478e-07
5.30826e-07
5.30922e-07
5.33056e-07
5.35781e-07
5.41242e-07
5.44486e-07
5.4539e-07
5.4516e-07
5.46517e-07
5.49179e-07
5.48128e-07
5.55778e-07
5.41201e-07
5.48861e-07
5.56683e-07
5.54845e-07
5.384e-07
5.22832e-07
5.09933e-07
4.91899e-07
4.76453e-07
4.69308e-07
4.71189e-07
4.74869e-07
4.87714e-07
4.98029e-07
5.01187e-07
4.86863e-07
4.70517e-07
4.55871e-07
4.16605e-07
3.91944e-07
0.999997
0.999995
0.999994
0.999993
0.999992
0.999992
0.999991
0.999991
0.999991
0.99999
0.99999
0.99999
0.99999
0.99999
0.99999
0.99999
0.99999
0.99999
0.99999
0.99999
0.99999
0.99999
0.99999
0.99999
0.99999
0.99999
0.99999
0.99999
0.99999
0.99999
0.99999
0.99999
0.99999
0.99999
0.99999
0.99999
0.99999
0.99999
0.99999
0.99999
0.99999
0.99999
0.99999
0.99999
0.999989
0.999988
0.999983
0.999975
0.99996
0.999941
0.999921
0.999909
0.999898
0.999893
0.999889
0.999884
0.999887
0.999876
0.999831
0.93905
0.0206229
1.45113e-05
5.25102e-07
5.35064e-07
5.36746e-07
5.6282e-07
6.12514e-07
6.33392e-07
6.29589e-07
6.02013e-07
5.67046e-07
5.48728e-07
5.38184e-07
5.37718e-07
5.378e-07
5.71599e-07
5.86949e-07
6.01475e-07
6.03786e-07
6.08676e-07
6.41663e-07
6.54027e-07
6.15869e-07
5.98785e-07
5.73911e-07
5.48945e-07
5.33846e-07
5.0843e-07
4.90322e-07
4.96594e-07
5.25424e-07
5.51767e-07
5.51834e-07
5.38386e-07
4.83311e-07
4.55179e-07
0.999997
0.999996
0.999994
0.999993
0.999993
0.999992
0.999991
0.999991
0.999991
0.999991
0.99999
0.99999
0.99999
0.99999
0.99999
0.99999
0.99999
0.99999
0.99999
0.99999
0.99999
0.99999
0.99999
0.99999
0.99999
0.99999
0.99999
0.99999
0.99999
0.99999
0.99999
0.99999
0.99999
0.99999
0.99999
0.99999
0.99999
0.99999
0.99999
0.99999
0.99999
0.99999
0.99999
0.99999
0.999989
0.999988
0.999984
0.999978
0.999961
0.999927
0.999897
0.999881
0.999873
0.999874
0.999876
0.999878
0.99988
0.999872
0.999776
0.940067
0.0302397
5.59644e-07
6.11771e-07
6.02495e-07
6.37682e-07
6.85642e-07
6.81709e-07
6.5065e-07
6.49117e-07
6.71891e-07
6.71591e-07
6.62487e-07
6.54891e-07
6.38664e-07
5.87216e-07
5.98481e-07
5.99702e-07
5.77877e-07
5.64591e-07
5.59405e-07
5.48025e-07
5.342e-07
5.38678e-07
5.44481e-07
5.71652e-07
6.04236e-07
6.0523e-07
6.02046e-07
5.88774e-07
5.57043e-07
5.36253e-07
5.44292e-07
5.47757e-07
5.472e-07
5.22263e-07
4.59733e-07
0.999997
0.999997
0.999995
0.999994
0.999993
0.999992
0.999992
0.999991
0.999991
0.999991
0.99999
0.99999
0.99999
0.99999
0.99999
0.99999
0.99999
0.99999
0.99999
0.99999
0.99999
0.99999
0.99999
0.99999
0.99999
0.99999
0.99999
0.99999
0.99999
0.99999
0.99999
0.99999
0.99999
0.99999
0.99999
0.99999
0.99999
0.99999
0.99999
0.99999
0.99999
0.99999
0.99999
0.99999
0.999989
0.999988
0.999986
0.999979
0.999941
0.99989
0.999872
0.999869
0.999871
0.999873
0.999875
0.999875
0.999875
0.999869
0.999808
0.936878
0.0270297
5.6527e-07
1.05824e-06
6.03179e-07
1.00169e-06
6.29092e-07
6.51155e-07
5.69613e-07
5.57109e-07
5.5711e-07
5.57141e-07
5.57167e-07
5.572e-07
5.87989e-07
7.04571e-07
8.03863e-07
8.31112e-07
7.40164e-07
6.5096e-07
6.51401e-07
6.76666e-07
7.01447e-07
6.25079e-07
6.3234e-07
7.38759e-07
6.76497e-07
5.44099e-07
5.46772e-07
5.81079e-07
6.3018e-07
6.28058e-07
6.27219e-07
5.65688e-07
5.09229e-07
5.01414e-07
4.56411e-07
0.999997
0.999997
0.999995
0.999994
0.999993
0.999993
0.999992
0.999991
0.999991
0.999991
0.99999
0.99999
0.99999
0.99999
0.99999
0.99999
0.99999
0.99999
0.99999
0.99999
0.99999
0.99999
0.99999
0.99999
0.99999
0.99999
0.99999
0.99999
0.99999
0.99999
0.99999
0.99999
0.99999
0.99999
0.99999
0.99999
0.99999
0.99999
0.99999
0.99999
0.99999
0.99999
0.99999
0.99999
0.99999
0.999989
0.999986
0.999968
0.999903
0.999869
0.99987
0.999871
0.999874
0.999874
0.999875
0.999874
0.999875
0.999866
0.999843
0.899481
0.0056245
7.23411e-05
6.66578e-05
3.95317e-05
3.07115e-05
2.13973e-05
1.56754e-05
1.18505e-05
9.79528e-06
9.16587e-06
9.50412e-06
1.02988e-05
1.14917e-05
1.23957e-05
1.24272e-05
1.00708e-05
6.9222e-06
4.49827e-06
3.7912e-06
3.53714e-06
3.62496e-06
3.20638e-06
3.22797e-06
3.19719e-06
4.01634e-06
4.63932e-06
5.51112e-06
6.52236e-06
7.07194e-06
5.45381e-06
3.05359e-06
1.6988e-06
1.03472e-06
6.09341e-07
4.1973e-07
4.36049e-07
0.999997
0.999997
0.999996
0.999995
0.999994
0.999993
0.999992
0.999992
0.999991
0.999991
0.99999
0.99999
0.99999
0.99999
0.99999
0.99999
0.99999
0.99999
0.99999
0.99999
0.99999
0.99999
0.99999
0.99999
0.99999
0.99999
0.99999
0.99999
0.99999
0.99999
0.99999
0.99999
0.99999
0.99999
0.99999
0.99999
0.99999
0.99999
0.99999
0.99999
0.99999
0.99999
0.99999
0.99999
0.99999
0.999989
0.999986
0.999955
0.999877
0.999881
0.999876
0.99987
0.999871
0.999871
0.999872
0.999869
0.999864
0.999846
0.99981
0.834769
0.0102638
0.00240442
0.00229635
0.00200287
0.00193632
0.00188332
0.00157708
0.00133916
0.00109617
0.000994383
0.000989729
0.00109622
0.00115818
0.00118292
0.00114769
0.00108414
0.000995577
0.000860231
0.000726674
0.000637732
0.000586447
0.000556101
0.000558157
0.000631493
0.000718222
0.000826636
0.000988005
0.00112891
0.0012079
0.00123627
0.00107975
0.000758512
0.000344108
9.27712e-05
7.5682e-06
2.35414e-07
0.999998
0.999998
0.999997
0.999995
0.999994
0.999993
0.999992
0.999992
0.999991
0.999991
0.99999
0.99999
0.99999
0.99999
0.99999
0.99999
0.99999
0.99999
0.99999
0.99999
0.99999
0.99999
0.99999
0.99999
0.99999
0.99999
0.99999
0.99999
0.99999
0.99999
0.99999
0.99999
0.99999
0.99999
0.99999
0.99999
0.99999
0.99999
0.99999
0.99999
0.99999
0.99999
0.99999
0.99999
0.99999
0.999989
0.999987
0.999951
0.999873
0.999894
0.999875
0.999868
0.999871
0.999869
0.99986
0.999851
0.999839
0.999819
0.999769
0.684205
0.0217197
0.0140542
0.0139395
0.0138352
0.0150949
0.0157755
0.0159023
0.0155103
0.0151487
0.0148476
0.0144313
0.0141841
0.014057
0.0141055
0.0142226
0.0143074
0.0142104
0.0140167
0.0136562
0.0130945
0.012423
0.0117423
0.01145
0.0123947
0.0136166
0.0150479
0.0165463
0.0183825
0.0202108
0.0214522
0.0216716
0.0203066
0.0170698
0.0118135
0.00454171
0.000258226
0.999998
0.999998
0.999997
0.999996
0.999995
0.999993
0.999992
0.999992
0.999991
0.999991
0.99999
0.99999
0.99999
0.99999
0.99999
0.99999
0.99999
0.99999
0.99999
0.99999
0.99999
0.99999
0.99999
0.99999
0.99999
0.99999
0.99999
0.99999
0.99999
0.99999
0.99999
0.99999
0.99999
0.99999
0.99999
0.99999
0.99999
0.99999
0.99999
0.99999
0.99999
0.99999
0.99999
0.99999
0.99999
0.999988
0.999987
0.999961
0.999903
0.999917
0.999877
0.999868
0.99987
0.999868
0.999859
0.999852
0.99985
0.999839
0.999834
0.514511
0.0274987
0.0232668
0.0240119
0.0250645
0.0256993
0.0261918
0.0267307
0.0271568
0.027584
0.0279636
0.0282575
0.0284777
0.0286509
0.0288285
0.0291776
0.0297961
0.030702
0.0315425
0.0325045
0.0335568
0.0345631
0.0354752
0.0364273
0.0373186
0.0383569
0.0397192
0.0417268
0.0442498
0.0480344
0.0520982
0.0582411
0.0667677
0.0807723
0.103826
0.156946
0.349672
0.999998
0.999998
0.999998
0.999997
0.999995
0.999994
0.999992
0.999992
0.999991
0.999991
0.99999
0.99999
0.99999
0.99999
0.99999
0.99999
0.99999
0.99999
0.99999
0.99999
0.99999
0.99999
0.99999
0.99999
0.99999
0.99999
0.99999
0.99999
0.99999
0.99999
0.99999
0.99999
0.99999
0.99999
0.99999
0.99999
0.99999
0.99999
0.99999
0.99999
0.99999
0.99999
0.99999
0.99999
0.999989
0.999988
0.999984
0.999976
0.999952
0.999938
0.999872
0.99986
0.99986
0.999856
0.999856
0.999859
0.999871
0.999877
0.999885
0.671677
0.0191453
0.0116547
0.0108987
0.00973641
0.00922169
0.0090924
0.0090318
0.00915293
0.0092811
0.00939792
0.0094825
0.0094684
0.00917979
0.00899235
0.0089297
0.00935517
0.0100254
0.0109443
0.0120523
0.0132966
0.0143927
0.0152266
0.0158824
0.0161887
0.0162737
0.014505
0.0127891
0.010901
0.00997784
0.0112401
0.0131426
0.0159608
0.0193646
0.0224354
0.023712
0.0195444
0.999998
0.999998
0.999998
0.999997
0.999996
0.999994
0.999993
0.999992
0.999991
0.999991
0.99999
0.99999
0.99999
0.99999
0.99999
0.99999
0.99999
0.99999
0.99999
0.99999
0.99999
0.99999
0.99999
0.99999
0.99999
0.99999
0.99999
0.99999
0.99999
0.99999
0.99999
0.99999
0.99999
0.99999
0.99999
0.99999
0.99999
0.99999
0.99999
0.99999
0.99999
0.99999
0.99999
0.99999
0.999989
0.999987
0.999982
0.999975
0.999961
0.999934
0.99985
0.999855
0.999859
0.999857
0.999863
0.999875
0.999877
0.999875
0.999885
0.826799
0.0124174
0.00250973
0.00188672
0.0012443
0.00112878
0.00103611
0.000925936
0.000835806
0.000760391
0.000715945
0.000706979
0.000756909
0.000791366
0.000854026
0.000947851
0.00107254
0.0012671
0.00153354
0.00189312
0.00234652
0.00279309
0.00303784
0.0030484
0.00237898
0.00195307
0.00150849
0.0010217
0.00065719
0.000503181
0.0004841
0.000507838
0.000552605
0.000599032
0.000506481
0.000244636
5.54661e-05
0.999998
0.999998
0.999998
0.999998
0.999997
0.999995
0.999993
0.999992
0.999991
0.999991
0.99999
0.99999
0.99999
0.99999
0.99999
0.99999
0.99999
0.99999
0.99999
0.99999
0.99999
0.99999
0.99999
0.99999
0.99999
0.99999
0.99999
0.99999
0.99999
0.99999
0.99999
0.99999
0.99999
0.99999
0.99999
0.99999
0.99999
0.99999
0.99999
0.99999
0.99999
0.99999
0.99999
0.99999
0.999989
0.999986
0.999981
0.999972
0.999956
0.999933
0.999878
0.999852
0.999852
0.999852
0.999861
0.999863
0.999876
0.999871
0.999885
0.884528
0.00623206
0.00021735
0.00015855
0.000110422
0.000107667
0.000106556
0.000106874
0.000105595
9.78108e-05
9.06797e-05
8.11233e-05
7.3123e-05
6.83467e-05
6.51107e-05
6.17585e-05
5.87784e-05
5.78133e-05
6.73898e-05
8.02845e-05
9.95729e-05
0.000118617
0.00012682
0.000103039
6.63117e-05
3.53627e-05
1.67581e-05
6.68036e-06
2.49649e-06
1.72652e-06
1.53175e-06
1.39398e-06
1.19248e-06
1.05517e-06
8.53775e-07
4.82295e-07
2.33746e-07
0.999998
0.999998
0.999998
0.999998
0.999998
0.999996
0.999994
0.999992
0.999991
0.999991
0.99999
0.99999
0.99999
0.99999
0.99999
0.99999
0.99999
0.99999
0.99999
0.99999
0.99999
0.99999
0.99999
0.99999
0.99999
0.99999
0.99999
0.99999
0.99999
0.99999
0.99999
0.99999
0.99999
0.99999
0.99999
0.99999
0.99999
0.99999
0.99999
0.99999
0.99999
0.99999
0.99999
0.99999
0.999989
0.999986
0.99998
0.99997
0.999956
0.999938
0.999916
0.999881
0.999861
0.999849
0.999851
0.999856
0.999875
0.999869
0.999861
0.934391
0.00686099
2.98538e-06
6.39229e-06
2.42153e-06
1.9481e-06
1.45923e-06
1.30777e-06
1.24095e-06
1.25814e-06
1.1397e-06
8.53463e-07
8.59802e-07
9.13217e-07
8.65848e-07
8.30963e-07
7.73552e-07
6.75332e-07
1.08113e-06
1.51186e-06
8.33144e-07
6.30451e-07
8.67838e-07
1.19262e-06
1.10564e-06
9.24139e-07
9.64106e-07
8.49624e-07
6.08093e-07
5.01035e-07
5.41214e-07
5.79002e-07
5.8459e-07
5.69964e-07
4.92392e-07
3.6594e-07
2.44502e-07
0.999998
0.999998
0.999998
0.999998
0.999998
0.999997
0.999995
0.999992
0.999991
0.999991
0.99999
0.99999
0.99999
0.99999
0.99999
0.99999
0.99999
0.99999
0.99999
0.99999
0.99999
0.99999
0.99999
0.99999
0.99999
0.99999
0.99999
0.99999
0.99999
0.99999
0.99999
0.99999
0.99999
0.99999
0.99999
0.99999
0.99999
0.99999
0.99999
0.99999
0.99999
0.99999
0.99999
0.99999
0.999989
0.999985
0.999979
0.999969
0.999957
0.999944
0.999929
0.999913
0.999893
0.999865
0.999858
0.999857
0.999872
0.999861
0.999722
0.959805
0.0114078
6.29186e-07
9.38698e-07
7.18478e-07
6.37993e-07
6.93552e-07
7.30545e-07
7.46687e-07
7.46628e-07
7.54496e-07
7.4149e-07
7.15085e-07
7.10391e-07
7.06629e-07
6.96298e-07
6.85448e-07
6.77115e-07
6.65402e-07
6.49942e-07
6.49719e-07
6.50875e-07
6.46808e-07
6.43328e-07
6.48864e-07
6.64792e-07
6.63102e-07
6.40528e-07
5.98999e-07
5.94741e-07
6.23143e-07
6.35812e-07
6.16223e-07
5.57093e-07
5.09729e-07
4.25909e-07
2.7116e-07
0.999998
0.999998
0.999998
0.999998
0.999999
0.999998
0.999997
0.999993
0.999991
0.99999
0.99999
0.99999
0.99999
0.99999
0.99999
0.99999
0.99999
0.99999
0.99999
0.99999
0.99999
0.99999
0.99999
0.99999
0.99999
0.99999
0.99999
0.99999
0.99999
0.99999
0.99999
0.99999
0.99999
0.99999
0.99999
0.99999
0.99999
0.99999
0.99999
0.99999
0.99999
0.99999
0.99999
0.99999
0.999989
0.999985
0.999978
0.999968
0.999957
0.999947
0.999936
0.999921
0.999912
0.999893
0.999878
0.999878
0.999877
0.999819
0.999494
0.968387
0.0305797
7.4361e-06
6.292e-07
6.46276e-07
6.35487e-07
6.38363e-07
6.47309e-07
6.57918e-07
6.63124e-07
6.62429e-07
6.6159e-07
6.58991e-07
6.55435e-07
6.51905e-07
6.46139e-07
6.46144e-07
6.46159e-07
6.48185e-07
6.48288e-07
6.45781e-07
6.43191e-07
6.33479e-07
6.2312e-07
6.26085e-07
6.31109e-07
6.41927e-07
6.47808e-07
6.46265e-07
6.48816e-07
6.51e-07
6.42713e-07
6.15038e-07
5.68963e-07
5.10498e-07
4.22198e-07
2.5837e-07
0.999998
0.999998
0.999998
0.999998
0.999999
0.999999
0.999998
0.999995
0.999991
0.99999
0.99999
0.99999
0.99999
0.99999
0.99999
0.99999
0.99999
0.99999
0.99999
0.99999
0.99999
0.99999
0.99999
0.99999
0.99999
0.99999
0.99999
0.99999
0.99999
0.99999
0.99999
0.99999
0.99999
0.99999
0.99999
0.99999
0.99999
0.99999
0.99999
0.99999
0.99999
0.99999
0.99999
0.99999
0.999989
0.999985
0.999978
0.999969
0.999959
0.999949
0.999935
0.999922
0.999912
0.9999
0.999896
0.999889
0.999869
0.999781
0.999176
0.955666
0.0395764
6.52708e-06
6.292e-07
6.48472e-07
6.49457e-07
6.44552e-07
6.43371e-07
6.42385e-07
6.42695e-07
6.42977e-07
6.41901e-07
6.42228e-07
6.43297e-07
6.44801e-07
6.46128e-07
6.47029e-07
6.47965e-07
6.51293e-07
6.54707e-07
6.53808e-07
6.53174e-07
6.41141e-07
6.22612e-07
6.27567e-07
6.34501e-07
6.40048e-07
6.48742e-07
6.55054e-07
6.54292e-07
6.52886e-07
6.41318e-07
6.17823e-07
5.77378e-07
4.92933e-07
3.99877e-07
2.82076e-07
0.999998
0.999998
0.999998
0.999998
0.999998
0.999998
0.999998
0.999996
0.999992
0.99999
0.99999
0.99999
0.99999
0.99999
0.99999
0.99999
0.99999
0.99999
0.99999
0.99999
0.99999
0.99999
0.99999
0.99999
0.99999
0.99999
0.99999
0.99999
0.99999
0.99999
0.99999
0.99999
0.99999
0.99999
0.99999
0.99999
0.99999
0.99999
0.99999
0.99999
0.99999
0.99999
0.99999
0.99999
0.999989
0.999985
0.999978
0.999968
0.999957
0.999944
0.99993
0.999918
0.99991
0.999899
0.999899
0.999889
0.999889
0.999836
0.999044
0.954536
0.0573858
0.000433841
1.09963e-06
6.38054e-07
6.43322e-07
6.37106e-07
6.36972e-07
6.38117e-07
6.38127e-07
6.38143e-07
6.39284e-07
6.41747e-07
6.43415e-07
6.4475e-07
6.45561e-07
6.46655e-07
6.47425e-07
6.49003e-07
6.55145e-07
6.59026e-07