/*--------------------------------*- C++ -*----------------------------------*\
| =========                 |                                                 |
| \\      /  F ield         | OpenFOAM: The Open Source CFD Toolbox           |
|  \\    /   O peration     | Version:  2.3.0                                 |
|   \\  /    A nd           | Web:      www.OpenFOAM.org                      |
|    \\/     M anipulation  |                                                 |
\*---------------------------------------------------------------------------*/
FoamFile
{
    version     2.0;
    format      ascii;
    class       volScalarField;
    location    "33";
    object      k.water;
}
// * * * * * * * * * * * * * * * * * * * * * * * * * * * * * * * * * * * * * //

dimensions      [0 2 -2 0 0 0 0];

internalField   nonuniform List<scalar> 
6144
(
8.35868e-05
6.78509e-05
4.81939e-05
3.96742e-05
2.79316e-05
2.22148e-05
1.88671e-05
1.90501e-05
2.00147e-05
2.32366e-05
2.57861e-05
2.78641e-05
2.86693e-05
2.88216e-05
2.78177e-05
2.71551e-05
2.61391e-05
2.54029e-05
2.48003e-05
2.45614e-05
2.43823e-05
2.43229e-05
2.43432e-05
2.44018e-05
2.44982e-05
2.4626e-05
2.47748e-05
2.49346e-05
2.51098e-05
2.54479e-05
2.58625e-05
2.61672e-05
2.63531e-05
2.64138e-05
2.65037e-05
2.65254e-05
2.67387e-05
2.68763e-05
2.73268e-05
2.73615e-05
2.77584e-05
2.74468e-05
2.7733e-05
2.72433e-05
2.73527e-05
2.68464e-05
2.59384e-05
2.61393e-05
3.25989e-05
4.87591e-05
7.29277e-05
9.56374e-05
0.000117503
0.000198444
0.000360486
0.000641858
0.00109598
0.00148424
0.00323331
0.0041492
0.0114611
0.00685331
0.00439554
0.00264507
0.00183772
0.00125503
0.000904484
0.000717078
0.000700458
0.000735423
0.000820619
0.000908289
0.000970468
0.00104589
0.00110311
0.0011394
0.00115526
0.00116042
0.00115978
0.00115636
0.00114797
0.00113098
0.0011127
0.00107123
0.0010222
0.000937388
0.000675116
0.000244633
0.000157394
0.000171131
0.000165929
0.000137208
0.000118384
0.000109463
9.47005e-05
6.99188e-05
0.000123
9.92348e-05
7.56743e-05
6.56878e-05
4.74936e-05
4.34833e-05
4.22208e-05
4.31751e-05
4.40657e-05
4.87801e-05
5.21786e-05
5.49646e-05
5.51279e-05
5.38729e-05
5.17147e-05
5.056e-05
4.95807e-05
4.93742e-05
4.947e-05
5.02471e-05
5.08792e-05
5.15119e-05
5.20804e-05
5.25762e-05
5.30255e-05
5.34538e-05
5.3882e-05
5.43127e-05
5.47607e-05
5.55615e-05
5.63423e-05
5.69098e-05
5.73153e-05
5.75668e-05
5.7826e-05
5.79885e-05
5.83779e-05
5.86047e-05
5.92285e-05
5.9294e-05
5.99698e-05
5.97949e-05
6.06595e-05
6.04036e-05
6.09283e-05
6.01505e-05
5.72458e-05
5.53579e-05
6.06947e-05
8.39179e-05
0.000111409
0.000155415
0.00018572
0.000312266
0.000560597
0.00100645
0.00187229
0.00199891
0.00247291
0.00257063
0.00691701
0.00196905
0.00132135
0.000954188
0.000806675
0.000818486
0.00089131
0.000950133
0.0010328
0.0010959
0.00116312
0.00126146
0.0013544
0.00141813
0.00142843
0.00141719
0.00138925
0.00135555
0.00130956
0.00127725
0.00123043
0.00118812
0.00115044
0.00108861
0.00103034
0.00095035
0.00072913
0.000319077
0.000213953
0.000239927
0.000233293
0.000180729
0.000138864
0.000120118
0.000104631
7.46215e-05
0.000137911
0.000113515
9.71914e-05
9.18663e-05
7.398e-05
6.88175e-05
6.68876e-05
6.08637e-05
5.66599e-05
5.94051e-05
6.22025e-05
6.30349e-05
6.09224e-05
5.84571e-05
5.68399e-05
5.64089e-05
5.6945e-05
5.8609e-05
6.08012e-05
6.2749e-05
6.43272e-05
6.56982e-05
6.67905e-05
6.76607e-05
6.8381e-05
6.90083e-05
6.95997e-05
7.01771e-05
7.0742e-05
7.12821e-05
7.17442e-05
7.20754e-05
7.23435e-05
7.25162e-05
7.26574e-05
7.2738e-05
7.28171e-05
7.2785e-05
7.29587e-05
7.30472e-05
7.35562e-05
7.3848e-05
7.46947e-05
7.48655e-05
7.55258e-05
7.61312e-05
7.47752e-05
7.4594e-05
8.29004e-05
0.000109433
0.00013329
0.000195069
0.000228405
0.000395218
0.000837856
0.00143482
0.00247629
0.00352881
0.00232633
0.00231452
0.00508902
0.001179
0.000988878
0.00102642
0.00115117
0.00119988
0.00124563
0.00123885
0.00124859
0.00125602
0.00127254
0.00126609
0.00121862
0.00114749
0.00105908
0.000956225
0.000886917
0.00085027
0.000851242
0.000865834
0.000899805
0.000947197
0.00101028
0.00101768
0.000999221
0.000938935
0.000719739
0.000350943
0.000292203
0.000329002
0.000315151
0.000237951
0.000176231
0.000144368
0.000120933
8.27009e-05
0.000149915
0.000122335
0.000107733
0.000108982
9.28003e-05
8.64975e-05
7.87909e-05
6.96407e-05
6.21407e-05
6.24357e-05
6.49107e-05
6.50198e-05
6.22852e-05
5.94729e-05
5.8029e-05
5.78699e-05
5.90436e-05
6.10718e-05
6.32887e-05
6.5277e-05
6.70292e-05
6.85467e-05
6.97328e-05
7.06476e-05
7.13837e-05
7.20122e-05
7.25941e-05
7.31619e-05
7.37227e-05
7.42456e-05
7.46806e-05
7.49885e-05
7.5213e-05
7.5338e-05
7.54322e-05
7.54905e-05
7.55466e-05
7.55571e-05
7.57453e-05
7.59696e-05
7.65562e-05
7.69014e-05
7.76413e-05
7.76221e-05
7.84464e-05
7.99592e-05
8.28468e-05
9.10745e-05
0.000100549
0.000117835
0.000145758
0.000234319
0.000314153
0.000480078
0.00126551
0.00225227
0.00309334
0.00370751
0.00223742
0.00220624
0.00431925
0.00131198
0.00127329
0.00143198
0.00150684
0.0015359
0.00154776
0.00149711
0.0014423
0.00136418
0.00127638
0.00118382
0.0010768
0.000954921
0.000811337
0.000705358
0.000635767
0.000599338
0.000596741
0.000606767
0.000636568
0.00071492
0.000791091
0.000830655
0.000865689
0.000860836
0.000630362
0.000357367
0.000365344
0.000398276
0.000354701
0.00025584
0.000193543
0.000156455
0.000129668
8.7242e-05
0.000165331
0.000128353
0.000111492
0.000114476
0.000101875
9.80434e-05
8.06332e-05
7.34982e-05
6.82073e-05
6.5601e-05
6.72068e-05
6.49937e-05
6.08233e-05
5.73099e-05
5.60673e-05
5.62111e-05
5.78059e-05
6.02649e-05
6.29256e-05
6.53914e-05
6.77247e-05
6.96179e-05
7.10289e-05
7.20372e-05
7.27665e-05
7.33372e-05
7.38081e-05
7.42382e-05
7.46566e-05
7.50296e-05
7.53117e-05
7.54582e-05
7.54998e-05
7.54501e-05
7.53769e-05
7.53214e-05
7.53025e-05
7.53624e-05
7.55582e-05
7.59398e-05
7.64968e-05
7.68528e-05
7.73109e-05
7.74184e-05
7.88501e-05
8.30546e-05
9.24873e-05
0.000107539
0.000118865
0.000125868
0.000156929
0.000259516
0.000405337
0.000691128
0.00167845
0.00280315
0.00322447
0.0033617
0.00216008
0.00214189
0.00352511
0.0014614
0.00151237
0.00166879
0.00173555
0.00177128
0.00178844
0.00178449
0.00173599
0.00160007
0.00139935
0.00122478
0.00107236
0.000937626
0.000793183
0.000666356
0.000598574
0.000570801
0.000576573
0.000629336
0.000720844
0.000776939
0.000806458
0.000807707
0.000803642
0.000671303
0.000437129
0.000401722
0.000454858
0.000444814
0.00035502
0.00025279
0.000196754
0.000160804
0.000137532
9.65557e-05
0.000171913
0.000134498
0.000112875
0.00011817
0.00010804
0.000110372
8.86315e-05
7.92553e-05
7.19687e-05
6.67043e-05
6.83705e-05
6.41335e-05
5.92079e-05
5.49505e-05
5.25797e-05
5.23981e-05
5.44367e-05
5.77e-05
6.1388e-05
6.47451e-05
6.75016e-05
6.95532e-05
7.10196e-05
7.20304e-05
7.27099e-05
7.31824e-05
7.35301e-05
7.38344e-05
7.41322e-05
7.4395e-05
7.4561e-05
7.45987e-05
7.45395e-05
7.43965e-05
7.42297e-05
7.41038e-05
7.4053e-05
7.41725e-05
7.44422e-05
7.49299e-05
7.54386e-05
7.57831e-05
7.60572e-05
7.64022e-05
7.83129e-05
8.46875e-05
9.85524e-05
0.000117626
0.000130777
0.000134771
0.000166521
0.000268208
0.000424214
0.000711315
0.00157838
0.00262785
0.00296972
0.00307486
0.00213103
0.00212215
0.00327781
0.00154393
0.00163165
0.00177197
0.00183556
0.00189015
0.00192269
0.00193756
0.0019212
0.00184721
0.00165801
0.00136372
0.00116172
0.00100764
0.000887766
0.000750882
0.00067375
0.000640515
0.000634863
0.000656428
0.000676545
0.000686704
0.000683687
0.000646359
0.000586796
0.000504492
0.000460547
0.000509505
0.00052045
0.000439352
0.000328694
0.000252838
0.000202252
0.000166681
0.000144179
0.000104122
0.000152067
0.000137453
0.000112649
0.00012198
0.000109354
0.000116264
9.853e-05
8.47361e-05
7.54713e-05
6.84108e-05
6.98405e-05
6.36228e-05
5.67334e-05
5.00203e-05
4.76925e-05
4.76605e-05
4.96771e-05
5.25587e-05
5.58391e-05
5.91489e-05
6.20259e-05
6.4332e-05
6.60173e-05
6.71287e-05
6.77713e-05
6.80977e-05
6.82475e-05
6.83421e-05
6.84515e-05
6.8564e-05
6.86162e-05
6.84992e-05
6.822e-05
6.78443e-05
6.74719e-05
6.72599e-05
6.7151e-05
6.72852e-05
6.75236e-05
6.80143e-05
6.82818e-05
6.85422e-05
6.83912e-05
6.92637e-05
7.20227e-05
8.1228e-05
9.87785e-05
0.000116658
0.000130839
0.000140087
0.000173346
0.000252928
0.00039443
0.000697831
0.00129361
0.00207971
0.00317062
0.00343701
0.00213755
0.00211896
0.0033567
0.00153209
0.00156399
0.00170605
0.00178481
0.0018844
0.00196451
0.00200833
0.00202895
0.00202108
0.00194458
0.00169655
0.00135215
0.00119214
0.00105181
0.000925336
0.000828367
0.00075954
0.000709887
0.000677205
0.000659606
0.000652897
0.000641317
0.000627377
0.000617148
0.000665178
0.000761979
0.00079158
0.000672795
0.000526799
0.000418781
0.000350893
0.000263751
0.000193929
0.000159061
0.000111106
0.000132236
0.000133174
0.000104873
0.000113829
0.000101724
0.000111051
9.79115e-05
8.15521e-05
7.63886e-05
7.03271e-05
7.27178e-05
6.53416e-05
5.74229e-05
4.8964e-05
4.45267e-05
4.40599e-05
4.68041e-05
5.05275e-05
5.4311e-05
5.78342e-05
6.07854e-05
6.31035e-05
6.48105e-05
6.59621e-05
6.66578e-05
6.70566e-05
6.7283e-05
6.74366e-05
6.75359e-05
6.75865e-05
6.75258e-05
6.72837e-05
6.69088e-05
6.64686e-05
6.60023e-05
6.56491e-05
6.54062e-05
6.5385e-05
6.54432e-05
6.57511e-05
6.58465e-05
6.60708e-05
6.59473e-05
6.6858e-05
6.95829e-05
7.69599e-05
9.18805e-05
0.000105237
0.000118816
0.000141443
0.000190711
0.000267466
0.000408389
0.000829734
0.00196896
0.00260409
0.00337307
0.00385619
0.00221294
0.00218882
0.00352413
0.00126191
0.00116729
0.00115622
0.00124911
0.00137631
0.00164348
0.0018252
0.00200344
0.00209656
0.00212989
0.00199913
0.00174334
0.00146965
0.00128114
0.00119109
0.00112858
0.00107545
0.0010308
0.00100077
0.000992292
0.000993859
0.0010098
0.00103314
0.0010544
0.00106681
0.000972968
0.000860808
0.000726374
0.000614671
0.000511822
0.000400527
0.00031994
0.000254978
0.00018741
0.000107263
0.000114783
0.000119228
9.88219e-05
0.000104347
8.9938e-05
9.50081e-05
8.30045e-05
6.88917e-05
6.9929e-05
6.6745e-05
6.95037e-05
6.18175e-05
5.26271e-05
4.10717e-05
3.41515e-05
3.29722e-05
3.59165e-05
3.97885e-05
4.33482e-05
4.64451e-05
4.90455e-05
5.11822e-05
5.28069e-05
5.39411e-05
5.4664e-05
5.51046e-05
5.53865e-05
5.55862e-05
5.57081e-05
5.57299e-05
5.55694e-05
5.52436e-05
5.48112e-05
5.43721e-05
5.39296e-05
5.3622e-05
5.338e-05
5.33087e-05
5.32315e-05
5.33999e-05
5.32791e-05
5.34845e-05
5.33663e-05
5.42015e-05
5.64486e-05
6.17472e-05
7.42595e-05
8.46581e-05
0.000100046
0.000131955
0.000185345
0.000239447
0.000320164
0.000549629
0.00137512
0.00214122
0.00327778
0.0041231
0.00214693
0.00206882
0.00401726
0.00102992
0.000842738
0.000835974
0.000739298
0.000710985
0.00084932
0.00110979
0.00132154
0.00156027
0.00172767
0.00180577
0.00180497
0.00159535
0.00136952
0.00123582
0.00118109
0.00115366
0.00112933
0.00110389
0.00108339
0.00106011
0.00104572
0.00101814
0.00098051
0.000918336
0.000819369
0.00070913
0.000620338
0.000541172
0.000461295
0.000378763
0.000317432
0.00024452
0.000173783
0.000123357
0.000102262
0.000102757
9.6011e-05
0.000101042
8.25021e-05
8.18711e-05
7.31667e-05
5.93625e-05
5.63302e-05
5.66291e-05
6.00134e-05
5.34761e-05
4.36838e-05
3.2319e-05
2.54207e-05
2.37026e-05
2.57428e-05
2.90551e-05
3.19667e-05
3.44427e-05
3.66353e-05
3.82941e-05
3.95674e-05
4.05111e-05
4.11496e-05
4.15837e-05
4.19134e-05
4.21791e-05
4.23661e-05
4.24613e-05
4.24369e-05
4.23015e-05
4.21108e-05
4.19637e-05
4.18264e-05
4.17845e-05
4.1719e-05
4.17331e-05
4.16909e-05
4.17461e-05
4.17668e-05
4.19564e-05
4.23651e-05
4.3093e-05
4.51469e-05
4.84551e-05
5.76432e-05
6.56105e-05
8.647e-05
0.000121352
0.000174972
0.000208198
0.000273044
0.000432732
0.000818914
0.00149756
0.00320061
0.00398276
0.0023467
0.00228803
0.00513412
0.00114075
0.000893653
0.00106141
0.00076542
0.000616082
0.000586018
0.00081069
0.00100413
0.00120904
0.00138249
0.00148861
0.00152984
0.0015019
0.00133572
0.00116435
0.00108287
0.00105059
0.00102674
0.00100779
0.000968545
0.000933383
0.000880387
0.00082394
0.000747498
0.000662145
0.000587744
0.000519312
0.000467379
0.000424436
0.000373837
0.000318275
0.000273882
0.000222234
0.000158978
0.000124477
9.55107e-05
9.50551e-05
9.41838e-05
9.99183e-05
7.7894e-05
7.19445e-05
6.21758e-05
5.10291e-05
4.52637e-05
4.62342e-05
4.82112e-05
4.17423e-05
3.34436e-05
2.45189e-05
1.9329e-05
1.75101e-05
1.85359e-05
2.09724e-05
2.32457e-05
2.51484e-05
2.68269e-05
2.81235e-05
2.91409e-05
2.99205e-05
3.05033e-05
3.09485e-05
3.13281e-05
3.16798e-05
3.1946e-05
3.21005e-05
3.21464e-05
3.21336e-05
3.2114e-05
3.21547e-05
3.2238e-05
3.23964e-05
3.25504e-05
3.27231e-05
3.28401e-05
3.29511e-05
3.31431e-05
3.33376e-05
3.41526e-05
3.45734e-05
3.66463e-05
3.79999e-05
4.50284e-05
5.0288e-05
7.14935e-05
0.000104129
0.000155368
0.000178214
0.000243376
0.000379318
0.000704659
0.00157511
0.00300484
0.00383618
0.00298541
0.00301996
0.00670569
0.00153278
0.000988867
0.001399
0.00123383
0.000731037
0.000528484
0.000659321
0.000851986
0.00103468
0.00117733
0.00127827
0.00131968
0.00132653
0.00121019
0.00103369
0.000890879
0.000809471
0.000761725
0.000730078
0.000689482
0.000627501
0.000558047
0.000491654
0.000433721
0.000367805
0.000313042
0.000272426
0.000251458
0.000233907
0.000225419
0.000210505
0.00017979
0.000149139
0.000120055
0.000107487
9.00195e-05
9.35467e-05
9.54166e-05
0.000104267
7.62898e-05
6.77292e-05
5.86445e-05
4.36815e-05
3.58077e-05
3.73878e-05
4.00202e-05
3.29175e-05
2.42386e-05
1.76861e-05
1.46758e-05
1.38314e-05
1.46385e-05
1.6266e-05
1.79075e-05
1.93276e-05
2.05608e-05
2.15749e-05
2.24199e-05
2.31331e-05
2.37283e-05
2.42415e-05
2.47124e-05
2.51667e-05
2.55659e-05
2.59188e-05
2.61609e-05
2.63063e-05
2.64156e-05
2.65906e-05
2.67929e-05
2.70583e-05
2.72778e-05
2.74527e-05
2.75299e-05
2.75585e-05
2.76418e-05
2.78031e-05
2.87366e-05
2.92219e-05
3.11558e-05
3.16067e-05
3.65605e-05
3.83424e-05
5.4131e-05
8.20986e-05
0.000137322
0.000161695
0.000224536
0.000362253
0.000756886
0.00160824
0.0026957
0.00370257
0.00439431
0.00458252
0.00884343
0.002422
0.00187532
0.001802
0.00151985
0.000983617
0.000533451
0.00050984
0.000704719
0.00088518
0.00102593
0.00112412
0.00118001
0.00119682
0.001134
0.00100918
0.000827056
0.000690169
0.000605353
0.000558336
0.000520487
0.000481101
0.000437892
0.000397743
0.000368939
0.000337939
0.000305743
0.000280153
0.000265906
0.000227588
0.00016126
0.000135089
0.000118265
0.000108756
9.41757e-05
8.54051e-05
8.65515e-05
9.36682e-05
9.42417e-05
0.000100182
7.11203e-05
6.41803e-05
5.1848e-05
4.0377e-05
3.14155e-05
3.04221e-05
3.15499e-05
2.54738e-05
1.86397e-05
1.41826e-05
1.22965e-05
1.16936e-05
1.23084e-05
1.34193e-05
1.45316e-05
1.5485e-05
1.63166e-05
1.70467e-05
1.76792e-05
1.82064e-05
1.87089e-05
1.92174e-05
1.97179e-05
2.02182e-05
2.07009e-05
2.1139e-05
2.14705e-05
2.16739e-05
2.18241e-05
2.2039e-05
2.23157e-05
2.26308e-05
2.2911e-05
2.31346e-05
2.32486e-05
2.32687e-05
2.33551e-05
2.33861e-05
2.42892e-05
2.47046e-05
2.64328e-05
2.63512e-05
2.96551e-05
2.95381e-05
3.79735e-05
5.45907e-05
0.000103408
0.000134053
0.000184702
0.000309283
0.000597662
0.00139034
0.00247118
0.00389453
0.00698834
0.00713436
0.0117
0.00399167
0.00326823
0.00231702
0.00164328
0.00108471
0.000605243
0.000432607
0.000543102
0.000711663
0.000856224
0.000955133
0.00101076
0.0010374
0.00102552
0.000960986
0.000857031
0.000706141
0.000573884
0.000494924
0.000442058
0.000406772
0.00037438
0.000349524
0.000334536
0.000323775
0.000317817
0.000304601
0.000279138
0.000249368
0.000200039
0.000151327
0.000110283
8.53465e-05
7.35039e-05
6.78199e-05
8.30479e-05
9.24793e-05
9.02396e-05
8.03868e-05
5.59463e-05
4.37038e-05
3.74091e-05
3.13803e-05
2.78176e-05
2.56774e-05
2.63369e-05
2.20766e-05
1.63628e-05
1.28497e-05
1.10741e-05
1.04791e-05
1.09346e-05
1.17692e-05
1.26103e-05
1.33124e-05
1.39087e-05
1.44105e-05
1.48421e-05
1.52288e-05
1.56241e-05
1.59917e-05
1.63603e-05
1.6765e-05
1.71855e-05
1.75899e-05
1.79167e-05
1.80891e-05
1.81929e-05
1.83776e-05
1.86938e-05
1.90588e-05
1.93895e-05
1.96583e-05
1.98292e-05
1.98759e-05
1.99746e-05
1.99652e-05
2.07615e-05
2.10928e-05
2.25165e-05
2.22116e-05
2.44089e-05
2.38834e-05
2.76267e-05
3.5863e-05
6.7642e-05
0.000107499
0.000143615
0.000256944
0.000454121
0.00100176
0.00234015
0.00467905
0.00809484
0.00951703
0.0133866
0.00652165
0.00403593
0.00244142
0.00162523
0.00108212
0.000649952
0.000400336
0.000387073
0.00052142
0.000667457
0.00076167
0.000817145
0.000845296
0.000857329
0.000835408
0.000762345
0.000677547
0.000599807
0.000513702
0.000435765
0.000379517
0.000353056
0.000319249
0.000302994
0.000296535
0.00029377
0.00028669
0.000268549
0.000230861
0.000182614
0.00017413
0.000151262
0.000121213
0.000102893
9.92813e-05
8.23031e-05
8.52943e-05
7.64918e-05
6.68802e-05
4.34786e-05
3.22423e-05
2.72288e-05
2.5025e-05
2.36344e-05
2.09683e-05
1.99116e-05
1.70221e-05
1.34438e-05
1.07486e-05
9.1817e-06
8.68359e-06
9.02561e-06
9.66169e-06
1.02738e-05
1.07872e-05
1.12348e-05
1.16366e-05
1.20131e-05
1.23799e-05
1.27679e-05
1.31669e-05
1.35749e-05
1.40165e-05
1.44802e-05
1.49356e-05
1.53263e-05
1.55869e-05
1.57705e-05
1.59978e-05
1.63365e-05
1.66943e-05
1.70332e-05
1.73104e-05
1.75097e-05
1.75778e-05
1.7705e-05
1.77307e-05
1.84188e-05
1.86871e-05
1.98736e-05
1.9553e-05
2.11559e-05
2.07778e-05
2.24709e-05
2.66158e-05
4.3176e-05
8.03872e-05
0.000110383
0.000196947
0.000394346
0.00104132
0.00270133
0.00506058
0.00859003
0.0100895
0.014206
0.00847587
0.00474462
0.00255196
0.00152869
0.000935923
0.000622158
0.00039202
0.000283654
0.000315173
0.000462074
0.000564699
0.000618898
0.000642468
0.000648704
0.000626449
0.000595208
0.000546378
0.000483571
0.000418388
0.000366522
0.000330414
0.000301108
0.000258734
0.000236058
0.000232952
0.000237292
0.00023316
0.000214042
0.000190647
0.000155563
0.000156078
0.000155322
0.000151073
0.000144348
0.000122175
8.28048e-05
7.37531e-05
6.06307e-05
5.82696e-05
4.89522e-05
3.03918e-05
2.00497e-05
1.51747e-05
1.50754e-05
1.34926e-05
1.25717e-05
1.10141e-05
9.19401e-06
7.58761e-06
6.58916e-06
6.26148e-06
6.44622e-06
6.81069e-06
7.16043e-06
7.45734e-06
7.72426e-06
7.97441e-06
8.22171e-06
8.47546e-06
8.74714e-06
9.03818e-06
9.33846e-06
9.65937e-06
1.00001e-05
1.0342e-05
1.06521e-05
1.08868e-05
1.10635e-05
1.1255e-05
1.15351e-05
1.18361e-05
1.21449e-05
1.24019e-05
1.26324e-05
1.27299e-05
1.2897e-05
1.29661e-05
1.3419e-05
1.35605e-05
1.42997e-05
1.40676e-05
1.48093e-05
1.47615e-05
1.58046e-05
1.82573e-05
2.64935e-05
4.5492e-05
7.27742e-05
0.000147427
0.000375792
0.000872403
0.00165427
0.00274086
0.00596369
0.00939946
0.0144928
0.00797804
0.00436074
0.00239604
0.00145134
0.000885311
0.000563846
0.000390612
0.00025719
0.000191762
0.00021377
0.000303827
0.000355445
0.000373067
0.000378706
0.000367178
0.000349355
0.000323762
0.000296329
0.000271882
0.000253052
0.000236302
0.00021633
0.000190263
0.00015808
0.000148752
0.000163668
0.000165853
0.000158617
0.000140456
0.000111647
0.000114801
0.000125809
0.000134042
0.000132362
0.000111893
0.000170802
0.000144959
8.47065e-05
5.77426e-05
3.57057e-05
2.86955e-05
3.24588e-05
4.21784e-05
5.28757e-05
6.91614e-05
7.73794e-05
8.22976e-05
8.25928e-05
8.19689e-05
7.83752e-05
7.59998e-05
7.25684e-05
6.94743e-05
6.58652e-05
6.2849e-05
6.06851e-05
5.9668e-05
5.95119e-05
5.98993e-05
6.07647e-05
6.20074e-05
6.34857e-05
6.51333e-05
6.68828e-05
6.8515e-05
6.99979e-05
7.10453e-05
7.16125e-05
7.18777e-05
7.21506e-05
7.23561e-05
7.30552e-05
7.38012e-05
7.50759e-05
7.54217e-05
7.63386e-05
7.59134e-05
7.68839e-05
7.65154e-05
7.74607e-05
7.56319e-05
7.22312e-05
6.08045e-05
5.67865e-05
7.07939e-05
0.000103785
0.00011828
0.000122273
0.000182602
0.000318034
0.000605774
0.00153279
0.00180611
0.0023788
0.00345384
0.00831462
0.00565963
0.00375235
0.00255086
0.00183812
0.00135737
0.00103087
0.000898024
0.000933386
0.00107125
0.00127875
0.00147542
0.00161987
0.00165179
0.00163879
0.00159479
0.00153306
0.00147057
0.00142323
0.00137658
0.00133821
0.00130173
0.00125918
0.00121625
0.00114506
0.00106539
0.000902931
0.000496412
0.000295077
0.000304354
0.000281518
0.000170066
0.000102021
8.40181e-05
7.89681e-05
6.64156e-05
0.000310458
0.000252721
0.000171813
0.000129601
9.29165e-05
9.50844e-05
0.000114599
0.000130388
0.00013906
0.000155826
0.000162911
0.000166499
0.000162341
0.000155677
0.000149501
0.000146665
0.000145661
0.000145725
0.000145251
0.000144713
0.000144426
0.000144969
0.000146089
0.000147577
0.000149368
0.000151417
0.000153666
0.000156052
0.000158472
0.000160599
0.000162343
0.000163517
0.00016424
0.000164684
0.000165027
0.000165326
0.000165901
0.000166582
0.000167633
0.000168293
0.000169384
0.000170139
0.000171779
0.000173018
0.000174592
0.000173938
0.000168909
0.000155019
0.000145041
0.000163987
0.000219483
0.000255478
0.000246443
0.000382579
0.000747672
0.00155531
0.00340568
0.00397726
0.00400757
0.0035381
0.00249733
0.00218946
0.0029365
0.00252734
0.00183038
0.00193154
0.00199412
0.00214931
0.0023602
0.0025164
0.00256227
0.00255056
0.00251452
0.00242695
0.00229835
0.00211047
0.00194108
0.00180409
0.00172006
0.00166873
0.00158289
0.00152924
0.00143429
0.00133048
0.00123883
0.00112723
0.00101956
0.000749636
0.000555115
0.000503761
0.000452103
0.000297918
0.000156915
0.000114287
0.000101889
7.39291e-05
0.000359638
0.000281948
0.000246357
0.000205716
0.000174217
0.000164822
0.000171029
0.000179865
0.000179651
0.000184994
0.000186978
0.000186316
0.000178022
0.000166606
0.000158573
0.000155771
0.000157153
0.000160775
0.000164633
0.000168251
0.000171382
0.000174398
0.000177023
0.000179298
0.000181309
0.000183158
0.000184964
0.000186776
0.000188571
0.000190213
0.00019147
0.000192283
0.000192808
0.000193125
0.000193348
0.000193574
0.000193896
0.000194371
0.000195179
0.000196103
0.000197177
0.000198192
0.000199298
0.000200813
0.000203071
0.000207214
0.000206094
0.000205292
0.000202685
0.000219677
0.000269574
0.000340631
0.000356613
0.000545998
0.00126792
0.00231488
0.00468818
0.00650138
0.00284788
0.00260315
0.00231817
0.00182535
0.00241325
0.00222718
0.00258623
0.0025951
0.00289564
0.00298026
0.00309404
0.00305874
0.00288708
0.00267887
0.00245564
0.00225879
0.00215866
0.0020216
0.00185708
0.00174258
0.00170236
0.00168064
0.00164569
0.00164058
0.00161518
0.00154714
0.00139982
0.00124828
0.001058
0.000804122
0.000705846
0.000644902
0.000573738
0.000401801
0.000215878
0.000150601
0.000131468
8.61105e-05
0.000466453
0.000345636
0.000308084
0.000287779
0.00025414
0.000227024
0.000216381
0.000215269
0.000207553
0.000205197
0.000205787
0.000199429
0.000185714
0.000171012
0.00016126
0.000158111
0.000160361
0.000165652
0.000171839
0.000177618
0.000182867
0.000187498
0.000191159
0.00019402
0.000196294
0.000198197
0.000199903
0.000201546
0.000203148
0.000204577
0.000205624
0.000206226
0.000206526
0.000206607
0.00020665
0.000206802
0.000207125
0.000207692
0.00020855
0.000209707
0.000210816
0.00021169
0.000212322
0.000213888
0.000217767
0.000228742
0.000241434
0.00025814
0.000260478
0.000274652
0.000317449
0.00041555
0.000534294
0.000745004
0.00203025
0.00368665
0.00544625
0.00628416
0.0025065
0.00245513
0.00269732
0.00207863
0.00231042
0.002631
0.00321659
0.00340608
0.00358181
0.0036251
0.00363908
0.00349431
0.00320398
0.00286728
0.00250307
0.00225959
0.00212388
0.00187923
0.00164024
0.00151166
0.00148376
0.00149421
0.00157681
0.00163852
0.0016136
0.00154398
0.00139635
0.0012288
0.00100012
0.00077838
0.000760481
0.000715465
0.00061791
0.000401125
0.000220438
0.000164284
0.000144819
9.43207e-05
0.000611358
0.000386978
0.000340749
0.000328058
0.000311552
0.000278393
0.000251056
0.000242017
0.000230839
0.00022455
0.000225092
0.000213461
0.000194676
0.000174041
0.000162421
0.000158707
0.000161198
0.000167076
0.000174056
0.000180742
0.000187416
0.000193024
0.000197347
0.00020064
0.000203154
0.000205169
0.000206897
0.000208533
0.000210132
0.000211542
0.000212553
0.000213054
0.000213196
0.000213101
0.000213022
0.000213171
0.000213588
0.000214426
0.000215541
0.000217028
0.000218204
0.000219275
0.0002202
0.00022332
0.000230875
0.000248894
0.000275682
0.000303758
0.000314476
0.000313899
0.00033181
0.000441183
0.000666946
0.00125781
0.00331518
0.00529323
0.00565422
0.00606016
0.00188797
0.00186488
0.00263921
0.00215155
0.002671
0.00330178
0.00393464
0.0042053
0.00436527
0.00443224
0.00441603
0.00426686
0.00386486
0.00336981
0.00277045
0.0023473
0.00212057
0.00189072
0.0016329
0.00147738
0.00142882
0.0014472
0.00150076
0.00154091
0.00153572
0.00146444
0.00130173
0.0010606
0.00082407
0.000799505
0.000818223
0.00076677
0.000610869
0.000355987
0.000213798
0.000177331
0.000170917
0.000113744
0.000776557
0.000415582
0.000359493
0.000347491
0.000337604
0.000323781
0.000287098
0.000267118
0.000247244
0.000234843
0.0002354
0.000220066
0.000198014
0.000173347
0.000154873
0.000147941
0.00015121
0.000159233
0.000169334
0.000179319
0.0001875
0.000193652
0.000198386
0.000201979
0.00020466
0.000206744
0.000208493
0.000210135
0.000211742
0.00021316
0.000214149
0.000214576
0.000214604
0.000214387
0.000214221
0.000214354
0.000214789
0.000215709
0.000216868
0.000218443
0.000219602
0.000220729
0.000221777
0.000225513
0.00023472
0.000255534
0.00028999
0.000320531
0.000337635
0.000340339
0.000348768
0.000441609
0.000684034
0.0013396
0.00352278
0.00516203
0.00524546
0.00530855
0.00167648
0.00166176
0.00276195
0.00240176
0.00314243
0.00386831
0.00441906
0.00464421
0.00476045
0.00486353
0.00490864
0.00492764
0.00468921
0.00413705
0.00328759
0.00259341
0.00225372
0.00207635
0.00180457
0.00156355
0.00139016
0.00129638
0.00127385
0.00127773
0.00122777
0.00112688
0.00101012
0.000947775
0.000907882
0.000940557
0.000900363
0.000751217
0.000518525
0.000327641
0.000221824
0.000186594
0.000184012
0.000122776
0.000706222
0.000424577
0.000373589
0.000363431
0.000349761
0.000345949
0.000314592
0.000284234
0.000257368
0.000239309
0.000239113
0.000221688
0.00019608
0.00015952
0.000138074
0.000130369
0.000133962
0.00014163
0.000150731
0.00015995
0.000168572
0.00017602
0.000182006
0.000186527
0.000189714
0.000191945
0.000193624
0.000195145
0.000196577
0.00019777
0.000198348
0.00019817
0.000197449
0.000196467
0.000195766
0.000195613
0.00019574
0.000196504
0.000197367
0.000198846
0.000199659
0.000200696
0.000202079
0.000207262
0.00022191
0.000246815
0.000290027
0.000310857
0.000324783
0.000344945
0.000370611
0.000432616
0.000604198
0.0011511
0.00240093
0.004043
0.00544094
0.00560692
0.00165034
0.00163273
0.00284805
0.00248041
0.00327257
0.00399184
0.00440788
0.00454305
0.00461711
0.00479871
0.00500595
0.00516722
0.0052087
0.00509547
0.00436218
0.00322428
0.00264068
0.00233192
0.00216627
0.00195873
0.00176481
0.00159825
0.00147318
0.00142024
0.0013697
0.00134621
0.00138821
0.00160355
0.00173206
0.00172571
0.00152536
0.00125019
0.000983858
0.000698668
0.000399293
0.000316555
0.000271663
0.000145776
0.000550048
0.000425261
0.000363281
0.000348427
0.000342379
0.000345045
0.000319453
0.00028709
0.000259448
0.000239113
0.000238114
0.000216447
0.000182752
0.000139938
0.000112282
0.000102488
0.000108481
0.000119384
0.000130754
0.000141254
0.000149949
0.00015669
0.000161818
0.000165605
0.000168156
0.000169807
0.000170907
0.000171726
0.00017208
0.000171996
0.000171235
0.000169861
0.000168251
0.000166543
0.000164646
0.000162932
0.000161586
0.000160772
0.000159981
0.00015992
0.000159327
0.0001596
0.000160076
0.000163029
0.00017461
0.000192202
0.000232055
0.000242087
0.000234471
0.000271966
0.000350142
0.000430178
0.000600584
0.00147377
0.00371021
0.00465859
0.00547168
0.0063308
0.00182071
0.00180069
0.00265386
0.00228484
0.00286837
0.00317448
0.00337501
0.00323899
0.00326001
0.00339974
0.00386632
0.00454818
0.00524765
0.00555239
0.00522583
0.00447191
0.00343101
0.0028721
0.0026184
0.00250652
0.00245482
0.00243651
0.00243686
0.00247056
0.00253474
0.00261897
0.00266793
0.00268798
0.00254878
0.00234378
0.00200685
0.00170814
0.00137249
0.00103072
0.000817954
0.000733215
0.000712053
0.000609855
0.000405669
0.000428935
0.000325692
0.000296817
0.000292691
0.000298138
0.000295476
0.00027661
0.000257089
0.000233179
0.000229873
0.000203408
0.000164787
0.000112673
8.21508e-05
7.12498e-05
7.30642e-05
7.89644e-05
8.60419e-05
9.31936e-05
0.000100268
0.000106753
0.000111883
0.000115602
0.000117986
0.00011932
0.000120096
0.000120758
0.000121408
0.000121743
0.000121172
0.000119938
0.000118248
0.000116583
0.000115056
0.000114199
0.000113449
0.000113321
0.000112831
0.000113235
0.000112261
0.000113112
0.000113384
0.000116342
0.000125763
0.000138922
0.000171299
0.000182707
0.000166917
0.00018989
0.00025354
0.000307265
0.000387775
0.000734822
0.00211239
0.00391828
0.00626429
0.00706161
0.00241528
0.00235066
0.00259872
0.00183912
0.00199296
0.00212196
0.00210386
0.00157163
0.00141131
0.00148475
0.00179713
0.00233031
0.00289264
0.00379506
0.00475435
0.00511156
0.00441552
0.00363937
0.00309571
0.00284888
0.00273093
0.00265472
0.0025759
0.00252571
0.00249195
0.00242196
0.00233936
0.00222409
0.00207392
0.00187272
0.00162816
0.00136214
0.00109935
0.000978639
0.000932252
0.000862364
0.000717234
0.000372398
0.000369759
0.000387497
0.000308215
0.000269534
0.000213615
0.000208224
0.000218206
0.000212387
0.000204181
0.000195252
0.000196778
0.000168558
0.000130042
8.807e-05
6.50021e-05
5.76363e-05
5.78979e-05
6.11818e-05
6.53984e-05
7.02204e-05
7.55346e-05
7.8924e-05
8.15824e-05
8.36936e-05
8.51095e-05
8.59067e-05
8.65215e-05
8.73214e-05
8.79739e-05
8.83026e-05
8.79562e-05
8.71628e-05
8.61436e-05
8.53713e-05
8.46846e-05
8.42813e-05
8.37553e-05
8.35213e-05
8.3096e-05
8.30847e-05
8.22133e-05
8.25072e-05
8.29559e-05
8.44347e-05
9.01235e-05
9.44867e-05
0.000111227
0.000113366
0.00010531
0.000119434
0.000168419
0.000221082
0.000330158
0.000605295
0.00141022
0.00313353
0.00600741
0.00711411
0.00316382
0.0030607
0.00251927
0.00190927
0.00210517
0.00229168
0.0019832
0.00124669
0.000953669
0.000971026
0.00114034
0.00158155
0.00202035
0.00248163
0.00299184
0.00367746
0.00398789
0.00362192
0.00304762
0.00271066
0.002514
0.00240421
0.00228537
0.00216495
0.00204432
0.00189198
0.00172575
0.00155267
0.00141674
0.00129525
0.00117999
0.00100584
0.000712096
0.000509469
0.00043746
0.000407307
0.000297518
0.000152408
0.000321157
0.000337104
0.000300816
0.000269771
0.000174856
0.00015401
0.000147811
0.000149688