/*--------------------------------*- C++ -*----------------------------------*\
| =========                 |                                                 |
| \\      /  F ield         | OpenFOAM: The Open Source CFD Toolbox           |
|  \\    /   O peration     | Version:  2.3.0                                 |
|   \\  /    A nd           | Web:      www.OpenFOAM.org                      |
|    \\/     M anipulation  |                                                 |
\*---------------------------------------------------------------------------*/
FoamFile
{
    version     2.0;
    format      ascii;
    class       volScalarField;
    location    "33";
    object      nut.water;
}
// * * * * * * * * * * * * * * * * * * * * * * * * * * * * * * * * * * * * * //

dimensions      [0 2 -1 0 0 0 0];

internalField   nonuniform List<scalar> 
6144
(
1.28355e-05
1.15717e-05
9.75693e-06
8.85662e-06
7.43314e-06
6.63017e-06
6.11276e-06
6.14397e-06
6.29924e-06
6.7904e-06
7.15654e-06
7.44264e-06
7.55265e-06
7.5757e-06
7.44541e-06
7.35914e-06
7.22299e-06
7.12333e-06
7.04078e-06
7.00955e-06
6.98668e-06
6.98088e-06
6.98652e-06
6.99765e-06
7.01418e-06
7.03518e-06
7.05915e-06
7.08463e-06
7.11226e-06
7.1629e-06
7.22382e-06
7.26904e-06
7.2976e-06
7.30881e-06
7.32401e-06
7.32983e-06
7.36203e-06
7.38384e-06
7.44822e-06
7.45592e-06
7.5125e-06
7.47354e-06
7.51507e-06
7.45215e-06
7.46899e-06
7.40209e-06
7.27501e-06
7.30497e-06
8.16366e-06
9.99192e-06
1.22164e-05
1.39905e-05
1.54923e-05
2.01138e-05
2.71518e-05
3.63031e-05
4.74994e-05
5.51741e-05
8.13349e-05
9.2959e-05
0.000168093
0.000121993
0.000100643
7.72692e-05
6.50867e-05
5.42282e-05
4.61022e-05
4.12134e-05
4.08923e-05
4.24069e-05
4.55981e-05
4.92506e-05
5.26243e-05
5.65276e-05
6.00552e-05
6.29815e-05
6.50329e-05
6.62995e-05
6.70264e-05
6.71392e-05
6.67777e-05
6.5876e-05
6.47155e-05
6.21948e-05
5.92967e-05
5.54383e-05
4.44645e-05
2.53764e-05
1.85309e-05
1.95876e-05
1.96033e-05
1.84923e-05
1.77254e-05
1.73093e-05
1.59131e-05
1.2772e-05
1.55831e-05
1.40233e-05
1.22656e-05
1.14497e-05
9.75128e-06
9.34589e-06
9.2258e-06
9.34403e-06
9.45572e-06
9.96627e-06
1.03265e-05
1.06178e-05
1.06525e-05
1.05485e-05
1.03527e-05
1.02539e-05
1.01715e-05
1.01676e-05
1.01947e-05
1.02922e-05
1.03745e-05
1.04566e-05
1.05321e-05
1.06002e-05
1.06635e-05
1.07246e-05
1.07857e-05
1.0847e-05
1.09102e-05
1.10083e-05
1.11039e-05
1.11784e-05
1.12369e-05
1.12804e-05
1.13246e-05
1.13595e-05
1.14165e-05
1.14577e-05
1.15376e-05
1.15633e-05
1.1648e-05
1.16507e-05
1.17535e-05
1.17488e-05
1.18173e-05
1.17601e-05
1.14881e-05
1.13128e-05
1.18605e-05
1.39714e-05
1.61311e-05
1.90763e-05
2.08622e-05
2.70984e-05
3.6447e-05
4.89321e-05
6.67435e-05
6.90372e-05
7.70239e-05
8.02131e-05
0.000140974
7.67623e-05
5.95341e-05
5.27785e-05
4.52343e-05
4.75218e-05
4.93816e-05
5.09917e-05
5.35814e-05
5.53382e-05
5.75699e-05
6.10905e-05
6.50712e-05
6.87088e-05
7.13305e-05
7.32194e-05
7.42508e-05
7.48131e-05
7.4472e-05
7.40859e-05
7.30397e-05
7.15631e-05
7.01142e-05
6.7273e-05
6.4234e-05
6.08931e-05
5.19015e-05
3.29345e-05
2.48253e-05
2.60594e-05
2.63287e-05
2.40031e-05
2.16416e-05
2.03908e-05
1.88014e-05
1.33344e-05
1.65114e-05
1.50245e-05
1.39394e-05
1.35926e-05
1.22323e-05
1.18305e-05
1.16974e-05
1.11892e-05
1.08255e-05
1.11152e-05
1.14069e-05
1.15159e-05
1.1353e-05
1.11516e-05
1.10266e-05
1.1015e-05
1.10979e-05
1.129e-05
1.15311e-05
1.17467e-05
1.19263e-05
1.20857e-05
1.22191e-05
1.2332e-05
1.24311e-05
1.25218e-05
1.26093e-05
1.26956e-05
1.27808e-05
1.28639e-05
1.29399e-05
1.30042e-05
1.3063e-05
1.31133e-05
1.31608e-05
1.32028e-05
1.32448e-05
1.32766e-05
1.33274e-05
1.33703e-05
1.34518e-05
1.35133e-05
1.36256e-05
1.36764e-05
1.37716e-05
1.38622e-05
1.37704e-05
1.37832e-05
1.4562e-05
1.67692e-05
1.85519e-05
2.24934e-05
2.44336e-05
3.22678e-05
4.71479e-05
6.17725e-05
8.16018e-05
9.71281e-05
7.86351e-05
8.1195e-05
0.000126195
6.57581e-05
5.58596e-05
5.94256e-05
6.19728e-05
6.34697e-05
6.49924e-05
6.44848e-05
6.49826e-05
6.47018e-05
6.48885e-05
6.53241e-05
6.54407e-05
6.53551e-05
6.51608e-05
6.41911e-05
6.35163e-05
6.33145e-05
6.37041e-05
6.45476e-05
6.58224e-05
6.69551e-05
6.86197e-05
6.78577e-05
6.63202e-05
6.40279e-05
5.53928e-05
3.70582e-05
3.1667e-05
3.34309e-05
3.35354e-05
3.00993e-05
2.64936e-05
2.42539e-05
2.19365e-05
1.45088e-05
1.72277e-05
1.56265e-05
1.47184e-05
1.48623e-05
1.37683e-05
1.33449e-05
1.27881e-05
1.20695e-05
1.1445e-05
1.15159e-05
1.17877e-05
1.18434e-05
1.16359e-05
1.14132e-05
1.13165e-05
1.13438e-05
1.15017e-05
1.17419e-05
1.19982e-05
1.2231e-05
1.24405e-05
1.26274e-05
1.27835e-05
1.29146e-05
1.30296e-05
1.31348e-05
1.3236e-05
1.33361e-05
1.34356e-05
1.35319e-05
1.36203e-05
1.36973e-05
1.37668e-05
1.38274e-05
1.38852e-05
1.39398e-05
1.39942e-05
1.40445e-05
1.41113e-05
1.41816e-05
1.42858e-05
1.43674e-05
1.44861e-05
1.45341e-05
1.46619e-05
1.48547e-05
1.51733e-05
1.59646e-05
1.68264e-05
1.82716e-05
2.03551e-05
2.58831e-05
3.01468e-05
3.7543e-05
6.10505e-05
8.14668e-05
9.58232e-05
0.000105241
8.12828e-05
8.45917e-05
0.000121515
7.26188e-05
6.89674e-05
7.52294e-05
7.70853e-05
7.82199e-05
7.88602e-05
7.77618e-05
7.66036e-05
7.42582e-05
7.13286e-05
6.85275e-05
6.52678e-05
6.20383e-05
5.85553e-05
5.59064e-05
5.39654e-05
5.2614e-05
5.23748e-05
5.28095e-05
5.40854e-05
5.76604e-05
6.14837e-05
6.2671e-05
6.35932e-05
6.38481e-05
5.52885e-05
3.93221e-05
3.79298e-05
3.99684e-05
3.88043e-05
3.39253e-05
3.00715e-05
2.73202e-05
2.47145e-05
1.51919e-05
1.81001e-05
1.60342e-05
1.50166e-05
1.52905e-05
1.44961e-05
1.42937e-05
1.30286e-05
1.25001e-05
1.21015e-05
1.1927e-05
1.21313e-05
1.19883e-05
1.16533e-05
1.13659e-05
1.12958e-05
1.13644e-05
1.15796e-05
1.18796e-05
1.21966e-05
1.2492e-05
1.27726e-05
1.30104e-05
1.32027e-05
1.33576e-05
1.34869e-05
1.36017e-05
1.37075e-05
1.38098e-05
1.39113e-05
1.40087e-05
1.40978e-05
1.41744e-05
1.42412e-05
1.42995e-05
1.43555e-05
1.44131e-05
1.44743e-05
1.45431e-05
1.46251e-05
1.47251e-05
1.48424e-05
1.49402e-05
1.50485e-05
1.51233e-05
1.53295e-05
1.58023e-05
1.67508e-05
1.81371e-05
1.91491e-05
1.97751e-05
2.21094e-05
2.85579e-05
3.5939e-05
4.72597e-05
7.38753e-05
9.55028e-05
0.000102917
0.000105541
8.48155e-05
8.92909e-05
0.000113179
8.03868e-05
8.05655e-05
8.65698e-05
8.8693e-05
9.00042e-05
9.08401e-05
9.11006e-05
9.01072e-05
8.72633e-05
8.17273e-05
7.65901e-05
7.11534e-05
6.56754e-05
5.98674e-05
5.45293e-05
5.14459e-05
4.99431e-05
4.98849e-05
5.17064e-05
5.54538e-05
5.84586e-05
6.08021e-05
6.21678e-05
6.37805e-05
6.01836e-05
4.7467e-05
4.29818e-05
4.55306e-05
4.59547e-05
4.22352e-05
3.64278e-05
3.26229e-05
2.97687e-05
2.75087e-05
1.67235e-05
1.84648e-05
1.64373e-05
1.51531e-05
1.55991e-05
1.5004e-05
1.52574e-05
1.37546e-05
1.30847e-05
1.25441e-05
1.2149e-05
1.23728e-05
1.20544e-05
1.16499e-05
1.12879e-05
1.11051e-05
1.11496e-05
1.14297e-05
1.18346e-05
1.22764e-05
1.26789e-05
1.30187e-05
1.32889e-05
1.35027e-05
1.36735e-05
1.38132e-05
1.39335e-05
1.40423e-05
1.41472e-05
1.42518e-05
1.43532e-05
1.44454e-05
1.45252e-05
1.45957e-05
1.46579e-05
1.47175e-05
1.47812e-05
1.48522e-05
1.49404e-05
1.50439e-05
1.51695e-05
1.52976e-05
1.54092e-05
1.55146e-05
1.5628e-05
1.59046e-05
1.66252e-05
1.80312e-05
1.9791e-05
2.0972e-05
2.13668e-05
2.37978e-05
3.03754e-05
3.85039e-05
5.03017e-05
7.54432e-05
9.68897e-05
0.000103505
0.000105812
8.92401e-05
9.39903e-05
0.000112717
8.66144e-05
8.83591e-05
9.40736e-05
9.598e-05
9.80598e-05
9.92806e-05
0.000100327
0.000100408
9.98113e-05
9.5559e-05
8.79003e-05
8.13699e-05
7.53612e-05
6.96282e-05
6.31544e-05
5.88247e-05
5.65862e-05
5.58472e-05
5.6511e-05
5.75399e-05
5.88259e-05
6.01929e-05
6.00204e-05
5.84481e-05
5.35922e-05
4.96257e-05
5.14863e-05
5.26659e-05
4.9275e-05
4.34555e-05
3.86958e-05
3.5163e-05
3.23811e-05
3.02519e-05
1.77152e-05
1.73723e-05
1.66407e-05
1.51819e-05
1.59111e-05
1.51706e-05
1.57541e-05
1.46045e-05
1.36389e-05
1.29612e-05
1.24261e-05
1.26425e-05
1.21508e-05
1.15527e-05
1.09207e-05
1.0735e-05
1.08032e-05
1.1103e-05
1.14963e-05
1.19276e-05
1.23565e-05
1.27356e-05
1.30539e-05
1.33085e-05
1.35055e-05
1.36559e-05
1.37747e-05
1.38759e-05
1.39717e-05
1.40691e-05
1.4167e-05
1.42586e-05
1.43326e-05
1.43894e-05
1.44356e-05
1.44816e-05
1.45444e-05
1.46182e-05
1.47184e-05
1.48302e-05
1.49699e-05
1.50855e-05
1.52004e-05
1.52712e-05
1.54568e-05
1.58569e-05
1.69375e-05
1.87894e-05
2.05204e-05
2.18475e-05
2.27014e-05
2.5337e-05
3.0792e-05
3.87534e-05
5.18879e-05
7.09497e-05
9.04577e-05
0.000112154
0.000117491
9.29461e-05
9.80031e-05
0.000120633
8.99125e-05
9.03418e-05
9.62396e-05
9.84728e-05
0.000101832
0.000104251
0.000106198
0.000107539
0.000109013
0.000108199
0.000103028
9.39553e-05
8.92162e-05
8.38442e-05
7.83233e-05
7.36124e-05
6.9657e-05
6.67266e-05
6.47425e-05
6.3637e-05
6.33828e-05
6.30418e-05
6.2466e-05
6.17994e-05
6.30102e-05
6.69096e-05
6.8548e-05
6.38065e-05
5.689e-05
5.11275e-05
4.72558e-05
4.17502e-05
3.68354e-05
3.38679e-05
1.90522e-05
1.62024e-05
1.63995e-05
1.4693e-05
1.54408e-05
1.47186e-05
1.55042e-05
1.46735e-05
1.35024e-05
1.31732e-05
1.27421e-05
1.30616e-05
1.24829e-05
1.17967e-05
1.0979e-05
1.05515e-05
1.05777e-05
1.09869e-05
1.15039e-05
1.20184e-05
1.24968e-05
1.29086e-05
1.32513e-05
1.35295e-05
1.37503e-05
1.39243e-05
1.4068e-05
1.41941e-05
1.43128e-05
1.4426e-05
1.45342e-05
1.46304e-05
1.47068e-05
1.47682e-05
1.48218e-05
1.48717e-05
1.49338e-05
1.50079e-05
1.51074e-05
1.52161e-05
1.5354e-05
1.54675e-05
1.55964e-05
1.56856e-05
1.58985e-05
1.63309e-05
1.72896e-05
1.90201e-05
2.04709e-05
2.18736e-05
2.39853e-05
2.79958e-05
3.33796e-05
4.15962e-05
5.96832e-05
9.23953e-05
0.000107091
0.000122992
0.000132409
0.000100404
0.000104862
0.000133818
8.63278e-05
8.19538e-05
8.36259e-05
8.64831e-05
9.10287e-05
9.89743e-05
0.000105124
0.000111397
0.000115624
0.000118342
0.000116851
0.000111849
0.000104711
9.93271e-05
9.69231e-05
9.47048e-05
9.28035e-05
9.09367e-05
8.97674e-05
8.92776e-05
8.9105e-05
8.9421e-05
9.01135e-05
9.0748e-05
9.09402e-05
8.69607e-05
8.19436e-05
7.51943e-05
6.8851e-05
6.25885e-05
5.53374e-05
4.96645e-05
4.48894e-05
3.963e-05
2.02723e-05
1.50715e-05
1.54675e-05
1.42038e-05
1.47024e-05
1.37516e-05
1.42352e-05
1.33947e-05
1.22915e-05
1.24647e-05
1.2257e-05
1.25905e-05
1.19559e-05
1.11069e-05
9.87765e-06
9.06592e-06
8.96576e-06
9.41852e-06
9.97787e-06
1.04821e-05
1.09199e-05
1.1293e-05
1.16095e-05
1.18665e-05
1.20683e-05
1.22243e-05
1.23493e-05
1.24568e-05
1.25553e-05
1.26452e-05
1.27237e-05
1.27813e-05
1.28195e-05
1.28447e-05
1.28684e-05
1.28909e-05
1.29288e-05
1.29742e-05
1.30401e-05
1.31051e-05
1.32003e-05
1.32598e-05
1.336e-05
1.34207e-05
1.36014e-05
1.3961e-05
1.46838e-05
1.61943e-05
1.7372e-05
1.89685e-05
2.18771e-05
2.60495e-05
2.97722e-05
3.467e-05
4.57455e-05
7.27338e-05
9.09812e-05
0.000113588
0.000128168
9.25386e-05
9.37231e-05
0.000137306
7.33688e-05
6.35639e-05
6.56079e-05
6.10627e-05
6.08156e-05
6.57931e-05
7.58216e-05
8.30907e-05
9.13749e-05
9.7346e-05
0.000101172
0.000103219
9.95902e-05
9.46383e-05
9.15325e-05
9.05203e-05
8.99849e-05
8.93271e-05
8.87829e-05
8.82222e-05
8.70042e-05
8.62577e-05
8.4685e-05
8.31841e-05
8.01811e-05
7.5575e-05
7.04116e-05
6.56165e-05
6.10386e-05
5.59158e-05
5.01865e-05
4.54246e-05
3.9963e-05
3.49927e-05
2.08617e-05
1.42165e-05
1.43391e-05
1.39613e-05
1.44134e-05
1.31067e-05
1.3139e-05
1.2498e-05
1.13308e-05
1.11009e-05
1.11921e-05
1.15874e-05
1.10041e-05
1.00053e-05
8.65624e-06
7.72066e-06
7.49731e-06
7.8578e-06
8.39568e-06
8.85636e-06
9.24483e-06
9.58798e-06
9.85723e-06
1.00752e-05
1.02508e-05
1.03878e-05
1.04993e-05
1.05979e-05
1.06887e-05
1.07697e-05
1.08392e-05
1.08933e-05
1.09332e-05
1.09657e-05
1.10036e-05
1.10425e-05
1.10939e-05
1.11421e-05
1.12009e-05
1.12521e-05
1.13165e-05
1.13762e-05
1.14591e-05
1.15724e-05
1.17298e-05
1.20673e-05
1.25639e-05
1.37704e-05
1.47554e-05
1.70108e-05
2.02339e-05
2.4388e-05
2.67227e-05
3.07697e-05
3.89777e-05
5.39672e-05
7.31906e-05
0.0001075
0.000120639
9.28894e-05
9.37034e-05
0.000150637
7.34861e-05
6.01074e-05
7.04369e-05
5.75349e-05
5.35608e-05
5.15365e-05
6.07394e-05
6.79786e-05
7.56444e-05
8.15621e-05
8.58313e-05
8.81832e-05
8.91808e-05
8.62223e-05
8.23925e-05
8.06211e-05
8.03985e-05
8.00891e-05
7.98743e-05
7.86781e-05
7.74568e-05
7.5425e-05
7.30081e-05
6.96304e-05
6.55005e-05
6.1633e-05
5.77313e-05
5.45105e-05
5.15301e-05
4.80068e-05
4.3942e-05
4.03289e-05
3.59358e-05
3.07058e-05
1.85878e-05
1.37428e-05
1.37919e-05
1.37957e-05
1.42832e-05
1.26763e-05
1.22432e-05
1.14461e-05
1.04291e-05
9.873e-06
1.00241e-05
1.02868e-05
9.61991e-06
8.65468e-06
7.44709e-06
6.64409e-06
6.35425e-06
6.56942e-06
7.02185e-06
7.42855e-06
7.7639e-06
8.05733e-06
8.28915e-06
8.47782e-06
8.6311e-06
8.75577e-06
8.86074e-06
8.95647e-06
9.04838e-06
9.12821e-06
9.19224e-06
9.24081e-06
9.281e-06
9.3202e-06
9.36819e-06
9.4225e-06
9.48785e-06
9.55269e-06
9.62036e-06
9.68005e-06
9.73894e-06
9.81003e-06
9.8816e-06
1.00451e-05
1.01505e-05
1.04961e-05
1.07351e-05
1.17365e-05
1.24555e-05
1.49131e-05
1.80663e-05
2.21203e-05
2.37776e-05
2.78972e-05
3.5045e-05
4.80463e-05
7.19471e-05
9.95004e-05
0.000113347
0.000100506
0.000102549
0.000165888
8.15674e-05
6.57338e-05
7.50565e-05
7.06119e-05
5.52311e-05
4.68306e-05
5.20886e-05
5.93039e-05
6.63982e-05
7.1493e-05
7.53493e-05
7.74005e-05
7.86676e-05
7.65978e-05
7.23725e-05
6.83957e-05
6.60665e-05
6.47989e-05
6.39126e-05
6.24295e-05
5.98379e-05
5.67322e-05
5.34962e-05
5.02372e-05
4.6363e-05
4.28561e-05
3.99455e-05
3.81097e-05
3.64942e-05
3.58972e-05
3.44674e-05
3.17136e-05
2.87727e-05
2.54704e-05
1.64681e-05
1.33419e-05
1.36716e-05
1.38653e-05
1.4553e-05
1.24971e-05
1.18269e-05
1.10442e-05
9.56855e-06
8.70445e-06
8.93204e-06
9.28103e-06
8.45253e-06
7.28325e-06
6.24601e-06
5.71207e-06
5.56723e-06
5.75037e-06
6.08614e-06
6.41151e-06
6.68747e-06
6.92493e-06
7.12168e-06
7.28839e-06
7.43245e-06
7.55686e-06
7.66785e-06
7.77196e-06
7.87333e-06
7.96601e-06
8.05147e-06
8.11969e-06
8.1731e-06
8.22103e-06
8.27934e-06
8.34204e-06
8.41463e-06
8.48015e-06
8.53883e-06
8.58247e-06
8.61864e-06
8.66355e-06
8.72068e-06
8.89855e-06
9.00596e-06
9.33329e-06
9.43508e-06
1.0185e-05
1.04698e-05
1.24939e-05
1.54398e-05
1.99841e-05
2.17314e-05
2.56724e-05
3.27787e-05
4.75361e-05
6.9483e-05
9.0118e-05
0.000106419
0.000116288
0.000120372
0.00017907
9.73269e-05
8.58278e-05
7.90733e-05
7.48781e-05
6.01401e-05
4.48811e-05
4.34079e-05
5.09082e-05
5.79124e-05
6.30987e-05
6.68183e-05
6.89518e-05
7.00173e-05
6.88469e-05
6.59192e-05
6.07455e-05
5.63496e-05
5.34671e-05
5.18019e-05
5.03268e-05
4.85228e-05
4.63318e-05
4.41503e-05
4.23833e-05
4.04169e-05
3.82784e-05
3.63866e-05
3.47987e-05
3.15484e-05
2.73322e-05
2.63387e-05
2.50164e-05
2.38612e-05
2.17556e-05
1.49255e-05
1.30827e-05
1.36663e-05
1.37515e-05
1.42187e-05
1.20176e-05
1.14561e-05
1.03225e-05
9.13664e-06
8.08542e-06
7.98235e-06
8.15718e-06
7.35425e-06
6.31114e-06
5.52229e-06
5.158e-06
5.04568e-06
5.19269e-06
5.43905e-06
5.6778e-06
5.87945e-06
6.05409e-06
6.20722e-06
6.34083e-06
6.45448e-06
6.56309e-06
6.67206e-06
6.77901e-06
6.88534e-06
6.98815e-06
7.083e-06
7.15969e-06
7.21504e-06
7.26166e-06
7.31918e-06
7.38695e-06
7.461e-06
7.52922e-06
7.58815e-06
7.6292e-06
7.65491e-06
7.69171e-06
7.71934e-06
7.89029e-06
7.98077e-06
8.27922e-06
8.29074e-06
8.82068e-06
8.82967e-06
1.00518e-05
1.20932e-05
1.66506e-05
1.89745e-05
2.23026e-05
2.89627e-05
4.03409e-05
6.17315e-05
8.26143e-05
0.000104218
0.00013951
0.00014143
0.00019641
0.000114801
0.000105001
8.51238e-05
7.42703e-05
6.00243e-05
4.55979e-05
3.79823e-05
4.22252e-05
4.87263e-05
5.41713e-05
5.79445e-05
6.0056e-05
6.10991e-05
6.10075e-05
5.92291e-05
5.63029e-05
5.17022e-05
4.72073e-05
4.43425e-05
4.23185e-05
4.08318e-05
3.92948e-05
3.79796e-05
3.71422e-05
3.64996e-05
3.60815e-05
3.50984e-05
3.31745e-05
3.06774e-05
2.64993e-05
2.44206e-05
2.18953e-05
1.96714e-05
1.79022e-05
1.23112e-05
1.2816e-05
1.35589e-05
1.34231e-05
1.27045e-05
1.06231e-05
9.40717e-06
8.71454e-06
7.99706e-06
7.54642e-06
7.26654e-06
7.37638e-06
6.7698e-06
5.84178e-06
5.18873e-06
4.82778e-06
4.70657e-06
4.81844e-06
5.01018e-06
5.19779e-06
5.35254e-06
5.48333e-06
5.59376e-06
5.68949e-06
5.7759e-06
5.86324e-06
5.9448e-06
6.0261e-06
6.11353e-06
6.2032e-06
6.28937e-06
6.36116e-06
6.40539e-06
6.4376e-06
6.48422e-06
6.55391e-06
6.63176e-06
6.70335e-06
6.76404e-06
6.80781e-06
6.83034e-06
6.86195e-06
6.87501e-06
7.026e-06
7.09701e-06
7.34813e-06
7.31384e-06
7.68345e-06
7.6161e-06
8.21541e-06
9.38619e-06
1.29082e-05
1.62639e-05
1.88101e-05
2.52518e-05
3.35858e-05
4.99554e-05
7.66454e-05
0.000109046
0.000143878
0.000156096
0.000200111
0.000133493
0.000108446
8.17945e-05
6.99929e-05
5.72362e-05
4.49136e-05
3.49772e-05
3.36284e-05
3.89679e-05
4.45384e-05
4.82895e-05
5.05916e-05
5.1794e-05
5.21933e-05
5.14452e-05
4.9055e-05
4.61578e-05
4.34749e-05
4.05173e-05
3.77516e-05
3.56838e-05
3.46616e-05
3.3198e-05
3.24784e-05
3.22426e-05
3.23261e-05
3.19729e-05
3.05361e-05
2.77621e-05
2.41757e-05
2.38052e-05
2.30018e-05
2.0578e-05
1.84546e-05
1.47009e-05
1.2741e-05
1.2979e-05
1.23088e-05
1.15424e-05
9.32434e-06
8.03763e-06
7.39451e-06
7.08772e-06
6.89835e-06
6.50599e-06
6.34839e-06
5.87866e-06
5.23184e-06
4.68435e-06
4.33496e-06
4.22104e-06
4.30889e-06
4.46404e-06
4.60939e-06
4.72938e-06
4.83281e-06
4.92487e-06
5.01041e-06
5.09292e-06
5.1788e-06
5.26585e-06
5.35369e-06
5.44707e-06
5.54354e-06
5.63721e-06
5.71765e-06
5.77327e-06
5.81454e-06
5.86382e-06
5.93314e-06
6.00537e-06
6.07368e-06
6.13062e-06
6.17356e-06
6.19335e-06
6.22365e-06
6.23611e-06
6.36432e-06
6.41877e-06
6.62783e-06
6.5825e-06
6.85587e-06
6.80262e-06
7.08526e-06
7.72426e-06
9.84619e-06
1.34324e-05
1.57261e-05
2.10511e-05
2.98297e-05
4.8545e-05
7.82581e-05
0.000107582
0.000140594
0.000152398
0.000194539
0.000142179
0.000111324
8.00818e-05
6.4282e-05
5.10128e-05
4.17017e-05
3.35163e-05
2.79697e-05
2.81861e-05
3.40801e-05
3.83863e-05
4.09157e-05
4.21091e-05
4.24794e-05
4.16889e-05
4.03466e-05
3.83803e-05
3.59378e-05
3.34524e-05
3.14391e-05
3.00717e-05
2.90264e-05
2.73951e-05
2.67592e-05
2.69978e-05
2.75076e-05
2.73964e-05
2.58906e-05
2.37564e-05
2.09911e-05
2.09033e-05
2.16082e-05
2.14993e-05
2.07825e-05
1.67693e-05
1.27639e-05
1.20218e-05
1.08948e-05
1.06781e-05
9.7778e-06
7.72769e-06
6.28338e-06
5.45435e-06
5.43492e-06
5.14105e-06
4.96056e-06
4.64213e-06
4.2402e-06
3.85071e-06
3.58705e-06
3.49546e-06
3.54553e-06
3.64338e-06
3.73471e-06
3.81026e-06
3.87672e-06
3.93783e-06
3.99723e-06
4.05724e-06
4.12052e-06
4.18724e-06
4.25493e-06
4.32613e-06
4.40043e-06
4.47364e-06
4.53875e-06
4.58698e-06
4.62258e-06
4.66102e-06
4.71724e-06
4.77693e-06
4.83732e-06
4.88669e-06
4.93029e-06
4.9477e-06
4.97852e-06
4.99033e-06
5.07538e-06
5.10059e-06
5.2363e-06
5.19175e-06
5.32565e-06
5.31507e-06
5.49751e-06
5.90635e-06
7.10791e-06
9.30434e-06
1.1737e-05
1.67003e-05
2.66641e-05
4.06702e-05
5.59478e-05
7.20153e-05
0.000106609
0.000134081
0.000177642
0.000124129
9.75509e-05
7.13775e-05
5.68628e-05
4.52683e-05
3.63477e-05
3.07334e-05
2.55101e-05
2.19727e-05
2.16785e-05
2.49503e-05
2.70449e-05
2.79218e-05
2.82181e-05
2.77303e-05
2.68834e-05
2.57272e-05
2.45199e-05
2.34337e-05
2.25474e-05
2.17245e-05
2.07113e-05
1.94887e-05
1.83266e-05
1.91126e-05
2.09455e-05
2.12673e-05
2.03213e-05
1.82569e-05
1.54847e-05
1.56915e-05
1.69704e-05
1.77631e-05
1.7507e-05
1.56088e-05
1.83482e-05
1.69146e-05
1.29357e-05
1.06827e-05
8.40117e-06
7.53206e-06
8.0121e-06
9.1337e-06
1.02286e-05
1.17025e-05
1.23827e-05
1.2775e-05
1.28022e-05
1.27574e-05
1.24779e-05
1.22907e-05
1.20135e-05
1.1758e-05
1.14518e-05
1.11895e-05
1.09982e-05
1.09086e-05
1.08973e-05
1.09358e-05
1.10176e-05
1.11328e-05
1.1268e-05
1.14165e-05
1.15722e-05
1.17158e-05
1.18452e-05
1.19367e-05
1.19875e-05
1.2013e-05
1.20391e-05
1.20596e-05
1.2121e-05
1.21861e-05
1.22942e-05
1.2326e-05
1.2404e-05
1.23735e-05
1.24558e-05
1.24306e-05
1.2509e-05
1.23632e-05
1.20782e-05
1.1078e-05
1.07042e-05
1.19682e-05
1.45013e-05
1.54866e-05
1.57339e-05
1.91707e-05
2.53109e-05
3.49635e-05
5.56982e-05
6.04736e-05
6.95305e-05
8.44898e-05
0.000143747
0.000110699
9.32869e-05
7.65222e-05
6.55969e-05
5.69467e-05
5.0024e-05
4.6631e-05
4.72682e-05
5.04234e-05
5.53176e-05
6.02618e-05
6.46919e-05
6.75478e-05
6.96974e-05
7.11281e-05
7.18025e-05
7.18084e-05
7.15952e-05
7.09205e-05
7.00176e-05
6.88693e-05
6.69952e-05
6.50254e-05
6.16852e-05
5.83219e-05
5.34581e-05
3.9805e-05
2.83026e-05
2.71591e-05
2.63824e-05
2.1008e-05
1.62008e-05
1.42472e-05
1.36914e-05
1.26324e-05
6.59926e-05
5.96374e-05
4.41993e-05
3.67239e-05
3.02092e-05
3.17958e-05
3.65188e-05
3.93209e-05
4.05982e-05
4.27114e-05
4.35434e-05
4.34023e-05
4.16543e-05
3.97841e-05
3.84927e-05
3.80465e-05
3.82893e-05
3.87597e-05
3.9169e-05
3.95152e-05
3.97314e-05
4.00489e-05
4.0387e-05
4.06968e-05
4.09793e-05
4.12447e-05
4.15085e-05
4.17701e-05
4.20166e-05
4.21994e-05
4.23289e-05
4.2398e-05
4.24159e-05
4.23992e-05
4.23698e-05
4.23261e-05
4.23095e-05
4.2326e-05
4.24433e-05
4.25446e-05
4.27056e-05
4.27736e-05
4.29099e-05
4.29882e-05
4.3182e-05
4.35465e-05
4.35629e-05
4.23295e-05
4.06174e-05
4.30896e-05
4.97672e-05
4.7951e-05
3.79912e-05
4.41196e-05
7.02058e-05
0.000112415
0.000218365
0.000213524
0.000208673
0.00015769
2.21485e-05
8.0524e-05
0.000104244
0.00010347
9.98755e-05
0.000111026
0.000123439
0.00013532
0.000147208
0.000154321
0.00015563
0.000155012
0.000154458
0.000152708
0.000151758
0.000146664
0.000142697
0.000137666
0.000134398
0.000132739
0.000125079
0.000119044
0.000108271
9.66643e-05
8.55759e-05
7.42394e-05
6.75496e-05
5.29108e-05
4.2946e-05
4.39598e-05
4.24371e-05
3.34579e-05
2.36147e-05
2.19538e-05
2.05266e-05
1.33628e-05
6.46951e-05
6.16826e-05
5.82756e-05
5.41005e-05
4.89885e-05
4.73876e-05
4.81396e-05
4.92898e-05
4.89874e-05
4.85701e-05
4.78463e-05
4.63745e-05
4.36377e-05
4.04665e-05
3.85616e-05
3.79753e-05
3.85215e-05
3.9534e-05
4.05862e-05
4.16157e-05
4.24391e-05
4.32484e-05
4.3906e-05
4.43782e-05
4.46997e-05
4.49175e-05
4.50852e-05
4.52285e-05
4.53533e-05
4.54383e-05
4.54793e-05
4.54675e-05
4.54012e-05
4.53008e-05
4.52015e-05
4.51231e-05
4.50847e-05
4.50904e-05
4.51702e-05
4.52849e-05
4.54126e-05
4.54605e-05
4.55633e-05
4.58322e-05
4.68307e-05
4.84112e-05
4.9898e-05
5.10824e-05
5.15749e-05
5.2794e-05
5.46458e-05
5.58986e-05
5.17212e-05
6.08062e-05
0.000102677
0.000139295
0.000239234
0.000274649
0.000105172
8.86048e-05
1.92945e-05
8.77603e-05
0.00012878
0.000134125
0.000147629
0.000156098
0.000170724
0.000177237
0.000182061
0.000178425
0.000168764
0.000161672
0.000156758
0.000151195
0.000151076
0.000150691
0.000144684
0.000138384
0.000134779
0.000132881
0.000130351
0.000130086
0.000128382
0.000122448
0.000109011
9.43847e-05
7.65917e-05
5.99504e-05
5.50148e-05
5.67368e-05
5.33807e-05
4.27608e-05
3.14602e-05
3.01212e-05
2.78146e-05
1.47812e-05
7.19499e-05
6.79348e-05
6.58806e-05
6.44362e-05
6.10624e-05
5.71664e-05
5.51182e-05
5.40312e-05
5.14906e-05
4.91749e-05
4.79452e-05
4.48577e-05
4.09589e-05
3.72681e-05
3.51798e-05
3.4575e-05
3.53742e-05
3.6818e-05
3.85041e-05
3.99604e-05
4.11652e-05
4.22748e-05
4.31549e-05
4.3764e-05
4.41376e-05
4.43382e-05
4.44597e-05
4.45487e-05
4.46249e-05
4.46767e-05
4.46893e-05
4.46391e-05
4.45342e-05
4.44039e-05
4.42851e-05
4.42129e-05
4.41858e-05
4.42076e-05
4.42502e-05
4.43687e-05
4.45096e-05
4.46036e-05
4.47614e-05
4.50769e-05
4.63172e-05
4.87665e-05
5.24929e-05
5.68854e-05
5.89551e-05
5.90086e-05
5.61459e-05
5.88739e-05
6.53062e-05
7.44552e-05
0.000124913
0.000181163
0.000248514
0.00026703
9.34577e-05
9.22565e-05
2.22714e-05
0.000101724
0.00013906
0.000160177
0.000181607
0.000191784
0.000197726
0.000199164
0.000198329
0.000190062
0.000179898
0.000169676
0.00016036
0.000152065
0.000147248
0.000138966
0.000130915
0.00012705
0.000126303
0.000126796
0.000131273
0.000133477
0.000130972
0.00012394
0.000110996
9.53282e-05
7.86197e-05
6.17437e-05
6.25446e-05
6.4931e-05
5.72955e-05
4.28074e-05
3.36603e-05
3.41456e-05
3.16098e-05
1.58115e-05
7.80383e-05
6.83447e-05
6.66399e-05
6.68957e-05
6.58767e-05
6.36489e-05
5.88609e-05
5.60637e-05
5.22149e-05
4.85035e-05
4.71853e-05
4.362e-05
3.91822e-05
3.52412e-05
3.34503e-05
3.29722e-05
3.34279e-05
3.44166e-05
3.55486e-05
3.66147e-05
3.78539e-05
3.88979e-05
3.96402e-05
4.01395e-05
4.04673e-05
4.06858e-05
4.08177e-05
4.09132e-05
4.09942e-05
4.10528e-05
4.10643e-05
4.10067e-05
4.08973e-05
4.07601e-05
4.06426e-05
4.05728e-05
4.05461e-05
4.05932e-05
4.06787e-05
4.08368e-05
4.09797e-05
4.10705e-05
4.12826e-05
4.17461e-05
4.34801e-05
4.65525e-05
5.20364e-05
5.79828e-05
6.26057e-05
6.17728e-05
5.62862e-05
5.94333e-05
7.13812e-05
9.53591e-05
0.000154243
0.000201109
0.000215249
0.000207325
4.5032e-05
4.76259e-05
2.10643e-05
0.000108736
0.000163976
0.000188896
0.000209824
0.000219371
0.000221618
0.000221679
0.0002182
0.000211867
0.000200402
0.000187557
0.000170757
0.000155276
0.000146379
0.000139206
0.000131081
0.000126812
0.000127552
0.000128736
0.000129551
0.000128878
0.000127103
0.000120908
0.000106162
8.90256e-05
7.18346e-05
6.59922e-05
6.96286e-05
6.94643e-05
5.64283e-05
4.14467e-05
3.61648e-05
3.73957e-05
3.66208e-05
1.78464e-05
8.71305e-05
6.62556e-05
6.46284e-05
6.63032e-05
6.6212e-05
6.6393e-05
6.13815e-05
5.65326e-05
5.12495e-05
4.69733e-05
4.58398e-05
4.23651e-05
3.80889e-05
3.4168e-05
3.02655e-05
2.87922e-05
2.9379e-05
3.09564e-05
3.29529e-05
3.49253e-05
3.64382e-05
3.73963e-05
3.79928e-05
3.83954e-05
3.86557e-05
3.8822e-05
3.89377e-05
3.90351e-05
3.91302e-05
3.92029e-05
3.9243e-05
3.92214e-05
3.91482e-05
3.90463e-05
3.89326e-05
3.88409e-05
3.88012e-05
3.88136e-05
3.88698e-05
3.89594e-05
3.9059e-05
3.91166e-05
3.9283e-05
3.96247e-05
4.08163e-05
4.35924e-05
4.89564e-05
5.53655e-05
6.14172e-05
6.18279e-05
6.00864e-05
6.19433e-05
7.30769e-05
9.91438e-05
0.000158431
0.000174754
0.000159726
0.000145098
2.89029e-05
3.29574e-05
2.21815e-05
0.000120803
0.000192491
0.00021194
0.000228786
0.000234845
0.000235636
0.00023389
0.000230543
0.000228725
0.000221008
0.000209838
0.000191128
0.000164779
0.000149637
0.000143326
0.000135912
0.000129064
0.000123762
0.000119375
0.000117072
0.000116106
0.000110445
0.000100967
8.9057e-05
8.16306e-05
7.57144e-05
7.74723e-05
7.67225e-05
6.58487e-05
5.13512e-05
4.17381e-05
3.75485e-05
3.72999e-05
3.82747e-05
1.91838e-05
7.88845e-05
6.35412e-05
6.09206e-05
6.33589e-05
6.29948e-05
6.37638e-05
6.0218e-05
5.41662e-05
4.92987e-05
4.53676e-05
4.44121e-05
4.12185e-05
3.68546e-05
3.01926e-05
2.64625e-05
2.51075e-05
2.54905e-05
2.65195e-05
2.77494e-05
2.90384e-05
3.03108e-05
3.14288e-05
3.23292e-05
3.29698e-05
3.33735e-05
3.36033e-05
3.37379e-05
3.38502e-05
3.39515e-05
3.40149e-05
3.39976e-05
3.38667e-05
3.36401e-05
3.3381e-05
3.3156e-05
3.30142e-05
3.2919e-05
3.29062e-05
3.29034e-05
3.29774e-05
3.29968e-05
3.30611e-05
3.33003e-05
3.40086e-05
3.63183e-05
3.99839e-05
4.67573e-05
5.06015e-05
5.59432e-05
6.04185e-05
6.33288e-05
6.28082e-05
6.84495e-05
9.17164e-05
0.000138976
0.000162183
0.000157261
0.000145007
2.82536e-05
3.23586e-05
2.38296e-05
0.000124365
0.0001991
0.000214595
0.000226194
0.000229572
0.000230664
0.000232363
0.000234844
0.000234725
0.000234517
0.000231361
0.000221894
0.000188318
0.000166472
0.00015208
0.00014493
0.000137275
0.000131067
0.000124899
0.00011897
0.000115613
0.000109709
0.000103757
9.95059e-05
0.000110065
0.000118959
0.00011842
0.000103094
8.55517e-05
6.91948e-05
5.15614e-05
3.74158e-05
3.83314e-05
4.17082e-05
2.23711e-05
6.23396e-05
6.15264e-05
5.55892e-05
5.69236e-05
5.82146e-05
6.06684e-05
5.80151e-05
5.18828e-05
4.70836e-05
4.35601e-05
4.25834e-05
3.88715e-05
3.28866e-05
2.62999e-05
2.14367e-05
1.96038e-05
2.02604e-05
2.18605e-05
2.34559e-05
2.49367e-05
2.61517e-05
2.7007e-05
2.76143e-05
2.80305e-05
2.82777e-05
2.8401e-05
2.84535e-05
2.84751e-05
2.84336e-05
2.83267e-05
2.81332e-05
2.78569e-05
2.75517e-05
2.72615e-05
2.69747e-05
2.6731e-05
2.65325e-05
2.63902e-05
2.62532e-05
2.61847e-05
2.60907e-05
2.60842e-05
2.6247e-05
2.6575e-05
2.81755e-05
3.00957e-05
3.52279e-05
3.70971e-05
3.93668e-05
4.65018e-05
5.80394e-05
6.19656e-05
6.45374e-05
9.8992e-05
0.000165474
0.000183814
0.000185318
0.000179704
3.29143e-05
3.64006e-05
2.2611e-05
0.000118721
0.000184633
0.000186905
0.000192379
0.00018838
0.000190388
0.000195142
0.000204971
0.000215437
0.000231031
0.000238947
0.000237599
0.000235945
0.000201169
0.000178504
0.000165677
0.000158803
0.000154282
0.000150954
0.000146219
0.000143357
0.000141336
0.000140125
0.000137985
0.000135924
0.000123907
0.000116145
9.94908e-05
8.76814e-05
7.56034e-05
6.68217e-05
6.57076e-05
6.69158e-05
6.45997e-05
3.82101e-05
4.64853e-05
5.93919e-05
4.68742e-05
4.51096e-05
4.55214e-05
4.82665e-05
4.92444e-05
4.71451e-05
4.4322e-05
4.01793e-05
3.88633e-05
3.45136e-05
2.86007e-05
2.13266e-05
1.72799e-05
1.56987e-05
1.58068e-05
1.65428e-05
1.73571e-05
1.79812e-05
1.85663e-05
1.93126e-05
1.99015e-05
2.03085e-05
2.05393e-05
2.06373e-05
2.06695e-05
2.07137e-05
2.07796e-05
2.08102e-05
2.07221e-05
2.05447e-05
2.02932e-05
2.00511e-05
1.98465e-05
1.97146e-05
1.96014e-05
1.95398e-05
1.9446e-05
1.94226e-05
1.92942e-05
1.93312e-05
1.94822e-05
1.98084e-05
2.11477e-05
2.2711e-05
2.67957e-05
2.84701e-05
2.86977e-05
3.27626e-05
4.43443e-05
4.98147e-05
5.51309e-05
7.5581e-05
0.000141326
0.000207112
0.000281674
0.000280561
6.5643e-05
6.13623e-05
2.42876e-05
9.68806e-05
0.000134637
0.000142231
0.000137304
0.000112818
0.000104733
0.00010957
0.000126807
0.000150972
0.000170073
0.000186889
0.000209445
0.000228277
0.000222655
0.000202534
0.000179958
0.000168051
0.000161829
0.000156696
0.000149733
0.000144821
0.000140552
0.000133753
0.000127359
0.000119858
0.000112131
0.000103042
9.1698e-05
7.93664e-05
6.47749e-05
5.69806e-05
5.27276e-05
4.71221e-05
4.06606e-05
2.97918e-05
4.32722e-05
5.02353e-05
4.31201e-05
3.99992e-05
3.36973e-05
3.42249e-05
3.62272e-05
3.64608e-05
3.54917e-05
3.40407e-05
3.40897e-05
3.03895e-05
2.45007e-05
1.86694e-05
1.49723e-05
1.39669e-05
1.40415e-05
1.4568e-05
1.50868e-05
1.58033e-05
1.6716e-05
1.70708e-05
1.73244e-05
1.75263e-05
1.7605e-05
1.75849e-05
1.75398e-05
1.75595e-05
1.75909e-05
1.75799e-05
1.74881e-05
1.73308e-05
1.71569e-05
1.70409e-05
1.69506e-05
1.68983e-05
1.6855e-05
1.68131e-05
1.6753e-05
1.66966e-05
1.6594e-05
1.65547e-05
1.67373e-05
1.68139e-05
1.75298e-05
1.77896e-05
1.97769e-05