/*--------------------------------*- C++ -*----------------------------------*\
| =========                 |                                                 |
| \\      /  F ield         | OpenFOAM: The Open Source CFD Toolbox           |
|  \\    /   O peration     | Version:  2.3.0                                 |
|   \\  /    A nd           | Web:      www.OpenFOAM.org                      |
|    \\/     M anipulation  |                                                 |
\*---------------------------------------------------------------------------*/
FoamFile
{
    version     2.0;
    format      ascii;
    class       surfaceScalarField;
    location    "33";
    object      phi.water;
}
// * * * * * * * * * * * * * * * * * * * * * * * * * * * * * * * * * * * * * //

dimensions      [0 3 -1 0 0 0 0];

internalField   nonuniform List<scalar> 
16448
(
-8.80068e-07
-2.53431e-06
4.81301e-07
8.95263e-07
-2.53083e-06
7.59182e-07
9.79881e-07
-1.24195e-06
1.15961e-06
9.79189e-07
-1.15747e-06
1.16069e-06
6.14804e-07
-6.65249e-07
1.03319e-06
3.2498e-07
-6.14503e-07
9.08555e-07
9.23116e-08
-4.53352e-07
6.92205e-07
-5.39523e-08
-3.91593e-07
5.42899e-07
-2.77738e-07
-2.60802e-07
4.86473e-07
-5.10874e-07
-1.9276e-07
4.26119e-07
-6.54038e-07
-2.08607e-07
3.52059e-07
-6.6402e-07
-2.73301e-07
2.83522e-07
-5.81923e-07
-3.39582e-07
2.57781e-07
-4.29257e-07
-3.95678e-07
2.43239e-07
-2.78307e-07
-4.23515e-07
2.72875e-07
-1.31211e-07
-4.48798e-07
3.01947e-07
-1.94471e-08
-4.58782e-07
3.47306e-07
6.38114e-08
-4.71456e-07
3.88451e-07
1.14347e-07
-4.8202e-07
4.31739e-07
1.41357e-07
-4.91627e-07
4.64855e-07
1.49801e-07
-4.96008e-07
4.87797e-07
1.47066e-07
-4.96317e-07
4.9928e-07
1.37924e-07
-4.92799e-07
5.02164e-07
1.25503e-07
-4.85885e-07
4.98532e-07
1.12385e-07
-4.76434e-07
4.89774e-07
1.01015e-07
-4.65416e-07
4.77011e-07
9.26781e-08
-4.53172e-07
4.61735e-07
8.77923e-08
-4.39915e-07
4.45035e-07
8.66365e-08
-4.26403e-07
4.27793e-07
9.0213e-08
-4.15558e-07
4.1222e-07
9.87222e-08
-4.06391e-07
3.98121e-07
1.0884e-07
-3.96897e-07
3.87019e-07
1.17862e-07
-3.87542e-07
3.78762e-07
1.23453e-07
-3.77825e-07
3.72472e-07
1.27524e-07
-3.6934e-07
3.65513e-07
1.28951e-07
-3.60174e-07
3.5898e-07
1.34286e-07
-3.53868e-07
3.48777e-07
1.41463e-07
-3.45847e-07
3.38888e-07
1.59228e-07
-3.43565e-07
3.26045e-07
1.77139e-07
-3.37217e-07
3.19503e-07
2.02674e-07
-3.38117e-07
3.12847e-07
2.20643e-07
-3.3372e-07
3.15916e-07
2.36659e-07
-3.3155e-07
3.15841e-07
2.39092e-07
-3.27974e-07
3.25673e-07
2.05064e-07
-2.98961e-07
3.33323e-07
1.30029e-07
-2.83953e-07
3.59123e-07
-1.13838e-07
-1.615e-07
4.05739e-07
-4.65422e-07
-1.27908e-07
4.79903e-07
-9.928e-07
5.17682e-08
4.87615e-07
-1.25059e-06
-3.22038e-07
6.06508e-07
-5.6472e-07
-1.385e-06
7.66577e-07
7.2036e-07
-2.31875e-06
1.07735e-06
8.89305e-07
-2.08443e-06
2.02862e-06
2.90751e-07
-1.83133e-06
2.47302e-06
-1.54842e-06
-1.77936e-06
3.79957e-06
-4.31231e-06
-1.32562e-06
3.96488e-06
2.61289e-06
-4.5307e-06
-1.76984e-06
5.92115e-06
1.08615e-07
-4.23398e-06
7.84432e-06
5.21914e-06
5.33532e-06
2.82823e-05
-1.39331e-05
1.12089e-05
1.40504e-05
-1.83948e-05
5.40355e-06
1.38675e-05
-4.89976e-06
4.15751e-06
1.10898e-05
-7.92346e-08
2.85585e-06
1.07184e-05
-1.76993e-06
2.14127e-06
9.41954e-06
-7.28282e-07
2.02713e-06
8.4434e-06
-1.53166e-06
2.50777e-06
7.582e-06
-2.67981e-06
3.54118e-06
6.98077e-06
-3.47405e-06
4.07526e-06
7.77474e-06
-5.13724e-06
4.34324e-06
9.62086e-06
-6.02152e-06
4.17539e-06
1.30113e-05
-6.69659e-06
3.30612e-06
1.81177e-05
-6.97399e-06
1.86757e-06
2.42059e-05
-6.35521e-06
2.67046e-07
3.06898e-05
-5.0784e-06
-1.40551e-06
3.67473e-05
-3.41421e-06
-2.6434e-06
4.1801e-05
-1.9213e-06
-3.13241e-06
4.54928e-05
-7.09211e-07
-2.98257e-06
4.78774e-05
4.0854e-07
-2.79318e-06
4.91667e-05
1.08274e-06
-2.37199e-06
4.92708e-05
1.93707e-06
-2.04121e-06
4.80677e-05
2.8687e-06
-1.66561e-06
4.60224e-05
3.34004e-06
-1.29472e-06
4.25108e-05
4.54746e-06
-1.03594e-06
3.75111e-05
5.1147e-06
-1.14954e-07
3.16777e-05
5.74918e-06
8.41578e-08
2.21809e-05
7.18254e-06
2.31434e-06
1.07462e-05
5.98143e-06
5.45327e-06
2.87429e-06
2.91254e-06
4.95935e-06
-7.4392e-07
1.78056e-06
1.83766e-06
-6.56867e-07
1.33193e-06
-1.41897e-06
1.65556e-06
1.02029e-06
-3.3327e-06
4.22369e-06
8.8317e-07
-3.45128e-06
5.61671e-06
9.16728e-07
-2.30973e-06
5.28549e-06
8.5615e-07
-5.24904e-07
3.35189e-06
8.73601e-07
1.06002e-06
7.39162e-07
2.61275e-06
-1.74016e-06
-3.70787e-06
-9.30764e-08
-4.87512e-07
-3.89337e-06
1.16513e-07
-1.94291e-07
-2.3095e-06
7.79564e-07
1.58529e-07
-2.0926e-06
5.86638e-07
2.40211e-07
-1.14695e-06
4.04563e-07
2.35668e-07
-8.23591e-07
2.18144e-07
1.2719e-07
-3.7148e-07
3.1826e-08
-1.12958e-07
-1.96117e-07
4.82802e-08
-4.81321e-07
2.41526e-09
1.06314e-07
-7.7417e-07
1.28322e-08
8.70657e-08
-9.14598e-07
-8.85461e-08
2.03262e-08
-9.01612e-07
-2.2562e-07
-6.07058e-08
-7.98416e-07
-3.39504e-07
-1.03179e-07
-6.31197e-07
-4.35509e-07
-1.2735e-07
-4.58084e-07
-4.84555e-07
-1.11965e-07
-2.87855e-07
-5.25754e-07
-9.32293e-08
-1.49981e-07
-5.36758e-07
-5.9816e-08
-4.04289e-08
-5.50694e-07
-3.02882e-08
3.12481e-08
-5.56081e-07
2.40836e-09
7.67944e-08
-5.58029e-07
2.08828e-08
1.00694e-07
-5.54369e-07
3.45056e-08
1.09374e-07
-5.46144e-07
4.1187e-08
1.08488e-07
-5.34419e-07
4.25443e-08
1.0175e-07
-5.19487e-07
4.03706e-08
9.26096e-08
-5.02476e-07
3.52067e-08
8.37314e-08
-4.83862e-07
2.73385e-08
7.66952e-08
-4.64264e-07
1.81338e-08
7.19936e-08
-4.43849e-07
8.62406e-09
7.01004e-08
-4.23472e-07
-1.06168e-09
7.32709e-08
-4.05012e-07
-1.37347e-08
8.09341e-08
-3.89217e-07
-2.48444e-08
8.96531e-08
-3.72299e-07
-3.33268e-08
9.80257e-08
-3.55509e-07
-4.04065e-08
1.03534e-07
-3.36934e-07
-4.64088e-08
1.0895e-07
-3.21889e-07
-5.28666e-08
1.11617e-07
-3.04874e-07
-5.79824e-08
1.19714e-07
-2.95739e-07
-6.62244e-08
1.26344e-07
-2.81487e-07
-7.1018e-08
1.43251e-07
-2.8105e-07
-7.94179e-08
1.52558e-07
-2.67748e-07
-7.8823e-08
1.71717e-07
-2.72516e-07
-8.47373e-08
1.77224e-07
-2.60996e-07
-7.83102e-08
1.9749e-07
-2.68495e-07
-8.32777e-08
2.07819e-07
-2.62911e-07
-7.55324e-08
2.22461e-07
-2.49559e-07
-6.39809e-08
1.95804e-07
-2.22738e-07
-3.4809e-08
6.91612e-08
-7.06738e-08
3.59769e-08
-2.6025e-07
8.41815e-08
1.17139e-07
-6.3864e-07
3.5502e-07
7.99425e-08
-6.93408e-07
-1.06338e-07
-1.3974e-07
1.20928e-07
-2.12339e-06
-2.47923e-09
9.33921e-07
-3.57993e-06
5.02997e-07
6.65523e-10
-2.78028e-06
1.75235e-06
-1.20854e-06
-2.33872e-06
1.72952e-06
-1.64928e-06
-3.34908e-06
2.17196e-06
-1.73921e-06
-4.14059e-06
2.86986e-06
-7.31813e-07
-2.61654e-06
-2.18942e-06
-4.44695e-06
5.44915e-06
-1.70574e-06
1.56654e-05
-1.73101e-06
6.14376e-07
3.03436e-05
-1.81902e-05
3.22107e-06
-7.81737e-07
-2.01036e-05
4.68046e-06
-4.44534e-06
-5.35633e-06
3.4077e-06
-3.64981e-06
-4.14474e-06
3.2699e-06
-6.57242e-06
-5.97958e-07
1.75062e-06
-5.44033e-06
-3.36514e-06
1.50474e-06
-5.88587e-06
-3.78259e-06
2.69643e-06
-4.84756e-06
-6.99815e-06
3.27999e-06
-3.49769e-06
-7.86189e-06
3.03793e-06
-9.7758e-07
-1.02472e-05
2.58986e-06
2.64575e-06
-1.0965e-05
1.32012e-06
7.69639e-06
-1.13466e-05
-4.00669e-07
1.43221e-05
-1.12527e-05
-2.34709e-06
2.18788e-05
-9.81316e-06
-4.09877e-06
2.9562e-05
-7.63577e-06
-5.12583e-06
3.65045e-05
-5.13533e-06
-5.22137e-06
4.18559e-05
-2.88645e-06
-4.38628e-06
4.57757e-05
-1.25126e-06
-3.37785e-06
4.84532e-05
1.05884e-07
-2.37479e-06
4.97681e-05
1.21362e-06
-1.44578e-06
5.01135e-05
2.66389e-06
-1.0723e-06
4.89803e-05
4.48592e-06
-4.84025e-07
4.67095e-05
6.00721e-06
-3.96399e-07
4.3391e-05
8.15307e-06
-2.8713e-07
3.83895e-05
9.57789e-06
5.38308e-07
3.29224e-05
1.07957e-05
4.20622e-07
2.50232e-05
1.29513e-05
2.13049e-06
1.4308e-05
1.19052e-05
4.79138e-06
5.27643e-06
7.09035e-06
4.85382e-06
6.45944e-07
4.07193e-06
2.33913e-06
3.06946e-07
2.86651e-06
-1.19554e-06
2.53644e-06
2.61742e-06
-3.82659e-06
5.28702e-06
2.67839e-06
-4.54576e-06
6.90583e-06
2.92831e-06
-3.63035e-06
6.51892e-06
2.7247e-06
-1.48159e-06
4.28069e-06
2.58656e-06
5.25305e-07
2.74166e-06
2.27822e-06
-2.40794e-06
-4.089e-06
-3.52334e-07
-1.44831e-06
-4.44872e-06
-3.97303e-07
-1.21142e-06
-2.77665e-06
2.35945e-07
-7.02994e-07
-2.56239e-06
-3.35691e-08
-3.5036e-07
-1.39883e-06
-9.53182e-08
-8.32112e-08
-9.33857e-07
-1.52526e-07
2.17308e-08
-2.13954e-07
-2.57908e-07
-1.22453e-07
9.01481e-08
-1.38933e-07
-4.72653e-07
4.12527e-07
-5.84631e-08
-7.5559e-07
3.51184e-07
-5.52474e-08
-8.82784e-07
1.64166e-07
-1.25209e-07
-8.88334e-07
-1.37211e-08
-2.06037e-07
-8.21379e-07
-1.41292e-07
-2.64919e-07
-7.04078e-07
-2.52336e-07
-3.00336e-07
-5.65019e-07
-3.0896e-07
-3.14538e-07
-4.23209e-07
-3.54057e-07
-3.13451e-07
-3.00056e-07
-3.59655e-07
-3.00177e-07
-1.92848e-07
-3.69661e-07
-2.88199e-07
-1.08218e-07
-3.66452e-07
-2.74209e-07
-4.49098e-08
-3.57985e-07
-2.63305e-07
-5.1482e-10
-3.44238e-07
-2.54475e-07
2.86453e-08
-3.26785e-07
-2.48466e-07
4.53276e-08
-3.05944e-07
-2.45103e-07
5.30429e-08
-2.8289e-07
-2.44255e-07
5.51798e-08
-2.59284e-07
-2.45274e-07
5.45065e-08
-2.35638e-07
-2.47492e-07
5.29896e-08
-2.12168e-07
-2.5052e-07
5.22308e-08
-1.89149e-07
-2.53878e-07
5.34474e-08
-1.67342e-07
-2.57284e-07
5.58694e-08
-1.46581e-07
-2.60784e-07
5.86305e-08
-1.2753e-07
-2.64376e-07
6.08494e-08
-1.07064e-07
-2.67378e-07
6.38241e-08
-8.7468e-08
-2.70933e-07
6.7089e-08
-6.61157e-08
-2.74004e-07
7.19682e-08
-4.95572e-08
-2.77118e-07
7.68656e-08
-3.06685e-08
-2.79022e-07
8.3226e-08
-2.13168e-08
-2.80677e-07
8.46351e-08
-5.27216e-09
-2.77544e-07
8.83974e-08
-7.08754e-09
-2.77606e-07
8.03517e-08
1.11319e-08
-2.70779e-07
8.53505e-08
-2.99619e-09
-2.74379e-07
8.19863e-08
1.04966e-08
-2.68094e-07
1.18823e-07
-2.53902e-08
-2.79798e-07
1.50361e-07
-2.77306e-08
-2.66699e-07
2.25778e-07
-7.05719e-08
-2.5417e-07
2.61426e-07
-4.74415e-08
-2.11093e-07
2.67095e-07
4.72175e-08
-1.22924e-07
8.25645e-08
3.08063e-07
-3.89564e-08
1.30457e-07
4.1798e-07
-1.06035e-07
5.26371e-07
-1.06301e-07
-3.71403e-07
8.27659e-07
-2.19976e-06
-1.4253e-07
8.93018e-07
-3.94441e-06
3.56708e-07
-5.14854e-07
-2.88184e-06
1.60627e-06
-2.35733e-06
-1.89161e-06
1.39131e-06
-8.47399e-07
-4.95711e-06
3.12539e-07
7.09841e-07
-7.24257e-06
1.43721e-06
7.25639e-06
-4.87345e-06
-3.3194e-06
1.09088e-05
9.53075e-06
-7.49323e-06
2.72355e-05
-5.62414e-06
5.97167e-06
2.95773e-05
-1.30426e-05
3.23175e-06
-9.3329e-06
-1.7823e-05
6.85046e-06
-1.33693e-05
-4.99396e-06
3.59553e-06
-1.584e-05
-6.1495e-06
4.47493e-06
-1.58877e-05
-2.39737e-06
1.84692e-06
-1.62079e-05
-5.92743e-06
2.88236e-06
-1.53596e-05
-7.28196e-06
2.65111e-06
-1.418e-05
-1.05582e-05
2.38034e-06
-1.21231e-05
-1.17305e-05
1.81155e-06
-9.03418e-06
-1.42821e-05
9.45802e-07
-4.41271e-06
-1.51081e-05
-4.78356e-07
1.68484e-06
-1.55204e-05
-1.9238e-06
9.33138e-06
-1.56201e-05
-3.27915e-06
1.7681e-05
-1.42165e-05
-3.94633e-06
2.55957e-05
-1.19561e-05
-3.59444e-06
3.22728e-05
-9.55339e-06
-2.25903e-06
3.71976e-05
-7.41083e-06
-4.00418e-07
4.05357e-05
-5.74126e-06
1.1519e-06
4.25871e-05
-4.21085e-06
2.26535e-06
4.37853e-05
-2.65243e-06
2.66777e-06
4.44925e-05
-3.42909e-07
2.29964e-06
4.42135e-05
2.58923e-06
2.17563e-06
4.2785e-05
6.07966e-06
1.35603e-06
3.98263e-05
1.01292e-05
9.82524e-07
3.53572e-05
1.26442e-05
1.40284e-06
3.00804e-05
1.48577e-05
1.2148e-06
2.26091e-05
1.73943e-05
3.02822e-06
1.26122e-05
1.64435e-05
5.45865e-06
4.58734e-06
1.00192e-05
5.09596e-06
8.36452e-07
5.54827e-06
2.27456e-06
9.38279e-07
4.15652e-06
-1.39181e-06
3.4162e-06
4.51635e-06
-4.37682e-06
6.22302e-06
5.24735e-06
-5.37574e-06
7.80022e-06
5.60942e-06
-4.25828e-06
7.26367e-06
5.23422e-06
-1.97294e-06
4.61461e-06
4.94428e-06
2.91364e-07
5.27612e-06
2.08017e-06
-2.88979e-06
-4.17536e-06
-1.7315e-07
-1.92676e-06
-4.77986e-06
-6.25628e-07
-1.81249e-06
-3.00918e-06
1.24765e-07
-1.27408e-06
-2.92346e-06
-1.72496e-07
-8.77845e-07
-1.66778e-06
-1.21566e-07
-3.96182e-07
-1.24021e-06
-1.70562e-07
-4.20214e-08
-2.87342e-07
-2.75221e-07
2.37182e-08
1.89188e-07
-1.60869e-07
-2.04278e-07
7.27713e-07
-8.54666e-08
-5.0086e-07
7.20366e-07
-7.23917e-08
-6.64426e-07
4.75391e-07
-1.47321e-07
-7.61267e-07
3.0332e-07
-2.19774e-07
-7.76631e-07
1.55277e-07
-2.80817e-07
-7.18315e-07
2.08974e-08
-3.31228e-07
-6.10076e-07
-5.38559e-08
-3.6303e-07
-4.86544e-07
-9.59426e-08
-3.81376e-07
-3.78425e-07
-8.03168e-08
-3.87152e-07
-2.82391e-07
-7.31799e-08
-3.92243e-07
-1.96508e-07
-5.74757e-08
-3.94579e-07
-1.2277e-07
-3.91407e-08
-3.92327e-07
-6.42165e-08
-1.5418e-08
-3.87119e-07
-2.00353e-08
9.85126e-09
-3.80581e-07
1.18195e-08
3.62378e-08
-3.73792e-07
3.26073e-08
6.46757e-08
-3.68114e-07
4.4853e-08
9.30013e-08
-3.64284e-07
5.13385e-08
1.20029e-07
-3.61911e-07
5.4067e-08
1.45852e-07
-3.605e-07
5.45469e-08
1.70074e-07
-3.59463e-07
5.40667e-08
1.91884e-07
-3.58502e-07
5.34688e-08
2.11855e-07
-3.57609e-07
5.21712e-08
2.30835e-07
-3.56837e-07
5.02761e-08
2.51781e-07
-3.56738e-07
4.87502e-08
2.72077e-07
-3.57808e-07
4.78484e-08
2.93654e-07
-3.58682e-07
4.80011e-08
3.10067e-07
-3.59584e-07
4.72669e-08
3.2909e-07
-3.58864e-07
4.45756e-08
3.38265e-07
-3.56711e-07
3.77755e-08
3.5326e-07
-3.51611e-07
3.06485e-08
3.49636e-07
-3.49414e-07
2.28105e-08
3.62768e-07
-3.43722e-07
2.57131e-08
3.43202e-07
-3.48881e-07
3.14241e-08
3.46616e-07
-3.41805e-07
6.63631e-08
2.91653e-07
-3.5174e-07
8.56021e-08
2.79166e-07
-3.26081e-07
1.39362e-07
1.92206e-07
-3.16262e-07
1.7838e-07
1.85123e-07
-2.71599e-07
2.53859e-07
2.1353e-07
-2.41162e-07
5.35751e-07
3.04981e-07
-2.78442e-07
9.88197e-07
3.16555e-07
-3.42308e-07
1.62429e-06
-2.23151e-07
-4.88722e-07
1.16004e-06
-1.73695e-06
9.60243e-08
5.71055e-08
-3.4347e-06
6.49728e-07
-8.0153e-07
-3.12737e-06
1.17946e-06
-7.34936e-07
-2.67673e-06
7.29687e-07
1.21203e-06
-5.64933e-06
-1.00574e-06
3.57206e-06
-8.10043e-06
-1.47989e-06
8.03876e-06
-3.71131e-06
-4.91069e-06
1.67436e-05
1.14172e-05
-1.02396e-05
3.08977e-05
-7.49462e-06
9.31626e-06
3.10606e-05
-9.58785e-06
4.4397e-06
-1.28675e-05
-1.46064e-05
9.47908e-06
-1.96609e-05
-2.9294e-06
4.656e-06
-2.53376e-05
-5.96153e-06
5.47367e-06
-2.57872e-05
-4.96625e-06
3.00187e-06
-2.63295e-05
-8.4512e-06
3.05729e-06
-2.56564e-05
-1.00875e-05
2.12786e-06
-2.46853e-05
-1.33792e-05
1.84276e-06
-2.26326e-05
-1.50287e-05
1.2365e-06
-1.95486e-05
-1.77381e-05
3.63214e-07
-1.50096e-05
-1.89936e-05
-6.57228e-07
-8.87257e-06
-1.98928e-05
-1.76685e-06
-1.57229e-06
-2.04445e-05
-2.47717e-06
6.54639e-06
-1.96881e-05
-2.64738e-06
1.38318e-05
-1.7369e-05
-1.87261e-06
1.94071e-05
-1.46513e-05
-4.77421e-07
2.27405e-05
-1.2029e-05
1.28473e-06
2.41506e-05
-9.62531e-06
2.47387e-06
2.45769e-05
-7.48591e-06
2.84878e-06
2.4764e-05
-5.47363e-06
2.63413e-06
2.51228e-05
-2.94556e-06
2.24381e-06
2.62833e-05
2.80019e-07
1.14874e-06
2.79259e-05
4.66633e-06
-2.29297e-07
2.77478e-05
9.74279e-06
5.64458e-07
2.53795e-05
1.36709e-05
1.3416e-06
2.17077e-05
1.76328e-05
8.96734e-07
1.46112e-05
2.11975e-05
3.29327e-06
6.69664e-06
1.82498e-05
6.10835e-06
1.90152e-06
1.02975e-05
4.51683e-06
6.22586e-08
5.93719e-06
1.45035e-06
1.1114e-06
5.47546e-06
-2.36807e-06
4.00215e-06
6.90624e-06
-5.28062e-06
6.96944e-06
8.10672e-06
-5.82664e-06
8.52003e-06
8.27188e-06
-4.21303e-06
7.86627e-06
7.7924e-06
-1.90439e-06
4.99739e-06
7.68078e-06
1.32404e-07
8.29952e-06
1.974e-06
-3.20599e-06
-4.09227e-06
-5.75387e-08
-2.17324e-06
-4.99709e-06
-8.10101e-07
-2.17952e-06
-3.12128e-06
1.25359e-07
-1.60994e-06
-3.35151e-06
-1.36468e-07
-1.24004e-06
-2.04817e-06
1.67359e-08
-6.82659e-07
-1.68774e-06
-1.04531e-07
-2.52745e-07
-5.59403e-07
-1.5198e-07
1.89462e-08
4.66726e-08
-1.24299e-07
3.20433e-08
8.15014e-07
-9.75463e-08
-2.33674e-07
1.04485e-06
-5.82237e-08
-4.30419e-07
7.86883e-07
-1.14372e-07
-6.04415e-07
6.24143e-07
-1.4648e-07
-6.98845e-07
4.40174e-07
-1.90208e-07
-6.9602e-07
2.64999e-07
-2.46733e-07
-6.12591e-07
1.52647e-07
-2.89772e-07
-4.94667e-07
1.09883e-07
-3.23638e-07
-3.94637e-07
1.63125e-07
-3.43337e-07
-3.08628e-07
2.0317e-07
-3.62259e-07
-2.30417e-07
2.42758e-07
-3.78352e-07
-1.58519e-07
2.78042e-07
-3.89e-07
-9.53573e-08
3.144e-07
-3.92909e-07
-4.15887e-08
3.49027e-07
-3.92876e-07
6.1139e-10
3.83941e-07
-3.89856e-07
3.14612e-08
4.18329e-07
-3.84457e-07
5.22205e-08
4.50329e-07
-3.78059e-07
6.52438e-08
4.78693e-07
-3.71659e-07
7.1713e-08
5.04414e-07
-3.65013e-07
7.36934e-08
5.2656e-07
-3.58442e-07
7.32131e-08
5.44573e-07
-3.52193e-07
7.07607e-08
5.60343e-07
-3.46012e-07
6.66292e-08
5.75584e-07
-3.40599e-07
6.16365e-08
5.92706e-07
-3.35908e-07
5.71065e-08
6.08548e-07
-3.31913e-07
5.2164e-08
6.26665e-07
-3.28039e-07
4.62596e-08
6.40105e-07
-3.24097e-07
3.73237e-08
6.5742e-07
-3.19369e-07
2.56035e-08
6.64545e-07
-3.14515e-07
1.13668e-08
6.77019e-07
-3.09526e-07
-2.1229e-09
6.69861e-07
-3.06625e-07
-1.27004e-08
6.7605e-07
-3.02808e-07
-1.71986e-08
6.53709e-07
-3.0584e-07
-2.11482e-08
6.48345e-07
-2.97947e-07
-2.30351e-08
5.96437e-07
-3.02648e-07
-3.51662e-08
5.73677e-07
-2.82643e-07
-4.77041e-08
4.97151e-07
-2.92136e-07
9.52979e-09
4.29202e-07
-3.01757e-07
2.22961e-07
4.09747e-07
-4.09164e-07
9.3093e-07
1.61115e-07
-5.6272e-07
1.81193e-06
1.85364e-07
-7.35661e-07
2.25495e-06
-1.80516e-07
-4.48046e-07
5.36397e-07
-4.5287e-07
5.24256e-07
-1.96554e-06
-1.9725e-06
1.09079e-06
-3.38163e-06
-2.31919e-06
6.78716e-07
-1.27723e-06
-4.2443e-06
-5.24648e-07
-5.14971e-07
-4.46326e-06
-1.61275e-06
-5.39968e-07
-3.7395e-06
-4.4077e-06
5.3905e-06
-1.72226e-06
-7.52206e-06
2.1627e-05
5.99433e-06
-1.05299e-05
2.849e-05
-5.82013e-06
1.45136e-05
2.81727e-05
-5.333e-06
3.29783e-06
-1.91493e-05
-6.61135e-06
8.89056e-06
-2.63226e-05
-1.4271e-06
5.40718e-06
-3.32546e-05
-4.37382e-06
5.24046e-06
-3.56859e-05
-5.8376e-06
3.2203e-06
-3.63247e-05
-9.74114e-06
1.8873e-06
-3.57244e-05
-1.19862e-05
1.29289e-06
-3.51073e-05
-1.50213e-05
9.94722e-07
-3.34919e-05
-1.71958e-05
4.97656e-07
-3.14424e-05
-1.98206e-05
-1.24807e-07
-2.80501e-05
-2.16209e-05
-8.73106e-07
-2.30198e-05
-2.32061e-05
-1.7014e-06
-1.68577e-05
-2.44032e-05
-2.22092e-06
-1.007e-05
-2.4105e-05
-2.39287e-06
-3.62238e-06
-2.1993e-05
-1.83307e-06
1.48017e-06
-1.8878e-05
-8.78921e-07
4.65201e-06
-1.54029e-05
2.01426e-07
6.14485e-06
-1.2035e-05
9.1679e-07
6.75572e-06
-9.12754e-06
1.03074e-06
7.14082e-06
-6.48879e-06
6.3005e-07
7.81619e-06
-3.38051e-06
-2.40421e-07
9.071e-06
5.68531e-07
-1.54333e-06
1.09138e-05
5.2012e-06
-2.37768e-06
1.19359e-05
1.07846e-05
-2.06395e-06
1.07042e-05
1.58692e-05
-9.66619e-07
5.64867e-06
2.03814e-05
2.30683e-06
4.83434e-07
2.05328e-05
5.82991e-06
-1.11823e-06
1.42578e-05
5.59362e-06
-1.82766e-06
8.04137e-06
2.96558e-06
-1.4834e-06
6.32817e-06
-7.35236e-07
8.88593e-07
7.40246e-06
-4.29899e-06
4.50588e-06
9.53639e-06
-6.24743e-06
7.75524e-06
1.0439e-05
-5.58161e-06
8.97293e-06
1.04806e-05
-3.42634e-06
7.84934e-06
1.04359e-05
-1.51994e-06
4.92588e-06
1.06501e-05
-4.5825e-08
1.18689e-05
1.35652e-06
-3.514e-06
-3.695e-06
-3.12253e-08
-2.40729e-06
-5.0537e-06
-1.04585e-06
-2.5716e-06
-3.18402e-06
2.34334e-07
-1.96883e-06
-3.76343e-06
-1.85653e-07
-1.60205e-06
-2.495e-06
8.69877e-08
-9.52797e-07
-2.20809e-06
-1.23135e-07
-4.79704e-07
-9.63119e-07
-6.32149e-08
-1.10159e-07
-2.42676e-07
-7.42993e-08
1.23548e-07
6.58041e-07
-7.24733e-08
2.43487e-08
1.14301e-06
2.28456e-09
-1.0859e-07
9.94473e-07
-7.41668e-08
-3.63353e-07
9.62852e-07
-8.33583e-08
-5.48843e-07
7.50647e-07
-1.24495e-07
-5.91217e-07
4.93818e-07
-1.86059e-07
-5.31635e-07
3.44092e-07
-2.50649e-07
-4.25824e-07
3.03008e-07
-2.98617e-07
-3.39012e-07
3.97456e-07
-3.20745e-07
-2.75271e-07
4.81121e-07
-3.41296e-07
-2.2299e-07
5.50554e-07
-3.59646e-07
-1.73708e-07
6.02331e-07
-3.73166e-07
-1.27137e-07
6.47705e-07
-3.79457e-07
-8.34424e-08
6.85752e-07
-3.80023e-07
-4.43256e-08
7.21082e-07
-3.75856e-07
-1.24539e-08
7.54961e-07
-3.68121e-07
1.09045e-08
7.85608e-07
-3.58245e-07
2.54786e-08
8.11877e-07
-3.47379e-07
3.26651e-08
8.33428e-07
-3.35813e-07
3.38248e-08
8.50294e-07
-3.24522e-07
3.16431e-08
8.61072e-07
-3.1394e-07
2.86561e-08
8.67759e-07
-3.04072e-07
2.55719e-08
8.74592e-07
-2.95557e-07
2.18356e-08
8.84883e-07
-2.88089e-07
1.68457e-08
8.95555e-07
-2.81649e-07
9.12084e-09
9.10236e-07
-2.755e-07
-2.86945e-09
9.21942e-07
-2.69481e-07
-1.96736e-08
9.3821e-07
-2.63653e-07
-3.96774e-08
9.43864e-07
-2.58957e-07
-5.87368e-08
9.5224e-07
-2.55869e-07
-7.49328e-08
9.41666e-07
-2.55234e-07
-8.28531e-08
9.38915e-07
-2.54725e-07
-9.44152e-08
9.22496e-07
-2.56796e-07
-1.05813e-07
9.12034e-07
-2.52166e-07
-1.51661e-07
8.98079e-07
-2.553e-07
-1.94001e-07
8.68935e-07
-2.52912e-07
-2.66362e-07
8.53823e-07
-2.83729e-07
-2.01432e-07
7.14445e-07
-3.50346e-07
8.62704e-08
6.77403e-07
-5.54243e-07
8.37775e-07
1.69959e-07
-7.56531e-07
1.70069e-06
3.42812e-07
-1.00073e-06
1.97316e-06
8.66402e-08
-4.97392e-07
2.43311e-08
1.12433e-06
4.55169e-07
-2.43645e-06
-4.47322e-07
9.78459e-07
-3.56829e-06
-6.91253e-07
-3.84295e-07
-1.6934e-06
-4.7607e-06
-1.35758e-06
-1.91803e-06
-2.37662e-06
-1.57433e-06
9.16668e-08
-1.60868e-06
-4.21295e-06
5.24658e-06
-4.71848e-09
-6.5913e-06
2.25694e-05
-2.1851e-06
-9.05545e-06
2.70284e-05
-2.91678e-06
1.67212e-05
2.59096e-05
7.63651e-08
3.23135e-06
-2.27383e-05
2.43654e-06
8.89829e-06
-3.12794e-05
1.24505e-06
5.38672e-06
-3.86907e-05
-1.87821e-06
4.67616e-06
-4.07081e-05
-6.46717e-06
2.49626e-06
-4.14476e-05
-9.71674e-06
7.04737e-07
-4.21316e-05
-1.16799e-05
3.79624e-07
-4.23341e-05
-1.50257e-05
2.42393e-07
-4.22849e-05
-1.70268e-05
-8.63731e-08
-4.22155e-05
-1.94692e-05
-3.11642e-07
-4.1036e-05
-2.24034e-05
-8.19251e-07
-3.86889e-05
-2.44592e-05
-1.46348e-06
-3.49359e-05
-2.65208e-05
-1.81074e-06
-2.99235e-05
-2.73783e-05
-1.93443e-06
-2.38334e-05
-2.66429e-05
-1.55774e-06
-1.82934e-05
-2.35314e-05
-9.60864e-07
-1.40387e-05
-1.94742e-05
-2.25962e-07
-1.15171e-05
-1.48904e-05
3.17058e-07
-1.03919e-05
-1.06761e-05
4.17327e-07
-1.01077e-05
-6.81891e-06
4.46003e-08
-1.00325e-05
-3.02578e-06
-4.29987e-07
-9.98126e-06
1.34575e-06
-8.28389e-07
-1.00649e-05
5.74475e-06
-4.59792e-07
-1.04345e-05
1.02994e-05
8.54979e-07
-1.10004e-05
1.35411e-05
2.89416e-06
-1.06748e-05
1.51727e-05
4.88328e-06
-8.08812e-06
1.31472e-05
4.79893e-06
-5.7587e-06
9.42925e-06
2.49911e-06
-4.49333e-06
7.59493e-06
-8.18949e-07
-2.01783e-06
8.09409e-06
-4.24144e-06
1.63453e-06
9.90688e-06
-6.1568e-06
5.39512e-06
1.1508e-05
-5.73225e-06
8.05735e-06
1.18225e-05
-4.04573e-06
9.0876e-06
1.21758e-05
-2.72546e-06
8.13549e-06
1.30099e-05
-1.6218e-06
5.29498e-06
1.35517e-05
-6.10733e-08
1.55492e-05
1.61464e-06
-3.87488e-06
-2.99486e-06
1.84797e-07
-2.76649e-06
-4.87234e-06
-1.28698e-06
-2.99935e-06
-3.06573e-06
1.21162e-07
-2.24894e-06
-3.91894e-06
-5.90319e-07
-1.85968e-06
-2.84144e-06
-3.55632e-08
-1.05995e-06
-2.63675e-06
-3.65216e-07
-5.16826e-07
-1.24121e-06
-2.58769e-07
-2.69526e-07
-3.41432e-07
-1.42671e-07
-2.13661e-08
5.07067e-07
-9.20158e-08
6.76363e-08
1.07341e-06
-1.73749e-08
7.27505e-08
1.06118e-06
-7.12698e-08
-1.5525e-07
1.21506e-06
-2.37736e-08
-3.55054e-07
1.01246e-06
-6.19043e-08
-4.25629e-07
7.02283e-07
-1.37898e-07
-4.01165e-07
5.46273e-07
-2.26672e-07
-3.21626e-07
5.13709e-07
-2.90304e-07
-2.50119e-07
6.3807e-07
-3.12195e-07
-2.06685e-07
7.6066e-07
-3.23089e-07
-1.83524e-07
8.5785e-07
-3.30578e-07
-1.67656e-07
9.2339e-07
-3.37053e-07
-1.55146e-07
9.74025e-07
-3.38956e-07
-1.41711e-07
1.00951e-06
-3.37308e-07
-1.26962e-07
1.03792e-06
-3.31712e-07
-1.1351e-07
1.06386e-06
-3.22457e-07
-1.03498e-07
1.08562e-06
-3.10145e-07
-9.67659e-08
1.10199e-06
-2.96949e-07
-9.42382e-08
1.11459e-06
-2.83788e-07
-9.57417e-08
1.12307e-06
-2.71357e-07
-9.91561e-08
1.12544e-06
-2.61042e-07
-1.01084e-07
1.12274e-06
-2.53132e-07
-1.01417e-07
1.12137e-06
-2.46534e-07
-1.02693e-07
1.12609e-06
-2.40024e-07
-1.07594e-07
1.13411e-06
-2.33757e-07
-1.17834e-07
1.14775e-06
-2.27378e-07
-1.35205e-07
1.16033e-06
-2.21116e-07
-1.57169e-07
1.17585e-06
-2.15778e-07
-1.82071e-07
1.1804e-06
-2.11725e-07
-2.03241e-07
1.18349e-06
-2.10205e-07
-2.21842e-07
1.16987e-06
-2.09638e-07
-2.29028e-07
1.15685e-06
-2.1092e-07
-2.48886e-07
1.15071e-06
-2.08294e-07
-2.58561e-07
1.12852e-06
-2.07068e-07
-3.18226e-07
1.16116e-06
-2.03237e-07
-3.45969e-07
1.11234e-06
-2.16044e-07
-4.05103e-07
1.16644e-06
-2.53116e-07
-3.06966e-07
9.51347e-07
-3.35629e-07
-2.85345e-08
9.65149e-07
-5.64386e-07
5.11266e-07
3.66044e-07
-7.3164e-07
1.00405e-06
8.54219e-07
-9.82856e-07
1.0773e-06
6.3736e-07
-5.80339e-07
-4.09255e-08
2.21307e-06
1.09256e-07
-1.51346e-06
4.88983e-07
5.6268e-07
-9.89035e-07
1.79001e-07
-1.22395e-06
8.00707e-07
-4.72835e-06
-1.81157e-06
1.32644e-06
-1.78616e-06
-8.59819e-07
4.0439e-06
-2.49314e-06
-1.78389e-06
7.33024e-06
4.3236e-06
-7.12957e-06
2.65896e-05
-1.06475e-05
-1.07713e-05
3.13971e-05
-1.63987e-07
1.78705e-05
2.96875e-05
6.42529e-06
2.96878e-06
-2.30425e-05
1.42685e-05
8.7748e-06
-3.22651e-05
4.95109e-06
4.84371e-06
-4.01359e-05
2.04605e-06
3.88289e-06
-4.32918e-05
-4.81265e-06
1.62795e-06
-4.37156e-05
-8.80978e-06
-4.61866e-07
-4.31107e-05
-1.15901e-05
-7.17295e-07
-4.49666e-05
-1.25311e-05
-4.22046e-07
-4.5442e-05
-1.52344e-05
-7.29741e-07
-4.68596e-05
-1.71971e-05
-7.23832e-07
-4.89957e-05
-1.99979e-05
-9.21621e-07
-4.92964e-05
-2.30542e-05
-1.37551e-06
-4.95226e-05
-2.48322e-05
-1.53276e-06
-4.88158e-05
-2.65976e-05
-1.77131e-06
-4.68089e-05
-2.72558e-05
-1.68709e-06
-4.34338e-05
-2.59217e-05
-1.30357e-06
-3.94092e-05
-2.30589e-05
-6.83388e-07
-3.48624e-05
-1.93149e-05
-2.54593e-07
-3.07184e-05
-1.5272e-05
2.97939e-07
-2.79535e-05
-1.05033e-05
7.93057e-07
-2.61417e-05
-5.94746e-06
1.03943e-06
-2.48294e-05
-1.25296e-06
1.25574e-06
-2.35385e-05
2.87268e-06
1.57504e-06
-2.20909e-05
6.77839e-06
2.07405e-06
-2.00823e-05
9.13179e-06
2.40274e-06
-1.66981e-05
9.82402e-06
1.96485e-06
-1.29273e-05
9.17393e-06
2.0307e-07
-1.0145e-05
8.64368e-06
-1.99868e-06
-7.34897e-06
9.12317e-06
-4.32628e-06
-3.75351e-06
1.00502e-05
-5.55366e-06
5.26997e-07
1.09477e-05
-5.32511e-06
4.3975e-06
1.21771e-05
-4.5433e-06
7.0527e-06
1.32236e-05
-4.05962e-06
8.08313e-06
1.45581e-05
-3.41706e-06
7.26261e-06
1.62844e-05
-2.45896e-06
4.87852e-06
1.70626e-05
-1.13103e-06
1.97017e-05
7.24648e-07
-4.06428e-06
-1.92363e-06
6.63948e-07
-3.14007e-06
-4.45584e-06
-1.33982e-06
-3.48327e-06
-2.82017e-06
1.03432e-07
-2.60601e-06
-3.9083e-06
-8.8359e-07
-2.13221e-06
-3.20101e-06
-1.06462e-07
-1.16155e-06
-3.13746e-06
-4.62966e-07
-4.79625e-07
-1.61931e-06
-2.95893e-07
-3.50596e-07
-4.12192e-07
-5.21544e-08
-2.60316e-07
5.02254e-07
-8.01659e-08
-8.1963e-08
9.09454e-07
-1.1183e-08
1.36367e-07
9.62245e-07
-1.18227e-07
1.50155e-07
1.28778e-06
-8.58536e-08
9.85398e-08
1.22783e-06
-1.63421e-07
2.86772e-08
1.01505e-06
-2.42739e-07
-4.17462e-08
9.48732e-07
-3.31835e-07
-1.07106e-07
9.8627e-07
-4.07022e-07
-1.54743e-07
1.13301e-06
-4.47105e-07
-1.97393e-07
1.27371e-06
-4.7021e-07
-2.35254e-07
1.37803e-06
-4.82099e-07
-2.56221e-07
1.43532e-06
-4.90821e-07
-2.68013e-07
1.47982e-06
-4.93881e-07
-2.7236e-07
1.50859e-06
-4.94676e-07
-2.70847e-07
1.5293e-06
-4.92862e-07
-2.65835e-07
1.54753e-06
-4.88726e-07
-2.60492e-07
1.56286e-06
-4.82664e-07
-2.57023e-07
1.57492e-06
-4.76541e-07
-2.5549e-07
1.58313e-06
-4.70254e-07
-2.54308e-07
1.58641e-06
-4.64749e-07
-2.51514e-07
1.5832e-06
-4.60793e-07
-2.46325e-07
1.57589e-06
-4.58613e-07
-2.42792e-07
1.57467e-06
-4.57108e-07
-2.43878e-07
1.58175e-06
-4.54872e-07
-2.5084e-07
1.59324e-06
-4.52449e-07
-2.64896e-07
1.6107e-06
-4.49208e-07
-2.8712e-07
1.62823e-06
-4.45978e-07
-3.13233e-07
1.64592e-06
-4.443e-07
-3.39735e-07
1.65083e-06
-4.44263e-07
-3.60176e-07
1.65064e-06
-4.47099e-07
-3.76849e-07
1.6375e-06
-4.51253e-07
-3.79172e-07
1.6176e-06
-4.58929e-07
-4.03989e-07
1.63229e-06
-4.56961e-07
-4.09103e-07
1.6002e-06
-4.67199e-07
-4.80122e-07
1.6909e-06
-4.58766e-07
-4.86632e-07
1.61016e-06
-4.92075e-07
-5.12478e-07
1.72209e-06
-5.29537e-07
-3.84152e-07
1.44809e-06
-6.26088e-07
-1.09168e-07
1.50777e-06
-8.15508e-07
1.53243e-07
1.03909e-06
-9.30439e-07
2.01799e-07
1.84105e-06
-1.00606e-06
-3.39653e-07
1.74717e-06
-5.21721e-07
-1.05686e-06
3.1271e-06
-1.24154e-07
-1.33975e-06
1.28254e-06
-4.90986e-07
3.50116e-07
9.79258e-07
-2.28256e-06
1.61137e-06
-3.24226e-06
-2.66748e-06
-5.39586e-07
3.90315e-06
-3.06439e-06
-2.29171e-06
3.63493e-06
-4.61298e-06
4.31441e-06
8.94968e-06
-1.06725e-05
2.69504e-05
-1.84397e-05
-1.44099e-05
3.94589e-05
-2.06391e-06
1.96119e-05
3.65391e-05
1.39908e-05
3.82066e-06
-2.38371e-05
2.65227e-05
9.80992e-06
-3.11752e-05
6.31873e-06
5.17506e-06
-3.86315e-05
5.58232e-06
3.75067e-06
-3.79968e-05
-6.8935e-06
1.17244e-06
-3.82654e-05
-8.41037e-06
-4.99365e-07
-3.81918e-05
-1.07964e-05
-5.76232e-07
-3.92651e-05
-9.91665e-06
-5.43906e-07
-4.23931e-05
-1.05706e-05
-9.31185e-07
-4.70683e-05
-1.08572e-05
-1.57146e-06
-5.20328e-05
-1.28216e-05
-2.40915e-06
-5.71322e-05
-1.49861e-05
-3.24497e-06
-6.05924e-05
-1.75356e-05
-3.9865e-06
-6.32354e-05
-1.98498e-05
-4.18314e-06
-6.57874e-05
-2.08888e-05
-3.93756e-06
-6.87705e-05
-2.03416e-05
-3.60044e-06
-7.0265e-05
-1.88377e-05
-3.09154e-06
-6.98439e-05
-1.64555e-05
-2.61725e-06
-6.92139e-05
-1.35586e-05
-2.03297e-06
-6.81481e-05
-9.79666e-06
-1.52505e-06
-6.68702e-05
-6.09265e-06
-1.08762e-06
-6.53881e-05
-2.06556e-06
-7.23592e-07
-6.30378e-05
1.03265e-06
-5.02913e-07
-6.00377e-05
4.51161e-06
-7.16319e-07
-5.6677e-05
7.12124e-06
-1.30221e-06
-5.26008e-05
8.29704e-06
-2.55301e-06
-4.82429e-05
8.78183e-06
-4.22913e-06
-4.3362e-05
8.78719e-06
-5.52757e-06
-3.80731e-05
9.64835e-06
-6.20485e-06
-3.20502e-05
1.02032e-05
-6.17905e-06
-2.52636e-05
1.01507e-05
-5.98827e-06
-1.80291e-05
1.01133e-05
-5.80048e-06
-1.13476e-05
1.0679e-05
-4.86314e-06
-5.68313e-06
1.18332e-05
-3.52007e-06
-1.25381e-06
1.31796e-05
-1.76535e-06
1.30507e-06
1.35819e-05
8.66206e-07
1.45739e-05
6.67673e-06
-3.77456e-06
-1.19957e-07
2.14993e-06
-3.31107e-06
-4.0947e-06
-8.27657e-07
-3.97167e-06
-2.42307e-06
2.68103e-07
-3.02428e-06
-3.8074e-06
-1.04465e-06
-2.51374e-06
-3.41546e-06
-2.88793e-07
-1.41955e-06
-3.50245e-06
-7.21661e-07
-4.83329e-07
-2.17304e-06
-3.7269e-07
-2.34055e-07
-7.40424e-07
8.60504e-08
-2.33912e-07
4.51371e-07
5.54642e-08
-8.20921e-08
6.58446e-07
1.02464e-07
2.0264e-07
7.65753e-07
-8.65214e-08
3.79029e-07
1.11393e-06
-1.51862e-09
4.26744e-07
1.13729e-06
4.36405e-08
3.33437e-07
9.63604e-07
1.45229e-07
1.89656e-07