/*--------------------------------*- C++ -*----------------------------------*\
| =========                 |                                                 |
| \\      /  F ield         | OpenFOAM: The Open Source CFD Toolbox           |
|  \\    /   O peration     | Version:  2.3.0                                 |
|   \\  /    A nd           | Web:      www.OpenFOAM.org                      |
|    \\/     M anipulation  |                                                 |
\*---------------------------------------------------------------------------*/
FoamFile
{
    version     2.0;
    format      ascii;
    class       volVectorField;
    location    "33";
    object      U;
}
// * * * * * * * * * * * * * * * * * * * * * * * * * * * * * * * * * * * * * //

dimensions      [0 1 -1 0 0 0 0];

internalField   nonuniform List<vector> 
6144
(
(0.0107311 0.0189349 8.62595e-05)
(0.0104022 -0.0057196 -0.00129638)
(0.00461735 -0.00539689 -0.00268927)
(0.0041356 -0.00626741 -0.00268519)
(0.00268695 -0.00498734 -0.00253766)
(0.00272604 -0.00218623 -0.00231292)
(0.00238475 -0.000770794 -0.00150592)
(0.00224577 0.000611042 -0.000711528)
(0.00166571 0.00130547 -0.000191808)
(0.00122146 0.00324483 0.000562222)
(0.00110493 0.00443994 0.00104475)
(0.00124293 0.00491055 0.00146159)
(0.00148328 0.00461083 0.00164285)
(0.00167636 0.00381891 0.00182667)
(0.00179859 0.00277951 0.00162286)
(0.00191477 0.00183817 0.00141209)
(0.00198506 0.000982658 0.00106293)
(0.00206168 0.00038414 0.000763817)
(0.00212687 -4.84254e-05 0.000443158)
(0.00217564 -0.000267275 0.000221093)
(0.00220112 -0.000377963 7.83823e-05)
(0.00221083 -0.000380407 5.06297e-06)
(0.00220367 -0.000339959 -1.55195e-05)
(0.00218192 -0.000266471 5.05017e-06)
(0.0021481 -0.000182601 5.88169e-05)
(0.00210793 -0.000102324 0.000139623)
(0.0020627 -3.80697e-05 0.000239552)
(0.0020123 2.96215e-06 0.000369547)
(0.00196006 2.39337e-05 0.000515573)
(0.00191513 1.70599e-05 0.000647264)
(0.00187405 -1.91151e-05 0.000764573)
(0.00183336 -8.86422e-05 0.000857958)
(0.00179424 -0.000143143 0.000927403)
(0.00175731 -0.000202467 0.000980404)
(0.00172103 -0.000209366 0.00103661)
(0.00168566 -0.000257481 0.00108804)
(0.00164948 -0.000219596 0.00117178)
(0.00161547 -0.000335839 0.00124807)
(0.0015837 -0.000288101 0.00136084)
(0.00156079 -0.00058793 0.00141376)
(0.00154164 -0.000457165 0.00148054)
(0.00154429 -0.00098294 0.00147586)
(0.00151594 -0.00056609 0.00148876)
(0.0015339 -0.00132738 0.00144404)
(0.00139633 -0.000410826 0.00137655)
(0.00136754 -0.0011011 0.00118283)
(0.000912558 0.000687763 0.000756714)
(0.00087257 0.00164022 0.000148598)
(0.000355689 0.0058229 -0.000162199)
(0.00258996 0.00685769 -0.000868554)
(0.00535951 0.0127297 -0.0013771)
(0.00967497 -0.00641445 -0.00372964)
(0.0100889 0.00301664 -0.00612851)
(0.00834616 -0.0127025 -0.00853673)
(0.00655085 0.0167645 -0.0151684)
(0.00886723 0.000499268 -0.010718)
(0.0336426 0.0787245 0.0146629)
(0.0105483 -0.111787 0.0183941)
(-0.0607047 0.0961813 -0.120488)
(0.0439553 0.0285915 -0.092654)
(0.102296 -0.21421 -0.0226151)
(0.0553698 -0.0202149 -0.0146872)
(0.0103198 -0.0984887 -0.0124528)
(0.0166418 -0.0603713 -0.00701035)
(0.00574601 -0.0620289 -0.0063634)
(0.00532042 -0.0563492 -0.00796511)
(0.00577506 -0.0467499 -0.010928)
(0.00935771 -0.0432941 -0.0114316)
(0.0164682 -0.0436279 -0.0117452)
(0.0219559 -0.0513953 -0.0122387)
(0.0268683 -0.0681289 -0.0103813)
(0.0298849 -0.0928136 -0.00380572)
(0.0284803 -0.126281 0.00325331)
(0.0242124 -0.163388 0.00914107)
(0.0179879 -0.201098 0.0142002)
(0.012815 -0.23638 0.0162839)
(0.00746773 -0.264667 0.0157913)
(0.00292199 -0.28366 0.0148597)
(0.000913781 -0.295749 0.0129454)
(-0.00357871 -0.298486 0.0112172)
(-0.00709856 -0.29487 0.00766624)
(-0.0077327 -0.285614 0.00861943)
(-0.0143245 -0.272077 0.00428971)
(-0.0143952 -0.24397 0.000153414)
(-0.0201884 -0.212862 0.00295482)
(-0.0289321 -0.176494 -0.0175483)
(-0.0190704 -0.0921244 -0.0202178)
(-0.0068432 -0.029794 -0.00742076)
(-0.0046124 -0.000354514 -0.00286133)
(-0.00303148 0.00809888 0.0059659)
(-0.00180531 -0.00152799 0.0144926)
(-0.00184139 -0.0181384 0.016277)
(-0.00165808 -0.0305155 0.0107206)
(-0.00182786 -0.0349874 0.0035804)
(-0.00159158 -0.0291244 -0.00204463)
(-0.00199355 -0.0126707 -0.0117967)
(0.0215929 0.0194462 0.00339645)
(0.022508 0.00459284 0.00224688)
(0.0119645 0.00231586 -0.00153386)
(0.011206 0.000661934 -0.00104792)
(0.00614611 -0.00163217 -0.000393174)
(0.00518668 -0.000700914 0.00101549)
(0.00318553 -0.001121 0.0025627)
(0.00249829 0.000515554 0.00269554)
(0.00145012 0.00217946 0.00245261)
(0.00106841 0.00488302 0.0027816)
(0.00139196 0.00604046 0.00333536)
(0.00206167 0.00645818 0.00393595)
(0.00264505 0.00592191 0.00420919)
(0.00314812 0.00509793 0.00435514)
(0.00336931 0.00392157 0.00428261)
(0.00356662 0.00287577 0.00421278)
(0.00361863 0.00186348 0.00408859)
(0.00369756 0.00111593 0.00398664)
(0.00376137 0.000536798 0.00385796)
(0.00382534 0.000201641 0.00370744)
(0.00384788 -1.40306e-05 0.00361559)
(0.0038351 -9.66069e-05 0.00357982)
(0.0037918 -0.000116924 0.00359384)
(0.00372166 -8.54419e-05 0.00365056)
(0.00363314 -3.15058e-05 0.00373796)
(0.00353222 2.80032e-05 0.00384632)
(0.00342233 7.81437e-05 0.00397135)
(0.00330588 0.000114199 0.0041058)
(0.00318871 0.000137792 0.00424086)
(0.0030961 0.000135087 0.00433025)
(0.00302159 0.000104173 0.00440613)
(0.00294288 4.30885e-05 0.00447151)
(0.00286491 3.7209e-06 0.00453045)
(0.00278001 -5.87336e-05 0.00458275)
(0.00271038 -5.76042e-05 0.00463156)
(0.0026318 -0.00012732 0.00467492)
(0.00259025 -8.02242e-05 0.00473201)
(0.0025269 -0.000234181 0.00477776)
(0.00253111 -0.00013723 0.00484212)
(0.0024781 -0.00046721 0.00486985)
(0.00250715 -0.000191992 0.00492842)
(0.00245043 -0.000770616 0.00494546)
(0.00244824 -0.000148577 0.00499386)
(0.00238336 -0.00114315 0.00501745)
(0.00217017 -9.21663e-05 0.0049161)
(0.00201083 -0.00152311 0.00476238)
(0.000989824 0.000485539 0.00401145)
(0.000579368 -0.000276886 0.00308121)
(-0.0010573 0.00501731 0.00238534)
(0.00118145 0.00258362 0.00323905)
(0.0116119 0.00894507 0.00338954)
(0.0189195 -0.00916365 0.000228794)
(0.0152201 0.00427097 -0.00590977)
(0.0129403 -0.00225523 -0.00502633)
(0.0139082 0.0270735 -0.00370126)
(0.00917105 -0.00944921 -0.00466054)
(0.0155514 0.0468231 0.0224926)
(-0.0114736 -0.029005 -0.0179462)
(0.0137396 0.192668 -0.123847)
(0.124472 -0.030125 -0.035971)
(0.118916 -0.152297 -0.0145904)
(0.0123387 0.137128 -0.011016)
(-0.00650232 -0.0561035 -0.010752)
(0.000434939 0.0788135 -0.000398778)
(0.0050264 0.0119329 -0.0047487)
(0.0115423 0.0418992 -0.00914735)
(0.0274925 0.0296697 -0.010318)
(0.0334397 0.0242354 -0.00789087)
(0.0469556 0.0146071 -0.00413203)
(0.0527134 -0.00296342 0.00305915)
(0.0554714 -0.0290865 0.0108058)
(0.0553452 -0.0604932 0.0183651)
(0.0492271 -0.100079 0.0251916)
(0.0391222 -0.141828 0.0287662)
(0.0259205 -0.183356 0.0285861)
(0.0130693 -0.21936 0.0234512)
(0.00317873 -0.245678 0.0193167)
(-0.00600608 -0.265495 0.014216)
(-0.0116593 -0.275403 0.00911916)
(-0.0176004 -0.279159 0.00753551)
(-0.0256716 -0.276866 0.00171663)
(-0.0299758 -0.266994 0.00270334)
(-0.0380737 -0.254405 -0.000760082)
(-0.0442345 -0.228384 -0.0049718)
(-0.0448634 -0.19999 -0.000354949)
(-0.0538393 -0.171119 -0.016572)
(-0.0507893 -0.106858 -0.0236293)
(-0.0284366 -0.0432457 -0.0070704)
(-0.0159891 -0.00905861 0.00250659)
(-0.0108062 0.00163651 0.0120475)
(-0.00825476 -0.00613981 0.0215159)
(-0.00747076 -0.0217815 0.0235395)
(-0.00874806 -0.0338446 0.0186088)
(-0.00832324 -0.0392033 0.00946985)
(-0.00924889 -0.0327072 0.000452652)
(-0.00800066 -0.015751 -0.0100776)
(0.0252703 0.0203445 0.00461993)
(0.0266471 0.01162 0.00444112)
(0.016679 0.00795805 0.0022475)
(0.0149843 0.00743438 0.00288222)
(0.00808279 0.00273605 0.00334347)
(0.00509117 0.00220707 0.00357813)
(0.00145115 1.0676e-05 0.00419081)
(6.70674e-05 0.000679722 0.00387996)
(-0.0014343 0.00210455 0.0035171)
(-0.00115505 0.00479559 0.00377761)
(-0.000165858 0.0057595 0.00417145)
(0.000880425 0.00621544 0.0047422)
(0.00164678 0.0058404 0.00495501)
(0.00229726 0.00533626 0.00506004)
(0.002644 0.00442198 0.00496644)
(0.00292533 0.00359451 0.00489254)
(0.00297999 0.00272618 0.00481089)
(0.00304923 0.00204822 0.00476591)
(0.00303049 0.00143959 0.00473717)
(0.002979 0.00100588 0.00473917)
(0.00290245 0.00067448 0.00476133)
(0.0028092 0.000462368 0.00479682)
(0.0027065 0.000326044 0.00484376)
(0.00259335 0.000259985 0.00490396)
(0.00247474 0.000234733 0.00497034)
(0.00235113 0.000234799 0.00503786)
(0.002226 0.000244491 0.00510787)
(0.00209984 0.000253635 0.00517938)
(0.00197717 0.00025468 0.00525132)
(0.00185543 0.000241539 0.00532546)
(0.00174648 0.000228811 0.00539645)
(0.00162858 0.000209871 0.00546056)
(0.00151091 0.000206749 0.00552309)
(0.00138039 0.000172752 0.00558012)
(0.00127694 0.00017843 0.00563617)
(0.00116026 0.000107816 0.00568859)
(0.00110263 0.00013901 0.00574443)
(0.00100214 1.77078e-05 0.00578044)
(0.00100604 0.000150053 0.00584016)
(0.00089858 -5.43266e-05 0.0058484)
(0.000941347 0.00028902 0.00590656)
(0.000851348 -0.000167598 0.00590274)
(0.000972389 0.0003985 0.00598035)
(0.000969298 -0.000660777 0.00596781)
(0.00106112 0.000160618 0.00588701)
(0.000916076 -0.00171932 0.00567239)
(0.000187074 0.000121176 0.00481345)
(-0.00127828 -0.00227823 0.0038113)
(-0.0026061 0.00264048 0.00333574)
(0.000263766 -0.00316262 0.00490685)
(0.012765 9.23681e-05 0.0054344)
(0.0217082 -0.00921996 0.00160263)
(0.0152281 0.00516214 -0.00414186)
(0.0128869 0.00139371 -0.00306901)
(0.0251277 0.0371352 0.00547723)
(0.0348861 -0.0283089 0.00632643)
(0.0213692 0.0334932 0.0417495)
(-0.0439698 -0.0880025 0.0379)
(-0.00246365 0.130774 -0.1758)
(0.0872975 -0.0580928 -0.0249932)
(0.100353 -0.0983621 -0.0231469)
(0.0383123 0.14461 -0.0063407)
(0.0414852 0.0434031 -0.00979619)
(0.00778296 0.0994941 -0.00422306)
(0.0272139 0.0829795 -0.00827959)
(0.0307751 0.08505 -0.00456953)
(0.048394 0.0821339 -0.00218755)
(0.0532627 0.0684305 0.00135585)
(0.0666094 0.0582064 0.00574342)
(0.0701953 0.0376821 0.0112444)
(0.0725192 0.00662392 0.0161906)
(0.0732301 -0.0261522 0.0203839)
(0.0650785 -0.0696611 0.0212598)
(0.0518074 -0.110909 0.017757)
(0.0369163 -0.150358 0.0105175)
(0.0232596 -0.182078 0.000810296)
(0.0134515 -0.203496 -0.00459606)
(0.00579323 -0.217922 -0.0100923)
(0.000298909 -0.222377 -0.0124179)
(-0.00825811 -0.228068 -0.0107667)
(-0.0197834 -0.230446 -0.0128571)
(-0.0316745 -0.224827 -0.00742898)
(-0.0460572 -0.217362 -0.00798123)
(-0.0561716 -0.194383 -0.00938105)
(-0.0680713 -0.169309 -0.00578947)
(-0.08266 -0.144589 -0.0232026)
(-0.0760236 -0.0892891 -0.0296645)
(-0.0466052 -0.0327536 -0.00823771)
(-0.0253207 -0.00808174 0.00722212)
(-0.0170134 -0.00117879 0.0178017)
(-0.0162553 -0.0100936 0.0273043)
(-0.0178346 -0.0244568 0.0287356)
(-0.0199121 -0.0355103 0.0226899)
(-0.019598 -0.0405463 0.0122994)
(-0.01835 -0.0328122 0.000805606)
(-0.0225212 -0.0150958 -0.0108883)
(0.026588 0.0204459 0.00455839)
(0.029369 0.0156691 0.0052329)
(0.0182334 0.0107074 0.0032614)
(0.0169631 0.0116888 0.00303885)
(0.00935379 0.00592193 0.00367824)
(0.00654489 0.00528159 0.00360356)
(0.0013659 0.000896168 0.00441974)
(-0.00108595 0.000493663 0.00404431)
(-0.00363363 0.000391651 0.00378166)
(-0.00313229 0.00316302 0.00401221)
(-0.00171335 0.00415127 0.00444312)
(-0.000547035 0.00509405 0.00516184)
(0.000330783 0.00527534 0.00537101)
(0.00107741 0.00521756 0.00546855)
(0.00142886 0.00455832 0.00531664)
(0.00169299 0.00387689 0.00522291)
(0.00169216 0.0031078 0.00515513)
(0.00172927 0.00253496 0.0051303)
(0.00169134 0.00196528 0.00509914)
(0.00162212 0.00149628 0.0050868)
(0.00152001 0.00109266 0.00509126)
(0.00139489 0.000795601 0.00511233)
(0.00124357 0.000571181 0.00514139)
(0.00108272 0.000421238 0.00518358)
(0.00092564 0.000328412 0.00523757)
(0.000776393 0.000278377 0.00529824)
(0.000633217 0.000255082 0.00536292)
(0.000498062 0.000248248 0.00542838)
(0.000374514 0.000251957 0.00549109)
(0.000261733 0.000254169 0.00554951)
(0.000157469 0.00026307 0.00560106)
(4.60368e-05 0.000268385 0.00564974)
(-5.39423e-05 0.000289902 0.00570386)
(-0.000161694 0.00028246 0.00575728)
(-0.000239892 0.000309768 0.0058104)
(-0.000333332 0.000271857 0.00585197)
(-0.000373983 0.00033564 0.00588249)
(-0.000456817 0.000279738 0.00588422)
(-0.000424563 0.000449582 0.00590169)
(-0.000504642 0.000301585 0.00587956)
(-0.000386257 0.000620776 0.0059164)
(-0.000421874 0.000158981 0.00591141)
(-0.000118067 0.000695791 0.00601538)
(-8.44657e-05 -0.000357661 0.00598432)
(0.000325427 0.000608359 0.00600894)
(0.000175578 -0.00107002 0.00570991)
(-0.000246807 0.000421326 0.00508854)
(-0.001704 -0.00226717 0.00452579)
(-0.00177967 -0.00176876 0.00477959)
(0.00159971 -0.00874652 0.00663032)
(0.0117292 -0.00467183 0.00548953)
(0.0209761 -0.00724942 0.00106916)
(0.0163188 0.0113649 -0.00380178)
(0.00823962 -0.00274731 -0.00984455)
(0.030565 0.0191313 0.0200052)
(0.0499188 -0.0299165 0.0293186)
(0.0346906 0.0102668 0.0488353)
(-0.0533153 -0.0851655 0.0588549)
(0.0284268 0.0647576 -0.177047)
(0.0586876 -0.0551605 -0.028059)
(0.0820859 -0.0742811 -0.033652)
(0.0162305 0.148845 -0.0170253)
(0.0268704 0.0959044 -0.0182794)
(0.0183849 0.136985 -0.00865843)
(0.037763 0.131336 -0.0058329)
(0.0465996 0.132517 -0.00101311)
(0.0641464 0.12726 0.00128952)
(0.0712324 0.118142 0.00481194)
(0.0845529 0.105357 0.00917884)
(0.0894356 0.087413 0.0129811)
(0.0921585 0.0571762 0.0163042)
(0.0933093 0.028183 0.0176192)
(0.0875717 -0.0120883 0.0160495)
(0.0759134 -0.0490589 0.00846525)
(0.0633276 -0.0817728 -2.52693e-05)
(0.0523059 -0.105023 -0.00675676)
(0.0427558 -0.11663 -0.011489)
(0.0337366 -0.118685 -0.01272)
(0.0237301 -0.117425 -0.0116673)
(0.00978274 -0.118499 -0.012325)
(-0.00639802 -0.120908 -0.00751755)
(-0.0265121 -0.131365 -0.000612264)
(-0.0529662 -0.139827 -0.0103581)
(-0.0664791 -0.127126 -0.012389)
(-0.0743594 -0.114552 -0.00659421)
(-0.0923985 -0.0985023 -0.0252499)
(-0.0934479 -0.0435736 -0.0334353)
(-0.0514099 -0.0143686 -0.00246657)
(-0.0255346 -0.000164 0.015165)
(-0.0192315 -0.000740549 0.0254118)
(-0.0226359 -0.0114194 0.0333086)
(-0.0282014 -0.025369 0.0317601)
(-0.0307746 -0.0365364 0.0230882)
(-0.0294609 -0.0408873 0.0117909)
(-0.0293452 -0.0322517 -0.000375518)
(-0.0298741 -0.01563 -0.00909859)
(0.0267002 0.0207226 0.00447572)
(0.0310749 0.0180036 0.00509622)
(0.0194961 0.0122063 0.00215481)
(0.019659 0.0142133 0.00181597)
(0.0114186 0.00773562 0.00233408)
(0.00890409 0.00767363 0.00213386)
(0.00233914 0.00210611 0.00302195)
(-0.00109956 0.00171199 0.00327028)
(-0.00509036 -0.000795471 0.00353238)
(-0.00546876 0.00147905 0.00391738)
(-0.00387457 0.00250543 0.00424292)
(-0.00294629 0.0038579 0.00507753)
(-0.00198564 0.00455584 0.00532843)
(-0.00109114 0.00488664 0.00545264)
(-0.000549934 0.00447811 0.0052748)
(-0.000317682 0.00385678 0.00517372)
(-0.000503599 0.0031265 0.00511718)
(-0.00062294 0.00262402 0.0051185)
(-0.000763731 0.00211888 0.00509398)
(-0.000898563 0.0016869 0.00506652)
(-0.00105441 0.00128306 0.00503798)
(-0.0012079 0.00094594 0.00501832)
(-0.00136306 0.00066486 0.00501512)
(-0.00152306 0.000459103 0.00502634)
(-0.00167832 0.000314782 0.00504822)
(-0.00182032 0.000223285 0.00508121)
(-0.00194877 0.000171749 0.00512166)
(-0.00206236 0.000151969 0.00516487)
(-0.00215599 0.000152454 0.00520448)
(-0.00223501 0.000160464 0.00522781)
(-0.00230884 0.000184081 0.00523594)
(-0.00239299 0.000206944 0.00523997)
(-0.00247328 0.000244709 0.00525038)
(-0.00256322 0.000255253 0.00526426)
(-0.00262732 0.000308162 0.0052808)
(-0.00270661 0.00031187 0.00528506)
(-0.00273364 0.000419832 0.00528304)
(-0.0027875 0.000414574 0.0052553)
(-0.00274702 0.000612949 0.0052367)
(-0.00278533 0.000494776 0.00519483)
(-0.00265912 0.000822241 0.00520918)
(-0.00263684 0.000405141 0.00519841)
(-0.00231844 0.00103809 0.0052968)
(-0.00222124 0.000213514 0.00526979)
(-0.00173073 0.00141096 0.00539962)
(-0.00154447 4.67729e-05 0.00528176)
(-0.00148242 0.0011108 0.00553232)
(-0.000939215 -0.0024776 0.0060015)
(-0.000740698 -0.00548369 0.00767197)
(0.00179203 -0.0131218 0.00703437)
(0.00593561 -0.00542136 0.00237236)
(0.0137981 0.0018939 -0.00289913)
(0.0143402 0.0256647 -0.00262126)
(0.0173337 0.00527483 0.00132293)
(0.0300089 0.0170399 0.0330477)
(0.0339445 -0.0108668 0.0460182)
(0.00928947 0.0296974 0.0549752)
(-0.0499243 -0.0787992 0.0703699)
(0.0195495 0.00420077 -0.183369)
(0.0390177 -0.04147 -0.0184818)
(0.0505276 -0.0283676 -0.0267645)
(0.0117036 0.161954 -0.0187232)
(0.0264741 0.135677 -0.015982)
(0.0276125 0.170966 -0.00643189)
(0.0472992 0.171631 0.00100427)
(0.0562765 0.172104 0.00310248)
(0.0717571 0.168486 0.00643239)
(0.0807992 0.163879 0.00986437)
(0.0937385 0.15131 0.0134618)
(0.10146 0.14126 0.0174399)
(0.107334 0.117106 0.0206908)
(0.111292 0.0955203 0.0207178)
(0.107781 0.0642646 0.0184666)
(0.0948448 0.0316313 0.0110066)
(0.0795125 0.00363226 0.00356625)
(0.0637086 -0.016311 -0.00186909)
(0.0497346 -0.02656 -0.00344861)
(0.0387065 -0.0298163 -0.0028525)
(0.0297271 -0.0306043 -0.00034862)
(0.0192051 -0.0322313 0.00378004)
(0.00501951 -0.0360117 0.00904941)
(-0.0137527 -0.0455475 0.0122388)
(-0.0365327 -0.0543851 0.0112851)
(-0.0635951 -0.0549857 0.00270787)
(-0.0964405 -0.0429405 -0.0241843)
(-0.110017 -0.0106206 -0.0407408)
(-0.0750392 0.0053699 -0.0139265)
(-0.037089 0.00710514 0.0133059)
(-0.0224608 0.00989883 0.0265403)
(-0.0242374 0.00184037 0.0354589)
(-0.0330563 -0.0109088 0.0375009)
(-0.0385864 -0.0268306 0.0300711)
(-0.0393933 -0.0373215 0.0189171)
(-0.038869 -0.0388721 0.00801659)
(-0.0406923 -0.0291134 -0.00258539)
(-0.0463306 -0.0146365 -0.00879626)
(0.0253567 0.0206203 0.00718623)
(0.0322079 0.0206371 0.00555507)
(0.019977 0.0132989 0.000793448)
(0.0222976 0.0172207 -0.000201984)
(0.0139567 0.00951662 -0.000178033)
(0.0118663 0.00996531 3.29315e-05)
(0.00448933 0.00315324 0.000631708)
(0.00058579 0.00328671 0.00140904)
(-0.00466283 -0.000805382 0.00264026)
(-0.00694018 0.000370392 0.0030003)
(-0.00538055 0.000445267 0.00322157)
(-0.00419185 0.00203754 0.00433391)
(-0.0028815 0.00343312 0.00486712)
(-0.00165539 0.00411835 0.00530895)
(-0.000855715 0.00390112 0.00539592)
(-0.000569126 0.0033701 0.00542367)
(-0.000963766 0.00271384 0.00534632)
(-0.00126513 0.00232357 0.00533076)
(-0.00154033 0.00197376 0.0052686)
(-0.00177221 0.00169277 0.00518732)
(-0.00199455 0.00140871 0.00509022)
(-0.00219799 0.00115232 0.00499224)
(-0.00240033 0.000911862 0.00490129)
(-0.00258781 0.000711796 0.0048249)
(-0.00274959 0.000556579 0.00476015)
(-0.00288054 0.000452902 0.00470835)
(-0.0029937 0.000395545 0.00466636)
(-0.00308037 0.000375155 0.00462972)
(-0.0031412 0.000383335 0.00459016)
(-0.00319323 0.000398237 0.00453918)
(-0.00324432 0.000419471 0.00448733)
(-0.00330372 0.000430977 0.00444415)
(-0.00335063 0.000465173 0.00441704)
(-0.00341064 0.000479455 0.00439636)
(-0.00344566 0.000554807 0.00438144)
(-0.0035076 0.000594716 0.0043569)
(-0.00351467 0.000740927 0.00433066)
(-0.00355378 0.000775751 0.00428499)
(-0.00348079 0.000980736 0.0042566)
(-0.00347016 0.000859252 0.00421625)
(-0.00332098 0.00118333 0.00422518)
(-0.00325028 0.000797332 0.00422527)
(-0.0029835 0.00152224 0.0043285)
(-0.00281733 0.000959016 0.00434821)
(-0.00247462 0.00230094 0.00456356)
(-0.00193981 0.00120727 0.00477831)
(-0.00166801 0.00215431 0.0058403)
(0.000469382 -0.0019891 0.00744273)
(0.000330438 -0.0046895 0.0102816)
(0.00123474 -0.0119496 0.00889087)
(-0.00122685 -0.00288741 0.00256946)
(0.00544638 0.00455324 -0.00406547)
(0.00810794 0.0271604 0.00176427)
(0.0240909 0.00412931 0.00694438)
(0.0166664 0.0226993 0.0359391)
(0.00872517 -0.00699303 0.048226)
(0.0184307 0.0182416 0.0632252)
(0.00340845 -0.0720093 0.076353)
(-0.000270565 -0.0109739 -0.182698)
(0.00971436 -0.0294745 -0.0116378)
(0.00820144 -0.00493097 -0.0231906)
(-0.000461974 0.174302 -0.0184984)
(0.013993 0.159131 -0.013599)
(0.0294056 0.19102 -0.00209155)
(0.0472427 0.188148 0.00453134)
(0.0570823 0.192962 0.00674101)
(0.0716219 0.190355 0.0096028)
(0.0811229 0.193663 0.0129285)
(0.0932732 0.190129 0.0146922)
(0.102737 0.192498 0.0182934)
(0.111838 0.175962 0.0216769)
(0.11903 0.166417 0.0218571)
(0.119641 0.146206 0.0207208)
(0.111831 0.120831 0.014762)
(0.0960818 0.0911068 0.00683366)
(0.0771845 0.0682374 0.00021291)
(0.057079 0.0527795 -0.00245395)
(0.0397311 0.0455791 -0.00228767)
(0.0250358 0.0438448 -0.000331444)
(0.00903862 0.0432943 0.00138786)
(-0.0105679 0.0424046 0.000481028)
(-0.0340481 0.0415189 -0.00445065)
(-0.0590662 0.0415057 -0.013941)
(-0.0768437 0.0429253 -0.0238764)
(-0.0858241 0.0441566 -0.0296513)
(-0.069888 0.0407409 -0.0126641)
(-0.0427654 0.0289421 0.0131263)
(-0.0272784 0.0219049 0.0284574)
(-0.0258731 0.0136938 0.0364156)
(-0.0324817 0.00131964 0.0373348)
(-0.0409212 -0.0143539 0.0309384)
(-0.0438982 -0.0277362 0.0204233)
(-0.045206 -0.0352842 0.0121342)
(-0.0464488 -0.0369495 0.00307643)
(-0.0480109 -0.0286372 -0.00605675)
(-0.0539174 -0.0153552 -0.0110631)
(0.0209328 0.0197587 0.00646364)
(0.0316724 0.024589 0.00644286)
(0.0199247 0.0148025 0.000623819)
(0.0241371 0.0200272 -3.52189e-06)
(0.0165751 0.0105798 -0.00210973)
(0.0148243 0.0115845 -0.00118201)
(0.00693626 0.00277727 -0.00133867)
(0.00224995 0.00405691 -0.000729627)
(-0.00335972 0.000365633 0.000915245)
(-0.00683949 0.000849103 0.0019595)
(-0.00647685 -0.00051239 0.00194835)
(-0.00717397 0.000780436 0.00320499)
(-0.00591144 0.00221414 0.00422369)
(-0.0040001 0.00302084 0.00532527)
(-0.00296841 0.00299248 0.00588748)
(-0.00272546 0.00269016 0.00621747)
(-0.00341313 0.00212026 0.00615883)
(-0.00404373 0.0018383 0.00607093)
(-0.0045196 0.00163754 0.00589899)
(-0.00482197 0.00154281 0.0056955)
(-0.00505401 0.00145444 0.00548919)
(-0.00521786 0.00138441 0.00529781)
(-0.00534996 0.00129665 0.00512329)
(-0.00547797 0.00121392 0.0049853)
(-0.00559328 0.00114366 0.00488218)
(-0.00568906 0.00109648 0.0048091)
(-0.00574958 0.00106612 0.00472949)
(-0.00578229 0.00106054 0.00465412)
(-0.00577445 0.00107618 0.00459356)
(-0.00573508 0.00108743 0.00454774)
(-0.00569938 0.00109266 0.00451404)
(-0.00569318 0.001084 0.00449338)
(-0.00570051 0.00110227 0.00448646)
(-0.00573274 0.00112178 0.00448266)
(-0.0057554 0.00120891 0.00449045)
(-0.00579729 0.00127812 0.00449526)
(-0.00578175 0.00143025 0.00449685)
(-0.00576138 0.0014987 0.00448619)
(-0.00565692 0.00167531 0.00448492)
(-0.00557329 0.00158481 0.0044865)
(-0.00549337 0.00187951 0.00449223)
(-0.00538798 0.0015525 0.00453621)
(-0.00544253 0.00224346 0.00460753)
(-0.00523207 0.00174395 0.00474043)
(-0.00531158 0.00295293 0.00494402)
(-0.00431949 0.00170355 0.00535081)
(-0.00396593 0.0026911 0.00632906)
(-0.000819909 -0.00159058 0.00799528)
(-0.00189662 -0.00152454 0.0112965)
(-0.000518005 -0.00771903 0.00971558)
(-0.00848987 0.00148011 0.00380712)
(-0.00193469 0.000134058 -0.005333)
(-5.84497e-05 0.0214869 0.00484036)
(0.0229955 -0.0135132 0.0103075)
(0.0144404 0.0143434 0.0221933)
(0.0182832 -0.0248759 0.0354487)
(-0.00507087 0.00670535 0.0693623)
(0.0328332 -0.0766711 0.0919157)
(-0.0108161 -0.0335363 -0.175343)
(-0.0175289 -0.046425 -0.00902825)
(-0.039109 -0.00573053 -0.0215528)
(-0.015608 0.171529 -0.0154763)
(-0.00111952 0.157132 -0.00976899)
(0.0251179 0.188421 0.00134227)
(0.0414826 0.181888 0.00932927)
(0.0525774 0.186945 0.0118141)
(0.062544 0.187769 0.0127487)
(0.0743562 0.19509 0.0169403)
(0.0836851 0.199265 0.017009)
(0.0972179 0.206938 0.0195843)
(0.106496 0.20793 0.0227468)
(0.112234 0.212954 0.023342)
(0.115853 0.210679 0.0241493)
(0.115713 0.205043 0.0225489)
(0.106723 0.19181 0.0171878)
(0.0916749 0.170358 0.00895223)
(0.073696 0.150366 0.00298593)
(0.0549942 0.130856 -0.00238236)
(0.0357507 0.117549 -0.00595864)
(0.017798 0.108024 -0.00737057)
(-0.00101144 0.100452 -0.0090601)
(-0.0177802 0.0949927 -0.0110101)
(-0.0334002 0.0886998 -0.0118442)
(-0.0431845 0.0813613 -0.00861694)
(-0.043878 0.0721995 0.00174337)
(-0.0371916 0.058319 0.0162045)
(-0.0305262 0.0450008 0.0277262)
(-0.0284871 0.0336712 0.0338145)
(-0.0312385 0.0215179 0.034322)
(-0.0360199 0.00627796 0.0301378)
(-0.0411282 -0.00969943 0.0228583)
(-0.0433343 -0.0226148 0.0173809)
(-0.0466132 -0.0293933 0.0121861)
(-0.0535082 -0.0311776 0.0057772)
(-0.0577223 -0.024097 -0.00192886)
(-0.0689378 -0.0137164 -0.0114282)
(0.0189913 0.0158464 0.00480135)
(0.0301096 0.0288658 0.00688011)
(0.0188468 0.0162456 0.000556066)
(0.0246927 0.0233186 0.000797667)
(0.0185136 0.0118609 -0.00288191)
(0.0176264 0.0130016 -0.001756)
(0.00843645 0.00230593 -0.00287229)
(0.00199952 0.00390781 -0.00318614)
(-0.0025857 0.00150754 -0.000229741)
(-0.0056537 0.0023641 0.00127567)
(-0.00586437 -0.000228102 0.00168648)
(-0.00681284 -0.000269749 0.00318713)
(-0.00545262 -0.000263489 0.00475462)
(-0.00353925 0.000279295 0.0062319)
(-0.00260766 0.000541836 0.00719667)
(-0.00233697 0.00101859 0.0080273)
(-0.00294538 0.00126744 0.00828763)
(-0.00359434 0.00153271 0.0083164)
(-0.0041274 0.00172904 0.00815132)
(-0.00450302 0.00188387 0.00788549)
(-0.00478791 0.00194403 0.00759988)
(-0.00497456 0.00197947 0.00733376)
(-0.00511483 0.00196841 0.00709042)
(-0.00523312 0.00193738 0.00687853)
(-0.00532584 0.00189532 0.00670256)
(-0.00538732 0.00185932 0.0065571)
(-0.00541952 0.00183596 0.00643472)
(-0.00542259 0.00182109 0.00632389)
(-0.00539133 0.00180408 0.00622785)
(-0.00532928 0.00177116 0.00614852)
(-0.00526816 0.00173907 0.00609204)
(-0.00523602 0.0017178 0.00605611)
(-0.00522213 0.00173102 0.00603604)
(-0.005241 0.00175539 0.00601229)
(-0.00525886 0.00185131 0.00598884)
(-0.00529096 0.00193024 0.00595129)
(-0.00527493 0.00207336 0.00590487)
(-0.00525399 0.00213524 0.00583716)
(-0.00515033 0.0022779 0.00578178)
(-0.00503437 0.00216439 0.00573657)
(-0.00497062 0.00244017 0.00569917)
(-0.00477793 0.00210535 0.00570326)
(-0.00493432 0.00278983 0.00572445)
(-0.00456612 0.00225605 0.00581392)
(-0.00488382 0.00336231 0.00587906)
(-0.00366558 0.00173097 0.00621626)
(-0.00377564 0.00312313 0.00691216)
(-0.000995618 -0.001548 0.00789508)
(-0.00331604 0.00162759 0.0107996)
(-0.00344022 -0.00215828 0.00809193)
(-0.0108508 0.00841494 0.00452277)
(-0.00300509 -0.000227075 -0.00016841)
(9.07084e-05 0.0180591 0.00979141)
(0.0248658 -0.0192684 0.015068)
(0.00652281 0.0163508 0.0483791)
(0.0081671 -0.0111667 0.0420123)
(-0.0157807 0.0491274 0.0836619)
(0.0923343 -0.0801365 0.0946579)
(-0.02827 0.0233443 -0.158614)
(-0.0556347 -0.0505909 -0.0115809)
(-0.0889492 -0.0159579 -0.0249262)
(-0.0275164 0.159554 -0.0148776)
(-0.0176417 0.128912 -0.00933556)
(0.0207293 0.154994 -0.00172086)
(0.0351831 0.142411 0.00311436)
(0.0451711 0.143869 0.00620575)
(0.0467133 0.145871 0.0106726)
(0.0566515 0.158738 0.0143444)
(0.0622678 0.172097 0.0173294)
(0.0743441 0.187608 0.0197091)
(0.0867103 0.203344 0.0216039)
(0.0972676 0.217764 0.0234844)
(0.106645 0.225149 0.0244831)
(0.107268 0.232922 0.0240756)
(0.100905 0.240327 0.0234654)
(0.0903551 0.242302 0.0211259)
(0.0762689 0.244152 0.0193537)
(0.0617758 0.242316 0.0169575)
(0.0438427 0.238257 0.0151088)
(0.02779 0.23359 0.0135127)
(0.0118274 0.225616 0.0132431)
(-0.000708075 0.218064 0.0142062)
(-0.0149341 0.20727 0.0174962)
(-0.0216314 0.196391 0.021228)
(-0.0250598 0.183511 0.0266448)
(-0.0257924 0.169076 0.0314431)
(-0.0255741 0.152027 0.0346182)
(-0.0283914 0.133748 0.0355305)
(-0.0322146 0.113728 0.0334763)
(-0.035122 0.0937803 0.0306317)
(-0.0391306 0.0720208 0.0284484)
(-0.0451506 0.0474084 0.0236938)
(-0.0525835 0.0265718 0.0173444)
(-0.0598862 0.00876896 0.00895964)
(-0.0666395 -0.0018186 -0.012194)
(-0.0820496 -0.00605388 -0.0508794)
(0.00694327 0.0113206 -0.00442656)
(0.027497 0.0306652 0.00571553)
(0.0167434 0.0178821 -3.48534e-05)
(0.0245639 0.0272409 0.00105505)
(0.0207975 0.0140335 -0.00295284)
(0.0208663 0.0156497 -0.00127917)
(0.0111786 0.00286642 -0.00461508)
(0.00248691 0.0033414 -0.0082796)
(-0.00358546 0.00084989 -0.00525508)
(-0.00511927 0.00271522 -0.00299615)
(-0.00523397 -0.000485695 -0.00133014)
(-0.00772428 -0.000945382 -8.19476e-05)
(-0.00791786 -0.00225128 0.00127118)
(-0.00693165 -0.00168661 0.00249021)
(-0.00672336 -0.00103176 0.0035768)
(-0.00702682 -4.80226e-05 0.00454578)
(-0.00775798 0.000701861 0.00523674)
(-0.00843006 0.00131743 0.00561226)
(-0.00887091 0.00172172 0.00567711)
(-0.00897361 0.00199593 0.00559693)
(-0.00903832 0.00215296 0.00545528)
(-0.00903057 0.00226362 0.00530314)
(-0.00898329 0.00231004 0.00516252)
(-0.00893312 0.00232142 0.00502747)
(-0.00887545 0.00230948 0.00490363)
(-0.00881116 0.00228774 0.0047909)
(-0.00873326 0.00226475 0.00469132)
(-0.00863529 0.00224357 0.0045964)
(-0.00850461 0.00222199 0.00450295)
(-0.00836254 0.0021934 0.00441369)
(-0.00827978 0.00217346 0.00433851)
(-0.0082492 0.00216619 0.00428245)
(-0.00823853 0.00218426 0.00424344)
(-0.00825631 0.00221094 0.00420678)
(-0.00827678 0.00230212 0.00417061)
(-0.00829058 0.00237654 0.00411445)
(-0.00823139 0.00250095 0.00404119)
(-0.00814291 0.00255689 0.00394192)
(-0.0080097 0.00269337 0.00384169)
(-0.00782249 0.00261584 0.00376656)
(-0.0079097 0.00291996 0.00368285)
(-0.00767167 0.0026342 0.00367632)
(-0.00822522 0.00335507 0.00365263)
(-0.00769122 0.00282697 0.00371917)
(-0.00827245 0.00400274 0.00367142)
(-0.00676 0.00242772 0.00374815)
(-0.00696553 0.00400136 0.00372656)
(-0.00503064 -0.000212443 0.00360581)
(-0.00930179 0.00409304 0.00395592)
(-0.00946186 -0.00112106 0.00114363)
(-0.0150883 0.0107079 0.0018799)
(-0.00773269 -0.00164543 0.000515513)
(-0.00430141 0.0197858 0.00774107)
(0.00915744 -0.0170014 0.0043365)
(-0.0154155 0.0420639 0.0294029)
(-0.0149773 -0.0435071 0.0312084)
(-0.0167518 0.0448828 0.0672967)
(0.111737 -0.122337 0.0706254)
(-0.0431512 0.101067 -0.149255)
(-0.0966714 -0.0755795 -0.022949)
(-0.141955 -0.0647993 -0.0306475)
(-0.0350297 0.1364 -0.0130101)
(-0.0366472 0.0643691 -0.0124698)
(0.030562 0.10357 -0.00809557)
(0.0313803 0.08182 -0.0108977)
(0.0433936 0.0882764 -0.0114859)
(0.037553 0.087388 -0.00388598)
(0.0389566 0.104976 0.0045587)
(0.038993 0.115349 0.00887026)
(0.045039 0.133298 0.0137093)
(0.0521419 0.150794 0.0165074)
(0.0619982 0.172821 0.0186612)