/*--------------------------------*- C++ -*----------------------------------*\
| =========                 |                                                 |
| \\      /  F ield         | OpenFOAM: The Open Source CFD Toolbox           |
|  \\    /   O peration     | Version:  2.3.0                                 |
|   \\  /    A nd           | Web:      www.OpenFOAM.org                      |
|    \\/     M anipulation  |                                                 |
\*---------------------------------------------------------------------------*/
FoamFile
{
    version     2.0;
    format      ascii;
    class       volVectorField;
    location    "33";
    object      U;
}
// * * * * * * * * * * * * * * * * * * * * * * * * * * * * * * * * * * * * * //

dimensions      [0 1 -1 0 0 0 0];

internalField   nonuniform List<vector> 
6144
(
(0.0110685 0.0196988 0.00118469)
(0.0117154 -0.00607337 -4.42212e-05)
(0.00370271 -0.00784364 -0.00203417)
(0.00321319 -0.00614202 -0.00212619)
(0.00210909 -0.0043267 -0.00204647)
(0.00277447 -0.00124382 -0.00193778)
(0.00271175 -0.000626736 -0.00149844)
(0.00257517 0.000422069 -0.000933519)
(0.00200181 0.000224428 -0.000528398)
(0.00157063 0.00163806 -5.53163e-05)
(0.00125426 0.00272758 0.000448078)
(0.00124842 0.00371965 0.00101539)
(0.0014043 0.00389642 0.00132417)
(0.00156323 0.00345081 0.00171255)
(0.00167814 0.00260791 0.0016906)
(0.00179497 0.00174803 0.00156835)
(0.00186838 0.000906006 0.00128697)
(0.00194427 0.000271687 0.00101249)
(0.00201139 -0.000208543 0.000723367)
(0.00206118 -0.000456664 0.000465471)
(0.00210345 -0.000571021 0.000270492)
(0.00212315 -0.000575484 0.000170399)
(0.00212406 -0.000521279 0.000131234)
(0.00210856 -0.000429454 0.000140353)
(0.00207926 -0.000324471 0.000188447)
(0.00203932 -0.000219794 0.000273883)
(0.00198855 -0.000127696 0.000401746)
(0.00193399 -5.03473e-05 0.000550933)
(0.00188111 -2.7971e-06 0.000700637)
(0.0018268 -1.69014e-06 0.000853944)
(0.00176888 -4.83575e-05 0.00100136)
(0.0017023 -0.000124622 0.00113472)
(0.00162636 -0.000203046 0.00126347)
(0.00154267 -0.000275845 0.00140848)
(0.00145894 -0.0003641 0.00158675)
(0.00138124 -0.000510186 0.00179009)
(0.00131197 -0.000728368 0.00196423)
(0.00124927 -0.000967538 0.00204148)
(0.00118031 -0.00109449 0.00198329)
(0.001087 -0.000979757 0.00180089)
(0.000931285 -0.000394753 0.00147489)
(0.000666959 0.000914047 0.000965721)
(0.000173856 0.0035472 0.000382332)
(-0.000418236 0.00753338 0.000147026)
(-0.00111258 0.0128946 0.000343775)
(-0.0023552 0.0189967 0.000870201)
(-0.00474225 0.0288195 0.00102601)
(-0.00772794 0.0438289 0.00111539)
(-0.00703154 0.0629279 0.00242764)
(-0.00432027 0.0707682 0.0019626)
(0.00634926 0.0635351 -0.00111994)
(0.0108958 0.0554286 -0.0010024)
(0.0215764 0.0393803 -0.00107391)
(0.0188326 0.00856751 -0.00124234)
(0.0308733 0.0191673 -0.00257017)
(0.0120624 -0.0515445 0.00724674)
(0.0205473 0.0176362 -0.00825981)
(0.0150837 -0.12254 0.0324374)
(-0.0273442 0.072785 -0.0518186)
(0.00561077 0.0454724 0.0317357)
(0.0706436 -0.234966 0.0735996)
(0.04619 -0.0654599 0.0361433)
(0.0279127 -0.142547 0.0015316)
(0.0275505 -0.151812 0.0016717)
(0.0266974 -0.154067 0.00521287)
(0.0260182 -0.161605 0.00429863)
(0.0243286 -0.174988 0.00557667)
(0.0222127 -0.18239 0.00895061)
(0.0200878 -0.184884 0.00714586)
(0.01634 -0.185155 0.00777628)
(0.0107727 -0.18108 0.0103665)
(0.00793346 -0.163337 0.0150061)
(-0.012744 -0.136323 0.00680123)
(-0.0433798 -0.047978 -0.00387204)
(-0.0274832 0.0190054 0.0272811)
(0.00123356 0.0538318 0.00185736)
(0.00283707 0.0621286 -0.030703)
(0.00504123 0.0696073 -0.0397919)
(0.0119166 0.0743832 -0.0383199)
(0.0202413 0.0716902 -0.0232897)
(0.0174428 0.0743437 -0.0139477)
(0.017757 0.0725288 -0.0117651)
(0.0153476 0.0734347 -0.0109229)
(0.0136517 0.0730093 -0.0111141)
(0.0114555 0.0733235 -0.00949931)
(0.00952306 0.0752752 -0.00559082)
(0.00569186 0.076131 -0.00209047)
(0.00256252 0.0743933 5.98429e-06)
(0.00365924 0.073414 0.00473535)
(0.00392327 0.072811 0.00993599)
(0.00392615 0.0746086 0.013788)
(0.00444786 0.0764618 0.0160155)
(0.00327614 0.0770699 0.0171874)
(0.000706004 0.0689021 0.0200062)
(0.00606392 0.0533173 0.0245039)
(0.0181854 0.0326059 0.0372626)
(0.0208452 0.0187414 0.00413646)
(0.0226843 0.00298181 0.00374309)
(0.00878544 -0.00216312 -0.000171029)
(0.00788885 -0.00127268 -0.000451471)
(0.00480016 -0.00270024 0.000261811)
(0.00516836 -0.000593733 0.00138315)
(0.00427221 -0.00126681 0.00219735)
(0.00387963 0.000157984 0.0024123)
(0.00281569 0.000421218 0.00247773)
(0.00200901 0.00268005 0.00255843)
(0.00162265 0.00395472 0.00297054)
(0.00184365 0.00494473 0.0036313)
(0.00235252 0.00497158 0.00398341)
(0.00285813 0.00452224 0.00426512)
(0.00310988 0.00359679 0.00430342)
(0.00332622 0.00267317 0.00428045)
(0.00339525 0.00171533 0.00419157)
(0.00347469 0.000973751 0.00410966)
(0.00351951 0.000349424 0.00402916)
(0.00354975 -3.32505e-05 0.00395365)
(0.00359258 -0.000253846 0.00384918)
(0.0035984 -0.000349516 0.0038025)
(0.00356831 -0.000363831 0.00380729)
(0.0035088 -0.000320194 0.0038552)
(0.00342531 -0.000248 0.00393723)
(0.00332392 -0.000163436 0.00404648)
(0.00320572 -8.25333e-05 0.00417603)
(0.00308211 -1.56267e-05 0.00430259)
(0.00298126 1.4597e-05 0.0043966)
(0.0028919 -7.85765e-06 0.00449003)
(0.00279807 -7.74468e-05 0.0045775)
(0.00268618 -0.000177221 0.00465936)
(0.00255656 -0.000289032 0.00474286)
(0.00242281 -0.000413783 0.00483235)
(0.00230678 -0.000560651 0.00492759)
(0.00222241 -0.000737443 0.00502209)
(0.00214833 -0.000922838 0.00509742)
(0.00204153 -0.00107898 0.00514251)
(0.00185211 -0.00112232 0.0051526)
(0.00152606 -0.000964717 0.0051262)
(0.000949128 -0.000431271 0.00503012)
(-1.95182e-05 0.000628584 0.004777)
(-0.00144476 0.00274023 0.00425411)
(-0.00321246 0.00546253 0.00397477)
(-0.00561257 0.00925557 0.00390994)
(-0.009544 0.0137333 0.00385704)
(-0.0167875 0.0228436 0.00285179)
(-0.0234637 0.0344011 0.00302542)
(-0.0212547 0.0387864 0.00467241)
(0.00221565 0.0109144 0.00659172)
(0.0365391 -0.0310342 0.00593818)
(0.0377578 -0.0664804 0.00381116)
(0.0435347 -0.0906491 0.0069826)
(0.0349268 -0.111428 0.00792464)
(0.0358403 -0.114842 0.00415661)
(0.0212576 -0.124866 0.00752302)
(0.0258255 -0.0902178 -0.00191096)
(0.0183504 -0.169236 0.038413)
(-0.012363 0.0793553 -0.0375992)
(0.000973708 0.00257749 0.0111856)
(0.0723974 -0.223468 0.108705)
(0.0502493 -0.016328 0.0549593)
(0.0497942 -0.109498 0.00905017)
(0.0479368 -0.100784 0.0225181)
(0.040845 -0.101625 0.0203936)
(0.0354483 -0.10904 0.0127818)
(0.0239914 -0.108862 -0.00493923)
(0.015264 -0.09893 -0.00792303)
(0.0192929 -0.0744206 -0.0101321)
(0.00434792 -0.0309741 -0.00265506)
(-0.0164858 -0.0296176 0.0128255)
(-0.0372516 -0.0365724 0.00593752)
(-0.0534084 -0.0288296 -0.0129909)
(-0.0529394 0.00730107 -0.00251719)
(-0.0354308 0.0184433 0.0238949)
(-0.0118594 0.0346299 -0.00252182)
(0.00123857 0.0363403 -0.038174)
(0.00584439 0.0432575 -0.0498215)
(0.0210096 0.0472672 -0.0461568)
(0.0350638 0.041739 -0.0209223)
(0.0470055 0.0354429 -0.0012366)
(0.0534515 0.0263043 0.0034244)
(0.0506866 0.0202956 0.00386443)
(0.0483217 0.0114931 0.00922874)
(0.0372643 0.0082118 0.0065093)
(0.0201278 0.00300159 -0.00716492)
(0.0173497 0.00925159 -0.0146983)
(0.0291367 0.0280964 -0.0127615)
(0.0292602 0.0387738 -0.0151534)
(0.017371 0.0562638 -0.00580549)
(0.0103452 0.0531971 0.0136066)
(0.00611452 0.0563682 0.023453)
(-0.000365951 0.0542148 0.0275913)
(-0.00785192 0.0514209 0.0288416)
(-0.0144604 0.0471051 0.0311394)
(-0.00570317 0.0109905 0.054195)
(0.0236116 0.0181384 0.00502015)
(0.0260315 0.008624 0.00536037)
(0.013142 0.00228088 0.00200458)
(0.0100864 0.00277733 0.00243161)
(0.00513901 -3.94037e-05 0.00342077)
(0.00448299 0.00177436 0.0037352)
(0.00276737 -0.000199541 0.00426418)
(0.00202691 0.000924805 0.00409331)
(0.000638073 0.00079523 0.00395572)
(-1.40022e-05 0.0027124 0.00393009)
(-0.000158326 0.0035893 0.00411278)
(0.000490766 0.00456123 0.00452991)
(0.00112146 0.00457201 0.00480296)
(0.00178238 0.00449951 0.00501918)
(0.00216701 0.00390863 0.00501197)
(0.00248264 0.0032983 0.00497699)
(0.00257647 0.00255108 0.00491112)
(0.00267634 0.00194197 0.00486755)
(0.00270262 0.00135223 0.00483936)
(0.00267638 0.000885757 0.00483796)
(0.00261514 0.000526206 0.00486219)
(0.00253686 0.000293431 0.00490353)
(0.00244126 0.000145871 0.00495457)
(0.00233116 7.23716e-05 0.0050144)
(0.00221079 4.38479e-05 0.00508119)
(0.00208473 4.03124e-05 0.00515133)
(0.00195281 3.85649e-05 0.0052246)
(0.00181576 2.30895e-05 0.00530111)
(0.00168489 -1.4425e-05 0.00538597)
(0.0015631 -7.38743e-05 0.00547051)
(0.00142607 -0.000151734 0.00554976)
(0.00125904 -0.00024054 0.00562833)
(0.00107432 -0.00034331 0.00571212)
(0.000888778 -0.000467135 0.00579721)
(0.000724022 -0.000587095 0.00587474)
(0.00057635 -0.000661845 0.00593055)
(0.000428479 -0.000660427 0.00596045)
(0.000254104 -0.000572235 0.00597018)
(-9.43475e-06 -0.000385495 0.00597315)
(-0.000408211 -8.82915e-05 0.00596848)
(-0.0010871 0.000402498 0.00593706)
(-0.00224357 0.00102337 0.00586304)
(-0.00395575 0.00195581 0.00578304)
(-0.00615563 0.00226256 0.00573539)
(-0.0099769 0.00258549 0.00576968)
(-0.0169723 0.00183529 0.00570214)
(-0.0271439 0.00466307 0.00561737)
(-0.0316128 0.0105608 0.00545549)
(-0.00507273 -0.0137532 0.00524949)
(0.0544401 -0.0793437 -0.00387522)
(0.0730216 -0.0980571 0.00071988)
(0.0706831 -0.131718 0.000859328)
(0.0610513 -0.141764 0.00352689)
(0.0458012 -0.163315 0.00926755)
(0.0340751 -0.163273 0.00670881)
(0.017687 -0.17628 0.0109896)
(0.00602674 -0.139526 0.00144098)
(-0.0150706 -0.197846 0.0316027)
(-0.034452 0.0474036 -0.0295919)
(-0.00957015 0.0373232 -0.00984077)
(0.117121 -0.232416 0.136392)
(0.103085 -0.049938 0.104805)
(0.0975786 -0.117496 0.049414)
(0.0781062 -0.110576 0.046573)
(0.0640534 -0.0997241 0.0128562)
(0.0642228 -0.0855734 -0.0196114)
(0.0502771 -0.0637738 -0.0301066)
(0.0165537 -0.0330638 -0.019229)
(-0.00449812 0.0202162 6.56687e-05)
(0.00825618 0.0380336 0.00394732)
(0.00945677 0.0407622 0.0120157)
(-0.0100417 0.0310698 0.00777229)
(-0.0370602 0.0279706 0.000546765)
(-0.0487064 0.0273318 0.00455879)
(-0.0350153 0.0274279 0.0131514)
(0.00621407 0.0338813 -0.0105815)
(0.0164862 0.0458718 -0.0205558)
(0.0193681 0.0504813 -0.0221834)
(0.0225562 0.0403115 0.00182867)
(0.0294185 0.0326263 0.0224889)
(0.0506117 0.0281981 0.0369755)
(0.0598329 0.0161953 0.0437945)
(0.056577 0.00506321 0.0360641)
(0.0483341 -0.011181 0.0405931)
(0.0393905 -0.0243672 0.0497062)
(0.0237679 -0.0336208 0.0380408)
(-0.00235574 -0.0412004 0.0294697)
(-0.0190529 -0.037869 0.0237389)
(-0.00835968 -0.0295715 -0.00848094)
(0.0016453 0.0161855 -0.0365948)
(-0.00413936 0.0267408 0.00152048)
(-0.00160973 0.0418729 0.015128)
(0.00251803 0.0408923 0.0262549)
(0.00276082 0.0377891 0.0307099)
(-0.00916615 0.0391881 0.0383978)
(-0.0169729 0.00919419 0.0526861)
(0.0243248 0.0181999 0.00511749)
(0.0274657 0.0125399 0.00494893)
(0.0153426 0.00482519 0.000238461)
(0.0114991 0.00605776 0.00118332)
(0.00528566 0.00163271 0.00326784)
(0.0043147 0.00376095 0.00386746)
(0.0020521 0.0012751 0.00481668)
(0.000727653 0.0018969 0.00467859)
(-0.000931651 0.000583893 0.00452984)
(-0.00165853 0.00166157 0.00428331)
(-0.00182975 0.00198251 0.00442742)
(-0.00112228 0.00322696 0.00490247)
(-0.000458025 0.00370761 0.00514416)
(0.000296735 0.00410606 0.0053314)
(0.000771418 0.00383932 0.00528852)
(0.00111903 0.00348249 0.00526429)
(0.00120408 0.00288118 0.00522366)
(0.00128957 0.00238957 0.00521417)
(0.00130814 0.00187709 0.00520068)
(0.00126221 0.00143216 0.00519262)
(0.00116841 0.00102873 0.00519072)
(0.00104684 0.000717714 0.00520509)
(0.000907067 0.000476094 0.00523212)
(0.000757466 0.000306709 0.00527197)
(0.000609335 0.000194187 0.00532353)
(0.000468935 0.000122564 0.00538441)
(0.000334203 7.24119e-05 0.00545077)
(0.000207482 3.26164e-05 0.00551851)
(9.69271e-05 -8.92043e-06 0.00558608)
(-3.80682e-06 -5.92834e-05 0.00564657)
(-0.000116435 -0.000117928 0.00570278)
(-0.000247612 -0.000180819 0.00576416)
(-0.000383981 -0.000245792 0.00582914)
(-0.000515436 -0.000307239 0.00588165)
(-0.000647428 -0.000352238 0.00590002)
(-0.000783664 -0.000357733 0.00587713)
(-0.000927179 -0.000317334 0.00582203)
(-0.0011139 -0.000245992 0.00576281)
(-0.0014049 -0.000139152 0.00572897)
(-0.00188127 2.61329e-06 0.00571908)
(-0.00267146 0.000223722 0.0057179)
(-0.00383306 0.000205095 0.00572443)
(-0.00531818 -0.000182148 0.00577835)
(-0.00709363 -0.0020138 0.00594365)
(-0.0106671 -0.00512336 0.00596448)
(-0.0177841 -0.0106638 0.00622351)
(-0.0322458 -0.0139298 0.00656169)
(-0.0233826 -0.0316524 0.00444351)
(0.0551087 -0.0757331 -0.00674389)
(0.0887445 -0.102627 -0.00895765)
(0.0892888 -0.107902 0.00350752)
(0.0838962 -0.126072 0.0061866)
(0.0674541 -0.12961 0.0146819)
(0.0471011 -0.156859 0.0241206)
(0.0179658 -0.152912 0.0169731)
(-0.0186129 -0.185847 0.0128463)
(-0.0443273 -0.158819 0.00905916)
(-0.0606924 -0.214189 0.0292468)
(-0.110389 0.00173599 -0.0438099)
(0.0229031 0.0514395 -0.0132286)
(0.146242 -0.242253 0.153978)
(0.107806 -0.0705209 0.120066)
(0.0849911 -0.120248 0.0762009)
(0.0578219 -0.10825 0.0544087)
(0.0515254 -0.0747311 -0.015092)
(0.0490546 -0.00437906 -0.0385925)
(0.0128678 0.0417367 -0.0273269)
(-0.00914933 0.0553433 -0.016903)
(-0.00947902 0.0695849 -0.0112219)
(-0.00820364 0.0673379 0.00358713)
(-0.0185513 0.0588912 0.00626338)
(-0.0382883 0.0612136 -0.0113849)
(-0.0492239 0.0579068 -0.0144067)
(-0.0491876 0.0538109 -0.0115696)
(-0.0204456 0.0398689 -0.000730781)
(0.00493916 0.0443295 0.013231)
(0.0118566 0.051048 0.0155704)
(0.0162795 0.0493022 0.0157302)
(0.0155745 0.0367008 0.0291623)
(0.0140282 0.0161503 0.0439886)
(0.0225912 0.00768112 0.0628994)
(0.0332149 -0.00903099 0.0708761)
(0.0361173 -0.0183391 0.0667332)
(0.0214119 -0.0292546 0.0635014)
(0.000585678 -0.0318283 0.0773135)
(-0.0235566 -0.0341192 0.0655729)
(-0.0385197 -0.0307632 0.0306005)
(-0.0460807 -0.028128 0.00429849)
(-0.0439065 -0.0108058 -0.0360869)
(-0.028678 0.0310566 -0.0191119)
(-0.020154 0.0416256 0.0128413)
(-0.0070757 0.0472428 0.0219175)
(0.000701923 0.0379022 0.0248059)
(-0.00148136 0.0273122 0.0271555)
(-0.015117 0.0297758 0.0387952)
(-0.0299355 0.00359929 0.0510747)
(0.0245054 0.0191794 0.00429622)
(0.0280935 0.0167892 0.00420506)
(0.0177304 0.0075954 -0.00116857)
(0.0142707 0.00843248 -0.00112921)
(0.00576352 0.00131492 0.000281871)
(0.003792 0.00423293 0.0019774)
(0.000929983 0.00196655 0.00403914)
(-0.000203164 0.00294315 0.0044099)
(-0.00209865 0.000715892 0.00445434)
(-0.00321139 0.00108128 0.00422694)
(-0.00397155 0.000684499 0.00429746)
(-0.00368565 0.00200696 0.0047953)
(-0.00303793 0.00287574 0.00502299)
(-0.00206709 0.00365208 0.00523021)
(-0.00142013 0.0036323 0.00516972)
(-0.00101659 0.00340002 0.00518175)
(-0.00101157 0.00288626 0.0051702)
(-0.00105218 0.00247423 0.00519416)
(-0.00114518 0.00204083 0.00518745)
(-0.00125135 0.00164896 0.00516492)
(-0.00138968 0.00125473 0.00512814)
(-0.0015284 0.000913693 0.00509917)
(-0.00166617 0.000620207 0.00508316)
(-0.0018132 0.000391357 0.00507998)
(-0.00196249 0.000219665 0.00508894)
(-0.00209489 9.64721e-05 0.00511109)
(-0.00221316 6.068e-06 0.00514242)
(-0.00231319 -6.31787e-05 0.00517457)
(-0.0023885 -0.00011778 0.00519638)
(-0.00244932 -0.000160049 0.00520851)
(-0.00252228 -0.000198426 0.00521635)
(-0.00262306 -0.000234923 0.00523038)
(-0.00273702 -0.000260137 0.00524493)
(-0.00285179 -0.000264767 0.0052383)
(-0.00296649 -0.000240848 0.00518808)
(-0.00306923 -0.000187835 0.00508985)
(-0.00316222 -0.000122631 0.00495911)
(-0.00328616 -6.34431e-05 0.00482427)
(-0.00352261 6.41285e-06 0.00471991)
(-0.0039087 2.58718e-05 0.0046645)
(-0.00441145 -9.23285e-05 0.00467445)
(-0.00498002 -0.00089207 0.00474789)
(-0.00555778 -0.00266632 0.00490179)
(-0.00655589 -0.0067067 0.0051438)
(-0.00871662 -0.0126143 0.00541328)
(-0.0171059 -0.0232773 0.00611119)
(-0.0229694 -0.0355011 0.00531816)
(0.01251 -0.0707228 -0.00274824)
(0.0858893 -0.0803315 -0.012989)
(0.10206 -0.0603774 -0.00263369)
(0.0892152 -0.0556824 0.0203387)
(0.0718018 -0.0650898 0.0308092)
(0.0485435 -0.0731416 0.0406608)
(0.0216025 -0.110487 0.0389549)
(0.0178104 -0.115133 0.0125228)
(0.0105404 -0.154822 0.0122078)
(-0.0665838 -0.109549 0.022999)
(-0.0825273 -0.201361 0.0770293)
(-0.163852 0.0614446 -0.0162818)
(0.020641 0.00823441 -0.0149338)
(0.191812 -0.241702 0.167942)
(0.12224 -0.0466313 0.127062)
(0.0753741 -0.0983696 0.0861859)
(0.0415947 -0.0788028 0.0387419)
(0.0316809 -0.0032556 -0.0375621)
(0.0448368 0.0846041 -0.0147884)
(0.032415 0.10952 -0.0183914)
(0.0140112 0.117135 -0.0103494)
(-1.41145e-05 0.123875 -0.0178112)
(-0.0209536 0.116271 -0.0144659)
(-0.0319615 0.105136 -0.0113982)
(-0.0395411 0.0997334 -0.0152227)
(-0.0380759 0.0856844 -0.00926955)
(-0.0213219 0.0717663 0.00554603)
(0.0123293 0.0695957 0.035355)
(0.024544 0.0695217 0.0491025)
(0.0303383 0.0667297 0.0528289)
(0.0313173 0.055147 0.0528348)
(0.0286125 0.0423621 0.0604341)
(0.011619 0.0275775 0.0711174)
(0.00752245 0.00949515 0.0798754)
(0.0146968 0.00175031 0.087836)
(-0.00169986 -0.00838218 0.0850677)
(-0.0248616 -0.0195755 0.069926)
(-0.0451575 -0.0218406 0.0571057)
(-0.0547656 -0.0259821 0.0437852)
(-0.0643544 -0.0270868 0.0111729)
(-0.0701419 -0.0151887 -0.0149842)
(-0.0631296 0.0104674 -0.0387533)
(-0.0341952 0.0494667 -0.0101632)
(-0.0147863 0.0479011 0.0229974)
(-0.00337767 0.0434052 0.0281242)
(0.00214087 0.033283 0.0234689)
(-0.00179266 0.0197304 0.0260008)
(-0.0208233 0.0227763 0.0349757)
(-0.0472629 -0.000480372 0.050088)
(0.024102 0.019371 0.00336621)
(0.029269 0.0214558 0.00433141)
(0.0206654 0.0118018 -9.29555e-05)
(0.0190818 0.0118803 -0.000128998)
(0.00894005 0.00106372 -0.00301163)
(0.00355344 0.003763 -0.00105114)
(-0.000209659 0.00104797 0.00204959)
(-0.000927478 0.00307687 0.00326446)
(-0.0026157 0.000696617 0.00356482)
(-0.00414339 0.000995411 0.00349692)
(-0.00515593 -0.000198534 0.00348838)
(-0.00531596 0.00103663 0.00404391)
(-0.00450613 0.0022002 0.00437966)
(-0.00315647 0.00320287 0.00488858)
(-0.0021535 0.00318405 0.00507859)
(-0.00164768 0.00297345 0.00526582)
(-0.001665 0.0024481 0.00530883)
(-0.00181214 0.00213729 0.00533837)
(-0.00197693 0.00185278 0.00530543)
(-0.00212998 0.0016293 0.00523586)
(-0.0023055 0.00137634 0.0051251)
(-0.00248644 0.00112782 0.00500605)
(-0.00267436 0.000884972 0.00489235)
(-0.00284632 0.000667044 0.00479468)
(-0.00299032 0.000489892 0.00471506)
(-0.00309479 0.000363402 0.00464983)
(-0.00317088 0.000276272 0.00459787)
(-0.0032212 0.000221028 0.00455048)
(-0.00326011 0.000184935 0.00449574)
(-0.0032852 0.000154815 0.00444071)
(-0.00331878 0.000126884 0.00439736)
(-0.00337478 0.000113747 0.00436936)
(-0.00344212 0.000130414 0.00433913)
(-0.00350671 0.000180985 0.00428164)
(-0.00357131 0.000253785 0.00417952)
(-0.00362123 0.000322182 0.00403234)
(-0.00366294 0.000342151 0.00385064)
(-0.00375448 0.000287655 0.00366112)
(-0.0039242 0.000185186 0.00351088)
(-0.00414505 -3.09624e-05 0.00344841)
(-0.00430346 -0.000537945 0.00351225)
(-0.00429954 -0.00190473 0.00377902)
(-0.00378551 -0.00475682 0.00428039)
(-0.00331421 -0.00997962 0.00518865)
(-0.00321613 -0.0185895 0.00626044)
(-0.00916076 -0.0325922 0.00893275)
(-0.00879713 -0.0625868 0.00359362)
(0.0382313 -0.0748662 -0.0118766)
(0.0826911 -0.0375092 -0.0102246)
(0.0771175 -0.0259426 0.00923626)
(0.063692 -0.0364474 0.0396494)
(0.0542059 -0.0415881 0.0453319)
(0.0464551 -0.0404951 0.026505)
(0.0140152 -0.0453315 0.0148016)
(0.00474299 0.0299026 0.00713574)
(-0.0444951 0.0215355 0.0468552)
(-0.120236 0.0950765 0.112438)
(-0.0410247 -0.151749 0.145323)
(-0.185796 0.144668 -0.0909866)
(0.0304361 -0.0226419 -0.0204311)
(0.187304 -0.199564 0.179471)
(0.0897321 -0.000357979 0.114936)
(0.0383756 -0.0741315 0.0725528)
(0.00893647 -0.0355449 0.0154088)
(0.0135065 0.0456285 -0.0239276)
(0.0303268 0.124484 0.000598329)
(0.0310915 0.139696 0.0157907)
(0.0244151 0.150226 0.016312)
(0.0200946 0.150591 0.022084)
(0.0100853 0.145869 0.0186357)
(0.00379571 0.137179 0.0168881)
(0.00508001 0.126563 0.024452)
(0.00659623 0.117615 0.031162)
(0.00848508 0.105724 0.0436395)
(0.0139927 0.102883 0.0559312)
(0.0140748 0.0983952 0.0652773)
(0.00909367 0.0907739 0.0727322)
(0.0031646 0.0852809 0.0740335)
(-0.0107018 0.0781823 0.074326)
(-0.0165707 0.0603045 0.075692)
(-0.0206557 0.037815 0.0763661)
(-0.0242699 0.019771 0.0656822)
(-0.0343589 -0.00893841 0.0495194)
(-0.0479348 -0.0199025 0.0354636)
(-0.0583607 -0.0236844 0.0286501)
(-0.0613598 -0.0155314 0.0140126)
(-0.0655451 -0.00066209 -0.0143709)
(-0.0690073 0.0192288 -0.0276456)
(-0.0574168 0.0391223 -0.0226988)
(-0.0273485 0.058744 0.0185031)
(-0.0193681 0.0551084 0.0320421)
(-0.00884554 0.0480861 0.0300227)
(-0.0080877 0.0351939 0.0321405)
(-0.0143588 0.0200572 0.0360992)
(-0.0306208 0.0172421 0.0370121)
(-0.0551921 -0.0117337 0.0447357)
(0.0229132 0.018854 0.00313446)
(0.0303749 0.0263611 0.0062829)
(0.022443 0.0157522 0.00337936)
(0.0217544 0.0152408 0.00461117)
(0.0136442 0.00137053 -0.00193866)
(0.0048171 0.00274058 -0.00290059)
(-0.00093942 -0.000833701 0.000200436)
(-0.00161162 0.00291423 0.00194982)
(-0.00337393 0.000990052 0.00227973)
(-0.00479647 0.00150625 0.00263558)
(-0.00656894 -0.000149974 0.00262612)
(-0.00788738 0.000782282 0.00334386)
(-0.0073888 0.00154656 0.00391151)
(-0.00552633 0.00249593 0.00497442)
(-0.00428575 0.00244615 0.00562858)
(-0.00377196 0.00234272 0.00607725)
(-0.00402812 0.00191111 0.00615874)
(-0.0044989 0.00170903 0.00611853)
(-0.00489623 0.00156151 0.00597808)
(-0.00515924 0.00151461 0.00579074)
(-0.00533945 0.00145976 0.00556332)
(-0.00547156 0.00140275 0.00534175)
(-0.00557154 0.00131681 0.00513681)
(-0.00566993 0.00121737 0.00496462)
(-0.0057861 0.00113051 0.00483652)
(-0.00585582 0.00106758 0.00472267)
(-0.0058903 0.00102196 0.00462598)
(-0.00588107 0.0010033 0.00455769)
(-0.00582319 0.000994794 0.00451437)
(-0.00574215 0.00097982 0.00448698)
(-0.00569373 0.000958362 0.00447661)
(-0.00569729 0.000964126 0.00447894)
(-0.00572417 0.00102576 0.00447158)
(-0.00573685 0.00112953 0.00443316)
(-0.00570485 0.00124121 0.00436346)
(-0.0056021 0.00130713 0.00425971)
(-0.00544786 0.00126319 0.00413908)
(-0.00535169 0.00106415 0.00400791)
(-0.00539351 0.000727814 0.00388231)
(-0.00545559 0.000222381 0.00383151)
(-0.00521369 -0.000652635 0.00388563)
(-0.00438214 -0.00251559 0.0041536)
(-0.00279094 -0.00597183 0.00489672)
(-0.000856552 -0.0117382 0.00634209)
(0.00172648 -0.0204763 0.00853514)
(0.00125822 -0.0387358 0.0136675)
(0.00661778 -0.0758499 0.00423895)
(0.0269186 -0.0644764 -0.0111312)
(0.0702788 -0.0217549 -0.00796584)
(0.078171 -0.00269134 0.0155928)
(0.0467907 -0.00932913 0.0350483)
(-0.000260688 -0.0122387 0.0250639)
(-0.0196276 0.0258562 0.0152671)
(-0.0502702 0.0841637 0.0305091)
(-0.0666927 0.119267 0.0317666)
(-0.0718292 0.0953951 0.0589187)
(-0.101661 0.171039 0.119559)
(-0.0524703 -0.15492 0.0888692)
(-0.150615 0.225404 -0.170491)
(0.0287182 -0.0614096 0.0023534)
(0.176028 -0.156319 0.179655)
(0.0851462 0.0210913 0.109117)
(0.0554821 -0.042916 0.0784336)
(-0.0231803 0.0508167 -0.0220475)
(-0.0481651 0.107418 -0.0465475)
(-0.00241453 0.174449 -0.0206514)
(0.00814313 0.186661 0.000937891)
(0.0068045 0.193815 0.0106513)
(0.00571273 0.191188 0.0174255)
(0.00069642 0.186504 0.0187461)
(0.000706864 0.180245 0.0234689)
(-0.00496284 0.171492 0.0271689)
(-0.00401041 0.166049 0.0353077)
(-0.00225316 0.15397 0.0468049)
(-0.00101772 0.141937 0.0537442)
(-0.00223202 0.130165 0.0570618)
(-0.00650941 0.116473 0.056189)
(-0.0117232 0.10679 0.0558135)
(-0.0140146 0.08737 0.0552856)
(-0.0174776 0.0676582 0.0508907)
(-0.0207468 0.0347848 0.0347163)
(-0.0177794 0.0123895 -0.00184011)
(-0.0242311 -0.006722 -0.0167682)
(-0.0390038 -0.00919843 -0.0162065)
(-0.0503932 -0.00646482 -0.00629599)
(-0.0520638 0.0044881 -0.00409422)
(-0.0510624 0.02083 -0.00436333)
(-0.0532192 0.0424532 -0.00138463)
(-0.0481309 0.0552183 0.00348144)
(-0.0337711 0.0632319 0.00892279)
(-0.0217036 0.0620642 0.0134532)
(-0.0153127 0.0533451 0.0229484)
(-0.0157293 0.0415855 0.0297576)
(-0.0226791 0.0235479 0.0296246)
(-0.0350067 0.0185268 0.0337217)
(-0.084772 -0.00891764 0.0438529)
(0.0243483 0.0151649 0.00188231)
(0.0304183 0.029106 0.00783657)
(0.0224731 0.0190155 0.00497536)
(0.0221951 0.0193665 0.00600088)
(0.0162996 0.00402456 -0.000686159)
(0.00562464 0.00379863 -0.00469153)
(-0.0027539 -0.00291801 -0.00122292)
(-0.00394014 0.00202537 0.00040574)
(-0.00395378 4.05628e-05 0.00185743)
(-0.00488075 0.00183789 0.00255926)
(-0.00648519 0.000226092 0.00273774)
(-0.00791423 0.000806637 0.00369426)
(-0.00727737 0.00028329 0.00460737)
(-0.00534738 0.000569757 0.00600756)
(-0.00415901 0.000449051 0.00702427)
(-0.00365843 0.000827137 0.00783613)
(-0.00382429 0.00102636 0.00818913)
(-0.00421996 0.00131104 0.00826873)
(-0.00456418 0.00151978 0.00815205)
(-0.00480957 0.00175374 0.00793033)
(-0.00500671 0.00189874 0.0076319)
(-0.00514414 0.0019671 0.00733954)
(-0.00524055 0.00197597 0.00707596)
(-0.00531357 0.00195506 0.00684811)
(-0.0053779 0.00190941 0.00666189)
(-0.00540524 0.00186124 0.00651176)
(-0.00540362 0.00182473 0.00639163)
(-0.00536645 0.00179809 0.00629747)
(-0.00528297 0.00177393 0.00622596)
(-0.00516889 0.00174885 0.00617565)
(-0.00509516 0.00173214 0.00614363)
(-0.00509246 0.0017688 0.00611238)
(-0.00512481 0.00187233 0.00605807)
(-0.00512617 0.0019983 0.00596937)
(-0.00505941 0.00209452 0.00585603)
(-0.00489438 0.00209975 0.00573526)
(-0.00464442 0.00196031 0.00562257)
(-0.00442067 0.00164853 0.00552057)
(-0.00429503 0.00116669 0.0054303)
(-0.00410364 0.000463062 0.00541462)
(-0.00340321 -0.000645164 0.00551356)
(-0.00176857 -0.00271394 0.00587107)
(0.000861631 -0.00621352 0.0067882)
(0.00489125 -0.0113332 0.0087737)
(0.0095248 -0.0196604 0.0114024)
(0.0212936 -0.032909 0.0170599)
(0.0165108 -0.0685122 0.0115562)
(0.0168183 -0.06454 -0.00549996)
(0.0481161 -0.0199806 -0.00117758)
(0.0490283 0.0110151 0.0295796)
(0.0331408 0.0303918 0.0468068)
(-0.00546917 0.0233236 0.0320196)
(-0.0411269 0.046421 0.028709)
(-0.0712634 0.0687785 0.0316961)
(-0.081834 0.0885308 0.0244422)
(-0.07599 0.0180171 0.0285555)
(-0.0169279 0.149761 0.090805)
(0.0447281 -0.266103 0.0601679)
(-0.13526 0.289406 -0.0963938)
(0.031844 -0.0936831 0.0379308)
(0.132625 -0.0963403 0.12554)
(-0.014164 0.125344 0.00225747)
(-0.0516899 0.131502 -0.0359338)
(-0.0593722 0.217405 -0.040226)
(-0.01974 0.235923 -0.021049)
(-0.00153194 0.247492 -0.0150442)
(0.0113804 0.246985 -0.0122711)
(0.0153838 0.24677 -0.0104816)
(0.016363 0.240874 -0.0131493)
(0.00813004 0.236007 -0.0150255)
(0.00581045 0.22952 -0.0149253)
(-0.00123722 0.220366 -0.0128433)
(-0.00378271 0.213514 -0.00923777)
(-0.00586297 0.205654 -0.00342178)
(-0.00764643 0.199593 0.00837583)
(-0.00684181 0.190499 0.0158891)
(-0.00803832 0.182953 0.0181271)
(-0.00941065 0.172019 0.0165818)
(-0.0102621 0.16023 0.00834145)
(0.00259374 0.151863 -0.00049217)
(0.0157966 0.136231 -0.00229522)
(0.0251582 0.127222 0.000760118)
(0.0203434 0.105407 0.00469083)
(-0.0056185 0.0702415 0.00297927)
(-0.0327224 0.0590647 0.0057522)
(-0.0559552 0.0735805 0.00431995)
(-0.0773349 0.0929098 -0.00715778)
(-0.081435 0.131959 -0.0217943)
(-0.0559601 0.171604 -0.0165983)
(-0.0283256 0.174616 0.0141646)
(-0.0205513 0.164537 0.0313628)
(-0.0109354 0.159964 0.0395696)
(-0.00921514 0.13435 0.0462313)
(-0.0214893 0.106009 0.0476284)
(-0.050077 0.0784495 0.0438204)
(-0.0817812 0.0220355 0.042378)
(0.018309 0.0114952 0.000292378)
(0.0287189 0.0295938 0.00826493)
(0.0216529 0.0221427 0.00301549)
(0.0222456 0.0249205 0.00350839)
(0.01894 0.00956591 -0.00111693)
(0.0114064 0.00699191 -0.00453116)
(-0.00146879 -0.00434488 -0.0067536)
(-0.00399189 0.00114818 -0.00497729)
(-0.00589429 -0.000853577 -0.00231383)
(-0.00682401 0.00182764 -0.000704468)
(-0.0083114 0.000243672 -0.000218729)
(-0.00939831 0.000486271 0.000867635)
(-0.00914754 -0.000861341 0.00172993)
(-0.00805765 -0.000732559 0.00277238)
(-0.00762566 -0.000683879 0.00361145)
(-0.00770093 2.11738e-05 0.00443764)
(-0.00814682 0.000552424 0.0050897)
(-0.00866686 0.00111276 0.00549316)
(-0.00911712 0.00152543 0.00562491)
(-0.00936313 0.00186979 0.00556579)
(-0.00933785 0.00208356 0.00541223)
(-0.00927241 0.00222453 0.00524306)
(-0.00919275 0.00229124 0.00508405)
(-0.00911153 0.00231484 0.00493883)
(-0.00903066 0.00230507 0.00481384)
(-0.00893717 0.00227898 0.00470576)
(-0.00883556 0.00225377 0.00461097)
(-0.00871059 0.00223664 0.00452952)
(-0.0085444 0.00222748 0.00445389)
(-0.00837717 0.00223327 0.00438313)
(-0.00830773 0.00224999 0.00432493)
(-0.00831103 0.00230441 0.00427029)
(-0.00830296 0.0023973 0.00420742)
(-0.00820055 0.00248336 0.00412261)
(-0.00797492 0.00252196 0.00401135)
(-0.00761041 0.00247333 0.00389107)
(-0.00714564 0.00231606 0.0037913)
(-0.00675258 0.00202574 0.00371093)
(-0.00646604 0.00155718 0.00366472)
(-0.0060282 0.000824585 0.00370621)
(-0.00497678 -0.000266873 0.00385692)
(-0.0028685 -0.00219399 0.00420817)
(0.000294215 -0.00490922 0.00494088)
(0.00489591 -0.00884151 0.00653634)
(0.01017 -0.0137193 0.00813819)
(0.024983 -0.0213938 0.011623)
(0.0303186 -0.0357633 0.0150242)
(-0.00329143 -0.0682764 -0.00111221)
(0.0129307 -0.043031 0.00700216)
(0.0257223 0.0118062 0.0265838)
(-0.00690539 0.0497736 0.041957)
(-0.0371904 0.0462731 0.0358559)
(-0.057649 0.0571117 0.0156513)
(-0.0750819 0.0755511 0.0184837)
(-0.0749087 0.0929456 -0.00102571)
(-0.0651467 0.0827143 -0.018279)
(0.00581984 0.153894 -0.0227073)
(-0.0919018 0.0226596 -0.0307814)
(-0.216253 0.471465 -0.0279506)
(-0.0069198 -0.171047 0.0240247)
(-0.0130804 0.0335464 0.00489165)
(-0.0601743 0.192863 -0.00989519)
(-0.0750571 0.19935 -0.0102836)
(-0.0571657 0.2445 0.00237663)
(-0.0189908 0.237339 0.0176022)
(0.00234356 0.237157 0.0126031)
(0.0127703 0.228945 0.0155449)
(0.019379 0.224678 0.0079636)
(0.0209343 0.220523 0.00431724)
(0.0198592 0.216109 -0.00558684)
(0.0158763 0.215607 -0.0179466)
(0.0119265 0.215813 -0.0245518)
(0.00861604 0.218583 -0.027449)
(0.0067113 0.220151 -0.026877)
(0.00634763 0.218424 -0.021136)
(0.00848676 0.209493 -0.0110622)