/*--------------------------------*- C++ -*----------------------------------*\
| =========                 |                                                 |
| \\      /  F ield         | OpenFOAM: The Open Source CFD Toolbox           |
|  \\    /   O peration     | Version:  2.3.0                                 |
|   \\  /    A nd           | Web:      www.OpenFOAM.org                      |
|    \\/     M anipulation  |                                                 |
\*---------------------------------------------------------------------------*/
FoamFile
{
    version     2.0;
    format      ascii;
    class       volVectorField;
    location    "33";
    object      U.waterMean;
}
// * * * * * * * * * * * * * * * * * * * * * * * * * * * * * * * * * * * * * //

dimensions      [0 1 -1 0 0 0 0];

internalField   nonuniform List<vector> 
6144
(
(0.00859937 0.0190929 -0.00120359)
(0.00868157 0.00171672 -0.0016642)
(0.00463101 0.000176205 -0.00234731)
(0.00454079 -0.00185521 -0.00232166)
(0.00300179 -0.00279064 -0.00190293)
(0.00294986 -0.00201317 -0.0016837)
(0.00237333 -0.00194185 -0.00136934)
(0.00244397 -0.000721712 -0.00118127)
(0.00228445 2.34851e-06 -0.00117729)
(0.00225102 0.0013434 -0.00086624)
(0.00223978 0.0021114 -0.000640163)
(0.00239999 0.00251275 -0.00035211)
(0.00254668 0.0022618 -0.000269706)
(0.00267778 0.001804 -0.000204778)
(0.00272954 0.0011898 -0.000364943)
(0.0027859 0.000720071 -0.000491176)
(0.00281053 0.000293792 -0.000675425)
(0.00284237 3.60151e-05 -0.000801942)
(0.00286267 -0.000183883 -0.0009258)
(0.00287393 -0.000298841 -0.00099373)
(0.002877 -0.000387962 -0.00104224)
(0.00287485 -0.00042213 -0.00106363)
(0.00286765 -0.000442618 -0.00107045)
(0.00285793 -0.000444074 -0.00106291)
(0.00284496 -0.00043902 -0.00104607)
(0.00283073 -0.000430367 -0.00102188)
(0.00281556 -0.000421093 -0.00099284)
(0.00280007 -0.000416159 -0.000957718)
(0.00278397 -0.000411032 -0.000918434)
(0.00276774 -0.000416451 -0.000880986)
(0.00275354 -0.000406213 -0.000843268)
(0.00273695 -0.00043822 -0.00081447)
(0.00272618 -0.000392361 -0.00077963)
(0.0027039 -0.000480127 -0.000764612)
(0.00270186 -0.000329593 -0.000720404)
(0.00266976 -0.000556918 -0.000714794)
(0.00267533 -0.000201384 -0.000646457)
(0.00263373 -0.000717827 -0.00064639)
(0.00264059 -9.16116e-06 -0.000542079)
(0.00259759 -0.00103623 -0.000544054)
(0.00260294 0.000209243 -0.000414365)
(0.00258179 -0.00161034 -0.000423995)
(0.0025759 0.000405821 -0.000322662)
(0.00263194 -0.00252152 -0.00038252)
(0.00255077 0.000680188 -0.00040325)
(0.00267871 -0.00363882 -0.000538281)
(0.00249053 0.00159673 -0.000810381)
(0.00252579 -0.00426542 -0.000788611)
(0.00245886 0.00395338 -0.00114423)
(0.00248482 -0.00433756 -0.00116193)
(0.00399475 0.00850414 -0.00187983)
(0.00359814 -0.00936347 -0.00245566)
(0.00453214 0.0142971 -0.00425374)
(0.00440567 -0.0110954 -0.00573953)
(0.00708017 0.0371031 -0.00759769)
(0.00554159 -0.0324623 -0.011846)
(0.0139019 0.0614751 -0.00457606)
(0.00943765 -0.062069 -0.0224171)
(-0.040962 0.0919479 -0.0872569)
(0.0268585 -0.1013 -0.124213)
(0.111012 -0.240277 -0.0124048)
(0.073672 -0.0718236 -0.00480856)
(0.0321018 -0.153388 -0.00424873)
(0.0319905 -0.149427 -0.00171462)
(0.0270259 -0.157875 -0.000409976)
(0.0187613 -0.157438 0.00151119)
(0.0132863 -0.166753 0.00238144)
(0.00952038 -0.164779 0.00243815)
(0.00685019 -0.166432 0.00207106)
(0.0045943 -0.161241 0.00157589)
(0.00273287 -0.15843 0.00109242)
(0.00129641 -0.151404 0.000635912)
(0.000331306 -0.14593 0.000174503)
(-0.00021177 -0.138233 -0.000265286)
(-0.000463368 -0.131716 -0.000650076)
(-0.000469496 -0.124464 -0.000980637)
(-0.000372098 -0.118058 -0.00123881)
(-0.000179164 -0.111786 -0.00146399)
(0.000100131 -0.106199 -0.00167464)
(0.000449083 -0.100961 -0.00189698)
(0.00079236 -0.0959132 -0.00207845)
(0.00104292 -0.0908081 -0.00225239)
(0.00115263 -0.0855531 -0.002411)
(0.00114892 -0.080009 -0.00250446)
(0.000995509 -0.0742717 -0.00261116)
(0.000827712 -0.0681808 -0.002588)
(0.000497466 -0.0618794 -0.00254883)
(-5.67385e-05 -0.054988 -0.00254613)
(-0.000853819 -0.0471272 -0.00264464)
(-0.00135111 -0.0375811 -0.00250844)
(-0.000706103 -0.0280621 -0.00270688)
(5.11138e-05 -0.0189984 -0.00468062)
(-0.000162682 -0.00855446 -0.00513211)
(-0.00129948 0.00141719 -0.00228442)
(-0.00139883 0.00750886 0.00551551)
(-0.000930263 0.00480079 0.0122212)
(0.0176573 0.0222629 0.00243501)
(0.0181954 0.00992866 0.00210533)
(0.0107347 0.00706124 4.16816e-05)
(0.0107202 0.00450742 0.000915382)
(0.00660652 0.00121414 0.00133199)
(0.00630987 0.000881332 0.001691)
(0.00431828 -0.000557388 0.00208711)
(0.00415015 0.00066157 0.00183274)
(0.00370271 0.00134326 0.00160012)
(0.00383758 0.00287311 0.0017244)
(0.00405435 0.00342244 0.0019021)
(0.00459923 0.00370239 0.00228758)
(0.00494002 0.00323256 0.00241882)
(0.00526209 0.00273499 0.00251431)
(0.00533302 0.00199813 0.002435)
(0.00543098 0.00144463 0.00238049)
(0.00542703 0.000902341 0.00227962)
(0.00546789 0.000565704 0.0022075)
(0.00548049 0.000266856 0.00211903)
(0.00548911 9.99169e-05 0.00207284)
(0.00547884 -3.41762e-05 0.00204208)
(0.00546104 -9.77877e-05 0.00203962)
(0.00543435 -0.00014079 0.00205143)
(0.00540262 -0.000155678 0.00207892)
(0.00536639 -0.000159818 0.00211497)
(0.00532823 -0.000157008 0.00215835)
(0.00528886 -0.000151439 0.00220603)
(0.00524939 -0.000149299 0.00225573)
(0.0052101 -0.000144288 0.00230656)
(0.00516994 -0.000149513 0.00235305)
(0.00513861 -0.000139331 0.00239728)
(0.00509573 -0.000171754 0.00243228)
(0.00507454 -0.000123633 0.00247375)
(0.00501438 -0.000217057 0.00249696)
(0.0050181 -5.549e-05 0.00254544)
(0.00493068 -0.000313585 0.00255726)
(0.00496694 8.4318e-05 0.00262423)
(0.00484552 -0.000520852 0.00262307)
(0.00492105 0.000298784 0.00271738)
(0.00477615 -0.0009193 0.0027029)
(0.00489774 0.000570184 0.00282225)
(0.00475679 -0.00159402 0.0027944)
(0.00491181 0.000916551 0.00291061)
(0.00481855 -0.00259177 0.00286502)
(0.0049097 0.00146118 0.00290584)
(0.00486102 -0.00386987 0.00279191)
(0.00472019 0.00247863 0.00254311)
(0.00456036 -0.00500145 0.00247785)
(0.00417591 0.00420641 0.00176312)
(0.00408781 -0.00554104 0.00205388)
(0.00673846 0.00706267 0.000750265)
(0.00635784 -0.00783275 -8.97158e-05)
(0.00539883 0.015708 -0.000746423)
(0.00460287 -0.00870663 -0.000704805)
(0.019939 0.0383197 0.00261022)
(0.0315249 -0.0437871 -0.00134922)
(-0.0175903 0.0301798 0.00495895)
(-0.0118483 -0.0235507 -0.0138629)
(0.0198373 0.155259 -0.0186644)
(0.157105 -0.121864 -0.0722561)
(0.164368 -0.223262 -0.000509271)
(0.0600374 0.0731795 0.00926614)
(-0.0116442 -0.121159 0.00413778)
(0.00223994 -0.0732827 0.00758031)
(-0.00165757 -0.0985315 0.00911029)
(-0.00826039 -0.110705 0.0103647)
(-0.010389 -0.123022 0.00966983)
(-0.0112829 -0.12498 0.00862632)
(-0.01154 -0.130737 0.00727313)
(-0.0118369 -0.12922 0.00594224)
(-0.011911 -0.12953 0.00473888)
(-0.0117557 -0.124993 0.00366175)
(-0.0111749 -0.121577 0.00264491)
(-0.0102849 -0.115674 0.00171444)
(-0.00918757 -0.110764 0.000885398)
(-0.00793878 -0.104907 0.000296697)
(-0.00630933 -0.0996043 -3.18083e-05)
(-0.00462878 -0.0940086 -0.000128521)
(-0.00346346 -0.088609 -0.000116736)
(-0.0028884 -0.0832779 -6.86268e-05)
(-0.00266024 -0.0779773 3.04319e-05)
(-0.00258013 -0.0726625 0.000173408)
(-0.00249818 -0.0673935 0.000326862)
(-0.00238875 -0.0622916 0.000546403)
(-0.0024024 -0.0574888 0.000770318)
(-0.00267171 -0.0529527 0.00103493)
(-0.00322569 -0.0486356 0.00125693)
(-0.00417332 -0.0442443 0.001245)
(-0.00559625 -0.039449 0.000722535)
(-0.00653853 -0.0330984 0.000410496)
(-0.00603022 -0.025908 0.000162054)
(-0.00495816 -0.0181297 -0.00161528)
(-0.00499373 -0.00870371 -0.0022707)
(-0.00596137 0.000474277 0.000987361)
(-0.00730236 0.00585851 0.0095157)
(-0.00663537 0.0035849 0.0171488)
(0.0212312 0.0229644 0.0035671)
(0.0226078 0.014193 0.00349356)
(0.0142166 0.0106621 0.00122425)
(0.0143255 0.00923248 0.00223832)
(0.00842524 0.00467806 0.00245397)
(0.00757382 0.00377424 0.00292351)
(0.00409055 0.00101468 0.00345613)
(0.00354552 0.00182405 0.00323563)
(0.00273533 0.00210149 0.00299447)
(0.00316998 0.00340932 0.00311238)
(0.00355334 0.0035537 0.0032398)
(0.00443566 0.00378367 0.00355014)
(0.00485488 0.00329802 0.0036635)
(0.00528237 0.00297612 0.00375715)
(0.00536404 0.0023288 0.00371089)
(0.00547375 0.00186341 0.00370094)
(0.00540375 0.00132868 0.00366055)
(0.00539655 0.000984646 0.00365921)
(0.00532439 0.000653305 0.0036536)
(0.00527729 0.000458224 0.00366965)
(0.00520813 0.000290005 0.00368768)
(0.00514679 0.000197826 0.00371774)
(0.00508209 0.000129439 0.0037498)
(0.00502165 9.56231e-05 0.00378794)
(0.00496187 7.78833e-05 0.00382725)
(0.00490486 7.22924e-05 0.00386816)
(0.00484993 7.35666e-05 0.00390935)
(0.00479656 7.35697e-05 0.00395106)
(0.00474457 7.69784e-05 0.00399259)
(0.00469204 7.39195e-05 0.00403392)
(0.00464606 7.94161e-05 0.00407573)
(0.00458494 5.78033e-05 0.00411285)
(0.00454748 9.37823e-05 0.00415354)
(0.00446367 1.41726e-05 0.00418393)
(0.00445851 0.000143644 0.00423148)
(0.0043371 -9.23318e-05 0.0042529)
(0.00438653 0.000252722 0.00431125)
(0.00420973 -0.000314173 0.00432123)
(0.00433802 0.000448459 0.00439459)
(0.00409927 -0.000691737 0.00438465)
(0.00433445 0.000778849 0.00447056)
(0.00402761 -0.00124585 0.00442636)
(0.00439733 0.00132265 0.0045225)
(0.004062 -0.00200111 0.00443812)
(0.00448952 0.00216402 0.00453475)
(0.00416827 -0.00314727 0.00443406)
(0.00433229 0.00322733 0.00439476)
(0.00397931 -0.00473477 0.00437556)
(0.00354153 0.00449244 0.0036329)
(0.00394452 -0.00615308 0.00414777)
(0.00571478 0.00619351 0.00254087)
(0.00555073 -0.0055803 0.0020749)
(0.00421483 0.0185083 0.00262025)
(0.0033317 -0.0188656 0.00447526)
(0.0287307 0.0227455 0.00673795)
(0.0417613 -0.0552785 0.00250957)
(-0.0453564 0.0564434 0.0192365)
(-0.0603484 -0.110479 -0.00531941)
(-0.0466755 0.155217 -0.04519)
(0.16107 -0.132644 -0.0444656)
(0.187389 -0.189921 0.00340885)
(0.0797955 0.120382 0.00880324)
(0.0713629 -0.114492 0.00975091)
(0.0378381 -0.0395075 0.0141275)
(0.0160817 -0.0756866 0.0141336)
(0.00745121 -0.0831788 0.0132843)
(0.00106912 -0.0927419 0.010883)
(-0.00450601 -0.0933577 0.00852122)
(-0.00816229 -0.0978145 0.00600099)
(-0.0106927 -0.0950248 0.00383087)
(-0.0122218 -0.0941965 0.00191731)
(-0.0126819 -0.0889421 0.000299456)
(-0.0120242 -0.0850223 -0.00120712)
(-0.0108831 -0.0781866 -0.00241026)
(-0.00975823 -0.0722704 -0.00280371)
(-0.00896043 -0.0653873 -0.00274085)
(-0.00824991 -0.0586907 -0.0022444)
(-0.00749731 -0.0513803 -0.0014694)
(-0.00653576 -0.0454735 -0.000548671)
(-0.00566178 -0.0410719 0.000611921)
(-0.00508298 -0.0382446 0.00173503)
(-0.00477177 -0.0365212 0.00262576)
(-0.00461438 -0.0354128 0.00325968)
(-0.00455555 -0.0345193 0.00372692)
(-0.00465611 -0.0336622 0.00399667)
(-0.0049459 -0.0327272 0.00414259)
(-0.00561522 -0.0315941 0.0042394)
(-0.00687674 -0.0302505 0.00390324)
(-0.00887663 -0.028077 0.00274896)
(-0.0106482 -0.0245992 0.00139695)
(-0.010556 -0.0197214 0.000601306)
(-0.0096054 -0.0140758 -0.000679965)
(-0.0102703 -0.00639487 -0.000672388)
(-0.012684 0.000967777 0.00306149)
(-0.0152383 0.00552496 0.011431)
(-0.0168907 0.0025316 0.0187287)
(0.0229396 0.0232529 0.00368208)
(0.0259036 0.0168465 0.00404356)
(0.0162311 0.0121 0.00102797)
(0.0176683 0.0123415 0.00153548)
(0.0109629 0.00692561 0.00136812)
(0.0101744 0.00633387 0.00213613)
(0.00450326 0.00168264 0.00294995)
(0.00308903 0.00197121 0.00289451)
(0.00160906 0.00143582 0.00290861)
(0.00235006 0.00304814 0.00315762)
(0.00275042 0.00300325 0.00342135)
(0.00364795 0.00344947 0.00388847)
(0.00402571 0.00311345 0.00404926)
(0.00447053 0.00301784 0.00416819)
(0.00453673 0.0024663 0.00411132)
(0.00464568 0.00210148 0.00411001)
(0.00454105 0.00158518 0.00408256)
(0.00451641 0.00126778 0.00409746)
(0.00441098 0.000921604 0.00410183)
(0.00433985 0.000708608 0.00412717)
(0.00424503 0.000511104 0.00415263)
(0.00416449 0.00039462 0.00418978)
(0.00407822 0.000305378 0.00422564)
(0.00399638 0.000256414 0.0042646)
(0.00391847 0.00022553 0.00430468)
(0.00384673 0.000212312 0.00434603)
(0.00377976 0.000208552 0.0043871)
(0.00371656 0.000207518 0.00442807)
(0.00365594 0.000211275 0.00446821)
(0.00359758 0.000211963 0.00450721)
(0.00354471 0.000220762 0.00454556)
(0.00348304 0.000208987 0.00458023)
(0.00344094 0.000240334 0.00461937)
(0.00336195 0.000175782 0.00464719)
(0.00335296 0.00028719 0.00469021)
(0.00323718 7.58858e-05 0.00470831)
(0.00329317 0.00039303 0.0047596)
(0.00311493 -0.000127143 0.00476205)
(0.0032689 0.000604451 0.00482212)
(0.00300815 -0.000452565 0.00479772)
(0.00329066 0.000983386 0.00486521)
(0.0029353 -0.000901541 0.00480143)
(0.00336866 0.00159751 0.00488617)
(0.00296593 -0.00151362 0.00478328)
(0.00357048 0.00249067 0.00492747)
(0.00309329 -0.00249348 0.00478232)
(0.00368797 0.00356779 0.00487902)
(0.00302463 -0.00395379 0.00472408)
(0.00307002 0.00474553 0.00434501)
(0.00331656 -0.00614561 0.00470209)
(0.00368202 0.00682852 0.00338933)
(0.0029457 -0.00642599 0.00341206)
(0.00783233 0.0153228 0.00508898)
(0.00969873 -0.0256797 0.00504998)
(0.0304535 0.0115178 0.0115877)
(0.029502 -0.0447688 0.00697488)
(-0.0124539 0.0782331 0.0192773)
(-0.0736834 -0.131574 0.0115666)
(-0.0454517 0.200642 -0.0957134)
(0.174879 -0.185175 -0.0255372)
(0.204231 -0.170171 0.00474315)
(0.0799206 0.114095 0.00097276)
(0.0843544 -0.0471469 0.00924059)
(0.00134575 0.0400188 0.0140662)
(-0.000161799 -0.0368852 0.0169759)
(-0.00437831 -0.0305028 0.0115125)
(-0.00807902 -0.0459027 0.00628559)
(-0.0112692 -0.0468677 0.00196225)
(-0.0125692 -0.0495733 -0.00135856)
(-0.0132895 -0.044125 -0.0037938)
(-0.0137768 -0.0403444 -0.00568956)
(-0.0138529 -0.0309594 -0.00685179)
(-0.0132415 -0.0216411 -0.00697328)
(-0.0123674 -0.0111612 -0.00534212)
(-0.0115386 -0.00380317 -0.0034852)
(-0.0106621 0.00198718 -0.00156795)
(-0.00952065 0.00542549 6.30013e-05)
(-0.00802082 0.00712237 0.00137729)
(-0.00652455 0.00710109 0.0024016)
(-0.00563561 0.00548705 0.00344627)
(-0.00529568 0.00296177 0.0043202)
(-0.00542906 -0.000101445 0.00490499)
(-0.00578093 -0.00317132 0.00523181)
(-0.00628369 -0.00612966 0.00543621)
(-0.00696736 -0.00877403 0.00540914)
(-0.00784708 -0.0109697 0.00525035)
(-0.00903738 -0.0127084 0.00492447)
(-0.0107769 -0.0140167 0.00392829)
(-0.0127065 -0.0143594 0.00235288)
(-0.013833 -0.0137167 0.00106058)
(-0.0137381 -0.0117617 0.000548321)
(-0.0135387 -0.00834209 0.000192516)
(-0.0149714 -0.0030824 0.000760557)
(-0.0177359 0.00195824 0.00466211)
(-0.0213824 0.0050809 0.0125298)
(-0.0240792 0.00184869 0.0194237)
(0.0231916 0.0233199 0.00440543)
(0.0281383 0.0193625 0.00507391)
(0.0174573 0.0125973 0.00117811)
(0.0202028 0.014167 0.00157203)
(0.0133875 0.00755966 0.00033904)
(0.0134285 0.00834783 0.000910102)
(0.00649103 0.00280094 0.00110135)
(0.00390183 0.00293716 0.00174321)
(0.000623182 0.000417884 0.00217853)
(0.000889013 0.0019853 0.00272095)
(0.00123569 0.00177715 0.00315867)
(0.00201524 0.00269095 0.00387671)
(0.00227017 0.00262175 0.00408484)
(0.00271015 0.00281532 0.00424375)
(0.00276813 0.00238882 0.00416176)
(0.00283254 0.00212026 0.00417286)
(0.00262939 0.00163855 0.00414147)
(0.00251358 0.00137091 0.00416563)
(0.00232957 0.00104306 0.00416428)
(0.00220191 0.000845319 0.00418059)
(0.00205663 0.000641914 0.00418731)
(0.00193926 0.000514719 0.00420377)
(0.00182736 0.00040577 0.00422085)
(0.00173048 0.000339938 0.00424476)
(0.0016428 0.000296933 0.00426998)
(0.00156624 0.000276504 0.00429755)
(0.00149915 0.000266887 0.00432532)
(0.00143883 0.000263951 0.00435248)
(0.00138359 0.000266434 0.00437894)
(0.0013324 0.000267748 0.00440317)
(0.00128552 0.000276888 0.00442379)
(0.00123428 0.000269853 0.00443959)
(0.00119659 0.000299762 0.00445897)
(0.00112941 0.000246584 0.00446612)
(0.00112446 0.000349669 0.00449335)
(0.00102294 0.000158094 0.00448904)
(0.00108175 0.000462291 0.00452689)
(0.000914819 -1.38767e-05 0.00450143)
(0.00107052 0.000700133 0.00454707)
(0.000815456 -0.000271342 0.00449255)
(0.00109315 0.0011243 0.00454212)
(0.000746165 -0.000616009 0.00445165)
(0.00116789 0.00178332 0.00451739)
(0.000791906 -0.00106423 0.00440431)
(0.00138529 0.00270278 0.00452887)
(0.000996836 -0.00167276 0.00439077)
(0.00155739 0.00383968 0.00446708)
(0.00115641 -0.00267802 0.0042572)
(0.0016402 0.00513834 0.00390576)
(0.00176042 -0.0050239 0.00383429)
(0.0023426 0.0074045 0.00266814)
(0.00190256 -0.00808746 0.00480266)
(0.0109019 0.0103796 0.00843611)
(0.0129779 -0.0249545 0.0121064)
(0.0267726 0.0137635 0.030604)
(0.017289 -0.0529958 0.0296782)
(-0.00251067 0.0508252 0.0576753)
(-0.10252 -0.133343 0.044554)
(-0.00415918 0.169791 -0.160285)
(0.126508 -0.239258 -0.00824094)
(0.185776 -0.123335 0.00658661)
(0.0708742 0.11527 -0.0049693)
(0.0816026 0.0221545 0.00693219)
(0.0283978 0.0706746 0.00675303)
(0.0284162 0.0188096 0.00738263)
(0.00809424 0.0242742 0.00195464)
(0.00262272 0.0154465 -0.00240821)
(-0.00246749 0.02063 -0.00490183)
(-0.00534082 0.0239012 -0.00701044)
(-0.00829103 0.0340312 -0.00763576)
(-0.0104318 0.0409535 -0.00711265)
(-0.0119577 0.0503563 -0.00537087)
(-0.0121994 0.0560527 -0.00320289)
(-0.0118014 0.0610296 -0.000834559)
(-0.0108247 0.0631294 0.00111134)
(-0.00955721 0.0641358 0.00287603)
(-0.00788186 0.062565 0.00433357)
(-0.00614645 0.0594665 0.00535582)
(-0.00465448 0.0550871 0.0061272)
(-0.00379875 0.0493849 0.00669311)
(-0.00359726 0.0431512 0.00696344)
(-0.0037855 0.0365822 0.00689208)
(-0.00421476 0.0302221 0.00650331)
(-0.00478293 0.0239765 0.00606807)
(-0.00546648 0.0180782 0.00570804)
(-0.00629461 0.0124644 0.00543481)
(-0.00748398 0.00744036 0.0046478)
(-0.00915852 0.00327415 0.00329915)
(-0.0111789 0.000537541 0.00197397)
(-0.0129789 -0.000822611 0.00149584)
(-0.014277 -0.00106596 0.00159506)
(-0.0154981 -5.93336e-05 0.00172503)
(-0.0182104 0.00237557 0.00253366)
(-0.022441 0.00478543 0.00615024)
(-0.0282435 0.00606552 0.0126167)
(-0.0347981 0.0017794 0.018268)
(0.0214268 0.0230905 0.00679014)
(0.029277 0.0219175 0.00657972)
(0.0174488 0.012685 0.00199197)
(0.0215398 0.0156855 0.0029571)
(0.0147218 0.00663048 0.000711227)
(0.0154955 0.00893505 0.000664011)
(0.00884946 0.00277976 -0.000265334)
(0.00598553 0.00398046 0.000497099)
(0.00130307 5.36776e-05 0.00136072)
(0.00020243 0.00103661 0.00212325)
(-0.000111737 6.99479e-05 0.00268118)
(0.00051447 0.00137268 0.00366982)
(0.000892126 0.00162107 0.0040212)
(0.0014636 0.00224903 0.00435101)
(0.0016281 0.0019694 0.00437473)
(0.00170712 0.00185662 0.00446228)
(0.00144853 0.0014419 0.00443315)
(0.00127611 0.00128053 0.00445326)
(0.00104467 0.00102951 0.00441733)
(0.000887927 0.000911062 0.0043949)
(0.000726093 0.000758524 0.00435298)
(0.000601633 0.000669106 0.00431968)
(0.000487807 0.000580807 0.00428577)
(0.000393155 0.000526385 0.0042591)
(0.000313568 0.000486705 0.00423524)
(0.000251112 0.000467579 0.00421759)
(0.00020186 0.000458326 0.00420416)
(0.000161151 0.000458723 0.00419299)
(0.000126751 0.00046474 0.00418337)
(9.69852e-05 0.000471007 0.00417343)
(7.0538e-05 0.000483128 0.00416313)
(3.95559e-05 0.000478819 0.00415081)
(2.09067e-05 0.000507654 0.00414505)
(-2.31078e-05 0.000461482 0.00412873)
(-6.68235e-06 0.000563703 0.00413801)
(-8.88783e-05 0.000399404 0.00410645)
(-9.33262e-06 0.000702347 0.00413722)
(-0.000159986 0.000283901 0.00407853)
(1.75986e-05 0.000974912 0.0041358)
(-0.000214558 9.85785e-05 0.00404355)
(6.70237e-05 0.00141858 0.00411603)
(-0.000225403 -0.000172471 0.00398955)
(0.000126363 0.00206328 0.00406653)
(-0.000108889 -0.000514874 0.00395254)
(0.0002426 0.00296211 0.00403358)
(0.000165088 -0.000875492 0.00398374)
(0.000451084 0.00418744 0.00403034)
(0.000506056 -0.00174935 0.00395936)
(0.00114271 0.00550487 0.00386785)
(0.00134126 -0.00407883 0.00344207)
(0.00260504 0.00738684 0.00256458)
(0.00325932 -0.00806247 0.00540252)
(0.0100679 0.00806968 0.0110838)
(0.00882115 -0.0139642 0.0193894)
(0.0152247 0.0186272 0.0429525)
(-0.00437504 -0.0311995 0.0526983)
(0.0128581 0.0327358 0.0926428)
(-0.0832608 -0.126145 0.0787174)
(0.0317058 0.0529526 -0.167085)
(0.074935 -0.252757 -0.00336882)
(0.15148 -0.065551 0.00117229)
(0.0590973 0.13494 -0.00683843)
(0.0654397 0.0883144 0.00584072)
(0.0304429 0.121304 0.00434636)
(0.0239315 0.104648 0.00331275)
(0.0100531 0.109958 -0.000491441)
(0.00493068 0.106036 -0.00220833)
(-0.00048047 0.112566 -0.00324757)
(-0.00388404 0.114652 -0.00292594)
(-0.00754946 0.121397 -0.00172651)
(-0.0101227 0.123782 -1.43021e-05)
(-0.0113074 0.127941 0.00195503)
(-0.0114336 0.12789 0.00390399)
(-0.0109522 0.127815 0.00554486)
(-0.0102575 0.125318 0.0068551)
(-0.00798726 0.122621 0.00795197)
(-0.00568861 0.118138 0.00872101)
(-0.00337045 0.112625 0.00912848)
(-0.00144158 0.10605 0.00926516)
(-0.000308235 0.0979696 0.00914704)
(-0.000304471 0.0889 0.00889644)
(-0.000907037 0.0790795 0.00849979)
(-0.00149548 0.0695557 0.00796167)
(-0.00205413 0.0597291 0.00752935)
(-0.00294029 0.0500728 0.00701005)
(-0.00449896 0.0404527 0.00635366)
(-0.00661707 0.0317378 0.0052988)
(-0.00933872 0.0240173 0.00406191)
(-0.0122284 0.0181588 0.00326211)
(-0.0147073 0.0137484 0.00315134)
(-0.0165004 0.0105415 0.00348227)
(-0.0183405 0.00842482 0.00436701)
(-0.0214633 0.00695018 0.00633396)
(-0.0257401 0.0052016 0.00900872)
(-0.0308242 0.00480963 0.0132124)
(-0.0369081 0.00116319 0.0164323)
(0.0170771 0.0219613 0.00658501)
(0.0287 0.0254831 0.00819589)
(0.0150102 0.012301 0.0034482)
(0.0207344 0.0177008 0.00571029)
(0.0135871 0.005346 0.00287235)
(0.015181 0.00854645 0.00265589)
(0.00932142 0.00118911 0.000766878)
(0.0068733 0.00381348 0.000370889)
(0.00175512 -0.000208702 0.00103312)
(-0.0002964 0.000947864 0.00206793)
(-0.00171794 -0.0010007 0.00254824)
(-0.00213619 0.000343659 0.00347337)
(-0.0021599 0.000690359 0.00392513)
(-0.00142016 0.00157177 0.00454675)
(-0.00121006 0.00137763 0.00477798)
(-0.00115131 0.00146236 0.0049796)
(-0.00154805 0.00115977 0.00494057)
(-0.001858 0.00114685 0.00491882)
(-0.00218854 0.00100003 0.00482184)
(-0.00239644 0.000991743 0.00474486)
(-0.00258221 0.000922631 0.0046502)
(-0.00270708 0.00090874 0.00457301)
(-0.00280729 0.000874991 0.00449972)
(-0.00288078 0.000862616 0.00444269)
(-0.00293348 0.000850844 0.00439596)
(-0.00296831 0.000848 0.00436238)
(-0.00298693 0.000848634 0.00433555)
(-0.00299329 0.000853839 0.0043136)
(-0.00299038 0.000862045 0.00429608)
(-0.00297939 0.00087023 0.00428185)
(-0.00296475 0.000880765 0.00427041)
(-0.00295157 0.000878921 0.00426086)
(-0.00293839 0.000899682 0.00425706)
(-0.00294121 0.000866138 0.00424919)
(-0.00291275 0.000957843 0.0042584)
(-0.00294371 0.000831206 0.00424089)
(-0.00287659 0.00110849 0.00427512)
(-0.00294138 0.000765921 0.0042416)
(-0.00281629 0.00139259 0.00431101)
(-0.00290862 0.000639353 0.00425742)
(-0.00275035 0.00182856 0.00433467)
(-0.00283476 0.000404888 0.00426218)
(-0.00271049 0.00242849 0.00430922)
(-0.00266887 2.13167e-05 0.00426565)
(-0.00271115 0.00326447 0.00423608)
(-0.0023704 -0.00043056 0.004271)
(-0.00246327 0.00442993 0.00416893)
(-0.00181303 -0.00141798 0.00431792)
(-0.00136141 0.00570309 0.00433528)
(-0.000469932 -0.00355493 0.00399605)
(0.000451714 0.00712825 0.00320264)
(0.00277834 -0.0075164 0.00476431)
(0.00235022 0.006626 0.0101923)
(-0.00320162 -0.0158131 0.0159894)
(-0.00541599 0.0108724 0.0377049)
(-0.0208449 -0.0362064 0.0532756)
(0.00563982 -0.0109598 0.0898244)
(-0.0358925 -0.115738 0.0849047)
(0.0314295 -0.0622441 -0.168572)
(0.0391838 -0.269269 -0.00349019)
(0.0815365 0.00621261 -0.0016535)
(0.0337002 0.180758 -0.00625235)
(0.0392317 0.172458 0.00650171)
(0.0237141 0.199786 0.00734646)
(0.0200898 0.195636 0.00837542)
(0.01131 0.202081 0.00603445)
(0.00607112 0.199182 0.00572101)
(0.000407329 0.202354 0.00546313)
(-0.00365676 0.199957 0.00619668)
(-0.00716089 0.200674 0.00700857)
(-0.00913425 0.19758 0.00809276)
(-0.0104401 0.196879 0.00864756)
(-0.010264 0.19238 0.00953862)
(-0.00963797 0.188764 0.0100075)
(-0.00793476 0.183015 0.0109032)
(-0.00581782 0.177965 0.0109097)
(-0.0028886 0.172338 0.0112674)
(0.000178852 0.165523 0.0112125)
(0.00325178 0.158563 0.0111972)
(0.00582472 0.150969 0.0109268)
(0.00768048 0.142689 0.0107979)
(0.00852177 0.133189 0.0106301)
(0.00852569 0.122826 0.0103524)
(0.00801455 0.111495 0.00993128)
(0.00700596 0.0999819 0.00904422)
(0.00504614 0.0884767 0.00827994)
(0.00224989 0.0768054 0.00718597)
(-0.0012437 0.0650603 0.00601635)
(-0.0055456 0.0533415 0.00458289)
(-0.00971255 0.042195 0.00373422)
(-0.0138013 0.0321554 0.00424209)
(-0.017577 0.0235714 0.00585612)
(-0.0226807 0.0157441 0.00805889)
(-0.0300163 0.00838439 0.0104461)
(-0.0390405 0.00418584 0.0123831)
(-0.0504244 -0.000390026 0.0125329)
(0.0130863 0.017209 0.00475364)
(0.0269104 0.0286817 0.00835297)
(0.0108379 0.0114614 0.00414024)
(0.0182047 0.0202063 0.00732689)
(0.0111716 0.00508048 0.00461169)
(0.0131316 0.00900533 0.00451306)
(0.00740755 -0.000145495 0.00271861)
(0.00589698 0.0033192 0.0014208)
(0.00116645 -0.000749309 0.00172124)
(-0.00083578 0.00108794 0.00266893)
(-0.00264754 -0.00140979 0.0031724)
(-0.00343036 -0.000345768 0.00402111)
(-0.00337276 -0.000737596 0.00476292)
(-0.00247999 0.000150554 0.00557995)
(-0.00223039 1.34713e-05 0.00612264)
(-0.00218549 0.000574707 0.00653498)
(-0.00254335 0.000605668 0.00666254)
(-0.0027858 0.000947822 0.00671077)
(-0.00306188 0.00100845 0.00663292)
(-0.00321501 0.0011749 0.00655013)
(-0.00335477 0.00120995 0.00644248)
(-0.00343145 0.0012754 0.00635517)
(-0.00348685 0.00128995 0.00627397)
(-0.0035147 0.001309 0.00621342)
(-0.00352173 0.00131631 0.00616599)
(-0.00351009 0.00132376 0.00613235)
(-0.0034875 0.00133016 0.00610656)
(-0.00345572 0.00133641 0.00608778)
(-0.00341893 0.00134104 0.00607419)
(-0.00337636 0.00134394 0.00606474)
(-0.00333124 0.00134763 0.00605948)
(-0.00328569 0.00134175 0.00605795)
(-0.00324663 0.00135473 0.0060607)
(-0.00321677 0.00132942 0.00606205)
(-0.00317391 0.00141425 0.00607189)
(-0.00316896 0.00131529 0.00605937)
(-0.00310602 0.00157741 0.00607711)
(-0.00312646 0.00127934 0.00603638)
(-0.0030225 0.00186387 0.00607126)
(-0.00304461 0.00116911 0.00600201)
(-0.00291838 0.00227933 0.00604925)
(-0.0028757 0.000927848 0.00596151)
(-0.00281524 0.00285613 0.00599616)
(-0.00261311 0.000485212 0.00592588)
(-0.0028585 0.00365542 0.00584313)
(-0.00227491 -0.000216778 0.00586604)
(-0.00270126 0.00471762 0.00565822)
(-0.00175407 -0.00160837 0.00586637)
(-0.00181977 0.00611829 0.00608975)
(-0.000499296 -0.00392378 0.00581501)
(-2.40872e-05 0.00804045 0.00581696)
(0.00445769 -0.00796134 0.00668175)
(0.0029802 0.00753945 0.0115325)
(-0.00286949 -0.0173436 0.0154288)
(-0.0145401 0.00795524 0.0358417)
(-0.022632 -0.0415708 0.0518297)
(-0.00973911 -0.0249552 0.0885508)
(0.0104354 -0.0986931 0.0833045)
(0.00310968 -0.0945651 -0.154524)
(-0.000848068 -0.263471 -0.00470296)
(-0.00671491 0.0412133 -0.00553484)
(-0.000541055 0.209316 -0.00722475)
(0.0078985 0.214494 0.0077256)
(0.0114103 0.244042 0.0106157)
(0.0111068 0.24316 0.0127602)
(0.00763518 0.251654 0.01177)
(0.00404287 0.248511 0.0119061)
(0.00020023 0.251027 0.0116693)
(-0.00323568 0.246674 0.0121551)
(-0.00544931 0.245617 0.0123662)
(-0.00710143 0.240753 0.0128574)
(-0.00794963 0.237455 0.0130667)
(-0.00769927 0.232077 0.0135128)
(-0.00636258 0.227244 0.0135951)
(-0.0037428 0.221539 0.0140129)
(-0.00101553 0.215839 0.0140857)
(0.00249041 0.209804 0.0143036)
(0.00597739 0.20372 0.0142797)
(0.00924986 0.197946 0.0142415)
(0.0120481 0.192754 0.0139787)
(0.0143719 0.187982 0.0137411)
(0.0157715 0.183604 0.0135612)
(0.0159023 0.179422 0.0134584)
(0.0151568 0.175075 0.0134193)
(0.0138929 0.170389 0.0133812)
(0.01195 0.165076 0.013991)
(0.00981556 0.158237 0.01453)
(0.00717925 0.150359 0.0151356)
(0.0039966 0.140102 0.0158156)
(0.000194813 0.127815 0.0162458)
(-0.00424409 0.114663 0.0164928)
(-0.00960192 0.099239 0.0161935)
(-0.0162048 0.0826159 0.0153746)
(-0.0249578 0.0626108 0.0125174)
(-0.037078 0.0376243 0.00282182)
(-0.0483773 0.0116695 -0.013261)
(0.00218671 0.0137427 -0.00656323)
(0.024392 0.0307994 0.00552394)
(0.00458781 0.0106495 0.00160545)
(0.014063 0.0231331 0.00534168)
(0.0072367 0.00598201 0.00311255)
(0.00984078 0.0107754 0.00323398)
(0.00442211 0.0001273 0.00147638)
(0.0033001 0.00381921 -0.000326884)
(-0.000942861 -0.00055162 -0.000894092)
(-0.00270488 0.00151986 -0.000525962)
(-0.00463612 -0.00141453 1.69177e-05)
(-0.00574656 -0.000562197 0.000610089)
(-0.0065798 -0.001741 0.00134459)
(-0.00616863 -0.000819159 0.00211271)
(-0.00642787 -0.000801286 0.00279271)
(-0.00655207 7.80678e-05 0.00328902)
(-0.00703426 0.000288983 0.00360517)
(-0.00729872 0.000818669 0.00379313)
(-0.00756818 0.000978354 0.00385498)
(-0.00768266 0.00124157 0.00387285)
(-0.00778072 0.00133971 0.00384891)
(-0.00781677 0.00145229 0.00382878)
(-0.00782899 0.00149969 0.00380793)
(-0.00781888 0.0015393 0.00379777)
(-0.0077915 0.00155959 0.00379324)
(-0.007747 0.00157583 0.00379586)
(-0.00768602 0.0015869 0.00380258)
(-0.00761166 0.00159571 0.00381282)
(-0.00753215 0.00160297 0.00382382)
(-0.00744719 0.0016088 0.0038344)
(-0.0073633 0.00161585 0.00384461)
(-0.00728235 0.00161751 0.0038549)
(-0.0072206 0.00163487 0.00386553)
(-0.00716571 0.0016224 0.0038742)
(-0.00712126 0.00170162 0.00388322)
(-0.00707151 0.00162846 0.00387913)
(-0.00703452 0.00186623 0.00387997)
(-0.00695409 0.00161614 0.0038554)
(-0.00693223 0.00216188 0.00384617)
(-0.00678277 0.00154628 0.00380796)
(-0.00684668 0.00259868 0.00379207)
(-0.00658381 0.00131194 0.00374864)
(-0.00680587 0.00315627 0.00371648)
(-0.00633088 0.000847948 0.00367972)
(-0.00678766 0.0039644 0.0035505)
(-0.00596946 8.42675e-05 0.00353773)
(-0.00644349 0.00508222 0.00327482)
(-0.00542224 -0.00155728 0.00333792)
(-0.00561032 0.00654751 0.00365297)
(-0.00431186 -0.00468427 0.00317755)
(-0.00428345 0.00824693 0.00388345)
(0.00105417 -0.00899348 0.00529446)
(-0.00315072 0.00956994 0.00806105)
(-0.00748968 -0.0184695 0.010042)
(-0.0219045 0.0149752 0.0257805)
(-0.0197628 -0.0545971 0.0407389)
(-0.0286778 -0.0269015 0.0670749)
(0.046589 -0.127604 0.0692648)
(-0.0329299 -0.0421634 -0.170032)
(-0.0374917 -0.257942 -0.0143946)
(-0.0992991 0.00034388 -0.0204493)
(-0.0355611 0.175424 -0.00826715)