/*--------------------------------*- C++ -*----------------------------------*\
| =========                 |                                                 |
| \\      /  F ield         | OpenFOAM: The Open Source CFD Toolbox           |
|  \\    /   O peration     | Version:  2.3.0                                 |
|   \\  /    A nd           | Web:      www.OpenFOAM.org                      |
|    \\/     M anipulation  |                                                 |
\*---------------------------------------------------------------------------*/
FoamFile
{
    version     2.0;
    format      ascii;
    class       volVectorField;
    location    "33";
    object      U.water;
}
// * * * * * * * * * * * * * * * * * * * * * * * * * * * * * * * * * * * * * //

dimensions      [0 1 -1 0 0 0 0];

internalField   nonuniform List<vector> 
6144
(
(0.0107315 0.0185845 8.62868e-05)
(0.0104026 -0.00609379 -0.00129628)
(0.00461773 -0.00579541 -0.00268913)
(0.00413589 -0.00668622 -0.00268506)
(0.0026872 -0.0054291 -0.00253758)
(0.0027262 -0.00265504 -0.00231286)
(0.00238486 -0.00127309 -0.00150588)
(0.00224586 7.43547e-05 -0.000711504)
(0.00166579 0.000748223 -0.000191799)
(0.00122154 0.00268197 0.000562236)
(0.001105 0.00387638 0.00104476)
(0.00124301 0.0043467 0.00146158)
(0.00148337 0.00404675 0.00164283)
(0.00167645 0.00325467 0.00182664)
(0.00179867 0.00221518 0.00162283)
(0.00191485 0.00127379 0.00141207)
(0.00198514 0.000418254 0.00106291)
(0.00206175 -0.000180268 0.000763808)
(0.00212695 -0.000612821 0.000443155)
(0.00217571 -0.000831649 0.000221096)
(0.00220119 -0.000942302 7.83898e-05)
(0.0022109 -0.0009447 5.07025e-06)
(0.00220375 -0.000904197 -1.55118e-05)
(0.002182 -0.000830642 5.0543e-06)
(0.00214818 -0.000746691 5.8819e-05)
(0.002108 -0.000666314 0.00013962)
(0.00206278 -0.000601951 0.000239546)
(0.00201238 -0.000560812 0.000369536)
(0.00196014 -0.000539731 0.000515559)
(0.00191521 -0.000546487 0.000647245)
(0.00187414 -0.000582537 0.000764551)
(0.00183344 -0.000651931 0.000857931)
(0.00179433 -0.000706292 0.000927375)
(0.0017574 -0.00076547 0.000980371)
(0.00172113 -0.000772214 0.00103657)
(0.00168575 -0.000820171 0.001088)
(0.00164959 -0.000782111 0.00117174)
(0.00161558 -0.000898169 0.00124802)
(0.00158382 -0.000850206 0.00136079)
(0.00156091 -0.00114981 0.0014137)
(0.00154176 -0.0010188 0.00148049)
(0.00154441 -0.00154434 0.0014758)
(0.00151607 -0.00112723 0.0014887)
(0.00153402 -0.00188829 0.00144397)
(0.00139646 -0.000971453 0.00137649)
(0.00136765 -0.00166154 0.00118279)
(0.000912637 0.000127461 0.000756721)
(0.000872525 0.00107799 0.000148668)
(0.000355567 0.00522479 -0.000162017)
(0.00258972 0.00613062 -0.000868221)
(0.00535959 0.0117532 -0.00137663)
(0.00967523 -0.00774737 -0.00372934)
(0.0100872 0.00120553 -0.0061277)
(0.008342 -0.0150604 -0.00853304)
(0.00654853 0.0137777 -0.0151608)
(0.00889178 -0.00289027 -0.0106927)
(0.033595 0.0746931 0.0146506)
(0.010567 -0.116923 0.0182966)
(-0.0615086 0.0753832 -0.12231)
(0.0351893 -0.113818 -0.10647)
(0.102818 -0.227612 -0.0228852)
(0.0553713 -0.0202382 -0.0146872)
(0.0103198 -0.0984887 -0.0124528)
(0.0166418 -0.0603713 -0.00701035)
(0.00574601 -0.0620289 -0.0063634)
(0.00532042 -0.0563492 -0.00796511)
(0.00577506 -0.0467499 -0.010928)
(0.00935771 -0.0432941 -0.0114316)
(0.0164682 -0.0436279 -0.0117452)
(0.0219559 -0.0513953 -0.0122387)
(0.0268683 -0.0681289 -0.0103813)
(0.0298849 -0.0928136 -0.00380572)
(0.0284803 -0.126281 0.00325331)
(0.0242124 -0.163388 0.00914107)
(0.0179879 -0.201098 0.0142002)
(0.012815 -0.23638 0.0162839)
(0.00746773 -0.264667 0.0157913)
(0.00292199 -0.28366 0.0148597)
(0.000913781 -0.295749 0.0129454)
(-0.00357871 -0.298486 0.0112172)
(-0.00709856 -0.29487 0.00766624)
(-0.0077327 -0.285614 0.00861943)
(-0.0143245 -0.272077 0.00428971)
(-0.0143952 -0.24397 0.000153414)
(-0.0201884 -0.212862 0.00295482)
(-0.0289321 -0.176494 -0.0175483)
(-0.0190704 -0.0921244 -0.0202178)
(-0.0068432 -0.029794 -0.00742076)
(-0.0046124 -0.000354518 -0.00286133)
(-0.00303148 0.00809888 0.0059659)
(-0.00180531 -0.001528 0.0144926)
(-0.00184139 -0.0181384 0.016277)
(-0.00165808 -0.0305155 0.0107206)
(-0.00182786 -0.0349874 0.0035804)
(-0.00159158 -0.0291244 -0.00204463)
(-0.00199355 -0.0126707 -0.0117967)
(0.0215934 0.0191151 0.00339642)
(0.0225085 0.0042268 0.00224692)
(0.0119652 0.00191274 -0.00153378)
(0.0112065 0.000231068 -0.00104783)
(0.00614659 -0.00208933 -0.000393125)
(0.00518704 -0.00118483 0.00101548)
(0.00318583 -0.0016346 0.00256264)
(0.00249858 -2.67852e-05 0.00269546)
(0.00145043 0.00162076 0.00245252)
(0.00106874 0.00432004 0.00278151)
(0.0013923 0.00547696 0.00333526)
(0.00206203 0.00589431 0.00393582)
(0.00264541 0.00535765 0.00420905)
(0.00314846 0.00453344 0.00435499)
(0.00336963 0.00335696 0.00428246)
(0.00356692 0.00231112 0.00421264)
(0.00361892 0.00129882 0.00408846)
(0.00369784 0.000551284 0.00398651)
(0.00376164 -2.78227e-05 0.00385784)
(0.0038256 -0.000362943 0.00370732)
(0.00384814 -0.000578569 0.00361548)
(0.00383536 -0.000661095 0.00357971)
(0.00379207 -0.000681354 0.00359372)
(0.00372193 -0.000649805 0.00365044)
(0.00363341 -0.000595791 0.00373784)
(0.0035325 -0.000536194 0.00384619)
(0.00342263 -0.000485963 0.00397122)
(0.00330619 -0.000449816 0.00410566)
(0.00318903 -0.000426126 0.00424071)
(0.00309643 -0.000428722 0.0043301)
(0.00302194 -0.000459517 0.00440597)
(0.00294324 -0.000520476 0.00447135)
(0.00286528 -0.000559712 0.00453029)
(0.0027804 -0.00062203 0.00458259)
(0.00271079 -0.000620757 0.00463139)
(0.00263222 -0.000690321 0.00467475)
(0.0025907 -0.00064306 0.00473183)
(0.00252736 -0.000796841 0.00477758)
(0.0025316 -0.000699687 0.00484194)
(0.00247861 -0.00102946 0.00486966)
(0.00250769 -0.000754025 0.00492823)
(0.00245098 -0.00133243 0.00494526)
(0.00244882 -0.00071016 0.00499366)
(0.00238393 -0.0017045 0.00501725)
(0.00217077 -0.000653291 0.00491592)
(0.00201139 -0.00208404 0.00476222)
(0.000990369 -7.56672e-05 0.00401136)
(0.000579688 -0.000839462 0.00308121)
(-0.0010571 0.0044428 0.00238548)
(0.00118124 0.00192518 0.00323922)
(0.0116118 0.00804223 0.00338983)
(0.0189182 -0.0104674 0.000228917)
(0.0152135 0.00246036 -0.00590891)
(0.0129313 -0.00450778 -0.00502194)
(0.013906 0.0244174 -0.00369535)
(0.00918598 -0.0125954 -0.00465081)
(0.0155352 0.0424641 0.0224743)
(-0.011343 -0.0344761 -0.017975)
(0.01506 0.169135 -0.125758)
(0.12301 -0.18543 -0.046501)
(0.119781 -0.162395 -0.014691)
(0.0123387 0.137127 -0.011016)
(-0.00650232 -0.0561035 -0.010752)
(0.00043494 0.0788135 -0.000398778)
(0.0050264 0.0119328 -0.0047487)
(0.0115423 0.0418992 -0.00914735)
(0.0274925 0.0296697 -0.010318)
(0.0334397 0.0242354 -0.00789087)
(0.0469556 0.0146071 -0.00413203)
(0.0527134 -0.00296343 0.00305915)
(0.0554714 -0.0290865 0.0108058)
(0.0553452 -0.0604932 0.0183651)
(0.0492271 -0.100079 0.0251916)
(0.0391222 -0.141828 0.0287662)
(0.0259205 -0.183356 0.0285861)
(0.0130693 -0.21936 0.0234512)
(0.00317873 -0.245678 0.0193167)
(-0.00600608 -0.265495 0.014216)
(-0.0116593 -0.275403 0.00911916)
(-0.0176004 -0.279159 0.00753551)
(-0.0256716 -0.276866 0.00171663)
(-0.0299758 -0.266994 0.00270334)
(-0.0380737 -0.254405 -0.000760082)
(-0.0442345 -0.228384 -0.0049718)
(-0.0448634 -0.19999 -0.000354949)
(-0.0538393 -0.171119 -0.016572)
(-0.0507893 -0.106858 -0.0236293)
(-0.0284366 -0.0432457 -0.0070704)
(-0.0159891 -0.00905862 0.00250659)
(-0.0108062 0.00163651 0.0120475)
(-0.00825476 -0.00613981 0.0215159)
(-0.00747076 -0.0217815 0.0235395)
(-0.00874806 -0.0338446 0.0186088)
(-0.00832324 -0.0392033 0.00946985)
(-0.00924889 -0.0327072 0.000452652)
(-0.00800066 -0.015751 -0.0100776)
(0.0252707 0.0200346 0.00461995)
(0.0266476 0.0112749 0.00444105)
(0.0166798 0.00757118 0.0022475)
(0.014985 0.00701284 0.00288223)
(0.00808346 0.00228155 0.00334341)
(0.00509177 0.00172204 0.00357803)
(0.00145176 -0.000502853 0.00419065)
(6.77065e-05 0.000140924 0.0038798)
(-0.00143363 0.00155038 0.00351695)
(-0.00115434 0.00423591 0.00377746)
(-0.000165135 0.00519811 0.0041713)
(0.000881169 0.00565263 0.00474203)
(0.00164752 0.00527651 0.00495483)
(0.00229799 0.00477183 0.00505986)
(0.0026447 0.00385736 0.00496627)
(0.00292601 0.00302983 0.00489238)
(0.00298065 0.00216149 0.00481073)
(0.00304989 0.00148354 0.00476576)
(0.00303113 0.000874938 0.00473701)
(0.00297964 0.000441263 0.00473901)
(0.00290308 0.000109912 0.00476117)
(0.00280984 -0.000102147 0.00479665)
(0.00270715 -0.000238409 0.00484359)
(0.00259402 -0.000304397 0.00490379)
(0.00247542 -0.000329569 0.00497016)
(0.00235183 -0.000329415 0.00503768)
(0.00222673 -0.00031963 0.00510769)
(0.00210059 -0.00031039 0.00517919)
(0.00197794 -0.000309241 0.00525113)
(0.00185622 -0.000322271 0.00532526)
(0.00174731 -0.000334879 0.00539625)
(0.00162943 -0.000353692 0.00546036)
(0.0015118 -0.000356683 0.00552289)
(0.00138131 -0.000390542 0.00557991)
(0.00127789 -0.000384718 0.00563596)
(0.00116124 -0.000455173 0.00568837)
(0.00110366 -0.000423805 0.00574421)
(0.0010032 -0.000544915 0.00578022)
(0.00100714 -0.000412375 0.00583993)
(0.000899716 -0.000616545 0.00584818)
(0.000942529 -0.000272996 0.00590633)
(0.00085256 -0.000729404 0.00590251)
(0.000973649 -0.000163084 0.00598012)
(0.000970569 -0.00122215 0.00596757)
(0.00106243 -0.000400591 0.0058868)
(0.000917346 -0.00228031 0.0056722)
(0.000188324 -0.0004403 0.00481334)
(-0.00127718 -0.00284209 0.0038113)
(-0.00260518 0.00206389 0.00333578)
(0.000264592 -0.00382273 0.00490705)
(0.0127652 -0.000833876 0.00543438)
(0.0217066 -0.0105593 0.00160289)
(0.0152212 0.00338957 -0.00413936)
(0.0128803 -0.000718674 -0.00306385)
(0.0251214 0.0346469 0.00548026)
(0.0348804 -0.0312319 0.00634696)
(0.0213702 0.0293992 0.0416762)
(-0.0437412 -0.0919666 0.0376869)
(-0.000476112 0.106823 -0.178017)
(0.0793855 -0.228531 -0.0392838)
(0.100376 -0.0993122 -0.0231629)
(0.0383124 0.144601 -0.00634069)
(0.0414854 0.0433949 -0.00979621)
(0.0077829 0.0994897 -0.00422306)
(0.0272138 0.0829766 -0.00827959)
(0.0307751 0.0850479 -0.00456953)
(0.048394 0.0821323 -0.00218755)
(0.0532627 0.0684299 0.00135585)
(0.0666094 0.0582064 0.00574342)
(0.0701953 0.0376821 0.0112444)
(0.0725192 0.00662391 0.0161906)
(0.0732301 -0.0261522 0.0203839)
(0.0650785 -0.0696611 0.0212598)
(0.0518074 -0.110909 0.017757)
(0.0369163 -0.150358 0.0105175)
(0.0232596 -0.182078 0.000810296)
(0.0134515 -0.203496 -0.00459606)
(0.00579323 -0.217922 -0.0100923)
(0.000298909 -0.222377 -0.0124179)
(-0.00825811 -0.228068 -0.0107667)
(-0.0197834 -0.230446 -0.0128571)
(-0.0316745 -0.224827 -0.00742898)
(-0.0460572 -0.217362 -0.00798123)
(-0.0561716 -0.194383 -0.00938105)
(-0.0680713 -0.169309 -0.00578947)
(-0.08266 -0.144589 -0.0232026)
(-0.0760236 -0.0892891 -0.0296645)
(-0.0466052 -0.0327536 -0.00823771)
(-0.0253207 -0.00808174 0.00722212)
(-0.0170134 -0.00117879 0.0178017)
(-0.0162553 -0.0100936 0.0273043)
(-0.0178346 -0.0244568 0.0287356)
(-0.0199121 -0.0355103 0.0226899)
(-0.019598 -0.0405463 0.0122994)
(-0.01835 -0.0328122 0.000805606)
(-0.0225212 -0.0150958 -0.0108883)
(0.0265885 0.0201548 0.00455833)
(0.0293695 0.0153461 0.00523273)
(0.0182345 0.0103421 0.00326132)
(0.0169641 0.0112869 0.00303871)
(0.00935483 0.00548625 0.00367806)
(0.00654586 0.0048133 0.00360337)
(0.0013669 0.000395123 0.00441952)
(-0.00108494 -3.80417e-05 0.00404411)
(-0.00363261 -0.000159297 0.00378147)
(-0.00313127 0.00260494 0.00401203)
(-0.00171232 0.00359088 0.00444296)
(-0.00054599 0.00453178 0.00516166)
(0.000331825 0.0047117 0.00537082)
(0.00107845 0.00465327 0.00546837)
(0.00142988 0.0039938 0.00531647)
(0.00169401 0.00331231 0.00522275)
(0.00169318 0.00254321 0.00515497)
(0.00173029 0.00197039 0.00513014)
(0.00169237 0.00140073 0.00509898)
(0.00162315 0.000931777 0.00508664)
(0.00152105 0.000528208 0.0050911)
(0.00139594 0.000231204 0.00511217)
(0.00124464 6.85532e-06 0.00514122)
(0.00108381 -0.000143006 0.00518341)
(0.000926745 -0.00023574 0.0052374)
(0.000777526 -0.000285678 0.00529807)
(0.000634376 -0.000308873 0.00536274)
(0.000499255 -0.000315602 0.0054282)
(0.000375737 -0.000311784 0.0054909)
(0.000262994 -0.000309455 0.00554933)
(0.000158763 -0.000300433 0.00560087)
(4.73705e-05 -0.00029499 0.00564955)
(-5.25724e-05 -0.000273342 0.00570367)
(-0.000160281 -0.000280649 0.00575709)
(-0.000238439 -0.000253196 0.00581021)
(-0.000331831 -0.000290952 0.00585177)
(-0.000372435 -0.000227002 0.00588229)
(-0.000455214 -0.000282718 0.00588402)
(-0.00042291 -0.000112684 0.00590149)
(-0.000502931 -0.000260482 0.00587937)
(-0.00038449 5.89071e-05 0.00591621)
(-0.000420052 -0.000402681 0.00591122)
(-0.000116189 0.000134327 0.00601518)
(-8.25578e-05 -0.000918915 0.00598413)
(0.000327369 4.7244e-05 0.00600878)
(0.000177511 -0.00163095 0.00570978)
(-0.000244919 -0.000140075 0.00508846)
(-0.00170211 -0.00283115 0.00452583)
(-0.001778 -0.00235268 0.00477973)
(0.00160183 -0.00943925 0.0066305)
(0.0117302 -0.00567299 0.00548938)
(0.0209761 -0.00866568 0.00106991)
(0.0163152 0.00962802 -0.00379777)
(0.00823095 -0.00473191 -0.00983576)
(0.0305482 0.0166766 0.0200029)
(0.0498711 -0.032984 0.0293258)
(0.0346353 0.00616261 0.0487772)
(-0.0530691 -0.0887165 0.0586731)
(0.0294635 0.0392174 -0.17976)
(0.0546291 -0.246362 -0.0416869)
(0.0821132 -0.0756015 -0.0336618)
(0.0162279 0.148437 -0.017026)
(0.0268678 0.0954882 -0.0182811)
(0.0183812 0.136716 -0.00865984)
(0.0377622 0.131122 -0.00583297)
(0.0465974 0.132345 -0.00101317)
(0.0641467 0.127118 0.0012896)
(0.0712322 0.118049 0.00481197)
(0.0845531 0.10531 0.0091788)
(0.0894357 0.0873989 0.0129811)
(0.0921587 0.0571674 0.0163042)
(0.0933093 0.028181 0.0176192)
(0.0875717 -0.0120886 0.0160495)
(0.0759134 -0.0490589 0.00846525)
(0.0633276 -0.0817728 -2.52693e-05)
(0.0523059 -0.105023 -0.00675676)
(0.0427558 -0.11663 -0.011489)
(0.0337366 -0.118685 -0.01272)
(0.0237301 -0.117425 -0.0116673)
(0.00978274 -0.118499 -0.012325)
(-0.00639802 -0.120908 -0.00751755)
(-0.0265121 -0.131365 -0.000612264)
(-0.0529662 -0.139827 -0.0103581)
(-0.0664791 -0.127126 -0.012389)
(-0.0743594 -0.114552 -0.00659421)
(-0.0923985 -0.0985023 -0.0252499)
(-0.0934479 -0.0435736 -0.0334353)
(-0.0514099 -0.0143686 -0.00246657)
(-0.0255346 -0.000164004 0.015165)
(-0.0192315 -0.000740553 0.0254118)
(-0.0226359 -0.0114194 0.0333086)
(-0.0282014 -0.025369 0.0317601)
(-0.0307746 -0.0365364 0.0230882)
(-0.0294609 -0.0408873 0.0117909)
(-0.0293452 -0.0322517 -0.000375518)
(-0.0298741 -0.01563 -0.00909859)
(0.026701 0.0204484 0.00447576)
(0.0310758 0.0177028 0.00509606)
(0.0194977 0.0118642 0.00215476)
(0.0196604 0.0138325 0.00181586)
(0.0114201 0.00731851 0.00233389)
(0.00890544 0.00722086 0.00213367)
(0.00234048 0.00161854 0.00302173)
(-0.00109822 0.00119107 0.00327009)
(-0.00508902 -0.00134122 0.0035322)
(-0.00546746 0.00092213 0.00391721)
(-0.00387329 0.00194528 0.00424277)
(-0.00294502 0.00329557 0.00507737)
(-0.00198437 0.00399206 0.00532827)
(-0.00108987 0.00432224 0.00545247)
(-0.000548665 0.0039135 0.00527464)
(-0.000316399 0.0032921 0.00517357)
(-0.000502293 0.00256181 0.00511704)
(-0.000621609 0.00205933 0.00511836)
(-0.000762373 0.00155421 0.00509384)
(-0.000897183 0.00112226 0.00506637)
(-0.00105301 0.000718464 0.00503784)
(-0.00120647 0.000381398 0.00501818)
(-0.00136161 0.000100385 0.00501498)
(-0.00152159 -0.000105292 0.0050262)
(-0.00167683 -0.000249521 0.00504808)
(-0.00181879 -0.000340918 0.00508106)
(-0.00194722 -0.000392347 0.00512152)
(-0.00206078 -0.000412014 0.00516472)
(-0.00215438 -0.00041141 0.00520434)
(-0.00223337 -0.000403273 0.00522767)
(-0.00230715 -0.00037952 0.0052358)
(-0.00239127 -0.000356514 0.00523983)
(-0.00247152 -0.0003186 0.00525025)
(-0.00256141 -0.000307903 0.00526412)
(-0.00262547 -0.000254833 0.00528067)
(-0.00270471 -0.000250955 0.00528493)
(-0.00273168 -0.000142811 0.00528291)
(-0.00278548 -0.000147871 0.00525517)
(-0.00274493 5.07047e-05 0.00523657)
(-0.00278317 -6.72579e-05 0.00519471)
(-0.00265689 0.000260408 0.00520906)
(-0.00263455 -0.00015648 0.00519829)
(-0.00231607 0.00047666 0.0052967)
(-0.00221881 -0.000347738 0.00526969)
(-0.00172822 0.000849853 0.00539955)
(-0.00154191 -0.000514192 0.0052817)
(-0.0014798 0.00054957 0.00553227)
(-0.000936499 -0.00304352 0.00600151)
(-0.000738002 -0.00608287 0.00767195)
(0.00179518 -0.0138642 0.00703433)
(0.00593804 -0.00650178 0.00237259)
(0.0138004 0.000417646 -0.00289734)
(0.0143417 0.0239194 -0.00261701)
(0.0173256 0.00327678 0.0013288)
(0.0299871 0.0144264 0.0330258)
(0.0338701 -0.014084 0.0459971)
(0.00928014 0.0259685 0.0549459)
(-0.0498031 -0.081659 0.0702003)
(0.0209507 -0.0205269 -0.186518)
(0.0364126 -0.239452 -0.0330315)
(0.0505686 -0.03437 -0.0267747)
(0.0116726 0.158882 -0.0187363)
(0.0264518 0.132823 -0.0159969)
(0.0275893 0.168796 -0.00643631)
(0.047288 0.16978 0.00100807)
(0.0562628 0.170332 0.00310544)
(0.0717526 0.166732 0.00643656)
(0.0807958 0.162412 0.00986741)
(0.0937472 0.150122 0.013465)
(0.101462 0.141077 0.0174405)
(0.107336 0.117008 0.0206913)
(0.111297 0.0953309 0.0207195)
(0.107783 0.0641953 0.0184674)
(0.0948455 0.0316114 0.0110068)
(0.0795126 0.00362866 0.00356629)
(0.0637086 -0.0163114 -0.00186909)
(0.0497346 -0.0265601 -0.00344861)
(0.0387065 -0.0298163 -0.0028525)
(0.0297271 -0.0306043 -0.00034862)
(0.0192051 -0.0322313 0.00378004)
(0.00501951 -0.0360117 0.00904941)
(-0.0137527 -0.0455475 0.0122388)
(-0.0365327 -0.0543851 0.0112851)
(-0.0635951 -0.0549857 0.00270787)
(-0.0964405 -0.0429405 -0.0241843)
(-0.110017 -0.0106206 -0.0407408)
(-0.0750392 0.00536989 -0.0139265)
(-0.037089 0.00710514 0.0133059)
(-0.0224608 0.00989882 0.0265403)
(-0.0242374 0.00184037 0.0354589)
(-0.0330563 -0.0109088 0.0375009)
(-0.0385864 -0.0268306 0.0300711)
(-0.0393933 -0.0373215 0.0189171)
(-0.038869 -0.0388721 0.00801659)
(-0.0406923 -0.0291134 -0.00258539)
(-0.0463306 -0.0146365 -0.00879626)
(0.0253578 0.0203591 0.00718608)
(0.0322094 0.0203547 0.00555499)
(0.0199793 0.0129788 0.000793457)
(0.0222995 0.0168622 -0.000201968)
(0.0139587 0.00912045 -0.000178124)
(0.011868 0.0095313 3.28499e-05)
(0.00449095 0.0026828 0.000631584)
(0.000587396 0.00278002 0.00140893)
(-0.00466125 -0.00134334 0.00264014)
(-0.00693869 -0.000184373 0.00300018)
(-0.00537909 -0.000114313 0.00322146)
(-0.00419042 0.00147557 0.0043338)
(-0.00288009 0.00286958 0.004867)
(-0.00165397 0.0035542 0.00530882)
(-0.000854301 0.00333677 0.00539578)
(-0.000567686 0.0028057 0.00542354)
(-0.000962289 0.00214943 0.00534619)
(-0.0012636 0.00175917 0.00533063)
(-0.00153876 0.00140937 0.00526847)
(-0.00177059 0.00112839 0.0051872)
(-0.00199289 0.000844359 0.0050901)
(-0.00219629 0.000588014 0.00499212)
(-0.00239861 0.000347612 0.00490118)
(-0.00258606 0.000147616 0.0048248)
(-0.00274783 -7.51692e-06 0.00476004)
(-0.00287876 -0.0001111 0.00470825)
(-0.0029919 -0.000168356 0.00466625)
(-0.00307854 -0.000188638 0.00462963)
(-0.00313935 -0.000180343 0.00459006)
(-0.00319134 -0.000165317 0.00453909)
(-0.0032424 -0.00014395 0.00448725)
(-0.00330177 -0.000132302 0.00444408)
(-0.00334864 -9.79582e-05 0.00441696)
(-0.00340861 -8.35222e-05 0.00439628)
(-0.00344358 -8.00783e-06 0.00438136)
(-0.00350547 3.20711e-05 0.00435684)
(-0.00351248 0.000178469 0.00433059)
(-0.00355153 0.000213493 0.00428493)
(-0.00347847 0.000418681 0.00425654)
(-0.00346776 0.000297407 0.0042162)
(-0.0033185 0.000621689 0.00422512)
(-0.00324772 0.000235893 0.00422523)
(-0.00298085 0.000960994 0.00432847)
(-0.00281458 0.000397934 0.00434819)
(-0.00247175 0.00173997 0.00456356)
(-0.00193681 0.000646502 0.00477831)
(-0.00166479 0.00159253 0.00584025)
(0.000472712 -0.00256088 0.00744262)
(0.000333983 -0.00530978 0.0102813)
(0.00123818 -0.0127379 0.00889025)
(-0.00122257 -0.0040013 0.00256926)
(0.00545109 0.00309498 -0.00406302)
(0.00812182 0.025385 0.00176689)
(0.0240987 0.00203243 0.00694551)
(0.0166778 0.0200884 0.0359022)
(0.00873415 -0.0100578 0.0482143)
(0.0184179 0.0148026 0.0631893)
(0.00334932 -0.0744089 0.0762026)
(-6.98843e-05 -0.0338321 -0.185688)
(0.00868356 -0.230593 -0.0253198)
(0.00815787 -0.0169233 -0.0231995)
(-0.000554713 0.167298 -0.018535)
(0.0139054 0.152737 -0.0136303)
(0.0293352 0.185914 -0.00210662)
(0.0472358 0.183261 0.00454496)
(0.0570314 0.18793 0.00674878)
(0.0716077 0.185414 0.00962304)
(0.0811066 0.18843 0.0129579)
(0.0932771 0.183935 0.0146999)
(0.102764 0.186478 0.0183024)
(0.111854 0.173218 0.0216847)
(0.119053 0.164099 0.0218686)
(0.11967 0.144849 0.0207365)
(0.111849 0.120129 0.0147695)
(0.0960898 0.0907521 0.00683644)
(0.0771882 0.0680996 0.000213632)
(0.0570798 0.0527346 -0.00245394)
(0.0397313 0.0455697 -0.00228768)
(0.0250358 0.043844 -0.000331444)
(0.00903862 0.0432943 0.00138786)
(-0.0105679 0.0424046 0.000481028)
(-0.0340481 0.0415189 -0.00445065)
(-0.0590662 0.0415057 -0.013941)
(-0.0768437 0.0429253 -0.0238764)
(-0.0858242 0.0441566 -0.0296513)
(-0.069888 0.0407409 -0.0126641)
(-0.0427654 0.0289421 0.0131263)
(-0.0272784 0.0219049 0.0284574)
(-0.0258731 0.0136938 0.0364156)
(-0.0324817 0.00131963 0.0373348)
(-0.0409212 -0.0143539 0.0309384)
(-0.0438982 -0.0277362 0.0204233)
(-0.045206 -0.0352842 0.0121342)
(-0.0464488 -0.0369495 0.00307643)
(-0.0480109 -0.0286372 -0.00605675)
(-0.0539174 -0.0153552 -0.0110631)
(0.0209348 0.0195073 0.00646372)
(0.0316746 0.02432 0.00644291)
(0.0199277 0.0145021 0.000623882)
(0.0241395 0.0196914 -3.44485e-06)
(0.0165774 0.0102056 -0.00210967)
(0.0148263 0.0111701 -0.00118191)
(0.00693818 0.00232342 -0.00133859)
(0.00225175 0.00356474 -0.000729599)
(-0.00335797 -0.000160648 0.000915253)
(-0.00683786 0.000299867 0.00195949)
(-0.00647526 -0.00107037 0.00194833)
(-0.00717246 0.000218938 0.00320495)
(-0.00590994 0.00165052 0.00422363)
(-0.00399861 0.00245649 0.00532518)
(-0.00296687 0.00242791 0.00588737)
(-0.00272387 0.00212554 0.00621734)
(-0.0034115 0.00155566 0.0061587)
(-0.00404204 0.00127372 0.0060708)
(-0.00451787 0.001073 0.00589887)
(-0.0048202 0.000978311 0.00569538)
(-0.00505221 0.00089 0.00548909)
(-0.00521603 0.000820028 0.00529771)
(-0.00534811 0.000732332 0.0051232)
(-0.0054761 0.000649682 0.00498522)
(-0.00559139 0.000579512 0.00488211)
(-0.00568717 0.000532429 0.00480904)
(-0.00574767 0.000502176 0.00472943)
(-0.00578037 0.000496707 0.00465406)
(-0.00577251 0.00051247 0.00459352)
(-0.00573311 0.000523846 0.00454769)
(-0.00569738 0.000529209 0.004514)
(-0.00569114 0.0005207 0.00449333)
(-0.00569844 0.000539122 0.00448642)
(-0.00573064 0.000558785 0.00448262)
(-0.00575326 0.000646081 0.00449041)
(-0.0057951 0.000715475 0.00449522)
(-0.0057795 0.000867806 0.00449682)
(-0.00575907 0.000936461 0.00448616)
(-0.00565454 0.00111329 0.0044849)
(-0.00557083 0.00102299 0.00448647)
(-0.00549084 0.0013179 0.00449221)
(-0.00538536 0.000991104 0.0045362)
(-0.00543981 0.00168226 0.00460753)
(-0.00522923 0.00118294 0.00474043)
(-0.00530857 0.00239204 0.00494402)
(-0.00431632 0.00114291 0.0053508)
(-0.00396241 0.00212866 0.00632896)
(-0.000816265 -0.00216687 0.00799511)
(-0.00189244 -0.00215679 0.0112958)
(-0.000514451 -0.00852331 0.00971463)
(-0.00848462 0.000382911 0.00380674)
(-0.00192781 -0.0012367 -0.00533024)
(-4.04481e-05 0.0197753 0.00484309)
(0.0230227 -0.0156766 0.0103163)
(0.0144785 0.0116156 0.0221973)
(0.0182686 -0.0280734 0.0354432)
(-0.00506779 0.00287864 0.0692531)
(0.0326627 -0.0794191 0.0917019)
(-0.0116144 -0.0575575 -0.178274)
(-0.0150218 -0.252024 -0.0222337)
(-0.0391791 -0.0194942 -0.0215531)
(-0.0156904 0.163934 -0.0155136)
(-0.00118098 0.150562 -0.00978976)
(0.025093 0.181017 0.00134375)
(0.0414287 0.174348 0.00933035)
(0.0525311 0.179331 0.0118229)
(0.0624207 0.180499 0.012751)
(0.074318 0.185547 0.0169811)
(0.0836403 0.186869 0.01701)
(0.0971714 0.19678 0.0195621)
(0.106485 0.200996 0.0227565)
(0.112235 0.205557 0.0233585)
(0.115825 0.204531 0.0241723)
(0.115722 0.200097 0.0225967)
(0.106756 0.188078 0.0172353)
(0.0917039 0.167885 0.00897786)
(0.073703 0.148548 0.00299736)
(0.0549988 0.129496 -0.00237724)
(0.0357558 0.116839 -0.00595711)
(0.0178017 0.107639 -0.00737007)
(-0.00101101 0.100265 -0.00906043)
(-0.0177807 0.0948497 -0.0110109)
(-0.0334006 0.088582 -0.0118455)
(-0.0431857 0.0812524 -0.008619)
(-0.0438789 0.0721401 0.00174216)
(-0.0371919 0.0582825 0.0162042)
(-0.0305263 0.0449733 0.0277262)
(-0.0284871 0.0336612 0.0338145)
(-0.0312384 0.0215008 0.0343222)
(-0.0360198 0.0062609 0.030138)
(-0.0411281 -0.00971937 0.0228584)
(-0.0433341 -0.0226359 0.0173811)
(-0.0466129 -0.0294126 0.0121863)
(-0.053508 -0.0311885 0.00577736)
(-0.0577222 -0.0240992 -0.00192881)
(-0.0689378 -0.0137164 -0.0114282)
(0.0189942 0.0156033 0.00480205)
(0.030113 0.0286054 0.0068804)
(0.0188506 0.0159621 0.000556227)
(0.0246955 0.0230057 0.000797704)
(0.0185161 0.0115104 -0.00288174)
(0.0176285 0.0126082 -0.00175583)
(0.0084385 0.00186595 -0.0028721)
(0.00200137 0.00342451 -0.00318602)
(-0.0025839 0.000990572 -0.000229628)
(-0.005652 0.00182191 0.00127573)
(-0.00586269 -0.000783112 0.0016865)
(-0.00681124 -0.000830153 0.0031871)
(-0.00545103 -0.000826757 0.00475453)
(-0.00353765 -0.000284939 0.00623177)
(-0.00260602 -2.26558e-05 0.0071965)
(-0.00233527 0.000454036 0.0080271)
(-0.00294361 0.000702872 0.00828739)
(-0.00359252 0.000968165 0.00831615)
(-0.00412553 0.0011645 0.00815105)
(-0.00450111 0.00131934 0.00788524)
(-0.00478597 0.00137953 0.00759963)
(-0.00497259 0.001415 0.00733352)
(-0.00511284 0.001404 0.00709019)
(-0.00523111 0.00137304 0.00687831)
(-0.00532382 0.00133105 0.00670235)
(-0.00538528 0.00129514 0.0065569)
(-0.00541747 0.00127187 0.00643452)
(-0.00542052 0.00125711 0.0063237)
(-0.00538924 0.00124022 0.00622767)
(-0.00532716 0.00120743 0.00614835)
(-0.00526602 0.00117547 0.00609186)
(-0.00523385 0.00115435 0.00605594)
(-0.00521993 0.00116771 0.00603587)
(-0.00523877 0.00119224 0.00601212)
(-0.00525659 0.00128834 0.00598867)
(-0.00528866 0.00136745 0.00595113)
(-0.00527258 0.00151078 0.00590472)
(-0.00525158 0.00157289 0.00583702)
(-0.00514785 0.00171575 0.00578164)
(-0.00503183 0.00160246 0.00573645)
(-0.00496801 0.00187844 0.00569905)
(-0.00477525 0.00154385 0.00570314)
(-0.00493154 0.00222854 0.00572434)
(-0.00456324 0.00169498 0.00581382)
(-0.00488079 0.00280137 0.00587895)
(-0.00366241 0.00117035 0.00621613)
(-0.0037722 0.00256072 0.00691189)
(-0.000992057 -0.00212452 0.00789475)
(-0.0033122 0.000982881 0.0107985)
(-0.00343692 -0.00298177 0.00809067)
(-0.0108457 0.00734568 0.00452199)
(-0.00299697 -0.00150967 -0.000166012)
(0.000104108 0.0164221 0.00979332)
(0.0248849 -0.0215492 0.0150727)
(0.00655336 0.0131461 0.0483297)
(0.00816193 -0.0148171 0.0420362)
(-0.0157453 0.0450618 0.0835882)
(0.0919286 -0.0830684 0.0944046)
(-0.0294692 -0.00350483 -0.160771)
(-0.050053 -0.250878 -0.0237329)
(-0.0891044 -0.0313092 -0.0250332)
(-0.0276052 0.151551 -0.0149357)
(-0.0177586 0.120957 -0.0093921)
(0.0206527 0.147909 -0.00177332)
(0.0351228 0.136695 0.00307107)
(0.0451617 0.139431 0.00619068)
(0.0466369 0.137626 0.0106544)
(0.0565711 0.147013 0.0143307)
(0.0620968 0.159714 0.0172869)
(0.0741382 0.175367 0.0196504)
(0.0865574 0.192402 0.0215602)
(0.0971663 0.207665 0.0234535)
(0.106589 0.215374 0.0244572)
(0.107219 0.223284 0.0240385)
(0.100821 0.231641 0.0234301)
(0.0903224 0.23895 0.02111)
(0.0761723 0.238114 0.0193347)
(0.0617163 0.23499 0.0169644)
(0.043777 0.229755 0.0151083)
(0.0276605 0.224474 0.0134916)
(0.0117803 0.217023 0.0132061)
(-0.000736554 0.209413 0.0141508)
(-0.0149973 0.198646 0.0174316)
(-0.0217074 0.187778 0.0211536)
(-0.0251122 0.174874 0.0265795)
(-0.0258294 0.160648 0.0314169)
(-0.0255832 0.145106 0.0345968)
(-0.0283691 0.128333 0.0355202)
(-0.0321994 0.109082 0.0334716)
(-0.0350859 0.0881376 0.0306336)
(-0.0390852 0.066978 0.0284652)
(-0.0451279 0.0449099 0.0237085)
(-0.0525678 0.0253247 0.0173643)
(-0.0598821 0.00849617 0.00896927)
(-0.0666395 -0.00181862 -0.012194)
(-0.0820474 -0.00624755 -0.050873)
(0.00694881 0.0112006 -0.0044234)
(0.0275013 0.0304028 0.00571639)
(0.0167477 0.0176114 -3.43505e-05)
(0.0245668 0.0269485 0.00105521)
(0.0208 0.0137066 -0.00295246)
(0.0208682 0.0152793 -0.00127885)
(0.0111804 0.00244152 -0.00461465)
(0.00248857 0.00286309 -0.00827924)
(-0.00358384 0.00033634 -0.00525474)
(-0.00511774 0.00217776 -0.00299587)
(-0.00523241 -0.00103744 -0.00132989)
(-0.00772283 -0.00150416 -8.17112e-05)
(-0.00791648 -0.0028138 0.00127137)
(-0.00693035 -0.00225051 0.00249034)
(-0.00672209 -0.00159596 0.00357692)
(-0.00702553 -0.000612275 0.00454588)
(-0.00775666 0.000137585 0.00523683)
(-0.0084287 0.000753148 0.00561234)
(-0.0088695 0.00115743 0.00567719)
(-0.00897214 0.00143162 0.00559701)
(-0.00903682 0.00158866 0.00545535)
(-0.00902901 0.00169935 0.00530321)
(-0.0089817 0.00174581 0.00516259)
(-0.00893149 0.00175725 0.00502754)
(-0.0088738 0.00174537 0.0049037)
(-0.00880947 0.00172372 0.00479097)
(-0.00873155 0.00170082 0.0046914)
(-0.00863355 0.00167975 0.00459648)
(-0.00850284 0.00165828 0.00450303)
(-0.00836074 0.00162982 0.00441376)
(-0.00827795 0.00161002 0.00433859)
(-0.00824733 0.00160289 0.00428252)
(-0.00823665 0.00162111 0.00424352)
(-0.00825439 0.00164795 0.00420686)
(-0.00827483 0.0017393 0.00417068)
(-0.00828859 0.00181391 0.00411452)
(-0.00822936 0.00193854 0.00404126)
(-0.00814082 0.0019947 0.00394199)
(-0.00800756 0.00213139 0.00384176)
(-0.00782028 0.00205407 0.00376663)
(-0.00790745 0.00235839 0.00368293)
(-0.00766934 0.00207285 0.0036764)
(-0.00822284 0.00279393 0.00365271)
(-0.00768873 0.00226606 0.00371924)
(-0.00826986 0.00344192 0.00367148)
(-0.0067573 0.00186714 0.00374817)
(-0.00696268 0.00343883 0.00372646)
(-0.00502772 -0.000789877 0.00360559)
(-0.00929902 0.0034478 0.00395518)
(-0.00945916 -0.00192751 0.00114291)
(-0.0150839 0.0096956 0.00187965)
(-0.00772484 -0.0028516 0.000517622)
(-0.00429176 0.0181828 0.00774252)
(0.00916994 -0.0191912 0.00434244)
(-0.0153827 0.039163 0.0294025)
(-0.0149147 -0.0468769 0.0312455)
(-0.0166404 0.0405447 0.0672567)
(0.111116 -0.126015 0.070408)
(-0.0446842 0.077758 -0.151557)
(-0.0888548 -0.239975 -0.0334181)
(-0.142195 -0.0807823 -0.0308378)
(-0.0351339 0.132327 -0.0130251)
(-0.0367878 0.0600118 -0.0124909)
(0.030576 0.100116 -0.00809932)
(0.0313603 0.0787269 -0.010912)
(0.0434178 0.0848474 -0.0115225)
(0.0375639 0.0826782 -0.00393817)