/*--------------------------------*- C++ -*----------------------------------*\
| =========                 |                                                 |
| \\      /  F ield         | OpenFOAM: The Open Source CFD Toolbox           |
|  \\    /   O peration     | Version:  2.3.0                                 |
|   \\  /    A nd           | Web:      www.OpenFOAM.org                      |
|    \\/     M anipulation  |                                                 |
\*---------------------------------------------------------------------------*/
FoamFile
{
    version     2.0;
    format      ascii;
    class       volVectorField;
    location    "33";
    object      Ur;
}
// * * * * * * * * * * * * * * * * * * * * * * * * * * * * * * * * * * * * * //

dimensions      [0 1 -1 0 0 0 0];

internalField   nonuniform List<vector> 
6144
(
(-2.79245e-07 0.000420939 -2.42343e-07)
(-2.88385e-07 0.000459434 -4.12415e-07)
(1.09457e-07 0.000501148 -2.91276e-07)
(3.11821e-07 0.000532998 -1.88334e-07)
(4.85091e-07 0.000561876 -9.7308e-08)
(6.03291e-07 0.000593682 -4.5682e-08)
(6.52636e-07 0.000630613 -5.44733e-09)
(6.24336e-07 0.000668403 2.22919e-08)
(5.6573e-07 0.000695275 4.25498e-08)
(4.90041e-07 0.000705379 3.14206e-08)
(4.05741e-07 0.000705988 2.06648e-08)
(3.18747e-07 0.000704549 3.25633e-08)
(2.29925e-07 0.000703103 4.02934e-08)
(1.51474e-07 0.000701805 3.74837e-08)
(8.52695e-08 0.000700668 3.54786e-08)
(2.59918e-08 0.0006997 2.81665e-08)
(-1.41661e-08 0.000698907 2.36157e-08)
(-5.65215e-08 0.000698283 1.50224e-08)
(-8.45517e-08 0.000697798 1.08863e-08)
(-1.19597e-07 0.000697425 3.58735e-09)
(-1.3934e-07 0.00069715 9.63307e-10)
(-1.68737e-07 0.000696955 -4.668e-09)
(-1.82797e-07 0.000696833 -2.33797e-09)
(-2.0953e-07 0.000696767 -4.40334e-09)
(-2.1942e-07 0.000696758 9.90683e-10)
(-2.45223e-07 0.000696792 -1.05395e-09)
(-2.51999e-07 0.000696872 5.18269e-09)
(-2.77314e-07 0.000696986 2.18589e-09)
(-2.80564e-07 0.000697136 8.67979e-09)
(-3.06619e-07 0.000697309 4.03888e-09)
(-3.06199e-07 0.000697515 8.35922e-09)
(-3.31186e-07 0.00069775 -9.34582e-10)
(-3.23727e-07 0.000698022 1.08605e-09)
(-3.44824e-07 0.000698325 -1.28417e-08)
(-3.26822e-07 0.000698676 -1.58749e-08)
(-3.40514e-07 0.000699075 -4.05481e-08)
(-3.05848e-07 0.000699538 -5.4929e-08)
(-3.04366e-07 0.00070005 -9.43399e-08)
(-2.42294e-07 0.000700621 -1.1916e-07)
(-2.14631e-07 0.00070124 -1.75295e-07)
(-1.11933e-07 0.000701937 -2.17086e-07)
(-4.05737e-08 0.0007027 -2.87942e-07)
(1.16875e-07 0.000703462 -3.29709e-07)
(2.3374e-07 0.000710168 -3.91386e-07)
(3.54306e-07 0.000744266 -4.12524e-07)
(7.70001e-08 0.000834527 -4.61305e-07)
(-1.18222e-06 0.00102171 -3.63478e-07)
(-5.82058e-06 0.00135731 -4.32659e-07)
(-1.20498e-05 0.00182506 2.09195e-06)
(-1.40179e-05 0.00229657 5.24146e-06)
(-1.07209e-05 0.00267094 -2.98712e-07)
(-6.92981e-06 0.00295165 -5.45e-06)
(-1.24482e-05 0.00318902 -9.69776e-06)
(-1.37688e-05 0.00331524 -4.54502e-06)
(1.17087e-05 0.00349291 -3.18377e-06)
(-2.70849e-05 0.00355683 4.7272e-06)
(3.15186e-05 0.004088 -0.000104261)
(-1.9299e-05 0.00529797 5.34731e-05)
(-5.31319e-05 0.0144095 -9.75821e-05)
(0.00529434 0.104255 0.0030278)
(-0.0137571 0.623489 -0.025389)
(-0.0212391 0.515718 -0.0350472)
(-0.00473213 0.133539 -0.00855453)
(-5.72844e-05 0.0300851 -5.47483e-05)
(-3.51785e-05 0.00632202 -3.42754e-05)
(-2.82338e-05 0.00654289 -3.096e-05)
(-2.43181e-05 0.0066432 1.61435e-07)
(-2.57477e-05 0.00678225 1.32185e-05)
(-2.63813e-05 0.00687494 3.43943e-06)
(-3.79039e-05 0.00690495 6.47344e-06)
(-5.52686e-05 0.00695676 1.35926e-05)
(-6.84015e-05 0.00704187 2.79254e-06)
(-9.94649e-05 0.007066 -4.77295e-05)
(-7.13964e-05 0.00695497 -5.20263e-05)
(-4.54876e-05 0.00682184 -2.45091e-06)
(-2.66321e-05 0.00706889 6.0877e-05)
(-1.82541e-05 0.00748929 5.12682e-05)
(-2.07426e-05 0.00773817 1.37671e-05)
(-3.1685e-05 0.00786236 -1.76693e-05)
(-4.82191e-05 0.00783719 -3.85496e-05)
(-5.46637e-05 0.00759729 -4.4819e-05)
(-5.00945e-05 0.00722064 -4.89188e-05)
(-3.93648e-05 0.00679573 -4.43524e-05)
(-2.99197e-05 0.00635284 -3.61168e-05)
(-1.42303e-05 0.00594902 -2.68122e-05)
(1.10694e-06 0.00567558 -2.07361e-05)
(3.60911e-06 0.00553845 -1.55038e-05)
(-8.15896e-06 0.00544448 -1.73701e-05)
(-9.87504e-06 0.00533126 -1.95118e-05)
(-4.18438e-06 0.00521554 -2.10776e-05)
(-2.078e-07 0.00513482 -2.05056e-05)
(6.84298e-06 0.00508584 -1.61617e-05)
(7.73568e-06 0.00506854 -9.14767e-06)
(-9.32265e-07 0.00508517 -6.83684e-06)
(-3.0976e-05 0.00511063 -3.52452e-05)
(4.76449e-06 0.00506293 -1.40426e-05)
(-1.21795e-07 0.000394494 -2.30103e-07)
(1.45669e-07 0.000450736 -3.84772e-07)
(7.74564e-07 0.000514899 -2.75123e-07)
(1.15199e-06 0.000555937 -1.39487e-07)
(1.48848e-06 0.00058537 -6.25442e-08)
(1.75222e-06 0.000612575 -2.42246e-08)
(1.82383e-06 0.00064132 2.56428e-08)
(1.72734e-06 0.00067251 6.22458e-08)
(1.52902e-06 0.000696239 7.0981e-08)
(1.28779e-06 0.000705364 5.88013e-08)
(1.03078e-06 0.000705731 4.31096e-08)
(7.79503e-07 0.000704413 5.15234e-08)
(5.29544e-07 0.000703128 6.46301e-08)
(3.10108e-07 0.000701998 7.83971e-08)
(1.33371e-07 0.000700963 7.39894e-08)
(-1.25363e-08 0.000700036 7.16867e-08)
(-1.23065e-07 0.000699257 5.65279e-08)
(-2.22814e-07 0.000698637 5.0689e-08)
(-3.04348e-07 0.000698149 3.45513e-08)
(-3.85248e-07 0.00069777 3.25713e-08)
(-4.53449e-07 0.000697484 2.21358e-08)
(-5.24e-07 0.000697282 2.66064e-08)
(-5.81346e-07 0.000697155 1.82002e-08)
(-6.43664e-07 0.000697091 2.66324e-08)
(-6.93602e-07 0.000697084 1.90197e-08)
(-7.51441e-07 0.00069713 3.03303e-08)
(-7.96468e-07 0.000697221 2.23968e-08)
(-8.51426e-07 0.00069735 3.46051e-08)
(-8.92485e-07 0.000697509 2.64654e-08)
(-9.4493e-07 0.000697699 4.2743e-08)
(-9.7814e-07 0.000697922 3.09278e-08)
(-1.02095e-06 0.00069818 4.65855e-08)
(-1.03641e-06 0.000698473 2.95715e-08)
(-1.05838e-06 0.000698804 4.45441e-08)
(-1.04365e-06 0.000699178 2.04743e-08)
(-1.02956e-06 0.000699602 3.16531e-08)
(-9.62036e-07 0.000700075 -4.64565e-09)
(-8.82027e-07 0.000700596 -3.23066e-09)
(-7.25882e-07 0.000701167 -5.9191e-08)
(-5.42576e-07 0.000701794 -7.5859e-08)
(-2.62253e-07 0.00070249 -1.62384e-07)
(6.59573e-08 0.000703235 -2.0398e-07)
(4.91544e-07 0.000704325 -2.96523e-07)
(9.45395e-07 0.000710324 -3.13921e-07)
(1.34624e-06 0.00073528 -3.9115e-07)
(1.24676e-06 0.000808536 -3.40283e-07)
(-9.26245e-07 0.000980224 -1.23703e-08)
(-1.01789e-05 0.00130069 7.12652e-07)
(-1.81817e-05 0.00178169 1.46424e-06)
(-1.74953e-05 0.00241217 3.67188e-06)
(-1.49078e-05 0.00307651 3.68292e-06)
(-1.03855e-06 0.00351218 -2.5468e-06)
(-1.10577e-05 0.00376827 -9.31811e-06)
(-2.2939e-05 0.00387871 -5.89991e-06)
(-1.31788e-06 0.00397923 -1.13015e-05)
(-8.38163e-05 0.00397514 8.33461e-06)
(1.21066e-05 0.00460385 -0.000130425)
(-6.03464e-05 0.00529002 8.81274e-05)
(-8.83255e-05 0.0113322 -0.000136289)
(0.00578599 0.102554 0.00879116)
(-0.00791546 0.610705 -0.0191834)
(-0.0140208 0.446212 -0.0385614)
(-0.00118456 0.0223674 -0.000512317)
(-7.89013e-05 0.00644645 2.81981e-05)
(-6.68084e-05 0.006722 -2.04231e-05)
(-5.28503e-05 0.00697702 -9.09288e-06)
(-7.65114e-05 0.00732592 -5.08328e-06)
(-4.11413e-05 0.0074631 -2.78035e-06)
(-1.32867e-05 0.00736225 -3.25547e-06)
(-2.76175e-05 0.00707341 9.8971e-06)
(-1.54988e-05 0.00686664 3.73966e-05)
(-3.64388e-05 0.00690164 3.10866e-05)
(-8.44093e-05 0.00698384 -1.23714e-05)
(-8.0755e-05 0.0069664 -3.33849e-05)
(-6.1006e-05 0.00717449 -1.78199e-05)
(-2.98905e-05 0.00792033 3.58907e-05)
(-2.98712e-05 0.00848584 3.01777e-05)
(-2.82559e-05 0.00861977 -2.33053e-06)
(-1.55524e-05 0.0086467 -4.27142e-05)
(-1.62863e-05 0.0086885 -6.43786e-05)
(-2.83775e-05 0.00865856 -7.62204e-05)
(-2.5619e-05 0.0084628 -7.92577e-05)
(-1.30391e-05 0.0082091 -7.08216e-05)
(-3.848e-06 0.00796269 -6.06415e-05)
(3.06417e-06 0.00753579 -5.10543e-05)
(1.62287e-06 0.00693746 -2.84569e-05)
(8.47295e-06 0.00644375 -7.86322e-06)
(2.26973e-05 0.00620018 4.86198e-06)
(5.34193e-05 0.00603454 -4.73195e-06)
(3.45843e-05 0.00578883 -2.61958e-05)
(2.41356e-05 0.00559439 -4.22441e-05)
(2.22978e-05 0.00549492 -1.99446e-05)
(2.03832e-05 0.00539822 -1.80069e-06)
(1.10731e-05 0.00529577 7.12894e-06)
(-1.76479e-05 0.00524142 -1.77269e-05)
(-1.21872e-05 0.00517173 -2.02274e-05)
(2.64842e-07 0.000380492 -5.18758e-08)
(1.1075e-06 0.000434947 -1.4035e-07)
(1.63866e-06 0.00050393 -1.77462e-07)
(2.09675e-06 0.000554769 -7.85785e-08)
(2.46649e-06 0.000590179 9.25741e-09)
(2.70636e-06 0.000617322 5.59936e-08)
(2.73303e-06 0.000642843 1.15124e-07)
(2.53585e-06 0.000668455 1.49249e-07)
(2.21359e-06 0.000688324 1.489e-07)
(1.80818e-06 0.000698307 1.24712e-07)
(1.37165e-06 0.000701142 1.03567e-07)
(9.31124e-07 0.000701777 1.05218e-07)
(5.28844e-07 0.000701827 1.11113e-07)
(1.77216e-07 0.000701389 1.15171e-07)
(-1.00366e-07 0.00070065 1.15991e-07)
(-3.30634e-07 0.00069984 1.1101e-07)
(-5.05048e-07 0.000699114 1.05976e-07)
(-6.60662e-07 0.000698523 9.94005e-08)
(-7.85813e-07 0.000698058 9.559e-08)
(-9.05404e-07 0.000697698 9.1629e-08)
(-1.007e-06 0.000697427 8.88085e-08)
(-1.1131e-06 0.000697234 8.70693e-08)
(-1.20482e-06 0.000697113 8.82178e-08)
(-1.30612e-06 0.000697052 8.81756e-08)
(-1.39378e-06 0.000697047 9.10896e-08)
(-1.49379e-06 0.000697091 9.22642e-08)
(-1.57831e-06 0.000697179 9.60741e-08)
(-1.67632e-06 0.000697305 9.73894e-08)
(-1.7539e-06 0.000697469 1.00647e-07)
(-1.8437e-06 0.000697666 1.00428e-07)
(-1.90658e-06 0.000697899 1.02109e-07)
(-1.97665e-06 0.000698168 1.00415e-07)
(-2.00752e-06 0.000698476 1.00446e-07)
(-2.03747e-06 0.000698821 9.55257e-08)
(-2.01307e-06 0.000699211 9.06017e-08)
(-1.97433e-06 0.000699648 7.89538e-08)
(-1.85606e-06 0.000700141 6.69783e-08)
(-1.70282e-06 0.000700695 4.84758e-08)
(-1.43885e-06 0.000701332 2.92572e-08)
(-1.11337e-06 0.000702062 1.47025e-09)
(-6.44316e-07 0.000702931 -2.54137e-08)
(-7.95854e-08 0.00070396 -6.30101e-08)
(6.5169e-07 0.00070608 -9.30422e-08)
(1.43535e-06 0.00071371 -1.22853e-07)
(2.21332e-06 0.000737189 -1.42346e-07)
(2.32958e-06 0.000795301 -1.37796e-07)
(2.42339e-07 0.000899143 4.4177e-07)
(-6.97927e-06 0.00114838 2.30387e-06)
(-1.5608e-05 0.00180267 5.76488e-06)
(-3.79022e-05 0.00286342 2.17655e-05)
(-4.50663e-06 0.0036944 3.39207e-06)
(1.22997e-05 0.00407061 -2.63753e-06)
(-2.0513e-07 0.00422729 -5.00061e-06)
(-2.05087e-05 0.00426948 7.36588e-06)
(-2.77007e-05 0.00428713 6.68452e-06)
(-7.09076e-05 0.00427916 4.27915e-05)
(-7.66059e-05 0.00493013 -0.000141947)
(-7.5335e-05 0.00563346 4.96888e-06)
(-0.000196751 0.0116919 -0.0002675)
(0.0103722 0.104063 0.0119901)
(0.00441455 0.596547 0.00257195)
(-0.0183462 0.461078 -0.035298)
(-2.54677e-05 0.0227236 -0.00059588)
(-0.000110428 0.00648097 -0.000108028)
(6.75024e-06 0.00699586 -9.8593e-05)
(5.8044e-06 0.00735308 -1.60717e-05)
(-7.18832e-05 0.00758639 1.28609e-05)
(-8.59799e-05 0.00759343 1.41284e-05)
(-5.20421e-05 0.00749093 -9.14328e-06)
(-2.69752e-05 0.00746807 -2.24627e-05)
(2.82063e-05 0.00741739 -1.29272e-05)
(4.88313e-05 0.00721882 -1.7841e-06)
(1.83014e-05 0.00707982 -1.09184e-05)
(-2.62491e-05 0.00722639 -2.55418e-05)
(-1.75882e-05 0.00780415 -8.47896e-06)
(-1.69342e-05 0.00839942 1.75606e-05)
(-2.36955e-05 0.00860583 -1.84928e-05)
(-9.27127e-06 0.00856908 -6.75206e-05)
(2.88533e-05 0.00853129 -8.90086e-05)
(5.66365e-05 0.00855546 -8.79336e-05)
(6.98458e-05 0.00856867 -9.3752e-05)
(7.82015e-05 0.00842021 -9.56206e-05)
(5.70537e-05 0.00819042 -7.79791e-05)
(4.48645e-05 0.00817484 -6.39778e-05)
(2.7363e-05 0.00819708 -5.89954e-05)
(-2.57278e-05 0.00794473 -5.25326e-05)
(-4.87272e-05 0.00753997 -4.90154e-05)
(-1.08867e-05 0.00722421 -5.04728e-05)
(3.07315e-05 0.00687153 -8.48944e-05)
(1.62393e-05 0.00643075 -4.65371e-05)
(3.59579e-06 0.00613576 -3.6708e-05)
(-3.25722e-06 0.00596459 -2.06675e-05)
(2.18656e-06 0.00581735 -7.56222e-06)
(1.56655e-05 0.00564594 -2.49066e-07)
(8.71879e-06 0.00546827 -5.71403e-06)
(-2.39418e-05 0.00529965 -9.79828e-06)
(5.05095e-07 0.000371934 1.04091e-07)
(1.86025e-06 0.000420187 1.38738e-07)
(2.43665e-06 0.000485451 -8.2738e-10)
(3.00973e-06 0.000540101 5.57518e-08)
(3.33443e-06 0.000582015 9.83847e-08)
(3.51919e-06 0.0006118 1.39974e-07)
(3.45503e-06 0.000636624 1.73069e-07)
(3.16003e-06 0.000661159 1.92665e-07)
(2.70922e-06 0.000681123 1.83473e-07)
(2.1616e-06 0.000692875 1.57694e-07)
(1.57502e-06 0.000697852 1.28686e-07)
(1.0018e-06 0.000699968 1.2194e-07)
(4.73475e-07 0.000700793 1.1754e-07)
(2.05167e-08 0.000700692 1.28031e-07)
(-3.59675e-07 0.000700092 1.19404e-07)
(-6.69554e-07 0.00069936 1.2302e-07)
(-9.27744e-07 0.000698684 1.10972e-07)
(-1.14214e-06 0.000698125 1.15247e-07)
(-1.33276e-06 0.000697688 1.0351e-07)
(-1.4925e-06 0.000697351 1.1094e-07)
(-1.64639e-06 0.000697093 9.91966e-08)
(-1.78053e-06 0.000696908 1.08665e-07)
(-1.919e-06 0.000696785 9.70003e-08)
(-2.04591e-06 0.00069672 1.08886e-07)
(-2.1826e-06 0.000696707 9.64768e-08)
(-2.30852e-06 0.000696744 1.10557e-07)
(-2.44502e-06 0.000696824 9.62847e-08)
(-2.56707e-06 0.000696947 1.11796e-07)
(-2.69818e-06 0.000697111 9.42102e-08)
(-2.80898e-06 0.00069732 1.10542e-07)
(-2.92403e-06 0.000697571 8.9389e-08)
(-3.00776e-06 0.000697871 1.0734e-07)
(-3.08574e-06 0.000698217 8.11903e-08)
(-3.11563e-06 0.000698617 9.73349e-08)
(-3.12341e-06 0.00069907 6.21425e-08)
(-3.05872e-06 0.000699591 7.58353e-08)
(-2.94927e-06 0.000700182 3.30024e-08)
(-2.73601e-06 0.000700856 4.56494e-08)
(-2.44539e-06 0.000701626 -6.19062e-09)
(-2.00783e-06 0.000702517 3.66044e-09)
(-1.4504e-06 0.000703556 -5.50512e-08)
(-7.04083e-07 0.000704824 -3.54634e-08)
(2.06706e-07 0.000707548 -8.73972e-08)
(1.29406e-06 0.000715805 -5.34803e-08)
(2.41223e-06 0.000738118 -3.99829e-08)
(2.8689e-06 0.000780298 3.24254e-08)
(1.84529e-06 0.000847037 1.13139e-06)
(-6.50026e-06 0.00130413 5.96965e-06)
(-7.48478e-05 0.00250815 2.56112e-05)
(1.22535e-05 0.00370205 2.44853e-05)
(3.5364e-05 0.00421313 1.54707e-06)
(2.73861e-05 0.00428398 -7.73726e-06)
(9.44729e-06 0.00429188 -1.03796e-05)
(-5.42719e-05 0.00429034 -3.56025e-06)
(-7.40781e-05 0.00430719 1.08971e-05)
(-0.000151505 0.00431727 4.44304e-05)
(-0.000424446 0.00514652 -9.45675e-05)
(-0.000137208 0.00602759 -9.90024e-05)
(-0.000566641 0.0117875 -0.000497008)
(0.0128617 0.102562 0.0142422)
(-0.0124084 0.591778 0.00157327)
(-0.0298655 0.469938 -0.0341826)
(-0.000857933 0.025624 -0.00364912)
(-6.90871e-05 0.0101491 -0.000275262)
(0.000220091 0.0100627 -0.000240134)
(7.60995e-05 0.00854105 -4.06662e-05)
(0.000267256 0.00733524 -1.04178e-05)
(0.000348622 0.00688243 -7.33636e-06)
(0.000249813 0.00686975 -2.30528e-05)
(0.000306729 0.00699527 -6.59073e-06)
(0.000300011 0.00736913 4.95282e-07)
(0.000121989 0.00786958 -1.81674e-05)
(-3.47439e-05 0.00855526 -2.50864e-05)
(-9.9674e-05 0.00938431 -3.96662e-05)
(-0.000183569 0.00991756 -2.18181e-05)
(-0.000220058 0.00983699 -1.76098e-05)
(-3.07807e-05 0.00938389 -5.13514e-05)
(-8.14415e-06 0.00931644 -7.74701e-05)
(3.02798e-05 0.0093279 -7.36595e-05)
(7.5597e-05 0.00935965 -4.41886e-05)
(0.000126409 0.00934726 -3.09604e-05)
(0.000111658 0.00897109 -4.02151e-05)
(6.82336e-05 0.00842759 -2.84255e-05)
(-3.17918e-05 0.00843117 -3.42869e-05)
(-0.000117625 0.00877366 -5.54518e-05)
(-0.000124685 0.00861099 -8.32497e-05)
(-0.000103 0.00803085 -0.000107066)
(-7.97229e-05 0.00741344 -0.000116035)
(-6.2016e-05 0.00679624 -8.3787e-05)
(-3.57852e-05 0.00625737 -3.43085e-05)
(-2.97551e-05 0.00599286 -2.11664e-05)
(-1.09459e-05 0.00592296 5.96583e-06)
(7.44818e-07 0.00588685 8.63092e-06)
(8.97352e-06 0.00574228 -3.6867e-06)
(4.60966e-06 0.00548537 -8.04648e-06)
(-2.35163e-05 0.00527045 -3.98367e-06)
(7.2891e-07 0.000364753 2.65217e-07)
(2.54923e-06 0.000407498 3.69996e-07)
(3.20064e-06 0.000465111 1.10383e-07)
(3.86139e-06 0.000519161 1.12486e-07)
(4.192e-06 0.00056886 1.58746e-07)
(4.30803e-06 0.000605915 1.82278e-07)
(4.07371e-06 0.00063283 1.76747e-07)
(3.64611e-06 0.000656202 1.8926e-07)
(3.03913e-06 0.000674884 1.77598e-07)
(2.36635e-06 0.000687622 1.52369e-07)
(1.69135e-06 0.000694867 1.30455e-07)
(1.03042e-06 0.000698665 1.01813e-07)
(4.32478e-07 0.000700217 1.03606e-07)
(-1.09112e-07 0.000700325 1.02049e-07)
(-5.60151e-07 0.000699816 1.09632e-07)
(-9.53101e-07 0.000699155 9.99112e-08)
(-1.27325e-06 0.000698547 1.06251e-07)
(-1.55897e-06 0.000698049 9.42555e-08)
(-1.7996e-06 0.000697659 1.00965e-07)
(-2.02104e-06 0.000697358 8.70476e-08)
(-2.21184e-06 0.000697132 9.37464e-08)
(-2.39652e-06 0.000696967 7.7652e-08)
(-2.563e-06 0.000696861 8.62132e-08)
(-2.73329e-06 0.000696803 6.94756e-08)
(-2.89112e-06 0.000696794 8.00614e-08)
(-3.0573e-06 0.000696829 6.17055e-08)
(-3.21119e-06 0.000696908 7.36975e-08)
(-3.37328e-06 0.000697026 5.23924e-08)
(-3.52016e-06 0.000697189 6.46533e-08)
(-3.67197e-06 0.000697392 3.9431e-08)
(-3.8003e-06 0.000697643 5.26523e-08)
(-3.92263e-06 0.000697942 2.33708e-08)
(-4.00517e-06 0.0006983 3.58585e-08)
(-4.06538e-06 0.000698721 -1.47612e-09)
(-4.06445e-06 0.000699221 7.2699e-09)
(-4.01801e-06 0.000699804 -3.7894e-08)
(-3.88197e-06 0.000700487 -2.92877e-08)
(-3.66742e-06 0.000701268 -8.13491e-08)
(-3.32217e-06 0.000702165 -7.72492e-08)
(-2.85311e-06 0.000703178 -1.39778e-07)
(-2.21334e-06 0.000704377 -1.38829e-07)
(-1.411e-06 0.000706056 -2.08933e-07)
(-3.88851e-07 0.000709569 -2.06794e-07)
(8.51917e-07 0.000717732 -2.75251e-07)
(2.26875e-06 0.000736961 -1.83441e-07)
(4.35593e-06 0.0007592 -4.19057e-08)
(2.51635e-06 0.000949533 2.75156e-06)
(-1.3233e-05 0.00187466 1.57491e-05)
(-3.89242e-05 0.00334737 2.61251e-05)
(5.32642e-05 0.00417449 1.2886e-05)
(5.17474e-05 0.00427965 -1.37782e-05)
(2.77701e-05 0.00421787 -4.0683e-05)
(-1.6448e-06 0.00415006 -5.81796e-05)
(-4.23876e-05 0.00411337 -9.25468e-05)
(-4.61201e-05 0.00410253 -0.000120389)
(-0.000109354 0.00401087 3.99221e-05)
(-0.000921728 0.00541466 -2.69848e-05)
(-0.000210564 0.00693397 -3.48561e-05)
(-0.000812916 0.0131469 -0.000572817)
(0.0256907 0.121223 0.0211586)
(-0.0238639 0.633694 -0.0141296)
(-0.0497951 0.5669 -0.0577077)
(-0.0278142 0.540508 -0.0551918)
(-0.0112751 0.584999 -0.0524883)
(0.000676467 0.592548 -0.00411609)
(-0.011786 0.55218 -0.00199716)
(-0.0177335 0.542288 -0.000766623)
(-0.0129041 0.541984 -0.0012262)
(-0.0132219 0.533732 -0.000767881)
(-0.00552704 0.528168 0.00417117)
(0.0012067 0.526705 0.00213491)
(0.0082001 0.523171 0.00877564)
(0.0179601 0.525883 0.015388)
(0.0212546 0.533843 0.0184517)
(0.00924768 0.521326 0.00960193)
(0.00216768 0.40367 0.0015168)
(0.000118159 0.0295844 -0.000160972)
(0.0002891 0.00982118 -0.0003333)
(0.000295159 0.0104808 -0.000259948)
(0.000226961 0.0105224 -0.0001374)
(0.000144756 0.0107871 -6.67217e-05)
(-0.000117267 0.0110238 6.08934e-05)
(-0.000459702 0.0107414 -6.05673e-05)
(-0.000455117 0.00952868 -0.000407462)
(-0.000357878 0.00853359 -0.000596657)
(-0.000182977 0.00735511 -0.000793202)
(-3.66707e-05 0.00612106 -0.000924888)
(-2.45288e-05 0.00570566 -0.00078679)
(-0.000115156 0.00566558 -0.000470884)
(-0.000123683 0.00555697 -0.000422199)
(-7.74016e-05 0.00569297 -0.000111619)
(-9.69091e-05 0.00598753 0.000107517)
(-0.000150619 0.00576611 -0.000117067)
(-0.000151818 0.00543436 -6.64803e-06)
(-1.73683e-05 0.005303 -3.72988e-06)
(-2.47858e-05 0.00519376 -8.82332e-06)
(9.83858e-07 0.000355877 3.89771e-07)
(3.29664e-06 0.000394536 5.69963e-07)
(4.00593e-06 0.000442943 1.2731e-07)
(4.71845e-06 0.00049192 5.23385e-08)
(5.02047e-06 0.000546601 2.43297e-07)
(5.08452e-06 0.000593381 2.20283e-07)
(4.63429e-06 0.000626192 1.65401e-07)
(4.04941e-06 0.000650567 1.65698e-07)
(3.28409e-06 0.000668914 1.33202e-07)
(2.53323e-06 0.000682493 1.33796e-07)
(1.74483e-06 0.000691575 1.00727e-07)
(1.03548e-06 0.000696994 8.37782e-08)
(3.63406e-07 0.000699246 6.53967e-08)
(-2.29698e-07 0.000699475 8.70882e-08)
(-7.55277e-07 0.000698998 8.3427e-08)
(-1.19861e-06 0.000698392 9.91867e-08)
(-1.57376e-06 0.000697836 8.61297e-08)
(-1.89423e-06 0.000697379 9.5105e-08)
(-2.17897e-06 0.000697024 7.75809e-08)
(-2.42863e-06 0.000696759 8.33547e-08)
(-2.65673e-06 0.000696569 6.15652e-08)
(-2.86121e-06 0.000696441 6.57398e-08)
(-3.05552e-06 0.000696361 4.22537e-08)
(-3.2374e-06 0.000696327 4.82685e-08)
(-3.41933e-06 0.000696334 2.4362e-08)
(-3.59337e-06 0.000696386 3.16616e-08)
(-3.7689e-06 0.000696478 5.02076e-09)
(-3.93678e-06 0.000696614 1.27557e-08)
(-4.10354e-06 0.000696791 -1.68746e-08)
(-4.25761e-06 0.000697019 -8.2516e-09)
(-4.40377e-06 0.000697295 -4.06745e-08)
(-4.52404e-06 0.000697632 -3.26665e-08)
(-4.61783e-06 0.000698034 -7.24656e-08)
(-4.66594e-06 0.000698519 -6.99203e-08)
(-4.6632e-06 0.000699091 -1.19542e-07)
(-4.58736e-06 0.000699773 -1.22831e-07)
(-4.42871e-06 0.000700569 -1.81549e-07)
(-4.16056e-06 0.0007015 -1.91065e-07)
(-3.76702e-06 0.000702582 -2.60845e-07)
(-3.22807e-06 0.000703819 -2.83378e-07)
(-2.52344e-06 0.000705161 -3.6789e-07)
(-1.63626e-06 0.000707108 -4.06215e-07)
(-5.44013e-07 0.00071107 -4.85959e-07)
(8.58066e-07 0.000719799 -4.95562e-07)
(2.39469e-06 0.000733487 -5.44422e-07)
(6.75555e-06 0.000764041 -3.69416e-07)
(6.33563e-06 0.00113085 5.79373e-06)
(-2.77833e-05 0.00235126 3.04428e-05)
(-3.44479e-06 0.00374724 1.20062e-05)
(5.65958e-05 0.00427201 5.47348e-06)
(5.7836e-05 0.00421234 -2.86786e-05)
(5.65493e-05 0.00412326 -3.5658e-05)
(9.56407e-05 0.00407341 -5.27781e-05)
(0.000159053 0.00407957 -5.7405e-05)
(0.000169183 0.00408086 -0.000116269)
(0.0001879 0.00351352 -2.99141e-05)
(-0.000627074 0.00556204 0.000701442)
(0.000617335 0.0084999 0.000929019)
(-0.000601556 0.0165633 -0.000223375)
(0.0317943 0.161094 0.0332801)
(-0.0348098 0.632044 -0.0180252)
(-0.0547067 0.547246 -0.0537272)
(-0.0247018 0.548864 -0.0442663)
(0.00217506 0.587712 -0.0335144)
(0.00991701 0.585616 0.0103192)
(0.000760943 0.549676 0.00742492)
(-0.00533981 0.550769 0.000226938)
(-0.00245874 0.546001 0.000646479)
(-0.00427272 0.538146 -0.000681647)
(-0.0018064 0.540397 0.00155383)
(0.00195301 0.540117 0.00705095)
(0.00206875 0.541004 0.00883901)
(0.000446822 0.540322 0.00985629)
(9.55152e-05 0.541327 0.0105527)
(-0.00251085 0.541839 0.00886157)
(-0.00597179 0.541226 0.00685235)
(-0.00769928 0.541383 0.00330054)
(-0.0104992 0.538014 0.0013702)
(-0.00732129 0.528165 0.000138234)
(-0.00582336 0.519598 -0.00317216)
(-0.00842944 0.515916 -0.0113194)
(-0.0125044 0.510206 -0.0177378)
(-0.0139056 0.509211 -0.0155833)
(-0.00928791 0.509719 -0.012986)
(-0.00395327 0.513849 -0.0165322)
(-0.000937022 0.519596 -0.01969)
(0.00366332 0.522236 -0.00638643)
(0.0150861 0.525426 0.0138266)
(0.0227102 0.539496 0.0287777)
(0.00627175 0.531169 0.00854912)
(0.0043317 0.524408 0.00237612)
(-0.00393955 0.51904 0.000520596)
(-0.0107191 0.48163 0.00279831)
(-0.0131965 0.33201 -0.000302784)
(-0.000447976 0.0269465 -0.000239987)
(-7.77849e-05 0.00413698 -8.67164e-07)
(1.23566e-06 0.000344589 4.55022e-07)
(4.34603e-06 0.000380192 8.35714e-07)
(4.9766e-06 0.000420919 2.69332e-07)
(5.68189e-06 0.000465585 1.31585e-07)
(5.64517e-06 0.000523317 2.8031e-07)
(5.6944e-06 0.000576925 3.29675e-07)
(5.06022e-06 0.000616149 2.00241e-07)
(4.38171e-06 0.000644994 1.49329e-07)
(3.47073e-06 0.000664675 1.20681e-07)
(2.62815e-06 0.000678299 1.14246e-07)
(1.78317e-06 0.000688425 1.0274e-07)
(1.08743e-06 0.000695356 7.1073e-08)
(3.70061e-07 0.000698489 6.62998e-08)
(-3.07018e-07 0.000699022 6.8427e-08)
(-8.95427e-07 0.000698694 9.79212e-08)
(-1.38554e-06 0.000698192 1.06804e-07)
(-1.77636e-06 0.000697711 1.18548e-07)
(-2.10399e-06 0.000697302 9.88581e-08)
(-2.38874e-06 0.000696972 9.34938e-08)
(-2.64146e-06 0.000696704 6.6826e-08)
(-2.86773e-06 0.000696502 6.22494e-08)
(-3.0728e-06 0.000696362 3.58437e-08)
(-3.26646e-06 0.000696279 3.35598e-08)
(-3.44744e-06 0.000696241 8.44174e-09)
(-3.62336e-06 0.000696248 8.41277e-09)
(-3.7929e-06 0.000696294 -1.74736e-08)
(-3.96343e-06 0.000696385 -1.76779e-08)
(-4.12482e-06 0.000696521 -4.48377e-08)
(-4.28758e-06 0.00069671 -4.47789e-08)
(-4.43298e-06 0.000696953 -7.50815e-08)
(-4.56976e-06 0.000697259 -7.70109e-08)
(-4.66697e-06 0.00069763 -1.13207e-07)
(-4.73379e-06 0.00069808 -1.22252e-07)
(-4.73555e-06 0.000698619 -1.69728e-07)
(-4.68354e-06 0.000699268 -1.89278e-07)
(-4.53474e-06 0.000700042 -2.47921e-07)
(-4.30519e-06 0.000700963 -2.78362e-07)
(-3.92954e-06 0.000702039 -3.48741e-07)
(-3.42564e-06 0.000703289 -3.87456e-07)
(-2.73081e-06 0.000704705 -4.65977e-07)
(-1.89737e-06 0.000706284 -5.22118e-07)
(-8.47843e-07 0.000708598 -6.13007e-07)
(3.66548e-07 0.000713068 -6.60619e-07)
(1.94222e-06 0.00072175 -6.73265e-07)
(3.55308e-06 0.000732895 -8.18516e-07)
(8.46658e-06 0.000780585 -1.09954e-06)
(1.33839e-05 0.00121591 1.14423e-05)
(1.20787e-06 0.0024666 3.14976e-05)
(-9.29186e-06 0.00384442 1.73387e-05)
(3.159e-05 0.00428892 5.00272e-06)
(3.18065e-05 0.00419585 1.17758e-05)
(6.31096e-05 0.00416413 3.56792e-05)
(0.000141204 0.00413153 -7.83181e-06)
(0.000197519 0.00407306 -8.04554e-05)
(0.000218919 0.0040049 -2.42867e-05)
(0.000325029 0.00343302 3.95768e-05)
(-9.80971e-05 0.00625706 0.000874447)
(0.000540999 0.0105401 0.000783522)
(-0.000201551 0.0194387 -0.000317813)
(0.0342316 0.198306 0.0407655)
(-0.0156645 0.630162 -0.00560372)
(-0.047187 0.548135 -0.0542015)
(-0.0431768 0.577927 -0.058069)
(-0.0146238 0.578207 -0.0197632)
(0.0220389 0.575053 0.0165017)
(0.00587847 0.547909 0.0115663)
(-0.00245959 0.546029 0.00879627)
(-0.00125188 0.54487 0.00395563)
(-0.00123066 0.539052 0.00340432)
(-8.458e-05 0.539418 0.00433008)
(-0.00119704 0.542122 0.00506686)
(-0.00032541 0.541596 0.00687063)
(0.000622346 0.540166 0.00883839)
(-0.00140811 0.537731 0.00679882)
(-0.00276878 0.537173 0.00404067)
(-0.00490344 0.536256 0.000807971)
(-0.00551239 0.536916 -0.00265117)
(-0.00436943 0.534615 -0.00630906)
(-0.00368297 0.531255 -0.0140757)
(-0.00363436 0.526804 -0.025493)
(-0.00378962 0.527822 -0.0336913)
(-0.0104458 0.535096 -0.015959)
(-0.0143343 0.539049 -0.000507985)
(-0.0114496 0.541793 0.00591328)
(-0.00120443 0.549297 0.00439751)
(0.00308158 0.554116 0.00292804)
(0.00471411 0.556188 0.0065477)
(0.00825061 0.553115 0.00716707)
(0.0101652 0.547492 0.00473876)
(0.00451286 0.542037 0.00261526)
(-0.00331008 0.536385 0.00546667)
(-0.0119462 0.531212 0.00407238)
(-0.0187877 0.518282 -0.000407637)
(-0.0251346 0.477636 -1.16866e-06)
(-0.0320232 0.306754 0.00109789)
(-3.17794e-06 0.0264608 -4.73723e-05)
(2.35166e-06 0.000330409 7.91402e-07)
(5.80788e-06 0.000365691 1.55357e-06)
(6.23876e-06 0.000402245 7.42405e-07)
(6.63154e-06 0.000443841 5.69527e-07)
(6.31781e-06 0.000502741 4.11504e-07)
(6.18195e-06 0.000559974 4.58604e-07)
(5.46744e-06 0.000602413 2.63216e-07)
(4.71593e-06 0.000636014 1.40845e-07)
(3.60391e-06 0.000659991 9.61858e-08)
(2.70744e-06 0.000675334 1.0401e-07)
(1.80469e-06 0.000685947 1.04151e-07)
(1.06831e-06 0.000693625 1.0798e-07)
(2.86079e-07 0.000697433 1.1023e-07)
(-4.37951e-07 0.000698259 1.3115e-07)
(-1.04661e-06 0.000698083 1.38316e-07)
(-1.55703e-06 0.0006977 1.63047e-07)
(-1.96227e-06 0.000697301 1.704e-07)
(-2.30193e-06 0.000696947 1.87266e-07)
(-2.58361e-06 0.000696668 1.84011e-07)
(-2.83461e-06 0.000696463 1.87123e-07)
(-3.05016e-06 0.000696323 1.67108e-07)
(-3.25439e-06 0.00069623 1.58094e-07)
(-3.43555e-06 0.00069618 1.3346e-07)
(-3.61563e-06 0.000696175 1.22807e-07)
(-3.77781e-06 0.000696212 9.70216e-08)
(-3.94408e-06 0.00069629 8.67133e-08)
(-4.09315e-06 0.000696408 6.07865e-08)
(-4.24516e-06 0.000696571 4.93171e-08)
(-4.37432e-06 0.000696788 2.00015e-08)
(-4.49825e-06 0.000697067 4.85428e-09)
(-4.58226e-06 0.000697413 -2.95088e-08)
(-4.63766e-06 0.000697839 -5.21585e-08)
(-4.62509e-06 0.000698358 -9.82852e-08)
(-4.56136e-06 0.000698987 -1.35783e-07)
(-4.40093e-06 0.000699749 -1.97663e-07)
(-4.16022e-06 0.000700665 -2.51654e-07)
(-3.77855e-06 0.000701753 -3.28266e-07)
(-3.26487e-06 0.000703016 -3.95359e-07)
(-2.55578e-06 0.000704466 -4.76958e-07)
(-1.68011e-06 0.000706097 -5.55271e-07)
(-5.81241e-07 0.000708005 -6.46401e-07)
(6.86618e-07 0.000710626 -7.36968e-07)
(2.22634e-06 0.000714898 -8.08992e-07)
(4.05285e-06 0.00072301 -7.73224e-07)
(6.31994e-06 0.000737128 -8.61159e-07)
(8.93871e-06 0.000772144 -1.49777e-06)
(2.77883e-05 0.0011202 6.69779e-06)
(3.60993e-05 0.00226574 3.12987e-05)
(-4.38708e-06 0.00368425 2.20947e-05)
(-1.26393e-05 0.00425116 8.62066e-07)
(2.75553e-06 0.00416657 1.26593e-05)
(1.65129e-05 0.0041547 3.42778e-05)
(2.42262e-05 0.00413335 1.02388e-05)
(5.37023e-05 0.00404786 -6.13817e-05)
(0.000121164 0.0039917 -4.78139e-05)
(0.000246936 0.00332487 -5.52451e-05)
(0.00114219 0.00589437 0.000445112)
(0.000710115 0.0105563 0.000655088)
(-0.000322574 0.0181272 0.000886661)
(0.0289537 0.254527 0.0240249)
(-0.0230722 0.669572 -0.0225074)
(-0.0191674 0.55811 -0.0244667)
(0.00568522 0.577646 0.00141784)
(0.0112595 0.555886 0.0071944)
(0.00392498 0.540159 0.0013377)
(-0.000727554 0.542943 -0.00192913)
(-0.00225023 0.546028 -0.0010555)
(-0.00270534 0.543267 -0.00173047)
(-0.00423167 0.540691 -0.000845188)
(-0.00215554 0.541346 0.000692819)
(-0.00338669 0.53929 0.00287176)
(-0.00300289 0.541156 0.00422581)
(-0.00285481 0.540193 0.00592359)
(-0.00335348 0.540184 0.00692765)
(-0.00166284 0.540145 0.00278925)
(-0.000640081 0.539935 -0.00317015)
(0.000858004 0.539325 -0.0059508)
(0.00441264 0.539611 -0.00852033)
(0.0103429 0.540771 -0.00713838)
(0.00952817 0.538481 -0.00157579)
(0.000447134 0.53507 0.00214151)
(-0.0107957 0.527931 0.00351337)
(-0.0212251 0.523668 0.00182632)
(-0.0210539 0.537524 0.00058639)
(-0.0195374 0.553805 -0.00440395)
(-0.0135435 0.56198 -0.0110952)
(-0.00106539 0.567902 -0.00983142)
(0.0136288 0.566073 0.00237119)
(0.0117977 0.549799 0.0156204)
(-0.00143911 0.538042 0.0103513)
(-0.00560017 0.536618 0.0040236)
(-0.0121053 0.531787 0.00348578)
(-0.0221238 0.524619 0.0015851)
(-0.0269215 0.519351 -0.00190316)
(-0.0247833 0.499044 -0.00494689)
(-0.00913569 0.453844 -0.00888809)
(3.62287e-06 0.000191489 1.7595e-06)
(7.49972e-06 0.000357708 2.51036e-06)
(7.49779e-06 0.000382985 1.09635e-06)
(7.43482e-06 0.000423336 8.20194e-07)
(6.91441e-06 0.00047823 4.04586e-07)
(6.18956e-06 0.000537112 2.37084e-07)
(5.72647e-06 0.000585788 2.93034e-07)
(4.80867e-06 0.000624116 1.25717e-07)
(3.86082e-06 0.000654475 -1.06781e-08)
(2.97031e-06 0.000673881 -7.35584e-08)
(2.09549e-06 0.000684527 -1.21595e-07)