/*--------------------------------*- C++ -*----------------------------------*\
| =========                 |                                                 |
| \\      /  F ield         | OpenFOAM: The Open Source CFD Toolbox           |
|  \\    /   O peration     | Version:  2.3.0                                 |
|   \\  /    A nd           | Web:      www.OpenFOAM.org                      |
|    \\/     M anipulation  |                                                 |
\*---------------------------------------------------------------------------*/
FoamFile
{
    version     2.0;
    format      ascii;
    class       volVectorField;
    location    "33";
    object      Ur;
}
// * * * * * * * * * * * * * * * * * * * * * * * * * * * * * * * * * * * * * //

dimensions      [0 1 -1 0 0 0 0];

internalField   nonuniform List<vector> 
6144
(
(-3.5797e-07 0.000350349 -2.7271e-08)
(-3.86632e-07 0.000374185 -1.04561e-07)
(-3.77709e-07 0.000398524 -1.48383e-07)
(-2.86079e-07 0.000418814 -1.36835e-07)
(-2.44997e-07 0.00044177 -8.41853e-08)
(-1.60756e-07 0.000468816 -6.14531e-08)
(-1.17529e-07 0.000502304 -4.26079e-08)
(-9.48444e-08 0.000536693 -2.34795e-08)
(-8.15936e-08 0.000557248 -9.75439e-09)
(-7.65929e-08 0.000562871 -1.35415e-08)
(-7.92774e-08 0.000563564 -9.7391e-09)
(-8.68248e-08 0.000563851 1.07794e-08)
(-9.06683e-08 0.000564086 1.92227e-08)
(-9.00001e-08 0.000564243 2.57869e-08)
(-8.52884e-08 0.000564336 2.48206e-08)
(-8.06043e-08 0.000564391 2.25226e-08)
(-7.97421e-08 0.00056441 1.50662e-08)
(-7.62974e-08 0.000564414 9.16382e-09)
(-7.80176e-08 0.000564401 2.48627e-09)
(-7.47587e-08 0.000564379 -2.85648e-09)
(-7.67344e-08 0.000564345 -7.46606e-09)
(-7.39048e-08 0.000564299 -7.28034e-09)
(-7.63046e-08 0.000564244 -7.60831e-09)
(-7.38712e-08 0.000564177 -4.13834e-09)
(-7.68167e-08 0.000564096 -2.05469e-09)
(-7.49448e-08 0.000563996 3.27701e-09)
(-7.83745e-08 0.000563887 5.62048e-09)
(-7.69735e-08 0.000563779 1.07568e-08)
(-8.08298e-08 0.00056367 1.38645e-08)
(-7.99573e-08 0.000563552 1.89775e-08)
(-8.46759e-08 0.000563428 2.17906e-08)
(-8.46037e-08 0.000563295 2.621e-08)
(-8.94207e-08 0.000563155 2.82558e-08)
(-8.96995e-08 0.000563008 3.2503e-08)
(-9.48973e-08 0.000562854 3.4588e-08)
(-9.61185e-08 0.000562695 3.91469e-08)
(-1.02301e-07 0.000562521 4.12806e-08)
(-1.04936e-07 0.000562335 4.7021e-08)
(-1.12347e-07 0.000562111 4.81393e-08)
(-1.14499e-07 0.00056189 5.43703e-08)
(-1.22733e-07 0.000561639 5.34227e-08)
(-1.2246e-07 0.000561403 6.03855e-08)
(-1.29794e-07 0.000561149 6.09554e-08)
(-1.26408e-07 0.000560917 6.6303e-08)
(-1.2659e-07 0.000560633 5.90705e-08)
(-1.0607e-07 0.000560442 3.42681e-08)
(-7.85729e-08 0.000560308 -7.83396e-09)
(4.56634e-08 0.000562238 -7.01277e-08)
(1.22312e-07 0.000598118 -1.81547e-07)
(2.37203e-07 0.000727075 -3.33325e-07)
(-7.9357e-08 0.000976479 -4.74451e-07)
(-2.61699e-07 0.00133297 -3.00019e-07)
(1.683e-06 0.00181121 -8.02316e-07)
(4.15622e-06 0.00235812 -3.6921e-06)
(2.32451e-06 0.00298709 -7.54371e-06)
(-2.45577e-05 0.00339001 -2.5382e-05)
(4.76051e-05 0.00403194 1.23538e-05)
(-1.86986e-05 0.00513732 9.75758e-05)
(0.000804668 0.0208198 0.00182383)
(0.00951408 0.154563 0.0149946)
(-0.0223619 0.573272 0.0115531)
(-0.0268762 0.405392 5.97928e-06)
(-0.000317564 0.0230107 1.61029e-05)
(5.44973e-05 0.00708948 8.72027e-06)
(-4.79826e-05 0.00730984 2.32304e-06)
(-1.18006e-05 0.00737615 -9.82173e-06)
(-2.45646e-05 0.00746343 -1.5671e-05)
(-2.16631e-05 0.00761192 -1.90418e-05)
(-2.64753e-05 0.00787446 -2.82044e-05)
(-3.41396e-05 0.00822707 -3.32537e-05)
(-3.56432e-05 0.00857485 -2.8736e-05)
(-4.14693e-05 0.00876575 -1.37615e-05)
(-5.29022e-05 0.00874386 8.34271e-06)
(-7.2702e-05 0.00861272 2.74374e-05)
(-8.81718e-05 0.00848552 3.10574e-05)
(-8.54896e-05 0.00841325 1.49515e-05)
(-8.13436e-05 0.00841135 -6.16833e-06)
(-6.82411e-05 0.00846229 -1.61998e-05)
(-5.29705e-05 0.00852213 -2.00693e-05)
(-5.6064e-05 0.00859323 -2.19415e-05)
(-5.76587e-05 0.0086556 -3.17277e-05)
(-5.34447e-05 0.00870119 -2.10079e-05)
(-6.14377e-05 0.00872618 -3.5465e-05)
(-4.38332e-05 0.00874086 -3.80027e-05)
(-6.07675e-05 0.00864745 -3.69954e-05)
(-6.60171e-05 0.0084069 -9.70883e-05)
(-2.80798e-05 0.00800329 -8.81003e-05)
(-1.14071e-05 0.00750222 -3.12397e-05)
(-1.19104e-05 0.007197 -8.60739e-06)
(-1.30748e-05 0.00696154 -2.84157e-05)
(-5.31754e-06 0.00662597 -1.34737e-05)
(-5.07281e-07 0.00636808 -6.69959e-06)
(1.63107e-06 0.00636644 -5.94619e-06)
(1.15788e-06 0.00648523 -3.26838e-06)
(1.24023e-06 0.00620204 -8.73084e-06)
(1.78404e-06 0.00553083 -4.03601e-06)
(-4.81047e-07 0.000331125 2.30532e-08)
(-5.1357e-07 0.000366047 -3.91686e-08)
(-6.26217e-07 0.000403132 -8.4215e-08)
(-5.24797e-07 0.000430869 -9.55333e-08)
(-4.80686e-07 0.00045717 -4.95914e-08)
(-3.61344e-07 0.000483921 6.95132e-09)
(-3.08436e-07 0.000513611 6.12146e-08)
(-2.92684e-07 0.000542344 8.13219e-08)
(-3.06397e-07 0.000558704 8.78256e-08)
(-3.34984e-07 0.000562989 9.60094e-08)
(-3.49131e-07 0.000563498 1.01823e-07)
(-3.62093e-07 0.000563877 1.30779e-07)
(-3.53847e-07 0.000564261 1.46374e-07)
(-3.41057e-07 0.000564504 1.53175e-07)
(-3.17313e-07 0.000564615 1.49338e-07)
(-3.00913e-07 0.000564657 1.40879e-07)
(-2.86671e-07 0.000564664 1.34442e-07)
(-2.74616e-07 0.000564653 1.25699e-07)
(-2.66474e-07 0.000564626 1.22832e-07)
(-2.60338e-07 0.00056459 1.16598e-07)
(-2.59576e-07 0.000564544 1.17045e-07)
(-2.59175e-07 0.000564494 1.14341e-07)
(-2.6419e-07 0.000564436 1.18141e-07)
(-2.68095e-07 0.000564369 1.18482e-07)
(-2.76706e-07 0.00056429 1.24677e-07)
(-2.83965e-07 0.000564203 1.2672e-07)
(-2.95545e-07 0.000564113 1.34321e-07)
(-3.05402e-07 0.000564021 1.37457e-07)
(-3.19424e-07 0.000563924 1.45086e-07)
(-3.3206e-07 0.000563815 1.47815e-07)
(-3.48539e-07 0.000563696 1.55077e-07)
(-3.62077e-07 0.00056357 1.5709e-07)
(-3.78275e-07 0.000563439 1.63097e-07)
(-3.92035e-07 0.000563302 1.64877e-07)
(-4.09984e-07 0.000563159 1.70353e-07)
(-4.26139e-07 0.000563006 1.72151e-07)
(-4.48276e-07 0.000562842 1.77617e-07)
(-4.67309e-07 0.000562666 1.80735e-07)
(-4.94432e-07 0.000562462 1.86394e-07)
(-5.09296e-07 0.000562257 1.90481e-07)
(-5.40026e-07 0.000562038 1.94185e-07)
(-5.45293e-07 0.000561817 2.0055e-07)
(-5.77685e-07 0.000561588 1.97442e-07)
(-5.78603e-07 0.000561359 2.07254e-07)
(-5.96603e-07 0.00056113 1.85817e-07)
(-5.58711e-07 0.000560934 1.58788e-07)
(-5.446e-07 0.000561211 9.0172e-08)
(-3.20236e-07 0.000562581 -4.87854e-09)
(-2.05478e-07 0.000574509 -1.3739e-07)
(2.06505e-07 0.000658446 -1.69249e-07)
(1.03588e-07 0.000902852 -2.98041e-07)
(1.34788e-06 0.00130381 -1.22194e-07)
(6.5524e-06 0.0018107 -8.52865e-07)
(8.9442e-06 0.00225271 -4.39285e-06)
(2.1421e-06 0.00265634 -5.90277e-06)
(-1.49249e-05 0.00314659 -9.73166e-06)
(1.62138e-05 0.00435971 1.82669e-05)
(-0.000130637 0.00547314 2.87829e-05)
(-0.00132099 0.0235436 0.00191179)
(0.00166861 0.177326 0.012023)
(-0.0486957 0.568534 0.00566278)
(-0.0147406 0.320605 -0.00727619)
(0.000665232 0.0245281 7.54692e-05)
(-0.000236977 0.0139197 0.00021703)
(6.88707e-05 0.00969257 2.61185e-05)
(-0.000198754 0.0103023 1.1004e-05)
(-0.000223811 0.0108038 -1.24405e-05)
(-0.00027706 0.00987428 -3.14605e-05)
(-6.2565e-05 0.00932799 -4.62971e-05)
(-7.58699e-05 0.00935588 -4.87586e-05)
(-9.55798e-05 0.00934095 -4.74748e-05)
(-0.000112243 0.0092437 -2.74541e-05)
(-0.000147522 0.00899019 -6.72194e-06)
(-0.000179687 0.0086466 4.39168e-06)
(-0.000201279 0.0083353 -1.24592e-05)
(-0.000192334 0.00815316 -3.72373e-05)
(-0.000165187 0.00811428 -4.55307e-05)
(-0.000138657 0.00817148 -5.14572e-05)
(-0.000117536 0.00827969 -4.76646e-05)
(-0.000124833 0.00839246 -3.94275e-05)
(-0.000135874 0.00850391 -4.3433e-05)
(-0.000137965 0.00862204 -2.4069e-05)
(-0.000152902 0.00870168 -4.1125e-05)
(-0.000143131 0.00875456 -4.3175e-05)
(-0.000132939 0.0087018 -3.42311e-05)
(-0.000135558 0.0084838 -8.60695e-05)
(-0.00010662 0.00806131 -9.08776e-05)
(-4.65898e-05 0.00755584 -4.0614e-05)
(-3.47913e-05 0.00722584 -1.52382e-05)
(-2.6175e-05 0.0070254 -2.219e-05)
(-1.12398e-05 0.00671645 -1.08267e-05)
(-3.3685e-06 0.00641466 -3.10054e-06)
(-1.91154e-06 0.00635288 -4.55471e-06)
(-1.89953e-06 0.00644913 -3.21374e-06)
(-1.94308e-06 0.00622059 -9.71042e-06)
(-3.84565e-07 0.00563342 -3.92968e-06)
(-4.38042e-07 0.000309884 -1.68989e-08)
(-4.39856e-07 0.000345089 7.17709e-08)
(-7.39917e-07 0.000386871 -5.03302e-09)
(-6.47035e-07 0.000421545 -1.33313e-08)
(-6.66484e-07 0.000454504 5.95142e-08)
(-6.02446e-07 0.000485034 9.71356e-08)
(-6.14694e-07 0.000513533 1.58232e-07)
(-6.39082e-07 0.000538803 1.58349e-07)
(-6.67054e-07 0.000554176 1.51371e-07)
(-7.03036e-07 0.000559685 1.49726e-07)
(-7.22734e-07 0.000561398 1.48997e-07)
(-7.44297e-07 0.000562819 1.67782e-07)
(-7.40508e-07 0.000563894 1.75793e-07)
(-7.24476e-07 0.000564435 1.76529e-07)
(-7.01743e-07 0.000564635 1.68388e-07)
(-6.83205e-07 0.000564688 1.61528e-07)
(-6.68638e-07 0.000564695 1.56578e-07)
(-6.54744e-07 0.000564684 1.55542e-07)
(-6.44863e-07 0.000564657 1.55317e-07)
(-6.36799e-07 0.000564619 1.58177e-07)
(-6.37754e-07 0.000564573 1.60521e-07)
(-6.39789e-07 0.00056452 1.64701e-07)
(-6.51409e-07 0.000564459 1.67841e-07)
(-6.62081e-07 0.000564388 1.72532e-07)
(-6.8113e-07 0.000564308 1.75898e-07)
(-6.9819e-07 0.000564219 1.80411e-07)
(-7.22594e-07 0.000564127 1.83633e-07)
(-7.44295e-07 0.000564031 1.88235e-07)
(-7.7288e-07 0.000563927 1.91388e-07)
(-7.98305e-07 0.000563815 1.96058e-07)
(-8.29456e-07 0.000563695 1.98599e-07)
(-8.55951e-07 0.000563568 2.02332e-07)
(-8.8755e-07 0.000563437 2.04897e-07)
(-9.15376e-07 0.0005633 2.08827e-07)
(-9.49919e-07 0.000563154 2.11231e-07)
(-9.81694e-07 0.000562995 2.14903e-07)
(-1.02118e-06 0.00056282 2.17483e-07)
(-1.05697e-06 0.000562628 2.20232e-07)
(-1.10072e-06 0.000562434 2.23806e-07)
(-1.13624e-06 0.000562224 2.25013e-07)
(-1.18159e-06 0.000562022 2.29974e-07)
(-1.21196e-06 0.000561811 2.30792e-07)
(-1.25996e-06 0.00056159 2.29769e-07)
(-1.27132e-06 0.000561374 2.36475e-07)
(-1.30799e-06 0.000561214 2.07902e-07)
(-1.26946e-06 0.000560992 1.86267e-07)
(-1.24982e-06 0.000561482 1.10936e-07)
(-1.10245e-06 0.000563866 -1.55506e-10)
(-9.16876e-07 0.000576594 -3.49007e-08)
(-8.25831e-07 0.000660122 -1.99647e-07)
(-1.35959e-07 0.000926261 2.38508e-08)
(1.62785e-06 0.00133937 -2.57713e-07)
(6.87013e-06 0.00177266 -2.50207e-06)
(6.60321e-06 0.00211253 -5.16182e-06)
(6.32028e-06 0.00248844 -3.03372e-06)
(5.67064e-06 0.00292331 -2.05372e-05)
(-9.6142e-07 0.00409452 7.32296e-05)
(-0.000228652 0.00396532 0.000213115)
(-0.00198774 0.023953 0.00221729)
(0.00961525 0.207131 0.017367)
(-0.0141127 0.58511 0.00985284)
(-0.00301017 0.479325 -0.000279148)
(-0.00839316 0.508028 0.00173941)
(0.00722615 0.496841 -0.000312431)
(0.0033851 0.498171 0.00101191)
(0.00517284 0.49328 0.000837752)
(0.00379287 0.471606 -4.47577e-05)
(0.000707063 0.376068 0.000122467)
(-0.000325281 0.0304085 -0.000367732)
(-0.00023164 0.0102306 -0.000369098)
(-0.000449213 0.0109306 -5.98116e-05)
(-0.000551981 0.0101601 -2.4944e-05)
(-0.000703569 0.00890034 -1.63682e-05)
(-0.000184939 0.00763935 -2.18813e-06)
(-0.000188012 0.00703146 -2.70294e-05)
(-0.000164103 0.00684823 -4.89543e-05)
(-0.000128762 0.00683396 -4.8167e-05)
(-9.70963e-05 0.00687884 -4.32235e-05)
(-7.92995e-05 0.0069689 -2.98053e-05)
(-9.68371e-05 0.00708816 -1.58539e-05)
(-0.00012348 0.00729096 -1.67512e-05)
(-0.000153048 0.00759511 4.31944e-06)
(-0.000177804 0.00797333 -1.61624e-05)
(-0.000173125 0.00834524 -2.87555e-05)
(-0.000179493 0.00849552 -2.93768e-05)
(-0.00016846 0.00838737 -8.1731e-05)
(-0.000120878 0.00803344 -0.000101276)
(-7.69392e-05 0.00751585 -5.13431e-05)
(-4.99602e-05 0.00717554 -1.64898e-05)
(-2.19821e-05 0.00700034 -1.80215e-05)
(-9.66306e-06 0.00670811 -5.86078e-06)
(-7.70711e-06 0.00640511 7.09589e-07)
(-1.09958e-05 0.0063387 -3.05178e-06)
(-1.02931e-05 0.00644624 -3.17232e-06)
(-1.0781e-05 0.00623975 -1.06021e-05)
(-9.33778e-06 0.00567479 -5.35077e-06)
(-5.294e-07 0.000291167 5.96592e-08)
(-5.56073e-07 0.000322917 1.70158e-07)
(-1.1073e-06 0.000365371 8.04241e-08)
(-9.63879e-07 0.000401911 1.40951e-07)
(-1.04061e-06 0.000435677 1.82791e-07)
(-9.71838e-07 0.000468296 1.85564e-07)
(-9.95252e-07 0.00050105 2.19546e-07)
(-1.00946e-06 0.00053171 2.02282e-07)
(-1.01521e-06 0.000550953 1.87746e-07)
(-1.02637e-06 0.000558092 1.72705e-07)
(-1.02779e-06 0.000560397 1.64628e-07)
(-1.04492e-06 0.000562278 1.81752e-07)
(-1.0423e-06 0.000563645 1.87228e-07)
(-1.03903e-06 0.000564293 1.81839e-07)
(-1.02407e-06 0.000564524 1.73658e-07)
(-1.02042e-06 0.000564582 1.59752e-07)
(-1.01738e-06 0.000564588 1.58827e-07)
(-1.0225e-06 0.000564576 1.53871e-07)
(-1.02388e-06 0.000564551 1.59141e-07)
(-1.03034e-06 0.000564512 1.56455e-07)
(-1.03538e-06 0.000564462 1.63575e-07)
(-1.04936e-06 0.000564402 1.62234e-07)
(-1.06308e-06 0.000564331 1.70306e-07)
(-1.08431e-06 0.000564249 1.68894e-07)
(-1.10497e-06 0.000564158 1.76811e-07)
(-1.13298e-06 0.000564061 1.74945e-07)
(-1.15927e-06 0.000563961 1.82395e-07)
(-1.19247e-06 0.000563856 1.80149e-07)
(-1.22325e-06 0.000563747 1.86917e-07)
(-1.26029e-06 0.00056363 1.83998e-07)
(-1.29431e-06 0.000563508 1.89886e-07)
(-1.33365e-06 0.00056338 1.86782e-07)
(-1.36994e-06 0.00056325 1.93105e-07)
(-1.41259e-06 0.000563114 1.90673e-07)
(-1.45347e-06 0.00056297 1.96849e-07)
(-1.50162e-06 0.000562815 1.94014e-07)
(-1.54827e-06 0.000562647 1.9853e-07)
(-1.60229e-06 0.000562462 1.93766e-07)
(-1.65372e-06 0.000562271 1.9789e-07)
(-1.71128e-06 0.000562073 1.94665e-07)
(-1.76699e-06 0.000561875 1.9842e-07)
(-1.82203e-06 0.000561668 1.97254e-07)
(-1.87798e-06 0.000561469 1.93858e-07)
(-1.90797e-06 0.00056126 1.8592e-07)
(-1.94252e-06 0.000561121 1.65006e-07)
(-1.93308e-06 0.000560939 1.30337e-07)
(-1.88818e-06 0.000561407 7.15922e-08)
(-1.88786e-06 0.000563982 -4.67566e-08)
(-1.67283e-06 0.000583929 -1.35113e-07)
(-2.12107e-06 0.000692739 -1.83355e-07)
(-9.56496e-07 0.00100117 1.55173e-07)
(-1.23312e-08 0.00141632 -7.43941e-07)
(3.59585e-06 0.00173695 -4.00111e-06)
(8.6721e-06 0.00198471 -8.79223e-06)
(1.68212e-05 0.0024549 2.39098e-06)
(4.76313e-05 0.00306782 -7.20427e-06)
(5.5319e-05 0.00410485 5.81493e-05)
(-0.000246234 0.00355187 0.000181878)
(-0.00103681 0.0255413 0.00271273)
(0.00533592 0.251381 0.0179173)
(-0.0123162 0.595214 0.00444247)
(0.00305772 0.471288 0.000763155)
(0.00306959 0.49595 0.00201696)
(0.00677514 0.497916 0.0026009)
(0.00185214 0.503644 0.000165874)
(0.00604087 0.466635 0.000166016)
(-0.000927764 0.453371 -0.000262099)
(0.00067939 0.497948 -0.000158101)
(-0.00193239 0.460778 0.000375458)
(-0.00331199 0.282495 2.02721e-07)
(-0.00897681 0.50293 -0.000540371)
(-0.0104976 0.431033 -0.00104253)
(-0.00801401 0.281236 -0.0012959)
(-0.000437586 0.0290689 -6.11574e-05)
(-0.000383547 0.00726708 -3.61964e-05)
(-0.000269865 0.00690994 -4.12278e-05)
(-4.7591e-05 0.00664329 -2.96925e-05)
(-2.80312e-05 0.00673209 -2.16938e-05)
(-2.05426e-05 0.0068122 -1.45485e-05)
(-2.88684e-05 0.00691011 -1.05757e-05)
(-5.40214e-05 0.00703763 8.68307e-06)
(-8.96003e-05 0.0072081 2.72415e-05)
(-0.000128367 0.00746659 -5.05289e-06)
(-0.000129192 0.0077935 -6.22769e-06)
(-0.000109466 0.00807177 -6.29931e-06)
(-0.000131254 0.00815882 -8.79962e-05)
(-0.000127222 0.00788433 -0.000103671)
(-8.92086e-05 0.00730465 -4.42886e-05)
(-3.54153e-05 0.00697896 -1.0826e-05)
(-8.82457e-06 0.00681319 -1.01925e-05)
(-5.49951e-06 0.00654798 1.74736e-06)
(-1.46814e-05 0.00628937 4.30573e-06)
(-2.03977e-05 0.00628607 -2.74952e-06)
(-1.93518e-05 0.00645758 -3.77589e-06)
(-1.9495e-05 0.00627385 -1.06456e-05)
(-1.65083e-05 0.00570135 -4.7769e-06)
(-7.53751e-07 0.000274198 -3.35897e-08)
(-9.12494e-07 0.000300761 1.64555e-07)
(-1.64433e-06 0.000342132 5.34411e-08)
(-1.42264e-06 0.00038082 1.07141e-07)
(-1.49277e-06 0.000417113 1.90308e-07)
(-1.35073e-06 0.000452777 1.93063e-07)
(-1.33419e-06 0.000487577 2.21047e-07)
(-1.33864e-06 0.00052092 1.95118e-07)
(-1.34145e-06 0.000545758 1.85485e-07)
(-1.29816e-06 0.000556925 1.74324e-07)
(-1.27997e-06 0.000560158 1.51385e-07)
(-1.27466e-06 0.000562339 1.66796e-07)
(-1.26585e-06 0.000563787 1.67213e-07)
(-1.26251e-06 0.000564406 1.71916e-07)
(-1.26901e-06 0.000564624 1.58057e-07)
(-1.28304e-06 0.000564684 1.52402e-07)
(-1.3054e-06 0.000564697 1.42644e-07)
(-1.33011e-06 0.000564695 1.46135e-07)
(-1.35849e-06 0.00056468 1.39518e-07)
(-1.38032e-06 0.000564649 1.42741e-07)
(-1.4066e-06 0.000564604 1.36647e-07)
(-1.42749e-06 0.000564548 1.42042e-07)
(-1.45247e-06 0.00056448 1.36929e-07)
(-1.47311e-06 0.0005644 1.42653e-07)
(-1.49995e-06 0.000564309 1.37759e-07)
(-1.52348e-06 0.000564208 1.43945e-07)
(-1.55364e-06 0.000564101 1.39019e-07)
(-1.58067e-06 0.000563989 1.45003e-07)
(-1.61497e-06 0.00056387 1.394e-07)
(-1.64668e-06 0.000563742 1.43315e-07)
(-1.68585e-06 0.000563607 1.35958e-07)
(-1.72186e-06 0.000563463 1.39836e-07)
(-1.76527e-06 0.000563315 1.33388e-07)
(-1.80629e-06 0.000563161 1.37364e-07)
(-1.85606e-06 0.000563001 1.30916e-07)
(-1.90474e-06 0.000562831 1.34002e-07)
(-1.96311e-06 0.000562649 1.27036e-07)
(-2.0218e-06 0.000562451 1.28249e-07)
(-2.08932e-06 0.000562249 1.21401e-07)
(-2.15455e-06 0.00056204 1.22095e-07)
(-2.22904e-06 0.000561839 1.17442e-07)
(-2.29359e-06 0.000561627 1.15765e-07)
(-2.37144e-06 0.000561435 1.03697e-07)
(-2.43165e-06 0.000561258 9.40382e-08)
(-2.5022e-06 0.000561116 7.03014e-08)
(-2.55855e-06 0.00056097 5.50258e-08)
(-2.61801e-06 0.000561233 4.19766e-08)
(-2.71642e-06 0.000565924 -1.27021e-08)
(-2.69548e-06 0.000599181 1.93685e-08)
(-3.15173e-06 0.000742454 3.97775e-08)
(-2.42548e-06 0.00108044 -2.3368e-07)
(-2.34378e-06 0.00147631 -1.78715e-06)
(-1.53161e-06 0.00174536 -4.24821e-06)
(8.09854e-06 0.00199816 -5.86979e-06)
(2.18067e-05 0.00261367 2.18819e-05)
(7.44554e-05 0.00321762 2.11364e-05)
(9.32856e-06 0.00372947 2.93438e-05)
(-0.000121299 0.00286029 0.000169687)
(-0.00140128 0.024728 0.00314925)
(0.00375655 0.285488 0.0209805)
(-0.00394088 0.577676 0.000984497)
(0.00503583 0.498989 0.00212926)
(0.00394324 0.502894 0.00261701)
(0.00515272 0.482259 0.00098308)
(0.00274718 0.45132 -0.000926738)
(0.00338969 0.438337 -0.000733193)
(0.00127137 0.496098 -0.0011811)
(0.00116023 0.496584 -0.00102852)
(-0.00319233 0.435854 -0.00118711)
(-0.00122306 0.0929061 -0.00032066)
(-0.00209259 0.10834 -0.000471576)
(-0.0146809 0.495595 -0.00434924)
(-0.0162857 0.455329 -0.00519943)
(-0.0162227 0.463086 -0.00632409)
(-0.0136788 0.453829 -0.00476041)
(-0.00823571 0.334148 -0.0026867)
(0.00011299 0.0280155 -0.000233532)
(0.000206775 0.00695873 -6.2155e-06)
(0.000254389 0.0069004 -7.30103e-06)
(7.41238e-05 0.00687523 -5.73017e-06)
(5.14113e-05 0.00701395 9.2057e-06)
(6.26818e-06 0.00717583 1.86716e-05)
(-3.64769e-05 0.00740214 1.373e-05)
(-5.52161e-05 0.00767294 3.0086e-06)
(-5.64208e-05 0.00787529 -3.11262e-05)
(-9.0404e-05 0.00783612 -7.5649e-05)
(-8.49076e-05 0.00735206 -5.76306e-05)
(-6.59345e-05 0.00685246 -2.79424e-05)
(-9.52041e-06 0.00664364 -1.46543e-05)
(1.13272e-05 0.00649242 1.94072e-06)
(-5.31462e-06 0.00629458 7.34263e-06)
(-2.15943e-05 0.00618652 3.96079e-06)
(-2.65085e-05 0.00633745 -2.94884e-06)
(-2.68385e-05 0.00660019 -4.39679e-06)
(-2.92427e-05 0.0063936 -1.01908e-05)
(-2.4376e-05 0.00573486 -5.3487e-06)
(-1.15144e-06 0.000261156 1.48353e-07)
(-1.45213e-06 0.000282393 8.06934e-08)
(-2.2716e-06 0.000320066 -8.64285e-09)
(-1.8707e-06 0.000358509 -1.52713e-08)
(-1.93154e-06 0.000396163 9.04559e-08)
(-1.67551e-06 0.00043401 8.16135e-08)
(-1.62814e-06 0.000470448 1.23398e-07)
(-1.60629e-06 0.000506693 1.14659e-07)
(-1.58163e-06 0.000537963 1.1553e-07)
(-1.48888e-06 0.00055477 1.2105e-07)
(-1.45392e-06 0.000559585 1.01775e-07)
(-1.43117e-06 0.000561974 1.07713e-07)
(-1.40913e-06 0.000563551 1.22109e-07)
(-1.4109e-06 0.000564154 1.34309e-07)
(-1.41341e-06 0.000564357 1.36722e-07)
(-1.43957e-06 0.000564408 1.28655e-07)
(-1.4768e-06 0.000564413 1.31781e-07)
(-1.52651e-06 0.000564407 1.27856e-07)
(-1.57619e-06 0.000564401 1.34409e-07)
(-1.62439e-06 0.000564384 1.25657e-07)
(-1.66266e-06 0.000564355 1.28017e-07)
(-1.69512e-06 0.000564312 1.16571e-07)
(-1.7193e-06 0.000564256 1.17965e-07)
(-1.74341e-06 0.000564186 1.06644e-07)
(-1.76312e-06 0.000564102 1.0918e-07)
(-1.78525e-06 0.000564008 9.86266e-08)
(-1.80561e-06 0.000563906 1.0164e-07)
(-1.83038e-06 0.000563799 9.11321e-08)
(-1.8552e-06 0.000563684 9.35772e-08)
(-1.88548e-06 0.00056356 8.2176e-08)
(-1.91598e-06 0.000563427 8.49264e-08)
(-1.95219e-06 0.000563285 7.55906e-08)
(-1.98869e-06 0.000563137 7.99217e-08)
(-2.03141e-06 0.000562983 7.15056e-08)
(-2.07583e-06 0.000562821 7.57018e-08)
(-2.12841e-06 0.00056265 6.66689e-08)
(-2.18553e-06 0.000562464 6.90789e-08)
(-2.25261e-06 0.000562263 5.84538e-08)
(-2.32264e-06 0.00056206 5.96388e-08)
(-2.40094e-06 0.00056185 5.00167e-08)
(-2.4767e-06 0.00056165 5.19602e-08)
(-2.56166e-06 0.000561444 4.12686e-08)
(-2.65049e-06 0.000561253 3.53867e-08)
(-2.75132e-06 0.000561088 1.82375e-08)
(-2.87217e-06 0.000560972 3.98648e-09)
(-3.00173e-06 0.000560772 1.1384e-09)
(-3.22141e-06 0.00056178 4.88416e-08)
(-3.33097e-06 0.000571782 1.13794e-07)
(-3.54551e-06 0.000620286 3.78027e-07)
(-3.43712e-06 0.000788303 6.16305e-07)
(-4.28111e-06 0.00111392 2.01874e-07)
(-4.7076e-06 0.00145831 -2.44387e-06)
(-1.38737e-05 0.00177546 -2.62177e-06)
(-7.73411e-06 0.00209702 -1.13411e-06)
(-1.14008e-05 0.00261118 3.68992e-05)
(-8.97809e-06 0.0030651 1.17043e-05)
(1.28078e-05 0.00343941 3.59485e-05)
(5.91425e-05 0.00239988 0.000150409)
(-0.000200682 0.0228585 0.00298964)
(0.00152341 0.297231 0.0202206)
(0.00206393 0.568085 0.00042231)
(0.00655728 0.495225 0.00258994)
(0.00663743 0.484215 0.00236337)
(0.00647076 0.469713 0.00138544)
(0.000662668 0.465805 -0.00129893)
(0.00477015 0.470852 -0.000727403)
(0.00134473 0.467651 -0.00191609)
(0.00128205 0.412527 -0.00232202)
(-0.00026991 0.433982 -0.000537184)
(-0.00218723 0.495111 -0.000735596)
(-0.00210507 0.379163 -0.00107863)
(-0.00503488 0.492964 -0.00243872)
(-0.00955874 0.446233 -0.00516022)
(-0.0100514 0.403342 -0.00429097)
(-0.0102469 0.454968 -0.00357261)
(-0.0130051 0.485756 -0.00254458)
(-0.00857571 0.473568 -0.000163464)
(-0.00673807 0.450216 0.000390854)
(-0.0029403 0.253179 8.67579e-05)
(0.000559136 0.0241114 -0.000178065)
(0.000506869 0.0055535 -0.00015543)
(0.000510963 0.00520964 -5.26804e-05)
(0.000559854 0.00524225 -5.92092e-06)
(0.000489228 0.00528372 -8.71327e-05)
(0.000241538 0.00528841 -0.000289179)
(-2.47659e-05 0.00531226 -0.00049876)
(-0.000140818 0.00534606 -0.000590783)
(-2.07701e-05 0.00545588 -0.000435619)
(0.000132271 0.0053621 -2.23275e-07)
(4.08548e-05 0.00533224 4.43551e-06)
(-9.40849e-05 0.00531765 -6.02868e-06)
(-0.000162371 0.00529381 -9.02571e-06)
(-0.000178153 0.00529989 -9.05011e-06)
(-0.000191403 0.00542475 -7.78666e-06)
(-0.0001994 0.00550513 -9.98109e-06)
(-4.26685e-05 0.00532886 -4.62887e-06)
(-1.93624e-06 0.000251396 -8.21335e-08)
(-2.20645e-06 0.000269062 -4.67974e-08)
(-3.01896e-06 0.000300386 -6.31117e-08)
(-2.36031e-06 0.000335822 -7.70431e-08)
(-2.31082e-06 0.000374235 -5.53751e-08)
(-1.97608e-06 0.000414382 -1.02773e-07)
(-1.91494e-06 0.000453855 -7.22499e-08)
(-1.79949e-06 0.000492167 -2.85819e-08)
(-1.74691e-06 0.000526286 -7.70036e-09)
(-1.62979e-06 0.000549241 1.49574e-08)
(-1.59166e-06 0.000557989 1.62353e-08)
(-1.51321e-06 0.000561504 4.91613e-08)
(-1.49771e-06 0.000563633 5.76421e-08)
(-1.49517e-06 0.000564352 8.8644e-08)
(-1.53353e-06 0.000564573 1.0673e-07)
(-1.5854e-06 0.000564623 1.33133e-07)
(-1.63438e-06 0.000564611 1.27707e-07)
(-1.68435e-06 0.000564585 1.30029e-07)
(-1.73104e-06 0.000564552 1.18297e-07)
(-1.7697e-06 0.000564505 1.14865e-07)
(-1.80343e-06 0.000564448 9.98845e-08)
(-1.83063e-06 0.000564389 9.67429e-08)
(-1.85341e-06 0.000564324 8.21259e-08)
(-1.87067e-06 0.000564247 8.03003e-08)
(-1.88545e-06 0.000564158 6.77944e-08)
(-1.89791e-06 0.000564058 6.77604e-08)
(-1.91198e-06 0.000563951 5.61857e-08)
(-1.92734e-06 0.000563839 5.71518e-08)
(-1.9476e-06 0.000563719 4.73597e-08)
(-1.97179e-06 0.00056359 5.039e-08)
(-2.00122e-06 0.000563454 4.21543e-08)
(-2.03223e-06 0.000563309 4.65734e-08)
(-2.06677e-06 0.000563157 3.94072e-08)
(-2.10245e-06 0.000563 4.42185e-08)
(-2.14394e-06 0.000562831 3.85451e-08)
(-2.19008e-06 0.000562652 4.27545e-08)
(-2.24609e-06 0.000562454 3.35615e-08)
(-2.30857e-06 0.000562242 3.39642e-08)
(-2.37842e-06 0.000562033 2.30798e-08)
(-2.45325e-06 0.000561816 2.39658e-08)
(-2.53155e-06 0.000561615 1.54767e-08)
(-2.6184e-06 0.000561401 1.43694e-08)
(-2.71936e-06 0.000561203 4.29931e-09)
(-2.84042e-06 0.000561013 4.15209e-10)
(-3.00463e-06 0.000560901 -3.85196e-09)
(-3.17817e-06 0.000560651 5.59118e-09)
(-3.52184e-06 0.000562442 9.76583e-08)
(-3.64408e-06 0.000576293 1.69707e-07)
(-4.18271e-06 0.000632256 6.80076e-07)
(-3.55373e-06 0.000804292 9.5702e-07)
(-5.2548e-06 0.00109722 3.82196e-07)
(-6.88343e-06 0.00137081 -2.76048e-06)
(-1.80023e-05 0.00171174 -2.73506e-06)
(-2.72428e-05 0.00216351 -8.76609e-06)
(-3.80688e-05 0.00272804 -4.00998e-06)
(1.45708e-05 0.00319789 5.43995e-06)
(-3.08393e-06 0.00382729 0.000109171)
(0.000170532 0.00274846 0.000213874)
(0.00079831 0.0240215 0.0029301)
(-0.00373253 0.306091 0.01966)
(0.00289726 0.568501 1.20302e-05)
(0.00511424 0.471563 0.00231463)
(0.00370081 0.395569 0.00125091)
(0.00160265 0.4765 -9.5141e-05)
(0.00354461 0.495933 -7.11123e-05)
(0.00308814 0.507533 -0.000582482)
(0.00755301 0.445208 -0.000142838)
(0.00167172 0.41829 -0.00178721)
(0.00187088 0.517041 -4.4163e-05)
(0.00217407 0.475105 0.00104237)
(0.000631344 0.391622 -0.000547637)
(-1.04402e-05 0.498099 -0.00110836)
(0.00219495 0.487064 -0.00182139)
(-0.000865662 0.483929 -0.00467104)
(-0.00419091 0.473255 -0.00602281)
(-0.00487775 0.415341 -0.00430507)
(-0.00154668 0.400485 -0.00251821)
(-0.00165219 0.494574 -0.0018621)
(-0.00346854 0.486024 -0.00104648)
(-0.00485139 0.501691 -0.00064576)
(-0.00112136 0.485722 0.000860805)
(0.0016094 0.504994 0.00289036)
(0.00185896 0.479968 0.00544244)
(0.00523687 0.470261 0.00886)
(0.00667638 0.456332 0.00932424)
(0.00341096 0.465104 0.0037771)
(0.000623839 0.454593 0.000681723)
(-0.000469487 0.250902 -9.89786e-05)
(-0.00379014 0.466365 -0.00413199)
(-0.00301002 0.44076 -0.00381115)
(-0.00348321 0.474927 -0.0030474)
(-0.00574995 0.467942 -0.00464605)
(-0.0074406 0.466848 -0.00589507)
(-0.00662429 0.453521 -0.0067404)
(-0.0062461 0.324774 -0.00784023)
(-0.000241305 0.0262106 -0.000428923)
(-2.83171e-06 0.000243098 -6.9975e-07)
(-3.31296e-06 0.000260332 -2.91447e-07)
(-3.80389e-06 0.000283513 -1.60943e-07)
(-2.81735e-06 0.000312905 -3.72925e-08)
(-2.54721e-06 0.000350492 -1.67334e-07)
(-2.12448e-06 0.000393437 -1.71862e-07)
(-2.04651e-06 0.000439982 -1.81877e-07)
(-1.8413e-06 0.000483307 -1.21979e-07)
(-1.79476e-06 0.00051697 -1.13375e-07)
(-1.69288e-06 0.000542192 -6.12667e-08)
(-1.68357e-06 0.000555015 -1.59539e-08)
(-1.59391e-06 0.000560409 3.79955e-08)
(-1.58982e-06 0.000563273 8.98514e-08)
(-1.59678e-06 0.000564239 1.30502e-07)
(-1.6394e-06 0.000564498 1.66389e-07)
(-1.70417e-06 0.000564562 2.02917e-07)
(-1.76938e-06 0.000564571 2.34244e-07)
(-1.82614e-06 0.000564554 2.50336e-07)
(-1.87401e-06 0.000564543 2.63123e-07)
(-1.9127e-06 0.000564531 2.55308e-07)
(-1.9474e-06 0.000564506 2.50241e-07)
(-1.9718e-06 0.000564467 2.35713e-07)
(-1.995e-06 0.000564416 2.29127e-07)
(-2.0105e-06 0.000564351 2.15111e-07)
(-2.02713e-06 0.000564275 2.10467e-07)
(-2.03936e-06 0.000564188 1.98546e-07)
(-2.05645e-06 0.000564091 1.95254e-07)
(-2.07223e-06 0.000563985 1.84507e-07)
(-2.09452e-06 0.000563869 1.8263e-07)
(-2.11686e-06 0.00056374 1.73833e-07)
(-2.14491e-06 0.000563604 1.7469e-07)
(-2.17012e-06 0.000563461 1.69004e-07)
(-2.20083e-06 0.000563309 1.7195e-07)
(-2.23014e-06 0.000563149 1.67113e-07)
(-2.26604e-06 0.000562976 1.69083e-07)
(-2.30454e-06 0.00056279 1.61234e-07)
(-2.35519e-06 0.000562583 1.57281e-07)
(-2.4099e-06 0.000562363 1.44866e-07)
(-2.47262e-06 0.000562154 1.37951e-07)
(-2.53725e-06 0.000561934 1.27062e-07)
(-2.60491e-06 0.000561733 1.23469e-07)
(-2.68417e-06 0.000561508 1.1253e-07)
(-2.77336e-06 0.000561296 1.10401e-07)
(-2.88156e-06 0.000561077 1.02496e-07)
(-3.02792e-06 0.000560954 1.14186e-07)
(-3.16674e-06 0.000560627 1.29942e-07)
(-3.43883e-06 0.000562413 2.73266e-07)
(-3.56124e-06 0.000576521 3.33301e-07)
(-3.84333e-06 0.000644719 1.09959e-06)
(-3.29719e-06 0.000823505 1.26172e-06)
(-5.08287e-06 0.00106928 7.84391e-07)
(-8.12443e-06 0.00128263 -2.39775e-06)
(-1.34005e-05 0.0016371 -1.90365e-06)
(-1.91051e-05 0.00228091 -4.66062e-06)
(-3.05443e-05 0.00320505 4.93968e-05)
(5.17606e-06 0.00365106 -2.39203e-05)
(-3.537e-05 0.00406615 7.37229e-05)
(0.00040576 0.0029324 0.000253361)
(0.00119929 0.0268494 0.00215665)
(-0.0078312 0.281006 0.0170495)
(0.00582493 0.576288 0.00401901)
(0.00544993 0.490893 0.00356691)
(0.00728861 0.495876 0.0035246)
(0.00527497 0.487874 0.00361241)
(0.00463097 0.439106 0.00332554)
(0.000697334 0.328645 0.00111604)
(0.00414563 0.447261 0.000986654)
(0.00334927 0.488525 0.000568327)
(0.00676273 0.489774 0.00168362)
(0.00844771 0.502288 0.00240568)
(0.00703279 0.503436 0.00201393)
(0.00502523 0.500896 0.00153481)
(0.0028726 0.500406 0.00132951)
(0.00256467 0.50202 0.00193062)
(0.00449359 0.464789 0.00189293)
(0.00188042 0.192183 0.000912253)
(0.00564457 0.352834 0.0011093)
(0.00336282 0.413597 -0.000391468)
(0.00356545 0.461502 2.43711e-05)
(0.0070702 0.49782 0.00115438)
(0.00268625 0.490615 0.00211317)
(0.00164118 0.49849 0.00319458)
(0.00364586 0.497117 0.00372221)
(0.0043552 0.493376 0.00426017)
(0.0029707 0.489985 0.00370734)
(0.00212079 0.48296 0.00150238)
(0.000595213 0.457303 0.00141259)
(-0.00170624 0.414592 0.000790542)
(-0.00123029 0.376235 0.000379089)
(-0.00292175 0.457347 -0.000159064)
(-0.0044226 0.491685 -0.00164063)
(-0.0039102 0.429212 -0.00253211)
(-0.00573595 0.455643 -0.00728004)
(-0.00505054 0.334558 -0.0118027)
(-0.000355581 0.0573513 0.000432651)
(-0.00294564 0.254287 -0.00842344)
(-5.54651e-06 0.000119959 -3.16794e-06)
(-4.30122e-06 0.000262399 -8.59461e-07)
(-4.36666e-06 0.000270682 -5.0284e-07)
(-2.95557e-06 0.00029242 -1.6069e-07)
(-2.50772e-06 0.00032682 -3.81923e-07)