/*--------------------------------*- C++ -*----------------------------------*\
| =========                 |                                                 |
| \\      /  F ield         | OpenFOAM: The Open Source CFD Toolbox           |
|  \\    /   O peration     | Version:  2.3.0                                 |
|   \\  /    A nd           | Web:      www.OpenFOAM.org                      |
|    \\/     M anipulation  |                                                 |
\*---------------------------------------------------------------------------*/
FoamFile
{
    version     2.0;
    format      ascii;
    class       volScalarField;
    location    "44";
    object      alpha.air;
}
// * * * * * * * * * * * * * * * * * * * * * * * * * * * * * * * * * * * * * //

dimensions      [0 0 0 0 0 0 0];

internalField   nonuniform List<scalar> 
6144
(
0.999996
0.999995
0.999995
0.999994
0.999994
0.999993
0.999992
0.999991
0.99999
0.99999
0.99999
0.99999
0.99999
0.99999
0.99999
0.99999
0.99999
0.99999
0.99999
0.99999
0.99999
0.99999
0.99999
0.99999
0.99999
0.99999
0.99999
0.99999
0.99999
0.99999
0.99999
0.99999
0.99999
0.99999
0.99999
0.99999
0.99999
0.99999
0.99999
0.99999
0.99999
0.99999
0.99999
0.99999
0.99999
0.99999
0.99999
0.99999
0.999989
0.999983
0.999971
0.999952
0.999933
0.999917
0.999907
0.999883
0.999862
0.999571
0.998465
0.920105
0.0246933
8.09919e-05
4.96019e-07
4.99306e-07
5.03351e-07
5.04509e-07
5.05298e-07
5.06348e-07
5.08026e-07
5.09442e-07
5.09461e-07
5.09112e-07
5.08433e-07
5.0777e-07
5.07253e-07
5.07263e-07
5.08302e-07
5.23648e-07
5.97922e-07
6.28493e-07
5.9581e-07
5.71538e-07
5.64187e-07
5.65633e-07
5.70706e-07
6.14586e-07
6.97606e-07
7.26444e-07
7.0715e-07
6.67767e-07
6.30368e-07
6.17813e-07
6.20208e-07
6.19002e-07
5.78649e-07
4.2097e-07
0.999996
0.999995
0.999994
0.999994
0.999993
0.999993
0.999992
0.999991
0.99999
0.99999
0.99999
0.99999
0.99999
0.99999
0.99999
0.99999
0.99999
0.99999
0.99999
0.99999
0.99999
0.99999
0.99999
0.99999
0.99999
0.99999
0.99999
0.99999
0.99999
0.99999
0.99999
0.99999
0.99999
0.99999
0.99999
0.99999
0.99999
0.99999
0.99999
0.99999
0.99999
0.99999
0.99999
0.99999
0.99999
0.99999
0.99999
0.99999
0.999989
0.999986
0.999976
0.999959
0.999936
0.999922
0.999924
0.999898
0.999869
0.999399
0.997617
0.924852
0.0335377
8.98343e-05
4.96019e-07
5.02715e-07
5.03415e-07
5.13679e-07
5.22841e-07
5.34911e-07
5.50097e-07
5.57037e-07
5.5588e-07
5.51589e-07
5.43167e-07
5.32863e-07
5.22928e-07
5.12898e-07
5.12706e-07
5.27486e-07
5.7845e-07
5.4357e-07
4.83734e-07
4.53622e-07
4.12705e-07
4.01379e-07
4.55134e-07
5.91e-07
7.16592e-07
7.4158e-07
7.17949e-07
6.38736e-07
5.83236e-07
5.95479e-07
6.10146e-07
5.93917e-07
5.15674e-07
3.75145e-07
0.999996
0.999995
0.999994
0.999994
0.999993
0.999992
0.999992
0.999991
0.99999
0.99999
0.99999
0.99999
0.99999
0.99999
0.99999
0.99999
0.99999
0.99999
0.99999
0.99999
0.99999
0.99999
0.99999
0.99999
0.99999
0.99999
0.99999
0.99999
0.99999
0.99999
0.99999
0.99999
0.99999
0.99999
0.99999
0.99999
0.99999
0.99999
0.99999
0.99999
0.99999
0.99999
0.99999
0.99999
0.99999
0.99999
0.99999
0.99999
0.999989
0.999986
0.999977
0.99996
0.999942
0.99993
0.999929
0.999902
0.999898
0.999649
0.999037
0.926362
0.0335194
4.71809e-05
4.96019e-07
4.96507e-07
5.29249e-07
5.63415e-07
5.90877e-07
6.10743e-07
6.26792e-07
6.50472e-07
6.58998e-07
6.53782e-07
6.34957e-07
6.02163e-07
5.66686e-07
5.33885e-07
5.19669e-07
5.3506e-07
5.46658e-07
4.97143e-07
4.64235e-07
4.09173e-07
3.68285e-07
3.96288e-07
4.92294e-07
6.55689e-07
7.61778e-07
7.58831e-07
7.06904e-07
5.89659e-07
5.48447e-07
5.92474e-07
5.62777e-07
5.14868e-07
4.31903e-07
3.23347e-07
0.999996
0.999995
0.999995
0.999994
0.999993
0.999992
0.999992
0.999991
0.99999
0.99999
0.99999
0.99999
0.99999
0.99999
0.99999
0.99999
0.99999
0.99999
0.99999
0.99999
0.99999
0.99999
0.99999
0.99999
0.99999
0.99999
0.99999
0.99999
0.99999
0.99999
0.99999
0.99999
0.99999
0.99999
0.99999
0.99999
0.99999
0.99999
0.99999
0.99999
0.99999
0.99999
0.99999
0.99999
0.99999
0.99999
0.99999
0.99999
0.999988
0.999983
0.999971
0.999954
0.999947
0.999941
0.999932
0.999902
0.99988
0.999781
0.999925
0.900033
0.022148
3.0973e-05
5.54203e-06
8.49143e-07
5.66502e-07
5.62352e-07
6.52266e-07
6.50919e-07
6.53638e-07
6.89727e-07
7.65738e-07
7.96908e-07
7.85807e-07
7.40371e-07
6.53444e-07
5.59617e-07
5.34068e-07
5.39348e-07
5.029e-07
4.6417e-07
4.14072e-07
3.65562e-07
3.74425e-07
4.42489e-07
5.814e-07
7.30289e-07
7.96841e-07
7.93082e-07
7.17072e-07
5.56825e-07
4.91379e-07
4.87991e-07
4.90216e-07
4.22411e-07
3.54013e-07
3.03058e-07
0.999996
0.999996
0.999995
0.999994
0.999993
0.999993
0.999992
0.999991
0.999991
0.99999
0.99999
0.99999
0.99999
0.99999
0.99999
0.99999
0.99999
0.99999
0.99999
0.99999
0.99999
0.99999
0.99999
0.99999
0.99999
0.99999
0.99999
0.99999
0.99999
0.99999
0.99999
0.99999
0.99999
0.99999
0.99999
0.99999
0.99999
0.99999
0.99999
0.99999
0.99999
0.99999
0.99999
0.99999
0.99999
0.99999
0.99999
0.999989
0.999986
0.999978
0.999967
0.999959
0.999961
0.999952
0.999915
0.999855
0.999829
0.999811
0.999943
0.856536
0.0061283
0.00053935
0.000290669
7.45217e-05
2.82884e-05
8.59549e-06
2.18525e-06
6.6326e-07
5.56471e-07
4.8685e-07
4.8685e-07
5.00338e-07
5.45639e-07
5.54412e-07
4.88367e-07
3.88285e-07
3.88285e-07
3.88285e-07
3.88286e-07
3.88286e-07
3.88287e-07
5.6316e-07
6.26006e-07
5.50442e-07
6.82702e-07
8.2882e-07
8.90147e-07
9.15477e-07
9.46093e-07
9.72419e-07
4.62917e-07
3.78163e-07
3.67407e-07
3.40556e-07
3.03416e-07
3.03058e-07
0.999996
0.999996
0.999995
0.999995
0.999994
0.999993
0.999992
0.999991
0.999991
0.99999
0.99999
0.99999
0.99999
0.99999
0.99999
0.99999
0.99999
0.99999
0.99999
0.99999
0.99999
0.99999
0.99999
0.99999
0.99999
0.99999
0.99999
0.99999
0.99999
0.99999
0.99999
0.99999
0.99999
0.99999
0.99999
0.99999
0.99999
0.99999
0.99999
0.99999
0.99999
0.99999
0.99999
0.99999
0.99999
0.99999
0.99999
0.999988
0.999983
0.999976
0.999973
0.999974
0.999972
0.999944
0.999871
0.999797
0.999797
0.999815
0.99999
0.788993
0.0113479
0.00376851
0.00278469
0.00160844
0.00121768
0.000910211
0.000379658
0.000136228
4.51808e-05
1.16251e-05
2.88972e-06
1.79853e-06
2.67875e-06
6.11391e-06
1.25782e-05
1.98786e-05
2.57961e-05
3.15627e-05
3.33809e-05
2.87845e-05
2.4035e-05
1.84362e-05
1.26211e-05
8.97504e-06
7.33014e-06
7.28405e-06
7.64311e-06
7.88025e-06
6.60131e-06
5.43498e-06
4.99026e-06
3.03861e-06
8.21771e-07
5.8263e-07
3.03058e-07
3.03058e-07
0.999996
0.999996
0.999995
0.999995
0.999994
0.999993
0.999992
0.999992
0.999991
0.99999
0.99999
0.99999
0.99999
0.99999
0.99999
0.99999
0.99999
0.99999
0.99999
0.99999
0.99999
0.99999
0.99999
0.99999
0.99999
0.99999
0.99999
0.99999
0.99999
0.99999
0.99999
0.99999
0.99999
0.99999
0.99999
0.99999
0.99999
0.99999
0.99999
0.99999
0.99999
0.99999
0.99999
0.99999
0.99999
0.99999
0.99999
0.999988
0.999985
0.999981
0.999979
0.999976
0.999971
0.999938
0.999856
0.999769
0.999771
0.999796
0.99999
0.709335
0.0149351
0.00864166
0.00825609
0.006794
0.00745852
0.00760705
0.00509022
0.00363101
0.00259331
0.00187213
0.00156995
0.00145372
0.00148319
0.00150364
0.00163545
0.0019171
0.00217362
0.00230625
0.00190188
0.00133754
0.000764066
0.000298871
5.25229e-05
2.28774e-06
2.72624e-05
3.16809e-05
3.66599e-05
4.22542e-05
5.01596e-05
6.16653e-05
7.45784e-05
7.74708e-05
1.39928e-05
1.07331e-05
1.40689e-05
1.09297e-05
0.999996
0.999996
0.999995
0.999995
0.999994
0.999994
0.999993
0.999992
0.999991
0.99999
0.99999
0.99999
0.99999
0.99999
0.99999
0.99999
0.99999
0.99999
0.99999
0.99999
0.99999
0.99999
0.99999
0.99999
0.99999
0.99999
0.99999
0.99999
0.99999
0.99999
0.99999
0.99999
0.99999
0.99999
0.99999
0.99999
0.99999
0.99999
0.99999
0.99999
0.99999
0.99999
0.99999
0.99999
0.99999
0.99999
0.99999
0.999989
0.999987
0.999985
0.999983
0.999975
0.999958
0.999906
0.999834
0.999794
0.999807
0.999822
0.99999
0.719699
0.0189598
0.0109455
0.0110303
0.0112675
0.0121138
0.0126291
0.0124144
0.0110178
0.0108189
0.010797
0.011146
0.0107511
0.00870989
0.00785109
0.00759997
0.00805315
0.00841216
0.00552229
0.00257205
0.00087717
8.48539e-05
3.12447e-07
3.12447e-07
3.12447e-07
3.12447e-07
3.12447e-07
3.12447e-07
3.12447e-07
3.12447e-07
3.12447e-07
3.12447e-07
3.12447e-07
3.12447e-07
3.12447e-07
0.000264412
0.000349756
0.999996
0.999996
0.999996
0.999996
0.999995
0.999994
0.999993
0.999992
0.999991
0.999991
0.99999
0.99999
0.99999
0.99999
0.99999
0.99999
0.99999
0.99999
0.99999
0.99999
0.99999
0.99999
0.99999
0.99999
0.99999
0.99999
0.99999
0.99999
0.99999
0.99999
0.99999
0.99999
0.99999
0.99999
0.99999
0.99999
0.99999
0.99999
0.99999
0.99999
0.99999
0.99999
0.99999
0.99999
0.99999
0.99999
0.99999
0.99999
0.999989
0.999988
0.999986
0.999968
0.999943
0.99992
0.999861
0.999824
0.999828
0.999836
0.99999
0.80994
0.0153871
0.00669624
0.00681628
0.00551259
0.00678814
0.00765585
0.00747056
0.00795064
0.00935149
0.00951315
0.00741957
0.00658876
0.00564943
0.00453394
0.00368587
0.00327314
0.00265814
0.00110557
0.000348543
0.000264454
0.000287934
0.000319992
0.000341738
0.000336572
0.000248986
0.000187078
0.000112842
4.26012e-05
6.5673e-06
1.36005e-06
3.38775e-06
2.71712e-06
3.54053e-06
3.25334e-06
3.12448e-07
3.12448e-07
0.999996
0.999996
0.999996
0.999996
0.999995
0.999994
0.999993
0.999992
0.999991
0.999991
0.99999
0.99999
0.99999
0.99999
0.99999
0.99999
0.99999
0.99999
0.99999
0.99999
0.99999
0.99999
0.99999
0.99999
0.99999
0.99999
0.99999
0.99999
0.99999
0.99999
0.99999
0.99999
0.99999
0.99999
0.99999
0.99999
0.99999
0.99999
0.99999
0.99999
0.99999
0.99999
0.99999
0.99999
0.99999
0.99999
0.99999
0.99999
0.999989
0.999988
0.999985
0.999957
0.999939
0.999933
0.999888
0.999848
0.999841
0.99985
0.999973
0.871592
0.00786606
0.0011975
0.00121258
0.00120071
0.00138055
0.0016882
0.00190727
0.00210348
0.00235779
0.00238526
0.00210523
0.00166762
0.0013446
0.000920436
0.00061514
0.000420282
0.00026453
0.000156588
0.000111646
9.15775e-05
6.81512e-05
4.18377e-05
1.93561e-05
5.72201e-06
9.17749e-07
1.61784e-06
1.45571e-06
9.10121e-07
6.63283e-07
6.10296e-07
6.4919e-07
6.29626e-07
5.81665e-07
5.16155e-07
4.76661e-07
3.61954e-07
0.999997
0.999996
0.999997
0.999997
0.999996
0.999995
0.999993
0.999992
0.999991
0.999991
0.99999
0.99999
0.99999
0.99999
0.99999
0.99999
0.99999
0.99999
0.99999
0.99999
0.99999
0.99999
0.99999
0.99999
0.99999
0.99999
0.99999
0.99999
0.99999
0.99999
0.99999
0.99999
0.99999
0.99999
0.99999
0.99999
0.99999
0.99999
0.99999
0.99999
0.99999
0.99999
0.99999
0.99999
0.99999
0.99999
0.99999
0.99999
0.999988
0.999983
0.999976
0.999962
0.999944
0.99994
0.999917
0.999888
0.999859
0.999858
0.999946
0.914856
0.00646698
0.000121659
0.000118995
0.000112506
0.000121347
0.000125445
0.000130879
0.000146154
0.00016973
0.000180246
0.000178299
0.000123653
8.43561e-05
6.15579e-05
4.39205e-05
3.06807e-05
2.1461e-05
1.51927e-05
1.02712e-05
5.01517e-06
1.80131e-06
8.77426e-07
7.68628e-07
6.87332e-07
6.87277e-07
6.62231e-07
6.34574e-07
5.99072e-07
5.70841e-07
5.5822e-07
5.54972e-07
5.56051e-07
5.53801e-07
5.34581e-07
4.71266e-07
3.55164e-07
0.999997
0.999997
0.999997
0.999997
0.999997
0.999995
0.999994
0.999992
0.999991
0.99999
0.99999
0.99999
0.99999
0.99999
0.99999
0.99999
0.99999
0.99999
0.99999
0.99999
0.99999
0.99999
0.99999
0.99999
0.99999
0.99999
0.99999
0.99999
0.99999
0.99999
0.99999
0.99999
0.99999
0.99999
0.99999
0.99999
0.99999
0.99999
0.99999
0.99999
0.99999
0.99999
0.99999
0.99999
0.99999
0.99999
0.99999
0.999989
0.999987
0.99998
0.999967
0.999956
0.999944
0.999938
0.99993
0.999913
0.999885
0.999873
0.999953
0.947383
0.0206917
3.47695e-06
3.95464e-06
4.80787e-06
5.81886e-06
6.28737e-06
6.34472e-06
5.34209e-06
4.89988e-06
4.7361e-06
4.43919e-06
3.31918e-06
2.39367e-06
2.07788e-06
1.99553e-06
1.87897e-06
1.33713e-06
8.19266e-07
6.67987e-07
6.41816e-07
7.03881e-07
6.97767e-07
7.07907e-07
7.07784e-07
6.94547e-07
6.67104e-07
6.36665e-07
6.0407e-07
5.67926e-07
5.45673e-07
5.40937e-07
5.39499e-07
5.37002e-07
5.20971e-07
4.69109e-07
3.58983e-07
0.999997
0.999998
0.999998
0.999998
0.999998
0.999997
0.999995
0.999993
0.999991
0.99999
0.99999
0.99999
0.99999
0.99999
0.99999
0.99999
0.99999
0.99999
0.99999
0.99999
0.99999
0.99999
0.99999
0.99999
0.99999
0.99999
0.99999
0.99999
0.99999
0.99999
0.99999
0.99999
0.99999
0.99999
0.99999
0.99999
0.99999
0.99999
0.99999
0.99999
0.99999
0.99999
0.99999
0.99999
0.99999
0.99999
0.99999
0.99999
0.999988
0.99998
0.999963
0.999948
0.999942
0.999938
0.999933
0.99992
0.999838
0.99971
0.999735
0.968302
0.0282818
1.08288e-05
3.19818e-07
5.03822e-07
5.14187e-07
6.35456e-07
1.48955e-06
1.00809e-06
7.84732e-07
8.27978e-07
8.36299e-07
8.51573e-07
8.83935e-07
9.06874e-07
8.62458e-07
6.39054e-07
5.53349e-07
5.21883e-07
5.23783e-07
5.30744e-07
5.85099e-07
6.26094e-07
6.70987e-07
7.02187e-07
6.97949e-07
6.70124e-07
6.28474e-07
5.9504e-07
5.63775e-07
5.42862e-07
5.30824e-07
5.23026e-07
5.15971e-07
5.00254e-07
4.57819e-07
3.60904e-07
0.999998
0.999997
0.999998
0.999998
0.999998
0.999998
0.999997
0.999994
0.999991
0.99999
0.99999
0.99999
0.99999
0.99999
0.99999
0.99999
0.99999
0.99999
0.99999
0.99999
0.99999
0.99999
0.99999
0.99999
0.99999
0.99999
0.99999
0.99999
0.99999
0.99999
0.99999
0.99999
0.99999
0.99999
0.99999
0.99999
0.99999
0.99999
0.99999
0.99999
0.99999
0.99999
0.99999
0.99999
0.99999
0.99999
0.99999
0.99999
0.999987
0.999978
0.99996
0.999947
0.99994
0.999936
0.999932
0.999917
0.999871
0.999556
0.99955
0.969419
0.0352625
4.88249e-05
3.19818e-07
3.8055e-07
3.81056e-07
3.77777e-07
4.02295e-07
7.69331e-07
8.49084e-07
8.46228e-07
8.39939e-07
8.28831e-07
8.17602e-07
8.05235e-07
7.67638e-07
6.63098e-07
5.70483e-07
5.22296e-07
5.16448e-07
5.18056e-07
5.33463e-07
5.70287e-07
6.31513e-07
6.94437e-07
7.02389e-07
6.8046e-07
6.30513e-07
5.82983e-07
5.52544e-07
5.31715e-07
5.17361e-07
5.06377e-07
4.96548e-07
4.80996e-07
4.43457e-07
3.5945e-07
0.999998
0.999998
0.999998
0.999998
0.999998
0.999998
0.999998
0.999995
0.999992
0.999991
0.99999
0.99999
0.99999
0.99999
0.99999
0.99999
0.99999
0.99999
0.99999
0.99999
0.99999
0.99999
0.99999
0.99999
0.99999
0.99999
0.99999
0.99999
0.99999
0.99999
0.99999
0.99999
0.99999
0.99999
0.99999
0.99999
0.99999
0.99999
0.99999
0.99999
0.99999
0.99999
0.99999
0.99999
0.99999
0.99999
0.99999
0.999989
0.999987
0.999977
0.99996
0.999946
0.999939
0.999935
0.999932
0.999914
0.999693
0.999432
0.999333
0.970266
0.0467793
0.000179112
3.19819e-07
3.4931e-07
3.41541e-07
3.37179e-07
3.29086e-07
3.49298e-07
5.92434e-07
8.13124e-07
8.31653e-07
8.30149e-07
8.20292e-07
8.06687e-07
7.75802e-07
7.13298e-07
6.43541e-07
5.83539e-07
5.48731e-07
5.4927e-07
5.61357e-07
5.94211e-07
6.47624e-07
6.99487e-07
7.06303e-07
6.88654e-07
6.34966e-07
5.77413e-07
5.42314e-07
5.18885e-07
5.02465e-07
4.88942e-07
4.7765e-07
4.60627e-07
4.16101e-07
3.42942e-07
0.999998
0.999998
0.999998
0.999998
0.999998
0.999998
0.999998
0.999997
0.999993
0.999991
0.99999
0.99999
0.99999
0.99999
0.99999
0.99999
0.99999
0.99999
0.99999
0.99999
0.99999
0.99999
0.99999
0.99999
0.99999
0.99999
0.99999
0.99999
0.99999
0.99999
0.99999
0.99999
0.99999
0.99999
0.99999
0.99999
0.99999
0.99999
0.99999
0.99999
0.99999
0.99999
0.99999
0.99999
0.99999
0.99999
0.99999
0.999989
0.999986
0.999977
0.999962
0.999947
0.999938
0.999933
0.99993
0.999907
0.999838
0.999511
0.999585
0.960981
0.0542882
0.000196158
3.19819e-07
3.45101e-07
3.37947e-07
3.27989e-07
3.26455e-07
3.26965e-07
3.40071e-07
4.06496e-07
5.26769e-07
6.56994e-07
7.38518e-07
7.66277e-07
7.71158e-07
7.59493e-07
7.40536e-07
7.17626e-07
6.93265e-07
6.82326e-07
6.86443e-07
6.98071e-07
7.11418e-07
7.12912e-07
7.06772e-07
6.82662e-07
6.31419e-07
5.72452e-07
5.32198e-07
5.06162e-07
4.88298e-07
4.73577e-07
4.62745e-07
4.43232e-07
3.69575e-07
2.81386e-07
0.999996
0.999995
0.999995
0.999994
0.999994
0.999993
0.999992
0.999991
0.99999
0.99999
0.99999
0.99999
0.99999
0.99999
0.99999
0.99999
0.99999
0.99999
0.99999
0.99999
0.99999
0.99999
0.99999
0.99999
0.99999
0.99999
0.99999
0.99999
0.99999
0.99999
0.99999
0.99999
0.99999
0.99999
0.99999
0.99999
0.99999
0.99999
0.99999
0.99999
0.99999
0.99999
0.99999
0.99999
0.99999
0.99999
0.99999
0.99999
0.999989
0.999983
0.99997
0.99995
0.999933
0.999918
0.999905
0.99988
0.999845
0.999418
0.996933
0.912223
0.0312563
0.000105975
4.96019e-07
5.01789e-07
5.04371e-07
5.03633e-07
5.03416e-07
5.03556e-07
5.04007e-07
5.04449e-07
5.04708e-07
5.04836e-07
5.04764e-07
5.04504e-07
5.04168e-07
5.03974e-07
5.04299e-07
5.074e-07
5.30717e-07
5.8518e-07
6.00374e-07
5.86178e-07
5.56974e-07
5.08218e-07
4.54746e-07
4.87667e-07
6.43513e-07
7.20471e-07
7.00106e-07
6.65959e-07
6.35541e-07
6.20258e-07
6.17399e-07
6.17524e-07
5.87086e-07
4.43286e-07
0.999997
0.999995
0.999994
0.999994
0.999993
0.999992
0.999991
0.999991
0.99999
0.99999
0.99999
0.99999
0.99999
0.99999
0.99999
0.99999
0.99999
0.99999
0.99999
0.99999
0.99999
0.99999
0.99999
0.99999
0.99999
0.99999
0.99999
0.99999
0.99999
0.99999
0.99999
0.99999
0.99999
0.99999
0.99999
0.99999
0.99999
0.99999
0.99999
0.99999
0.99999
0.99999
0.99999
0.99999
0.99999
0.99999
0.99999
0.99999
0.999989
0.999986
0.999976
0.999958
0.999934
0.999921
0.999914
0.999886
0.99978
0.999417
0.997813
0.9032
0.0179562
3.19293e-06
4.96018e-07
5.10477e-07
5.06774e-07
5.11694e-07
5.19287e-07
5.26093e-07
5.32526e-07
5.3461e-07
5.33782e-07
5.31407e-07
5.27085e-07
5.21397e-07
5.15522e-07
5.09514e-07
5.08501e-07
5.10622e-07
5.26087e-07
5.65308e-07
5.84682e-07
5.64749e-07
4.92274e-07
3.7346e-07
3.70241e-07
5.01991e-07
6.9178e-07
7.2501e-07
6.93851e-07
6.27308e-07
5.81607e-07
5.72805e-07
5.78109e-07
5.83262e-07
5.506e-07
4.12276e-07
0.999997
0.999996
0.999994
0.999994
0.999993
0.999992
0.999991
0.999991
0.999991
0.999991
0.99999
0.99999
0.99999
0.99999
0.99999
0.99999
0.99999
0.99999
0.99999
0.99999
0.99999
0.99999
0.99999
0.99999
0.99999
0.99999
0.99999
0.99999
0.99999
0.99999
0.99999
0.99999
0.99999
0.99999
0.99999
0.99999
0.99999
0.99999
0.99999
0.99999
0.99999
0.99999
0.99999
0.99999
0.99999
0.99999
0.99999
0.99999
0.999989
0.999985
0.999978
0.999965
0.999941
0.999925
0.99991
0.999874
0.999836
0.999502
0.999236
0.904531
0.00793856
7.64694e-07
7.6915e-07
5.89286e-07
5.72946e-07
5.78593e-07
5.9386e-07
5.99963e-07
6.02748e-07
6.0348e-07
5.99903e-07
5.89615e-07
5.72878e-07
5.52689e-07
5.36058e-07
5.28591e-07
5.20826e-07
5.17626e-07
5.24522e-07
5.50214e-07
5.5339e-07
4.97145e-07
3.46683e-07
3.55298e-07
4.83886e-07
6.62095e-07
7.31743e-07
7.08174e-07
6.50332e-07
5.78375e-07
5.44972e-07
5.40512e-07
5.49723e-07
5.74331e-07
5.25014e-07
3.72489e-07
0.999997
0.999996
0.999995
0.999994
0.999993
0.999993
0.999992
0.999991
0.999991
0.999991
0.99999
0.99999
0.99999
0.99999
0.99999
0.99999
0.99999
0.99999
0.99999
0.99999
0.99999
0.99999
0.99999
0.99999
0.99999
0.99999
0.99999
0.99999
0.99999
0.99999
0.99999
0.99999
0.99999
0.99999
0.99999
0.99999
0.99999
0.99999
0.99999
0.99999
0.99999
0.99999
0.99999
0.99999
0.99999
0.99999
0.99999
0.99999
0.999989
0.999985
0.999977
0.99996
0.999946
0.999929
0.999911
0.999854
0.999813
0.999623
0.999827
0.87533
0.00493486
2.23375e-05
1.42856e-05
1.68638e-06
9.99083e-07
6.72147e-07
6.99592e-07
6.68602e-07
6.74857e-07
6.83208e-07
6.93794e-07
6.84083e-07
6.6001e-07
6.22425e-07
5.73442e-07
5.26843e-07
5.16549e-07
5.25417e-07
5.38428e-07
5.51915e-07
5.05645e-07
3.73081e-07
3.81401e-07
5.35039e-07
7.01804e-07
7.72758e-07
7.75851e-07
7.16751e-07
6.25414e-07
5.4841e-07
5.1672e-07
5.11103e-07
5.33643e-07
5.65321e-07
4.94194e-07
3.41139e-07
0.999997
0.999997
0.999995
0.999995
0.999994
0.999993
0.999992
0.999992
0.999991
0.999991
0.99999
0.99999
0.99999
0.99999
0.99999
0.99999
0.99999
0.99999
0.99999
0.99999
0.99999
0.99999
0.99999
0.99999
0.99999
0.99999
0.99999
0.99999
0.99999
0.99999
0.99999
0.99999
0.99999
0.99999
0.99999
0.99999
0.99999
0.99999
0.99999
0.99999
0.99999
0.99999
0.99999
0.99999
0.99999
0.99999
0.99999
0.99999
0.999989
0.999988
0.999984
0.999974
0.99996
0.999931
0.999874
0.999807
0.999791
0.999855
0.999935
0.827523
0.00644107
0.00107194
0.000748486
0.000232112
0.000102006
3.35971e-05
9.30661e-06
2.4507e-06
9.99112e-07
9.2507e-07
1.52465e-06
1.34761e-06
6.14551e-07
6.67423e-07
1.59985e-06
1.67569e-06
7.84547e-07
6.37454e-07
1.25751e-06
1.97659e-06
1.01806e-06
4.51082e-07
5.21803e-07
1.56418e-06
2.19538e-06
8.83136e-07
7.38244e-07
7.436e-07
9.15791e-07
1.08189e-06
7.11158e-07
5.25101e-07
5.4172e-07
5.45404e-07
4.45851e-07
3.09861e-07
0.999998
0.999997
0.999996
0.999995
0.999994
0.999994
0.999993
0.999992
0.999991
0.999991
0.99999
0.99999
0.99999
0.99999
0.99999
0.99999
0.99999
0.99999
0.99999
0.99999
0.99999
0.99999
0.99999
0.99999
0.99999
0.99999
0.99999
0.99999
0.99999
0.99999
0.99999
0.99999
0.99999
0.99999
0.99999
0.99999
0.99999
0.99999
0.99999
0.99999
0.99999
0.99999
0.99999
0.99999
0.99999
0.99999
0.99999
0.99999
0.999989
0.999988
0.999986
0.999981
0.999971
0.99989
0.999783
0.999791
0.999797
0.999898
0.999988
0.740472
0.0226048
0.00995899
0.00850167
0.00560592
0.00384297
0.00222942
0.00110982
0.000518915
0.000251504
0.000164187
0.000147039
0.000156042
0.000168818
0.000188222
0.000218277
0.000247609
0.00028514
0.00030843
0.000315061
0.000313566
0.000340654
0.000367005
0.000374039
0.000351569
0.000335863
0.00034248
0.000358264
0.000372221
0.000378386
0.000213273
5.76537e-05
1.40836e-05
4.25985e-07
4.25972e-07
3.97893e-07
5.53217e-07
0.999998
0.999998
0.999996
0.999995
0.999995
0.999994
0.999993
0.999992
0.999991
0.999991
0.99999
0.99999
0.99999
0.99999
0.99999
0.99999
0.99999
0.99999
0.99999
0.99999
0.99999
0.99999
0.99999
0.99999
0.99999
0.99999
0.99999
0.99999
0.99999
0.99999
0.99999
0.99999
0.99999
0.99999
0.99999
0.99999
0.99999
0.99999
0.99999
0.99999
0.99999
0.99999
0.99999
0.99999
0.99999
0.99999
0.99999
0.99999
0.999988
0.999987
0.999984
0.999975
0.999963
0.999914
0.999765
0.999723
0.999775
0.999881
0.99999
0.626724
0.0413905
0.0298014
0.0300072
0.0273087
0.0245878
0.0212315
0.0173412
0.0136682
0.00987173
0.00693141
0.00534994
0.00518202
0.00567025
0.00595686
0.00768457
0.00890455
0.00960152
0.0118572
0.0150577
0.0188793
0.0212536
0.0220101
0.0218946
0.0208786
0.0210513
0.0224685
0.0231764
0.0232656
0.0246992
0.0264719
0.0168976
0.0104619
0.00640512
0.00310606
0.00118968
0.000850699
0.999998
0.999998
0.999997
0.999996
0.999995
0.999994
0.999993
0.999992
0.999991
0.999991
0.99999
0.99999
0.99999
0.99999
0.99999
0.99999
0.99999
0.99999
0.99999
0.99999
0.99999
0.99999
0.99999
0.99999
0.99999
0.99999
0.99999
0.99999
0.99999
0.99999
0.99999
0.99999
0.99999
0.99999
0.99999
0.99999
0.99999
0.99999
0.99999
0.99999
0.99999
0.99999
0.99999
0.99999
0.99999
0.99999
0.99999
0.999989
0.999988
0.999985
0.999978
0.999958
0.999934
0.999847
0.999795
0.999823
0.999881
0.999945
0.99999
0.638011
0.0546229
0.0405826
0.0428275
0.0435231
0.0447142
0.047661
0.0509968
0.0542721
0.0552649
0.0555989
0.0554651
0.0551676
0.0574014
0.0615368
0.0647837
0.0678487
0.0710494
0.074657
0.0790379
0.0839569
0.0872464
0.0885815
0.0892289
0.0981009
0.111063
0.11604
0.118383
0.120323
0.123793
0.133905
0.147873
0.16171
0.175598
0.19148
0.230163
0.42349
0.999997
0.999998
0.999997
0.999997
0.999996
0.999995
0.999993
0.999992
0.999991
0.999991
0.99999
0.99999
0.99999
0.99999
0.99999
0.99999
0.99999
0.99999
0.99999
0.99999
0.99999
0.99999
0.99999
0.99999
0.99999
0.99999
0.99999
0.99999
0.99999
0.99999
0.99999
0.99999
0.99999
0.99999
0.99999
0.99999
0.99999
0.99999
0.99999
0.99999
0.99999
0.99999
0.99999
0.99999
0.99999
0.99999
0.99999
0.999989
0.999988
0.999984
0.99997
0.999925
0.999906
0.999905
0.999907
0.999927
0.999939
0.999949
0.99999
0.798894
0.0346305
0.016001
0.0170778
0.0176849
0.0203448
0.0251837
0.0291647
0.0320669
0.0347666
0.0368383
0.0376227
0.0374629
0.0368598
0.036805
0.0349323
0.0308822
0.0255515
0.0198867
0.01468
0.0101989
0.0067481
0.00472291
0.0042732
0.00457222
0.00483188
0.00494546
0.00459593
0.00363141
0.00289397
0.00205811
0.00111969
0.000819836
0.000967841
0.00106221
0.00125486
0.0012869
0.999997
0.999998
0.999998
0.999997
0.999996
0.999995
0.999993
0.999992
0.999991
0.999991
0.99999
0.99999
0.99999
0.99999
0.99999
0.99999
0.99999
0.99999
0.99999
0.99999
0.99999
0.99999
0.99999
0.99999
0.99999
0.99999
0.99999
0.99999
0.99999
0.99999
0.99999
0.99999
0.99999
0.99999
0.99999
0.99999
0.99999
0.99999
0.99999
0.99999
0.99999
0.99999
0.99999
0.99999
0.99999
0.99999
0.99999
0.99999
0.999988
0.999983
0.999964
0.999913
0.999906
0.999904
0.999902
0.999899
0.999897
0.999923
0.999965
0.882424
0.0128023
0.00276053
0.00299306
0.00281754
0.00301636
0.00426165
0.00536656
0.00593313
0.00626984
0.00644644
0.00681198
0.00753989
0.00763522
0.00598089
0.0042466
0.00269314
0.00150146
0.000663807
0.000243368
7.2994e-05
1.91381e-05
7.80839e-06
8.71991e-06
9.72981e-06
1.05069e-05
1.02441e-05
8.33965e-06
5.44527e-06
2.95667e-06
1.48136e-06
5.65519e-07
5.53701e-07
4.95246e-07
4.33121e-07
3.85395e-07
3.25961e-07
0.999998
0.999998
0.999998
0.999998
0.999997
0.999996
0.999994
0.999992
0.999991
0.999991
0.99999
0.99999
0.99999
0.99999
0.99999
0.99999
0.99999
0.99999
0.99999
0.99999
0.99999
0.99999
0.99999
0.99999
0.99999
0.99999
0.99999
0.99999
0.99999
0.99999
0.99999
0.99999
0.99999
0.99999
0.99999
0.99999
0.99999
0.99999
0.99999
0.99999
0.99999
0.99999
0.99999
0.99999
0.99999
0.99999
0.99999
0.99999
0.999988
0.999982
0.999972
0.999952
0.999917
0.99992
0.999925
0.999915
0.99986
0.999838
0.999911
0.919825
0.00672684
0.000151979
0.000176191
0.000156822
0.000156101
0.000166373
0.000196319
0.000213535
0.0002116
0.000204042
0.000200196
0.000193225
0.000177805
0.000109694
5.72726e-05
2.61422e-05
1.00666e-05
3.29854e-06
1.22816e-06
7.43582e-07
8.03489e-07
6.59599e-07
6.76217e-07
6.87561e-07
6.85686e-07
6.48339e-07
5.63677e-07
4.56132e-07
4.57709e-07
4.86928e-07
5.0685e-07
5.3864e-07
5.45848e-07
5.27043e-07
4.64746e-07
3.51266e-07
0.999998
0.999998
0.999998
0.999998
0.999998
0.999997
0.999995
0.999992
0.999991
0.999991
0.99999
0.99999
0.99999
0.99999
0.99999
0.99999
0.99999
0.99999
0.99999
0.99999
0.99999
0.99999
0.99999
0.99999
0.99999
0.99999
0.99999
0.99999
0.99999
0.99999
0.99999
0.99999
0.99999
0.99999
0.99999
0.99999
0.99999
0.99999
0.99999
0.99999
0.99999
0.99999
0.99999
0.99999
0.99999
0.99999
0.99999
0.99999
0.999988
0.999982
0.999968
0.999955
0.999933
0.999932
0.999929
0.999922
0.999895
0.999764
0.999661
0.955002
0.0444248
3.1961e-07
5.03129e-06
1.36869e-06
1.02594e-06
8.29679e-07
8.83576e-07
1.51806e-06
2.26596e-06
1.45653e-06
8.94556e-07
9.12579e-07
1.13747e-06
1.32507e-06
1.15471e-06
8.96193e-07
8.77529e-07
7.2905e-07
6.36879e-07
6.01365e-07
6.56147e-07
6.97088e-07
7.27642e-07
7.2745e-07
7.08038e-07
6.62399e-07
6.08058e-07
5.2073e-07
4.45892e-07
4.63031e-07
4.86189e-07
5.17305e-07
5.24299e-07
5.11168e-07
4.60745e-07
3.543e-07
0.999998
0.999999
0.999999
0.999999
0.999998
0.999998
0.999996
0.999993
0.999991
0.999991
0.99999
0.99999
0.99999
0.99999
0.99999
0.99999
0.99999
0.99999
0.99999
0.99999
0.99999
0.99999
0.99999
0.99999
0.99999
0.99999
0.99999
0.99999
0.99999
0.99999
0.99999
0.99999
0.99999
0.99999
0.99999
0.99999
0.99999
0.99999
0.99999
0.99999
0.99999
0.99999
0.99999
0.99999
0.99999
0.99999
0.99999
0.99999
0.999988
0.999981
0.999966
0.999949
0.999939
0.999934
0.999923
0.999894
0.99984
0.99964
0.998989
0.963066
0.05793
3.1961e-07
5.31527e-07
5.59022e-07
5.36626e-07
5.28509e-07
5.29142e-07
6.57873e-07
7.85267e-07
8.50078e-07
8.94522e-07
9.15778e-07
9.18305e-07
8.91171e-07
8.46108e-07
8.22044e-07
7.36999e-07
6.23737e-07
5.54489e-07
5.53231e-07
5.78689e-07
6.46132e-07
7.13283e-07
7.18201e-07
6.94393e-07
6.32715e-07
5.91782e-07
5.49765e-07
4.74242e-07
4.73364e-07
4.85656e-07
5.07094e-07
5.09971e-07
4.98117e-07
4.54132e-07
3.56532e-07
0.999998
0.999999
0.999999
0.999999
0.999999
0.999998
0.999998
0.999994
0.999991
0.999991
0.99999
0.99999
0.99999
0.99999
0.99999
0.99999
0.99999
0.99999
0.99999
0.99999
0.99999
0.99999
0.99999
0.99999
0.99999
0.99999
0.99999
0.99999
0.99999
0.99999
0.99999
0.99999
0.99999
0.99999
0.99999
0.99999
0.99999
0.99999
0.99999
0.99999
0.99999
0.99999
0.99999
0.99999
0.99999
0.99999
0.99999
0.999989
0.999987
0.999978
0.999963
0.999948
0.999939
0.999934
0.99993
0.999905
0.999836
0.999529
0.998782
0.960687
0.0549541
3.1961e-07
3.73034e-07
5.02145e-07
5.36848e-07
5.13142e-07
4.23786e-07
4.72213e-07
6.49621e-07
7.47005e-07
7.70193e-07
7.66455e-07
7.25462e-07
7.23e-07
7.73211e-07
7.99969e-07
7.85725e-07
7.25772e-07
6.43444e-07
6.419e-07
6.72141e-07
7.20837e-07
7.21434e-07
7.18674e-07
6.74704e-07
6.01044e-07
5.52537e-07
5.36881e-07
4.99949e-07
4.76658e-07
4.85866e-07
5.0093e-07
5.01043e-07
4.87499e-07
4.42331e-07
3.54328e-07
0.999998
0.999998
0.999999
0.999999
0.999999
0.999999
0.999998
0.999996
0.999992
0.999991
0.99999
0.99999
0.99999
0.99999
0.99999
0.99999
0.99999
0.99999
0.99999
0.99999
0.99999
0.99999
0.99999
0.99999
0.99999
0.99999
0.99999
0.99999
0.99999
0.99999
0.99999
0.99999
0.99999
0.99999
0.99999
0.99999
0.99999
0.99999
0.99999
0.99999
0.99999
0.99999
0.99999
0.99999
0.99999
0.99999
0.99999
0.999989
0.999986
0.999977
0.999962
0.999948
0.999939
0.999935
0.999933
0.999914
0.999762
0.999396
0.998397
0.957152
0.0632843
9.43064e-05
3.19819e-07
3.49621e-07
3.45848e-07
3.40262e-07
3.33648e-07
3.35554e-07
3.85344e-07
5.47501e-07
6.87207e-07
7.42441e-07
7.53449e-07
7.44558e-07
7.48434e-07
7.5123e-07
7.5393e-07
7.47034e-07
7.32907e-07
7.28086e-07
7.27624e-07
7.19911e-07
7.02062e-07
6.73848e-07
6.34345e-07
5.79111e-07
5.28912e-07
5.2066e-07
5.02885e-07
4.80655e-07
4.88556e-07
4.98133e-07
4.94583e-07
4.72386e-07
4.07685e-07
3.335e-07
0.999998
0.999998
0.999998
0.999998
0.999998
0.999999
0.999999
0.999997
0.999993
0.999991
0.99999
0.99999
0.99999
0.99999
0.99999
0.99999
0.99999
0.99999
0.99999
0.99999
0.99999
0.99999
0.99999
0.99999
0.99999
0.99999
0.99999
0.99999
0.99999
0.99999
0.99999
0.99999
0.99999
0.99999
0.99999
0.99999
0.99999
0.99999
0.99999
0.99999
0.99999
0.99999
0.99999
0.99999
0.99999
0.99999
0.99999
0.999989
0.999986
0.999977
0.999962
0.999948
0.999939
0.999934
0.999931
0.99991
0.999796
0.999342
0.998791
0.962181
0.0626345
0.000276377
3.21871e-07
3.36888e-07
3.31232e-07
3.26277e-07
3.26367e-07
3.26049e-07
3.2788e-07
3.42771e-07
3.93311e-07
4.84925e-07
5.89948e-07
6.62431e-07
7.00661e-07
7.16227e-07