/*--------------------------------*- C++ -*----------------------------------*\
| =========                 |                                                 |
| \\      /  F ield         | OpenFOAM: The Open Source CFD Toolbox           |
|  \\    /   O peration     | Version:  2.3.0                                 |
|   \\  /    A nd           | Web:      www.OpenFOAM.org                      |
|    \\/     M anipulation  |                                                 |
\*---------------------------------------------------------------------------*/
FoamFile
{
    version     2.0;
    format      ascii;
    class       volScalarField;
    location    "44";
    object      alpha.air;
}
// * * * * * * * * * * * * * * * * * * * * * * * * * * * * * * * * * * * * * //

dimensions      [0 0 0 0 0 0 0];

internalField   nonuniform List<scalar> 
6144
(
0.999996
0.999995
0.999995
0.999994
0.999994
0.999993
0.999992
0.999991
0.99999
0.99999
0.99999
0.99999
0.99999
0.99999
0.99999
0.99999
0.99999
0.99999
0.99999
0.99999
0.99999
0.99999
0.99999
0.99999
0.99999
0.99999
0.99999
0.99999
0.99999
0.99999
0.99999
0.99999
0.99999
0.99999
0.99999
0.99999
0.99999
0.99999
0.99999
0.99999
0.99999
0.99999
0.99999
0.99999
0.999989
0.999987
0.999983
0.999973
0.999959
0.999948
0.999939
0.999929
0.999923
0.999922
0.999921
0.999915
0.999915
0.9999
0.998796
0.930265
0.0452827
0.000311714
9.40105e-07
4.83236e-07
4.84413e-07
4.86411e-07
4.88105e-07
4.89954e-07
4.93148e-07
4.93389e-07
4.92052e-07
4.91546e-07
4.92776e-07
4.98331e-07
5.09824e-07
5.16878e-07
5.21401e-07
5.31519e-07
5.36139e-07
5.37965e-07
5.40706e-07
5.41992e-07
5.37075e-07
5.28104e-07
5.17244e-07
5.01776e-07
4.74897e-07
4.41135e-07
4.15847e-07
3.99857e-07
3.94089e-07
4.03085e-07
4.10613e-07
4.0978e-07
3.82983e-07
2.98614e-07
0.999996
0.999995
0.999994
0.999994
0.999993
0.999992
0.999992
0.999991
0.99999
0.99999
0.99999
0.99999
0.99999
0.99999
0.99999
0.99999
0.99999
0.99999
0.99999
0.99999
0.99999
0.99999
0.99999
0.99999
0.99999
0.99999
0.99999
0.99999
0.99999
0.99999
0.99999
0.99999
0.99999
0.99999
0.99999
0.99999
0.99999
0.99999
0.99999
0.99999
0.99999
0.99999
0.99999
0.999989
0.999988
0.999985
0.999982
0.999979
0.999973
0.999963
0.999952
0.999934
0.999915
0.999901
0.999905
0.999903
0.999906
0.999895
0.999391
0.955267
0.039739
0.000210393
7.34537e-07
4.83244e-07
4.74991e-07
4.75111e-07
4.77247e-07
4.81295e-07
4.82999e-07
4.82043e-07
4.82208e-07
4.83215e-07
4.88627e-07
5.03049e-07
5.1795e-07
5.25572e-07
5.50606e-07
5.88919e-07
5.98846e-07
5.87013e-07
5.72281e-07
5.67977e-07
5.66e-07
5.53603e-07
5.03485e-07
4.65153e-07
4.44954e-07
4.38559e-07
4.38215e-07
4.38068e-07
4.39536e-07
4.54478e-07
4.51423e-07
4.45058e-07
4.18247e-07
3.30272e-07
0.999996
0.999996
0.999995
0.999994
0.999993
0.999992
0.999992
0.999991
0.99999
0.99999
0.99999
0.99999
0.99999
0.99999
0.99999
0.99999
0.99999
0.99999
0.99999
0.99999
0.99999
0.99999
0.99999
0.99999
0.99999
0.99999
0.99999
0.99999
0.99999
0.99999
0.99999
0.99999
0.99999
0.99999
0.99999
0.99999
0.99999
0.99999
0.99999
0.99999
0.99999
0.99999
0.99999
0.999989
0.999987
0.999983
0.999978
0.999974
0.999972
0.999967
0.999955
0.999934
0.999909
0.999893
0.999893
0.99989
0.999894
0.999885
0.999552
0.961106
0.0261014
0.000113227
4.75023e-07
4.74987e-07
4.74952e-07
4.74936e-07
4.74964e-07
4.75002e-07
4.7504e-07
4.75077e-07
5.01165e-07
5.38627e-07
5.3099e-07
5.39837e-07
5.4564e-07
5.57971e-07
6.29834e-07
6.80012e-07
6.87394e-07
6.79312e-07
6.57118e-07
6.32511e-07
5.97427e-07
5.64081e-07
5.32856e-07
5.07562e-07
4.9541e-07
4.91665e-07
4.92759e-07
4.94153e-07
4.95144e-07
5.03537e-07
4.91924e-07
4.76543e-07
4.35226e-07
3.34304e-07
0.999997
0.999996
0.999995
0.999994
0.999993
0.999992
0.999992
0.999991
0.999991
0.99999
0.99999
0.99999
0.99999
0.99999
0.99999
0.99999
0.99999
0.99999
0.99999
0.99999
0.99999
0.99999
0.99999
0.99999
0.99999
0.99999
0.99999
0.99999
0.99999
0.99999
0.99999
0.99999
0.99999
0.99999
0.99999
0.99999
0.99999
0.99999
0.99999
0.99999
0.99999
0.99999
0.99999
0.999989
0.999987
0.999983
0.999979
0.999975
0.999969
0.999956
0.999937
0.999914
0.999896
0.999889
0.999892
0.99989
0.999894
0.999885
0.999612
0.944439
0.0197278
0.000117832
2.87947e-05
7.11186e-06
2.72121e-06
2.15426e-06
2.46763e-06
3.3732e-06
4.14148e-06
4.54008e-06
4.37254e-06
4.16667e-06
4.89212e-06
5.74417e-06
6.4039e-06
6.53678e-06
5.80746e-06
3.74833e-06
2.75916e-06
2.3436e-06
2.17154e-06
1.85139e-06
9.57967e-07
7.51441e-07
8.9526e-07
9.84287e-07
9.76413e-07
9.13231e-07
7.83323e-07
7.14942e-07
7.15031e-07
7.00904e-07
5.88879e-07
5.23525e-07
4.56302e-07
3.34463e-07
0.999997
0.999996
0.999995
0.999995
0.999994
0.999993
0.999992
0.999991
0.999991
0.99999
0.99999
0.99999
0.99999
0.99999
0.99999
0.99999
0.99999
0.99999
0.99999
0.99999
0.99999
0.99999
0.99999
0.99999
0.99999
0.99999
0.99999
0.99999
0.99999
0.99999
0.99999
0.99999
0.99999
0.99999
0.99999
0.99999
0.99999
0.99999
0.99999
0.99999
0.99999
0.99999
0.99999
0.999989
0.999987
0.999984
0.999981
0.999972
0.999952
0.999927
0.999908
0.999891
0.999887
0.999886
0.999892
0.999889
0.999893
0.999885
0.99958
0.897643
0.0196258
0.00204776
0.0015569
0.00105811
0.00092149
0.000811784
0.000753765
0.000729473
0.000775999
0.000806247
0.000821303
0.000829076
0.000843445
0.000854611
0.000857847
0.000797425
0.000741688
0.000657868
0.000571397
0.000489659
0.000414948
0.000346074
0.00028475
0.000229964
0.000178735
0.000131162
9.09694e-05
5.78648e-05
3.15161e-05
1.44355e-05
5.29802e-06
2.21835e-06
1.1615e-06
7.29206e-07
6.22911e-07
7.65561e-07
0.999997
0.999996
0.999996
0.999995
0.999994
0.999993
0.999992
0.999991
0.999991
0.99999
0.99999
0.99999
0.99999
0.99999
0.99999
0.99999
0.99999
0.99999
0.99999
0.99999
0.99999
0.99999
0.99999
0.99999
0.99999
0.99999
0.99999
0.99999
0.99999
0.99999
0.99999
0.99999
0.99999
0.99999
0.99999
0.99999
0.99999
0.99999
0.99999
0.99999
0.99999
0.99999
0.99999
0.999989
0.999988
0.999985
0.999974
0.999942
0.999912
0.999892
0.999885
0.999879
0.999883
0.999883
0.999882
0.999882
0.999886
0.999878
0.999259
0.768084
0.0205804
0.00933378
0.00896797
0.0083705
0.00798973
0.00761996
0.00731031
0.00698163
0.00685585
0.00689506
0.00702123
0.0070828
0.00700085
0.00684378
0.00669353
0.00644176
0.00619474
0.00588348
0.00550549
0.0051108
0.00474315
0.00436421
0.00401022
0.0036725
0.00332534
0.0029276
0.00254147
0.00205905
0.00156594
0.00107338
0.000637363
0.000332623
0.000142316
5.74809e-05
2.82114e-05
1.18525e-05
0.999997
0.999997
0.999996
0.999995
0.999994
0.999993
0.999992
0.999991
0.999991
0.999991
0.99999
0.99999
0.99999
0.99999
0.99999
0.99999
0.99999
0.99999
0.99999
0.99999
0.99999
0.99999
0.99999
0.99999
0.99999
0.99999
0.99999
0.99999
0.99999
0.99999
0.99999
0.99999
0.99999
0.99999
0.99999
0.99999
0.99999
0.99999
0.99999
0.99999
0.99999
0.99999
0.99999
0.999989
0.999988
0.999983
0.999936
0.999897
0.999885
0.999878
0.999877
0.999873
0.999872
0.999874
0.999879
0.99988
0.99988
0.999882
0.999893
0.622508
0.0218412
0.01542
0.0156723
0.0155028
0.0154245
0.0154593
0.0153589
0.0153357
0.0152066
0.0152013
0.015199
0.0151442
0.0148451
0.0144474
0.0141496
0.0139084
0.0136975
0.0134091
0.0130407
0.0125513
0.0119888
0.0113342
0.0106188
0.0098547
0.00907477
0.00824673
0.00725632
0.00591995
0.00435394
0.00265501
0.00123695
0.000460709
0.000316315
0.000415085
0.000460479
0.000111557
0.999997
0.999997
0.999996
0.999996
0.999994
0.999994
0.999993
0.999992
0.999991
0.999991
0.99999
0.99999
0.99999
0.99999
0.99999
0.99999
0.99999
0.99999
0.99999
0.99999
0.99999
0.99999
0.99999
0.99999
0.99999
0.99999
0.99999
0.99999
0.99999
0.99999
0.99999
0.99999
0.99999
0.99999
0.99999
0.99999
0.99999
0.99999
0.99999
0.99999
0.99999
0.99999
0.99999
0.999989
0.999988
0.999958
0.999888
0.99988
0.999884
0.999885
0.999886
0.999888
0.999888
0.999888
0.999886
0.99988
0.999874
0.999868
0.999893
0.795425
0.0270557
0.00988931
0.0101127
0.0100454
0.0104955
0.0113641
0.0120725
0.0127694
0.013319
0.0136325
0.0137827
0.0138382
0.0138028
0.0136986
0.013715
0.0138143
0.0140763
0.0144349
0.014686
0.0148132
0.0148533
0.0144615
0.0139243
0.0131735
0.0121491
0.0108569
0.00938114
0.00758133
0.00550055
0.00345447
0.00163741
0.000398876
4.0403e-07
4.0403e-07
4.0403e-07
4.0403e-07
0.999997
0.999997
0.999997
0.999996
0.999995
0.999994
0.999993
0.999992
0.999991
0.999991
0.99999
0.99999
0.99999
0.99999
0.99999
0.99999
0.99999
0.99999
0.99999
0.99999
0.99999
0.99999
0.99999
0.99999
0.99999
0.99999
0.99999
0.99999
0.99999
0.99999
0.99999
0.99999
0.99999
0.99999
0.99999
0.99999
0.99999
0.99999
0.99999
0.99999
0.99999
0.99999
0.99999
0.999989
0.999987
0.99992
0.999885
0.999886
0.999888
0.999889
0.999889
0.999889
0.999889
0.999889
0.99989
0.999889
0.99989
0.999842
0.999688
0.870418
0.0153671
0.00133392
0.0010521
0.000720466
0.000776854
0.000848591
0.00089383
0.000892759
0.000782318
0.000682937
0.000624583
0.000586838
0.000579391
0.000651394
0.000704202
0.000746146
0.000769447
0.000733563
0.000718017
0.000701818
0.000701956
0.000698293
0.000639086
0.000563978
0.000468093
0.000364798
0.000248357
0.000142783
8.58137e-05
7.63823e-05
9.14173e-05
8.88466e-05
5.58821e-05
2.10965e-05
6.40453e-07
4.04773e-07
0.999998
0.999997
0.999997
0.999997
0.999995
0.999994
0.999993
0.999992
0.999991
0.999991
0.99999
0.99999
0.99999
0.99999
0.99999
0.99999
0.99999
0.99999
0.99999
0.99999
0.99999
0.99999
0.99999
0.99999
0.99999
0.99999
0.99999
0.99999
0.99999
0.99999
0.99999
0.99999
0.99999
0.99999
0.99999
0.99999
0.99999
0.99999
0.99999
0.99999
0.99999
0.99999
0.99999
0.999989
0.999987
0.999957
0.999886
0.999884
0.999885
0.999886
0.999883
0.99988
0.999881
0.99988
0.999885
0.999884
0.999896
0.999883
0.999823
0.940613
0.0215514
4.24473e-05
1.00259e-05
2.01203e-06
1.31734e-06
8.63262e-07
7.54511e-07
7.60901e-07
1.07573e-06
6.64125e-07
6.37315e-07
6.37315e-07
6.37315e-07
6.37315e-07
6.37315e-07
6.37315e-07
6.37315e-07
6.37316e-07
1.98004e-06
1.68893e-06
2.17138e-06
2.6225e-06
3.14206e-06
3.16787e-06
2.31177e-06
1.84053e-06
1.20256e-06
7.76617e-07
3.92303e-07
3.89041e-07
3.89041e-07
3.89908e-07
3.94307e-07
4.15465e-07
4.83246e-07
5.05085e-07
0.999998
0.999998
0.999998
0.999997
0.999996
0.999995
0.999993
0.999992
0.999991
0.999991
0.99999
0.99999
0.99999
0.99999
0.99999
0.99999
0.99999
0.99999
0.99999
0.99999
0.99999
0.99999
0.99999
0.99999
0.99999
0.99999
0.99999
0.99999
0.99999
0.99999
0.99999
0.99999
0.99999
0.99999
0.99999
0.99999
0.99999
0.99999
0.99999
0.99999
0.99999
0.99999
0.99999
0.999989
0.999987
0.999983
0.999923
0.99989
0.999884
0.999882
0.99988
0.999878
0.999878
0.999879
0.999883
0.999883
0.999896
0.999876
0.999769
0.971046
0.0508675
0.000157167
6.05981e-07
6.71981e-07
6.28863e-07
6.37093e-07
6.35854e-07
6.53152e-07
6.80387e-07
6.94277e-07
7.0589e-07
7.17433e-07
7.21486e-07
7.15636e-07
7.03586e-07
6.80417e-07
6.5154e-07
6.9292e-07
8.64545e-07
8.86634e-07
8.35564e-07
7.96504e-07
6.69184e-07
5.63935e-07
4.87153e-07
4.43452e-07
4.27986e-07
4.31989e-07
5.17957e-07
5.8734e-07
5.97842e-07
6.02069e-07
6.08425e-07
6.19526e-07
6.15299e-07
5.51569e-07
0.999998
0.999998
0.999998
0.999998
0.999997
0.999995
0.999993
0.999992
0.999991
0.999991
0.99999
0.99999
0.99999
0.99999
0.99999
0.99999
0.99999
0.99999
0.99999
0.99999
0.99999
0.99999
0.99999
0.99999
0.99999
0.99999
0.99999
0.99999
0.99999
0.99999
0.99999
0.99999
0.99999
0.99999
0.99999
0.99999
0.99999
0.99999
0.99999
0.99999
0.99999
0.99999
0.99999
0.999989
0.999987
0.999984
0.999968
0.999924
0.999896
0.999886
0.999882
0.999882
0.999884
0.999887
0.999891
0.999891
0.999894
0.999868
0.999749
0.980563
0.074987
0.000441946
6.34733e-07
6.77089e-07
6.28785e-07
6.41484e-07
6.42753e-07
6.55777e-07
6.79272e-07
6.92697e-07
6.9734e-07
6.99031e-07
6.94117e-07
6.80037e-07
6.56878e-07
6.36424e-07
6.21405e-07
6.39687e-07
7.16395e-07
7.69945e-07
7.21379e-07
6.66184e-07
6.07758e-07
5.72989e-07
5.16516e-07
4.73682e-07
4.64873e-07
4.92854e-07
5.65685e-07
5.88895e-07
5.98381e-07
6.04812e-07
6.13363e-07
6.27914e-07
6.25634e-07
5.59984e-07
0.999998
0.999998
0.999998
0.999998
0.999997
0.999996
0.999995
0.999993
0.999991
0.99999
0.99999
0.99999
0.99999
0.99999
0.99999
0.99999
0.99999
0.99999
0.99999
0.99999
0.99999
0.99999
0.99999
0.99999
0.99999
0.99999
0.99999
0.99999
0.99999
0.99999
0.99999
0.99999
0.99999
0.99999
0.99999
0.99999
0.99999
0.99999
0.99999
0.99999
0.99999
0.99999
0.99999
0.999989
0.999988
0.999984
0.999979
0.999959
0.999927
0.999905
0.999892
0.999889
0.99989
0.99989
0.99989
0.999889
0.999892
0.999861
0.999709
0.981488
0.076957
0.000445873
6.44977e-07
6.2935e-07
6.08442e-07
6.094e-07
6.11705e-07
6.16559e-07
6.28328e-07
6.51185e-07
6.78429e-07
7.00084e-07
7.07223e-07
7.05107e-07
6.88893e-07
6.5034e-07
6.09288e-07
6.12293e-07
6.96832e-07
7.346e-07
6.86691e-07
6.48168e-07
6.21866e-07
6.00633e-07
5.66068e-07
5.22778e-07
5.21605e-07
5.41072e-07
5.67801e-07
5.85887e-07
6.0163e-07
6.12948e-07
6.20664e-07
6.31671e-07
6.2858e-07
5.63643e-07
0.999998
0.999998
0.999998
0.999998
0.999998
0.999997
0.999996
0.999994
0.999991
0.99999
0.99999
0.99999
0.99999
0.99999
0.99999
0.99999
0.99999
0.99999
0.99999
0.99999
0.99999
0.99999
0.99999
0.99999
0.99999
0.99999
0.99999
0.99999
0.99999
0.99999
0.99999
0.99999
0.99999
0.99999
0.99999
0.99999
0.99999
0.99999
0.99999
0.99999
0.99999
0.99999
0.99999
0.99999
0.999988
0.999985
0.999979
0.99997
0.999949
0.999928
0.99991
0.9999
0.999896
0.999893
0.999893
0.999891
0.999893
0.999839
0.999664
0.978443
0.0841187
0.000498407
6.70561e-07
6.26021e-07
6.10102e-07
6.11926e-07
6.16234e-07
6.16075e-07
6.16393e-07
6.23568e-07
6.37818e-07
6.53401e-07
6.68335e-07
6.81812e-07
6.92054e-07
6.86082e-07
6.4889e-07
6.08693e-07
6.73445e-07
7.07939e-07
6.67608e-07
6.45226e-07
6.26e-07
6.1074e-07
6.06999e-07
5.90443e-07
5.94023e-07
6.03987e-07
6.08635e-07
6.11137e-07
6.16317e-07
6.22934e-07
6.29975e-07
6.36858e-07
6.34044e-07
5.64754e-07
0.999998
0.999997
0.999997
0.999997
0.999997
0.999998
0.999997
0.999995
0.999992
0.999991
0.99999
0.99999
0.99999
0.99999
0.99999
0.99999
0.99999
0.99999
0.99999
0.99999
0.99999
0.99999
0.99999
0.99999
0.99999
0.99999
0.99999
0.99999
0.99999
0.99999
0.99999
0.99999
0.99999
0.99999
0.99999
0.99999
0.99999
0.99999
0.99999
0.99999
0.99999
0.99999
0.99999
0.99999
0.999988
0.999985
0.999979
0.999969
0.999954
0.999937
0.999918
0.999908
0.999904
0.9999
0.9999
0.999897
0.999884
0.999856
0.999749
0.972581
0.0706412
0.00036121
6.06525e-07
6.15047e-07
6.06392e-07
6.05971e-07
6.06422e-07
6.06744e-07
6.07655e-07
6.12335e-07
6.24116e-07
6.37079e-07
6.45235e-07
6.49652e-07
6.55071e-07
6.6666e-07
6.69806e-07
6.46218e-07
6.25374e-07
6.58095e-07
6.33758e-07
6.27165e-07
6.23249e-07
6.13687e-07
6.06495e-07
5.99566e-07
5.9973e-07
5.98116e-07
5.97718e-07
6.03293e-07
6.16289e-07
6.29237e-07
6.35786e-07
6.40219e-07
6.35669e-07
5.65746e-07
0.999998
0.999998
0.999998
0.999997
0.999997
0.999997
0.999997
0.999995
0.999993
0.999991
0.99999
0.99999
0.99999
0.99999
0.99999
0.99999
0.99999
0.99999
0.99999
0.99999
0.99999
0.99999
0.99999
0.99999
0.99999
0.99999
0.99999
0.99999
0.99999
0.99999
0.99999
0.99999
0.99999
0.99999
0.99999
0.99999
0.99999
0.99999
0.99999
0.99999
0.99999
0.99999
0.99999
0.99999
0.999988
0.999985
0.999977
0.999965
0.999951
0.999934
0.999919
0.999908
0.999906
0.999899
0.999901
0.999895
0.999895
0.999865
0.999695
0.963213
0.0694376
0.000512426
1.16044e-06
6.05955e-07
6.07596e-07
6.08856e-07
6.08996e-07
6.08781e-07
6.09077e-07
6.09978e-07
6.13165e-07
6.20987e-07
6.29473e-07
6.3486e-07
6.40066e-07
6.47455e-07
6.54993e-07
6.53676e-07
6.42983e-07
6.15766e-07
6.14567e-07
6.18487e-07
6.18817e-07
6.17485e-07
6.13591e-07
6.09153e-07
6.04838e-07
6.02538e-07
6.04177e-07
6.11402e-07
6.23518e-07
6.38935e-07
6.44061e-07
6.47499e-07
6.39423e-07
5.44254e-07
0.999996
0.999995
0.999995
0.999994
0.999994
0.999992
0.999991
0.999991
0.99999
0.99999
0.99999
0.99999
0.99999
0.99999
0.99999
0.99999
0.99999
0.99999
0.99999
0.99999
0.99999
0.99999
0.99999
0.99999
0.99999
0.99999
0.99999
0.99999
0.99999
0.99999
0.99999
0.99999
0.99999
0.99999
0.99999
0.99999
0.99999
0.99999
0.99999
0.99999
0.99999
0.99999
0.99999
0.99999
0.999989
0.999987
0.999983
0.999973
0.999958
0.999948
0.999941
0.999932
0.999923
0.999914
0.999911
0.999905
0.999906
0.999882
0.99933
0.952408
0.0447509
0.000183259
5.20749e-07
4.88283e-07
4.88302e-07
4.87718e-07
4.87709e-07
4.88677e-07
4.90207e-07
4.90719e-07
4.91477e-07
4.92137e-07
4.92974e-07
4.94636e-07
5.02682e-07
5.14387e-07
5.2017e-07
5.31614e-07
5.3996e-07
5.48155e-07
5.53622e-07
5.49312e-07
5.45559e-07
5.40262e-07
5.28763e-07
5.08697e-07
4.81183e-07
4.49798e-07
4.29695e-07
4.12436e-07
3.95649e-07
3.96833e-07
3.95813e-07
4.02035e-07
3.73378e-07
2.92863e-07
0.999997
0.999996
0.999994
0.999994
0.999993
0.999992
0.999991
0.999991
0.999991
0.99999
0.99999
0.99999
0.99999
0.99999
0.99999
0.99999
0.99999
0.99999
0.99999
0.99999
0.99999
0.99999
0.99999
0.99999
0.99999
0.99999
0.99999
0.99999
0.99999
0.99999
0.99999
0.99999
0.99999
0.99999
0.99999
0.99999
0.99999
0.99999
0.99999
0.99999
0.99999
0.99999
0.99999
0.999989
0.999988
0.999984
0.999981
0.999979
0.999973
0.999964
0.999953
0.999937
0.999919
0.999903
0.999899
0.999893
0.999895
0.999858
0.999547
0.932957
0.02244
2.0023e-05
4.75096e-07
4.94452e-07
4.90805e-07
4.85729e-07
4.86316e-07
4.87036e-07
4.88118e-07
4.88375e-07
4.88752e-07
4.88814e-07
4.88784e-07
4.89921e-07
5.02752e-07
5.15909e-07
5.25043e-07
5.42168e-07
5.53637e-07
5.68199e-07
5.77223e-07
5.63042e-07
5.53928e-07
5.44528e-07
5.11046e-07
4.8157e-07
4.66841e-07
4.61715e-07
4.54984e-07
4.28586e-07
4.0444e-07
4.04517e-07
4.22792e-07
4.35741e-07
3.96499e-07
3.10608e-07
0.999998
0.999996
0.999995
0.999994
0.999993
0.999992
0.999992
0.999991
0.999991
0.999991
0.99999
0.99999
0.99999
0.99999
0.99999
0.99999
0.99999
0.99999
0.99999
0.99999
0.99999
0.99999
0.99999
0.99999
0.99999
0.99999
0.99999
0.99999
0.99999
0.99999
0.99999
0.99999
0.99999
0.99999
0.99999
0.99999
0.99999
0.99999
0.99999
0.99999
0.99999
0.99999
0.99999
0.999989
0.999987
0.999984
0.999979
0.999976
0.999975
0.999971
0.999956
0.999933
0.99991
0.999895
0.999893
0.99989
0.999893
0.999868
0.999539
0.916457
0.0103089
9.74042e-07
4.75061e-07
6.05758e-07
4.95241e-07
4.74974e-07
4.77837e-07
4.81558e-07
4.80055e-07
4.75107e-07
4.75139e-07
4.75173e-07
5.15548e-07
6.32572e-07
7.07104e-07
7.02116e-07
6.62673e-07
5.29814e-07
5.29565e-07
6.23852e-07
6.54283e-07
6.23319e-07
6.05837e-07
5.75271e-07
5.56613e-07
5.40235e-07
5.35479e-07
5.41845e-07
5.27558e-07
4.9639e-07
4.78698e-07
4.83481e-07
4.85517e-07
4.69124e-07
4.054e-07
3.09896e-07
0.999998
0.999997
0.999995
0.999994
0.999994
0.999993
0.999992
0.999992
0.999991
0.999991
0.99999
0.99999
0.99999
0.99999
0.99999
0.99999
0.99999
0.99999
0.99999
0.99999
0.99999
0.99999
0.99999
0.99999
0.99999
0.99999
0.99999
0.99999
0.99999
0.99999
0.99999
0.99999
0.99999
0.99999
0.99999
0.99999
0.99999
0.99999
0.99999
0.99999
0.99999
0.99999
0.99999
0.999989
0.999987
0.999985
0.999981
0.999976
0.999972
0.999961
0.999938
0.999911
0.999895
0.999888
0.99989
0.999888
0.999891
0.999874
0.999694
0.91458
0.00847261
3.75606e-05
2.77432e-05
9.4595e-06
9.38892e-06
9.03812e-06
9.64747e-06
1.01582e-05
1.05605e-05
1.00134e-05
9.34779e-06
9.39367e-06
9.58258e-06
9.82655e-06
9.18861e-06
8.29633e-06
7.44942e-06
5.96333e-06
5.10246e-06
4.24393e-06
4.13693e-06
3.98533e-06
3.34786e-06
2.7752e-06
2.55345e-06
2.33178e-06
2.26416e-06
1.62397e-06
1.05379e-06
8.2792e-07
1.00371e-06
8.41482e-07
7.68319e-07
5.23314e-07
4.32192e-07
3.38868e-07
0.999998
0.999998
0.999996
0.999995
0.999994
0.999993
0.999992
0.999992
0.999991
0.999991
0.99999
0.99999
0.99999
0.99999
0.99999
0.99999
0.99999
0.99999
0.99999
0.99999
0.99999
0.99999
0.99999
0.99999
0.99999
0.99999
0.99999
0.99999
0.99999
0.99999
0.99999
0.99999
0.99999
0.99999
0.99999
0.99999
0.99999
0.99999
0.99999
0.99999
0.99999
0.99999
0.99999
0.999989
0.999987
0.999985
0.999981
0.999971
0.999952
0.999926
0.999905
0.999889
0.999885
0.999886
0.999888
0.999888
0.999888
0.999865
0.999755
0.839875
0.0145808
0.00230229
0.00180645
0.00117821
0.00105676
0.000908693
0.000973062
0.00103786
0.00110838
0.00115301
0.00116352
0.00114038
0.00118017
0.00121198
0.0012681
0.00133457
0.00138008
0.00132028
0.00127175
0.0012543
0.00125178
0.00127988
0.00130439
0.00130643
0.00118399
0.0010383
0.000843124
0.000642332
0.000476628
0.000337999
0.000224437
0.000121898
5.84271e-05
2.13732e-05
6.25377e-06
2.41174e-06
0.999998
0.999998
0.999996
0.999995
0.999994
0.999993
0.999992
0.999992
0.999991
0.999991
0.99999
0.99999
0.99999
0.99999
0.99999
0.99999
0.99999
0.99999
0.99999
0.99999
0.99999
0.99999
0.99999
0.99999
0.99999
0.99999
0.99999
0.99999
0.99999
0.99999
0.99999
0.99999
0.99999
0.99999
0.99999
0.99999
0.99999
0.99999
0.99999
0.99999
0.99999
0.99999
0.99999
0.999989
0.999987
0.999984
0.999971
0.99994
0.999909
0.999889
0.999884
0.99988
0.999883
0.999887
0.999887
0.999882
0.999871
0.999824
0.99969
0.647128
0.0245586
0.0162125
0.0158673
0.0156623
0.0161118
0.0164355
0.0167617
0.0172884
0.0183656
0.0196747
0.0208713
0.0217227
0.0223949
0.0228965
0.0232614
0.023507
0.0236187
0.0235449
0.0235162
0.02354
0.0234796
0.0229047
0.0223826
0.0216029
0.0202007
0.0189319
0.0174513
0.0161615
0.0149752
0.0137398
0.0119482
0.00943989
0.00669186
0.00407303
0.00193602
0.000826914
0.999998
0.999998
0.999997
0.999996
0.999995
0.999994
0.999993
0.999992
0.999991
0.999991
0.99999
0.99999
0.99999
0.99999
0.99999
0.99999
0.99999
0.99999
0.99999
0.99999
0.99999
0.99999
0.99999
0.99999
0.99999
0.99999
0.99999
0.99999
0.99999
0.99999
0.99999
0.99999
0.99999
0.99999
0.99999
0.99999
0.99999
0.99999
0.99999
0.99999
0.99999
0.99999
0.99999
0.999989
0.999987
0.999981
0.999935
0.999897
0.999884
0.999878
0.999879
0.999878
0.999879
0.99988
0.999875
0.999866
0.999852
0.999832
0.999855
0.384919
0.0308632
0.0295784
0.0301679
0.0305605
0.0310922
0.0319114
0.032753
0.033537
0.0342128
0.0346498
0.0348506
0.0349127
0.0348743
0.0347391
0.034741
0.0351038
0.036364
0.0378433
0.0394103
0.041098
0.0428885
0.0449252
0.0471921
0.0494221
0.0512861
0.0529688
0.0552095
0.0587135
0.0627122
0.066503
0.069273
0.0704697
0.0678307
0.0628877
0.0555196
0.0477547
0.999998
0.999998
0.999998
0.999996
0.999995
0.999994
0.999993
0.999992
0.999991
0.999991
0.99999
0.99999
0.99999
0.99999
0.99999
0.99999
0.99999
0.99999
0.99999
0.99999
0.99999
0.99999
0.99999
0.99999
0.99999
0.99999
0.99999
0.99999
0.99999
0.99999
0.99999
0.99999
0.99999
0.99999
0.99999
0.99999
0.99999
0.99999
0.99999
0.99999
0.99999
0.99999
0.99999
0.999989
0.999987
0.999966
0.999893
0.99988
0.999882
0.999882
0.99988
0.999877
0.999874
0.99987
0.999867
0.999865
0.999865
0.999865
0.999893
0.698495
0.0209446
0.0127657
0.0127745
0.0128209
0.0132818
0.014052
0.0148568
0.01571
0.0166801
0.0179388
0.0195909
0.0214831
0.0235598
0.0257119
0.0279469
0.0303836
0.032857
0.0352165
0.037854
0.0406268
0.0433818
0.0461122
0.0495411
0.053437
0.0573162
0.0610793
0.0656011
0.0718707
0.0803173
0.0907059
0.101741
0.114468
0.129881
0.15152
0.197261
0.392096
0.999998
0.999998
0.999998
0.999997
0.999996
0.999994
0.999993
0.999992
0.999991
0.999991
0.99999
0.99999
0.99999
0.99999
0.99999
0.99999
0.99999
0.99999
0.99999
0.99999
0.99999
0.99999
0.99999
0.99999
0.99999
0.99999
0.99999
0.99999
0.99999
0.99999
0.99999
0.99999
0.99999
0.99999
0.99999
0.99999
0.99999
0.99999
0.99999
0.99999
0.99999
0.99999
0.99999
0.999989
0.999987
0.999953
0.999885
0.999884
0.999884
0.999883
0.99988
0.999877
0.999874
0.999873
0.999874
0.999882
0.999889
0.999888
0.999893
0.872543
0.0131349
0.00110878
0.000941297
0.000725799
0.000720095
0.000818745
0.000928883
0.00105206
0.00116074
0.00128442
0.0014875
0.00174048
0.00207189
0.00247636
0.00288396
0.00330815
0.0037653
0.00423885
0.00473215
0.00524427
0.00563882
0.0059052
0.0059523
0.00574179
0.00558964
0.00530937
0.00482627
0.00368337
0.0018027
0.000643468
0.00115649
0.00155222
0.00218956
0.00330669
0.00500303
0.00653396
0.999998
0.999998
0.999998
0.999998
0.999997
0.999995
0.999993
0.999992
0.999991
0.999991
0.99999
0.99999
0.99999
0.99999
0.99999
0.99999
0.99999
0.99999
0.99999
0.99999
0.99999
0.99999
0.99999
0.99999
0.99999
0.99999
0.99999
0.99999
0.99999
0.99999
0.99999
0.99999
0.99999
0.99999
0.99999
0.99999
0.99999
0.99999
0.99999
0.99999
0.99999
0.99999
0.99999
0.999989
0.999987
0.999982
0.999894
0.999883
0.999883
0.999883
0.999883
0.999882
0.999882
0.99988
0.999883
0.999884
0.999894
0.999881
0.999893
0.921511
0.00500109
3.00404e-05
3.03046e-05
2.03663e-05
2.01171e-05
2.32765e-05
2.58886e-05
2.86434e-05
3.04699e-05
3.10767e-05
3.48012e-05
4.06272e-05
4.84951e-05
5.80494e-05
6.67895e-05
7.52341e-05
8.24984e-05
8.51998e-05
8.30431e-05
8.54347e-05
9.04062e-05
9.26224e-05
8.1071e-05
6.736e-05
5.29404e-05
4.14366e-05
2.63671e-05
1.14007e-05
2.01987e-06
3.89041e-07
9.46673e-07
1.02426e-06
6.44336e-07
5.68307e-07
5.13809e-07
4.79763e-07
0.999998
0.999999
0.999999
0.999998
0.999997
0.999996
0.999994
0.999992
0.999991
0.999991
0.99999
0.99999
0.99999
0.99999
0.99999
0.99999
0.99999
0.99999
0.99999
0.99999
0.99999
0.99999
0.99999
0.99999
0.99999
0.99999
0.99999
0.99999
0.99999
0.99999
0.99999
0.99999
0.99999
0.99999
0.99999
0.99999
0.99999
0.99999
0.99999
0.99999
0.99999
0.99999
0.99999
0.999989
0.999988
0.999983
0.999949
0.999901
0.999886
0.999883
0.999881
0.99988
0.99988
0.999883
0.999889
0.99989
0.999897
0.999857
0.999886
0.961851
0.0210902
6.05895e-07
1.11591e-06
6.68315e-07
7.82432e-07
6.36311e-07
6.36478e-07
6.89649e-07
7.10509e-07
6.71845e-07
6.47755e-07
6.47242e-07
6.47508e-07
6.52004e-07
6.51233e-07
6.52922e-07
7.12844e-07
7.70528e-07
8.20481e-07
8.91219e-07
9.1978e-07
1.09657e-06
9.28527e-07
7.95509e-07
7.86347e-07
6.04106e-07
5.57775e-07
5.01566e-07
5.53656e-07
5.86797e-07
6.09481e-07
6.07145e-07
5.99263e-07
6.06033e-07
6.15192e-07
5.59352e-07
0.999998
0.999999
0.999999
0.999999
0.999998
0.999997
0.999995
0.999993
0.999991
0.999991
0.99999
0.99999
0.99999
0.99999
0.99999
0.99999
0.99999
0.99999
0.99999
0.99999
0.99999
0.99999
0.99999
0.99999
0.99999
0.99999
0.99999
0.99999
0.99999
0.99999
0.99999
0.99999
0.99999
0.99999
0.99999
0.99999
0.99999
0.99999
0.99999
0.99999
0.99999
0.99999
0.99999
0.999989
0.999988
0.999983
0.999975
0.999942
0.999911
0.999896
0.999887
0.999887
0.999893
0.999898
0.9999
0.999899
0.999897
0.999804
0.999825
0.977877
0.0385416
6.05906e-07
7.8754e-07
6.68396e-07
6.78469e-07
6.5825e-07
6.50069e-07
6.53307e-07
6.60101e-07
6.79198e-07
6.90844e-07
6.88627e-07
6.85212e-07
6.80195e-07
6.69112e-07
6.52272e-07
6.27494e-07
6.14165e-07
6.22112e-07
6.21698e-07
6.07956e-07
5.91209e-07
5.4456e-07
5.23252e-07
5.37121e-07
5.0058e-07
4.86924e-07
5.06942e-07
5.57854e-07
5.95074e-07
6.16961e-07
6.13924e-07
5.93473e-07
5.99974e-07
6.15931e-07
5.57397e-07
0.999998
0.999999
0.999999
0.999999
0.999999
0.999998
0.999997
0.999994
0.999991
0.999991
0.99999
0.99999
0.99999
0.99999
0.99999
0.99999
0.99999
0.99999
0.99999
0.99999
0.99999
0.99999
0.99999
0.99999
0.99999
0.99999
0.99999
0.99999
0.99999
0.99999
0.99999
0.99999
0.99999
0.99999
0.99999
0.99999
0.99999
0.99999
0.99999
0.99999
0.99999
0.99999
0.99999
0.99999
0.999988
0.999984
0.999974
0.999959
0.999937
0.999918
0.999906
0.999912
0.999912
0.999902
0.9999
0.999897
0.99988
0.99974
0.999782
0.975352
0.0245853
6.05895e-07
7.89695e-07
6.89675e-07
6.237e-07
6.21131e-07
6.15783e-07
6.17591e-07
6.23817e-07
6.31376e-07
6.41554e-07
6.54316e-07
6.69222e-07
6.80351e-07
6.7734e-07
6.58388e-07
6.29485e-07
6.14255e-07
6.3806e-07
6.65961e-07
6.28585e-07
5.99949e-07
6.01519e-07
5.99243e-07
5.76764e-07
5.30428e-07
5.09511e-07
5.2705e-07
5.73327e-07
6.22135e-07
6.36708e-07
6.26246e-07
5.90177e-07
5.97043e-07
6.14858e-07
5.59768e-07
0.999998
0.999998
0.999998
0.999998
0.999999
0.999999
0.999998
0.999996
0.999993
0.99999
0.99999
0.99999
0.99999
0.99999
0.99999
0.99999
0.99999
0.99999
0.99999
0.99999
0.99999
0.99999
0.99999
0.99999
0.99999
0.99999
0.99999
0.99999
0.99999
0.99999
0.99999
0.99999
0.99999
0.99999
0.99999
0.99999
0.99999
0.99999
0.99999
0.99999
0.99999
0.99999
0.99999
0.99999
0.999988
0.999984
0.999975
0.99996
0.999945
0.999931
0.999924
0.999915
0.999907
0.999897
0.9999
0.999895
0.999843
0.999677
0.999752
0.928966
0.0158881
9.09821e-06
6.05971e-07
6.56387e-07
6.41096e-07
6.24004e-07
6.19214e-07
6.15735e-07
6.11774e-07
6.11786e-07
6.11774e-07
6.14098e-07
6.20891e-07
6.34391e-07
6.55028e-07
6.70214e-07
6.63901e-07
6.40558e-07
6.44e-07
6.64731e-07
6.40342e-07
6.13004e-07
5.97459e-07
5.97585e-07
6.09409e-07
6.09989e-07
6.09341e-07
6.19457e-07
6.34575e-07
6.45712e-07
6.42795e-07
6.25205e-07
5.97709e-07
6.04966e-07
6.23068e-07
5.60649e-07
0.999998
0.999998
0.999998
0.999998
0.999998
0.999999
0.999999
0.999998
0.999995
0.999991
0.99999
0.99999
0.99999
0.99999
0.99999
0.99999
0.99999
0.99999
0.99999
0.99999
0.99999
0.99999
0.99999
0.99999
0.99999
0.99999
0.99999
0.99999
0.99999
0.99999
0.99999
0.99999
0.99999
0.99999
0.99999
0.99999
0.99999
0.99999
0.99999
0.99999
0.99999
0.99999
0.99999
0.99999
0.999988
0.999985
0.999976
0.999964
0.999949
0.999935
0.999922
0.99991
0.999905
0.999898
0.999899
0.999896
0.999776
0.999681
0.999749
0.908372
0.0182843
1.9296e-05
6.05971e-07
6.21633e-07
6.16176e-07
6.10364e-07
6.1044e-07
6.1136e-07
6.11822e-07
6.1214e-07
6.12127e-07
6.1233e-07
6.1396e-07
6.18508e-07
6.274e-07
6.42218e-07
6.63554e-07
6.61612e-07
6.43648e-07
6.35384e-07
6.19142e-07
6.05399e-07
5.9748e-07
5.97459e-07
5.98975e-07
6.1079e-07
6.22671e-07
6.27423e-07
6.33382e-07
6.40227e-07
6.34144e-07
6.06663e-07
6.01891e-07
6.07314e-07
6.21197e-07
5.54838e-07
0.999998
0.999998
0.999998
0.999998
0.999998
0.999998
0.999999
0.999998
0.999996
0.999991
0.99999
0.99999
0.99999
0.99999
0.99999
0.99999
0.99999
0.99999
0.99999
0.99999
0.99999
0.99999
0.99999
0.99999
0.99999
0.99999
0.99999
0.99999
0.99999
0.99999
0.99999
0.99999
0.99999
0.99999
0.99999
0.99999
0.99999
0.99999
0.99999
0.99999
0.99999
0.99999
0.99999
0.99999
0.999988
0.999985
0.999976
0.999963
0.999949
0.999934
0.999921
0.999908
0.999903
0.999898
0.999899
0.999888
0.999862
0.999794
0.999702
0.957933
0.0597033
0.00016601
6.05972e-07
6.21102e-07
6.19826e-07
6.1425e-07
6.09081e-07
6.08823e-07
6.09285e-07
6.11032e-07
6.12588e-07
6.12782e-07
6.12768e-07
6.1402e-07
6.19585e-07
6.32528e-07