/*--------------------------------*- C++ -*----------------------------------*\
| =========                 |                                                 |
| \\      /  F ield         | OpenFOAM: The Open Source CFD Toolbox           |
|  \\    /   O peration     | Version:  2.3.0                                 |
|   \\  /    A nd           | Web:      www.OpenFOAM.org                      |
|    \\/     M anipulation  |                                                 |
\*---------------------------------------------------------------------------*/
FoamFile
{
    version     2.0;
    format      ascii;
    class       volScalarField;
    location    "44";
    object      dsauterMean;
}
// * * * * * * * * * * * * * * * * * * * * * * * * * * * * * * * * * * * * * //

dimensions      [0 0 0 0 0 0 0];

internalField   nonuniform List<scalar> 
6144
(
0.00833335
0.00833335
0.00833335
0.00833335
0.00833335
0.00833335
0.00833335
0.00833335
0.00833335
0.00833335
0.00833335
0.00833335
0.00833335
0.00833335
0.00833335
0.00833335
0.00833335
0.00833335
0.00833335
0.00833335
0.00833335
0.00833335
0.00833335
0.00833335
0.00833335
0.00833335
0.00833335
0.00833335
0.00833335
0.00833335
0.00833335
0.00833335
0.00833335
0.00833335
0.00833335
0.00833335
0.00833335
0.00833335
0.00833335
0.00833335
0.00833335
0.00833335
0.00833335
0.00833335
0.00833335
0.00833335
0.00833335
0.00833335
0.00833335
0.00833335
0.00833335
0.00833335
0.00833335
0.00833335
0.00833335
0.00833335
0.00833335
0.00833329
0.00832476
0.00834444
0.00833786
0.00833298
0.00201233
0.000249757
0.000245018
0.000241277
0.000237534
0.000231922
0.000228177
0.000223505
0.000219759
0.00021508
0.000211338
0.000207595
0.000203854
0.000199174
0.000195433
0.000191688
0.000187947
0.000184254
0.000180188
0.000177336
0.000172284
0.000170454
0.000166174
0.000163621
0.000159834
0.000157163
0.000154208
0.000152394
0.000150522
0.000148651
0.000147717
0.00014678
0.00014771
0.000146796
0.00833335
0.00833335
0.00833335
0.00833335
0.00833335
0.00833335
0.00833335
0.00833335
0.00833335
0.00833335
0.00833335
0.00833335
0.00833335
0.00833335
0.00833335
0.00833335
0.00833335
0.00833335
0.00833335
0.00833335
0.00833335
0.00833335
0.00833335
0.00833335
0.00833335
0.00833335
0.00833335
0.00833335
0.00833335
0.00833335
0.00833335
0.00833335
0.00833335
0.00833335
0.00833335
0.00833335
0.00833335
0.00833335
0.00833335
0.00833335
0.00833335
0.00833335
0.00833335
0.00833335
0.00833335
0.00833335
0.00833335
0.00833335
0.00833335
0.00833335
0.00833335
0.00833335
0.00833335
0.00833335
0.00833335
0.00833335
0.00833335
0.00833311
0.00832369
0.00834473
0.00836596
0.00833135
0.000309576
0.000318004
0.000282378
0.00031033
0.000303007
0.000290495
0.000266559
0.000238715
0.000227313
0.000215886
0.000212245
0.000207576
0.000203211
0.000199057
0.000195582
0.000192138
0.000187546
0.000184164
0.000180695
0.000176647
0.000173247
0.000170182
0.000166443
0.000163692
0.000160814
0.000158008
0.000155203
0.000152394
0.000150523
0.000149587
0.000147486
0.000147804
0.000147725
0.000147734
0.00833335
0.00833335
0.00833335
0.00833335
0.00833335
0.00833335
0.00833335
0.00833335
0.00833335
0.00833335
0.00833335
0.00833335
0.00833335
0.00833335
0.00833335
0.00833335
0.00833335
0.00833335
0.00833335
0.00833335
0.00833335
0.00833335
0.00833335
0.00833335
0.00833335
0.00833335
0.00833335
0.00833335
0.00833335
0.00833335
0.00833335
0.00833335
0.00833335
0.00833335
0.00833335
0.00833335
0.00833335
0.00833335
0.00833335
0.00833335
0.00833335
0.00833335
0.00833335
0.00833335
0.00833335
0.00833335
0.00833335
0.00833335
0.00833335
0.00833335
0.00833335
0.00833335
0.00833335
0.00833335
0.00833335
0.00833335
0.00833335
0.00833335
0.00833369
0.00835709
0.00761017
0.00665968
0.001185
0.00112611
0.00110596
0.00108445
0.00106604
0.00100177
0.000961617
0.000888993
0.000862491
0.000805017
0.000775151
0.000701679
0.000648454
0.000559918
0.00042941
0.000318221
0.000225691
0.000200548
0.00019762
0.00019356
0.000189819
0.000184201
0.000176657
0.000167366
0.000160814
0.000158008
0.000155201
0.000152394
0.000150638
0.000149494
0.000147733
0.000147274
0.000148898
0.0001478
0.00833335
0.00833335
0.00833335
0.00833335
0.00833335
0.00833335
0.00833335
0.00833335
0.00833335
0.00833335
0.00833335
0.00833335
0.00833335
0.00833335
0.00833335
0.00833335
0.00833335
0.00833335
0.00833335
0.00833335
0.00833335
0.00833335
0.00833335
0.00833335
0.00833335
0.00833335
0.00833335
0.00833335
0.00833335
0.00833335
0.00833335
0.00833335
0.00833335
0.00833335
0.00833335
0.00833335
0.00833335
0.00833335
0.00833335
0.00833335
0.00833335
0.00833335
0.00833335
0.00833335
0.00833335
0.00833335
0.00833335
0.00833335
0.00833335
0.00833335
0.00833335
0.00833335
0.00833335
0.00833335
0.00833335
0.00833335
0.00833335
0.00833335
0.00833028
0.00833679
0.00835264
0.00512519
0.00307561
0.00202708
0.00197604
0.00177509
0.00170629
0.00172111
0.00169513
0.00168787
0.00171515
0.00166085
0.00165212
0.00162944
0.00159224
0.00155572
0.0015336
0.00145633
0.0013378
0.00126556
0.00115664
0.00106169
0.000864676
0.000676554
0.00060315
0.000499515
0.000386329
0.000299438
0.000188487
0.000157071
0.000150527
0.00014927
0.000148079
0.000147713
0.000147716
0.000148651
0.00833335
0.00833335
0.00833335
0.00833335
0.00833335
0.00833335
0.00833335
0.00833335
0.00833335
0.00833335
0.00833335
0.00833335
0.00833335
0.00833335
0.00833335
0.00833335
0.00833335
0.00833335
0.00833335
0.00833335
0.00833335
0.00833335
0.00833335
0.00833335
0.00833335
0.00833335
0.00833335
0.00833335
0.00833335
0.00833335
0.00833335
0.00833335
0.00833335
0.00833335
0.00833335
0.00833335
0.00833335
0.00833335
0.00833335
0.00833335
0.00833335
0.00833335
0.00833335
0.00833335
0.00833335
0.00833335
0.00833335
0.00833335
0.00833335
0.00833335
0.00833335
0.00833335
0.00833335
0.00833335
0.00833335
0.00833335
0.00833335
0.00833335
0.00833333
0.0083551
0.007386
0.00832357
0.00829541
0.00825711
0.00794114
0.00662846
0.00638253
0.00599889
0.00599418
0.00595332
0.00596226
0.00596193
0.00576938
0.00578736
0.00561923
0.00534463
0.00506659
0.00471031
0.00431439
0.00371125
0.00321496
0.00281919
0.00244391
0.00204265
0.00175635
0.00157914
0.00121238
0.00111132
0.000878521
0.000630334
0.000204788
0.000148651
0.000146777
0.000146776
0.000147721
0.000147716
0.00833335
0.00833335
0.00833335
0.00833335
0.00833335
0.00833335
0.00833335
0.00833335
0.00833335
0.00833335
0.00833335
0.00833335
0.00833335
0.00833335
0.00833335
0.00833335
0.00833335
0.00833335
0.00833335
0.00833335
0.00833335
0.00833335
0.00833335
0.00833335
0.00833335
0.00833335
0.00833335
0.00833335
0.00833335
0.00833335
0.00833335
0.00833335
0.00833335
0.00833335
0.00833335
0.00833335
0.00833335
0.00833335
0.00833335
0.00833335
0.00833335
0.00833335
0.00833335
0.00833335
0.00833335
0.00833335
0.00833335
0.00833335
0.00833335
0.00833335
0.00833335
0.00833335
0.00833335
0.00833335
0.00833335
0.00833335
0.00833335
0.00833335
0.00833335
0.00835055
0.00733875
0.00789443
0.00793908
0.008311
0.00817397
0.0082457
0.00831499
0.0081283
0.00826896
0.00789507
0.00840543
0.00792923
0.0081743
0.00812462
0.00813202
0.00797687
0.00802333
0.00796379
0.00770562
0.00791971
0.00773294
0.0076215
0.00743359
0.00707033
0.00650481
0.00570722
0.00525243
0.00442252
0.00309207
0.00239384
0.00179043
0.00102699
0.000147757
0.000145947
0.000145818
0.00014779
0.00833335
0.00833335
0.00833335
0.00833335
0.00833335
0.00833335
0.00833335
0.00833335
0.00833335
0.00833335
0.00833335
0.00833335
0.00833335
0.00833335
0.00833335
0.00833335
0.00833335
0.00833335
0.00833335
0.00833335
0.00833335
0.00833335
0.00833335
0.00833335
0.00833335
0.00833335
0.00833335
0.00833335
0.00833335
0.00833335
0.00833335
0.00833335
0.00833335
0.00833335
0.00833335
0.00833335
0.00833335
0.00833335
0.00833335
0.00833335
0.00833335
0.00833335
0.00833335
0.00833335
0.00833335
0.00833335
0.00833335
0.00833335
0.00833335
0.00833335
0.00833335
0.00833335
0.00833335
0.00833335
0.00833335
0.00833335
0.00833335
0.00833333
0.00833355
0.00833302
0.00833369
0.00927956
0.00594986
0.00833076
0.00819049
0.00798649
0.00828862
0.00725839
0.00805244
0.00774142
0.00803484
0.00787582
0.00825397
0.00783835
0.008221
0.0079115
0.00872407
0.00730122
0.00813115
0.00838266
0.00794677
0.0082981
0.00820088
0.00812421
0.00781813
0.00752209
0.00769923
0.00787888
0.00749777
0.0067999
0.00633998
0.0061445
0.00622066
0.0052406
0.00473848
0.00567665
0.00833335
0.00833335
0.00833335
0.00833335
0.00833335
0.00833335
0.00833335
0.00833335
0.00833335
0.00833335
0.00833335
0.00833335
0.00833335
0.00833335
0.00833335
0.00833335
0.00833335
0.00833335
0.00833335
0.00833335
0.00833335
0.00833335
0.00833335
0.00833335
0.00833335
0.00833335
0.00833335
0.00833335
0.00833335
0.00833335
0.00833335
0.00833335
0.00833335
0.00833335
0.00833335
0.00833335
0.00833335
0.00833335
0.00833335
0.00833335
0.00833335
0.00833335
0.00833335
0.00833335
0.00833335
0.00833335
0.00833335
0.00833335
0.00833335
0.00833335
0.00833335
0.00833335
0.00833335
0.00833335
0.00833335
0.00833335
0.00833335
0.00833332
0.00833415
0.00833213
0.00831782
0.008283
0.00832326
0.00827006
0.00833152
0.00815659
0.00793662
0.00871899
0.0080542
0.0084023
0.00811254
0.00829674
0.0083167
0.00831985
0.00825688
0.00824001
0.00800735
0.00844852
0.00830261
0.00830632
0.00829042
0.00827646
0.00828408
0.00816475
0.00821839
0.00799998
0.00744132
0.00724821
0.00711127
0.00739261
0.00667782
0.00651491
0.00717715
0.00692822
0.0072915
0.00752442
0.00833335
0.00833335
0.00833335
0.00833335
0.00833335
0.00833335
0.00833335
0.00833335
0.00833335
0.00833335
0.00833335
0.00833335
0.00833335
0.00833335
0.00833335
0.00833335
0.00833335
0.00833335
0.00833335
0.00833335
0.00833335
0.00833335
0.00833335
0.00833335
0.00833335
0.00833335
0.00833335
0.00833335
0.00833335
0.00833335
0.00833335
0.00833335
0.00833335
0.00833335
0.00833335
0.00833335
0.00833335
0.00833335
0.00833335
0.00833335
0.00833335
0.00833335
0.00833335
0.00833335
0.00833335
0.00833335
0.00833335
0.00833335
0.00833335
0.00833335
0.00833335
0.00833335
0.00833335
0.00833335
0.00833335
0.00833335
0.00833335
0.00833333
0.00833355
0.00833503
0.00827489
0.00758105
0.00782269
0.00769102
0.00824661
0.00714129
0.00765855
0.00809653
0.00805425
0.00784536
0.00775193
0.00846352
0.007549
0.0084761
0.00778068
0.00820571
0.00827658
0.00833421
0.00808949
0.00796898
0.00811255
0.008004
0.00793984
0.00825256
0.00802322
0.00846753
0.00805205
0.00839578
0.00792566
0.00800023
0.00797756
0.00786208
0.00799864
0.00797941
0.00680554
0.00720812
0.00833335
0.00833335
0.00833335
0.00833335
0.00833335
0.00833335
0.00833335
0.00833335
0.00833335
0.00833335
0.00833335
0.00833335
0.00833335
0.00833335
0.00833335
0.00833335
0.00833335
0.00833335
0.00833335
0.00833335
0.00833335
0.00833335
0.00833335
0.00833335
0.00833335
0.00833335
0.00833335
0.00833335
0.00833335
0.00833335
0.00833335
0.00833335
0.00833335
0.00833335
0.00833335
0.00833335
0.00833335
0.00833335
0.00833335
0.00833335
0.00833335
0.00833335
0.00833335
0.00833335
0.00833335
0.00833335
0.00833335
0.00833335
0.00833335
0.00833335
0.00833335
0.00833335
0.00833335
0.00833335
0.00833335
0.00833335
0.00833335
0.00833335
0.00833324
0.00833458
0.00821665
0.00845704
0.00727597
0.00824569
0.00806513
0.00781615
0.00768561
0.0077256
0.00754865
0.00757765
0.00748413
0.00760557
0.00694498
0.00732261
0.00706576
0.00692962
0.00672169
0.00648398
0.00628175
0.00598693
0.00562926
0.00554761
0.00506742
0.00544589
0.00545746
0.00551177
0.00575511
0.00512735
0.00534849
0.00543543
0.00518602
0.00509106
0.00521533
0.00511634
0.00484861
0.00453746
0.00833335
0.00833335
0.00833335
0.00833335
0.00833335
0.00833335
0.00833335
0.00833335
0.00833335
0.00833335
0.00833335
0.00833335
0.00833335
0.00833335
0.00833335
0.00833335
0.00833335
0.00833335
0.00833335
0.00833335
0.00833335
0.00833335
0.00833335
0.00833335
0.00833335
0.00833335
0.00833335
0.00833335
0.00833335
0.00833335
0.00833335
0.00833335
0.00833335
0.00833335
0.00833335
0.00833335
0.00833335
0.00833335
0.00833335
0.00833335
0.00833335
0.00833335
0.00833335
0.00833335
0.00833335
0.00833335
0.00833335
0.00833335
0.00833335
0.00833335
0.00833335
0.00833335
0.00833335
0.00833335
0.00833335
0.00833335
0.00833335
0.00833382
0.00831796
0.00833665
0.00833373
0.00803912
0.00758921
0.00700553
0.00688818
0.00653739
0.00661336
0.00620487
0.00599214
0.00561663
0.00536084
0.0052163
0.00487893
0.00483691
0.00459505
0.00453238
0.0044936
0.00447306
0.00419403
0.00401672
0.00392895
0.00391241
0.0038415
0.00382702
0.00379611
0.00376322
0.00375532
0.00361102
0.00360402
0.00348978
0.00350326
0.00334966
0.00294943
0.0026862
0.00241972
0.00194969
0.00833335
0.00833335
0.00833335
0.00833335
0.00833335
0.00833335
0.00833335
0.00833335
0.00833335
0.00833335
0.00833335
0.00833335
0.00833335
0.00833335
0.00833335
0.00833335
0.00833335
0.00833335
0.00833335
0.00833335
0.00833335
0.00833335
0.00833335
0.00833335
0.00833335
0.00833335
0.00833335
0.00833335
0.00833335
0.00833335
0.00833335
0.00833335
0.00833335
0.00833335
0.00833335
0.00833335
0.00833335
0.00833335
0.00833335
0.00833335
0.00833335
0.00833335
0.00833335
0.00833335
0.00833335
0.00833335
0.00833335
0.00833335
0.00833335
0.00833335
0.00833335
0.00833335
0.00833335
0.00833335
0.00833335
0.00833335
0.00833335
0.00833334
0.00833361
0.00834821
0.00831028
0.00503552
0.00342946
0.00312948
0.00300347
0.00294411
0.00290658
0.00278373
0.00276756
0.00258429
0.00262829
0.0025689
0.00248941
0.00231879
0.00204632
0.00187568
0.00180447
0.00176588
0.00171336
0.00176917
0.00192723
0.00187785
0.00180123
0.00172755
0.00174532
0.00179939
0.00181911
0.0018352
0.0018831
0.00188496
0.00182532
0.00174301
0.0014926
0.00117337
0.000617464
0.000548156
0.00833335
0.00833335
0.00833335
0.00833335
0.00833335
0.00833335
0.00833335
0.00833335
0.00833335
0.00833335
0.00833335
0.00833335
0.00833335
0.00833335
0.00833335
0.00833335
0.00833335
0.00833335
0.00833335
0.00833335
0.00833335
0.00833335
0.00833335
0.00833335
0.00833335
0.00833335
0.00833335
0.00833335
0.00833335
0.00833335
0.00833335
0.00833335
0.00833335
0.00833335
0.00833335
0.00833335
0.00833335
0.00833335
0.00833335
0.00833335
0.00833335
0.00833335
0.00833335
0.00833335
0.00833335
0.00833335
0.00833335
0.00833335
0.00833335
0.00833335
0.00833335
0.00833335
0.00833335
0.00833335
0.00833335
0.00833335
0.00833335
0.00833335
0.00833335
0.00833371
0.00833621
0.00492655
0.00161127
0.00140714
0.00143173
0.00140088
0.0013993
0.00132801
0.00127959
0.00116765
0.00107679
0.000953134
0.000843452
0.000753106
0.000670457
0.000602411
0.000523758
0.000367884
0.000214236
0.000184205
0.000180456
0.000176706
0.000173946
0.000169827
0.000166553
0.000163895
0.000179528
0.000208898
0.000251499
0.000346087
0.000387258
0.000395652
0.000344194
0.000244084
0.000160814
0.000148651
0.00833335
0.00833335
0.00833335
0.00833335
0.00833335
0.00833335
0.00833335
0.00833335
0.00833335
0.00833335
0.00833335
0.00833335
0.00833335
0.00833335
0.00833335
0.00833335
0.00833335
0.00833335
0.00833335
0.00833335
0.00833335
0.00833335
0.00833335
0.00833335
0.00833335
0.00833335
0.00833335
0.00833335
0.00833335
0.00833335
0.00833335
0.00833335
0.00833335
0.00833335
0.00833335
0.00833335
0.00833335
0.00833335
0.00833335
0.00833335
0.00833335
0.00833335
0.00833335
0.00833335
0.00833335
0.00833335
0.00833335
0.00833335
0.00833335
0.00833335
0.00833335
0.00833335
0.00833335
0.00833335
0.00833335
0.00833335
0.00833335
0.00833335
0.00833335
0.00833111
0.00833316
0.00716815
0.00088821
0.00079792
0.000827888
0.000805724
0.000811785
0.000732451
0.000689435
0.000596272
0.000524788
0.000394727
0.000293699
0.000222565
0.000203547
0.000200049
0.000195147
0.000191196
0.000187459
0.000184205
0.000180461
0.000176835
0.000173382
0.00017088
0.000166412
0.000163597
0.000160786
0.000158007
0.000155201
0.000152381
0.000150478
0.000149479
0.000147925
0.000147716
0.000148651
0.000148651
0.00833335
0.00833335
0.00833335
0.00833335
0.00833335
0.00833335
0.00833335
0.00833335
0.00833335
0.00833335
0.00833335
0.00833335
0.00833335
0.00833335
0.00833335
0.00833335
0.00833335
0.00833335
0.00833335
0.00833335
0.00833335
0.00833335
0.00833335
0.00833335
0.00833335
0.00833335
0.00833335
0.00833335
0.00833335
0.00833335
0.00833335
0.00833335
0.00833335
0.00833335
0.00833335
0.00833335
0.00833335
0.00833335
0.00833335
0.00833335
0.00833335
0.00833335
0.00833335
0.00833335
0.00833335
0.00833335
0.00833335
0.00833335
0.00833335
0.00833335
0.00833335
0.00833335
0.00833335
0.00833335
0.00833335
0.00833335
0.00833335
0.00833335
0.00833286
0.00830307
0.00915491
0.00766568
0.000319858
0.000271207
0.000283467
0.000279556
0.000273076
0.000263732
0.00025063
0.00023437
0.000220915
0.000216015
0.000212226
0.000207595
0.000203852
0.00020011
0.00019656
0.000192634
0.000186892
0.000184854
0.000180455
0.000176437
0.000174104
0.000170188
0.00016651
0.000162371
0.000161294
0.00015761
0.00015495
0.000152471
0.000150261
0.000149892
0.00014767
0.000147716
0.000148652
0.000148651
0.00833335
0.00833335
0.00833335
0.00833335
0.00833335
0.00833335
0.00833335
0.00833335
0.00833335
0.00833335
0.00833335
0.00833335
0.00833335
0.00833335
0.00833335
0.00833335
0.00833335
0.00833335
0.00833335
0.00833335
0.00833335
0.00833335
0.00833335
0.00833335
0.00833335
0.00833335
0.00833335
0.00833335
0.00833335
0.00833335
0.00833335
0.00833335
0.00833335
0.00833335
0.00833335
0.00833335
0.00833335
0.00833335
0.00833335
0.00833335
0.00833335
0.00833335
0.00833335
0.00833335
0.00833335
0.00833335
0.00833335
0.00833335
0.00833335
0.00833335
0.00833335
0.00833335
0.00833335
0.00833335
0.00833335
0.00833335
0.00833335
0.00833334
0.00833022
0.00833664
0.00833785
0.00814234
0.00288752
0.000249822
0.000245827
0.000241275
0.000237692
0.000231763
0.000228212
0.000224436
0.000219771
0.000216024
0.000212813
0.000207463
0.000204107
0.000200244
0.000195331
0.000191689
0.000187947
0.000184568
0.00018017
0.00017672
0.000173881
0.000170025
0.00016643
0.000163624
0.000160397
0.000158446
0.000155228
0.000152394
0.000150523
0.000149631
0.00014772
0.000147716
0.000148634
0.000148668
0.00833335
0.00833335
0.00833335
0.00833335
0.00833335
0.00833335
0.00833335
0.00833335
0.00833335
0.00833335
0.00833335
0.00833335
0.00833335
0.00833335
0.00833335
0.00833335
0.00833335
0.00833335
0.00833335
0.00833335
0.00833335
0.00833335
0.00833335
0.00833335
0.00833335
0.00833335
0.00833335
0.00833335
0.00833335
0.00833335
0.00833335
0.00833335
0.00833335
0.00833335
0.00833335
0.00833335
0.00833335
0.00833335
0.00833335
0.00833335
0.00833335
0.00833335
0.00833335
0.00833335
0.00833335
0.00833335
0.00833335
0.00833335
0.00833335
0.00833335
0.00833335
0.00833335
0.00833335
0.00833335
0.00833335
0.00833335
0.00833335
0.008333
0.00833356
0.00833195
0.00833282
0.00833338
0.00449642
0.000249695
0.000245021
0.000241568
0.000236
0.000232378
0.000228111
0.000223491
0.000219672
0.000215097
0.000211339
0.000207594
0.000204141
0.000199246
0.000195432
0.000191697
0.000187946
0.000184204
0.000180364
0.000176861
0.000173913
0.00017042
0.000165972
0.000164017
0.000160814
0.000158019
0.000155373
0.000152323
0.000150439
0.000149626
0.000147716
0.000147716
0.000147716
0.000147716
0.00833335
0.00833335
0.00833335
0.00833335
0.00833335
0.00833335
0.00833335
0.00833335
0.00833335
0.00833335
0.00833335
0.00833335
0.00833335
0.00833335
0.00833335
0.00833335
0.00833335
0.00833335
0.00833335
0.00833335
0.00833335
0.00833335
0.00833335
0.00833335
0.00833335
0.00833335
0.00833335
0.00833335
0.00833335
0.00833335
0.00833335
0.00833335
0.00833335
0.00833335
0.00833335
0.00833335
0.00833335
0.00833335
0.00833335
0.00833335
0.00833335
0.00833335
0.00833335
0.00833335
0.00833335
0.00833335
0.00833335
0.00833335
0.00833335
0.00833335
0.00833335
0.00833335
0.00833335
0.00833335
0.00833335
0.00833335
0.00833335
0.00833334
0.00833343
0.00833347
0.00839545
0.00730161
0.000450623
0.0003601
0.00037919
0.000378767
0.000370937
0.000359263
0.000340387
0.0003255
0.000313448
0.000295542
0.000279637
0.000259985
0.000239838
0.000222165
0.000201046
0.000191689
0.000187931
0.000184212
0.000180462
0.000177658
0.000173914
0.000170512
0.000166854
0.000163621
0.000160814
0.000158007
0.000155201
0.000152394
0.000150523
0.000149587
0.000147906
0.000147866
0.000148746
0.000147701
0.00833335
0.00833335
0.00833335
0.00833335
0.00833335
0.00833335
0.00833335
0.00833335
0.00833335
0.00833335
0.00833335
0.00833335
0.00833335
0.00833335
0.00833335
0.00833335
0.00833335
0.00833335
0.00833335
0.00833335
0.00833335
0.00833335
0.00833335
0.00833335
0.00833335
0.00833335
0.00833335
0.00833335
0.00833335
0.00833335
0.00833335
0.00833335
0.00833335
0.00833335
0.00833335
0.00833335
0.00833335
0.00833335
0.00833335
0.00833335
0.00833335
0.00833335
0.00833335
0.00833335
0.00833335
0.00833335
0.00833335
0.00833335
0.00833335
0.00833335
0.00833335
0.00833335
0.00833335
0.00833335
0.00833335
0.00833335
0.00833335
0.00833335
0.00833624
0.00833029
0.00829275
0.00199262
0.00282242
0.00145248
0.00148622
0.00142387
0.00141253
0.0013623
0.00134396
0.00129631
0.00123814
0.00117782
0.0011339
0.00109006
0.00104002
0.000982426
0.000879415
0.000768417
0.000630305
0.000517905
0.000348176
0.000258766
0.000194899
0.000179837
0.000167475
0.000163528
0.000160814
0.000158005
0.000155272
0.000152146
0.00015046
0.000149584
0.000147593
0.000147833
0.000148651
0.000148651
0.00833335
0.00833335
0.00833335
0.00833335
0.00833335
0.00833335
0.00833335
0.00833335
0.00833335
0.00833335
0.00833335
0.00833335
0.00833335
0.00833335
0.00833335
0.00833335
0.00833335
0.00833335
0.00833335
0.00833335
0.00833335
0.00833335
0.00833335
0.00833335
0.00833335
0.00833335
0.00833335
0.00833335
0.00833335
0.00833335
0.00833335
0.00833335
0.00833335
0.00833335
0.00833335
0.00833335
0.00833335
0.00833335
0.00833335
0.00833335
0.00833335
0.00833335
0.00833335
0.00833335
0.00833335
0.00833335
0.00833335
0.00833335
0.00833335
0.00833335
0.00833335
0.00833335
0.00833335
0.00833335
0.00833335
0.00833335
0.00833335
0.00833335
0.00833331
0.00834591
0.00758844
0.00405266
0.00811647
0.00428742
0.00446526
0.00352808
0.0035035
0.00345227
0.00340922
0.00334467
0.00329759
0.00321037
0.00311647
0.0029593
0.00283694
0.00270378
0.00253332
0.00229439
0.00209867
0.00185188
0.00176767
0.00160439
0.00142985
0.000751241
0.000611199
0.000248198
0.000197295
0.000167969
0.0001547
0.000152167
0.00015064
0.000148792
0.000146801
0.000147719
0.000147696
0.000148672
0.00833335
0.00833335
0.00833335
0.00833335
0.00833335
0.00833335
0.00833335
0.00833335
0.00833335
0.00833335
0.00833335
0.00833335
0.00833335
0.00833335
0.00833335
0.00833335
0.00833335
0.00833335
0.00833335
0.00833335
0.00833335
0.00833335
0.00833335
0.00833335
0.00833335
0.00833335
0.00833335
0.00833335
0.00833335
0.00833335
0.00833335
0.00833335
0.00833335
0.00833335
0.00833335
0.00833335
0.00833335
0.00833335
0.00833335
0.00833335
0.00833335
0.00833335
0.00833335
0.00833335
0.00833335
0.00833335
0.00833335
0.00833335
0.00833335
0.00833335
0.00833335
0.00833335
0.00833335
0.00833335
0.00833335
0.00833335
0.00833335
0.00833335
0.00833334
0.00834175
0.00730428
0.00785399
0.00827158
0.00821037
0.00831709
0.00822461
0.00834016
0.00814936
0.00787341
0.00767593
0.00768492
0.00762892
0.00763114
0.00771811
0.0074132
0.00729428
0.00734892
0.00722715
0.00694168
0.00670392
0.00618192
0.00558862
0.00503653
0.00440572
0.00391075
0.00317599
0.00258864
0.00158183
0.000869796
0.000555978
0.000171113
0.000149589
0.000147698
0.00014679
0.00014772
0.000147716
0.00833335
0.00833335
0.00833335
0.00833335
0.00833335
0.00833335
0.00833335
0.00833335
0.00833335
0.00833335
0.00833335
0.00833335
0.00833335
0.00833335
0.00833335
0.00833335
0.00833335
0.00833335
0.00833335
0.00833335
0.00833335
0.00833335
0.00833335
0.00833335
0.00833335
0.00833335
0.00833335
0.00833335
0.00833335
0.00833335
0.00833335
0.00833335
0.00833335
0.00833335
0.00833335
0.00833335
0.00833335
0.00833335
0.00833335
0.00833335
0.00833335
0.00833335
0.00833335
0.00833335
0.00833335
0.00833335
0.00833335
0.00833335
0.00833335
0.00833335
0.00833335
0.00833335
0.00833335
0.00833335
0.00833335
0.00833335
0.00833335
0.00833335
0.00833341
0.00831648
0.00956714
0.00828257
0.00832976
0.00877257
0.0072395
0.00833109
0.00798699
0.00842224
0.00834169
0.00826033
0.00830392
0.00790879
0.00846704
0.00834074
0.00831709
0.00901
0.00708211
0.00891286
0.00751375
0.0085077
0.00876826
0.0083305
0.00789419
0.00836772
0.00729338
0.00818291
0.00736111
0.00734237
0.00623579
0.00519493
0.00374795
0.00235708
0.000507188
0.000145541
0.000147653
0.000147769
0.00833335
0.00833335
0.00833335
0.00833335
0.00833335
0.00833335
0.00833335
0.00833335
0.00833335
0.00833335
0.00833335
0.00833335
0.00833335
0.00833335
0.00833335
0.00833335
0.00833335
0.00833335
0.00833335
0.00833335
0.00833335
0.00833335
0.00833335
0.00833335
0.00833335
0.00833335
0.00833335
0.00833335
0.00833335
0.00833335
0.00833335
0.00833335
0.00833335
0.00833335
0.00833335
0.00833335
0.00833335
0.00833335
0.00833335
0.00833335
0.00833335
0.00833335
0.00833335
0.00833335
0.00833335
0.00833335
0.00833335
0.00833335
0.00833335
0.00833335
0.00833335
0.00833335
0.00833335
0.00833335
0.00833335
0.00833335
0.00833335
0.00833335
0.00833334
0.00829219
0.0092516
0.0082703
0.00830715
0.00831362
0.00832081
0.00831821
0.00832378
0.00824746
0.00811806
0.00852016
0.00815344
0.00831477
0.00819817
0.00811313
0.00847324
0.00831827
0.00831417
0.00831527
0.00833839
0.00825575
0.00827291
0.00832901
0.00817702
0.00787333
0.00855701
0.00832924
0.0083159
0.00832083
0.00821749
0.00733618
0.00821857
0.00831055
0.00833253
0.00848995
0.00834607
0.00825348
0.00833335
0.00833335
0.00833335
0.00833335
0.00833335
0.00833335
0.00833335
0.00833335
0.00833335
0.00833335
0.00833335
0.00833335
0.00833335
0.00833335
0.00833335
0.00833335
0.00833335
0.00833335
0.00833335
0.00833335
0.00833335
0.00833335
0.00833335
0.00833335
0.00833335
0.00833335
0.00833335
0.00833335
0.00833335
0.00833335
0.00833335
0.00833335
0.00833335
0.00833335
0.00833335
0.00833335
0.00833335
0.00833335
0.00833335
0.00833335
0.00833335
0.00833335
0.00833335
0.00833335
0.00833335
0.00833335
0.00833335
0.00833335
0.00833335
0.00833335
0.00833335
0.00833335
0.00833335
0.00833335
0.00833335
0.00833335
0.00833335
0.00833322
0.00833344
0.00829514
0.00877015
0.0082661
0.00812159
0.00836673
0.00813888
0.00834221
0.00832238
0.00818114
0.00823601
0.00827503
0.00833891
0.00827216
0.00833443
0.00832935
0.00832322
0.00833345
0.00832778
0.00832597
0.0083322
0.00833133
0.00828406
0.00828736
0.00832106
0.00829217
0.00832327
0.00832968
0.00830853
0.00831041
0.00840755
0.0082975
0.00833968
0.00835586
0.00840297
0.00819435
0.00835802
0.00833338
0.00833335
0.00833335
0.00833335
0.00833335
0.00833335
0.00833335
0.00833335
0.00833335
0.00833335
0.00833335
0.00833335
0.00833335
0.00833335
0.00833335
0.00833335
0.00833335
0.00833335
0.00833335
0.00833335
0.00833335
0.00833335
0.00833335
0.00833335
0.00833335
0.00833335
0.00833335
0.00833335
0.00833335
0.00833335
0.00833335
0.00833335
0.00833335
0.00833335
0.00833335
0.00833335
0.00833335
0.00833335
0.00833335
0.00833335
0.00833335
0.00833335
0.00833335
0.00833335
0.00833335
0.00833335
0.00833335
0.00833335
0.00833335
0.00833335
0.00833335
0.00833335
0.00833335
0.00833335
0.00833335
0.00833335
0.00833335
0.00833335
0.00833334
0.00833319
0.00833022
0.00749284
0.0091036
0.00810237
0.00813681
0.00827766
0.00831889
0.00832752
0.00828375
0.0082993
0.00834404
0.00833656
0.00822376
0.00828821
0.00834368
0.00830478
0.0083331
0.00810612
0.00812833
0.0081495
0.00829045
0.00829417
0.00833376
0.00827458
0.00831345
0.00828753
0.00804243
0.00839668
0.00833608
0.00820561
0.00833997
0.00829646
0.00834248
0.0083284
0.00833435
0.00833079
0.00833142
0.00833335
0.00833335
0.00833335
0.00833335
0.00833335
0.00833335
0.00833335
0.00833335
0.00833335
0.00833335
0.00833335
0.00833335
0.00833335
0.00833335
0.00833335
0.00833335
0.00833335
0.00833335
0.00833335
0.00833335
0.00833335
0.00833335
0.00833335
0.00833335
0.00833335
0.00833335
0.00833335
0.00833335
0.00833335
0.00833335
0.00833335
0.00833335
0.00833335
0.00833335
0.00833335
0.00833335
0.00833335
0.00833335
0.00833335
0.00833335
0.00833335
0.00833335
0.00833335
0.00833335
0.00833335
0.00833335
0.00833335
0.00833335
0.00833335
0.00833335
0.00833335
0.00833335
0.00833335
0.00833335
0.00833335
0.00833335
0.00833335
0.00833335
0.00833334
0.00833128
0.00862419
0.00814019
0.0084638
0.00830486
0.00823372
0.00806734
0.00841939
0.00816874
0.0082566
0.008093
0.00796685
0.00791543
0.00824051
0.00794033
0.00809946
0.00826457
0.0081553
0.00818331
0.00843083
0.00827973
0.00828663
0.0081396
0.00834696
0.00828143
0.00828643
0.0082719
0.0082005
0.00741606
0.00720651
0.00645946
0.00586001
0.00575593
0.00579646
0.00552541
0.00513507
0.00412252
0.00833335
0.00833335
0.00833335
0.00833335
0.00833335
0.00833335
0.00833335
0.00833335
0.00833335
0.00833335
0.00833335
0.00833335
0.00833335
0.00833335
0.00833335
0.00833335
0.00833335
0.00833335
0.00833335
0.00833335
0.00833335
0.00833335
0.00833335
0.00833335
0.00833335
0.00833335
0.00833335
0.00833335
0.00833335
0.00833335
0.00833335
0.00833335
0.00833335
0.00833335
0.00833335
0.00833335
0.00833335
0.00833335
0.00833335
0.00833335
0.00833335
0.00833335
0.00833335
0.00833335
0.00833335
0.00833335
0.00833335
0.00833335
0.00833335
0.00833335
0.00833335
0.00833335
0.00833335
0.00833335
0.00833335
0.00833335
0.00833335
0.00833334
0.00833303
0.00833329
0.00836268
0.00420259
0.00802591
0.00551489
0.0058598
0.00534985
0.00509207
0.00479926
0.00460335
0.00440397
0.00425936
0.00406036
0.00408003
0.00413138
0.00413371
0.00416895
0.00421968
0.00405331
0.0038343
0.00376
0.00378051
0.00375429
0.00364671
0.0036015
0.00358056
0.00337122
0.00317911
0.00318906
0.0030706
0.00291517
0.00290075
0.00274442
0.00270701
0.00274968
0.00282814
0.00249997
0.00833335
0.00833335
0.00833335
0.00833335
0.00833335
0.00833335
0.00833335
0.00833335
0.00833335
0.00833335
0.00833335
0.00833335
0.00833335
0.00833335
0.00833335
0.00833335
0.00833335
0.00833335
0.00833335
0.00833335
0.00833335
0.00833335
0.00833335
0.00833335
0.00833335
0.00833335
0.00833335
0.00833335
0.00833335
0.00833335
0.00833335
0.00833335
0.00833335
0.00833335
0.00833335