/*--------------------------------*- C++ -*----------------------------------*\
| =========                 |                                                 |
| \\      /  F ield         | OpenFOAM: The Open Source CFD Toolbox           |
|  \\    /   O peration     | Version:  2.3.0                                 |
|   \\  /    A nd           | Web:      www.OpenFOAM.org                      |
|    \\/     M anipulation  |                                                 |
\*---------------------------------------------------------------------------*/
FoamFile
{
    version     2.0;
    format      ascii;
    class       volScalarField;
    location    "44";
    object      epsilon.water;
}
// * * * * * * * * * * * * * * * * * * * * * * * * * * * * * * * * * * * * * //

dimensions      [0 2 -3 0 0 0 0];

internalField   nonuniform List<scalar> 
6144
(
5.82522e-05
3.98895e-05
2.29898e-05
1.65776e-05
9.84543e-06
6.72173e-06
5.83216e-06
5.22219e-06
4.62577e-06
5.84419e-06
7.90638e-06
9.836e-06
1.07441e-05
1.09706e-05
1.03562e-05
9.80028e-06
9.18413e-06
8.79665e-06
8.41179e-06
8.03957e-06
7.87469e-06
7.81278e-06
7.81226e-06
7.84188e-06
7.89406e-06
7.9642e-06
8.05221e-06
8.19422e-06
8.36234e-06
8.46846e-06
8.53297e-06
8.58799e-06
8.64758e-06
8.70563e-06
8.76585e-06
8.83462e-06
8.95843e-06
9.11683e-06
9.41159e-06
9.70766e-06
1.00532e-05
1.03572e-05
1.04692e-05
1.04405e-05
9.81703e-06
8.51308e-06
6.90291e-06
6.86799e-06
1.01572e-05
2.02832e-05
3.90915e-05
6.56584e-05
0.000157623
0.000370979
0.000769382
0.00107901
0.00152672
0.00431943
0.0191586
0.031994
0.120745
0.0620053
0.0326183
0.0183592
0.0115065
0.0081115
0.00625941
0.00519131
0.00450783
0.00403631
0.00363357
0.00331023
0.00298517
0.00268303
0.00238254
0.00199856
0.00168255
0.00115531
0.000410525
9.32174e-05
5.19056e-05
5.40042e-05
5.5202e-05
5.29448e-05
5.08087e-05
4.73023e-05
3.70625e-05
3.16784e-05
4.22096e-05
8.31724e-05
9.75157e-05
9.61237e-05
9.09349e-05
8.47808e-05
7.58343e-05
5.6984e-05
9.73569e-05
6.95356e-05
4.11915e-05
3.3272e-05
2.11617e-05
1.71414e-05
1.6581e-05
1.62967e-05
1.52761e-05
1.86385e-05
2.20011e-05
2.53582e-05
2.70109e-05
2.6854e-05
2.50207e-05
2.38253e-05
2.28089e-05
2.24573e-05
2.23799e-05
2.25095e-05
2.29343e-05
2.34348e-05
2.39001e-05
2.42983e-05
2.46236e-05
2.48916e-05
2.51199e-05
2.54341e-05
2.57665e-05
2.59748e-05
2.613e-05
2.62844e-05
2.64544e-05
2.66244e-05
2.68172e-05
2.70191e-05
2.7321e-05
2.76689e-05
2.82533e-05
2.8859e-05
2.95261e-05
3.02578e-05
3.06439e-05
3.11373e-05
3.05845e-05
2.91848e-05
2.47811e-05
2.42261e-05
2.91809e-05
4.27299e-05
7.13877e-05
0.000110428
0.000245299
0.000631019
0.00162771
0.00247253
0.00358932
0.00632331
0.0135652
0.0240791
0.0855695
0.0312796
0.0112839
0.00485866
0.00336591
0.00298462
0.00287969
0.00280006
0.00264493
0.00250185
0.0023502
0.00221091
0.00207179
0.0019459
0.00180013
0.00161204
0.00141374
0.00102773
0.000388651
0.000117789
0.00010767
0.000123797
0.000122572
0.000102391
6.96751e-05
5.11761e-05
3.51768e-05
3.30887e-05
5.2021e-05
0.000101244
9.8274e-05
8.59415e-05
7.57778e-05
7.21803e-05
6.60093e-05
5.32484e-05
0.00010859
8.2588e-05
6.05898e-05
5.35718e-05
3.7487e-05
3.14536e-05
3.15914e-05
3.22192e-05
2.8631e-05
2.7885e-05
2.91653e-05
3.01132e-05
2.98443e-05
2.83314e-05
2.64278e-05
2.56976e-05
2.5667e-05
2.65762e-05
2.80643e-05
2.99473e-05
3.15621e-05
3.28318e-05
3.38605e-05
3.46357e-05
3.51915e-05
3.55747e-05
3.58309e-05
3.5977e-05
3.601e-05
3.59666e-05
3.59036e-05
3.5854e-05
3.58258e-05
3.58043e-05
3.58074e-05
3.57847e-05
3.5778e-05
3.57097e-05
3.57264e-05
3.57171e-05
3.59232e-05
3.63178e-05
3.68778e-05
3.83227e-05
3.97893e-05
4.30573e-05
4.32623e-05
4.73198e-05
5.72471e-05
8.00041e-05
0.0001185
0.000161014
0.000289119
0.000810393
0.00229705
0.00377048
0.00518372
0.00751426
0.0125355
0.0171593
0.0674038
0.0123201
0.00300475
0.001835
0.00232597
0.00249163
0.0024274
0.00224723
0.00198545
0.00178889
0.0016579
0.00156101
0.00148849
0.0014336
0.00135586
0.00122491
0.00108219
0.000814221
0.000284658
0.000168549
0.000228087
0.000247798
0.000200686
0.000128399
8.73073e-05
5.55671e-05
4.02014e-05
4.86651e-05
9.58729e-05
0.000108546
8.43194e-05
7.54865e-05
8.98921e-05
9.17535e-05
6.43914e-05
4.89378e-05
0.00011461
8.88391e-05
7.35013e-05
6.89841e-05
4.89942e-05
4.35717e-05
4.23791e-05
4.36046e-05
3.82523e-05
3.27044e-05
3.21075e-05
3.17611e-05
3.02887e-05
2.80617e-05
2.60453e-05
2.54621e-05
2.60051e-05
2.74106e-05
2.92171e-05
3.10317e-05
3.25834e-05
3.38977e-05
3.4957e-05
3.57454e-05
3.6305e-05
3.66908e-05
3.69552e-05
3.70953e-05
3.7088e-05
3.69655e-05
3.68046e-05
3.66628e-05
3.65492e-05
3.64502e-05
3.63706e-05
3.62731e-05
3.61863e-05
3.60369e-05
3.5969e-05
3.58211e-05
3.59282e-05
3.61632e-05
3.67028e-05
3.80955e-05
3.99582e-05
4.50454e-05
5.3343e-05
7.10618e-05
9.13558e-05
0.000127538
0.000184727
0.000292742
0.000517549
0.0012046
0.0039054
0.0067522
0.00803333
0.010383
0.009796
0.00996727
0.0473037
0.00509479
0.00187229
0.00156932
0.00239467
0.00204965
0.00165888
0.00131173
0.00107136
0.000920424
0.000874232
0.000876171
0.000896092
0.000949945
0.000957432
0.000944286
0.000865978
0.000470255
0.000239305
0.000312769
0.000406921
0.000354249
0.00022747
0.000151032
0.000103593
6.90296e-05
6.71036e-05
0.000102839
0.000107887
0.000106823
7.77399e-05
7.43889e-05
8.33301e-05
8.53059e-05
5.30882e-05
4.5341e-05
0.000118202
8.95347e-05
7.81354e-05
7.84571e-05
5.79198e-05
5.12709e-05
4.39237e-05
4.38476e-05
4.076e-05
3.50354e-05
3.33683e-05
3.15602e-05
2.9512e-05
2.65814e-05
2.44327e-05
2.38013e-05
2.45027e-05
2.61142e-05
2.8135e-05
3.01257e-05
3.19118e-05
3.35674e-05
3.48165e-05
3.56613e-05
3.61962e-05
3.6533e-05
3.67206e-05
3.67654e-05
3.66301e-05
3.63438e-05
3.60058e-05
3.56943e-05
3.54179e-05
3.51742e-05
3.49549e-05
3.47035e-05
3.44421e-05
3.41151e-05
3.38504e-05
3.34985e-05
3.33717e-05
3.33746e-05
3.37144e-05
3.49131e-05
3.71073e-05
4.4041e-05
5.83395e-05
8.83393e-05
0.000130992
0.000201292
0.000291616
0.00047226
0.00109385
0.00312725
0.0091578
0.0123358
0.0157126
0.0131105
0.00690785
0.00684668
0.0289122
0.00286014
0.00186483
0.00181928
0.00188738
0.00143169
0.00116874
0.000832712
0.000610363
0.000476739
0.000453186
0.000462907
0.000494853
0.000584418
0.000657155
0.000631845
0.000491333
0.000352211
0.00037482
0.00058098
0.000595775
0.000443347
0.000293715
0.000203752
0.000140055
0.00010713
0.000113365
0.00012023
0.000118901
0.000129391
8.28382e-05
6.47749e-05
6.33913e-05
6.48026e-05
3.94497e-05
4.20938e-05
0.000116095
8.55059e-05
7.75669e-05
8.23465e-05
6.7327e-05
6.51156e-05
4.76583e-05
4.43606e-05
4.27953e-05
3.51387e-05
3.29977e-05
3.02824e-05
2.83692e-05
2.50948e-05
2.18139e-05
2.06025e-05
2.1189e-05
2.30811e-05
2.5652e-05
2.83453e-05
3.06923e-05
3.25692e-05
3.3849e-05
3.46767e-05
3.51752e-05
3.5442e-05
3.55394e-05
3.54746e-05
3.52149e-05
3.47992e-05
3.43497e-05
3.39449e-05
3.35916e-05
3.32766e-05
3.29812e-05
3.26701e-05
3.23409e-05
3.19577e-05
3.15739e-05
3.10935e-05
3.06836e-05
3.04081e-05
3.02429e-05
3.09053e-05
3.25328e-05
4.05624e-05
6.31613e-05
0.00010777
0.000173242
0.000263297
0.000416646
0.000800239
0.00223979
0.00646265
0.0144966
0.0149295
0.0159592
0.0134491
0.00624554
0.00612043
0.0206767
0.00266847
0.00210673
0.00198186
0.00180161
0.00151774
0.0012295
0.000862213
0.000574126
0.000405601
0.000336753
0.000369001
0.000426014
0.000491834
0.000525456
0.000526923
0.000499836
0.000593896
0.000972294
0.00135722
0.0011475
0.000823875
0.000548652
0.000337355
0.000224621
0.000183725
0.00017519
0.000165898
0.000173793
0.000184708
0.000135638
7.42471e-05
5.32655e-05
4.52374e-05
2.78752e-05
3.62633e-05
7.53871e-05
7.21273e-05
6.75197e-05
7.97301e-05
6.88091e-05
6.96988e-05
5.22655e-05
4.84716e-05
4.64975e-05
3.53153e-05
3.27293e-05
2.89092e-05
2.60041e-05
2.15821e-05
1.85959e-05
1.7503e-05
1.80845e-05
1.97135e-05
2.17998e-05
2.4013e-05
2.61877e-05
2.80298e-05
2.94148e-05
3.03361e-05
3.08405e-05
3.10855e-05
3.11357e-05
3.10052e-05
3.06597e-05
3.01203e-05
2.95249e-05
2.89678e-05
2.8457e-05
2.80107e-05
2.76077e-05
2.71618e-05
2.66558e-05
2.61176e-05
2.55157e-05
2.49471e-05
2.43433e-05
2.39515e-05
2.36412e-05
2.44625e-05
2.79673e-05
4.12033e-05
7.38389e-05
0.000130833
0.000205538
0.000312837
0.000563089
0.00132464
0.00323934
0.00680913
0.0144466
0.01529
0.0141406
0.0116254
0.00723938
0.00716495
0.016433
0.00262636
0.00233568
0.00239572
0.00221524
0.00195473
0.00162441
0.00137645
0.00102527
0.000740567
0.000553283
0.00049372
0.000512942
0.000576709
0.000684228
0.000989518
0.00185475
0.00256456
0.0028176
0.00214181
0.00138889
0.000860167
0.000516395
0.000380094
0.000323955
0.000308527
0.000301907
0.000298666
0.000301905
0.000288975
0.0002399
0.000155657
9.49477e-05
6.59715e-05
2.92524e-05
3.35484e-05
5.06119e-05
5.08992e-05
4.31859e-05
5.3838e-05
5.25279e-05
5.87281e-05
4.66693e-05
4.33821e-05
4.56167e-05
3.44302e-05
3.25242e-05
2.77046e-05
2.52553e-05
2.04886e-05
1.67182e-05
1.49362e-05
1.55196e-05
1.74195e-05
1.9873e-05
2.2335e-05
2.4541e-05
2.63623e-05
2.77138e-05
2.8636e-05
2.9189e-05
2.94805e-05
2.9572e-05
2.9454e-05
2.90712e-05
2.84667e-05
2.78133e-05
2.72207e-05
2.66923e-05
2.61935e-05
2.56899e-05
2.51631e-05
2.45903e-05
2.40158e-05
2.33723e-05
2.27866e-05
2.21536e-05
2.17902e-05
2.16671e-05
2.29074e-05
2.75385e-05
4.32498e-05
8.20821e-05
0.000136174
0.000206356
0.00034221
0.000848625
0.00246721
0.00529325
0.00978852
0.0135792
0.0124642
0.010484
0.00922463
0.00675194
0.00669358
0.0166016
0.00260739
0.00236308
0.00258806
0.00265325
0.00260002
0.002393
0.00211169
0.00190542
0.00169888
0.00155842
0.00150646
0.00154092
0.00175652
0.00206844
0.0023224
0.00242215
0.00238585
0.00203643
0.00130621
0.000819153
0.000604479
0.000526289
0.000505951
0.000511617
0.000511037
0.000509246
0.000493576
0.000454779
0.000386198
0.000313237
0.000224762
0.000136149
8.05784e-05
5.08006e-05
5.02248e-05
3.97125e-05
4.18032e-05
3.32778e-05
3.89991e-05
3.49364e-05
3.76028e-05
3.38868e-05
2.87012e-05
3.42444e-05
3.11832e-05
3.0261e-05
2.50516e-05
2.11554e-05
1.53412e-05
1.13689e-05
9.62394e-06
1.01682e-05
1.19715e-05
1.41693e-05
1.62402e-05
1.79622e-05
1.93934e-05
2.05674e-05
2.14632e-05
2.20945e-05
2.24715e-05
2.26372e-05
2.2613e-05
2.23418e-05
2.18634e-05
2.13371e-05
2.08514e-05
2.04166e-05
1.9991e-05
1.95463e-05
1.90976e-05
1.86339e-05
1.81988e-05
1.77517e-05
1.74046e-05
1.70864e-05
1.70367e-05
1.73352e-05
1.89628e-05
2.38472e-05
3.69912e-05
6.57469e-05
0.000103857
0.000152832
0.00029615
0.00123731
0.00424341
0.00722038
0.00817883
0.00997065
0.00935169
0.00844736
0.00789333
0.00607865
0.00602192
0.0180127
0.00245806
0.00214616
0.00254382
0.00279699
0.00290556
0.00292002
0.00271302
0.00244112
0.00226615
0.00218338
0.00215615
0.00220748
0.00228304
0.00235198
0.00237629
0.002268
0.00182735
0.00122839
0.000894337
0.000730638
0.000676872
0.00067985
0.00070675
0.000710505
0.000712267
0.000715249
0.000710273
0.000654657
0.000547304
0.000474137
0.000389206
0.000276206
0.000176438
0.00011472
6.32458e-05
3.58058e-05
3.70145e-05
2.94376e-05
3.3709e-05
2.81712e-05
2.7901e-05
2.54067e-05
2.02436e-05
2.31363e-05
2.5089e-05
2.54044e-05
2.0918e-05
1.63672e-05
1.11407e-05
7.68319e-06
6.14788e-06
6.33225e-06
7.53898e-06
9.13428e-06
1.05905e-05
1.17822e-05
1.27987e-05
1.35923e-05
1.42063e-05
1.46571e-05
1.49383e-05
1.5076e-05
1.50987e-05
1.5e-05
1.47876e-05
1.45367e-05
1.42999e-05
1.40903e-05
1.38749e-05
1.36313e-05
1.33913e-05
1.31685e-05
1.29769e-05
1.28019e-05
1.26879e-05
1.26124e-05
1.27196e-05
1.31023e-05
1.4131e-05
1.67897e-05
2.34502e-05
3.83525e-05
5.96105e-05
8.96684e-05
0.000255127
0.0014802
0.00467001
0.00606701
0.00676649
0.00838073
0.00849959
0.00786641
0.00767813
0.00671377
0.0067012
0.0224122
0.00207367
0.00145382
0.00163128
0.00214176
0.00271626
0.00302689
0.00310091
0.00290545
0.0026741
0.00247327
0.00237889
0.00232971
0.00230029
0.00226611
0.0021042
0.00166825
0.00119817
0.000917027
0.000740754
0.00063323
0.000545005
0.000467609
0.000420238
0.000401941
0.000408199
0.000425152
0.000442932
0.000464101
0.000441031
0.000400028
0.000355693
0.00028301
0.000202628
0.00014197
8.96168e-05
3.68834e-05
3.54535e-05
2.83008e-05
3.14825e-05
2.42084e-05
2.20879e-05
1.89889e-05
1.24295e-05
1.44775e-05
1.77557e-05
1.85728e-05
1.53039e-05
1.16897e-05
7.7467e-06
5.50539e-06
4.32055e-06
4.24549e-06
4.87613e-06
5.90413e-06
6.84464e-06
7.60447e-06
8.25285e-06
8.78061e-06
9.20502e-06
9.52841e-06
9.76071e-06
9.89936e-06
9.96029e-06
9.96076e-06
9.8802e-06
9.78356e-06
9.69347e-06
9.62404e-06
9.55817e-06
9.46919e-06
9.38738e-06
9.33304e-06
9.30877e-06
9.31772e-06
9.34767e-06
9.39611e-06
9.49944e-06
9.74977e-06
1.01876e-05
1.14592e-05
1.49094e-05
2.52769e-05
4.19623e-05
7.18098e-05
0.000172524
0.000570454
0.00209958
0.00363367
0.00393334
0.00505323
0.00643274
0.00658707
0.00801354
0.00855707
0.00870418
0.0291715
0.00211855
0.00112596
0.00124244
0.00127091
0.00159197
0.00230746
0.002667
0.00282447
0.00281949
0.00257414
0.00240487
0.00225739
0.00210652
0.00188199
0.001483
0.00117423
0.000901675
0.000705815
0.000534415
0.000436758
0.000367778
0.000348985
0.000360814
0.000380595
0.000388348
0.000405761
0.000419152
0.000444046
0.000443465
0.000417382
0.000374935
0.000316185
0.000243332
0.000174789
0.000102058
4.0402e-05
4.4879e-05
3.21475e-05
3.65283e-05
2.41583e-05
2.04738e-05
1.54116e-05
8.22097e-06
9.84886e-06
1.34405e-05
1.45758e-05
1.19029e-05
8.17865e-06
5.2763e-06
3.77974e-06
3.02455e-06
3.05182e-06
3.50295e-06
4.21708e-06
4.86103e-06
5.36465e-06
5.80364e-06
6.18732e-06
6.51287e-06
6.78414e-06
7.01032e-06
7.19041e-06
7.30276e-06
7.35474e-06
7.36668e-06
7.36507e-06
7.37366e-06
7.4052e-06
7.42633e-06
7.42795e-06
7.42967e-06
7.44438e-06
7.47993e-06
7.53598e-06
7.56745e-06
7.56804e-06
7.57175e-06
7.68377e-06
7.85834e-06
8.55471e-06
1.04391e-05
1.6794e-05
2.86691e-05
5.43671e-05
0.000117461
0.000268343
0.000743076
0.00164719
0.00171579
0.00252179
0.00398624
0.00445533
0.00797915
0.0141099
0.0142313
0.0427789
0.00314285
0.0012508
0.00149086
0.00112276
0.00105377
0.00131042
0.00189748
0.00221324
0.00235665
0.00237355
0.00220415
0.00196421
0.00162894
0.0013217
0.00110916
0.000889979
0.000701541
0.000534417
0.000423494
0.000388396
0.000388023
0.000428803
0.000450047
0.000458331
0.000431894
0.000413546
0.000417907
0.000433463
0.000463294
0.000437125
0.000393667
0.000340807
0.000267616
0.000193111
0.000110518
5.50275e-05
6.95904e-05
5.22024e-05
5.51258e-05
2.89674e-05
2.02265e-05
1.40371e-05
6.96238e-06
7.14046e-06
9.9816e-06
1.11638e-05
9.32013e-06
6.11008e-06
3.87483e-06
2.98078e-06
2.58206e-06
2.55843e-06
2.89516e-06
3.32601e-06
3.70996e-06
4.03483e-06
4.29512e-06
4.52208e-06
4.74691e-06
4.96095e-06
5.16066e-06
5.34083e-06
5.48198e-06
5.56749e-06
5.60393e-06
5.63558e-06
5.68467e-06
5.75909e-06
5.83191e-06
5.88136e-06
5.93288e-06
5.99593e-06
6.07201e-06
6.16331e-06
6.20139e-06
6.20395e-06
6.18772e-06
6.26005e-06
6.30943e-06
6.6069e-06
7.41028e-06
1.04675e-05
1.6308e-05
3.05854e-05
7.66944e-05
0.000187782
0.000422743
0.000766447
0.000961611
0.00185042
0.00317241
0.00649368
0.0161482
0.0298541
0.0297631
0.0642324
0.00793774
0.00240601
0.00293743
0.00234597
0.001028
0.000836519
0.00100955
0.00151345
0.00175696
0.00188037
0.00189194
0.00175635
0.00150025
0.0011882
0.00092762
0.000792572
0.000634971
0.00048934
0.000404749
0.000384213
0.000472667
0.000566852
0.000570728
0.000547475
0.000484103
0.000409027
0.000376702
0.000378713
0.000410281
0.000399716
0.000367778
0.000328364
0.000269831
0.000200363
0.000113175
6.65058e-05
8.26888e-05
7.35003e-05
9.55614e-05
4.83237e-05
2.68862e-05
1.65109e-05
6.80493e-06
6.14029e-06
7.77899e-06
9.43805e-06
7.96641e-06
5.07421e-06
3.26776e-06
2.58524e-06
2.19081e-06
2.16374e-06
2.42493e-06
2.76431e-06
3.05396e-06
3.28664e-06
3.49208e-06
3.66768e-06
3.81399e-06
3.94695e-06
4.08065e-06
4.21422e-06
4.32882e-06
4.39369e-06
4.41818e-06
4.43127e-06
4.46998e-06
4.54497e-06
4.64051e-06
4.7253e-06
4.80667e-06
4.90078e-06
5.00361e-06
5.12851e-06
5.19265e-06
5.20436e-06
5.17502e-06
5.18644e-06
5.16089e-06
5.32136e-06
5.68667e-06
7.33436e-06
1.19337e-05
2.77022e-05
7.16777e-05
0.000146971
0.00026146
0.000444547
0.000799473
0.00167882
0.0031617
0.00637052
0.0160603
0.0431947
0.048667
0.0905701
0.020878
0.00815082
0.00521679
0.00346492
0.00190197
0.00087899
0.000544669
0.000791842
0.00114534
0.00131736
0.00140232
0.00143162
0.00135686
0.00119354
0.00101996
0.000851707
0.000723409
0.000576215
0.000493363
0.000510612
0.000605778
0.000648912
0.000635049
0.000591117
0.000507036
0.000410177
0.000345715
0.000326419
0.000340144
0.000337533
0.000319105
0.000292967
0.000255116
0.000186329
0.000105396
9.99883e-05
0.00013608
0.000125491
0.000166247
8.14646e-05
5.22329e-05
3.05213e-05
6.67517e-06
4.20105e-06
4.76003e-06
5.56177e-06
4.91373e-06
3.45246e-06
2.44567e-06
1.98068e-06
1.72287e-06
1.71986e-06
1.92109e-06
2.15963e-06
2.35639e-06
2.51858e-06
2.66349e-06
2.7944e-06
2.91841e-06
3.04613e-06
3.18573e-06
3.33182e-06
3.46211e-06
3.54623e-06
3.58874e-06
3.63464e-06
3.70788e-06
3.81278e-06
3.93073e-06
4.02637e-06
4.11537e-06
4.21626e-06
4.32486e-06
4.45325e-06
4.52853e-06
4.55196e-06
4.52679e-06
4.519e-06
4.4624e-06
4.54779e-06
4.73777e-06
5.82054e-06
9.27013e-06
2.17976e-05
5.47951e-05
0.000108461
0.000187499
0.000333442
0.000635546
0.00141577
0.00285769
0.00842949
0.0256066
0.0499646
0.0565785
0.097092
0.0423563
0.0175789
0.00660566
0.00368523
0.00213876
0.00126822
0.000697288
0.000423478
0.000460774
0.000659811
0.000847931
0.000995941
0.00105428
0.00105681
0.000974902
0.000874135
0.000806955
0.000742093
0.000677586
0.000665717
0.000668038
0.000657521
0.000621459
0.000542036
0.000445045
0.000364992
0.000317985
0.000285488
0.000277726
0.000271174
0.00025701
0.000244194
0.000218144
0.000153544
8.59053e-05
0.000108894
9.97578e-05
9.42658e-05
8.01558e-05
8.84688e-05
7.81703e-05
5.32115e-05
1.34209e-05
3.05931e-06
2.6481e-06
2.67711e-06
2.45777e-06
1.90354e-06
1.4554e-06
1.21071e-06
1.07619e-06
1.08263e-06
1.19764e-06
1.32688e-06
1.43355e-06
1.52364e-06
1.60603e-06
1.68484e-06
1.7646e-06
1.85039e-06
1.94588e-06
2.04798e-06
2.14147e-06
2.2068e-06
2.24323e-06
2.28392e-06
2.34405e-06
2.42684e-06
2.51935e-06
2.60352e-06
2.68239e-06
2.76958e-06
2.86161e-06
2.96666e-06
3.04493e-06
3.08538e-06
3.0773e-06
3.05184e-06
2.95751e-06
2.93959e-06
2.99354e-06
3.50384e-06
5.05698e-06
1.07016e-05
2.67517e-05
5.55688e-05
9.71785e-05
0.000185677
0.000376906
0.000849357
0.00164271
0.00418699
0.00908536
0.0370142
0.0542974
0.109881
0.0475392
0.0212178
0.00972838
0.00541233
0.00318782
0.0019294
0.00118881
0.000706323
0.000462629
0.000356848
0.000364401
0.000430452
0.000499063
0.000622292
0.000694005
0.000721761
0.000720251
0.000711807
0.000690007
0.000669462
0.000649348
0.000614782
0.000566171
0.000506301
0.000431761
0.000365985
0.000333791
0.000297621
0.000266908
0.000256725
0.000250909
0.000239861
0.000210366
0.000100114
4.23715e-05
0.000155134
0.000114927
5.20731e-05
3.0883e-05
1.59337e-05
1.06794e-05
1.09261e-05
1.16822e-05
1.49843e-05
2.59561e-05
3.78256e-05
4.943e-05
5.37038e-05
5.44766e-05
5.09309e-05
4.70865e-05
4.33479e-05
4.07477e-05
3.81535e-05
3.55872e-05
3.31495e-05
3.15327e-05
3.09553e-05
3.1121e-05
3.1846e-05
3.3034e-05
3.45291e-05
3.59639e-05
3.69639e-05
3.75955e-05
3.8081e-05
3.85537e-05
3.90461e-05
3.95312e-05
4.00353e-05
4.06314e-05
4.1509e-05
4.27116e-05
4.4617e-05
4.67237e-05
4.89257e-05
5.05634e-05
5.17424e-05
5.13035e-05
4.90239e-05
4.32726e-05
3.25455e-05
2.29326e-05
2.07991e-05
2.85644e-05
4.65562e-05
7.92939e-05
0.000199408
0.000429905
0.000829334
0.00133684
0.00257561
0.00460736
0.00880452
0.0151519
0.0330024
0.0241479
0.0186436
0.0141191
0.0107183
0.00846165
0.00700098
0.00599936
0.00524722
0.00467559
0.00419242
0.00377288
0.00339129
0.00302722
0.00268339
0.00230397
0.0019226
0.00153497
0.00100022
0.000421798
0.00014596
9.78973e-05
9.08576e-05
7.55955e-05
6.44225e-05
5.05188e-05
3.44666e-05
3.2419e-05
5.08049e-05
0.000107945
0.000124552
0.000121393
0.000113638
0.000105252
9.38329e-05
6.74974e-05
0.000140001
9.52338e-05
6.07359e-05
4.38567e-05
2.95401e-05
2.45595e-05
2.5562e-05
2.86754e-05
3.32332e-05
4.35955e-05
4.92308e-05
5.5796e-05
5.8137e-05
5.80986e-05
5.55642e-05
5.32535e-05
5.15699e-05
5.08527e-05
5.05541e-05
5.02905e-05
4.97253e-05
4.94335e-05
4.96171e-05
5.02145e-05
5.11481e-05
5.23273e-05
5.36183e-05
5.47588e-05
5.55433e-05
5.60878e-05
5.6582e-05
5.70821e-05
5.75919e-05
5.81116e-05
5.86736e-05
5.92977e-05
6.00662e-05
6.10383e-05
6.24139e-05
6.39599e-05
6.55642e-05
6.69964e-05
6.86164e-05
6.95861e-05
7.03685e-05
6.76933e-05
6.00138e-05
4.88663e-05
4.65812e-05
5.44247e-05
7.65047e-05
0.000145309
0.000387756
0.00077614
0.00150297
0.00251779
0.00401314
0.00522872
0.00842352
0.00990403
0.0288993
0.0104292
0.0164478
0.0111085
0.00723946
0.00564114
0.00465772
0.00393437
0.00328473
0.00281131
0.00248852
0.00226111
0.00209739
0.00198543
0.00188043
0.00174942
0.00162398
0.00138766
0.00106726
0.000660526
0.000299659
0.000209282
0.0001896
0.000134186
7.88213e-05
5.12402e-05
3.58699e-05
3.79139e-05
7.42563e-05
0.000121137
0.000109969
9.69604e-05
9.93206e-05
0.000108259
0.000100925
7.15083e-05
0.000195129
0.000118056
9.09021e-05
6.97491e-05
5.78436e-05
5.16188e-05
5.03578e-05
5.37728e-05
5.66626e-05
6.32605e-05
6.39275e-05
6.51045e-05
6.52912e-05
6.35277e-05
5.98006e-05
5.78976e-05
5.75028e-05
5.84824e-05
6.02243e-05
6.20923e-05
6.35831e-05
6.49423e-05
6.61568e-05
6.7282e-05
6.83823e-05
6.94709e-05
7.049e-05
7.13781e-05
7.2056e-05
7.25372e-05
7.29654e-05
7.33944e-05
7.38359e-05
7.42951e-05
7.47984e-05
7.53247e-05
7.5899e-05
7.65332e-05
7.7371e-05
7.83074e-05
7.94908e-05
8.09637e-05
8.28321e-05
8.56306e-05
8.91734e-05
9.21206e-05
9.16112e-05
8.8276e-05
9.05968e-05
0.000107141
0.000135616
0.000193963
0.000441897
0.0011013
0.00227151
0.00433835
0.0055736
0.00692507
0.00700669
0.00653292
0.0258568
0.00607355
0.00809266
0.00485831
0.00467187
0.00410406
0.0032647
0.00254043
0.00201579
0.00171848
0.00156806
0.00148193
0.00143208
0.00142915
0.0014231
0.00139227
0.00133491
0.00120837
0.00104305
0.000688299
0.000457054
0.000432869
0.00030914
0.00015245
9.3637e-05
6.9157e-05
6.99553e-05
0.000111205
0.000182177
0.000156449
0.000104979
0.000104787
0.000135061
0.000136411
0.000114928
7.77896e-05
0.000289649
0.000162937
0.000125264
0.000101393
8.74209e-05
8.02716e-05
7.93201e-05
8.25814e-05
7.88681e-05
7.8545e-05
7.77582e-05
7.76499e-05
7.65135e-05
7.32771e-05
6.79977e-05
6.47053e-05
6.42805e-05
6.5806e-05
6.82083e-05
7.08219e-05
7.33817e-05
7.58039e-05
7.77134e-05
7.92123e-05
8.05514e-05
8.18537e-05
8.30111e-05
8.39551e-05
8.45849e-05
8.49123e-05
8.51457e-05
8.5402e-05
8.56985e-05
8.60467e-05
8.64368e-05
8.68291e-05
8.72427e-05
8.76541e-05
8.82173e-05
8.87552e-05
8.9581e-05
9.08865e-05
9.27871e-05
9.6694e-05
0.000102962
0.000114691
0.000128667
0.000141914
0.000153454
0.000192144
0.000254276
0.000321679
0.00058219
0.00147252
0.0042091
0.00797427
0.0117773
0.0170217
0.0091726
0.00898879
0.0313819
0.00440697
0.00398998
0.00312869
0.00448018
0.0031359
0.00243117
0.00187094
0.00149038
0.0012927
0.00120672
0.00114725
0.00110704
0.00110995
0.00113485
0.00119573
0.00119591
0.0010871
0.000937903
0.000711559
0.000696955
0.000614159
0.00033563
0.000218128
0.000183571
0.000180225
0.000217501
0.000255432
0.000194762
0.000135744
9.37357e-05
9.51986e-05
0.000139488
0.000142378
0.000113578
7.71954e-05
0.000443626
0.000200453
0.000158201
0.000131652
0.000115123
0.000101123
9.64991e-05
9.91866e-05
9.57571e-05
9.2272e-05
9.16681e-05
9.00598e-05
8.7188e-05
8.01679e-05
7.24598e-05
6.73423e-05
6.70159e-05
6.96822e-05
7.39268e-05
7.85317e-05
8.27536e-05
8.64079e-05
8.93613e-05
9.17615e-05
9.37298e-05
9.53172e-05
9.67002e-05
9.77996e-05
9.8447e-05
9.86642e-05
9.87787e-05
9.89343e-05
9.91437e-05
9.94118e-05
9.97393e-05
0.000100012
0.000100221
0.000100426
0.000100651
0.00010101
0.00010148
0.000102599
0.000104401
0.000109402
0.000118619
0.000134804
0.000161447
0.000197943
0.000235753
0.000321908
0.000492282
0.000733034
0.00142076
0.00384269
0.0107255
0.020505
0.0307552
0.0261977
0.00924936
0.00907543
0.0385522
0.0040026
0.00382475
0.00365301
0.00404421
0.00298495
0.00259873
0.00209347
0.00154234
0.00120409
0.000989157
0.000894572
0.000860291
0.000857423
0.000863727
0.0009098
0.000927594
0.000970835
0.00100963
0.00107626
0.00113503
0.000816334
0.000621365
0.00056519
0.000526114
0.000492409
0.000451857
0.000355877
0.000244945
0.000191994
0.000126363
0.000103614
0.000120232
0.000127915
0.000103186
7.37416e-05
0.000631854
0.000216167
0.000176683
0.000159187
0.000144599
0.0001285
0.000115705
0.000115865
0.000112394
0.0001052
0.000103502
9.72671e-05
9.19467e-05
8.20746e-05
7.28801e-05
6.61925e-05
6.58102e-05
6.92663e-05
7.44661e-05
8.00851e-05
8.53345e-05
8.98115e-05
9.35826e-05
9.68063e-05
9.9382e-05
0.000101475
0.000103162
0.000104382
0.000104937
0.00010487
0.00010464
0.00010446
0.000104343
0.000104347
0.000104531
0.000104599
0.000104513
0.000104402
0.000104173
0.000104252
0.000104313
0.000105171
0.00010666
0.000112259
0.000123503
0.000147353
0.000180871
0.000222307
0.000275566
0.000380954
0.000676251
0.00131372
0.00328037
0.0084812
0.0234512
0.027912
0.0304042
0.0283379
0.00794926
0.00792435
0.044084
0.00459628
0.00420709
0.00440306
0.00453709
0.00395331
0.00340955
0.00270338
0.00188926
0.00128163
0.000895295
0.000767561
0.000728326
0.000763807
0.000846141
0.000992314
0.00121643
0.00157933
0.00214926
0.00267215
0.002482
0.00221845
0.00215521
0.00203929
0.00185342
0.00161863
0.00139103
0.00116815
0.000892821
0.000645563
0.000488998
0.000349069
0.000207971
0.000146552
8.57151e-05
6.307e-05
0.000504439
0.000215798
0.000187121
0.000173739
0.000161983
0.000150341
0.000129845
0.00012746
0.0001233
0.000112208
0.000110535
9.93846e-05
9.25944e-05
7.87811e-05
6.65261e-05
5.81609e-05
5.79149e-05
6.20991e-05
6.83547e-05
7.50863e-05
8.14932e-05
8.72413e-05
9.20233e-05
9.58278e-05
9.87934e-05
0.000101117
0.000102898
0.000104087
0.000104445
0.000104033
0.000103404
0.000102831
0.000102325
0.000101965
0.000101893
0.000101641
0.000101152
0.000100629
9.98085e-05
9.91993e-05
9.81967e-05
9.8243e-05
9.8698e-05
0.000104955
0.000118744
0.000148276
0.000192008
0.000239472
0.000300309
0.000468677
0.000857527
0.00172232
0.00389312
0.00892346
0.0207895
0.0261443
0.0221192
0.0125792
0.0103101
0.010477
0.0387347
0.00461379
0.00437041
0.00464332
0.00465665
0.00433347
0.00395361
0.00356545
0.00317289
0.00267428
0.00200571
0.00163054
0.00151395
0.00164469
0.00215855
0.00346181
0.00549965
0.00700315
0.00753378
0.00684273
0.00589914
0.00530546
0.00463156
0.0041337
0.00362723
0.00330321
0.0030524
0.00273992
0.0022955
0.00201434
0.00194753
0.00198586
0.0018931
0.000879349
0.000240846
5.56632e-05
0.00033909
0.000213609
0.000173511
0.000171149
0.000165068
0.000155745
0.000132922
0.000128785
0.000125387
0.00011419
0.000113018
9.81085e-05
8.86012e-05
7.00739e-05
5.52486e-05
4.48769e-05
4.49187e-05
5.05324e-05
5.84497e-05
6.64516e-05
7.3549e-05
7.95294e-05
8.43895e-05
8.82433e-05
9.1188e-05
9.33971e-05
9.49214e-05
9.56162e-05
9.52806e-05
9.40472e-05
9.26299e-05
9.13561e-05
9.02046e-05
8.89373e-05
8.74035e-05
8.58027e-05
8.4039e-05
8.22848e-05
8.01897e-05
7.84068e-05
7.61335e-05
7.52949e-05
7.52916e-05
8.12045e-05
9.69122e-05
0.000132629
0.000187201
0.000237024
0.000304343
0.000566484
0.00128307
0.00300644
0.00659451
0.0144523
0.0207534
0.0179267
0.0165583
0.0148123
0.010258
0.0104095
0.0375136
0.00461552
0.00437567
0.00483941
0.00497892
0.00485984
0.00448172
0.00401302
0.00382927
0.00378613
0.00388427
0.00408728
0.00448249
0.00501319
0.00564146
0.00595853
0.00601399
0.00531841
0.00450958
0.00375901
0.00340454
0.00323259
0.00313157
0.00300581
0.0029076
0.00290537
0.00280812
0.00259526
0.00221075
0.00177524
0.00142263
0.0011092
0.000878983
0.000726577
0.000649165
0.000167403
0.000250359
0.000235112
0.000158646
0.000146498
0.000142427
0.000139089
0.000127616
0.000115761
0.00011858
0.000115296
0.000115006
9.4965e-05
7.9777e-05
5.41518e-05
3.70678e-05
2.83651e-05
2.75661e-05
3.01985e-05
3.44301e-05
3.90669e-05
4.40876e-05
4.94573e-05
5.40745e-05
5.78503e-05
6.07385e-05
6.27772e-05
6.40913e-05
6.46852e-05
6.42871e-05
6.29307e-05
6.14091e-05
5.9996e-05
5.87316e-05
5.75961e-05
5.65405e-05
5.54562e-05
5.42659e-05
5.33185e-05
5.23153e-05
5.18645e-05
5.08178e-05
5.13027e-05
5.18784e-05
5.71895e-05
6.85831e-05
9.34876e-05
0.000133234
0.000161398
0.000207003
0.00058346
0.00190045
0.00570603
0.0123759
0.0138794
0.0153627
0.0162343
0.0204317
0.02601
0.00827941
0.00831927
0.0427076
0.0040039
0.00362712
0.00422003
0.00547284
0.00600097
0.00617444
0.00586876
0.00513928
0.00470254
0.00451649
0.00447709
0.00473586
0.00496949
0.0052436
0.00535981
0.0052956
0.00486751
0.00458183
0.00407651
0.00363399
0.00304027
0.00260139
0.00245499
0.00245296
0.00273739
0.00318504
0.00388772
0.00460278
0.00440348
0.00393681
0.00316955
0.00198893
0.00102296
0.000460347
0.000101793
0.000211257
0.000234813
0.000145853
0.000130655
0.000103879
9.42886e-05
9.15102e-05
8.58809e-05
8.96278e-05
9.78986e-05
9.79486e-05
8.01393e-05
6.12324e-05
3.96547e-05
2.69583e-05
2.16511e-05
2.09113e-05
2.2023e-05
2.40743e-05
2.6362e-05
2.88633e-05
3.14833e-05
3.38006e-05
3.57184e-05
3.72279e-05
3.84028e-05
3.92995e-05
3.98656e-05
3.98798e-05
3.9284e-05
3.85993e-05
3.80301e-05
3.75887e-05
3.71231e-05
3.65703e-05
3.60602e-05
3.5531e-05
3.51274e-05
3.44896e-05
3.40633e-05
3.33554e-05
3.30935e-05
3.30091e-05
3.48856e-05
3.94652e-05
5.13685e-05
6.97609e-05
8.20703e-05
0.000121438
0.000462195
0.00216446
0.0063187
0.0091314
0.011171
0.0137133
0.0173708
0.0180976
0.0185354
0.00985433
0.00977577
0.0447263
0.00320885
0.0022333
0.0024039
0.00322789
0.00423987
0.00584512
0.00644176
0.00651752
0.00597768
0.00566415
0.00541008
0.00526152
0.00511077
0.00495058
0.00466443
0.00413938
0.00339352
0.00256566
0.00178371
0.00111517
0.00078293
0.000686753
0.000630937
0.000608555
0.000626152
0.000705068
0.000811197
0.00097805
0.00102278
0.000932414
0.000752508
0.000512865
0.000317585
0.000184847
0.000102652
0.000177138
0.000209296
0.000130105
0.000103697
7.16849e-05
5.39703e-05
5.1278e-05
5.28969e-05
6.32663e-05
7.71722e-05
7.90804e-05
6.60901e-05
4.91856e-05
3.08579e-05
2.27861e-05
2.00087e-05
1.94873e-05
1.9942e-05
2.06783e-05