/*--------------------------------*- C++ -*----------------------------------*\
| =========                 |                                                 |
| \\      /  F ield         | OpenFOAM: The Open Source CFD Toolbox           |
|  \\    /   O peration     | Version:  2.3.0                                 |
|   \\  /    A nd           | Web:      www.OpenFOAM.org                      |
|    \\/     M anipulation  |                                                 |
\*---------------------------------------------------------------------------*/
FoamFile
{
    version     2.0;
    format      ascii;
    class       volScalarField;
    location    "44";
    object      k.water;
}
// * * * * * * * * * * * * * * * * * * * * * * * * * * * * * * * * * * * * * //

dimensions      [0 2 -2 0 0 0 0];

internalField   nonuniform List<scalar> 
6144
(
9.38013e-05
7.29148e-05
5.05007e-05
4.06198e-05
2.87039e-05
2.22618e-05
2.02588e-05
1.88262e-05
1.73692e-05
2.03041e-05
2.48424e-05
2.8743e-05
3.04937e-05
3.09286e-05
2.97704e-05
2.87029e-05
2.74942e-05
2.67222e-05
2.59439e-05
2.51793e-05
2.484e-05
2.47159e-05
2.47212e-05
2.47901e-05
2.49064e-05
2.50602e-05
2.5251e-05
2.55537e-05
2.59086e-05
2.6134e-05
2.62733e-05
2.6393e-05
2.65219e-05
2.66474e-05
2.67772e-05
2.69241e-05
2.71822e-05
2.75091e-05
2.81065e-05
2.87012e-05
2.93865e-05
2.9985e-05
3.02099e-05
3.0164e-05
2.89619e-05
2.63454e-05
2.29123e-05
2.28349e-05
2.96162e-05
4.69439e-05
7.26881e-05
0.000102725
0.000184207
0.000326175
0.000530932
0.000665632
0.000839705
0.00167995
0.00454343
0.00639037
0.0154909
0.00992528
0.00647047
0.00441133
0.00323239
0.00256121
0.00215492
0.00190258
0.00173204
0.00160973
0.00150153
0.00141163
0.00131836
0.0012281
0.00113558
0.00101065
0.000901782
0.000705138
0.000356347
0.000132428
8.86964e-05
9.10048e-05
9.2438e-05
8.99273e-05
8.74907e-05
8.34617e-05
7.10627e-05
6.38725e-05
7.70581e-05
0.000121177
0.000135019
0.000133804
0.000129016
0.00012316
0.000114363
9.23037e-05
0.000132155
0.000105761
7.46884e-05
6.48557e-05
4.80143e-05
4.17681e-05
4.09001e-05
4.04798e-05
3.88183e-05
4.43739e-05
4.96174e-05
5.46077e-05
5.70202e-05
5.68637e-05
5.4307e-05
5.26235e-05
5.11746e-05
5.07051e-05
5.0646e-05
5.08994e-05
5.15959e-05
5.24036e-05
5.31554e-05
5.38052e-05
5.4346e-05
5.48015e-05
5.51983e-05
5.57205e-05
5.62681e-05
5.66345e-05
5.69238e-05
5.7212e-05
5.75228e-05
5.78336e-05
5.81774e-05
5.85344e-05
5.90355e-05
5.96022e-05
6.05059e-05
6.14368e-05
6.24497e-05
6.35495e-05
6.41623e-05
6.49258e-05
6.42339e-05
6.23385e-05
5.59571e-05
5.5159e-05
6.24731e-05
8.05958e-05
0.000113514
0.000151902
0.000258716
0.000486794
0.000917316
0.00121428
0.00156035
0.00227732
0.00379758
0.00557255
0.0129773
0.00662047
0.00335455
0.00191707
0.00150523
0.00139156
0.00136058
0.00133733
0.00128902
0.00124331
0.00119389
0.00114737
0.00109986
0.00105578
0.00100376
0.000933586
0.000856958
0.000696281
0.000367071
0.000164912
0.000154247
0.000169582
0.000168802
0.000150287
0.000116257
9.47243e-05
7.382e-05
7.0755e-05
9.5251e-05
0.0001491
0.000146475
0.000134201
0.000123469
0.000119671
0.000112908
8.82441e-05
0.000142189
0.000118731
9.67791e-05
8.93297e-05
7.05335e-05
6.28601e-05
6.31643e-05
6.41234e-05
5.9382e-05
5.84547e-05
6.03395e-05
6.1754e-05
6.15001e-05
5.95141e-05
5.69222e-05
5.59718e-05
5.60305e-05
5.74515e-05
5.96856e-05
6.24411e-05
6.47847e-05
6.66324e-05
6.8141e-05
6.93027e-05
7.01691e-05
7.08052e-05
7.12728e-05
7.15947e-05
7.17667e-05
7.18372e-05
7.18811e-05
7.19425e-05
7.20322e-05
7.21307e-05
7.2262e-05
7.23584e-05
7.24764e-05
7.25109e-05
7.266e-05
7.27742e-05
7.31806e-05
7.38448e-05
7.47323e-05
7.68104e-05
7.89036e-05
8.33271e-05
8.37444e-05
8.90466e-05
0.000101232
0.000126665
0.000164612
0.000202191
0.000298934
0.00059602
0.00119613
0.00166967
0.00207481
0.00265832
0.00374699
0.0046243
0.0115178
0.00369565
0.00144822
0.00104724
0.00122953
0.00129003
0.00127006
0.00120869
0.0011146
0.00104101
0.000990997
0.000953375
0.000924811
0.00090319
0.00087188
0.000816261
0.00075316
0.000626572
0.000313586
0.000218577
0.000267454
0.000283968
0.000247911
0.000184178
0.000142496
0.000105638
8.50592e-05
9.63527e-05
0.000151648
0.000165282
0.000140016
0.000130243
0.000146566
0.000148854
0.000117814
8.34533e-05
0.000147446
0.00012477
0.000110258
0.00010599
8.4594e-05
7.84364e-05
7.72003e-05
7.88879e-05
7.24792e-05
6.54571e-05
6.4824e-05
6.45211e-05
6.26721e-05
5.97132e-05
5.6961e-05
5.62492e-05
5.719e-05
5.93816e-05
6.21184e-05
6.48263e-05
6.71369e-05
6.91015e-05
7.07083e-05
7.19444e-05
7.28718e-05
7.35667e-05
7.40997e-05
7.44673e-05
7.46374e-05
7.46525e-05
7.46144e-05
7.46006e-05
7.46238e-05
7.4666e-05
7.47337e-05
7.47759e-05
7.4832e-05
7.48006e-05
7.48808e-05
7.48493e-05
7.51719e-05
7.56749e-05
7.6603e-05
7.87147e-05
8.14565e-05
8.84506e-05
9.9262e-05
0.000120471
0.000142657
0.000178343
0.000228309
0.000310725
0.000454795
0.000800548
0.00176163
0.00255239
0.00287281
0.00342375
0.003297
0.00334239
0.00945367
0.00213534
0.00110192
0.00098293
0.00130491
0.00117922
0.00102712
0.000880238
0.000770518
0.000697386
0.00067489
0.000677186
0.000688555
0.000717168
0.000722651
0.000717451
0.000679863
0.000457033
0.00028979
0.000344576
0.000413144
0.000378894
0.000282754
0.000215232
0.000167694
0.000128105
0.000125535
0.00016689
0.000172951
0.000172196
0.00013969
0.000135946
0.000146953
0.000149604
0.000109382
7.93336e-05
0.000150578
0.000125558
0.000115045
0.000115757
9.48872e-05
8.7779e-05
7.94449e-05
7.96159e-05
7.60812e-05
6.90018e-05
6.70125e-05
6.47792e-05
6.21467e-05
5.81482e-05
5.51468e-05
5.43653e-05
5.56043e-05
5.82002e-05
6.13584e-05
6.44214e-05
6.71527e-05
6.96718e-05
7.1611e-05
7.29893e-05
7.39436e-05
7.46288e-05
7.51118e-05
7.54003e-05
7.54416e-05
7.52727e-05
7.50285e-05
7.48167e-05
7.46502e-05
7.45261e-05
7.44334e-05
7.42921e-05
7.41331e-05
7.38759e-05
7.37045e-05
7.34026e-05
7.34258e-05
7.36395e-05
7.43505e-05
7.63236e-05
7.97261e-05
8.96417e-05
0.000108432
0.000143311
0.000186651
0.000248879
0.000319155
0.000441151
0.000773413
0.00155571
0.00321953
0.00394731
0.00464616
0.00412663
0.00272051
0.0027137
0.00705151
0.00151212
0.00114102
0.00112549
0.00115666
0.00096522
0.000845909
0.000676848
0.000551664
0.000468427
0.000453343
0.000460836
0.000482733
0.000540047
0.000586061
0.000573371
0.000487093
0.000390648
0.000405357
0.000544766
0.000557643
0.000459953
0.000350048
0.000274769
0.000214527
0.000179481
0.000186509
0.000194451
0.000193492
0.0002052
0.000152925
0.000130177
0.000128638
0.000130859
9.4272e-05
7.55008e-05
0.000148849
0.000121896
0.000114691
0.000119852
0.000105218
0.00010333
8.42682e-05
8.06639e-05
7.90713e-05
6.96091e-05
6.70146e-05
6.3533e-05
6.10658e-05
5.64899e-05
5.16503e-05
4.99104e-05
5.10468e-05
5.42474e-05
5.84243e-05
6.26803e-05
6.63414e-05
6.92762e-05
7.13421e-05
7.2767e-05
7.37312e-05
7.43728e-05
7.47783e-05
7.49557e-05
7.48557e-05
7.45292e-05
7.41471e-05
7.3822e-05
7.35652e-05
7.33589e-05
7.31764e-05
7.29655e-05
7.27224e-05
7.23923e-05
7.20541e-05
7.1561e-05
7.11684e-05
7.09779e-05
7.09574e-05
7.22345e-05
7.50094e-05
8.71844e-05
0.000117464
0.000168111
0.00023119
0.000306471
0.000417685
0.000647689
0.00128872
0.00261212
0.0045165
0.00462388
0.00484579
0.00433744
0.00262998
0.00260387
0.00582379
0.00149441
0.00128137
0.00123474
0.00116259
0.00104089
0.000907329
0.000719477
0.000550342
0.000437206
0.000386017
0.000410913
0.00045337
0.000500611
0.000525056
0.000527693
0.000511075
0.000572301
0.000795683
0.000999224
0.000899591
0.000723877
0.000554131
0.000401869
0.000306649
0.000268353
0.000260523
0.000251953
0.000260461
0.000272156
0.000222268
0.000149205
0.000119916
0.000107847
7.83139e-05
6.8346e-05
0.000111691
0.000108966
0.000104748
0.000117596
0.000107093
0.000108545
9.00192e-05
8.60176e-05
8.40646e-05
7.03115e-05
6.7144e-05
6.20936e-05
5.81243e-05
5.15647e-05
4.69009e-05
4.52453e-05
4.64467e-05
4.94123e-05
5.30712e-05
5.68513e-05
6.04944e-05
6.35711e-05
6.59287e-05
6.75838e-05
6.86189e-05
6.92705e-05
6.96333e-05
6.97254e-05
6.94905e-05
6.89531e-05
6.83172e-05
6.77268e-05
6.71964e-05
6.67565e-05
6.63762e-05
6.59176e-05
6.53506e-05
6.47182e-05
6.39657e-05
6.32533e-05
6.24657e-05
6.20274e-05
6.17235e-05
6.33868e-05
6.95749e-05
9.04168e-05
0.000133822
0.000196507
0.000266402
0.000353993
0.000526551
0.000935348
0.00170061
0.00279496
0.00463865
0.0048395
0.00460862
0.0040614
0.00295956
0.00294873
0.00514424
0.00152699
0.00141808
0.00144772
0.00137987
0.00127426
0.00113056
0.00101606
0.000838221
0.00067691
0.000558145
0.000518144
0.000532493
0.000577364
0.000648222
0.000829036
0.00126473
0.00158087
0.00169148
0.00141772
0.00106622
0.000776989
0.000554013
0.000451869
0.000406818
0.000394648
0.000390235
0.000388604
0.000392718
0.000382726
0.000339182
0.000255095
0.000184093
0.000144734
8.44324e-05
6.48695e-05
8.56738e-05
8.64948e-05
7.79459e-05
9.0792e-05
8.97822e-05
9.72622e-05
8.38988e-05
8.03494e-05
8.35529e-05
6.96561e-05
6.74261e-05
6.09114e-05
5.75713e-05
5.03417e-05
4.41896e-05
4.12039e-05
4.24877e-05
4.61232e-05
5.06152e-05
5.4991e-05
5.88499e-05
6.20356e-05
6.44568e-05
6.6204e-05
6.73823e-05
6.81603e-05
6.86315e-05
6.87775e-05
6.85055e-05
6.78726e-05
6.71447e-05
6.64974e-05
6.59394e-05
6.54162e-05
6.48717e-05
6.42738e-05
6.35816e-05
6.28692e-05
6.20177e-05
6.12482e-05
6.03739e-05
5.99737e-05
6.00102e-05
6.25558e-05
7.10455e-05
9.64022e-05
0.000148296
0.000208542
0.000276303
0.000389403
0.000718034
0.00146794
0.00244543
0.0036995
0.00462302
0.00438511
0.00392238
0.00361737
0.00294647
0.00294103
0.0054157
0.00158322
0.00148872
0.00158805
0.00162102
0.00160652
0.0015269
0.00140942
0.00132089
0.00122756
0.00116293
0.00114164
0.00116235
0.0012723
0.00142205
0.00154258
0.00159385
0.00158524
0.00143525
0.00107144
0.000787054
0.000643847
0.000587776
0.000573973
0.000580384
0.000582489
0.00058326
0.000573242
0.000544756
0.000490288
0.000427992
0.000344384
0.000247565
0.000175135
0.000129221
8.4859e-05
7.28403e-05
7.57552e-05
6.53815e-05
7.30322e-05
6.81686e-05
7.19306e-05
6.73912e-05
6.05976e-05
6.84863e-05
6.46463e-05
6.36574e-05
5.63772e-05
5.05939e-05
4.10179e-05
3.37388e-05
3.03234e-05
3.15925e-05
3.53769e-05
3.97542e-05
4.37252e-05
4.69625e-05
4.96337e-05
5.18334e-05
5.35499e-05
5.48207e-05
5.56704e-05
5.61722e-05
5.63598e-05
5.61337e-05
5.55512e-05
5.48738e-05
5.42519e-05
5.37056e-05
5.31638e-05
5.2576e-05
5.19683e-05
5.13199e-05
5.07107e-05
5.00661e-05
4.95973e-05
4.91742e-05
4.92614e-05
5.00215e-05
5.33089e-05
6.23536e-05
8.3861e-05
0.000123408
0.000167849
0.000218036
0.000341005
0.000888649
0.00202135
0.00289103
0.0031516
0.00361382
0.00347309
0.00325618
0.00312214
0.00265369
0.00264717
0.00548117
0.00145458
0.00133265
0.00149747
0.00160142
0.00164888
0.00165975
0.00158565
0.00148268
0.00141521
0.00138479
0.00137769
0.00140357
0.00143969
0.00147264
0.00148728
0.00144792
0.00126078
0.000969752
0.000786272
0.000688379
0.000655567
0.000659071
0.00067873
0.000683736
0.000686762
0.000690595
0.000689409
0.000654919
0.000582934
0.000531422
0.000467462
0.000373177
0.000277628
0.000208997
9.91431e-05
6.79504e-05
6.97796e-05
6.01578e-05
6.61319e-05
5.89005e-05
5.87595e-05
5.54178e-05
4.77895e-05
5.24557e-05
5.55947e-05
5.62847e-05
4.96403e-05
4.23145e-05
3.2869e-05
2.57563e-05
2.22844e-05
2.28142e-05
2.57246e-05
2.93466e-05
3.25098e-05
3.50354e-05
3.71599e-05
3.88233e-05
4.01303e-05
4.11243e-05
4.17997e-05
4.22076e-05
4.24014e-05
4.23668e-05
4.21148e-05
4.17839e-05
4.14738e-05
4.12107e-05
4.09311e-05
4.05902e-05
4.025e-05
3.99381e-05
3.96841e-05
3.94593e-05
3.93563e-05
3.93313e-05
3.96855e-05
4.06133e-05
4.28585e-05
4.82485e-05
6.04923e-05
8.41895e-05
0.000113247
0.000149285
0.000301256
0.000973867
0.00209629
0.00250783
0.00270821
0.00313488
0.00317359
0.00302257
0.00298241
0.00273935
0.00274509
0.0061661
0.00126266
0.00099765
0.00108018
0.001299
0.00152811
0.00164835
0.00168053
0.00161431
0.00153175
0.00145828
0.00142529
0.00140928
0.00140121
0.00139128
0.00132878
0.00114327
0.000918793
0.000770278
0.000669493
0.000604119
0.000548912
0.000497124
0.000464043
0.000451351
0.000457138
0.000470932
0.00048525
0.000501985
0.000486609
0.000457219
0.000424007
0.000365219
0.000293099
0.000231915
0.000125103
6.92732e-05
6.77359e-05
5.85052e-05
6.30444e-05
5.30788e-05
5.00859e-05
4.5426e-05
3.43654e-05
3.81762e-05
4.38929e-05
4.53822e-05
4.00192e-05
3.35502e-05
2.55852e-05
2.04425e-05
1.745e-05
1.73036e-05
1.90387e-05
2.16983e-05
2.40224e-05
2.58514e-05
2.73875e-05
2.86335e-05
2.9642e-05
3.04273e-05
3.10163e-05
3.14065e-05
3.16326e-05
3.17308e-05
3.16561e-05
3.15451e-05
3.14461e-05
3.13902e-05
3.13406e-05
3.12388e-05
3.1151e-05
3.11226e-05
3.11603e-05
3.12718e-05
3.14304e-05
3.1631e-05
3.19555e-05
3.26096e-05
3.36789e-05
3.65371e-05
4.36763e-05
6.22365e-05
8.7437e-05
0.000125452
0.000225771
0.000501859
0.00119708
0.00173162
0.00183306
0.00217554
0.00256332
0.00261144
0.00298672
0.00313235
0.00317691
0.00714111
0.00124391
0.00081709
0.00087465
0.000889815
0.00103588
0.00133155
0.00147092
0.00153262
0.0015352
0.00144847
0.00138793
0.00133413
0.00127749
0.00118883
0.00101775
0.000872497
0.000732813
0.000623918
0.000519635
0.000455166
0.000406908
0.0003938
0.000403301
0.000419001
0.000425716
0.000439424
0.000450149
0.000468871
0.000469747
0.000452339
0.000422172
0.00037785
0.000318125
0.00025587
0.00013644
7.35702e-05
7.91524e-05
6.36e-05
6.94616e-05
5.28542e-05
4.7445e-05
3.9348e-05
2.59541e-05
2.9373e-05
3.6243e-05
3.83597e-05
3.36034e-05
2.6236e-05
1.9641e-05
1.57673e-05
1.36269e-05
1.37456e-05
1.51093e-05
1.71444e-05
1.88984e-05
2.02356e-05
2.13812e-05
2.23721e-05
2.32106e-05
2.39128e-05
2.45047e-05
2.49868e-05
2.53113e-05
2.54964e-05
2.55891e-05
2.56503e-05
2.57352e-05
2.58735e-05
2.59877e-05
2.60564e-05
2.61254e-05
2.62248e-05
2.63733e-05
2.65702e-05
2.67096e-05
2.67766e-05
2.68511e-05
2.71819e-05
2.76613e-05
2.93472e-05
3.36013e-05
4.62281e-05
6.61304e-05
0.000101445
0.000169809
0.000295025
0.000582776
0.00099366
0.00102418
0.00132904
0.00180914
0.00195462
0.00289072
0.00423974
0.00427496
0.00892109
0.00156547
0.000849837
0.000958939
0.000794199
0.00076246
0.000882352
0.00113293
0.00125853
0.00131545
0.00132482
0.00126387
0.0011731
0.00103828
0.000905609
0.000807512
0.000698601
0.000597106
0.000499199
0.000428489
0.000405288
0.000405164
0.000433927
0.000449158
0.000455741
0.000439136
0.000427439
0.000431351
0.000442799
0.000464216
0.000447587
0.000418241
0.000380801
0.000324844
0.000261972
0.000143897
9.03388e-05
0.000105918
8.77728e-05
9.13155e-05
5.95339e-05
4.69038e-05
3.68359e-05
2.31226e-05
2.35758e-05
2.9541e-05
3.18962e-05
2.83392e-05
2.14321e-05
1.58531e-05
1.33377e-05
1.21458e-05
1.20968e-05
1.31637e-05
1.44696e-05
1.55951e-05
1.6527e-05
1.7266e-05
1.79058e-05
1.85324e-05
1.91245e-05
1.96743e-05
2.01705e-05
2.05659e-05
2.08212e-05
2.0954e-05
2.10751e-05
2.12397e-05
2.14674e-05
2.1691e-05
2.18567e-05
2.20276e-05
2.22271e-05
2.24589e-05
2.27279e-05
2.2866e-05
2.29171e-05
2.29222e-05
2.31462e-05
2.3314e-05
2.40892e-05
2.606e-05
3.28681e-05
4.42291e-05
6.73176e-05
0.000124304
0.000226041
0.000388892
0.000579848
0.000676861
0.00104983
0.00150837
0.00243385
0.00446952
0.00674086
0.0067477
0.0112921
0.00280591
0.00127305
0.00145594
0.00125649
0.000725368
0.000632272
0.000717704
0.000942351
0.00104286
0.00109317
0.0010997
0.00104848
0.000945713
0.000810701
0.000688716
0.000621119
0.000536569
0.000451846
0.000399033
0.000386003
0.000443523
0.000501669
0.000504949
0.000492055
0.00045431
0.00040666
0.00038554
0.000387549
0.000409542
0.000403279
0.000382224
0.000355069
0.000312086
0.00025644
0.000146197
0.000102507
0.000118814
0.000110255
0.000131621
8.35771e-05
5.65699e-05
4.08723e-05
2.26827e-05
2.11981e-05
2.48653e-05
2.83272e-05
2.53373e-05
1.87871e-05
1.40311e-05
1.20195e-05
1.07795e-05
1.07064e-05
1.15687e-05
1.26433e-05
1.35319e-05
1.42318e-05
1.48407e-05
1.53568e-05
1.57857e-05
1.61741e-05
1.65615e-05
1.69456e-05
1.72765e-05
1.7474e-05
1.75642e-05
1.76244e-05
1.77525e-05
1.79763e-05
1.82535e-05
1.85016e-05
1.87402e-05
1.90111e-05
1.93037e-05
1.96515e-05
1.98431e-05
1.99011e-05
1.98546e-05
1.99122e-05
1.98756e-05
2.03149e-05
2.12669e-05
2.52333e-05
3.49372e-05
6.12539e-05
0.000115504
0.000186631
0.000274474
0.000391861
0.000581193
0.000954297
0.00145895
0.00233135
0.00432659
0.00834697
0.00906277
0.0137324
0.00516329
0.00277169
0.00205893
0.00156808
0.00105259
0.000629841
0.000458669
0.000589683
0.000754691
0.000829553
0.000866038
0.000879266
0.000849584
0.00078059
0.000703777
0.000624649
0.000560946
0.00048255
0.000435422
0.000445758
0.0005003
0.000525194
0.000518495
0.000495121
0.000447805
0.000389338
0.000347721
0.000334918
0.000344684
0.000343461
0.000331334
0.000313409
0.00028624
0.000232585
0.00013943
0.000134471
0.000165285
0.000156931
0.000189509
0.000117798
8.76896e-05
6.12488e-05
2.22863e-05
1.6368e-05
1.78082e-05
1.97761e-05
1.82236e-05
1.44166e-05
1.1466e-05
9.97067e-06
9.09333e-06
9.09046e-06
9.79487e-06
1.05991e-05
1.12432e-05
1.17635e-05
1.2221e-05
1.26292e-05
1.30112e-05
1.33996e-05
1.38178e-05
1.42493e-05
1.46308e-05
1.48795e-05
1.50109e-05
1.51516e-05
1.53676e-05
1.56693e-05
1.60044e-05
1.62767e-05
1.65297e-05
1.6813e-05
1.7115e-05
1.74668e-05
1.76779e-05
1.77538e-05
1.77033e-05
1.76981e-05
1.75654e-05
1.78043e-05
1.83135e-05
2.10249e-05
2.86919e-05
5.0729e-05
9.38002e-05
0.000147943
0.000213372
0.000313695
0.000483047
0.000824573
0.00131973
0.00271749
0.00570281
0.0088965
0.00967582
0.0138852
0.00799687
0.00445635
0.00231981
0.00157119
0.00109373
0.00077264
0.000518907
0.000372471
0.000395013
0.00050268
0.00059474
0.000662207
0.000687972
0.000689303
0.000653672
0.000608047
0.000576888
0.000545984
0.000514168
0.000508319
0.000510043
0.000505231
0.000487232
0.000445518
0.000391018
0.000342824
0.000312871
0.00029136
0.000286174
0.000281948
0.000272246
0.000263341
0.000244543
0.000193935
0.000121725
0.000142247
0.00013412
0.000129152
0.000115783
0.000123694
0.000113891
8.8022e-05
3.51122e-05
1.31224e-05
1.19215e-05
1.20069e-05
1.13403e-05
9.56331e-06
7.99457e-06
7.06981e-06
6.53457e-06
6.55918e-06
7.01445e-06
7.50892e-06
7.90458e-06
8.23069e-06
8.52304e-06
8.79782e-06
9.0715e-06
9.36126e-06
9.67864e-06
1.00122e-05
1.03125e-05
1.0519e-05
1.06322e-05
1.07582e-05
1.0944e-05
1.11979e-05
1.14784e-05
1.17302e-05
1.19635e-05
1.22189e-05
1.24856e-05
1.27868e-05
1.3008e-05
1.312e-05
1.30943e-05
1.30193e-05
1.27474e-05
1.26935e-05
1.28463e-05
1.42648e-05
1.82151e-05
3.00143e-05
5.52521e-05
8.98962e-05
0.000130513
0.000201085
0.000322525
0.00055423
0.000861826
0.00160712
0.00268979
0.0068405
0.00883594
0.0141489
0.00809176
0.00472432
0.00280734
0.00189768
0.00133298
0.000953635
0.000690241
0.000487532
0.000367451
0.000308962
0.000313688
0.00035081
0.000387025
0.000448211
0.000481786
0.000494245
0.000493364
0.000489338
0.000479167
0.000469485
0.000459989
0.000443554
0.000419868
0.000389774
0.000350493
0.000313696
0.000294907
0.000273133
0.000253858
0.000247255
0.000243468
0.000236254
0.000216588
0.000132591
7.45118e-05
0.000180214
0.000147626
8.70972e-05
6.14905e-05
3.95565e-05
3.03023e-05
3.0776e-05
3.21869e-05
3.80076e-05
5.48282e-05
7.04852e-05
8.42626e-05
8.90672e-05
8.99358e-05
8.60052e-05
8.16361e-05
7.72699e-05
7.41619e-05
7.09935e-05
6.7786e-05
6.46661e-05
6.25573e-05
6.18024e-05
6.20343e-05
6.30057e-05
6.45751e-05
6.65216e-05
6.83643e-05
6.96386e-05
7.04427e-05
7.10613e-05
7.16618e-05
7.22845e-05
7.28959e-05
7.35284e-05
7.4271e-05
7.53514e-05
7.68154e-05
7.90998e-05
8.15888e-05
8.41514e-05
8.60402e-05
8.73955e-05
8.69242e-05
8.43552e-05
7.76377e-05
6.42187e-05
5.08431e-05
4.76164e-05
5.87819e-05
8.13969e-05
0.000116069
0.000214706
0.000358515
0.000555799
0.000764947
0.00118637
0.00174844
0.0026978
0.00387214
0.00650516
0.0052713
0.00443818
0.00368848
0.00307003
0.00262297
0.00231188
0.00208622
0.00190834
0.00176753
0.00164413
0.00153297
0.00142822
0.00132443
0.00122265
0.00110524
0.000980122
0.000844617
0.000637018
0.000360111
0.000177289
0.000135043
0.000128462
0.000113633
0.00010207
8.68383e-05
6.72585e-05
6.44177e-05
8.65734e-05
0.000143273
0.000157883
0.000155265
0.000148642
0.000141284
0.000130916
0.000103354
0.000323351
0.000255008
0.000179048
0.000139011
0.000103357
9.10803e-05
9.63761e-05
0.000105211
0.000115571
0.000139867
0.00015243
0.000163385
0.000165711
0.000161875
0.000154274
0.000148982
0.000146625
0.00014698
0.00014808
0.000148785
0.000148889
0.000149035
0.000150032
0.000151678
0.000153759
0.000156112
0.000158553
0.000160606
0.000161922
0.000162762
0.000163445
0.000164117
0.000164815
0.000165528
0.000166308
0.000167193
0.000168335
0.00016982
0.000172001
0.000174526
0.000177427
0.000180175
0.000183378
0.000185964
0.000188646
0.000185867
0.000172845
0.000148308
0.000140432
0.000151166
0.000179586
0.000259605
0.000510167
0.000834052
0.00136059
0.00198076
0.00316943
0.00398109
0.00617167
0.00652189
0.00139559
0.00326676
0.00541317
0.00427425
0.00332943
0.00288085
0.00255499
0.00227816
0.0020186
0.00181197
0.00163509
0.00149192
0.00137475
0.00128711
0.00119624
0.00110656
0.00102786
0.000906479
0.000762756
0.000526409
0.000302647
0.000271058
0.000260187
0.000205943
0.000135888
9.80582e-05
7.853e-05
8.6332e-05
0.000158807
0.000217435
0.00019575
0.00018482
0.000192682
0.000205818
0.000183738
0.000107482
0.000377925
0.000286693
0.000247096
0.00020632
0.000180111
0.000165366
0.000161884
0.000167876
0.00017258
0.00018427
0.000183546
0.000182622
0.000178836
0.000170938
0.000160187
0.000154298
0.000153855
0.000157578
0.000162927
0.000168062
0.000172553
0.000176298
0.000179711
0.000182659
0.00018517
0.000187323
0.000189158
0.000190562
0.000191374
0.000191736
0.000191922
0.000192125
0.000192396
0.000192716
0.000193103
0.000193501
0.000193991
0.000194566
0.000195482
0.000196616
0.000198319
0.000200618
0.000203942
0.0002099
0.000219135
0.000230101
0.00023094
0.000225451
0.000227721
0.000250356
0.000281407
0.000343403
0.000603603
0.00112985
0.00188184
0.00288883
0.00396951
0.00471031
0.00462004
0.0040588
0.00137864
0.00283741
0.00403415
0.00285894
0.00277608
0.00250686
0.00214893
0.00180889
0.00154368
0.00139305
0.00131929
0.00127381
0.00122539
0.00120354
0.00116269
0.00109761
0.00103129
0.000925947
0.000826841
0.000607133
0.000476811
0.000463403
0.000371125
0.000237977
0.000177438
0.000144893
0.000148946
0.000222447
0.000304804
0.000254292
0.000184212
0.000194673
0.00024983
0.000255123
0.000220284
0.000113788
0.000482315
0.000350796
0.000305574
0.000265026
0.000239359
0.000223801
0.000220268
0.000223916
0.000214707
0.000210008
0.000203349
0.000195915
0.000187541
0.000175514
0.00016228
0.000155049
0.000155163
0.000160063
0.000167396
0.000174958
0.0001817
0.000187627
0.000192629
0.000196533
0.000199568
0.000201978
0.000203867
0.000205167
0.000205716
0.000205653
0.000205363
0.000205144
0.000205041
0.000205032
0.000205097
0.000205111
0.000205151
0.000205165
0.000205375
0.000205672
0.000206475
0.000208213
0.00021144
0.000219336
0.000233409
0.000259921
0.000289878
0.000314286
0.000327953
0.000368434
0.000423826
0.000482214
0.000735139
0.00134748
0.00273648
0.00413698
0.0056657
0.00773108
0.00341363
0.00308891
0.00145601
0.00227058
0.00260186
0.00224511
0.00271368
0.00211197
0.0017694
0.00149812
0.00131351
0.00122205
0.00117543
0.00112522
0.00107005
0.00104694
0.00104804
0.00104243
0.00100888
0.000906612
0.000822022
0.000673034
0.000670892
0.000611024
0.00042753
0.000343834
0.000316348
0.000324272
0.000363851
0.000383911
0.000301524
0.000213676
0.000166853
0.000180258
0.000254219
0.000258732
0.000217213
0.000113227
0.000616039
0.000383229
0.000339345
0.000310999
0.000283603
0.000259626
0.000249131
0.000249547
0.000240484
0.000224396
0.000216656
0.000206099
0.000195956
0.000179492
0.000164426
0.000155584
0.0001553
0.000160546
0.000168583
0.000177008
0.000184669
0.000192034
0.000198041
0.00020261
0.000206098
0.00020884
0.000210943
0.00021233
0.000212795
0.000212463
0.000211883
0.000211408
0.000211068
0.000210866
0.000210749
0.000210543
0.000210288
0.00020997
0.000209671
0.000209403
0.00020942
0.000210648
0.000213835
0.000222692
0.000240134
0.000273971
0.000323896
0.000381237
0.000431894
0.000520948
0.000659725
0.000831751
0.00131535
0.00251746
0.0049544
0.00741476
0.00931288
0.0076349
0.00187441
0.00159028
0.00198376
0.00213196
0.0025344
0.00242234
0.00254305
0.00207418
0.00192742
0.00169433
0.00138709
0.00118782
0.00105304
0.000979396
0.000931728
0.0009077
0.000887248
0.000890851
0.000888225
0.000889835
0.000897993
0.000944328
0.000973599
0.000804043
0.000687257
0.000651328
0.00061463
0.000574568
0.000524555
0.000425518
0.000303878
0.000246556
0.000188609
0.000177015
0.000225343
0.000233856
0.000196927
0.000109843
0.000775135
0.00039462
0.000350986
0.000336269
0.000315528
0.000297243
0.000271457
0.000265454
0.000255279
0.000233425
0.000226425
0.000211106
0.000198951
0.000179158
0.000157695
0.000143132
0.000142105
0.000149023
0.000159941
0.000171885
0.000183017
0.000192056
0.00019866
0.000203689
0.000207512
0.000210467
0.000212703
0.000214137
0.000214558
0.000214072
0.000213321
0.000212678
0.000212168
0.000211814
0.000211558
0.000211174
0.000210626
0.00020998
0.000209015
0.000208068
0.000207165
0.000207703
0.000209983
0.000220117
0.000240262
0.000277346
0.000335292
0.000400665
0.000470651
0.000593706
0.000849916
0.00127534
0.00233672
0.00427217
0.00813201
0.00868517
0.00882164
0.00716266
0.00133648
0.00128504
0.00253768
0.00245207
0.00274062
0.00281469
0.00284032
0.00253686
0.0022687
0.00195855
0.0015679
0.00123893
0.000978574
0.000867482
0.000814756
0.00081535
0.000853413
0.000935228
0.00105907
0.00123768
0.00153016
0.00183124
0.00178609
0.0016406
0.00155623
0.00145019
0.00131382
0.00115251
0.000989801
0.000834616
0.000671169
0.000516707
0.000400754
0.000315581
0.000277359
0.000246803
0.000158476
9.89929e-05
0.000646676
0.000383473
0.000354426
0.000346825
0.000329075
0.000314947
0.000281773
0.000272867
0.000261667
0.000236941
0.000230148
0.000211502
0.000194383
0.00016479
0.000140973
0.000125829
0.000124921
0.000131964
0.00014215
0.00015286
0.000163071
0.000172594
0.000180764
0.000187262
0.000192129
0.000195743
0.000198315
0.000199796
0.000199883
0.000198629
0.000196948
0.000195339
0.000193845
0.000192583
0.000191601
0.000190346
0.000188744
0.000187102
0.000185071
0.000183402
0.000181458
0.000181159
0.000182444
0.000192819
0.000217139
0.000267313
0.000336486
0.000405561
0.000482406
0.000677305
0.00101741
0.00158887
0.0027242
0.00452808
0.0075691
0.00817839
0.00628744
0.00298627
0.00135325
0.00134275
0.00295145
0.00256563
0.00290416
0.0030131
0.00296531
0.00277589
0.00253757
0.00234863
0.0021858
0.00194686
0.001594
0.00136059
0.00127902
0.00131142
0.00154133
0.0020957
0.00293645
0.00349761
0.00369139
0.00334813
0.00291826
0.00260332
0.00230624
0.00207458
0.00184768
0.00169755
0.00156589
0.00142521
0.00124769
0.001112
0.00106414
0.00105897
0.00105471
0.000767708
0.000242503
9.10569e-05
0.000456966
0.000361858
0.000301065
0.000310968
0.000310437
0.000307275
0.000270498
0.000256981
0.000250834
0.000229672
0.000225881
0.000199584
0.000179701
0.000145136
0.000115973
9.71094e-05
9.62654e-05
0.000105394
0.000118845
0.000131985
0.000143276
0.000152704
0.000160028
0.00016561
0.000169738
0.000172695
0.000174598
0.000175177
0.000174218
0.000171859
0.000169148
0.000166748
0.00016467
0.000162505
0.000159983
0.000157442
0.000154683
0.000152027
0.000148898
0.000146104
0.000142676
0.000141421
0.000142057
0.00015143
0.00017454
0.000224943
0.000304401
0.000376912
0.000466505
0.000724807
0.00131013
0.00232105
0.00379803
0.00596179
0.00711583
0.00553162
0.00462094
0.00395637
0.00138339
0.00137202
0.00301265
0.00258876
0.0030021
0.003206
0.00327527
0.00318426
0.00295543
0.00268173
0.00256054
0.00252307
0.00252618
0.00259954
0.00274212
0.00294819
0.00314866
0.00323119
0.00319686
0.00287888
0.00249057
0.00214257
0.00196981
0.00185888
0.00180275
0.00174445
0.00166879
0.00163002
0.00154554
0.0014184
0.00123406
0.00102857
0.000856577
0.000710782
0.000600969
0.000492175
0.000409574
7.34775e-05
0.000339397
0.000370586
0.000267684
0.000257837
0.000253142
0.000253982
0.000241391
0.000220808
0.00022304
0.000217825
0.000217273
0.000186448
0.000158432
0.00011473
8.52553e-05
7.00183e-05
6.82866e-05
7.26982e-05
7.97666e-05
8.72736e-05
9.4681e-05
0.0001016
0.000108211
0.000113738
0.000117822
0.000120616
0.000122373
0.000123113
0.000122434
0.000120328
0.000117901
0.00011564
0.000113622
0.000111784
0.000110043
0.00010831
0.000106457
0.000104904
0.000103377
0.00010246
0.000100895
0.000101391
0.000102698
0.000110614
0.000127281
0.000159778
0.000208574
0.000244695
0.000311161
0.00069703
0.00162742
0.00344491
0.00558255
0.00582078
0.00590984
0.0060009
0.00652995
0.00714712
0.00148963
0.00145542
0.00278378
0.00215379
0.00254551
0.00287834
0.00343804
0.00366877
0.00372771
0.00351042
0.00315821
0.00290652
0.00278953
0.00275155
0.00279437
0.00285666
0.00289471
0.00290206
0.00276644
0.00255726
0.00242457
0.00223476
0.00208373
0.00187676
0.00164412
0.00155208
0.0015291
0.00159693
0.00173743
0.00198704
0.00223745
0.00214383
0.0019128
0.00159365
0.00116181
0.000783446
0.000507944
0.000136409
0.000293316
0.000343123
0.00023914
0.000218092
0.000185078
0.000175938
0.000175744
0.000166443
0.000174309
0.00018831
0.000189132
0.000162764
0.000130356
9.22827e-05
6.77605e-05
5.79584e-05
5.64073e-05
5.86616e-05
6.26473e-05
6.68877e-05
7.16998e-05
7.67934e-05
8.05671e-05
8.34e-05
8.54997e-05
8.69962e-05
8.81017e-05
8.8792e-05
8.86581e-05
8.75078e-05
8.61444e-05
8.50392e-05
8.4234e-05
8.34626e-05
8.25705e-05
8.18105e-05
8.10751e-05
8.05433e-05
7.96754e-05
7.89973e-05
7.78592e-05
7.73871e-05
7.75276e-05
8.03843e-05
8.7105e-05
0.000103176
0.000126174
0.000138686
0.000195973
0.00054903
0.00172553
0.00365217
0.00468977
0.00526798
0.00606619
0.00715008
0.0073155
0.00703345
0.00255106
0.00244984
0.00239334
0.00172892
0.00166613
0.00184149
0.00225669
0.00281023
0.00350505
0.00370783
0.00367535
0.00340895
0.00321993
0.00306836
0.00295498
0.00284162
0.00272715
0.00257242
0.00232101
0.00198277
0.00166538
0.00131985
0.00101412
0.000837445
0.000772425
0.000721429
0.000686779
0.000666148
0.000686162
0.000743314
0.000877321
0.000943855
0.000879977
0.000743426
0.000562793
0.000408454
0.000288907
0.000137164
0.000257431
0.000297174