/*--------------------------------*- C++ -*----------------------------------*\
| =========                 |                                                 |
| \\      /  F ield         | OpenFOAM: The Open Source CFD Toolbox           |
|  \\    /   O peration     | Version:  2.3.0                                 |
|   \\  /    A nd           | Web:      www.OpenFOAM.org                      |
|    \\/     M anipulation  |                                                 |
\*---------------------------------------------------------------------------*/
FoamFile
{
    version     2.0;
    format      ascii;
    class       surfaceScalarField;
    location    "44";
    object      phi;
}
// * * * * * * * * * * * * * * * * * * * * * * * * * * * * * * * * * * * * * //

dimensions      [0 3 -1 0 0 0 0];

internalField   nonuniform List<scalar> 
16448
(
-1.24771e-06
-2.53319e-06
5.08635e-07
5.99459e-07
-2.57877e-06
7.31599e-07
5.79251e-07
-1.09113e-06
1.11134e-06
5.05159e-07
-9.7202e-07
1.04612e-06
1.67601e-07
-5.5837e-07
8.95933e-07
3.74474e-08
-6.75471e-07
8.05631e-07
-1.65074e-08
-6.38581e-07
6.92543e-07
-6.29094e-08
-5.6355e-07
6.0996e-07
-1.71227e-07
-4.20767e-07
5.29093e-07
-3.52262e-07
-2.94442e-07
4.75486e-07
-5.37613e-07
-2.31827e-07
4.17189e-07
-6.17892e-07
-2.54223e-07
3.34513e-07
-5.98381e-07
-2.98015e-07
2.78516e-07
-4.90615e-07
-3.42336e-07
2.34583e-07
-3.6646e-07
-3.61499e-07
2.37357e-07
-2.30097e-07
-3.86957e-07
2.50609e-07
-1.12036e-07
-4.0172e-07
2.83675e-07
-1.37189e-08
-4.16873e-07
3.18572e-07
5.71665e-08
-4.28893e-07
3.58024e-07
9.99488e-08
-4.36629e-07
3.93864e-07
1.14428e-07
-4.39632e-07
4.25171e-07
1.0912e-07
-4.43599e-07
4.48927e-07
9.24689e-08
-4.43165e-07
4.59836e-07
7.03347e-08
-4.37823e-07
4.59978e-07
4.64968e-08
-4.27571e-07
4.51431e-07
2.43763e-08
-4.14249e-07
4.36392e-07
7.38711e-09
-4.01504e-07
4.18517e-07
-3.30058e-09
-3.89778e-07
4.00491e-07
-1.02559e-08
-3.76896e-07
3.83877e-07
-1.79471e-08
-3.62109e-07
3.69827e-07
-2.86238e-08
-3.46129e-07
3.56833e-07
-4.2262e-08
-3.29333e-07
3.43001e-07
-5.77632e-08
-3.11595e-07
3.27126e-07
-7.31847e-08
-2.92882e-07
3.08335e-07
-8.56191e-08
-2.73516e-07
2.85982e-07
-9.22823e-08
-2.54062e-07
2.60758e-07
-9.43024e-08
-2.3374e-07
2.35793e-07
-1.04593e-07
-2.09087e-07
2.19413e-07
-1.4932e-07
-1.73784e-07
2.18546e-07
-2.66193e-07
-1.20167e-07
2.37077e-07
-5.18726e-07
-2.84949e-08
2.81064e-07
-9.71713e-07
9.76962e-08
3.55331e-07
-1.61269e-06
2.31528e-07
4.09491e-07
-2.36424e-06
3.10139e-07
4.41451e-07
-3.21637e-06
3.28509e-07
5.2366e-07
-4.1636e-06
1.88825e-07
7.58449e-07
-5.17797e-06
1.81792e-08
9.96242e-07
-6.79995e-06
2.83583e-07
1.33844e-06
-8.79934e-06
5.37542e-07
1.46189e-06
-9.66988e-06
-1.06635e-06
1.93694e-06
-7.80929e-06
-4.55827e-06
2.69773e-06
-4.50321e-06
-5.30607e-06
2.00002e-06
-1.07123e-06
-3.70062e-06
2.68681e-07
4.14122e-07
-7.25717e-07
-7.5962e-07
2.07604e-06
1.15781e-06
-2.81972e-06
3.10548e-06
1.66751e-06
-2.69695e-06
3.89176e-06
1.98658e-06
-2.77288e-06
8.09778e-06
3.83216e-06
-8.03826e-06
-9.53448e-06
1.06292e-05
7.00289e-06
-1.02441e-06
-2.28508e-06
-6.22505e-06
2.2379e-05
-2.34738e-05
7.0376e-08
3.19231e-05
-1.64537e-05
6.90956e-06
3.35967e-05
-1.0524e-05
8.85033e-06
3.60306e-05
-9.20853e-06
6.77464e-06
3.734e-05
-6.67709e-06
5.36774e-06
3.69232e-05
-4.38118e-06
4.79794e-06
3.54246e-05
-2.68716e-06
4.18582e-06
3.3427e-05
-1.81165e-06
3.80923e-06
3.19672e-05
-2.53625e-06
3.99602e-06
3.13561e-05
-2.81858e-06
3.42971e-06
3.04361e-05
-1.68067e-06
2.60064e-06
2.80633e-05
7.09325e-07
1.66345e-06
2.46209e-05
2.18177e-06
1.26062e-06
1.78175e-05
5.19554e-06
1.60783e-06
8.1168e-06
6.52336e-06
3.17737e-06
1.98365e-06
3.33937e-06
2.79378e-06
-8.99273e-07
6.88941e-07
2.19398e-06
-2.92318e-06
-4.77424e-07
2.50133e-06
-4.74503e-06
-7.85927e-07
2.60778e-06
-6.40529e-06
-3.60324e-07
2.02059e-06
-6.92775e-06
5.67301e-07
-4.48426e-08
-5.74822e-06
1.09415e-06
-2.27368e-06
-4.13983e-06
1.04083e-06
-2.64921e-06
-2.98221e-06
5.54273e-07
-1.7119e-06
-2.94276e-06
3.00709e-07
-3.40156e-07
-4.75245e-06
6.29606e-07
1.18008e-06
-7.80714e-06
5.55281e-07
2.49942e-06
-1.08276e-05
4.1731e-07
2.60318e-06
-1.05918e-05
7.90302e-07
-1.02615e-06
-7.44893e-06
6.64707e-07
-3.80755e-06
-4.02883e-06
-1.17341e-07
-3.30276e-06
-8.47138e-07
-1.82802e-06
-1.35367e-06
1.5125e-06
-2.43389e-06
7.42584e-08
2.01785e-06
-1.67274e-06
1.16739e-06
1.02637e-06
-1.00805e-06
1.99953e-06
-1.31437e-06
2.34075e-06
-1.86433e-06
-3.62785e-06
-2.66253e-07
-3.41331e-07
-3.91252e-06
-1.89246e-07
1.83741e-08
-2.05508e-06
6.04254e-07
3.46224e-07
-1.72044e-06
4.20581e-07
3.19391e-07
-8.05291e-07
2.73764e-07
1.4155e-07
-7.35313e-07
2.37692e-07
-3.74808e-08
-5.80113e-07
1.20574e-07
-1.7251e-07
-5.03164e-07
7.4655e-08
-3.44933e-07
-3.14438e-07
6.61086e-08
-5.47621e-07
-1.79779e-07
8.80397e-08
-7.19895e-07
-1.19779e-07
6.02409e-08
-7.78387e-07
-1.86645e-07
-9.06844e-09
-7.55394e-07
-2.55713e-07
-6.52764e-08
-6.51677e-07
-3.35019e-07
-1.11014e-07
-5.22328e-07
-3.69763e-07
-1.21062e-07
-3.75657e-07
-4.12052e-07
-1.21552e-07
-2.41495e-07
-4.33677e-07
-1.0218e-07
-1.25131e-07
-4.53952e-07
-7.92581e-08
-3.54655e-08
-4.67033e-07
-5.14963e-08
2.75211e-08
-4.73594e-07
-2.59919e-08
6.15782e-08
-4.72037e-07
-1.62055e-09
7.35744e-08
-4.66489e-07
1.09266e-08
7.11855e-08
-4.5679e-07
1.60492e-08
6.00231e-08
-4.42246e-07
1.56216e-08
4.4061e-08
-4.22624e-07
1.1053e-08
2.63158e-08
-4.00329e-07
3.86497e-09
1.09337e-08
-3.78374e-07
-7.70712e-09
-5.01258e-10
-3.5721e-07
-2.10906e-08
-9.40908e-09
-3.34452e-07
-3.34912e-08
-1.82657e-08
-3.08559e-07
-4.46469e-08
-2.78123e-08
-2.81008e-07
-5.55268e-08
-3.78919e-08
-2.52275e-07
-6.69295e-08
-4.77924e-08
-2.22541e-07
-7.9103e-08
-5.68367e-08
-1.91326e-07
-9.24599e-08
-6.34504e-08
-1.59298e-07
-1.0755e-07
-6.59563e-08
-1.2759e-07
-1.2391e-07
-6.65518e-08
-9.49937e-08
-1.38093e-07
-7.71317e-08
-5.23956e-08
-1.46053e-07
-1.21255e-07
1.32857e-08
-1.42886e-07
-2.33581e-07
1.1787e-07
-1.25649e-07
-4.59002e-07
2.89996e-07
-9.30064e-08
-8.31353e-07
5.30791e-07
-6.06793e-08
-1.33879e-06
8.06419e-07
-6.73868e-08
-2.00248e-06
1.04301e-06
-6.91117e-08
-3.0162e-06
1.26753e-06
7.47651e-08
-4.29647e-06
1.16165e-06
3.07515e-07
-5.26418e-06
5.84724e-07
4.0124e-07
-5.84451e-06
1.10354e-07
7.53632e-07
-5.7549e-06
-3.30299e-07
7.783e-07
-4.06845e-06
-3.27009e-06
5.17355e-07
-9.82726e-07
-9.06505e-06
1.42111e-06
9.93526e-07
-1.06363e-05
3.35401e-06
3.84513e-06
-9.81739e-06
3.2652e-06
5.02532e-06
-4.66423e-06
2.75837e-06
5.05853e-06
1.28761e-06
-1.62976e-07
6.35063e-06
1.90848e-06
-1.53305e-06
6.64088e-06
4.72512e-06
-3.02877e-06
1.00845e-05
4.55354e-06
-4.16506e-06
-7.4345e-06
1.34992e-05
1.46486e-05
-3.89093e-07
-4.44591e-06
-4.88474e-06
1.88304e-05
-3.57708e-05
-6.92252e-06
2.35265e-05
-2.5624e-05
4.47424e-06
2.22907e-05
-1.6265e-05
6.97684e-06
2.37856e-05
-1.26671e-05
1.96369e-06
2.25708e-05
-6.61955e-06
1.15724e-06
2.04916e-05
-3.31854e-06
1.0166e-06
1.80054e-05
-1.23747e-06
1.03651e-06
1.51177e-05
-9.81138e-08
1.17415e-06
1.33164e-05
-2.17179e-06
1.43682e-06
1.39003e-05
-4.51236e-06
1.10984e-06
1.49051e-05
-2.36063e-06
-3.24866e-07
1.43878e-05
3.24371e-06
-2.01708e-06
1.24072e-05
6.24933e-06
-2.0869e-06
7.24909e-06
9.60744e-06
7.46191e-07
2.24665e-06
7.75527e-06
3.77054e-06
-8.70499e-08
2.45593e-06
3.21714e-06
-1.45664e-06
-3.45699e-07
2.40423e-06
-2.95525e-06
-1.72829e-06
2.74948e-06
-5.17308e-06
-1.97405e-06
3.40595e-06
-7.42895e-06
-1.52169e-06
3.41723e-06
-8.57392e-06
-3.46478e-08
1.74693e-06
-7.77857e-06
1.11468e-06
-8.15885e-07
-6.26064e-06
1.51228e-06
-1.98938e-06
-5.51224e-06
1.00476e-06
-1.19889e-06
-6.07221e-06
7.38158e-07
1.2253e-07
-8.01253e-06
7.75199e-07
1.79472e-06
-1.10622e-05
-1.63321e-07
3.76831e-06
-1.37575e-05
-6.3917e-07
3.75174e-06
-1.26145e-05
-4.60674e-07
1.08019e-07
-7.84366e-06
-3.37689e-07
-3.76848e-06
-3.26758e-06
-1.1815e-06
-3.51192e-06
-2.01326e-07
-2.32366e-06
-2.57062e-06
1.93835e-06
-3.01882e-06
-1.55475e-06
3.25048e-06
-1.92475e-06
-1.06012e-06
2.6003e-06
-5.03759e-07
1.4589e-07
-7.34785e-07
2.02071e-06
-2.33548e-06
-3.92126e-06
-5.11003e-07
-1.12328e-06
-4.41714e-06
-7.07562e-07
-6.47868e-07
-2.64202e-06
1.11529e-07
-1.35116e-07
-2.21063e-06
-2.25572e-08
5.92524e-08
-9.1127e-07
-8.83816e-08
-4.88611e-08
-5.70101e-07
-5.70891e-08
-1.97659e-07
-2.76166e-07
-1.55139e-07
-3.28709e-07
-2.06853e-07
-1.6525e-07
-4.427e-07
-3.06698e-08
-1.69765e-07
-5.33636e-07
5.88923e-08
-1.47721e-07
-6.26784e-07
1.15888e-07
-1.42504e-07
-6.65576e-07
3.96372e-08
-1.87473e-07
-6.74278e-07
-1.68496e-08
-2.30143e-07
-6.35792e-07
-1.03008e-07
-2.70477e-07
-5.70776e-07
-1.46926e-07
-2.87831e-07
-4.80539e-07
-1.98446e-07
-3.0382e-07
-3.8403e-07
-2.24623e-07
-3.05539e-07
-2.91114e-07
-2.45433e-07
-3.01409e-07
-2.11573e-07
-2.5501e-07
-2.91536e-07
-1.44849e-07
-2.58717e-07
-2.81572e-07
-9.16716e-08
-2.5235e-07
-2.72835e-07
-5.39497e-08
-2.37809e-07
-2.6637e-07
-3.00858e-08
-2.18807e-07
-2.61814e-07
-1.72226e-08
-1.95924e-07
-2.59151e-07
-1.2171e-08
-1.69888e-07
-2.57752e-07
-1.22932e-08
-1.4263e-07
-2.57539e-07
-1.62112e-08
-1.15813e-07
-2.58604e-07
-2.29993e-08
-8.93921e-08
-2.60989e-07
-3.08401e-08
-6.19004e-08
-2.64669e-07
-3.84787e-08
-3.16363e-08
-2.69241e-07
-4.36944e-08
-1.37848e-09
-2.74369e-07
-4.88634e-08
3.30675e-08
-2.80127e-07
-5.36742e-08
6.78973e-08
-2.85579e-07
-5.94112e-08
1.0464e-07
-2.90179e-07
-6.83961e-08
1.43594e-07
-2.93856e-07
-8.4252e-08
1.84545e-07
-2.96226e-07
-1.12155e-07
2.30225e-07
-2.97262e-07
-1.61359e-07
2.92647e-07
-2.95783e-07
-2.46188e-07
3.89988e-07
-2.91815e-07
-3.78018e-07
5.38837e-07
-2.89079e-07
-5.57495e-07
7.6401e-07
-2.94477e-07
-7.65834e-07
1.06136e-06
-3.22163e-07
-9.94039e-07
1.40441e-06
-3.69721e-07
-1.36622e-06
1.77328e-06
-3.58015e-07
-1.89082e-06
2.01733e-06
-2.25146e-07
-2.17996e-06
1.64039e-06
-1.89536e-07
-1.54336e-06
3.4612e-07
-3.97937e-07
-5.08084e-07
-6.50649e-07
-2.74213e-07
1.07853e-06
-1.78552e-06
-1.31336e-07
4.38648e-06
-5.06471e-06
-1.51328e-06
7.65214e-06
-1.07343e-05
-1.59637e-06
8.38047e-06
-1.34385e-05
2.07396e-06
7.58715e-06
-1.28873e-05
3.86325e-06
6.28517e-06
-8.15266e-06
4.79044e-06
6.76045e-06
-2.16945e-07
1.02931e-06
9.66679e-06
3.07421e-07
-1.30524e-06
1.06184e-05
6.8842e-06
-3.11058e-06
1.55145e-05
8.04937e-06
-8.39202e-06
-1.15223e-05
2.14263e-05
1.91092e-05
-8.59382e-08
-1.37304e-05
-2.15207e-06
2.07192e-05
-4.47461e-05
-1.18298e-05
2.18113e-05
-2.675e-05
3.38544e-08
1.83925e-05
-1.64505e-05
3.6043e-06
1.78313e-05
-1.03819e-05
-1.72398e-06
1.58194e-05
-3.28814e-06
-1.31948e-06
1.42421e-05
-5.37178e-07
-1.2041e-06
1.28091e-05
1.31104e-06
-1.1155e-06
1.14497e-05
1.80069e-06
-5.39395e-07
8.18831e-06
-5.9762e-08
1.14933e-06
4.08615e-06
-1.78443e-06
1.37424e-06
1.16042e-06
-4.83866e-07
1.04896e-06
-1.62647e-06
4.88861e-06
1.14199e-06
-3.36377e-06
6.97469e-06
1.01194e-06
-3.58425e-06
7.26908e-06
2.55883e-06
-3.22407e-06
4.23803e-06
3.15706e-06
-3.89417e-06
7.97719e-07
2.32831e-06
-5.30968e-06
-1.22923e-06
2.29904e-06
-7.48612e-06
-2.24458e-06
2.69273e-06
-1.0447e-05
-2.32959e-06
3.31642e-06
-1.2022e-05
-1.45901e-06
1.51234e-06
-1.21868e-05
-2.07938e-07
3.38136e-07
-1.19424e-05
9.8609e-07
-1.15828e-07
-1.18451e-05
1.48649e-06
-7.14883e-08
-1.22632e-05
9.20485e-07
5.02358e-07
-1.23783e-05
-1.16857e-07
9.70048e-07
-1.31214e-05
-1.04559e-06
2.56392e-06
-1.46461e-05
-2.43077e-06
3.79218e-06
-1.56669e-05
-3.05421e-06
3.43579e-06
-1.36648e-05
-2.58199e-06
1.19262e-07
-8.48279e-06
-2.30259e-06
-3.21711e-06
-4.07879e-06
-2.32211e-06
-3.26339e-06
-1.39005e-06
-1.63642e-06
-3.37599e-06
1.11985e-06
-2.53602e-06
-2.9927e-06
2.77423e-06
-1.65039e-06
-1.92874e-06
2.28817e-06
3.62714e-07
-3.80412e-07
4.58384e-08
1.50755e-06
-2.71999e-06
-3.95929e-06
-2.45937e-07
-1.5842e-06
-4.69108e-06
-8.61845e-07
-1.17206e-06
-3.08837e-06
3.42183e-08
-6.09154e-07
-2.7789e-06
5.36525e-09
-2.99733e-07
-1.20071e-06
-1.99725e-08
-2.29054e-07
-5.805e-07
-6.02715e-08
-2.50217e-07
-6.37445e-08
-1.91248e-07
-3.0991e-07
4.37646e-08
-1.90914e-07
-3.56635e-07
2.20696e-07
-2.04629e-07
-4.01215e-07
3.02465e-07
-1.98978e-07
-4.5661e-07
3.88958e-07
-2.1766e-07
-5.14689e-07
3.45887e-07
-2.48153e-07
-5.71914e-07
3.16083e-07
-2.7569e-07
-5.84499e-07
2.19069e-07
-3.09472e-07
-5.66491e-07
1.62397e-07
-3.2731e-07
-5.17886e-07
1.03307e-07
-3.50334e-07
-4.47921e-07
7.309e-08
-3.67654e-07
-3.71848e-07
5.99543e-08
-3.81433e-07
-3.00348e-07
6.12785e-08
-3.87761e-07
-2.34963e-07
6.68157e-08
-3.90888e-07
-1.7738e-07
8.02673e-08
-3.9017e-07
-1.27616e-07
9.94336e-08
-3.86975e-07
-8.81974e-08
1.22906e-07
-3.81098e-07
-6.02665e-08
1.5039e-07
-3.7421e-07
-4.3631e-08
1.81082e-07
-3.67568e-07
-3.62701e-08
2.11715e-07
-3.61669e-07
-3.52561e-08
2.40311e-07
-3.57099e-07
-3.76491e-08
2.67344e-07
-3.54303e-07
-4.13714e-08
2.95442e-07
-3.53577e-07
-4.5634e-08
3.2698e-07
-3.5431e-07
-5.11121e-08
3.60083e-07
-3.55938e-07
-5.52899e-08
3.94559e-07
-3.57267e-07
-5.90185e-08
4.29799e-07
-3.58124e-07
-6.32281e-08
4.66818e-07
-3.57919e-07
-7.21199e-08
5.07926e-07
-3.55389e-07
-9.28913e-08
5.55207e-07
-3.4984e-07
-1.32944e-07
6.12119e-07
-3.41787e-07
-1.9537e-07
6.89844e-07
-3.34717e-07
-2.78871e-07
8.05871e-07
-3.32325e-07
-3.79712e-07
9.78003e-07
-3.38269e-07
-4.77457e-07
1.22204e-06
-3.60222e-07
-5.40746e-07
1.52983e-06
-4.05127e-07
-6.02831e-07
1.90552e-06
-4.38963e-07
-7.47234e-07
2.28892e-06
-3.71176e-07
-7.94843e-07
2.34305e-06
-2.78047e-07
-1.28012e-07
1.42656e-06
-4.52936e-07
1.40594e-06
-2.80607e-07
-9.07163e-07
3.79872e-06
-1.48294e-06
-1.56043e-06
8.77339e-06
-5.10811e-06
-1.65203e-06
1.48821e-05
-9.35635e-06
-1.81704e-06
1.75221e-05
-1.26999e-05
-6.74431e-07
1.58425e-05
-1.38287e-05
2.06986e-06
1.10626e-05
-1.22668e-05
4.15941e-06
4.06307e-06
-7.78389e-06
6.63083e-06
5.84463e-06
-4.92714e-06
2.92869e-06
1.24849e-05
-6.30756e-06
-2.5185e-08
1.47054e-05
8.89351e-06
-4.2297e-06
1.66095e-05
1.51189e-05
-8.97379e-06
-6.5931e-06
2.25885e-05
2.20397e-05
-4.43245e-07
-1.69368e-05
-2.94379e-06
1.37792e-05
-4.81824e-05
-1.07861e-05
1.29684e-05
-2.41943e-05
-1.74483e-06
1.29921e-05
-1.59489e-05
-5.25308e-07
1.1138e-05
-6.81902e-06
-1.70886e-06
8.62046e-06
-1.58903e-06
8.18477e-07
8.27804e-06
-4.51727e-07
2.56964e-07
8.02838e-06
8.30742e-07
7.2996e-07
6.33267e-06
2.5716e-06
9.24806e-07
1.32062e-06
3.50625e-06
1.44604e-06
-6.56529e-06
3.35646e-06
2.74503e-06
-1.20556e-05
2.21554e-06
2.79091e-06
-1.26074e-05
2.20264e-06
3.23774e-06
-1.20125e-05
2.93058e-06
3.44921e-06
-1.11848e-05
2.9557e-06
3.48569e-06
-1.13512e-05
1.18663e-06
3.2178e-06
-1.28746e-05
-1.33679e-07
2.45487e-06
-1.4403e-05
-1.67187e-06
1.971e-06
-1.53039e-05
-2.63036e-06
1.28672e-06
-1.61006e-05
-2.99403e-06
1.46115e-06
-1.65964e-05
-2.64394e-06
1.68074e-06
-1.70321e-05
-1.83726e-06
2.06496e-06
-1.74927e-05
-1.02413e-06
2.47089e-06
-1.80617e-05
-6.65104e-07
2.72052e-06
-1.82926e-05
-1.08006e-06
2.23149e-06
-1.74675e-05
-2.23422e-06
1.2923e-06
-1.71927e-05
-3.01729e-06
1.69684e-06
-1.80114e-05
-3.71719e-06
2.10515e-06
-1.76213e-05
-3.75236e-06
3.08076e-07
-1.415e-05
-2.86497e-06
-3.18836e-06
-9.26407e-06
-2.05948e-06
-5.12904e-06
-5.46734e-06
-1.26966e-06
-4.84918e-06
-2.68517e-06
-2.62522e-07
-4.15607e-06
-1.73184e-07
-1.30535e-06
-3.74265e-06
1.31842e-06
-5.90397e-07
-2.5516e-06
9.00449e-07
9.53831e-07
-1.73141e-07
1.19193e-07
8.27095e-07
-3.03813e-06
-3.89918e-06
4.58756e-08
-1.96384e-06
-4.88234e-06
-8.83018e-07
-1.65165e-06
-3.44502e-06
4.44633e-08
-9.885e-07
-3.42798e-06
-1.40651e-08
-5.6812e-07
-1.78908e-06
1.67993e-07
-3.17151e-07
-8.80122e-07
4.86612e-08
-2.31675e-07
1.75301e-08
-1.66741e-07
-2.72465e-07
2.60468e-07
-1.75903e-07
-2.53806e-07
4.15215e-07
-2.13164e-07
-2.66718e-07
5.22462e-07
-2.07072e-07
-3.01363e-07
6.42532e-07
-2.18913e-07
-3.83942e-07
6.50394e-07
-2.21912e-07
-4.78539e-07
6.43889e-07
-2.33191e-07
-5.30014e-07
5.27726e-07
-2.57163e-07
-5.36509e-07
4.4202e-07
-2.73106e-07
-5.0654e-07
3.70706e-07
-2.97347e-07
-4.53154e-07
3.4082e-07
-3.21092e-07
-3.9416e-07
3.44967e-07
-3.43982e-07
-3.35526e-07
3.63867e-07
-3.61196e-07
-2.77681e-07
3.83422e-07
-3.74423e-07
-2.21121e-07
4.06681e-07
-3.82945e-07
-1.66915e-07
4.32507e-07
-3.87249e-07
-1.19726e-07
4.62186e-07
-3.86438e-07
-8.23768e-08
4.94437e-07
-3.81363e-07
-5.58116e-08
5.27866e-07
-3.73315e-07
-3.89511e-08
5.58959e-07
-3.64068e-07
-2.89976e-08
5.85392e-07
-3.54997e-07
-2.3824e-08
6.09163e-07
-3.46953e-07
-2.32238e-08
6.3464e-07
-3.3976e-07
-2.59024e-08
6.63269e-07
-3.3357e-07
-3.01391e-08
6.92577e-07
-3.28215e-07
-3.37923e-08
7.21385e-07
-3.23129e-07
-3.74165e-08
7.51056e-07
-3.1759e-07
-4.29551e-08
7.83192e-07
-3.1079e-07
-5.59582e-08
8.22808e-07
-3.01834e-07
-8.55933e-08
8.7551e-07
-2.90619e-07
-1.40079e-07
9.46334e-07
-2.79681e-07
-2.18331e-07
1.04259e-06
-2.74447e-07
-3.08485e-07
1.17576e-06
-2.79687e-07
-3.86556e-07
1.35468e-06
-2.98551e-07
-4.15368e-07
1.58425e-06
-3.33353e-07
-3.71422e-07
1.86329e-06
-3.77355e-07
-2.91436e-07
2.19925e-06
-3.73665e-07
-1.90135e-07
2.48511e-06
-2.97441e-07
2.91509e-07
2.17478e-06
-3.13315e-07
1.58539e-06
9.45532e-07
-8.12802e-07
4.82161e-06
-1.72192e-06
-1.79486e-06
1.11209e-05
-5.64687e-06
-2.13535e-06
1.85068e-05
-1.05194e-05
-1.97456e-06
2.20148e-05
-1.2114e-05
-7.50363e-07
2.21506e-05
-1.26913e-05
-1.4428e-07
1.8588e-05
-1.28009e-05
2.53475e-06
8.96657e-06
-7.61628e-06
4.97094e-06
-1.90778e-06
-2.96311e-06
6.05362e-06
-2.39153e-06
-6.17234e-06
1.72902e-06
-4.31655e-07
-6.75777e-06
-1.50955e-06
1.28848e-05
6.8588e-06
-1.12815e-05
2.43728e-05
4.341e-06
-7.10041e-07
-2.55503e-06
2.12688e-05
2.82464e-05
-7.68586e-07
-1.50427e-05
-3.68064e-06
7.04071e-06
-4.51904e-05
-1.08008e-05
2.56031e-06
-1.97712e-05
5.76463e-08
4.6575e-06
-1.77468e-05
-2.99098e-07
4.1243e-07
-5.04404e-06
2.47024e-06
-3.4211e-06
-4.65257e-06
6.89721e-06
-7.79042e-06
-3.36787e-06
7.28559e-06
-9.83648e-06
-2.67455e-06
5.55148e-06
-1.2649e-05
2.21194e-07
5.16301e-06
-1.75285e-05
3.18991e-06
5.19601e-06
-2.19654e-05
3.85049e-06
3.94305e-06
-2.59374e-05
2.59277e-06
3.59485e-06
-2.88984e-05
1.373e-06
3.79086e-06
-3.05977e-05
9.52546e-07
3.67746e-06
-3.15574e-05
2.05244e-07
3.71036e-06
-3.19477e-05
-1.70991e-06
3.28697e-06
-3.21584e-05
-2.85322e-06
2.93039e-06
-3.21169e-05
-3.8936e-06
2.18041e-06
-3.11518e-05
-4.93643e-06
1.34102e-06
-3.01537e-05
-5.17568e-06
1.18372e-06
-2.93366e-05
-5.03642e-06
1.57545e-06
-2.88124e-05
-5.21692e-06
2.85554e-06
-2.83627e-05
-5.03184e-06
3.5581e-06
-2.77215e-05
-4.62883e-06
3.32255e-06
-2.64312e-05
-4.48521e-06
2.11489e-06
-2.51579e-05
-4.65521e-06
1.14772e-06
-2.4308e-05
-4.75295e-06
8.85821e-07
-2.34313e-05
-4.44984e-06
-1.4407e-07
-2.13035e-05
-3.41419e-06
-2.46588e-06
-1.72891e-05
-2.00939e-06
-4.87001e-06
-1.24451e-05
-8.36326e-07
-6.06715e-06
-8.5852e-06
2.35194e-07
-5.36474e-06
-5.47964e-06
1.04504e-06
-4.41313e-06
-3.81997e-06
1.0341e-06
-3.99912e-06
-3.07084e-06
1.28423e-06
-2.62376e-06
-2.45253e-06
7.64665e-07
-4.29141e-07
-1.72349e-06
-6.09851e-07
-3.41151e-06
-3.709e-06
3.91219e-07
-2.44628e-06
-5.0445e-06
-8.03069e-07
-2.15613e-06
-3.7253e-06
-9.86572e-09
-1.29475e-06
-3.90952e-06
-3.79829e-07
-7.39319e-07
-2.53512e-06
1.90617e-07
-3.38328e-07
-1.37685e-06
9.57477e-08
-1.7411e-07
-4.2055e-08
-1.04626e-07
-2.16679e-07
4.15909e-07
-1.12861e-07
-1.59968e-07
5.5009e-07
-1.91577e-07
-1.63736e-07
6.914e-07
-1.65156e-07
-1.85474e-07
8.48749e-07
-1.84466e-07
-2.95679e-07
9.3245e-07
-1.71836e-07
-4.25862e-07
9.53229e-07
-1.79142e-07
-4.93851e-07
7.99216e-07
-2.03485e-07
-4.91634e-07
6.71739e-07
-2.3192e-07
-4.50107e-07
5.94038e-07
-2.64839e-07
-3.94771e-07
5.79837e-07
-2.94335e-07
-3.48776e-07
6.16352e-07
-3.1736e-07
-3.12535e-07
6.63031e-07
-3.35384e-07
-2.79062e-07
6.99868e-07
-3.49897e-07
-2.44906e-07
7.31962e-07
-3.59413e-07
-2.07475e-07
7.59315e-07
-3.64215e-07
-1.71005e-07
7.88334e-07
-3.62593e-07
-1.38652e-07
8.18436e-07
-3.56325e-07
-1.14753e-07
8.5085e-07
-3.46855e-07
-9.73891e-08
8.7679e-07
-3.35167e-07
-8.38227e-08
8.94534e-07
-3.22679e-07
-7.26958e-08
9.08397e-07
-3.10331e-07
-6.47587e-08
9.24876e-07
-2.98141e-07
-6.12465e-08
9.46974e-07
-2.87186e-07
-6.18435e-08
9.71267e-07
-2.7806e-07
-6.53867e-08
9.95218e-07
-2.70256e-07
-7.23665e-08
1.02055e-06
-2.62478e-07
-8.44785e-08
1.04935e-06
-2.54009e-07
-1.08084e-07
1.09082e-06
-2.44372e-07
-1.51254e-07
1.15259e-06
-2.33878e-07
-2.18024e-07
1.23694e-06
-2.23796e-07
-2.9988e-07
1.34187e-06
-2.17385e-07
-3.70486e-07
1.46734e-06
-2.20936e-07
-3.90859e-07
1.61166e-06
-2.36568e-07
-3.28322e-07
1.78077e-06
-2.5902e-07
-1.84369e-07
1.9936e-06
-2.74225e-07
1.80987e-08
2.25569e-06
-2.58872e-07
3.81472e-07
2.37799e-06
-2.5622e-07
1.49981e-06
1.61953e-06
-5.63063e-07
4.72425e-06
-7.30688e-07
-1.54819e-06
1.12942e-05
-6.00786e-06
-2.28396e-06
1.90472e-05
-1.24969e-05
-9.02988e-07
2.3237e-05
-1.39106e-05
-7.98626e-07
2.23651e-05
-1.16772e-05
4.35174e-07
1.34504e-05
-4.97637e-06
1.19974e-06
-4.4755e-06
-1.11256e-06
6.23761e-06
-2.2001e-05
2.33712e-06
7.57216e-06
-2.75709e-05
9.06603e-07
1.70026e-06
-2.77135e-05
-3.90997e-07
-5.6386e-06
-2.26896e-05
-6.32532e-06
-5.45622e-06
7.50019e-06
-1.72991e-05
-6.03157e-06
2.26459e-05
-1.42693e-05
3.4645e-06
-1.3973e-06
2.12019e-05
2.41088e-05
-3.15816e-06
-9.04618e-06
-4.23544e-06
-1.05147e-05
-2.82428e-05
-9.58976e-06
-2.52425e-05
-1.10943e-05
6.05261e-06
-4.22955e-05
-7.05967e-06
6.36751e-06
-5.35408e-05
-2.04747e-06
8.2505e-06
-5.86781e-05
-5.31777e-06
5.80428e-06
-6.03503e-05
-5.92211e-06
4.22823e-06
-6.00678e-05
-6.38505e-06
3.42967e-06
-5.88741e-05
-4.01287e-06
3.04196e-06
-5.79143e-05
-1.1809e-06
3.41262e-06
-5.75998e-05
5.63885e-08
3.48121e-06
-5.79394e-05
-1.68954e-07
3.10297e-06
-5.79393e-05
-1.09955e-06
2.47402e-06
-5.69186e-05
-1.68563e-06
1.61909e-06
-5.57216e-05
-2.33687e-06
1.34669e-06
-5.43682e-05
-4.00161e-06
9.39853e-07
-5.275e-05
-4.66256e-06
1.92573e-07
-5.1273e-05
-5.13624e-06
-2.32987e-07
-4.96802e-05
-6.24538e-06
-2.82527e-07
-4.78734e-05
-6.70885e-06
-2.72495e-07
-4.63415e-05
-6.87478e-06
3.07652e-07
-4.48583e-05
-7.34245e-06
6.43354e-07
-4.35218e-05
-7.14672e-06
7.79289e-07
-4.19283e-05
-6.68976e-06
4.6828e-07
-4.00126e-05
-6.1803e-06
-2.1987e-07
-3.79742e-05
-5.69977e-06
-9.93079e-07
-3.6381e-05
-5.06573e-06
-1.27982e-06
-3.40248e-05
-3.94132e-06
-2.86424e-06
-3.05793e-05
-2.55152e-06
-4.30776e-06
-2.59179e-05
-1.27616e-06
-5.3943e-06
-2.05791e-05
-3.98197e-07
-5.77671e-06
-1.6367e-05
8.64797e-07
-4.84159e-06
-1.3341e-05
1.98448e-06
-3.96532e-06
-1.20234e-05
2.36007e-06
-2.64358e-06
-1.13995e-05
1.82162e-06
-1.16124e-06
-7.48488e-06
-2.56566e-06
-5.84313e-07
-7.72717e-06
-1.4812e-06
-3.77962e-06
-3.35694e-06
7.95639e-07
-2.97557e-06
-5.04418e-06
-8.04373e-07
-2.70566e-06
-3.78867e-06
-2.06533e-07
-1.58462e-06
-4.05093e-06
-9.7962e-07
-8.45546e-07
-3.07082e-06
-2.03369e-07
-3.21566e-07
-1.80051e-06
-1.00325e-07
-1.59024e-07
-6.13121e-08
-1.43278e-07
-2.19291e-07
5.75523e-07
-9.93408e-08
-1.23828e-07
6.62661e-07
-2.08025e-07
-1.22453e-07
8.46998e-07
-1.56965e-07
-1.30539e-07
1.02346e-06
-1.66616e-07
-2.26971e-07
1.14906e-06
-1.20166e-07
-3.41679e-07
1.19409e-06
-1.26146e-07
-3.91516e-07
1.01562e-06
-1.6656e-07
-3.78165e-07
8.81669e-07
-2.23268e-07
-3.41068e-07
8.21332e-07
-2.64379e-07
-3.0149e-07
8.34221e-07
-2.93949e-07
-2.80014e-07
9.0249e-07
-3.07601e-07
-2.74372e-07
9.72889e-07
-3.15484e-07
-2.74923e-07
1.0224e-06
-3.21969e-07
-2.76676e-07
1.05951e-06
-3.25779e-07
-2.74022e-07
1.08418e-06
-3.27503e-07
-2.66944e-07
1.10567e-06
-3.24393e-07
-2.57557e-07
1.12564e-06
-3.16579e-07
-2.51612e-07
1.14802e-06
-3.03092e-07
-2.46477e-07
1.16167e-06
-2.89999e-07
-2.37681e-07
1.16422e-06
-2.78463e-07
-2.25768e-07
1.16465e-06
-2.68149e-07
-2.1284e-07
1.17042e-06
-2.58455e-07
-2.04294e-07
1.18745e-06
-2.49001e-07
-2.03241e-07
1.21071e-06
-2.40473e-07
-2.10652e-07
1.23538e-06
-2.32731e-07
-2.27688e-07
1.26277e-06
-2.25163e-07
-2.54081e-07
1.2933e-06
-2.17535e-07
-2.92715e-07
1.3384e-06
-2.08923e-07
-3.44445e-07
1.40483e-06
-2.00486e-07
-4.03447e-07
1.48991e-06
-1.93949e-07
-4.52919e-07
1.58196e-06
-1.90595e-07
-4.56011e-07
1.66639e-06
-1.95947e-07
-3.7396e-07
1.73872e-06
-2.09104e-07
-1.98256e-07
1.8236e-06
-2.18515e-07
4.26438e-08
1.96965e-06
-2.16943e-07
3.21089e-07
2.17968e-06
-2.02427e-07
1.06153e-06
1.94763e-06
-3.10075e-07
2.94631e-06
7.09272e-07
-9.7453e-07
8.13275e-06
-4.25164e-06
-1.66549e-06
1.456e-05
-1.21845e-05
-2.50591e-07
1.29016e-05
-1.20411e-05
1.20254e-06
3.33008e-06
-5.23204e-06
8.92931e-07
-1.33202e-05
4.03633e-07
4.56948e-06
-2.94626e-05
6.36935e-06
4.79665e-06
-3.84537e-05
3.58823e-06
4.29038e-06
-4.26163e-05
2.77906e-06
3.72074e-06
-4.31157e-05
1.31119e-06
9.49896e-08
-4.11844e-05
-2.25986e-06
-6.22977e-08
-3.66149e-05
-1.42174e-05
3.32266e-06
-3.47921e-05
-2.36744e-05
4.55276e-06
-2.73317e-05
-2.56164e-05
3.88653e-06
2.28145e-06
-1.3282e-05
4.86954e-06
-3.25276e-06
4.35985e-07
-3.94726e-06
-3.32498e-05
7.7361e-06
-5.97955e-06
-5.03145e-05
2.04331e-06
3.93028e-06
-6.45181e-05
4.6475e-06
2.49976e-06
-6.69324e-05
-2.79876e-06
3.16924e-06
-6.87764e-05
-6.89854e-06
3.42854e-06
-7.05736e-05
-8.00206e-06
3.88096e-06
-7.26466e-05
-7.54695e-06
3.23883e-06
-7.31163e-05
-5.97989e-06
2.44057e-06
-7.26121e-05
-3.28848e-06
1.60721e-06
-7.15146e-05
-1.90067e-06
8.63402e-07
-6.99896e-05
-1.94429e-06
2.54107e-07
-6.84802e-05
-2.30414e-06
-3.01033e-07
-6.64315e-05
-2.37812e-06
-1.3525e-06
-6.4223e-05
-2.88164e-06
-1.6602e-06
-6.25357e-05
-3.91108e-06
-1.77433e-06
-6.07386e-05
-4.43495e-06
-2.02134e-06
-5.85714e-05
-4.81856e-06
-2.48157e-06
-5.70208e-05
-5.10947e-06
-2.68338e-06
-5.55583e-05
-5.38123e-06
-2.787e-06
-5.42393e-05
-5.57318e-06
-2.61766e-06
-5.30909e-05
-5.91626e-06
-2.57189e-06
-5.18418e-05
-5.80526e-06
-2.5879e-06
-5.05061e-05
-5.47907e-06
-2.54394e-06
-4.89553e-05
-5.33046e-06
-2.39834e-06
-4.7356e-05
-4.88939e-06
-2.40759e-06
-4.5567e-05
-4.011e-06
-2.84189e-06
-4.28162e-05
-2.78074e-06
-3.90969e-06
-3.86938e-05
-2.0097e-06
-4.66291e-06
-3.29572e-05
-2.04784e-06
-4.96401e-06
-2.63308e-05
-2.72965e-06
-4.29432e-06
-1.96965e-05
-3.16547e-06
-2.60383e-06
-1.43123e-05
-2.67671e-06
-7.22882e-07
-1.20414e-05
-1.58507e-06
1.67435e-06
-1.12443e-05
-3.07686e-06
4.1014e-06
-8.27039e-06
-1.16065e-05
6.06707e-06
-2.09381e-05
4.94051e-06
-3.89287e-06
-2.90329e-06
1.43627e-06
-3.45056e-06
-4.70225e-06
-7.84233e-07
-3.41451e-06
-3.74464e-06
-8.00657e-08
-2.16191e-06
-4.12179e-06
-1.18174e-06
-1.16357e-06
-3.59281e-06
-4.76346e-07
-3.36084e-07
-2.34316e-06
-2.84831e-07
-8.96725e-08
-1.8191e-07
-1.2581e-07
-1.4138e-07
6.65063e-07
-3.78265e-08
-9.63512e-08
8.69394e-07
-2.51758e-07
-1.51334e-07
1.05473e-06
-1.5274e-07
-1.37346e-07
1.19416e-06
-1.84679e-07
-1.49583e-07
1.32245e-06
-1.61153e-07
-1.48177e-07
1.39086e-06
-1.98169e-07
-1.37865e-07
1.27466e-06
-2.69336e-07
-1.29412e-07
1.21051e-06
-3.37287e-07
-1.47026e-07
1.2199e-06
-3.80943e-07
-1.81943e-07
1.28423e-06
-4.15089e-07
-2.26172e-07
1.37984e-06
-4.33112e-07
-2.73056e-07
1.46722e-06
-4.47444e-07
-3.22181e-07
1.53188e-06
-4.60346e-07
-3.68181e-07
1.5749e-06
-4.69385e-07
-3.99207e-07
1.59138e-06
-4.76166e-07
-4.1789e-07
1.60361e-06
-4.79252e-07
-4.26262e-07
1.61371e-06
-4.79682e-07
-4.24268e-07
1.62388e-06
-4.77853e-07
-4.16797e-07
1.62883e-06
-4.74622e-07
-4.05383e-07
1.62552e-06
-4.72711e-07
-3.89483e-07
1.62015e-06
-4.71394e-07
-3.71956e-07
1.62202e-06
-4.69122e-07
-3.60255e-07
1.64073e-06
-4.64982e-07
-3.60588e-07
1.67122e-06
-4.60171e-07
-3.74222e-07
1.70416e-06
-4.55137e-07
-4.01275e-07
1.74011e-06
-4.50284e-07
-4.38955e-07
1.77653e-06
-4.45555e-07
-4.86024e-07
1.82478e-06
-4.39309e-07
-5.35156e-07
1.88724e-06
-4.33285e-07
-5.70225e-07
1.95612e-06
-4.31149e-07
-5.65424e-07
2.01586e-06
-4.3871e-07
-4.8803e-07
2.04187e-06
-4.52876e-07
-3.07523e-07
2.0324e-06
-4.74188e-07
-4.01372e-08
2.04002e-06
-4.83824e-07
2.35791e-07
2.16131e-06
-4.676e-07
4.96202e-07
2.39552e-06
-4.76275e-07
1.11979e-06
2.06866e-06
-7.44644e-07
3.20298e-06
3.05403e-07
-1.67935e-06
2.84202e-06
-3.62815e-06
-2.62565e-07
-1.04339e-05
-5.25127e-06
6.34261e-06
-2.60941e-05
3.62577e-08
3.58292e-06
-3.80077e-05
5.35807e-06
1.32351e-06
-4.8621e-05
6.34331e-06
4.67369e-06
-5.40731e-05
6.35408e-06
5.46747e-06
-5.81709e-05
2.24576e-06
5.44031e-06
-6.0251e-05
-4.8146e-07
5.34071e-06
-5.83931e-05
-2.46074e-06
1.91413e-06
-5.5837e-05
-5.19624e-06
3.80435e-07
-5.72544e-05
-1.48684e-05
2.06855e-06
-6.62134e-05
-1.82605e-05
3.54535e-06
-5.13403e-05
-3.38478e-05
-6.64183e-06
6.97015e-06
-6.04437e-05
-1.11502e-05
1.43582e-06
9.87893e-06
-3.90818e-06
-1.85612e-05
3.35255e-05
-5.79057e-06
-3.24975e-05
9.62168e-06
6.36021e-06
-3.92878e-05
1.15138e-05
-7.38953e-08
-3.79723e-05
-2.204e-06
-1.90796e-06
-3.71852e-05
-6.21273e-06
-1.47041e-06
-3.71042e-05
-9.95444e-06
1.874e-06
-4.03603e-05
-9.93574e-06
5.64787e-06
-4.4384e-05
-9.0712e-06
7.11819e-06
-4.89249e-05
-6.13781e-06
7.39363e-06
-5.24857e-05
-4.52109e-06
6.18469e-06
-5.51171e-05
-3.51427e-06
4.20502e-06
-5.74754e-05
-3.00437e-06
3.06218e-06
-5.91165e-05
-2.75908e-06
2.02578e-06
-5.91781e-05
-3.40857e-06
5.92193e-07
-5.927e-05
-3.74182e-06
-7.35841e-08
-5.90223e-05
-4.31001e-06
-3.68856e-07
-5.86565e-05
-4.83459e-06
-3.45921e-07
-5.8886e-05
-4.27906e-06
-5.96947e-07
-5.89985e-05
-4.07453e-06
-1.19015e-06
-5.92775e-05
-3.52536e-06
-1.76478e-06
-5.92339e-05
-3.28369e-06
-2.67206e-06
-5.88742e-05
-2.53871e-06
-3.62228e-06
-5.82294e-05
-1.65062e-06
-4.46945e-06
-5.72967e-05
-1.35459e-06
-4.90496e-06
-5.59242e-05
-7.43526e-07
-5.51495e-06
-5.38454e-05
-2.26099e-07
-5.8608e-06
-5.02491e-05
3.01613e-07
-6.6761e-06
-4.51508e-05
2.06901e-07
-7.31286e-06
-3.8862e-05
-1.63951e-06
-6.69567e-06
-3.13574e-05
-4.78393e-06
-5.44949e-06
-2.2839e-05
-8.00694e-06
-3.67657e-06
-1.45719e-05
-9.48622e-06
-1.45752e-06
-8.23267e-06
-8.819e-06
8.94741e-07
-4.61121e-06
-9.28979e-06
2.59148e-06
-3.28456e-06
-1.56915e-05
2.75834e-06
-2.71354e-05
2.9128e-06
-3.48596e-06
-1.79486e-06
2.4822e-06
-3.74919e-06
-4.35741e-06
-8.1614e-08
-4.19189e-06
-3.57131e-06
2.6937e-07
-2.97308e-06
-4.29027e-06
-1.05033e-06
-1.75817e-06
-4.10942e-06
-6.98299e-07
-4.49807e-07
-3.08739e-06
-5.6413e-07
4.32985e-09
-7.84538e-07
1.48492e-07
-9.12547e-08
4.15523e-07
3.45127e-07
-9.05319e-08
8.31186e-07
3.74889e-08