/*--------------------------------*- C++ -*----------------------------------*\
| =========                 |                                                 |
| \\      /  F ield         | OpenFOAM: The Open Source CFD Toolbox           |
|  \\    /   O peration     | Version:  2.3.0                                 |
|   \\  /    A nd           | Web:      www.OpenFOAM.org                      |
|    \\/     M anipulation  |                                                 |
\*---------------------------------------------------------------------------*/
FoamFile
{
    version     2.0;
    format      ascii;
    class       surfaceScalarField;
    location    "44";
    object      phi;
}
// * * * * * * * * * * * * * * * * * * * * * * * * * * * * * * * * * * * * * //

dimensions      [0 3 -1 0 0 0 0];

internalField   nonuniform List<scalar> 
16448
(
-1.16448e-06
-2.5866e-06
3.94056e-07
7.90378e-07
-2.59245e-06
6.37588e-07
8.54416e-07
-1.14019e-06
1.07615e-06
7.61075e-07
-9.93644e-07
1.08699e-06
3.10791e-07
-5.52979e-07
1.00327e-06
-2.28359e-08
-6.44944e-07
9.78573e-07
-1.94801e-07
-6.76754e-07
8.48721e-07
-2.50421e-07
-5.98699e-07
6.5432e-07
-4.1706e-07
-3.73396e-07
5.40032e-07
-6.92533e-07
-2.18949e-07
4.94419e-07
-9.23123e-07
-1.77167e-07
4.07752e-07
-9.81054e-07
-2.23374e-07
2.813e-07
-8.835e-07
-3.02941e-07
2.05382e-07
-6.88054e-07
-3.58103e-07
1.62653e-07
-4.84442e-07
-3.83794e-07
1.80177e-07
-2.9587e-07
-4.05617e-07
2.17039e-07
-1.47813e-07
-4.18398e-07
2.70336e-07
-3.14753e-08
-4.34955e-07
3.18612e-07
4.68813e-08
-4.48045e-07
3.69682e-07
9.03056e-08
-4.5658e-07
4.1315e-07
1.0527e-07
-4.65034e-07
4.50064e-07
1.02639e-07
-4.7e-07
4.72627e-07
9.04412e-08
-4.69637e-07
4.8183e-07
7.41459e-08
-4.6445e-07
4.80741e-07
5.78407e-08
-4.55101e-07
4.71402e-07
4.50101e-08
-4.43131e-07
4.55959e-07
3.80855e-08
-4.2981e-07
4.36731e-07
3.78484e-08
-4.17831e-07
4.18067e-07
4.19622e-08
-4.07369e-07
4.03253e-07
4.66649e-08
-3.96478e-07
3.91774e-07
5.04981e-08
-3.8613e-07
3.82295e-07
5.39421e-08
-3.77055e-07
3.73611e-07
5.77805e-08
-3.69053e-07
3.65214e-07
6.21735e-08
-3.61496e-07
3.57103e-07
6.7182e-08
-3.53844e-07
3.48835e-07
7.4119e-08
-3.46466e-07
3.3953e-07
8.63017e-08
-3.40076e-07
3.27893e-07
1.07578e-07
-3.34665e-07
3.1339e-07
1.45406e-07
-3.33696e-07
2.95867e-07
2.02689e-07
-3.33933e-07
2.76651e-07
2.79811e-07
-3.38459e-07
2.61335e-07
3.7773e-07
-3.46602e-07
2.48684e-07
4.83479e-07
-3.5358e-07
2.47828e-07
5.9304e-07
-3.63916e-07
2.54354e-07
6.60153e-07
-3.5113e-07
2.84013e-07
6.69899e-07
-3.34018e-07
3.24269e-07
5.74484e-07
-3.01307e-07
3.96716e-07
4.85879e-07
-3.33632e-07
4.22233e-07
4.05314e-07
-4.13184e-07
4.9374e-07
3.02759e-07
-5.78235e-07
6.80784e-07
3.9882e-07
-1.08029e-06
9.84216e-07
-1.05799e-07
-6.93001e-07
1.19761e-06
-1.35151e-06
-1.70893e-07
1.41659e-06
-2.73048e-06
-7.31498e-07
2.11046e-06
-2.54891e-06
-3.4842e-06
3.30261e-06
-2.58281e-06
-4.21911e-06
4.25299e-06
-1.46476e-06
-2.23458e-06
1.11651e-06
-5.93884e-07
-1.14363e-06
2.72739e-07
-5.02046e-06
-8.47467e-07
5.27406e-06
-4.51571e-07
-1.32092e-05
8.64042e-06
1.62821e-05
-1.77455e-05
1.01191e-06
2.37418e-05
-1.08802e-05
3.42044e-06
2.35924e-05
-4.53164e-06
4.68108e-06
2.63608e-05
-6.27083e-06
3.50245e-06
2.88718e-05
-5.28856e-06
2.77753e-06
3.07884e-05
-4.19813e-06
2.28149e-06
3.27849e-05
-3.73338e-06
1.73688e-06
3.45691e-05
-3.08803e-06
1.30387e-06
3.58657e-05
-2.34806e-06
1.05143e-06
3.62926e-05
-1.42449e-06
9.97546e-07
3.58192e-05
-5.68536e-07
1.04203e-06
3.45005e-05
2.08373e-07
1.11029e-06
3.23474e-05
1.00104e-06
1.15208e-06
2.94691e-05
1.71893e-06
1.15936e-06
2.56118e-05
2.53344e-06
1.32379e-06
2.13463e-05
2.8923e-06
1.37321e-06
1.63093e-05
3.41415e-06
1.62285e-06
1.02087e-05
3.7743e-06
2.32635e-06
5.11394e-06
3.05024e-06
2.04451e-06
2.56898e-06
1.57831e-06
9.66649e-07
2.23164e-06
-6.39028e-08
4.01249e-07
3.56501e-06
-9.32234e-07
-4.01139e-07
5.69092e-06
-9.76858e-07
-1.14904e-06
7.22396e-06
-2.17408e-07
-1.31563e-06
7.8525e-06
8.6188e-07
-1.49042e-06
7.55485e-06
1.54937e-06
-1.25171e-06
5.96512e-06
1.57355e-06
1.61762e-08
3.88834e-06
8.20975e-07
1.25581e-06
3.10629e-06
-5.14442e-07
1.29649e-06
4.09721e-06
-2.42916e-06
1.43824e-06
5.45651e-06
-3.08395e-06
1.72464e-06
5.99096e-06
-2.10309e-06
1.56865e-06
5.46017e-06
-8.77505e-07
1.40829e-06
4.37768e-06
4.92651e-08
1.03322e-06
2.63287e-06
1.13355e-06
6.11262e-07
2.96867e-06
-3.35795e-07
-2.01716e-06
-3.75967e-06
-2.37188e-07
-5.32401e-07
-3.93284e-06
-1.44365e-07
-7.05258e-08
-2.19985e-06
5.97793e-07
3.55335e-07
-1.92085e-06
5.01358e-07
3.92008e-07
-1.02011e-06
4.30469e-07
1.83704e-07
-8.72304e-07
4.3567e-07
-1.19056e-07
-6.21803e-07
2.47814e-07
-3.24768e-07
-4.666e-07
7.36141e-08
-6.12865e-07
-1.72317e-07
8.70155e-08
-9.6373e-07
-4.96365e-09
1.36876e-07
-1.19839e-06
-2.58615e-08
8.33537e-08
-1.22361e-06
-1.68177e-07
-2.99839e-08
-1.11382e-06
-3.02096e-07
-1.10637e-07
-9.18891e-07
-3.945e-07
-1.58542e-07
-7.01069e-07
-4.36661e-07
-1.64962e-07
-4.89066e-07
-4.67806e-07
-1.49821e-07
-3.12001e-07
-4.80615e-07
-1.14856e-07
-1.68079e-07
-4.98004e-07
-8.08819e-08
-6.1593e-08
-5.09603e-07
-4.49351e-08
8.67896e-09
-5.13578e-07
-1.32808e-08
4.64194e-08
-5.1355e-07
1.07688e-08
6.23207e-08
-5.08769e-07
2.28613e-08
6.44885e-08
-4.99543e-07
2.77328e-08
5.89461e-08
-4.85764e-07
2.68519e-08
5.0285e-08
-4.68111e-07
2.16673e-08
4.20873e-08
-4.48621e-07
1.36848e-08
3.67473e-08
-4.28964e-07
4.49252e-09
3.57688e-08
-4.09932e-07
-6.92241e-09
3.71789e-08
-3.90993e-07
-1.77873e-08
3.84141e-08
-3.71226e-07
-2.6487e-08
3.94737e-08
-3.5288e-07
-3.43093e-08
4.1167e-08
-3.3699e-07
-4.17573e-08
4.42616e-08
-3.23169e-07
-4.89773e-08
4.8812e-08
-3.10305e-07
-5.574e-08
5.58545e-08
-2.98193e-07
-6.26909e-08
6.59655e-08
-2.86673e-07
-6.99019e-08
8.30447e-08
-2.78221e-07
-7.89327e-08
1.09113e-07
-2.71769e-07
-8.89639e-08
1.5274e-07
-2.7645e-07
-1.00871e-07
2.14422e-07
-2.82031e-07
-1.13584e-07
2.96873e-07
-2.99786e-07
-1.21123e-07
3.97292e-07
-3.14549e-07
-1.32475e-07
5.0892e-07
-3.35577e-07
-1.29632e-07
6.23173e-07
-3.46919e-07
-1.31256e-07
7.02641e-07
-3.2398e-07
-1.06624e-07
7.17967e-07
-2.66157e-07
-8.31965e-08
6.22143e-07
-1.82962e-07
-2.25312e-08
5.02574e-07
-1.43625e-07
-7.04514e-08
5.62313e-07
-3.37869e-07
-1.35068e-07
9.64156e-07
-8.42747e-07
-1.3735e-07
1.16878e-06
-1.658e-06
3.7306e-07
6.82397e-07
-9.92679e-07
7.8604e-07
-5.90969e-07
4.65308e-07
6.37138e-07
-2.4934e-06
5.22465e-07
6.48437e-07
-1.92056e-06
-5.36407e-06
1.30699e-06
-1.47927e-06
-7.36206e-06
2.70161e-06
-2.27922e-06
-1.86883e-06
4.34168e-07
-7.5827e-06
1.5401e-06
2.61973e-06
-8.11171e-06
-3.8211e-06
3.5027e-06
2.17931e-07
-2.41961e-05
2.65738e-06
9.94085e-06
-2.62752e-05
-1.19316e-06
1.26619e-05
-1.61884e-05
2.58716e-06
1.38978e-05
-1.18776e-05
6.11008e-06
1.65562e-05
-1.07312e-05
1.80195e-06
1.86809e-05
-8.1631e-06
7.49926e-07
2.2289e-05
-7.29318e-06
-5.13037e-07
2.63729e-05
-6.22419e-06
-1.59316e-06
2.996e-05
-4.5555e-06
-2.11958e-06
3.24577e-05
-2.75851e-06
-2.08727e-06
3.3652e-05
-9.32517e-07
-1.68631e-06
3.37869e-05
6.05869e-07
-1.30924e-06
3.28788e-05
1.99499e-06
-8.78597e-07
3.0941e-05
3.4623e-06
-5.23384e-07
2.8346e-05
4.52513e-06
-2.11236e-07
2.50997e-05
5.43906e-06
3.40648e-07
2.09914e-05
6.5233e-06
4.77348e-07
1.62394e-05
7.24493e-06
9.21243e-07
1.07688e-05
7.53923e-06
1.7057e-06
5.77779e-06
6.45773e-06
1.58348e-06
3.15523e-06
3.60345e-06
5.97425e-07
3.12546e-06
7.63292e-07
-7.97417e-07
4.69553e-06
-2.05772e-07
-2.29653e-06
6.63327e-06
5.21877e-07
-3.43646e-06
7.92803e-06
2.05399e-06
-3.56616e-06
8.39044e-06
3.1162e-06
-2.71673e-06
7.98144e-06
3.28847e-06
-1.3301e-06
6.76127e-06
2.69704e-06
9.66877e-08
5.40086e-06
1.56163e-06
6.19756e-07
4.82975e-06
-1.81684e-07
2.38356e-07
4.88538e-06
-3.45886e-06
9.74069e-07
4.54142e-06
-4.27492e-06
1.53493e-06
2.91311e-06
-1.58617e-06
1.11139e-06
1.45441e-06
-5.89686e-08
6.4017e-07
7.81698e-07
1.00105e-06
-2.79076e-07
3.96278e-07
2.32512e-06
-8.06149e-07
4.39507e-06
-1.03013e-06
-2.87299e-06
-4.14896e-06
-4.27453e-07
-1.76113e-06
-4.49702e-06
-5.47673e-07
-1.1917e-06
-2.89578e-06
1.26505e-07
-4.62945e-07
-2.53345e-06
-1.1615e-07
-1.46363e-07
-1.25639e-06
-8.02957e-08
-1.22905e-07
-8.77854e-07
-1.78999e-08
-2.55799e-07
-3.63981e-07
-1.24924e-07
-3.67655e-07
-1.55287e-07
-1.99456e-07
-5.54777e-07
1.7171e-07
-1.56908e-07
-8.18215e-07
3.35106e-07
-7.66364e-08
-1.02008e-06
2.63258e-07
-8.72594e-08
-1.07556e-06
5.51261e-08
-1.67834e-07
-1.03652e-06
-1.0658e-07
-2.3456e-07
-9.3257e-07
-2.16512e-07
-2.81942e-07
-7.95582e-07
-2.64754e-07
-3.08901e-07
-6.39894e-07
-2.98086e-07
-3.25416e-07
-4.91178e-07
-3.07514e-07
-3.21825e-07
-3.61986e-07
-3.16483e-07
-3.1072e-07
-2.54739e-07
-3.20373e-07
-2.96485e-07
-1.67312e-07
-3.1832e-07
-2.82692e-07
-1.02761e-07
-3.06426e-07
-2.71682e-07
-5.8318e-08
-2.89556e-07
-2.6366e-07
-2.96509e-08
-2.6975e-07
-2.58465e-07
-1.26414e-08
-2.47302e-07
-2.55475e-07
-3.51863e-09
-2.23235e-07
-2.54003e-07
6.73266e-10
-1.99206e-07
-2.5361e-07
2.44667e-09
-1.76848e-07
-2.53892e-07
2.57492e-09
-1.55118e-07
-2.54944e-07
5.84461e-10
-1.32005e-07
-2.56999e-07
-2.54478e-09
-1.08077e-07
-2.6002e-07
-4.633e-09
-8.69753e-08
-2.63816e-07
-4.70861e-09
-6.93103e-08
-2.67603e-07
-2.1373e-09
-5.45664e-08
-2.71173e-07
2.84145e-09
-4.11862e-08
-2.74095e-07
1.21078e-08
-3.01704e-08
-2.77288e-07
2.55471e-08
-2.03914e-08
-2.79719e-07
4.57757e-08
-1.56379e-08
-2.8281e-07
7.18547e-08
-1.33017e-08
-2.84544e-07
1.09667e-07
-2.57001e-08
-2.88562e-07
1.54829e-07
-3.65704e-08
-2.90622e-07
2.15959e-07
-6.65174e-08
-2.944e-07
2.87109e-07
-8.56598e-08
-3.00039e-07
3.76736e-07
-1.24101e-07
-3.01107e-07
4.83631e-07
-1.37609e-07
-3.16208e-07
5.8377e-07
-1.20271e-07
-3.03854e-07
6.92339e-07
-5.80897e-08
-3.16643e-07
7.65298e-07
4.03488e-08
-2.9628e-07
1.01406e-06
4.87797e-08
-4.41177e-07
1.56859e-06
-3.6976e-07
-5.22657e-07
2.30847e-06
-1.04709e-06
-5.35557e-07
2.07168e-06
-1.48135e-06
6.01116e-08
1.14041e-06
-6.4707e-07
5.85635e-07
7.30197e-07
9.33086e-07
-5.75907e-08
1.97116e-07
2.49589e-06
-1.44038e-06
1.04077e-06
-5.41513e-06
-7.92644e-07
-1.87267e-06
-5.72986e-06
1.2812e-06
3.39968e-06
-5.01929e-06
-2.12195e-06
1.24733e-06
6.78246e-06
-3.09005e-06
-5.10513e-06
-1.71327e-06
4.24464e-06
2.79744e-07
-2.78982e-05
-1.68275e-06
4.12089e-06
-2.9646e-05
-4.70353e-07
3.31668e-06
-1.85826e-05
3.19841e-06
7.19996e-06
-1.90102e-05
3.24934e-06
7.05189e-06
-1.08854e-05
3.02251e-07
1.223e-05
-1.10026e-05
-2.33858e-06
1.7921e-05
-9.00028e-06
-3.98393e-06
2.31405e-05
-6.71498e-06
-4.72862e-06
2.73086e-05
-4.31776e-06
-4.40585e-06
3.00352e-05
-2.11895e-06
-3.36622e-06
3.13849e-05
-4.12005e-08
-2.24098e-06
3.13353e-05
2.1274e-06
-1.47196e-06
3.02682e-05
3.92025e-06
-8.58104e-07
2.81196e-05
6.01372e-06
-4.02804e-07
2.5027e-05
7.81883e-06
-2.01088e-07
2.11876e-05
9.0857e-06
1.92712e-07
1.71416e-05
9.99165e-06
5.77672e-07
1.26962e-05
1.08899e-05
8.00485e-07
7.36094e-06
1.13516e-05
1.52284e-06
3.26311e-06
9.09e-06
1.46557e-06
2.13329e-06
5.05288e-06
-3.19605e-07
3.15895e-06
2.337e-06
-2.59936e-06
5.28392e-06
2.57542e-06
-4.90615e-06
7.14506e-06
4.13918e-06
-5.47843e-06
8.00245e-06
5.20748e-06
-4.01087e-06
8.10433e-06
5.18554e-06
-2.17122e-06
7.34229e-06
4.66507e-06
-6.14548e-07
5.80769e-06
3.95108e-06
2.80566e-07
4.47909e-06
2.9548e-06
-6.45672e-08
3.76329e-06
9.45776e-07
-4.11663e-07
2.09221e-06
-3.27148e-06
1.4837e-06
-3.61806e-07
-4.12512e-06
2.30421e-06
-2.2523e-06
-5.81033e-07
8.85356e-07
-2.6296e-06
7.24151e-07
-4.05816e-07
-1.95291e-06
1.6824e-06
-1.35805e-06
-1.15059e-06
3.23558e-06
-1.71278e-06
4.95628e-06
-1.71181e-06
-3.47583e-06
-4.2205e-06
-1.73107e-07
-2.48996e-06
-4.79795e-06
-6.84926e-07
-2.11134e-06
-3.34122e-06
6.68264e-08
-1.27957e-06
-3.15866e-06
-2.06535e-07
-7.77725e-07
-1.66339e-06
-9.48359e-08
-4.23905e-07
-1.1601e-06
-7.15661e-08
-3.57386e-07
-2.65727e-07
-1.64767e-07
-3.23269e-07
2.46157e-08
-2.14022e-07
-3.72721e-07
4.2067e-07
-1.99511e-07
-5.66538e-07
6.55979e-07
-1.27064e-07
-7.4577e-07
5.91623e-07
-1.49141e-07
-8.5992e-07
3.69408e-07
-2.00141e-07
-8.97113e-07
1.79675e-07
-2.49069e-07
-8.62007e-07
4.44697e-08
-2.96098e-07
-7.87477e-07
-1.63528e-08
-3.22938e-07
-6.80046e-07
-5.23579e-08
-3.53168e-07
-5.59693e-07
-5.22206e-08
-3.75655e-07
-4.48712e-07
-3.91589e-08
-3.88313e-07
-3.50512e-07
-2.38352e-08
-3.94745e-07
-2.64823e-07
-7.26764e-09
-3.96749e-07
-1.91372e-07
1.4549e-08
-3.94432e-07
-1.31271e-07
3.89429e-08
-3.88607e-07
-8.5546e-08
6.53099e-08
-3.80789e-07
-5.34338e-08
9.35518e-08
-3.72971e-07
-3.36406e-08
1.22964e-07
-3.65994e-07
-2.38252e-08
1.50846e-07
-3.59871e-07
-2.09102e-08
1.75241e-07
-3.55005e-07
-2.16928e-08
1.97217e-07
-3.51554e-07
-2.39041e-08
2.20233e-07
-3.50026e-07
-2.66017e-08
2.44487e-07
-3.49867e-07
-2.86881e-08
2.65695e-07
-3.50582e-07
-2.94336e-08
2.82955e-07
-3.51519e-07
-2.83712e-08
2.96765e-07
-3.5239e-07
-2.48693e-08
3.08102e-07
-3.52789e-07
-1.72488e-08
3.15525e-07
-3.53311e-07
-5.69782e-09
3.21068e-07
-3.5301e-07
1.25827e-08
3.19462e-07
-3.53376e-07
3.39778e-08
3.16234e-07
-3.50931e-07
6.40499e-08
2.94245e-07
-3.50013e-07
9.44603e-08
2.78001e-07
-3.44983e-07
1.39498e-07
2.34094e-07
-3.45647e-07
1.91819e-07
2.09279e-07
-3.47263e-07
2.63955e-07
1.53313e-07
-3.4955e-07
3.52565e-07
1.39483e-07
-3.65708e-07
4.25113e-07
1.62164e-07
-3.54987e-07
5.37428e-07
2.29226e-07
-3.99641e-07
7.77125e-07
2.33242e-07
-4.32598e-07
1.49584e-06
-2.51229e-08
-6.4483e-07
2.6267e-06
-7.31918e-07
-7.68712e-07
3.49007e-06
-1.35684e-06
-5.53648e-07
2.5863e-06
-8.13455e-07
2.35858e-07
7.75909e-07
1.85774e-07
9.7752e-07
1.38525e-06
3.82466e-07
-5.87532e-08
4.71217e-06
1.31574e-06
-2.14681e-06
7.10494e-06
-6.14496e-06
-1.663e-06
1.00066e-05
-6.99905e-06
-1.63259e-06
9.529e-06
-4.33332e-06
-2.08394e-07
4.0263e-06
1.48157e-05
-2.53059e-06
9.0231e-08
-6.02049e-06
8.24324e-06
9.68432e-07
-2.65697e-05
-2.20675e-06
1.85447e-06
-3.09279e-05
3.95878e-07
-4.29703e-06
-1.71128e-05
4.68178e-06
-2.7241e-06
-2.22455e-05
1.66234e-06
-1.5074e-06
-1.21398e-05
3.77344e-08
7.07847e-06
-1.5482e-05
-4.10643e-06
1.26408e-05
-9.62633e-06
-4.93629e-06
1.84075e-05
-8.07229e-06
-4.40937e-06
2.27538e-05
-5.95242e-06
-2.71159e-06
2.53037e-05
-3.72542e-06
-9.43399e-07
2.64481e-05
-1.25469e-06
6.90872e-08
2.64483e-05
1.37933e-06
7.47818e-07
2.51681e-05
4.08378e-06
1.11675e-06
2.29509e-05
7.01834e-06
1.21259e-06
1.96054e-05
9.80941e-06
1.35487e-06
1.57446e-05
1.14642e-05
1.48229e-06
1.16852e-05
1.29234e-05
1.12758e-06
6.31445e-06
1.48246e-05
1.43607e-06
1.68203e-06
1.42214e-05
1.76269e-06
3.76019e-07
1.01364e-05
2.59617e-07
1.16264e-06
6.44409e-06
-2.17783e-06
2.81523e-06
6.07892e-06
-5.39451e-06
4.89182e-06
7.57843e-06
-7.07959e-06
6.35698e-06
8.14156e-06
-5.46754e-06
6.86432e-06
7.77344e-06
-3.0733e-06
6.52274e-06
6.96589e-06
-1.43878e-06
5.37759e-06
6.34868e-06
-5.38454e-07
4.05165e-06
5.81016e-06
-5.33141e-07
3.13394e-06
4.6831e-06
-8.10599e-07
1.72655e-06
2.11055e-06
2.42618e-07
-1.37018e-06
-2.90679e-06
2.73205e-06
-4.34948e-06
-4.44322e-06
3.29739e-06
-5.52601e-06
-1.26368e-06
1.85918e-06
-5.27495e-06
6.51657e-07
-1.78566e-07
-4.01156e-06
1.92217e-06
-1.50316e-06
-2.31587e-06
3.40953e-06
-1.86964e-06
4.79486e-06
-2.15444e-06
-3.77218e-06
-4.07812e-06
-7.46085e-08
-2.77625e-06
-4.99162e-06
-8.02254e-07
-2.69765e-06
-3.51662e-06
9.68178e-08
-1.89765e-06
-3.7757e-06
-1.82943e-07
-1.25427e-06
-2.35388e-06
4.71175e-08
-5.68461e-07
-1.83249e-06
-1.34045e-08
-3.04518e-07
-4.07551e-07
-1.2212e-07
-2.03297e-07
8.5965e-08
-1.62573e-07
-1.60793e-07
5.66884e-07
-1.88728e-07
-3.51083e-07
9.59148e-07
-1.12886e-07
-5.59032e-07
9.23099e-07
-1.23538e-07
-7.32374e-07
6.9414e-07
-1.51399e-07
-8.04623e-07
4.43146e-07
-1.91233e-07
-7.97638e-07
2.68755e-07
-2.3128e-07
-7.43398e-07
1.85648e-07
-2.56251e-07
-6.55045e-07
1.46878e-07
-2.87597e-07
-5.56674e-07
1.6869e-07
-3.19291e-07
-4.68288e-07
2.16045e-07
-3.43598e-07
-3.87075e-07
2.58633e-07
-3.6369e-07
-3.10628e-07
2.94124e-07
-3.77846e-07
-2.37319e-07
3.28796e-07
-3.87563e-07
-1.71564e-07
3.63736e-07
-3.90553e-07
-1.17275e-07
3.99201e-07
-3.88186e-07
-7.62106e-08
4.34279e-07
-3.81795e-07
-4.83094e-08
4.67829e-07
-3.7277e-07
-3.15905e-08
4.97105e-07
-3.6298e-07
-2.28987e-08
5.20562e-07
-3.54015e-07
-1.93837e-08
5.40242e-07
-3.4654e-07
-1.98209e-08
5.60967e-07
-3.40298e-07
-2.3695e-08
5.83346e-07
-3.34982e-07
-2.91442e-08
6.01635e-07
-3.3049e-07
-3.39913e-08
6.14377e-07
-3.26571e-07
-3.67033e-08
6.22272e-07
-3.22794e-07
-3.66292e-08
6.26789e-07
-3.18757e-07
-3.26256e-08
6.2611e-07
-3.14588e-07
-2.50103e-08
6.22867e-07
-3.09409e-07
-1.19621e-08
6.10823e-07
-3.04409e-07
1.54841e-09
5.99174e-07
-2.96445e-07
2.23938e-08
5.64551e-07
-2.91153e-07
4.13352e-08
5.41106e-07
-2.82042e-07
7.23683e-08
4.83041e-07
-2.79984e-07
1.03721e-07
4.5429e-07
-2.76363e-07
1.40424e-07
3.94441e-07
-2.77839e-07
1.63259e-07
4.05227e-07
-2.88581e-07
1.40396e-07
4.70309e-07
-2.85295e-07
1.75369e-07
5.38898e-07
-3.4465e-07
5.28921e-07
3.34521e-07
-4.54848e-07
1.34394e-06
-1.44147e-07
-6.96002e-07
2.05844e-06
-7.61024e-07
-6.85417e-07
1.98761e-06
-8.90905e-07
-3.95128e-07
1.07468e-06
-2.66311e-07
3.65755e-07
7.74342e-07
-3.07305e-07
7.93396e-07
3.21191e-06
-1.22254e-06
-8.32604e-07
8.03927e-06
-1.4184e-06
-2.09327e-06
1.21562e-05
-7.69441e-06
-2.56751e-06
1.70841e-05
-7.3824e-06
-4.54465e-06
1.94585e-05
2.53594e-08
-6.7332e-06
2.12197e-05
1.74879e-05
-4.43348e-06
4.86274e-06
-8.71241e-06
1.90487e-05
-6.74787e-07
-1.97455e-05
-1.28665e-06
-5.33337e-06
-2.73132e-05
1.04397e-06
-1.38463e-05
-1.48081e-05
6.20824e-06
-1.61118e-05
-2.16875e-05
1.70762e-06
-1.13947e-05
-1.66798e-05
-1.7707e-07
-6.02918e-06
-1.80665e-05
-2.78104e-06
9.38287e-07
-1.4343e-05
-2.25076e-06
6.78062e-06
-1.2617e-05
-1.29763e-06
1.09458e-05
-1.00427e-05
-7.49462e-08
1.35752e-05
-7.02622e-06
6.71374e-07
1.52597e-05
-3.64321e-06
7.04077e-07
1.59896e-05
-1.70745e-09
6.51096e-07
1.59184e-05
3.47797e-06
6.77077e-07
1.46146e-05
7.49961e-06
8.22538e-07
1.20175e-05
1.13212e-05
1.08537e-06
7.59842e-06
1.46343e-05
1.24898e-06
1.63179e-06
1.71135e-05
1.77659e-06
-2.84982e-06
1.71656e-05
2.1406e-06
-3.5235e-06
1.39462e-05
9.489e-07
-2.46692e-06
1.09199e-05
-1.84006e-06
-6.81676e-07
1.04067e-05
-5.74789e-06
1.59634e-06
1.18119e-05
-8.01102e-06
3.5005e-06
1.23096e-05
-6.63535e-06
4.23381e-06
1.1537e-05
-4.12879e-06
4.11002e-06
1.01366e-05
-2.23933e-06
3.40251e-06
8.84138e-06
-1.16797e-06
2.69681e-06
7.85353e-06
-7.99153e-07
2.3907e-06
6.79572e-06
-6.79449e-07
2.0032e-06
5.17079e-06
-1.00191e-07
4.36623e-07
2.28348e-06
1.39366e-06
-3.43292e-06
-2.27613e-06
3.23888e-06
-7.295e-06
-4.64361e-06
4.06247e-06
-8.27308e-06
-3.04614e-06
2.76054e-06
-7.42867e-06
-4.73533e-07
2.80789e-07
-5.54021e-06
1.18516e-06
-1.15145e-06
-3.07668e-06
2.53069e-06
-1.58469e-06
3.80917e-06
-2.09099e-06
-3.9661e-06
-3.55087e-06
-8.9081e-08
-2.94619e-06
-5.07651e-06
-9.35001e-07
-3.1087e-06
-3.45655e-06
1.02452e-07
-2.34677e-06
-4.109e-06
-4.28615e-07
-1.77479e-06
-2.98741e-06
6.15699e-08
-8.80506e-07
-2.61043e-06
-1.16342e-07
-3.88493e-07
-8.19486e-07
-8.00774e-08
-1.16678e-07
-6.15836e-08
-1.24276e-07
7.89726e-08
5.40025e-07
-1.68799e-07
-9.15218e-08
1.18025e-06
-5.06251e-08
-3.26763e-07
1.22411e-06
-6.57787e-08
-5.51279e-07
9.99752e-07
-8.11093e-08
-6.72154e-07
7.04791e-07
-1.4078e-07
-6.83858e-07
4.73462e-07
-1.93014e-07
-6.38057e-07
3.70053e-07
-2.30216e-07
-5.55259e-07
3.33858e-07
-2.6979e-07
-4.68461e-07
3.82466e-07
-3.00583e-07
-4.04599e-07
4.73083e-07
-3.2091e-07
-3.55961e-07
5.49881e-07
-3.39895e-07
-3.1145e-07
6.05204e-07
-3.556e-07
-2.64362e-07
6.48541e-07
-3.66838e-07
-2.1694e-07
6.87085e-07
-3.70778e-07
-1.73793e-07
7.23909e-07
-3.6786e-07
-1.37604e-07
7.58365e-07
-3.60281e-07
-1.12645e-07
7.9275e-07
-3.49883e-07
-9.55725e-08
8.17682e-07
-3.37653e-07
-8.37111e-08
8.33891e-07
-3.25191e-07
-7.45604e-08
8.44333e-07
-3.13244e-07
-6.92115e-08
8.57713e-07
-3.02094e-07
-6.93811e-08
8.75285e-07
-2.91771e-07
-7.37714e-08
8.88933e-07
-2.82905e-07
-7.99947e-08
8.96307e-07
-2.75708e-07
-8.61916e-08
8.98198e-07
-2.69725e-07
-9.05602e-08
8.95558e-07
-2.644e-07
-9.16016e-08
8.8658e-07
-2.59423e-07
-8.96293e-08
8.74975e-07
-2.54081e-07
-8.63569e-08
8.56416e-07
-2.4886e-07
-8.23187e-08
8.36941e-07
-2.41807e-07
-7.91652e-08
7.98003e-07
-2.36601e-07
-7.8503e-08
7.67933e-07
-2.27495e-07
-8.45823e-08
7.1278e-07
-2.23658e-07
-1.00411e-07
6.83954e-07
-2.13844e-07
-1.43802e-07
6.39693e-07
-2.01863e-07
-2.2122e-07
6.66607e-07
-1.83976e-07
-3.57602e-07
7.40172e-07
-1.33488e-07
-3.97344e-07
6.93612e-07
-1.14991e-07
-2.2956e-07
3.25195e-07
-1.58469e-07
-6.58682e-08
-4.69147e-08
-2.60948e-07
-3.63429e-07
-2.99922e-07
-1.63556e-07
-1.21973e-06
-1.10208e-07
7.55763e-08
-1.55812e-06
-2.28483e-07
3.00549e-07
5.9522e-09
-1.80822e-06
-6.32018e-08
3.6422e-06
-3.23457e-06
-1.62426e-06
7.56834e-06
-2.36862e-06
-2.976e-06
8.29375e-06
-3.34236e-06
-5.07754e-06
7.98857e-06
4.2941e-07
-7.50673e-06
1.3445e-05
7.29677e-06
-1.27279e-05
2.3736e-05
1.59611e-05
-8.76431e-06
4.71493e-06
-1.13638e-05
2.16724e-05
-1.71318e-06
-1.20383e-05
-1.27889e-06
-1.15888e-05
-1.92101e-05
1.77306e-06
-2.06861e-05
-1.19689e-05
6.25897e-06
-2.66121e-05
-1.82326e-05
2.47148e-06
-2.55864e-05
-1.83546e-05
6.49421e-07
-2.32861e-05
-1.89168e-05
-1.44973e-06
-1.74625e-05
-1.87929e-05
-1.37362e-06
-1.19171e-05
-1.67218e-05
-1.44055e-06
-7.26026e-06
-1.36308e-05
-1.06871e-06
-3.65878e-06
-9.89749e-06
-7.30191e-07
-1.19503e-06
-5.65013e-06
-4.56821e-07
4.62725e-08
-1.14859e-06
-9.44123e-08
-3.44676e-07
3.59929e-06
2.69634e-07
-1.9393e-06
8.15839e-06
9.35843e-07
-4.33424e-06
1.18947e-05
1.82146e-06
-7.11564e-06
1.49387e-05
2.47697e-06
-8.59704e-06
1.63078e-05
2.28712e-06
-7.9695e-06
1.62074e-05
3.30655e-07
-6.54018e-06
1.55031e-05
-2.98626e-06
-4.96848e-06
1.59394e-05
-6.59122e-06
-3.37987e-06
1.7341e-05
-8.52286e-06
-1.70048e-06
1.7668e-05
-7.53543e-06
-5.11337e-07
1.60979e-05
-4.97744e-06
5.0132e-08
1.38482e-05
-2.87262e-06
3.35508e-08
1.15737e-05
-1.42059e-06
-5.45369e-08
9.58993e-06
-6.60451e-07
2.34981e-07
7.80375e-06
-2.39735e-07
9.20392e-07
5.99657e-06
1.13742e-07
1.15089e-06
4.26814e-06
6.72153e-07
-1.19753e-07
2.01238e-06
1.54174e-06
-3.85801e-06
-1.31274e-06
2.77487e-06
-8.16719e-06
-4.22882e-06
3.8944e-06
-1.02055e-05
-4.61801e-06
3.61014e-06
-8.54946e-06
-2.48076e-06
3.51228e-07
-6.14268e-06
-2.62788e-07
-9.58833e-07
-3.42682e-06
1.23119e-06
-1.41635e-06
2.57571e-06
-2.19337e-06
-4.1996e-06
-2.61335e-06
5.25083e-08
-3.14433e-06
-4.94508e-06
-1.18669e-06
-3.39001e-06
-3.15527e-06
-5.55801e-08
-2.53854e-06
-4.12058e-06
-8.39868e-07
-2.05849e-06
-3.28865e-06
-1.78806e-07
-1.13392e-06
-3.07877e-06
-4.56232e-07
-5.82616e-07
-1.18373e-06
-1.87064e-07
-2.12035e-07
-2.71839e-07
-1.60333e-07
1.17426e-07
4.4228e-07
-2.31731e-07
6.08271e-08
1.26941e-06
-3.25687e-08
-1.4567e-07
1.47418e-06
-4.35857e-08
-3.93041e-07
1.27336e-06
-2.62462e-08
-5.0622e-07
9.12592e-07
-9.46367e-08
-5.12645e-07
6.38915e-07
-1.59039e-07
-4.79061e-07
5.52376e-07
-2.15919e-07
-4.2378e-07
5.44034e-07
-2.65467e-07
-3.64593e-07
6.21227e-07
-2.97959e-07
-3.27318e-07
7.44017e-07
-3.08219e-07
-3.1032e-07
8.4851e-07
-3.15636e-07
-3.01626e-07
9.19439e-07
-3.22936e-07
-2.93539e-07
9.68985e-07
-3.2854e-07
-2.83023e-07
1.00652e-06
-3.2996e-07
-2.70549e-07
1.03731e-06
-3.25878e-07
-2.58274e-07
1.06347e-06
-3.17381e-07
-2.51373e-07
1.08889e-06
-3.03048e-07
-2.45111e-07
1.10152e-06
-2.90098e-07
-2.36855e-07
1.10422e-06
-2.78584e-07
-2.25572e-07
1.10171e-06
-2.68662e-07
-2.16421e-07
1.10705e-06
-2.58491e-07
-2.1322e-07
1.12074e-06
-2.48652e-07
-2.1483e-07
1.13055e-06
-2.40012e-07
-2.19487e-07
1.13387e-06
-2.32904e-07
-2.26334e-07
1.1317e-06
-2.26657e-07
-2.33852e-07
1.12426e-06
-2.21181e-07
-2.40808e-07
1.10959e-06
-2.16059e-07
-2.48291e-07
1.09284e-06
-2.10379e-07
-2.6265e-07
1.07436e-06
-2.03588e-07
-2.79769e-07
1.05045e-06
-1.96389e-07
-3.09434e-07
1.01575e-06
-1.88084e-07
-3.42392e-07
9.79289e-07
-1.78396e-07
-3.98112e-07
9.36084e-07
-1.67593e-07
-4.63577e-07
9.01885e-07
-1.52471e-07
-5.72465e-07
8.74822e-07
-1.26258e-07
-6.91353e-07
8.78286e-07
-9.27989e-08
-8.40682e-07
9.15154e-07
-2.56749e-08
-9.40377e-07
7.56939e-07
3.63553e-08
-1.09544e-06
4.05098e-07
7.51349e-08
-1.46226e-06
2.36041e-07
8.38461e-08
-2.19965e-06
2.9058e-07
1.46859e-07
-2.77118e-06
3.4892e-07
1.12379e-07
-2.42636e-06
-3.32276e-07
-2.41062e-07
-4.15106e-07
-2.80908e-06
-1.01043e-06
3.32784e-06
-4.99127e-06
-1.9863e-06
8.13716e-06
-3.92543e-06
-3.25257e-06
9.80007e-06
1.85948e-06
-6.86483e-06
1.20182e-05
9.64336e-06
-1.14321e-05
2.13826e-05
1.40108e-05
-1.60786e-05
3.36921e-05
1.38905e-05
-1.02391e-05
5.17971e-06
-6.44151e-06
2.35899e-05
-1.71633e-06
-4.37819e-06
-7.63244e-07
-1.99897e-05
-3.46262e-06
2.52675e-06
-3.02104e-05
-8.08338e-06
6.33624e-06
-3.82625e-05
-1.264e-05
2.46053e-06
-4.11687e-05
-1.60531e-05
6.05842e-07
-4.05541e-05
-1.8953e-05
-5.77314e-07
-3.8479e-05
-2.00095e-05
-8.57207e-07
-3.45283e-05
-1.96293e-05
-1.04229e-06
-2.94551e-05
-1.75622e-05
-1.14108e-06
-2.43069e-05
-1.40986e-05
-9.46597e-07
-1.94332e-05
-9.87561e-06
-6.47927e-07
-1.60127e-05
-4.4715e-06
-9.73559e-08
-1.4245e-05
1.2665e-06
5.65305e-07
-1.36757e-05
6.60896e-06
9.80397e-07
-1.39824e-05
1.11572e-05
1.0444e-06
-1.42031e-05
1.49052e-05
2.54632e-07
-1.38437e-05
1.74595e-05
-1.51077e-06
-1.36825e-05
2.0318e-05
-4.27138e-06
-1.30697e-05
2.18702e-05
-6.97959e-06
-1.2284e-05
2.32385e-05
-8.08445e-06
-1.11051e-05
2.32037e-05
-7.04128e-06
-9.4998e-06
2.07354e-05
-4.6726e-06
-8.55996e-06
1.75549e-05
-2.39679e-06
-8.21893e-06
1.42399e-05
-7.3268e-07
-7.74848e-06
1.09358e-05
1.67527e-07
-6.493e-06
7.63622e-06
6.98227e-07
-4.50452e-06
4.79396e-06
1.02131e-06
-2.41949e-06
2.68267e-06
1.22887e-06
-8.50083e-07
1.35542e-06
1.34332e-06
-5.62737e-07
1.22716e-07
1.60233e-06
-2.54321e-06
-1.50752e-06
2.17527e-06
-6.38116e-06
-3.38124e-06
2.99038e-06
-9.6052e-06
-4.03472e-06
2.64077e-06
-9.57058e-06
-3.5643e-06
1.04893e-06
-7.32173e-06
-2.31589e-06
-1.95742e-07
-4.0303e-06
-1.01219e-06
-1.04805e-06
5.00019e-07
-1.9546e-06
-4.1657e-06
-1.24189e-06
5.82802e-07
-3.28985e-06
-4.72507e-06
-1.09584e-06
-3.63611e-06
-2.76789e-06
-4.11051e-08
-2.73267e-06
-4.08367e-06
-9.40337e-07
-2.19495e-06
-3.51173e-06
-3.14617e-07
-1.21609e-06
-3.4343e-06
-6.23344e-07
-5.72982e-07
-1.62096e-06
-2.05885e-07
-2.52048e-07
-5.15521e-07
-7.7267e-08
-3.81419e-08
4.71171e-07
-2.42809e-07
3.91656e-08
1.21094e-06
-1.88581e-08
3.15042e-08
1.53695e-06
-5.51206e-08
-6.66215e-08
1.39511e-06
-2.36382e-08
-9.01676e-08
1.11104e-06
-1.74913e-07
-8.78509e-08
9.00147e-07
-2.63563e-07
-1.02339e-07
8.95391e-07
-3.28539e-07
-1.4657e-07
9.62782e-07
-3.74529e-07
-2.01931e-07
1.08825e-06
-4.11672e-07
-2.52821e-07
1.22798e-06
-4.33087e-07
-3.02548e-07
1.3487e-06
-4.50473e-07
-3.52902e-07
1.4355e-06
-4.65715e-07
-3.92682e-07
1.48413e-06
-4.75374e-07
-4.16222e-07
1.51125e-06
-4.81195e-07
-4.28224e-07
1.53206e-06
-4.82754e-07
-4.32099e-07
1.54864e-06
-4.81309e-07
-4.27586e-07
1.56227e-06
-4.77889e-07
-4.19877e-07
1.56764e-06
-4.73832e-07
-4.08331e-07
1.56368e-06
-4.71015e-07
-3.91629e-07
1.5543e-06
-4.69295e-07
-3.76339e-07
1.55733e-06
-4.65567e-07
-3.704e-07
1.57551e-06
-4.60717e-07
-3.72235e-07
1.58953e-06
-4.57132e-07
-3.79254e-07
1.59619e-06
-4.55296e-07
-3.9034e-07
1.59721e-06
-4.54416e-07
-4.04514e-07
1.59271e-06
-4.54275e-07
-4.20715e-07
1.58047e-06
-4.54669e-07
-4.3974e-07
1.56641e-06
-4.54542e-07
-4.69032e-07
1.55576e-06
-4.52108e-07
-5.07029e-07
1.53888e-06
-4.50434e-07
-5.64979e-07
1.5203e-06
-4.46603e-07
-6.30898e-07
1.48907e-06
-4.43869e-07
-7.31791e-07
1.4698e-06
-4.32833e-07
-8.48771e-07
1.43505e-06
-4.16208e-07
-1.01636e-06
1.42752e-06
-3.8512e-07
-1.17634e-06
1.38441e-06
-3.46163e-07
-1.31928e-06
1.34401e-06
-2.85933e-07
-1.43765e-06
1.12263e-06
-2.47353e-07
-1.56146e-06
7.61777e-07
-2.32889e-07
-1.85199e-06
6.73114e-07
-1.46577e-07
-2.4148e-06
9.22934e-07
-6.95737e-08
-2.66952e-06
6.01699e-07
1.89856e-09
-2.35737e-06
-1.66545e-07
-4.7792e-07
-1.73628e-07
-3.71889e-06
-1.27398e-06
3.3323e-06
-6.15852e-06
-2.33874e-06
7.01375e-06
-6.64468e-07
-6.94249e-06
8.74325e-06
1.25252e-05
-1.23953e-05
1.41673e-05
1.87797e-05
-1.45605e-05
2.50216e-05
1.83567e-05
-1.52003e-05
3.85886e-05
7.3676e-06
-7.04428e-06
5.13677e-06
-2.72827e-06
2.97384e-05
-4.18163e-06
6.225e-06
-1.28443e-06
-2.20916e-05
1.20437e-05
2.40533e-06
-3.5911e-05
-2.49472e-06
8.23333e-06
-4.66936e-05
-4.77361e-06
2.91851e-06
-5.08151e-05
-1.19089e-05
-2.00702e-08
-5.31784e-05
-1.51588e-05
-1.42814e-06
-5.4859e-05
-1.61972e-05
-2.12892e-06
-5.55386e-05
-1.60721e-05
-2.87479e-06
-5.44767e-05
-1.54825e-05
-3.13925e-06
-5.29348e-05
-1.26083e-05
-3.03062e-06
-5.11958e-05
-9.05124e-06
-2.56216e-06
-4.98676e-05
-3.89243e-06
-1.90578e-06
-4.81228e-05
1.19301e-06
-1.66943e-06
-4.66157e-05
6.75273e-06
-1.64883e-06
-4.51725e-05
1.19291e-05
-2.21331e-06
-4.37279e-05
1.67491e-05
-3.28676e-06
-4.24751e-05
2.07843e-05
-4.57584e-06
-3.94122e-05
2.31628e-05
-5.90612e-06
-3.67632e-05
2.49387e-05
-5.71639e-06
-3.26013e-05
2.39383e-05
-4.86109e-06
-2.89662e-05
2.2277e-05
-2.70826e-06
-2.68256e-05
1.90897e-05
-4.94968e-07
-2.53476e-05
1.54121e-05
6.64891e-07
-2.29161e-05
1.09619e-05
8.46441e-07
-1.91572e-05
6.12887e-06
1.04802e-06
-1.4198e-05
1.7694e-06
9.07604e-07
-8.73835e-06
-1.42358e-06
7.5792e-07
-3.65899e-06
-3.60426e-06
1.20757e-06
3.28699e-07
-4.35834e-06
1.72608e-06
2.71784e-06
-4.42002e-06
2.15359e-06
2.47892e-06
-4.26508e-06
2.99649e-06
-2.20258e-07
-3.85547e-06
3.17341e-06
-3.74297e-06
-3.96293e-06
3.45093e-06
-5.59092e-06
-4.42639e-06
2.71003e-06
-4.95447e-06
-5.32827e-06
2.37594e-06
-2.44589e-06
-6.63878e-06
3.11801e-06
-6.89609e-06
4.95022e-06
-3.66399e-06
6.32977e-07
1.95232e-06
-3.23745e-06
-4.43749e-06
-7.14115e-07
-3.75285e-06
-2.41723e-06
1.6476e-07
-2.91589e-06
-4.03386e-06
-8.86761e-07
-2.23033e-06
-3.73298e-06
-4.64308e-07
-1.19068e-06
-3.67346e-06
-8.00491e-07
-4.37036e-07
-2.08554e-06
-2.89069e-07
-1.84969e-07
-9.41448e-07
1.73848e-07
-1.97401e-07
3.87163e-07
9.64243e-08
-7.05225e-08
8.71855e-07
2.12196e-07
1.46291e-07
1.23234e-06
8.77805e-08
2.59413e-07
1.06647e-06
2.15503e-07
2.83558e-07
9.52664e-07
1.34213e-07
2.24713e-07
8.04929e-07
1.54049e-07
1.34454e-07