/*--------------------------------*- C++ -*----------------------------------*\
| =========                 |                                                 |
| \\      /  F ield         | OpenFOAM: The Open Source CFD Toolbox           |
|  \\    /   O peration     | Version:  2.3.0                                 |
|   \\  /    A nd           | Web:      www.OpenFOAM.org                      |
|    \\/     M anipulation  |                                                 |
\*---------------------------------------------------------------------------*/
FoamFile
{
    version     2.0;
    format      ascii;
    class       surfaceScalarField;
    location    "44";
    object      phi.air;
}
// * * * * * * * * * * * * * * * * * * * * * * * * * * * * * * * * * * * * * //

dimensions      [0 3 -1 0 0 0 0];

internalField   nonuniform List<scalar> 
16448
(
-1.24771e-06
-2.53319e-06
5.08635e-07
5.99459e-07
-2.57877e-06
7.31599e-07
5.79251e-07
-1.09113e-06
1.11134e-06
5.05159e-07
-9.7202e-07
1.04612e-06
1.676e-07
-5.5837e-07
8.95933e-07
3.74467e-08
-6.75471e-07
8.05631e-07
-1.65082e-08
-6.38581e-07
6.92543e-07
-6.29103e-08
-5.6355e-07
6.0996e-07
-1.71228e-07
-4.20767e-07
5.29093e-07
-3.52263e-07
-2.94442e-07
4.75486e-07
-5.37614e-07
-2.31827e-07
4.17189e-07
-6.17893e-07
-2.54223e-07
3.34513e-07
-5.98382e-07
-2.98015e-07
2.78516e-07
-4.90617e-07
-3.42336e-07
2.34583e-07
-3.66461e-07
-3.61499e-07
2.37357e-07
-2.30098e-07
-3.86957e-07
2.50609e-07
-1.12037e-07
-4.0172e-07
2.83675e-07
-1.372e-08
-4.16873e-07
3.18572e-07
5.71653e-08
-4.28893e-07
3.58024e-07
9.99477e-08
-4.36629e-07
3.93864e-07
1.14427e-07
-4.39632e-07
4.25171e-07
1.09119e-07
-4.43599e-07
4.48927e-07
9.24678e-08
-4.43165e-07
4.59836e-07
7.03336e-08
-4.37823e-07
4.59978e-07
4.64957e-08
-4.27571e-07
4.51431e-07
2.43752e-08
-4.14249e-07
4.36392e-07
7.38599e-09
-4.01504e-07
4.18517e-07
-3.3017e-09
-3.89778e-07
4.00491e-07
-1.02571e-08
-3.76896e-07
3.83877e-07
-1.79483e-08
-3.62109e-07
3.69827e-07
-2.86249e-08
-3.46129e-07
3.56833e-07
-4.22632e-08
-3.29333e-07
3.43001e-07
-5.77643e-08
-3.11595e-07
3.27126e-07
-7.31858e-08
-2.92882e-07
3.08335e-07
-8.56202e-08
-2.73516e-07
2.85982e-07
-9.22834e-08
-2.54062e-07
2.60758e-07
-9.43035e-08
-2.3374e-07
2.35793e-07
-1.04594e-07
-2.09087e-07
2.19413e-07
-1.49321e-07
-1.73784e-07
2.18546e-07
-2.66194e-07
-1.20167e-07
2.37077e-07
-5.18727e-07
-2.84949e-08
2.81064e-07
-9.71715e-07
9.76962e-08
3.55331e-07
-1.61269e-06
2.31528e-07
4.09491e-07
-2.36424e-06
3.10139e-07
4.41451e-07
-3.21637e-06
3.28509e-07
5.2366e-07
-4.1636e-06
1.88825e-07
7.58449e-07
-5.17798e-06
1.81792e-08
9.96242e-07
-6.79995e-06
2.83583e-07
1.33844e-06
-8.79935e-06
5.37542e-07
1.46189e-06
-9.6699e-06
-1.06635e-06
1.93694e-06
-7.80932e-06
-4.55827e-06
2.69773e-06
-4.50324e-06
-5.30607e-06
2.00002e-06
-1.07127e-06
-3.70062e-06
2.68681e-07
4.14083e-07
-7.25715e-07
-7.5962e-07
2.07599e-06
1.15781e-06
-2.81972e-06
3.10544e-06
1.66751e-06
-2.69695e-06
3.8917e-06
1.98658e-06
-2.77288e-06
8.09781e-06
3.83217e-06
-8.03826e-06
-9.94964e-06
1.06294e-05
7.003e-06
-3.43483e-05
-2.41386e-06
-6.16461e-06
-6.87017e-05
-1.99771e-05
6.70862e-06
-1.67134e-05
-8.96976e-06
1.24735e-05
3.22443e-05
-1.03888e-05
9.054e-06
3.51843e-05
-9.25486e-06
6.7873e-06
3.63392e-05
-6.72607e-06
5.33302e-06
3.58906e-05
-4.43042e-06
4.76219e-06
3.44459e-05
-2.71151e-06
4.16141e-06
3.24517e-05
-1.82814e-06
3.79941e-06
3.08976e-05
-2.56004e-06
3.98768e-06
3.02689e-05
-2.85347e-06
3.41992e-06
2.9429e-05
-1.71265e-06
2.61277e-06
2.7105e-05
6.96884e-07
1.67331e-06
2.3654e-05
2.15066e-06
1.25196e-06
1.67631e-05
5.1632e-06
1.59413e-06
7.01868e-06
6.51565e-06
3.17824e-06
8.98903e-07
3.32537e-06
2.80749e-06
-1.9801e-06
6.85534e-07
2.18423e-06
-4.02978e-06
-4.80026e-07
2.49913e-06
-5.86559e-06
-7.90417e-07
2.62197e-06
-7.51044e-06
-3.66433e-07
2.03602e-06
-8.01358e-06
5.54852e-07
-3.54788e-08
-6.84721e-06
1.07708e-06
-2.25413e-06
-5.25311e-06
1.03085e-06
-2.66758e-06
-4.07639e-06
5.59731e-07
-1.73711e-06
-3.98749e-06
3.06363e-07
-3.50876e-07
-5.79175e-06
6.40424e-07
1.15573e-06
-8.82788e-06
5.65514e-07
2.47897e-06
-1.17085e-05
4.23036e-07
2.62111e-06
-1.14234e-05
7.84803e-07
-9.89712e-07
-8.30223e-06
6.71414e-07
-3.83006e-06
-4.89886e-06
-1.15381e-07
-3.33336e-06
-1.73122e-06
-1.82547e-06
-1.36925e-06
6.25469e-07
-2.44009e-06
7.34837e-08
1.15382e-06
-1.67694e-06
1.16311e-06
2.88329e-07
-1.01278e-06
1.99001e-06
-1.32015e-06
2.3319e-06
-1.86433e-06
-3.62785e-06
-2.66253e-07
-3.41332e-07
-3.91252e-06
-1.89246e-07
1.83737e-08
-2.05508e-06
6.04254e-07
3.46223e-07
-1.72044e-06
4.20581e-07
3.1939e-07
-8.05291e-07
2.73764e-07
1.41549e-07
-7.35313e-07
2.37692e-07
-3.74817e-08
-5.80113e-07
1.20574e-07
-1.72511e-07
-5.03164e-07
7.4655e-08
-3.44934e-07
-3.14438e-07
6.61086e-08
-5.47623e-07
-1.79779e-07
8.80397e-08
-7.19896e-07
-1.19779e-07
6.02409e-08
-7.78388e-07
-1.86645e-07
-9.06844e-09
-7.55395e-07
-2.55713e-07
-6.52764e-08
-6.51678e-07
-3.35019e-07
-1.11014e-07
-5.22329e-07
-3.69763e-07
-1.21062e-07
-3.75658e-07
-4.12052e-07
-1.21552e-07
-2.41496e-07
-4.33677e-07
-1.0218e-07
-1.25132e-07
-4.53952e-07
-7.92581e-08
-3.54667e-08
-4.67033e-07
-5.14963e-08
2.752e-08
-4.73594e-07
-2.59919e-08
6.15771e-08
-4.72037e-07
-1.62055e-09
7.35732e-08
-4.66489e-07
1.09266e-08
7.11843e-08
-4.5679e-07
1.60492e-08
6.0022e-08
-4.42246e-07
1.56216e-08
4.40598e-08
-4.22624e-07
1.1053e-08
2.63147e-08
-4.00329e-07
3.86497e-09
1.09326e-08
-3.78374e-07
-7.70712e-09
-5.02411e-10
-3.5721e-07
-2.10906e-08
-9.41023e-09
-3.34452e-07
-3.34912e-08
-1.82668e-08
-3.08559e-07
-4.46469e-08
-2.78135e-08
-2.81008e-07
-5.55268e-08
-3.7893e-08
-2.52275e-07
-6.69295e-08
-4.77936e-08
-2.22541e-07
-7.9103e-08
-5.68378e-08
-1.91326e-07
-9.24599e-08
-6.34515e-08
-1.59298e-07
-1.0755e-07
-6.59574e-08
-1.2759e-07
-1.2391e-07
-6.65529e-08
-9.49937e-08
-1.38093e-07
-7.71329e-08
-5.23956e-08
-1.46053e-07
-1.21256e-07
1.32857e-08
-1.42886e-07
-2.33582e-07
1.1787e-07
-1.25649e-07
-4.59003e-07
2.89996e-07
-9.30064e-08
-8.31354e-07
5.30791e-07
-6.06793e-08
-1.33879e-06
8.06419e-07
-6.73868e-08
-2.00248e-06
1.04301e-06
-6.91117e-08
-3.0162e-06
1.26753e-06
7.47651e-08
-4.29647e-06
1.16165e-06
3.07515e-07
-5.26418e-06
5.84724e-07
4.0124e-07
-5.84452e-06
1.10354e-07
7.53632e-07
-5.75491e-06
-3.30299e-07
7.783e-07
-4.06847e-06
-3.27009e-06
5.17355e-07
-9.82751e-07
-9.06505e-06
1.42111e-06
9.93487e-07
-1.06363e-05
3.35401e-06
3.84508e-06
-9.81739e-06
3.2652e-06
5.02526e-06
-4.66423e-06
2.75837e-06
5.05847e-06
1.28761e-06
-1.62977e-07
6.35058e-06
1.90848e-06
-1.53305e-06
6.64079e-06
4.72512e-06
-3.02878e-06
1.00845e-05
4.55354e-06
-4.16509e-06
-7.67569e-06
1.34992e-05
1.46488e-05
-3.19968e-05
-4.58377e-06
-4.90475e-06
-7.10378e-05
-2.96199e-05
-5.21764e-07
-2.20069e-05
-1.47562e-05
1.02102e-05
2.12777e-05
-1.60674e-05
6.96652e-06
2.26871e-05
-1.25797e-05
1.99495e-06
2.15055e-05
-6.5707e-06
1.16322e-06
1.94834e-05
-3.30425e-06
1.0052e-06
1.69841e-05
-1.21347e-06
1.02719e-06
1.40785e-05
-8.63558e-08
1.16885e-06
1.22133e-05
-2.14437e-06
1.43825e-06
1.27416e-05
-4.46619e-06
1.12625e-06
1.38076e-05
-2.31883e-06
-3.18729e-07
1.3352e-05
3.30027e-06
-1.99021e-06
1.13371e-05
6.30362e-06
-2.07963e-06
6.10135e-06
9.58837e-06
7.38001e-07
1.05184e-06
7.72288e-06
3.76737e-06
-1.28188e-06
2.45615e-06
3.21825e-06
-2.71123e-06
-3.41089e-07
2.39244e-06
-4.27077e-06
-1.73534e-06
2.74052e-06
-6.49782e-06
-1.98797e-06
3.40322e-06
-8.71826e-06
-1.51643e-06
3.43374e-06
-9.81242e-06
-4.32762e-08
1.77027e-06
-9.02179e-06
1.1278e-06
-8.08524e-07
-7.51966e-06
1.52863e-06
-1.97157e-06
-6.70607e-06
1.01271e-06
-1.20583e-06
-7.15574e-06
7.39888e-07
1.15797e-07
-9.0932e-06
7.74005e-07
1.76656e-06
-1.2144e-05
-1.62541e-07
3.75268e-06
-1.475e-05
-6.44154e-07
3.7846e-06
-1.3575e-05
-4.63119e-07
1.2704e-07
-8.87122e-06
-3.43506e-07
-3.78497e-06
-4.33235e-06
-1.19285e-06
-3.54083e-06
-1.26088e-06
-2.32291e-06
-2.58998e-06
8.80025e-07
-3.00738e-06
-1.55975e-06
2.2261e-06
-1.92155e-06
-1.06517e-06
1.72224e-06
-5.01244e-07
1.44572e-07
-7.33338e-07
2.01382e-06
-2.33548e-06
-3.92126e-06
-5.11003e-07
-1.12328e-06
-4.41714e-06
-7.07562e-07
-6.47869e-07
-2.64202e-06
1.11529e-07
-1.35117e-07
-2.21063e-06
-2.25572e-08
5.92518e-08
-9.1127e-07
-8.83816e-08
-4.88618e-08
-5.70101e-07
-5.70891e-08
-1.9766e-07
-2.76166e-07
-1.55139e-07
-3.2871e-07
-2.06853e-07
-1.6525e-07
-4.42701e-07
-3.06698e-08
-1.69765e-07
-5.33637e-07
5.88923e-08
-1.47721e-07
-6.26785e-07
1.15888e-07
-1.42504e-07
-6.65577e-07
3.96372e-08
-1.87473e-07
-6.74279e-07
-1.68496e-08
-2.30143e-07
-6.35793e-07
-1.03008e-07
-2.70477e-07
-5.70777e-07
-1.46926e-07
-2.87831e-07
-4.80541e-07
-1.98446e-07
-3.0382e-07
-3.84031e-07
-2.24623e-07
-3.05539e-07
-2.91115e-07
-2.45433e-07
-3.01409e-07
-2.11575e-07
-2.5501e-07
-2.91536e-07
-1.44851e-07
-2.58717e-07
-2.81572e-07
-9.16727e-08
-2.5235e-07
-2.72835e-07
-5.39509e-08
-2.37809e-07
-2.6637e-07
-3.0087e-08
-2.18807e-07
-2.61814e-07
-1.72238e-08
-1.95924e-07
-2.59151e-07
-1.21722e-08
-1.69888e-07
-2.57752e-07
-1.22944e-08
-1.4263e-07
-2.57539e-07
-1.62124e-08
-1.15813e-07
-2.58604e-07
-2.30005e-08
-8.93921e-08
-2.60989e-07
-3.08413e-08
-6.19004e-08
-2.64669e-07
-3.84798e-08
-3.16363e-08
-2.69241e-07
-4.36956e-08
-1.37847e-09
-2.74369e-07
-4.88646e-08
3.30675e-08
-2.80127e-07
-5.36754e-08
6.78973e-08
-2.85579e-07
-5.94124e-08
1.0464e-07
-2.90179e-07
-6.83973e-08
1.43594e-07
-2.93856e-07
-8.42532e-08
1.84545e-07
-2.96226e-07
-1.12156e-07
2.30225e-07
-2.97262e-07
-1.6136e-07
2.92647e-07
-2.95783e-07
-2.4619e-07
3.89988e-07
-2.91815e-07
-3.78019e-07
5.38837e-07
-2.89079e-07
-5.57496e-07
7.6401e-07
-2.94477e-07
-7.65835e-07
1.06136e-06
-3.22163e-07
-9.9404e-07
1.40441e-06
-3.69721e-07
-1.36623e-06
1.77328e-06
-3.58015e-07
-1.89082e-06
2.01733e-06
-2.25146e-07
-2.17997e-06
1.64039e-06
-1.89536e-07
-1.54337e-06
3.4612e-07
-3.97937e-07
-5.0809e-07
-6.50649e-07
-2.74212e-07
1.07852e-06
-1.78552e-06
-1.31336e-07
4.38647e-06
-5.06471e-06
-1.51328e-06
7.65212e-06
-1.07343e-05
-1.59637e-06
8.38043e-06
-1.34385e-05
2.07396e-06
7.58708e-06
-1.28873e-05
3.86325e-06
6.28511e-06
-8.15266e-06
4.79044e-06
6.76037e-06
-2.16946e-07
1.02931e-06
9.66673e-06
3.07423e-07
-1.30524e-06
1.06182e-05
6.88422e-06
-3.11058e-06
1.55145e-05
8.04938e-06
-8.39204e-06
-1.17235e-05
2.14264e-05
1.91093e-05
-3.30708e-05
-1.3912e-05
-2.24622e-06
-7.46992e-05
-3.59692e-05
-7.2076e-06
-2.6064e-05
-1.50073e-05
4.09441e-06
1.73098e-05
-1.14291e-05
3.59051e-06
1.65441e-05
-6.09635e-06
-1.71086e-06
1.4693e-05
-6.56925e-07
-1.32784e-06
1.31666e-05
1.20531e-06
-1.20827e-06
1.17124e-05
2.45061e-06
-1.10679e-06
1.03318e-05
2.40784e-06
-5.25579e-07
7.0182e-06
6.75825e-07
1.17816e-06
2.89689e-06
-6.70148e-07
1.40803e-06
-8.72318e-08
1.27931e-07
1.07895e-06
-2.89453e-06
3.84433e-06
1.17056e-06
-4.60692e-06
5.28807e-06
1.03561e-06
-4.87391e-06
5.48627e-06
2.57849e-06
-4.56813e-06
2.92258e-06
3.16887e-06
-5.32649e-06
5.08563e-07
2.34297e-06
-6.88071e-06
-1.16053e-06
2.28973e-06
-9.13764e-06
-1.90811e-06
2.67733e-06
-1.20564e-05
-1.92103e-06
3.29604e-06
-1.35898e-05
-1.03335e-06
1.5109e-06
-1.3707e-05
1.55582e-08
3.41427e-07
-1.33951e-05
1.00347e-06
-1.07531e-07
-1.32396e-05
1.29143e-06
-6.37234e-08
-1.35724e-05
9.26231e-07
5.0453e-07
-1.3657e-05
-1.03933e-07
9.53187e-07
-1.44112e-05
-1.03501e-06
2.54303e-06
-1.5922e-05
-2.42961e-06
3.78638e-06
-1.6852e-05
-3.0628e-06
3.47534e-06
-1.48387e-05
-2.5925e-06
1.41917e-07
-9.74123e-06
-2.29799e-06
-3.21592e-06
-5.33798e-06
-2.31037e-06
-3.28013e-06
-2.64816e-06
-1.63625e-06
-3.38882e-06
-1.15555e-07
-2.53868e-06
-3.00046e-06
1.61904e-06
-1.64615e-06
-1.93448e-06
1.30577e-06
3.58768e-07
-3.84162e-07
4.35627e-08
1.50319e-06
-2.71999e-06
-3.95929e-06
-2.45937e-07
-1.5842e-06
-4.69108e-06
-8.61845e-07
-1.17206e-06
-3.08837e-06
3.42183e-08
-6.09154e-07
-2.7789e-06
5.36525e-09
-2.99733e-07
-1.20071e-06
-1.99725e-08
-2.29054e-07
-5.805e-07
-6.02715e-08
-2.50218e-07
-6.37445e-08
-1.91248e-07
-3.09911e-07
4.37647e-08
-1.90914e-07
-3.56636e-07
2.20696e-07
-2.04629e-07
-4.01216e-07
3.02465e-07
-1.98978e-07
-4.56611e-07
3.88958e-07
-2.1766e-07
-5.1469e-07
3.45887e-07
-2.48153e-07
-5.71915e-07
3.16083e-07
-2.7569e-07
-5.845e-07
2.19069e-07
-3.09472e-07
-5.66492e-07
1.62397e-07
-3.2731e-07
-5.17888e-07
1.03307e-07
-3.50334e-07
-4.47922e-07
7.309e-08
-3.67654e-07
-3.71849e-07
5.99543e-08
-3.81433e-07
-3.00349e-07
6.12785e-08
-3.87761e-07
-2.34965e-07
6.68157e-08
-3.90888e-07
-1.77381e-07
8.02674e-08
-3.9017e-07
-1.27617e-07
9.94336e-08
-3.86975e-07
-8.81986e-08
1.22906e-07
-3.81098e-07
-6.02677e-08
1.5039e-07
-3.7421e-07
-4.36322e-08
1.81082e-07
-3.67568e-07
-3.62714e-08
2.11715e-07
-3.61669e-07
-3.52573e-08
2.40311e-07
-3.57099e-07
-3.76503e-08
2.67344e-07
-3.54303e-07
-4.13727e-08
2.95442e-07
-3.53577e-07
-4.56352e-08
3.2698e-07
-3.5431e-07
-5.11133e-08
3.60083e-07
-3.55938e-07
-5.52911e-08
3.94559e-07
-3.57267e-07
-5.90197e-08
4.29799e-07
-3.58124e-07
-6.32293e-08
4.66818e-07
-3.57919e-07
-7.21212e-08
5.07926e-07
-3.55389e-07
-9.28926e-08
5.55207e-07
-3.4984e-07
-1.32945e-07
6.12119e-07
-3.41787e-07
-1.95371e-07
6.89844e-07
-3.34717e-07
-2.78872e-07
8.05871e-07
-3.32325e-07
-3.79713e-07
9.78003e-07
-3.38269e-07
-4.77459e-07
1.22204e-06
-3.60222e-07
-5.40748e-07
1.52983e-06
-4.05127e-07
-6.02833e-07
1.90552e-06
-4.38963e-07
-7.47235e-07
2.28892e-06
-3.71176e-07
-7.94845e-07
2.34305e-06
-2.78047e-07
-1.28016e-07
1.42656e-06
-4.52936e-07
1.40593e-06
-2.80607e-07
-9.07163e-07
3.79871e-06
-1.48294e-06
-1.56043e-06
8.77337e-06
-5.10811e-06
-1.65203e-06
1.48821e-05
-9.35635e-06
-1.81704e-06
1.75221e-05
-1.26999e-05
-6.7443e-07
1.58424e-05
-1.38287e-05
2.06986e-06
1.10625e-05
-1.22668e-05
4.15941e-06
4.06299e-06
-7.78389e-06
6.63083e-06
5.84454e-06
-4.92714e-06
2.92869e-06
1.24848e-05
-6.30756e-06
-2.51846e-08
1.47052e-05
8.89351e-06
-4.22969e-06
1.66096e-05
1.5119e-05
-8.9738e-06
-7.03378e-06
2.25886e-05
2.20398e-05
-3.80493e-05
-1.74271e-05
-3.07824e-06
-9.7682e-05
-4.07919e-05
-6.91738e-06
-9.35954e-05
-1.39446e-05
6.2228e-07
-9.32906e-05
-9.16954e-06
1.38574e-06
-9.80822e-05
-2.84407e-06
4.91819e-07
-9.93375e-05
1.04019e-07
1.83906e-06
-9.97973e-05
1.37841e-06
1.58854e-06
-0.000100709
2.7284e-06
1.88869e-06
-0.000105476
3.84271e-06
2.14686e-06
-0.00011307
3.36757e-06
3.17022e-06
-0.000118997
2.41657e-06
3.55042e-06
-0.000121307
1.50546e-06
3.43753e-06
-0.000121723
2.18526e-06
3.68538e-06
-0.000121427
2.53515e-06
4.01199e-06
-0.000121702
2.13895e-06
3.95394e-06
-0.000123878
3.13121e-07
3.43941e-06
-0.000125927
-7.19071e-07
2.60381e-06
-0.000126767
-2.05175e-06
2.07121e-06
-0.000127149
-2.5648e-06
2.01914e-06
-0.000127306
-2.66269e-06
2.1262e-06
-0.000126952
-2.10735e-06
2.39297e-06
-0.000123834
-1.46788e-06
2.7305e-06
-0.000108561
-8.00093e-07
2.82673e-06
-5.80366e-05
-6.62575e-07
2.88581e-06
-2.03158e-05
-1.81372e-06
2.844e-06
-1.98433e-05
-2.67381e-06
1.80638e-06
-1.96973e-05
-3.1809e-06
2.04959e-06
-2.0424e-05
-3.50266e-06
1.92316e-06
-1.97867e-05
-3.20224e-06
-4.092e-07
-1.60931e-05
-2.29235e-06
-3.69473e-06
-1.11508e-05
-1.36596e-06
-5.12086e-06
-7.33459e-06
-6.2324e-07
-4.86062e-06
-4.39147e-06
1.28105e-07
-4.15748e-06
-1.6718e-06
-6.19718e-07
-3.74044e-06
-1.38358e-08
-5.82659e-07
-2.54645e-06
-1.98517e-07
9.67563e-07
-1.68277e-07
1.22595e-07
8.39477e-07
-3.03813e-06
-3.89918e-06
4.58756e-08
-1.96384e-06
-4.88234e-06
-8.83018e-07
-1.65165e-06
-3.44502e-06
4.44633e-08
-9.88501e-07
-3.42798e-06
-1.40651e-08
-5.68121e-07
-1.78908e-06
1.67993e-07
-3.17152e-07
-8.80122e-07
4.86612e-08
-2.31676e-07
1.75301e-08
-1.66741e-07
-2.72466e-07
2.60468e-07
-1.75903e-07
-2.53807e-07
4.15215e-07
-2.13164e-07
-2.66719e-07
5.22462e-07
-2.07072e-07
-3.01364e-07
6.42532e-07
-2.18913e-07
-3.83943e-07
6.50394e-07
-2.21912e-07
-4.7854e-07
6.43889e-07
-2.33191e-07
-5.30015e-07
5.27726e-07
-2.57163e-07
-5.3651e-07
4.4202e-07
-2.73106e-07
-5.06541e-07
3.70706e-07
-2.97347e-07
-4.53155e-07
3.4082e-07
-3.21092e-07
-3.94161e-07
3.44967e-07
-3.43982e-07
-3.35527e-07
3.63867e-07
-3.61196e-07
-2.77683e-07
3.83422e-07
-3.74423e-07
-2.21122e-07
4.06681e-07
-3.82945e-07
-1.66916e-07
4.32507e-07
-3.87249e-07
-1.19727e-07
4.62186e-07
-3.86438e-07
-8.23781e-08
4.94437e-07
-3.81363e-07
-5.58128e-08
5.27866e-07
-3.73315e-07
-3.89524e-08
5.58959e-07
-3.64068e-07
-2.89989e-08
5.85392e-07
-3.54997e-07
-2.38253e-08
6.09163e-07
-3.46953e-07
-2.3225e-08
6.3464e-07
-3.3976e-07
-2.59036e-08
6.63269e-07
-3.3357e-07
-3.01404e-08
6.92577e-07
-3.28215e-07
-3.37936e-08
7.21385e-07
-3.23129e-07
-3.74178e-08
7.51056e-07
-3.1759e-07
-4.29564e-08
7.83192e-07
-3.1079e-07
-5.59595e-08
8.22808e-07
-3.01834e-07
-8.55946e-08
8.7551e-07
-2.90619e-07
-1.40081e-07
9.46334e-07
-2.79681e-07
-2.18333e-07
1.04259e-06
-2.74447e-07
-3.08486e-07
1.17576e-06
-2.79687e-07
-3.86557e-07
1.35468e-06
-2.98551e-07
-4.1537e-07
1.58425e-06
-3.33353e-07
-3.71423e-07
1.86329e-06
-3.77355e-07
-2.91437e-07
2.19925e-06
-3.73665e-07
-1.90136e-07
2.48511e-06
-2.97441e-07
2.91507e-07
2.17478e-06
-3.13315e-07
1.58539e-06
9.45532e-07
-8.12802e-07
4.8216e-06
-1.72192e-06
-1.79486e-06
1.11209e-05
-5.64686e-06
-2.13535e-06
1.85068e-05
-1.05194e-05
-1.97456e-06
2.20148e-05
-1.2114e-05
-7.50363e-07
2.21505e-05
-1.26913e-05
-1.44279e-07
1.85879e-05
-1.28009e-05
2.53476e-06
8.96648e-06
-7.61628e-06
4.97094e-06
-1.90786e-06
-2.96311e-06
6.05363e-06
-2.39162e-06
-6.17235e-06
1.72903e-06
-4.31721e-07
-6.75778e-06
-1.50955e-06
1.28846e-05
6.85882e-06
-1.12815e-05
2.43729e-05
4.34101e-06
-7.10078e-07
-3.69935e-06
2.12691e-05
2.82467e-05
-4.46358e-05
-1.65024e-05
-4.14208e-06
-0.000109022
-4.34381e-05
-6.18395e-06
-0.000107879
-1.52269e-05
2.53698e-06
-0.000109654
-1.25525e-05
3.03705e-06
-0.000115047
-4.12468e-06
5.84471e-06
-0.00011951
-4.0228e-06
7.43627e-06
-0.000124621
-2.13321e-06
6.64945e-06
-0.000127282
-7.90156e-07
5.58361e-06
-0.000131791
2.15292e-06
5.57786e-06
-0.00013713
3.15559e-06
5.46851e-06
-0.00014114
2.66928e-06
4.60339e-06
-0.000144894
1.44121e-06
4.77995e-06
-0.000147722
9.15529e-07
4.7059e-06
-0.000149474
5.22965e-07
4.47365e-06
-0.000150503
-4.95595e-07
4.24923e-06
-0.000151087
-2.21795e-06
3.54446e-06
-0.000151259
-3.26676e-06
2.96189e-06
-0.00015115
-4.45599e-06
2.16606e-06
-0.000150904
-5.12233e-06
1.68174e-06
-0.00015055
-5.3021e-06
1.70352e-06
-0.000150062
-5.20735e-06
2.27939e-06
-0.000149863
-5.16015e-06
3.45224e-06
-0.000149678
-4.79051e-06
3.98173e-06
-0.000149376
-4.45375e-06
3.54993e-06
-0.000148913
-4.43038e-06
2.13391e-06
-0.000148432
-4.43648e-06
1.01113e-06
-0.000147813
-4.24502e-06
5.80027e-07
-0.000146491
-3.64376e-06
-7.12029e-07
-0.000144006
-2.38527e-06
-2.84526e-06
-0.000139564
-9.86234e-07
-4.59108e-06
-0.000132678
3.43257e-07
-4.98048e-06
-0.000119452
1.28108e-06
-4.05996e-06
-8.76926e-05
1.55432e-06
-3.28593e-06
-3.55326e-05
1.10661e-06
-2.59872e-06
-4.9702e-06
9.17731e-07
-1.26613e-06
-4.45082e-06
-5.51684e-07
1.05268e-07
-3.01718e-06
-4.33013e-07
-3.41151e-06
-3.709e-06
3.91219e-07
-2.44628e-06
-5.0445e-06
-8.03069e-07
-2.15613e-06
-3.7253e-06
-9.86572e-09
-1.29475e-06
-3.90952e-06
-3.79829e-07
-7.3932e-07
-2.53512e-06
1.90617e-07
-3.38329e-07
-1.37685e-06
9.57477e-08
-1.74111e-07
-4.2055e-08
-1.04626e-07
-2.1668e-07
4.15909e-07
-1.12861e-07
-1.59969e-07
5.5009e-07
-1.91577e-07
-1.63737e-07
6.914e-07
-1.65156e-07
-1.85475e-07
8.48749e-07
-1.84466e-07
-2.9568e-07
9.3245e-07
-1.71836e-07
-4.25863e-07
9.53229e-07
-1.79142e-07
-4.93852e-07
7.99216e-07
-2.03485e-07
-4.91635e-07
6.71739e-07
-2.3192e-07
-4.50109e-07
5.94038e-07
-2.64839e-07
-3.94772e-07
5.79837e-07
-2.94335e-07
-3.48777e-07
6.16353e-07
-3.1736e-07
-3.12536e-07
6.63031e-07
-3.35384e-07
-2.79063e-07
6.99868e-07
-3.49897e-07
-2.44907e-07
7.31962e-07
-3.59413e-07
-2.07476e-07
7.59315e-07
-3.64215e-07
-1.71006e-07
7.88334e-07
-3.62593e-07
-1.38653e-07
8.18436e-07
-3.56325e-07
-1.14755e-07
8.5085e-07
-3.46855e-07
-9.73904e-08
8.7679e-07
-3.35167e-07
-8.3824e-08
8.94534e-07
-3.22679e-07
-7.26971e-08
9.08397e-07
-3.10331e-07
-6.476e-08
9.24876e-07
-2.98141e-07
-6.12478e-08
9.46974e-07
-2.87186e-07
-6.18448e-08
9.71267e-07
-2.7806e-07
-6.5388e-08
9.95218e-07
-2.70256e-07
-7.23678e-08
1.02055e-06
-2.62478e-07
-8.44799e-08
1.04935e-06
-2.54009e-07
-1.08085e-07
1.09082e-06
-2.44372e-07
-1.51255e-07
1.15259e-06
-2.33878e-07
-2.18025e-07
1.23694e-06
-2.23796e-07
-2.99882e-07
1.34187e-06
-2.17385e-07
-3.70487e-07
1.46734e-06
-2.20936e-07
-3.90861e-07
1.61166e-06
-2.36568e-07
-3.28323e-07
1.78077e-06
-2.5902e-07
-1.8437e-07
1.9936e-06
-2.74225e-07
1.80972e-08
2.25569e-06
-2.58872e-07
3.8147e-07
2.37799e-06
-2.5622e-07
1.49981e-06
1.61953e-06
-5.63063e-07
4.72424e-06
-7.30688e-07
-1.54819e-06
1.12941e-05
-6.00786e-06
-2.28396e-06
1.90472e-05
-1.24969e-05
-9.02987e-07
2.3237e-05
-1.39106e-05
-7.98626e-07
2.2365e-05
-1.16772e-05
4.35175e-07
1.34503e-05
-4.97638e-06
1.19975e-06
-4.4756e-06
-1.11256e-06
6.23762e-06
-2.20011e-05
2.33713e-06
7.57217e-06
-2.7571e-05
9.06599e-07
1.70027e-06
-2.77136e-05
-3.91e-07
-5.6386e-06
-2.26896e-05
-6.32533e-06
-5.45621e-06
7.49992e-06
-1.72991e-05
-6.0316e-06
2.26467e-05
-1.42693e-05
3.46434e-06
-5.30811e-06
2.12022e-05
2.41093e-05
-6.24587e-05
-1.13643e-05
-5.43802e-06
-0.00013696
-2.69382e-05
-5.20118e-06
-0.000149197
-9.51322e-06
6.84738e-06
-0.000164115
-6.71565e-06
6.60902e-06
-0.000175204
-3.90956e-06
7.66565e-06
-0.000178983
-5.93999e-06
5.32512e-06
-0.000180169
-5.61731e-06
4.33244e-06
-0.00018069
-5.37748e-06
3.65826e-06
-0.000180959
-2.92608e-06
3.74902e-06
-0.000180644
-8.96657e-07
4.08143e-06
-0.000180525
-1.11247e-07
4.14289e-06
-0.000181228
-4.33516e-07
3.60069e-06
-0.000181443
-1.15943e-06
3.08009e-06
-0.000180704
-1.61025e-06
2.17842e-06
-0.000179983
-2.4833e-06
1.91005e-06
-0.00017898
-3.83496e-06
1.2437e-06
-0.000177981
-4.59969e-06
4.68786e-07
-0.000177003
-5.35155e-06
9.51423e-08
-0.000175646
-6.08258e-06
-7.24402e-09
-0.000174601
-6.46768e-06
1.36605e-07
-0.000173706
-6.662e-06
7.27394e-07
-0.000172581
-6.89075e-06
9.97309e-07
-0.000171626
-6.6134e-06
1.23855e-06
-0.000170689
-6.12357e-06
8.96519e-07
-0.000169496
-5.58722e-06
1.54951e-07
-0.000168217
-4.91308e-06
-8.38322e-07
-0.000166688
-4.08744e-06
-1.16268e-06
-0.000164399
-2.8269e-06
-2.7092e-06
-0.000161243
-1.3593e-06
-4.02479e-06
-0.000157136
4.64477e-08
-4.94488e-06
-0.000152761
1.16777e-06
-4.66321e-06
-0.00014955
2.12413e-06
-3.64245e-06
-0.000147895
2.03051e-06
-2.6422e-06
-0.000147259
7.86448e-07
-1.39603e-06
-0.000146277
-1.98421e-06
-5.05739e-07
-0.000141813
-6.46274e-06
-4.00388e-07
-9.81861e-06
-1.52955e-06
-3.77962e-06
-3.35694e-06
7.95639e-07
-2.97557e-06
-5.04418e-06
-8.04373e-07
-2.70566e-06
-3.78867e-06
-2.06533e-07
-1.58462e-06
-4.05093e-06
-9.7962e-07
-8.45547e-07
-3.07082e-06
-2.03369e-07
-3.21567e-07
-1.80051e-06
-1.00325e-07
-1.59025e-07
-6.13121e-08
-1.43278e-07
-2.19292e-07
5.75523e-07
-9.93408e-08
-1.23829e-07
6.62661e-07
-2.08025e-07
-1.22454e-07
8.46998e-07
-1.56965e-07
-1.3054e-07
1.02346e-06
-1.66616e-07
-2.26972e-07
1.14906e-06
-1.20166e-07
-3.4168e-07
1.19409e-06
-1.26146e-07
-3.91517e-07
1.01562e-06
-1.6656e-07
-3.78166e-07
8.81669e-07
-2.23268e-07
-3.4107e-07
8.21332e-07
-2.64379e-07
-3.01491e-07
8.34221e-07
-2.93949e-07
-2.80015e-07
9.0249e-07
-3.07601e-07
-2.74373e-07
9.72889e-07
-3.15484e-07
-2.74924e-07
1.0224e-06
-3.21969e-07
-2.76677e-07
1.05951e-06
-3.25779e-07
-2.74023e-07
1.08418e-06
-3.27503e-07
-2.66946e-07
1.10567e-06
-3.24393e-07
-2.57558e-07
1.12564e-06
-3.16579e-07
-2.51614e-07
1.14802e-06
-3.03092e-07
-2.46478e-07
1.16167e-06
-2.89999e-07
-2.37682e-07
1.16422e-06
-2.78463e-07
-2.2577e-07
1.16465e-06
-2.68149e-07
-2.12841e-07
1.17042e-06
-2.58455e-07
-2.04295e-07
1.18745e-06
-2.49001e-07
-2.03242e-07
1.21071e-06
-2.40473e-07
-2.10654e-07
1.23538e-06
-2.32731e-07
-2.2769e-07
1.26277e-06
-2.25163e-07
-2.54082e-07
1.2933e-06
-2.17535e-07
-2.92716e-07
1.3384e-06
-2.08923e-07
-3.44446e-07
1.40483e-06
-2.00486e-07
-4.03448e-07
1.48991e-06
-1.93949e-07
-4.5292e-07
1.58196e-06
-1.90595e-07
-4.56012e-07
1.66639e-06
-1.95947e-07
-3.73962e-07
1.73872e-06
-2.09104e-07
-1.98258e-07
1.8236e-06
-2.18515e-07
4.26423e-08
1.96965e-06
-2.16943e-07
3.21087e-07
2.17968e-06
-2.02427e-07
1.06153e-06
1.94763e-06
-3.10075e-07
2.94631e-06
7.09272e-07
-9.7453e-07
8.13273e-06
-4.25164e-06
-1.66549e-06
1.45599e-05
-1.21845e-05
-2.50591e-07
1.29015e-05
-1.20411e-05
1.20255e-06
3.32999e-06
-5.23204e-06
8.92931e-07
-1.33203e-05
4.03636e-07
4.56949e-06
-2.94627e-05
6.36935e-06
4.79665e-06
-3.84538e-05
3.58823e-06
4.29039e-06
-4.26164e-05
2.77906e-06
3.72075e-06
-4.31158e-05
1.31119e-06
9.49958e-08
-4.11845e-05
-2.25985e-06
-6.22924e-08
-3.6615e-05
-1.42174e-05
3.32266e-06
-3.47924e-05
-2.36744e-05
4.55275e-06
-2.73319e-05
-2.56164e-05
3.88648e-06
-5.84588e-06
-1.3282e-05
4.8695e-06
-7.9134e-05
9.57765e-07
-4.5687e-06
-0.00016263
8.62294e-06
-3.61641e-06
-0.000176529
9.31709e-07
5.03865e-06
-0.00018742
1.03816e-07
2.66625e-06
-0.000191204
-5.33785e-06
3.77873e-06
-0.000193754
-7.56352e-06
3.98437e-06
-0.000196934
-7.65462e-06
4.34168e-06
-0.000199065
-6.39472e-06
3.40477e-06
-0.000199805
-4.53239e-06
2.56856e-06
-0.000199856
-2.27602e-06
1.71398e-06
-0.00019901
-1.88807e-06
1.00687e-06
-0.000198107
-1.83098e-06
5.13529e-07
-0.000197107
-2.04832e-06
-2.15687e-07
-0.00019565
-2.34678e-06
-1.17367e-06
-0.00019421
-3.06646e-06
-1.38481e-06
-0.000193258
-3.84026e-06
-1.65507e-06
-0.000192131
-4.37799e-06
-1.9789e-06
-0.000190622
-4.7783e-06
-2.38847e-06
-0.000189778
-5.10286e-06
-2.50618e-06
-0.000189407
-5.42643e-06
-2.56592e-06
-0.00018874
-5.6487e-06
-2.40099e-06
-0.000187979
-5.83038e-06
-2.32276e-06
-0.000187359
-5.69213e-06
-2.25626e-06
-0.000186591
-5.44329e-06
-2.20494e-06
-0.000185792
-5.23447e-06
-1.9412e-06
-0.000184875
-4.68936e-06
-2.12408e-06
-0.000183235
-3.86769e-06
-2.46136e-06
-0.000180589
-2.81322e-06
-3.46369e-06
-0.00017658
-2.25098e-06
-3.76256e-06
-0.000171186
-2.231e-06
-3.6919e-06
-0.000165299
-2.58624e-06
-2.66846e-06
-0.000159664
-2.80756e-06
-7.50926e-07
-0.000155463
-2.97555e-06
1.16715e-06
-0.000153069
-1.62146e-06
3.3187e-06
-0.000149258
-5.01007e-06
4.71904e-06
-0.00014409
-1.24185e-05
5.34907e-06
-2.08241e-05
4.29935e-06
-3.89287e-06
-2.90329e-06
1.43627e-06
-3.45056e-06
-4.70225e-06
-7.84233e-07
-3.41451e-06
-3.74464e-06
-8.00657e-08
-2.16191e-06
-4.12179e-06
-1.18174e-06
-1.16357e-06
-3.59281e-06
-4.76346e-07
-3.36084e-07
-2.34316e-06
-2.84831e-07
-8.96733e-08
-1.8191e-07
-1.2581e-07
-1.41381e-07
6.65063e-07
-3.78265e-08
-9.63522e-08
8.69394e-07
-2.51758e-07
-1.51336e-07
1.05473e-06
-1.5274e-07
-1.37347e-07
1.19416e-06
-1.84679e-07
-1.49584e-07
1.32245e-06
-1.61153e-07
-1.48178e-07
1.39086e-06
-1.98169e-07
-1.37866e-07
1.27466e-06
-2.69336e-07
-1.29413e-07
1.21051e-06
-3.37287e-07
-1.47027e-07
1.2199e-06
-3.80943e-07
-1.81945e-07
1.28423e-06
-4.15089e-07
-2.26173e-07
1.37984e-06
-4.33112e-07
-2.73057e-07
1.46722e-06
-4.47444e-07
-3.22182e-07
1.53188e-06
-4.60346e-07
-3.68182e-07
1.5749e-06
-4.69385e-07
-3.99208e-07
1.59138e-06
-4.76166e-07
-4.17891e-07
1.60361e-06
-4.79252e-07
-4.26264e-07
1.61371e-06
-4.79682e-07
-4.24269e-07
1.62388e-06
-4.77853e-07
-4.16798e-07
1.62883e-06
-4.74622e-07
-4.05384e-07
1.62552e-06
-4.72711e-07
-3.89484e-07
1.62015e-06
-4.71394e-07
-3.71957e-07
1.62202e-06
-4.69122e-07
-3.60256e-07
1.64073e-06
-4.64982e-07
-3.6059e-07
1.67122e-06
-4.60171e-07
-3.74224e-07
1.70416e-06
-4.55137e-07
-4.01277e-07
1.74011e-06
-4.50284e-07
-4.38957e-07
1.77653e-06
-4.45555e-07
-4.86026e-07
1.82478e-06
-4.39309e-07
-5.35157e-07
1.88724e-06
-4.33285e-07
-5.70227e-07
1.95612e-06
-4.31149e-07
-5.65426e-07
2.01586e-06
-4.3871e-07
-4.88032e-07
2.04187e-06
-4.52876e-07
-3.07525e-07
2.0324e-06
-4.74188e-07
-4.01388e-08
2.04002e-06
-4.83824e-07
2.35789e-07
2.16131e-06
-4.676e-07
4.962e-07
2.39552e-06
-4.76275e-07
1.11979e-06
2.06866e-06
-7.44644e-07
3.20297e-06
3.05403e-07
-1.67935e-06
2.84198e-06
-3.62815e-06
-2.62565e-07
-1.0434e-05
-5.25127e-06
6.34261e-06
-2.60942e-05
3.62585e-08
3.58292e-06
-3.80078e-05
5.35807e-06
1.32351e-06
-4.86211e-05
6.3433e-06
4.67369e-06
-5.40732e-05
6.35409e-06
5.46747e-06
-5.8171e-05
2.24576e-06
5.44031e-06
-6.02511e-05
-4.81458e-07
5.34071e-06
-5.83932e-05
-2.46074e-06
1.91413e-06
-5.58371e-05
-5.19624e-06
3.80432e-07
-5.72545e-05
-1.48684e-05
2.06855e-06
-6.62139e-05
-1.82605e-05
3.54535e-06
-5.13404e-05
-3.38478e-05
-6.64187e-06
2.65613e-06
-6.04436e-05
-1.11503e-05
-6.79938e-05
1.15911e-05
-3.62582e-06
-0.000170734
3.26518e-05
-2.21884e-06
-0.000175483
7.62486e-06
5.07747e-06
-0.000179893
5.14477e-06
1.27076e-07
-0.000182741
-4.94475e-06
2.5734e-07
-0.000183306
-7.56715e-06
2.69373e-06
-0.000186477
-9.4448e-06
6.03664e-06
-0.000191546
-7.85468e-06
7.97668e-06
-0.000196555
-6.57396e-06
8.3844e-06
-0.000201423
-3.86402e-06
7.41499e-06
-0.000205554
-3.12472e-06
5.3584e-06
-0.000208988
-2.42366e-06
3.68371e-06
-0.000212294
-2.2589e-06
2.49339e-06
-0.000214686
-2.55409e-06
1.08165e-06
-0.00021563
-3.3365e-06
1.73858e-07
-0.000216497
-3.62458e-06
-1.62761e-07
-0.00021757
-3.92581e-06
-2.89271e-07
-0.000218269
-3.78074e-06
-3.90253e-07
-0.000218754
-3.26013e-06
-8.41012e-07
-0.000219956
-3.12511e-06
-1.33636e-06
-0.00022159
-2.74147e-06
-1.85989e-06
-0.000222694
-2.63806e-06
-2.77458e-06
-0.000223057
-2.10047e-06
-3.80417e-06
-0.000223058
-1.29404e-06
-4.24352e-06
-0.000223039
-1.21535e-06
-4.74102e-06
-0.000222497
-8.51542e-07
-5.36611e-06
-0.000221146
-6.29395e-07
-5.42894e-06
-0.000218124
-7.78362e-07
-5.94116e-06
-0.000212979
-1.77561e-06
-6.15942e-06
-0.000205184
-3.90367e-06
-5.24474e-06
-0.000190727
-6.56505e-06
-3.69288e-06
-0.000155501
-8.66615e-06
-1.67473e-06
-7.38435e-05
-9.33889e-06
3.82626e-07
-1.19059e-05
-9.99276e-06
2.20159e-06
-8.61158e-06
-1.16181e-05
3.24993e-06
-2.32325e-05
-1.57501e-05
3.02676e-06
-2.5908e-05
2.19273e-06
-3.48596e-06
-1.79486e-06
2.4822e-06
-3.74919e-06
-4.35741e-06
-8.16139e-08
-4.19189e-06
-3.57131e-06
2.6937e-07
-2.97308e-06
-4.29027e-06
-1.05033e-06
-1.75817e-06
-4.10942e-06
-6.98299e-07
-4.49808e-07
-3.08739e-06
-5.6413e-07
4.32913e-09
-7.84538e-07
1.48492e-07
-9.12556e-08
4.15523e-07
3.45127e-07
-9.05329e-08
8.31186e-07
3.74889e-08