/*--------------------------------*- C++ -*----------------------------------*\
| =========                 |                                                 |
| \\      /  F ield         | OpenFOAM: The Open Source CFD Toolbox           |
|  \\    /   O peration     | Version:  2.3.0                                 |
|   \\  /    A nd           | Web:      www.OpenFOAM.org                      |
|    \\/     M anipulation  |                                                 |
\*---------------------------------------------------------------------------*/
FoamFile
{
    version     2.0;
    format      ascii;
    class       volScalarField;
    location    "44";
    object      rho;
}
// * * * * * * * * * * * * * * * * * * * * * * * * * * * * * * * * * * * * * //

dimensions      [1 -3 0 0 0 0 0];

internalField   nonuniform List<scalar> 
6144
(
1.163
1.1638
1.16414
1.16455
1.165
1.16577
1.16671
1.1679
1.16874
1.16888
1.16889
1.16889
1.1689
1.1689
1.1689
1.1689
1.16891
1.16891
1.16891
1.16891
1.16891
1.16891
1.16892
1.16892
1.16892
1.16892
1.16892
1.16892
1.16892
1.16893
1.16893
1.16893
1.16893
1.16893
1.16893
1.16894
1.16894
1.16894
1.16894
1.16894
1.16894
1.16895
1.16894
1.16895
1.16895
1.16895
1.16895
1.16904
1.17043
1.17617
1.18837
1.20761
1.22771
1.24416
1.25414
1.27925
1.30017
1.59891
2.73353
83.126
1001.76
1027.01
1027.1
1027.1
1027.1
1027.1
1027.1
1027.1
1027.1
1027.1
1027.1
1027.1
1027.1
1027.1
1027.1
1027.1
1027.1
1027.1
1027.1
1027.1
1027.1
1027.1
1027.1
1027.1
1027.1
1027.1
1027.1
1027.1
1027.1
1027.1
1027.1
1027.1
1027.1
1027.1
1027.1
1027.1
1.16286
1.16393
1.16448
1.16509
1.16571
1.16631
1.16695
1.16794
1.16876
1.16888
1.16888
1.16889
1.1689
1.16891
1.16891
1.16891
1.16891
1.16891
1.16892
1.16892
1.16892
1.16892
1.16892
1.16892
1.16892
1.16893
1.16893
1.16893
1.16893
1.16893
1.16893
1.16894
1.16894
1.16894
1.16894
1.16894
1.16894
1.16895
1.16895
1.16895
1.16895
1.16896
1.16895
1.16896
1.16896
1.16897
1.16896
1.16907
1.16991
1.1734
1.18332
1.20094
1.22463
1.23896
1.23638
1.26373
1.29296
1.77581
3.60335
78.2561
992.688
1027
1027.1
1027.1
1027.1
1027.1
1027.1
1027.1
1027.1
1027.1
1027.1
1027.1
1027.1
1027.1
1027.1
1027.1
1027.1
1027.1
1027.1
1027.1
1027.1
1027.1
1027.1
1027.1
1027.1
1027.1
1027.1
1027.1
1027.1
1027.1
1027.1
1027.1
1027.1
1027.1
1027.1
1027.1
1.16267
1.16372
1.16454
1.16522
1.16598
1.16652
1.16715
1.16796
1.16859
1.1688
1.16883
1.16886
1.16889
1.1689
1.16891
1.16891
1.16891
1.16891
1.16892
1.16892
1.16892
1.16892
1.16892
1.16892
1.16892
1.16893
1.16893
1.16893
1.16893
1.16893
1.16893
1.16894
1.16894
1.16894
1.16894
1.16894
1.16894
1.16895
1.16895
1.16895
1.16895
1.16896
1.16895
1.16896
1.16896
1.16897
1.16897
1.1691
1.16987
1.1732
1.18235
1.19951
1.21793
1.23011
1.23166
1.25904
1.26309
1.51859
2.14709
76.7064
992.706
1027.05
1027.1
1027.1
1027.1
1027.1
1027.1
1027.1
1027.1
1027.1
1027.1
1027.1
1027.1
1027.1
1027.1
1027.1
1027.1
1027.1
1027.1
1027.1
1027.1
1027.1
1027.1
1027.1
1027.1
1027.1
1027.1
1027.1
1027.1
1027.1
1027.1
1027.1
1027.1
1027.1
1027.1
1027.1
1.16253
1.16339
1.1642
1.16491
1.16583
1.16654
1.16718
1.16783
1.16845
1.16872
1.16879
1.16885
1.16888
1.1689
1.1689
1.16891
1.16891
1.16891
1.16891
1.16891
1.16892
1.16892
1.16892
1.16892
1.16892
1.16892
1.16892
1.16893
1.16893
1.16893
1.16893
1.16893
1.16893
1.16894
1.16894
1.16894
1.16894
1.16894
1.16894
1.16895
1.16895
1.16895
1.16895
1.16896
1.16896
1.16897
1.16897
1.16915
1.17075
1.17619
1.18823
1.20543
1.21275
1.21935
1.22872
1.25954
1.28138
1.38354
1.23523
103.719
1004.37
1027.06
1027.09
1027.09
1027.1
1027.1
1027.1
1027.1
1027.1
1027.1
1027.1
1027.1
1027.1
1027.1
1027.1
1027.1
1027.1
1027.1
1027.1
1027.1
1027.1
1027.1
1027.1
1027.1
1027.1
1027.1
1027.1
1027.1
1027.1
1027.1
1027.1
1027.1
1027.1
1027.1
1027.1
1027.1
1.16242
1.16311
1.16391
1.16453
1.16541
1.1662
1.16706
1.16765
1.16831
1.16867
1.16877
1.16884
1.16888
1.1689
1.16891
1.16891
1.16891
1.16891
1.16892
1.16892
1.16892
1.16892
1.16892
1.16892
1.16893
1.16893
1.16893
1.16893
1.16893
1.16893
1.16893
1.16893
1.16894
1.16894
1.16894
1.16894
1.16894
1.16895
1.16895
1.16895
1.16895
1.16895
1.16895
1.16896
1.16895
1.16897
1.169
1.16971
1.17349
1.1815
1.19306
1.20027
1.19836
1.20815
1.24623
1.30744
1.33441
1.35237
1.2173
148.343
1020.81
1026.54
1026.8
1027.02
1027.07
1027.09
1027.09
1027.1
1027.1
1027.1
1027.1
1027.1
1027.1
1027.1
1027.1
1027.1
1027.1
1027.1
1027.1
1027.1
1027.1
1027.1
1027.1
1027.1
1027.1
1027.1
1027.1
1027.1
1027.1
1027.1
1027.1
1027.1
1027.1
1027.1
1027.1
1027.1
1.16238
1.16291
1.16367
1.16418
1.16499
1.16575
1.16678
1.16747
1.16811
1.16861
1.16876
1.16884
1.16888
1.1689
1.1689
1.1689
1.16891
1.16891
1.16891
1.16891
1.16891
1.16892
1.16892
1.16892
1.16892
1.16892
1.16892
1.16893
1.16893
1.16893
1.16893
1.16893
1.16893
1.16893
1.16894
1.16894
1.16894
1.16894
1.16894
1.16895
1.16894
1.16895
1.16895
1.16896
1.16895
1.16897
1.16912
1.1708
1.17614
1.18323
1.18642
1.18586
1.18773
1.21652
1.29072
1.36744
1.36697
1.34816
1.16897
217.638
1015.45
1023.23
1024.24
1025.45
1025.85
1026.16
1026.71
1026.96
1027.05
1027.08
1027.09
1027.09
1027.09
1027.09
1027.08
1027.08
1027.07
1027.06
1027.06
1027.07
1027.07
1027.08
1027.08
1027.09
1027.09
1027.09
1027.09
1027.09
1027.09
1027.09
1027.09
1027.1
1027.1
1027.1
1027.1
1027.1
1.16242
1.16279
1.16346
1.16386
1.16466
1.16536
1.1664
1.16719
1.16786
1.16852
1.16874
1.16884
1.16888
1.1689
1.16891
1.16891
1.16891
1.16891
1.16891
1.16892
1.16892
1.16892
1.16892
1.16892
1.16892
1.16892
1.16892
1.16893
1.16893
1.16893
1.16893
1.16893
1.16893
1.16894
1.16894
1.16894
1.16894
1.16894
1.16894
1.16895
1.16895
1.16895
1.16895
1.16896
1.16895
1.16898
1.16915
1.17053
1.17428
1.17835
1.18012
1.18322
1.18846
1.22193
1.30683
1.39613
1.39417
1.36763
1.16897
299.363
1011.77
1018.23
1018.63
1020.13
1019.44
1019.29
1021.87
1023.37
1024.44
1025.18
1025.49
1025.61
1025.58
1025.55
1025.42
1025.13
1024.87
1024.73
1025.15
1025.73
1026.31
1026.79
1027.04
1027.1
1027.07
1027.07
1027.06
1027.06
1027.05
1027.04
1027.02
1027.02
1027.08
1027.09
1027.08
1027.09
1.16243
1.16274
1.16325
1.16353
1.16441
1.16507
1.16615
1.16701
1.16768
1.16841
1.1687
1.16882
1.16887
1.1689
1.1689
1.16891
1.16891
1.16891
1.16891
1.16892
1.16892
1.16892
1.16892
1.16892
1.16892
1.16893
1.16893
1.16893
1.16893
1.16893
1.16893
1.16894
1.16894
1.16894
1.16894
1.16894
1.16894
1.16895
1.16895
1.16895
1.16895
1.16896
1.16896
1.16896
1.16896
1.16898
1.16908
1.16978
1.17158
1.17388
1.17599
1.18462
1.20203
1.25565
1.32896
1.37014
1.35637
1.34096
1.16897
288.73
1007.64
1015.87
1015.78
1015.54
1014.67
1014.14
1014.36
1015.79
1016
1016.02
1015.66
1016.07
1018.16
1019.04
1019.3
1018.84
1018.47
1021.43
1024.46
1026.2
1027.01
1027.1
1027.1
1027.1
1027.1
1027.1
1027.1
1027.1
1027.1
1027.1
1027.1
1027.1
1027.1
1027.1
1026.83
1026.74
1.16235
1.16276
1.16302
1.16311
1.16411
1.1648
1.16598
1.16699
1.1676
1.16829
1.16865
1.1688
1.16886
1.16889
1.1689
1.1689
1.16891
1.16891
1.16891
1.16891
1.16891
1.16892
1.16892
1.16892
1.16892
1.16892
1.16892
1.16893
1.16893
1.16893
1.16893
1.16893
1.16893
1.16894
1.16894
1.16894
1.16894
1.16894
1.16894
1.16895
1.16895
1.16895
1.16895
1.16896
1.16897
1.16898
1.169
1.16929
1.16996
1.171
1.17272
1.19119
1.21768
1.24035
1.30164
1.33944
1.33533
1.32731
1.16897
196.148
1011.31
1020.23
1020.1
1021.44
1020.13
1019.24
1019.43
1018.94
1017.5
1017.34
1019.48
1020.34
1021.3
1022.45
1023.32
1023.74
1024.37
1025.96
1026.74
1026.83
1026.8
1026.77
1026.75
1026.75
1026.84
1026.91
1026.98
1027.05
1027.09
1027.1
1027.1
1027.1
1027.1
1027.1
1027.1
1027.1
1.16234
1.16269
1.1627
1.16262
1.16363
1.16446
1.16583
1.16709
1.16767
1.16827
1.16859
1.16876
1.16883
1.16888
1.16889
1.16891
1.16891
1.16891
1.16891
1.16892
1.16892
1.16892
1.16892
1.16892
1.16892
1.16893
1.16893
1.16893
1.16893
1.16893
1.16893
1.16893
1.16894
1.16894
1.16894
1.16894
1.16894
1.16894
1.16895
1.16895
1.16895
1.16895
1.16895
1.16896
1.16897
1.16898
1.16898
1.16916
1.16978
1.17139
1.17438
1.20291
1.22103
1.22752
1.2734
1.31454
1.32212
1.31308
1.18664
132.898
1019.03
1025.87
1025.85
1025.86
1025.68
1025.36
1025.14
1024.94
1024.68
1024.65
1024.94
1025.39
1025.72
1026.15
1026.47
1026.67
1026.83
1026.94
1026.98
1027
1027.03
1027.05
1027.08
1027.09
1027.1
1027.1
1027.1
1027.1
1027.1
1027.1
1027.1
1027.1
1027.1
1027.1
1027.1
1027.1
1.16207
1.16237
1.16221
1.16209
1.16302
1.16399
1.16563
1.16712
1.16793
1.16837
1.1686
1.16872
1.16878
1.16883
1.16887
1.16889
1.1689
1.16891
1.16891
1.16891
1.16891
1.16892
1.16892
1.16892
1.16892
1.16892
1.16893
1.16893
1.16893
1.16893
1.16893
1.16893
1.16894
1.16894
1.16894
1.16894
1.16894
1.16894
1.16895
1.16895
1.16895
1.16895
1.16896
1.16896
1.16896
1.16898
1.16899
1.16931
1.17098
1.17573
1.1834
1.19748
1.21644
1.22014
1.24394
1.27325
1.30291
1.30453
1.21387
88.5112
1020.46
1026.97
1026.97
1026.98
1026.97
1026.97
1026.96
1026.95
1026.92
1026.91
1026.91
1026.97
1027.01
1027.03
1027.05
1027.07
1027.08
1027.08
1027.09
1027.09
1027.1
1027.1
1027.1
1027.1
1027.1
1027.1
1027.1
1027.1
1027.1
1027.1
1027.1
1027.1
1027.1
1027.1
1027.1
1027.1
1.16175
1.16166
1.16158
1.16139
1.16215
1.16328
1.16524
1.16676
1.16811
1.16848
1.16863
1.16873
1.16878
1.16882
1.16885
1.16889
1.1689
1.16891
1.16891
1.16891
1.16892
1.16892
1.16892
1.16892
1.16892
1.16893
1.16893
1.16893
1.16893
1.16893
1.16893
1.16894
1.16894
1.16894
1.16894
1.16894
1.16895
1.16895
1.16895
1.16895
1.16895
1.16896
1.16896
1.16896
1.16897
1.16898
1.169
1.16952
1.17195
1.17947
1.1927
1.20373
1.21628
1.22215
1.23094
1.24846
1.27669
1.28929
1.20745
55.1401
1005.87
1027.09
1027.09
1027.09
1027.09
1027.09
1027.09
1027.09
1027.09
1027.09
1027.09
1027.09
1027.09
1027.09
1027.09
1027.1
1027.1
1027.1
1027.1
1027.1
1027.1
1027.1
1027.1
1027.1
1027.1
1027.1
1027.1
1027.1
1027.1
1027.1
1027.1
1027.1
1027.1
1027.1
1027.1
1027.1
1.16134
1.16119
1.16092
1.16081
1.16116
1.16199
1.16362
1.16592
1.16798
1.16855
1.16869
1.16879
1.16883
1.16885
1.16887
1.1689
1.16891
1.16891
1.16891
1.16892
1.16892
1.16892
1.16892
1.16892
1.16893
1.16893
1.16893
1.16893
1.16893
1.16893
1.16894
1.16894
1.16894
1.16894
1.16894
1.16894
1.16895
1.16895
1.16895
1.16895
1.16895
1.16896
1.16896
1.16897
1.16897
1.16898
1.169
1.16946
1.17148
1.17904
1.19689
1.21199
1.21824
1.22241
1.22731
1.24067
1.32501
1.4566
1.43012
33.6788
998.08
1027.08
1027.1
1027.1
1027.1
1027.1
1027.09
1027.1
1027.1
1027.1
1027.1
1027.1
1027.1
1027.1
1027.1
1027.1
1027.1
1027.1
1027.1
1027.1
1027.1
1027.1
1027.1
1027.1
1027.1
1027.1
1027.1
1027.1
1027.1
1027.1
1027.1
1027.1
1027.1
1027.1
1027.1
1027.1
1.16117
1.16121
1.16072
1.16054
1.16058
1.16101
1.1618
1.16485
1.16738
1.16849
1.16868
1.16879
1.16883
1.16886
1.16888
1.16891
1.16892
1.16892
1.16892
1.16892
1.16892
1.16892
1.16893
1.16893
1.16893
1.16893
1.16893
1.16893
1.16893
1.16894
1.16894
1.16894
1.16894
1.16894
1.16894
1.16895
1.16895
1.16895
1.16895
1.16895
1.16896
1.16896
1.16896
1.16897
1.16897
1.16898
1.169
1.16946
1.17174
1.18122
1.19951
1.21302
1.21987
1.22408
1.22823
1.24413
1.29109
1.61406
1.62023
32.5328
990.918
1027.05
1027.1
1027.1
1027.1
1027.1
1027.1
1027.1
1027.1
1027.1
1027.1
1027.1
1027.1
1027.1
1027.1
1027.1
1027.1
1027.1
1027.1
1027.1
1027.1
1027.1
1027.1
1027.1
1027.1
1027.1
1027.1
1027.1
1027.1
1027.1
1027.1
1027.1
1027.1
1027.1
1027.1
1027.1
1.16099
1.16084
1.16056
1.16043
1.1605
1.1607
1.16093
1.1633
1.16685
1.16831
1.16864
1.16877
1.16882
1.16885
1.16888
1.16891
1.16891
1.16892
1.16892
1.16892
1.16892
1.16892
1.16892
1.16893
1.16893
1.16893
1.16893
1.16893
1.16893
1.16893
1.16894
1.16894
1.16894
1.16894
1.16894
1.16894
1.16895
1.16895
1.16895
1.16895
1.16895
1.16896
1.16896
1.16897
1.16897
1.16898
1.169
1.16953
1.17242
1.18259
1.19961
1.21396
1.22167
1.22572
1.22852
1.24713
1.47415
1.74162
1.84322
31.6637
979.103
1026.91
1027.1
1027.1
1027.1
1027.1
1027.1
1027.1
1027.1
1027.1
1027.1
1027.1
1027.1
1027.1
1027.1
1027.1
1027.1
1027.1
1027.1
1027.1
1027.1
1027.1
1027.1
1027.1
1027.1
1027.1
1027.1
1027.1
1027.1
1027.1
1027.1
1027.1
1027.1
1027.1
1027.1
1027.1
1.16055
1.16076
1.16074
1.16074
1.16066
1.16062
1.16061
1.16147
1.1655
1.16806
1.16858
1.16874
1.1688
1.16885
1.16889
1.16892
1.16892
1.16892
1.16892
1.16892
1.16893
1.16893
1.16893
1.16893
1.16893
1.16893
1.16894
1.16894
1.16894
1.16894
1.16894
1.16894
1.16895
1.16895
1.16895
1.16895
1.16895
1.16895
1.16896
1.16896
1.16896
1.16896
1.16897
1.16897
1.16897
1.16899
1.16902
1.1696
1.17266
1.18244
1.1981
1.21302
1.22238
1.22743
1.23103
1.25429
1.32488
1.6602
1.58455
41.1902
971.399
1026.89
1027.1
1027.1
1027.1
1027.1
1027.1
1027.1
1027.1
1027.1
1027.1
1027.1
1027.1
1027.1
1027.1
1027.1
1027.1
1027.1
1027.1
1027.1
1027.1
1027.1
1027.1
1027.1
1027.1
1027.1
1027.1
1027.1
1027.1
1027.1
1027.1
1027.1
1027.1
1027.1
1027.1
1027.1
1.16254
1.16365
1.16414
1.16453
1.16492
1.1657
1.16695
1.1682
1.16875
1.1688
1.16883
1.16887
1.1689
1.16892
1.16892
1.16892
1.16892
1.16893
1.16893
1.16893
1.16893
1.16893
1.16893
1.16893
1.16893
1.16894
1.16894
1.16894
1.16894
1.16894
1.16895
1.16895
1.16895
1.16895
1.16895
1.16896
1.16896
1.16896
1.16896
1.16896
1.16897
1.16897
1.16897
1.16897
1.16897
1.16898
1.16898
1.16906
1.17024
1.17638
1.18958
1.20955
1.22728
1.24293
1.25653
1.28214
1.31741
1.75595
4.3052
91.2119
995.028
1026.99
1027.1
1027.1
1027.1
1027.1
1027.1
1027.1
1027.1
1027.1
1027.1
1027.1
1027.1
1027.1
1027.1
1027.1
1027.1
1027.1
1027.1
1027.1
1027.1
1027.1
1027.1
1027.1
1027.1
1027.1
1027.1
1027.1
1027.1
1027.1
1027.1
1027.1
1027.1
1027.1
1027.1
1027.1
1.16203
1.16367
1.16464
1.16519
1.16581
1.1665
1.16759
1.16821
1.16844
1.16855
1.16868
1.16879
1.16886
1.1689
1.16891
1.16892
1.16892
1.16892
1.16892
1.16893
1.16893
1.16893
1.16893
1.16893
1.16894
1.16894
1.16894
1.16894
1.16894
1.16894
1.16894
1.16895
1.16895
1.16895
1.16895
1.16895
1.16895
1.16896
1.16896
1.16896
1.16896
1.16897
1.16896
1.16897
1.16897
1.16899
1.16899
1.16912
1.16983
1.17346
1.18317
1.20189
1.2267
1.23941
1.24715
1.27576
1.38492
1.75663
3.40271
100.469
1008.67
1027.09
1027.1
1027.1
1027.1
1027.1
1027.1
1027.1
1027.1
1027.1
1027.1
1027.1
1027.1
1027.1
1027.1
1027.1
1027.1
1027.1
1027.1
1027.1
1027.1
1027.1
1027.1
1027.1
1027.1
1027.1
1027.1
1027.1
1027.1
1027.1
1027.1
1027.1
1027.1
1027.1
1027.1
1027.1
1.16164
1.16302
1.16443
1.16528
1.16614
1.16686
1.16741
1.16783
1.16811
1.16833
1.16857
1.16874
1.16883
1.16889
1.16891
1.16892
1.16892
1.16892
1.16892
1.16892
1.16893
1.16893
1.16893
1.16893
1.16893
1.16893
1.16893
1.16894
1.16894
1.16894
1.16894
1.16894
1.16894
1.16895
1.16895
1.16895
1.16895
1.16895
1.16895
1.16896
1.16896
1.16896
1.16896
1.16897
1.16897
1.16899
1.16899
1.16921
1.17042
1.17425
1.18153
1.19479
1.2192
1.2361
1.25057
1.28797
1.32697
1.66915
1.94268
99.1036
1018.95
1027.09
1027.09
1027.1
1027.1
1027.1
1027.1
1027.1
1027.1
1027.1
1027.1
1027.1
1027.1
1027.1
1027.1
1027.1
1027.1
1027.1
1027.1
1027.1
1027.1
1027.1
1027.1
1027.1
1027.1
1027.1
1027.1
1027.1
1027.1
1027.1
1027.1
1027.1
1027.1
1027.1
1027.1
1027.1
1.16138
1.16233
1.16377
1.16452
1.16539
1.16622
1.16691
1.16746
1.16792
1.16823
1.16851
1.16871
1.16882
1.16888
1.16891
1.16892
1.16892
1.16892
1.16892
1.16892
1.16892
1.16892
1.16893
1.16893
1.16893
1.16893
1.16893
1.16893
1.16894
1.16894
1.16894
1.16894
1.16894
1.16894
1.16895
1.16895
1.16895
1.16895
1.16895
1.16895
1.16896
1.16896
1.16896
1.16896
1.16897
1.16899
1.169
1.16923
1.17047
1.1742
1.18199
1.19977
1.21388
1.23155
1.24956
1.30801
1.35032
1.54581
1.33605
129.062
1022.03
1027.07
1027.08
1027.09
1027.09
1027.1
1027.1
1027.1
1027.1
1027.1
1027.1
1027.1
1027.1
1027.1
1027.1
1027.1
1027.1
1027.1
1027.1
1027.1
1027.1
1027.1
1027.1
1027.1
1027.1
1027.1
1027.1
1027.1
1027.1
1027.1
1027.1
1027.1
1027.1
1027.1
1027.1
1027.1
1.16121
1.16174
1.16329
1.16403
1.16476
1.16565
1.16644
1.16719
1.16783
1.16819
1.16849
1.1687
1.16882
1.16888
1.1689
1.16891
1.16892
1.16892
1.16892
1.16892
1.16892
1.16892
1.16893
1.16893
1.16893
1.16893
1.16893
1.16893
1.16893
1.16894
1.16894
1.16894
1.16894
1.16894
1.16894
1.16895
1.16895
1.16895
1.16895
1.16895
1.16896
1.16896
1.16896
1.16896
1.16897
1.16899
1.16901
1.16922
1.17006
1.17152
1.17547
1.18554
1.20021
1.22984
1.28806
1.35711
1.37285
1.30757
1.22572
178.109
1020.49
1026
1026.33
1026.86
1026.99
1027.06
1027.09
1027.09
1027.1
1027.1
1027.09
1027.1
1027.1
1027.1
1027.1
1027.1
1027.1
1027.1
1027.1
1027.1
1027.1
1027.1
1027.1
1027.1
1027.1
1027.1
1027.1
1027.1
1027.1
1027.1
1027.1
1027.1
1027.1
1027.1
1027.1
1027.1
1.16114
1.16129
1.16284
1.16368
1.16434
1.16528
1.16614
1.16702
1.16779
1.16818
1.16848
1.1687
1.16881
1.16888
1.1689
1.16891
1.16892
1.16892
1.16892
1.16892
1.16892
1.16892
1.16892
1.16893
1.16893
1.16893
1.16893
1.16893
1.16893
1.16893
1.16894
1.16894
1.16894
1.16894
1.16894
1.16894
1.16895
1.16895
1.16895
1.16895
1.16895
1.16896
1.16896
1.16896
1.16897
1.16899
1.16903
1.16929
1.17003
1.17106
1.17314
1.1785
1.18853
1.27119
1.38115
1.37303
1.36681
1.26341
1.1707
267.418
1003.9
1016.88
1018.37
1021.34
1023.15
1024.81
1025.96
1026.56
1026.84
1026.93
1026.95
1026.94
1026.92
1026.9
1026.87
1026.84
1026.8
1026.78
1026.77
1026.78
1026.75
1026.72
1026.71
1026.74
1026.75
1026.75
1026.73
1026.72
1026.71
1026.88
1027.04
1027.08
1027.1
1027.1
1027.1
1027.1
1.16112
1.16101
1.16233
1.16329
1.164
1.165
1.16596
1.16692
1.16778
1.16818
1.16848
1.1687
1.16881
1.16888
1.1689
1.16891
1.16891
1.16892
1.16892
1.16892
1.16892
1.16892
1.16892
1.16892
1.16893
1.16893
1.16893
1.16893
1.16893
1.16893
1.16894
1.16894
1.16894
1.16894
1.16894
1.16894
1.16895
1.16895
1.16895
1.16895
1.16895
1.16896
1.16896
1.16896
1.16897
1.16899
1.16904
1.16944
1.17064
1.17247
1.17551
1.18445
1.19626
1.24665
1.3999
1.44239
1.38995
1.28056
1.16897
384.116
984.631
996.521
996.31
999.079
1001.87
1005.31
1009.31
1013.07
1016.97
1019.99
1021.61
1021.78
1021.28
1020.99
1019.21
1017.96
1017.25
1014.93
1011.65
1007.73
1005.29
1004.52
1004.64
1005.68
1005.5
1004.05
1003.32
1003.23
1001.76
999.941
1009.76
1016.37
1020.53
1023.91
1025.88
1026.23
1.16118
1.16085
1.16178
1.16269
1.16366
1.16471
1.16583
1.16687
1.16777
1.16819
1.16849
1.1687
1.16882
1.16888
1.1689
1.16891
1.16891
1.16892
1.16892
1.16892
1.16892
1.16892
1.16892
1.16893
1.16893
1.16893
1.16893
1.16893
1.16893
1.16893
1.16894
1.16894
1.16894
1.16894
1.16894
1.16894
1.16895
1.16895
1.16895
1.16895
1.16895
1.16896
1.16896
1.16896
1.16897
1.16899
1.16905
1.16949
1.17101
1.17418
1.18177
1.20201
1.22653
1.31538
1.36949
1.34023
1.28097
1.21529
1.16897
372.536
971.056
985.46
983.157
982.444
981.222
978.199
974.777
971.417
970.399
970.056
970.194
970.499
968.208
963.965
960.634
957.49
954.207
950.506
946.012
940.965
937.591
936.221
935.557
926.456
913.159
908.053
905.649
903.659
900.1
889.726
875.397
861.201
846.954
830.661
790.978
592.646
1.16124
1.16068
1.16128
1.16206
1.16313
1.16426
1.16565
1.16683
1.16775
1.16819
1.1685
1.16871
1.16882
1.16888
1.1689
1.16891
1.16892
1.16892
1.16892
1.16892
1.16892
1.16892
1.16893
1.16893
1.16893
1.16893
1.16893
1.16893
1.16893
1.16894
1.16894
1.16894
1.16894
1.16894
1.16894
1.16895
1.16895
1.16895
1.16895
1.16895
1.16896
1.16896
1.16896
1.16897
1.16897
1.16899
1.16905
1.16951
1.17118
1.17539
1.18965
1.23609
1.25465
1.25595
1.25459
1.23379
1.22124
1.21139
1.16897
207.481
991.567
1010.68
1009.57
1008.95
1006.22
1001.26
997.175
994.198
991.428
989.303
988.498
988.663
989.282
989.338
991.259
995.415
1000.88
1006.7
1012.04
1016.63
1020.17
1022.25
1022.71
1022.41
1022.14
1022.02
1022.38
1023.37
1024.13
1024.99
1025.95
1026.26
1026.11
1026.01
1025.81
1025.78
1.1612
1.16057
1.16084
1.16149
1.16239
1.16356
1.16537
1.16678
1.16774
1.1682
1.1685
1.16872
1.16883
1.16888
1.1689
1.16892
1.16892
1.16892
1.16892
1.16892
1.16892
1.16892
1.16893
1.16893
1.16893
1.16893
1.16893
1.16893
1.16894
1.16894
1.16894
1.16894
1.16894
1.16894
1.16895
1.16895
1.16895
1.16895
1.16895
1.16895
1.16896
1.16896
1.16896
1.16897
1.16897
1.16899
1.16903
1.16945
1.17121
1.17653
1.19552
1.24793
1.25491
1.25743
1.2597
1.2623
1.26426
1.23808
1.19485
121.784
1013.96
1024.26
1024.02
1024.21
1024
1022.72
1021.59
1021.01
1020.66
1020.48
1020.11
1019.36
1019.26
1020.96
1022.74
1024.33
1025.56
1026.42
1026.85
1027.02
1027.08
1027.09
1027.09
1027.09
1027.09
1027.09
1027.09
1027.09
1027.1
1027.1
1027.1
1027.1
1027.1
1027.1
1027.1
1027.1
1.161
1.16051
1.16049
1.16087
1.16148
1.16252
1.16489
1.16675
1.16773
1.1682
1.16851
1.16873
1.16884
1.16889
1.1689
1.16892
1.16892
1.16892
1.16892
1.16892
1.16892
1.16893
1.16893
1.16893
1.16893
1.16893
1.16893
1.16893
1.16894
1.16894
1.16894
1.16894
1.16894
1.16894
1.16895
1.16895
1.16895
1.16895
1.16895
1.16896
1.16896
1.16896
1.16896
1.16897
1.16897
1.16899
1.16903
1.16942
1.1711
1.17688
1.18731
1.208
1.24355
1.24032
1.23579
1.24567
1.30254
1.32482
1.24987
83.4129
1020.19
1026.94
1026.91
1026.93
1026.94
1026.93
1026.89
1026.88
1026.88
1026.89
1026.89
1026.9
1026.91
1026.98
1027.04
1027.07
1027.09
1027.09
1027.1
1027.1
1027.1
1027.1
1027.1
1027.1
1027.1
1027.1
1027.1
1027.1
1027.1
1027.1
1027.1
1027.1
1027.1
1027.1
1027.1
1027.1
1.16077
1.16031
1.16026
1.16031
1.16065
1.16155
1.16411
1.16673
1.16774
1.16822
1.16854
1.16876
1.16885
1.16889
1.1689
1.16891
1.16892
1.16892
1.16892
1.16892
1.16892
1.16893
1.16893
1.16893
1.16893
1.16893
1.16893
1.16893
1.16894
1.16894
1.16894
1.16894
1.16894
1.16894
1.16895
1.16895
1.16895
1.16895
1.16895
1.16895
1.16896
1.16896
1.16896
1.16897
1.16897
1.16899
1.16903
1.1694
1.17097
1.17697
1.19185
1.20523
1.22704
1.22894
1.23191
1.23892
1.26673
1.40067
1.50672
47.3243
981.518
1027.1
1027.09
1027.09
1027.09
1027.1
1027.1
1027.09
1027.09
1027.09
1027.1
1027.1
1027.1
1027.1
1027.1
1027.1
1027.1
1027.1
1027.1
1027.1
1027.1
1027.1
1027.1
1027.1
1027.1
1027.1
1027.1
1027.1
1027.1
1027.1
1027.1
1027.1
1027.1
1027.1
1027.1
1027.1
1.1605
1.16015
1.16014
1.1601
1.16023
1.16075
1.16265
1.16611
1.16771
1.16828
1.16859
1.16878
1.16885
1.16888
1.1689
1.16891
1.16892
1.16892
1.16892
1.16892
1.16892
1.16893
1.16893
1.16893
1.16893
1.16893
1.16893
1.16893
1.16894
1.16894
1.16894
1.16894
1.16894
1.16894
1.16894
1.16895
1.16895
1.16895
1.16895
1.16895
1.16896
1.16896
1.16896
1.16896
1.16897
1.16899
1.16902
1.16943
1.1712
1.17775
1.1938
1.21152
1.22116
1.22613
1.23725
1.26777
1.32263
1.52781
2.19571
39.051
967.663
1027.1
1027.09
1027.1
1027.1
1027.1
1027.1
1027.1
1027.1
1027.1
1027.1
1027.1
1027.1
1027.1
1027.1
1027.1
1027.1
1027.1
1027.1
1027.1
1027.1
1027.1
1027.1
1027.1
1027.1
1027.1
1027.1
1027.1
1027.1
1027.1
1027.1
1027.1
1027.1
1027.1
1027.1
1027.1
1.1604
1.1601
1.16009
1.16006
1.16006
1.16021
1.16101
1.16448
1.16743
1.16831
1.16862
1.16879
1.16883
1.16886
1.16889
1.16891
1.16891
1.16892
1.16892
1.16892
1.16892
1.16892
1.16892
1.16893
1.16893
1.16893
1.16893
1.16893
1.16893
1.16893
1.16893
1.16894
1.16894
1.16894
1.16894
1.16894
1.16894
1.16894
1.16895
1.16895
1.16895
1.16895
1.16896
1.16896
1.16897
1.16898
1.16901
1.1695
1.17208
1.18091
1.19668
1.212
1.22133
1.22641
1.23099
1.25636
1.32728
1.64228
2.4079
41.4913
970.716
1027.1
1027.1
1027.1
1027.1
1027.1
1027.1
1027.1
1027.1
1027.1
1027.1
1027.1
1027.1
1027.1
1027.1
1027.1
1027.1
1027.1
1027.1
1027.1
1027.1
1027.1
1027.1
1027.1
1027.1
1027.1
1027.1
1027.1
1027.1
1027.1
1027.1
1027.1
1027.1
1027.1
1027.1
1027.1
1.16047
1.16021
1.16016
1.16007
1.16005
1.16012
1.1603
1.16252
1.1668
1.16827
1.16863
1.16875
1.1688
1.16884
1.16888
1.16891
1.16891
1.16891
1.16892
1.16892
1.16892
1.16892
1.16892
1.16892
1.16893
1.16893
1.16893
1.16893
1.16893
1.16893
1.16893
1.16893
1.16893
1.16894
1.16894
1.16894
1.16894
1.16894
1.16894
1.16895
1.16895
1.16895
1.16895
1.16896
1.16896
1.16898
1.16902
1.1696
1.17263
1.18226
1.1978
1.21232
1.22097
1.22539
1.22759
1.2473
1.40285
1.77843
2.80356
45.1176
962.17
1027
1027.1
1027.1
1027.1
1027.1
1027.1
1027.1
1027.1
1027.1
1027.1
1027.1
1027.1
1027.1
1027.1
1027.1
1027.1
1027.1
1027.1
1027.1
1027.1
1027.1
1027.1
1027.1
1027.1
1027.1
1027.1
1027.1
1027.1
1027.1
1027.1
1027.1
1027.1
1027.1
1027.1
1027.1
1.16032
1.1607
1.16062
1.16052
1.16024
1.1601
1.16015
1.16136
1.16589
1.16806
1.16856
1.16872
1.16878
1.16883
1.16888
1.16891
1.16892
1.16892
1.16892
1.16892
1.16892
1.16892
1.16893
1.16893
1.16893
1.16893
1.16893
1.16893
1.16894
1.16894
1.16894
1.16894
1.16894
1.16894
1.16895
1.16895
1.16895
1.16895
1.16895
1.16896
1.16896
1.16896
1.16896
1.16897
1.16897
1.16899
1.16903
1.16962
1.17265
1.18217
1.19736
1.21216
1.22163
1.22683
1.22952
1.25098
1.36795
1.83351
2.39931
39.9589
962.836
1026.81
1027.1
1027.1
1027.1
1027.1
1027.1
1027.1
1027.1
1027.1
1027.1
1027.1
1027.1
1027.1
1027.1
1027.1
1027.1
1027.1
1027.1
1027.1
1027.1
1027.1
1027.1
1027.1
1027.1
1027.1
1027.1
1027.1
1027.1
1027.1
1027.1
1027.1
1027.1
1027.1
1027.1
1027.1
1.16158
1.16279
1.16384
1.16442
1.16486
1.16561
1.16701
1.16838
1.16876
1.16881
1.16884
1.16888
1.1689
1.16891
1.16891
1.16892
1.16892
1.16892
1.16892
1.16892
1.16892
1.16892
1.16893
1.16893
1.16893
1.16893
1.16893
1.16893
1.16894
1.16894
1.16894
1.16894
1.16894
1.16895
1.16895
1.16895
1.16895
1.16895
1.16895
1.16896
1.16896
1.16896
1.16896
1.16897
1.16896
1.16897
1.16898
1.16908
1.17021
1.17639
1.19076
1.21142
1.22727
1.24015
1.25554
1.28259
1.30979
1.78478
4.71409
85.2153
986.663
1026.9
1027.09
1027.1
1027.1
1027.1
1027.1
1027.1
1027.1
1027.1
1027.1
1027.1
1027.1
1027.1
1027.1
1027.1
1027.1
1027.1
1027.1
1027.1
1027.1
1027.1
1027.1
1027.1
1027.1
1027.1
1027.1
1027.1
1027.1
1027.1
1027.1
1027.1
1027.1
1027.1
1027.1
1027.1
1.16078
1.16194
1.16445
1.16489
1.16527
1.16596
1.16739
1.16843
1.16863
1.16869
1.16876
1.16883
1.16887
1.1689
1.16891
1.16891
1.16892
1.16892
1.16892
1.16892
1.16892
1.16893
1.16893
1.16893
1.16893
1.16893
1.16893
1.16894
1.16894
1.16894
1.16894
1.16894
1.16894
1.16895
1.16895
1.16895
1.16895
1.16895
1.16895
1.16896
1.16896
1.16896
1.16896
1.16897
1.16896
1.16898
1.16899
1.1691
1.17002
1.17533
1.18733
1.20821
1.22701
1.23675
1.24657
1.27899
1.38491
1.7305
3.43419
94.4974
999.52
1027.08
1027.1
1027.1
1027.1
1027.1
1027.1
1027.1
1027.1
1027.1
1027.1
1027.1
1027.1
1027.1
1027.1
1027.1
1027.1
1027.1
1027.1
1027.1
1027.1
1027.1
1027.1
1027.1
1027.1
1027.1
1027.1
1027.1
1027.1
1027.1
1027.1
1027.1
1027.1
1027.1
1027.1
1027.1
1.16066
1.1614
1.16446
1.16521
1.16576
1.16646
1.16765
1.16829
1.16844
1.16853
1.16869
1.16879
1.16886
1.16889
1.1689
1.16891
1.16891
1.16891
1.16891
1.16892
1.16892
1.16892
1.16892
1.16892
1.16892
1.16893
1.16893
1.16893
1.16893
1.16893
1.16893
1.16893
1.16894
1.16894
1.16894
1.16894
1.16894
1.16894
1.16895
1.16895
1.16895
1.16895
1.16895
1.16896
1.16896
1.16898
1.16899
1.16917
1.17016
1.1744
1.18274
1.20002
1.22514
1.23743
1.25344
1.28678
1.35157
1.6411
1.77704
105.158
1019.58
1027.09
1027.1
1027.1
1027.1
1027.1
1027.1
1027.1
1027.1
1027.1
1027.1
1027.1
1027.1
1027.1
1027.1
1027.1
1027.1
1027.1
1027.1
1027.1
1027.1
1027.1
1027.1
1027.1
1027.1
1027.1
1027.1
1027.1
1027.1
1027.1
1027.1
1027.1
1027.1
1027.1
1027.1
1027.1
1.16075
1.16112
1.16414
1.16517
1.16582
1.16669
1.16758
1.16807
1.16828
1.16846
1.16865
1.16878
1.16885
1.16889
1.1689
1.16891
1.16891
1.16891
1.16891
1.16892
1.16892
1.16892
1.16892
1.16892
1.16892
1.16892
1.16892
1.16893
1.16893
1.16893
1.16893
1.16893
1.16893
1.16894
1.16894
1.16894
1.16894
1.16894
1.16894
1.16895
1.16895
1.16895
1.16895
1.16896
1.16896
1.16898
1.169
1.16932
1.17122
1.17657
1.18391
1.19571
1.22049
1.2418
1.2606
1.27054
1.34409
1.47903
1.67923
115.383
1021.9
1027.08
1027.09
1027.09
1027.09
1027.1
1027.1
1027.1
1027.1
1027.1
1027.1
1027.1
1027.1
1027.1
1027.1
1027.1
1027.1
1027.1
1027.1
1027.1
1027.1
1027.1
1027.1
1027.1
1027.1
1027.1
1027.1
1027.1
1027.1
1027.1
1027.1
1027.1
1027.1
1027.1
1027.1
1027.1
1.16085
1.1609
1.16373
1.16508
1.16572
1.16663
1.16743
1.16786
1.16818
1.16842
1.16863
1.16877
1.16884
1.16888
1.1689
1.16891
1.16891
1.16891
1.16891
1.16892
1.16892
1.16892
1.16892
1.16892
1.16892
1.16892
1.16892
1.16893
1.16893
1.16893
1.16893
1.16893
1.16893
1.16894
1.16894
1.16894
1.16894
1.16894
1.16894
1.16895
1.16895
1.16895
1.16895
1.16896
1.16896
1.16899
1.16901
1.16943
1.17133
1.17536
1.17997
1.19194
1.2165
1.23693
1.24122
1.28492
1.44934
1.52893
1.65278
156.185
1020.53
1026.5
1026.64
1026.88
1026.98
1027.05
1027.08
1027.09
1027.1
1027.1
1027.1
1027.1
1027.1
1027.1
1027.1
1027.1
1027.1
1027.1
1027.1
1027.1
1027.1
1027.1
1027.1
1027.1
1027.1
1027.1
1027.1
1027.1
1027.1
1027.1
1027.1
1027.1
1027.1
1027.1
1027.1
1027.1
1.16088
1.16074
1.16339
1.16502
1.16556
1.16657
1.16726
1.16777
1.16818
1.16843
1.16863
1.16876
1.16883
1.16887
1.1689
1.1689
1.16891
1.16891
1.16891
1.16891
1.16892
1.16892
1.16892
1.16892
1.16892
1.16892
1.16892
1.16893
1.16893
1.16893
1.16893
1.16893
1.16893
1.16894
1.16894
1.16894
1.16894
1.16894
1.16894
1.16895
1.16895
1.16895
1.16895
1.16896
1.16896
1.16898
1.16902
1.16926
1.17009
1.1721
1.17623
1.19286
1.21181
1.22025
1.27091
1.37068
1.57406
1.5957
1.61948
199.145
1009.34
1021.64
1022.34
1024.03
1025.1
1025.85
1026.43
1026.78
1026.98
1027.04
1027.05
1027.05
1027.05
1027.05
1027.05
1027.05
1027.05
1027.04
1027.04
1027.03
1027.03
1027.03
1027.03
1027.04
1027.05
1027.05
1027.04
1027.05
1027.07
1027.09
1027.1
1027.1
1027.1
1027.1
1027.1
1027.1
1.16089
1.16051
1.1627
1.16452
1.1654
1.16653
1.16734
1.16788
1.16826
1.16851
1.16865
1.16875
1.1688
1.16886
1.16889
1.1689
1.1689
1.16891
1.16891
1.16891
1.16892
1.16892
1.16892
1.16892
1.16893
1.16893
1.16893
1.16893
1.16893
1.16893
1.16893
1.16894
1.16894
1.16894
1.16894
1.16894
1.16894
1.16895
1.16895
1.16895
1.16895
1.16895
1.16895
1.16896
1.16896
1.16899
1.16904
1.16926
1.17054
1.17522
1.18352
1.1946
1.20084
1.22884
1.32769
1.49387
1.50457
1.46023
1.4307
254.469
999.078
1013.39
1014.23
1016.26
1018.53
1020.21
1020.99
1021.47
1022.92
1024.4
1025.1
1025.28
1025.12
1025.02
1024.63
1024.22
1023.85
1023.46
1022.58
1021.55
1020.75
1020.28
1020.39
1021.14
1021.29
1021.58
1022.24
1022.43
1022.57
1025.04
1026.06
1026.65
1026.99
1027.07
1027.09
1027.1
1.1609
1.16066
1.162
1.16361
1.16504
1.16617
1.16716
1.16784
1.1683
1.16843
1.16863
1.16874
1.16879
1.16885
1.16889
1.1689
1.1689
1.1689
1.16891
1.16891
1.16891
1.16891
1.16892
1.16892
1.16892
1.16892
1.16892
1.16892
1.16892
1.16893
1.16893
1.16893
1.16893
1.16893
1.16893
1.16894
1.16894