/*--------------------------------*- C++ -*----------------------------------*\
| =========                 |                                                 |
| \\      /  F ield         | OpenFOAM: The Open Source CFD Toolbox           |
|  \\    /   O peration     | Version:  2.3.0                                 |
|   \\  /    A nd           | Web:      www.OpenFOAM.org                      |
|    \\/     M anipulation  |                                                 |
\*---------------------------------------------------------------------------*/
FoamFile
{
    version     2.0;
    format      ascii;
    class       volScalarField;
    location    "44";
    object      rho;
}
// * * * * * * * * * * * * * * * * * * * * * * * * * * * * * * * * * * * * * //

dimensions      [1 -3 0 0 0 0 0];

internalField   nonuniform List<scalar> 
6144
(
1.16281
1.16358
1.16401
1.16447
1.16503
1.16615
1.16714
1.16797
1.16857
1.16883
1.16887
1.16888
1.16888
1.16889
1.16889
1.1689
1.1689
1.1689
1.1689
1.1689
1.1689
1.16891
1.16891
1.16891
1.16891
1.16891
1.16891
1.16891
1.16891
1.16892
1.16892
1.16892
1.16892
1.16892
1.16892
1.16892
1.16892
1.16892
1.16892
1.16892
1.16893
1.16893
1.16896
1.16936
1.17049
1.17219
1.17585
1.1862
1.20079
1.21186
1.22093
1.23113
1.2374
1.2384
1.23953
1.2458
1.24616
1.26153
2.39408
72.7025
980.638
1026.78
1027.09
1027.1
1027.1
1027.1
1027.1
1027.1
1027.1
1027.1
1027.1
1027.1
1027.1
1027.1
1027.1
1027.1
1027.1
1027.1
1027.1
1027.1
1027.1
1027.1
1027.1
1027.1
1027.1
1027.1
1027.1
1027.1
1027.1
1027.1
1027.1
1027.1
1027.1
1027.1
1027.1
1027.1
1.16245
1.16347
1.16429
1.16483
1.16557
1.1664
1.16724
1.16804
1.16859
1.16881
1.16887
1.16888
1.16889
1.1689
1.1689
1.16891
1.16891
1.16891
1.16891
1.16891
1.16891
1.16891
1.16891
1.16892
1.16892
1.16892
1.16892
1.16892
1.16892
1.16892
1.16893
1.16893
1.16893
1.16893
1.16893
1.16893
1.16893
1.16893
1.16893
1.16894
1.16894
1.16894
1.16899
1.16952
1.17123
1.17416
1.17703
1.17994
1.18625
1.19621
1.20796
1.22611
1.2455
1.2604
1.25614
1.25825
1.2556
1.26685
1.7836
47.0515
986.326
1026.88
1027.09
1027.1
1027.1
1027.1
1027.1
1027.1
1027.1
1027.1
1027.1
1027.1
1027.1
1027.1
1027.1
1027.1
1027.1
1027.1
1027.1
1027.1
1027.1
1027.1
1027.1
1027.1
1027.1
1027.1
1027.1
1027.1
1027.1
1027.1
1027.1
1027.1
1027.1
1027.1
1027.1
1027.1
1.16222
1.16312
1.16419
1.16488
1.16578
1.16654
1.16731
1.16796
1.16841
1.16866
1.16878
1.16884
1.16887
1.16889
1.1689
1.1689
1.16891
1.16891
1.16891
1.16891
1.16891
1.16891
1.16891
1.16892
1.16892
1.16892
1.16892
1.16892
1.16892
1.16892
1.16893
1.16893
1.16893
1.16893
1.16893
1.16893
1.16893
1.16893
1.16893
1.16893
1.16894
1.16895
1.16905
1.16977
1.17194
1.17644
1.18155
1.18503
1.18718
1.19236
1.20479
1.22609
1.25196
1.26838
1.26876
1.27193
1.26777
1.27623
1.61847
41.0618
1000.32
1026.98
1027.1
1027.1
1027.1
1027.1
1027.1
1027.1
1027.1
1027.1
1027.1
1027.1
1027.1
1027.1
1027.1
1027.1
1027.1
1027.1
1027.1
1027.1
1027.1
1027.1
1027.1
1027.1
1027.1
1027.1
1027.1
1027.1
1027.1
1027.1
1027.1
1027.1
1027.1
1027.1
1027.1
1027.1
1.1621
1.1628
1.16388
1.16459
1.16566
1.1665
1.16724
1.16784
1.16829
1.16858
1.16873
1.16881
1.16886
1.16888
1.16889
1.1689
1.1689
1.1689
1.1689
1.16891
1.16891
1.16891
1.16891
1.16891
1.16891
1.16891
1.16891
1.16892
1.16892
1.16892
1.16892
1.16892
1.16892
1.16892
1.16893
1.16893
1.16893
1.16893
1.16893
1.16893
1.16893
1.16895
1.16911
1.16989
1.17191
1.17581
1.18014
1.18422
1.19087
1.20362
1.22306
1.24726
1.26525
1.27294
1.26964
1.27192
1.26796
1.27669
1.55632
58.161
1006.86
1026.97
1027.07
1027.09
1027.09
1027.09
1027.09
1027.09
1027.09
1027.09
1027.09
1027.09
1027.09
1027.09
1027.09
1027.09
1027.09
1027.09
1027.09
1027.1
1027.1
1027.1
1027.1
1027.1
1027.1
1027.1
1027.1
1027.1
1027.1
1027.1
1027.1
1027.1
1027.1
1027.1
1027.1
1027.1
1.16197
1.16253
1.16358
1.16426
1.1653
1.16615
1.16713
1.16773
1.16818
1.1685
1.16869
1.1688
1.16886
1.16888
1.16889
1.1689
1.16891
1.16891
1.16891
1.16891
1.16891
1.16891
1.16891
1.16892
1.16892
1.16892
1.16892
1.16892
1.16892
1.16892
1.16892
1.16892
1.16892
1.16893
1.16893
1.16893
1.16893
1.16893
1.16893
1.16893
1.16894
1.16897
1.16917
1.16988
1.17161
1.17487
1.17814
1.1876
1.20833
1.23333
1.25347
1.27028
1.27455
1.27528
1.26975
1.27297
1.26886
1.27629
1.58967
106.17
1006.96
1024.99
1025.5
1026.01
1026.15
1026.26
1026.32
1026.35
1026.3
1026.27
1026.25
1026.25
1026.23
1026.22
1026.22
1026.28
1026.34
1026.42
1026.51
1026.6
1026.67
1026.74
1026.81
1026.86
1026.91
1026.96
1027.01
1027.04
1027.07
1027.08
1027.09
1027.1
1027.1
1027.1
1027.1
1027.1
1.16183
1.1623
1.16324
1.16388
1.16494
1.16573
1.16686
1.1676
1.16807
1.16842
1.16864
1.16878
1.16885
1.16888
1.16889
1.1689
1.1689
1.1689
1.1689
1.1689
1.16891
1.16891
1.16891
1.16891
1.16891
1.16891
1.16891
1.16891
1.16892
1.16892
1.16892
1.16892
1.16892
1.16892
1.16892
1.16892
1.16892
1.16892
1.16893
1.16893
1.16893
1.16898
1.16917
1.1698
1.17135
1.17358
1.18558
1.21805
1.24945
1.2695
1.27683
1.28274
1.27867
1.27876
1.27969
1.27965
1.27525
1.28431
1.91891
239.089
1005.98
1017.52
1017.89
1018.51
1018.9
1019.28
1019.6
1019.93
1020.06
1020.02
1019.89
1019.83
1019.91
1020.08
1020.23
1020.49
1020.74
1021.06
1021.45
1021.85
1022.23
1022.62
1022.98
1023.33
1023.69
1024.09
1024.49
1024.99
1025.49
1026
1026.45
1026.76
1026.95
1027.04
1027.07
1027.09
1.16167
1.16207
1.16287
1.16349
1.16463
1.16543
1.16641
1.16745
1.16798
1.16835
1.1686
1.16877
1.16885
1.16888
1.16889
1.1689
1.1689
1.16891
1.16891
1.16891
1.16891
1.16891
1.16891
1.16891
1.16891
1.16891
1.16892
1.16892
1.16892
1.16892
1.16892
1.16892
1.16892
1.16892
1.16892
1.16892
1.16892
1.16893
1.16893
1.16893
1.16893
1.16897
1.16914
1.16966
1.1711
1.17565
1.22483
1.26405
1.27651
1.28395
1.28541
1.2892
1.29006
1.28779
1.28269
1.28135
1.28205
1.28024
1.2688
388.442
1004.69
1011.28
1011.02
1011.19
1011.27
1011.24
1011.34
1011.36
1011.5
1011.5
1011.5
1011.56
1011.87
1012.28
1012.58
1012.83
1013.04
1013.34
1013.72
1014.22
1014.8
1015.47
1016.2
1016.99
1017.79
1018.64
1019.65
1021.03
1022.63
1024.37
1025.83
1026.63
1026.77
1026.67
1026.63
1026.99
1.16146
1.16184
1.16248
1.16309
1.16431
1.16524
1.16608
1.16725
1.16788
1.16831
1.16858
1.16876
1.16885
1.16888
1.16889
1.1689
1.1689
1.16891
1.16891
1.16891
1.16891
1.16891
1.16891
1.16891
1.16892
1.16892
1.16892
1.16892
1.16892
1.16892
1.16892
1.16893
1.16893
1.16893
1.16893
1.16893
1.16893
1.16893
1.16893
1.16894
1.16894
1.16897
1.1691
1.16959
1.17118
1.20223
1.2732
1.2815
1.27819
1.27689
1.27581
1.274
1.27323
1.27313
1.2755
1.28146
1.28824
1.29433
1.2688
211.04
999.338
1016.95
1016.72
1016.79
1016.33
1015.44
1014.71
1014
1013.43
1013.11
1012.96
1012.9
1012.94
1013.04
1013.03
1012.92
1012.66
1012.29
1012.03
1011.9
1011.86
1012.26
1012.81
1013.58
1014.63
1015.96
1017.47
1019.32
1021.46
1023.55
1025.42
1026.69
1027.1
1027.1
1027.1
1027.1
1.16122
1.1616
1.16203
1.16262
1.16388
1.16504
1.1661
1.16695
1.16779
1.16827
1.16855
1.16874
1.16883
1.16887
1.16888
1.16889
1.1689
1.1689
1.1689
1.1689
1.1689
1.16891
1.16891
1.16891
1.16891
1.16891
1.16891
1.16892
1.16892
1.16892
1.16892
1.16892
1.16892
1.16892
1.16892
1.16893
1.16893
1.16893
1.16893
1.16893
1.16894
1.16896
1.16905
1.16955
1.17171
1.24126
1.2768
1.27552
1.27405
1.27269
1.27219
1.27216
1.27256
1.27249
1.27197
1.2728
1.27111
1.32108
1.47852
134.101
1011.33
1025.73
1026.02
1026.36
1026.3
1026.23
1026.18
1026.18
1026.29
1026.4
1026.46
1026.49
1026.5
1026.43
1026.37
1026.33
1026.31
1026.34
1026.36
1026.38
1026.38
1026.38
1026.44
1026.52
1026.62
1026.72
1026.84
1026.95
1027.01
1027.02
1027.01
1027.01
1027.04
1027.08
1027.1
1027.1
1.16103
1.16128
1.16157
1.16206
1.16331
1.16471
1.16618
1.16673
1.16769
1.16827
1.16855
1.16873
1.16883
1.16887
1.16889
1.1689
1.1689
1.16891
1.16891
1.16891
1.16891
1.16891
1.16891
1.16891
1.16892
1.16892
1.16892
1.16892
1.16892
1.16892
1.16892
1.16892
1.16892
1.16892
1.16893
1.16893
1.16893
1.16893
1.16893
1.16893
1.16894
1.16896
1.16906
1.16959
1.17198
1.20327
1.27616
1.2781
1.27636
1.27607
1.27836
1.28169
1.28127
1.28145
1.27662
1.27735
1.26537
1.27828
1.34066
62.0863
1004.98
1027.05
1027.09
1027.09
1027.09
1027.09
1027.1
1027.1
1027.1
1027.1
1027.1
1027.1
1027.1
1027.1
1027.1
1027.1
1027.1
1027.1
1027.1
1027.1
1027.1
1027.1
1027.09
1027.09
1027.1
1027.1
1027.1
1027.1
1027.1
1027.1
1027.1
1027.1
1027.1
1027.1
1027.1
1027.1
1.16085
1.16104
1.16117
1.16153
1.16269
1.16411
1.1659
1.16693
1.16772
1.1683
1.16857
1.16873
1.16881
1.16886
1.16888
1.16889
1.1689
1.1689
1.1689
1.1689
1.16891
1.16891
1.16891
1.16891
1.16891
1.16892
1.16892
1.16892
1.16892
1.16892
1.16892
1.16892
1.16892
1.16892
1.16893
1.16893
1.16893
1.16893
1.16893
1.16893
1.16894
1.16896
1.16906
1.16965
1.1719
1.17637
1.23757
1.27192
1.27733
1.27994
1.28158
1.28354
1.2834
1.28235
1.27871
1.27871
1.26523
1.2863
1.39555
30.864
974.908
1026.93
1027.09
1027.09
1027.1
1027.1
1027.1
1027.1
1027.1
1027.1
1027.1
1027.1
1027.1
1027.1
1027.1
1027.1
1027.1
1027.1
1027.1
1027.1
1027.1
1027.1
1027.1
1027.1
1027.1
1027.1
1027.1
1027.1
1027.1
1027.1
1027.1
1027.1
1027.1
1027.1
1027.1
1027.1
1.16079
1.16091
1.16089
1.16103
1.16196
1.1633
1.16537
1.16706
1.16777
1.16836
1.16863
1.16874
1.16879
1.16883
1.16886
1.16888
1.1689
1.1689
1.1689
1.1689
1.16891
1.16891
1.16891
1.16891
1.16891
1.16892
1.16892
1.16892
1.16892
1.16892
1.16892
1.16892
1.16893
1.16893
1.16893
1.16893
1.16893
1.16893
1.16893
1.16894
1.16894
1.16896
1.16905
1.16964
1.17159
1.17501
1.19204
1.23706
1.26529
1.27541
1.27939
1.27967
1.27785
1.27508
1.27032
1.27014
1.26753
1.29442
1.41657
21.0998
950.163
1026.64
1027.09
1027.09
1027.1
1027.1
1027.1
1027.1
1027.1
1027.1
1027.1
1027.1
1027.1
1027.1
1027.1
1027.1
1027.1
1027.1
1027.1
1027.1
1027.1
1027.1
1027.1
1027.1
1027.1
1027.1
1027.1
1027.1
1027.1
1027.1
1027.1
1027.1
1027.1
1027.1
1027.1
1027.1
1.16069
1.16088
1.1608
1.16078
1.16126
1.16229
1.1641
1.16617
1.16782
1.1684
1.16866
1.16876
1.1688
1.16883
1.16886
1.16889
1.1689
1.16891
1.16891
1.16891
1.16891
1.16891
1.16891
1.16892
1.16892
1.16892
1.16892
1.16892
1.16892
1.16892
1.16893
1.16893
1.16893
1.16893
1.16893
1.16893
1.16893
1.16893
1.16894
1.16894
1.16895
1.16896
1.16905
1.16956
1.17117
1.17493
1.18074
1.20029
1.23379
1.25659
1.27001
1.27243
1.27207
1.27188
1.2711
1.27225
1.26922
1.30182
1.4569
20.1505
948.142
1026.64
1027.09
1027.09
1027.1
1027.1
1027.1
1027.1
1027.1
1027.1
1027.1
1027.1
1027.1
1027.1
1027.1
1027.1
1027.1
1027.1
1027.1
1027.1
1027.1
1027.1
1027.1
1027.1
1027.1
1027.1
1027.1
1027.1
1027.1
1027.1
1027.1
1027.1
1027.1
1027.1
1027.1
1027.1
1.16076
1.16113
1.16094
1.16088
1.16083
1.1615
1.16284
1.16497
1.16752
1.16841
1.16865
1.16874
1.16879
1.16882
1.16885
1.1689
1.16891
1.16891
1.16891
1.16891
1.16892
1.16892
1.16892
1.16892
1.16892
1.16892
1.16892
1.16893
1.16893
1.16893
1.16893
1.16893
1.16893
1.16893
1.16893
1.16893
1.16893
1.16894
1.16894
1.16894
1.16895
1.16896
1.16904
1.16945
1.17082
1.17442
1.18047
1.1893
1.21082
1.23242
1.25132
1.2608
1.26522
1.26828
1.26851
1.27048
1.26879
1.32429
1.5032
23.275
940.795
1026.58
1027.09
1027.1
1027.1
1027.1
1027.1
1027.1
1027.1
1027.1
1027.1
1027.1
1027.1
1027.1
1027.1
1027.1
1027.1
1027.1
1027.1
1027.1
1027.1
1027.1
1027.1
1027.1
1027.1
1027.1
1027.1
1027.1
1027.1
1027.1
1027.1
1027.1
1027.1
1027.1
1027.1
1027.1
1.16092
1.16149
1.16143
1.1614
1.16121
1.16117
1.16202
1.16367
1.16678
1.16837
1.16862
1.16871
1.16876
1.1688
1.16884
1.16889
1.16891
1.16891
1.16891
1.16891
1.16891
1.16892
1.16892
1.16892
1.16892
1.16892
1.16892
1.16892
1.16892
1.16893
1.16893
1.16893
1.16893
1.16893
1.16893
1.16893
1.16893
1.16894
1.16894
1.16894
1.16894
1.16896
1.16903
1.16943
1.17078
1.17425
1.18057
1.19046
1.20541
1.22367
1.24323
1.25278
1.25768
1.26096
1.2614
1.26452
1.27734
1.30695
1.41635
29.2887
954.622
1026.72
1027.09
1027.1
1027.1
1027.1
1027.1
1027.1
1027.1
1027.1
1027.1
1027.1
1027.1
1027.1
1027.1
1027.1
1027.1
1027.1
1027.1
1027.1
1027.1
1027.1
1027.1
1027.1
1027.1
1027.1
1027.1
1027.1
1027.1
1027.1
1027.1
1027.1
1027.1
1027.1
1027.1
1027.1
1.16056
1.16084
1.16077
1.16171
1.16206
1.16184
1.16181
1.1633
1.16622
1.16832
1.16858
1.16867
1.16872
1.16877
1.16883
1.1689
1.16892
1.16892
1.16892
1.16892
1.16892
1.16892
1.16892
1.16893
1.16893
1.16893
1.16893
1.16893
1.16893
1.16893
1.16893
1.16894
1.16894
1.16894
1.16894
1.16894
1.16894
1.16894
1.16894
1.16895
1.16895
1.16896
1.16904
1.16941
1.17068
1.17421
1.18217
1.19446
1.20935
1.22668
1.24216
1.25355
1.2548
1.26246
1.26064
1.26665
1.26622
1.29762
1.47208
38.8994
955.857
1026.57
1027.09
1027.1
1027.1
1027.1
1027.1
1027.1
1027.1
1027.1
1027.1
1027.1
1027.1
1027.1
1027.1
1027.1
1027.1
1027.1
1027.1
1027.1
1027.1
1027.1
1027.1
1027.1
1027.1
1027.1
1027.1
1027.1
1027.1
1027.1
1027.1
1027.1
1027.1
1027.1
1027.1
1027.1
1.16227
1.16344
1.16402
1.16448
1.16507
1.16637
1.16739
1.16815
1.1686
1.16875
1.1688
1.16885
1.16888
1.1689
1.16892
1.16892
1.16892
1.16892
1.16892
1.16892
1.16893
1.16893
1.16893
1.16893
1.16893
1.16893
1.16893
1.16893
1.16894
1.16894
1.16894
1.16894
1.16894
1.16894
1.16894
1.16895
1.16895
1.16895
1.16895
1.16895
1.16895
1.16896
1.16898
1.16932
1.17042
1.17219
1.17585
1.18677
1.20172
1.21182
1.21915
1.22883
1.23728
1.24687
1.24958
1.25654
1.25477
1.28004
1.84605
49.9854
981.184
1026.91
1027.1
1027.1
1027.1
1027.1
1027.1
1027.1
1027.1
1027.1
1027.1
1027.1
1027.1
1027.1
1027.1
1027.1
1027.1
1027.1
1027.1
1027.1
1027.1
1027.1
1027.1
1027.1
1027.1
1027.1
1027.1
1027.1
1027.1
1027.1
1027.1
1027.1
1027.1
1027.1
1027.1
1027.1
1.16148
1.16302
1.16451
1.1651
1.16591
1.16678
1.1675
1.168
1.16829
1.16848
1.16865
1.16877
1.16884
1.16888
1.1689
1.16891
1.16892
1.16892
1.16892
1.16892
1.16892
1.16892
1.16893
1.16893
1.16893
1.16893
1.16893
1.16893
1.16893
1.16893
1.16894
1.16894
1.16894
1.16894
1.16894
1.16894
1.16894
1.16894
1.16894
1.16895
1.16895
1.16897
1.16907
1.16959
1.1715
1.17507
1.17795
1.17997
1.18687
1.19542
1.20704
1.22338
1.24211
1.25844
1.26246
1.26848
1.26616
1.30458
1.62389
69.9407
1004.07
1027.07
1027.1
1027.1
1027.1
1027.1
1027.1
1027.1
1027.1
1027.1
1027.1
1027.1
1027.1
1027.1
1027.1
1027.1
1027.1
1027.1
1027.1
1027.1
1027.1
1027.1
1027.1
1027.1
1027.1
1027.1
1027.1
1027.1
1027.1
1027.1
1027.1
1027.1
1027.1
1027.1
1027.1
1027.1
1.16115
1.16222
1.16417
1.16499
1.16575
1.16642
1.16707
1.16759
1.16802
1.16833
1.16856
1.16873
1.16883
1.16887
1.16889
1.16891
1.16891
1.16891
1.16892
1.16892
1.16892
1.16892
1.16892
1.16892
1.16892
1.16893
1.16893
1.16893
1.16893
1.16893
1.16893
1.16893
1.16893
1.16893
1.16893
1.16894
1.16894
1.16894
1.16894
1.16894
1.16895
1.16898
1.16914
1.16983
1.17175
1.17531
1.18004
1.18305
1.18404
1.18884
1.20402
1.22708
1.25064
1.26679
1.26831
1.27184
1.26802
1.29456
1.63179
86.8688
1016.52
1027.09
1027.1
1027.1
1027.1
1027.1
1027.1
1027.1
1027.1
1027.1
1027.1
1027.1
1027.1
1027.1
1027.1
1027.1
1027.1
1027.1
1027.1
1027.1
1027.1
1027.1
1027.1
1027.1
1027.1
1027.1
1027.1
1027.1
1027.1
1027.1
1027.1
1027.1
1027.1
1027.1
1027.1
1027.1
1.16103
1.16153
1.16344
1.16435
1.16518
1.16598
1.16673
1.16734
1.16788
1.16828
1.16853
1.16872
1.16882
1.16887
1.16889
1.16891
1.16891
1.16891
1.16891
1.16891
1.16892
1.16892
1.16892
1.16892
1.16892
1.16892
1.16892
1.16892
1.16893
1.16893
1.16893
1.16893
1.16893
1.16893
1.16893
1.16893
1.16893
1.16893
1.16894
1.16894
1.16895
1.16898
1.16914
1.16981
1.17155
1.17446
1.17857
1.18287
1.1876
1.19873
1.22194
1.24954
1.2666
1.27319
1.27182
1.27344
1.27028
1.28843
1.47297
88.7946
1018.4
1027.06
1027.07
1027.09
1027.09
1027.09
1027.09
1027.09
1027.09
1027.09
1027.09
1027.09
1027.09
1027.09
1027.09
1027.09
1027.09
1027.09
1027.09
1027.09
1027.09
1027.09
1027.09
1027.1
1027.1
1027.1
1027.1
1027.1
1027.1
1027.1
1027.1
1027.1
1027.1
1027.1
1027.1
1027.1
1.16096
1.16109
1.16286
1.16389
1.16478
1.16565
1.1665
1.16719
1.1678
1.16825
1.16852
1.16871
1.16882
1.16887
1.16888
1.1689
1.16891
1.16891
1.16891
1.16891
1.16891
1.16892
1.16892
1.16892
1.16892
1.16892
1.16892
1.16892
1.16892
1.16893
1.16893
1.16893
1.16893
1.16893
1.16893
1.16893
1.16893
1.16893
1.16894
1.16894
1.16895
1.16898
1.16913
1.1698
1.17163
1.17442
1.17865
1.18868
1.20795
1.23434
1.2565
1.27274
1.2764
1.27611
1.27329
1.27409
1.274
1.29727
1.40981
165.437
1012.14
1024.73
1025.24
1025.89
1026.01
1026.16
1026.1
1026.03
1025.96
1025.91
1025.9
1025.93
1025.89
1025.85
1025.8
1025.73
1025.68
1025.74
1025.79
1025.81
1025.81
1025.78
1025.76
1025.76
1025.88
1026.03
1026.23
1026.44
1026.61
1026.75
1026.87
1026.97
1027.04
1027.08
1027.09
1027.1
1.16086
1.16076
1.16222
1.16343
1.16443
1.1654
1.16634
1.16709
1.16776
1.16824
1.16852
1.16871
1.16882
1.16886
1.16888
1.1689
1.16891
1.16891
1.16891
1.16891
1.16891
1.16891
1.16892
1.16892
1.16892
1.16892
1.16892
1.16892
1.16892
1.16892
1.16893
1.16893
1.16893
1.16893
1.16893
1.16893
1.16893
1.16893
1.16893
1.16894
1.16895
1.16898
1.16912
1.16978
1.1718
1.17475
1.18795
1.22039
1.25162
1.27218
1.27804
1.28151
1.27924
1.27513
1.27513
1.27979
1.29128
1.33977
1.47648
363.183
1001.9
1010.46
1010.82
1011.03
1010.57
1010.23
1009.9
1009.36
1008.25
1006.91
1005.68
1004.81
1004.12
1003.61
1003.23
1002.98
1002.87
1002.94
1002.97
1002.95
1003.01
1003.6
1004.14
1004.94
1006.37
1007.68
1009.2
1010.52
1011.74
1013
1014.84
1017.41
1020.23
1022.92
1025.11
1026.25
1.16076
1.16052
1.16163
1.16288
1.16409
1.16519
1.16623
1.16704
1.16775
1.16824
1.16852
1.16871
1.16882
1.16886
1.16888
1.1689
1.16891
1.16891
1.16891
1.16891
1.16891
1.16891
1.16892
1.16892
1.16892
1.16892
1.16892
1.16892
1.16892
1.16892
1.16893
1.16893
1.16893
1.16893
1.16893
1.16893
1.16893
1.16893
1.16893
1.16894
1.16895
1.16897
1.16911
1.16981
1.17205
1.1787
1.22584
1.26472
1.27819
1.28371
1.283
1.28401
1.28289
1.28159
1.2873
1.29638
1.31017
1.33083
1.30739
632.193
995.432
996.75
996.145
995.743
995.197
994.357
993.494
992.69
991.997
991.548
991.343
991.279
991.318
991.457
991.456
991.084
989.791
988.273
986.666
984.935
983.098
981.009
978.683
976.396
974.484
972.757
970.459
966.864
962.762
958.874
956.032
954.805
957.512
962.583
970.142
978.108
1.16068
1.16037
1.16115
1.16224
1.16366
1.16496
1.16612
1.167
1.16774
1.16824
1.16852
1.16872
1.16882
1.16886
1.16888
1.1689
1.16891
1.16891
1.16891
1.16891
1.16891
1.16891
1.16892
1.16892
1.16892
1.16892
1.16892
1.16892
1.16892
1.16893
1.16893
1.16893
1.16893
1.16893
1.16893
1.16893
1.16893
1.16893
1.16893
1.16894
1.16895
1.16897
1.16911
1.16978
1.17223
1.19326
1.26897
1.28155
1.28008
1.28008
1.28215
1.28491
1.28814
1.2919
1.29512
1.29686
1.29762
1.29704
1.2688
310.483
1005.61
1014
1013.99
1013.94
1013.47
1012.68
1011.85
1010.98
1009.98
1008.69
1007
1005.06
1002.93
1000.72
998.426
995.926
993.389
990.968
988.263
985.418
982.592
979.791
976.273
972.277
968.297
964.437
959.798
953.366
944.701
934.044
922.723
909.667
893.856
871.656
824.731
624.853
1.16058
1.16026
1.16071
1.16156
1.16301
1.16455
1.16597
1.16696
1.16774
1.16825
1.16853
1.16872
1.16882
1.16887
1.16888
1.1689
1.16891
1.16891
1.16891
1.16891
1.16891
1.16892
1.16892
1.16892
1.16892
1.16892
1.16892
1.16892
1.16893
1.16893
1.16893
1.16893
1.16893
1.16893
1.16893
1.16893
1.16893
1.16894
1.16894
1.16894
1.16895
1.16897
1.16909
1.16969
1.172
1.20718
1.27634
1.27784
1.2778
1.27842
1.28189
1.28506
1.28767
1.28912
1.28804
1.27981
1.27237
1.274
1.2688
131.921
1013.62
1025.96
1026.13
1026.35
1026.36
1026.26
1026.14
1026.02
1025.91
1025.78
1025.57
1025.31
1024.97
1024.56
1024.14
1023.7
1023.23
1022.75
1022.24
1021.72
1021.31
1021.04
1020.99
1021.21
1021.36
1021.65
1022.15
1023.32
1025.25
1026.44
1025.91
1025.51
1024.85
1023.71
1021.97
1020.4
1.16048
1.16019
1.16036
1.16093
1.16215
1.16392
1.1657
1.16692
1.16775
1.16827
1.16854
1.16873
1.16883
1.16887
1.16888
1.16891
1.16891
1.16891
1.16891
1.16891
1.16892
1.16892
1.16892
1.16892
1.16892
1.16892
1.16892
1.16893
1.16893
1.16893
1.16893
1.16893
1.16893
1.16893
1.16893
1.16893
1.16894
1.16894
1.16894
1.16894
1.16895
1.16897
1.16909
1.16962
1.17164
1.17744
1.26776
1.27837
1.27836
1.27837
1.27918
1.27987
1.27972
1.28168
1.27863
1.27782
1.26793
1.28113
1.2688
81.6837
1021.96
1027.06
1027.06
1027.07
1027.08
1027.07
1027.07
1027.07
1027.06
1027.06
1027.06
1027.05
1027.05
1027.04
1027.03
1027.02
1027.01
1027.01
1027.01
1027.01
1027
1027
1027.01
1027.03
1027.04
1027.06
1027.07
1027.09
1027.1
1027.1
1027.1
1027.1
1027.1
1027.1
1027.1
1027.1
1.1604
1.16014
1.16016
1.16038
1.16121
1.16294
1.16511
1.16672
1.16774
1.16828
1.16856
1.16874
1.16883
1.16887
1.16888
1.16891
1.16891
1.16891
1.16891
1.16892
1.16892
1.16892
1.16892
1.16892
1.16892
1.16892
1.16893
1.16893
1.16893
1.16893
1.16893
1.16893
1.16893
1.16893
1.16893
1.16893
1.16894
1.16894
1.16894
1.16894
1.16895
1.16897
1.16909
1.16959
1.17131
1.17626
1.21104
1.26011
1.27586
1.27918
1.28032
1.28205
1.28162
1.27883
1.27305
1.27207
1.26469
1.30563
1.27609
40.2971
1005.46
1027.09
1027.09
1027.09
1027.09
1027.1
1027.1
1027.1
1027.1
1027.1
1027.1
1027.1
1027.1
1027.1
1027.1
1027.1
1027.1
1027.1
1027.1
1027.1
1027.1
1027.1
1027.1
1027.1
1027.1
1027.1
1027.1
1027.1
1027.1
1027.1
1027.1
1027.1
1027.1
1027.1
1027.1
1027.1
1.16036
1.16009
1.16008
1.16008
1.16046
1.16164
1.16392
1.16622
1.16775
1.16832
1.16859
1.16876
1.16884
1.16886
1.16888
1.1689
1.16891
1.16891
1.16891
1.16892
1.16892
1.16892
1.16892
1.16892
1.16892
1.16892
1.16893
1.16893
1.16893
1.16893
1.16893
1.16893
1.16893
1.16893
1.16893
1.16893
1.16894
1.16894
1.16894
1.16894
1.16895
1.16897
1.16909
1.16955
1.17103
1.17577
1.18471
1.21795
1.25029
1.26562
1.27511
1.27492
1.26872
1.26307
1.26146
1.26244
1.2639
1.35988
1.33805
23.856
987.554
1027.09
1027.09
1027.09
1027.1
1027.1
1027.1
1027.1
1027.1
1027.1
1027.1
1027.1
1027.1
1027.1
1027.1
1027.1
1027.1
1027.1
1027.1
1027.1
1027.1
1027.1
1027.1
1027.1
1027.1
1027.1
1027.1
1027.1
1027.1
1027.1
1027.1
1027.1
1027.1
1027.1
1027.1
1027.1
1.16035
1.1601
1.16006
1.16003
1.16006
1.16048
1.16198
1.16476
1.16749
1.16836
1.16861
1.16877
1.16884
1.16885
1.16887
1.1689
1.16891
1.16891
1.16891
1.16891
1.16892
1.16892
1.16892
1.16892
1.16892
1.16892
1.16893
1.16893
1.16893
1.16893
1.16893
1.16893
1.16893
1.16893
1.16893
1.16893
1.16894
1.16894
1.16894
1.16894
1.16895
1.16897
1.16907
1.16945
1.17076
1.17548
1.18587
1.20059
1.22368
1.24283
1.25486
1.24926
1.24923
1.25966
1.26099
1.26453
1.28195
1.42537
1.38225
26.4463
1001.87
1027.09
1027.09
1027.09
1027.1
1027.1
1027.1
1027.1
1027.1
1027.1
1027.1
1027.1
1027.1
1027.1
1027.1
1027.1
1027.1
1027.1
1027.1
1027.1
1027.1
1027.1
1027.1
1027.1
1027.1
1027.1
1027.1
1027.1
1027.1
1027.1
1027.1
1027.1
1027.1
1027.1
1027.1
1027.1
1.16047
1.16043
1.16031
1.16025
1.15999
1.16001
1.16042
1.16232
1.16626
1.1684
1.16865
1.16877
1.16881
1.16882
1.16885
1.16889
1.16891
1.16891
1.16891
1.16891
1.16891
1.16892
1.16892
1.16892
1.16892
1.16892
1.16892
1.16892
1.16892
1.16892
1.16892
1.16893
1.16893
1.16893
1.16893
1.16893
1.16893
1.16893
1.16893
1.16894
1.16894
1.16896
1.16903
1.16935
1.17063
1.17498
1.18463
1.1993
1.21552
1.22981
1.23677
1.24579
1.25366
1.2643
1.2618
1.26641
1.31959
1.48975
1.41287
74.0355
1010.8
1027.09
1027.09
1027.09
1027.1
1027.1
1027.1
1027.1
1027.1
1027.1
1027.1
1027.1
1027.1
1027.1
1027.1
1027.1
1027.1
1027.1
1027.1
1027.1
1027.1
1027.1
1027.1
1027.1
1027.1
1027.1
1027.1
1027.1
1027.1
1027.1
1027.1
1027.1
1027.1
1027.1
1027.1
1027.1
1.16068
1.16079
1.16072
1.16078
1.16042
1.1601
1.16002
1.16052
1.16407
1.16832
1.16867
1.16872
1.16875
1.16877
1.16882
1.16889
1.16891
1.16891
1.16891
1.16891
1.16891
1.16891
1.16892
1.16892
1.16892
1.16892
1.16892
1.16892
1.16892
1.16892
1.16892
1.16892
1.16892
1.16892
1.16892
1.16892
1.16893
1.16893
1.16893
1.16893
1.16894
1.16895
1.16901
1.16934
1.17061
1.17444
1.18307
1.19598
1.21051
1.22563
1.23838
1.2506
1.25658
1.2637
1.26186
1.26531
1.3885
1.48636
1.41605
95.1636
1008.34
1027.08
1027.09
1027.1
1027.1
1027.1
1027.1
1027.1
1027.1
1027.1
1027.1
1027.1
1027.1
1027.1
1027.1
1027.1
1027.1
1027.1
1027.1
1027.1
1027.1
1027.1
1027.1
1027.1
1027.1
1027.1
1027.1
1027.1
1027.1
1027.1
1027.1
1027.1
1027.1
1027.1
1027.1
1027.1
1.1604
1.1608
1.16073
1.16114
1.16093
1.16022
1.16013
1.16026
1.16267
1.16802
1.16862
1.16868
1.16872
1.16875
1.16881
1.16889
1.16891
1.16891
1.16891
1.16892
1.16892
1.16892
1.16892
1.16892
1.16892
1.16892
1.16892
1.16893
1.16893
1.16893
1.16893
1.16893
1.16893
1.16893
1.16893
1.16894
1.16894
1.16894
1.16894
1.16894
1.16895
1.16896
1.16903
1.16938
1.17065
1.17442
1.18345
1.1968
1.21104
1.22606
1.24018
1.25342
1.25791
1.26333
1.26261
1.27347
1.30037
1.36955
1.46461
44.3168
965.843
1026.93
1027.09
1027.1
1027.1
1027.1
1027.1
1027.1
1027.1
1027.1
1027.1
1027.1
1027.1
1027.1
1027.1
1027.1
1027.1
1027.1
1027.1
1027.1
1027.1
1027.1
1027.1
1027.1
1027.1
1027.1
1027.1
1027.1
1027.1
1027.1
1027.1
1027.1
1027.1
1027.1
1027.1
1027.1
1.16187
1.16309
1.16388
1.16437
1.16502
1.16636
1.1674
1.16824
1.16864
1.16877
1.16882
1.16886
1.16888
1.1689
1.16891
1.16891
1.16891
1.16891
1.16892
1.16892
1.16892
1.16892
1.16892
1.16892
1.16892
1.16892
1.16892
1.16893
1.16893
1.16893
1.16893
1.16893
1.16893
1.16893
1.16894
1.16894
1.16894
1.16894
1.16894
1.16894
1.16894
1.16895
1.16897
1.16921
1.17007
1.17164
1.17506
1.18593
1.20253
1.21452
1.22323
1.23149
1.2392
1.24823
1.25162
1.25808
1.25724
1.27252
2.10466
53.7084
974.643
1026.71
1027.09
1027.1
1027.1
1027.1
1027.1
1027.1
1027.1
1027.1
1027.1
1027.1
1027.1
1027.1
1027.1
1027.1
1027.1
1027.1
1027.1
1027.1
1027.1
1027.1
1027.1
1027.1
1027.1
1027.1
1027.1
1027.1
1027.1
1027.1
1027.1
1027.1
1027.1
1027.1
1027.1
1027.1
1.16078
1.16197
1.16437
1.16483
1.16555
1.16668
1.16768
1.16825
1.16851
1.16864
1.16873
1.1688
1.16885
1.16888
1.1689
1.16891
1.16891
1.16891
1.16891
1.16892
1.16892
1.16892
1.16892
1.16892
1.16892
1.16892
1.16893
1.16893
1.16893
1.16893
1.16893
1.16893
1.16893
1.16893
1.16893
1.16893
1.16893
1.16894
1.16894
1.16894
1.16894
1.16896
1.169
1.16931
1.17055
1.17296
1.17592
1.18179
1.19485
1.20706
1.21694
1.23085
1.24723
1.25916
1.26386
1.26952
1.2672
1.2837
1.58235
57.0272
1004.33
1027.06
1027.1
1027.1
1027.1
1027.1
1027.1
1027.1
1027.1
1027.1
1027.1
1027.1
1027.1
1027.1
1027.1
1027.1
1027.1
1027.1
1027.1
1027.1
1027.1
1027.1
1027.1
1027.1
1027.1
1027.1
1027.1
1027.1
1027.1
1027.1
1027.1
1027.1
1027.1
1027.1
1027.1
1027.1
1.1605
1.1609
1.16434
1.16514
1.16585
1.16677
1.16761
1.16809
1.16833
1.1685
1.16865
1.16877
1.16884
1.16887
1.16889
1.1689
1.1689
1.1689
1.16891
1.16891
1.16891
1.16891
1.16891
1.16891
1.16892
1.16892
1.16892
1.16892
1.16892
1.16892
1.16892
1.16892
1.16892
1.16892
1.16892
1.16892
1.16892
1.16893
1.16893
1.16893
1.16894
1.16896
1.16906
1.16951
1.17106
1.17406
1.17719
1.17994
1.18746
1.20138
1.21662
1.23891
1.25773
1.26826
1.27196
1.27583
1.27375
1.28437
1.4271
79.4289
1018.46
1027.09
1027.1
1027.1
1027.1
1027.1
1027.1
1027.1
1027.1
1027.1
1027.1
1027.1
1027.1
1027.1
1027.1
1027.1
1027.1
1027.1
1027.1
1027.1
1027.1
1027.1
1027.1
1027.1
1027.1
1027.1
1027.1
1027.1
1027.1
1027.1
1027.1
1027.1
1027.1
1027.1
1027.1
1027.1
1.16049
1.16052
1.16366
1.16496
1.16579
1.16671
1.16744
1.16788
1.1682
1.16844
1.16863
1.16877
1.16884
1.16887
1.16889
1.1689
1.1689
1.16891
1.16891
1.16891
1.16891
1.16891
1.16891
1.16891
1.16891
1.16891
1.16891
1.16892
1.16892
1.16892
1.16892
1.16892
1.16892
1.16892
1.16892
1.16892
1.16892
1.16893
1.16893
1.16893
1.16894
1.16896
1.16907
1.16954
1.17095
1.17373
1.17727
1.17899
1.18388
1.19532
1.22111
1.25202
1.27042
1.27597
1.276
1.27803
1.27765
1.28867
1.34383
89.3797
1019.13
1027
1027.05
1027.09
1027.09
1027.09
1027.09
1027.09
1027.09
1027.09
1027.09
1027.09
1027.09
1027.09
1027.09
1027.09
1027.09
1027.09
1027.1
1027.1
1027.1
1027.1
1027.1
1027.1
1027.1
1027.1
1027.1
1027.1
1027.1
1027.1
1027.1
1027.1
1027.1
1027.1
1027.1
1027.1
1.16054
1.16054
1.16191
1.16461
1.16567
1.16658
1.16725
1.16772
1.16812
1.1684
1.16861
1.16875
1.16883
1.16887
1.16889
1.1689
1.1689
1.1689
1.16891
1.16891
1.16891
1.16891
1.16891
1.16891
1.16891
1.16891
1.16891
1.16892
1.16892
1.16892
1.16892
1.16892
1.16892
1.16892
1.16892
1.16892
1.16892
1.16892
1.16893
1.16893
1.16895
1.16897
1.16908
1.1696
1.17105
1.17354
1.17634
1.17856
1.19189
1.22037
1.25262
1.27293
1.27916
1.27938
1.27883
1.28014
1.27972
1.27818
1.27023
166.729
1014.12
1024.44
1025.08
1026.11
1026.48
1026.58
1026.59
1026.61
1026.65
1026.68
1026.71
1026.73
1026.75
1026.76
1026.78
1026.79
1026.79
1026.79
1026.77
1026.76
1026.81
1026.87
1026.94
1027.01
1027.05
1027.07
1027.09
1027.09
1027.09
1027.09
1027.1
1027.1
1027.1
1027.1
1027.1
1027.1
1.16056
1.16054
1.16133
1.16409
1.1655
1.16647
1.16708
1.16761
1.16806
1.16838
1.1686
1.16874
1.16883
1.16887
1.16888
1.16889
1.1689
1.1689
1.1689
1.1689
1.16891
1.16891
1.16891
1.16891
1.16891
1.16891
1.16891
1.16892
1.16892
1.16892
1.16892
1.16892
1.16892
1.16892
1.16892
1.16892
1.16893
1.16893
1.16893
1.16893
1.16895
1.16902
1.16921
1.16993
1.17166
1.17353
1.17549
1.19822
1.23636
1.26434
1.278
1.28093
1.28114
1.28115
1.28115
1.27995
1.27919
1.27911
1.2688
321.23
1009.44
1016.22
1016.43
1017.06
1017.62
1017.99
1018.39
1018.84
1019.46
1020.29
1021.31
1022.31
1023.22
1024.05
1024.83
1025.42
1025.7
1025.77
1025.81
1025.87
1026.16
1026.47
1026.83
1027.03
1027
1026.98
1026.95
1026.93
1026.92
1026.96
1027.03
1027.08
1027.09
1027.1
1027.09
1027.1
1.1605
1.16033
1.1612
1.16349
1.16521
1.16643
1.16716
1.16765
1.16807
1.16833
1.16853
1.16871
1.16881
1.16887
1.16889
1.16889
1.16889
1.1689
1.1689
1.1689
1.16891
1.16891
1.16891
1.16891
1.16892
1.16892
1.16892
1.16892
1.16892
1.16892
1.16892
1.16892
1.16893
1.16893
1.16893
1.16893
1.16893
1.16893
1.16893
1.16893
1.16895
1.16907
1.16936
1.17027
1.17223
1.17343
1.19807
1.25094
1.27459
1.28179
1.28234
1.27883
1.27809
1.28065
1.28057
1.27878
1.27807
1.27817
1.2688
573.711
1013.29
1015.62
1016.33
1017.2
1018.25
1019.45
1020.82
1022.06
1023.27
1024.29
1025.07
1025.66
1026.08
1026.23
1026.37
1026.46
1026.53
1026.59
1026.64
1026.68
1026.72
1026.73
1026.72
1026.59
1026.44
1026.29
1026.16
1025.97
1025.9
1025.97
1026.26
1026.56
1026.82
1026.91
1026.81
1026.94
1.16043
1.16021
1.16093
1.16256
1.16457
1.16602
1.16696
1.16746
1.16797
1.16805
1.1684
1.16869
1.16879
1.16886
1.16888
1.16889
1.16889
1.16889
1.1689
1.1689
1.1689
1.1689
1.16891
1.16891
1.16891
1.16891
1.16891
1.16891
1.16891
1.16891
1.16892