/*--------------------------------*- C++ -*----------------------------------*\
| =========                 |                                                 |
| \\      /  F ield         | OpenFOAM: The Open Source CFD Toolbox           |
|  \\    /   O peration     | Version:  2.3.0                                 |
|   \\  /    A nd           | Web:      www.OpenFOAM.org                      |
|    \\/     M anipulation  |                                                 |
\*---------------------------------------------------------------------------*/
FoamFile
{
    version     2.0;
    format      ascii;
    class       volVectorField;
    location    "44";
    object      U;
}
// * * * * * * * * * * * * * * * * * * * * * * * * * * * * * * * * * * * * * //

dimensions      [0 1 -1 0 0 0 0];

internalField   nonuniform List<vector> 
6144
(
(0.011416 0.0212751 0.000287791)
(0.0110008 -0.0051503 -0.000922855)
(0.00467755 -0.00535643 -0.00236494)
(0.00334076 -0.00565537 -0.00233964)
(0.00199117 -0.00366531 -0.00225228)
(0.00289008 -0.000428268 -0.0024432)
(0.00339939 0.000789074 -0.00208654)
(0.00310907 0.00159093 -0.00134324)
(0.00210862 0.00173106 -0.000759535)
(0.00140687 0.00350918 -4.41657e-06)
(0.000949152 0.00538117 0.000657771)
(0.000962906 0.00626042 0.001555)
(0.00121387 0.00610621 0.0020953)
(0.00140183 0.00502804 0.00252067)
(0.00152207 0.00368745 0.00239275)
(0.00165088 0.00243027 0.00208255)
(0.00175497 0.00134476 0.00164551)
(0.00186434 0.000520779 0.00126781)
(0.00195612 -0.000110005 0.000901079)
(0.00202532 -0.000475922 0.000593489)
(0.00207888 -0.000650788 0.000323324)
(0.00211309 -0.00067238 0.000174221)
(0.00212247 -0.000617034 0.000112345)
(0.00210978 -0.000520557 0.00011476)
(0.00207826 -0.000412281 0.000170748)
(0.00203305 -0.00031604 0.000279719)
(0.00197891 -0.000251503 0.000433642)
(0.00192779 -0.000229281 0.000583711)
(0.00188103 -0.000246272 0.0007005)
(0.0018343 -0.000278215 0.000793103)
(0.00179097 -0.000304917 0.00087198)
(0.0017527 -0.000326844 0.000946242)
(0.00171826 -0.000347212 0.00101949)
(0.00168553 -0.000375716 0.00109203)
(0.00165165 -0.000397915 0.00116678)
(0.0016181 -0.000443257 0.00125186)
(0.00158367 -0.000477127 0.00135576)
(0.00155116 -0.000606578 0.00148873)
(0.00152371 -0.000727606 0.00164618)
(0.00150456 -0.00110385 0.00182756)
(0.00148939 -0.00139103 0.00196974)
(0.00150858 -0.00213418 0.00209045)
(0.00151409 -0.00249214 0.00209486)
(0.00157215 -0.00359254 0.00201329)
(0.00155489 -0.00365129 0.0017076)
(0.00161093 -0.00463408 0.00122009)
(0.00158877 -0.00354636 0.00045294)
(0.00195523 -0.00360854 -0.000145581)
(0.0020718 -0.00211709 -0.000809435)
(0.00249986 -0.00306457 -0.00163986)
(0.00398645 6.92579e-05 -0.00272113)
(0.00363365 -0.00608955 -0.00335331)
(0.00227253 0.00832914 -0.00441489)
(0.00235249 0.00522123 -0.00661633)
(0.0105751 0.0351205 -0.0112838)
(0.0143333 -0.0120796 -0.0132995)
(0.0183479 0.0583256 -0.00649279)
(0.00270917 -0.0473788 -0.0211782)
(-0.0464119 0.0764893 -0.11946)
(0.0170244 0.0420992 -0.0908182)
(0.0869603 -0.215249 0.0106721)
(0.0631209 -0.0699624 0.00128779)
(0.0298351 -0.151533 -0.0111821)
(0.0332944 -0.163896 -0.0100423)
(0.029763 -0.16843 -0.00669906)
(0.024301 -0.179398 -0.00502828)
(0.0221553 -0.192114 -0.0027994)
(0.0191041 -0.204061 -0.00132118)
(0.0171482 -0.213571 -0.000364068)
(0.0134769 -0.220647 -0.000659304)
(0.00958842 -0.220254 -0.00105163)
(0.00696155 -0.215676 -0.00203611)
(0.0039767 -0.205172 -0.0024173)
(0.00129703 -0.190222 -0.00239006)
(-0.00320795 -0.169537 -0.00430874)
(-0.00526029 -0.143311 -0.00272637)
(-0.0115358 -0.117925 -0.0065484)
(-0.0152862 -0.0800216 -0.00932716)
(-0.00979915 -0.040405 -0.00171337)
(-0.00312326 -0.0185288 0.000978934)
(0.00271425 -0.0123803 -0.000722086)
(0.00606929 -0.0156737 0.00114635)
(0.00731747 -0.0276658 0.00381343)
(0.00455994 -0.0398087 0.00478853)
(-0.00152064 -0.0463783 0.00608837)
(-0.00628322 -0.0473803 0.00375889)
(-0.0067846 -0.0438495 -0.000168448)
(-0.00255023 -0.0282386 -0.00482846)
(0.00473636 -0.0175848 -0.00444682)
(0.0131904 -0.0204981 -0.005282)
(0.016947 -0.027884 -0.00754713)
(0.0122393 -0.0356157 -0.00652522)
(0.00812459 -0.0350389 -0.00566184)
(0.00462067 -0.0312345 -0.00370174)
(-0.000613758 -0.0218266 -0.00227857)
(-0.0122099 -0.0110704 0.00160807)
(0.0221297 0.0217816 0.00373425)
(0.0230681 0.00508549 0.00319242)
(0.0106548 0.00148806 -0.000487766)
(0.00995281 -0.000780279 -0.000428091)
(0.00539301 -0.0034424 -0.000423881)
(0.00545678 -0.00181557 -0.000453341)
(0.00499233 -0.000301767 0.000837867)
(0.00424254 0.00173852 0.00212492)
(0.00242186 0.00253956 0.00225558)
(0.00120937 0.00515222 0.0023773)
(0.00116707 0.00707414 0.00275523)
(0.00173341 0.00784662 0.00371693)
(0.00247529 0.00741016 0.00431488)
(0.00296875 0.00641988 0.0046438)
(0.00315728 0.00501697 0.0046645)
(0.0032915 0.00368401 0.00456747)
(0.00334188 0.00242532 0.0043868)
(0.00343621 0.00144759 0.00423807)
(0.00350393 0.000653694 0.00410964)
(0.00353687 0.000111832 0.00401792)
(0.00358323 -0.000214099 0.00389248)
(0.00360352 -0.00035794 0.00380933)
(0.00358297 -0.00040485 0.00379304)
(0.00352565 -0.000386063 0.00383323)
(0.0034369 -0.000337044 0.00391866)
(0.00333053 -0.000279985 0.00403339)
(0.00321788 -0.000235536 0.00416507)
(0.00311832 -0.000215737 0.00426899)
(0.00303304 -0.00022022 0.00433675)
(0.00294285 -0.000230612 0.00440098)
(0.00285614 -0.000235617 0.00446463)
(0.0027805 -0.000243122 0.00452732)
(0.00271465 -0.00025457 0.00458926)
(0.00265309 -0.000280726 0.00465048)
(0.00259189 -0.000305585 0.00471295)
(0.00253439 -0.000369468 0.00477877)
(0.00249072 -0.000418374 0.00485111)
(0.00245788 -0.000585354 0.00493693)
(0.00247508 -0.000710228 0.0050318)
(0.00249877 -0.00113547 0.00514927)
(0.00257034 -0.00138855 0.0052299)
(0.00264959 -0.00219057 0.00534317)
(0.00272427 -0.00245719 0.00535336)
(0.00278224 -0.00365717 0.00537584)
(0.00262917 -0.00358887 0.00522182)
(0.00233688 -0.00482877 0.00487817)
(0.00192387 -0.00344722 0.0041204)
(0.00184967 -0.003938 0.0035159)
(0.00259485 -0.00158745 0.0031653)
(0.00411018 -0.0055861 0.00277121)
(0.00851042 -0.00485563 0.000105686)
(0.00499536 -0.0106512 -0.00115663)
(-0.000273265 0.00477578 -0.000857736)
(0.00648263 0.00043621 0.00106562)
(0.032033 0.0346252 0.00128733)
(0.0408191 -0.0183466 -0.00728598)
(0.00530364 0.045392 -0.00452386)
(0.00751311 -0.0206863 -0.0348706)
(0.0414909 0.136794 -0.0690971)
(0.135437 0.0213711 -0.0451904)
(0.138204 -0.203551 0.0341428)
(0.0806071 0.0216263 0.0138934)
(0.0353378 -0.112571 -0.0141471)
(0.0449257 -0.0786583 0.00120665)
(0.037309 -0.0954757 0.00645612)
(0.0307877 -0.11744 0.0106474)
(0.0263062 -0.138157 0.0136941)
(0.0204428 -0.15912 0.0150165)
(0.0130202 -0.176469 0.0140378)
(0.00523472 -0.188619 0.0111271)
(-0.0018298 -0.19223 0.00935846)
(-0.00895297 -0.190537 0.00621603)
(-0.0147986 -0.182211 0.00443945)
(-0.0204975 -0.169043 0.00227023)
(-0.0256971 -0.151675 -0.0014208)
(-0.0274558 -0.131045 -0.000500388)
(-0.0289351 -0.107508 -0.00491092)
(-0.0309231 -0.0753307 -0.00794944)
(-0.0272473 -0.0419297 -0.00292601)
(-0.0154183 -0.0193904 0.00367358)
(-0.0014515 -0.0151023 0.0112161)
(0.00626227 -0.0213134 0.0178993)
(0.00480691 -0.0313328 0.0215698)
(-0.00160034 -0.0406502 0.0196429)
(-0.00867865 -0.0457413 0.0130553)
(-0.012111 -0.0469769 0.0062509)
(-0.0121085 -0.0419415 0.000317021)
(-0.00727591 -0.0322783 -0.00255797)
(0.00153118 -0.026693 0.00100297)
(0.0161349 -0.027192 -0.00326319)
(0.0202758 -0.0250058 -0.00768569)
(0.0134291 -0.0226758 -0.00575766)
(0.00260871 -0.0102733 -0.00200246)
(-0.00517048 -0.00586085 0.00241115)
(-0.0113467 -0.00219946 0.00294394)
(-0.0205509 -0.00281409 0.00406794)
(0.0256418 0.0235232 0.00472363)
(0.0269213 0.0135404 0.00513009)
(0.0168021 0.00865549 0.0027252)
(0.014366 0.00558845 0.00345565)
(0.0073482 0.000601886 0.00369623)
(0.00539619 0.00100502 0.00333798)
(0.00271054 0.00070627 0.00375707)
(0.00158558 0.00235481 0.00415467)
(-0.000201197 0.00240369 0.00396901)
(-0.00108826 0.00444324 0.00390004)
(-0.000761739 0.00584391 0.00403207)
(0.000490057 0.00670263 0.00454888)
(0.00142272 0.00653395 0.00496957)
(0.00206696 0.00615061 0.00526381)
(0.00235457 0.00528405 0.00528596)
(0.00255184 0.00441545 0.00522617)
(0.00261263 0.00340804 0.00508726)
(0.00269677 0.00257278 0.00498689)
(0.00274414 0.00183876 0.00491058)
(0.00274114 0.0012501 0.00488076)
(0.00268111 0.000781927 0.00488615)
(0.00259623 0.000460277 0.00491803)
(0.00250096 0.000243341 0.00496382)
(0.0023901 0.000112239 0.00501839)
(0.00226626 3.77924e-05 0.00507753)
(0.00213979 3.24391e-06 0.00513733)
(0.00201917 -1.15324e-05 0.00519554)
(0.00189532 -1.81376e-05 0.0052553)
(0.00175832 -1.27043e-05 0.00531952)
(0.00161659 5.63703e-06 0.0053852)
(0.00148917 2.4012e-05 0.00545232)
(0.00138048 2.96597e-05 0.00551738)
(0.00128733 2.52614e-05 0.00558049)
(0.00120179 -8.24056e-07 0.00563986)
(0.00112631 -3.17014e-05 0.00570022)
(0.00105524 -0.00011202 0.00575818)
(0.00100753 -0.000180573 0.00582168)
(0.000974891 -0.000354795 0.00588801)
(0.00102376 -0.000463064 0.00596232)
(0.00107955 -0.000811646 0.00604693)
(0.0012256 -0.000931545 0.00611493)
(0.00132796 -0.0015738 0.00621971)
(0.00150291 -0.00162518 0.00624266)
(0.00157106 -0.00272842 0.0063555)
(0.00145088 -0.00261445 0.0062484)
(0.00105627 -0.00408347 0.00607767)
(0.000451875 -0.0035168 0.00555937)
(4.9585e-05 -0.00516491 0.00538643)
(0.00139122 -0.00592432 0.00548394)
(0.0053227 -0.0128044 0.00571336)
(0.0101369 -0.01184 0.00226734)
(0.00653105 -0.0118708 0.000459235)
(-0.00446519 0.00171421 0.00331604)
(-0.0116739 -0.0121223 0.0141471)
(0.0306509 0.0125302 0.0151758)
(0.0362879 -0.0299992 0.00686494)
(0.0195925 0.0635357 0.0134884)
(-0.0233475 -0.101474 0.010399)
(-0.00975929 0.151443 -0.0853409)
(0.139501 0.00122835 -0.0117398)
(0.159782 -0.188143 0.0383068)
(0.0991663 0.0975449 0.0021672)
(0.0916347 -0.104731 -0.00691163)
(0.0694661 0.000136667 0.00502194)
(0.0545099 -0.0598989 0.0171153)
(0.0478099 -0.0807687 0.0247041)
(0.0406773 -0.107816 0.0282626)
(0.028974 -0.133687 0.0261525)
(0.0170724 -0.152234 0.0212454)
(0.00508754 -0.164287 0.0156286)
(-0.00461657 -0.167547 0.0117063)
(-0.0129807 -0.164447 0.00763515)
(-0.022512 -0.155919 0.00446231)
(-0.028044 -0.141834 0.00295436)
(-0.0343416 -0.123102 1.19116e-05)
(-0.0447615 -0.100239 -0.00210729)
(-0.0490414 -0.0804854 -0.00452519)
(-0.0499643 -0.0534004 -0.00911282)
(-0.0426498 -0.0214843 -0.00392008)
(-0.0220269 -0.00962749 0.0124126)
(-0.00463784 -0.0128109 0.0256847)
(-0.00165459 -0.0218505 0.0334666)
(-0.00845731 -0.0314364 0.0322988)
(-0.0181356 -0.0392412 0.0221104)
(-0.0223603 -0.0421441 0.0135582)
(-0.0217517 -0.0413129 0.0052764)
(-0.0173448 -0.0345295 -0.00162364)
(-0.0104167 -0.02408 0.000632563)
(0.000256263 -0.02162 0.00470219)
(0.0183381 -0.0173291 -0.00713489)
(0.0221513 -0.00264028 -0.0129997)
(0.00245144 0.00697023 -0.00244153)
(-0.00200744 0.0142894 0.00362021)
(-0.00539222 0.0110335 0.00840054)
(-0.0137604 0.00809664 0.00736761)
(-0.0246355 0.00261514 0.00680032)
(0.0269515 0.0237939 0.00447431)
(0.0296726 0.0192154 0.00555472)
(0.0195591 0.0135483 0.00295343)
(0.0173252 0.0116898 0.00339896)
(0.00858938 0.00506263 0.00398025)
(0.00576381 0.00400735 0.00370458)
(0.00186171 0.00161404 0.00451317)
(0.000385526 0.0025783 0.00476566)
(-0.00186757 0.00156757 0.00467148)
(-0.00300838 0.00297985 0.00445461)
(-0.00242618 0.0040497 0.00447001)
(-0.00101496 0.00506325 0.00489629)
(9.75068e-05 0.00538257 0.00516787)
(0.000852696 0.00543822 0.00542096)
(0.00117819 0.00497717 0.00544045)
(0.00139662 0.00446218 0.00543269)
(0.00144332 0.00368308 0.00535517)
(0.00145646 0.00299732 0.00531241)
(0.00144245 0.00235303 0.00526865)
(0.00140749 0.00180846 0.00524385)
(0.00131033 0.00132689 0.00523055)
(0.00118256 0.00093019 0.00523434)
(0.00103659 0.000614698 0.00525471)
(0.000880334 0.000387277 0.00528714)
(0.000722786 0.000236924 0.00532654)
(0.000571343 0.000153735 0.00536825)
(0.000435661 0.00012043 0.00540833)
(0.000310565 0.000118291 0.00544776)
(0.000183194 0.000128224 0.00549218)
(5.28477e-05 0.000142699 0.0055437)
(-5.67572e-05 0.000157793 0.00559897)
(-0.000143451 0.000164736 0.00565191)
(-0.000210729 0.000165763 0.00570103)
(-0.000269576 0.000149814 0.00574336)
(-0.000310494 0.000129953 0.0057833)
(-0.000341734 5.86881e-05 0.00581794)
(-0.000335457 6.26792e-06 0.0058582)
(-0.000315464 -0.000151501 0.00588751)
(-0.000198382 -0.000216445 0.00592718)
(-0.000109748 -0.000503617 0.00595425)
(0.000108556 -0.000511741 0.00600262)
(0.00024109 -0.00105027 0.00605617)
(0.000512277 -0.000985887 0.00611773)
(0.000603149 -0.00195303 0.00628327)
(0.000503405 -0.00174859 0.00631146)
(0.00016138 -0.00295173 0.00650829)
(-0.000358321 -0.00266677 0.0063872)
(-2.08191e-05 -0.00604729 0.0071659)
(0.00371762 -0.0105674 0.00820466)
(0.00779781 -0.0191954 0.00770352)
(0.00621118 -0.0159178 0.00371109)
(1.56641e-05 -0.010062 1.32528e-05)
(-0.00618591 0.00349377 0.00494756)
(-0.0137972 -0.020323 0.0221188)
(0.028332 -0.0234909 0.0274835)
(0.0316055 -0.0602961 0.0316503)
(0.0297961 -0.0250756 0.0229355)
(-0.0556208 -0.0906178 0.0106925)
(0.0264694 0.234075 -0.148302)
(0.155083 -0.0370172 0.00667689)
(0.167149 -0.177167 0.038078)
(0.0904188 0.119968 -0.0122431)
(0.113363 -0.0455982 0.00414603)
(0.0481084 0.0573195 0.00149256)
(0.0672157 -0.0350737 0.0240639)
(0.0476205 -0.0452187 0.0247705)
(0.0358805 -0.0755039 0.0204953)
(0.0222576 -0.10347 0.0127679)
(0.00941281 -0.121438 0.00527979)
(-0.00335922 -0.130846 0.000885093)
(-0.0149333 -0.133222 -0.00196459)
(-0.0255958 -0.129329 -0.00439887)
(-0.0380451 -0.120679 -0.00516)
(-0.0509002 -0.10767 -0.00758494)
(-0.0561452 -0.0860637 -0.00856407)
(-0.0536447 -0.0692541 -0.00509924)
(-0.0614145 -0.0474564 -0.0102551)
(-0.0663397 -0.0151629 -0.0122222)
(-0.0470387 -0.00011011 0.00623156)
(-0.0239389 -0.0026256 0.027082)
(-0.0150199 -0.00996048 0.0408937)
(-0.0192689 -0.0172766 0.0434733)
(-0.0264571 -0.0272258 0.0330816)
(-0.0294992 -0.0324692 0.020794)
(-0.0280655 -0.0334293 0.0107252)
(-0.0250651 -0.0292566 0.00254603)
(-0.0225268 -0.022188 0.00140053)
(-0.0177219 -0.0151949 0.00641046)
(-0.00846783 -0.0143397 0.00341568)
(0.012508 -0.00280332 -0.0131052)
(0.016924 0.0168445 -0.0179889)
(0.00208604 0.0245833 -0.0069943)
(-0.00431758 0.0255527 0.00266044)
(-0.0090154 0.0218496 0.00776779)
(-0.0159616 0.0138606 0.00741063)
(-0.0227675 0.00680524 0.00861363)
(0.0269562 0.023792 0.00447503)
(0.0312281 0.0214824 0.00556313)
(0.0221292 0.0158075 0.00259406)
(0.0220776 0.0163294 0.0020956)
(0.0120314 0.00837273 0.00212802)
(0.00859085 0.00620036 0.0017875)
(0.00161597 0.00125604 0.00318551)
(-0.000550863 0.00222187 0.00363424)
(-0.00308212 0.000376432 0.0042659)
(-0.00475205 0.00160517 0.00447092)
(-0.00451004 0.00271185 0.004539)
(-0.0032066 0.00407642 0.00493282)
(-0.00203867 0.00467929 0.00502865)
(-0.00116542 0.00489211 0.00525461)
(-0.000750328 0.00459293 0.00524502)
(-0.000532924 0.00418057 0.00527699)
(-0.000571637 0.00353432 0.0052445)
(-0.000728961 0.00299283 0.00525597)
(-0.000885083 0.00247816 0.005238)
(-0.00102808 0.00202179 0.00520397)
(-0.00118029 0.00157387 0.00515634)
(-0.00133627 0.00116184 0.00511833)
(-0.00149048 0.000809182 0.00509393)
(-0.0016501 0.000533257 0.00507938)
(-0.00181689 0.000335964 0.00507086)
(-0.00196637 0.000211757 0.005069)
(-0.00208626 0.000142953 0.00507469)
(-0.00218353 0.000111796 0.00508836)
(-0.00228498 0.00010347 0.00510633)
(-0.00239273 0.000115884 0.00512487)
(-0.00248253 0.000144466 0.00514276)
(-0.00254685 0.000173489 0.0051555)
(-0.0025884 0.000196097 0.0051625)
(-0.00261564 0.000199884 0.00516218)
(-0.00261925 0.000198463 0.00515717)
(-0.00261344 0.000147839 0.00514591)
(-0.00256768 0.000127078 0.00514144)
(-0.00252353 -3.12353e-06 0.00511862)
(-0.00236821 -9.06047e-06 0.00512257)
(-0.00225339 -0.000240957 0.00509111)
(-0.00196583 -0.000177456 0.00512247)
(-0.00179845 -0.000612483 0.00512481)
(-0.00143684 -0.000431979 0.00522128)
(-0.0013295 -0.00108496 0.00537784)
(-0.00142033 -0.000530558 0.00550989)
(-0.00168731 -0.000992149 0.00592411)
(-0.00115149 -0.000774102 0.00630588)
(0.00139125 -0.00511811 0.00835895)
(0.00557412 -0.00934877 0.00951856)
(0.00718482 -0.0118519 0.0104269)
(0.00243398 -0.00649315 0.0069682)
(-0.00228357 -0.00466167 0.000893688)
(0.00268349 -0.00194316 0.00804171)
(0.0039787 -0.0352032 0.0269838)
(0.043219 -0.0418763 0.035004)
(0.0482828 -0.0873173 0.0413188)
(0.0247709 -0.068963 0.0656953)
(-0.076792 -0.13694 0.0594589)
(0.0242597 0.106553 -0.144752)
(0.116334 -0.0351113 0.0233471)
(0.144602 -0.125983 0.0330441)
(0.0755795 0.137021 -0.0191375)
(0.103845 0.0436067 0.00163812)
(0.0781097 0.0804304 0.00553204)
(0.0875526 0.0421551 0.0144632)
(0.055187 0.0100787 0.00677387)
(0.0492527 -0.0176161 0.00215312)
(0.0391104 -0.043459 -0.0031176)
(0.0280495 -0.0588343 -0.00519149)
(0.0159311 -0.0683192 -0.00494428)
(0.0027157 -0.0740295 -0.00432835)
(-0.0116393 -0.0753683 -0.00385824)
(-0.0267172 -0.0736459 -0.00407732)
(-0.0420767 -0.0644597 -0.00542253)
(-0.0570581 -0.0485409 -0.00671112)
(-0.0748066 -0.0223864 -0.0126294)
(-0.0828868 0.0068905 -0.0155565)
(-0.0672775 0.0197557 0.000922838)
(-0.0450836 0.014236 0.0252179)
(-0.0334999 0.00676156 0.0425861)
(-0.0363633 -0.0014622 0.0491588)
(-0.0433823 -0.0115476 0.041583)
(-0.0444597 -0.0186235 0.0281484)
(-0.0404662 -0.019629 0.015527)
(-0.0356273 -0.0174957 0.00655955)
(-0.0324112 -0.0130455 0.00334614)
(-0.0292152 -0.0105344 0.00461901)
(-0.0230681 -0.00979182 0.0044836)
(-0.0103082 -0.00813242 -0.00120831)
(0.0108082 0.00406528 -0.0154454)
(0.0173261 0.0266973 -0.0231221)
(0.0067378 0.0379734 -0.0124934)
(-0.00143612 0.032775 0.000111782)
(-0.00742622 0.0295622 0.00487173)
(-0.0136548 0.0161435 0.0057257)
(-0.0190136 0.0103682 0.00820738)
(0.024784 0.0227911 0.00829753)
(0.0322185 0.0234754 0.00650579)
(0.0223532 0.0169007 0.00270282)
(0.025073 0.0195312 0.00198406)
(0.0168511 0.0112015 7.60527e-05)
(0.0138414 0.00939583 -0.000166655)
(0.00346504 0.00191602 0.000153474)
(-0.000418779 0.00247027 0.000716785)
(-0.00368972 -0.000988897 0.00240529)
(-0.00663089 7.26916e-07 0.00343204)
(-0.00636115 0.00114288 0.00373847)
(-0.00479538 0.00280038 0.00441737)
(-0.00288802 0.00372764 0.00454013)
(-0.00163867 0.00413175 0.00502111)
(-0.00104269 0.00388622 0.00522596)
(-0.000776783 0.00351348 0.00546228)
(-0.000958025 0.00291808 0.00547093)
(-0.00130361 0.00249135 0.00546349)
(-0.00159266 0.002157 0.00540659)
(-0.00181368 0.00190118 0.00531699)
(-0.00201817 0.00162961 0.00519019)
(-0.00222158 0.00134938 0.00505233)
(-0.00243128 0.00108374 0.00491889)
(-0.00262934 0.000852862 0.00479859)
(-0.00279985 0.000677963 0.00469212)
(-0.00293802 0.000562681 0.00459011)
(-0.00303893 0.000483431 0.00449783)
(-0.00311861 0.000426001 0.00442108)
(-0.00320241 0.000382608 0.00436849)
(-0.00329465 0.00036552 0.00433436)
(-0.00335813 0.000378537 0.00431246)
(-0.00338638 0.00040655 0.00429418)
(-0.00338567 0.000440489 0.00427536)
(-0.00336443 0.000465884 0.00425341)
(-0.00331293 0.000486092 0.00423104)
(-0.00324517 0.000463284 0.00420912)
(-0.00312488 0.000479095 0.00420119)
(-0.00301073 0.00039867 0.00418056)
(-0.00276505 0.000466829 0.00420087)
(-0.00260598 0.000320841 0.00417928)
(-0.00224956 0.000505073 0.00423947)
(-0.00209525 0.000320014 0.00420141)
(-0.00179932 0.000733739 0.00421767)
(-0.00198935 0.00065901 0.00406873)
(-0.00253523 0.00162642 0.00364865)
(-0.00292234 0.00179459 0.0032814)
(-0.00131824 0.00227171 0.0028123)
(0.000924878 -0.00034253 0.00307789)
(0.00268226 0.00121395 0.00350116)
(0.00214918 0.0024603 0.00535669)
(0.00101547 0.0108023 0.00776456)
(0.00526962 0.00314481 0.00513391)
(0.0116472 -0.00346246 0.0157692)
(0.0165786 -0.0380798 0.0385624)
(0.0353561 -0.0327462 0.0532823)
(0.027622 -0.052263 0.0515868)
(-0.00899273 -0.0121161 0.108804)
(-0.0730097 -0.114524 0.120392)
(0.038278 0.0566996 -0.14358)
(0.0781969 -0.0269389 0.0321698)
(0.110016 -0.0879232 0.0297765)
(0.0632931 0.143203 -0.0150669)
(0.0923937 0.090554 -0.00166586)
(0.0821105 0.127147 0.00338983)
(0.0830028 0.113853 0.0109685)
(0.0799779 0.0927882 0.00977375)
(0.0687793 0.0667256 0.00701037)
(0.05314 0.0424318 0.00335831)
(0.0353762 0.0236348 0.000934065)
(0.0157301 0.00940115 -0.00127445)
(-0.00385017 0.000406971 -0.00300464)
(-0.022807 -0.000708757 -0.0049852)
(-0.0423057 0.00343288 -0.00912447)
(-0.0600102 0.0120569 -0.0146406)
(-0.0733203 0.023959 -0.0184168)
(-0.0770045 0.035701 -0.0160508)
(-0.0678094 0.0384346 6.47315e-05)
(-0.0538684 0.0306972 0.0252492)
(-0.0476612 0.023785 0.0444092)
(-0.0492572 0.0180888 0.0532217)
(-0.0543614 0.0113275 0.0502975)
(-0.0535217 0.00416616 0.0383253)
(-0.0488578 -5.78254e-05 0.023192)
(-0.0435727 -0.000414215 0.0109216)
(-0.038864 8.02048e-05 0.00495138)
(-0.0339558 0.000292952 0.00341033)
(-0.0276071 -0.00211029 0.00312111)
(-0.0203605 -0.00528555 0.00169687)
(-0.00952127 -0.00426996 -0.00242497)
(0.00535117 0.00542692 -0.0129644)
(0.0162355 0.0259775 -0.0271935)
(0.0147317 0.0410814 -0.0244674)
(0.00423893 0.039844 -0.00828764)
(-0.00149442 0.0293081 0.000504464)
(-0.00572252 0.017606 0.00215558)
(-0.00931375 0.0106159 0.00661581)
(0.0196159 0.0209374 0.00830213)
(0.0319534 0.0266801 0.00789395)
(0.021013 0.0172418 0.00333148)
(0.0257634 0.0215589 0.00288967)
(0.0196958 0.0121061 -0.000311288)
(0.0177103 0.0115311 -0.000185294)
(0.00625267 0.00298847 -0.00205266)
(0.00111802 0.00360357 -0.00170963)
(-0.00293133 -0.00101477 0.000526498)
(-0.0074816 -0.000501885 0.00173468)
(-0.00825569 -0.000162867 0.00244439)
(-0.00693725 0.00190184 0.00368613)
(-0.00534 0.00272259 0.00406367)
(-0.00378612 0.00309021 0.00496901)
(-0.00310323 0.00284347 0.0056155)
(-0.00287463 0.00263115 0.00617996)
(-0.00322045 0.00220127 0.00632985)
(-0.00388681 0.00193308 0.00626958)
(-0.00443943 0.00176344 0.00610388)
(-0.0048029 0.00170598 0.00590799)
(-0.00503912 0.00165103 0.00566814)
(-0.00521547 0.00159033 0.00541955)
(-0.0053617 0.0015142 0.00518263)
(-0.00548865 0.00143176 0.00497667)
(-0.00563802 0.00137027 0.00481515)
(-0.00571676 0.00133024 0.00466322)
(-0.00573489 0.00128626 0.00453335)
(-0.00571194 0.00122768 0.00445144)
(-0.00571825 0.00115542 0.00440631)
(-0.00575732 0.00111538 0.00439166)
(-0.0057775 0.0011072 0.00439312)
(-0.00576436 0.00111916 0.00439879)
(-0.00572267 0.00114304 0.00440496)
(-0.00565272 0.00117322 0.00441471)
(-0.00554609 0.00120744 0.00443229)
(-0.005429 0.00122386 0.00444837)
(-0.00529399 0.00128757 0.00446655)
(-0.00514628 0.00132187 0.00448197)
(-0.00493 0.00148499 0.00452243)
(-0.00472464 0.00154309 0.00452891)
(-0.00446552 0.00186389 0.004557)
(-0.00429072 0.00197943 0.00446284)
(-0.00411848 0.00258885 0.00429689)
(-0.00420453 0.00287802 0.00387282)
(-0.00447187 0.00384177 0.00299962)
(-0.00370128 0.00408258 0.00178448)
(-0.00186222 0.00495553 -0.000302905)
(-0.000508571 0.00550457 -0.00259396)
(2.09175e-05 0.00918674 -0.00305637)
(-0.00048185 0.0111714 -0.000374188)
(0.0021492 0.0162246 0.00494396)
(0.0122538 0.00439108 0.00636082)
(0.021281 -0.000968635 0.0165589)
(0.0141169 -0.0357892 0.0314545)
(0.00780044 -0.0397936 0.0523175)
(-0.0204636 -0.054507 0.0710942)
(-0.0423725 -0.0468245 0.122147)
(-0.0554732 -0.133508 0.139047)
(0.02722 -0.0215699 -0.12396)
(0.0408664 -0.0248611 0.0360231)
(0.0528226 -0.0419 0.0247135)
(0.0455998 0.161265 -0.0138583)
(0.0692981 0.139606 -6.98989e-05)
(0.076312 0.173298 0.00791751)
(0.0854274 0.171231 0.0131398)
(0.087378 0.169154 0.0137808)
(0.0831543 0.156094 0.0109209)
(0.0720259 0.135064 0.00835146)
(0.056481 0.113757 0.00439108)
(0.0376202 0.0919537 -0.000465104)
(0.015409 0.0704872 -0.00425603)
(-0.00644882 0.0611003 -0.00738606)
(-0.0276525 0.0549341 -0.0105258)
(-0.0451756 0.0550989 -0.00896835)
(-0.0580458 0.0562974 -0.00191803)
(-0.0639552 0.0572481 0.0132172)
(-0.0691582 0.0551612 0.0329611)
(-0.0716524 0.0529613 0.0495302)
(-0.076066 0.051093 0.0566407)
(-0.0793552 0.0490674 0.0559336)
(-0.0772083 0.0407957 0.0429383)
(-0.0711547 0.0340128 0.0252373)
(-0.0624029 0.031887 0.0103229)
(-0.0514624 0.0320991 0.00301609)
(-0.0403704 0.0291027 0.000740492)
(-0.030379 0.0217268 0.000271221)
(-0.0221515 0.012903 -0.00044272)
(-0.0154238 0.00576919 -0.00120914)
(-0.00816109 0.00101173 -0.00208763)
(0.00209226 0.00383439 -0.00729576)
(0.0113187 0.0160679 -0.0229865)
(0.0136481 0.0311176 -0.0341783)
(0.00962205 0.0405196 -0.0267701)
(0.00119306 0.0328132 -0.0145987)
(-0.00573391 0.0196658 -0.00816237)
(-0.0109502 0.0112739 0.00227339)
(0.0147363 0.0148948 0.00698129)
(0.0311472 0.0302515 0.00774648)
(0.0189161 0.0165565 0.0026209)
(0.0259123 0.0240075 0.00210445)
(0.0212787 0.0122914 -0.0010873)
(0.0203759 0.0124694 -1.31605e-05)
(0.00831911 0.00282465 -0.00299394)
(0.00221087 0.00344897 -0.00315237)
(-0.00214316 -0.000201206 0.00022711)
(-0.00741662 0.000522992 0.00121394)
(-0.00881358 -0.000889314 0.00201488)
(-0.00772325 0.000466976 0.00340673)
(-0.00487064 0.000363149 0.00453914)
(-0.0030351 0.000599943 0.00579761)
(-0.00255138 0.000411874 0.00676309)
(-0.00253891 0.000692142 0.00768908)
(-0.00294565 0.000920992 0.00816399)
(-0.00355889 0.0012491 0.00828004)
(-0.00408461 0.00147559 0.00818222)
(-0.00442751 0.00174907 0.00799483)
(-0.00467567 0.00197489 0.00771873)
(-0.00486807 0.00212006 0.00740954)
(-0.00502392 0.00218757 0.00711324)
(-0.00515412 0.00220699 0.00684312)
(-0.00526534 0.00218249 0.0066075)
(-0.00532412 0.0021307 0.00641176)
(-0.00531492 0.00206727 0.00625854)
(-0.00525973 0.00198044 0.00615655)
(-0.00523862 0.00187291 0.00609894)
(-0.00525602 0.00179897 0.00607509)
(-0.00524509 0.00178246 0.00607347)
(-0.00520035 0.00178819 0.00607753)
(-0.00513253 0.00181703 0.00607719)
(-0.00504321 0.00186219 0.00607021)
(-0.0049213 0.00192052 0.00605642)
(-0.0047942 0.00197797 0.00603399)
(-0.00467304 0.00207943 0.0060035)
(-0.00451459 0.00218608 0.00596741)
(-0.00432074 0.00242944 0.00594673)
(-0.00411254 0.00260972 0.00589073)
(-0.00388672 0.00305639 0.00584595)
(-0.00369321 0.0033645 0.0056345)
(-0.00358005 0.00415068 0.00533569)
(-0.003566 0.0046415 0.00470254)
(-0.00378612 0.00556509 0.0037258)
(-0.0032654 0.00568468 0.00250835)
(-0.00215057 0.00669953 0.000386318)
(-0.00241115 0.00632639 -0.00249909)
(-0.00326158 0.010068 -0.00388092)
(-0.00301527 0.00901635 -0.00600942)
(0.00217818 0.0148124 -0.000138522)
(0.0168838 0.00162438 0.00467875)
(0.0321996 0.000131532 0.0147667)
(0.0286754 -0.0321821 0.0415306)
(-0.0151647 -0.0249823 0.0753451)
(-0.0485456 -0.0478774 0.0947026)
(-0.0449045 -0.0539515 0.132099)
(-0.0244583 -0.134313 0.129618)
(-0.00551205 -0.0109914 -0.113197)
(0.00191993 -0.0327638 0.0378456)
(-0.013845 -0.0544237 0.030913)
(0.0168964 0.166007 -0.019365)
(0.0377965 0.14383 -0.0031918)
(0.0657243 0.187605 0.00971674)
(0.0794814 0.189929 0.0154503)
(0.0823988 0.198928 0.0177892)
(0.0802491 0.201256 0.0193824)
(0.0726518 0.199238 0.0188685)
(0.0582799 0.192985 0.0176979)
(0.0408889 0.186355 0.0146394)
(0.0184686 0.175428 0.0115609)
(-0.00379077 0.170292 0.0114407)
(-0.0256922 0.162839 0.0133667)
(-0.0429446 0.15792 0.0187724)
(-0.0578522 0.151639 0.0262128)
(-0.0692434 0.143722 0.0350616)
(-0.0783928 0.137916 0.042769)
(-0.0837057 0.12783 0.0460981)
(-0.0846043 0.115698 0.0448348)
(-0.0824991 0.0998926 0.0343964)
(-0.075118 0.0896807 0.0155634)
(-0.0622255 0.085149 0.00534665)
(-0.0463984 0.0790205 0.00335799)
(-0.0294078 0.0692948 0.00606665)
(-0.0131404 0.0545521 0.00964842)
(-0.000631837 0.0361805 0.0122645)
(0.00756448 0.0192425 0.0129037)
(0.0100958 0.00434052 0.0119573)
(0.010306 -0.00609786 0.0102724)
(0.0100746 -0.0102161 0.00437589)
(0.00933707 -0.00486708 -0.00371805)
(0.00795363 0.00598988 -0.0178721)
(0.0104298 0.016432 -0.0223237)
(0.0133915 0.018831 -0.0188716)
(0.00963083 0.00955088 -0.0312753)
(-7.03638e-05 0.00403274 -0.0622776)
(0.00281001 0.0062375 -0.00213652)
(0.0294999 0.0333837 0.00610861)
(0.0164212 0.0143461 0.000633911)
(0.0256548 0.0271598 0.000476963)
(0.0224563 0.0123873 -0.00167147)
(0.0220138 0.0130729 -0.000608049)
(0.0112181 0.0021392 -0.00427504)
(0.00367533 0.00262001 -0.00641682)
(-0.00348787 -4.22088e-05 -0.00404449)
(-0.00685708 0.00208274 -0.00297281)
(-0.00904104 -0.00110176 -0.00143091)
(-0.00810284 -0.000816396 -0.0005293)
(-0.00721378 -0.00205077 0.000668215)
(-0.00622609 -0.00139834 0.00186975)
(-0.00629814 -0.00115535 0.00289629)
(-0.00669279 -0.000438977 0.00387157)
(-0.00736273 0.000192724 0.00466414)
(-0.00803585 0.000831216 0.00518487)
(-0.00863441 0.00129269 0.00541248)
(-0.00906766 0.00173795 0.00545418)
(-0.00921084 0.00207708 0.00533492)
(-0.00918533 0.00230989 0.00516552)
(-0.009129 0.00245811 0.00499368)
(-0.00905379 0.00253381 0.00483446)
(-0.00896551 0.00254633 0.00468701)
(-0.00884457 0.00251253 0.00455323)
(-0.00869198 0.00245644 0.00443883)
(-0.00852028 0.0023875 0.00435361)
(-0.00843195 0.00230436 0.00430263)
(-0.00845455 0.00223101 0.00427596)
(-0.00845743 0.00221085 0.00426414)
(-0.00841633 0.00220808 0.0042569)
(-0.00834348 0.00223007 0.00424622)
(-0.00824145 0.00227818 0.00422583)
(-0.00810214 0.00234856 0.00418935)
(-0.00795713 0.00242857 0.00414183)
(-0.00784411 0.00254645 0.00408555)
(-0.00771584 0.00269217 0.00401025)
(-0.00760622 0.00300138 0.00393345)
(-0.0074146 0.00329914 0.00381596)
(-0.00735664 0.00390915 0.00370141)
(-0.00722749 0.00438499 0.00340147)
(-0.00732162 0.00523487 0.00302392)
(-0.00717866 0.00564924 0.00234835)
(-0.00694617 0.0063261 0.00159552)
(-0.00591299 0.00598943 0.000636053)
(-0.00442383 0.00654507 -0.00027716)
(-0.00461272 0.00506036 -0.00216431)
(-0.00681394 0.00788231 -0.004281)
(-0.00578645 0.00407619 -0.0064278)
(-0.00133393 0.00694624 -0.00352408)
(0.0203036 0.000805994 0.0097524)
(0.0330449 0.0104794 0.0313924)
(0.00443835 -0.00113815 0.0448832)
(-0.0437154 -0.0119791 0.0726618)
(-0.0576856 -0.0683853 0.0898151)
(-0.0450563 -0.0663568 0.120927)
(0.0173061 -0.149271 0.106881)
(-0.0429876 0.0518733 -0.143629)
(-0.0401747 -0.0313393 0.00995739)
(-0.071144 -0.0709879 0.0017895)
(-0.00260753 0.154961 -0.0202235)
(0.0057462 0.109008 -0.00646186)
(0.0474376 0.163514 0.00746254)
(0.063261 0.165431 0.0149261)