/*--------------------------------*- C++ -*----------------------------------*\
| =========                 |                                                 |
| \\      /  F ield         | OpenFOAM: The Open Source CFD Toolbox           |
|  \\    /   O peration     | Version:  2.3.0                                 |
|   \\  /    A nd           | Web:      www.OpenFOAM.org                      |
|    \\/     M anipulation  |                                                 |
\*---------------------------------------------------------------------------*/
FoamFile
{
    version     2.0;
    format      ascii;
    class       volVectorField;
    location    "44";
    object      U;
}
// * * * * * * * * * * * * * * * * * * * * * * * * * * * * * * * * * * * * * //

dimensions      [0 1 -1 0 0 0 0];

internalField   nonuniform List<vector> 
6144
(
(0.0111212 0.0207481 -0.000203517)
(0.0108901 -0.00362555 -0.00145783)
(0.00411593 -0.00403643 -0.00248555)
(0.00352782 -0.00372753 -0.00247068)
(0.00235472 -0.0022937 -0.00192432)
(0.0032589 -2.17816e-05 -0.00153597)
(0.00319721 -0.000367768 -0.00119905)
(0.00280848 0.000526841 -0.000889022)
(0.00215832 0.000361143 -0.000515357)
(0.00157562 0.00172155 4.14842e-05)
(0.00120344 0.00286224 0.000511242)
(0.00121526 0.00386626 0.00111264)
(0.00133835 0.00398321 0.00143966)
(0.00145549 0.00352896 0.00186718)
(0.00152453 0.00270814 0.00186448)
(0.00163467 0.00189243 0.00176912)
(0.00171992 0.00104274 0.0015102)
(0.00180902 0.000365663 0.00124536)
(0.00188676 -0.000184474 0.000968633)
(0.00194506 -0.000533484 0.000723657)
(0.00198242 -0.000713429 0.000509275)
(0.0020159 -0.000723596 0.000336657)
(0.00202683 -0.000645531 0.00025581)
(0.00201438 -0.000516019 0.000256745)
(0.0019799 -0.00036676 0.000326393)
(0.00192993 -0.000216853 0.000448526)
(0.00187799 -8.99218e-05 0.000590895)
(0.00182581 -3.53455e-06 0.000733689)
(0.0017692 4.52879e-05 0.000867893)
(0.0017072 8.492e-05 0.00098368)
(0.00164124 0.000141905 0.00109161)
(0.00157174 0.000219449 0.00120662)
(0.00149766 0.000313034 0.00133911)
(0.00141728 0.000413741 0.00149744)
(0.00133138 0.000505808 0.00168801)
(0.00124108 0.000568394 0.00190528)
(0.00114512 0.000587119 0.00212074)
(0.00104237 0.000599346 0.0022626)
(0.00092544 0.000718188 0.00225444)
(0.000779761 0.00116818 0.00204505)
(0.000558828 0.00217966 0.00157022)
(0.000177553 0.00432826 0.000885266)
(-0.000219733 0.00785615 0.000391603)
(-0.000314739 0.0125258 0.000124889)
(-7.35932e-05 0.0173427 -0.000251172)
(0.00088113 0.0234557 -0.00149287)
(0.0018098 0.0293078 -0.00229012)
(-0.000627096 0.03583 -0.00359655)
(-0.00384307 0.0525142 -0.00323837)
(-0.00179074 0.0606706 -0.00383221)
(0.0137744 0.055637 -0.00286384)
(0.0169357 0.035742 0.00211861)
(0.00595537 0.0208958 0.0117584)
(0.0011597 -0.0101825 0.0150264)
(0.000292888 0.00913835 0.0205159)
(-0.00023054 -0.0443881 0.018727)
(-0.00206778 0.0224356 0.0140105)
(-0.00453402 -0.0996664 0.0577083)
(-0.0488012 0.0393859 -0.0526698)
(0.0251312 0.0896744 0.0487174)
(0.125111 -0.256685 0.0681642)
(0.0929207 -0.12284 0.0276605)
(0.0693943 -0.189708 0.000334974)
(0.0546175 -0.230215 -0.0045549)
(0.0483347 -0.228768 -0.00205893)
(0.0388218 -0.225175 -0.00324556)
(0.0328554 -0.220737 -0.00227251)
(0.0295111 -0.213822 -0.0040112)
(0.0291441 -0.197942 -0.00459457)
(0.0269229 -0.18598 0.00300749)
(0.020955 -0.187551 0.00635497)
(0.00626621 -0.183762 0.0143951)
(-0.000586009 -0.165282 0.0158357)
(-0.0118163 -0.142287 0.0111124)
(-0.0295037 -0.0744068 0.00990224)
(-0.0172558 -0.0202986 -0.00205921)
(-0.00270877 -0.00146985 -0.00613439)
(0.000721859 0.0128012 -0.00359156)
(0.000357338 0.0243278 -0.00439491)
(-0.00153559 0.0353964 -0.00376302)
(-0.00188885 0.0414621 -0.000220796)
(-0.000924091 0.0378916 0.00272485)
(-0.00071145 0.0287128 0.00439626)
(-0.0020296 0.0216236 -0.00189012)
(-0.0010069 0.0148674 -0.00134151)
(-0.0003152 0.0184778 0.00373754)
(-0.000429278 0.0405527 0.00353189)
(-0.000912732 0.0593615 0.000688023)
(-0.00262326 0.0669486 0.00350176)
(-0.00279432 0.054302 0.0163525)
(0.000768556 0.0336921 0.00756666)
(0.00991826 0.0152831 0.00800811)
(0.012698 -0.00422448 0.00517832)
(0.0105547 -0.0131982 -0.000639131)
(0.00899064 -0.00993572 -0.00758279)
(0.00954276 -0.00327216 -0.00592594)
(0.021365 0.0205014 0.00366013)
(0.0227512 0.00405522 0.0027045)
(0.0104447 0.000373995 -0.00100272)
(0.00933058 -0.000708483 -0.000122054)
(0.00489684 -0.00336379 0.00110542)
(0.00517949 -0.000950321 0.0014827)
(0.00468389 -0.000660946 0.00228603)
(0.00412426 0.0010715 0.00258883)
(0.00296867 0.00124181 0.00284165)
(0.00197722 0.00298212 0.00294856)
(0.00158198 0.00402413 0.0031661)
(0.00185516 0.00489328 0.00378961)
(0.00227738 0.00486601 0.00409531)
(0.00271177 0.00449412 0.00436163)
(0.00287558 0.00364396 0.00439134)
(0.00307664 0.00281578 0.00437641)
(0.00317019 0.00187385 0.00428337)
(0.00326631 0.00111199 0.00419308)
(0.00333443 0.000453095 0.00410753)
(0.00336828 -1.31457e-05 0.00405052)
(0.00336403 -0.000318009 0.00401953)
(0.00337256 -0.000439306 0.00394962)
(0.00334988 -0.000460183 0.00393723)
(0.00329096 -0.000410795 0.00397802)
(0.00319473 -0.000323749 0.00406438)
(0.00307731 -0.000214605 0.00417988)
(0.00296915 -0.000108325 0.00427998)
(0.00287423 -2.56546e-05 0.00436211)
(0.00277038 3.22162e-05 0.0044463)
(0.00264904 8.32556e-05 0.00452812)
(0.00251776 0.000139577 0.00460899)
(0.0023799 0.000199607 0.00469189)
(0.00223684 0.000260662 0.00477956)
(0.00209 0.000319401 0.00487501)
(0.00194253 0.000369307 0.004982)
(0.00180024 0.000397666 0.00510176)
(0.0016555 0.000398522 0.0052231)
(0.00146633 0.000407592 0.00531052)
(0.00116202 0.000523109 0.00532402)
(0.000671308 0.000947263 0.00524099)
(-0.000180448 0.00184933 0.00500587)
(-0.00139715 0.00366141 0.00457322)
(-0.00270053 0.00629378 0.00411437)
(-0.00361704 0.00989547 0.00365852)
(-0.00422563 0.0144175 0.00260262)
(-0.0035824 0.0226547 0.00120124)
(-0.00220236 0.0291309 0.00126237)
(-0.00318822 0.0331182 -0.00085397)
(-0.00222065 0.0364164 -0.000637695)
(0.0158562 0.0337837 0.00059843)
(0.0452356 0.0106113 -0.00345945)
(0.0517595 -0.00154196 -0.00278629)
(0.0434366 -0.00958499 -0.000814809)
(0.00984164 -0.0377166 0.00206946)
(-0.0142229 -0.0124219 0.0125117)
(-0.017299 -0.0573843 0.0215754)
(-0.0225648 0.00237449 0.0274801)
(-0.0293393 -0.108233 0.0757645)
(-0.0778688 0.058014 -0.0749153)
(0.00453908 0.0572591 0.0373265)
(0.17972 -0.248147 0.119065)
(0.127404 -0.0600867 0.0624548)
(0.075166 -0.144028 0.00677003)
(0.064455 -0.136238 0.0176547)
(0.0393295 -0.130366 0.0233053)
(0.0197935 -0.124414 0.0172817)
(0.00266822 -0.113496 0.00564692)
(-0.00626823 -0.095903 0.00129363)
(0.00355544 -0.0794689 0.00517016)
(0.0115057 -0.0682325 0.0245953)
(0.00518749 -0.0793192 0.0431291)
(-0.00905735 -0.0870762 0.0518423)
(-0.0183422 -0.0826994 0.0425517)
(-0.0446605 -0.0643121 0.011047)
(-0.0458962 -0.0189605 -0.0042862)
(-0.0201347 -0.00340402 -0.00496055)
(-0.00469212 0.00502555 -0.00011654)
(0.00557921 0.011481 0.00182793)
(0.00952094 0.02318 -0.00287822)
(0.00632089 0.0369382 -0.00979899)
(-0.00349367 0.0464211 -0.00891748)
(-0.00989262 0.0449175 -0.00554397)
(-0.0103643 0.0377235 -0.00431717)
(-0.00531141 0.0311276 -0.0055665)
(-0.00354051 0.0292433 -0.00646436)
(-0.0083465 0.0352547 -0.00294873)
(-0.00727657 0.0563671 -0.00734128)
(-0.00470918 0.0713964 -0.00593475)
(-0.00588686 0.0768349 -0.000236744)
(-0.00473032 0.0540676 0.013412)
(0.000883216 0.0310044 0.00891297)
(0.0119213 0.00641354 0.0154766)
(0.017 -0.00397924 0.0155471)
(0.00983526 -0.0160175 0.0148302)
(0.00300315 -0.0183148 0.00503852)
(0.00566584 -0.0114844 -0.00802525)
(0.0244755 0.0200059 0.00499155)
(0.0267102 0.0100505 0.00501003)
(0.0151993 0.00420245 0.00183501)
(0.0124545 0.00336094 0.00293623)
(0.00527467 -0.00143858 0.00388888)
(0.00397192 0.00054268 0.00367684)
(0.00255206 0.000191427 0.00428222)
(0.00217714 0.00214051 0.00421598)
(0.00102548 0.00213328 0.00425359)
(0.000377541 0.00324303 0.00436996)
(1.35936e-05 0.00350044 0.00440743)
(0.00053556 0.00416126 0.00469405)
(0.000959524 0.00410108 0.00492259)
(0.00149823 0.00413648 0.00511872)
(0.00174997 0.00368388 0.00512537)
(0.00205122 0.00326324 0.00510171)
(0.00219904 0.00261116 0.00502441)
(0.00232809 0.00204906 0.00496051)
(0.00239911 0.00149835 0.00490464)
(0.00242969 0.00106407 0.0048842)
(0.00240294 0.000691592 0.00489115)
(0.00232147 0.000417471 0.00492895)
(0.00222353 0.000233786 0.00498167)
(0.00210618 0.000128018 0.00504182)
(0.00196755 7.80034e-05 0.00510576)
(0.00181998 6.63582e-05 0.00517057)
(0.0016696 7.92188e-05 0.0052386)
(0.00151663 0.000112888 0.00531259)
(0.00135428 0.000158412 0.0053905)
(0.00117284 0.000205426 0.00547024)
(0.000982928 0.000244065 0.00555001)
(0.000793825 0.000272236 0.00563138)
(0.000598253 0.000299475 0.00571241)
(0.000391535 0.000327777 0.00579249)
(0.000180406 0.000366458 0.00587466)
(-2.69065e-05 0.00043201 0.00596121)
(-0.000239911 0.000548459 0.0060454)
(-0.000524139 0.000754321 0.00610393)
(-0.00098925 0.00111324 0.00611969)
(-0.00171676 0.00172365 0.00608151)
(-0.00287413 0.00258999 0.00598899)
(-0.00446227 0.00376364 0.00594408)
(-0.00630029 0.00493584 0.00594239)
(-0.00803521 0.00648853 0.00561958)
(-0.00991484 0.00944552 0.00451837)
(-0.00935475 0.0128489 0.00388754)
(-0.00378036 0.0118049 0.0048943)
(0.00232281 0.00488721 0.00345869)
(0.00645157 0.000852565 0.00213607)
(0.0213531 -0.0124208 0.011387)
(0.0573159 -0.0407311 0.00383963)
(0.0718648 -0.0494921 -0.00842322)
(0.0687761 -0.0431092 -0.0122805)
(0.0436688 -0.0437386 -0.0129135)
(0.00176506 -0.0158166 0.00561811)
(-0.00498079 -0.0708416 0.0174561)
(-0.0336087 -0.0115892 0.0187112)
(-0.0245831 -0.136616 0.0706078)
(-0.097415 0.0588172 -0.0464875)
(0.0484562 0.076544 -0.00899331)
(0.234598 -0.267537 0.132074)
(0.159167 -0.0475324 0.0743321)
(0.0994457 -0.127789 0.0164504)
(0.0748484 -0.0951719 0.0284071)
(0.0331628 -0.0863465 0.0142312)
(0.0179319 -0.0823363 0.00511989)
(0.00984978 -0.0742995 0.000946408)
(0.0067457 -0.0653996 0.000352918)
(0.0183344 -0.0578011 0.00464913)
(0.0355624 -0.0263568 0.0173276)
(0.0188686 -0.0151663 0.0292329)
(-0.0314561 0.00410665 0.0116835)
(-0.0549026 0.0126562 0.000732521)
(-0.0580022 0.0186359 -0.00460617)
(-0.0344928 0.0174239 0.00217847)
(-0.00516305 0.0186976 0.0078334)
(0.00918875 0.0238053 0.00311953)
(0.0146593 0.032795 -0.00175385)
(0.0128199 0.0475751 -0.0113166)
(0.00808645 0.0593763 -0.0106053)
(0.00280904 0.0631226 -0.00557815)
(-0.00485259 0.0609881 -0.00499266)
(-0.00808846 0.0594134 -0.00389507)
(-0.00663304 0.0607482 -0.00446796)
(-0.00469646 0.0616417 -0.00243357)
(0.000358189 0.0644716 -0.00580784)
(0.00883304 0.0738297 -0.00951692)
(0.0118582 0.0795688 -0.0086059)
(0.0115333 0.0745683 -0.000252774)
(0.0107836 0.0566013 0.0104881)
(0.0150729 0.0293753 0.0210627)
(0.0152976 0.0116952 0.0239075)
(0.0164481 0.00276783 0.0233193)
(0.0126088 -0.0126654 0.0187275)
(0.00311466 -0.0155204 0.00923974)
(0.00106451 -0.00890405 -0.00423474)
(0.0253239 0.0192029 0.00516425)
(0.028915 0.0143038 0.00514266)
(0.0179748 0.00658992 0.0011989)
(0.0152799 0.00721172 0.00151597)
(0.00630564 0.000910676 0.00305863)
(0.00336968 0.00247084 0.0033286)
(0.000995013 0.000636369 0.0043143)
(0.000510572 0.00227933 0.00426769)
(-0.000536126 0.00172017 0.00436425)
(-0.000991741 0.00255192 0.00450049)
(-0.0013219 0.00245667 0.00462709)
(-0.000863094 0.00306502 0.00497351)
(-0.000576017 0.00326195 0.00519364)
(-5.93336e-06 0.00362014 0.00536101)
(0.000301326 0.00346192 0.00534872)
(0.000645824 0.00332615 0.00534828)
(0.000819755 0.00287838 0.00530177)
(0.000941387 0.00245369 0.00527754)
(0.000980552 0.00197993 0.00524231)
(0.000988612 0.00157828 0.00522399)
(0.000933864 0.0012042 0.00521793)
(0.000835735 0.000884258 0.00522642)
(0.000705213 0.000615942 0.00524926)
(0.000552537 0.000416882 0.00528215)
(0.000388028 0.000287264 0.00532113)
(0.000220606 0.000219979 0.00536361)
(6.24475e-05 0.000199067 0.00540739)
(-8.73871e-05 0.000205943 0.00545523)
(-0.000239629 0.000224876 0.00551215)
(-0.000406696 0.000247505 0.00557702)
(-0.000578658 0.000274838 0.0056443)
(-0.000746871 0.000301813 0.0057049)
(-0.000921241 0.000324124 0.0057569)
(-0.00110704 0.000342592 0.00580006)
(-0.00131305 0.000370963 0.00583798)
(-0.00154447 0.000441515 0.00587215)
(-0.00182179 0.000601621 0.00589478)
(-0.00221632 0.000882693 0.00589696)
(-0.00282349 0.00127821 0.0058806)
(-0.0037342 0.0017905 0.00584885)
(-0.0050568 0.00234624 0.00584588)
(-0.00673513 0.00283692 0.00591529)
(-0.00867489 0.00300235 0.00592741)
(-0.0110601 0.00369502 0.00508084)
(-0.0122242 0.00459657 0.00384444)
(-0.00879856 0.00437694 0.00359537)
(0.000241154 -0.00330347 0.00511221)
(0.0048683 -0.012863 0.0067262)
(0.0143045 -0.0305644 0.00510217)
(0.0388805 -0.0676612 0.0080093)
(0.0622736 -0.0942382 0.00336061)
(0.071346 -0.0941251 -0.00857836)
(0.0648893 -0.0720721 -0.0150276)
(0.0401816 -0.0462574 -0.0200301)
(0.000410623 0.011216 0.000796776)
(0.00494889 -0.0837487 0.0134017)
(-0.0287483 -0.0161179 0.0191243)
(-0.0499421 -0.175325 0.055754)
(-0.119537 0.137204 -0.0565222)
(0.0953475 -0.00491142 0.0210327)
(0.255759 -0.232009 0.136601)
(0.133845 0.0190997 0.0600017)
(0.0792746 -0.105342 0.0160455)
(0.0403474 -0.0503553 0.00786033)
(-0.00044081 -0.0532259 -0.00857536)
(-0.0131854 -0.0380517 0.000870829)
(-0.0225946 -0.0425185 0.00299362)
(-0.0225758 -0.0376121 0.00727267)
(-0.0167885 -0.0288947 0.00557599)
(-0.0145821 0.0150547 -0.0133028)
(-0.0107745 0.0545349 -0.00856663)
(-0.0119446 0.0621007 -0.00468693)
(-0.0165156 0.0582436 0.00226461)
(-0.0179973 0.0564387 0.0058841)
(-0.00956575 0.0533105 0.00592665)
(-0.00293601 0.0601126 0.00242707)
(0.00360289 0.0683874 -0.00377933)
(0.00668702 0.0722178 -0.00593442)
(0.00799027 0.0753276 -0.00461538)
(0.00504049 0.079103 -0.00432808)
(-0.00145013 0.0799279 -0.00731638)
(-0.00581355 0.082475 -0.007273)
(-0.00684555 0.0846682 -0.00689414)
(-0.00236787 0.0851951 -0.00205267)
(0.00652164 0.0848899 0.00406709)
(0.0111718 0.0823969 0.00672059)
(0.016493 0.0855192 0.00723344)
(0.0202651 0.0858933 0.0144683)
(0.0164459 0.0737543 0.0192064)
(0.0145814 0.0532029 0.0268802)
(0.0110099 0.0331653 0.0305938)
(0.00516741 0.0188575 0.0282537)
(0.0131007 0.00641553 0.0266203)
(0.00660268 -0.00443408 0.019009)
(-0.004977 -0.00841718 0.00495899)
(-0.00195828 -0.000971395 -0.00308497)
(0.0252602 0.0188354 0.00483234)
(0.0304003 0.0174857 0.00509841)
(0.0206818 0.00890511 0.000642455)
(0.0193645 0.0105008 1.29855e-05)
(0.00863115 0.00252192 0.00024942)
(0.0040209 0.00395711 0.00118037)
(-6.10373e-05 0.000281156 0.00339346)
(-0.000912614 0.00236714 0.00357305)
(-0.0020111 0.0011284 0.00379528)
(-0.00251369 0.0018601 0.00419157)
(-0.00320941 0.00144481 0.00441459)
(-0.00311552 0.00215075 0.00485976)
(-0.00303048 0.0025244 0.00504407)
(-0.00240592 0.00314705 0.00521975)
(-0.00201001 0.00317399 0.00517589)
(-0.00163085 0.00315679 0.00520149)
(-0.00143549 0.00280655 0.00519899)
(-0.00138883 0.00249201 0.00522439)
(-0.0014345 0.00211483 0.00521011)
(-0.00149864 0.00177955 0.00518184)
(-0.00159316 0.00143588 0.00513941)
(-0.00170835 0.00110887 0.0050991)
(-0.00183766 0.000807641 0.00506881)
(-0.00198719 0.000561428 0.00504767)
(-0.00215797 0.000377277 0.00503364)
(-0.0023193 0.000255553 0.00502845)
(-0.00246028 0.000182764 0.00503191)
(-0.00258528 0.000141282 0.0050425)
(-0.00271324 0.000125563 0.00505669)
(-0.00285993 0.000132645 0.00507757)
(-0.00301433 0.000153774 0.0050993)
(-0.00317167 0.000176122 0.00511518)
(-0.00333529 0.000194742 0.00512186)
(-0.00351005 0.000214831 0.00511782)
(-0.00370975 0.000254668 0.00510484)
(-0.00395116 0.000354285 0.00508231)
(-0.00425214 0.000570884 0.00504323)
(-0.00465959 0.000928148 0.00499401)
(-0.00526145 0.00138697 0.00494912)
(-0.00615842 0.00186216 0.00492986)
(-0.00740304 0.00217178 0.00499159)
(-0.00895127 0.00216055 0.00507289)
(-0.0109973 0.00171258 0.00468434)
(-0.0129145 0.00139214 0.00337903)
(-0.0125723 0.000459249 0.00209256)
(-0.00626335 -0.00346405 0.00270946)
(0.0033766 -0.0147138 0.00764122)
(0.013574 -0.0387671 0.00947974)
(0.045592 -0.0837068 0.00770007)
(0.0596778 -0.10856 0.00579772)
(0.0652843 -0.115512 0.000938123)
(0.0755308 -0.108844 -0.0103965)
(0.0677928 -0.0701586 -0.017899)
(0.038615 -0.0277826 -0.0134843)
(0.0594144 0.0528644 0.022893)
(0.0702471 -0.0391657 0.0344225)
(-0.0667064 0.0524577 0.0560233)
(-0.0846801 -0.204412 0.114001)
(-0.124246 0.136913 -0.0244241)
(0.0805425 -0.0281656 0.0265827)
(0.261528 -0.173663 0.152186)
(0.125351 0.0565066 0.0372246)
(0.0966092 -0.0608614 0.0176834)
(0.0336887 -0.000492626 0.00217737)
(0.0168817 0.000342465 -0.0192347)
(0.0171785 0.0291919 -0.0205267)
(0.0126068 0.0476414 -0.0198329)
(-0.00635435 0.0463927 -0.0188334)
(-0.0232709 0.0716001 -0.0253139)
(-0.0251858 0.092176 -0.0107845)
(-0.0166859 0.111995 -0.00181393)
(-0.0143221 0.127907 -0.00366922)
(-0.0148131 0.138101 -0.00819653)
(-0.0131136 0.141948 -0.0155186)
(-0.0033237 0.147839 -0.0141651)
(0.00370087 0.149417 -0.0124314)
(0.0105322 0.146622 -0.00970071)
(0.0159709 0.143151 -0.0058452)
(0.0178813 0.137627 -0.00569097)
(0.0171216 0.133629 -0.00494439)
(0.0163954 0.130893 -0.00599275)
(0.0149062 0.12891 -0.00666578)
(0.0134638 0.125128 -0.000804328)
(0.0143305 0.11949 0.0047337)
(0.017913 0.114466 0.0101241)
(0.0215325 0.11205 0.0152704)
(0.0223787 0.106822 0.0212071)
(0.0182408 0.096893 0.0257586)
(0.0141777 0.083413 0.0327834)
(0.00983022 0.06301 0.0371586)
(0.00618451 0.0459672 0.0327429)
(0.00283888 0.0284107 0.02986)
(0.00310339 0.020042 0.0269662)
(0.00238333 0.0151121 0.0214269)
(-0.00335956 0.0095172 0.00657082)
(0.000384564 0.00953205 0.00324133)
(0.0245545 0.0182968 0.0042331)
(0.031809 0.0216118 0.00585847)
(0.0228144 0.0115899 0.00123054)
(0.0234567 0.0135541 0.000937463)
(0.0133477 0.00341726 -0.00180381)
(0.00673257 0.00495356 -0.00139859)
(-6.88486e-05 -0.000438105 0.00156277)
(-0.00212666 0.00235707 0.00215545)
(-0.00283529 0.000446284 0.00264561)
(-0.00356147 0.00137588 0.00330268)
(-0.00424005 0.000660682 0.00358536)
(-0.00433052 0.00150998 0.00420102)
(-0.00426448 0.00206696 0.00441555)
(-0.00344126 0.00289743 0.00476838)
(-0.00278029 0.00289857 0.00490808)
(-0.00227788 0.00280426 0.00513184)
(-0.00208093 0.00241129 0.00524742)
(-0.00212562 0.00213186 0.00532299)
(-0.00224876 0.00187519 0.00530872)
(-0.00236164 0.001684 0.005247)
(-0.00248845 0.00148342 0.00513952)
(-0.00262552 0.00127325 0.00500567)
(-0.00279177 0.00105291 0.00486958)
(-0.002965 0.000851701 0.00474354)
(-0.00312694 0.000689524 0.00463094)
(-0.00327017 0.000575437 0.0045271)
(-0.00337955 0.000490266 0.00443586)
(-0.00347319 0.000421624 0.00436125)
(-0.00357959 0.000366546 0.00430726)
(-0.00369727 0.000332835 0.00428001)
(-0.00381107 0.000324579 0.00427018)
(-0.00391542 0.000334775 0.00426456)
(-0.00402224 0.000360528 0.00425199)
(-0.00414514 0.000404536 0.00422476)
(-0.00432436 0.000485192 0.00417915)
(-0.00460163 0.000643192 0.00410663)
(-0.00500955 0.000923362 0.00398942)
(-0.00557333 0.00131958 0.00382524)
(-0.00632055 0.00173967 0.0036304)
(-0.00722618 0.00201508 0.00347543)
(-0.00827238 0.00190957 0.00346621)
(-0.00950993 0.00139377 0.00349857)
(-0.0109162 0.000434003 0.00309477)
(-0.0120451 -0.000636233 0.00214495)
(-0.00952985 -0.00337996 0.00203488)
(-0.00319324 -0.0128408 0.00490785)
(0.0178878 -0.0401314 0.0123175)
(0.051807 -0.0807233 0.00554403)
(0.06493 -0.110124 0.00288491)
(0.0684734 -0.112724 -0.00125535)
(0.0663576 -0.0980886 -0.0045373)
(0.0330861 -0.0408551 -0.031904)
(-0.00423795 0.0863546 -0.00607532)
(-0.00245987 0.130324 0.0495316)
(0.00203309 0.130064 0.0694035)
(-0.000510706 0.10675 0.0739517)
(0.0327118 0.151815 0.102653)
(0.0818277 -0.237519 0.191503)
(-0.0741539 0.206731 0.0350789)
(0.0673786 -0.0630054 0.0281222)
(0.182311 -0.0677144 0.126915)
(0.0684863 0.128903 -0.0105656)
(0.0622002 0.136382 -0.00631036)
(0.00614705 0.224033 -0.0216818)
(0.0182124 0.262723 -0.0142478)
(0.0122512 0.271071 -0.00890997)
(0.0140187 0.272696 -0.00466699)
(0.00394033 0.265293 0.00162292)
(-0.00357506 0.25681 0.00112737)
(-0.00619681 0.254448 -0.000686753)
(-0.00298245 0.253153 -0.00408177)
(0.00418511 0.255465 -0.00374701)
(0.00750612 0.251947 0.00112558)
(0.0108116 0.244027 0.00087633)
(0.018902 0.239693 -6.65862e-05)
(0.021613 0.231369 0.000493074)
(0.0243732 0.222451 0.00115861)
(0.0290561 0.215089 0.000539242)
(0.0297528 0.207967 -0.000474593)
(0.0299568 0.199873 -0.00078766)
(0.0318642 0.193552 -0.00139136)
(0.0312262 0.186544 -0.000938047)
(0.0293341 0.178801 0.000118265)
(0.0275316 0.17088 0.00387049)
(0.0263461 0.163088 0.00914867)
(0.0248832 0.155783 0.0143431)
(0.0223462 0.144828 0.0217514)
(0.0177826 0.131055 0.0317131)
(0.0119371 0.114422 0.0367391)
(0.00668542 0.0945396 0.0368654)
(0.000260161 0.0737679 0.0326818)
(-0.00302085 0.0588278 0.0299238)
(-0.00413667 0.051787 0.0227399)
(-0.00803512 0.0475187 0.0109081)
(-0.00336254 0.0390592 -0.00520576)
(0.0140487 0.0182235 -0.0098973)
(0.0221996 0.0171762 0.00381855)
(0.0322927 0.0261374 0.00769128)
(0.0238276 0.0145338 0.00331244)
(0.0247381 0.0166787 0.00349602)
(0.0175225 0.00411149 -0.00116182)
(0.00980614 0.00533252 -0.00237278)
(0.000554572 -0.001004 -0.000103481)
(-0.00282135 0.00271426 0.000735759)
(-0.00386872 0.000113982 0.00144922)
(-0.00473326 0.0012557 0.00230629)
(-0.00587867 0.000278567 0.00250344)
(-0.006648 0.00120087 0.00337376)
(-0.00689871 0.0015401 0.00376434)
(-0.00584388 0.00236125 0.00460666)
(-0.00495086 0.00218609 0.00518577)
(-0.00446601 0.00212388 0.005731)
(-0.00442836 0.00178281 0.00598522)
(-0.00473997 0.00162905 0.0060652)
(-0.00509299 0.00153364 0.00599098)
(-0.00534118 0.00153002 0.00585318)
(-0.00552024 0.00152996 0.0056547)
(-0.00563233 0.00152273 0.00542034)
(-0.00573154 0.0014834 0.00518593)
(-0.00583309 0.00142343 0.00496752)
(-0.0059676 0.00136965 0.0047923)
(-0.00604909 0.00133624 0.00463922)
(-0.0060748 0.00129338 0.00451384)
(-0.00607298 0.00123064 0.00443531)
(-0.00608604 0.00115078 0.00440046)
(-0.00614331 0.00108143 0.00440386)
(-0.00622297 0.00104958 0.00443048)
(-0.0063046 0.00105805 0.00446137)
(-0.00639547 0.00111374 0.00448511)
(-0.00650493 0.001216 0.00448522)
(-0.00668813 0.00136885 0.00444567)
(-0.00698213 0.00158647 0.00435096)
(-0.00737782 0.00186291 0.00418712)
(-0.00782434 0.00215023 0.00395982)
(-0.00829219 0.00231927 0.00366214)
(-0.00878745 0.00214096 0.0033152)
(-0.0093665 0.00147632 0.0030342)
(-0.0101624 0.000423453 0.0028977)
(-0.0112608 -0.000848137 0.00274615)
(-0.0110054 -0.00242851 0.00279174)
(-0.00552442 -0.00852258 0.00487229)
(0.0139119 -0.0234534 0.00918861)
(0.0509898 -0.0649264 0.00505664)
(0.0789408 -0.0670745 -0.00582254)
(0.0729425 -0.0487606 -0.00452065)
(0.0302102 0.0145545 -0.0160981)
(-0.0255918 0.108179 -0.00256145)
(-0.0210094 0.167362 -0.00879241)
(-0.0150878 0.186961 -0.0186091)
(-0.00395472 0.202095 0.00103998)
(0.0101755 0.190641 0.0242702)
(0.0700146 0.174609 0.0300929)
(0.107906 0.174274 0.0447768)
(0.0601654 0.0890868 0.0704203)
(-0.131551 0.351648 0.073967)
(0.0249841 -0.133625 0.0306537)
(0.0538825 0.0355641 0.0746863)
(0.0123086 0.208102 -0.0237681)
(-0.0105737 0.258937 -0.0106227)
(0.00743793 0.289491 -0.00932638)
(0.0280959 0.289797 -0.00938845)
(0.0332624 0.295194 -0.0124078)
(0.0333406 0.305286 -0.0112267)
(0.0243196 0.308855 -0.00767141)
(0.0116435 0.308588 -0.00326825)
(0.00600522 0.304357 -0.00204479)
(0.00533959 0.295796 0.00348725)
(0.00720013 0.286454 0.00807792)
(0.00956893 0.278459 0.0115481)
(0.0120862 0.26834 0.0156369)
(0.0178279 0.259349 0.0146016)
(0.0207644 0.251159 0.0149031)
(0.0224469 0.241229 0.0163931)
(0.0249876 0.232477 0.0155799)
(0.0266066 0.226626 0.0144523)
(0.027007 0.219905 0.0137377)
(0.02852 0.214258 0.0142037)
(0.0269966 0.208275 0.0150041)
(0.0250871 0.202366 0.0163778)
(0.0237174 0.195384 0.0183109)
(0.0215645 0.189416 0.0189954)
(0.0182858 0.181355 0.022038)
(0.0136387 0.170797 0.0283365)
(0.00928733 0.157099 0.0312016)
(0.00638472 0.137788 0.0312743)
(0.0051461 0.113083 0.0285884)
(0.000110021 0.088558 0.0187346)
(-0.00740544 0.063052 0.00486794)
(-0.0139717 0.0463153 -0.0139876)
(-0.00856497 0.0472683 -0.0338304)
(0.0171253 0.0344894 -0.0501178)
(0.0392993 0.0232761 -0.0561559)
(0.0225205 0.013401 0.00300306)
(0.0315957 0.0296769 0.00882969)
(0.0239681 0.0178779 0.00359591)
(0.0256541 0.0211651 0.00376908)
(0.0203668 0.00675311 -0.000867234)
(0.012228 0.00610947 -0.00250758)
(0.000212283 -0.00162405 -0.00128188)
(-0.00402748 0.00248505 -0.000220173)
(-0.00381108 -0.000602708 0.00156425)
(-0.00506386 0.00158747 0.00222774)
(-0.0058828 0.000305302 0.00247622)
(-0.00652701 0.00115745 0.0036318)
(-0.00664859 0.000626144 0.00432624)
(-0.00538181 0.000982235 0.00560074)
(-0.00449525 0.000605256 0.00650297)
(-0.00411115 0.000791944 0.00741656)
(-0.00415317 0.000835136 0.00792498)
(-0.00449234 0.00111684 0.00812531)
(-0.00482259 0.00132133 0.0080984)
(-0.00503007 0.00158198 0.0079655)
(-0.00518194 0.00182403 0.00774173)
(-0.00528396 0.00201494 0.00745954)
(-0.00537373 0.00211833 0.00717426)
(-0.00545256 0.00216885 0.00691109)
(-0.00553369 0.00216069 0.00667489)
(-0.00558032 0.00211586 0.00647576)
(-0.0055649 0.00205337 0.00633451)
(-0.00551926 0.00196633 0.00624193)
(-0.00548927 0.00186147 0.00619813)
(-0.00551375 0.00176422 0.00619261)
(-0.00556852 0.00172055 0.00620713)
(-0.00563253 0.00173696 0.00621721)
(-0.00571829 0.00182056 0.00620328)
(-0.00582556 0.00195862 0.00615127)
(-0.00601841 0.00214087 0.0060495)
(-0.00633111 0.00235487 0.00588068)
(-0.00674592 0.00254575 0.00562792)
(-0.00719218 0.00261872 0.00530016)
(-0.00752671 0.00245488 0.00493296)
(-0.00767875 0.00187439 0.00460212)
(-0.00781982 0.000806971 0.0043954)
(-0.00824185 -0.000485032 0.00448629)
(-0.00895871 -0.00153936 0.00497725)
(-0.0069388 -0.00314367 0.00634121)
(0.00128177 -0.00664893 0.00988965)
(0.0306382 -0.0260749 0.00400681)
(0.0549085 0.0034631 -0.0169833)
(0.015594 0.0924497 -0.0163543)
(-0.0335267 0.132658 -0.00426911)
(-0.0384318 0.185336 -0.0159515)
(-0.0332675 0.208003 -0.0105347)
(-0.0201551 0.233494 -0.00664935)
(-0.0162832 0.242193 -0.00367369)
(-0.00199506 0.239495 0.0229579)
(0.0235119 0.221879 0.043989)
(0.0844177 0.226628 0.0609065)
(0.139841 0.251789 0.0714376)
(0.189781 0.183001 0.0847611)
(0.242291 0.447669 0.0690998)
(-0.0332426 -0.175352 0.0318203)
(-0.0952528 -0.0538977 0.055387)
(-0.0336634 0.148726 -0.0236807)
(-0.0257096 0.132553 -0.00741756)
(0.0213538 0.150368 0.00862813)
(0.037633 0.134113 0.0152269)
(0.0412153 0.132384 0.00436548)
(0.0348499 0.13693 -0.00658913)
(0.027103 0.148381 -0.0156056)
(0.00998185 0.167128 -0.0214353)
(0.00440483 0.181251 -0.0139733)
(0.00878447 0.192924 0.0013331)
(0.0127535 0.198846 0.00957185)
(0.0151298 0.205723 0.0187062)
(0.0206108 0.204975 0.0276237)
(0.023553 0.204194 0.030699)
(0.0240746 0.200893 0.0322913)
(0.0247142 0.199239 0.0333331)
(0.0249957 0.198531 0.0336355)
(0.0248206 0.196765 0.0312067)
(0.0246984 0.196742 0.0291783)
(0.0242748 0.195836 0.0282612)
(0.0234637 0.193668 0.0287583)
(0.0229675 0.191807 0.0296814)
(0.0232454 0.186677 0.0296436)
(0.0228793 0.182773 0.0300307)
(0.0221569 0.175379 0.0311317)
(0.0193973 0.167059 0.0315764)
(0.0190971 0.151712 0.0328095)
(0.022635 0.131896 0.0300487)
(0.0289827 0.108539 0.0277922)
(0.0353976 0.0844526 0.0219226)
(0.0358282 0.0581651 0.0144896)
(0.0278148 0.0305952 0.00301095)
(0.0268908 0.0196482 -0.00227818)
(0.0615924 0.0119401 0.00324632)
(0.100468 0.00372432 -0.0142314)
(0.015378 0.009036 0.000106225)
(0.028765 0.0307007 0.00794958)
(0.0230677 0.0217511 0.00184044)
(0.0263919 0.0268725 0.00248441)
(0.0239931 0.0115025 -0.000548899)
(0.0164861 0.00849525 -0.00235497)
(0.00175678 -0.00250298 -0.00662942)
(-0.00406031 0.00239567 -0.00513699)
(-0.00627812 -0.00109044 -0.00215099)
(-0.00705522 0.00201815 -0.00103174)
(-0.00771276 0.000208067 -0.000734611)
(-0.00821993 0.000838694 0.00054793)
(-0.00856446 -0.000311435 0.00134269)
(-0.00807158 -0.00012785 0.00248209)
(-0.00787599 -0.000391613 0.00331525)
(-0.00798924 4.99548e-05 0.00415866)
(-0.00833981 0.000361943 0.00483252)
(-0.00879184 0.000864105 0.00526535)
(-0.00920744 0.0012204 0.00546342)
(-0.00952025 0.00160292 0.00551118)
(-0.0096792 0.00192717 0.00542503)
(-0.00961682 0.00219126 0.00526424)
(-0.00952609 0.00236677 0.00509257)
(-0.00942482 0.00247006 0.0049323)
(-0.00932365 0.00250084 0.00478091)
(-0.00920495 0.00247663 0.00464484)
(-0.00905652 0.00242327 0.00453769)
(-0.00890758 0.00235534 0.00445927)
(-0.00880649 0.00228317 0.00441466)
(-0.00881621 0.00221266 0.00440019)
(-0.00891282 0.00218034 0.00439695)
(-0.00902639 0.0022074 0.0043822)
(-0.00915525 0.00228942 0.0043428)
(-0.00927962 0.00241864 0.00426976)
(-0.00945085 0.00257507 0.00416589)
(-0.00966221 0.00273492 0.0040199)
(-0.00986021 0.00283634 0.00381163)
(-0.00996271 0.00277028 0.0035384)
(-0.00987747 0.00241881 0.00322993)
(-0.00963474 0.00164393 0.0029441)
(-0.0095254 0.000499464 0.00274948)
(-0.0100934 -0.000888158 0.00282604)
(-0.0110546 -0.00202998 0.00355933)
(-0.00878478 -0.00470469 0.00541523)
(0.000741366 -0.00682876 0.00790604)
(0.00103169 -0.0224499 -0.00846014)
(-0.0103496 0.0768405 -0.0163087)
(-0.0172205 0.135769 -0.00155415)
(-0.0222162 0.153931 0.00391584)
(-0.0298895 0.168197 0.00237105)
(-0.0239191 0.176274 0.0116839)
(0.0100014 0.16627 0.0256632)
(0.02966 0.139765 0.0348729)
(0.0429185 0.116936 0.0425837)
(0.0518425 0.108879 0.0555342)
(0.0795574 0.0720604 0.0507312)
(0.0673425 0.14937 0.0550802)
(0.154014 0.0331679 0.0494954)
(0.323357 0.468575 0.0324735)
(-0.0374738 -0.152872 0.0264298)
(-0.14787 -0.103355 0.0427485)
(-0.0575384 0.141315 -0.0224238)
(-0.0599982 0.0687478 0.00703445)
(0.0128335 0.0954206 0.0418885)
(0.0311123 0.0703393 0.0513808)
(0.0512694 0.0746807 0.0405917)
(0.053919 0.0568527 0.0334489)
(0.0529712 0.0400206 0.0202179)
(0.0419749 0.022796 0.00992552)
(0.0319493 0.00806324 -0.000774296)
(0.0221967 -0.000498592 -0.00477047)
(0.0140739 -0.0015595 -0.00902901)
(0.00747384 0.00254155 -0.0144437)
(0.00776873 0.0101347 -0.0157525)
(0.0101098 0.0218058 -0.0107904)
(0.0166369 0.034831 -0.00637515)