/*--------------------------------*- C++ -*----------------------------------*\
| =========                 |                                                 |
| \\      /  F ield         | OpenFOAM: The Open Source CFD Toolbox           |
|  \\    /   O peration     | Version:  2.3.0                                 |
|   \\  /    A nd           | Web:      www.OpenFOAM.org                      |
|    \\/     M anipulation  |                                                 |
\*---------------------------------------------------------------------------*/
FoamFile
{
    version     2.0;
    format      ascii;
    class       volVectorField;
    location    "44";
    object      U.airMean;
}
// * * * * * * * * * * * * * * * * * * * * * * * * * * * * * * * * * * * * * //

dimensions      [0 1 -1 0 0 0 0];

internalField   nonuniform List<vector> 
6144
(
(0.00955865 0.0200342 -0.000645039)
(0.00981153 -4.20774e-05 -0.00152699)
(0.00463468 -0.00156078 -0.00247464)
(0.00428121 -0.00243151 -0.00237286)
(0.0027385 -0.00253571 -0.00193122)
(0.00299448 -0.000991201 -0.00169131)
(0.00257246 -0.000987898 -0.00132138)
(0.00255737 0.000119668 -0.00101997)
(0.00226729 0.000376024 -0.000913486)
(0.00209044 0.00158589 -0.000613852)
(0.00193742 0.00244283 -0.000340565)
(0.00201949 0.00312941 5.01833e-05)
(0.00215432 0.00309911 0.000215791)
(0.00229339 0.00271291 0.000410665)
(0.00236392 0.00205761 0.000320408)
(0.00243854 0.00148369 0.000207081)
(0.00247984 0.000930697 3.36258e-06)
(0.00252506 0.000550056 -0.000159489)
(0.00255941 0.000239358 -0.000331245)
(0.00258434 6.68006e-05 -0.000459281)
(0.00259857 -3.99666e-05 -0.000557747)
(0.00260481 -6.61971e-05 -0.000614119)
(0.00260088 -6.2015e-05 -0.000635492)
(0.00258886 -2.86757e-05 -0.000627322)
(0.00256932 1.32386e-05 -0.000595297)
(0.00254423 5.88191e-05 -0.000542805)
(0.00251556 0.000100378 -0.000475591)
(0.00248523 0.000132 -0.000401191)
(0.00245412 0.000155889 -0.000323824)
(0.0024216 0.000157013 -0.000247384)
(0.00238846 0.000166831 -0.000170275)
(0.00234888 0.000125721 -8.71325e-05)
(0.00230891 0.000139613 8.6217e-06)
(0.00225982 1.99912e-05 0.000125418)
(0.00221797 1.66872e-05 0.000271089)
(0.00216951 -0.000299547 0.000439113)
(0.00214081 -0.000400425 0.000611626)
(0.00210849 -0.00102846 0.00074357)
(0.00210606 -0.00118138 0.000796538)
(0.00210424 -0.00200979 0.000716029)
(0.00212191 -0.00189435 0.000448267)
(0.00213912 -0.00243219 -7.536e-05)
(0.00217794 -0.00127996 -0.000691843)
(0.00238132 -0.000908531 -0.00121237)
(0.0027499 0.00100844 -0.00153107)
(0.0032799 0.000605097 -0.0018041)
(0.00399898 0.00172165 -0.00242592)
(0.00450605 0.000907145 -0.0036921)
(0.00349091 0.00602481 -0.00531679)
(0.00507456 0.011063 -0.00729096)
(0.0163824 0.0138646 -0.0101558)
(0.0261457 -0.00399317 -0.0106998)
(0.0332309 -0.0141071 -0.0117768)
(0.03369 -0.0517593 -0.0111258)
(0.0294466 -0.0475749 -0.012994)
(0.02577 -0.0888636 -0.00895088)
(0.00816544 -0.043784 -0.0157047)
(0.00706897 -0.0996267 0.0191542)
(-0.0358783 0.0197423 -0.0483971)
(0.032353 0.110002 0.0398493)
(0.109682 0.319377 0.0360114)
(0.0465105 0.391264 -0.00594902)
(0.0444548 -0.0839464 0.00124022)
(0.0492415 -0.172402 0.0055162)
(0.0404061 -0.17833 0.00598635)
(0.0331254 -0.170782 0.00589035)
(0.0268014 -0.168986 0.00500061)
(0.02194 -0.162786 0.00444403)
(0.0187887 -0.159414 0.00452287)
(0.0160768 -0.152545 0.00483307)
(0.0138882 -0.147841 0.00510905)
(0.0117542 -0.139757 0.00541018)
(0.010114 -0.132263 0.00590617)
(0.00786207 -0.122888 0.00640317)
(0.00481472 -0.112352 0.00665198)
(0.00240872 -0.0989626 0.00504444)
(0.00124503 -0.0855654 0.00217687)
(-0.000149564 -0.0724552 0.000517312)
(-0.00118555 -0.0591942 0.000491152)
(0.000156901 -0.0467118 0.00142176)
(0.00190946 -0.0368264 0.00211574)
(0.00288659 -0.028927 0.00285552)
(0.00305724 -0.0241298 0.00416596)
(0.00196139 -0.0207811 0.00476663)
(0.00145192 -0.0167333 0.00433973)
(0.00171318 -0.0117046 0.00364002)
(0.00210754 -0.00650224 0.00350193)
(0.0020972 -0.000966286 0.00298398)
(0.00131465 0.00403281 0.00212937)
(-6.94723e-05 0.0110933 0.00149515)
(0.000385981 0.0179491 0.00206493)
(0.00158054 0.0230639 0.00345747)
(0.00185296 0.0255648 0.0052368)
(0.00227531 0.0260191 0.00770714)
(0.00410583 0.0247419 0.00994065)
(0.00741343 0.0159079 0.0140505)
(0.0188025 0.0214262 0.00289898)
(0.0198892 0.00788214 0.00240082)
(0.0104136 0.00465348 -0.000423464)
(0.0101613 0.00331461 0.000301523)
(0.00601651 0.00033638 0.00102626)
(0.00593666 0.000990064 0.00155109)
(0.00441469 -9.87522e-05 0.00209429)
(0.00423606 0.00124295 0.00209984)
(0.00360632 0.00152229 0.00204488)
(0.00337898 0.00300689 0.00210387)
(0.00328861 0.00371989 0.00224971)
(0.00367174 0.00429308 0.00269231)
(0.00404031 0.00406388 0.00290615)
(0.00442692 0.00365564 0.00307788)
(0.00456092 0.00290531 0.00304924)
(0.00469689 0.00226356 0.00301115)
(0.00472015 0.00159939 0.00291876)
(0.00476927 0.00113382 0.00285513)
(0.00479135 0.000729564 0.002776)
(0.00480585 0.000480342 0.00272723)
(0.00480443 0.000305212 0.00268582)
(0.00479326 0.000228363 0.00266802)
(0.00476468 0.000192419 0.00267697)
(0.00472212 0.00019801 0.00271146)
(0.00466734 0.000220236 0.00276422)
(0.00460412 0.000253972 0.0028309)
(0.00453722 0.00028845 0.00290156)
(0.00447111 0.000315483 0.00296934)
(0.0044064 0.000334678 0.00303578)
(0.00434202 0.000331171 0.00309598)
(0.00427921 0.000333145 0.00315471)
(0.00420561 0.000274187 0.00321678)
(0.00414016 0.000267566 0.00328493)
(0.00406433 0.000104837 0.00335961)
(0.00402598 7.94102e-05 0.00344723)
(0.00398396 -0.000285529 0.00353983)
(0.0040052 -0.000359075 0.00363629)
(0.00400175 -0.00101014 0.00371109)
(0.00405573 -0.0010587 0.00375292)
(0.00404347 -0.00190427 0.00372105)
(0.00401347 -0.00162542 0.00358207)
(0.0039125 -0.00224536 0.0031754)
(0.00388809 -0.000991781 0.00248389)
(0.00409779 -0.00101063 0.00182354)
(0.00484187 0.000867988 0.00146739)
(0.00597323 9.49929e-05 0.00116317)
(0.00640373 0.0017416 4.93766e-05)
(0.00563377 0.0030552 -0.00161121)
(0.0053697 0.00945011 -0.00275126)
(0.012696 0.00699667 -0.00321895)
(0.0335271 0.00138497 -0.00450151)
(0.0484329 -0.0161703 -0.00440554)
(0.0593455 -0.0199437 -0.00238334)
(0.0575236 -0.0480468 0.000300443)
(0.0476313 -0.0357778 0.00554274)
(0.0472678 -0.0950406 0.0135305)
(0.00735099 -0.0449419 0.0123114)
(0.00175978 -0.160547 0.0411909)
(-0.0919732 0.0430143 -0.0763301)
(0.0226094 0.0429779 0.0231257)
(0.120525 0.35122 0.0778678)
(0.0247074 0.428805 0.00295388)
(0.0209659 -0.0659124 0.00671575)
(0.0246093 -0.0251646 0.0148781)
(0.0113446 -0.0433202 0.0163699)
(0.00461249 -0.0302864 0.0141608)
(0.00214628 -0.032046 0.0110515)
(0.00268939 -0.0271056 0.0103361)
(0.00447092 -0.0272977 0.0101724)
(0.00452403 -0.0239463 0.00881743)
(0.00316167 -0.0247712 0.00915385)
(0.00113772 -0.0241155 0.00970828)
(-0.000737595 -0.0266254 0.00984351)
(-0.00384302 -0.0277769 0.00867492)
(-0.00715627 -0.0290265 0.00725284)
(-0.00820652 -0.0267294 0.00603942)
(-0.00778947 -0.0244622 0.00443696)
(-0.00839544 -0.021463 0.00370558)
(-0.00817083 -0.0177373 0.00390217)
(-0.00589569 -0.0150311 0.00495121)
(-0.00346116 -0.0119023 0.00553015)
(-0.00168768 -0.00898444 0.00678763)
(-0.000814457 -0.00924073 0.00858977)
(-0.00132576 -0.0112651 0.00908237)
(-0.00229087 -0.0124715 0.00803731)
(-0.00220438 -0.0127372 0.00700428)
(-0.00189055 -0.0108214 0.00573942)
(-0.0022409 -0.00706068 0.00444385)
(-0.00273047 -0.00296525 0.00325952)
(-0.00342419 0.00229809 0.00226794)
(-0.00294586 0.00693621 0.00304489)
(-0.00169826 0.0107242 0.00434882)
(-0.00177321 0.0149012 0.00661836)
(-0.0013517 0.0155355 0.0100862)
(-0.000205815 0.0166369 0.0133169)
(0.00314893 0.0100717 0.0182889)
(0.0221708 0.0215357 0.00401541)
(0.0239524 0.0124233 0.00388369)
(0.0142707 0.00816785 0.00124852)
(0.013607 0.0076 0.00217094)
(0.00742273 0.00324313 0.00276349)
(0.00654155 0.00342619 0.0030603)
(0.00368083 0.00124617 0.0036047)
(0.00329382 0.00237519 0.00350135)
(0.00242094 0.00238937 0.00340761)
(0.00245665 0.00358634 0.00349645)
(0.0024342 0.0037607 0.00356348)
(0.00311926 0.00421558 0.00385596)
(0.00355808 0.0039249 0.00401985)
(0.00405717 0.00374914 0.00416524)
(0.00423542 0.0031821 0.00414383)
(0.00441465 0.00271635 0.0041317)
(0.00440726 0.00213623 0.00408377)
(0.00443748 0.00171791 0.00406768)
(0.00440153 0.0013117 0.0040538)
(0.00436769 0.00103435 0.00406464)
(0.00430187 0.000801104 0.0040841)
(0.00423269 0.000658138 0.00411862)
(0.00415566 0.000559073 0.00415762)
(0.0040757 0.000509585 0.00420281)
(0.00399161 0.00048479 0.00425088)
(0.00390664 0.000478245 0.00430057)
(0.00382052 0.000477227 0.0043512)
(0.00373324 0.000475213 0.00440362)
(0.00364658 0.000470855 0.00445752)
(0.00355614 0.000448513 0.00451297)
(0.00346613 0.00043153 0.00457022)
(0.00336658 0.000357478 0.00462928)
(0.00328038 0.000329888 0.00469108)
(0.00318214 0.000163077 0.0047531)
(0.00313574 0.000148515 0.00481743)
(0.00308418 -0.00014328 0.00487635)
(0.00311839 -8.73597e-05 0.00493275)
(0.00312112 -0.000509789 0.00496846)
(0.00320887 -0.000267729 0.00498176)
(0.00321604 -0.000747677 0.00494485)
(0.00326444 -0.000122028 0.00484253)
(0.00313649 -0.000588511 0.00464699)
(0.0030898 0.000527927 0.00434469)
(0.00332249 -4.09953e-05 0.00393349)
(0.00415 0.00129155 0.00362639)
(0.00538156 0.000247664 0.00342489)
(0.00561908 0.00234921 0.00252136)
(0.00547699 0.00217441 0.000979621)
(0.00856733 0.00629369 0.000382905)
(0.0233661 -0.00238318 0.000754644)
(0.0487691 -0.0058555 -0.000477916)
(0.0676198 -0.0158997 0.000862177)
(0.0762439 -0.0100324 0.00472471)
(0.0750741 -0.0285409 0.00814814)
(0.0683852 -0.0117028 0.0178861)
(0.0663036 -0.0769264 0.0274401)
(0.0131873 -0.0132203 0.0373955)
(0.0213998 -0.179533 0.0666308)
(-0.110145 0.0854614 -0.0618039)
(0.0501334 0.0190536 -0.00301892)
(0.166054 0.372829 0.0925394)
(0.0727279 0.448093 0.0232921)
(0.066422 0.00116351 0.0188422)
(0.0427263 0.0702036 0.0129373)
(0.0292476 0.0344869 0.0111636)
(0.0203373 0.0501922 0.0118739)
(0.018349 0.0413873 0.0124764)
(0.0155027 0.0437622 0.0106473)
(0.0151926 0.0430248 0.0091484)
(0.0146553 0.0411218 0.00946735)
(0.0129632 0.0316871 0.0104321)
(0.0105692 0.024046 0.0107593)
(0.00902412 0.017246 0.0100907)
(0.00627196 0.0150171 0.00920251)
(0.00275631 0.0117738 0.00782663)
(0.000502923 0.010575 0.00654783)
(-0.000777526 0.0100545 0.00679152)
(-0.00219129 0.0100313 0.0071639)
(-0.00357832 0.00898956 0.00843839)
(-0.00355406 0.00741649 0.00950826)
(-0.00249809 0.00663695 0.0102901)
(-0.00102739 0.00571156 0.0119935)
(-0.000642522 0.00235164 0.0144623)
(-0.00313736 -0.00166721 0.0148761)
(-0.00525927 -0.00555086 0.0142822)
(-0.00631299 -0.00827315 0.0125892)
(-0.00650889 -0.00833639 0.00984143)
(-0.00663167 -0.00724922 0.00662717)
(-0.00639405 -0.00488613 0.00276649)
(-0.00601878 0.000560468 0.000182462)
(-0.0052783 0.00437988 0.00250631)
(-0.00504668 0.00749979 0.00546872)
(-0.00505351 0.00985873 0.00859023)
(-0.00434559 0.00941626 0.0120175)
(-0.00479866 0.01121 0.0153891)
(-0.00412865 0.00650229 0.019588)
(0.0234386 0.0216618 0.00427307)
(0.0267616 0.0155083 0.00445551)
(0.0160787 0.00971308 0.00104998)
(0.0163927 0.0105671 0.00151288)
(0.0092182 0.00509665 0.00196424)
(0.0081746 0.00558609 0.00246385)
(0.00354834 0.00182609 0.00333092)
(0.00255515 0.00260155 0.00332228)
(0.00118999 0.0018854 0.00342817)
(0.00148083 0.00313819 0.00359581)
(0.00145655 0.00298395 0.00375503)
(0.00211662 0.00357767 0.00416477)
(0.00247757 0.00348653 0.00435818)
(0.00299652 0.00360253 0.00451552)
(0.00319744 0.00321068 0.00448108)
(0.00339596 0.00290859 0.00448191)
(0.00337285 0.00239729 0.00445041)
(0.00338655 0.00203545 0.00445821)
(0.00332188 0.00164489 0.00445727)
(0.00326705 0.00136735 0.00447386)
(0.00317437 0.00111022 0.00449164)
(0.0030793 0.000931854 0.00452092)
(0.00297265 0.000789019 0.00455402)
(0.00286644 0.000696935 0.00459357)
(0.00276188 0.000636539 0.00463653)
(0.00266221 0.000603369 0.0046825)
(0.00256774 0.000584553 0.00472937)
(0.00247836 0.000571822 0.00477644)
(0.00239428 0.000559666 0.00482392)
(0.0023128 0.0005335 0.00487227)
(0.00223725 0.000511797 0.00492236)
(0.00215794 0.000444629 0.00497348)
(0.00209731 0.000426985 0.00502346)
(0.0020282 0.000294891 0.00506745)
(0.00201257 0.000322173 0.00510278)
(0.00197738 0.000112565 0.0051225)
(0.00202686 0.000272147 0.00512716)
(0.00201252 1.22988e-05 0.0051059)
(0.00208476 0.000451562 0.0050617)
(0.0020494 0.000218465 0.00498389)
(0.00212354 0.00110511 0.00487026)
(0.0021253 0.00079659 0.00470955)
(0.00235471 0.00177426 0.00448875)
(0.00271118 0.000682257 0.00422556)
(0.00345862 0.00141669 0.00411098)
(0.00437529 -0.000182358 0.00409749)
(0.00474165 0.00181182 0.00357295)
(0.00548208 -0.000565195 0.00234019)
(0.0123319 0.000434342 0.0022785)
(0.0282899 -0.00858192 0.00275975)
(0.052746 -0.00687374 0.00257546)
(0.0698453 -0.00500453 0.00616471)
(0.0782619 0.0105382 0.0110236)
(0.0771457 0.00354516 0.0151516)
(0.0692263 0.0288001 0.0284061)
(0.0634474 -0.0311952 0.0432022)
(0.0178012 0.0568818 0.0787826)
(0.0358375 -0.186105 0.10485)
(-0.13983 0.210584 -0.0403011)
(0.0540597 -0.0452192 0.0225799)
(0.14726 0.455644 0.0935556)
(0.0480774 0.577723 0.0154798)
(0.034032 0.394565 0.0139019)
(0.0115434 0.446097 0.00272234)
(0.00843117 0.401829 0.00822605)
(0.00298505 0.387462 0.00776515)
(0.00373197 0.363288 0.00902648)
(0.00273538 0.343045 0.00851695)
(0.00496949 0.320053 0.00734651)
(0.00624003 0.298772 0.00682785)
(0.00765404 0.266379 0.00716171)
(0.00802123 0.235109 0.00687758)
(0.00637945 0.20113 0.00706118)
(0.00351774 0.16846 0.00715979)
(0.00119684 0.141616 0.00756945)
(-0.00110661 0.125083 0.00862361)
(-0.00366252 0.111198 0.00906602)
(-0.00581625 0.0995531 0.00940297)
(-0.00734108 0.0832964 0.0115402)
(-0.00799128 0.0682411 0.0134692)
(-0.0081127 0.0587336 0.0158508)
(-0.00851086 0.051977 0.0170991)
(-0.00940262 0.043621 0.0186041)
(-0.0109382 0.0333944 0.0176445)
(-0.0132091 0.0265291 0.0163181)
(-0.0143186 0.0218798 0.0141297)
(-0.0135355 0.0186947 0.008956)
(-0.0116877 0.0172931 0.00504774)
(-0.010968 0.0153771 0.0014043)
(-0.00894546 0.015648 -0.000692784)
(-0.00798671 0.0148497 0.00272965)
(-0.00850332 0.0138872 0.00605816)
(-0.00873607 0.0124276 0.00899351)
(-0.00977192 0.00882826 0.0125742)
(-0.0132452 0.00952859 0.0155162)
(-0.0151362 0.00497533 0.0195232)
(0.0234777 0.0218053 0.00448684)
(0.0286983 0.01843 0.00517115)
(0.0175151 0.0106502 0.000902171)
(0.0190774 0.0125764 0.00111374)
(0.0111035 0.00552202 0.000541028)
(0.0102766 0.00705452 0.00107599)
(0.00438925 0.002218 0.00196246)
(0.00267814 0.00316437 0.00247884)
(0.00010717 0.00100863 0.00287794)
(0.000120861 0.00220583 0.00327625)
(-0.000161293 0.00178507 0.00352182)
(0.000269029 0.00270053 0.00410619)
(0.000458986 0.00286257 0.00432385)
(0.0010156 0.00329202 0.00451937)
(0.00125502 0.00306396 0.00445988)
(0.00145016 0.00287567 0.0044789)
(0.00136381 0.00241781 0.0044548)
(0.00128413 0.00211796 0.00448027)
(0.00113248 0.00176566 0.00447793)
(0.00101524 0.00151611 0.00448288)
(0.000875445 0.00125921 0.0044761)
(0.000751097 0.00106364 0.00447824)
(0.00062813 0.000894086 0.00448406)
(0.000511512 0.00077407 0.00449733)
(0.00039923 0.000686274 0.00451494)
(0.00029892 0.000629373 0.00453822)
(0.000209377 0.000591197 0.00456478)
(0.000131192 0.000563341 0.00459312)
(6.26245e-05 0.000540275 0.0046209)
(-1.42515e-06 0.000512124 0.00464792)
(-6.12763e-05 0.000493127 0.00467431)
(-0.000125888 0.000442903 0.00469898)
(-0.000175382 0.00044662 0.00472076)
(-0.000234597 0.000364131 0.0047329)
(-0.000238296 0.000448311 0.00473199)
(-0.000262455 0.000337169 0.0047064)
(-0.000201541 0.000603901 0.00465772)
(-0.000222877 0.000512721 0.0045716)
(-0.00016461 0.00113584 0.00445738)
(-0.000239023 0.00112009 0.00431593)
(-9.6716e-05 0.00214671 0.00418155)
(0.000109918 0.00185219 0.00405006)
(0.000770985 0.00263812 0.00388964)
(0.001465 0.00117384 0.00375487)
(0.00234962 0.00157238 0.00389683)
(0.00285196 -0.000333432 0.00399573)
(0.00359693 0.00107205 0.00398461)
(0.00669189 -0.00279569 0.00350599)
(0.0150562 -0.00353998 0.00426793)
(0.0301654 -0.00907109 0.00596053)
(0.0490844 0.000210666 0.00803942)
(0.0638202 0.011909 0.0150259)
(0.071382 0.0380721 0.0201378)
(0.0712404 0.0408604 0.0237551)
(0.0640539 0.0710447 0.0402158)
(0.0560986 0.0260587 0.0551232)
(0.029399 0.126023 0.0927216)
(0.0422376 -0.125923 0.110184)
(-0.110639 0.317976 -0.00874065)
(0.0425209 -0.0765285 0.0299817)
(0.137788 0.502068 0.100488)
(0.0426901 0.621013 0.0143616)
(0.0343065 0.547527 0.0143682)
(0.0116029 0.601628 0.00108972)
(0.0113235 0.593189 0.00748355)
(0.00479092 0.60728 0.00739798)
(0.00593802 0.607746 0.00873446)
(0.004548 0.612944 0.00792475)
(0.00625181 0.612977 0.00773872)
(0.00739316 0.613345 0.00859454)
(0.00895929 0.60853 0.00950305)
(0.00863304 0.604595 0.0100138)
(0.00805726 0.599839 0.0106196)
(0.00613897 0.592776 0.011304)
(0.00417373 0.576597 0.0122556)
(0.00191996 0.545545 0.0120951)
(-0.000298382 0.517647 0.0123854)
(-0.00314995 0.490713 0.0133425)
(-0.00572239 0.464554 0.0153745)
(-0.00800164 0.44068 0.017158)
(-0.0100765 0.414832 0.0187105)
(-0.0118244 0.379739 0.0195568)
(-0.0124996 0.335598 0.0183412)
(-0.0125356 0.293829 0.0149479)
(-0.0112492 0.255877 0.0104008)
(-0.00950416 0.230791 0.0053324)
(-0.008045 0.19903 0.0021055)
(-0.00669953 0.165366 0.000811244)
(-0.00720592 0.138062 2.1254e-05)
(-0.00617693 0.117202 0.00352914)
(-0.00728141 0.100248 0.00745356)
(-0.00774692 0.0769705 0.00961038)
(-0.00853963 0.059496 0.012966)
(-0.0119648 0.0373602 0.0153751)
(-0.0191592 0.0226469 0.0161621)
(-0.0265397 0.0104369 0.0185576)
(0.0221127 0.021479 0.00522559)
(0.0300898 0.0216532 0.00650607)
(0.0180916 0.0113664 0.00169657)
(0.021061 0.0144257 0.00235502)
(0.0129346 0.00467119 0.000224128)
(0.0120542 0.00742206 0.000305827)
(0.0056792 0.0016174 0.000753295)
(0.0034134 0.00365729 0.00143741)
(0.000119387 0.000409256 0.00208703)
(-0.00076675 0.00145913 0.00269092)
(-0.00140928 0.000420995 0.00297379)
(-0.00122072 0.00158542 0.00372883)
(-0.000965875 0.00200363 0.00405348)
(-0.00022959 0.00281561 0.00444401)
(0.000199909 0.00267134 0.00453232)
(0.000458694 0.00258156 0.00466971)
(0.000345733 0.00215795 0.00467686)
(0.000199626 0.00195103 0.00470495)
(-6.13583e-06 0.00169158 0.00467185)
(-0.000157484 0.00154517 0.00463537)
(-0.00031844 0.00136872 0.00457132)
(-0.000457567 0.00123272 0.00450854)
(-0.000596245 0.00109738 0.00444617)
(-0.000718841 0.000992098 0.00439398)
(-0.00082323 0.000908547 0.00434988)
(-0.000906608 0.000851867 0.00431437)
(-0.00097055 0.00081266 0.00428722)
(-0.00101918 0.000785345 0.00426729)
(-0.00105902 0.000764046 0.00425306)
(-0.00109192 0.000742063 0.00424568)
(-0.00111888 0.000733931 0.00424505)
(-0.00114657 0.000711076 0.0042474)
(-0.0011597 0.000749143 0.00425016)
(-0.00118074 0.000731418 0.00424088)
(-0.00115826 0.000885756 0.00421346)
(-0.00117097 0.000884143 0.00415259)
(-0.00113595 0.00124611 0.00405384)
(-0.0012234 0.00127268 0.00389744)
(-0.00124273 0.00194232 0.00370149)
(-0.00133522 0.0019302 0.00350187)
(-0.00109829 0.00281414 0.00336823)
(-0.00065106 0.00237449 0.00332231)
(0.000352398 0.00302691 0.00337326)
(0.00119866 0.00149048 0.00354995)
(0.00191921 0.00195168 0.00391928)
(0.00218843 0.000130618 0.00420102)
(0.00350531 0.000572374 0.00426746)
(0.00815858 -0.00349628 0.00416862)
(0.0149347 -0.00361666 0.00581815)
(0.0246279 -0.00667798 0.00987823)
(0.0371863 0.00876155 0.0144182)
(0.044342 0.0269512 0.0228501)
(0.0522531 0.0581521 0.0294908)
(0.0537679 0.0696015 0.0360807)
(0.0481344 0.101802 0.0522482)
(0.0399673 0.063014 0.0605437)
(0.0309481 0.144847 0.0806545)
(0.0398645 -0.0851701 0.0806072)
(-0.0410684 0.366645 0.0286049)
(0.033475 -0.0851966 0.0340431)
(0.0873228 0.54093 0.0955929)
(0.0168672 0.641468 0.00648638)
(0.0123641 0.602731 0.00938263)
(-0.00488144 0.657229 0.00104992)
(-0.00303482 0.657436 0.00953324)
(-0.00580166 0.671355 0.0106127)
(-0.0019883 0.671805 0.0128236)
(-0.000348147 0.676631 0.0132186)
(0.0034883 0.676545 0.0142106)
(0.00683815 0.676929 0.0147545)
(0.0100322 0.671779 0.014574)
(0.0111599 0.668848 0.0146859)
(0.0118819 0.666324 0.014963)
(0.0106256 0.66331 0.0155646)
(0.00853463 0.657374 0.0159828)
(0.00556221 0.652377 0.0161561)
(0.00228258 0.64525 0.0166026)
(-0.00146673 0.637211 0.0170842)
(-0.00560772 0.627245 0.0175317)
(-0.00903643 0.612987 0.0174635)
(-0.0118926 0.598323 0.0160488)
(-0.0134241 0.58179 0.0135596)
(-0.0130917 0.564125 0.00970426)
(-0.012022 0.543417 0.00508767)
(-0.0110654 0.522669 0.000668773)
(-0.00967264 0.498968 -0.00261246)
(-0.00821644 0.464011 -0.00331468)
(-0.00744629 0.422682 -0.000534355)
(-0.00809994 0.386131 0.00432361)
(-0.00926626 0.348641 0.00894875)
(-0.0110738 0.306717 0.0102704)
(-0.0124108 0.259088 0.0118105)
(-0.0143907 0.222828 0.0149309)
(-0.0189643 0.176547 0.0167317)
(-0.026249 0.120064 0.0170514)
(-0.0330806 0.0859164 0.0160115)
(0.0184495 0.0199899 0.00541594)
(0.030039 0.0253029 0.00853533)
(0.0167648 0.0114629 0.00351682)
(0.0210065 0.0165009 0.00504106)
(0.0131049 0.00337134 0.00182828)
(0.0121747 0.00693618 0.00133114)
(0.00557674 0.000139721 0.00116115)
(0.0035085 0.0035543 0.001253)
(-0.000158336 6.80039e-05 0.001664)
(-0.00164689 0.00138812 0.0024091)
(-0.00308479 -0.000299656 0.00259513)
(-0.00377941 0.000897262 0.00337712)
(-0.00393675 0.00123469 0.00380586)
(-0.00298177 0.00218636 0.00456419)
(-0.00242568 0.00204907 0.00494525)
(-0.00217139 0.00211589 0.0052553)
(-0.00242203 0.00178814 0.00529099)
(-0.00275735 0.00171908 0.00527858)
(-0.00310945 0.00157516 0.00517401)
(-0.00333793 0.00155864 0.00506726)
(-0.00352441 0.00150031 0.00493274)
(-0.00365297 0.0014772 0.00480824)
(-0.00375812 0.00143099 0.0046896)
(-0.00384355 0.00139338 0.00459269)
(-0.0039205 0.00135872 0.00451763)
(-0.00396947 0.00133623 0.0044576)
(-0.00399633 0.00131696 0.00441041)
(-0.00399933 0.00130195 0.00438099)
(-0.00398699 0.0012887 0.00436802)
(-0.00397034 0.00127598 0.00436918)
(-0.00395803 0.00128206 0.00438241)
(-0.00395373 0.00129086 0.00440072)
(-0.00395033 0.00137354 0.00441747)
(-0.00396202 0.00143023 0.00441614)
(-0.00393505 0.00165335 0.00439403)
(-0.00393313 0.00173355 0.00433814)
(-0.00386495 0.00212331 0.00425746)
(-0.00388097 0.00213625 0.00412886)
(-0.00380243 0.00264094 0.00395226)
(-0.00378437 0.00236891 0.00372766)
(-0.00344224 0.0028698 0.0035382)
(-0.00291517 0.00210872 0.0034221)
(-0.00181484 0.00258695 0.00350249)
(-0.000963779 0.00121035 0.00379308)
(-0.0003729 0.00185461 0.00419431)
(0.000127161 0.000295798 0.00436477)
(0.00273144 0.000387984 0.00442143)
(0.0074802 -0.00281719 0.00465114)
(0.0132253 -0.00247652 0.00654134)
(0.0170217 -0.00206156 0.0112501)
(0.0163096 0.0185876 0.0172988)
(0.0203163 0.0411672 0.0264205)
(0.0254888 0.0759873 0.034762)
(0.0290941 0.0949758 0.0437479)
(0.0337624 0.123739 0.0562641)
(0.036479 0.0859692 0.0605833)
(0.0450082 0.159441 0.0702573)
(0.0388678 -0.0669954 0.0586462)
(0.000930413 0.357243 0.059073)
(0.0144309 -0.0699596 0.035068)
(0.0291017 0.571553 0.0845113)
(-0.00655657 0.660992 0.00675789)
(-0.00652245 0.641483 0.00836971)
(-0.0141275 0.691328 0.00307133)
(-0.00920632 0.688884 0.0125562)
(-0.00742579 0.699727 0.0129747)
(-0.00313291 0.697829 0.0151825)
(-0.000162278 0.700398 0.0157644)
(0.00368495 0.698505 0.0170788)
(0.00738719 0.697167 0.0174817)
(0.0107549 0.694532 0.0173497)
(0.0124008 0.691287 0.0173197)
(0.0135149 0.690068 0.0177546)
(0.0128101 0.687057 0.0178618)
(0.0112668 0.682448 0.0179303)
(0.00858443 0.67484 0.0173563)
(0.0055363 0.665129 0.0168446)
(0.0020149 0.654988 0.0162757)
(-0.00113655 0.64715 0.0155749)
(-0.00399525 0.638718 0.014702)
(-0.00541391 0.629663 0.0124033)
(-0.00576102 0.622178 0.0089717)
(-0.00485087 0.618933 0.00452701)
(-0.00423358 0.616394 -0.000405893)
(-0.00359146 0.60949 -0.00450238)
(-0.00362937 0.597538 -0.00730609)
(-0.00408607 0.588061 -0.00681779)
(-0.00416978 0.57527 -0.00412761)
(-0.00418347 0.549807 -0.00101447)
(-0.00590056 0.53206 0.00208204)
(-0.00914773 0.514917 0.00359376)
(-0.0134734 0.489764 0.00591561)
(-0.0185654 0.450099 0.00802437)
(-0.0255348 0.393671 0.00935307)
(-0.0338058 0.323111 0.0104016)
(-0.0418742 0.258859 0.00842751)
(0.0150854 0.0147467 0.00436576)
(0.0288445 0.0284168 0.00925994)
(0.0139146 0.0111639 0.00424669)
(0.0196465 0.0193321 0.00610954)
(0.0124482 0.00326489 0.00290556)
(0.0108761 0.00700606 0.0021262)
(0.00374148 -0.001121 0.00216751)
(0.00197123 0.00334179 0.00174566)
(-0.000885169 -0.000443775 0.00222484)
(-0.00240486 0.00168614 0.00286192)
(-0.00384463 -0.000382236 0.0031133)
(-0.00470584 0.000635498 0.00393646)
(-0.00472716 9.8173e-05 0.00461429)
(-0.00362656 0.000794327 0.00561318)
(-0.00304767 0.000585593 0.00631289)
(-0.00281575 0.00105438 0.00687726)
(-0.00303987 0.0011104 0.0071124)
(-0.00331214 0.00143228 0.00718623)
(-0.00360517 0.00153328 0.00710891)
(-0.00378364 0.00172295 0.00699268)
(-0.00393567 0.00180221 0.00683285)
(-0.00402929 0.00188114 0.00668159)
(-0.00409935 0.00190387 0.00654037)
(-0.00414373 0.00191597 0.00642372)
(-0.00417236 0.0019073 0.00632789)
(-0.00417523 0.00189432 0.00625491)
(-0.00415617 0.00188006 0.0062021)
(-0.00411665 0.00186648 0.00616819)
(-0.00406654 0.00185355 0.00614942)
(-0.00401642 0.00184712 0.00614462)
(-0.00397838 0.00186654 0.00614825)
(-0.00395801 0.00190432 0.00615061)
(-0.00395027 0.00202244 0.00614447)
(-0.00395338 0.00212944 0.00612097)
(-0.00391468 0.00237983 0.00607949)
(-0.00389768 0.00248269 0.00601035)
(-0.0038056 0.00282287 0.00592355)
(-0.00377663 0.00276195 0.0057955)
(-0.00359492 0.0031084 0.00564029)
(-0.00344381 0.0026732 0.00545168)
(-0.0029881 0.00292042 0.00529621)
(-0.00248176 0.00193235 0.00521317)
(-0.00157434 0.00221665 0.00534606)
(-0.000975023 0.000831595 0.00563591)
(-0.00070461 0.00170482 0.0059103)
(-0.000189639 0.000244039 0.0056995)
(0.00229651 0.000542936 0.00524686)
(0.00653763 -0.000718503 0.00498206)
(0.00917897 0.00392099 0.00699371)
(0.0028989 0.011594 0.0150391)
(-0.0054011 0.0321537 0.0238782)
(-0.00830571 0.0545924 0.0309494)
(-0.00515658 0.0868805 0.0352141)
(0.00673966 0.110592 0.0396814)
(0.0227229 0.142777 0.0511843)
(0.0451169 0.127882 0.0578324)
(0.0692525 0.185119 0.0718091)
(0.0709553 -0.00770446 0.0646173)
(0.070702 0.38927 0.0389782)
(-0.023479 -0.0804186 0.0300418)
(-0.0548444 0.600663 0.0507016)
(-0.0381455 0.688368 -0.00893367)
(-0.0357884 0.665874 0.00106873)
(-0.0257752 0.707584 -0.000322149)
(-0.0176087 0.698836 0.00861277)
(-0.00899926 0.704828 0.0079997)
(-0.00512897 0.699604 0.00947432)
(0.00041384 0.698227 0.00936893)
(0.00449829 0.69772 0.0107326)
(0.00891224 0.695995 0.0115508)
(0.011586 0.695042 0.011762)
(0.0136117 0.696498 0.0123713)
(0.0159104 0.69634 0.0135833)
(0.01756 0.694404 0.0150531)
(0.0181623 0.689252 0.0165229)
(0.01774 0.684274 0.0177951)
(0.0167763 0.676217 0.0185682)
(0.01503 0.666241 0.0188683)
(0.0127431 0.654232 0.0183403)
(0.0105171 0.641503 0.0171859)
(0.00867345 0.630502 0.0152541)
(0.00758673 0.615893 0.0123517)
(0.0063049 0.601138 0.00868017)
(0.00502745 0.593407 0.00481179)
(0.00366435 0.588891 0.00214922)
(0.00249178 0.581215 0.000673825)
(0.00260925 0.573036 0.000595961)
(0.0028463 0.565015 0.000844556)
(0.00319455 0.558422 0.00247008)
(0.00233182 0.549558 0.00546977)
(-0.000683949 0.530748 0.00834219)
(-0.0057331 0.507723 0.0108999)
(-0.0120259 0.487414 0.011154)
(-0.020956 0.473582 0.00725527)
(-0.0294989 0.459318 -0.00238802)
(-0.0360546 0.444111 -0.0202918)
(0.00525463 0.0096785 -0.00295418)
(0.0263792 0.0302768 0.00727577)
(0.00951329 0.011255 0.00187948)
(0.0173329 0.0230829 0.00379802)
(0.0112492 0.00514795 0.00149676)
(0.00945092 0.00850609 0.000448026)
(0.0012905 -0.00129716 -0.000908897)
(3.57771e-05 0.00389399 -0.00134532)
(-0.00316256 -0.000198742 -0.000893376)
(-0.00451743 0.00226461 -0.000349177)
(-0.00605286 -0.000217378 -1.07758e-05)
(-0.00692365 0.000554971 0.000765803)
(-0.0074648 -0.000733633 0.00145879)
(-0.00692628 -0.000132801 0.00230565)
(-0.00693753 -0.000259934 0.00302724)
(-0.00700392 0.000497523 0.00361696)
(-0.00742758 0.000752661 0.00404646)
(-0.00775099 0.00127909 0.00430642)
(-0.00808594 0.00150099 0.00440242)
(-0.008255 0.00179286 0.00441104)
(-0.00834338 0.00194035 0.00435202)
(-0.0083551 0.00207619 0.00428343)
(-0.00834363 0.0021432 0.00421557)
(-0.00831384 0.00218626 0.00416037)
(-0.00827267 0.00219971 0.00411471)
(-0.00821492 0.00220109 0.00408007)
(-0.00814289 0.00219728 0.00405488)
(-0.00805724 0.00219592 0.00403844)
(-0.00796692 0.00220052 0.00402814)
(-0.00789382 0.00221605 0.00402279)
(-0.00785083 0.00225509 0.00401947)
(-0.0078307 0.00231414 0.00401188)
(-0.00782734 0.00243834 0.003995)
(-0.00782554 0.00254352 0.00396334)
(-0.0077647 0.00276608 0.00391416)
(-0.00768905 0.00284997 0.00385129)
(-0.00750611 0.00315786 0.00377438)
(-0.00736682 0.00310884 0.00367478)
(-0.00711907 0.00342444 0.00353526)
(-0.00691085 0.00296978 0.00336534)
(-0.00641852 0.00315422 0.00318727)
(-0.00592219 0.00212747 0.00304912)
(-0.00509495 0.00227534 0.00305874)
(-0.00470377 0.000776279 0.00330588)
(-0.00463344 0.00147067 0.00335913)
(-0.00389068 -0.00017296 0.00249424)
(-0.0014459 0.00168327 0.00215154)
(6.56058e-05 0.00129937 0.00154544)
(-0.00192895 0.0104546 0.00433571)
(-0.0116913 0.0174995 0.0129271)
(-0.027869 0.031023 0.0231789)
(-0.0322192 0.0427599 0.0296576)
(-0.029499 0.0687282 0.0306698)
(-0.0176836 0.0811848 0.028279)
(-0.00157602 0.124923 0.0366301)
(0.0314905 0.0953182 0.0419676)
(0.0704213 0.186903 0.0615442)
(0.0942411 -0.00757023 0.0693329)
(0.164664 0.424204 0.0322757)
(-0.0445549 -0.107639 0.0235431)
(-0.123553 0.569211 0.0305482)
(-0.0549551 0.672815 -0.0087143)
(-0.0496333 0.626282 0.00223539)
(-0.0250174 0.66621 0.00325653)
(-0.0181047 0.642895 0.00947177)
(-0.00651819 0.646 0.00645895)
(-0.00438438 0.636431 0.00628778)
(0.000202802 0.635194 0.00481436)
(0.00282269 0.632627 0.00449967)
(0.00591751 0.631568 0.00396773)
(0.00667744 0.629957 0.00249914)
(0.00780853 0.631478 0.00206645)
(0.00884071 0.632296 0.00234538)
(0.0109201 0.635258 0.00370451)
(0.0131799 0.638125 0.00531736)
(0.0150554 0.639459 0.00725488)
(0.0155948 0.636892 0.00830503)
(0.015439 0.634729 0.00850298)