/*--------------------------------*- C++ -*----------------------------------*\
| =========                 |                                                 |
| \\      /  F ield         | OpenFOAM: The Open Source CFD Toolbox           |
|  \\    /   O peration     | Version:  2.3.0                                 |
|   \\  /    A nd           | Web:      www.OpenFOAM.org                      |
|    \\/     M anipulation  |                                                 |
\*---------------------------------------------------------------------------*/
FoamFile
{
    version     2.0;
    format      ascii;
    class       volVectorField;
    location    "44";
    object      U.air;
}
// * * * * * * * * * * * * * * * * * * * * * * * * * * * * * * * * * * * * * //

dimensions      [0 1 -1 0 0 0 0];

internalField   nonuniform List<vector> 
6144
(
(0.0111212 0.0207481 -0.000203517)
(0.0108901 -0.00362555 -0.00145783)
(0.00411593 -0.00403642 -0.00248555)
(0.00352782 -0.00372752 -0.00247068)
(0.00235472 -0.0022937 -0.00192432)
(0.0032589 -2.17776e-05 -0.00153597)
(0.00319721 -0.000367763 -0.00119905)
(0.00280848 0.000526846 -0.000889022)
(0.00215832 0.000361149 -0.000515357)
(0.00157562 0.00172155 4.14842e-05)
(0.00120344 0.00286225 0.000511242)
(0.00121526 0.00386626 0.00111264)
(0.00133835 0.00398322 0.00143966)
(0.00145549 0.00352897 0.00186718)
(0.00152453 0.00270815 0.00186448)
(0.00163467 0.00189244 0.00176912)
(0.00171992 0.00104275 0.0015102)
(0.00180902 0.00036567 0.00124536)
(0.00188676 -0.000184467 0.000968633)
(0.00194506 -0.000533477 0.000723657)
(0.00198242 -0.000713422 0.000509275)
(0.0020159 -0.000723589 0.000336657)
(0.00202683 -0.000645524 0.00025581)
(0.00201438 -0.000516012 0.000256745)
(0.0019799 -0.000366753 0.000326393)
(0.00192993 -0.000216846 0.000448526)
(0.00187799 -8.99148e-05 0.000590895)
(0.00182581 -3.52755e-06 0.000733689)
(0.0017692 4.52949e-05 0.000867893)
(0.0017072 8.4927e-05 0.00098368)
(0.00164124 0.000141912 0.00109161)
(0.00157174 0.000219456 0.00120662)
(0.00149766 0.000313041 0.00133911)
(0.00141728 0.000413748 0.00149744)
(0.00133138 0.000505815 0.00168801)
(0.00124108 0.000568401 0.00190528)
(0.00114512 0.000587126 0.00212074)
(0.00104237 0.000599353 0.0022626)
(0.00092544 0.000718195 0.00225444)
(0.000779761 0.00116819 0.00204505)
(0.000558828 0.00217966 0.00157022)
(0.000177553 0.00432826 0.000885266)
(-0.000219733 0.00785615 0.000391603)
(-0.000314739 0.0125258 0.000124889)
(-7.35932e-05 0.0173427 -0.000251172)
(0.00088113 0.0234557 -0.00149287)
(0.0018098 0.0293078 -0.00229012)
(-0.000627096 0.03583 -0.00359655)
(-0.00384307 0.0525143 -0.00323837)
(-0.00179074 0.0606708 -0.00383221)
(0.0137744 0.0556371 -0.00286384)
(0.0169357 0.0357422 0.00211861)
(0.00595537 0.0208961 0.0117584)
(0.0011597 -0.0101822 0.0150264)
(0.000292887 0.00913861 0.0205159)
(-0.000230543 -0.0443878 0.018727)
(-0.00206778 0.0224359 0.0140105)
(-0.00453403 -0.0996659 0.0577083)
(-0.0488017 0.0394101 -0.0526705)
(0.0258393 0.100154 0.0487381)
(0.1033 0.351685 0.0275121)
(0.0502087 0.410389 -0.0221884)
(0.0677227 -0.163022 -0.00120824)
(0.054479 -0.223907 -0.0046212)
(0.0481859 -0.223037 -0.00207085)
(0.0388026 -0.219126 -0.0032579)
(0.0328101 -0.214628 -0.00228525)
(0.0294934 -0.20763 -0.00403045)
(0.0291348 -0.191697 -0.00462598)
(0.0268987 -0.179763 0.00299295)
(0.0208965 -0.18135 0.00636559)
(0.00617243 -0.177493 0.0144163)
(-0.000654782 -0.158931 0.0158391)
(-0.011855 -0.135885 0.0110927)
(-0.0295397 -0.0679437 0.00988559)
(-0.017279 -0.013856 -0.00206953)
(-0.0027235 0.00499087 -0.00613684)
(0.000710994 0.0193416 -0.00359686)
(0.000351659 0.0309219 -0.00440728)
(-0.00153876 0.0420464 -0.00378083)
(-0.00189613 0.0481895 -0.000235306)
(-0.000936764 0.0446562 0.00271499)
(-0.000718331 0.0354273 0.00438766)
(-0.00202887 0.028226 -0.00190524)
(-0.000999966 0.0213325 -0.00135878)
(-0.000308914 0.0247315 0.00372866)
(-0.000427172 0.0464857 0.00352176)
(-0.000911115 0.0649739 0.000665688)
(-0.002624 0.0723373 0.00346967)
(-0.00278984 0.0595353 0.0163238)
(0.00077293 0.0388528 0.0075583)
(0.00991862 0.0204737 0.00800673)
(0.0126965 0.00102061 0.00517542)
(0.0105514 -0.00800917 -0.000642501)
(0.00898836 -0.00515284 -0.00758643)
(0.00954206 0.000915267 -0.00592706)
(0.021365 0.0205014 0.00366013)
(0.0227512 0.00405522 0.0027045)
(0.0104447 0.000373997 -0.00100272)
(0.00933058 -0.00070848 -0.000122054)
(0.00489684 -0.00336378 0.00110542)
(0.00517949 -0.000950317 0.0014827)
(0.00468389 -0.000660941 0.00228603)
(0.00412426 0.00107151 0.00258883)
(0.00296867 0.00124182 0.00284165)
(0.00197722 0.00298213 0.00294856)
(0.00158198 0.00402413 0.0031661)
(0.00185516 0.00489329 0.00378961)
(0.00227738 0.00486602 0.00409531)
(0.00271177 0.00449412 0.00436163)
(0.00287558 0.00364397 0.00439134)
(0.00307664 0.00281578 0.00437641)
(0.00317019 0.00187386 0.00428337)
(0.00326631 0.001112 0.00419308)
(0.00333443 0.000453102 0.00410753)
(0.00336828 -1.31387e-05 0.00405052)
(0.00336403 -0.000318002 0.00401953)
(0.00337256 -0.000439299 0.00394962)
(0.00334988 -0.000460176 0.00393723)
(0.00329096 -0.000410788 0.00397802)
(0.00319473 -0.000323742 0.00406438)
(0.00307731 -0.000214598 0.00417988)
(0.00296915 -0.000108318 0.00427998)
(0.00287423 -2.56476e-05 0.00436211)
(0.00277038 3.22232e-05 0.0044463)
(0.00264904 8.32627e-05 0.00452812)
(0.00251776 0.000139584 0.00460899)
(0.0023799 0.000199614 0.00469189)
(0.00223684 0.00026067 0.00477956)
(0.00209 0.000319408 0.00487501)
(0.00194253 0.000369314 0.004982)
(0.00180024 0.000397673 0.00510176)
(0.0016555 0.000398529 0.0052231)
(0.00146633 0.000407599 0.00531052)
(0.00116202 0.000523116 0.00532402)
(0.000671308 0.00094727 0.00524099)
(-0.000180448 0.00184933 0.00500587)
(-0.00139715 0.00366142 0.00457322)
(-0.00270053 0.00629379 0.00411437)
(-0.00361704 0.00989548 0.00365852)
(-0.00422563 0.0144175 0.00260262)
(-0.0035824 0.0226547 0.00120124)
(-0.00220236 0.0291309 0.00126237)
(-0.00318822 0.0331182 -0.00085397)
(-0.00222065 0.0364165 -0.000637695)
(0.0158562 0.0337838 0.00059843)
(0.0452356 0.0106114 -0.00345945)
(0.0517595 -0.00154178 -0.00278629)
(0.0434366 -0.00958472 -0.000814809)
(0.00984164 -0.0377163 0.00206946)
(-0.0142229 -0.0124216 0.0125117)
(-0.017299 -0.057384 0.0215754)
(-0.0225649 0.00237487 0.0274801)
(-0.0293393 -0.108232 0.0757645)
(-0.0778689 0.0580234 -0.0749156)
(0.00534276 0.0627936 0.0377239)
(0.145849 0.340801 0.0923935)
(0.0657898 0.399561 0.0090591)
(0.0742413 -0.122374 0.0060085)
(0.0642357 -0.129853 0.017756)
(0.039234 -0.124443 0.0233059)
(0.0197 -0.118442 0.0172578)
(0.00261096 -0.107448 0.00561355)
(-0.00629381 -0.0897987 0.00125766)
(0.00354725 -0.0733731 0.00514185)
(0.0115022 -0.0621977 0.0246001)
(0.0051896 -0.0732783 0.0431884)
(-0.0090661 -0.0808893 0.0519111)
(-0.018386 -0.0763299 0.0425705)
(-0.0447431 -0.0578096 0.0109987)
(-0.0459642 -0.0124053 -0.00432555)
(-0.0201854 0.0031719 -0.00497156)
(-0.00472451 0.0118423 -0.000122735)
(0.005558 0.0185966 0.00181103)
(0.00951023 0.0304136 -0.00290022)
(0.00632844 0.0441081 -0.00983135)
(-0.00346748 0.053515 -0.00894593)
(-0.00987656 0.0519936 -0.0055629)
(-0.0103616 0.044755 -0.00431055)
(-0.00531415 0.0379295 -0.00555545)
(-0.00354466 0.0356023 -0.00646523)
(-0.00835698 0.0411698 -0.00294145)
(-0.00729466 0.0620129 -0.00734165)
(-0.0047195 0.0769759 -0.00596072)
(-0.00588832 0.0824628 -0.00026406)
(-0.00472917 0.0597212 0.0133831)
(0.000882461 0.03668 0.00890587)
(0.0119194 0.0121462 0.0154745)
(0.0169969 0.00174764 0.0155449)
(0.0098258 -0.010411 0.0148245)
(0.00299814 -0.0131314 0.00503001)
(0.00566588 -0.00691047 -0.00802892)
(0.0244755 0.0200059 0.00499155)
(0.0267102 0.0100505 0.00501003)
(0.0151993 0.00420245 0.00183501)
(0.0124545 0.00336094 0.00293623)
(0.00527467 -0.00143858 0.00388888)
(0.00397192 0.000542684 0.00367684)
(0.00255206 0.000191432 0.00428222)
(0.00217714 0.00214052 0.00421598)
(0.00102548 0.00213329 0.00425359)
(0.000377541 0.00324304 0.00436996)
(1.35936e-05 0.00350044 0.00440743)
(0.00053556 0.00416127 0.00469405)
(0.000959524 0.00410109 0.00492259)
(0.00149823 0.00413649 0.00511872)
(0.00174997 0.00368388 0.00512537)
(0.00205122 0.00326324 0.00510171)
(0.00219904 0.00261117 0.00502441)
(0.00232809 0.00204907 0.00496051)
(0.00239911 0.00149836 0.00490464)
(0.00242969 0.00106408 0.0048842)
(0.00240294 0.000691599 0.00489115)
(0.00232147 0.000417478 0.00492895)
(0.00222353 0.000233793 0.00498167)
(0.00210618 0.000128025 0.00504182)
(0.00196755 7.80104e-05 0.00510576)
(0.00181998 6.63652e-05 0.00517057)
(0.0016696 7.92258e-05 0.0052386)
(0.00151663 0.000112895 0.00531259)
(0.00135428 0.000158419 0.0053905)
(0.00117284 0.000205433 0.00547024)
(0.000982928 0.000244072 0.00555001)
(0.000793825 0.000272243 0.00563138)
(0.000598253 0.000299482 0.00571241)
(0.000391535 0.000327784 0.00579249)
(0.000180406 0.000366465 0.00587466)
(-2.69065e-05 0.000432017 0.00596121)
(-0.000239911 0.000548466 0.0060454)
(-0.000524139 0.000754328 0.00610393)
(-0.00098925 0.00111325 0.00611969)
(-0.00171676 0.00172366 0.00608151)
(-0.00287413 0.00259 0.00598899)
(-0.00446227 0.00376364 0.00594408)
(-0.00630029 0.00493584 0.00594239)
(-0.00803521 0.00648854 0.00561958)
(-0.00991484 0.00944553 0.00451837)
(-0.00935475 0.0128489 0.00388754)
(-0.00378036 0.011805 0.0048943)
(0.00232281 0.00488724 0.00345869)
(0.00645157 0.000852607 0.00213607)
(0.0213531 -0.0124207 0.011387)
(0.0573159 -0.040731 0.00383963)
(0.0718648 -0.049492 -0.00842322)
(0.0687761 -0.0431089 -0.0122805)
(0.0436688 -0.0437382 -0.0129135)
(0.00176506 -0.0158162 0.00561811)
(-0.0049808 -0.0708412 0.0174561)
(-0.0336088 -0.0115887 0.0187112)
(-0.0245831 -0.136615 0.0706078)
(-0.0974152 0.0588238 -0.0464877)
(0.0492471 0.0809442 -0.00842549)
(0.197366 0.327641 0.114081)
(0.100578 0.407103 0.0300894)
(0.0980675 -0.105435 0.0158947)
(0.0742042 -0.0886588 0.0284278)
(0.0327814 -0.0803454 0.0142207)
(0.0177818 -0.0763593 0.00510485)
(0.00964423 -0.0682833 0.00092576)
(0.00644936 -0.0593735 0.000321366)
(0.0181795 -0.051779 0.00463396)
(0.0355788 -0.0201915 0.0173429)
(0.018917 -0.0088319 0.0292675)
(-0.0313356 0.0106952 0.011705)
(-0.0547267 0.0193545 0.000755024)
(-0.0580046 0.0253999 -0.00461242)
(-0.0346597 0.0242788 0.00216665)
(-0.00534878 0.0257613 0.00782091)
(0.00905703 0.0315211 0.00309516)
(0.0146049 0.0410548 -0.00178519)
(0.0128888 0.0559768 -0.0113619)
(0.00825021 0.0676319 -0.010641)
(0.00298557 0.0711055 -0.00558801)
(-0.00477171 0.0687031 -0.0049869)
(-0.00815021 0.0667846 -0.00388537)
(-0.00665446 0.0677497 -0.00447062)
(-0.00473587 0.0683016 -0.00243999)
(0.000307588 0.0708367 -0.0057945)
(0.00878757 0.0800382 -0.0095221)
(0.0118406 0.0857608 -0.00863918)
(0.011538 0.0808178 -0.000283873)
(0.0107885 0.0628888 0.0104726)
(0.0150696 0.0356691 0.0210597)
(0.015291 0.0179825 0.0239043)
(0.0164405 0.00894933 0.0233156)
(0.0125972 -0.00671852 0.0187234)
(0.00310722 -0.0101351 0.00923254)
(0.00106327 -0.00424678 -0.00423523)
(0.0253239 0.0192029 0.00516425)
(0.028915 0.0143038 0.00514266)
(0.0179748 0.00658992 0.0011989)
(0.0152799 0.00721172 0.00151597)
(0.00630564 0.00091068 0.00305863)
(0.00336968 0.00247085 0.0033286)
(0.000995013 0.000636374 0.0043143)
(0.000510572 0.00227933 0.00426769)
(-0.000536126 0.00172018 0.00436425)
(-0.000991741 0.00255193 0.00450049)
(-0.0013219 0.00245668 0.00462709)
(-0.000863094 0.00306503 0.00497351)
(-0.000576017 0.00326195 0.00519364)
(-5.93338e-06 0.00362015 0.00536101)
(0.000301326 0.00346193 0.00534872)
(0.000645824 0.00332616 0.00534828)
(0.000819755 0.00287839 0.00530177)
(0.000941387 0.0024537 0.00527754)
(0.000980552 0.00197994 0.00524231)
(0.000988612 0.00157828 0.00522399)
(0.000933864 0.00120421 0.00521793)
(0.000835735 0.000884265 0.00522642)
(0.000705213 0.000615949 0.00524926)
(0.000552537 0.000416889 0.00528215)
(0.000388028 0.000287271 0.00532113)
(0.000220606 0.000219986 0.00536361)
(6.24474e-05 0.000199074 0.00540739)
(-8.73872e-05 0.00020595 0.00545523)
(-0.000239629 0.000224883 0.00551215)
(-0.000406697 0.000247512 0.00557702)
(-0.000578658 0.000274845 0.0056443)
(-0.000746871 0.00030182 0.0057049)
(-0.000921241 0.000324131 0.0057569)
(-0.00110704 0.000342599 0.00580006)
(-0.00131305 0.00037097 0.00583798)
(-0.00154447 0.000441522 0.00587215)
(-0.00182179 0.000601628 0.00589478)
(-0.00221632 0.0008827 0.00589696)
(-0.00282349 0.00127822 0.0058806)
(-0.0037342 0.00179051 0.00584885)
(-0.0050568 0.00234625 0.00584588)
(-0.00673513 0.00283692 0.00591529)
(-0.00867489 0.00300235 0.00592741)
(-0.0110601 0.00369503 0.00508084)
(-0.0122242 0.00459658 0.00384444)
(-0.00879856 0.00437696 0.00359537)
(0.000241154 -0.00330344 0.00511221)
(0.0048683 -0.0128629 0.0067262)
(0.0143045 -0.0305644 0.00510217)
(0.0388805 -0.0676612 0.0080093)
(0.0622736 -0.094238 0.00336061)
(0.071346 -0.0941248 -0.00857836)
(0.0648893 -0.0720717 -0.0150276)
(0.0401816 -0.0462569 -0.0200301)
(0.000410626 0.0112164 0.000796775)
(0.00494889 -0.0837483 0.0134017)
(-0.0287483 -0.0161174 0.0191243)
(-0.0499422 -0.175324 0.055754)
(-0.119537 0.13721 -0.0565223)
(0.0965827 0.00268688 0.0217508)
(0.198372 0.401804 0.100117)
(0.0620436 0.545515 0.0182245)
(0.0330332 0.437222 -0.00241391)
(0.00626877 0.497643 -0.00131965)
(-0.0142908 0.495683 -0.00654108)
(-0.0189559 0.505442 0.00141182)
(-0.0222849 0.498688 0.00248092)
(-0.0185406 0.507061 0.00310254)
(-0.0115306 0.541321 -0.00312819)
(-0.00849181 0.583884 -0.00807857)
(-0.006466 0.59704 -0.00260785)
(-0.0109435 0.598527 -0.000888238)
(-0.0134764 0.601518 0.000994853)
(-0.0134601 0.592013 0.00228372)
(-0.0044807 0.596781 -5.17594e-05)
(-0.000574155 0.610179 -0.00300816)
(0.00484897 0.614873 -0.00689153)
(0.00681313 0.616621 -0.00733604)
(0.00664688 0.611694 -0.0057203)
(0.00223733 0.612338 -0.00536984)
(-0.00218032 0.606577 -0.00606293)
(-0.00550903 0.577882 -0.00493804)
(-0.00545327 0.43817 -0.0048322)
(-0.00254426 0.113964 -0.00228637)
(0.00625087 0.0949998 0.00381745)
(0.0108921 0.093722 0.0065771)
(0.0163254 0.096876 0.00695885)
(0.0202723 0.0967104 0.0140516)
(0.0165237 0.0837656 0.0187383)
(0.0146378 0.0621932 0.0268552)
(0.0110115 0.0418484 0.0305836)
(0.00513232 0.0270852 0.0282516)
(0.0130254 0.0138081 0.0266193)
(0.00658523 0.0020937 0.019011)
(-0.00497724 -0.00278009 0.00496094)
(-0.00194681 0.00374531 -0.00307863)
(0.0252602 0.0188354 0.00483234)
(0.0304003 0.0174857 0.00509841)
(0.0206818 0.00890512 0.000642455)
(0.0193645 0.0105008 1.29855e-05)
(0.00863115 0.00252192 0.00024942)
(0.0040209 0.00395711 0.00118037)
(-6.10373e-05 0.000281161 0.00339346)
(-0.000912614 0.00236715 0.00357305)
(-0.0020111 0.00112841 0.00379528)
(-0.00251369 0.00186011 0.00419157)
(-0.00320941 0.00144482 0.00441459)
(-0.00311552 0.00215075 0.00485976)
(-0.00303048 0.0025244 0.00504407)
(-0.00240592 0.00314706 0.00521975)
(-0.00201001 0.00317399 0.00517589)
(-0.00163085 0.00315679 0.00520149)
(-0.00143549 0.00280656 0.00519899)
(-0.00138883 0.00249201 0.00522439)
(-0.0014345 0.00211484 0.00521011)
(-0.00149864 0.00177956 0.00518184)
(-0.00159316 0.00143588 0.00513941)
(-0.00170835 0.00110887 0.0050991)
(-0.00183766 0.000807648 0.00506881)
(-0.00198719 0.000561435 0.00504767)
(-0.00215797 0.000377284 0.00503364)
(-0.0023193 0.00025556 0.00502845)
(-0.00246028 0.000182771 0.00503191)
(-0.00258528 0.000141289 0.0050425)
(-0.00271324 0.00012557 0.00505669)
(-0.00285993 0.000132652 0.00507757)
(-0.00301433 0.000153781 0.0050993)
(-0.00317167 0.000176129 0.00511518)
(-0.00333529 0.000194749 0.00512186)
(-0.00351005 0.000214838 0.00511782)
(-0.00370975 0.000254675 0.00510484)
(-0.00395116 0.000354292 0.00508231)
(-0.00425214 0.000570891 0.00504323)
(-0.00465959 0.000928155 0.00499401)
(-0.00526145 0.00138698 0.00494912)
(-0.00615842 0.00186217 0.00492986)
(-0.00740304 0.00217178 0.00499159)
(-0.00895127 0.00216056 0.00507289)
(-0.0109973 0.00171259 0.00468434)
(-0.0129145 0.00139215 0.00337903)
(-0.0125723 0.000459259 0.00209256)
(-0.00626335 -0.00346404 0.00270946)
(0.0033766 -0.0147138 0.00764122)
(0.013574 -0.0387671 0.00947974)
(0.045592 -0.0837067 0.00770007)
(0.0596778 -0.10856 0.00579772)
(0.0652843 -0.115512 0.000938121)
(0.0755308 -0.108843 -0.0103965)
(0.0677928 -0.0701582 -0.017899)
(0.038615 -0.0277821 -0.0134843)
(0.0594144 0.0528648 0.022893)
(0.0702471 -0.0391653 0.0344225)
(-0.0667064 0.0524582 0.0560232)
(-0.0846801 -0.204411 0.114001)
(-0.124247 0.136921 -0.0244243)
(0.0850439 -0.00928093 0.028595)
(0.232213 0.444259 0.108536)
(0.0827819 0.571794 0.0106535)
(0.0647948 0.491313 0.0013852)
(0.0232237 0.551447 -0.0130122)
(0.0132343 0.551459 -0.0240065)
(0.00552853 0.584073 -0.0213837)
(-0.00482363 0.597874 -0.0188534)
(-0.0205334 0.604731 -0.0182125)
(-0.0238637 0.634953 -0.0168868)
(-0.0174058 0.650167 -0.00400923)
(-0.0107639 0.667639 -0.00507838)
(-0.012374 0.680209 -0.00895667)
(-0.0121508 0.688327 -0.013074)
(-0.00798192 0.69065 -0.0160435)
(0.00109069 0.693146 -0.0126254)
(0.00724382 0.690536 -0.0117647)
(0.0140959 0.69013 -0.00832907)
(0.0169148 0.685625 -0.00550608)
(0.0180505 0.679015 -0.00356112)
(0.0170422 0.679091 -0.00217563)
(0.0155112 0.674074 -0.00255746)
(0.0134158 0.668097 -0.00209042)
(0.0130711 0.665885 0.00334264)
(0.015484 0.661811 0.00778661)
(0.0182359 0.657054 0.0136622)
(0.0195685 0.653747 0.0179938)
(0.018867 0.64708 0.022412)
(0.0150053 0.636235 0.0271458)
(0.0110027 0.619953 0.0327146)
(0.0060979 0.593528 0.034543)
(0.00255916 0.557301 0.0303923)
(0.000460599 0.475779 0.0288301)
(0.00164231 0.256491 0.0268405)
(0.00223945 0.0458141 0.0215114)
(-0.00342058 0.0174312 0.00651251)
(0.000335816 0.018654 0.00310522)
(0.0245545 0.0182968 0.0042331)
(0.031809 0.0216118 0.00585847)
(0.0228144 0.0115899 0.00123054)
(0.0234567 0.0135541 0.000937463)
(0.0133477 0.00341726 -0.00180381)
(0.00673257 0.00495357 -0.00139859)
(-6.88486e-05 -0.000438101 0.00156277)
(-0.00212666 0.00235708 0.00215545)
(-0.00283529 0.00044629 0.00264561)
(-0.00356147 0.00137589 0.00330268)
(-0.00424005 0.000660689 0.00358536)
(-0.00433052 0.00150999 0.00420102)
(-0.00426448 0.00206696 0.00441555)
(-0.00344126 0.00289744 0.00476838)
(-0.00278029 0.00289858 0.00490808)
(-0.00227788 0.00280426 0.00513184)
(-0.00208093 0.00241129 0.00524742)
(-0.00212563 0.00213187 0.00532299)
(-0.00224876 0.00187519 0.00530872)
(-0.00236164 0.001684 0.005247)
(-0.00248845 0.00148343 0.00513952)
(-0.00262552 0.00127326 0.00500567)
(-0.00279177 0.00105292 0.00486958)
(-0.002965 0.000851708 0.00474354)
(-0.00312694 0.000689531 0.00463094)
(-0.00327017 0.000575444 0.0045271)
(-0.00337955 0.000490273 0.00443586)
(-0.00347319 0.000421631 0.00436125)
(-0.00357959 0.000366553 0.00430726)
(-0.00369727 0.000332842 0.00428001)
(-0.00381107 0.000324586 0.00427018)
(-0.00391542 0.000334782 0.00426456)
(-0.00402224 0.000360535 0.00425199)
(-0.00414514 0.000404543 0.00422476)
(-0.00432436 0.000485199 0.00417915)
(-0.00460163 0.000643199 0.00410663)
(-0.00500955 0.000923369 0.00398942)
(-0.00557333 0.00131959 0.00382524)
(-0.00632055 0.00173967 0.0036304)
(-0.00722618 0.00201508 0.00347543)
(-0.00827238 0.00190958 0.00346621)
(-0.00950993 0.00139377 0.00349857)
(-0.0109162 0.00043401 0.00309477)
(-0.0120451 -0.000636225 0.00214495)
(-0.00952985 -0.00337995 0.00203488)
(-0.00319324 -0.0128407 0.00490785)
(0.0178878 -0.0401313 0.0123175)
(0.051807 -0.0807232 0.00554403)
(0.06493 -0.110124 0.00288491)
(0.0684734 -0.112724 -0.00125535)
(0.0663576 -0.0980882 -0.00453731)
(0.0330861 -0.0408546 -0.0319041)
(-0.00423795 0.0863551 -0.00607533)
(-0.00245986 0.130324 0.0495316)
(0.00203311 0.130064 0.0694035)
(-0.000510677 0.10675 0.0739517)
(0.0327119 0.151815 0.102653)
(0.0818277 -0.237518 0.191503)
(-0.074155 0.206748 0.0350785)
(0.0772368 0.00290892 0.0312083)
(0.197102 0.562421 0.0978036)
(0.0632131 0.675208 -0.0155974)
(0.0489244 0.702689 -0.00999113)
(0.0116768 0.78589 -0.0198945)
(0.0202379 0.805084 -0.0116799)
(0.0132237 0.810344 -0.00659176)
(0.0131253 0.810229 -0.00101305)
(0.0021056 0.804349 0.00225509)
(-0.00368673 0.805347 0.000235165)
(-0.0047783 0.800079 -0.00155264)
(-0.000284708 0.793735 -0.00399403)
(0.00537743 0.797239 -0.00268143)
(0.00802591 0.790319 7.72794e-05)
(0.0123204 0.781806 -0.00102979)
(0.0188428 0.77942 -0.00132755)
(0.0218493 0.769804 -0.000690156)
(0.0260786 0.758528 -0.000460777)
(0.0293509 0.755215 -0.000772283)
(0.029974 0.746135 -0.000951533)
(0.0305114 0.735482 -0.00126867)
(0.0313028 0.731197 -0.00209612)
(0.0298746 0.72312 -0.0018916)
(0.0278215 0.71544 -0.000202263)
(0.0259949 0.708482 0.00424198)
(0.0245667 0.700533 0.0104561)
(0.022681 0.692664 0.016118)
(0.0193353 0.681476 0.0242462)
(0.0135766 0.66751 0.0329769)
(0.00664779 0.649855 0.0358025)
(0.000294632 0.629012 0.0346971)
(-0.00515284 0.609824 0.0291871)
(-0.00598408 0.59804 0.0229979)
(-0.00510994 0.592209 0.012208)
(-0.00265239 0.588107 0.000226547)
(0.00721666 0.580044 -0.00913441)
(0.0195102 0.546186 -0.00785143)
(0.0221996 0.0171762 0.00381855)
(0.0322927 0.0261374 0.00769128)
(0.0238276 0.0145338 0.00331244)
(0.0247381 0.0166787 0.00349602)
(0.0175225 0.00411149 -0.00116182)
(0.00980614 0.00533252 -0.00237278)
(0.000554572 -0.00100399 -0.000103481)
(-0.00282135 0.00271427 0.000735759)
(-0.00386872 0.000113987 0.00144922)
(-0.00473326 0.0012557 0.00230629)
(-0.00587867 0.000278573 0.00250344)
(-0.006648 0.00120088 0.00337376)
(-0.00689871 0.00154011 0.00376434)
(-0.00584388 0.00236126 0.00460666)
(-0.00495086 0.00218609 0.00518577)
(-0.00446601 0.00212389 0.005731)
(-0.00442836 0.00178281 0.00598522)
(-0.00473997 0.00162906 0.0060652)
(-0.00509299 0.00153365 0.00599098)
(-0.00534118 0.00153003 0.00585318)
(-0.00552024 0.00152997 0.0056547)
(-0.00563233 0.00152274 0.00542034)
(-0.00573154 0.00148341 0.00518593)
(-0.00583309 0.00142344 0.00496752)
(-0.0059676 0.00136966 0.0047923)
(-0.00604909 0.00133625 0.00463922)
(-0.0060748 0.00129338 0.00451384)
(-0.00607298 0.00123065 0.00443531)
(-0.00608604 0.00115079 0.00440046)
(-0.00614331 0.00108144 0.00440386)
(-0.00622297 0.00104959 0.00443048)
(-0.0063046 0.00105806 0.00446137)
(-0.00639547 0.00111374 0.00448511)
(-0.00650493 0.00121601 0.00448522)
(-0.00668813 0.00136886 0.00444567)
(-0.00698213 0.00158648 0.00435096)
(-0.00737782 0.00186292 0.00418712)
(-0.00782434 0.00215024 0.00395982)
(-0.00829219 0.00231928 0.00366214)
(-0.00878745 0.00214096 0.0033152)
(-0.0093665 0.00147633 0.0030342)
(-0.0101624 0.00042346 0.0028977)
(-0.0112608 -0.00084813 0.00274615)
(-0.0110054 -0.0024285 0.00279174)
(-0.00552442 -0.00852257 0.00487229)
(0.0139119 -0.0234534 0.00918861)
(0.0509898 -0.0649262 0.00505664)
(0.0789408 -0.0670742 -0.00582254)
(0.0729425 -0.0487602 -0.00452065)
(0.0302102 0.014555 -0.0160981)
(-0.0255918 0.108179 -0.00256145)
(-0.0210094 0.167362 -0.00879242)
(-0.0150878 0.186961 -0.0186091)
(-0.00395472 0.202096 0.00103997)
(0.0101755 0.190642 0.0242702)
(0.0700146 0.17461 0.0300929)
(0.107906 0.174274 0.0447768)
(0.0601656 0.0890877 0.0704204)
(-0.131551 0.351649 0.0739671)
(0.0361446 2.89839e-05 0.0314953)
(0.045235 0.665374 0.0547984)
(0.0121961 0.746714 -0.0242735)
(0.00685187 0.798155 -0.00303199)
(0.0201694 0.825507 -0.0106732)
(0.0313893 0.825779 -0.0101)
(0.0337083 0.834606 -0.012534)
(0.031371 0.845397 -0.00892879)
(0.0213562 0.845209 -0.00537303)
(0.0115251 0.843692 -0.00183414)
(0.00722912 0.838049 0.000481562)
(0.00594936 0.830122 0.00519693)
(0.00701496 0.819667 0.00909936)
(0.00877138 0.811131 0.0126469)
(0.0120723 0.802581 0.0156003)
(0.0167871 0.79365 0.0150495)
(0.0203675 0.782365 0.016063)
(0.0225616 0.778448 0.0167349)
(0.0246568 0.768584 0.016013)
(0.0265671 0.759379 0.0150461)
(0.0273061 0.754899 0.0144964)
(0.0280486 0.750869 0.0144086)
(0.0268135 0.743471 0.0146026)
(0.0248999 0.737159 0.0156483)
(0.0230493 0.731275 0.0169622)
(0.0197166 0.723451 0.0183145)
(0.0157937 0.716401 0.0222594)
(0.0106858 0.704747 0.0277409)
(0.00595937 0.689229 0.0282091)
(0.00196921 0.667607 0.0261142)
(-0.00138709 0.642012 0.0190318)
(-0.00602834 0.617352 0.00432414)
(-0.00751168 0.593854 -0.012304)
(-0.00306241 0.580065 -0.0318025)
(0.0129594 0.570976 -0.0471814)
(0.0352934 0.547233 -0.0575807)
(0.0487184 0.525024 -0.060528)
(0.0225205 0.013401 0.00300306)
(0.0315957 0.0296769 0.00882969)
(0.0239681 0.0178779 0.00359591)
(0.0256541 0.0211651 0.00376908)
(0.0203668 0.00675311 -0.000867234)
(0.012228 0.00610947 -0.00250758)
(0.000212283 -0.00162404 -0.00128188)
(-0.00402748 0.00248505 -0.000220173)
(-0.00381108 -0.000602702 0.00156425)
(-0.00506386 0.00158748 0.00222774)
(-0.0058828 0.000305308 0.00247622)
(-0.00652701 0.00115746 0.0036318)
(-0.00664859 0.000626151 0.00432624)
(-0.00538181 0.000982242 0.00560074)
(-0.00449525 0.000605263 0.00650297)
(-0.00411115 0.000791951 0.00741656)
(-0.00415317 0.000835143 0.00792498)
(-0.00449234 0.00111684 0.00812531)
(-0.00482259 0.00132134 0.0080984)
(-0.00503007 0.00158199 0.0079655)
(-0.00518194 0.00182404 0.00774173)
(-0.00528396 0.00201495 0.00745954)
(-0.00537373 0.00211834 0.00717426)
(-0.00545256 0.00216886 0.00691109)
(-0.00553369 0.0021607 0.00667489)
(-0.00558032 0.00211587 0.00647576)
(-0.0055649 0.00205338 0.00633451)
(-0.00551926 0.00196634 0.00624193)
(-0.00548927 0.00186148 0.00619813)
(-0.00551375 0.00176423 0.00619261)
(-0.00556852 0.00172056 0.00620713)
(-0.00563253 0.00173697 0.00621721)
(-0.00571829 0.00182057 0.00620328)
(-0.00582556 0.00195862 0.00615127)
(-0.00601841 0.00214088 0.0060495)
(-0.00633111 0.00235488 0.00588068)
(-0.00674592 0.00254576 0.00562792)
(-0.00719218 0.00261873 0.00530016)
(-0.00752671 0.00245489 0.00493296)
(-0.00767875 0.0018744 0.00460212)
(-0.00781982 0.000806978 0.0043954)
(-0.00824185 -0.000485025 0.00448629)
(-0.00895871 -0.00153936 0.00497725)
(-0.0069388 -0.00314366 0.00634121)
(0.00128177 -0.00664892 0.00988965)
(0.0306382 -0.0260748 0.00400681)
(0.0549085 0.00346347 -0.0169833)
(0.015594 0.0924501 -0.0163543)
(-0.0335266 0.132658 -0.00426911)
(-0.0384318 0.185337 -0.0159515)
(-0.0332675 0.208003 -0.0105347)
(-0.0201551 0.233495 -0.00664934)
(-0.0162832 0.242194 -0.00367369)
(-0.00199506 0.239495 0.0229579)
(0.0235119 0.22188 0.043989)
(0.0844177 0.226628 0.0609065)
(0.13984 0.25179 0.0714375)
(0.189781 0.183002 0.0847612)
(0.242291 0.44767 0.0690998)
(-0.0430027 -0.125926 0.0309781)
(-0.103645 0.598883 0.0315383)
(-0.0226176 0.674879 -0.0167553)
(-0.00416012 0.65771 -1.06566e-05)
(0.0285648 0.683375 0.00418487)
(0.035481 0.67353 0.00176175)
(0.0319304 0.672211 -0.01105)
(0.0221585 0.686922 -0.0168592)
(0.0153856 0.69994 -0.0193591)
(0.0048941 0.714626 -0.01549)
(0.00753607 0.725149 -0.00316367)
(0.0112092 0.73412 0.00913353)
(0.0144911 0.739287 0.0169794)
(0.0178216 0.744395 0.0259163)
(0.0220209 0.745746 0.0315213)
(0.0234326 0.744717 0.0335984)
(0.0238186 0.741024 0.0348352)
(0.0244025 0.739529 0.0353348)
(0.0247427 0.737167 0.0345006)
(0.0246772 0.733343 0.0318504)
(0.0248382 0.73188 0.0299327)
(0.0246879 0.732819 0.0288934)
(0.0245198 0.730672 0.0289352)
(0.024755 0.728599 0.0292287)
(0.0250914 0.721938 0.0292618)
(0.0246965 0.714984 0.0294762)
(0.0237095 0.708366 0.0300969)
(0.0224229 0.698437 0.0306834)
(0.0239163 0.680268 0.0315262)
(0.0278018 0.656985 0.0286622)
(0.0328266 0.622882 0.0256572)
(0.035703 0.559449 0.0176989)
(0.0328981 0.376399 0.0097953)
(0.0281878 0.0628555 0.00312944)
(0.027362 0.0309904 -0.00241088)
(0.0615038 0.0308426 0.00333778)
(0.0940031 0.110311 0.0107228)
(0.015378 0.009036 0.000106225)
(0.028765 0.0307007 0.00794958)
(0.0230677 0.0217511 0.00184044)
(0.0263919 0.0268725 0.00248441)
(0.0239931 0.0115025 -0.000548899)
(0.0164861 0.00849525 -0.00235497)
(0.00175678 -0.00250298 -0.00662942)
(-0.00406031 0.00239567 -0.00513699)
(-0.00627812 -0.00109043 -0.00215099)
(-0.00705522 0.00201815 -0.00103174)
(-0.00771276 0.000208074 -0.000734611)
(-0.00821993 0.000838701 0.00054793)
(-0.00856446 -0.000311428 0.00134269)
(-0.00807158 -0.000127843 0.00248209)
(-0.00787599 -0.000391606 0.00331525)
(-0.00798924 4.99618e-05 0.00415866)
(-0.00833981 0.00036195 0.00483252)
(-0.00879184 0.000864112 0.00526535)
(-0.00920744 0.00122041 0.00546342)
(-0.00952025 0.00160293 0.00551118)
(-0.0096792 0.00192718 0.00542503)
(-0.00961682 0.00219127 0.00526424)
(-0.00952609 0.00236677 0.00509257)
(-0.00942482 0.00247006 0.0049323)
(-0.00932365 0.00250085 0.00478091)
(-0.00920495 0.00247664 0.00464484)
(-0.00905652 0.00242328 0.00453769)
(-0.00890758 0.00235535 0.00445927)
(-0.00880649 0.00228318 0.00441466)
(-0.00881621 0.00221267 0.00440019)
(-0.00891282 0.00218035 0.00439695)
(-0.00902639 0.00220741 0.0043822)
(-0.00915525 0.00228943 0.0043428)
(-0.00927962 0.00241865 0.00426976)
(-0.00945085 0.00257508 0.00416589)
(-0.00966221 0.00273493 0.0040199)
(-0.00986021 0.00283635 0.00381163)
(-0.00996271 0.00277029 0.0035384)
(-0.00987747 0.00241882 0.00322993)
(-0.00963474 0.00164394 0.0029441)
(-0.0095254 0.000499471 0.00274948)
(-0.0100934 -0.000888151 0.00282604)
(-0.0110546 -0.00202997 0.00355933)
(-0.00878478 -0.00470469 0.00541523)
(0.000741366 -0.00682874 0.00790604)
(0.00103169 -0.0224496 -0.00846014)
(-0.0103496 0.0768409 -0.0163087)
(-0.0172205 0.13577 -0.00155415)
(-0.0222162 0.153931 0.00391584)
(-0.0298895 0.168198 0.00237106)
(-0.0239191 0.176275 0.0116839)
(0.0100014 0.166271 0.0256632)
(0.02966 0.139766 0.0348729)
(0.0429186 0.116936 0.0425837)
(0.0518425 0.108879 0.0555342)
(0.0795575 0.0720608 0.0507312)
(0.0673424 0.149371 0.0550802)
(0.154013 0.0331694 0.0494954)
(0.323358 0.46858 0.0324736)
(-0.0432986 -0.126867 0.0262582)
(-0.151361 0.560318 0.0282743)
(-0.0418613 0.661682 0.00142814)
(-0.0239682 0.604838 0.0257692)
(0.030766 0.629008 0.041858)
(0.0423287 0.607433 0.0388867)
(0.0533206 0.605145 0.0270997)
(0.0449736 0.574737 0.0158896)
(0.0376104 0.553292 0.00407916)
(0.0251234 0.541922 -0.00212749)
(0.0185132 0.533748 -0.00815097)
(0.0122751 0.530699 -0.0103477)
(0.00841981 0.533341 -0.0137497)
(0.00889652 0.542131 -0.0147732)
(0.0131652 0.550703 -0.0114943)
(0.0166551 0.563388 -0.00564191)
(0.0208162 0.575434 -0.00144378)
(0.0214355 0.583984 0.00321842)
(0.0189315 0.594564 0.00905491)
(0.0168359 0.600724 0.00802022)
(0.0129731 0.610988 0.00632159)