/*--------------------------------*- C++ -*----------------------------------*\
| =========                 |                                                 |
| \\      /  F ield         | OpenFOAM: The Open Source CFD Toolbox           |
|  \\    /   O peration     | Version:  2.3.0                                 |
|   \\  /    A nd           | Web:      www.OpenFOAM.org                      |
|    \\/     M anipulation  |                                                 |
\*---------------------------------------------------------------------------*/
FoamFile
{
    version     2.0;
    format      ascii;
    class       volVectorField;
    location    "44";
    object      U.waterMean;
}
// * * * * * * * * * * * * * * * * * * * * * * * * * * * * * * * * * * * * * //

dimensions      [0 1 -1 0 0 0 0];

internalField   nonuniform List<vector> 
6144
(
(0.00955893 0.0195126 -0.000645033)
(0.00981185 -0.000585267 -0.00152692)
(0.00463486 -0.00212876 -0.00247455)
(0.00428134 -0.00301997 -0.00237276)
(0.00273858 -0.00314604 -0.00193115)
(0.00299453 -0.0016263 -0.00169123)
(0.00257249 -0.00164747 -0.00132131)
(0.00255739 -0.000561958 -0.00101991)
(0.00226731 -0.000321418 -0.00091343)
(0.00209045 0.000881303 -0.000613795)
(0.00193744 0.00173646 -0.0003405)
(0.00201952 0.00242271 5.02436e-05)
(0.00215435 0.00239228 0.000215849)
(0.00229343 0.00200599 0.000410724)
(0.00236396 0.00135064 0.000320467)
(0.00243858 0.000776694 0.000207144)
(0.00247988 0.000223675 3.4295e-06)
(0.0025251 -0.000157003 -0.000159418)
(0.00255946 -0.000467743 -0.00033117)
(0.00258438 -0.000640349 -0.000459203)
(0.00259862 -0.00074717 -0.000557667)
(0.00260485 -0.000773458 -0.000614036)
(0.00260092 -0.000769338 -0.000635409)
(0.0025889 -0.000736066 -0.000627238)
(0.00256936 -0.000694226 -0.000595214)
(0.00254428 -0.000648727 -0.000542722)
(0.0025156 -0.000607259 -0.000475508)
(0.00248528 -0.000575736 -0.000401107)
(0.00245416 -0.000551955 -0.00032374)
(0.00242165 -0.000550949 -0.000247298)
(0.00238851 -0.000541259 -0.000170189)
(0.00234893 -0.00058251 -8.70444e-05)
(0.00230897 -0.000568775 8.71098e-06)
(0.00225988 -0.000688569 0.00012551)
(0.00221802 -0.000692066 0.000271183)
(0.00216956 -0.00100852 0.000439212)
(0.00214086 -0.00110964 0.000611731)
(0.00210854 -0.00173795 0.000743684)
(0.0021061 -0.00189116 0.000796664)
(0.00210427 -0.0027199 0.000716173)
(0.00212191 -0.00260482 0.000448433)
(0.00213909 -0.00314304 -7.51656e-05)
(0.00217786 -0.00199177 -0.000691616)
(0.00238118 -0.00162545 -0.00121212)
(0.00274967 0.000271451 -0.00153078)
(0.00327954 -0.000192545 -0.00180373)
(0.00399836 0.000773998 -0.00242546)
(0.004505 -0.000329003 -0.00369148)
(0.00349041 0.00437367 -0.00531573)
(0.00507697 0.00897329 -0.00728906)
(0.0163923 0.0114043 -0.0101509)
(0.0261632 -0.0067184 -0.0106905)
(0.0332516 -0.0169872 -0.011763)
(0.0337063 -0.0547428 -0.0111068)
(0.0294591 -0.0506727 -0.0129745)
(0.0257502 -0.0919919 -0.00893823)
(0.00816951 -0.0469784 -0.0156991)
(0.00713381 -0.104381 0.0190938)
(-0.0349901 0.000938887 -0.0475532)
(0.0234921 -0.0340039 0.037836)
(0.132622 -0.292458 0.0645593)
(0.0907117 -0.115643 0.0298059)
(0.0589838 -0.185961 0.00922386)
(0.0493217 -0.193947 0.00556836)
(0.0405045 -0.19485 0.00600118)
(0.0331802 -0.185914 0.00590645)
(0.0268569 -0.184839 0.00501874)
(0.0219831 -0.17781 0.00446254)
(0.0188243 -0.174622 0.00454125)
(0.0161093 -0.167311 0.00485175)
(0.0139206 -0.162567 0.00512765)
(0.0117852 -0.154133 0.00542917)
(0.0101443 -0.14653 0.00592525)
(0.00789268 -0.136955 0.00642177)
(0.00484522 -0.126139 0.00666869)
(0.00243745 -0.112553 0.00505749)
(0.0012727 -0.0989758 0.00218653)
(-0.000124085 -0.0856219 0.00052549)
(-0.00116208 -0.072181 0.000498886)
(0.000178348 -0.0594845 0.00143174)
(0.00192862 -0.0493163 0.0021275)
(0.00290394 -0.0411837 0.00286834)
(0.00307271 -0.0361855 0.0041811)
(0.00197379 -0.0325644 0.00478466)
(0.00146125 -0.0282228 0.00435936)
(0.00172009 -0.0229005 0.00365953)
(0.00211368 -0.0174019 0.00352125)
(0.00210333 -0.011526 0.00300082)
(0.00132034 -0.00621433 0.00214429)
(-6.53544e-05 0.00117418 0.00150925)
(0.000388765 0.00844826 0.00207945)
(0.00158233 0.0138735 0.00347206)
(0.00185455 0.0167333 0.00525161)
(0.00227829 0.0175892 0.00771926)
(0.00411208 0.0166364 0.00995276)
(0.00741687 0.00812636 0.0140575)
(0.0188027 0.0209259 0.00289888)
(0.0198894 0.00735123 0.00240081)
(0.0104138 0.00408734 -0.000423428)
(0.0101614 0.00272211 0.000301597)
(0.00601657 -0.000281804 0.00102631)
(0.00593668 0.000346948 0.00155114)
(0.0044147 -0.000763946 0.00209432)
(0.00423605 0.000558425 0.00209987)
(0.00360631 0.000824312 0.0020449)
(0.00337898 0.00230264 0.00210389)
(0.00328862 0.00301376 0.00224974)
(0.00367175 0.00358639 0.00269234)
(0.00404034 0.00335692 0.00290617)
(0.00442695 0.00294852 0.00307789)
(0.00456094 0.00219809 0.00304925)
(0.00469691 0.00155631 0.00301117)
(0.00472017 0.000892117 0.00291878)
(0.00476929 0.000426515 0.00285516)
(0.00479136 2.22309e-05 0.00277603)
(0.00480586 -0.000227032 0.00272726)
(0.00480444 -0.000402208 0.00268586)
(0.00479327 -0.000479107 0.00266806)
(0.00476469 -0.000515111 0.00267701)
(0.00472213 -0.000509586 0.0027115)
(0.00466736 -0.000487437 0.00276426)
(0.00460414 -0.000453787 0.00283094)
(0.00453724 -0.000419404 0.0029016)
(0.00447113 -0.000392475 0.00296938)
(0.00440643 -0.000373395 0.00303582)
(0.00434205 -0.000377026 0.00309602)
(0.00427924 -0.000375188 0.00315475)
(0.00420565 -0.000434296 0.00321682)
(0.0041402 -0.000441083 0.00328497)
(0.00406437 -0.000603993 0.00335965)
(0.00402601 -0.00062962 0.00344728)
(0.00398399 -0.000994786 0.00353987)
(0.00400521 -0.00106857 0.00363633)
(0.00400173 -0.00171991 0.00371114)
(0.00405567 -0.00176875 0.00375298)
(0.00404335 -0.00261464 0.00372113)
(0.00401326 -0.00233613 0.00358218)
(0.00391218 -0.00295648 0.00317554)
(0.00388761 -0.00170415 0.00248405)
(0.00409708 -0.00172899 0.00182372)
(0.00484084 0.000128186 0.0014676)
(0.00597174 -0.000712639 0.00116343)
(0.00640144 0.000774948 4.96941e-05)
(0.00563025 0.00182803 -0.00161058)
(0.00536601 0.00789435 -0.00275019)
(0.0126937 0.00505357 -0.00321687)
(0.0335313 -0.00100584 -0.00449599)
(0.0484426 -0.0189215 -0.00439357)
(0.0593568 -0.0229172 -0.00236662)
(0.0575236 -0.0511619 0.000323417)
(0.0476048 -0.0390391 0.00556522)
(0.0471627 -0.0983144 0.0135444)
(0.00729266 -0.0483508 0.0123035)
(0.00188324 -0.164747 0.0410996)
(-0.0907765 0.0285063 -0.0758537)
(0.00647617 -0.0851486 0.0123325)
(0.169443 -0.261457 0.103632)
(0.0852278 0.00603829 0.0427827)
(0.0246785 -0.110006 0.0091529)
(0.024656 -0.0462039 0.0149313)
(0.0114156 -0.0644356 0.016442)
(0.00459122 -0.0492513 0.0142241)
(0.00214699 -0.0507155 0.0110928)
(0.00272528 -0.0437808 0.0103522)
(0.00450762 -0.0433819 0.0101883)
(0.00455417 -0.0391675 0.008835)
(0.00318473 -0.039814 0.00917326)
(0.00115304 -0.0387475 0.00972736)
(-0.000719778 -0.041115 0.00986012)
(-0.00382125 -0.042051 0.00869061)
(-0.00713026 -0.0430029 0.00726796)
(-0.00817608 -0.0405195 0.00605084)
(-0.00775372 -0.03808 0.00444395)
(-0.00835659 -0.0348101 0.00371174)
(-0.00813321 -0.0309054 0.00390886)
(-0.00586057 -0.0279514 0.00496108)
(-0.00343071 -0.0245088 0.00554266)
(-0.00166414 -0.021373 0.00680171)
(-0.00079785 -0.021384 0.00860495)
(-0.00131291 -0.0230863 0.00909929)
(-0.00228007 -0.0239991 0.00805522)
(-0.00219537 -0.0239869 0.00702383)
(-0.0018812 -0.0217817 0.00576022)
(-0.0022312 -0.0177452 0.00446357)
(-0.00272137 -0.013414 0.00327764)
(-0.00341689 -0.00791084 0.00228375)
(-0.00294077 -0.00293354 0.00306083)
(-0.00169488 0.0011813 0.00436496)
(-0.00177151 0.00573401 0.00663386)
(-0.0013501 0.00674721 0.0100984)
(-0.000200141 0.0082012 0.0133268)
(0.0031536 0.00205378 0.0182924)
(0.022171 0.0210528 0.00401516)
(0.0239523 0.0119108 0.00388349)
(0.0142708 0.007617 0.0012485)
(0.0136071 0.00701754 0.00217093)
(0.00742276 0.00263076 0.00276346)
(0.00654155 0.00278672 0.00306028)
(0.00368085 0.000583193 0.00360465)
(0.00329382 0.00169343 0.00350131)
(0.00242095 0.00169605 0.00340757)
(0.00245667 0.00288652 0.00349642)
(0.00243424 0.00305733 0.00356346)
(0.00311934 0.00351025 0.00385593)
(0.00355817 0.00321845 0.00401982)
(0.00405728 0.00304217 0.0041652)
(0.00423553 0.00247492 0.00414379)
(0.00441475 0.0020091 0.00413167)
(0.00440734 0.00142894 0.00408373)
(0.00443756 0.00101058 0.00406765)
(0.0044016 0.000604335 0.00405377)
(0.00436775 0.000326947 0.00406461)
(0.00430193 9.36562e-05 0.00408408)
(0.00423275 -4.93605e-05 0.0041186)
(0.00415572 -0.000148484 0.0041576)
(0.00407577 -0.000198037 0.00420279)
(0.00399167 -0.000222906 0.00425086)
(0.00390671 -0.000229535 0.00430055)
(0.0038206 -0.000230645 0.00435118)
(0.00373332 -0.000232761 0.0044036)
(0.00364666 -0.000237232 0.0044575)
(0.00355624 -0.000259698 0.00451295)
(0.00346622 -0.000276817 0.0045702)
(0.00336668 -0.000351019 0.00462927)
(0.00328047 -0.000378772 0.00469107)
(0.00318222 -0.00054576 0.00475309)
(0.00313581 -0.000560517 0.00481742)
(0.00308423 -0.000852529 0.00487634)
(0.0031184 -0.000796843 0.00493275)
(0.00312107 -0.00121954 0.00496847)
(0.00320874 -0.000977773 0.00498177)
(0.0032158 -0.00145807 0.00494488)
(0.00326404 -0.000832822 0.00484258)
(0.00313588 -0.00129986 0.00464706)
(0.0030889 -0.000185284 0.00434479)
(0.00332122 -0.000761682 0.0039336)
(0.00414822 0.000546107 0.00362652)
(0.00537904 -0.000568166 0.00342504)
(0.00561537 0.00138222 0.00252157)
(0.00547162 0.000966657 0.000980209)
(0.00856028 0.00475751 0.00038412)
(0.0233556 -0.00436595 0.000756977)
(0.0487533 -0.00836437 -0.000470645)
(0.0675998 -0.0188095 0.000878653)
(0.0762171 -0.0131856 0.00474997)
(0.075031 -0.0318472 0.00817863)
(0.0682949 -0.0151729 0.0179251)
(0.0660959 -0.0803914 0.0274705)
(0.0130424 -0.0168392 0.0373896)
(0.0214645 -0.183819 0.0665418)
(-0.108686 0.0720556 -0.0613775)
(0.0279131 -0.117408 -0.0185057)
(0.193174 -0.238711 0.108732)
(0.104881 0.054773 0.0470741)
(0.0692784 -0.0825 0.0222682)
(0.0431617 0.00511578 0.0143846)
(0.0285699 -0.0245726 0.0115803)
(0.0191536 -0.00336184 0.0119691)
(0.0178711 -0.00888069 0.0125956)
(0.0152166 -0.00203712 0.01083)
(0.014972 0.000839008 0.00929576)
(0.0146515 0.00609596 0.00958582)
(0.0129644 0.00428316 0.0105337)
(0.0106113 0.00376879 0.010824)
(0.00905418 9.40704e-05 0.0101145)
(0.00630304 -0.00110566 0.00921997)
(0.0027835 -0.00361337 0.00783861)
(0.000534282 -0.00425435 0.00655858)
(-0.000735929 -0.00413941 0.00680295)
(-0.00214819 -0.00368466 0.00717463)
(-0.00354121 -0.00443074 0.00844948)
(-0.00352553 -0.00562657 0.00952151)
(-0.00247612 -0.00616301 0.0103062)
(-0.00100848 -0.00686176 0.0120113)
(-0.000626646 -0.00984003 0.0144813)
(-0.00312301 -0.0135338 0.0148955)
(-0.00524522 -0.0171466 0.0143023)
(-0.00630022 -0.0195713 0.0126116)
(-0.00649663 -0.0194177 0.00986564)
(-0.00661908 -0.0181534 0.00665102)
(-0.00638121 -0.0155917 0.00278883)
(-0.00600706 -0.00989995 0.000200137)
(-0.0052669 -0.00582112 0.00252225)
(-0.00503806 -0.00236939 0.00548476)
(-0.00504669 0.000492728 0.0086057)
(-0.00434026 0.000402256 0.0120289)
(-0.00479358 0.00259887 0.0153962)
(-0.00412083 -0.00162939 0.0195906)
(0.0234389 0.0211931 0.00427284)
(0.0267614 0.0150143 0.00445525)
(0.0160788 0.00918201 0.00104994)
(0.0163927 0.0100028 0.00151281)
(0.00921825 0.00450024 0.00196416)
(0.00817462 0.00495934 0.00246377)
(0.00354837 0.00117126 0.00333085)
(0.00255517 0.001924 0.00332222)
(0.00119004 0.00119475 0.00342812)
(0.00148089 0.00244062 0.00359577)
(0.00145664 0.0022822 0.00375499)
(0.00211676 0.00287316 0.00416472)
(0.00247774 0.00278041 0.00435813)
(0.00299671 0.00289572 0.00451546)
(0.00319763 0.00250362 0.00448102)
(0.00339616 0.00220145 0.00448185)
(0.00337305 0.00169011 0.00445036)
(0.00338674 0.00132824 0.00445816)
(0.00332207 0.000937649 0.00445721)
(0.00326724 0.000660065 0.00447381)
(0.00317455 0.000402896 0.00449159)
(0.00307948 0.000224489 0.00452087)
(0.00297283 8.16027e-05 0.00455397)
(0.00286662 -1.0539e-05 0.00459352)
(0.00276208 -7.10013e-05 0.00463648)
(0.00266241 -0.000104248 0.00468245)
(0.00256794 -0.00012315 0.00472932)
(0.00247857 -0.000135979 0.00477639)
(0.00239449 -0.000148245 0.00482387)
(0.00231302 -0.000174536 0.00487223)
(0.00223746 -0.000196378 0.00492232)
(0.00215816 -0.000263702 0.00497344)
(0.00209752 -0.000281518 0.00502343)
(0.00202839 -0.0004138 0.00506742)
(0.00201274 -0.000386729 0.00510275)
(0.0019775 -0.000596572 0.00512248)
(0.00202693 -0.000437251 0.00512715)
(0.00201251 -0.000697396 0.0051059)
(0.00208464 -0.000258466 0.00506172)
(0.00204914 -0.000491958 0.00498392)
(0.00212308 0.000394218 0.0048703)
(0.00212458 8.49765e-05 0.0047096)
(0.00235366 0.00106036 0.00448882)
(0.00270968 -4.06264e-05 0.00422563)
(0.00345652 0.000664764 0.00411106)
(0.00437233 -0.00100527 0.00409761)
(0.00473722 0.000848137 0.00357312)
(0.00547583 -0.00176912 0.00234056)
(0.0123239 -0.00114277 0.00227928)
(0.0282743 -0.0106856 0.00276241)
(0.0527193 -0.00955218 0.00258591)
(0.0698079 -0.00809148 0.00618729)
(0.0782073 0.00721867 0.0110577)
(0.0770614 8.13257e-05 0.0151977)
(0.0690771 0.0251476 0.0284697)
(0.0631823 -0.0348529 0.0432839)
(0.0175644 0.0529698 0.0787172)
(0.0356689 -0.19073 0.104756)
(-0.13847 0.197671 -0.0399882)
(0.0295041 -0.209751 0.00916175)
(0.176093 -0.202983 0.117785)
(0.0760109 0.0823941 0.0343225)
(0.0480637 -0.0418553 0.0220965)
(0.0147122 0.049406 0.00291552)
(0.0101892 0.0279737 0.00730169)
(0.00229402 0.0487958 0.00824143)
(0.00249541 0.045833 0.00976312)
(0.00138931 0.0524975 0.00971996)
(0.00379722 0.0511182 0.0084863)
(0.00540463 0.0544586 0.00714958)
(0.00690249 0.0525392 0.00713855)
(0.00790092 0.0512515 0.00684008)
(0.00682321 0.0476712 0.00711953)
(0.00383782 0.0450273 0.00739695)
(0.000979274 0.0404144 0.00774309)
(-0.00129849 0.0367054 0.00897757)
(-0.00386049 0.0316814 0.00937189)
(-0.00597276 0.0287885 0.00969335)
(-0.00745795 0.0245747 0.0118335)
(-0.00814238 0.0221476 0.0137115)
(-0.00836117 0.0188276 0.0159557)
(-0.00865657 0.0161435 0.0171006)
(-0.00940763 0.012664 0.0186241)
(-0.0108684 0.00768776 0.0177361)
(-0.0131843 0.0032232 0.016445)
(-0.0143724 -0.000503635 0.0142469)
(-0.0136311 -0.00260542 0.00907261)
(-0.0117538 -0.00231674 0.00512856)
(-0.0109936 -0.00234243 0.00146575)
(-0.0089163 0.0011701 -0.000660933)
(-0.0079533 0.00317911 0.00275481)
(-0.00847365 0.00347924 0.00608357)
(-0.00871109 0.00269526 0.00901192)
(-0.00975037 -0.000424583 0.0125886)
(-0.0132268 0.000701984 0.0155246)
(-0.0151193 -0.00325333 0.0195269)
(0.023478 0.0213488 0.00448675)
(0.028698 0.0179531 0.00517092)
(0.0175153 0.0101387 0.000902176)
(0.0190774 0.0120315 0.00111375)
(0.0111036 0.00494451 0.000540993)
(0.0102766 0.0064449 0.00107593)
(0.0043893 0.0015774 0.00196238)
(0.00267817 0.0024962 0.00247877)
(0.000107247 0.000321875 0.00287789)
(0.000120948 0.00150955 0.0032762)
(-0.000161162 0.0010842 0.00352178)
(0.000269195 0.00199645 0.00410615)
(0.000459188 0.0021565 0.0043238)
(0.00101583 0.00258513 0.00451932)
(0.00125527 0.0023568 0.00445983)
(0.00145042 0.00216841 0.00447885)
(0.00136408 0.00171051 0.00445474)
(0.00128441 0.00141061 0.00448022)
(0.00113276 0.00105827 0.00447788)
(0.00101554 0.000808678 0.00448283)
(0.000875746 0.000551729 0.00447605)
(0.000751403 0.000356108 0.0044782)
(0.000628439 0.000186503 0.00448401)
(0.000511825 6.64279e-05 0.00449729)
(0.000399545 -2.14344e-05 0.00451489)
(0.000299239 -7.84091e-05 0.00453818)
(0.000209698 -0.000116669 0.00456474)
(0.000131514 -0.000144618 0.00459308)
(6.29461e-05 -0.000167789 0.00462087)
(-1.10546e-06 -0.000196055 0.0046479)
(-6.09636e-05 -0.000215184 0.00467428)
(-0.000125586 -0.000265554 0.00469896)
(-0.000175098 -0.000262002 0.00472074)
(-0.000234339 -0.000344676 0.0047329)
(-0.000238078 -0.000260705 0.00473199)
(-0.000262289 -0.000372086 0.00470641)
(-0.000201448 -0.000105623 0.00465773)
(-0.000222878 -0.000197109 0.00457163)
(-0.000164735 0.000425663 0.00445742)
(-0.000239308 0.000409504 0.00431598)
(-9.72008e-05 0.00143561 0.00418161)
(0.000109181 0.00114018 0.00405012)
(0.000769927 0.00192289 0.00388971)
(0.00146351 0.000446058 0.00375493)
(0.00234755 0.000808968 0.00389688)
(0.002849 -0.00116988 0.00399583)
(0.00359241 9.57752e-05 0.00398478)
(0.00668524 -0.00403116 0.00350596)
(0.0150463 -0.00520013 0.00426842)
(0.0301488 -0.0113188 0.00596308)
(0.0490562 -0.00263352 0.00805143)
(0.0637765 0.0086676 0.0150532)
(0.071315 0.0346156 0.0201814)
(0.0711369 0.0372634 0.0238132)
(0.0638911 0.0672508 0.0402946)
(0.05588 0.0222533 0.0552411)
(0.0291533 0.121907 0.092628)
(0.0419156 -0.130503 0.110032)
(-0.109932 0.305571 -0.00863117)
(0.0175037 -0.267989 0.0176207)
(0.1539 -0.168387 0.12224)
(0.0577838 0.0942046 0.0282802)
(0.0484102 -0.00289214 0.0247603)
(0.0149429 0.0792515 0.00177637)
(0.0155915 0.0664988 0.00792846)
(0.00748635 0.0850593 0.00913473)
(0.00761557 0.0838333 0.0106619)
(0.00530233 0.0906464 0.00960419)
(0.00634107 0.0908178 0.00866649)
(0.00711587 0.0952589 0.00889827)
(0.00949888 0.0935017 0.0102006)
(0.00997153 0.0935253 0.0105)
(0.0101385 0.0913984 0.0110373)
(0.00873255 0.0884041 0.0114905)
(0.00671075 0.083574 0.0130305)
(0.00384131 0.078106 0.0131559)
(0.00138188 0.0732738 0.012665)
(-0.00178759 0.0685588 0.0125401)
(-0.0048356 0.0639016 0.0144283)
(-0.00716096 0.059755 0.0166905)
(-0.00913169 0.0546801 0.0187199)
(-0.011436 0.0477732 0.020331)
(-0.0127335 0.0401239 0.0204759)
(-0.0137631 0.0327841 0.0179125)
(-0.0144683 0.0262611 0.0136316)
(-0.0133361 0.0218808 0.0083081)
(-0.0109555 0.0197733 0.00345796)
(-0.0086561 0.0192805 0.00115148)
(-0.00830529 0.0193108 -7.61368e-05)
(-0.00664012 0.0191659 0.00329346)
(-0.00758294 0.017364 0.00738042)
(-0.0079575 0.0140068 0.00959277)
(-0.00852855 0.0107298 0.012931)
(-0.0118595 0.00344431 0.0153936)
(-0.0189394 0.0030421 0.0162893)
(-0.0264868 -0.00303101 0.0185907)
(0.0221131 0.0210325 0.00522554)
(0.0300894 0.0211912 0.0065059)
(0.0180918 0.0108741 0.00169667)
(0.0210608 0.0139007 0.00235517)
(0.0129347 0.0041123 0.000224224)
(0.0120542 0.0068295 0.000305867)
(0.00567926 0.000992608 0.000753274)
(0.00341344 0.00300221 0.00143736)
(0.000119497 -0.000269316 0.00208699)
(-0.00076664 0.00076645 0.00269088)
(-0.00140912 -0.000278458 0.00297376)
(-0.00122054 0.000881951 0.0037288)
(-0.000965644 0.00129785 0.00405345)
(-0.000229327 0.00210895 0.00444397)
(0.00020021 0.00196442 0.00453226)
(0.000459025 0.00187455 0.00466965)
(0.000346087 0.00145091 0.0046768)
(0.0002 0.00124395 0.00470489)
(-5.74536e-06 0.000984462 0.0046718)
(-0.00015708 0.000838012 0.00463532)
(-0.000318026 0.000661509 0.00457127)
(-0.000457148 0.000525443 0.0045085)
(-0.000595823 0.000390044 0.00444613)
(-0.000718419 0.000284697 0.00439394)
(-0.000822809 0.000201074 0.00434985)
(-0.00090619 0.000144313 0.00431434)
(-0.000970136 0.000105017 0.0042872)
(-0.00101877 7.76035e-05 0.00426727)
(-0.00105862 5.61942e-05 0.00425304)
(-0.00109153 3.40875e-05 0.00424566)
(-0.00111851 2.58183e-05 0.00424504)
(-0.00114622 2.80974e-06 0.00424739)
(-0.00115937 4.07032e-05 0.00425017)
(-0.00118045 2.27835e-05 0.00424088)
(-0.00115802 0.000176899 0.00421348)
(-0.00117078 0.000175033 0.00415261)
(-0.00113585 0.000536709 0.00405388)
(-0.0012234 0.000562943 0.00389748)
(-0.00124286 0.0012322 0.00370155)
(-0.0013355 0.00121963 0.00350194)
(-0.00109876 0.00210302 0.00336831)
(-0.000651746 0.00166225 0.0033224)
(0.000351444 0.00231017 0.00337334)
(0.00119734 0.000758177 0.00355)
(0.0019174 0.00118051 0.00391929)
(0.00218589 -0.000720303 0.0042011)
(0.00350142 -0.000433682 0.00426768)
(0.00815261 -0.00477961 0.00416863)
(0.0149258 -0.00534883 0.00581821)
(0.0246151 -0.00902904 0.00988076)
(0.037165 0.00580246 0.0144293)
(0.0443057 0.023602 0.0228728)
(0.0521955 0.0546044 0.0295252)
(0.053687 0.065931 0.0361275)
(0.0480245 0.097966 0.0522985)
(0.0398559 0.0592143 0.0606229)
(0.030831 0.140706 0.0806064)
(0.0396458 -0.089493 0.0805478)
(-0.0408751 0.354752 0.0284737)
(0.0179966 -0.307014 0.0252782)
(0.0955229 -0.128324 0.116178)
(0.0242987 0.109384 0.0145692)
(0.0201966 0.0447636 0.0156195)
(-0.00219328 0.112611 0.000683141)
(-0.000780923 0.111961 0.0094514)
(-0.00475328 0.127359 0.0113714)
(-0.0020835 0.127328 0.0133029)
(-0.00116712 0.133876 0.0133928)
(0.00189368 0.132969 0.0138027)
(0.0051386 0.135855 0.0147388)
(0.00942282 0.13361 0.0149711)
(0.011522 0.134224 0.0148085)
(0.0132457 0.132037 0.0152157)
(0.0128948 0.130713 0.0160105)
(0.011436 0.126219 0.0168116)
(0.00882104 0.12094 0.0170019)
(0.00585924 0.114639 0.0172457)
(0.00268646 0.108141 0.017697)
(-0.00102982 0.100944 0.018435)
(-0.00486914 0.0918161 0.0193465)
(-0.00861933 0.0824019 0.0194703)
(-0.0116403 0.0722507 0.0186303)
(-0.0126027 0.0627246 0.0156191)
(-0.0125194 0.0543979 0.0104544)
(-0.0121721 0.0492733 0.00482793)
(-0.0108781 0.0470182 0.000169746)
(-0.00879224 0.0466915 -0.00323351)
(-0.0076065 0.0472333 -0.0035749)
(-0.00728468 0.0459016 0.000506826)
(-0.00808878 0.0415404 0.00703241)
(-0.0102856 0.0350102 0.00934783)
(-0.0118174 0.0287577 0.0117354)
(-0.013147 0.0223651 0.0155186)
(-0.0172495 0.0129193 0.0179707)
(-0.0255281 0.00908824 0.0179037)
(-0.0327222 -0.00119721 0.0162826)
(0.0184502 0.0195502 0.00541605)
(0.0300385 0.024852 0.00853512)
(0.0167651 0.0109876 0.00351695)
(0.0210063 0.0159949 0.0050412)
(0.0131051 0.0028295 0.00182845)
(0.0121747 0.00635837 0.00133128)
(0.00557691 -0.000471672 0.00116122)
(0.00350864 0.00291094 0.001253)
(-0.000158106 -0.000600259 0.00166398)
(-0.00164668 0.000702235 0.00240907)
(-0.00308453 -0.00099638 0.00259511)
(-0.00377919 0.000194492 0.0033771)
(-0.0039365 0.000528935 0.00380583)
(-0.00298147 0.00147955 0.00456414)
(-0.0024253 0.00134195 0.00494519)
(-0.00217097 0.00140868 0.00525522)
(-0.00242158 0.00108088 0.0052909)
(-0.00275688 0.0010118 0.00527849)
(-0.00310896 0.000867836 0.00517393)
(-0.00333744 0.000851283 0.00506719)
(-0.00352391 0.00079291 0.00493268)
(-0.00365247 0.000769756 0.00480818)
(-0.00375763 0.000723493 0.00468955)
(-0.00384306 0.000685829 0.00459265)
(-0.00392002 0.000651101 0.00451759)
(-0.00396899 0.000628526 0.00445757)
(-0.00399587 0.00060917 0.00441038)
(-0.00399888 0.000594062 0.00438097)
(-0.00398655 0.000580701 0.004368)
(-0.00396992 0.000567857 0.00436917)
(-0.00395763 0.000573797 0.0043824)
(-0.00395335 0.000582445 0.00440071)
(-0.00394998 0.000664947 0.00441747)
(-0.00396171 0.000721441 0.00441615)
(-0.0039348 0.000944325 0.00439404)
(-0.00393295 0.00102427 0.00433816)
(-0.00386484 0.00141372 0.00425749)
(-0.00388097 0.0014263 0.0041289)
(-0.00380254 0.00193059 0.0039523)
(-0.00378461 0.00165808 0.00372772)
(-0.00344264 0.00215839 0.00353827)
(-0.00291575 0.00139606 0.00342217)
(-0.00181561 0.00186957 0.00350256)
(-0.000964802 0.000476998 0.0037931)
(-0.000374254 0.001081 0.00419429)
(0.000125277 -0.000570246 0.00436477)
(0.00272836 -0.0006558 0.00442149)
(0.0074749 -0.00414514 0.00465153)
(0.0132177 -0.0042545 0.00654192)
(0.0170125 -0.00447428 0.0112534)
(0.0162963 0.0155518 0.0173077)
(0.0203001 0.0377502 0.0264369)
(0.0254631 0.0723913 0.0347853)
(0.0290636 0.0912962 0.0437824)
(0.0337423 0.119932 0.0562899)
(0.0365164 0.0822295 0.0606121)
(0.0450372 0.15533 0.0702768)
(0.0387976 -0.0711756 0.0587138)
(0.000837382 0.346098 0.0587314)
(0.00989308 -0.321628 0.0317233)
(0.0351331 -0.0898137 0.102431)
(-0.00238966 0.124521 0.0165037)
(-0.00311025 0.0872767 0.0126402)
(-0.0129376 0.148916 0.00200739)
(-0.00870223 0.148001 0.0124809)
(-0.00770076 0.159299 0.0138794)
(-0.00414788 0.15623 0.0151014)
(-0.00180663 0.160758 0.0152524)
(0.00159149 0.159041 0.016398)
(0.00512699 0.161031 0.0173363)
(0.00959206 0.158218 0.0176088)
(0.0118844 0.159803 0.0172035)
(0.014173 0.158577 0.0179667)
(0.0140455 0.157341 0.0184529)
(0.0133252 0.153112 0.0191291)
(0.0110359 0.147888 0.0187632)
(0.00848371 0.141079 0.018288)
(0.0051514 0.133009 0.0179057)
(0.00196307 0.124525 0.017501)
(-0.00138907 0.114923 0.0177454)
(-0.00391983 0.104427 0.0172117)
(-0.00549536 0.0941038 0.0147504)
(-0.00518458 0.0855494 0.0105946)
(-0.00464905 0.0796365 0.00542925)
(-0.00386034 0.0767175 0.000485088)
(-0.00314713 0.0743228 -0.00478524)
(-0.00323511 0.0737114 -0.00716215)
(-0.00314983 0.0722107 -0.00513863)
(-0.00249489 0.0676641 -0.00244894)
(-0.00281427 0.0614738 0.00119911)
(-0.00493192 0.0519258 0.00323775)
(-0.00822901 0.042991 0.00563235)
(-0.0118657 0.0331583 0.00902083)
(-0.0182207 0.0219935 0.0112174)
(-0.0271907 0.0145753 0.012912)
(-0.0392191 -0.000374 0.00986591)
(0.015086 0.0143113 0.004366)
(0.0288439 0.027971 0.00925952)
(0.0139151 0.0107002 0.00424673)
(0.0196466 0.0188415 0.00610946)
(0.0124485 0.00273718 0.00290566)
(0.0108763 0.00643929 0.00212625)
(0.00374181 -0.00172285 0.00216756)
(0.00197148 0.00270638 0.00174567)
(-0.000884796 -0.00110492 0.00222482)
(-0.00240454 0.0010062 0.00286188)
(-0.00384424 -0.00107576 0.00311326)
(-0.00470551 -6.62144e-05 0.00393641)
(-0.00472677 -0.000607319 0.00461422)
(-0.00362611 8.75985e-05 0.00561308)
(-0.00304712 -0.00012148 0.00631276)
(-0.00281515 0.000347183 0.00687712)
(-0.00303922 0.000403152 0.00711225)
(-0.00331146 0.00072499 0.00718606)
(-0.00360448 0.000825953 0.00710875)
(-0.00378292 0.00101557 0.00699251)
(-0.00393494 0.00109477 0.00683269)
(-0.00402856 0.00117364 0.00668143)
(-0.00409861 0.00119629 0.00654021)
(-0.00414299 0.00120831 0.00642357)
(-0.00417163 0.00119956 0.00632775)
(-0.00417449 0.00118649 0.00625478)
(-0.00415544 0.00117212 0.00620197)
(-0.00411593 0.00115844 0.00616806)
(-0.00406583 0.00114539 0.0061493)
(-0.00401572 0.00113882 0.00614451)
(-0.0039777 0.0011581 0.00614815)
(-0.00395735 0.00119572 0.00615051)
(-0.00394965 0.00131365 0.00614438)
(-0.0039528 0.00142044 0.00612088)
(-0.00391415 0.00167059 0.00607941)
(-0.0038972 0.00177318 0.00601029)
(-0.00380518 0.00211305 0.0059235)
(-0.0037763 0.00205176 0.00579546)
(-0.00359468 0.0023978 0.00564026)
(-0.00344367 0.0019621 0.00545166)
(-0.00298808 0.0022087 0.0052962)
(-0.00248186 0.0012195 0.00521316)
(-0.00157456 0.00149978 0.00534604)
(-0.000975375 0.00010032 0.00563585)
(-0.0007051 0.000932598 0.00591014)
(-0.000190512 -0.00063078 0.00569934)
(0.00229447 -0.000530824 0.00524674)
(0.00653472 -0.00210846 0.00498193)
(0.00917545 0.00205929 0.00699385)
(0.00289685 0.00911991 0.0150408)
(-0.00539737 0.0290802 0.0238818)
(-0.00829537 0.0511551 0.0309586)
(-0.00513183 0.0832927 0.0352315)
(0.00677759 0.106968 0.0397148)
(0.0228079 0.139106 0.0512153)
(0.0452147 0.124318 0.0578602)
(0.0692908 0.181187 0.0718299)
(0.0709727 -0.0110317 0.0646227)
(0.070681 0.378083 0.0387545)
(-0.0062319 -0.341372 0.0310968)
(-0.0464391 -0.0611587 0.0741081)
(-0.0375295 0.155565 -0.00691361)
(-0.036588 0.121011 0.00333194)
(-0.0274859 0.174188 -0.00184925)
(-0.0199835 0.16475 0.00982521)
(-0.0111536 0.169143 0.00990819)
(-0.00721872 0.163024 0.0104974)
(-0.00251674 0.164697 0.00994825)
(0.00150272 0.16326 0.0108058)
(0.00682514 0.163683 0.0118692)
(0.0102153 0.162881 0.0119401)
(0.0118951 0.165089 0.011867)
(0.0140078 0.166385 0.0127725)
(0.016173 0.168965 0.0142216)
(0.017581 0.1686 0.0157967)
(0.0176747 0.165797 0.0172828)
(0.0171252 0.160937 0.0183919)
(0.0158103 0.15424 0.0191049)
(0.0137814 0.146304 0.0193224)
(0.0116784 0.137576 0.0190413)
(0.00952636 0.129092 0.0181084)
(0.00822291 0.120193 0.0162262)
(0.00707435 0.113207 0.0129016)
(0.00595495 0.109061 0.00794669)
(0.00467023 0.107209 0.00394958)
(0.00270156 0.106648 0.00168468)
(0.00223699 0.105338 0.00130887)
(0.00290788 0.103229 0.00116148)
(0.00439137 0.100552 0.00173781)
(0.00502852 0.0968846 0.0040893)
(0.00344142 0.0894969 0.00686374)
(-0.000448377 0.0806106 0.00994043)
(-0.00442658 0.0686852 0.0125432)
(-0.0110898 0.0529858 0.0129121)
(-0.0209503 0.0339346 0.00773942)
(-0.03038 0.00736856 -0.0074068)
(0.00525666 0.00942402 -0.00295228)
(0.0263784 0.029821 0.00727532)
(0.00951399 0.0107978 0.0018796)
(0.0173329 0.0226024 0.00379787)
(0.0112496 0.00463103 0.00149692)
(0.00945114 0.00794567 0.000448126)
(0.00129072 -0.00189556 -0.000908801)
(3.59488e-05 0.00326165 -0.00134523)
(-0.00316239 -0.000856748 -0.000893261)
(-0.00451733 0.00158806 -0.000349059)
(-0.00605273 -0.000908159 -1.06332e-05)
(-0.00692357 -0.000145252 0.000765963)
(-0.0074647 -0.00143842 0.00145895)
(-0.00692617 -0.000839157 0.0023058)
(-0.00693738 -0.000966689 0.00302738)
(-0.00700374 -0.000209363 0.00361711)
(-0.00742737 4.57173e-05 0.00404661)
(-0.00775076 0.000572106 0.00430657)
(-0.00808569 0.00079395 0.00440256)
(-0.00825472 0.00108576 0.00441118)
(-0.00834307 0.00123318 0.00435217)
(-0.00835476 0.00136894 0.00428357)
(-0.00834327 0.00143587 0.00421572)
(-0.00831345 0.00147884 0.00416052)
(-0.00827227 0.0014922 0.00411486)
(-0.0082145 0.00149348 0.00408022)
(-0.00814246 0.00148958 0.00405504)
(-0.0080568 0.0014881 0.00403859)
(-0.00796647 0.00149257 0.0040283)
(-0.00789337 0.00150797 0.00402296)
(-0.00785038 0.00154685 0.00401964)
(-0.00783027 0.00160573 0.00401206)
(-0.00782693 0.00172974 0.00399519)
(-0.00782515 0.0018347 0.00396353)
(-0.00776434 0.00205701 0.00391436)
(-0.00768872 0.00214062 0.00385149)
(-0.00750583 0.00244817 0.00377458)
(-0.00736658 0.00239878 0.00367498)
(-0.00711889 0.00271394 0.00353545)
(-0.00691073 0.00225879 0.00336553)
(-0.00641846 0.00244262 0.00318745)
(-0.00592218 0.00141486 0.00304928)
(-0.00509497 0.0015593 0.00305888)
(-0.00470377 4.73424e-05 0.00330598)
(-0.00463344 0.000696614 0.00335916)
(-0.00389048 -0.00106303 0.00249426)
(-0.00144487 0.000577137 0.0021519)
(6.80737e-05 -0.000129795 0.00154621)
(-0.00192222 0.00858763 0.00433782)
(-0.0116754 0.0150756 0.0129308)
(-0.0278377 0.0280313 0.0231847)
(-0.0321719 0.039401 0.0296719)
(-0.0294226 0.0652048 0.030698)
(-0.0175899 0.0776287 0.0283317)
(-0.00143506 0.12128 0.0366996)
(0.0315658 0.0916793 0.0420569)
(0.0705065 0.182981 0.0616559)
(0.0944165 -0.0115572 0.069314)
(0.164375 0.412597 0.0321723)
(-0.00859527 -0.323989 0.0267956)
(-0.113495 -0.102541 0.0558248)
(-0.0604869 0.14615 -0.0109667)
(-0.0575203 0.0773079 0.00273921)
(-0.0295912 0.133327 0.00049074)
(-0.0239766 0.104194 0.01181)
(-0.0104291 0.107343 0.00950373)
(-0.0069614 0.0957342 0.00886539)
(-0.00243743 0.0945164 0.0074057)
(0.000270011 0.0902755 0.00658468)