/*--------------------------------*- C++ -*----------------------------------*\
| =========                 |                                                 |
| \\      /  F ield         | OpenFOAM: The Open Source CFD Toolbox           |
|  \\    /   O peration     | Version:  2.3.0                                 |
|   \\  /    A nd           | Web:      www.OpenFOAM.org                      |
|    \\/     M anipulation  |                                                 |
\*---------------------------------------------------------------------------*/
FoamFile
{
    version     2.0;
    format      ascii;
    class       volScalarField;
    location    "44";
    object      w1;
}
// * * * * * * * * * * * * * * * * * * * * * * * * * * * * * * * * * * * * * //

dimensions      [0 0 0 0 0 0 0];

internalField   nonuniform List<scalar> 
6144
(
0.518788
0.518788
0.518788
0.518788
0.518788
0.518788
0.518788
0.518788
0.518788
0.518788
0.518788
0.518788
0.518788
0.518788
0.518788
0.518788
0.518788
0.518788
0.518788
0.518788
0.518788
0.518788
0.518788
0.518788
0.518788
0.518788
0.518788
0.518788
0.518788
0.518788
0.518788
0.518788
0.518788
0.518788
0.518788
0.518788
0.518788
0.518788
0.518788
0.518788
0.518788
0.518788
0.518788
0.518788
0.518788
0.518788
0.518788
0.518788
0.518788
0.518788
0.518788
0.518788
0.518788
0.518788
0.518788
0.518788
0.518787
0.518745
0.484924
0.481436
0.865923
0.999505
0.999996
0.999263
0.999043
0.996144
0.995553
0.995235
0.99184
0.978654
0.978281
0.826513
0.979268
0.992827
0.990596
0.991743
0.996229
0.998551
0.997943
0.993803
0.996723
0.976275
0.989807
0.979031
0.996205
0.99822
0.997806
0.991277
0.996459
0.995618
0.992743
0.979439
0.985118
0.994877
0.999049
0.999877
0.518788
0.518788
0.518788
0.518788
0.518788
0.518788
0.518788
0.518788
0.518788
0.518788
0.518788
0.518788
0.518788
0.518788
0.518788
0.518788
0.518788
0.518788
0.518788
0.518788
0.518788
0.518788
0.518788
0.518788
0.518788
0.518788
0.518788
0.518788
0.518788
0.518788
0.518788
0.518788
0.518788
0.518788
0.518788
0.518788
0.518788
0.518788
0.518788
0.518788
0.518788
0.518788
0.518788
0.518788
0.518788
0.518788
0.518788
0.518788
0.518788
0.518788
0.518788
0.518788
0.518788
0.518788
0.518788
0.518788
0.518782
0.517778
0.465925
0.48292
0.826185
0.999479
0.999996
0.999371
0.999164
0.997866
0.326148
0.972885
0.991345
0.994558
0.989142
0.991622
0.993549
0.986887
0.993745
0.996954
0.996892
0.998797
0.995011
0.998279
0.998379
0.997162
0.994279
0.997854
0.99928
0.999277
0.998509
0.941725
0.998004
0.998486
0.997389
0.990088
0.962753
0.99787
0.999347
0.999882
0.518788
0.518788
0.518788
0.518788
0.518788
0.518788
0.518788
0.518788
0.518788
0.518788
0.518788
0.518788
0.518788
0.518788
0.518788
0.518788
0.518788
0.518788
0.518788
0.518788
0.518788
0.518788
0.518788
0.518788
0.518788
0.518788
0.518788
0.518788
0.518788
0.518788
0.518788
0.518788
0.518788
0.518788
0.518788
0.518788
0.518788
0.518788
0.518788
0.518788
0.518788
0.518788
0.518788
0.518788
0.518788
0.518788
0.518788
0.518788
0.518788
0.518788
0.518788
0.518788
0.518788
0.518788
0.518788
0.518788
0.518787
0.518837
0.499574
0.562055
0.154659
0.999713
0.999996
0.99934
0.998794
0.99911
0.998724
0.998214
0.997406
0.994798
0.992286
0.964454
0.994907
0.996556
0.992423
0.928205
0.874747
0.996474
0.975232
0.998249
0.998458
0.997585
0.997305
0.99901
0.999327
0.999121
0.997747
0.994964
0.998573
0.998351
0.992746
0.981509
0.997082
0.998465
0.999247
0.999881
0.518788
0.518788
0.518788
0.518788
0.518788
0.518788
0.518788
0.518788
0.518788
0.518788
0.518788
0.518788
0.518788
0.518788
0.518788
0.518788
0.518788
0.518788
0.518788
0.518788
0.518788
0.518788
0.518788
0.518788
0.518788
0.518788
0.518788
0.518788
0.518788
0.518788
0.518788
0.518788
0.518788
0.518788
0.518788
0.518788
0.518788
0.518788
0.518788
0.518788
0.518788
0.518788
0.518788
0.518788
0.518788
0.518788
0.518788
0.518788
0.518788
0.518788
0.518788
0.518788
0.518788
0.518788
0.518788
0.518788
0.518788
0.518794
0.518002
0.46148
0.0247303
0.999104
0.999934
0.99999
0.999846
0.999753
0.999354
0.996874
0.987926
0.998151
0.998092
0.994195
0.988495
0.997542
0.999037
0.999089
0.992249
0.988719
0.998225
0.998979
0.998615
0.972934
0.997854
0.999215
0.999335
0.998939
0.996955
0.996694
0.999008
0.999134
0.998432
0.98047
0.997673
0.999049
0.999052
0.999871
0.518788
0.518788
0.518788
0.518788
0.518788
0.518788
0.518788
0.518788
0.518788
0.518788
0.518788
0.518788
0.518788
0.518788
0.518788
0.518788
0.518788
0.518788
0.518788
0.518788
0.518788
0.518788
0.518788
0.518788
0.518788
0.518788
0.518788
0.518788
0.518788
0.518788
0.518788
0.518788
0.518788
0.518788
0.518788
0.518788
0.518788
0.518788
0.518788
0.518788
0.518788
0.518788
0.518788
0.518788
0.518788
0.518788
0.518788
0.518788
0.518788
0.518788
0.518788
0.518788
0.518788
0.518788
0.518788
0.518788
0.518787
0.518796
0.518801
0.457768
0.953896
0.956399
0.100557
0.979638
0.988803
0.999817
0.999984
0.999994
0.999887
0.999897
0.999916
0.999915
0.999875
0.999843
0.999808
0.998955
0.999875
0.999566
0.999871
0.99985
0.999852
0.998597
0.999179
0.997869
0.999313
0.999411
0.999662
0.999717
0.999733
0.999174
0.999795
0.999766
0.998094
0.998155
0.883657
0.999858
0.518788
0.518788
0.518788
0.518788
0.518788
0.518788
0.518788
0.518788
0.518788
0.518788
0.518788
0.518788
0.518788
0.518788
0.518788
0.518788
0.518788
0.518788
0.518788
0.518788
0.518788
0.518788
0.518788
0.518788
0.518788
0.518788
0.518788
0.518788
0.518788
0.518788
0.518788
0.518788
0.518788
0.518788
0.518788
0.518788
0.518788
0.518788
0.518788
0.518788
0.518788
0.518788
0.518788
0.518788
0.518788
0.518788
0.518788
0.518788
0.518788
0.518788
0.518788
0.518788
0.518788
0.518788
0.518788
0.518788
0.518788
0.518788
0.518775
0.459704
0.794242
0.00017453
0.0367179
0.0300694
0.283428
0.94957
0.681251
0.987284
0.990109
0.986951
0.996894
0.999737
0.999804
0.999706
0.00124709
2.69154e-06
0.958543
0.992889
0.989508
0.879282
0.986417
0.989193
0.994806
0.997207
0.99681
0.997383
0.996303
0.998146
0.996216
0.999362
0.999882
0.999975
0.999991
0.999805
0.99986
0.9999
0.518788
0.518788
0.518788
0.518788
0.518788
0.518788
0.518788
0.518788
0.518788
0.518788
0.518788
0.518788
0.518788
0.518788
0.518788
0.518788
0.518788
0.518788
0.518788
0.518788
0.518788
0.518788
0.518788
0.518788
0.518788
0.518788
0.518788
0.518788
0.518788
0.518788
0.518788
0.518788
0.518788
0.518788
0.518788
0.518788
0.518788
0.518788
0.518788
0.518788
0.518788
0.518788
0.518788
0.518788
0.518788
0.518788
0.518788
0.518788
0.518788
0.518788
0.518788
0.518788
0.518788
0.518788
0.518788
0.518788
0.518786
0.518826
0.519563
0.438584
0.820765
0.143766
9.76751e-05
3.26609e-05
0.547027
0.824593
0.0191631
0.000436815
0.374905
0.915752
0.883968
0.844221
0.693703
0.899064
0.125596
4.46329e-05
0.0167602
0.0421884
0.881612
0.68396
3.32541e-05
0.00775081
0.987055
0.999652
0.982759
0.987028
0.991476
0.00854343
0.983929
0.934616
0.85647
0.914495
0.994276
0.0303093
0.996525
0.999956
0.518788
0.518788
0.518788
0.518788
0.518788
0.518788
0.518788
0.518788
0.518788
0.518788
0.518788
0.518788
0.518788
0.518788
0.518788
0.518788
0.518788
0.518788
0.518788
0.518788
0.518788
0.518788
0.518788
0.518788
0.518788
0.518788
0.518788
0.518788
0.518788
0.518788
0.518788
0.518788
0.518788
0.518788
0.518788
0.518788
0.518788
0.518788
0.518788
0.518788
0.518788
0.518788
0.518788
0.518788
0.518788
0.518788
0.518788
0.518788
0.518788
0.518788
0.518788
0.518788
0.518788
0.518788
0.518788
0.518788
0.518787
0.518598
0.521964
0.442992
0.884956
0.146022
0.142495
0.0145785
0.0613262
0.160029
0.00264968
0.000399317
0.180439
0.0156762
0.00109546
0.900666
0.000586046
0.138739
0.0250673
0.000449887
0.706646
0.175935
1.03305e-06
0.980941
0.00058916
0.999378
1.08974e-20
0.955608
0.0349701
0.0384193
0.68929
0.0726299
4.53492e-05
0.134686
0.999861
0.135932
0.941541
5.81081e-21
0.435156
4.34259e-07
0.518788
0.518788
0.518788
0.518788
0.518788
0.518788
0.518788
0.518788
0.518788
0.518788
0.518788
0.518788
0.518788
0.518788
0.518788
0.518788
0.518788
0.518788
0.518788
0.518788
0.518788
0.518788
0.518788
0.518788
0.518788
0.518788
0.518788
0.518788
0.518788
0.518788
0.518788
0.518788
0.518788
0.518788
0.518788
0.518788
0.518788
0.518788
0.518788
0.518788
0.518788
0.518788
0.518788
0.518788
0.518788
0.518788
0.518788
0.518788
0.518788
0.518788
0.518788
0.518788
0.518788
0.518788
0.518788
0.518788
0.518807
0.519151
0.517919
0.437053
0.000255103
0.12201
0.4537
0.00727461
0.0136873
0.000692825
0.000147642
1.00219e-05
0.103279
1.34303e-06
8.22981e-05
0.000699754
0.0284055
0.000804832
0.0249392
0.000657665
0.645394
0.731329
5.90519e-05
0.104182
0.624176
0.816413
0.916153
0.93113
0.90791
0.98023
0.981298
0.992541
0.997257
0.99869
0.99759
0.999704
0.9999
0.999974
0.999996
0.999883
0.518788
0.518788
0.518788
0.518788
0.518788
0.518788
0.518788
0.518788
0.518788
0.518788
0.518788
0.518788
0.518788
0.518788
0.518788
0.518788
0.518788
0.518788
0.518788
0.518788
0.518788
0.518788
0.518788
0.518788
0.518788
0.518788
0.518788
0.518788
0.518788
0.518788
0.518788
0.518788
0.518788
0.518788
0.518788
0.518788
0.518788
0.518788
0.518788
0.518788
0.518788
0.518788
0.518788
0.518788
0.518788
0.518788
0.518788
0.518788
0.518788
0.518788
0.518788
0.518788
0.518788
0.518788
0.518788
0.518788
0.518788
0.518794
0.518715
0.43555
0.972265
0.816719
2.29193e-06
0.7976
0.635173
4.15093e-06
0.869395
6.30194e-06
0.000214812
6.38007e-05
0.107985
0.00058096
0.249122
0.838616
0.795259
0.960214
0.474387
0.956343
0.956333
0.800789
0.995809
0.995569
0.999187
0.999952
0.999844
0.999984
0.999983
0.999991
0.999735
0.999608
0.999499
0.997976
0.99929
0.999734
0.999124
0.999876
0.518788
0.518788
0.518788
0.518788
0.518788
0.518788
0.518788
0.518788
0.518788
0.518788
0.518788
0.518788
0.518788
0.518788
0.518788
0.518788
0.518788
0.518788
0.518788
0.518788
0.518788
0.518788
0.518788
0.518788
0.518788
0.518788
0.518788
0.518788
0.518788
0.518788
0.518788
0.518788
0.518788
0.518788
0.518788
0.518788
0.518788
0.518788
0.518788
0.518788
0.518788
0.518788
0.518788
0.518788
0.518788
0.518788
0.518788
0.518788
0.518788
0.518788
0.518788
0.518788
0.518788
0.518788
0.518788
0.518788
0.518788
0.521499
0.441179
0.464912
0.971786
0.995189
0.93126
0.97169
0.951327
0.965505
0.951124
0.855757
0.921839
0.919299
0.854792
0.966959
0.960904
0.974724
0.980688
0.810371
0.916566
0.996498
0.999248
0.999891
0.999986
0.999991
0.999346
0.999235
0.993163
0.995701
0.998997
0.992405
0.99276
0.994897
0.994708
0.993268
0.970081
0.997425
0.999214
0.999877
0.518788
0.518788
0.518788
0.518788
0.518788
0.518788
0.518788
0.518788
0.518788
0.518788
0.518788
0.518788
0.518788
0.518788
0.518788
0.518788
0.518788
0.518788
0.518788
0.518788
0.518788
0.518788
0.518788
0.518788
0.518788
0.518788
0.518788
0.518788
0.518788
0.518788
0.518788
0.518788
0.518788
0.518788
0.518788
0.518788
0.518788
0.518788
0.518788
0.518788
0.518788
0.518788
0.518788
0.518788
0.518788
0.518788
0.518788
0.518788
0.518788
0.518788
0.518788
0.518788
0.518788
0.518788
0.518788
0.518788
0.518788
0.518797
0.518046
0.476903
0.924925
0.999914
0.999032
0.991217
0.997534
0.999385
0.998537
0.980721
0.997648
0.997397
0.992772
0.998566
0.999315
0.998444
0.999398
0.999922
0.999989
0.999992
0.999811
0.99977
0.999411
0.96131
0.9947
0.972114
0.993276
0.996278
0.993895
0.973912
0.989946
0.991146
0.997102
0.924286
0.992702
0.997689
0.999197
0.999875
0.518788
0.518788
0.518788
0.518788
0.518788
0.518788
0.518788
0.518788
0.518788
0.518788
0.518788
0.518788
0.518788
0.518788
0.518788
0.518788
0.518788
0.518788
0.518788
0.518788
0.518788
0.518788
0.518788
0.518788
0.518788
0.518788
0.518788
0.518788
0.518788
0.518788
0.518788
0.518788
0.518788
0.518788
0.518788
0.518788
0.518788
0.518788
0.518788
0.518788
0.518788
0.518788
0.518788
0.518788
0.518788
0.518788
0.518788
0.518788
0.518788
0.518788
0.518788
0.518788
0.518788
0.518788
0.518788
0.518788
0.518787
0.518788
0.518779
0.395377
0.911333
0.999922
0.999997
0.998612
0.997977
0.999994
0.999986
0.999987
0.999992
0.999369
0.999393
0.99944
0.999618
0.999666
0.999614
0.999132
0.991976
0.998983
0.997274
0.935913
0.997482
0.997254
0.996971
0.990939
0.990873
0.996544
0.996617
0.989032
0.984976
0.976892
0.997021
0.989858
0.992161
0.994989
0.999127
0.999874
0.518788
0.518788
0.518788
0.518788
0.518788
0.518788
0.518788
0.518788
0.518788
0.518788
0.518788
0.518788
0.518788
0.518788
0.518788
0.518788
0.518788
0.518788
0.518788
0.518788
0.518788
0.518788
0.518788
0.518788
0.518788
0.518788
0.518788
0.518788
0.518788
0.518788
0.518788
0.518788
0.518788
0.518788
0.518788
0.518788
0.518788
0.518788
0.518788
0.518788
0.518788
0.518788
0.518788
0.518788
0.518788
0.518788
0.518788
0.518788
0.518788
0.518788
0.518788
0.518788
0.518788
0.518788
0.518788
0.518788
0.518787
0.518787
0.518727
0.448102
0.846148
0.999633
0.999997
0.999392
0.99946
0.999308
0.998119
0.999647
0.996795
0.960185
0.985971
0.994742
0.994155
0.994507
0.997788
0.998574
0.998035
0.980734
0.985092
0.963861
0.997232
0.998467
0.998763
0.998115
0.992294
0.993749
0.997373
0.976785
0.988628
0.977416
0.996918
0.995997
0.961727
0.907762
0.999015
0.99987
0.518788
0.518788
0.518788
0.518788
0.518788
0.518788
0.518788
0.518788
0.518788
0.518788
0.518788
0.518788
0.518788
0.518788
0.518788
0.518788
0.518788
0.518788
0.518788
0.518788
0.518788
0.518788
0.518788
0.518788
0.518788
0.518788
0.518788
0.518788
0.518788
0.518788
0.518788
0.518788
0.518788
0.518788
0.518788
0.518788
0.518788
0.518788
0.518788
0.518788
0.518788
0.518788
0.518788
0.518788
0.518788
0.518788
0.518788
0.518788
0.518788
0.518788
0.518788
0.518788
0.518788
0.518788
0.518788
0.518788
0.518785
0.518788
0.51491
0.400679
0.882313
0.998501
0.999997
0.999554
0.999633
0.998802
0.996409
0.999508
0.999566
0.998901
0.989927
0.942665
0.990013
0.996772
0.998425
0.998883
0.998953
0.99863
0.996797
0.994368
0.982682
0.997634
0.99825
0.996548
0.970104
0.997318
0.9979
0.981778
0.994503
0.985188
0.994725
0.996734
0.992627
0.983796
0.999379
0.999875
0.518788
0.518788
0.518788
0.518788
0.518788
0.518788
0.518788
0.518788
0.518788
0.518788
0.518788
0.518788
0.518788
0.518788
0.518788
0.518788
0.518788
0.518788
0.518788
0.518788
0.518788
0.518788
0.518788
0.518788
0.518788
0.518788
0.518788
0.518788
0.518788
0.518788
0.518788
0.518788
0.518788
0.518788
0.518788
0.518788
0.518788
0.518788
0.518788
0.518788
0.518788
0.518788
0.518788
0.518788
0.518788
0.518788
0.518788
0.518788
0.518788
0.518788
0.518788
0.518788
0.518788
0.518788
0.518788
0.518788
0.518786
0.518792
0.52395
0.445869
0.806196
0.00666144
0.999998
0.999707
0.999487
0.991544
0.99699
0.997957
0.998928
0.999289
0.999387
0.999106
0.998393
0.99675
0.995155
0.99573
0.994312
0.993322
0.994684
0.990771
0.984175
0.993844
0.994442
0.989977
0.645867
0.996636
0.998107
0.995124
0.962076
0.986222
0.997295
0.997822
0.986977
0.996268
0.999351
0.999881
0.518788
0.518788
0.518788
0.518788
0.518788
0.518788
0.518788
0.518788
0.518788
0.518788
0.518788
0.518788
0.518788
0.518788
0.518788
0.518788
0.518788
0.518788
0.518788
0.518788
0.518788
0.518788
0.518788
0.518788
0.518788
0.518788
0.518788
0.518788
0.518788
0.518788
0.518788
0.518788
0.518788
0.518788
0.518788
0.518788
0.518788
0.518788
0.518788
0.518788
0.518788
0.518788
0.518788
0.518788
0.518788
0.518788
0.518788
0.518788
0.518788
0.518788
0.518788
0.518788
0.518788
0.518788
0.518788
0.518788
0.518788
0.51741
0.475437
0.471258
0.855814
0.999204
0.999996
0.999405
0.998272
0.977614
0.897743
0.948461
0.992463
0.993674
0.991143
0.980106
0.964422
0.846993
0.950029
0.989293
0.932418
0.956836
0.997436
0.99805
0.994299
0.996614
0.997503
0.99864
0.997373
0.999132
0.999058
0.996881
0.996417
0.992544
0.964504
0.981858
0.973466
0.984246
0.9988
0.999873
0.518788
0.518788
0.518788
0.518788
0.518788
0.518788
0.518788
0.518788
0.518788
0.518788
0.518788
0.518788
0.518788
0.518788
0.518788
0.518788
0.518788
0.518788
0.518788
0.518788
0.518788
0.518788
0.518788
0.518788
0.518788
0.518788
0.518788
0.518788
0.518788
0.518788
0.518788
0.518788
0.518788
0.518788
0.518788
0.518788
0.518788
0.518788
0.518788
0.518788
0.518788
0.518788
0.518788
0.518788
0.518788
0.518788
0.518788
0.518788
0.518788
0.518788
0.518788
0.518788
0.518788
0.518788
0.518788
0.518788
0.518786
0.518747
0.518452
0.455019
0.900892
0.999976
0.999996
0.999664
0.999357
0.998371
0.98546
0.996146
0.997492
0.996802
0.995577
0.994409
0.994106
0.985154
0.85072
0.991614
0.996272
0.996095
0.99709
0.993593
0.997667
0.998652
0.999314
0.999215
0.998852
0.999488
0.998983
0.976066
0.998192
0.998255
0.99682
0.985152
0.977164
0.990823
0.999097
0.999875
0.518788
0.518788
0.518788
0.518788
0.518788
0.518788
0.518788
0.518788
0.518788
0.518788
0.518788
0.518788
0.518788
0.518788
0.518788
0.518788
0.518788
0.518788
0.518788
0.518788
0.518788
0.518788
0.518788
0.518788
0.518788
0.518788
0.518788
0.518788
0.518788
0.518788
0.518788
0.518788
0.518788
0.518788
0.518788
0.518788
0.518788
0.518788
0.518788
0.518788
0.518788
0.518788
0.518788
0.518788
0.518788
0.518788
0.518788
0.518788
0.518788
0.518788
0.518788
0.518788
0.518788
0.518788
0.518788
0.518788
0.518787
0.518783
0.527619
0.4395
0.790106
0.999992
0.99977
0.99981
0.999225
0.998162
0.996498
0.989929
0.995445
0.992647
0.994216
0.994723
0.996208
0.996875
0.995857
0.991974
0.993636
0.996305
0.976708
0.996245
0.998574
0.999339
0.999375
0.998369
0.999392
0.998976
0.994336
0.996685
0.998408
0.997362
0.992115
0.995858
0.994592
0.975764
0.999101
0.999885
0.518788
0.518788
0.518788
0.518788
0.518788
0.518788
0.518788
0.518788
0.518788
0.518788
0.518788
0.518788
0.518788
0.518788
0.518788
0.518788
0.518788
0.518788
0.518788
0.518788
0.518788
0.518788
0.518788
0.518788
0.518788
0.518788
0.518788
0.518788
0.518788
0.518788
0.518788
0.518788
0.518788
0.518788
0.518788
0.518788
0.518788
0.518788
0.518788
0.518788
0.518788
0.518788
0.518788
0.518788
0.518788
0.518788
0.518788
0.518788
0.518788
0.518788
0.518788
0.518788
0.518788
0.518788
0.518788
0.518788
0.518787
0.518787
0.517303
0.463038
0.275047
0.037188
0.999347
0.999985
0.999991
0.999848
0.999794
0.999802
0.997725
0.409905
0.999355
0.999525
0.99644
0.997462
0.99975
0.999817
0.986078
0.994247
0.98622
0.999634
0.999497
0.999207
0.998507
0.999338
0.999313
0.999133
0.99367
0.99843
0.998889
0.998476
0.996025
0.996748
0.996385
0.997097
0.999394
0.999887
0.518788
0.518788
0.518788
0.518788
0.518788
0.518788
0.518788
0.518788
0.518788
0.518788
0.518788
0.518788
0.518788
0.518788
0.518788
0.518788
0.518788
0.518788
0.518788
0.518788
0.518788
0.518788
0.518788
0.518788
0.518788
0.518788
0.518788
0.518788
0.518788
0.518788
0.518788
0.518788
0.518788
0.518788
0.518788
0.518788
0.518788
0.518788
0.518788
0.518788
0.518788
0.518788
0.518788
0.518788
0.518788
0.518788
0.518788
0.518788
0.518788
0.518788
0.518788
0.518788
0.518788
0.518788
0.518788
0.518788
0.518788
0.518776
0.518667
0.441002
0.905902
0.0226181
2.78574e-05
0.990974
0.987567
0.931676
0.999468
0.999983
0.999992
0.999991
0.999986
0.999984
0.999994
0.999993
0.999986
0.999979
0.999992
0.999984
0.99999
0.999968
0.999988
0.999995
0.999993
0.999989
0.999936
0.999991
0.999992
0.999511
0.999979
0.999382
0.999983
0.999829
0.993596
0.99835
0.999476
0.999887
0.518788
0.518788
0.518788
0.518788
0.518788
0.518788
0.518788
0.518788
0.518788
0.518788
0.518788
0.518788
0.518788
0.518788
0.518788
0.518788
0.518788
0.518788
0.518788
0.518788
0.518788
0.518788
0.518788
0.518788
0.518788
0.518788
0.518788
0.518788
0.518788
0.518788
0.518788
0.518788
0.518788
0.518788
0.518788
0.518788
0.518788
0.518788
0.518788
0.518788
0.518788
0.518788
0.518788
0.518788
0.518788
0.518788
0.518788
0.518788
0.518788
0.518788
0.518788
0.518788
0.518788
0.518788
0.518788
0.518788
0.51879
0.518791
0.518781
0.385365
2.52997e-06
0.0719617
0.000492606
0.00804922
0.315686
0.872007
0.57355
0.00233369
0.984453
0.904451
0.934011
0.866912
0.95733
0.905712
0.959091
0.966193
0.960025
0.910614
0.966228
0.907892
0.932476
0.901797
0.924353
0.970409
0.599897
0.98383
0.968774
0.986434
0.826909
0.967297
0.998366
0.999923
0.999995
0.999765
0.999824
0.999908
0.518788
0.518788
0.518788
0.518788
0.518788
0.518788
0.518788
0.518788
0.518788
0.518788
0.518788
0.518788
0.518788
0.518788
0.518788
0.518788
0.518788
0.518788
0.518788
0.518788
0.518788
0.518788
0.518788
0.518788
0.518788
0.518788
0.518788
0.518788
0.518788
0.518788
0.518788
0.518788
0.518788
0.518788
0.518788
0.518788
0.518788
0.518788
0.518788
0.518788
0.518788
0.518788
0.518788
0.518788
0.518788
0.518788
0.518788
0.518788
0.518788
0.518788
0.518788
0.518788
0.518788
0.518788
0.518787
0.518788
0.518787
0.518736
0.516283
0.356801
0.897124
0.437599
0.0119661
0.410717
0.0564151
0.633336
0.564457
0.000323279
0.627695
0.000403252
0.559816
0.806446
1.02754e-07
0.092736
0.000872622
0.364184
0.151358
0.0652665
0.0334342
0.00997507
0.078308
0.450625
0.111915
0.391514
0.000231136
0.000610726
0.130791
0.140425
0.00824808
0.00116496
0.528425
0.000803548
0.0624874
0.0101038
0.0224724
0.995542
0.518788
0.518788
0.518788
0.518788
0.518788
0.518788
0.518788
0.518788
0.518788
0.518788
0.518788
0.518788
0.518788
0.518788
0.518788
0.518788
0.518788
0.518788
0.518788
0.518788
0.518788
0.518788
0.518788
0.518788
0.518788
0.518788
0.518788
0.518788
0.518788
0.518788
0.518788
0.518788
0.518788
0.518788
0.518788
0.518788
0.518788
0.518788
0.518788
0.518788
0.518788
0.518788
0.518788
0.518788
0.518788
0.518788
0.518788
0.518788
0.518788
0.518788
0.518788
0.518788
0.518788
0.518788
0.518788
0.518788
0.518785
0.518786
0.518538
0.329539
0.801897
3.97875e-05
0.591925
0.746209
0.139438
0.661428
0.59258
0.0396353
2.71813e-06
0.202242
0.762146
0.252919
0.700452
0.83282
0.67002
0.222987
0.653993
0.583595
0.647267
0.238064
0.586071
0.0270897
0.140258
0.000406017
0.247085
0.826489
0.191329
0.520856
0.000630884
0.267848
0.722642
0.481416
0.692742
0.000788651
0.812302
3.95534e-05
0.518788
0.518788
0.518788
0.518788
0.518788
0.518788
0.518788
0.518788
0.518788
0.518788
0.518788
0.518788
0.518788
0.518788
0.518788
0.518788
0.518788
0.518788
0.518788
0.518788
0.518788
0.518788
0.518788
0.518788
0.518788
0.518788
0.518788
0.518788
0.518788
0.518788
0.518788
0.518788
0.518788
0.518788
0.518788
0.518788
0.518788
0.518788
0.518788
0.518788
0.518788
0.518788
0.518788
0.518788
0.518788
0.518788
0.518788
0.518788
0.518788
0.518788
0.518788
0.518788
0.518788
0.518788
0.518788
0.518788
0.518788
0.518683
0.517063
0.440608
0.711846
0.00892605
0.0148737
2.92962e-07
0.000425297
0.633936
0.710657
0.0146139
0.818804
3.90804e-07
0.367132
0.534548
0.219562
0.345287
0.478026
0.416504
0.719912
0.312397
0.00109146
1.59639e-11
0.132074
0.144616
5.3927e-05
0.599938
0.000649257
0.0799736
0.000170087
0.437819
0.572484
0.903716
0.943263
0.0689389
0.849486
0.495971
3.03155e-11
0.00199261
0.518788
0.518788
0.518788
0.518788
0.518788
0.518788
0.518788
0.518788
0.518788
0.518788
0.518788
0.518788
0.518788
0.518788
0.518788
0.518788
0.518788
0.518788
0.518788
0.518788
0.518788
0.518788
0.518788
0.518788
0.518788
0.518788
0.518788
0.518788
0.518788
0.518788
0.518788
0.518788
0.518788
0.518788
0.518788
0.518788
0.518788
0.518788
0.518788
0.518788
0.518788
0.518788
0.518788
0.518788
0.518788
0.518788
0.518788
0.518788
0.518788
0.518788
0.518788
0.518788
0.518788
0.518788
0.518788
0.518788
0.518788
0.518813
0.519154
0.441028
0.945131
0.00665645
0.145983
0.0819783
0.0664648
0.138957
0.126042
0.145648
0.147257
0.111334
0.145839
0.00157339
0.850414
0.625768
0.000368875
0.0361204
0.00019428
0.121124
0.00058176
0.00132348
0.000501683
0.950721
0.99861
0.998855
0.997742
0.58185
0.997225
0.971128
0.999878
0.999988
0.999994
0.999538
0.999877
0.999931
0.999936
0.999961
0.518788
0.518788
0.518788
0.518788
0.518788
0.518788
0.518788
0.518788
0.518788
0.518788
0.518788
0.518788
0.518788
0.518788
0.518788
0.518788
0.518788
0.518788
0.518788
0.518788
0.518788
0.518788
0.518788
0.518788
0.518788
0.518788
0.518788
0.518788
0.518788
0.518788
0.518788
0.518788
0.518788
0.518788
0.518788
0.518788
0.518788
0.518788
0.518788
0.518788
0.518788
0.518788
0.518788
0.518788
0.518788
0.518788
0.518788
0.518788
0.518788
0.518788
0.518788
0.518788
0.518788
0.518788
0.518788
0.518788
0.518788
0.518741
0.540458
0.427978
2.87938e-11
0.993658
0.980802
0.117868
0.983427
0.968463
0.0903711
0.0410401
0.906709
0.231478
0.405614
0.0225923
9.21924e-05
0.485963
0.841383
0.00178276
0.998833
0.999932
0.999993
0.999992
0.99976
0.99983
0.999702
0.999668
0.999411
0.997148
0.999377
0.999776
0.999834
0.999789
0.991501
0.994506
0.952218
0.997113
0.999153
0.999879
0.518788
0.518788
0.518788
0.518788
0.518788
0.518788
0.518788
0.518788
0.518788
0.518788
0.518788
0.518788
0.518788
0.518788
0.518788
0.518788
0.518788
0.518788
0.518788
0.518788
0.518788
0.518788
0.518788
0.518788
0.518788
0.518788
0.518788
0.518788
0.518788
0.518788
0.518788
0.518788
0.518788
0.518788
0.518788
0.518788
0.518788
0.518788
0.518788
0.518788
0.518788
0.518788
0.518788
0.518788
0.518788
0.518788
0.518788
0.518788
0.518788
0.518788
0.518788
0.518788
0.518788
0.518788
0.518788
0.518788
0.518787
0.518789
0.524233
0.458912
0.242754
1.96697e-07
0.999964
0.999962
0.999991
0.999991
0.999987
0.999989
0.999954
0.999984
0.999992
0.999975
0.999987
0.999973
0.999982
0.999989
0.99585
0.999721
0.999802
0.991629
0.998291
0.997465
0.995717
0.99116
0.997721
0.998724
0.999163
0.999377
0.999126
0.922716
0.992589
0.992717
0.986303
0.996099
0.99907
0.999877
0.518788
0.518788
0.518788
0.518788
0.518788
0.518788
0.518788
0.518788
0.518788
0.518788
0.518788
0.518788
0.518788
0.518788
0.518788
0.518788
0.518788
0.518788
0.518788
0.518788
0.518788
0.518788
0.518788
0.518788
0.518788
0.518788
0.518788
0.518788
0.518788
0.518788
0.518788
0.518788
0.518788
0.518788
0.518788
0.518788
0.518788
0.518788
0.518788
0.518788
0.518788
0.518788
0.518788
0.518788
0.518788
0.518788
0.518788
0.518788
0.518788
0.518788
0.518788
0.518788
0.518788
0.518788
0.518788
0.518788
0.518787
0.518787
0.518519
0.439673
0.665993
0.9964
0.999946
0.999813
0.999825
0.999057
0.999068
0.999694
0.999668
0.999255
0.991337
0.986604
0.998596
0.996701
0.998295
0.996946
0.998194
0.99856
0.997692
0.997638
0.996099
0.997736
0.99278
0.995884
0.998132
0.998708
0.998808
0.999151
0.999223
0.998045
0.986898
0.994767
0.926957
0.973366
0.998877
0.999873
0.518788
0.518788
0.518788
0.518788
0.518788
0.518788
0.518788
0.518788
0.518788
0.518788
0.518788
0.518788
0.518788
0.518788
0.518788
0.518788
0.518788
0.518788
0.518788
0.518788
0.518788
0.518788
0.518788
0.518788
0.518788
0.518788
0.518788
0.518788
0.518788
0.518788
0.518788
0.518788
0.518788
0.518788
0.518788
0.518788
0.518788
0.518788
0.518788
0.518788
0.518788
0.518788
0.518788
0.518788
0.518788
0.518788
0.518788
0.518788
0.518788
0.518788
0.518788
0.518788
0.518788
0.518788
0.518788
0.518788
0.518787
0.518763
0.51695
0.467615
0.400158
0.999958
0.999156
0.999813
0.999281
0.991833
0.994673
0.999575
0.999341
0.995486
0.993469
0.99567
0.997272
0.984198
0.993953
0.990401
0.762556
0.991586
0.980748
0.995757
0.997466
0.996529
0.98622
0.995055
0.998229
0.998915
0.998558
0.99889
0.999142
0.998885
0.997316
0.988223
0.991956
0.985553
0.998216
0.99987
0.518788
0.518788
0.518788
0.518788
0.518788
0.518788
0.518788
0.518788
0.518788
0.518788
0.518788
0.518788
0.518788
0.518788
0.518788
0.518788
0.518788
0.518788
0.518788
0.518788
0.518788
0.518788
0.518788
0.518788
0.518788
0.518788
0.518788
0.518788
0.518788
0.518788
0.518788
0.518788
0.518788
0.518788
0.518788
0.518788
0.518788
0.518788
0.518788
0.518788
0.518788
0.518788
0.518788
0.518788
0.518788
0.518788
0.518788
0.518788
0.518788
0.518788
0.518788
0.518788
0.518788
0.518788
0.518788
0.518788
0.518786
0.518121
0.477703
0.62219
0.412578
0.99924
0.999997
0.999706
0.999698
0.988792
0.995914
0.997548
0.99953
0.999485
0.998706
0.974452
0.996199
0.996828
0.996425
0.996737
0.996754
0.996998
0.996434
0.996605
0.995841
0.996071
0.996907
0.99781
0.998157
0.998642
0.997831
0.99743
0.998687
0.998433
0.990017
0.99613
0.993567
0.962498
0.999118
0.999872
0.518788
0.518788
0.518788
0.518788
0.518788
0.518788
0.518788
0.518788
0.518788
0.518788
0.518788
0.518788
0.518788
0.518788
0.518788
0.518788
0.518788
0.518788
0.518788
0.518788
0.518788
0.518788
0.518788
0.518788
0.518788
0.518788
0.518788
0.518788
0.518788
0.518788
0.518788
0.518788
0.518788
0.518788
0.518788
0.518788
0.518788
0.518788
0.518788
0.518788
0.518788
0.518788
0.518788
0.518788
0.518788
0.518788
0.518788
0.518788
0.518788
0.518788
0.518788
0.518788
0.518788
0.518788
0.518788
0.518788
0.518786
0.518642
0.51306
0.407444
0.82494
0.990867
0.999997
0.999671
0.999413
0.992633
0.99753
0.954791
0.969752
0.995968
0.99891
0.999021
0.998685
0.996881
0.990804
0.409474
0.984053
0.978609
0.989028
0.995619
0.99685
0.995363
0.991114
0.993217
0.997072
0.998651
0.99872
0.998362
0.998495
0.998734
0.995793
0.970415
0.956903
0.946538
0.999325
0.999876
0.518788
0.518788
0.518788
0.518788
0.518788
0.518788
0.518788
0.518788
0.518788
0.518788
0.518788
0.518788
0.518788
0.518788
0.518788
0.518788
0.518788
0.518788
0.518788
0.518788
0.518788
0.518788
0.518788
0.518788
0.518788
0.518788
0.518788
0.518788
0.518788
0.518788
0.518788
0.518788
0.518788
0.518788
0.518788
0.518788
0.518788
0.518788
0.518788
0.518788
0.518788
0.518788
0.518788
0.518788
0.518788
0.518788
0.518788
0.518788
0.518788
0.518788
0.518788
0.518788
0.518788
0.518788
0.518788
0.518788
0.518787
0.518774
0.518456
0.395376
0.873539
0.999112
0.999995
0.997888
0.998029
0.991879
0.978244
0.994134
0.000818913
0.143221
0.98892
0.991064
0.993039
0.986743
0.950524
5.67444e-09
0.993298
0.973262
0.993008
0.948691
0.99689
0.995495
0.988207
0.998391
0.998908
0.998649
0.999368
0.998356
0.996036
0.996393
0.996162
0.995158
0.996155
0.995193
0.998988
0.999876
0.518788
0.518788
0.518788
0.518788
0.518788
0.518788
0.518788
0.518788
0.518788
0.518788
0.518788
0.518788
0.518788
0.518788
0.518788
0.518788
0.518788
0.518788
0.518788
0.518788
0.518788
0.518788
0.518788
0.518788
0.518788
0.518788
0.518788
0.518788
0.518788
0.518788
0.518788
0.518788
0.518788
0.518788
0.518788
0.518788
0.518788
0.518788
0.518788
0.518788
0.518788
0.518788
0.518788
0.518788
0.518788
0.518788
0.518788
0.518788
0.518788
0.518788
0.518788
0.518788
0.518788