/*--------------------------------*- C++ -*----------------------------------*\
| =========                 |                                                 |
| \\      /  F ield         | OpenFOAM: The Open Source CFD Toolbox           |
|  \\    /   O peration     | Version:  2.3.0                                 |
|   \\  /    A nd           | Web:      www.OpenFOAM.org                      |
|    \\/     M anipulation  |                                                 |
\*---------------------------------------------------------------------------*/
FoamFile
{
    version     2.0;
    format      ascii;
    class       volScalarField;
    location    "60";
    object      alpha.air;
}
// * * * * * * * * * * * * * * * * * * * * * * * * * * * * * * * * * * * * * //

dimensions      [0 0 0 0 0 0 0];

internalField   nonuniform List<scalar> 
6144
(
0.999996
0.999996
0.999995
0.999995
0.999994
0.999993
0.999992
0.999991
0.999991
0.99999
0.99999
0.99999
0.99999
0.99999
0.99999
0.99999
0.99999
0.99999
0.99999
0.99999
0.99999
0.99999
0.99999
0.99999
0.99999
0.99999
0.99999
0.99999
0.99999
0.99999
0.99999
0.99999
0.99999
0.99999
0.99999
0.99999
0.99999
0.99999
0.99999
0.99999
0.99999
0.99999
0.99999
0.999988
0.999986
0.999982
0.999977
0.99997
0.999958
0.999938
0.99991
0.999889
0.999888
0.999883
0.999869
0.999844
0.999852
0.999847
0.998661
0.935421
0.0382457
0.000216736
6.27238e-07
4.46215e-07
4.47794e-07
4.4744e-07
4.47467e-07
4.48235e-07
4.50208e-07
4.52182e-07
4.52859e-07
4.52713e-07
4.52208e-07
4.52106e-07
4.52216e-07
4.53775e-07
4.56975e-07
4.5889e-07
4.64061e-07
5.0936e-07
5.83361e-07
6.24052e-07
6.59367e-07
7.22376e-07
7.52253e-07
7.38962e-07
7.23672e-07
7.21198e-07
7.14349e-07
7.086e-07
7.02365e-07
6.79114e-07
5.4708e-07
3.55613e-07
3.5562e-07
3.55627e-07
0.999997
0.999996
0.999995
0.999995
0.999994
0.999993
0.999992
0.999991
0.999991
0.99999
0.99999
0.99999
0.99999
0.99999
0.99999
0.99999
0.99999
0.99999
0.99999
0.99999
0.99999
0.99999
0.99999
0.99999
0.99999
0.99999
0.99999
0.99999
0.99999
0.99999
0.99999
0.99999
0.99999
0.99999
0.99999
0.99999
0.99999
0.99999
0.99999
0.99999
0.99999
0.99999
0.999989
0.999988
0.999986
0.999983
0.999978
0.999967
0.999946
0.999922
0.999903
0.999896
0.999896
0.999882
0.99986
0.99984
0.999846
0.999841
0.999341
0.944436
0.0311667
9.17803e-05
4.43559e-07
4.43559e-07
4.4356e-07
4.4356e-07
4.47791e-07
4.66646e-07
4.6288e-07
4.51583e-07
4.51583e-07
4.51583e-07
4.72673e-07
4.87883e-07
4.74899e-07
4.55062e-07
4.53225e-07
4.93085e-07
7.65259e-07
8.84322e-07
8.47805e-07
8.23721e-07
7.84877e-07
7.57911e-07
7.45401e-07
7.36139e-07
7.3186e-07
7.03481e-07
6.64564e-07
6.42963e-07
6.51336e-07
6.53298e-07
5.474e-07
3.55617e-07
3.55624e-07
3.55631e-07
0.999997
0.999996
0.999995
0.999995
0.999994
0.999993
0.999992
0.999991
0.999991
0.99999
0.99999
0.99999
0.99999
0.99999
0.99999
0.99999
0.99999
0.99999
0.99999
0.99999
0.99999
0.99999
0.99999
0.99999
0.99999
0.99999
0.99999
0.99999
0.99999
0.99999
0.99999
0.99999
0.99999
0.99999
0.99999
0.99999
0.99999
0.99999
0.99999
0.99999
0.99999
0.99999
0.999989
0.999988
0.999986
0.999983
0.999976
0.999961
0.999935
0.999914
0.999903
0.999898
0.999891
0.999864
0.999848
0.99984
0.999847
0.999839
0.999515
0.935719
0.0200512
4.7559e-05
7.68096e-06
4.69228e-06
3.89281e-06
3.86263e-06
5.64636e-06
6.56213e-06
6.75636e-06
5.7153e-06
4.30887e-06
2.92881e-06
1.82704e-06
9.37537e-07
5.92726e-07
5.33859e-07
1.14913e-06
1.54243e-06
9.10665e-07
8.55726e-07
9.47355e-07
9.95868e-07
9.07215e-07
8.16972e-07
7.91205e-07
7.13406e-07
6.96655e-07
5.96011e-07
5.62681e-07
5.43896e-07
5.61424e-07
6.2013e-07
6.05214e-07
4.16155e-07
3.55631e-07
3.55638e-07
0.999997
0.999996
0.999996
0.999995
0.999994
0.999993
0.999992
0.999991
0.999991
0.99999
0.99999
0.99999
0.99999
0.99999
0.99999
0.99999
0.99999
0.99999
0.99999
0.99999
0.99999
0.99999
0.99999
0.99999
0.99999
0.99999
0.99999
0.99999
0.99999
0.99999
0.99999
0.99999
0.99999
0.99999
0.99999
0.99999
0.99999
0.99999
0.99999
0.99999
0.99999
0.99999
0.999989
0.999988
0.999986
0.999982
0.999973
0.999954
0.999929
0.999912
0.999901
0.999886
0.999863
0.999843
0.999843
0.99984
0.999847
0.999835
0.999782
0.912068
0.0134094
0.000775398
0.000652373
0.000584174
0.000611753
0.000660061
0.000710309
0.000744079
0.000754454
0.000656518
0.000547311
0.000410468
0.000300455
0.000213591
0.00016108
0.000132633
0.000113734
9.11513e-05
6.22967e-05
3.5167e-05
1.64516e-05
5.90458e-06
1.9473e-06
9.61611e-07
7.97754e-07
6.84786e-07
6.62751e-07
5.14418e-07
4.92977e-07
4.68947e-07
4.73326e-07
5.16754e-07
5.84088e-07
5.15873e-07
3.66149e-07
3.55646e-07
0.999997
0.999997
0.999996
0.999995
0.999994
0.999994
0.999992
0.999991
0.999991
0.99999
0.99999
0.99999
0.99999
0.99999
0.99999
0.99999
0.99999
0.99999
0.99999
0.99999
0.99999
0.99999
0.99999
0.99999
0.99999
0.99999
0.99999
0.99999
0.99999
0.99999
0.99999
0.99999
0.99999
0.99999
0.99999
0.99999
0.99999
0.99999
0.99999
0.99999
0.99999
0.99999
0.999989
0.999988
0.999985
0.99998
0.999969
0.999949
0.999927
0.999908
0.999889
0.999865
0.999844
0.999839
0.999843
0.999842
0.999847
0.999817
0.999639
0.883806
0.0218762
0.00525312
0.00543886
0.00545534
0.00567368
0.00584643
0.00600613
0.00605894
0.00590311
0.0055277
0.00502516
0.00438902
0.00376807
0.00318245
0.00269188
0.00231143
0.00199533
0.00167872
0.00131116
0.000934016
0.000607036
0.000337073
0.000160969
6.55016e-05
2.14943e-05
6.06144e-06
1.46743e-06
5.28457e-07
4.648e-07
4.26622e-07
4.20814e-07
4.47787e-07
5.3889e-07
5.51471e-07
4.08897e-07
3.55654e-07
0.999997
0.999997
0.999996
0.999996
0.999995
0.999994
0.999993
0.999992
0.999991
0.999991
0.99999
0.99999
0.99999
0.99999
0.99999
0.99999
0.99999
0.99999
0.99999
0.99999
0.99999
0.99999
0.99999
0.99999
0.99999
0.99999
0.99999
0.99999
0.99999
0.99999
0.99999
0.99999
0.99999
0.99999
0.99999
0.99999
0.99999
0.99999
0.99999
0.99999
0.99999
0.99999
0.999989
0.999988
0.999985
0.999979
0.999966
0.999949
0.99993
0.999909
0.999884
0.999855
0.99984
0.999839
0.999843
0.999844
0.999847
0.999793
0.999454
0.867953
0.0327827
0.0108781
0.0119664
0.0121856
0.0122829
0.0123171
0.0123013
0.0123159
0.0120447
0.0118332
0.0115017
0.0110879
0.0104341
0.00967649
0.00890895
0.00814774
0.00746791
0.00683151
0.00611424
0.00527237
0.00435915
0.00334881
0.00237308
0.00152398
0.000863335
0.000430326
0.000172587
5.05686e-05
9.5258e-06
1.18941e-06
3.60032e-07
3.60031e-07
3.60031e-07
3.60032e-07
4.78512e-07
3.55661e-07
0.999997
0.999997
0.999996
0.999996
0.999995
0.999994
0.999993
0.999992
0.999991
0.999991
0.99999
0.99999
0.99999
0.99999
0.99999
0.99999
0.99999
0.99999
0.99999
0.99999
0.99999
0.99999
0.99999
0.99999
0.99999
0.99999
0.99999
0.99999
0.99999
0.99999
0.99999
0.99999
0.99999
0.99999
0.99999
0.99999
0.99999
0.99999
0.99999
0.99999
0.99999
0.99999
0.999989
0.999988
0.999985
0.999978
0.999967
0.999952
0.999937
0.999916
0.999883
0.999847
0.999839
0.999841
0.999843
0.999843
0.999841
0.999786
0.999606
0.864951
0.039458
0.0142455
0.0153396
0.0154015
0.0149099
0.0146906
0.0144867
0.0143698
0.0141899
0.0140875
0.0140166
0.0140103
0.0140985
0.0141413
0.0138138
0.013448
0.0130382
0.0125552
0.0119919
0.011432
0.0107282
0.0098738
0.00879086
0.00747342
0.00597102
0.00438523
0.00286805
0.00159163
0.000675511
0.000191912
4.14367e-05
2.67941e-05
3.23819e-05
2.85198e-05
3.76661e-05
1.48014e-05
0.999997
0.999997
0.999997
0.999996
0.999995
0.999994
0.999993
0.999992
0.999991
0.999991
0.99999
0.99999
0.99999
0.99999
0.99999
0.99999
0.99999
0.99999
0.99999
0.99999
0.99999
0.99999
0.99999
0.99999
0.99999
0.99999
0.99999
0.99999
0.99999
0.99999
0.99999
0.99999
0.99999
0.99999
0.99999
0.99999
0.99999
0.99999
0.99999
0.99999
0.99999
0.99999
0.999989
0.999988
0.999984
0.999978
0.999969
0.999957
0.999944
0.999922
0.999877
0.999843
0.99984
0.999841
0.999842
0.999841
0.999833
0.999795
0.999712
0.843067
0.0325832
0.0129373
0.0135012
0.0128833
0.0123282
0.0120944
0.0120283
0.0121796
0.0124133
0.0126862
0.013149
0.0137512
0.014379
0.0149446
0.01546
0.0156485
0.0156362
0.0155349
0.0149698
0.014392
0.0139327
0.0136061
0.0134395
0.0131617
0.0127265
0.0118748
0.0105375
0.00882943
0.00664664
0.00401626
0.00149155
1.29445e-05
1.29401e-05
1.29445e-05
1.29445e-05
1.29504e-05
0.999998
0.999997
0.999997
0.999997
0.999996
0.999995
0.999993
0.999993
0.999992
0.999991
0.99999
0.99999
0.99999
0.99999
0.99999
0.99999
0.99999
0.99999
0.99999
0.99999
0.99999
0.99999
0.99999
0.99999
0.99999
0.99999
0.99999
0.99999
0.99999
0.99999
0.99999
0.99999
0.99999
0.99999
0.99999
0.99999
0.99999
0.99999
0.99999
0.99999
0.99999
0.99999
0.999989
0.999987
0.999984
0.999978
0.99997
0.999961
0.999947
0.99992
0.99987
0.999842
0.999839
0.999839
0.99984
0.99984
0.999844
0.999818
0.999573
0.887746
0.0330905
0.006855
0.00655535
0.00547893
0.00505305
0.00481804
0.00509738
0.00544636
0.00580227
0.00612817
0.00641859
0.00676483
0.00726474
0.00766623
0.00784904
0.00797425
0.00813656
0.00815077
0.00798914
0.00803426
0.00837161
0.00875614
0.00929866
0.0099094
0.0102946
0.0104283
0.00967288
0.00887378
0.00757127
0.00573177
0.00338636
0.00129527
0.000535907
0.000746356
0.00081564
0.000141847
0.999998
0.999998
0.999997
0.999997
0.999996
0.999995
0.999993
0.999993
0.999992
0.999991
0.99999
0.99999
0.99999
0.99999
0.99999
0.99999
0.99999
0.99999
0.99999
0.99999
0.99999
0.99999
0.99999
0.99999
0.99999
0.99999
0.99999
0.99999
0.99999
0.99999
0.99999
0.99999
0.99999
0.99999
0.99999
0.99999
0.99999
0.99999
0.99999
0.99999
0.99999
0.99999
0.999989
0.999988
0.999985
0.999979
0.999972
0.999964
0.999952
0.999929
0.999903
0.999851
0.99984
0.99984
0.999846
0.99985
0.999854
0.999839
0.999829
0.917537
0.0269407
0.00180688
0.00160266
0.00133761
0.00133342
0.00127158
0.00146387
0.00166479
0.00185784
0.00206259
0.00223413
0.00240989
0.00257083
0.00270803
0.00274121
0.00261489
0.00252626
0.00234156
0.00225628
0.00241518
0.00264176
0.00292812
0.00326556
0.00359218
0.00388266
0.00409049
0.004008
0.003703
0.00337105
0.00264247
0.00168529
0.000753823
0.000318495
0.000325729
0.000151459
4.01639e-05
0.999998
0.999998
0.999998
0.999997
0.999996
0.999995
0.999993
0.999992
0.999992
0.999991
0.99999
0.99999
0.99999
0.99999
0.99999
0.99999
0.99999
0.99999
0.99999
0.99999
0.99999
0.99999
0.99999
0.99999
0.99999
0.99999
0.99999
0.99999
0.99999
0.99999
0.99999
0.99999
0.99999
0.99999
0.99999
0.99999
0.99999
0.99999
0.99999
0.99999
0.99999
0.99999
0.999989
0.999987
0.999985
0.99998
0.999974
0.999967
0.999956
0.99993
0.999911
0.999881
0.999853
0.999842
0.999846
0.999845
0.999855
0.999846
0.999853
0.927309
0.0123892
0.000294837
0.0002616
0.000216638
0.00020007
0.00018206
0.000199758
0.000217513
0.00023287
0.000256449
0.000274547
0.000287584
0.000296672
0.000301773
0.000297492
0.000251999
0.00022472
0.000203798
0.000199118
0.000230567
0.000274192
0.000327856
0.000382993
0.000426699
0.000452276
0.000471502
0.000485652
0.000437956
0.00040236
0.000338275
0.000250165
0.000159682
8.51197e-05
4.69644e-05
1.02485e-05
6.51145e-06
0.999998
0.999998
0.999998
0.999998
0.999997
0.999996
0.999994
0.999992
0.999992
0.999991
0.99999
0.99999
0.99999
0.99999
0.99999
0.99999
0.99999
0.99999
0.99999
0.99999
0.99999
0.99999
0.99999
0.99999
0.99999
0.99999
0.99999
0.99999
0.99999
0.99999
0.99999
0.99999
0.99999
0.99999
0.99999
0.99999
0.99999
0.99999
0.99999
0.99999
0.99999
0.99999
0.999989
0.999987
0.999985
0.999981
0.999976
0.999969
0.999958
0.999931
0.999902
0.999891
0.999876
0.999855
0.999851
0.999846
0.999855
0.999847
0.999801
0.932305
0.00573563
2.60277e-05
1.87727e-05
1.36552e-05
1.08084e-05
8.58235e-06
7.7919e-06
7.25205e-06
6.4149e-06
6.13927e-06
6.02392e-06
5.67785e-06
4.86786e-06
4.07474e-06
3.09199e-06
2.40534e-06
1.5364e-06
1.08887e-06
1.51386e-06
2.68083e-06
4.53438e-06
6.9724e-06
9.66653e-06
1.21164e-05
1.34138e-05
1.35553e-05
1.36104e-05
1.33264e-05
1.28051e-05
1.1167e-05
9.05813e-06
6.54491e-06
3.32889e-06
1.24418e-06
8.87932e-07
9.38058e-07
0.999998
0.999998
0.999998
0.999998
0.999998
0.999997
0.999995
0.999993
0.999991
0.999991
0.99999
0.99999
0.99999
0.99999
0.99999
0.99999
0.99999
0.99999
0.99999
0.99999
0.99999
0.99999
0.99999
0.99999
0.99999
0.99999
0.99999
0.99999
0.99999
0.99999
0.99999
0.99999
0.99999
0.99999
0.99999
0.99999
0.99999
0.99999
0.99999
0.99999
0.99999
0.99999
0.999989
0.999987
0.999984
0.999981
0.999976
0.99997
0.999959
0.999932
0.999899
0.999886
0.999881
0.999871
0.999867
0.999856
0.999856
0.99984
0.999511
0.955855
0.0118796
1.99677e-05
4.96488e-07
8.17748e-07
7.85786e-07
7.31627e-07
6.86236e-07
6.87295e-07
7.11491e-07
6.85432e-07
5.40206e-07
5.09664e-07
5.09664e-07
5.94089e-07
6.72596e-07
6.8285e-07
6.8888e-07
6.69482e-07
6.21443e-07
5.6679e-07
5.34464e-07
5.29027e-07
5.79818e-07
6.5336e-07
9.06485e-07
1.03743e-06
6.66181e-07
6.66223e-07
7.87606e-07
1.07086e-06
1.2102e-06
9.04615e-07
8.26209e-07
8.61477e-07
6.47968e-07
6.34982e-07
0.999998
0.999998
0.999998
0.999998
0.999998
0.999997
0.999996
0.999994
0.999992
0.999991
0.99999
0.99999
0.99999
0.99999
0.99999
0.99999
0.99999
0.99999
0.99999
0.99999
0.99999
0.99999
0.99999
0.99999
0.99999
0.99999
0.99999
0.99999
0.99999
0.99999
0.99999
0.99999
0.99999
0.99999
0.99999
0.99999
0.99999
0.99999
0.99999
0.99999
0.99999
0.99999
0.999989
0.999987
0.999984
0.99998
0.999976
0.999971
0.999959
0.999928
0.999891
0.999876
0.999878
0.999869
0.999866
0.999856
0.999847
0.999812
0.999375
0.959443
0.036721
0.000154129
4.96488e-07
5.11369e-07
5.04633e-07
5.09255e-07
5.25538e-07
5.58006e-07
5.75442e-07
5.66841e-07
5.51054e-07
5.31738e-07
5.10191e-07
5.00208e-07
5.08042e-07
5.60397e-07
6.1442e-07
6.10854e-07
5.94521e-07
5.85524e-07
5.85829e-07
5.8534e-07
5.87393e-07
6.17777e-07
7.08696e-07
7.40829e-07
7.39052e-07
7.40338e-07
7.69843e-07
7.94709e-07
7.98408e-07
7.85323e-07
7.34311e-07
6.56341e-07
5.22932e-07
4.76641e-07
0.999998
0.999998
0.999998
0.999998
0.999998
0.999998
0.999997
0.999995
0.999992
0.999991
0.99999
0.99999
0.99999
0.99999
0.99999
0.99999
0.99999
0.99999
0.99999
0.99999
0.99999
0.99999
0.99999
0.99999
0.99999
0.99999
0.99999
0.99999
0.99999
0.99999
0.99999
0.99999
0.99999
0.99999
0.99999
0.99999
0.99999
0.99999
0.99999
0.99999
0.99999
0.99999
0.999989
0.999987
0.999984
0.99998
0.999976
0.999971
0.999958
0.999924
0.999889
0.999875
0.99987
0.999863
0.999863
0.999852
0.999833
0.999803
0.99935
0.946357
0.0373981
0.000159528
4.96487e-07
5.24962e-07
5.16272e-07
5.05308e-07
5.06142e-07
5.0985e-07
5.11732e-07
5.11165e-07
5.08613e-07
5.03665e-07
4.97628e-07
4.95999e-07
4.96277e-07
4.99996e-07
5.13375e-07
5.27985e-07
5.36786e-07
5.45687e-07
5.66806e-07
5.85123e-07
5.91544e-07
6.20067e-07
6.89264e-07
7.19036e-07
7.36769e-07
7.5432e-07
7.73807e-07
7.77071e-07
7.52861e-07
6.90133e-07
6.044e-07
5.1849e-07
4.40819e-07
3.92239e-07
0.999999
0.999998
0.999998
0.999997
0.999997
0.999997
0.999997
0.999996
0.999993
0.999991
0.99999
0.99999
0.99999
0.99999
0.99999
0.99999
0.99999
0.99999
0.99999
0.99999
0.99999
0.99999
0.99999
0.99999
0.99999
0.99999
0.99999
0.99999
0.99999
0.99999
0.99999
0.99999
0.99999
0.99999
0.99999
0.99999
0.99999
0.99999
0.99999
0.99999
0.99999
0.99999
0.999989
0.999988
0.999984
0.99998
0.999976
0.99997
0.999957
0.999928
0.999892
0.999872
0.999863
0.999857
0.999859
0.999844
0.999823
0.999767
0.998913
0.93268
0.0409334
0.000247829
8.92346e-07
5.03044e-07
5.05463e-07
5.04508e-07
5.03037e-07
5.03104e-07
5.03568e-07
5.03299e-07
5.02281e-07
5.01621e-07
5.00546e-07
5.00233e-07
5.00695e-07
5.00664e-07
4.99928e-07
4.99904e-07
5.00954e-07
5.08212e-07
5.3792e-07
5.70333e-07
5.88871e-07
6.34186e-07
6.71851e-07
6.71476e-07
6.98953e-07
7.15569e-07
7.19904e-07
7.00738e-07
6.38878e-07
5.62884e-07
4.95828e-07
4.44613e-07
4.05713e-07
3.71202e-07
0.999997
0.999996
0.999995
0.999995
0.999994
0.999993
0.999992
0.999991
0.99999
0.99999
0.99999
0.99999
0.99999
0.99999
0.99999
0.99999
0.99999
0.99999
0.99999
0.99999
0.99999
0.99999
0.99999
0.99999
0.99999
0.99999
0.99999
0.99999
0.99999
0.99999
0.99999
0.99999
0.99999
0.99999
0.99999
0.99999
0.99999
0.99999
0.99999
0.99999
0.99999
0.99999
0.99999
0.999988
0.999986
0.999981
0.999976
0.99997
0.99996
0.999944
0.999916
0.999888
0.999886
0.999884
0.999881
0.999851
0.999859
0.999815
0.999038
0.932662
0.0380501
7.86731e-05
4.43559e-07
4.51606e-07
4.5136e-07
4.50649e-07
4.50975e-07
4.51689e-07
4.53631e-07
4.55258e-07
4.56538e-07
4.56362e-07
4.5562e-07
4.54425e-07
4.54208e-07
4.55005e-07
4.56199e-07
4.56939e-07
4.57721e-07
4.66249e-07
5.00536e-07
5.32897e-07
5.64477e-07
6.5527e-07
7.50212e-07
7.52081e-07
7.38327e-07
7.24291e-07
7.04802e-07
6.73508e-07
6.53894e-07
6.51802e-07
6.25502e-07
5.40244e-07
3.94885e-07
3.55635e-07
0.999998
0.999996
0.999995
0.999994
0.999994
0.999993
0.999992
0.999991
0.999991
0.99999
0.99999
0.99999
0.99999
0.99999
0.99999
0.99999
0.99999
0.99999
0.99999
0.99999
0.99999
0.99999
0.99999
0.99999
0.99999
0.99999
0.99999
0.99999
0.99999
0.99999
0.99999
0.99999
0.99999
0.99999
0.99999
0.99999
0.99999
0.99999
0.99999
0.99999
0.99999
0.99999
0.999989
0.999988
0.999986
0.999982
0.999977
0.999967
0.999951
0.999931
0.999913
0.999893
0.999892
0.999889
0.999879
0.999852
0.999847
0.999776
0.999429
0.903705
0.00872555
9.48742e-06
4.43558e-07
4.43559e-07
4.44754e-07
4.57512e-07
4.88915e-07
5.39508e-07
5.44241e-07
5.39288e-07
5.23676e-07
5.05555e-07
4.88962e-07
4.76651e-07
4.64371e-07
4.535e-07
4.53225e-07
4.59218e-07
5.83456e-07
8.33523e-07
8.4983e-07
8.13278e-07
7.71314e-07
7.56682e-07
7.56889e-07
7.48929e-07
7.42762e-07
7.22752e-07
6.85988e-07
6.33678e-07
5.94726e-07
5.96811e-07
5.83084e-07
5.12828e-07
3.92024e-07
3.55639e-07
0.999998
0.999997
0.999995
0.999994
0.999994
0.999993
0.999992
0.999992
0.999991
0.999991
0.99999
0.99999
0.99999
0.99999
0.99999
0.99999
0.99999
0.99999
0.99999
0.99999
0.99999
0.99999
0.99999
0.99999
0.99999
0.99999
0.99999
0.99999
0.99999
0.99999
0.99999
0.99999
0.99999
0.99999
0.99999
0.99999
0.99999
0.99999
0.99999
0.99999
0.99999
0.99999
0.999989
0.999987
0.999985
0.99998
0.999972
0.999961
0.999942
0.999923
0.999913
0.999897
0.99989
0.999884
0.999866
0.999842
0.999858
0.999788
0.999643
0.902023
0.00587246
6.86542e-06
6.10036e-06
3.37035e-06
3.19685e-06
3.47312e-06
3.70575e-06
3.0616e-06
2.53891e-06
2.24181e-06
1.44288e-06
1.08494e-06
8.29645e-07
4.67921e-07
4.95441e-07
5.91141e-07
8.06416e-07
9.35721e-07
9.89287e-07
9.49488e-07
9.29004e-07
8.86728e-07
8.54338e-07
8.3188e-07
8.08325e-07
7.62134e-07
7.34046e-07
6.9548e-07
6.80057e-07
6.13224e-07
5.54318e-07
5.60457e-07
5.86871e-07
5.39699e-07
4.3282e-07
3.55647e-07
0.999998
0.999998
0.999996
0.999995
0.999994
0.999994
0.999993
0.999992
0.999991
0.999991
0.99999
0.99999
0.99999
0.99999
0.99999
0.99999
0.99999
0.99999
0.99999
0.99999
0.99999
0.99999
0.99999
0.99999
0.99999
0.99999
0.99999
0.99999
0.99999
0.99999
0.99999
0.99999
0.99999
0.99999
0.99999
0.99999
0.99999
0.99999
0.99999
0.99999
0.99999
0.99999
0.999989
0.999986
0.999983
0.999977
0.999968
0.999955
0.999936
0.999919
0.999909
0.999898
0.999892
0.999872
0.999854
0.999838
0.99983
0.999816
0.999832
0.857016
0.0033752
0.000427188
0.000381279
0.000344966
0.000355074
0.00036892
0.000382994
0.000381088
0.000353433
0.00028725
0.000215967
0.000143851
8.66857e-05
4.7816e-05
2.82576e-05
2.10647e-05
1.82187e-05
1.52621e-05
1.2552e-05
9.12901e-06
5.52067e-06
3.1461e-06
1.82096e-06
1.12944e-06
9.9691e-07
1.04226e-06
8.9717e-07
8.91295e-07
8.45233e-07
5.93395e-07
4.8893e-07
5.03885e-07
5.59918e-07
5.60294e-07
5.137e-07
3.81559e-07
0.999998
0.999998
0.999997
0.999996
0.999995
0.999994
0.999993
0.999992
0.999991
0.999991
0.99999
0.99999
0.99999
0.99999
0.99999
0.99999
0.99999
0.99999
0.99999
0.99999
0.99999
0.99999
0.99999
0.99999
0.99999
0.99999
0.99999
0.99999
0.99999
0.99999
0.99999
0.99999
0.99999
0.99999
0.99999
0.99999
0.99999
0.99999
0.99999
0.99999
0.99999
0.99999
0.999989
0.999986
0.999982
0.999976
0.999967
0.999953
0.999935
0.99992
0.999906
0.999892
0.999868
0.999846
0.999843
0.999834
0.999826
0.999835
0.999853
0.795648
0.0107282
0.00446521
0.00439827
0.00435134
0.00434443
0.00441665
0.00445912
0.00435042
0.00392559
0.00356162
0.00307992
0.00256955
0.00207506
0.00162636
0.00126692
0.00102628
0.000879629
0.000765038
0.00064023
0.000511862
0.000385331
0.000276957
0.000189529
0.000114977
6.37266e-05
3.16285e-05
1.39125e-05
4.50506e-06
1.05889e-06
4.21564e-07
4.21188e-07
4.30974e-07
4.93819e-07
5.63041e-07
5.47482e-07
4.38474e-07
0.999998
0.999998
0.999997
0.999996
0.999995
0.999994
0.999993
0.999992
0.999991
0.999991
0.99999
0.99999
0.99999
0.99999
0.99999
0.99999
0.99999
0.99999
0.99999
0.99999
0.99999
0.99999
0.99999
0.99999
0.99999
0.99999
0.99999
0.99999
0.99999
0.99999
0.99999
0.99999
0.99999
0.99999
0.99999
0.99999
0.99999
0.99999
0.99999
0.99999
0.99999
0.99999
0.999989
0.999987
0.999983
0.999977
0.999969
0.999958
0.999945
0.99993
0.999904
0.999859
0.999842
0.99984
0.999841
0.999832
0.999826
0.999819
0.999853
0.700053
0.0196703
0.0124046
0.0128022
0.0129529
0.0129829
0.0129514
0.0123224
0.0117804
0.0109837
0.0102716
0.00950445
0.00876862
0.00799963
0.00715129
0.00640128
0.00583598
0.00538632
0.00496018
0.00453569
0.00420569
0.00379286
0.00344877
0.00310375
0.00270019
0.00220791
0.00167613
0.0010955
0.000558739
0.000186131
2.8603e-05
1.70511e-06
3.60032e-07
3.76235e-07
4.49461e-07
4.94826e-07
3.5567e-07
0.999998
0.999998
0.999998
0.999997
0.999996
0.999994
0.999993
0.999992
0.999992
0.999991
0.99999
0.99999
0.99999
0.99999
0.99999
0.99999
0.99999
0.99999
0.99999
0.99999
0.99999
0.99999
0.99999
0.99999
0.99999
0.99999
0.99999
0.99999
0.99999
0.99999
0.99999
0.99999
0.99999
0.99999
0.99999
0.99999
0.99999
0.99999
0.99999
0.99999
0.99999
0.99999
0.999989
0.999987
0.999983
0.999977
0.99997
0.999962
0.999951
0.999937
0.999895
0.999841
0.999839
0.999839
0.999835
0.999833
0.999839
0.999841
0.999853
0.67535
0.0245476
0.0167038
0.0174077
0.0177146
0.0178632
0.0181555
0.0181841
0.0182507
0.0175363
0.016782
0.015812
0.0149823
0.0142807
0.0137093
0.0132197
0.0129961
0.0128412
0.0130045
0.0133338
0.0136224
0.0138067
0.0139677
0.0143753
0.0152043
0.015831
0.0161075
0.0149002
0.0125695
0.00850351
0.00406324
0.00142503
0.00209117
0.00271912
0.00367336
0.00485098
0.00591631
0.999998
0.999999
0.999998
0.999997
0.999996
0.999995
0.999994
0.999992
0.999992
0.999991
0.99999
0.99999
0.99999
0.99999
0.99999
0.99999
0.99999
0.99999
0.99999
0.99999
0.99999
0.99999
0.99999
0.99999
0.99999
0.99999
0.99999
0.99999
0.99999
0.99999
0.99999
0.99999
0.99999
0.99999
0.99999
0.99999
0.99999
0.99999
0.99999
0.99999
0.99999
0.99999
0.999989
0.999987
0.999983
0.999978
0.999972
0.999964
0.999954
0.999938
0.999863
0.999839
0.99984
0.99984
0.999837
0.999837
0.999839
0.999837
0.999853
0.784215
0.0312872
0.0166872
0.0180669
0.0184396
0.0187159
0.0195383
0.0201327
0.0209814
0.0215108
0.0218673
0.0219645
0.022028
0.0218614
0.0217245
0.0217325
0.0228099
0.023641
0.0258273
0.0285416
0.0316258
0.034299
0.036127
0.0376453
0.0394529
0.0421931
0.0460867
0.0509553
0.0568611
0.0643079
0.0739232
0.085497
0.0970041
0.107943
0.133
0.187244
0.383011
0.999998
0.999999
0.999998
0.999998
0.999997
0.999995
0.999994
0.999993
0.999992
0.999991
0.99999
0.99999
0.99999
0.99999
0.99999
0.99999
0.99999
0.99999
0.99999
0.99999
0.99999
0.99999
0.99999
0.99999
0.99999
0.99999
0.99999
0.99999
0.99999
0.99999
0.99999
0.99999
0.99999
0.99999
0.99999
0.99999
0.99999
0.99999
0.99999
0.99999
0.99999
0.99999
0.999989
0.999987
0.999984
0.999979
0.999973
0.999965
0.999956
0.999935
0.999858
0.999835
0.999835
0.999835
0.999834
0.999832
0.99983
0.999832
0.999853
0.826669
0.0299314
0.0129397
0.014428
0.0148616
0.0155942
0.0166334
0.0181028
0.0194335
0.0207236
0.0217554
0.0229549
0.024552
0.0261082
0.0275587
0.0286638
0.02971
0.0307503
0.032393
0.0345991
0.0370641
0.039028
0.041435
0.0442262
0.0469813
0.0498159
0.0528
0.0574992
0.062627
0.067872
0.0736588
0.0800477
0.0862064
0.0890061
0.0870921
0.0802442
0.0709667
0.999998
0.999999
0.999999
0.999998
0.999998
0.999996
0.999994
0.999993
0.999992
0.999991
0.99999
0.99999
0.99999
0.99999
0.99999
0.99999
0.99999
0.99999
0.99999
0.99999
0.99999
0.99999
0.99999
0.99999
0.99999
0.99999
0.99999
0.99999
0.99999
0.99999
0.99999
0.99999
0.99999
0.99999
0.99999
0.99999
0.99999
0.99999
0.99999
0.99999
0.99999
0.99999
0.999989
0.999987
0.999984
0.99998
0.999974
0.999967
0.999959
0.999938
0.999904
0.99984
0.999838
0.999841
0.999845
0.999839
0.99983
0.999826
0.999853
0.865458
0.0213834
0.00551401
0.00557746
0.00497198
0.00507447
0.00520695
0.00603632
0.00670632
0.00749853
0.00825296
0.00925274
0.0101
0.0106226
0.0107968
0.0105283
0.0101516
0.00969469
0.00951624
0.0102082
0.0115745
0.0136906
0.0167562
0.0200506
0.0233481
0.0260856
0.0281584
0.0298595
0.0315787
0.0323831
0.0326834
0.0307691
0.0272305
0.0205378
0.012425
0.00583899
0.00252816
0.999999
0.999999
0.999999
0.999999
0.999998
0.999997
0.999995
0.999993
0.999992
0.999991
0.99999
0.99999
0.99999
0.99999
0.99999
0.99999
0.99999
0.99999
0.99999
0.99999
0.99999
0.99999
0.99999
0.99999
0.99999
0.99999
0.99999
0.99999
0.99999
0.99999
0.99999
0.99999
0.99999
0.99999
0.99999
0.99999
0.99999
0.99999
0.99999
0.99999
0.99999
0.99999
0.999989
0.999987
0.999984
0.99998
0.999975
0.999969
0.99996
0.999939
0.999919
0.999885
0.999855
0.999843
0.999845
0.999844
0.999849
0.999824
0.999851
0.882819
0.0100071
0.00116673
0.00112461
0.000910279
0.00088923
0.000855412
0.000982109
0.00107295
0.00114308
0.00118744
0.00126517
0.00135143
0.00138307
0.00131956
0.0012467
0.00118022
0.00103867
0.00098248
0.00112982
0.00130516
0.00159676
0.00196905
0.00239054
0.0028607
0.00317227
0.00328807
0.00311493
0.00292953
0.00275147
0.00242608
0.00181646
0.0011659
0.000566221
0.000197701
5.0709e-05
1.75016e-05
0.999999
0.999999
0.999999
0.999999
0.999999
0.999997
0.999995
0.999993
0.999992
0.999991
0.99999
0.99999
0.99999
0.99999
0.99999
0.99999
0.99999
0.99999
0.99999
0.99999
0.99999
0.99999
0.99999
0.99999
0.99999
0.99999
0.99999
0.99999
0.99999
0.99999
0.99999
0.99999
0.99999
0.99999
0.99999
0.99999
0.99999
0.99999
0.99999
0.99999
0.99999
0.99999
0.999989
0.999987
0.999984
0.99998
0.999976
0.99997
0.999959
0.999939
0.99991
0.999897
0.999881
0.999856
0.999852
0.999846
0.99985
0.99983
0.999742
0.927631
0.00611656
0.000117494
0.000108631
6.6929e-05
5.95097e-05
4.92208e-05
5.49499e-05
5.74408e-05
5.63548e-05
5.23438e-05
5.00801e-05
5.14598e-05
5.479e-05
5.01336e-05
4.52983e-05
4.2178e-05
3.72059e-05
3.49833e-05
3.76158e-05
4.04126e-05
4.76768e-05
5.31857e-05
5.4041e-05
5.19093e-05
4.30281e-05
3.73102e-05
3.23636e-05
2.45242e-05
1.85984e-05
1.42291e-05
9.53775e-06
4.99477e-06
2.12695e-06
1.08318e-06
8.24496e-07
1.01059e-06
0.999999
0.999999
0.999999
0.999999
0.999999
0.999998
0.999997
0.999995
0.999992
0.999991
0.99999
0.99999
0.99999
0.99999
0.99999
0.99999
0.99999
0.99999
0.99999
0.99999
0.99999
0.99999
0.99999
0.99999
0.99999
0.99999
0.99999
0.99999
0.99999
0.99999
0.99999
0.99999
0.99999
0.99999
0.99999
0.99999
0.99999
0.99999
0.99999
0.99999
0.99999
0.99999
0.999989
0.999987
0.999984
0.999981
0.999976
0.99997
0.999959
0.999937
0.999907
0.999887
0.999884
0.999872
0.999864
0.999854
0.999846
0.99979
0.999721
0.952615
0.00486846
1.55109e-06
3.13532e-06
8.62992e-07
1.10359e-06
6.03608e-07
6.0043e-07
6.89192e-07
1.69658e-06
2.06069e-06
8.45768e-07
5.47849e-07
9.31464e-07
1.59548e-06
9.94247e-07
6.45925e-07
6.87892e-07
8.36307e-07
1.1436e-06
7.93529e-07
5.70273e-07
5.53178e-07
6.07724e-07
7.68077e-07
8.16442e-07
7.00802e-07
8.41796e-07
1.32727e-06
9.23626e-07
5.76479e-07
7.12502e-07
8.83171e-07
8.32651e-07
5.93176e-07
4.73691e-07
4.56904e-07
0.999998
0.999998
0.999998
0.999999
0.999999
0.999999
0.999998
0.999997
0.999993
0.999991
0.99999
0.99999
0.99999
0.99999
0.99999
0.99999
0.99999
0.99999
0.99999
0.99999
0.99999
0.99999
0.99999
0.99999
0.99999
0.99999
0.99999
0.99999
0.99999
0.99999
0.99999
0.99999
0.99999
0.99999
0.99999
0.99999
0.99999
0.99999
0.99999
0.99999
0.99999
0.99999
0.999989
0.999987
0.999984
0.99998
0.999976
0.999969
0.999958
0.999933
0.999899
0.999881
0.999879
0.99987
0.999862
0.999849
0.999811
0.999697
0.999637
0.912848
0.00416964
1.48681e-06
4.96487e-07
5.0031e-07
5.37846e-07
6.17926e-07
7.1142e-07
7.63759e-07
7.3422e-07
6.47982e-07
5.36049e-07
5.02274e-07
5.02006e-07
5.063e-07
5.63293e-07
7.29235e-07
8.22555e-07
8.21893e-07
6.78366e-07
6.26021e-07
6.39299e-07
6.44237e-07
6.28841e-07
6.5407e-07
6.88263e-07
6.64767e-07
6.98112e-07
7.48795e-07
7.43045e-07
7.4827e-07
7.46835e-07
6.69865e-07
5.40516e-07
4.27717e-07
3.62478e-07
3.33771e-07
0.999998
0.999998
0.999998
0.999998
0.999999
0.999999
0.999999
0.999998
0.999995
0.999991
0.99999
0.99999
0.99999
0.99999
0.99999
0.99999
0.99999
0.99999
0.99999
0.99999
0.99999
0.99999
0.99999
0.99999
0.99999
0.99999
0.99999
0.99999
0.99999
0.99999
0.99999
0.99999
0.99999
0.99999
0.99999
0.99999
0.99999
0.99999
0.99999
0.99999
0.99999
0.99999
0.999989
0.999987
0.999984
0.99998
0.999976
0.99997
0.999957
0.99993
0.999896
0.999878
0.999876
0.999867
0.99986
0.999845
0.999763
0.999627
0.999561
0.869483
0.00650104
7.50121e-06
4.96486e-07
5.12622e-07
5.04377e-07
5.03468e-07
5.06279e-07
5.13235e-07
5.19332e-07
5.17374e-07
5.1233e-07
5.0735e-07
5.02514e-07
5.01834e-07
5.04862e-07
5.30048e-07
6.04912e-07
6.2425e-07
6.28769e-07
6.51616e-07
6.87764e-07
6.87057e-07
6.61356e-07
6.6521e-07
6.74857e-07
6.62109e-07
6.99455e-07
7.40547e-07
7.49674e-07
7.46948e-07
6.92214e-07
5.62809e-07
4.29305e-07
3.49516e-07
3.22627e-07
3.18571e-07
0.999999
0.999998
0.999998
0.999998
0.999998
0.999999
0.999999
0.999998
0.999996
0.999991
0.99999
0.99999
0.99999
0.99999
0.99999
0.99999
0.99999
0.99999
0.99999
0.99999
0.99999
0.99999
0.99999
0.99999
0.99999
0.99999
0.99999
0.99999
0.99999
0.99999
0.99999
0.99999
0.99999
0.99999
0.99999
0.99999
0.99999
0.99999
0.99999
0.99999
0.99999
0.99999
0.999989
0.999988
0.999985
0.999981
0.999976
0.999969
0.999957
0.999932
0.999896
0.999874
0.999868
0.999864
0.999862
0.999833
0.999762
0.999626
0.999364
0.924199
0.0197737
3.37494e-05
4.96486e-07
5.07674e-07
5.06006e-07
5.02514e-07
5.02563e-07
5.03234e-07
5.031e-07
5.02353e-07
5.00614e-07
4.99993e-07
5.0038e-07
5.01526e-07
5.01581e-07
5.01915e-07
5.0254e-07
5.08062e-07
5.29373e-07
5.9738e-07
6.86161e-07
6.96181e-07
6.71005e-07
6.68001e-07
6.67276e-07
6.64399e-07