/*--------------------------------*- C++ -*----------------------------------*\
| =========                 |                                                 |
| \\      /  F ield         | OpenFOAM: The Open Source CFD Toolbox           |
|  \\    /   O peration     | Version:  2.3.0                                 |
|   \\  /    A nd           | Web:      www.OpenFOAM.org                      |
|    \\/     M anipulation  |                                                 |
\*---------------------------------------------------------------------------*/
FoamFile
{
    version     2.0;
    format      ascii;
    class       volScalarField;
    location    "60";
    object      alpha.water;
}
// * * * * * * * * * * * * * * * * * * * * * * * * * * * * * * * * * * * * * //

dimensions      [0 0 0 0 0 0 0];

internalField   nonuniform List<scalar> 
6144
(
3.78967e-06
4.44646e-06
4.84146e-06
5.24403e-06
5.69501e-06
6.5547e-06
7.61725e-06
8.61955e-06
9.44125e-06
9.86998e-06
9.96034e-06
9.97279e-06
9.97623e-06
9.98113e-06
9.98377e-06
9.986e-06
9.98651e-06
9.98719e-06
9.98679e-06
9.98678e-06
9.98678e-06
9.98678e-06
9.98653e-06
9.98609e-06
9.98547e-06
9.98493e-06
9.98459e-06
9.98409e-06
9.98332e-06
9.98264e-06
9.98195e-06
9.98133e-06
9.98055e-06
9.97977e-06
9.9789e-06
9.97816e-06
9.97734e-06
9.97662e-06
9.97538e-06
9.97416e-06
9.97377e-06
9.99764e-06
1.03986e-05
1.16821e-05
1.4241e-05
1.83037e-05
2.33352e-05
2.99283e-05
4.16506e-05
6.18038e-05
8.96082e-05
0.000111022
0.000112141
0.00011727
0.000130826
0.000155859
0.000148059
0.000152732
0.00133889
0.0645787
0.961754
0.999783
0.999999
1
1
1
1
1
1
1
1
1
1
1
1
1
1
1
1
0.999999
0.999999
0.999999
0.999999
0.999999
0.999999
0.999999
0.999999
0.999999
0.999999
0.999999
0.999999
0.999999
0.999999
1
1
1
3.44592e-06
4.27636e-06
5.00743e-06
5.46786e-06
6.13871e-06
6.84573e-06
7.77302e-06
8.69506e-06
9.47513e-06
9.86156e-06
9.95256e-06
9.97022e-06
9.97642e-06
9.98399e-06
9.98915e-06
9.9928e-06
9.9941e-06
9.99456e-06
9.99394e-06
9.9936e-06
9.99363e-06
9.99341e-06
9.99298e-06
9.99255e-06
9.99208e-06
9.99177e-06
9.99195e-06
9.99164e-06
9.99116e-06
9.99078e-06
9.99048e-06
9.99006e-06
9.9894e-06
9.9885e-06
9.98742e-06
9.98626e-06
9.98509e-06
9.9838e-06
9.98227e-06
9.98072e-06
9.98229e-06
1.00759e-05
1.05334e-05
1.16397e-05
1.37671e-05
1.7172e-05
2.2392e-05
3.28035e-05
5.39374e-05
7.82706e-05
9.70493e-05
0.000103668
0.000104352
0.000117907
0.000140413
0.000159581
0.000154358
0.000158679
0.000658928
0.0555641
0.968833
0.999908
1
1
1
1
1
1
1
1
1
1
1
1
1
1
1
1
0.999999
0.999999
0.999999
0.999999
0.999999
0.999999
0.999999
0.999999
0.999999
0.999999
0.999999
0.999999
0.999999
0.999999
0.999999
1
1
1
3.2379e-06
3.94396e-06
4.81381e-06
5.45784e-06
6.27402e-06
6.98476e-06
7.90568e-06
8.72782e-06
9.31424e-06
9.69739e-06
9.86315e-06
9.92474e-06
9.95596e-06
9.97389e-06
9.98294e-06
9.98932e-06
9.99236e-06
9.99325e-06
9.9934e-06
9.99368e-06
9.9934e-06
9.99342e-06
9.99321e-06
9.99285e-06
9.99236e-06
9.99193e-06
9.99113e-06
9.99051e-06
9.99015e-06
9.98985e-06
9.98927e-06
9.98837e-06
9.9871e-06
9.98567e-06
9.98408e-06
9.98254e-06
9.98111e-06
9.9799e-06
9.97902e-06
9.97954e-06
1.00083e-05
1.02113e-05
1.06838e-05
1.16165e-05
1.35522e-05
1.70862e-05
2.42024e-05
3.94098e-05
6.47427e-05
8.57013e-05
9.68742e-05
0.000102316
0.000108961
0.000135665
0.000151928
0.000160064
0.000152862
0.000160886
0.000485419
0.0642815
0.979949
0.999952
0.999992
0.999995
0.999996
0.999996
0.999994
0.999993
0.999993
0.999994
0.999996
0.999997
0.999998
0.999999
0.999999
0.999999
0.999999
0.999998
0.999999
0.999999
0.999999
0.999999
0.999999
0.999999
0.999999
0.999999
0.999999
0.999999
0.999999
0.999999
0.999999
0.999999
0.999999
1
1
1
3.12333e-06
3.64384e-06
4.49273e-06
5.08408e-06
6.02838e-06
6.91544e-06
7.91077e-06
8.59846e-06
9.18281e-06
9.59096e-06
9.79882e-06
9.89817e-06
9.94545e-06
9.96846e-06
9.9783e-06
9.98554e-06
9.98876e-06
9.98937e-06
9.98919e-06
9.98915e-06
9.98898e-06
9.98879e-06
9.98857e-06
9.98807e-06
9.98746e-06
9.98672e-06
9.98613e-06
9.9856e-06
9.9853e-06
9.98501e-06
9.98483e-06
9.98431e-06
9.98348e-06
9.98228e-06
9.98106e-06
9.97973e-06
9.97854e-06
9.97825e-06
9.97832e-06
9.98299e-06
1.00569e-05
1.02989e-05
1.08224e-05
1.18658e-05
1.39227e-05
1.82016e-05
2.72046e-05
4.58561e-05
7.08066e-05
8.8397e-05
9.92472e-05
0.000113908
0.000136514
0.000157092
0.000156748
0.000159823
0.00015284
0.000164909
0.000218154
0.0879321
0.986591
0.999225
0.999348
0.999416
0.999388
0.99934
0.99929
0.999256
0.999246
0.999343
0.999453
0.99959
0.9997
0.999786
0.999839
0.999867
0.999886
0.999909
0.999938
0.999965
0.999984
0.999994
0.999998
0.999999
0.999999
0.999999
0.999999
0.999999
1
1
1
0.999999
0.999999
0.999999
1
1
3.01387e-06
3.40141e-06
4.17192e-06
4.71986e-06
5.63199e-06
6.40771e-06
7.67085e-06
8.50757e-06
9.07775e-06
9.50209e-06
9.74794e-06
9.8814e-06
9.94306e-06
9.97051e-06
9.98149e-06
9.98921e-06
9.9924e-06
9.9931e-06
9.99306e-06
9.99319e-06
9.99314e-06
9.99312e-06
9.99286e-06
9.99245e-06
9.99174e-06
9.99103e-06
9.99024e-06
9.98959e-06
9.98886e-06
9.98824e-06
9.98749e-06
9.98659e-06
9.98541e-06
9.98413e-06
9.98276e-06
9.98143e-06
9.98005e-06
9.97918e-06
9.97994e-06
1.00021e-05
1.00965e-05
1.03289e-05
1.0923e-05
1.22228e-05
1.47739e-05
1.98638e-05
3.07353e-05
5.07282e-05
7.30029e-05
9.15748e-05
0.00011132
0.000135045
0.000155514
0.000160967
0.000157301
0.000157642
0.000152568
0.000183149
0.000360973
0.116194
0.978124
0.994747
0.994561
0.994545
0.994326
0.994154
0.993994
0.993941
0.994097
0.994472
0.994975
0.995611
0.996232
0.996818
0.997308
0.997689
0.998005
0.998321
0.998689
0.999066
0.999393
0.999663
0.999839
0.999934
0.999979
0.999994
0.999999
0.999999
1
1
1
1
0.999999
0.999999
1
1
2.8872e-06
3.2205e-06
3.8433e-06
4.32774e-06
5.29533e-06
6.01124e-06
7.12718e-06
8.37109e-06
8.96781e-06
9.41776e-06
9.6962e-06
9.86041e-06
9.93486e-06
9.96577e-06
9.97591e-06
9.98295e-06
9.98623e-06
9.98681e-06
9.98682e-06
9.98686e-06
9.987e-06
9.98707e-06
9.98708e-06
9.98689e-06
9.98647e-06
9.98588e-06
9.98539e-06
9.98485e-06
9.98433e-06
9.98377e-06
9.98317e-06
9.9823e-06
9.98123e-06
9.97996e-06
9.97872e-06
9.97763e-06
9.97713e-06
9.97707e-06
9.97707e-06
9.99733e-06
1.0085e-05
1.0307e-05
1.09324e-05
1.23724e-05
1.53121e-05
2.1449e-05
3.37919e-05
5.1331e-05
7.04282e-05
9.06625e-05
0.000115566
0.000145374
0.000159927
0.000160543
0.000157055
0.000156209
0.000152761
0.000206782
0.000546217
0.132047
0.967217
0.989122
0.988034
0.987814
0.987717
0.987683
0.987699
0.987684
0.987955
0.988167
0.988498
0.988912
0.989566
0.990324
0.991091
0.991852
0.992532
0.993168
0.993886
0.994728
0.995641
0.996651
0.997627
0.998476
0.999137
0.99957
0.999827
0.999949
0.99999
0.999999
1
1
1
1
1
1
2.74851e-06
3.07242e-06
3.56691e-06
3.97935e-06
4.99871e-06
5.76365e-06
6.7031e-06
8.10909e-06
8.84364e-06
9.34515e-06
9.65107e-06
9.84572e-06
9.93395e-06
9.9681e-06
9.9789e-06
9.98722e-06
9.99073e-06
9.99139e-06
9.99124e-06
9.99132e-06
9.99125e-06
9.99062e-06
9.99006e-06
9.98958e-06
9.98889e-06
9.98807e-06
9.98725e-06
9.98658e-06
9.98596e-06
9.98536e-06
9.98463e-06
9.98365e-06
9.9824e-06
9.98101e-06
9.97962e-06
9.97847e-06
9.97788e-06
9.97768e-06
9.97793e-06
9.99377e-06
1.00658e-05
1.02679e-05
1.08878e-05
1.23581e-05
1.54566e-05
2.19716e-05
3.32718e-05
4.75964e-05
6.33715e-05
8.3894e-05
0.000116868
0.000153002
0.000160576
0.000159493
0.00015724
0.000156966
0.000159419
0.000213504
0.000394485
0.135049
0.960542
0.985754
0.98466
0.984599
0.98509
0.985309
0.985513
0.98563
0.98581
0.985913
0.985983
0.98599
0.985902
0.985859
0.986186
0.986552
0.986962
0.987445
0.988008
0.988568
0.989272
0.990126
0.991209
0.992527
0.994029
0.995615
0.997132
0.998408
0.999324
0.999808
0.999959
0.999973
0.999968
0.999971
0.999962
0.999985
2.55993e-06
2.93232e-06
3.3559e-06
3.71252e-06
4.74386e-06
5.6124e-06
6.64384e-06
7.69376e-06
8.65437e-06
9.2776e-06
9.63185e-06
9.83864e-06
9.93092e-06
9.96778e-06
9.97721e-06
9.98667e-06
9.99059e-06
9.99137e-06
9.9912e-06
9.99124e-06
9.99124e-06
9.99147e-06
9.99159e-06
9.99162e-06
9.9915e-06
9.99129e-06
9.99099e-06
9.99069e-06
9.99039e-06
9.98994e-06
9.98919e-06
9.98816e-06
9.98689e-06
9.98553e-06
9.98435e-06
9.98344e-06
9.98291e-06
9.98271e-06
9.98363e-06
9.9928e-06
1.0039e-05
1.0196e-05
1.08331e-05
1.2448e-05
1.57192e-05
2.19328e-05
3.14095e-05
4.2689e-05
5.6159e-05
7.78309e-05
0.00012274
0.00015693
0.000160318
0.000158912
0.000157795
0.000159068
0.000167455
0.000204537
0.000288385
0.156933
0.967417
0.987063
0.986499
0.987117
0.987672
0.987906
0.987972
0.98782
0.987587
0.987314
0.986851
0.986249
0.985621
0.985055
0.98454
0.984352
0.984364
0.984465
0.98503
0.985608
0.986067
0.986394
0.98656
0.986838
0.987274
0.988125
0.989463
0.991171
0.993353
0.995984
0.998508
0.999987
0.999987
0.999987
0.999987
0.999987
2.30875e-06
2.7672e-06
3.12308e-06
3.48454e-06
4.49466e-06
5.48892e-06
6.70957e-06
7.2336e-06
8.40676e-06
9.20538e-06
9.60605e-06
9.82147e-06
9.92054e-06
9.96015e-06
9.96916e-06
9.97963e-06
9.98428e-06
9.98563e-06
9.98542e-06
9.98545e-06
9.98562e-06
9.98613e-06
9.98645e-06
9.9866e-06
9.98661e-06
9.98653e-06
9.98633e-06
9.98609e-06
9.98583e-06
9.98547e-06
9.98486e-06
9.98395e-06
9.98276e-06
9.98154e-06
9.98066e-06
9.98036e-06
9.98036e-06
9.98036e-06
9.98036e-06
9.98414e-06
1.00103e-05
1.01509e-05
1.08169e-05
1.2509e-05
1.57941e-05
2.1652e-05
2.95352e-05
3.88346e-05
5.26761e-05
7.98404e-05
0.000129823
0.000158427
0.000160678
0.000160541
0.000159755
0.000159553
0.000156187
0.000182337
0.000426894
0.112254
0.96691
0.993145
0.993445
0.994521
0.994947
0.995182
0.994903
0.994554
0.994198
0.993872
0.993581
0.993235
0.992735
0.992334
0.992151
0.992026
0.991863
0.991849
0.992011
0.991966
0.991628
0.991244
0.990701
0.990091
0.989705
0.989572
0.990327
0.991126
0.992429
0.994268
0.996614
0.998705
0.999464
0.999254
0.999184
0.999858
2.07185e-06
2.42847e-06
2.761e-06
3.13341e-06
4.17018e-06
5.31299e-06
6.72261e-06
7.33648e-06
8.33698e-06
9.20575e-06
9.6149e-06
9.82104e-06
9.91588e-06
9.96077e-06
9.97245e-06
9.9841e-06
9.98979e-06
9.99148e-06
9.99101e-06
9.99089e-06
9.99084e-06
9.99102e-06
9.99105e-06
9.99085e-06
9.99049e-06
9.99003e-06
9.98947e-06
9.9889e-06
9.98831e-06
9.98762e-06
9.98669e-06
9.9854e-06
9.98376e-06
9.98227e-06
9.98128e-06
9.98092e-06
9.98073e-06
9.98058e-06
9.98068e-06
9.98155e-06
9.99615e-06
1.01424e-05
1.08384e-05
1.24801e-05
1.54757e-05
2.09591e-05
2.80975e-05
3.59924e-05
4.80408e-05
7.14591e-05
9.7435e-05
0.000149058
0.000159652
0.000159655
0.000154273
0.000150203
0.000146206
0.000161266
0.000171183
0.082463
0.973059
0.998193
0.998397
0.998662
0.998667
0.998728
0.998536
0.998335
0.998142
0.997937
0.997766
0.99759
0.997429
0.997292
0.997259
0.997385
0.997474
0.997658
0.997744
0.997585
0.997358
0.997072
0.996734
0.996408
0.996117
0.99591
0.995992
0.996297
0.996629
0.997358
0.998315
0.999246
0.999682
0.999674
0.999849
0.99996
1.85901e-06
2.12706e-06
2.35643e-06
2.70266e-06
3.74164e-06
5.0206e-06
6.74227e-06
7.86029e-06
8.34543e-06
9.20783e-06
9.64048e-06
9.82409e-06
9.90449e-06
9.95164e-06
9.96549e-06
9.97831e-06
9.98469e-06
9.98717e-06
9.98727e-06
9.98767e-06
9.98807e-06
9.98857e-06
9.98891e-06
9.989e-06
9.98902e-06
9.98889e-06
9.98866e-06
9.98832e-06
9.9879e-06
9.98737e-06
9.98666e-06
9.9855e-06
9.98413e-06
9.98285e-06
9.9821e-06
9.98184e-06
9.98161e-06
9.98151e-06
9.98159e-06
9.98217e-06
9.99433e-06
1.01619e-05
1.09466e-05
1.25382e-05
1.516e-05
1.97854e-05
2.62353e-05
3.33392e-05
4.35609e-05
7.00513e-05
8.89021e-05
0.000119392
0.000147391
0.000158067
0.000154212
0.000154948
0.000145488
0.000154462
0.000147246
0.0726908
0.987611
0.999705
0.999738
0.999783
0.9998
0.999818
0.9998
0.999782
0.999767
0.999744
0.999725
0.999712
0.999703
0.999698
0.999703
0.999748
0.999775
0.999796
0.999801
0.999769
0.999726
0.999672
0.999617
0.999573
0.999548
0.999528
0.999514
0.999562
0.999598
0.999662
0.99975
0.99984
0.999915
0.999953
0.99999
0.999993
1.75137e-06
1.9126e-06
1.98334e-06
2.16111e-06
3.02658e-06
4.2664e-06
6.17939e-06
7.76583e-06
8.44489e-06
9.23282e-06
9.69031e-06
9.84054e-06
9.89851e-06
9.93631e-06
9.95278e-06
9.97144e-06
9.98395e-06
9.98793e-06
9.98809e-06
9.98846e-06
9.98881e-06
9.98924e-06
9.9895e-06
9.9896e-06
9.98963e-06
9.98956e-06
9.98936e-06
9.98908e-06
9.98864e-06
9.98823e-06
9.98797e-06
9.98723e-06
9.98639e-06
9.98563e-06
9.98528e-06
9.98515e-06
9.98497e-06
9.98494e-06
9.98484e-06
9.98541e-06
9.99724e-06
1.01926e-05
1.10262e-05
1.27147e-05
1.52586e-05
1.91882e-05
2.43654e-05
3.09341e-05
4.18707e-05
6.94823e-05
9.7825e-05
0.000108528
0.000123992
0.000145193
0.00014865
0.000153611
0.000145338
0.000153454
0.000199163
0.0676945
0.994264
0.999974
0.999981
0.999986
0.999989
0.999991
0.999992
0.999993
0.999994
0.999994
0.999994
0.999994
0.999995
0.999996
0.999997
0.999998
0.999998
0.999999
0.999998
0.999997
0.999995
0.999993
0.99999
0.999988
0.999987
0.999986
0.999986
0.999987
0.999987
0.999989
0.999991
0.999993
0.999997
0.999999
0.999999
0.999999
1.6536e-06
1.83296e-06
1.8241e-06
1.82451e-06
2.29744e-06
3.2359e-06
4.94896e-06
6.91536e-06
8.57318e-06
9.2671e-06
9.72982e-06
9.86891e-06
9.91581e-06
9.94248e-06
9.9563e-06
9.97699e-06
9.98913e-06
9.99354e-06
9.99314e-06
9.99295e-06
9.99299e-06
9.99306e-06
9.99308e-06
9.99302e-06
9.99287e-06
9.9926e-06
9.99221e-06
9.99174e-06
9.99112e-06
9.9905e-06
9.98992e-06
9.98897e-06
9.98808e-06
9.98736e-06
9.98697e-06
9.98675e-06
9.98655e-06
9.98675e-06
9.9869e-06
9.98778e-06
1.0001e-05
1.01882e-05
1.09985e-05
1.28372e-05
1.56647e-05
1.93523e-05
2.37639e-05
2.97673e-05
4.13544e-05
6.79094e-05
0.000100702
0.000114264
0.000118553
0.000129032
0.000133384
0.000143671
0.000143704
0.000160142
0.00048872
0.044145
0.98812
0.99998
1
0.999999
0.999999
0.999999
0.999999
0.999999
0.999999
0.999999
0.999999
0.999999
0.999999
0.999999
0.999999
0.999999
0.999999
0.999999
0.999999
0.999999
0.999999
0.999999
0.999999
0.999999
0.999999
0.999999
0.999999
0.999999
0.999999
0.999999
0.999999
0.999999
0.999999
0.999999
0.999999
0.999999
1.66115e-06
1.88417e-06
1.80797e-06
1.80126e-06
1.8909e-06
2.54891e-06
3.81884e-06
5.79058e-06
8.21188e-06
9.36191e-06
9.75732e-06
9.86671e-06
9.90817e-06
9.93679e-06
9.95175e-06
9.97518e-06
9.99673e-06
9.99702e-06
9.99702e-06
9.99701e-06
9.99701e-06
9.99701e-06
9.99701e-06
9.99701e-06
9.99668e-06
9.99614e-06
9.99546e-06
9.99474e-06
9.99396e-06
9.99318e-06
9.99222e-06
9.99104e-06
9.98992e-06
9.98908e-06
9.98861e-06
9.9884e-06
9.98831e-06
9.98863e-06
9.98911e-06
9.99027e-06
1.00048e-05
1.01731e-05
1.09406e-05
1.28272e-05
1.59705e-05
1.97836e-05
2.38679e-05
2.94638e-05
4.14746e-05
7.16287e-05
0.000108578
0.00012408
0.000122144
0.000130862
0.000134448
0.000144498
0.000152508
0.000188085
0.000625295
0.0405575
0.963279
0.999846
1
0.999999
0.999999
0.999999
0.999999
0.999999
0.999999
0.999999
0.999999
0.999999
0.999999
0.999999
0.999999
0.999999
0.999999
0.999999
0.999999
0.999999
0.999999
0.999999
0.999999
0.999999
0.999999
0.999999
0.999999
0.999999
0.999999
0.999999
0.999999
0.999999
0.999999
0.999999
0.999999
1
1.72547e-06
2.15444e-06
2.17951e-06
2.12758e-06
2.03554e-06
2.37589e-06
3.14082e-06
4.65862e-06
7.56333e-06
9.41228e-06
9.75036e-06
9.84683e-06
9.88377e-06
9.91959e-06
9.94083e-06
9.96665e-06
9.99278e-06
9.99531e-06
9.9954e-06
9.99549e-06
9.99553e-06
9.9955e-06
9.99541e-06
9.99533e-06
9.99492e-06
9.99436e-06
9.9937e-06
9.99303e-06
9.99235e-06
9.99164e-06
9.99072e-06
9.98958e-06
9.98857e-06
9.98787e-06
9.98751e-06
9.98737e-06
9.98735e-06
9.98745e-06
9.98787e-06
9.989e-06
1.00049e-05
1.01534e-05
1.08736e-05
1.2779e-05
1.59481e-05
1.98241e-05
2.38981e-05
2.93016e-05
4.20352e-05
7.56648e-05
0.000111188
0.0001255
0.000129652
0.000137488
0.000137441
0.000147513
0.000166809
0.000197452
0.000649752
0.0536431
0.962602
0.99984
1
0.999999
0.999999
0.999999
0.999999
0.999999
0.999999
0.999999
0.999999
0.999999
1
1
1
1
0.999999
0.999999
0.999999
0.999999
0.999999
0.999999
0.999999
0.999999
0.999999
0.999999
0.999999
0.999999
0.999999
0.999999
0.999999
0.999999
0.999999
0.999999
1
1
1.46046e-06
1.545e-06
2.28423e-06
2.63757e-06
2.60407e-06
2.60389e-06
3.19522e-06
4.32834e-06
7.09261e-06
9.38608e-06
9.72891e-06
9.81628e-06
9.86024e-06
9.90218e-06
9.93233e-06
9.96864e-06
1.00006e-05
1.00022e-05
1.00022e-05
1.00022e-05
1.00022e-05
1.00022e-05
1.00022e-05
1.00022e-05
1.00019e-05
1.00013e-05
1.00007e-05
1e-05
9.99944e-06
9.9988e-06
9.9979e-06
9.99683e-06
9.99577e-06
9.995e-06
9.99459e-06
9.99445e-06
9.99446e-06
9.99447e-06
9.99483e-06
9.99583e-06
1.00118e-05
1.01288e-05
1.07111e-05
1.24526e-05
1.56074e-05
1.96655e-05
2.40746e-05
2.99187e-05
4.30156e-05
7.16971e-05
0.000107772
0.000128215
0.000137492
0.000143149
0.000140836
0.000155823
0.00017749
0.000233228
0.001087
0.0673203
0.959067
0.999752
0.999999
0.999999
0.999999
0.999999
0.999999
0.999999
0.999999
0.999999
0.999999
0.999999
0.999999
0.999999
0.999999
0.999999
1
1
0.999999
0.999999
0.999999
0.999999
0.999999
0.999999
0.999999
0.999999
0.999999
0.999999
0.999999
0.999999
0.999999
0.999999
1
1
1
1
3.2377e-06
4.29111e-06
4.86448e-06
5.29341e-06
5.77189e-06
6.74733e-06
7.83931e-06
8.81697e-06
9.55024e-06
9.83992e-06
9.90206e-06
9.93744e-06
9.96841e-06
9.98721e-06
9.99774e-06
1.00069e-05
1.00069e-05
1.00069e-05
1.00069e-05
1.00069e-05
1.00065e-05
1.00058e-05
1.00052e-05
1.00046e-05
1.0004e-05
1.00037e-05
1.00036e-05
1.00035e-05
1.00034e-05
1.00032e-05
1.00029e-05
1.00023e-05
1.00013e-05
1.00003e-05
9.99918e-06
9.99818e-06
9.99726e-06
9.99622e-06
9.99487e-06
9.99643e-06
1.00082e-05
1.00564e-05
1.03808e-05
1.15661e-05
1.41597e-05
1.85069e-05
2.3802e-05
3.0042e-05
3.96779e-05
5.61012e-05
8.36748e-05
0.000111509
0.000113639
0.000116464
0.000119231
0.000149063
0.00014122
0.000185384
0.000962269
0.0673383
0.96195
0.999921
1
1
1
1
1
1
1
1
1
1
1
1
1
1
1
1
1
1
0.999999
0.999999
0.999999
0.999999
0.999999
0.999999
0.999999
0.999999
0.999999
0.999999
0.999999
0.999999
0.999999
0.999999
1
1
2.49359e-06
3.81038e-06
5.25068e-06
5.80241e-06
6.44909e-06
7.20439e-06
8.11237e-06
8.85404e-06
9.31244e-06
9.55246e-06
9.72978e-06
9.85481e-06
9.93178e-06
9.96901e-06
9.98353e-06
9.99579e-06
1.00024e-05
1.00036e-05
1.00035e-05
1.00035e-05
1.00035e-05
1.00036e-05
1.00037e-05
1.00036e-05
1.00031e-05
1.00024e-05
1.00016e-05
1.00011e-05
1.00006e-05
1.00001e-05
9.99937e-06
9.99825e-06
9.99683e-06
9.99537e-06
9.99398e-06
9.99286e-06
9.99197e-06
9.99139e-06
9.99129e-06
9.9988e-06
1.00309e-05
1.01844e-05
1.0695e-05
1.18277e-05
1.40361e-05
1.78396e-05
2.34559e-05
3.26812e-05
4.893e-05
6.92074e-05
8.67535e-05
0.000107209
0.000108085
0.000111363
0.000121165
0.00014772
0.00015291
0.000224391
0.000571334
0.0962951
0.991274
0.999991
1
1
1
1
1
0.999999
0.999999
0.999999
0.999999
0.999999
1
1
1
1
1
1
0.999999
0.999999
0.999999
0.999999
0.999999
0.999999
0.999999
0.999999
0.999999
0.999999
0.999999
0.999999
0.999999
0.999999
0.999999
0.999999
1
1
2.20173e-06
3.05795e-06
4.86943e-06
5.65407e-06
6.33775e-06
6.93688e-06
7.67473e-06
8.40399e-06
8.96537e-06
9.35127e-06
9.62916e-06
9.81643e-06
9.91592e-06
9.96281e-06
9.97802e-06
9.99151e-06
9.99946e-06
1.00006e-05
1.00005e-05
1.00006e-05
1.00006e-05
1.00005e-05
1.00004e-05
1.00001e-05
9.99955e-06
9.99895e-06
9.99837e-06
9.9978e-06
9.99726e-06
9.99671e-06
9.99596e-06
9.99477e-06
9.99338e-06
9.992e-06
9.99083e-06
9.98992e-06
9.98928e-06
9.98907e-06
9.99034e-06
9.99828e-06
1.00354e-05
1.02648e-05
1.11043e-05
1.28062e-05
1.53976e-05
2.00143e-05
2.78821e-05
3.93216e-05
5.82348e-05
7.68334e-05
8.71855e-05
0.000102746
0.000109656
0.000116106
0.000134461
0.000158159
0.000141867
0.000212179
0.00035683
0.0979765
0.994128
0.999993
0.999994
0.999997
0.999997
0.999997
0.999996
0.999997
0.999997
0.999998
0.999999
0.999999
0.999999
1
1
0.999999
0.999999
0.999999
0.999999
0.999999
0.999999
0.999999
0.999999
0.999999
0.999999
0.999999
0.999999
0.999999
0.999999
0.999999
0.999999
0.999999
0.999999
0.999999
1
1
2.08524e-06
2.43317e-06
4.0917e-06
4.9421e-06
5.71957e-06
6.43326e-06
7.23672e-06
8.05194e-06
8.74962e-06
9.26081e-06
9.59205e-06
9.80372e-06
9.9096e-06
9.95969e-06
9.9746e-06
9.98833e-06
9.99689e-06
9.99786e-06
9.99762e-06
9.99751e-06
9.99735e-06
9.99718e-06
9.997e-06
9.99667e-06
9.99608e-06
9.99548e-06
9.99493e-06
9.99443e-06
9.99397e-06
9.99349e-06
9.99277e-06
9.99164e-06
9.9903e-06
9.98895e-06
9.98784e-06
9.98704e-06
9.98653e-06
9.98633e-06
9.98849e-06
9.9974e-06
1.00342e-05
1.02928e-05
1.1306e-05
1.35265e-05
1.71548e-05
2.2816e-05
3.18216e-05
4.49413e-05
6.42979e-05
8.09648e-05
9.08998e-05
0.000101745
0.000107743
0.000127947
0.000146021
0.00016205
0.000169811
0.000183804
0.000167787
0.142984
0.996625
0.999573
0.999619
0.999655
0.999645
0.999631
0.999617
0.999619
0.999647
0.999713
0.999784
0.999856
0.999913
0.999952
0.999972
0.999979
0.999982
0.999985
0.999987
0.999991
0.999994
0.999997
0.999998
0.999999
0.999999
0.999999
0.999999
0.999999
0.999999
0.999999
1
0.999999
0.999999
0.999999
0.999999
1
2.00311e-06
2.02936e-06
3.42597e-06
4.38158e-06
5.26152e-06
6.07274e-06
6.94076e-06
7.82341e-06
8.61082e-06
9.20834e-06
9.57216e-06
9.79795e-06
9.90665e-06
9.95827e-06
9.97302e-06
9.98667e-06
9.99567e-06
9.9965e-06
9.99624e-06
9.99608e-06
9.99589e-06
9.99565e-06
9.99541e-06
9.99508e-06
9.99448e-06
9.99388e-06
9.99335e-06
9.99289e-06
9.99246e-06
9.992e-06
9.99132e-06
9.99021e-06
9.98887e-06
9.98751e-06
9.9864e-06
9.98565e-06
9.98527e-06
9.9852e-06
9.98805e-06
9.99866e-06
1.00389e-05
1.02896e-05
1.13026e-05
1.3642e-05
1.76947e-05
2.39104e-05
3.30286e-05
4.66764e-05
6.47071e-05
8.02085e-05
9.39243e-05
0.000107924
0.000131909
0.000154238
0.000157197
0.000166228
0.000174032
0.000165193
0.000147245
0.204352
0.989272
0.995535
0.995602
0.995649
0.995656
0.995583
0.995541
0.99565
0.996074
0.996438
0.99692
0.99743
0.997925
0.998374
0.998733
0.998974
0.99912
0.999235
0.99936
0.999488
0.999615
0.999723
0.99981
0.999885
0.999936
0.999968
0.999986
0.999995
0.999999
1
1
1
1
0.999999
0.999999
1
1.91582e-06
1.76682e-06
2.8155e-06
3.83351e-06
4.8477e-06
5.79045e-06
6.74437e-06
7.68088e-06
8.5262e-06
9.18023e-06
9.56321e-06
9.79598e-06
9.90545e-06
9.95746e-06
9.97195e-06
9.98546e-06
9.99468e-06
9.99534e-06
9.99505e-06
9.99485e-06
9.99464e-06
9.99436e-06
9.99408e-06
9.99376e-06
9.99315e-06
9.99257e-06
9.99208e-06
9.99165e-06
9.9913e-06
9.99092e-06
9.99032e-06
9.98927e-06
9.98799e-06
9.98668e-06
9.98561e-06
9.98495e-06
9.98471e-06
9.98476e-06
9.98837e-06
9.99984e-06
1.00402e-05
1.0274e-05
1.12215e-05
1.34548e-05
1.73829e-05
2.32898e-05
3.13616e-05
4.21923e-05
5.46808e-05
6.976e-05
9.59724e-05
0.000140985
0.000157963
0.000160291
0.000159053
0.000167615
0.000173682
0.000181125
0.000147245
0.299947
0.98033
0.987595
0.987198
0.987047
0.987017
0.987049
0.987678
0.98822
0.989016
0.989728
0.990496
0.991231
0.992
0.992849
0.993599
0.994164
0.994614
0.99504
0.995464
0.995794
0.996207
0.996551
0.996896
0.9973
0.997792
0.998324
0.998905
0.999441
0.999814
0.999971
0.999998
1
1
1
1
1
1.84994e-06
1.5753e-06
2.32775e-06
3.27601e-06
4.4647e-06
5.53931e-06
6.59597e-06
7.58789e-06
8.47713e-06
9.16718e-06
9.55959e-06
9.79525e-06
9.90504e-06
9.95716e-06
9.97152e-06
9.98497e-06
9.99429e-06
9.99482e-06
9.99455e-06
9.99435e-06
9.99417e-06
9.99392e-06
9.99364e-06
9.99333e-06
9.99274e-06
9.99219e-06
9.99174e-06
9.99134e-06
9.99103e-06
9.99068e-06
9.99012e-06
9.98911e-06
9.98788e-06
9.9866e-06
9.98557e-06
9.98501e-06
9.98482e-06
9.98526e-06
9.98933e-06
1.00005e-05
1.00391e-05
1.02553e-05
1.11722e-05
1.3377e-05
1.71471e-05
2.25663e-05
2.96436e-05
3.82552e-05
4.85581e-05
6.34128e-05
0.00010475
0.000159208
0.00016129
0.000161336
0.000165079
0.000167287
0.000161082
0.000158576
0.000147245
0.32465
0.975452
0.983296
0.982592
0.982285
0.982137
0.981844
0.981816
0.981749
0.982464
0.983218
0.984188
0.985018
0.985719
0.986291
0.98678
0.987004
0.987159
0.986996
0.986666
0.986378
0.986193
0.986032
0.985625
0.984796
0.984169
0.983893
0.9851
0.98743
0.991496
0.995937
0.998575
0.997909
0.997281
0.996327
0.995149
0.994084
1.78734e-06
1.45529e-06
1.94255e-06
2.6862e-06
3.94332e-06
5.21835e-06
6.45751e-06
7.51436e-06
8.44551e-06
9.16184e-06
9.5587e-06
9.79691e-06
9.9069e-06
9.95816e-06
9.97138e-06
9.98475e-06
9.99407e-06
9.99458e-06
9.99441e-06
9.9943e-06
9.99422e-06
9.99431e-06
9.99421e-06
9.99408e-06
9.99361e-06
9.99314e-06
9.9927e-06
9.99229e-06
9.9919e-06
9.99147e-06
9.99087e-06
9.9898e-06
9.98851e-06
9.98723e-06
9.98623e-06
9.98559e-06
9.98525e-06
9.98543e-06
9.98915e-06
1.00012e-05
1.00378e-05
1.02304e-05
1.10852e-05
1.3235e-05
1.68184e-05
2.17495e-05
2.82838e-05
3.63604e-05
4.61252e-05
6.23828e-05
0.00013724
0.000161426
0.000160158
0.000160182
0.000162572
0.000163486
0.000160997
0.000163065
0.000147245
0.215785
0.968713
0.983313
0.981933
0.98156
0.981284
0.980462
0.979867
0.979019
0.978489
0.978133
0.978036
0.977972
0.978139
0.978275
0.978268
0.97719
0.976359
0.974173
0.971458
0.968374
0.965701
0.963873
0.962355
0.960547
0.957807
0.953913
0.949045
0.943139
0.935692
0.926077
0.914503
0.902996
0.892057
0.867
0.812756
0.616989
1.69327e-06
1.38727e-06
1.64821e-06
2.11052e-06
3.24183e-06
4.69591e-06
6.24768e-06
7.44114e-06
8.42142e-06
9.16111e-06
9.56872e-06
9.80254e-06
9.91132e-06
9.96068e-06
9.97316e-06
9.98665e-06
9.99597e-06
9.99609e-06
9.99586e-06
9.99567e-06
9.99554e-06
9.99542e-06
9.99535e-06
9.99528e-06
9.99485e-06
9.99441e-06
9.99401e-06
9.99363e-06
9.9933e-06
9.99291e-06
9.99235e-06
9.9913e-06
9.99004e-06
9.98877e-06
9.98776e-06
9.98713e-06
9.98682e-06
9.98725e-06
9.99175e-06
1.00039e-05
1.00386e-05
1.02131e-05
1.09996e-05
1.30473e-05
1.64512e-05
2.09439e-05
2.69026e-05
3.46447e-05
4.39055e-05
6.50068e-05
0.000142401
0.000164621
0.000165442
0.000165242
0.000165934
0.000168264
0.00017044
0.000167527
0.000147245
0.173331
0.970069
0.98706
0.985572
0.985138
0.984406
0.983367
0.981897
0.980567
0.979276
0.978245
0.977045
0.975448
0.973892
0.972441
0.971336
0.97029
0.96925
0.967607
0.965401
0.962936
0.960972
0.958565
0.955774
0.953019
0.950184
0.9472
0.942501
0.937373
0.932128
0.926341
0.919952
0.913794
0.910994
0.912908
0.919756
0.929033
1.58437e-06
1.33629e-06
1.42714e-06
1.6669e-06
2.46367e-06
4.00249e-06
5.92825e-06
7.36157e-06
8.40862e-06
9.16555e-06
9.57799e-06
9.81056e-06
9.91809e-06
9.96328e-06
9.97431e-06
9.98815e-06
9.99762e-06
9.99769e-06
9.99758e-06
9.99746e-06
9.99738e-06
9.99734e-06
9.99729e-06
9.99722e-06
9.99679e-06
9.99633e-06
9.99589e-06
9.99548e-06
9.99507e-06
9.9946e-06
9.99397e-06
9.99282e-06
9.99145e-06
9.99009e-06
9.98895e-06
9.98812e-06
9.98764e-06
9.98815e-06
9.99278e-06
1.0005e-05
1.00399e-05
1.02074e-05
1.09428e-05
1.28956e-05
1.61143e-05
2.03829e-05
2.57499e-05
3.25257e-05
4.1237e-05
6.1581e-05
9.56088e-05
0.000159821
0.000162293
0.000159052
0.000154971
0.000160633
0.000170499
0.000174493
0.000147245
0.134542
0.978617
0.994486
0.994423
0.995028
0.994926
0.994793
0.993964
0.993294
0.992501
0.991747
0.990747
0.9899
0.989377
0.989203
0.989472
0.989848
0.990305
0.990484
0.989792
0.988426
0.986309
0.983244
0.979949
0.976652
0.973914
0.971842
0.97014
0.968421
0.967617
0.967317
0.969231
0.972769
0.979462
0.987575
0.994161
0.997472
1.4959e-06
1.29356e-06
1.29707e-06
1.36064e-06
1.85621e-06
3.18868e-06
5.33214e-06
7.11777e-06
8.38202e-06
9.16478e-06
9.5868e-06
9.82126e-06
9.92402e-06
9.96417e-06
9.97388e-06
9.98826e-06
9.99792e-06
9.9979e-06
9.99792e-06
9.9979e-06
9.99791e-06
9.9979e-06
9.9979e-06
9.99782e-06
9.99744e-06
9.99703e-06
9.99661e-06
9.99623e-06
9.99588e-06
9.99548e-06
9.99493e-06
9.99387e-06
9.99256e-06
9.99131e-06
9.99028e-06
9.98959e-06
9.98919e-06
9.98974e-06
9.99409e-06
1.00068e-05
1.00419e-05
1.02045e-05
1.08984e-05
1.27801e-05
1.58298e-05
1.98284e-05
2.48478e-05
3.10352e-05
4.01956e-05
6.06489e-05
8.08354e-05
0.000115042
0.00014495
0.000157078
0.000154549
0.000156076
0.000151195
0.000176451
0.000149389
0.117181
0.989993
0.998833
0.998875
0.99909
0.999111
0.999145
0.999018
0.998927
0.998857
0.998813
0.998735
0.998649
0.998617
0.99868
0.998753
0.99882
0.998961
0.999018
0.99887
0.998695
0.998403
0.998031
0.997609
0.997139
0.996828
0.996712
0.996885
0.99707
0.997249
0.997574
0.998184
0.998834
0.999434
0.999802
0.999949
0.999982
1.45032e-06
1.2549e-06
1.23426e-06
1.22331e-06
1.49152e-06
2.52685e-06
4.5152e-06
6.7201e-06
8.38428e-06
9.2247e-06
9.61862e-06
9.83952e-06
9.93032e-06
9.9644e-06
9.9715e-06
9.98516e-06
9.9959e-06
9.99791e-06
9.9979e-06
9.99791e-06
9.9979e-06
9.9979e-06
9.9979e-06
9.99768e-06
9.99734e-06
9.99696e-06
9.99659e-06
9.99622e-06
9.99593e-06
9.99557e-06
9.99499e-06
9.99393e-06
9.99263e-06
9.99138e-06
9.99038e-06
9.98972e-06
9.98933e-06
9.98999e-06
9.99422e-06
1.00073e-05
1.00421e-05
1.01886e-05
1.08422e-05
1.26865e-05
1.56659e-05
1.95001e-05
2.42311e-05
3.03313e-05
4.06139e-05
6.11198e-05
8.99509e-05
0.000102638
0.000118968
0.000143717
0.000148496
0.000154156
0.000150175
0.000169607
0.000257858
0.072369
0.993883
0.999883
0.999891
0.999933
0.99994
0.999951
0.999945
0.999943
0.999944
0.999948
0.99995
0.999949
0.999945
0.99995
0.999955
0.999958
0.999963
0.999965
0.999962
0.99996
0.999952
0.999947
0.999946
0.999948
0.999957
0.999963
0.999968
0.999975
0.999981
0.999986
0.99999
0.999995
0.999998
0.999999
0.999999
0.999999
1.45014e-06
1.31741e-06
1.2238e-06
1.19603e-06
1.19478e-06
1.64724e-06
3.01504e-06
5.3965e-06
7.99614e-06
9.2808e-06
9.65319e-06
9.85498e-06
9.93226e-06
9.95694e-06
9.96536e-06
9.98309e-06
9.99469e-06
9.99693e-06
9.99722e-06
9.99766e-06
9.9979e-06
9.99783e-06
9.99762e-06
9.99769e-06
9.99741e-06
9.99708e-06
9.99673e-06
9.99638e-06
9.99601e-06
9.99561e-06
9.99464e-06
9.99309e-06
9.99149e-06
9.99018e-06
9.98924e-06
9.98881e-06
9.98866e-06
9.98869e-06
9.99147e-06
1.00009e-05
1.00293e-05
1.01611e-05
1.07919e-05
1.26575e-05
1.5754e-05
1.94148e-05
2.38049e-05
3.0098e-05
4.14084e-05
6.29597e-05
9.33891e-05
0.000112754
0.000116295
0.000128439
0.000135753
0.00014575
0.000154368
0.000209637
0.00027883
0.0473852
0.995132
0.999998
0.999997
0.999999
0.999999
0.999999
0.999999
0.999999
0.999998
0.999998
0.999999
0.999999
0.999999
0.999998
0.999999
0.999999
0.999999
0.999999
0.999999
0.999999
0.999999
0.999999
0.999999
0.999999
0.999999
0.999999
0.999999
0.999999
0.999999
0.999999
0.999999
0.999999
0.999999
0.999999
1
1
1.56841e-06
1.71914e-06
1.50292e-06
1.4946e-06
1.14096e-06
1.14398e-06
1.62389e-06
3.26335e-06