/*--------------------------------*- C++ -*----------------------------------*\
| =========                 |                                                 |
| \\      /  F ield         | OpenFOAM: The Open Source CFD Toolbox           |
|  \\    /   O peration     | Version:  2.3.0                                 |
|   \\  /    A nd           | Web:      www.OpenFOAM.org                      |
|    \\/     M anipulation  |                                                 |
\*---------------------------------------------------------------------------*/
FoamFile
{
    version     2.0;
    format      ascii;
    class       surfaceScalarField;
    location    "60";
    object      phi.air;
}
// * * * * * * * * * * * * * * * * * * * * * * * * * * * * * * * * * * * * * //

dimensions      [0 3 -1 0 0 0 0];

internalField   nonuniform List<scalar> 
16448
(
-1.22403e-06
-2.42606e-06
6.06672e-07
5.19512e-07
-2.53388e-06
7.90336e-07
5.50448e-07
-1.22477e-06
1.19383e-06
4.9328e-07
-1.02764e-06
1.0848e-06
1.62703e-07
-5.6056e-07
8.91128e-07
4.71241e-08
-6.66744e-07
7.82315e-07
4.33057e-08
-6.84831e-07
6.8864e-07
3.69705e-08
-6.49767e-07
6.56094e-07
-5.69165e-08
-4.90364e-07
5.84242e-07
-2.51532e-07
-3.32509e-07
5.27117e-07
-4.69828e-07
-2.42652e-07
4.60941e-07
-5.86159e-07
-2.52626e-07
3.6895e-07
-5.87695e-07
-2.94219e-07
2.95747e-07
-4.96572e-07
-3.38812e-07
2.47681e-07
-3.82928e-07
-3.57434e-07
2.43782e-07
-2.58763e-07
-3.77785e-07
2.5361e-07
-1.44922e-07
-3.92592e-07
2.78742e-07
-4.64375e-08
-4.07466e-07
3.08972e-07
2.9324e-08
-4.20234e-07
3.44463e-07
8.05106e-08
-4.2981e-07
3.78613e-07
1.04371e-07
-4.34628e-07
4.10758e-07
1.05101e-07
-4.38199e-07
4.37458e-07
9.05735e-08
-4.40046e-07
4.54563e-07
6.71353e-08
-4.36711e-07
4.60138e-07
3.89708e-08
-4.27894e-07
4.56048e-07
1.02247e-08
-4.1489e-07
4.43625e-07
-1.50707e-08
-4.00146e-07
4.2543e-07
-3.29499e-08
-3.879e-07
4.05767e-07
-4.38415e-08
-3.74749e-07
3.85629e-07
-5.1505e-08
-3.59849e-07
3.675e-07
-5.92466e-08
-3.43778e-07
3.51508e-07
-6.84516e-08
-3.27589e-07
3.36782e-07
-7.96946e-08
-3.11999e-07
3.23231e-07
-9.21629e-08
-2.9824e-07
3.10695e-07
-1.04456e-07
-2.87555e-07
2.99836e-07
-1.18056e-07
-2.79671e-07
2.93258e-07
-1.4085e-07
-2.71544e-07
2.94325e-07
-1.93361e-07
-2.56421e-07
3.08918e-07
-3.00378e-07
-2.33538e-07
3.40541e-07
-4.87304e-07
-2.21525e-07
4.08438e-07
-7.69203e-07
-2.32955e-07
5.1484e-07
-1.06278e-06
-3.33391e-07
6.26953e-07
-1.27489e-06
-5.19423e-07
7.3152e-07
-1.46831e-06
-6.63924e-07
8.57334e-07
-1.87525e-06
-5.84091e-07
9.91022e-07
-2.45112e-06
-4.07795e-07
9.83652e-07
-2.88973e-06
-4.00111e-07
8.38701e-07
-2.51431e-06
-1.06447e-06
6.89043e-07
-1.18496e-06
-2.33907e-06
1.0097e-06
-4.1992e-07
-2.36408e-06
1.59901e-06
-1.98284e-06
-1.29084e-06
2.85373e-06
-4.3538e-06
-9.37377e-07
3.30832e-06
-7.26941e-06
-7.68926e-07
3.68453e-06
-7.41814e-06
-3.38602e-06
3.53475e-06
-2.4391e-06
-9.26482e-06
4.28573e-06
6.18398e-06
-1.24334e-05
3.81034e-06
7.32423e-06
-7.89108e-06
6.75077e-06
1.12523e-05
-7.30524e-06
3.37705e-06
-9.76403e-06
4.59717e-06
1.60355e-05
-3.16631e-05
-3.85411e-06
-5.96618e-06
-6.33093e-05
-1.6446e-05
2.22679e-06
-1.41426e-05
-6.72237e-06
9.03749e-06
2.94116e-05
-5.51795e-06
6.38282e-06
3.1641e-05
-6.05347e-06
3.79935e-06
3.25061e-05
-3.55482e-06
2.54659e-06
3.17662e-05
-1.48789e-06
2.25883e-06
3.00022e-05
-3.30275e-07
2.17433e-06
2.87493e-05
-8.6322e-07
2.07775e-06
2.87588e-05
-2.22815e-06
2.11074e-06
2.94912e-05
-2.90441e-06
2.11388e-06
3.05507e-05
-2.84467e-06
1.74926e-06
3.12391e-05
-2.36701e-06
1.66549e-06
3.0992e-05
-1.09042e-06
1.34253e-06
2.98697e-05
-1.63557e-07
1.27682e-06
2.7752e-05
8.41767e-07
1.27375e-06
2.49501e-05
1.19544e-06
1.56458e-06
2.15161e-05
1.33862e-06
2.08826e-06
1.73174e-05
2.16806e-06
2.0685e-06
1.31391e-05
1.06293e-06
2.98471e-06
1.04809e-05
-1.66635e-06
4.17288e-06
9.05091e-06
-2.7975e-06
4.18489e-06
7.97492e-06
-2.47098e-06
3.522e-06
6.87321e-06
-1.23743e-06
2.27711e-06
5.57077e-06
-4.77115e-07
1.68711e-06
3.11215e-06
6.94493e-07
1.75007e-06
1.17356e-06
3.50174e-07
1.60109e-06
5.92477e-07
-1.62983e-06
2.24747e-06
8.19297e-07
-2.74757e-06
2.54124e-06
1.79151e-06
-3.31338e-06
2.35007e-06
3.67282e-06
-3.82042e-06
1.9342e-06
5.28158e-06
-3.09996e-06
1.51381e-06
4.61368e-06
-5.94025e-07
1.43019e-06
8.72048e-07
1.68292e-06
2.32096e-06
-2.8929e-06
2.10418e-06
1.7708e-06
-4.15339e-06
1.90514e-06
-6.07152e-07
1.91694e-06
-5.34896e-06
-1.9219e-06
-3.44503e-06
-1.84833e-07
-5.13804e-07
-3.77044e-06
-1.7154e-07
-1.67176e-07
-2.28437e-06
7.12961e-07
2.19886e-07
-1.86665e-06
4.51938e-07
2.85498e-07
-9.23988e-07
2.97804e-07
1.97103e-07
-8.15727e-07
2.37364e-07
8.96581e-08
-7.10297e-07
1.32899e-07
-1.47846e-08
-6.32032e-07
8.66949e-08
-1.75832e-07
-3.98217e-07
6.8889e-08
-4.13985e-07
-1.96577e-07
1.02211e-07
-6.42631e-07
-1.08745e-07
9.47283e-08
-7.44298e-07
-1.70521e-07
1.95501e-08
-7.41846e-07
-2.50014e-07
-4.66683e-08
-6.53644e-07
-3.2861e-07
-9.84163e-08
-5.33588e-07
-3.64496e-07
-1.13008e-07
-4.00376e-07
-3.97086e-07
-1.13925e-07
-2.74287e-07
-4.18366e-07
-1.0033e-07
-1.61604e-07
-4.38178e-07
-8.19862e-08
-6.95634e-08
-4.53242e-07
-5.90478e-08
-1.0673e-09
-4.62718e-07
-3.56038e-08
4.14488e-08
-4.64406e-07
-1.2755e-08
5.92146e-08
-4.61242e-07
5.2608e-09
6.01196e-08
-4.54279e-07
1.33103e-08
4.95915e-08
-4.41751e-07
1.55503e-08
3.17067e-08
-4.23225e-07
1.3197e-08
1.00468e-08
-4.00413e-07
7.16462e-09
-1.19578e-08
-3.75969e-07
-2.19168e-09
-2.92077e-08
-3.53398e-07
-1.72708e-08
-4.08794e-08
-3.30806e-07
-3.2291e-08
-4.88951e-08
-3.05681e-07
-4.61726e-08
-5.59035e-08
-2.78354e-07
-5.84369e-08
-6.37554e-08
-2.50804e-07
-6.8955e-08
-7.45317e-08
-2.24077e-07
-7.71691e-08
-9.01176e-08
-1.99734e-07
-8.29425e-08
-1.10874e-07
-1.80571e-07
-8.62511e-08
-1.37257e-07
-1.66992e-07
-8.63201e-08
-1.7688e-07
-1.51882e-07
-8.00639e-08
-2.52537e-07
-1.20012e-07
-6.07764e-08
-3.97444e-07
-6.73353e-08
-2.13208e-08
-6.29924e-07
-2.45568e-08
3.54856e-08
-9.14651e-07
-4.87866e-08
1.00532e-07
-1.1861e-06
-2.14781e-07
1.52815e-07
-1.50167e-06
-4.12401e-07
2.08518e-07
-2.00124e-06
-4.91005e-07
3.26625e-07
-2.65541e-06
-3.76225e-07
4.46278e-07
-3.08987e-06
-3.09469e-07
3.36108e-07
-2.7513e-06
-7.44037e-07
5.32193e-09
-1.37332e-06
-2.30411e-06
-1.38371e-07
-6.80228e-08
-4.35601e-06
7.11601e-07
-5.00423e-07
-3.64759e-06
1.71587e-06
-2.81765e-06
-2.20048e-06
3.22683e-06
-4.74071e-06
-1.73938e-06
2.72504e-06
-6.00909e-06
-2.64654e-06
3.14597e-06
-4.31982e-06
-7.2031e-06
2.12779e-06
4.05216e-06
-1.93133e-05
1.67645e-06
1.52772e-05
-2.4902e-05
1.24365e-06
1.48163e-05
-1.38966e-05
6.4663e-06
1.7395e-05
-1.63969e-05
6.51286e-06
-5.80514e-06
3.25893e-06
2.4213e-05
-3.19633e-05
-7.20448e-06
-3.32799e-06
-7.4103e-05
-2.17202e-05
-1.86974e-06
-2.77156e-05
-8.88651e-06
1.19022e-05
1.2042e-05
-6.3533e-06
5.42814e-06
1.19299e-05
-5.3489e-06
7.2733e-07
1.12751e-05
-1.41821e-06
-7.75008e-07
1.0411e-05
6.79906e-07
-1.31819e-06
8.73102e-06
1.96873e-06
-9.95979e-07
8.19409e-06
1.21812e-06
-1.78746e-06
9.15489e-06
-1.12374e-06
-1.99758e-06
1.06627e-05
-2.5302e-06
-1.4052e-06
1.2118e-05
-3.13961e-06
-6.59663e-07
1.32573e-05
-2.24523e-06
-4.23709e-07
1.44718e-05
-2.90084e-07
-1.21353e-06
1.50887e-05
2.1887e-06
-2.23817e-06
1.47928e-05
3.40994e-06
-2.27316e-06
1.27334e-05
4.82627e-06
-1.49971e-06
9.45301e-06
6.82319e-06
-1.41726e-06
4.59384e-06
5.97912e-06
-1.84096e-07
-1.42922e-06
3.50088e-06
3.29699e-06
-5.42752e-06
-2.74733e-06
5.07899e-06
-7.06161e-06
-7.13905e-06
6.10675e-06
-7.08698e-06
-8.82678e-06
6.47765e-06
-5.27994e-06
-8.61182e-06
5.65515e-06
-2.58991e-06
-7.43726e-06
4.30615e-06
-8.67084e-07
-4.41394e-06
3.42916e-06
4.77722e-07
-5.59367e-06
4.57627e-06
1.0986e-06
-8.45404e-06
6.18904e-06
1.24225e-06
-9.3403e-06
6.49711e-06
2.9754e-06
-1.00994e-05
5.14104e-06
5.07565e-06
-9.56455e-06
3.7439e-06
6.18238e-06
-7.11692e-06
2.99758e-06
5.1623e-06
-2.40588e-06
2.9855e-06
8.34955e-07
2.23451e-06
4.11335e-06
-2.77168e-06
3.30103e-06
2.57963e-06
-4.01766e-06
3.63329e-06
-3.95925e-07
4.49462e-06
-5.79125e-06
-2.44632e-06
-3.70921e-06
-4.56345e-07
-1.29421e-06
-4.22724e-06
-6.9531e-07
-8.83546e-07
-2.91015e-06
2.15112e-07
-2.97636e-07
-2.5141e-06
6.15323e-08
3.24097e-08
-1.25346e-06
-5.84686e-10
2.76555e-08
-8.03744e-07
-7.24187e-09
-7.47e-08
-4.52962e-07
-1.54992e-07
-1.8542e-07
-3.49215e-07
-1.72109e-07
-2.95653e-07
-1.05496e-07
-1.82498e-07
-4.11315e-07
6.30195e-08
-1.43946e-07
-5.44433e-07
1.43207e-07
-1.18845e-07
-6.24906e-07
6.65952e-08
-1.56654e-07
-6.53889e-07
-1.08004e-08
-2.10243e-07
-6.27638e-07
-9.73451e-08
-2.57528e-07
-5.67223e-07
-1.4478e-07
-2.80145e-07
-4.84652e-07
-1.84432e-07
-2.95238e-07
-3.97576e-07
-2.07927e-07
-2.97528e-07
-3.13168e-07
-2.27273e-07
-2.95327e-07
-2.38171e-07
-2.39375e-07
-2.88879e-07
-1.74115e-07
-2.45446e-07
-2.81344e-07
-1.21953e-07
-2.42986e-07
-2.73598e-07
-8.22333e-08
-2.33057e-07
-2.67921e-07
-5.55369e-08
-2.17219e-07
-2.63773e-07
-4.02657e-08
-1.96487e-07
-2.60553e-07
-3.37265e-08
-1.71032e-07
-2.5875e-07
-3.35001e-08
-1.42429e-07
-2.58229e-07
-3.76381e-08
-1.12943e-07
-2.58906e-07
-4.55274e-08
-8.4235e-08
-2.61293e-07
-5.52993e-08
-5.60274e-08
-2.65026e-07
-6.61533e-08
-2.57433e-08
-2.69104e-07
-7.86767e-08
6.88557e-09
-2.72737e-07
-9.65128e-08
4.21311e-08
-2.7512e-07
-1.22549e-07
7.67038e-08
-2.74766e-07
-1.61266e-07
1.1017e-07
-2.71209e-07
-2.16507e-07
1.39692e-07
-2.65043e-07
-2.9046e-07
1.64345e-07
-2.57409e-07
-3.88486e-07
1.93476e-07
-2.47355e-07
-5.24235e-07
2.46744e-07
-2.3103e-07
-7.11765e-07
3.25064e-07
-2.04894e-07
-9.37053e-07
3.7366e-07
-1.72954e-07
-1.11512e-06
2.85367e-07
-1.5611e-07
-1.2136e-06
3.56857e-08
-1.52014e-07
-1.44664e-06
-9.01547e-08
-8.92299e-08
-1.9446e-06
-2.18988e-08
2.88298e-08
-2.49606e-06
1.18034e-07
5.71685e-08
-2.65118e-06
1.29989e-08
-1.67369e-07
-1.89796e-06
-8.89717e-07
-6.07567e-07
-8.64222e-07
-2.92038e-06
-4.17502e-07
-1.61185e-06
-4.49525e-06
8.86835e-07
-3.46627e-06
-3.62901e-06
1.83581e-06
-5.29776e-06
-2.81623e-06
2.44722e-06
-5.39786e-06
-2.99829e-06
1.35899e-06
-1.64037e-06
-6.992e-06
5.87929e-07
3.4299e-06
-1.27986e-05
5.25234e-07
8.98372e-06
-2.59726e-05
1.10539e-06
1.38048e-05
-3.01851e-05
4.62051e-07
1.50782e-05
-1.7122e-05
1.95199e-06
1.90832e-05
-2.17523e-05
1.35049e-06
-4.41272e-06
3.90066e-06
2.23797e-05
-3.74347e-05
-1.01232e-05
-2.24893e-06
-9.81622e-05
-2.50756e-05
-3.01427e-06
-9.73289e-05
-9.93277e-06
6.29569e-06
-0.000101485
-5.03527e-06
4.16216e-06
-0.000105244
-1.58202e-06
1.03395e-06
-0.000106794
4.4195e-07
6.25525e-07
-0.000108947
2.87864e-06
1.21608e-07
-0.000109497
3.69116e-06
-9.94497e-07
-0.000112448
3.09618e-06
5.86273e-07
-0.000115851
-6.64505e-07
2.82153e-06
-0.000117723
-3.13216e-06
4.10886e-06
-0.000116808
-5.14076e-06
3.72415e-06
-0.000112655
-5.20659e-06
3.86238e-06
-9.81055e-05
-3.61801e-06
2.97387e-06
-5.16991e-05
-3.12988e-07
2.0078e-06
-1.66462e-05
2.7875e-07
2.19031e-06
-3.16742e-05
1.75114e-06
2.10987e-06
-6.85725e-05
3.4028e-06
2.1573e-06
-5.52102e-05
7.6164e-08
4.37291e-06
-1.83312e-05
-7.03812e-06
6.36129e-06
-1.81043e-05
-1.20314e-05
6.41845e-06
-1.83468e-05
-1.63031e-05
6.90356e-06
-1.69092e-05
-1.90031e-05
6.90654e-06
-1.42235e-05
-2.01033e-05
6.92631e-06
-1.03282e-05
-1.80603e-05
6.8226e-06
-5.76877e-06
-1.55329e-05
6.55209e-06
-2.94348e-06
-1.60308e-05
7.65442e-06
-1.11177e-06
-1.73288e-05
7.12854e-06
1.32784e-06
-1.69025e-05
5.27557e-06
5.4979e-06
-1.50897e-05
8.36878e-07
9.57834e-06
-1.21613e-05
-1.57163e-06
1.11323e-05
-8.24395e-06
-4.7394e-07
1.07844e-05
-1.64624e-06
-4.97156e-07
5.8019e-06
4.11294e-06
3.29985e-06
-8.27329e-07
6.55971e-06
3.60034e-06
-3.73522e-06
6.38543e-06
2.57307e-07
6.72988e-06
-5.04065e-06
-2.89903e-06
-3.7624e-06
-2.50669e-07
-1.80821e-06
-4.44913e-06
-8.6893e-07
-1.4917e-06
-3.29343e-06
6.67699e-08
-8.74591e-07
-3.1795e-06
4.82757e-08
-3.87077e-07
-1.88032e-06
1.39337e-07
-1.46652e-07
-1.10792e-06
6.37431e-08
-1.58105e-07
-2.89533e-07
-1.51988e-07
-2.33704e-07
-8.16347e-08
-1.91993e-07
-2.64259e-07
1.42716e-07
-2.17667e-07
-3.11803e-07
3.01586e-07
-1.91033e-07
-3.724e-07
4.03685e-07
-1.99892e-07
-4.51461e-07
3.6978e-07
-2.24136e-07
-5.33422e-07
3.27693e-07
-2.56545e-07
-5.64283e-07
2.29831e-07
-2.96327e-07
-5.5295e-07
1.66521e-07
-3.22647e-07
-5.08311e-07
1.17788e-07
-3.46872e-07
-4.46261e-07
9.15428e-08
-3.61534e-07
-3.80127e-07
7.96072e-08
-3.73029e-07
-3.17232e-07
7.75826e-08
-3.79868e-07
-2.59833e-07
8.10293e-08
-3.83889e-07
-2.0779e-07
9.05857e-08
-3.85632e-07
-1.61722e-07
1.05813e-07
-3.84955e-07
-1.23076e-07
1.25815e-07
-3.81697e-07
-9.30168e-08
1.50293e-07
-3.76856e-07
-7.2089e-08
1.79422e-07
-3.714e-07
-6.04649e-08
2.11979e-07
-3.6605e-07
-5.68487e-08
2.44574e-07
-3.61153e-07
-5.91531e-08
2.75425e-07
-3.57375e-07
-6.69418e-08
3.06674e-07
-3.54933e-07
-8.13443e-08
3.41829e-07
-3.5319e-07
-1.04522e-07
3.81444e-07
-3.51402e-07
-1.36487e-07
4.22526e-07
-3.48451e-07
-1.78869e-07
4.63055e-07
-3.43992e-07
-2.33648e-07
5.03074e-07
-3.38147e-07
-3.03933e-07
5.41546e-07
-3.31592e-07
-3.95058e-07
5.80128e-07
-3.2468e-07
-5.14675e-07
6.30733e-07
-3.17664e-07
-6.74108e-07
7.14362e-07
-3.08209e-07
-8.74773e-07
8.17636e-07
-2.91931e-07
-1.07005e-06
8.44766e-07
-2.75853e-07
-1.17264e-06
6.671e-07
-2.79168e-07
-1.20179e-06
3.57881e-07
-2.93074e-07
-1.29451e-06
2.67146e-07
-2.646e-07
-1.50167e-06
3.89383e-07
-2.04152e-07
-1.70513e-06
5.62784e-07
-2.41318e-07
-1.61285e-06
4.31421e-07
-5.10732e-07
-1.10641e-06
-6.06913e-07
-7.89277e-07
-1.50588e-06
-2.30002e-06
-2.20924e-07
-4.20042e-06
-3.07527e-06
1.27452e-06
-6.71228e-06
-2.86544e-06
1.74826e-06
-8.32097e-06
-3.05195e-06
1.84438e-06
-6.16765e-06
-5.6172e-06
4.65568e-07
1.99049e-06
-1.48922e-05
-2.57994e-07
6.63846e-06
-1.93516e-05
1.90495e-06
8.6271e-06
-2.92785e-05
1.31714e-06
5.06153e-06
-2.87583e-05
2.13876e-06
1.31978e-05
-1.84965e-05
-6.76188e-06
2.23329e-05
-3.04388e-05
-4.48849e-07
-1.68752e-06
2.95151e-07
2.67316e-05
-4.33788e-05
-7.75486e-06
-3.93313e-06
-0.00011482
-2.2992e-05
-2.1299e-06
-0.000116047
-8.3527e-06
8.12328e-06
-0.000123091
-3.46263e-06
4.8676e-06
-0.000132705
2.10458e-06
3.71566e-06
-0.00013676
3.19005e-06
1.7334e-06
-0.000139117
4.34475e-06
1.15334e-06
-0.00013979
3.08126e-06
1.82447e-06
-0.000140669
6.14806e-07
3.12888e-06
-0.000140627
-4.36128e-06
3.99614e-06
-0.000140431
-7.33362e-06
4.08655e-06
-0.000140728
-1.04431e-05
5.34245e-06
-0.000140367
-1.14777e-05
6.40234e-06
-0.000140189
-1.12809e-05
7.68014e-06
-0.000139241
-8.94341e-06
8.27763e-06
-0.000137359
-6.4937e-06
8.3924e-06
-0.000135808
-5.48039e-06
8.19336e-06
-0.00013453
-6.34348e-06
7.70735e-06
-0.000133048
-9.87745e-06
7.03793e-06
-0.000131615
-1.46944e-05
6.57397e-06
-0.000130206
-1.84249e-05
6.45643e-06
-0.000125747
-2.23251e-05
6.47397e-06
-0.000108626
-2.44344e-05
6.11476e-06
-5.62981e-05
-2.5192e-05
5.51841e-06
-1.46339e-05
-2.51164e-05
5.37264e-06
-1.05671e-05
-2.29629e-05
4.31238e-06
-7.1602e-06
-2.15446e-05
3.41353e-06
-2.98595e-06
-2.04016e-05
6.37106e-08
2.65418e-06
-1.95805e-05
-2.62512e-06
8.4356e-06
-1.67213e-05
-4.08179e-06
1.3511e-05
-1.16877e-05
-5.5752e-06
1.64815e-05
-7.12129e-06
-4.18379e-06
1.54515e-05
2.6175e-06
-3.21726e-06
1.25029e-05
9.496e-06
-2.46451e-06
4.34156e-06
1.29729e-05
1.90079e-06
-1.59701e-06
1.19759e-05
5.33828e-07
1.01144e-05
-3.91605e-06
-3.35538e-06
-3.67159e-06
-1.31046e-09
-2.30733e-06
-4.58399e-06
-9.132e-07
-2.01938e-06
-3.52895e-06
-5.24326e-08
-1.35554e-06
-3.71803e-06
-1.25317e-07
-8.3932e-07
-2.69444e-06
2.97891e-07
-3.32104e-07
-1.8291e-06
2.13951e-07
-1.70043e-07
-3.33612e-07
-1.17993e-07
-2.3542e-07
1.4616e-07
-1.62429e-07
-2.13969e-07
3.35823e-07
-2.14568e-07
-2.13617e-07
5.04409e-07
-2.03186e-07
-2.27036e-07
6.32187e-07
-2.15093e-07
-3.04003e-07
6.60423e-07
-2.13687e-07
-4.19613e-07
6.65449e-07
-2.22158e-07
-4.95322e-07
5.5445e-07
-2.48923e-07
-5.15383e-07
4.59984e-07
-2.73414e-07
-4.92497e-07
3.9465e-07
-2.99762e-07
-4.46815e-07
3.66105e-07
-3.20257e-07
-3.95415e-07
3.6674e-07
-3.38547e-07
-3.44521e-07
3.80013e-07
-3.53338e-07
-2.95662e-07
3.97381e-07
-3.65225e-07
-2.47466e-07
4.17052e-07
-3.74677e-07
-1.99947e-07
4.39539e-07
-3.81261e-07
-1.55885e-07
4.65839e-07
-3.84101e-07
-1.17597e-07
4.95037e-07
-3.83049e-07
-8.67968e-08
5.26877e-07
-3.78271e-07
-6.46567e-08
5.60452e-07
-3.70631e-07
-5.11183e-08
5.92587e-07
-3.61569e-07
-4.58621e-08
6.22451e-07
-3.523e-07
-5.11769e-08
6.54432e-07
-3.42461e-07
-6.86583e-08
6.91745e-07
-3.32454e-07
-9.96273e-08
7.34934e-07
-3.22539e-07
-1.43749e-07
7.79928e-07
-3.133e-07
-2.00325e-07
8.25497e-07
-3.05886e-07
-2.70165e-07
8.72908e-07
-3.00014e-07
-3.57175e-07
9.2364e-07
-2.95105e-07
-4.68957e-07
9.82878e-07
-2.90989e-07
-6.09992e-07
1.05905e-06
-2.87305e-07
-7.74391e-07
1.16198e-06
-2.83245e-07
-9.34911e-07
1.25503e-06
-2.76893e-07
-1.04902e-06
1.22432e-06
-2.65461e-07
-1.09745e-06
9.7802e-07
-2.62512e-07
-1.1293e-06
6.8109e-07
-2.91378e-07
-1.19195e-06
6.30238e-07
-3.00465e-07
-1.24029e-06
7.83214e-07
-3.45514e-07
-1.16878e-06
9.98857e-07
-5.07605e-07
-1.01802e-06
9.80396e-07
-6.99767e-07
-1.31404e-06
3.16099e-07
-6.27013e-07
-3.06643e-06
-6.75292e-07
1.27632e-07
-5.89175e-06
-1.28247e-06
1.0325e-06
-7.40023e-06
-2.32158e-06
9.64586e-07
-6.85742e-06
-4.11279e-06
5.17998e-07
-2.79906e-06
-9.41423e-06
-2.61358e-07
3.12619e-06
-2.06419e-05
-1.75607e-07
2.24827e-06
-2.194e-05
3.46638e-06
2.56934e-06
-2.91084e-05
-4.91224e-07
-1.44687e-06
-2.63896e-05
1.64765e-06
1.14092e-05
-2.93698e-05
-1.98301e-06
2.1552e-05
-4.17962e-05
1.21474e-06
-2.63727e-06
3.50019e-06
1.9579e-05
-4.93977e-05
-4.28118e-06
-4.87534e-06
-0.000124946
-1.5343e-05
-4.38329e-06
-0.00012678
-3.9554e-06
6.89745e-06
-0.000135221
1.6778e-06
3.07469e-06
-0.000146663
6.89348e-06
3.51947e-06
-0.000149963
4.44301e-06
1.77558e-06
-0.000149809
2.70581e-06
1.45793e-06
-0.00014788
-3.93183e-07
9.92158e-07
-0.000146387
-3.2139e-06
1.5923e-06
-0.000145561
-6.81408e-06
1.39404e-06
-0.000146254
-9.81125e-06
2.43504e-06
-0.0001486
-1.31534e-05
4.2195e-06
-0.000150582
-1.49691e-05
5.6814e-06
-0.000151501
-1.65931e-05
6.60421e-06
-0.000152268
-1.61361e-05
7.15278e-06
-0.000150884
-1.50192e-05
6.95557e-06
-0.000148169
-1.42206e-05
6.79465e-06
-0.000146577
-1.41715e-05
6.4643e-06
-0.000145474
-1.66518e-05
5.22023e-06
-0.000143984
-2.0031e-05
3.74163e-06
-0.000142606
-2.19069e-05
2.32029e-06
-0.000141573
-2.47838e-05
1.08147e-06
-0.000139791
-2.63252e-05
-9.63504e-08
-0.000137301
-2.62544e-05
-6.81539e-07
-0.000133247
-2.57657e-05
-1.49888e-06
-0.00012555
-2.31637e-05
-2.27758e-06
-0.000106259
-2.1579e-05
-3.47427e-06
-4.65431e-05
-1.95167e-05
-5.13356e-06
5.14734e-06
-1.71815e-05
-7.17471e-06
1.15502e-05
-1.38582e-05
-6.53061e-06
1.69161e-05
-7.9368e-06
-6.66922e-06
2.01382e-05
-4.88022e-06
-5.57168e-06
1.80207e-05
6.36295e-06
-1.74975e-06
1.35956e-05
1.64661e-05
-2.74763e-06
7.28582e-06
2.00418e-05
-6.78153e-07
8.86237e-07
1.82579e-05
4.8621e-07
1.52001e-05
-3.08882e-06
-3.79338e-06
-3.48814e-06
3.84961e-07
-2.82594e-06
-4.75081e-06
-8.00621e-07
-2.51515e-06
-3.68559e-06
-1.54151e-07
-1.63451e-06
-4.00007e-06
-5.98611e-07
-1.07936e-06
-3.35628e-06
1.0668e-07
-4.14531e-07
-2.67089e-06
1.76943e-07
-1.15105e-07
-6.05194e-07
-2.78538e-08
-1.76671e-07
2.78631e-07
-7.09133e-08
-1.2773e-07
4.7789e-07
-1.91018e-07
-1.19724e-07
6.75064e-07
-1.7867e-07
-1.0816e-07
8.18685e-07
-1.98072e-07
-1.9262e-07
9.28916e-07
-1.84043e-07
-3.3807e-07
9.85366e-07
-1.74478e-07
-4.41319e-07
8.51248e-07
-1.93559e-07
-4.66302e-07
7.10611e-07
-2.25656e-07
-4.42095e-07
6.30604e-07
-2.60171e-07
-3.98174e-07
6.10739e-07
-2.88567e-07
-3.57058e-07
6.35881e-07
-3.10268e-07
-3.2297e-07
6.73121e-07
-3.27208e-07
-2.93254e-07
7.07959e-07
-3.40305e-07
-2.634e-07
7.3763e-07
-3.50445e-07
-2.31278e-07
7.64381e-07
-3.56975e-07
-1.98762e-07
7.91997e-07
-3.58687e-07
-1.6767e-07
8.20336e-07
-3.56403e-07
-1.41921e-07
8.51309e-07
-3.50195e-07
-1.23462e-07
8.82702e-07
-3.40722e-07
-1.10502e-07
9.07796e-07
-3.28182e-07
-1.03591e-07
9.29575e-07
-3.14047e-07
-1.05904e-07
9.55245e-07
-2.98514e-07
-1.20473e-07
9.89397e-07
-2.83096e-07
-1.50199e-07
1.03326e-06
-2.68617e-07
-1.95636e-07
1.08176e-06
-2.5641e-07
-2.56921e-07
1.13295e-06
-2.46179e-07
-3.33359e-07
1.18721e-06
-2.3788e-07
-4.25683e-07
1.2474e-06
-2.3145e-07
-5.36915e-07
1.32016e-06
-2.26063e-07
-6.63423e-07
1.40804e-06
-2.22495e-07
-7.83043e-07
1.5041e-06
-2.22502e-07
-8.61827e-07
1.55717e-06
-2.2337e-07
-8.75636e-07
1.46228e-06
-2.24165e-07
-8.50616e-07
1.19319e-06
-2.40202e-07
-8.50752e-07
9.54384e-07
-2.73171e-07
-8.98275e-07
9.64622e-07
-2.86873e-07
-9.5668e-07
1.19018e-06
-3.48571e-07
-9.05311e-07
1.47012e-06
-5.2264e-07
-9.95231e-07
1.6882e-06
-6.17898e-07
-2.02748e-06
1.62807e-06
-2.79733e-07
-4.10127e-06
1.16632e-06
2.32161e-07
-5.9412e-06
3.51659e-07
2.05775e-07
-6.15756e-06
-1.6913e-06
-4.13932e-07
-3.91673e-06
-5.84838e-06
-5.05286e-07
-1.0248e-06
-1.20697e-05
-2.3644e-07
-4.23781e-06
-1.97101e-05
2.28117e-06
-1.11651e-05
-1.97812e-05
4.76847e-06
-1.71954e-05
-2.19254e-05
-1.15269e-06
-1.42964e-05
-2.54856e-05
-3.80286e-06
3.16329e-06
-4.0569e-05
-6.26077e-06
1.42538e-06
-4.12769e-05
1.21908e-06
-3.09392e-06
-1.70631e-06
8.04984e-06
-5.44016e-05
-5.40495e-07
-5.08734e-06
-0.000135345
-3.60258e-06
-4.68534e-06
-0.000140651
5.32305e-06
6.19002e-06
-0.000147541
8.97393e-06
1.44399e-06
-0.00015345
9.9808e-06
1.0893e-06
-0.00015385
4.08683e-06
4.80236e-08
-0.000150783
-1.32384e-06
7.1195e-07
-0.000145904
-4.46085e-06
6.97127e-07
-0.000143138
-6.8055e-06
1.42218e-06
-0.000141388
-8.87182e-06
1.14421e-06
-0.000141062
-1.12925e-05
1.88897e-06
-0.000143162
-1.3644e-05
3.79924e-06
-0.000148373
-1.53134e-05
5.48074e-06
-0.000156113
-1.66919e-05
7.30278e-06
-0.000162632
-1.73349e-05
7.08404e-06
-0.000165476
-1.86939e-05
4.8101e-06
-0.000164546
-1.89746e-05
3.27431e-06
-0.000162785
-1.75448e-05
1.89592e-06
-0.000160879
-1.82019e-05
-1.87383e-07
-0.000157737
-2.03009e-05
-2.81082e-06
-0.000154873
-2.08275e-05
-3.66329e-06
-0.000152245
-2.24354e-05
-5.20034e-06
-0.000149579
-2.35031e-05
-5.5993e-06
-0.000146988
-2.34863e-05
-5.95593e-06
-0.00014375
-2.35756e-05
-6.13095e-06
-0.000139439
-2.13091e-05
-6.74623e-06
-0.000134376
-1.98617e-05
-7.15943e-06
-0.000127147
-1.73332e-05
-7.3024e-06
-0.000114808
-1.36732e-05
-7.39217e-06
-8.66135e-05
-8.39028e-06
-6.20286e-06
-2.365e-05
-9.9047e-07
-5.3729e-06
2.20981e-05
4.31805e-06
-1.99833e-06
1.95838e-05
1.25386e-05
2.36705e-06
1.52872e-05
2.26683e-05
1.02895e-06
8.21235e-06
2.65823e-05
4.95463e-07
1.7156e-06
2.37159e-05
5.02028e-07
2.02736e-05
-1.84081e-06
-4.15387e-06
-3.18128e-06
8.47412e-07
-3.35173e-06
-4.79527e-06
-7.57686e-07
-3.04608e-06
-3.6655e-06
-3.25747e-07
-1.85261e-06
-4.00586e-06
-1.18768e-06
-1.1217e-06
-3.63482e-06
-4.52378e-07
-3.31258e-07
-3.13918e-06
-3.22157e-07
7.36542e-09
-8.468e-07
-9.70253e-08
-1.09722e-07
4.33052e-07
-3.73419e-08
-4.57765e-08
6.30559e-07
-2.16623e-07
-6.66291e-08
8.75346e-07
-1.79438e-07
-6.09724e-08
1.01352e-06
-2.00498e-07
-1.44319e-07
1.16147e-06
-1.49221e-07
-2.65127e-07
1.23582e-06
-1.29656e-07
-3.40106e-07
1.08034e-06
-1.54121e-07
-3.50574e-07
9.29866e-07
-2.08795e-07
-3.25911e-07
8.56868e-07
-2.50934e-07
-2.94951e-07
8.60635e-07
-2.80863e-07
-2.77237e-07
9.15159e-07
-2.97e-07
-2.72458e-07
9.75456e-07
-3.0712e-07
-2.74426e-07
1.0244e-06
-3.14478e-07
-2.77878e-07
1.06085e-06
-3.19775e-07
-2.78786e-07
1.08808e-06
-3.22799e-07
-2.75994e-07
1.11097e-06
-3.2177e-07
-2.70441e-07
1.13134e-06
-3.16559e-07
-2.66386e-07
1.15383e-06
-3.06584e-07
-2.6629e-07
1.17534e-06
-2.92742e-07
-2.64766e-07
1.18685e-06
-2.80581e-07
-2.62572e-07
1.19611e-06
-2.6874e-07
-2.62201e-07
1.21175e-06
-2.56885e-07
-2.69559e-07
1.24156e-06
-2.44811e-07
-2.90724e-07
1.28829e-06
-2.3387e-07
-3.27194e-07
1.3425e-06
-2.2427e-07
-3.77297e-07
1.39973e-06
-2.16682e-07
-4.36015e-07
1.45844e-06
-2.12515e-07
-4.97688e-07
1.52099e-06
-2.11917e-07
-5.5907e-07
1.59457e-06
-2.13029e-07
-6.16694e-07
1.68084e-06
-2.15175e-07
-6.61553e-07
1.76871e-06
-2.19755e-07
-6.75324e-07
1.8013e-06
-2.30358e-07
-6.44534e-07
1.68503e-06
-2.53545e-07
-5.85703e-07
1.41709e-06
-2.82732e-07
-5.43882e-07
1.22726e-06
-3.14697e-07
-5.42351e-07
1.28748e-06
-3.2438e-07
-6.25333e-07
1.60809e-06
-3.3492e-07
-7.55042e-07
2.01439e-06
-4.14554e-07
-1.22023e-06
2.57923e-06
-4.25831e-07
-2.44458e-06
3.07789e-06
-2.25465e-07
-4.08875e-06
2.79008e-06
2.04047e-08
-5.19909e-06
1.46856e-06
-6.55118e-09
-4.8384e-06
-1.46551e-06
-5.86487e-07
-3.46927e-06
-6.58091e-06
-6.3662e-07
-5.44036e-06
-1.05766e-05
4.77968e-07
-1.71204e-05
-1.23494e-05
4.31943e-06
-2.64128e-05
-1.18868e-05
1.3981e-06
-2.89263e-05
-1.47652e-05
-4.64659e-06
-2.36639e-05
-2.23442e-05
-8.40362e-06
-2.28658e-05
-3.38097e-05
-7.55764e-06
-1.8331e-05
-3.84884e-05
-7.32317e-06
-2.82163e-06
-2.09874e-05
1.9784e-06
-5.68911e-05
3.88049e-06
-5.08886e-06
-0.000141525
9.0442e-06
-4.71838e-06
-0.000147591
1.516e-05
5.74413e-06
-0.000153095
1.52853e-05
3.48027e-07
-0.000156829
1.15994e-05
-1.15291e-06
-0.000154832
2.97696e-06
-2.58072e-06
-0.000150629
-5.40767e-06
-1.06754e-06
-0.000146173
-8.18318e-06
-4.72271e-07
-0.000143961
-1.0669e-05
8.9885e-07
-0.000142505
-1.20674e-05
1.26616e-06
-0.00014227
-1.44014e-05
2.44236e-06
-0.000143524
-1.56503e-05
3.72655e-06
-0.000146549
-1.62036e-05
5.1796e-06
-0.000152585
-1.54487e-05
6.5989e-06
-0.000163541
-1.31108e-05
7.07292e-06
-0.000173436
-1.29565e-05
3.67753e-06
-0.000175581
-1.615e-05
-7.51346e-07
-0.000175333
-1.58097e-05
-2.80466e-06
-0.000175059
-1.50181e-05
-5.13474e-06
-0.000173254
-1.59849e-05
-6.76229e-06
-0.000170546
-1.70385e-05
-7.69749e-06
-0.000167557
-1.82602e-05
-8.17295e-06
-0.000164403
-1.94854e-05
-8.27346e-06
-0.000161735
-1.94557e-05
-7.9586e-06
-0.00015866
-2.00938e-05
-7.21271e-06
-0.000154196
-1.89172e-05
-7.2763e-06
-0.000149268
-1.8074e-05
-6.94893e-06
-0.000143594
-1.61562e-05
-6.86836e-06
-0.000137271
-1.30478e-05
-6.75026e-06
-0.00013003
-7.89441e-06
-5.92918e-06
-0.000121565
8.14097e-07
-4.12341e-06
-0.000116472
9.9421e-06
1.34607e-06
-0.000116866
1.88802e-05
3.68129e-06
-0.000120335
2.7704e-05
1.41149e-06
-0.000126886
2.93838e-05
1.33952e-06
-0.000131867
2.66298e-05
6.57948e-07
2.36153e-05
-9.55857e-07
-4.07529e-06
-2.76776e-06
1.50327e-06
-3.673e-06
-4.46836e-06
-7.29207e-07
-3.65497e-06
-3.44566e-06
-2.3787e-07
-2.36677e-06
-3.88222e-06
-1.41185e-06
-1.34993e-06
-3.75494e-06
-8.96721e-07
-2.69221e-07
-3.36002e-06
-8.59868e-07
1.26824e-07
-1.13278e-06
-1.10073e-07
1.24052e-08
5.00244e-07
4.72206e-08
3.67253e-08
8.76908e-07
-2.70675e-07
-7.11339e-08
1.17293e-06
-1.89732e-07
-8.61216e-08
1.25062e-06
-2.22124e-07
-1.17902e-07
1.37079e-06
-1.77543e-07
-1.24651e-07
1.43703e-06
-1.94465e-07
-1.25606e-07
1.33275e-06
-2.51462e-07
-1.28263e-07
1.25292e-06
-3.20401e-07
-1.42484e-07
1.2443e-06
-3.73211e-07
-1.70127e-07
1.2982e-06
-4.0993e-07
-2.09007e-07
1.38423e-06
-4.30192e-07
-2.54386e-07
1.46601e-06
-4.45173e-07
-3.04499e-07
1.53189e-06
-4.57376e-07
-3.50951e-07
1.57412e-06
-4.66815e-07
-3.85779e-07
1.59644e-06
-4.73529e-07
-4.10371e-07
1.61274e-06
-4.77175e-07
-4.25969e-07
1.62529e-06
-4.78354e-07
-4.33259e-07
1.63799e-06
-4.76865e-07
-4.34619e-07
1.65004e-06
-4.73339e-07
-4.34546e-07
1.65588e-06
-4.69104e-07
-4.31674e-07
1.65917e-06
-4.65929e-07
-4.26905e-07
1.66883e-06
-4.61841e-07
-4.27686e-07
1.69856e-06
-4.5621e-07
-4.4323e-07
1.75284e-06
-4.48994e-07
-4.71033e-07
1.81232e-06
-4.42014e-07
-5.05441e-07
1.87156e-06
-4.37413e-07
-5.39069e-07
1.92859e-06
-4.36516e-07
-5.62926e-07
1.98426e-06
-4.39402e-07
-5.72554e-07
2.04807e-06
-4.43863e-07
-5.60743e-07
2.11823e-06
-4.49191e-07
-5.19649e-07
2.18469e-06
-4.5706e-07
-4.46967e-07
2.20779e-06
-4.79152e-07
-3.48916e-07
2.11478e-06
-5.27779e-07
-2.69117e-07
1.93539e-06
-5.98076e-07
-2.8458e-07
1.89697e-06
-6.54222e-07
-3.42186e-07
2.02739e-06
-6.82284e-07
-4.18141e-07
2.36578e-06
-6.81707e-07
-5.82645e-07
2.88962e-06
-7.107e-07
-1.05126e-06
3.66583e-06
-6.17963e-07
-1.84702e-06
4.187e-06
-3.13319e-07
-2.6007e-06
3.94343e-06
-3.99638e-07
-3.00865e-06
2.52631e-06
-6.49785e-07
-3.42341e-06
-4.14322e-07
-6.36431e-07
-5.68552e-06
-2.80559e-06
-1.51324e-06
-1.3564e-05
-1.78463e-06
-9.13525e-07
-2.74214e-05
9.60255e-08
1.41205e-06
-3.65974e-05
2.91163e-07
-3.00182e-06
-4.17418e-05
-2.81155e-06
-6.80908e-06
-4.19544e-05
-9.44175e-06
-1.26897e-05
-4.9068e-05
-1.41611e-05
-1.25352e-05
-4.24656e-05
-2.93345e-05
-1.57558e-05
-3.95503e-06
-4.15913e-05
-2.0762e-05
-6.67162e-05
6.98328e-06
-2.79693e-06
-0.000171031
2.5424e-05
2.02942e-07
-0.000170191
1.76901e-05
6.52614e-06
-0.000173314
1.76134e-05
8.35106e-07
-0.000172965
8.98248e-06
-2.46169e-06
-0.00016829
2.17333e-06
-5.50244e-06
-0.000163626
-7.1803e-06
-3.99269e-06
-0.000159848
-8.5026e-06
-2.79842e-06
-0.000158748
-1.02982e-05
-6.15845e-07
-0.000159678
-1.18574e-05
7.84803e-07
-0.00016248
-1.45811e-05
2.68515e-06
-0.000164622
-1.62811e-05
4.20489e-06
-0.000167253
-1.68379e-05
5.25455e-06
-0.000173111
-1.57078e-05
6.89333e-06
-0.000181604
-1.0737e-05
8.04063e-06
-0.000193302
-5.35297e-06
5.62412e-06
-0.00020284
-4.74848e-06
-1.70266e-06
-0.000207259
-4.50818e-06
-5.94971e-06
-0.000209736
-4.94889e-06
-8.48472e-06
-0.000209937
-9.11732e-06
-9.15274e-06
-0.000208488
-1.283e-05
-7.35335e-06
-0.000207356
-1.44898e-05
-5.67399e-06
-0.000205575
-1.70215e-05
-3.84121e-06
-0.000203512
-1.72607e-05
-3.68546e-06
-0.000201543
-1.72104e-05
-4.24572e-06
-0.000198204
-1.63027e-05
-5.56241e-06
-0.000193961
-1.5813e-05
-6.60452e-06
-0.000189649
-1.4298e-05
-7.10915e-06
-0.000184234
-1.31262e-05
-7.46461e-06
-0.00017609
-1.00264e-05
-7.08264e-06
-0.000168359
-4.10412e-06
-5.29812e-06
-0.000165865
4.77214e-06
-2.83071e-06
-0.000169722
1.69777e-05
1.89989e-06
-0.000175355
2.67437e-05
3.46027e-06
-0.000178289
2.84615e-05
4.12929e-06
-0.00017499
2.62155e-05
2.60821e-06
2.37024e-05
2.56339e-06
-3.50966e-06
-1.64728e-06
2.49018e-06
-3.82135e-06
-4.07703e-06
-7.96378e-08
-4.30553e-06
-3.18034e-06
2.18861e-07
-3.14469e-06
-3.90858e-06
-1.13447e-06
-1.93528e-06
-3.97067e-06
-9.93685e-07
-4.81804e-07
-3.70389e-06
-1.10961e-06
1.05665e-07
-1.63341e-06
-8.68457e-08
-1.07181e-08
2.47957e-07
3.68665e-07
-1.17072e-08
8.25244e-07
5.26491e-08
-1.13221e-07