/*--------------------------------*- C++ -*----------------------------------*\
| =========                 |                                                 |
| \\      /  F ield         | OpenFOAM: The Open Source CFD Toolbox           |
|  \\    /   O peration     | Version:  2.3.0                                 |
|   \\  /    A nd           | Web:      www.OpenFOAM.org                      |
|    \\/     M anipulation  |                                                 |
\*---------------------------------------------------------------------------*/
FoamFile
{
    version     2.0;
    format      ascii;
    class       surfaceScalarField;
    location    "60";
    object      phi.water;
}
// * * * * * * * * * * * * * * * * * * * * * * * * * * * * * * * * * * * * * //

dimensions      [0 3 -1 0 0 0 0];

internalField   nonuniform List<scalar> 
16448
(
-1.16383e-06
-2.42583e-06
6.06308e-07
5.84555e-07
-2.53391e-06
7.90057e-07
6.19582e-07
-1.22504e-06
1.19364e-06
5.66122e-07
-1.02781e-06
1.08467e-06
2.41775e-07
-5.60585e-07
8.91172e-07
1.35085e-07
-6.66561e-07
7.82474e-07
1.40261e-07
-6.84566e-07
6.88836e-07
1.41478e-07
-6.49476e-07
6.56258e-07
5.25684e-08
-4.90077e-07
5.84375e-07
-1.40343e-07
-3.32247e-07
5.27198e-07
-3.58405e-07
-2.42435e-07
4.61012e-07
-4.74939e-07
-2.52434e-07
3.69067e-07
-4.76544e-07
-2.94046e-07
2.95893e-07
-3.85553e-07
-3.38657e-07
2.4784e-07
-2.71953e-07
-3.57294e-07
2.4395e-07
-1.47859e-07
-3.77658e-07
2.53783e-07
-3.40313e-08
-3.92477e-07
2.78916e-07
6.44363e-08
-4.07362e-07
3.09144e-07
1.40211e-07
-4.20138e-07
3.44634e-07
1.91416e-07
-4.29723e-07
3.78779e-07
2.15321e-07
-4.34547e-07
4.10918e-07
2.16098e-07
-4.38125e-07
4.37612e-07
2.01634e-07
-4.39975e-07
4.54712e-07
1.78259e-07
-4.36646e-07
4.60284e-07
1.50173e-07
-4.27831e-07
4.56194e-07
1.21508e-07
-4.14832e-07
4.4377e-07
9.63105e-08
-4.00088e-07
4.25579e-07
7.85246e-08
-3.87847e-07
4.05918e-07
6.77426e-08
-3.74697e-07
3.85784e-07
6.0188e-08
-3.59803e-07
3.67655e-07
5.25761e-08
-3.43733e-07
3.51663e-07
4.34995e-08
-3.2755e-07
3.36933e-07
3.24081e-08
-3.11961e-07
3.23379e-07
2.00916e-08
-2.98208e-07
3.10836e-07
7.97852e-09
-2.87523e-07
2.9997e-07
-5.44212e-09
-2.79646e-07
2.93382e-07
-2.80207e-08
-2.71518e-07
2.94442e-07
-8.03174e-08
-2.56403e-07
3.09026e-07
-1.87083e-07
-2.33518e-07
3.40645e-07
-3.73762e-07
-2.21509e-07
4.08542e-07
-6.55371e-07
-2.32932e-07
5.14953e-07
-9.47186e-07
-3.33365e-07
6.27069e-07
-1.15236e-06
-5.19384e-07
7.3157e-07
-1.331e-06
-6.63858e-07
8.57286e-07
-1.71409e-06
-5.84071e-07
9.90951e-07
-2.25903e-06
-4.08066e-07
9.83866e-07
-2.65845e-06
-4.01165e-07
8.39244e-07
-2.23019e-06
-1.06821e-06
6.89437e-07
-8.0951e-07
-2.35104e-06
1.0094e-06
3.52989e-08
-2.37095e-06
1.59661e-06
-1.41148e-06
-1.28969e-06
2.84666e-06
-3.76392e-06
-9.3461e-07
3.30252e-06
-6.61284e-06
-7.74451e-07
3.67672e-06
-6.84394e-06
-3.39559e-06
3.52519e-06
-1.53864e-06
-9.28343e-06
4.25528e-06
6.85752e-06
-1.24877e-05
3.76221e-06
8.35384e-06
-7.95558e-06
6.65407e-06
1.13992e-05
-7.36458e-06
3.40018e-06
1.87918e-06
4.5447e-06
1.58028e-05
3.06805e-05
-2.02364e-06
-5.9113e-06
2.51017e-05
-1.98964e-05
-3.51779e-06
3.11499e-05
-1.2346e-05
4.60077e-06
3.02447e-05
-5.52882e-06
6.42909e-06
3.24384e-05
-5.99984e-06
3.8061e-06
3.34343e-05
-3.52066e-06
2.52482e-06
3.26665e-05
-1.46263e-06
2.23037e-06
3.0851e-05
-3.24671e-07
2.14017e-06
2.96384e-05
-8.34772e-07
2.04734e-06
2.97248e-05
-2.17689e-06
2.09053e-06
3.04747e-05
-2.86095e-06
2.11108e-06
3.15418e-05
-2.81205e-06
1.74486e-06
3.22082e-05
-2.33498e-06
1.66861e-06
3.19291e-05
-1.0719e-06
1.35105e-06
3.0805e-05
-1.62788e-07
1.28688e-06
2.86691e-05
8.54369e-07
1.28145e-06
2.58891e-05
1.20898e-06
1.57102e-06
2.24471e-05
1.34307e-06
2.09896e-06
1.82331e-05
2.1313e-06
2.08273e-06
1.41767e-05
1.04656e-06
3.00979e-06
1.16653e-05
-1.69376e-06
4.20514e-06
1.02891e-05
-2.83119e-06
4.20742e-06
9.25647e-06
-2.50066e-06
3.53331e-06
8.23264e-06
-1.25905e-06
2.28288e-06
7.02901e-06
-4.9098e-07
1.69461e-06
4.59428e-06
6.78589e-07
1.75615e-06
2.64553e-06
3.37715e-07
1.61103e-06
2.04207e-06
-1.65579e-06
2.25925e-06
2.25289e-06
-2.75404e-06
2.54321e-06
3.2152e-06
-3.29967e-06
2.33737e-06
5.09721e-06
-3.79798e-06
1.91596e-06
6.68343e-06
-3.08218e-06
1.49596e-06
5.85553e-06
-5.89053e-07
1.41695e-06
1.82312e-06
1.69701e-06
2.3354e-06
-2.08666e-06
2.11474e-06
1.79505e-06
-3.41439e-06
1.91705e-06
-5.89325e-07
1.91728e-06
-5.33167e-06
-1.86451e-06
-3.44484e-06
-1.85289e-07
-4.48405e-07
-3.77012e-06
-1.71809e-07
-9.5733e-08
-2.28396e-06
7.12812e-07
2.96651e-07
-1.86639e-06
4.51938e-07
3.68721e-07
-9.23718e-07
2.97918e-07
2.87584e-07
-8.15368e-07
2.37531e-07
1.88311e-07
-7.09888e-07
1.33037e-07
9.10913e-08
-6.31665e-07
8.67101e-08
-6.5156e-08
-3.9795e-07
6.87444e-08
-3.01678e-07
-1.96412e-07
1.02001e-07
-5.29894e-07
-1.0861e-07
9.45565e-08
-6.31616e-07
-1.70416e-07
1.94006e-08
-6.29086e-07
-2.49936e-07
-4.67471e-08
-5.40862e-07
-3.28561e-07
-9.84331e-08
-4.20716e-07
-3.64471e-07
-1.13009e-07
-2.87441e-07
-3.97076e-07
-1.1392e-07
-1.61241e-07
-4.18369e-07
-1.00335e-07
-4.84553e-08
-4.38188e-07
-8.20053e-08
4.37195e-08
-4.53259e-07
-5.90881e-08
1.12364e-07
-4.6274e-07
-3.56663e-08
1.55041e-07
-4.64434e-07
-1.28497e-08
1.72978e-07
-4.61278e-07
5.15202e-09
1.74065e-07
-4.54325e-07
1.32123e-08
1.63728e-07
-4.41806e-07
1.54567e-08
1.46045e-07
-4.2329e-07
1.30994e-08
1.24596e-07
-4.00487e-07
7.05914e-09
1.02813e-07
-3.76053e-07
-2.31078e-09
8.57857e-08
-3.53492e-07
-1.73586e-08
7.43467e-08
-3.30911e-07
-3.23622e-08
6.65727e-08
-3.05794e-07
-4.62274e-08
5.98169e-08
-2.78477e-07
-5.84846e-08
5.22266e-08
-2.50936e-07
-6.89933e-08
4.1722e-08
-2.24217e-07
-7.72072e-08
2.642e-08
-1.99879e-07
-8.2977e-08
5.96214e-09
-1.8072e-07
-8.62916e-08
-2.01053e-08
-1.67139e-07
-8.63627e-08
-5.93961e-08
-1.52022e-07
-8.01209e-08
-1.347e-07
-1.2014e-07
-6.08506e-08
-2.79234e-07
-6.7453e-08
-2.1443e-08
-5.11339e-07
-2.46618e-08
3.5376e-08
-7.9535e-07
-4.88634e-08
1.00465e-07
-1.06422e-06
-2.14789e-07
1.5279e-07
-1.37301e-06
-4.12367e-07
2.08501e-07
-1.85968e-06
-4.91011e-07
3.26614e-07
-2.49225e-06
-3.7648e-07
4.46281e-07
-2.8951e-06
-3.09941e-07
3.36203e-07
-2.49946e-06
-7.44908e-07
5.38243e-09
-1.032e-06
-2.30711e-06
-1.38315e-07
3.88455e-07
-4.35684e-06
7.11211e-07
2.30883e-08
-3.64659e-06
1.71324e-06
-2.20756e-06
-2.19898e-06
3.21682e-06
-4.15246e-06
-1.7358e-06
2.72101e-06
-5.32029e-06
-2.64098e-06
3.13564e-06
-3.68699e-06
-7.19377e-06
2.11415e-06
4.97049e-06
-1.92941e-05
1.65367e-06
1.59577e-05
-2.48985e-05
1.20369e-06
1.61346e-05
-1.40449e-05
6.38683e-06
1.75027e-05
-1.64302e-05
6.79614e-06
5.76027e-06
3.17419e-06
2.38062e-05
3.24646e-05
-4.60156e-06
-1.72981e-06
1.7303e-05
-2.73828e-05
-7.4919e-06
1.63496e-05
-1.7598e-05
4.77832e-06
1.29765e-05
-7.63631e-06
5.47858e-06
1.31261e-05
-6.85978e-06
7.10323e-07
1.22008e-05
-1.79889e-06
-7.96412e-07
1.13802e-05
7.09788e-07
-1.35183e-06
9.70188e-06
2.37742e-06
-1.02379e-06
9.21844e-06
1.46798e-06
-1.8193e-06
1.02598e-05
-1.19095e-06
-2.02735e-06
1.17588e-05
-2.93954e-06
-1.42033e-06
1.3238e-05
-3.6345e-06
-6.56838e-07
1.43071e-05
-2.98809e-06
-4.15919e-07
1.55157e-05
-1.08799e-06
-1.1925e-06
1.61687e-05
1.39716e-06
-2.21304e-06
1.58749e-05
3.41214e-06
-2.26392e-06
1.37763e-05
4.82039e-06
-1.51281e-06
1.04805e-05
6.06922e-06
-1.43038e-06
5.94359e-06
6.86778e-06
-1.99552e-07
3.26985e-07
3.4189e-06
3.24427e-06
-3.59041e-06
-2.79455e-06
5.01818e-06
-5.29458e-06
-7.20548e-06
6.07846e-06
-5.38418e-06
-8.89979e-06
6.48873e-06
-3.63974e-06
-8.68111e-06
5.67762e-06
-9.66556e-07
-7.4864e-06
4.32223e-06
7.32148e-07
-4.44473e-06
3.42461e-06
2.08798e-06
-5.58009e-06
4.56197e-06
2.67691e-06
-8.41233e-06
6.16761e-06
2.73623e-06
-9.29618e-06
6.48282e-06
4.42866e-06
-1.01068e-05
5.11467e-06
6.52211e-06
-9.60307e-06
3.71164e-06
7.62907e-06
-7.15872e-06
2.96958e-06
6.5118e-06
-2.43551e-06
2.96372e-06
1.8771e-06
2.20555e-06
4.12615e-06
-1.88913e-06
3.2751e-06
2.60588e-06
-3.20115e-06
3.61093e-06
-3.81857e-07
4.48883e-06
-5.7727e-06
-2.39207e-06
-3.7091e-06
-4.56764e-07
-1.23131e-06
-4.22684e-06
-6.95397e-07
-8.12665e-07
-2.90967e-06
2.1491e-07
-2.19661e-07
-2.5135e-06
6.14595e-08
1.17454e-07
-1.25302e-06
-6.9944e-10
1.20079e-07
-8.03358e-07
-7.41654e-09
2.54963e-08
-4.52541e-07
-1.55183e-07
-7.9277e-08
-3.48806e-07
-1.72354e-07
-1.85329e-07
-1.05179e-07
-1.8275e-07
-2.98861e-07
6.32731e-08
-1.44223e-07
-4.30935e-07
1.43403e-07
-1.19082e-07
-5.11057e-07
6.66985e-08
-1.56805e-07
-5.39681e-07
-1.07622e-08
-2.10328e-07
-5.13218e-07
-9.7389e-08
-2.5757e-07
-4.52556e-07
-1.44882e-07
-2.80172e-07
-3.69775e-07
-1.84583e-07
-2.95257e-07
-2.82455e-07
-2.08112e-07
-2.97546e-07
-1.97816e-07
-2.27487e-07
-2.95348e-07
-1.22556e-07
-2.39608e-07
-2.88905e-07
-5.82312e-08
-2.45697e-07
-2.81375e-07
-5.78143e-09
-2.43248e-07
-2.73632e-07
3.42343e-08
-2.33331e-07
-2.67957e-07
6.12398e-08
-2.17498e-07
-2.6381e-07
7.68254e-08
-1.96776e-07
-2.60591e-07
8.36906e-08
-1.71328e-07
-2.58787e-07
8.42465e-08
-1.42736e-07
-2.58265e-07
8.04473e-08
-1.13256e-07
-2.5894e-07
7.2905e-08
-8.4556e-08
-2.61326e-07
6.34934e-08
-5.63498e-08
-2.65056e-07
5.3005e-08
-2.60691e-08
-2.69131e-07
4.08562e-08
6.56467e-09
-2.72762e-07
2.34023e-08
4.17903e-08
-2.75146e-07
-2.24313e-09
7.63586e-08
-2.74794e-07
-4.05495e-08
1.0982e-07
-2.71242e-07
-9.53648e-08
1.39349e-07
-2.65082e-07
-1.68877e-07
1.64008e-07
-2.57457e-07
-2.66436e-07
1.93156e-07
-2.47414e-07
-4.01696e-07
2.46436e-07
-2.31103e-07
-5.8872e-07
3.24781e-07
-2.04988e-07
-8.134e-07
3.73401e-07
-1.73072e-07
-9.89917e-07
2.85153e-07
-1.56247e-07
-1.08493e-06
3.55298e-08
-1.52181e-07
-1.31147e-06
-9.02879e-08
-8.93235e-08
-1.79746e-06
-2.19611e-08
2.89581e-08
-2.32657e-06
1.18043e-07
5.74874e-08
-2.43998e-06
1.31085e-08
-1.66822e-07
-1.60805e-06
-8.89913e-07
-6.06852e-07
-4.65413e-07
-2.91944e-06
-4.16931e-07
-1.10813e-06
-4.49088e-06
8.8512e-07
-2.89618e-06
-3.62626e-06
1.83095e-06
-4.656e-06
-2.81495e-06
2.43524e-06
-4.77676e-06
-2.99486e-06
1.3519e-06
-8.33902e-07
-6.99966e-06
5.80407e-07
4.17351e-06
-1.27897e-05
5.11523e-07
9.88858e-06
-2.59293e-05
1.09704e-06
1.44064e-05
-3.01121e-05
4.81665e-07
1.69019e-05
-1.71863e-05
1.87538e-06
1.92651e-05
-2.18e-05
1.56432e-06
1.02221e-05
3.70782e-06
2.19703e-05
3.61798e-05
-7.15455e-06
-1.78773e-07
1.33776e-05
-3.03418e-05
-8.31784e-06
6.66451e-06
-1.75216e-05
5.51564e-06
1.52734e-06
-8.383e-06
5.88056e-06
-3.33507e-06
-3.61797e-06
1.61982e-06
-3.73203e-06
-1.777e-06
3.74347e-07
-6.06004e-06
2.58119e-06
4.56599e-07
-6.23661e-06
4.18486e-06
-1.63055e-06
-7.66989e-06
4.89868e-06
-1.9967e-06
-1.09875e-05
8.83836e-07
1.24335e-06
-1.54363e-05
-2.32752e-06
3.8369e-06
-1.73384e-05
-5.38957e-06
3.65697e-06
-1.73247e-05
-6.66381e-06
3.66162e-06
-1.64228e-05
-5.99761e-06
4.00727e-06
-1.54682e-05
-2.67767e-06
3.11985e-06
-1.52521e-05
1.07283e-06
2.12326e-06
-1.58368e-05
3.33947e-06
2.06576e-06
-1.66724e-05
4.03956e-06
2.86535e-06
-1.69219e-05
2.34491e-06
4.7724e-06
-1.59303e-05
-3.85388e-06
6.28122e-06
-1.57951e-05
-9.34884e-06
6.41916e-06
-1.58391e-05
-1.40768e-05
6.91532e-06
-1.45392e-05
-1.71159e-05
6.91618e-06
-1.22086e-05
-1.79489e-05
6.93724e-06
-8.48704e-06
-1.80353e-05
6.82729e-06
-4.00169e-06
-1.54635e-05
6.5334e-06
-1.26463e-06
-1.59547e-05
7.63755e-06
4.44364e-07
-1.72684e-05
7.14711e-06
2.72339e-06
-1.68774e-05
5.3022e-06
6.85873e-06
-1.50765e-05
8.34344e-07
1.09798e-05
-1.21558e-05
-1.56834e-06
1.25565e-05
-8.25084e-06
-4.84562e-07
1.22781e-05
-1.64945e-06
-5.07678e-07
7.07064e-06
4.11916e-06
3.29384e-06
1.80431e-07
6.54386e-06
3.62144e-06
-2.83403e-06
6.35933e-06
2.66067e-07
6.71879e-06
-5.064e-06
-2.84687e-06
-3.76229e-06
-2.51402e-07
-1.7485e-06
-4.4487e-06
-8.68814e-07
-1.42403e-06
-3.29287e-06
6.64862e-08
-7.99178e-07
-3.17877e-06
4.80462e-08
-3.0276e-07
-1.87947e-06
1.39076e-07
-5.37927e-08
-1.10715e-06
6.334e-08
-5.76309e-08
-2.89064e-07
-1.5249e-07
-1.27834e-07
-8.12028e-08
-1.92432e-07
-1.53934e-07
1.43066e-07
-2.18046e-07
-1.9889e-07
3.01834e-07
-1.91389e-07
-2.58009e-07
4.03837e-07
-2.00189e-07
-3.36358e-07
3.69854e-07
-2.2437e-07
-4.17727e-07
3.27702e-07
-2.56734e-07
-4.48222e-07
2.29773e-07
-2.96481e-07
-4.36502e-07
1.66403e-07
-3.22791e-07
-3.91509e-07
1.17629e-07
-3.47005e-07
-3.29095e-07
9.13481e-08
-3.61664e-07
-2.62603e-07
7.93832e-08
-3.73155e-07
-1.99326e-07
7.73299e-08
-3.79996e-07
-1.41531e-07
8.07575e-08
-3.84013e-07
-8.90799e-08
9.02931e-08
-3.85757e-07
-4.25895e-08
1.05508e-07
-3.85077e-07
-3.51717e-09
1.25493e-07
-3.81821e-07
2.69825e-08
1.49962e-07
-3.76977e-07
4.83522e-08
1.79075e-07
-3.71524e-07
6.04335e-08
2.11624e-07
-3.66172e-07
6.45105e-08
2.44202e-07
-3.6128e-07
6.26826e-08
2.75042e-07
-3.575e-07
5.53734e-08
3.06269e-07
-3.55064e-07
4.14685e-08
3.41407e-07
-3.53318e-07
1.87928e-08
3.80996e-07
-3.51536e-07
-1.26545e-08
4.22061e-07
-3.48585e-07
-5.45155e-08
4.62571e-07
-3.44135e-07
-1.0875e-07
5.02587e-07
-3.38293e-07
-1.78482e-07
5.41048e-07
-3.31752e-07
-2.69025e-07
5.79638e-07
-3.24844e-07
-3.88039e-07
6.30246e-07
-3.17844e-07
-5.4683e-07
7.13899e-07
-3.08396e-07
-7.46849e-07
8.17194e-07
-2.9214e-07
-9.41135e-07
8.44369e-07
-2.76076e-07
-1.04161e-06
6.66751e-07
-2.79445e-07
-1.06655e-06
3.57614e-07
-2.93403e-07
-1.1516e-06
2.66976e-07
-2.649e-07
-1.34493e-06
3.89421e-07
-2.04317e-07
-1.5217e-06
5.63118e-07
-2.41111e-07
-1.37783e-06
4.32007e-07
-5.09696e-07
-7.77749e-07
-6.05444e-07
-7.87565e-07
-1.07068e-06
-2.2964e-06
-2.20458e-07
-3.65804e-06
-3.07328e-06
1.27137e-06
-6.10924e-06
-2.86624e-06
1.74219e-06
-7.61718e-06
-3.05186e-06
1.83427e-06
-5.4331e-06
-5.6206e-06
4.55764e-07
2.92251e-06
-1.48952e-05
-2.7651e-07
7.47701e-06
-1.93173e-05
1.87376e-06
9.59024e-06
-2.92782e-05
1.29434e-06
5.61293e-06
-2.87268e-05
2.1357e-06
1.57862e-05
-1.85944e-05
-6.64688e-06
2.38089e-05
-3.03342e-05
-9.65119e-08
1.85939e-05
2.59762e-09
2.62675e-05
3.81877e-05
-5.11572e-06
-1.41249e-06
5.65349e-06
-2.64933e-05
-8.24278e-06
-6.30638e-06
-1.42704e-05
7.91757e-06
-1.25229e-05
-7.2305e-06
5.04387e-06
-2.14145e-05
8.00686e-07
4.4683e-06
-2.75179e-05
2.36154e-06
1.96611e-06
-3.04965e-05
4.98467e-06
5.82015e-07
-3.14438e-05
4.55808e-06
5.8269e-07
-3.10364e-05
2.8287e-06
1.67213e-06
-3.10842e-05
-2.21157e-06
3.14454e-06
-3.02766e-05
-5.92578e-06
2.78337e-06
-3.03588e-05
-9.41278e-06
4.09447e-06
-3.05986e-05
-1.15592e-05
5.12128e-06
-3.04453e-05
-1.2363e-05
6.19915e-06
-2.91058e-05
-1.08479e-05
6.82008e-06
-2.70709e-05
-7.94614e-06
6.97745e-06
-2.51245e-05
-5.51598e-06
6.90626e-06
-2.33073e-05
-4.57674e-06
6.79871e-06
-2.09245e-05
-6.72634e-06
6.6883e-06
-1.87975e-05
-1.20597e-05
6.07732e-06
-1.79532e-05
-1.57372e-05
5.5427e-06
-1.75872e-05
-1.99401e-05
5.49637e-06
-1.65787e-05
-2.33899e-05
5.26486e-06
-1.48998e-05
-2.44914e-05
4.86338e-06
-1.215e-05
-2.56179e-05
4.83275e-06
-8.23778e-06
-2.3734e-05
4.35826e-06
-5.1509e-06
-2.21813e-05
3.13973e-06
-1.35441e-06
-2.10848e-05
1.98805e-08
3.99184e-06
-1.96137e-05
-2.60997e-06
9.72903e-06
-1.67469e-05
-4.06672e-06
1.48178e-05
-1.17052e-05
-5.53942e-06
1.78783e-05
-7.15423e-06
-4.15711e-06
1.68654e-05
2.56326e-06
-3.1998e-06
1.39605e-05
9.49628e-06
-2.47219e-06
5.60803e-06
1.29925e-05
1.90387e-06
-5.82145e-07
1.20083e-05
5.41198e-07
1.00844e-05
-3.94772e-06
-3.30478e-06
-3.67152e-06
-2.29583e-09
-2.25059e-06
-4.58362e-06
-9.13079e-07
-1.95485e-06
-3.52842e-06
-5.27872e-08
-1.28352e-06
-3.71728e-06
-1.25585e-07
-7.58773e-07
-2.69348e-06
2.97629e-07
-2.41895e-07
-1.82805e-06
2.13639e-07
-7.02646e-08
-3.32945e-07
-1.18514e-07
-1.29508e-07
1.4666e-07
-1.63e-07
-1.03512e-07
3.36194e-07
-2.15053e-07
-1.00177e-07
5.04662e-07
-2.03636e-07
-1.11669e-07
6.32309e-07
-2.15496e-07
-1.87583e-07
6.60428e-07
-2.14052e-07
-3.02383e-07
6.65347e-07
-2.22496e-07
-3.77566e-07
5.5426e-07
-2.49238e-07
-3.971e-07
4.59728e-07
-2.7372e-07
-3.73726e-07
3.94332e-07
-3.00061e-07
-3.27547e-07
3.65736e-07
-3.20548e-07
-2.75664e-07
3.6632e-07
-3.38836e-07
-2.24256e-07
3.79552e-07
-3.53622e-07
-1.74878e-07
3.96877e-07
-3.6551e-07
-1.26142e-07
4.16517e-07
-3.74958e-07
-7.80819e-08
4.3897e-07
-3.81546e-07
-3.34626e-08
4.65247e-07
-3.84383e-07
5.38214e-09
4.94418e-07
-3.83335e-07
3.67549e-08
5.26241e-07
-3.78555e-07
5.94682e-08
5.59793e-07
-3.70921e-07
7.35982e-08
5.91918e-07
-3.6186e-07
7.94437e-08
6.21762e-07
-3.52598e-07
7.47399e-08
6.53738e-07
-3.42761e-07
5.78696e-08
6.91035e-07
-3.32765e-07
2.7534e-08
7.34222e-07
-3.22854e-07
-1.59546e-08
7.79204e-07
-3.13628e-07
-7.18714e-08
8.24776e-07
-3.06216e-07
-1.41049e-07
8.7218e-07
-3.00356e-07
-2.27363e-07
9.22924e-07
-2.95451e-07
-3.3844e-07
9.82164e-07
-2.91351e-07
-4.78725e-07
1.05836e-06
-2.87671e-07
-6.42353e-07
1.16131e-06
-2.83627e-07
-8.01996e-07
1.2544e-06
-2.77284e-07
-9.14765e-07
1.22374e-06
-2.65882e-07
-9.60821e-07
9.77527e-07
-2.62989e-07
-9.87986e-07
6.80668e-07
-2.91952e-07
-1.04097e-06
6.29894e-07
-3.01176e-07
-1.07116e-06
7.82903e-07
-3.46187e-07
-9.66787e-07
9.98641e-07
-5.07754e-07
-7.55983e-07
9.80719e-07
-6.98693e-07
-9.55069e-07
3.18061e-07
-6.25765e-07
-2.59769e-06
-6.74316e-07
1.27174e-07
-5.31248e-06
-1.28395e-06
1.02957e-06
-6.73881e-06
-2.32107e-06
9.5867e-07
-6.04287e-06
-4.10884e-06
5.10774e-07
-1.9449e-06
-9.41072e-06
-2.79262e-07
4.10895e-06
-2.06144e-05
-2.0029e-07
3.15675e-06
-2.19584e-05
3.42601e-06
3.56071e-06
-2.91039e-05
-5.03182e-07
-9.53134e-07
-2.64304e-05
1.64322e-06
1.47195e-05
-2.94263e-05
-1.6686e-06
2.20432e-05
-4.19444e-05
1.1167e-06
2.14691e-05
3.57527e-06
1.85918e-05
4.05823e-05
-2.68052e-06
-2.36124e-06
2.62873e-06
-1.80442e-05
-9.62695e-06
-1.04933e-05
-9.49132e-06
7.20897e-06
-1.84812e-05
-1.43186e-06
2.18451e-06
-2.9314e-05
7.56491e-06
4.09926e-06
-3.56752e-05
7.05796e-06
1.69674e-06
-3.69511e-05
5.17434e-06
1.11649e-06
-3.47946e-05
2.04158e-06
3.88731e-07
-3.18576e-05
-1.05014e-06
9.54997e-07
-3.011e-05
-4.58091e-06
6.06872e-07
-2.92064e-05
-7.63963e-06
7.76418e-07
-2.98467e-05
-1.12504e-05
2.42632e-06
-3.21442e-05
-1.39282e-05
4.59609e-06
-3.38254e-05
-1.65897e-05
5.8347e-06
-3.47875e-05
-1.6459e-05
6.50962e-06
-3.35783e-05
-1.5435e-05
6.22692e-06
-3.04223e-05
-1.45e-05
5.78559e-06
-2.79312e-05
-1.32326e-05
6.13169e-06
-2.61463e-05
-1.40287e-05
5.48684e-06
-2.42185e-05
-1.7984e-05
3.95882e-06
-2.23275e-05
-1.98442e-05
2.17939e-06
-2.07312e-05
-2.21718e-05
6.05391e-07
-1.84331e-05
-2.48796e-05
-8.32944e-07
-1.57934e-05
-2.54408e-05
-1.70592e-06
-1.24825e-05
-2.63699e-05
-2.56795e-06
-8.5374e-06
-2.46426e-05
-3.04085e-06
-4.36695e-06
-2.26719e-05
-3.68136e-06
4.99989e-07
-2.10816e-05
-4.87058e-06
6.91506e-06
-1.93086e-05
-6.72029e-06
1.30706e-05
-1.70159e-05
-5.88657e-06
1.82435e-05
-1.02284e-05
-6.64972e-06
2.1475e-05
-4.85283e-06
-5.53291e-06
1.93991e-05
6.37677e-06
-1.73757e-06
1.51316e-05
1.64995e-05
-2.73568e-06
8.76082e-06
2.00561e-05
-6.92876e-07
2.0309e-06
1.82529e-05
4.8534e-07
1.52273e-05
-3.112e-06
-3.74399e-06
-3.48792e-06
3.8353e-07
-2.77195e-06
-4.75029e-06
-8.0102e-07
-2.45401e-06
-3.68486e-06
-1.54688e-07
-1.56579e-06
-3.99903e-06
-5.98856e-07
-1.00181e-06
-3.35521e-06
1.0637e-07
-3.28233e-07
-2.66978e-06
1.76591e-07
-1.7868e-08
-6.04277e-07
-2.82959e-08
-7.09041e-08
2.79235e-07
-7.15207e-08
-1.7146e-08
4.78411e-07
-1.91567e-07
-5.84367e-09
6.75438e-07
-1.7922e-07
8.1561e-09
8.18952e-07
-1.98594e-07
-7.49432e-08
9.29055e-07
-1.84547e-07
-2.1937e-07
9.85429e-07
-1.74981e-07
-3.21945e-07
8.51254e-07
-1.94037e-07
-3.46278e-07
7.10559e-07
-2.26121e-07
-3.21449e-07
6.30499e-07
-2.60616e-07
-2.76911e-07
6.10578e-07
-2.89003e-07
-2.35175e-07
6.35681e-07
-3.10695e-07
-2.00453e-07
6.7288e-07
-3.27636e-07
-1.70082e-07
7.0769e-07
-3.40732e-07
-1.39568e-07
7.37328e-07
-3.50879e-07
-1.0677e-07
7.64055e-07
-3.57412e-07
-7.35775e-08
7.91641e-07
-3.59135e-07
-4.17952e-08
8.19962e-07
-3.56855e-07
-1.53574e-08
8.5091e-07
-3.50658e-07
3.81373e-09
8.82291e-07
-3.41189e-07
1.74799e-08
9.07368e-07
-3.28662e-07
2.51167e-08
9.29143e-07
-3.14532e-07
2.35293e-08
9.54801e-07
-2.99014e-07
9.71002e-09
9.88957e-07
-2.83602e-07
-1.92669e-08
1.03281e-06
-2.69137e-07
-6.39295e-08
1.08132e-06
-2.56934e-07
-1.24439e-07
1.1325e-06
-2.46718e-07
-2.00066e-07
1.18678e-06
-2.38427e-07
-2.91575e-07
1.24697e-06
-2.32014e-07
-4.01942e-07
1.31976e-06
-2.26636e-07
-5.27576e-07
1.40766e-06
-2.23087e-07
-6.46267e-07
1.50377e-06
-2.23099e-07
-7.24017e-07
1.55691e-06
-2.23981e-07
-7.36332e-07
1.46212e-06
-2.24789e-07
-7.08864e-07
1.19311e-06
-2.40918e-07
-7.03914e-07
9.54409e-07
-2.74036e-07
-7.40575e-07
9.64803e-07
-2.87781e-07
-7.77725e-07
1.19059e-06
-3.49405e-07
-6.86462e-07
1.47088e-06
-5.23092e-07
-7.06957e-07
1.6897e-06
-6.17475e-07
-1.64488e-06
1.62963e-06
-2.79866e-07
-3.61358e-06
1.166e-06
2.32339e-07
-5.33888e-06
3.50369e-07
2.01498e-07
-5.45028e-06
-1.69118e-06
-4.26397e-07
-3.03068e-06
-5.83721e-06
-5.23206e-07
-8.25894e-08
-1.20425e-05
-2.55717e-07
-3.2481e-06
-1.96837e-05
2.23405e-06
-1.0241e-05
-1.97554e-05
4.69177e-06
-1.61356e-05
-2.18657e-05
-1.20741e-06
-1.38207e-05
-2.54366e-05
-3.80751e-06
6.60826e-06
-4.01347e-05
-6.16875e-06
1.04065e-06
-4.09827e-05
1.36988e-06
2.2182e-05
-1.57026e-06
7.1762e-06
4.38575e-05
-3.79449e-07
-2.87429e-06
1.42463e-06
-7.52934e-06
-9.56499e-06
-1.7785e-05
1.2195e-06
6.91904e-06
-2.83025e-05
8.07005e-06
1.06416e-06
-3.4017e-05
1.21966e-05
1.13157e-06
-3.58708e-05
9.37381e-06
-4.27336e-07
-3.28343e-05
2.31515e-06
-1.58525e-07
-2.73598e-05
-3.11222e-06
-3.27875e-07
-2.27703e-05
-6.07674e-06
4.24285e-07
-1.9456e-05
-7.9607e-06
3.66815e-08
-1.72707e-05
-1.02709e-05
4.15258e-07
-1.72451e-05
-1.28448e-05
1.52015e-06
-2.0339e-05
-1.46669e-05
3.77404e-06
-2.71772e-05
-1.61139e-05
6.28121e-06
-3.48383e-05
-1.66972e-05
7.80784e-06
-3.95019e-05
-1.71625e-05
6.31033e-06
-3.89905e-05
-1.84981e-05
3.40173e-06
-3.70788e-05
-1.73615e-05
2.13613e-06
-3.47768e-05
-1.68946e-05
4.87942e-07
-3.1131e-05
-1.91936e-05
-2.52651e-06
-2.77416e-05
-1.9588e-05
-3.74962e-06
-2.44624e-05
-2.03361e-05
-5.2246e-06
-2.14034e-05
-2.20199e-05
-6.03816e-06
-1.81642e-05
-2.23104e-05
-6.48092e-06
-1.47314e-05
-2.36545e-05
-6.24505e-06
-1.07059e-05
-2.2221e-05
-6.51961e-06
-5.39017e-06
-2.09151e-05
-7.11904e-06
6.05173e-07
-1.97882e-05
-7.31699e-06
7.41635e-06
-1.82765e-05
-7.8577e-06
1.34069e-05
-1.60057e-05
-7.00656e-06
1.97257e-05
-8.8456e-06
-7.70284e-06
2.33804e-05
-2.3167e-06
-6.19105e-06
2.06562e-05
6.74051e-06
2.36041e-06
1.64015e-05
1.97191e-05
1.03503e-06
9.59999e-06
2.63721e-05
4.85432e-07
3.037e-06
2.43172e-05
4.98702e-07
2.01006e-05
-1.83633e-06
-4.10551e-06
-3.1814e-06
8.45436e-07
-3.30009e-06
-4.79449e-06
-7.58781e-07
-2.98788e-06
-3.66465e-06
-3.26586e-07
-1.78682e-06
-4.00482e-06
-1.18758e-06
-1.04635e-06
-3.63382e-06
-4.52601e-07
-2.47746e-07
-3.13836e-06
-3.22629e-07
1.0162e-07
-8.46135e-07
-9.75118e-08
-4.92545e-09
4.3367e-07
-3.79918e-08
6.47989e-08
6.30901e-07
-2.17345e-07
4.78746e-08
8.75558e-07
-1.80205e-07
5.62779e-08
1.01356e-06
-2.01238e-07
-2.53421e-08
1.16145e-06
-1.49936e-07
-1.44899e-07
1.23571e-06
-1.30361e-07
-2.19072e-07
1.08011e-06
-1.54794e-07
-2.28725e-07
9.29497e-07
-2.09424e-07
-2.03321e-07
8.56395e-07
-2.51532e-07
-1.71595e-07
8.60087e-07
-2.8144e-07
-1.53137e-07
9.14547e-07
-2.97574e-07
-1.47584e-07
9.74798e-07
-3.07698e-07
-1.48781e-07
1.0237e-06
-3.15073e-07
-1.51443e-07
1.06013e-06
-3.20385e-07
-1.51563e-07
1.08734e-06
-3.23435e-07
-1.47964e-07
1.11023e-06
-3.2243e-07
-1.41608e-07
1.1306e-06
-3.17252e-07
-1.36733e-07
1.15312e-06
-3.07319e-07
-1.35811e-07
1.17466e-06
-2.93528e-07
-1.33449e-07
1.18621e-06
-2.81382e-07
-1.30414e-07
1.1955e-06
-2.69555e-07
-1.2918e-07
1.21115e-06
-2.57704e-07
-1.35678e-07
1.24096e-06
-2.45639e-07
-1.55955e-07
1.28771e-06
-2.34697e-07
-1.91537e-07
1.34191e-06
-2.25104e-07
-2.40721e-07
1.39917e-06
-2.17521e-07
-2.98511e-07
1.4579e-06
-2.13372e-07
-3.59217e-07
1.52048e-06
-2.12784e-07
-4.19616e-07
1.59409e-06
-2.13916e-07
-4.7621e-07
1.68042e-06
-2.16079e-07
-5.20012e-07
1.76833e-06
-2.20684e-07
-5.32578e-07
1.80098e-06
-2.31304e-07
-5.00226e-07
1.68477e-06
-2.54516e-07
-4.38913e-07
1.41693e-06
-2.83737e-07
-3.91807e-07
1.22723e-06
-3.15747e-07
-3.78751e-07
1.28759e-06
-3.25399e-07
-4.38974e-07
1.60846e-06
-3.35792e-07
-5.24943e-07
2.01524e-06
-4.15364e-07
-9.2054e-07
2.58047e-06
-4.26386e-07
-2.05544e-06
3.07841e-06
-2.25433e-07
-3.60561e-06
2.78947e-06
2.13823e-08
-4.60519e-06
1.46868e-06
-8.63468e-09
-4.10081e-06
-1.46599e-06
-6.02357e-07
-2.52895e-06
-6.5851e-06
-6.57971e-07
-4.44171e-06
-1.0582e-05
4.60841e-07
-1.61037e-05
-1.2351e-05
4.27455e-06
-2.54145e-05
-1.18686e-05
1.32758e-06
-2.78645e-05
-1.47454e-05
-4.7185e-06
-2.2871e-05
-2.23053e-05
-8.38718e-06
-1.93262e-05
-3.3644e-05
-7.70373e-06
-1.72821e-05
-3.80289e-05
-7.24637e-06
2.36693e-05
-2.11697e-05
1.63429e-06
4.66653e-05
7.28681e-07
-3.87045e-06
2.63019e-06
2.77248e-06
-9.48427e-06
-1.93881e-05
1.45495e-05
6.77473e-06
-2.94465e-05
1.76198e-05
5.65371e-07
-3.33762e-05
1.68108e-05
-6.58967e-07
-3.23163e-05
1.12176e-05
-2.92315e-06
-2.63095e-05
-1.01009e-06
-2.69589e-06
-2.06979e-05
-6.45231e-06
-2.29808e-06
-1.67405e-05
-9.34646e-06
-6.97993e-07
-1.37856e-05
-1.06768e-05
-2.51367e-07
-1.1933e-05
-1.26982e-05
5.68575e-07
-1.158e-05
-1.50386e-05
1.83006e-06
-1.2547e-05
-1.6706e-05
2.99579e-06
-1.57562e-05
-1.80696e-05
5.15128e-06
-2.44896e-05
-1.55217e-05
7.53618e-06
-3.68831e-05
-1.19135e-05
7.10891e-06
-4.17638e-05
-1.42763e-05
6.12492e-07
-4.12356e-05
-1.57687e-05
-2.16733e-06
-4.02185e-05
-1.36048e-05
-4.34798e-06
-3.88369e-05
-1.42404e-05
-6.39481e-06
-3.5516e-05
-1.55897e-05
-7.38263e-06
-3.2014e-05
-1.62764e-05
-7.64401e-06
-2.85356e-05
-1.75999e-05
-8.00912e-06
-2.48778e-05
-1.76062e-05
-8.50865e-06
-2.20121e-05
-1.89082e-05
-7.80036e-06
-1.79919e-05
-1.874e-05
-7.71447e-06
-1.29649e-05
-1.86246e-05
-7.53712e-06
-7.31034e-06
-1.85979e-05
-7.04865e-06
-1.18578e-06
-1.79609e-05
-6.60833e-06
5.25933e-06
-1.61803e-05
-6.39447e-06
1.41222e-05
-1.03158e-05
-7.46634e-06
1.96613e-05
-2.64591e-06
-5.23683e-06
1.72438e-05
5.73198e-06
3.4247e-06
1.32494e-05
2.16391e-05
2.07575e-06
8.53297e-06
2.99594e-05
1.12907e-06
2.94217e-06
2.84603e-05
1.44972e-06
2.38881e-05
-8.48348e-07
-4.02822e-06
-2.76732e-06
1.50098e-06
-3.62325e-06
-4.46748e-06
-7.30629e-07
-3.59885e-06
-3.44473e-06
-2.39076e-07
-2.303e-06
-3.88142e-06
-1.41137e-06
-1.2756e-06
-3.75416e-06
-8.96547e-07
-1.85224e-07
-3.35943e-06
-8.60215e-07
2.20602e-07
-1.13225e-06
-1.10521e-07
1.16544e-07
5.00631e-07
4.65202e-08
1.48608e-07
8.76917e-07
-2.71402e-07
4.58327e-08
1.1728e-06
-1.9053e-07
3.43117e-08
1.25033e-06
-2.22898e-07
4.59773e-09
1.37036e-06
-1.78284e-07
-3.91915e-10
1.43644e-06
-1.95175e-07
-3.02515e-10
1.33204e-06
-2.52112e-07
-1.68063e-09
1.2521e-06
-3.21014e-07
-1.48231e-08
1.24339e-06
-3.73784e-07
-4.13255e-08
1.29721e-06
-4.1048e-07
-7.90948e-08
1.38318e-06
-4.30729e-07
-1.23344e-07
1.4649e-06
-4.45708e-07
-1.72307e-07
1.53074e-06
-4.5791e-07
-2.17596e-07
1.57293e-06
-4.6736e-07
-2.51246e-07
1.59522e-06
-4.7409e-07
-2.74656e-07
1.61148e-06
-4.7776e-07
-2.89048e-07
1.62401e-06
-4.7896e-07
-2.95133e-07
1.63668e-06
-4.77497e-07
-2.95272e-07
1.64871e-06
-4.73993e-07
-2.93968e-07
1.65453e-06
-4.69782e-07
-2.89836e-07
1.65781e-06
-4.66622e-07
-2.83808e-07
1.66744e-06
-4.62551e-07
-2.83306e-07
1.69717e-06
-4.56927e-07
-2.97553e-07
1.75144e-06
-4.49722e-07
-3.24031e-07
1.81093e-06
-4.42752e-07
-3.57099e-07
1.87016e-06
-4.38169e-07
-3.89344e-07
1.92721e-06
-4.37287e-07
-4.11796e-07
1.98289e-06
-4.40196e-07
-4.19963e-07
2.04674e-06
-4.44678e-07
-4.06656e-07
2.11694e-06
-4.50034e-07
-3.64015e-07
2.18347e-06
-4.57927e-07
-2.89694e-07
2.20665e-06
-4.80038e-07
-1.89662e-07
2.11375e-06
-5.2867e-07
-1.07168e-07
1.93449e-06
-5.98974e-07
-1.16628e-07
1.89621e-06
-6.55101e-07
-1.60007e-07
2.0268e-06
-6.83066e-07
-2.08215e-07
2.36535e-06
-6.82265e-07
-3.23862e-07
2.88927e-06
-7.11281e-07
-7.20251e-07
3.66548e-06
-6.18784e-07
-1.42865e-06
4.18659e-06
-3.13602e-07
-2.0897e-06
3.94247e-06
-3.98884e-07
-2.38024e-06
2.52617e-06
-6.4944e-07
-2.59965e-06
-4.12772e-07
-6.46388e-07
-4.63093e-06
-2.78623e-06
-1.50064e-06
-1.24239e-05
-1.7703e-06
-9.24963e-07
-2.62671e-05
1.00852e-07
1.34746e-06
-3.54498e-05
3.01059e-07
-3.08862e-06
-4.05475e-05
-2.79744e-06
-6.89193e-06
-4.0951e-05
-9.42265e-06
-1.27017e-05
-4.4807e-05
-1.42858e-05
-1.24935e-05
-4.14521e-05
-2.96963e-05
-1.55381e-05
3.2393e-05
-4.18213e-05
-2.03648e-05
5.12909e-05
8.82715e-07
-5.94192e-06
-1.1275e-05
2.13841e-05
-4.17589e-06
-2.47738e-05
1.73701e-05
9.0093e-06
-3.1871e-05
2.25593e-05
2.14024e-06
-3.05069e-05
1.61508e-05
-7.53521e-07
-2.66928e-05
1.27413e-05
-5.42505e-06
-1.78467e-05
-4.30883e-06
-5.57888e-06
-1.17232e-05
-7.70454e-06
-4.88757e-06
-8.50253e-06
-9.67447e-06
-2.88964e-06
-6.64738e-06
-1.06787e-05
-1.83518e-06
-6.80588e-06
-1.27814e-05
2.82167e-07
-8.03762e-06
-1.55484e-05
1.7912e-06
-9.71924e-06
-1.79366e-05
2.97622e-06
-1.23824e-05
-1.94453e-05
4.12648e-06
-1.76077e-05
-1.69029e-05
6.68715e-06
-2.86876e-05
-9.43412e-06
8.67114e-06
-3.86952e-05
-5.51554e-06
1.2842e-06
-4.51032e-05
-4.41283e-06
-4.96246e-06
-4.83304e-05
-1.9855e-06
-8.43816e-06
-4.79335e-05
-4.85441e-06
-9.85568e-06
-4.47801e-05
-1.0548e-05
-8.26955e-06
-4.25358e-05
-1.27109e-05
-5.86557e-06
-3.98931e-05
-1.64155e-05
-3.86857e-06
-3.67218e-05
-1.72525e-05
-3.5598e-06
-3.43016e-05
-1.70478e-05
-4.34418e-06
-3.08185e-05
-1.65853e-05
-5.75174e-06
-2.60638e-05
-1.6712e-05
-6.85692e-06
-2.18396e-05
-1.59684e-05
-7.10898e-06
-1.6887e-05
-1.59986e-05
-7.23401e-06
-9.79602e-06
-1.5673e-05
-8.06702e-06
-3.73052e-07
-1.28787e-05
-7.42691e-06
8.95624e-06
-6.84951e-06
-5.66264e-06
1.03339e-05
3.87586e-06
2.1516e-07
7.59207e-06
2.17139e-05
2.59415e-06
4.53949e-06
2.96235e-05
3.30468e-06
1.70439e-06
2.82525e-05
3.1172e-06
2.47396e-05
1.29228e-07
-3.46233e-06
-1.6467e-06
2.48816e-06
-3.77453e-06
-4.0758e-06
-8.17086e-08
-4.25261e-06
-3.17909e-06
2.17515e-07
-3.08431e-06
-3.90735e-06
-1.13358e-06
-1.86397e-06
-3.96947e-06
-9.92944e-07
-3.99203e-07
-3.70288e-06
-1.10956e-06
1.95618e-07
-1.63262e-06
-8.70457e-08
8.72171e-08
2.48526e-07
3.67742e-07
9.54542e-08
8.25796e-07
5.18333e-08
-5.77305e-10
1.14199e-06
1.31947e-07
3.18833e-08
1.1657e-06
5.52324e-08
8.02525e-08
1.23053e-06