/*--------------------------------*- C++ -*----------------------------------*\
| =========                 |                                                 |
| \\      /  F ield         | OpenFOAM: The Open Source CFD Toolbox           |
|  \\    /   O peration     | Version:  2.3.0                                 |
|   \\  /    A nd           | Web:      www.OpenFOAM.org                      |
|    \\/     M anipulation  |                                                 |
\*---------------------------------------------------------------------------*/
FoamFile
{
    version     2.0;
    format      ascii;
    class       volVectorField;
    location    "60";
    object      U.waterMean;
}
// * * * * * * * * * * * * * * * * * * * * * * * * * * * * * * * * * * * * * //

dimensions      [0 1 -1 0 0 0 0];

internalField   nonuniform List<vector> 
6144
(
(0.0099853 0.0197239 -0.000588312)
(0.0102721 -0.00130948 -0.00158259)
(0.00455848 -0.00283603 -0.0025685)
(0.00407596 -0.00333987 -0.0024468)
(0.00254588 -0.00302364 -0.0019235)
(0.00300099 -0.00120457 -0.00165556)
(0.00275326 -0.00137853 -0.00130588)
(0.00270111 -0.000401226 -0.00104431)
(0.00231428 -0.00033786 -0.000894992)
(0.00202433 0.000883206 -0.000541087)
(0.00178698 0.00180687 -0.000198041)
(0.00183002 0.00261783 0.000268581)
(0.00195446 0.00265048 0.000500434)
(0.00208877 0.00226168 0.00075601)
(0.00215382 0.00156711 0.000708812)
(0.00223145 0.000932155 0.000610975)
(0.00228173 0.000298752 0.00040602)
(0.00233605 -0.000169598 0.000219836)
(0.00238069 -0.000551956 2.3185e-05)
(0.00241491 -0.000783131 -0.00013504)
(0.00243588 -0.000922493 -0.000264517)
(0.00244966 -0.000956942 -0.000355171)
(0.00245065 -0.000941062 -0.000397814)
(0.0024396 -0.00088769 -0.00039608)
(0.00241688 -0.000820913 -0.000357657)
(0.00238563 -0.00075031 -0.000288414)
(0.00235045 -0.000688306 -0.00019958)
(0.002315 -0.00064624 -0.000104211)
(0.00227771 -0.000625184 -6.57503e-06)
(0.00223831 -0.000630452 8.64478e-05)
(0.00219811 -0.000633815 0.000177497)
(0.00215362 -0.000679296 0.000273624)
(0.00210917 -0.000692215 0.000381419)
(0.00205861 -0.00081489 0.000507936)
(0.00201471 -0.000869994 0.00065763)
(0.00196851 -0.00117663 0.000819956)
(0.00194026 -0.00134644 0.000972814)
(0.00191372 -0.00191299 0.00106959)
(0.00191354 -0.00211085 0.00106369)
(0.00192013 -0.00273939 0.000883843)
(0.00194178 -0.00254464 0.000504501)
(0.00198455 -0.00264171 -7.75435e-05)
(0.00211112 -0.00142121 -0.000652923)
(0.00249408 -0.000979731 -0.00108339)
(0.00312895 0.000163057 -0.00150277)
(0.0038361 -0.000424373 -0.00206682)
(0.00427956 0.000314284 -0.00278205)
(0.00381755 0.000445401 -0.00386524)
(0.00323835 0.00567402 -0.00558845)
(0.00612195 0.00948365 -0.00749728)
(0.0170726 0.0108205 -0.0100153)
(0.0258017 -0.00910159 -0.0103134)
(0.029801 -0.0198752 -0.0106768)
(0.0282096 -0.0558757 -0.0097339)
(0.024373 -0.050109 -0.0103335)
(0.0205957 -0.0917463 -0.00653601)
(0.00273218 -0.044739 -0.0123308)
(0.00499052 -0.0998148 0.0242021)
(-0.0356771 -0.00671227 -0.0467774)
(0.0237499 -0.0319206 0.0379909)
(0.134364 -0.293751 0.0628355)
(0.0917428 -0.119943 0.0277727)
(0.0602625 -0.187881 0.00693367)
(0.0509103 -0.200052 0.00415809)
(0.0427453 -0.200265 0.00490015)
(0.0355509 -0.193817 0.00488907)
(0.0294725 -0.193119 0.00421099)
(0.0249959 -0.187455 0.00380356)
(0.0218844 -0.184247 0.00395217)
(0.0191884 -0.177375 0.00433204)
(0.0166562 -0.172252 0.00478081)
(0.0140568 -0.164054 0.00529664)
(0.0116986 -0.155924 0.00584845)
(0.00884791 -0.146344 0.00633454)
(0.00542032 -0.135823 0.00642475)
(0.00287067 -0.12253 0.00509097)
(0.00182665 -0.108806 0.0028272)
(0.00115557 -0.0952002 0.00152525)
(0.000528658 -0.0821296 0.00146753)
(0.00177613 -0.0700055 0.0020223)
(0.00371424 -0.0605181 0.00242756)
(0.00446607 -0.0533884 0.00296999)
(0.00463416 -0.0486049 0.00371932)
(0.00355811 -0.0450377 0.00389835)
(0.00293584 -0.0406091 0.00355492)
(0.00317142 -0.0354838 0.00313054)
(0.00360727 -0.0304812 0.00296241)
(0.00344858 -0.0251477 0.00239169)
(0.00260924 -0.0197731 0.00151409)
(0.00120061 -0.0122567 0.000971443)
(0.000995398 -0.00453783 0.00143104)
(0.0013812 0.00288163 0.0022286)
(0.00106864 0.0095852 0.00316541)
(0.000443698 0.0149746 0.00668015)
(0.00107658 0.016942 0.0112502)
(0.00420574 0.00941468 0.0179627)
(0.0193817 0.0207276 0.00302743)
(0.0206367 0.00674319 0.00242421)
(0.0106066 0.00318593 -0.000756474)
(0.00995469 0.00191119 6.24461e-05)
(0.00563578 -0.00110181 0.000996801)
(0.00571077 -3.81131e-05 0.00151739)
(0.00458845 -0.000923833 0.00210062)
(0.0043664 0.000476762 0.00217792)
(0.00359154 0.000654166 0.00218011)
(0.00311687 0.00222012 0.00223992)
(0.00290062 0.00305317 0.00241081)
(0.0032303 0.00375204 0.0029147)
(0.00359918 0.00359451 0.00319296)
(0.00399582 0.00319851 0.00339841)
(0.00413457 0.00242627 0.00339639)
(0.004278 0.00173817 0.00336827)
(0.00431975 0.00100626 0.00328257)
(0.00437735 0.000457712 0.00321435)
(0.00440991 -1.94394e-05 0.00313479)
(0.00443033 -0.000336125 0.00308316)
(0.00442951 -0.000556585 0.00304308)
(0.00442328 -0.000656676 0.00301194)
(0.00439783 -0.000697239 0.00301177)
(0.00435268 -0.000686982 0.0030449)
(0.00428833 -0.000652777 0.00310389)
(0.00421151 -0.000603455 0.00318222)
(0.00413257 -0.000553106 0.00326439)
(0.00406072 -0.000514936 0.00333644)
(0.00398934 -0.000494917 0.00340939)
(0.00391522 -0.000500697 0.00347734)
(0.00384178 -0.000509622 0.00354319)
(0.00376271 -0.000571246 0.00361096)
(0.00369303 -0.000604863 0.00368302)
(0.00362111 -0.000765813 0.0037598)
(0.00358422 -0.000841871 0.00384508)
(0.00355277 -0.00118391 0.00393094)
(0.00357364 -0.00132489 0.00401338)
(0.00357597 -0.00188891 0.00406936)
(0.00360639 -0.00198237 0.0040811)
(0.00357982 -0.00258311 0.00397454)
(0.00354096 -0.00223996 0.00369294)
(0.00352142 -0.00247913 0.00320303)
(0.0037373 -0.00144571 0.00258802)
(0.00437132 -0.00161216 0.00205099)
(0.0054774 -0.00044753 0.00147593)
(0.0064731 -0.000647966 0.000666658)
(0.00637675 0.00160602 -0.000491014)
(0.00556176 0.0031405 -0.00198416)
(0.0069618 0.00786118 -0.00356176)
(0.0156528 0.00572582 -0.00450782)
(0.0365379 0.000366536 -0.00574201)
(0.0502992 -0.0169902 -0.00537636)
(0.0571473 -0.0212901 -0.00351051)
(0.0528717 -0.0503408 -0.000966192)
(0.0418131 -0.0389035 0.00419154)
(0.0411974 -0.0966246 0.0117664)
(0.00120656 -0.0460833 0.0112228)
(0.000708954 -0.1602 0.0447608)
(-0.0894415 0.0247516 -0.0725148)
(0.00550033 -0.0834968 0.0113442)
(0.172874 -0.26191 0.10226)
(0.0876933 0.00331391 0.0438564)
(0.0274974 -0.11514 0.00925057)
(0.0272389 -0.059995 0.0159168)
(0.0140086 -0.0749829 0.0172214)
(0.00588495 -0.0642494 0.01513)
(0.00251569 -0.0638202 0.0124404)
(0.00166489 -0.0559759 0.0115698)
(0.00233335 -0.0524475 0.0119938)
(0.00171717 -0.0466311 0.0113729)
(-0.000343906 -0.0455121 0.0122898)
(-0.00232693 -0.0447286 0.0130452)
(-0.00319146 -0.0465079 0.013248)
(-0.00520597 -0.0479559 0.0125761)
(-0.00817411 -0.049261 0.01119)
(-0.00948436 -0.04751 0.00970172)
(-0.00931403 -0.0454817 0.00818598)
(-0.00911614 -0.0421573 0.00701842)
(-0.00798023 -0.0386529 0.00629684)
(-0.00547437 -0.0357725 0.00629724)
(-0.00310479 -0.0329467 0.00645936)
(-0.00174216 -0.0305266 0.00694078)
(-0.00070355 -0.0300842 0.00780249)
(-0.000945298 -0.0313253 0.00791529)
(-0.00143908 -0.0315881 0.00695702)
(-0.000902808 -0.03116 0.00600525)
(-0.000499175 -0.0290627 0.00463613)
(-0.000959627 -0.025513 0.00338151)
(-0.00195476 -0.0214075 0.00230669)
(-0.00318623 -0.016268 0.00156516)
(-0.00371702 -0.0107433 0.00231456)
(-0.00359942 -0.00517148 0.00292292)
(-0.00451792 0.0026086 0.00419171)
(-0.0052656 0.00747725 0.00905107)
(-0.00510902 0.0105682 0.0150517)
(-0.00186019 0.0039428 0.0228021)
(0.022649 0.020695 0.00414731)
(0.0247077 0.0116115 0.00404394)
(0.0148674 0.00685703 0.00117162)
(0.013569 0.00616502 0.00216119)
(0.00696199 0.00146892 0.00294471)
(0.00600225 0.00202925 0.00314635)
(0.00359095 0.000247544 0.0037613)
(0.00316662 0.0015613 0.00367754)
(0.00217873 0.00153206 0.00360496)
(0.00197923 0.00274208 0.00366377)
(0.0018451 0.00297076 0.00373233)
(0.00248244 0.0035116 0.00402949)
(0.00293415 0.00329508 0.00422876)
(0.00343549 0.00316076 0.00439484)
(0.00362165 0.00262274 0.00438949)
(0.00381174 0.0021628 0.00437792)
(0.00384002 0.00157389 0.00432938)
(0.00389003 0.00112063 0.00430475)
(0.00387997 0.000678036 0.00428239)
(0.00386275 0.000355611 0.00428472)
(0.00380903 8.24703e-05 0.00429953)
(0.00373965 -0.000100553 0.00433387)
(0.00365867 -0.000229456 0.00437624)
(0.0035701 -0.000301585 0.00442471)
(0.0034722 -0.000340627 0.00447619)
(0.00337074 -0.000355586 0.0045294)
(0.00326873 -0.00036061 0.00458424)
(0.00316734 -0.000362583 0.00464269)
(0.00306776 -0.000365555 0.00470375)
(0.00296333 -0.000384863 0.00476662)
(0.00285938 -0.00040533 0.00483043)
(0.00275316 -0.000473961 0.00489462)
(0.00266312 -0.000514019 0.00495913)
(0.00257297 -0.000660085 0.00502121)
(0.00253177 -0.000695801 0.00508142)
(0.00249776 -0.000931929 0.00513264)
(0.00253476 -0.000903437 0.00517421)
(0.00254993 -0.00120458 0.00518965)
(0.00261706 -0.000981754 0.00516951)
(0.00260742 -0.00123537 0.00507486)
(0.00267222 -0.000646592 0.00486877)
(0.00276025 -0.000955142 0.0045848)
(0.00307315 -0.000279073 0.00433313)
(0.00373204 -0.000936002 0.0041174)
(0.00472237 0.000253725 0.00359134)
(0.00566153 0.000231377 0.00297582)
(0.00581931 0.0025592 0.00205327)
(0.00654457 0.00216583 0.000705291)
(0.0112983 0.00495722 -0.000615983)
(0.0258295 -0.00133359 -0.000388363)
(0.0509566 -0.00390369 -0.00118133)
(0.067628 -0.0136837 7.29197e-05)
(0.0720214 -0.00875402 0.00307884)
(0.0671687 -0.0281617 0.00608184)
(0.0594078 -0.0140568 0.0146304)
(0.0558553 -0.0798273 0.0226629)
(0.00225535 -0.0159984 0.0310327)
(0.0157201 -0.183466 0.0614914)
(-0.108936 0.0673362 -0.0594958)
(0.0303866 -0.112775 -0.0189302)
(0.197807 -0.240099 0.1055)
(0.108671 0.0510115 0.048951)
(0.0746734 -0.0898606 0.0238921)
(0.0480244 -0.00730457 0.0165277)
(0.0307765 -0.0345075 0.0121142)
(0.0199926 -0.0159699 0.012312)
(0.0170486 -0.0184777 0.0138313)
(0.0130788 -0.0114658 0.0121392)
(0.0117862 -0.00770906 0.0100188)
(0.011648 -0.00177529 0.0101584)
(0.0102049 -0.00149254 0.0126817)
(0.00673047 -0.0019759 0.0149823)
(0.00375866 -0.00527957 0.0157239)
(0.000495535 -0.00670014 0.0147922)
(-0.00279495 -0.00878523 0.0126022)
(-0.00435387 -0.00883179 0.00997542)
(-0.00430639 -0.00791736 0.00839758)
(-0.00421586 -0.00670407 0.0075303)
(-0.00438389 -0.0070171 0.00810884)
(-0.00317386 -0.00801183 0.00863968)
(-0.00115283 -0.00865177 0.00896335)
(0.000692224 -0.00987021 0.00970378)
(0.00180135 -0.0121841 0.0108243)
(0.000177512 -0.0148216 0.0101784)
(-0.00113986 -0.0169461 0.00939481)
(-0.00139899 -0.0184482 0.00814314)
(-0.00142718 -0.0184862 0.00626002)
(-0.00194611 -0.0180013 0.004221)
(-0.0026044 -0.0167051 0.00192191)
(-0.00391318 -0.0129797 0.000610498)
(-0.00520023 -0.00907564 0.00302386)
(-0.00683261 -0.00542686 0.00537268)
(-0.00814919 -0.000463677 0.00693907)
(-0.00938276 0.00272687 0.0107361)
(-0.0112078 0.00662902 0.0170406)
(-0.0108424 0.000843488 0.0244127)
(0.0237855 0.0207787 0.00436963)
(0.0272739 0.014992 0.00453347)
(0.0170016 0.00870923 0.000936979)
(0.016625 0.0094514 0.00135167)
(0.00885775 0.00345797 0.00197242)
(0.00716684 0.00407647 0.00249831)
(0.00308759 0.000790131 0.00355904)
(0.00219136 0.00184965 0.00358195)
(0.000855274 0.00109203 0.00367764)
(0.000873325 0.00224426 0.00378515)
(0.000758972 0.00210814 0.0039311)
(0.00137489 0.00272346 0.00432506)
(0.00174196 0.00272145 0.00453767)
(0.00226719 0.00289376 0.00470472)
(0.00248892 0.00256445 0.00468527)
(0.00270163 0.00229487 0.00468964)
(0.00272053 0.00180873 0.00466281)
(0.0027554 0.00143785 0.00466828)
(0.00271655 0.00103481 0.00466383)
(0.00267676 0.000728495 0.00467353)
(0.00259527 0.00044364 0.00468551)
(0.00250191 0.000227762 0.00470966)
(0.00239156 4.90693e-05 0.00474006)
(0.00227553 -7.67636e-05 0.00477691)
(0.00215687 -0.00016398 0.00481785)
(0.00204088 -0.000216692 0.00486253)
(0.00193146 -0.000247317 0.0049086)
(0.00183064 -0.000266344 0.00495587)
(0.00173628 -0.000281264 0.00500559)
(0.0016437 -0.000304958 0.00505801)
(0.00155778 -0.000324199 0.00511238)
(0.00147512 -0.000375732 0.00516535)
(0.00141219 -0.000389467 0.00521301)
(0.00135098 -0.000482968 0.00525008)
(0.00133939 -0.00045121 0.00527297)
(0.00132399 -0.000579714 0.00527589)
(0.00137825 -0.000417258 0.00525829)
(0.00138383 -0.00053357 0.00520977)
(0.0014436 -9.79492e-05 0.00512577)
(0.00144604 -0.000135942 0.00498254)
(0.0016507 0.000572674 0.00477027)
(0.00194233 0.00021997 0.00454794)
(0.00239354 0.000675555 0.00436702)
(0.0028005 -0.000205482 0.00421977)
(0.00345692 0.000532986 0.00400055)
(0.00426518 -8.59539e-05 0.00388304)
(0.00513381 0.00154579 0.00355874)
(0.00704209 -0.000801826 0.00254012)
(0.0143437 -6.14129e-05 0.00163256)
(0.0297431 -0.00737423 0.00178226)
(0.0541496 -0.00475427 0.00189702)
(0.0702335 -0.00288208 0.00449361)
(0.0763727 0.0110011 0.00834295)
(0.0736048 0.00249468 0.0118878)
(0.0664203 0.0237539 0.0233533)
(0.0618114 -0.0361291 0.038238)
(0.0190115 0.0505548 0.0695489)
(0.0339998 -0.195654 0.0972208)
(-0.144121 0.189802 -0.042051)
(0.0312596 -0.20568 0.00805593)
(0.183584 -0.203932 0.114267)
(0.081505 0.0811368 0.0356827)
(0.0526544 -0.0463224 0.0236603)
(0.0165636 0.0433185 0.00380754)
(0.0112064 0.0224731 0.00738571)
(0.00120414 0.0427734 0.00851103)
(-0.000261536 0.0411697 0.0100492)
(-0.000978232 0.0476533 0.0101789)
(0.00042105 0.0463682 0.00936043)
(0.00107919 0.0492507 0.00898874)
(0.000666226 0.0476024 0.00986711)
(-0.000715555 0.0456587 0.00986929)
(-0.0028222 0.041899 0.00989512)
(-0.00525291 0.0393067 0.00942389)
(-0.00696064 0.0354331 0.00804992)
(-0.0075115 0.0331148 0.00743671)
(-0.00734324 0.0299358 0.00729241)
(-0.00661863 0.0281528 0.00722736)
(-0.00581313 0.0249401 0.00867589)
(-0.00468297 0.0229806 0.0100221)
(-0.00350003 0.0207755 0.0116966)
(-0.00330698 0.018841 0.0113568)
(-0.0033575 0.0166843 0.0117309)
(-0.00409192 0.0124857 0.0109999)
(-0.00569875 0.00842746 0.0103158)
(-0.00646685 0.00462618 0.00936009)
(-0.00621235 0.00159689 0.00628828)
(-0.00567126 0.000354927 0.00417118)
(-0.00687276 -0.00147857 0.0020933)
(-0.00817841 -0.000150223 0.000734221)
(-0.00963273 0.00120201 0.0041921)
(-0.0116458 0.00120952 0.00709196)
(-0.0135521 0.00237579 0.00868176)
(-0.0161278 0.00251821 0.0121115)
(-0.0204448 0.00549391 0.0181997)
(-0.0220614 -0.000351154 0.0252893)
(0.0237959 0.0209471 0.00447049)
(0.0290738 0.018127 0.00514062)
(0.0186867 0.0101363 0.000875513)
(0.0198247 0.0118769 0.000925771)
(0.0112937 0.00445213 0.000186046)
(0.00917916 0.00572747 0.000796472)
(0.00349411 0.00101347 0.00223911)
(0.00189435 0.00231347 0.0027608)
(-0.000323752 0.000337872 0.00312696)
(-0.000511384 0.00139517 0.00347888)
(-0.000897468 0.00097064 0.00371459)
(-0.000553998 0.00182209 0.00425409)
(-0.000371392 0.00205097 0.00446956)
(0.000196002 0.00252365 0.00466428)
(0.000461055 0.0023675 0.00461855)
(0.000677076 0.00221334 0.00464296)
(0.000644599 0.00179188 0.0046326)
(0.000589399 0.0014929 0.00466371)
(0.000464432 0.00114457 0.00466512)
(0.000360406 0.000879701 0.00466587)
(0.000234699 0.000607484 0.00465239)
(0.000115984 0.000381536 0.00464477)
(-5.48186e-06 0.000178482 0.00464122)
(-0.000126267 2.22485e-05 0.00464563)
(-0.000248625 -9.82305e-05 0.00465553)
(-0.000362973 -0.000182778 0.00467127)
(-0.000464033 -0.000241494 0.00469178)
(-0.000549994 -0.00028337 0.00471568)
(-0.000626294 -0.000313016 0.00474029)
(-0.000701139 -0.000337817 0.00476591)
(-0.000772769 -0.000347507 0.0047916)
(-0.000842702 -0.000371705 0.00481354)
(-0.000894982 -0.000346852 0.00482819)
(-0.000945993 -0.000371579 0.00482746)
(-0.000946014 -0.000255093 0.00480718)
(-0.000953428 -0.000255435 0.00475901)
(-0.00089692 5.28666e-05 0.00468213)
(-0.000904713 0.000126372 0.00456687)
(-0.000836873 0.000739515 0.00442479)
(-0.000768175 0.00084814 0.00426441)
(-0.000355481 0.00157429 0.00413296)
(0.000140053 0.00113786 0.00403632)
(0.000772335 0.00144088 0.0039026)
(0.00130433 0.000261627 0.00372687)
(0.00205791 0.000566859 0.0037528)
(0.00274265 -0.000673271 0.00393671)
(0.00401725 8.8513e-05 0.00434247)
(0.00730413 -0.00342259 0.00395999)
(0.0164213 -0.00483779 0.00390868)
(0.0308952 -0.00914208 0.00532238)
(0.0489488 0.000138084 0.00714133)
(0.0631045 0.0123396 0.0118589)
(0.0689366 0.0371273 0.0149732)
(0.0672838 0.0416481 0.0181053)
(0.0620663 0.0716208 0.0326521)
(0.0543349 0.0285739 0.0482409)
(0.0235845 0.119198 0.0815906)
(0.0320752 -0.120043 0.10264)
(-0.115578 0.293428 -0.0133128)
(0.0178049 -0.264398 0.0142777)
(0.159573 -0.167474 0.117665)
(0.0635802 0.0942532 0.0298196)
(0.0532041 -0.00588956 0.0285498)
(0.017901 0.0742856 0.00375689)
(0.0162183 0.062326 0.00859141)
(0.00602476 0.0802091 0.00856442)
(0.00506477 0.0803043 0.00943752)
(0.00288173 0.0870364 0.0089067)
(0.00293347 0.0870208 0.00898145)
(0.00263065 0.0898569 0.00960996)
(0.00300235 0.0878827 0.0111074)
(0.00225345 0.086956 0.0112927)
(0.00175144 0.0845386 0.0111371)
(0.0014395 0.0816061 0.0106081)
(0.00159917 0.0778085 0.0104811)
(0.00127399 0.074099 0.0098273)
(0.00129731 0.07123 0.00914844)
(0.000397151 0.0687703 0.00878964)
(-0.000543051 0.0665832 0.010672)
(-0.00116174 0.0641143 0.0124784)
(-0.0017833 0.0607367 0.0131056)
(-0.00256644 0.0551079 0.0142915)
(-0.00264673 0.0480413 0.0146433)
(-0.00310997 0.0403988 0.0124414)
(-0.00376437 0.032902 0.00923498)
(-0.0031489 0.0270367 0.00512549)
(-0.00206269 0.0229263 0.00229988)
(-0.00171932 0.0202762 0.00122413)
(-0.00329677 0.0181504 0.000651608)
(-0.00501794 0.0163674 0.00325572)
(-0.00903755 0.01363 0.00660704)
(-0.0124045 0.0106691 0.00884638)
(-0.0154769 0.00945214 0.0117692)
(-0.0203038 0.00525124 0.0143329)
(-0.0270927 0.00673549 0.0180959)
(-0.0336665 -0.000970706 0.024009)
(0.0224669 0.0205679 0.00492911)
(0.030378 0.0216194 0.00642682)
(0.0194328 0.0113652 0.00183457)
(0.0220486 0.0139915 0.00229603)
(0.0140465 0.00415061 -0.000259263)
(0.0116572 0.00638265 -0.000360012)
(0.00455023 0.00034062 0.000760808)
(0.00207029 0.0026347 0.00155705)
(-0.000563392 -0.000291426 0.00222652)
(-0.00148649 0.000701606 0.00282922)
(-0.00213663 -0.000257572 0.0031134)
(-0.0019909 0.000807436 0.00381048)
(-0.00176112 0.00126593 0.00410854)
(-0.00100643 0.0020823 0.00448859)
(-0.000525383 0.00198779 0.00459548)
(-0.000226934 0.00189771 0.00475396)
(-0.000274468 0.00149625 0.00479819)
(-0.000398979 0.00127569 0.00484685)
(-0.000583621 0.00102433 0.00482883)
(-0.000727059 0.000871154 0.00479275)
(-0.000877819 0.000694589 0.00472178)
(-0.00101391 0.000543666 0.0046435)
(-0.00115572 0.000388906 0.00456362)
(-0.00128709 0.000257797 0.00449256)
(-0.00140283 0.000148592 0.00443061)
(-0.00149836 6.97404e-05 0.00437771)
(-0.00157222 1.17225e-05 0.00433365)
(-0.00162905 -3.22515e-05 0.00429908)
(-0.00167981 -6.55529e-05 0.00427397)
(-0.00172693 -8.97944e-05 0.00426056)
(-0.00176892 -8.95163e-05 0.00425669)
(-0.00180656 -8.2875e-05 0.00425399)
(-0.00183014 -1.22938e-05 0.0042451)
(-0.0018573 4.00832e-05 0.00421596)
(-0.0018519 0.000242667 0.00415922)
(-0.00187296 0.000356112 0.00406521)
(-0.00185062 0.000756032 0.00393719)
(-0.00189373 0.000911295 0.0037772)
(-0.00183161 0.00150309 0.00362273)
(-0.00168639 0.00151845 0.00353521)
(-0.0011418 0.00208862 0.00359073)
(-0.000517306 0.00161543 0.00373148)
(0.000240446 0.00187848 0.00375949)
(0.000817316 0.000630674 0.00373049)
(0.00151773 0.000822001 0.00404825)
(0.00202714 -0.000740353 0.00449384)
(0.00373982 -0.00124342 0.00479809)
(0.00858219 -0.0052306 0.00449449)
(0.0159342 -0.00695331 0.00551041)
(0.0252557 -0.00848393 0.00992978)
(0.0355688 0.00453944 0.0145306)
(0.043176 0.025 0.01977)
(0.0513418 0.0567374 0.0246463)
(0.053477 0.0702332 0.0310665)
(0.0525338 0.100647 0.0467553)
(0.04862 0.0628835 0.056385)
(0.035323 0.142315 0.0775687)
(0.052144 -0.0935107 0.0822882)
(-0.0362012 0.339037 0.0173847)
(0.0198792 -0.303581 0.0227311)
(0.103977 -0.127687 0.112698)
(0.028915 0.109926 0.0188094)
(0.0244243 0.040525 0.0227524)
(-0.000993153 0.108275 0.00412556)
(-0.000603307 0.106067 0.0112927)
(-0.00509666 0.121496 0.0117755)
(-0.00308463 0.122224 0.0131998)
(-0.00181536 0.128379 0.0134259)
(0.000760377 0.127509 0.0140348)
(0.00266367 0.129318 0.0148074)
(0.00462125 0.126812 0.0150441)
(0.0054549 0.12608 0.0146408)
(0.00638031 0.123305 0.0139119)
(0.00680553 0.122333 0.0132029)
(0.00670485 0.120476 0.0131921)
(0.00572348 0.118214 0.0131762)
(0.00499349 0.115846 0.0134553)
(0.00405505 0.112844 0.0146248)
(0.00265257 0.108053 0.0157437)
(0.00127671 0.101087 0.0164425)
(1.95106e-05 0.093163 0.017066)
(-0.00100781 0.0833634 0.0167206)
(-0.000420082 0.0737507 0.0145501)
(0.000597738 0.0645525 0.0103569)
(0.000924855 0.057155 0.00527523)
(0.00129886 0.0518615 0.000930011)
(0.00103498 0.0478774 -0.00129057)
(-0.000378968 0.0442958 -0.00109286)
(-0.00279766 0.0397222 0.00160481)
(-0.00651631 0.0335076 0.00578557)
(-0.0114845 0.0268776 0.00742658)
(-0.0162462 0.0219043 0.0100988)
(-0.0201688 0.0183821 0.0140199)
(-0.0256113 0.0123678 0.0167756)
(-0.0333624 0.0110709 0.0199834)
(-0.0398674 0.000285281 0.0220899)
(0.0191151 0.0190376 0.0051277)
(0.0304911 0.0254226 0.00854289)
(0.0184717 0.0120908 0.00384885)
(0.0220619 0.0162358 0.00503362)
(0.0149908 0.00330053 0.00149451)
(0.012859 0.00610007 0.000622733)
(0.0048337 -0.00107593 0.000663031)
(0.00195136 0.00253657 0.00103533)
(-0.00108442 -0.000680496 0.00162798)
(-0.00245947 0.000603612 0.00241559)
(-0.00379445 -0.000869791 0.00260552)
(-0.00448616 0.00023216 0.00336961)
(-0.00464917 0.000587924 0.00378958)
(-0.00366546 0.00148051 0.00455807)
(-0.00304298 0.00134813 0.00497699)
(-0.00275615 0.0013733 0.00533078)
(-0.00294514 0.00105466 0.00542844)
(-0.00327204 0.000965585 0.00545221)
(-0.00362001 0.000840503 0.00537153)
(-0.00385393 0.000831041 0.00526822)
(-0.00403534 0.000793167 0.00512411)
(-0.00415854 0.000778026 0.00497547)
(-0.00425907 0.000737949 0.00482804)
(-0.00434333 0.000697022 0.0046991)
(-0.00442759 0.000656634 0.00459571)
(-0.00448562 0.000629373 0.00451088)
(-0.0045106 0.000603789 0.00444202)
(-0.00450842 0.000576703 0.00439795)
(-0.00449664 0.000548922 0.00437774)
(-0.00449248 0.000527262 0.00437841)
(-0.00450096 0.000536378 0.00439395)
(-0.00451619 0.000569969 0.00441031)
(-0.00453217 0.000681005 0.00441552)
(-0.0045553 0.000794342 0.00439346)
(-0.00454212 0.00104368 0.00434128)
(-0.00453932 0.00119239 0.00425318)
(-0.00447201 0.0015595 0.00414053)
(-0.00443647 0.00161524 0.00400727)
(-0.00426905 0.00198257 0.00389683)
(-0.00404734 0.00171636 0.00385897)
(-0.00352851 0.00201466 0.00395308)
(-0.00298402 0.00145005 0.00408481)
(-0.0021428 0.00184527 0.00412897)
(-0.0014466 0.000854498 0.00426036)
(-0.000743874 0.00101047 0.00464842)
(0.000182944 -0.000789562 0.00499938)
(0.00312553 -0.00189092 0.00497623)
(0.00807372 -0.00497428 0.00483043)
(0.0137954 -0.00523819 0.00642252)
(0.0163897 -0.00244193 0.0131575)
(0.0141649 0.0149444 0.0215138)
(0.0175981 0.0367678 0.0266715)
(0.0246492 0.071451 0.0322183)
(0.03 0.0927753 0.0399183)
(0.0382724 0.120095 0.0523561)
(0.0449848 0.086504 0.0589243)
(0.051683 0.159112 0.0715054)
(0.0487818 -0.0754124 0.0633883)
(0.0106451 0.338774 0.0471351)
(0.00831512 -0.321328 0.0286694)
(0.0434988 -0.0879686 0.0983256)
(0.00199578 0.124713 0.018442)
(0.00223218 0.0832075 0.0187546)
(-0.0123131 0.143255 0.00501402)
(-0.00768665 0.141179 0.0143326)
(-0.00735019 0.153891 0.0140203)
(-0.00405615 0.153157 0.0146613)
(-0.00219098 0.158971 0.0146997)
(0.000466391 0.159996 0.0155692)
(0.00321141 0.162459 0.0162664)
(0.00622546 0.160891 0.0163856)
(0.00756311 0.162223 0.016015)
(0.00890176 0.161375 0.0161634)
(0.00883281 0.161131 0.0160193)
(0.00882759 0.159832 0.0163271)
(0.00804874 0.157547 0.0166476)
(0.00751538 0.153599 0.0172159)
(0.00666833 0.147771 0.0177827)
(0.00626503 0.140995 0.0180049)
(0.00593511 0.132341 0.0188979)
(0.00571125 0.122277 0.0191879)
(0.00597938 0.111785 0.017447)
(0.00768518 0.102556 0.0141922)
(0.00931791 0.095054 0.00928501)
(0.0102936 0.0896172 0.00403475)
(0.0101946 0.0844304 -0.00142707)
(0.00843645 0.0801478 -0.00370348)
(0.00636921 0.0742108 -0.00148579)
(0.00413365 0.0651909 0.00131311)
(-0.000123727 0.0550423 0.0032302)
(-0.00650901 0.0436233 0.00415421)
(-0.0144132 0.034544 0.00607693)
(-0.0214584 0.0272209 0.00952496)
(-0.0288692 0.0182627 0.0116253)
(-0.0372021 0.0135295 0.0154862)
(-0.0485241 -0.000205462 0.0161459)
(0.0163005 0.0137854 0.00430385)
(0.0293859 0.0284651 0.0095411)
(0.0161542 0.0123958 0.00457983)
(0.0210288 0.0193922 0.00595588)
(0.0148708 0.00370564 0.00260846)
(0.0124801 0.00621721 0.0016996)
(0.00362444 -0.00235701 0.00118946)
(0.000325761 0.00221679 0.00107257)
(-0.00175946 -0.00137629 0.00209567)
(-0.00328878 0.000851522 0.0027952)
(-0.00448533 -0.000947283 0.00305572)
(-0.00521642 3.73353e-05 0.00390981)
(-0.00519449 -0.000481172 0.00459792)
(-0.00404032 0.00011446 0.00563592)
(-0.00338767 -0.000109962 0.00637168)
(-0.00312628 0.000273478 0.00699334)
(-0.00331315 0.000328166 0.00729034)
(-0.00360191 0.000626789 0.00740377)
(-0.00390465 0.000756398 0.0073534)
(-0.00409476 0.000965691 0.00724429)
(-0.0042468 0.00108996 0.00707566)
(-0.00434308 0.00119904 0.00689581)
(-0.00441579 0.00124756 0.00671844)
(-0.00446548 0.00127374 0.00656144)
(-0.00450402 0.00127009 0.00642547)
(-0.00451724 0.00125292 0.00631617)
(-0.0044994 0.00122988 0.00623593)
(-0.00445602 0.00120291 0.00618293)
(-0.00440833 0.00117245 0.00615309)
(-0.00437675 0.00115146 0.00614312)
(-0.00436995 0.00117015 0.00614311)
(-0.00437943 0.00122807 0.00613801)
(-0.0043994 0.00136759 0.00611688)
(-0.00442334 0.00151367 0.00606973)
(-0.00440874 0.00176169 0.00599493)
(-0.00440025 0.00188134 0.00589067)
(-0.00430615 0.00213848 0.00577673)
(-0.00420994 0.00204627 0.00566228)
(-0.0039423 0.00219395 0.00559039)
(-0.00364916 0.00175659 0.00559239)
(-0.00317602 0.0018698 0.00570682)
(-0.00278845 0.00129351 0.0058514)
(-0.00210422 0.0017586 0.00591827)
(-0.00139315 0.00086375 0.00607887)
(-0.000751191 0.00111572 0.00635304)
(0.00031192 -0.00105427 0.0061973)
(0.00282917 -0.000967867 0.00520068)
(0.00611824 -0.00122786 0.0053203)
(0.00798156 0.00182811 0.0075988)
(0.00258919 0.00941724 0.0173307)
(-0.00662285 0.025338 0.0282256)
(-0.0108694 0.043924 0.0328556)
(-0.00651149 0.0751218 0.0344109)
(0.00692225 0.101066 0.0378324)
(0.0253366 0.13328 0.049404)
(0.0526769 0.118271 0.0576753)
(0.0772156 0.179288 0.0734463)
(0.0848556 -0.0194209 0.0689494)
(0.0896451 0.374615 0.0361906)
(-0.00328383 -0.343492 0.0283368)
(-0.0406518 -0.0532037 0.0675659)
(-0.0343169 0.157765 -0.00543945)
(-0.0324103 0.123405 0.00591977)
(-0.0256204 0.174414 -0.000724065)
(-0.0197254 0.167742 0.00846158)
(-0.0121959 0.174798 0.00767655)
(-0.00795636 0.172498 0.00799812)
(-0.00273334 0.175823 0.00782618)
(0.00167532 0.176705 0.00905186)
(0.00647187 0.177864 0.0101918)
(0.00949706 0.177653 0.0106675)
(0.0107979 0.178775 0.0111108)
(0.0120097 0.178711 0.0122699)
(0.0132127 0.179361 0.013572)
(0.0139128 0.178214 0.0149323)
(0.0141216 0.175312 0.0161238)
(0.0151167 0.171517 0.0174809)
(0.0165399 0.165932 0.0188129)
(0.0173672 0.159291 0.0200219)
(0.0179253 0.151156 0.0206114)
(0.0181734 0.143002 0.0209921)
(0.0186528 0.133741 0.0199707)
(0.0192845 0.12613 0.0177298)
(0.0196661 0.120754 0.013368)
(0.0190703 0.117483 0.0091642)
(0.0167447 0.115642 0.0057105)
(0.0141207 0.1134 0.00381205)
(0.0122236 0.11013 0.00303075)
(0.0110562 0.105456 0.00369135)
(0.00832022 0.0988591 0.00581517)
(0.00192543 0.0899568 0.00843839)
(-0.00677241 0.0795383 0.0116587)
(-0.0143358 0.0681216 0.0148361)
(-0.0224062 0.0522415 0.0153577)
(-0.0319384 0.0348455 0.0120649)
(-0.04172 0.00705881 0.000392242)
(0.00726011 0.00824519 -0.00192023)
(0.0267207 0.0300608 0.00794042)
(0.0123861 0.0129841 0.00233163)
(0.0191473 0.0235097 0.00368226)
(0.0143476 0.00617498 0.00142523)
(0.0120191 0.00785486 0.000591028)
(0.00214008 -0.00274446 -0.00218978)
(-0.000961903 0.00243396 -0.0024509)
(-0.00414809 -0.00130627 -0.00123296)
(-0.00549267 0.00135001 -0.000411661)
(-0.00670797 -0.000851842 -4.83286e-05)
(-0.00740836 -0.000106972 0.000803794)
(-0.00780776 -0.00133193 0.00152267)
(-0.0072494 -0.000841994 0.00240396)
(-0.00719264 -0.000977973 0.00313042)
(-0.00726768 -0.000312872 0.0037617)
(-0.00766778 -4.72935e-05 0.00423929)
(-0.00802102 0.000457075 0.00454281)
(-0.00837469 0.000712303 0.00467248)
(-0.00858092 0.00102346 0.00469925)
(-0.00867484 0.00121787 0.00464147)
(-0.00867053 0.00138845 0.00455408)
(-0.00863858 0.0014895 0.00445898)
(-0.00858675 0.00155436 0.00437324)
(-0.00852591 0.00157928 0.00429647)
(-0.00844951 0.00158084 0.00423191)
(-0.00835476 0.00157078 0.00418158)
(-0.00824715 0.00156006 0.00414615)
(-0.0081462 0.00155297 0.00412389)
(-0.00809055 0.00155737 0.00411195)
(-0.00808757 0.00159463 0.00410407)
(-0.00810318 0.00166465 0.00408855)
(-0.00812486 0.00179804 0.00405801)
(-0.0081261 0.00192501 0.00400569)
(-0.00805207 0.00212888 0.00392986)
(-0.00794164 0.0022078 0.00383804)
(-0.0077247 0.00241129 0.0037384)
(-0.00751779 0.00229503 0.00364359)
(-0.00722821 0.00239505 0.00356352)
(-0.00700592 0.00194302 0.00352771)
(-0.00666845 0.00202685 0.00355085)
(-0.00642711 0.00140434 0.00359169)
(-0.00572519 0.00168755 0.0035226)
(-0.00496241 0.000622056 0.00358353)
(-0.00415335 0.0006985 0.00362761)
(-0.00344983 -0.0015512 0.00284743)
(-0.00181964 0.000437942 0.00206712)
(0.000133429 0.000513578 0.00237749)
(-0.00162216 0.00591716 0.00499153)
(-0.0112928 0.0113353 0.0141404)
(-0.0267958 0.0204552 0.0272808)
(-0.0330787 0.0275054 0.0326259)
(-0.0329364 0.0487866 0.030544)
(-0.0202307 0.060948 0.0256462)
(-0.000584862 0.106992 0.0343324)
(0.0380105 0.0782238 0.041708)
(0.0761924 0.177533 0.0611622)
(0.0980023 -0.038075 0.067265)
(0.169264 0.39518 0.0322915)
(-0.0102991 -0.324872 0.0228897)
(-0.111466 -0.0926279 0.0485756)
(-0.0568746 0.148634 -0.0093772)
(-0.054961 0.0819489 0.0037046)
(-0.028243 0.136902 0.00125955)
(-0.0246375 0.110308 0.0102881)
(-0.00978615 0.11259 0.00807779)
(-0.00705782 0.100579 0.00623827)
(-0.00289221 0.0990881 0.00418092)