/*--------------------------------*- C++ -*----------------------------------*\
| =========                 |                                                 |
| \\      /  F ield         | OpenFOAM: The Open Source CFD Toolbox           |
|  \\    /   O peration     | Version:  2.3.0                                 |
|   \\  /    A nd           | Web:      www.OpenFOAM.org                      |
|    \\/     M anipulation  |                                                 |
\*---------------------------------------------------------------------------*/
FoamFile
{
    version     2.0;
    format      ascii;
    class       volVectorField;
    location    "60";
    object      Ur;
}
// * * * * * * * * * * * * * * * * * * * * * * * * * * * * * * * * * * * * * //

dimensions      [0 1 -1 0 0 0 0];

internalField   nonuniform List<vector> 
6144
(
(-2.10569e-07 0.000367268 -8.41911e-08)
(-1.63484e-07 0.000397409 -1.86489e-07)
(1.10065e-07 0.000428176 -1.53096e-07)
(3.04805e-07 0.000453321 -8.27741e-08)
(4.84772e-07 0.000485199 -2.07857e-08)
(5.80774e-07 0.000532368 -1.24417e-08)
(6.10702e-07 0.000588723 -2.51477e-09)
(6.01673e-07 0.000641041 1.25561e-08)
(5.62535e-07 0.000680506 4.81075e-08)
(5.06664e-07 0.000701364 5.29542e-08)
(4.34524e-07 0.000706691 3.47583e-08)
(3.54317e-07 0.000706023 3.05738e-08)
(2.71189e-07 0.000704671 3.49484e-08)
(1.98788e-07 0.000703492 2.88429e-08)
(1.39175e-07 0.000702474 2.75619e-08)
(8.53508e-08 0.000701582 2.17159e-08)
(4.65062e-08 0.000700821 1.75137e-08)
(8.35737e-09 0.000700179 1.01092e-08)
(-1.82215e-08 0.000699644 5.27813e-09)
(-4.76187e-08 0.000699213 -2.50716e-09)
(-6.53517e-08 0.000698883 -6.3812e-09)
(-8.86613e-08 0.000698629 -1.26707e-08)
(-1.00201e-07 0.000698438 -1.39e-08)
(-1.19483e-07 0.000698299 -1.87513e-08)
(-1.26328e-07 0.000698212 -1.85571e-08)
(-1.43248e-07 0.00069818 -2.3186e-08)
(-1.47028e-07 0.000698206 -2.2698e-08)
(-1.63341e-07 0.000698274 -2.77729e-08)
(-1.6508e-07 0.000698386 -2.73333e-08)
(-1.81031e-07 0.000698548 -3.4445e-08)
(-1.80295e-07 0.000698771 -3.62186e-08)
(-1.95714e-07 0.000699054 -4.74875e-08)
(-1.92307e-07 0.000699404 -5.3704e-08)
(-2.07694e-07 0.000699827 -7.14047e-08)
(-2.01656e-07 0.000700339 -8.3465e-08)
(-2.15663e-07 0.000700946 -1.07386e-07)
(-2.04788e-07 0.000701664 -1.2259e-07)
(-2.15129e-07 0.000702495 -1.49429e-07)
(-1.97445e-07 0.00070344 -1.65542e-07)
(-2.03511e-07 0.000704521 -1.85906e-07)
(-1.81792e-07 0.000705767 -1.94924e-07)
(-1.96569e-07 0.000711771 -2.1035e-07)
(-2.05553e-07 0.000738344 -2.26411e-07)
(-2.88411e-07 0.000806296 -2.39978e-07)
(-5.00065e-07 0.000929103 -1.42785e-07)
(-1.15473e-06 0.00110238 2.15428e-07)
(-2.30566e-06 0.00130976 5.88456e-07)
(-3.72286e-06 0.00157552 8.71457e-07)
(-4.62081e-06 0.00197565 6.51495e-07)
(2.07284e-07 0.00254943 -9.4347e-07)
(4.34105e-06 0.00319499 -7.1228e-06)
(4.87426e-06 0.00363119 -7.54963e-06)
(-1.0245e-05 0.00379005 -1.24066e-05)
(-5.85103e-06 0.00386965 -1.12213e-05)
(2.36505e-05 0.00426676 -4.17592e-05)
(-7.31493e-05 0.0046538 -9.7513e-05)
(-0.000173098 0.00520371 -0.000220897)
(-0.000120195 0.007117 -8.72328e-05)
(-0.000190848 0.0209359 -0.000496125)
(0.00845177 0.145457 0.00528945)
(-0.0164872 0.611895 -0.0277074)
(-0.0316021 0.498751 -0.0400602)
(-0.00044351 0.0219891 -0.000492762)
(-2.75298e-05 0.00573544 -5.38237e-06)
(-6.70848e-05 0.00562649 1.36753e-05)
(-5.42945e-05 0.00568339 4.77576e-06)
(-3.6177e-05 0.00574986 6.45828e-06)
(-2.81916e-05 0.00576744 7.28401e-06)
(-2.27972e-05 0.00573145 -1.04494e-06)
(-1.52009e-05 0.00567866 -7.79942e-06)
(-1.11341e-05 0.00564426 -2.35266e-06)
(-2.6258e-05 0.00565372 1.95366e-07)
(-4.80953e-05 0.00569411 -3.34021e-06)
(-4.44684e-05 0.00575508 -9.46362e-06)
(-3.3435e-05 0.00581436 -1.2591e-05)
(-2.49758e-05 0.0058633 -1.80715e-05)
(-6.14747e-06 0.0058992 -1.59159e-05)
(3.31225e-05 0.0059234 -1.59775e-05)
(6.18214e-05 0.00604799 -3.75839e-05)
(2.30098e-05 0.00644126 -4.56213e-05)
(2.827e-07 0.00703143 -2.66213e-05)
(-6.39755e-06 0.00755784 -1.65073e-05)
(-3.99513e-06 0.0080567 -8.16079e-06)
(1.4118e-07 0.00859572 -4.16598e-06)
(7.84903e-08 0.00889299 -5.27576e-06)
(1.02517e-06 0.00884258 -1.29128e-05)
(-1.18607e-05 0.00870306 -1.67868e-05)
(-2.14542e-05 0.00864213 -1.76542e-05)
(-2.10834e-05 0.00859713 -1.45728e-05)
(-1.64815e-05 0.00854095 -6.84273e-06)
(-1.35719e-05 0.00844246 -3.71855e-06)
(-3.14812e-06 0.00796455 -7.56606e-06)
(-2.47169e-06 0.00663715 -1.85338e-05)
(-1.21098e-06 0.00515141 -1.01523e-05)
(-1.49499e-06 0.00461566 9.93555e-07)
(-4.10843e-06 0.00463507 8.25195e-06)
(-7.16804e-08 0.000345771 -1.95148e-08)
(2.35204e-07 0.000388351 -1.68816e-07)
(6.91484e-07 0.000434808 -1.09998e-07)
(1.07243e-06 0.000470246 -5.4973e-08)
(1.46697e-06 0.000507323 1.92159e-08)
(1.71994e-06 0.000550189 4.64416e-08)
(1.77999e-06 0.000598156 5.53764e-08)
(1.7121e-06 0.000645492 5.574e-08)
(1.54769e-06 0.0006821 6.34115e-08)
(1.33592e-06 0.000701218 6.53755e-08)
(1.10076e-06 0.000706118 5.84224e-08)
(8.69972e-07 0.000705697 5.47503e-08)
(6.41836e-07 0.000704534 6.07346e-08)
(4.38577e-07 0.000703511 7.45982e-08)
(2.75664e-07 0.000702629 7.2931e-08)
(1.40566e-07 0.000701835 7.12306e-08)
(3.67275e-08 0.000701122 5.95016e-08)
(-5.16504e-08 0.000700491 5.31904e-08)
(-1.21163e-07 0.000699949 3.90786e-08)
(-1.83861e-07 0.000699514 3.29685e-08)
(-2.33085e-07 0.000699184 1.88592e-08)
(-2.82417e-07 0.000698928 1.63541e-08)
(-3.22123e-07 0.000698735 7.09354e-09)
(-3.6299e-07 0.000698601 9.881e-09)
(-3.92847e-07 0.000698524 2.11768e-09)
(-4.25916e-07 0.000698511 6.58084e-09)
(-4.49392e-07 0.000698558 -1.32447e-09)
(-4.80781e-07 0.000698644 6.66371e-09)
(-5.019e-07 0.00069877 -3.05034e-10)
(-5.29346e-07 0.000698952 6.85809e-09)
(-5.4434e-07 0.000699193 -4.267e-09)
(-5.65779e-07 0.000699491 -2.77066e-11)
(-5.71287e-07 0.000699848 -1.65556e-08)
(-5.84799e-07 0.000700272 -1.57728e-08)
(-5.76865e-07 0.000700776 -3.85566e-08)
(-5.72813e-07 0.000701374 -4.30583e-08)
(-5.43196e-07 0.000702079 -7.34996e-08)
(-5.13431e-07 0.0007029 -8.67002e-08)
(-4.49879e-07 0.000703844 -1.33935e-07)
(-3.95932e-07 0.000704891 -1.51884e-07)
(-3.16739e-07 0.000706999 -1.80716e-07)
(-2.44396e-07 0.000715836 -1.92207e-07)
(-1.72834e-07 0.000743045 -2.35459e-07)
(-2.12705e-07 0.000802429 -1.93914e-07)
(-6.22561e-07 0.000905793 -1.46542e-08)
(-1.72323e-06 0.00105981 3.16118e-07)
(-3.09355e-06 0.00129284 8.47921e-07)
(-4.51541e-06 0.0016934 1.80783e-06)
(-4.33224e-06 0.00229087 2.49387e-06)
(4.33341e-06 0.00290131 2.75945e-07)
(9.56839e-06 0.00334172 -8.54833e-06)
(1.60855e-05 0.00352382 -7.76145e-06)
(1.49289e-05 0.00364728 -1.29534e-05)
(6.22879e-05 0.0038756 -1.10804e-05)
(0.000120137 0.00430199 -2.74836e-05)
(-5.39158e-05 0.00452113 -8.59596e-05)
(-0.000534121 0.00552076 -0.00021598)
(-0.000246382 0.00748462 6.40287e-05)
(-0.000423117 0.0168982 -0.000473382)
(0.0148205 0.133076 0.0164054)
(-0.035332 0.620079 -0.0272104)
(-0.0478534 0.438291 -0.0451368)
(-0.00106189 0.0220563 -0.000343519)
(0.000183813 0.00609223 0.000107134)
(-0.000378481 0.00574635 5.7493e-05)
(2.26766e-05 0.00567893 1.81672e-05)
(9.34242e-05 0.00576968 3.34309e-05)
(0.000625079 0.0058934 6.08815e-05)
(0.000626454 0.00599106 3.55896e-05)
(0.000326277 0.0060336 8.95086e-06)
(0.000144396 0.00601224 3.38131e-06)
(0.000134125 0.00591378 7.92134e-06)
(0.000118217 0.00589504 2.70933e-06)
(6.61371e-05 0.00604812 -8.50597e-06)
(-2.86962e-05 0.00604959 -8.76375e-06)
(-3.21227e-05 0.005929 -1.18275e-05)
(-0.000200067 0.00594286 -1.70328e-05)
(-0.000352163 0.00696226 -5.54264e-05)
(-6.30398e-05 0.00883832 -4.11787e-05)
(-7.71724e-05 0.00987626 2.08507e-06)
(-8.61922e-05 0.00987887 -1.72628e-05)
(-8.31275e-05 0.0096028 -3.78061e-05)
(-7.33267e-05 0.00932026 -4.3457e-05)
(-7.30485e-05 0.00907463 -2.47369e-05)
(-6.34306e-05 0.00892463 -1.45223e-05)
(-7.17906e-05 0.0088072 -2.11853e-05)
(-8.64707e-05 0.00866868 -2.52923e-05)
(-8.80441e-05 0.00842528 -3.24004e-05)
(-5.11907e-05 0.00811048 -3.39299e-05)
(-2.4629e-05 0.00792569 -4.34863e-05)
(-1.6287e-05 0.007942 -3.34286e-05)
(-1.77818e-06 0.00770303 -3.12823e-05)
(1.08861e-05 0.00657079 -2.65484e-05)
(1.71024e-06 0.00515225 -1.25284e-05)
(9.42447e-07 0.00461307 -1.15858e-06)
(-6.2005e-06 0.00463525 6.45828e-06)
(2.52536e-07 0.000329527 4.50871e-08)
(1.01725e-06 0.000370286 -1.2619e-08)
(1.48168e-06 0.00042298 -8.6937e-08)
(1.95846e-06 0.000469476 5.27484e-09)
(2.40861e-06 0.000513926 1.02464e-07)
(2.68634e-06 0.000558472 1.49878e-07)
(2.69348e-06 0.000604556 1.50652e-07)
(2.55072e-06 0.000646023 1.39275e-07)
(2.2449e-06 0.000675473 1.43141e-07)
(1.8663e-06 0.000693061 1.30222e-07)
(1.47956e-06 0.000700805 1.13473e-07)
(1.07718e-06 0.000702874 1.08891e-07)
(7.08663e-07 0.000703062 1.09875e-07)
(3.89051e-07 0.000702688 1.14368e-07)
(1.35427e-07 0.000702098 1.14423e-07)
(-7.43696e-08 0.000701479 1.10122e-07)
(-2.34833e-07 0.00070088 1.04814e-07)
(-3.70372e-07 0.000700308 9.78697e-08)
(-4.74432e-07 0.000699816 9.25669e-08)
(-5.66813e-07 0.000699415 8.64605e-08)
(-6.37574e-07 0.000699095 8.28381e-08)
(-7.06263e-07 0.000698852 7.84106e-08)
(-7.60309e-07 0.000698675 7.60397e-08)
(-8.1815e-07 0.000698551 7.2687e-08)
(-8.63268e-07 0.000698479 7.20308e-08)
(-9.14883e-07 0.000698454 7.00338e-08)
(-9.54234e-07 0.000698471 6.95487e-08)
(-1.0011e-06 0.000698541 6.66829e-08)
(-1.0334e-06 0.000698673 6.54974e-08)
(-1.07238e-06 0.00069886 6.15258e-08)
(-1.09275e-06 0.000699094 5.84468e-08)
(-1.11717e-06 0.000699375 5.16624e-08)
(-1.11773e-06 0.00069971 4.45851e-08)
(-1.11916e-06 0.000700115 3.50551e-08)
(-1.09078e-06 0.000700608 2.33074e-08)
(-1.05985e-06 0.000701198 7.31873e-09)
(-9.90501e-07 0.000701907 -9.14053e-09)
(-9.08244e-07 0.00070275 -3.1771e-08)
(-7.77036e-07 0.000703734 -5.90206e-08)
(-6.28598e-07 0.000705101 -9.75469e-08)
(-4.3735e-07 0.000709359 -1.29107e-07)
(-2.59857e-07 0.000721972 -1.76427e-07)
(-4.45477e-08 0.00074897 -2.56894e-07)
(1.32319e-07 0.000801386 -2.71397e-07)
(2.09582e-08 0.00089778 -6.5226e-08)
(-2.73209e-07 0.00106705 3.59888e-07)
(-7.57735e-07 0.00137355 1.50369e-06)
(-6.47541e-07 0.00189181 3.12214e-06)
(2.78065e-06 0.00254144 2.69617e-06)
(5.67718e-06 0.00305488 2.42255e-08)
(7.82091e-06 0.00336331 -1.09071e-05)
(2.9352e-05 0.0035182 -9.47203e-06)
(7.38189e-05 0.00377185 -1.16824e-05)
(0.000131235 0.00417221 -1.03042e-05)
(0.000204611 0.00443486 -1.38217e-05)
(0.000161621 0.00414401 6.5192e-05)
(-0.00061238 0.00580682 -0.000176695)
(-0.000175363 0.00911643 1.89584e-05)
(-0.000738904 0.0164518 -0.000286007)
(0.0156744 0.140279 0.017512)
(-0.0285084 0.68685 -0.0311258)
(-0.0487767 0.535869 -0.0259887)
(-0.0181569 0.580963 0.0202842)
(-0.0154746 0.523258 0.016594)
(-0.00774962 0.56398 0.00233397)
(-0.00439825 0.544066 0.00349983)
(-0.000322393 0.549937 -0.00854283)
(-0.000885296 0.551102 -0.0299979)
(0.00173893 0.559228 -0.0147075)
(0.00102565 0.547813 0.00525462)
(-0.00387364 0.532052 0.00358773)
(-0.0080851 0.511644 0.00277252)
(-0.00900881 0.485246 0.00317692)
(-0.00505475 0.353823 0.00255363)
(0.000273223 0.0267744 4.48853e-06)
(0.000181059 0.0277219 3.40569e-05)
(0.00133975 0.134291 -0.0012718)
(0.00910592 0.37068 -0.00238113)
(-0.000628237 0.0342394 2.04544e-05)
(-0.0010205 0.0103929 -7.53611e-05)
(-0.000978536 0.0120007 -9.80492e-05)
(-0.000901661 0.0126916 -0.000114476)
(-0.00089751 0.0112237 -0.000127885)
(-0.00021105 0.00981732 -7.63765e-05)
(-0.000197643 0.00923146 -5.39007e-05)
(-0.000163811 0.00869205 -5.37573e-05)
(-0.000118536 0.00815115 -6.03709e-05)
(-6.74077e-05 0.00751495 -9.16958e-05)
(-2.72293e-05 0.00703289 -7.06118e-05)
(-1.06656e-05 0.00688085 -7.55943e-05)
(-2.34129e-05 0.00708314 -6.80891e-05)
(-4.57619e-05 0.00743987 -5.43088e-05)
(-3.58437e-05 0.0069891 -4.30105e-05)
(-1.35407e-05 0.00566595 -1.26921e-05)
(-2.83909e-06 0.0047771 -4.13936e-06)
(-1.22811e-05 0.00462481 1.09718e-05)
(5.07111e-07 0.000319397 1.21545e-07)
(1.76373e-06 0.000353244 1.69195e-07)
(2.2809e-06 0.000401751 6.34854e-09)
(2.85063e-06 0.000448915 1.19148e-07)
(3.32241e-06 0.000499885 2.19566e-07)
(3.60774e-06 0.000553414 2.2686e-07)
(3.49915e-06 0.000602328 2.20494e-07)
(3.20847e-06 0.000640447 1.93358e-07)
(2.75881e-06 0.000668254 1.72157e-07)
(2.24678e-06 0.000687201 1.49015e-07)
(1.70921e-06 0.000696943 1.34064e-07)
(1.18324e-06 0.000700822 1.29626e-07)
(7.05683e-07 0.000702008 1.23056e-07)
(2.96078e-07 0.000702018 1.29313e-07)
(-4.30911e-08 0.000701572 1.21594e-07)
(-3.18292e-07 0.000701039 1.22513e-07)
(-5.44883e-07 0.000700494 1.11245e-07)
(-7.2643e-07 0.000699947 1.12267e-07)
(-8.80089e-07 0.000699463 1.00991e-07)
(-1.00211e-06 0.000699071 1.03384e-07)
(-1.10981e-06 0.000698762 9.24315e-08)
(-1.19565e-06 0.000698526 9.67344e-08)
(-1.27721e-06 0.00069835 8.57083e-08)
(-1.34409e-06 0.000698226 9.17701e-08)
(-1.41332e-06 0.000698148 8.01149e-08)
(-1.47095e-06 0.000698119 8.64641e-08)
(-1.53289e-06 0.000698141 7.3176e-08)
(-1.58236e-06 0.000698222 8.00722e-08)
(-1.63618e-06 0.000698359 6.48067e-08)
(-1.67447e-06 0.000698558 7.17781e-08)
(-1.71413e-06 0.000698815 5.37188e-08)
(-1.73246e-06 0.000699128 5.89476e-08)
(-1.74764e-06 0.000699495 3.56991e-08)
(-1.73224e-06 0.000699933 3.81922e-08)
(-1.70983e-06 0.000700457 9.83152e-09)
(-1.65062e-06 0.000701085 8.57266e-09)
(-1.57274e-06 0.000701841 -2.60131e-08)
(-1.44296e-06 0.000702755 -3.29175e-08)
(-1.2776e-06 0.00070382 -7.71009e-08)
(-1.0541e-06 0.000705873 -8.85997e-08)
(-8.10958e-07 0.000711938 -1.39723e-07)
(-5.5815e-07 0.000726746 -1.80528e-07)
(-2.14804e-07 0.000756749 -2.79552e-07)
(1.46577e-07 0.000813293 -2.79381e-07)
(6.55605e-07 0.000919583 -9.4516e-08)
(1.04246e-06 0.00111934 8.05947e-07)
(1.35402e-06 0.00148813 2.33384e-06)
(2.04235e-06 0.00206169 4.10862e-06)
(3.77141e-06 0.00268204 3.38413e-06)
(2.20932e-06 0.00312147 -3.56793e-08)
(9.33393e-06 0.00343815 -6.61234e-06)
(4.58334e-05 0.00377113 -8.16085e-06)
(0.000116064 0.00423305 -2.57324e-05)
(0.000156757 0.00456522 -5.97681e-05)
(0.000157552 0.00462091 -4.37518e-05)
(0.000218174 0.00397899 4.06675e-06)
(-0.000402816 0.00614757 0.000281193)
(0.000317605 0.0107117 0.000138872)
(-0.00077074 0.0141928 -0.00038425)
(0.018181 0.17035 0.0123679)
(-0.0267777 0.698341 -0.0491239)
(-0.0327555 0.529728 -0.0132563)
(-0.0133497 0.584705 0.000455573)
(-0.0078306 0.550001 0.00591745)
(-0.0123149 0.558235 0.00268447)
(0.000161759 0.551849 -0.0054082)
(0.00442044 0.542988 -0.00770078)
(0.0122243 0.54537 -0.00900831)
(0.0131779 0.541677 0.000117306)
(0.00505444 0.544121 -0.00454564)
(-6.97975e-05 0.548008 -0.0039243)
(-0.00397924 0.543208 -0.00195166)
(-0.0117615 0.535282 -0.00345506)
(-0.0157476 0.539799 -0.00145408)
(-0.00554518 0.540135 -0.00170643)
(0.00362588 0.539154 -0.00134174)
(0.0118289 0.53935 0.0010438)
(0.0164959 0.54132 0.00225135)
(0.0134983 0.541497 -0.000167705)
(0.010277 0.540871 -0.00506708)
(0.00531067 0.534039 -0.00851128)
(-0.000817243 0.500452 -0.00988578)
(-0.000102091 0.357566 -0.00915288)
(-0.00020929 0.0322199 -0.0011159)
(-0.000138458 0.0112798 -0.00011692)
(-5.55493e-05 0.0103991 -0.00125344)
(0.000145887 0.00848806 -0.000168756)
(1.64617e-05 0.00685351 -0.000175277)
(-4.8704e-06 0.00621247 -9.34986e-05)
(-3.82201e-05 0.00601129 -4.76991e-05)
(-7.05774e-05 0.00606392 -5.25755e-05)
(-0.000102232 0.00653938 -3.89587e-05)
(-0.000103613 0.00688303 -4.51806e-05)
(-6.50268e-05 0.00623722 -3.25889e-05)
(-2.52026e-05 0.00514179 7.76012e-06)
(-2.0715e-05 0.00464704 1.38327e-05)
(7.3807e-07 0.000310763 1.80917e-07)
(2.51202e-06 0.000338436 3.23022e-07)
(3.12061e-06 0.000381428 5.70297e-08)
(3.79801e-06 0.000426461 1.23093e-07)
(4.17827e-06 0.000474697 2.44938e-07)
(4.44153e-06 0.000528599 2.80085e-07)
(4.20772e-06 0.000586896 2.44947e-07)
(3.74468e-06 0.000633319 2.06608e-07)
(3.1385e-06 0.000662562 1.69343e-07)
(2.49371e-06 0.000682119 1.3658e-07)
(1.84109e-06 0.000693641 1.26446e-07)
(1.22952e-06 0.000699182 1.15816e-07)
(6.90354e-07 0.000701291 1.14298e-07)
(2.11281e-07 0.000701663 1.08959e-07)
(-1.81354e-07 0.000701371 1.12305e-07)
(-5.17455e-07 0.000700923 1.02138e-07)
(-7.91035e-07 0.000700433 1.0464e-07)
(-1.02522e-06 0.00069993 9.39905e-08)
(-1.21442e-06 0.000699486 9.75582e-08)
(-1.37922e-06 0.000699127 8.49624e-08)
(-1.51223e-06 0.000698845 8.81247e-08)
(-1.63233e-06 0.000698628 7.39528e-08)
(-1.72985e-06 0.000698466 7.76247e-08)
(-1.82194e-06 0.000698349 6.28236e-08)
(-1.89703e-06 0.000698276 6.71803e-08)
(-1.97135e-06 0.000698248 5.09098e-08)
(-2.03108e-06 0.000698269 5.59449e-08)
(-2.09293e-06 0.000698342 3.81594e-08)
(-2.14017e-06 0.000698469 4.2675e-08)
(-2.18803e-06 0.000698652 2.13261e-08)
(-2.21735e-06 0.000698895 2.43318e-08)
(-2.24384e-06 0.000699195 -3.59551e-10)
(-2.2468e-06 0.000699563 2.2293e-09)
(-2.24047e-06 0.00070001 -2.57747e-08)
(-2.20227e-06 0.000700554 -2.76201e-08)
(-2.14344e-06 0.000701208 -6.21296e-08)
(-2.03576e-06 0.00070199 -6.75276e-08)
(-1.88293e-06 0.000702923 -1.06128e-07)
(-1.65617e-06 0.000704248 -1.13283e-07)
(-1.37567e-06 0.000707134 -1.49159e-07)
(-1.05365e-06 0.000713892 -1.67991e-07)
(-7.18578e-07 0.000729356 -2.53979e-07)
(-2.46465e-07 0.000763758 -3.33615e-07)
(3.12189e-07 0.000832574 -3.45313e-07)
(1.04515e-06 0.000959433 -2.50501e-08)
(2.03576e-06 0.00119295 1.18034e-06)
(3.83878e-06 0.00160496 3.03121e-06)
(5.45741e-06 0.00217901 5.0304e-06)
(4.61936e-06 0.00274815 5.57348e-06)
(4.12952e-06 0.00320974 4.3416e-06)
(2.44154e-05 0.00367431 2.02962e-06)
(6.65551e-05 0.00413425 -1.76753e-05)
(0.000116022 0.00455172 -6.09951e-05)
(6.08332e-05 0.00468514 -8.09398e-05)
(4.19321e-05 0.0046502 1.21965e-06)
(2.88122e-06 0.00393191 3.85439e-05)
(-9.8312e-05 0.00669689 0.000668995)
(0.000173281 0.0113663 0.000533919)
(-0.000627993 0.0159484 -0.000656086)
(0.0094993 0.199641 0.00812661)
(-0.00681232 0.70008 -0.0399699)
(-0.0262843 0.528012 -0.00804125)
(-0.019742 0.581773 -0.00861304)
(-0.00294111 0.555382 0.00140989)
(0.00666934 0.551436 0.00182133)
(0.00939769 0.544101 0.00129673)
(0.0130376 0.52895 0.00162314)
(0.0116699 0.539602 0.000235667)
(0.0103622 0.538097 -0.000565384)
(0.0087598 0.538613 -0.00712606)
(0.00541255 0.550262 -0.0134536)
(-0.000928175 0.555701 -0.007294)
(-0.00192221 0.546218 -0.000857382)
(-0.00489662 0.539685 0.00122119)
(-0.0101418 0.539826 0.00391475)
(-0.00639139 0.535969 -0.00203769)
(0.0026125 0.537882 -0.000776381)
(0.0104402 0.540527 0.0017769)
(0.0069245 0.538455 -0.00120363)
(0.00894801 0.53843 -0.00596133)
(0.0108291 0.541319 -0.00720205)
(0.00428476 0.541577 -0.00966023)
(0.00113266 0.54354 -0.0147671)
(-0.00430593 0.53961 -0.0135396)
(-0.00693233 0.529514 -0.0116908)
(-0.00217139 0.502854 -0.00797495)
(-0.000880265 0.372915 0.000691226)
(8.80038e-05 0.029471 -0.000597453)
(-0.000231659 0.00717167 -0.000537246)
(-0.000477812 0.00577563 -3.03695e-05)
(-0.00010103 0.00544391 -5.67401e-05)
(-0.000146302 0.00586614 -4.61316e-05)
(-0.000141512 0.00655169 -2.99665e-05)
(-9.87072e-05 0.00647541 -2.80973e-05)
(-4.90104e-05 0.00551442 4.89698e-07)
(-2.92461e-05 0.00477328 1.13208e-05)
(1.07519e-06 0.000302516 2.39233e-07)
(3.41404e-06 0.000325653 4.94151e-07)
(4.10181e-06 0.000361104 1.43822e-07)
(4.88895e-06 0.000403082 1.34682e-07)
(5.02112e-06 0.000452398 1.9857e-07)
(5.09143e-06 0.000503556 2.32525e-07)
(4.83067e-06 0.000562558 2.65278e-07)
(4.22517e-06 0.000620269 1.83138e-07)
(3.41734e-06 0.000656351 1.46974e-07)
(2.66769e-06 0.000676989 1.12018e-07)
(1.91098e-06 0.000690211 9.20548e-08)
(1.23888e-06 0.000697255 9.48187e-08)
(6.48779e-07 0.000700208 7.85714e-08)
(1.32901e-07 0.000700885 9.05766e-08)
(-3.12399e-07 0.000700671 8.66723e-08)
(-6.87205e-07 0.000700262 9.69044e-08)
(-1.006e-06 0.000699822 8.61835e-08)
(-1.26848e-06 0.000699364 9.36509e-08)
(-1.49118e-06 0.000698954 8.0382e-08)
(-1.67432e-06 0.000698626 8.44078e-08)
(-1.83187e-06 0.000698371 6.70066e-08)
(-1.96231e-06 0.000698181 6.85087e-08)
(-2.076e-06 0.000698043 4.82918e-08)
(-2.17017e-06 0.00069795 4.92733e-08)
(-2.25544e-06 0.000697896 2.85298e-08)
(-2.32662e-06 0.000697886 3.12239e-08)
(-2.39057e-06 0.000697923 9.45625e-09)
(-2.44224e-06 0.000698012 1.19773e-08)
(-2.48812e-06 0.000698152 -1.12047e-08)
(-2.52194e-06 0.00069835 -8.4461e-09)
(-2.54966e-06 0.000698606 -3.4129e-08)
(-2.5625e-06 0.000698925 -3.33543e-08)
(-2.56274e-06 0.000699311 -6.3731e-08)
(-2.53805e-06 0.000699784 -6.78543e-08)
(-2.48744e-06 0.000700361 -1.04585e-07)
(-2.39679e-06 0.00070107 -1.14281e-07)
(-2.26142e-06 0.000701935 -1.56098e-07)
(-2.06667e-06 0.000702948 -1.69936e-07)
(-1.79584e-06 0.000704319 -2.12404e-07)
(-1.45159e-06 0.00070716 -2.28303e-07)
(-1.04433e-06 0.000713644 -2.90813e-07)
(-5.76214e-07 0.000729093 -3.48332e-07)
(5.1501e-08 0.000765671 -4.3058e-07)
(8.10362e-07 0.000842017 -3.79109e-07)
(1.8693e-06 0.000988191 8.18923e-08)
(3.75555e-06 0.00125854 1.55237e-06)
(6.93805e-06 0.0016838 4.12184e-06)
(9.4136e-06 0.00219733 7.04233e-06)
(8.12294e-06 0.00270751 6.35724e-06)
(8.51148e-06 0.00320652 -4.15704e-07)
(3.8192e-05 0.00376944 -1.54373e-05)
(7.83839e-05 0.00431761 -3.91174e-05)
(9.77349e-05 0.00461934 -0.000105945)
(1.8937e-05 0.00464518 -9.87184e-05)
(7.91054e-05 0.00448961 -9.30135e-05)
(2.0922e-05 0.0038594 1.24414e-05)
(0.000788473 0.00683176 0.00034934)
(0.000626256 0.0113852 0.000786142)
(-0.000416967 0.0164684 -0.000301338)
(0.00809814 0.21231 0.00833209)
(-0.017309 0.713934 -0.0433507)
(-0.0240774 0.540794 0.000323874)
(-0.00839861 0.565865 -5.19115e-05)
(0.00683268 0.541735 0.00590611)
(0.0184856 0.531456 0.00698581)
(0.0131057 0.53132 0.00366004)
(0.00891689 0.527164 0.00200944)
(0.00837647 0.535534 -0.000174281)
(0.00939489 0.537767 0.00127144)
(0.00960394 0.542254 -0.00684466)
(0.0081749 0.548644 -0.0162872)
(0.00645382 0.55699 -0.023416)
(0.00288939 0.567354 -0.0183271)
(0.00276557 0.559818 0.00277561)
(0.00500945 0.545289 0.0121312)
(0.00045793 0.541974 0.00592536)
(0.00192871 0.536545 -0.000797265)
(0.00961443 0.538105 -0.000558169)
(0.0102465 0.535805 -0.00150207)
(0.0118059 0.537352 -0.00444766)
(0.0163119 0.538401 -0.00271324)
(0.0136456 0.538566 -0.00256452)
(0.0104203 0.538905 -0.00585357)
(0.00337561 0.536852 -0.00464285)
(-0.00122018 0.533581 -0.00502199)
(-0.00273792 0.533493 -0.00513741)
(-0.00830336 0.531142 -0.000473275)
(-0.0169886 0.518132 -0.00247349)
(-0.0258568 0.482547 -0.00306064)
(-0.016782 0.30784 -0.00277368)
(-0.000746149 0.0276324 -0.00069134)
(-0.000790707 0.00446815 -8.85311e-05)
(-0.000580128 0.00473558 -6.59746e-05)
(-0.000503574 0.00509725 -4.76348e-05)
(-0.000338382 0.00535016 -3.82043e-05)
(-0.000277315 0.00497496 -2.3975e-05)
(1.59505e-06 0.00029465 3.24885e-07)
(4.7277e-06 0.00031499 8.4459e-07)
(5.30404e-06 0.000343585 3.94771e-07)
(5.97107e-06 0.000381981 3.2765e-07)
(5.847e-06 0.000433518 2.00333e-07)
(5.56339e-06 0.000485157 1.44536e-07)
(5.20005e-06 0.000541904 2.81975e-07)
(4.55741e-06 0.000604428 1.70897e-07)
(3.59084e-06 0.000647947 1.39608e-07)
(2.76377e-06 0.00067212 1.01037e-07)
(1.94621e-06 0.000687122 9.21091e-08)
(1.28097e-06 0.000695597 7.8935e-08)
(6.82005e-07 0.000699446 7.56578e-08)
(1.16496e-07 0.000700457 7.22104e-08)
(-3.92842e-07 0.000700394 9.30307e-08)
(-8.11398e-07 0.000700099 9.65826e-08)
(-1.15383e-06 0.000699742 1.07822e-07)
(-1.42795e-06 0.000699336 9.88617e-08)
(-1.65189e-06 0.000698965 9.96234e-08)
(-1.83718e-06 0.000698664 7.98947e-08)
(-1.99083e-06 0.000698421 7.55796e-08)
(-2.11825e-06 0.000698218 5.34917e-08)
(-2.22487e-06 0.000698065 4.92883e-08)
(-2.31318e-06 0.000697964 2.75881e-08)
(-2.38741e-06 0.000697905 2.46443e-08)
(-2.44778e-06 0.000697886 3.91685e-09)
(-2.50398e-06 0.000697917 2.61129e-09)
(-2.54922e-06 0.000698002 -1.88796e-08)
(-2.58812e-06 0.000698146 -2.03269e-08)
(-2.61285e-06 0.000698348 -4.28644e-08)
(-2.6293e-06 0.000698611 -4.53686e-08)
(-2.62435e-06 0.000698936 -7.0791e-08)
(-2.60406e-06 0.000699336 -7.80574e-08)
(-2.55196e-06 0.000699827 -1.11193e-07)
(-2.4737e-06 0.000700435 -1.24221e-07)
(-2.34512e-06 0.000701186 -1.62004e-07)
(-2.17032e-06 0.000702104 -1.81767e-07)
(-1.91933e-06 0.000703192 -2.22715e-07)
(-1.60234e-06 0.000704612 -2.51999e-07)
(-1.1921e-06 0.000707255 -3.00337e-07)
(-7.00659e-07 0.000713108 -3.47906e-07)
(-8.77967e-08 0.000727891 -4.13288e-07)
(6.8751e-07 0.00076453 -4.77517e-07)
(1.74011e-06 0.000843279 -4.16284e-07)
(3.19449e-06 0.000998123 5.83413e-08)
(5.62484e-06 0.00127148 1.44287e-06)
(9.03109e-06 0.00166043 4.10915e-06)
(1.14154e-05 0.00209849 7.0329e-06)
(1.05905e-05 0.00255071 7.06044e-06)
(8.31084e-06 0.0030938 -2.88338e-06)
(2.87233e-05 0.00381138 -1.96648e-05)
(4.39554e-05 0.00443721 -5.45458e-05)
(3.35363e-05 0.004672 -9.04794e-05)
(5.10952e-05 0.00461093 -0.000147015)
(0.000132973 0.00452035 -0.000145841)
(0.00017517 0.00432455 1.24267e-05)
(0.00103244 0.00745243 -0.000278729)
(0.00118551 0.0112408 0.000265462)
(-0.000711224 0.0145913 0.000112325)
(-0.0050829 0.209608 0.00444941)
(-0.0322123 0.716351 -0.0465464)
(-0.0107737 0.542477 0.000721707)
(0.00503441 0.556419 0.00612999)
(0.0174258 0.535705 0.0102208)
(0.0306221 0.520778 0.00937957)
(0.0196301 0.527564 -0.00310478)
(0.00453451 0.534099 -0.00532449)
(0.000439743 0.535785 -0.00168314)
(0.0019383 0.539151 0.00138341)
(0.00226113 0.544888 -0.00209146)
(0.000684279 0.545784 -0.00757408)
(-0.00153927 0.551765 -0.0171532)
(-0.00359142 0.558291 -0.0253375)
(0.00492644 0.573983 -0.0135185)
(0.0149128 0.566173 0.0161266)
(0.00519333 0.547141 0.0183483)
(0.00160776 0.539543 0.00627288)
(0.0080421 0.542838 0.0039967)
(0.00614006 0.54089 -0.000595053)
(0.00588623 0.540114 -0.00473924)
(0.00876725 0.538686 -0.00396744)
(0.00692414 0.537467 -0.00194203)
(0.00685653 0.539163 -0.00432608)
(0.00391508 0.53612 -0.00238642)
(0.000124119 0.531827 -0.00259616)
(-0.00219982 0.531002 -0.00556626)
(-0.0113526 0.527937 -0.00285622)
(-0.0225822 0.524915 -0.00196061)
(-0.0401552 0.520631 -0.00803153)
(-0.0513373 0.515224 -0.0213841)
(-0.0531317 0.512406 -0.0340697)
(-0.0435504 0.517318 -0.00289494)
(-0.0199528 0.501711 0.00927253)
(0.00470184 0.504208 0.0120147)
(0.0127118 0.511293 0.0179956)
(0.00670046 0.493799 0.012816)
(3.07533e-06 0.000284793 7.76177e-07)
(6.40224e-06 0.000304947 1.60761e-06)
(6.70231e-06 0.000329537 8.659e-07)
(6.97046e-06 0.00036489 7.0311e-07)
(6.58274e-06 0.000417871 3.9927e-07)
(5.99882e-06 0.00047544 2.02467e-07)
(5.46542e-06 0.000531903 3.66411e-07)
(4.85103e-06 0.000587864 1.87475e-07)
(3.67302e-06 0.000635063 1.40256e-07)
(2.82264e-06 0.000666986 9.46704e-08)
(1.95492e-06 0.000684922 8.37302e-08)
(1.26248e-06 0.000694407 8.54419e-08)
(6.04118e-07 0.000698607 1.03573e-07)
(-1.89863e-08 0.000699808 1.34566e-07)
(-5.6054e-07 0.000699844 1.53854e-07)
(-1.00524e-06 0.000699657 1.77614e-07)
(-1.35457e-06 0.000699402 1.82422e-07)
(-1.63149e-06 0.000699059 1.94332e-07)
(-1.8502e-06 0.000698732 1.91498e-07)
(-2.03426e-06 0.000698466 1.96768e-07)
(-2.18003e-06 0.000698262 1.85662e-07)
(-2.30691e-06 0.000698115 1.81082e-07)
(-2.40651e-06 0.000698015 1.61896e-07)
(-2.49625e-06 0.000697955 1.52083e-07)
(-2.56465e-06 0.000697934 1.29504e-07)
(-2.62809e-06 0.000697953 1.18387e-07)
(-2.67568e-06 0.000698015 9.56971e-08)
(-2.72133e-06 0.000698129 8.48273e-08)
(-2.74661e-06 0.000698297 6.20401e-08)
(-2.76396e-06 0.000698519 5.11859e-08)
(-2.75301e-06 0.000698798 2.69429e-08)
(-2.72884e-06 0.000699143 1.17218e-08)
(-2.66977e-06 0.00069957 -1.87368e-08)
(-2.58814e-06 0.0007001 -4.16153e-08)
(-2.45651e-06 0.000700763 -7.82891e-08)
(-2.28379e-06 0.000701581 -1.08286e-07)
(-2.03786e-06 0.000702575 -1.51088e-07)
(-1.728e-06 0.000703756 -1.86793e-07)
(-1.33235e-06 0.000705223 -2.32824e-07)
(-8.72e-07 0.000707508 -2.87142e-07)
(-3.01673e-07 0.000712126 -3.53032e-07)
(3.82008e-07 0.000725567 -4.13988e-07)
(1.25251e-06 0.000763919 -4.45103e-07)
(2.36615e-06 0.000848979 -3.93278e-07)
(3.95244e-06 0.00100798 4.81185e-08)
(6.30512e-06 0.00126379 1.13858e-06)
(9.27252e-06 0.00159825 3.05867e-06)
(1.0949e-05 0.00196587 4.58364e-06)
(1.07104e-05 0.00238079 5.16911e-06)
(8.60434e-06 0.00300467 2.05735e-06)
(1.85733e-05 0.00387636 -9.96339e-06)
(3.85855e-06 0.00452813 -5.28064e-05)
(2.82302e-06 0.00467325 -0.000126502)
(4.62066e-05 0.00462194 -0.000163788)
(8.06018e-05 0.00455977 -0.000161503)
(0.000162916 0.00457536 -1.23432e-05)
(8.76601e-05 0.00779135 8.06057e-05)
(0.000239956 0.0105457 0.000518833)
(-0.00112616 0.01286 0.000681934)
(-0.0226723 0.220768 -0.000593447)
(-0.0264342 0.696526 -0.0246137)
(0.000770238 0.526828 0.0131776)
(0.0148519 0.546582 0.00984191)
(0.0268019 0.528199 0.0121464)
(0.0382093 0.513741 0.00460717)
(0.0163173 0.531665 -0.00956422)
(0.00752357 0.535478 -0.00813673)
(0.0093766 0.541249 -0.00380384)
(0.00867073 0.539242 0.00053438)
(0.00910931 0.551065 0.00469905)
(-0.000576577 0.556154 0.00254196)
(-0.00942202 0.550699 -0.00451179)
(-0.0267171 0.549914 -0.0176642)
(-0.0336807 0.565415 -0.0233477)
(0.00086352 0.567987 0.000641639)
(0.026115 0.564224 0.0265967)
(0.00867038 0.549539 0.0101374)
(0.00566698 0.542852 0.00628387)
(0.00801412 0.541009 0.00708963)
(0.00597388 0.543085 0.00318633)
(0.0036905 0.542964 -0.00285157)
(0.00285229 0.54232 -0.00202973)
(0.000224726 0.541402 -0.00507858)
(-0.00117007 0.541004 -0.0046222)
(-0.00336184 0.537016 -0.00242762)
(-0.00590901 0.535497 -0.00297595)
(-0.00809231 0.533064 0.0014779)
(-0.0116873 0.529232 0.00508271)
(-0.0215951 0.520646 0.0044093)
(-0.0362825 0.516547 0.00255739)
(-0.0492188 0.524016 -0.0175139)
(-0.0606363 0.549884 -0.0201494)
(-0.0264315 0.55568 -0.00130826)
(0.0010849 0.5595 -0.00523934)
(0.00483383 0.54825 -0.00151785)
(-0.00051279 0.511568 -0.00772993)
(4.58174e-06 0.000166723 1.95616e-06)
(8.24173e-06 0.000298944 2.4711e-06)
(8.07864e-06 0.00031375 1.20589e-06)
(7.89573e-06 0.000348231 8.97318e-07)
(7.18157e-06 0.000402886 4.51556e-07)
(6.35008e-06 0.000468199 2.22042e-07)
(5.59437e-06 0.000525473 2.68225e-07)
(4.90162e-06 0.000570581 1.73491e-07)
(3.95152e-06 0.000619495 -2.30992e-08)
(3.06711e-06 0.000660877 -9.51774e-08)
(2.23512e-06 0.000682407 -1.22588e-07)
(1.51309e-06 0.000692755 -1.59451e-07)
(8.61304e-07 0.000697352 -1.62619e-07)
(3.17438e-07 0.000698822 -1.60856e-07)
(-1.50586e-07 0.000698983 -1.55549e-07)
(-5.18801e-07 0.00069891 -1.67284e-07)