/*--------------------------------*- C++ -*----------------------------------*\
| =========                 |                                                 |
| \\      /  F ield         | OpenFOAM: The Open Source CFD Toolbox           |
|  \\    /   O peration     | Version:  2.3.0                                 |
|   \\  /    A nd           | Web:      www.OpenFOAM.org                      |
|    \\/     M anipulation  |                                                 |
\*---------------------------------------------------------------------------*/
FoamFile
{
    version     2.0;
    format      ascii;
    class       volScalarField;
    location    "18";
    object      alpha.water;
}
// * * * * * * * * * * * * * * * * * * * * * * * * * * * * * * * * * * * * * //

dimensions      [0 0 0 0 0 0 0];

internalField   nonuniform List<scalar> 
6144
(
5.54145e-06
6.33111e-06
6.93495e-06
7.38715e-06
7.95028e-06
8.63786e-06
9.45574e-06
9.94156e-06
1.00017e-05
1.00029e-05
1.00003e-05
1.00003e-05
9.99995e-06
9.99995e-06
9.99992e-06
9.99992e-06
9.99992e-06
9.99992e-06
1.00006e-05
1.00019e-05
1.00015e-05
1.0001e-05
1.00008e-05
1.00006e-05
1.00002e-05
9.99873e-06
9.99759e-06
9.99749e-06
9.99717e-06
9.99697e-06
9.99697e-06
9.99697e-06
9.99693e-06
9.99693e-06
9.99686e-06
9.99686e-06
9.9965e-06
9.9965e-06
9.99373e-06
9.99474e-06
9.98986e-06
9.99393e-06
9.9886e-06
9.99562e-06
9.98741e-06
9.99915e-06
9.98625e-06
1.00029e-05
9.98656e-06
1.0436e-05
1.13236e-05
1.48242e-05
1.88042e-05
4.50871e-05
6.24394e-05
0.000162469
0.000345568
0.000980198
0.00129592
0.0384689
0.938359
0.99956
0.999999
0.999999
0.999999
0.999999
0.999999
0.999999
0.999999
0.999999
0.999999
0.999999
0.999999
0.999999
0.999999
0.999999
0.999999
0.999999
0.999999
0.999999
0.999999
0.999999
0.999999
0.999999
0.999999
0.999999
0.999999
0.999999
0.999999
0.999999
0.999999
0.999999
1
1
1
1
5.6418e-06
6.17675e-06
6.58366e-06
7.21235e-06
7.97903e-06
8.6036e-06
9.59999e-06
9.98845e-06
1.00036e-05
1.00036e-05
1.00022e-05
1.00034e-05
1.00025e-05
1.00031e-05
1.00021e-05
1.00021e-05
1.00019e-05
1.00031e-05
1.00039e-05
1.00038e-05
1.00033e-05
1.0003e-05
1.00029e-05
1.00027e-05
1.0002e-05
9.99982e-06
9.99944e-06
9.99947e-06
9.99902e-06
9.99832e-06
9.99892e-06
9.99948e-06
9.9991e-06
9.99947e-06
9.9983e-06
1.00004e-05
9.99775e-06
9.99967e-06
9.99389e-06
9.99533e-06
9.98987e-06
9.99506e-06
9.9886e-06
9.99865e-06
9.98741e-06
1.00025e-05
9.98625e-06
1.00063e-05
9.98656e-06
1.01404e-05
1.08726e-05
1.25169e-05
1.69304e-05
5.43343e-05
5.99285e-05
0.000126074
0.00038262
0.00104557
0.00135852
0.0384567
0.949241
0.999942
0.999999
0.999999
0.999999
0.999999
0.999999
0.999999
0.999999
0.999999
0.999999
0.999999
0.999999
0.999999
0.999999
0.999999
0.999999
0.999999
0.999999
0.999999
0.999999
0.999999
0.999999
0.999999
0.999999
0.999999
0.999999
0.999999
0.999999
0.999999
0.999999
0.999999
1
1
1
1
5.76953e-06
6.11258e-06
6.40217e-06
6.97165e-06
7.62775e-06
8.43852e-06
9.39252e-06
9.9726e-06
1.00036e-05
1.00035e-05
1.00008e-05
1.00025e-05
1.00019e-05
1.00026e-05
1.00023e-05
1.00026e-05
1.00026e-05
1.00035e-05
1.00042e-05
1.00041e-05
1.00038e-05
1.00036e-05
1.00036e-05
1.00035e-05
1.00028e-05
1.00011e-05
1.00008e-05
1.00007e-05
1.00003e-05
1e-05
1.00007e-05
1.00009e-05
1.00003e-05
1.00012e-05
9.99931e-06
1.00026e-05
9.9982e-06
1.00028e-05
9.99478e-06
9.99949e-06
9.99194e-06
9.99838e-06
9.99141e-06
1.0002e-05
9.98845e-06
1.00065e-05
9.98625e-06
1.00113e-05
9.98656e-06
1.02795e-05
1.12107e-05
1.38264e-05
1.64091e-05
4.20405e-05
5.84038e-05
0.000165881
0.000284969
0.000907358
0.00096881
0.0326584
0.948127
0.999999
0.999999
0.999999
0.999999
0.999999
0.999999
0.999999
0.999999
0.999999
0.999999
0.999999
0.999999
0.999999
0.999999
0.999999
0.999999
0.999999
0.999999
0.999999
0.999999
0.999999
0.999999
0.999999
0.999999
0.999999
0.999999
0.999999
0.999999
0.999999
0.999999
0.999999
1
1
1
1
5.9311e-06
6.20574e-06
6.36602e-06
6.88095e-06
7.40382e-06
8.23635e-06
9.17163e-06
9.88056e-06
1.00024e-05
1.00032e-05
9.99846e-06
1.00009e-05
1.00009e-05
1.0001e-05
1.0001e-05
1.00012e-05
1.00011e-05
1.00016e-05
1.00022e-05
1.00025e-05
1.0002e-05
1.00019e-05
1.00019e-05
1.00018e-05
1.00006e-05
9.99931e-06
9.99918e-06
9.99906e-06
9.9989e-06
9.99893e-06
9.99922e-06
9.99913e-06
9.99878e-06
9.99934e-06
9.99868e-06
1.00007e-05
9.99774e-06
1.00011e-05
9.99373e-06
1.00001e-05
9.99008e-06
1e-05
9.98967e-06
1.0002e-05
9.98845e-06
1.00051e-05
9.98625e-06
1.00105e-05
9.98656e-06
1.04304e-05
1.15026e-05
1.54184e-05
1.93935e-05
3.47825e-05
8.3422e-05
0.000193897
0.00018745
0.000762823
0.00057889
0.042793
0.950196
0.999999
0.999999
0.999999
0.999999
0.999999
0.999999
0.999999
0.999999
0.999999
0.999999
0.999999
0.999999
0.999999
0.999999
0.999999
0.999999
0.999999
0.999999
0.999999
0.999999
0.999999
0.999999
0.999999
0.999999
0.999999
0.999999
0.999999
0.999999
0.999999
0.999999
0.999999
1
1
1
1
6.01788e-06
6.36177e-06
6.55543e-06
6.89519e-06
7.2784e-06
7.87964e-06
8.55875e-06
9.47704e-06
9.96804e-06
1.00024e-05
9.99157e-06
1.00012e-05
1.0002e-05
1.00035e-05
1.00026e-05
1.00034e-05
1.00032e-05
1.00034e-05
1.00037e-05
1.00044e-05
1.00044e-05
1.00042e-05
1.00043e-05
1.00043e-05
1.00033e-05
1.00021e-05
1.00019e-05
1.00018e-05
1.00015e-05
1.00022e-05
1.00021e-05
1.00015e-05
1.0001e-05
1.00015e-05
1.00012e-05
1.00034e-05
1.0001e-05
1.00037e-05
9.9958e-06
1.0003e-05
9.99042e-06
1.00067e-05
9.98966e-06
1.00095e-05
9.98845e-06
1.00113e-05
9.98625e-06
1.00218e-05
9.98657e-06
1.04686e-05
1.1502e-05
1.58312e-05
2.27215e-05
3.17203e-05
4.09819e-05
0.000195125
0.000238275
0.000600582
0.000320709
0.114344
0.98804
0.999982
0.999992
0.999995
0.999995
0.999995
0.999995
0.999994
0.999994
0.999993
0.999991
0.99999
0.999989
0.999989
0.999989
0.99999
0.999991
0.999994
0.999997
0.999998
0.999999
0.999999
0.999999
0.999999
0.999999
0.999999
0.999999
0.999999
0.999999
0.999999
0.999999
1
1
1
1
1
5.97652e-06
6.38903e-06
6.71214e-06
7.01051e-06
7.369e-06
7.77385e-06
8.05528e-06
8.88006e-06
9.6137e-06
9.89742e-06
9.95852e-06
9.99733e-06
1e-05
1.0001e-05
1.00009e-05
1.00009e-05
1.00009e-05
1.0001e-05
1.00013e-05
1.00013e-05
1.00014e-05
1.00016e-05
1.00017e-05
1.00012e-05
9.99997e-06
9.99931e-06
9.99928e-06
9.99928e-06
9.99928e-06
9.99928e-06
9.99954e-06
9.99896e-06
9.99896e-06
9.99896e-06
9.99896e-06
9.99924e-06
9.99919e-06
1.00003e-05
9.99573e-06
9.99891e-06
9.99068e-06
1.00036e-05
9.98966e-06
1.0008e-05
9.98869e-06
1.00112e-05
9.98625e-06
1.0023e-05
9.99245e-06
1.04545e-05
1.13379e-05
1.46946e-05
2.21933e-05
4.14679e-05
6.0026e-05
0.000201519
0.000221307
0.000413779
0.000116512
0.255423
0.994915
0.998503
0.998791
0.99905
0.999055
0.999016
0.998931
0.998848
0.998776
0.998779
0.998864
0.998761
0.998553
0.99861
0.9987
0.998665
0.99871
0.998875
0.999175
0.999457
0.999645
0.999792
0.9999
0.99996
0.999989
0.999998
0.999999
1
0.999999
0.999999
1
1
1
1
1
1
5.74605e-06
6.07275e-06
6.68522e-06
7.0305e-06
7.58207e-06
7.84761e-06
7.96899e-06
8.54621e-06
9.10122e-06
9.5373e-06
9.88952e-06
9.99751e-06
1.00023e-05
1.00047e-05
1.00033e-05
1.00053e-05
1.00043e-05
1.00044e-05
1.00047e-05
1.00055e-05
1.00055e-05
1.00055e-05
1.00055e-05
1.00055e-05
1.00045e-05
1.0004e-05
1.0004e-05
1.00038e-05
1.00039e-05
1.0004e-05
1.0004e-05
1.0003e-05
1.00025e-05
1.00025e-05
1.00022e-05
1.00034e-05
1.00021e-05
1.00042e-05
9.99865e-06
1.00031e-05
9.99538e-06
1.00063e-05
9.99478e-06
1.00107e-05
9.99304e-06
1.00145e-05
9.9901e-06
1.00278e-05
1.00194e-05
1.05846e-05
1.14846e-05
1.46564e-05
2.39919e-05
5.03473e-05
4.99035e-05
0.00017345
0.000266832
0.000326946
9.99856e-06
0.480754
0.981022
0.985099
0.98417
0.985337
0.986879
0.987211
0.987528
0.987342
0.987485
0.987051
0.985837
0.985779
0.985898
0.98565
0.985367
0.985109
0.985309
0.985607
0.987005
0.988253
0.989066
0.990959
0.992723
0.994419
0.996186
0.997517
0.998831
0.999675
0.999984
1
1
1
1
1
0.999966
0.999953
5.51897e-06
5.71069e-06
6.44201e-06
6.80212e-06
7.60071e-06
7.99402e-06
8.09952e-06
8.52071e-06
8.85922e-06
9.47179e-06
9.90245e-06
9.99847e-06
1.0001e-05
1.00043e-05
1.00029e-05
1.00053e-05
1.00037e-05
1.00041e-05
1.00038e-05
1.00045e-05
1.00047e-05
1.0005e-05
1.00051e-05
1.00051e-05
1.00044e-05
1.00041e-05
1.00042e-05
1.00047e-05
1.00055e-05
1.00056e-05
1.00055e-05
1.00049e-05
1.00046e-05
1.0005e-05
1.00055e-05
1.00072e-05
1.00072e-05
1.00075e-05
1.00044e-05
1.00079e-05
1.00043e-05
1.001e-05
1.00064e-05
1.00132e-05
1.00057e-05
1.00153e-05
9.99757e-06
1.00373e-05
1.00578e-05
1.07875e-05
1.17684e-05
1.54011e-05
2.46599e-05
5.53772e-05
7.55504e-05
0.000136254
0.000221125
0.00033919
9.99856e-06
0.605707
0.967059
0.969099
0.968473
0.968318
0.968394
0.968853
0.969001
0.968619
0.968651
0.968789
0.968128
0.967544
0.967222
0.967141
0.967248
0.967603
0.967777
0.967841
0.967057
0.966352
0.96609
0.96569
0.965105
0.964842
0.964725
0.964821
0.9651
0.965279
0.965733
0.966604
0.967124
0.967871
0.969498
0.971444
0.975223
0.980037
5.22046e-06
5.5266e-06
6.2269e-06
6.65212e-06
7.50566e-06
8.15072e-06
8.32144e-06
8.74533e-06
8.87809e-06
9.53916e-06
9.92975e-06
1.0001e-05
9.99795e-06
1.00002e-05
1.00002e-05
1.00002e-05
9.99984e-06
9.99984e-06
9.99981e-06
9.99981e-06
9.99981e-06
9.99981e-06
9.9999e-06
1e-05
9.99996e-06
9.99996e-06
9.99996e-06
9.99996e-06
1.00003e-05
1.00014e-05
1.00013e-05
1.00013e-05
1.00013e-05
1.00013e-05
1.00013e-05
1.00017e-05
1.00025e-05
1.00044e-05
1.00025e-05
1.00025e-05
1.00017e-05
1.00054e-05
1.00032e-05
1.00088e-05
1.00009e-05
1.00144e-05
9.99475e-06
1.0032e-05
1.00227e-05
1.07593e-05
1.16727e-05
1.46729e-05
2.29947e-05
5.71051e-05
8.86838e-05
0.000145858
0.00018378
0.000281722
9.99856e-06
0.538232
0.980251
0.980753
0.976553
0.976631
0.983205
0.987655
0.988678
0.988701
0.988699
0.989195
0.989701
0.990578
0.991307
0.992216
0.993858
0.994337
0.993972
0.992713
0.991015
0.990199
0.990457
0.991076
0.990856
0.990103
0.989921
0.989925
0.989749
0.989665
0.990083
0.9904
0.991113
0.992095
0.993498
0.995217
0.997152
0.998641
4.8269e-06
5.10413e-06
5.72354e-06
6.58425e-06
7.43109e-06
8.4586e-06
8.66852e-06
9.14802e-06
9.23199e-06
9.84553e-06
9.98343e-06
1.0009e-05
1.00041e-05
1.00076e-05
1.00062e-05
1.00074e-05
1.00057e-05
1.00064e-05
1.00054e-05
1.00057e-05
1.00056e-05
1.00057e-05
1.00059e-05
1.00059e-05
1.00057e-05
1.00056e-05
1.00055e-05
1.00056e-05
1.0006e-05
1.00068e-05
1.00062e-05
1.00057e-05
1.00054e-05
1.00053e-05
1.00051e-05
1.00054e-05
1.00057e-05
1.00074e-05
1.00047e-05
1.00061e-05
1.00033e-05
1.00082e-05
1.00037e-05
1.00122e-05
1.00033e-05
1.00147e-05
9.99764e-06
1.00341e-05
1.00376e-05
1.07626e-05
1.18085e-05
1.55519e-05
2.39167e-05
5.92803e-05
8.38155e-05
0.00015911
0.000177934
0.000311993
9.99856e-06
0.375041
0.992999
0.996356
0.996475
0.997247
0.998285
0.998929
0.999152
0.999262
0.999355
0.999477
0.999553
0.999605
0.999657
0.999693
0.99971
0.999715
0.999715
0.999683
0.999641
0.999592
0.999572
0.999575
0.999557
0.999543
0.999534
0.999519
0.999532
0.999597
0.999667
0.999708
0.999757
0.99983
0.999905
0.999955
0.999984
0.999995
4.33802e-06
4.73784e-06
5.24393e-06
6.24142e-06
7.28619e-06
8.79685e-06
9.23879e-06
9.79474e-06
9.86618e-06
9.99524e-06
1.00008e-05
1.0009e-05
1.00009e-05
1.0005e-05
1.00031e-05
1.00048e-05
1.0002e-05
1.0002e-05
1.00016e-05
1.00016e-05
1.00016e-05
1.00017e-05
1.00023e-05
1.00028e-05
1.00028e-05
1.00028e-05
1.00028e-05
1.00032e-05
1.00043e-05
1.00049e-05
1.00043e-05
1.00037e-05
1.00036e-05
1.00039e-05
1.00043e-05
1.00054e-05
1.00056e-05
1.00074e-05
1.00047e-05
1.00078e-05
1.00043e-05
1.00111e-05
1.00062e-05
1.00123e-05
1.00062e-05
1.00147e-05
9.9997e-06
1.00327e-05
1.00228e-05
1.06666e-05
1.24626e-05
1.82468e-05
2.85991e-05
5.86145e-05
6.85881e-05
0.0001551
0.000186537
0.000482313
0.000271061
0.170673
0.986089
0.999903
0.999955
0.999984
0.999993
0.999998
0.999999
0.999999
0.999999
0.999999
0.999999
1
1
1
1
1
1
1
1
1
1
0.999999
0.999999
0.999999
0.999999
0.999998
0.999998
0.999998
0.999999
0.999999
0.999999
0.999999
1
1
1
1
3.80293e-06
4.38977e-06
4.77113e-06
5.842e-06
7.21047e-06
9.16868e-06
9.73316e-06
9.97821e-06
9.9805e-06
9.99794e-06
1.00043e-05
1.0009e-05
1.00051e-05
1.0009e-05
1.0003e-05
1.0009e-05
1.00042e-05
1.00051e-05
1.00029e-05
1.00039e-05
1.00035e-05
1.00036e-05
1.00042e-05
1.00047e-05
1.00046e-05
1.00047e-05
1.00049e-05
1.00058e-05
1.0007e-05
1.00073e-05
1.00064e-05
1.00057e-05
1.00057e-05
1.00061e-05
1.00065e-05
1.0008e-05
1.00083e-05
1.00097e-05
1.00085e-05
1.00101e-05
1.00095e-05
1.00123e-05
1.00123e-05
1.00123e-05
1.00098e-05
1.00147e-05
9.99975e-06
1.00314e-05
1.00014e-05
1.04925e-05
1.32022e-05
1.96618e-05
2.78982e-05
4.82031e-05
0.000108664
0.000179294
0.000179283
0.000636783
0.000446002
0.0653204
0.938331
0.999999
0.999999
0.999999
0.999999
0.999999
0.999999
0.999999
0.999999
0.999999
0.999999
0.999999
1
1
1
1
1
1
1
1
1
1
1
1
1
1
1
1
1
1
1
1
1
1
1
1
2.42283e-06
4.82389e-06
5.11532e-06
6.76503e-06
7.59296e-06
9.05695e-06
9.73018e-06
9.98289e-06
9.96648e-06
9.9928e-06
1.00067e-05
1.0009e-05
1.0009e-05
1.0009e-05
1.0009e-05
1.0009e-05
1.00087e-05
1.00087e-05
1.0008e-05
1.00083e-05
1.00083e-05
1.00087e-05
1.00097e-05
1.00097e-05
1.00097e-05
1.00097e-05
1.00097e-05
1.00097e-05
1.00097e-05
1.00097e-05
1.00097e-05
1.00087e-05
1.00085e-05
1.00092e-05
1.00093e-05
1.00094e-05
1.00095e-05
1.00101e-05
1.00101e-05
1.00101e-05
1.00101e-05
1.00123e-05
1.00117e-05
1.00123e-05
1.00084e-05
1.00147e-05
9.9983e-06
1.00301e-05
1.0001e-05
1.03353e-05
1.37494e-05
2.10219e-05
2.76728e-05
3.63945e-05
8.62177e-05
0.000173966
0.00018353
0.000801821
0.000681854
0.0309231
0.918246
1
1
1
0.999999
0.999999
0.999999
0.999999
0.999999
0.999999
1
1
1
1
1
1
1
1
1
1
1
1
1
1
1
1
1
1
1
1
1
1
1
1
1
1
2.99624e-06
5.11892e-06
4.96344e-06
5.84151e-06
4.83809e-06
5.49724e-06
7.84947e-06
9.89983e-06
9.96998e-06
1.00048e-05
1.00032e-05
1.0009e-05
1.00087e-05
1.0009e-05
1.00087e-05
1.0009e-05
1.00073e-05
1.00086e-05
1.0007e-05
1.0008e-05
1.00076e-05
1.0008e-05
1.00085e-05
1.0009e-05
1.00092e-05
1.00093e-05
1.00095e-05
1.00095e-05
1.00095e-05
1.00095e-05
1.00093e-05
1.00083e-05
1.00081e-05
1.00086e-05
1.00089e-05
1.00092e-05
1.0009e-05
1.00099e-05
1.00098e-05
1.00101e-05
1.00098e-05
1.00123e-05
1.00111e-05
1.00123e-05
1.00074e-05
1.00147e-05
9.99729e-06
1.00278e-05
1.0001e-05
1.01784e-05
1.33283e-05
2.04078e-05
2.8007e-05
3.99315e-05
6.05615e-05
0.000126133
0.000265041
0.000972327
0.00102952
0.0408318
0.943371
0.999999
1
1
1
1
1
1
1
1
1
1
1
1
1
1
1
1
1
1
1
1
1
1
1
1
1
1
1
1
1
1
1
1
1
1
2.68855e-06
4.86746e-06
4.67878e-06
4.68156e-06
2.50443e-06
2.26929e-06
3.50384e-06
9.19835e-06
9.98969e-06
1.00072e-05
9.99757e-06
1.00081e-05
1.00019e-05
1.00054e-05
1.00024e-05
1.00065e-05
1.00023e-05
1.0005e-05
1.00022e-05
1.00038e-05
1.00033e-05
1.00038e-05
1.00041e-05
1.00047e-05
1.0005e-05
1.00056e-05
1.00064e-05
1.00068e-05
1.00069e-05
1.00069e-05
1.00063e-05
1.00053e-05
1.00051e-05
1.00053e-05
1.00058e-05
1.00068e-05
1.00065e-05
1.00076e-05
1.00064e-05
1.00087e-05
1.00064e-05
1.00105e-05
1.00061e-05
1.00122e-05
1.00022e-05
1.00145e-05
9.99463e-06
1.00235e-05
1.0001e-05
1.01219e-05
1.22288e-05
1.68171e-05
3.28522e-05
4.96318e-05
5.61503e-05
0.00010032
0.000371106
0.00110046
0.00165324
0.0405636
0.951975
0.999894
1
1
1
1
1
1
1
1
1
1
1
1
1
1
1
1
1
1
1
1
1
1
1
1
1
1
1
1
1
1
1
1
1
1
1.30965e-06
2.71096e-06
2.72504e-06
2.78853e-06
2.69141e-06
2.37787e-06
2.25277e-06
5.12033e-06
9.4935e-06
1.00062e-05
1.00058e-05
1.0009e-05
1.0009e-05
1.0009e-05
1.0009e-05
1.0009e-05
1.00084e-05
1.00084e-05
1.00074e-05
1.00078e-05
1.00078e-05
1.00084e-05
1.00101e-05
1.00103e-05
1.00103e-05
1.00103e-05
1.00103e-05
1.00103e-05
1.00103e-05
1.00103e-05
1.00103e-05
1.00098e-05
1.00096e-05
1.00097e-05
1.00101e-05
1.00113e-05
1.00113e-05
1.00123e-05
1.0013e-05
1.00131e-05
1.00131e-05
1.00131e-05
1.00131e-05
1.00131e-05
1.00116e-05
1.00145e-05
1.00028e-05
1.00235e-05
1.0001e-05
1.00903e-05
1.12205e-05
1.73855e-05
3.39346e-05
4.7976e-05
6.30047e-05
0.000174527
0.000269139
0.000942679
0.00170562
0.0487573
0.940138
0.99948
0.999999
1
1
1
1
1
1
1
1
1
1
1
1
1
1
1
1
1
1
1
1
1
1
1
1
1
1
1
1
1
1
1
1
1
5.83506e-06
6.57664e-06
7.11307e-06
7.59724e-06
8.15692e-06
8.81352e-06
9.58302e-06
9.81091e-06
9.94099e-06
1.00015e-05
1.00094e-05
1.00103e-05
1.00103e-05
1.00104e-05
1.00103e-05
1.00103e-05
1.001e-05
1.001e-05
1.00099e-05
1.00101e-05
1.00099e-05
1.00098e-05
1.00098e-05
1.00096e-05
1.0009e-05
1.0008e-05
1.00074e-05
1.00074e-05
1.00071e-05
1.0007e-05
1.0007e-05
1.00071e-05
1.00068e-05
1.00071e-05
1.00067e-05
1.00076e-05
1.00062e-05
1.00068e-05
1.00024e-05
1.00047e-05
9.99927e-06
1.00068e-05
9.99797e-06
1.00107e-05
9.99736e-06
1.00136e-05
9.98947e-06
1.00151e-05
9.98656e-06
1.05764e-05
1.15533e-05
1.54972e-05
1.85576e-05
4.23299e-05
5.97386e-05
0.000148331
0.000313359
0.00122871
0.00299782
0.0448667
0.922658
0.999223
0.999998
0.999999
0.999999
0.999999
0.999999
0.999999
0.999999
0.999999
0.999999
0.999999
0.999999
0.999999
0.999999
0.999999
0.999999
0.999999
0.999999
0.999999
0.999999
0.999999
0.999999
0.999999
0.999999
0.999999
0.999999
0.999999
0.999999
0.999999
0.999999
0.999999
0.999999
1
0.999999
1
6.30561e-06
6.83499e-06
7.09718e-06
7.57313e-06
7.95988e-06
8.38057e-06
8.99575e-06
9.48188e-06
9.78796e-06
9.93729e-06
9.9991e-06
1.00101e-05
1.00101e-05
1.00104e-05
1.00102e-05
1.00104e-05
1.00103e-05
1.00104e-05
1.00104e-05
1.00105e-05
1.00104e-05
1.00104e-05
1.00104e-05
1.00103e-05
1.00101e-05
1.00101e-05
1.00101e-05
1.00101e-05
1.00101e-05
1.00101e-05
1.00102e-05
1.00102e-05
1.001e-05
1.00104e-05
1.001e-05
1.00108e-05
1.00096e-05
1.00108e-05
1.0008e-05
1.00116e-05
1.00087e-05
1.00157e-05
1.00118e-05
1.00157e-05
1.00142e-05
1.00157e-05
9.99546e-06
1.00313e-05
9.98656e-06
1.02874e-05
1.11227e-05
1.36412e-05
1.63667e-05
4.48066e-05
6.24964e-05
0.000125846
0.000357549
0.00109944
0.00164924
0.0436671
0.940569
0.999891
0.999999
0.999999
0.999999
0.999999
0.999999
0.999999
0.999999
0.999999
0.999999
0.999999
0.999999
0.999999
0.999999
0.999999
0.999999
0.999999
0.999999
0.999999
0.999999
0.999999
0.999999
0.999999
0.999999
0.999999
0.999999
0.999999
0.999999
0.999999
0.999999
0.999999
0.999999
1
0.999999
1
6.40768e-06
6.95936e-06
7.07673e-06
7.28832e-06
7.51595e-06
7.96831e-06
8.4651e-06
8.99905e-06
9.45009e-06
9.7464e-06
9.92725e-06
1.00019e-05
1.00097e-05
1.00106e-05
1.00106e-05
1.00106e-05
1.00106e-05
1.00106e-05
1.00107e-05
1.0011e-05
1.0011e-05
1.0011e-05
1.0011e-05
1.00111e-05
1.0011e-05
1.0011e-05
1.0011e-05
1.0011e-05
1.0011e-05
1.0011e-05
1.0011e-05
1.0011e-05
1.0011e-05
1.00113e-05
1.00114e-05
1.00114e-05
1.00114e-05
1.00118e-05
1.00118e-05
1.0013e-05
1.0013e-05
1.00157e-05
1.00156e-05
1.00157e-05
1.00151e-05
1.00157e-05
1.00008e-05
1.00436e-05
1.00179e-05
1.04649e-05
1.12029e-05
1.45662e-05
1.82474e-05
4.08552e-05
5.15039e-05
0.000149706
0.000284872
0.000921331
0.00103342
0.0362998
0.943401
0.999999
0.999999
0.999999
0.999999
0.999999
0.999999
0.999999
0.999999
0.999999
0.999999
0.999999
0.999999
0.999999
0.999999
0.999999
0.999999
0.999999
0.999999
0.999999
0.999999
0.999999
0.999999
0.999999
0.999999
0.999999
0.999999
0.999999
0.999999
0.999999
0.999999
0.999999
0.999999
1
0.999999
1
6.3196e-06
7.02795e-06
7.22892e-06
7.46444e-06
7.51929e-06
7.82312e-06
8.12168e-06
8.66521e-06
9.1534e-06
9.54434e-06
9.80527e-06
9.97554e-06
1.00037e-05
1.001e-05
1.00074e-05
1.00089e-05
1.00073e-05
1.00072e-05
1.00065e-05
1.00067e-05
1.00069e-05
1.00073e-05
1.0008e-05
1.00084e-05
1.00087e-05
1.00089e-05
1.0009e-05
1.0009e-05
1.0009e-05
1.0009e-05
1.00087e-05
1.00079e-05
1.00075e-05
1.0008e-05
1.00084e-05
1.00102e-05
1.00089e-05
1.00109e-05
1.00074e-05
1.00118e-05
1.00055e-05
1.0015e-05
1.00061e-05
1.00157e-05
1.0005e-05
1.00157e-05
9.99479e-06
1.00463e-05
1.00824e-05
1.06351e-05
1.1398e-05
1.57384e-05
2.19424e-05
3.66005e-05
4.23703e-05
0.000184572
0.000192625
0.000862296
0.000428959
0.0378675
0.949753
0.999999
0.999996
0.999999
0.999999
0.999999
0.999999
0.999998
0.999999
0.999999
0.999999
0.999998
0.999998
0.999999
0.999999
0.999999
0.999999
0.999999
0.999999
0.999999
0.999999
0.999999
0.999999
0.999999
0.999999
0.999999
0.999999
0.999999
0.999999
0.999999
0.999999
0.999999
1
1
0.999999
1
5.97605e-06
6.85359e-06
7.18967e-06
7.65765e-06
7.89884e-06
8.09118e-06
8.09162e-06
8.61342e-06
9.03455e-06
9.42603e-06
9.71813e-06
9.95448e-06
9.99877e-06
1.00092e-05
1.00065e-05
1.00081e-05
1.00062e-05
1.00065e-05
1.00055e-05
1.00058e-05
1.00058e-05
1.00062e-05
1.00068e-05
1.00073e-05
1.00074e-05
1.00074e-05
1.00074e-05
1.00074e-05
1.00073e-05
1.00073e-05
1.00071e-05
1.00063e-05
1.00059e-05
1.0006e-05
1.00061e-05
1.00075e-05
1.00066e-05
1.00087e-05
1.00057e-05
1.00098e-05
1.00045e-05
1.00121e-05
1.00029e-05
1.00157e-05
1.00006e-05
1.00157e-05
9.9897e-06
1.00436e-05
1.01108e-05
1.07098e-05
1.16621e-05
1.67792e-05
2.41711e-05
2.946e-05
5.00564e-05
0.000190088
0.000399833
0.000531578
0.000201027
0.0930266
0.984924
0.999857
0.999858
0.999903
0.999907
0.999911
0.999903
0.999898
0.999892
0.999885
0.999863
0.999838
0.999843
0.999862
0.999851
0.999847
0.999873
0.999922
0.99995
0.99997
0.999985
0.999994
0.999998
0.999999
0.999999
0.999999
0.999999
0.999999
0.999999
0.999999
0.999999
0.999999
1
1
0.999999
1
5.40617e-06
6.24311e-06
6.54541e-06
7.39526e-06
7.93734e-06
8.24738e-06
8.47146e-06
8.86946e-06
9.02883e-06
9.38398e-06
9.68042e-06
9.94081e-06
9.99259e-06
1.00079e-05
1.00053e-05
1.00072e-05
1.0005e-05
1.00054e-05
1.00043e-05
1.00046e-05
1.00046e-05
1.00048e-05
1.00052e-05
1.00057e-05
1.0006e-05
1.00061e-05
1.00061e-05
1.00061e-05
1.00061e-05
1.00061e-05
1.00059e-05
1.00051e-05
1.00048e-05
1.00049e-05
1.00049e-05
1.00062e-05
1.00055e-05
1.00073e-05
1.0005e-05
1.00085e-05
1.00041e-05
1.00108e-05
1.00024e-05
1.00137e-05
9.99894e-06
1.00157e-05
9.98859e-06
1.00395e-05
1.01197e-05
1.07454e-05
1.18831e-05
1.72689e-05
2.53144e-05
3.778e-05
0.000101109
0.000256693
0.000275997
0.000229921
4.10577e-05
0.200312
0.991889
0.996909
0.996948
0.997267
0.996964
0.996458
0.996264
0.996185
0.996128
0.995918
0.995826
0.995794
0.995855
0.995738
0.995623
0.995686
0.995737
0.996525
0.997134
0.997741
0.998453
0.999001
0.999407
0.999678
0.999878
0.999973
0.999996
0.999999
0.999999
0.999999
0.999999
0.999999
1
1
0.999999
1
4.75438e-06
5.37231e-06
5.64809e-06
6.43187e-06
7.57966e-06
8.22827e-06
8.77361e-06
9.00049e-06
9.12491e-06
9.38169e-06
9.67213e-06
9.93411e-06
9.98697e-06
1.00072e-05
1.00045e-05
1.00067e-05
1.00043e-05
1.00048e-05
1.00038e-05
1.0004e-05
1.00041e-05
1.00042e-05
1.00045e-05
1.00049e-05
1.00053e-05
1.00056e-05
1.00057e-05
1.00057e-05
1.00057e-05
1.00057e-05
1.00055e-05
1.00046e-05
1.00043e-05
1.00044e-05
1.00045e-05
1.00057e-05
1.00051e-05
1.00069e-05
1.00048e-05
1.00081e-05
1.00042e-05
1.00102e-05
1.00029e-05
1.00128e-05
9.99906e-06
1.00148e-05
9.98891e-06
1.00392e-05
1.01208e-05
1.07554e-05
1.19937e-05
1.78244e-05
2.81682e-05
4.85542e-05
5.62492e-05
0.000244799
0.000403568
0.000285919
9.99856e-06
0.37779
0.979675
0.985538
0.985331
0.985379
0.984558
0.983449
0.982807
0.982468
0.982364
0.982593
0.982452
0.982067
0.981674
0.981091
0.980719
0.980203
0.979854
0.979903
0.980697
0.981558
0.983038
0.985029
0.986562
0.986703
0.989064
0.993144
0.995744
0.997596
0.998859
0.999418
0.999481
0.999388
0.999181
0.998986
0.998869
0.998725
4.25087e-06
4.28617e-06
4.71853e-06
5.22103e-06
6.62717e-06
7.78847e-06
8.79708e-06
9.07004e-06
9.14602e-06
9.39008e-06
9.67315e-06
9.92948e-06
9.98229e-06
1.00068e-05
1.00039e-05
1.00063e-05
1.00039e-05
1.00044e-05
1.00035e-05
1.00038e-05
1.00038e-05
1.0004e-05
1.00042e-05
1.00046e-05
1.0005e-05
1.00053e-05
1.00054e-05
1.00055e-05
1.00055e-05
1.00055e-05
1.00053e-05
1.00044e-05
1.00041e-05
1.00042e-05
1.00043e-05
1.00053e-05
1.00048e-05
1.00066e-05
1.00045e-05
1.00076e-05
1.00039e-05
1.00097e-05
1.00029e-05
1.00121e-05
9.99887e-06
1.00143e-05
9.98926e-06
1.00387e-05
1.0101e-05
1.06916e-05
1.20433e-05
1.83742e-05
3.04613e-05
5.29251e-05
8.167e-05
0.000150813
0.000338298
0.00039386
9.99856e-06
0.485742
0.972288
0.979043
0.980077
0.980606
0.980073
0.979059
0.978199
0.977402
0.977045
0.97688
0.976647
0.975934
0.97522
0.974551
0.973466
0.972264
0.970867
0.969273
0.967571
0.96568
0.963242
0.959785
0.956122
0.952602
0.948322
0.943227
0.937931
0.932567
0.927146
0.920931
0.913578
0.904232
0.890658
0.867965
0.817083
0.622198
4.12778e-06
3.57663e-06
3.74059e-06
4.2176e-06
5.41418e-06
7.36319e-06
8.757e-06
9.14395e-06
9.16426e-06
9.42378e-06
9.71095e-06
9.92917e-06
9.98091e-06
1.0008e-05
1.00048e-05
1.00077e-05
1.00054e-05
1.00056e-05
1.00048e-05
1.00051e-05
1.00051e-05
1.00052e-05
1.00052e-05
1.00054e-05
1.00056e-05
1.00059e-05
1.00061e-05
1.00063e-05
1.00064e-05
1.00063e-05
1.0006e-05
1.00051e-05
1.00049e-05
1.00051e-05
1.00054e-05
1.00061e-05
1.00058e-05
1.00072e-05
1.00054e-05
1.00082e-05
1.00051e-05
1.00103e-05
1.00052e-05
1.00121e-05
1.00009e-05
1.00144e-05
9.99151e-06
1.00367e-05
1.00771e-05
1.06132e-05
1.16977e-05
1.77192e-05
2.87086e-05
5.27312e-05
8.47482e-05
0.000191697
0.000268655
0.000285276
9.99856e-06
0.408746
0.984971
0.991912
0.993635
0.995012
0.995862
0.996478
0.996908
0.997271
0.997527
0.997698
0.997769
0.997789
0.997767
0.997796
0.997887
0.997873
0.997678
0.997646
0.997558
0.996805
0.996448
0.996211
0.995601
0.995229
0.994646
0.993925
0.993298
0.992273
0.991121
0.989792
0.988281
0.986833
0.985783
0.985404
0.987056
0.988388
4.17373e-06
3.48623e-06
3.36057e-06
3.64034e-06
4.3311e-06
6.97287e-06
8.69567e-06
9.28135e-06
9.26097e-06
9.50143e-06
9.76125e-06
9.94485e-06
9.98897e-06
1.00088e-05
1.00058e-05
1.00086e-05
1.00065e-05
1.00065e-05
1.00059e-05
1.0006e-05
1.0006e-05
1.00062e-05
1.00062e-05
1.00063e-05
1.00063e-05
1.00066e-05
1.00068e-05
1.0007e-05
1.00072e-05
1.00072e-05
1.00069e-05
1.00062e-05
1.0006e-05
1.00063e-05
1.00067e-05
1.00074e-05
1.00071e-05
1.00082e-05
1.00065e-05
1.00091e-05
1.00063e-05
1.00111e-05
1.00068e-05
1.00119e-05
1.0002e-05
1.00144e-05
9.99282e-06
1.0034e-05
1.00521e-05
1.05532e-05
1.13771e-05
1.65052e-05
2.82046e-05
4.92495e-05
9.95983e-05
0.000221041
0.000259277
0.000184352
9.99856e-06
0.26176
0.993289
0.999138
0.999452
0.999645
0.999731
0.999783
0.999809
0.999827
0.999841
0.999843
0.999843
0.999853
0.999865
0.999887
0.999906
0.999909
0.9999
0.999872
0.999849
0.999847
0.999875
0.999893
0.999908
0.999931
0.999955
0.999971
0.99998
0.999982
0.999973
0.999969
0.99996
0.999953
0.999948
0.999949
0.999979
0.999996
4.04752e-06
3.55743e-06
3.29634e-06
3.49013e-06
3.9856e-06
6.63018e-06
8.53598e-06
9.38936e-06
9.37038e-06
9.59031e-06
9.80569e-06
9.95851e-06
9.99432e-06
1.00088e-05
1.0004e-05
1.00086e-05
1.00051e-05
1.00065e-05
1.00052e-05
1.0006e-05
1.00058e-05
1.00061e-05
1.00061e-05
1.00062e-05
1.00062e-05
1.00063e-05
1.00065e-05
1.00067e-05
1.00071e-05
1.00072e-05
1.00069e-05
1.00063e-05
1.00061e-05
1.00065e-05
1.0007e-05
1.00078e-05
1.00074e-05
1.00084e-05
1.00068e-05
1.00095e-05
1.00067e-05
1.00119e-05
1.00079e-05
1.00123e-05
1.00032e-05
1.00147e-05
9.99376e-06
1.00333e-05
1.00398e-05
1.05081e-05
1.11599e-05
1.53152e-05
2.77098e-05
4.54427e-05
6.90768e-05
0.000187861
0.000365227
0.000407916
0.000139175
0.107008
0.939626
1
0.999978
0.999996
0.999997
0.999999
0.999999
0.999999
0.999999
0.999999
0.999999
0.999999
0.999999
0.999999
0.999998
0.999999
1
1
1
0.999999
0.999999
0.999999
0.999999
0.999999
0.999999
0.999999
0.999999
1
1
1
1
1
1
1
1
1
2.31351e-06
3.18744e-06
3.33837e-06
3.79008e-06
4.16611e-06
6.33866e-06
8.25424e-06
9.44476e-06
9.44199e-06
9.67706e-06
9.85315e-06
9.98294e-06
9.99927e-06
1.00088e-05
1.00032e-05
1.00086e-05
1.00046e-05
1.00065e-05
1.00048e-05
1.00059e-05
1.00055e-05
1.00059e-05
1.00058e-05
1.00058e-05
1.00057e-05
1.00059e-05
1.0006e-05
1.0006e-05
1.00061e-05
1.00062e-05
1.00062e-05
1.00059e-05
1.00058e-05
1.00063e-05
1.00068e-05
1.00078e-05
1.00068e-05
1.00084e-05
1.0006e-05
1.00095e-05
1.00057e-05
1.00119e-05
1.00063e-05
1.00123e-05
1.00028e-05
1.00139e-05
9.99361e-06
1.0031e-05
1.00264e-05
1.04185e-05
1.10155e-05
1.47389e-05
2.77575e-05
4.31954e-05
7.46493e-05
0.000160546
0.000254462
0.000731606
0.000414259
0.0518836
0.912748
1
0.999999
1
0.999999
0.999999
0.999999
0.999999
0.999999
0.999999
0.999999
0.999999
0.999999
0.999999
0.999999
0.999999
0.999999
1
1
1
1
1
1
1
1
1
1
1
1
1
1
1
1
1
1
1
2.32925e-06
3.5854e-06
3.28724e-06
3.12507e-06
3.08531e-06
4.59527e-06
7.28866e-06
9.46712e-06
9.60872e-06
9.82147e-06
9.9331e-06
1.00025e-05
1.00025e-05
1.00073e-05
1.0004e-05
1.00071e-05
1.00046e-05
1.00064e-05
1.0005e-05
1.0006e-05
1.00056e-05
1.00059e-05
1.00059e-05
1.00059e-05
1.00059e-05
1.00059e-05
1.0006e-05
1.00059e-05
1.00058e-05
1.00058e-05
1.00059e-05
1.00059e-05
1.00059e-05
1.00063e-05
1.00062e-05
1.00063e-05
1.00058e-05
1.00062e-05
1.0005e-05
1.00068e-05
1.00047e-05
1.00089e-05
1.00044e-05
1.001e-05
1.00027e-05
1.00099e-05
9.99452e-06
1.00253e-05
1.00102e-05
1.02602e-05
1.09416e-05
1.58921e-05
3.11024e-05
4.7228e-05
6.75141e-05
0.000149007
0.000205454
0.000839289
0.000860763
0.0347681
0.925929
1
0.999999
0.999999
0.999999
0.999999
0.999999
0.999999
0.999999
0.999999
0.999999
0.999999
0.999999
0.999999
0.999999
0.999999
1
1
1
1
1
1
1
1
1
1
1
1
1
1
1
1
1
1
1
1
2.88166e-06
3.28131e-06
2.81399e-06
2.86286e-06
2.45048e-06
2.71493e-06
5.08001e-06
9.01787e-06
9.77463e-06
9.94331e-06
9.98831e-06
1.00073e-05
1.00034e-05
1.00058e-05
1.00039e-05
1.00048e-05
1.00028e-05
1.00034e-05
1.00028e-05
1.00032e-05
1.0003e-05
1.00031e-05
1.0003e-05
1.00031e-05
1.00031e-05
1.00031e-05
1.00031e-05
1.00031e-05
1.00031e-05
1.0003e-05
1.00027e-05
1.00025e-05
1.00024e-05
1.00025e-05
1.00023e-05
1.00025e-05
1.00021e-05
1.00026e-05
1.00017e-05
1.00027e-05
1.0001e-05
1.00035e-05
1.00007e-05
1.00044e-05
9.99978e-06
1.00049e-05
9.99452e-06
1.00147e-05
1.0001e-05
1.01099e-05
1.11461e-05
1.74814e-05
3.33853e-05
4.79669e-05
5.59033e-05
0.000108227
0.000283114
0.000886948
0.00121666
0.0376057
0.936766
1
0.999999
0.999999
0.999999
0.999999
0.999999
0.999999
0.999999
0.999999
0.999999
0.999999
0.999999
0.999999
1
1
1
1
1
1
1
1
1
1
1
1
1
1
1
1
1
1
1
1
1
1
2.93319e-06
4.10579e-06
3.01121e-06
3.26561e-06
2.36558e-06
2.03086e-06
2.8393e-06
7.51466e-06
9.81244e-06
1.00049e-05
1.00004e-05
1.00068e-05
1.00019e-05
1.00049e-05
1.00024e-05
1.00031e-05
1.00007e-05
1.00007e-05
1.00002e-05