/*--------------------------------*- C++ -*----------------------------------*\
| =========                 |                                                 |
| \\      /  F ield         | OpenFOAM: The Open Source CFD Toolbox           |
|  \\    /   O peration     | Version:  2.3.0                                 |
|   \\  /    A nd           | Web:      www.OpenFOAM.org                      |
|    \\/     M anipulation  |                                                 |
\*---------------------------------------------------------------------------*/
FoamFile
{
    version     2.0;
    format      ascii;
    class       volScalarField;
    location    "18";
    object      alpha.airMean;
}
// * * * * * * * * * * * * * * * * * * * * * * * * * * * * * * * * * * * * * //

dimensions      [0 0 0 0 0 0 0];

internalField   nonuniform List<scalar> 
6144
(
0.999991
0.999991
0.999991
0.999991
0.99999
0.99999
0.99999
0.99999
0.99999
0.99999
0.99999
0.99999
0.99999
0.99999
0.99999
0.99999
0.99999
0.99999
0.99999
0.99999
0.99999
0.99999
0.99999
0.99999
0.99999
0.99999
0.99999
0.99999
0.99999
0.99999
0.99999
0.99999
0.99999
0.99999
0.99999
0.99999
0.99999
0.99999
0.99999
0.99999
0.99999
0.99999
0.99999
0.99999
0.99999
0.99999
0.999989
0.999984
0.999977
0.999971
0.999966
0.999962
0.999958
0.999953
0.999949
0.99994
0.999935
0.999925
0.998768
0.934407
0.03285
0.000194469
1.24913e-06
1.0889e-06
1.08156e-06
1.06257e-06
1.06e-06
1.04543e-06
1.04478e-06
1.03488e-06
1.03202e-06
1.02374e-06
1.01613e-06
1.00732e-06
1.00004e-06
9.89297e-07
9.80862e-07
9.73935e-07
9.65197e-07
9.54214e-07
9.42695e-07
9.29286e-07
9.15085e-07
9.01135e-07
8.86104e-07
8.71198e-07
8.57528e-07
8.40627e-07
8.12491e-07
7.64656e-07
7.06446e-07
6.57802e-07
5.99307e-07
5.50977e-07
5.12282e-07
4.9185e-07
0.999991
0.999991
0.999991
0.999991
0.99999
0.99999
0.99999
0.99999
0.99999
0.99999
0.99999
0.99999
0.99999
0.99999
0.99999
0.99999
0.99999
0.99999
0.99999
0.99999
0.99999
0.99999
0.99999
0.99999
0.99999
0.99999
0.99999
0.99999
0.99999
0.99999
0.99999
0.99999
0.99999
0.99999
0.99999
0.99999
0.99999
0.99999
0.99999
0.99999
0.99999
0.99999
0.99999
0.99999
0.99999
0.99999
0.999988
0.999984
0.999979
0.999974
0.999969
0.999962
0.999956
0.999948
0.999941
0.99993
0.999926
0.999915
0.999428
0.946641
0.0275476
0.000106978
1.14383e-06
1.13581e-06
1.11405e-06
1.09819e-06
1.09578e-06
1.089e-06
1.08929e-06
1.07026e-06
1.06369e-06
1.0465e-06
1.03648e-06
1.0263e-06
1.01673e-06
1.00201e-06
9.92528e-07
9.84529e-07
9.73576e-07
9.59937e-07
9.45208e-07
9.28699e-07
9.11466e-07
8.94241e-07
8.76975e-07
8.62117e-07
8.50943e-07
8.40354e-07
8.24192e-07
7.92829e-07
7.44236e-07
6.79549e-07
6.11623e-07
5.64027e-07
5.30384e-07
5.00607e-07
0.999992
0.999992
0.999991
0.999991
0.999991
0.99999
0.99999
0.99999
0.99999
0.99999
0.99999
0.99999
0.99999
0.99999
0.99999
0.99999
0.99999
0.99999
0.99999
0.99999
0.99999
0.99999
0.99999
0.99999
0.99999
0.99999
0.99999
0.99999
0.99999
0.99999
0.99999
0.99999
0.99999
0.99999
0.99999
0.99999
0.99999
0.99999
0.99999
0.99999
0.99999
0.99999
0.99999
0.99999
0.99999
0.99999
0.999988
0.999985
0.99998
0.999975
0.999967
0.999957
0.999948
0.999937
0.999929
0.999917
0.999915
0.999907
0.999607
0.933917
0.0240175
7.04505e-05
2.81317e-06
2.83658e-06
2.78424e-06
2.66907e-06
2.30399e-06
1.904e-06
1.52687e-06
1.25812e-06
1.13747e-06
1.08207e-06
1.06343e-06
1.04849e-06
1.03899e-06
1.01832e-06
1.00652e-06
9.93977e-07
9.81813e-07
9.69565e-07
9.5499e-07
9.36143e-07
9.18152e-07
8.96158e-07
8.76824e-07
8.61697e-07
8.49239e-07
8.37528e-07
8.21033e-07
7.95143e-07
7.53056e-07
6.93899e-07
6.20876e-07
5.6821e-07
5.44647e-07
5.04936e-07
0.999992
0.999992
0.999991
0.999991
0.999991
0.999991
0.99999
0.99999
0.99999
0.99999
0.99999
0.99999
0.99999
0.99999
0.99999
0.99999
0.99999
0.99999
0.99999
0.99999
0.99999
0.99999
0.99999
0.99999
0.99999
0.99999
0.99999
0.99999
0.99999
0.99999
0.99999
0.99999
0.99999
0.99999
0.99999
0.99999
0.99999
0.99999
0.99999
0.99999
0.99999
0.99999
0.99999
0.99999
0.99999
0.99999
0.999988
0.999986
0.999981
0.999973
0.999962
0.999949
0.999939
0.999925
0.999916
0.999905
0.999906
0.999897
0.99968
0.910054
0.0235167
9.72998e-05
5.22081e-05
5.07364e-05
5.03438e-05
4.82765e-05
4.30683e-05
3.48986e-05
2.53319e-05
1.63631e-05
9.60082e-06
5.25713e-06
2.99044e-06
2.00627e-06
1.62543e-06
1.40883e-06
1.2455e-06
1.12221e-06
1.03917e-06
9.92861e-07
9.75338e-07
9.55334e-07
9.34707e-07
9.01116e-07
8.83169e-07
8.71938e-07
8.61585e-07
8.47703e-07
8.27815e-07
7.93986e-07
7.51678e-07
6.94915e-07
6.30149e-07
5.79067e-07
5.53917e-07
5.04968e-07
0.999992
0.999992
0.999992
0.999992
0.999991
0.999991
0.999991
0.99999
0.99999
0.99999
0.99999
0.99999
0.99999
0.99999
0.99999
0.99999
0.99999
0.99999
0.99999
0.99999
0.99999
0.99999
0.99999
0.99999
0.99999
0.99999
0.99999
0.99999
0.99999
0.99999
0.99999
0.99999
0.99999
0.99999
0.99999
0.99999
0.99999
0.99999
0.99999
0.99999
0.99999
0.99999
0.99999
0.99999
0.99999
0.99999
0.999989
0.999986
0.999981
0.99997
0.999956
0.999942
0.99993
0.999916
0.999907
0.999899
0.999901
0.999893
0.999727
0.883989
0.0260859
0.000622902
0.000602443
0.000575397
0.000573831
0.000543082
0.000490665
0.00042235
0.000351348
0.000280683
0.000216941
0.000163869
0.000122602
9.35483e-05
7.49663e-05
6.20748e-05
5.15261e-05
4.16288e-05
3.24757e-05
2.43344e-05
1.80216e-05
1.28937e-05
8.74187e-06
4.92912e-06
2.92941e-06
2.01262e-06
1.53897e-06
1.22605e-06
1.01171e-06
8.86628e-07
8.06542e-07
7.20545e-07
6.56916e-07
5.9597e-07
5.7496e-07
5.09295e-07
0.999992
0.999992
0.999992
0.999992
0.999991
0.999991
0.999991
0.999991
0.99999
0.99999
0.99999
0.99999
0.99999
0.99999
0.99999
0.99999
0.99999
0.99999
0.99999
0.99999
0.99999
0.99999
0.99999
0.99999
0.99999
0.99999
0.99999
0.99999
0.99999
0.99999
0.99999
0.99999
0.99999
0.99999
0.99999
0.99999
0.99999
0.99999
0.99999
0.99999
0.99999
0.99999
0.99999
0.99999
0.99999
0.999989
0.999989
0.999987
0.999979
0.999966
0.99995
0.999934
0.999924
0.999912
0.999905
0.999902
0.999907
0.999898
0.999798
0.851611
0.0223705
0.00265725
0.00281939
0.0027805
0.00280653
0.00267232
0.00250201
0.00231107
0.00212473
0.00194974
0.00178007
0.00162247
0.00147532
0.00133635
0.00120941
0.00109529
0.000990765
0.000889695
0.000782785
0.000666172
0.000534988
0.000400597
0.000273257
0.000165751
9.94858e-05
7.27129e-05
6.23921e-05
5.4714e-05
4.36914e-05
3.30866e-05
2.22019e-05
1.36593e-05
7.5664e-06
3.63157e-06
1.43173e-06
7.08961e-07
0.999992
0.999992
0.999992
0.999992
0.999992
0.999991
0.999991
0.999991
0.99999
0.99999
0.99999
0.99999
0.99999
0.99999
0.99999
0.99999
0.99999
0.99999
0.99999
0.99999
0.99999
0.99999
0.99999
0.99999
0.99999
0.99999
0.99999
0.99999
0.99999
0.99999
0.99999
0.99999
0.99999
0.99999
0.99999
0.99999
0.99999
0.99999
0.99999
0.99999
0.99999
0.99999
0.99999
0.99999
0.99999
0.999989
0.999989
0.999987
0.999977
0.999961
0.999944
0.99993
0.999921
0.999915
0.999912
0.999908
0.999911
0.999905
0.999813
0.831557
0.0265508
0.00594248
0.00632438
0.00626343
0.00619094
0.00599065
0.00579381
0.00563287
0.00549859
0.00534104
0.00518863
0.00499128
0.0048104
0.00460332
0.00439298
0.00415691
0.00392611
0.00367043
0.00339415
0.00305979
0.00269272
0.00228457
0.00186155
0.00147
0.00115921
0.000921558
0.000784186
0.000706509
0.000635547
0.000568268
0.000498585
0.000426972
0.000334149
0.000221072
0.000131477
7.32862e-05
0.999992
0.999992
0.999992
0.999992
0.999992
0.999992
0.999991
0.999991
0.999991
0.99999
0.99999
0.99999
0.99999
0.99999
0.99999
0.99999
0.99999
0.99999
0.99999
0.99999
0.99999
0.99999
0.99999
0.99999
0.99999
0.99999
0.99999
0.99999
0.99999
0.99999
0.99999
0.99999
0.99999
0.99999
0.99999
0.99999
0.99999
0.99999
0.99999
0.99999
0.99999
0.99999
0.99999
0.99999
0.99999
0.99999
0.999989
0.999985
0.999971
0.999953
0.999937
0.999928
0.999922
0.999921
0.999922
0.999921
0.999922
0.999906
0.999776
0.808304
0.0300356
0.009294
0.00987042
0.00982466
0.00971363
0.00957465
0.00951372
0.00954866
0.00960302
0.00964596
0.00968877
0.00969517
0.00967646
0.00961149
0.0095233
0.009405
0.0092714
0.00915508
0.00903453
0.00894565
0.00890518
0.00890695
0.00891707
0.00893776
0.00901472
0.00913938
0.00928167
0.00942251
0.00955591
0.00967901
0.00973756
0.00970294
0.00944403
0.00893538
0.00780897
0.00641815
0.999993
0.999992
0.999992
0.999992
0.999992
0.999992
0.999991
0.999991
0.999991
0.99999
0.99999
0.99999
0.99999
0.99999
0.99999
0.99999
0.99999
0.99999
0.99999
0.99999
0.99999
0.99999
0.99999
0.99999
0.99999
0.99999
0.99999
0.99999
0.99999
0.99999
0.99999
0.99999
0.99999
0.99999
0.99999
0.99999
0.99999
0.99999
0.99999
0.99999
0.99999
0.99999
0.99999
0.99999
0.99999
0.999989
0.999987
0.999981
0.999969
0.999953
0.99994
0.999931
0.999925
0.999925
0.999924
0.999923
0.999926
0.999915
0.999808
0.863662
0.0269707
0.00500555
0.00485788
0.00430064
0.0040364
0.00383988
0.00374405
0.00367278
0.00365156
0.00365881
0.00370917
0.00375744
0.00380787
0.00384653
0.00389249
0.00393297
0.00397835
0.00402003
0.00406172
0.00408854
0.00410947
0.00411394
0.00411776
0.00410901
0.0041047
0.00411935
0.00416164
0.00422737
0.00425722
0.0042091
0.00405702
0.00376055
0.00327974
0.00254557
0.00156933
0.000769596
0.999993
0.999992
0.999992
0.999992
0.999992
0.999992
0.999991
0.999991
0.999991
0.99999
0.99999
0.99999
0.99999
0.99999
0.99999
0.99999
0.99999
0.99999
0.99999
0.99999
0.99999
0.99999
0.99999
0.99999
0.99999
0.99999
0.99999
0.99999
0.99999
0.99999
0.99999
0.99999
0.99999
0.99999
0.99999
0.99999
0.99999
0.99999
0.99999
0.99999
0.99999
0.99999
0.99999
0.99999
0.999989
0.999987
0.999985
0.99998
0.999971
0.999958
0.999945
0.999936
0.99993
0.999927
0.999927
0.999926
0.999928
0.999921
0.999878
0.91732
0.0235957
0.00115186
0.000950933
0.000691288
0.000599684
0.00052954
0.000499106
0.000477607
0.000474089
0.000479372
0.000494506
0.000508647
0.000523741
0.000538534
0.000557104
0.000576599
0.000594731
0.000609341
0.000630035
0.000656802
0.000692939
0.000744437
0.000814662
0.000898291
0.000987832
0.00107577
0.0011473
0.00118308
0.00117812
0.00110628
0.000962908
0.000749955
0.000511082
0.000282555
0.000117713
4.70717e-05
0.999994
0.999993
0.999992
0.999992
0.999992
0.999991
0.999991
0.999991
0.999991
0.99999
0.99999
0.99999
0.99999
0.99999
0.99999
0.99999
0.99999
0.99999
0.99999
0.99999
0.99999
0.99999
0.99999
0.99999
0.99999
0.99999
0.99999
0.99999
0.99999
0.99999
0.99999
0.99999
0.99999
0.99999
0.99999
0.99999
0.99999
0.99999
0.99999
0.99999
0.99999
0.99999
0.99999
0.99999
0.999989
0.999987
0.999985
0.99998
0.999973
0.999963
0.999953
0.999944
0.999937
0.999932
0.99993
0.999928
0.999931
0.999921
0.999876
0.948787
0.0256524
0.000146597
5.86099e-05
3.48375e-05
2.65078e-05
2.11773e-05
2.02097e-05
2.03938e-05
2.18892e-05
2.38774e-05
2.60863e-05
2.79012e-05
2.94374e-05
3.05462e-05
3.13396e-05
3.17437e-05
3.17394e-05
3.17947e-05
3.33501e-05
3.62425e-05
4.09283e-05
4.72529e-05
5.47441e-05
6.23829e-05
6.88845e-05
7.37661e-05
7.68666e-05
7.78419e-05
7.45552e-05
6.5268e-05
5.09954e-05
3.17585e-05
1.62691e-05
6.54761e-06
2.37561e-06
1.20749e-06
0.999995
0.999993
0.999993
0.999992
0.999992
0.999991
0.999991
0.999991
0.999991
0.99999
0.99999
0.99999
0.99999
0.99999
0.99999
0.99999
0.99999
0.99999
0.99999
0.99999
0.99999
0.99999
0.99999
0.99999
0.99999
0.99999
0.99999
0.99999
0.99999
0.99999
0.99999
0.99999
0.99999
0.99999
0.99999
0.99999
0.99999
0.99999
0.99999
0.99999
0.99999
0.99999
0.99999
0.99999
0.999989
0.999988
0.999986
0.999982
0.999976
0.999967
0.999959
0.999951
0.999945
0.999937
0.999934
0.999931
0.999932
0.999921
0.999816
0.966331
0.0359533
0.00012317
1.67866e-06
1.34172e-06
1.23877e-06
1.20244e-06
1.17858e-06
1.15108e-06
1.1423e-06
1.14311e-06
1.15757e-06
1.14675e-06
1.1332e-06
1.12103e-06
1.10827e-06
1.08835e-06
1.05486e-06
1.01744e-06
1.00648e-06
1.00318e-06
1.01805e-06
1.06728e-06
1.13555e-06
1.20247e-06
1.25372e-06
1.27696e-06
1.24774e-06
1.17616e-06
1.1224e-06
1.04363e-06
9.19101e-07
7.84273e-07
6.76148e-07
6.23663e-07
5.88792e-07
5.21698e-07
0.999995
0.999994
0.999994
0.999993
0.999993
0.999992
0.999991
0.999991
0.999991
0.99999
0.99999
0.99999
0.99999
0.99999
0.99999
0.99999
0.99999
0.99999
0.99999
0.99999
0.99999
0.99999
0.99999
0.99999
0.99999
0.99999
0.99999
0.99999
0.99999
0.99999
0.99999
0.99999
0.99999
0.99999
0.99999
0.99999
0.99999
0.99999
0.99999
0.99999
0.99999
0.99999
0.99999
0.99999
0.99999
0.999989
0.999987
0.999983
0.999977
0.99997
0.999962
0.999955
0.99995
0.999943
0.999939
0.999935
0.999934
0.99992
0.99974
0.972067
0.0505328
0.000224436
1.27297e-06
1.14208e-06
1.12611e-06
1.11696e-06
1.10968e-06
1.09578e-06
1.08279e-06
1.06894e-06
1.06251e-06
1.05595e-06
1.05226e-06
1.04254e-06
1.0273e-06
1.01317e-06
1.00442e-06
9.95859e-07
9.83663e-07
9.71748e-07
9.61172e-07
9.50404e-07
9.40801e-07
9.31177e-07
9.18525e-07
8.96556e-07
8.65755e-07
8.24876e-07
7.73341e-07
7.21846e-07
6.88889e-07
6.50421e-07
5.97166e-07
5.67201e-07
5.34498e-07
4.74796e-07
0.999996
0.999995
0.999994
0.999994
0.999993
0.999993
0.999992
0.999991
0.999991
0.99999
0.99999
0.99999
0.99999
0.99999
0.99999
0.99999
0.99999
0.99999
0.99999
0.99999
0.99999
0.99999
0.99999
0.99999
0.99999
0.99999
0.99999
0.99999
0.99999
0.99999
0.99999
0.99999
0.99999
0.99999
0.99999
0.99999
0.99999
0.99999
0.99999
0.99999
0.99999
0.99999
0.99999
0.99999
0.99999
0.999989
0.999988
0.999984
0.999978
0.999972
0.999966
0.999958
0.999953
0.999947
0.999942
0.999937
0.999935
0.999913
0.999708
0.96993
0.0596525
0.000345282
1.45021e-06
1.12891e-06
1.11295e-06
1.10162e-06
1.0987e-06
1.08741e-06
1.07945e-06
1.06651e-06
1.05991e-06
1.04819e-06
1.04038e-06
1.03058e-06
1.02022e-06
1.00866e-06
9.97897e-07
9.88541e-07
9.79004e-07
9.69462e-07
9.58811e-07
9.4938e-07
9.40337e-07
9.31066e-07
9.20463e-07
9.01751e-07
8.69602e-07
8.24515e-07
7.65302e-07
6.98584e-07
6.46356e-07
6.21596e-07
5.86848e-07
5.61001e-07
5.29754e-07
4.64397e-07
0.999996
0.999995
0.999995
0.999994
0.999994
0.999993
0.999993
0.999992
0.999991
0.999991
0.99999
0.99999
0.99999
0.99999
0.99999
0.99999
0.99999
0.99999
0.99999
0.99999
0.99999
0.99999
0.99999
0.99999
0.99999
0.99999
0.99999
0.99999
0.99999
0.99999
0.99999
0.99999
0.99999
0.99999
0.99999
0.99999
0.99999
0.99999
0.99999
0.99999
0.99999
0.99999
0.99999
0.99999
0.99999
0.99999
0.999988
0.999985
0.999979
0.999974
0.999968
0.999962
0.999956
0.999952
0.999946
0.999941
0.999934
0.999915
0.999722
0.964569
0.0542886
0.000232866
1.22678e-06
1.12361e-06
1.11106e-06
1.09482e-06
1.08632e-06
1.07354e-06
1.06728e-06
1.05413e-06
1.04931e-06
1.03968e-06
1.0307e-06
1.02112e-06
1.0113e-06
1.00103e-06
9.90699e-07
9.82638e-07
9.73839e-07
9.65131e-07
9.5657e-07
9.47586e-07
9.38439e-07
9.30384e-07
9.21715e-07
9.09016e-07
8.8542e-07
8.43258e-07
7.81384e-07
7.05317e-07
6.41918e-07
6.05781e-07
5.7335e-07
5.4447e-07
5.1219e-07
4.56368e-07
0.999997
0.999996
0.999996
0.999995
0.999995
0.999994
0.999993
0.999992
0.999991
0.999991
0.99999
0.99999
0.99999
0.99999
0.99999
0.99999
0.99999
0.99999
0.99999
0.99999
0.99999
0.99999
0.99999
0.99999
0.99999
0.99999
0.99999
0.99999
0.99999
0.99999
0.99999
0.99999
0.99999
0.99999
0.99999
0.99999
0.99999
0.99999
0.99999
0.99999
0.99999
0.99999
0.99999
0.99999
0.99999
0.99999
0.999988
0.999985
0.999979
0.999972
0.999968
0.999963
0.999959
0.999956
0.999949
0.999939
0.999934
0.999921
0.999489
0.959313
0.05822
0.000440455
1.66677e-06
1.12469e-06
1.11484e-06
1.09735e-06
1.08709e-06
1.0719e-06
1.06748e-06
1.05493e-06
1.0474e-06
1.03701e-06
1.02753e-06
1.01845e-06
1.00914e-06
9.99778e-07
9.91173e-07
9.82648e-07
9.73666e-07
9.65378e-07
9.56744e-07
9.47666e-07
9.39616e-07
9.31854e-07
9.23687e-07
9.16205e-07
9.01145e-07
8.67564e-07
8.13067e-07
7.41746e-07
6.58634e-07
5.91858e-07
5.5368e-07
5.1465e-07
4.80708e-07
4.39482e-07
0.999991
0.999991
0.999991
0.999991
0.99999
0.99999
0.99999
0.99999
0.99999
0.99999
0.99999
0.99999
0.99999
0.99999
0.99999
0.99999
0.99999
0.99999
0.99999
0.99999
0.99999
0.99999
0.99999
0.99999
0.99999
0.99999
0.99999
0.99999
0.99999
0.99999
0.99999
0.99999
0.99999
0.99999
0.99999
0.99999
0.99999
0.99999
0.99999
0.99999
0.99999
0.99999
0.99999
0.99999
0.99999
0.99999
0.999989
0.999985
0.999977
0.999971
0.999967
0.999962
0.999959
0.999954
0.999951
0.999945
0.999941
0.999916
0.999227
0.944417
0.0320801
0.000111017
1.12079e-06
1.08701e-06
1.07797e-06
1.05888e-06
1.057e-06
1.04223e-06
1.04015e-06
1.02977e-06
1.0273e-06
1.01832e-06
1.01249e-06
1.00361e-06
9.95867e-07
9.86996e-07
9.78491e-07
9.70808e-07
9.62507e-07
9.52102e-07
9.41592e-07
9.26574e-07
9.08838e-07
8.88695e-07
8.71429e-07
8.6061e-07
8.52795e-07
8.43495e-07
8.27505e-07
7.96073e-07
7.45506e-07
6.82862e-07
6.15436e-07
5.60674e-07
5.25333e-07
4.98501e-07
0.999991
0.999991
0.999991
0.999991
0.999991
0.999991
0.999991
0.99999
0.99999
0.99999
0.99999
0.99999
0.99999
0.99999
0.99999
0.99999
0.99999
0.99999
0.99999
0.99999
0.99999
0.99999
0.99999
0.99999
0.99999
0.99999
0.99999
0.99999
0.99999
0.99999
0.99999
0.99999
0.99999
0.99999
0.99999
0.99999
0.99999
0.99999
0.99999
0.99999
0.99999
0.99999
0.99999
0.99999
0.99999
0.99999
0.999988
0.999985
0.999979
0.999973
0.999968
0.999961
0.999954
0.999948
0.999944
0.999939
0.999932
0.999902
0.999601
0.911627
0.0139235
1.25717e-05
1.11739e-06
1.18728e-06
1.14692e-06
1.13138e-06
1.12415e-06
1.10224e-06
1.09835e-06
1.08201e-06
1.07364e-06
1.05078e-06
1.03739e-06
1.02326e-06
1.0123e-06
1.00048e-06
9.91264e-07
9.83085e-07
9.73783e-07
9.6355e-07
9.48858e-07
9.31561e-07
9.11088e-07
8.87562e-07
8.63965e-07
8.46925e-07
8.35476e-07
8.29145e-07
8.21604e-07
8.03239e-07
7.65099e-07
7.02989e-07
6.28663e-07
5.75136e-07
5.49406e-07
5.11813e-07
0.999992
0.999991
0.999991
0.999991
0.999991
0.999991
0.999991
0.999991
0.99999
0.99999
0.99999
0.99999
0.99999
0.99999
0.99999
0.99999
0.99999
0.99999
0.99999
0.99999
0.99999
0.99999
0.99999
0.99999
0.99999
0.99999
0.99999
0.99999
0.99999
0.99999
0.99999
0.99999
0.99999
0.99999
0.99999
0.99999
0.99999
0.99999
0.99999
0.99999
0.99999
0.99999
0.99999
0.99999
0.99999
0.99999
0.999989
0.999985
0.99998
0.999974
0.999965
0.999953
0.999943
0.999936
0.999934
0.99993
0.999926
0.999895
0.999739
0.876722
0.0117255
8.52216e-06
7.96533e-06
7.41699e-06
7.08859e-06
5.75333e-06
4.56248e-06
3.22245e-06
2.31426e-06
1.68836e-06
1.37062e-06
1.19241e-06
1.11024e-06
1.08039e-06
1.07084e-06
1.0531e-06
1.0397e-06
1.02805e-06
1.02009e-06
1.01161e-06
1.0025e-06
9.85181e-07
9.57926e-07
9.1509e-07
8.74255e-07
8.49164e-07
8.31829e-07
8.18813e-07
8.06771e-07
7.89525e-07
7.5898e-07
7.07814e-07
6.35049e-07
5.80515e-07
5.59775e-07
5.22592e-07
0.999992
0.999992
0.999991
0.999991
0.999991
0.999991
0.999991
0.999991
0.999991
0.99999
0.99999
0.99999
0.99999
0.99999
0.99999
0.99999
0.99999
0.99999
0.99999
0.99999
0.99999
0.99999
0.99999
0.99999
0.99999
0.99999
0.99999
0.99999
0.99999
0.99999
0.99999
0.99999
0.99999
0.99999
0.99999
0.99999
0.99999
0.99999
0.99999
0.99999
0.99999
0.99999
0.99999
0.99999
0.99999
0.99999
0.999989
0.999986
0.999982
0.999973
0.999957
0.999942
0.99993
0.999923
0.999919
0.999906
0.99989
0.999866
0.999779
0.814966
0.00760782
0.000310709
0.000288243
0.00025682
0.00024275
0.000204044
0.000163282
0.000121924
8.61976e-05
5.73686e-05
3.68157e-05
2.29645e-05
1.45219e-05
9.6893e-06
7.22318e-06
5.8359e-06
4.99742e-06
4.38363e-06
3.79732e-06
3.18743e-06
2.64676e-06
2.15047e-06
1.73228e-06
1.3825e-06
1.12745e-06
1.01537e-06
9.5345e-07
8.97291e-07
8.63146e-07
8.13532e-07
7.71608e-07
7.21062e-07
6.65917e-07
6.11535e-07
5.74675e-07
5.18733e-07
0.999992
0.999992
0.999992
0.999992
0.999991
0.999991
0.999991
0.999991
0.999991
0.99999
0.99999
0.99999
0.99999
0.99999
0.99999
0.99999
0.99999
0.99999
0.99999
0.99999
0.99999
0.99999
0.99999
0.99999
0.99999
0.99999
0.99999
0.99999
0.99999
0.99999
0.99999
0.99999
0.99999
0.99999
0.99999
0.99999
0.99999
0.99999
0.99999
0.99999
0.99999
0.99999
0.99999
0.99999
0.99999
0.99999
0.999989
0.999987
0.999981
0.999968
0.999949
0.999933
0.999919
0.999907
0.999894
0.999875
0.999862
0.999851
0.999842
0.726254
0.0107532
0.00388621
0.00376602
0.00350458
0.00332383
0.00298705
0.00262658
0.00224919
0.00187712
0.00152604
0.00122016
0.000961309
0.000753924
0.000597498
0.000478055
0.000393161
0.000334389
0.000292347
0.000261574
0.000236448
0.000211932
0.000179198
0.000143807
0.000111534
8.01623e-05
5.62604e-05
3.82733e-05
2.46624e-05
1.49858e-05
8.30821e-06
4.44892e-06
2.26398e-06
1.25718e-06
8.38985e-07
7.21177e-07
6.22165e-07
0.999993
0.999992
0.999992
0.999992
0.999991
0.999991
0.999991
0.999991
0.999991
0.99999
0.99999
0.99999
0.99999
0.99999
0.99999
0.99999
0.99999
0.99999
0.99999
0.99999
0.99999
0.99999
0.99999
0.99999
0.99999
0.99999
0.99999
0.99999
0.99999
0.99999
0.99999
0.99999
0.99999
0.99999
0.99999
0.99999
0.99999
0.99999
0.99999
0.99999
0.99999
0.99999
0.99999
0.99999
0.99999
0.99999
0.999988
0.999986
0.999979
0.999965
0.999945
0.999928
0.999913
0.999897
0.999881
0.999872
0.999871
0.999865
0.999781
0.602729
0.0206084
0.0153787
0.0158468
0.0157671
0.0155944
0.0152412
0.0147624
0.0142086
0.0135021
0.0127234
0.0118524
0.0109415
0.0100175
0.00911968
0.0082581
0.00748603
0.00680302
0.00621563
0.00571681
0.00528637
0.00487894
0.00447861
0.00403449
0.0036327
0.00321006
0.00273393
0.00227559
0.00184165
0.00144349
0.00107349
0.000761341
0.000506213
0.000304297
0.000153868
5.89612e-05
1.89942e-05
0.999993
0.999993
0.999992
0.999992
0.999992
0.999991
0.999991
0.999991
0.999991
0.99999
0.99999
0.99999
0.99999
0.99999
0.99999
0.99999
0.99999
0.99999
0.99999
0.99999
0.99999
0.99999
0.99999
0.99999
0.99999
0.99999
0.99999
0.99999
0.99999
0.99999
0.99999
0.99999
0.99999
0.99999
0.99999
0.99999
0.99999
0.99999
0.99999
0.99999
0.99999
0.99999
0.99999
0.99999
0.99999
0.999989
0.999988
0.999984
0.999976
0.99996
0.99994
0.999923
0.999911
0.999904
0.999897
0.999891
0.999891
0.999884
0.999182
0.599954
0.032105
0.0249622
0.0262656
0.0268531
0.0272914
0.0277987
0.0282561
0.0286896
0.0290718
0.029478
0.0298635
0.0302352
0.030498
0.0306806
0.0307392
0.0307313
0.0306017
0.0303993
0.0300672
0.0296118
0.0289773
0.0281556
0.0272325
0.0262243
0.0250624
0.0238698
0.0225369
0.0211552
0.0197921
0.0183788
0.0168192
0.0150846
0.013034
0.010613
0.00784856
0.00584814
0.999993
0.999993
0.999993
0.999992
0.999992
0.999992
0.999991
0.999991
0.999991
0.99999
0.99999
0.99999
0.99999
0.99999
0.99999
0.99999
0.99999
0.99999
0.99999
0.99999
0.99999
0.99999
0.99999
0.99999
0.99999
0.99999
0.99999
0.99999
0.99999
0.99999
0.99999
0.99999
0.99999
0.99999
0.99999
0.99999
0.99999
0.99999
0.99999
0.99999
0.99999
0.99999
0.99999
0.99999
0.99999
0.999989
0.999987
0.999983
0.999969
0.99995
0.999936
0.999925
0.999921
0.99992
0.999917
0.999913
0.999909
0.999903
0.998519
0.730276
0.0332658
0.0195776
0.0204786
0.0207201
0.0212187
0.0220798
0.0232473
0.0245929
0.0261373
0.0277849
0.0295497
0.0314701
0.0334959
0.0355733
0.0377457
0.0399951
0.0423967
0.0449714
0.0476716
0.050428
0.0532174
0.0561808
0.0594821
0.0631638
0.0671949
0.0715042
0.07612
0.0812087
0.0869551
0.0936054
0.101658
0.111634
0.125002
0.146123
0.194515
0.389385
0.999993
0.999993
0.999993
0.999993
0.999992
0.999992
0.999992
0.999991
0.999991
0.99999
0.99999
0.99999
0.99999
0.99999
0.99999
0.99999
0.99999
0.99999
0.99999
0.99999
0.99999
0.99999
0.99999
0.99999
0.99999
0.99999
0.99999
0.99999
0.99999
0.99999
0.99999
0.99999
0.99999
0.99999
0.99999
0.99999
0.99999
0.99999
0.99999
0.99999
0.99999
0.99999
0.99999
0.99999
0.99999
0.999989
0.999987
0.999982
0.999972
0.999953
0.99994
0.999933
0.999927
0.999926
0.99992
0.999914
0.999911
0.999905
0.999781
0.843629
0.020626
0.0050264
0.00468567
0.00387314
0.00357314
0.00331633
0.00328585
0.00334535
0.00343775
0.00356718
0.00372137
0.003857
0.0039945
0.00414341
0.00434757
0.004597
0.00489651
0.00518256
0.0054497
0.00573763
0.00604866
0.00637217
0.00668419
0.0070615
0.00759693
0.00830033
0.00912934
0.0100025
0.0108677
0.0116936
0.0124008
0.0131365
0.0141228
0.0151183
0.0157125
0.014245
0.999994
0.999993
0.999993
0.999993
0.999993
0.999992
0.999992
0.999991
0.999991
0.999991
0.99999
0.99999
0.99999
0.99999
0.99999
0.99999
0.99999
0.99999
0.99999
0.99999
0.99999
0.99999
0.99999
0.99999
0.99999
0.99999
0.99999
0.99999
0.99999
0.99999
0.99999
0.99999
0.99999
0.99999
0.99999
0.99999
0.99999
0.99999
0.99999
0.99999
0.99999
0.99999
0.99999
0.99999
0.99999
0.999988
0.999986
0.999982
0.999976
0.999964
0.999949
0.999942
0.999936
0.99993
0.999922
0.999919
0.999916
0.999906
0.999904
0.897242
0.0126428
0.000654254
0.000553752
0.000387576
0.000332791
0.000282665
0.000277502
0.000284738
0.00030017
0.00031771
0.000338069
0.000355475
0.000369537
0.000379531
0.000385257
0.000387924
0.000389699
0.00038723
0.000386238
0.000394262
0.000415221
0.000469216
0.000545412
0.00064632
0.000761854
0.000893077
0.00104186
0.00118653
0.00134214
0.00151042
0.00166564
0.00175507
0.00171532
0.00134534
0.000806711
0.00035333
0.999995
0.999993
0.999993
0.999993
0.999993
0.999992
0.999992
0.999991
0.999991
0.999991
0.99999
0.99999
0.99999
0.99999
0.99999
0.99999
0.99999
0.99999
0.99999
0.99999
0.99999
0.99999
0.99999
0.99999
0.99999
0.99999
0.99999
0.99999
0.99999
0.99999
0.99999
0.99999
0.99999
0.99999
0.99999
0.99999
0.99999
0.99999
0.99999
0.99999
0.99999
0.99999
0.99999
0.99999
0.99999
0.999989
0.999987
0.999983
0.999977
0.999971
0.999958
0.99995
0.999945
0.99994
0.999934
0.999929
0.999922
0.999903
0.999889
0.93057
0.0145738
4.09121e-05
3.59003e-05
2.11688e-05
1.85523e-05
1.59782e-05
1.58139e-05
1.58619e-05
1.61746e-05
1.63156e-05
1.66516e-05
1.70365e-05
1.73765e-05
1.7386e-05
1.75115e-05
1.74094e-05
1.63882e-05
1.48807e-05
1.42442e-05
1.45374e-05
1.60119e-05
1.97033e-05
2.45036e-05
3.02873e-05
3.53746e-05
3.81063e-05
3.85245e-05
3.71442e-05
3.52268e-05
3.32194e-05
3.2501e-05
3.10771e-05
2.45147e-05
1.39211e-05
6.33589e-06
2.6656e-06
0.999995
0.999994
0.999994
0.999993
0.999993
0.999992
0.999992
0.999991
0.999991
0.999991
0.99999
0.99999
0.99999
0.99999
0.99999
0.99999
0.99999
0.99999
0.99999
0.99999
0.99999
0.99999
0.99999
0.99999
0.99999
0.99999
0.99999
0.99999
0.99999
0.99999
0.99999
0.99999
0.99999
0.99999
0.99999
0.99999
0.99999
0.99999
0.99999
0.99999
0.99999
0.99999
0.99999
0.99999
0.99999
0.99999
0.999988
0.999985
0.999979
0.999973
0.999965
0.999956
0.99995
0.999945
0.999941
0.999936
0.999923
0.999902
0.999843
0.950046
0.021045
1.71619e-06
2.49388e-06
1.40504e-06
1.43527e-06
1.31954e-06
1.31952e-06
1.27512e-06
1.25405e-06
1.22711e-06
1.21888e-06
1.21663e-06
1.21014e-06
1.19345e-06
1.17612e-06
1.16073e-06
1.12003e-06
1.08358e-06
1.07273e-06
1.06601e-06
1.07275e-06
1.08142e-06
1.09569e-06
1.11209e-06
1.11334e-06
1.06953e-06
9.74614e-07
8.95387e-07
8.51725e-07
8.07316e-07
7.49635e-07
6.91639e-07
6.42259e-07
6.05728e-07
5.62975e-07
5.07876e-07
0.999995
0.999994
0.999994
0.999994
0.999993
0.999993
0.999992
0.999991
0.999991
0.999991
0.99999
0.99999
0.99999
0.99999
0.99999
0.99999
0.99999
0.99999
0.99999
0.99999
0.99999
0.99999
0.99999
0.99999
0.99999
0.99999
0.99999
0.99999
0.99999
0.99999
0.99999
0.99999
0.99999
0.99999
0.99999
0.99999
0.99999
0.99999
0.99999
0.99999
0.99999
0.99999
0.99999
0.99999
0.99999
0.99999
0.999989
0.999986
0.99998
0.999975
0.999969
0.99996
0.999952
0.999945
0.99994
0.999932
0.999919
0.999904
0.999787
0.95661
0.0331697
2.21075e-05
1.18235e-06
1.14872e-06
1.1535e-06
1.13853e-06
1.13023e-06
1.1127e-06
1.10227e-06
1.0818e-06
1.07059e-06
1.05659e-06
1.04788e-06
1.03464e-06
1.0205e-06
1.00758e-06
9.99128e-07
9.87626e-07
9.749e-07
9.65276e-07
9.54989e-07
9.44417e-07
9.36079e-07
9.27691e-07
9.16074e-07
8.97068e-07
8.67514e-07
8.2658e-07
7.76541e-07
7.22326e-07
6.66811e-07
6.32379e-07
5.89127e-07
5.57742e-07
5.11133e-07
4.45068e-07
0.999996
0.999995
0.999995
0.999994
0.999994
0.999993
0.999992
0.999991
0.999991
0.999991
0.99999
0.99999
0.99999
0.99999
0.99999
0.99999
0.99999
0.99999
0.99999
0.99999
0.99999
0.99999
0.99999
0.99999
0.99999
0.99999
0.99999
0.99999
0.99999
0.99999
0.99999
0.99999
0.99999
0.99999
0.99999
0.99999
0.99999
0.99999
0.99999
0.99999
0.99999
0.99999
0.99999
0.99999
0.99999
0.99999
0.999989
0.999986
0.99998
0.999975
0.999969
0.999961
0.999951
0.999943
0.999934
0.999925
0.999911
0.999889
0.999723
0.951233
0.0342
3.04298e-05
1.16109e-06
1.13506e-06
1.11212e-06
1.09877e-06
1.09733e-06
1.08296e-06
1.07732e-06
1.06251e-06
1.05443e-06
1.04221e-06
1.03541e-06
1.02374e-06
1.01232e-06
1.0007e-06
9.90727e-07
9.80346e-07
9.70206e-07
9.61263e-07
9.5137e-07
9.41765e-07
9.34377e-07
9.26322e-07
9.1551e-07
8.9885e-07
8.69002e-07
8.27619e-07
7.74377e-07
7.0441e-07
6.39758e-07
6.01874e-07
5.78367e-07
5.58121e-07
5.24618e-07
4.46701e-07
0.999996
0.999996
0.999995
0.999995
0.999994
0.999993
0.999992
0.999992
0.999991
0.999991
0.99999
0.99999
0.99999
0.99999
0.99999
0.99999
0.99999
0.99999
0.99999
0.99999
0.99999
0.99999
0.99999
0.99999
0.99999
0.99999
0.99999
0.99999
0.99999
0.99999
0.99999
0.99999
0.99999
0.99999
0.99999
0.99999
0.99999
0.99999
0.99999
0.99999
0.99999
0.99999
0.99999
0.99999
0.99999
0.99999
0.999988
0.999986
0.99998
0.999974
0.999969
0.999963
0.999951
0.999944
0.99993
0.999917
0.999898
0.999877
0.999739
0.931779
0.0279291
5.53817e-05
1.16951e-06
1.11924e-06
1.10422e-06
1.08478e-06
1.08124e-06
1.06667e-06
1.06153e-06
1.04859e-06
1.04211e-06
1.02974e-06
1.02159e-06
1.0108e-06
1.00228e-06
9.92747e-07
9.8368e-07
9.7565e-07
9.66471e-07
9.57773e-07
9.48544e-07
9.39261e-07
9.31853e-07
9.24517e-07
9.15668e-07
9.03961e-07
8.81553e-07
8.40817e-07
7.79792e-07
7.03725e-07
6.30692e-07
5.80441e-07
5.59599e-07
5.37141e-07
5.03714e-07
4.40579e-07
0.999997
0.999996
0.999996
0.999995
0.999995
0.999994
0.999993
0.999992
0.999992
0.999991
0.99999
0.99999
0.99999
0.99999
0.99999
0.99999
0.99999
0.99999
0.99999
0.99999
0.99999
0.99999
0.99999
0.99999
0.99999
0.99999
0.99999
0.99999
0.99999
0.99999
0.99999
0.99999
0.99999
0.99999
0.99999
0.99999
0.99999
0.99999
0.99999
0.99999
0.99999
0.99999
0.99999
0.99999
0.99999
0.99999
0.999989
0.999985
0.999979
0.999972
0.999968
0.999963
0.999959
0.999952
0.999937
0.999918
0.999903
0.99987
0.999617
0.954095
0.0461931
0.000280417
1.49615e-06
1.11726e-06
1.10623e-06
1.08534e-06
1.0813e-06
1.06632e-06
1.06075e-06
1.04728e-06
1.04029e-06
1.02848e-06
1.02082e-06
1.01054e-06
1.0019e-06
9.92987e-07
9.85496e-07
9.77269e-07
9.68292e-07
9.60656e-07