/*--------------------------------*- C++ -*----------------------------------*\
| =========                 |                                                 |
| \\      /  F ield         | OpenFOAM: The Open Source CFD Toolbox           |
|  \\    /   O peration     | Version:  2.3.0                                 |
|   \\  /    A nd           | Web:      www.OpenFOAM.org                      |
|    \\/     M anipulation  |                                                 |
\*---------------------------------------------------------------------------*/
FoamFile
{
    version     2.0;
    format      ascii;
    class       volScalarField;
    location    "18";
    object      alpha.airMean;
}
// * * * * * * * * * * * * * * * * * * * * * * * * * * * * * * * * * * * * * //

dimensions      [0 0 0 0 0 0 0];

internalField   nonuniform List<scalar> 
6144
(
0.999991
0.999991
0.99999
0.99999
0.99999
0.99999
0.99999
0.99999
0.99999
0.99999
0.99999
0.99999
0.99999
0.99999
0.99999
0.99999
0.99999
0.99999
0.99999
0.99999
0.99999
0.99999
0.99999
0.99999
0.99999
0.99999
0.99999
0.99999
0.99999
0.99999
0.99999
0.99999
0.99999
0.99999
0.99999
0.99999
0.99999
0.99999
0.99999
0.99999
0.99999
0.99999
0.99999
0.99999
0.99999
0.99999
0.99999
0.99999
0.99999
0.99999
0.99999
0.999986
0.99998
0.999961
0.999944
0.9999
0.999823
0.999433
0.998618
0.937773
0.0396075
0.000242402
1.35665e-06
1.16772e-06
1.1648e-06
1.14059e-06
1.14001e-06
1.12044e-06
1.11655e-06
1.1018e-06
1.09394e-06
1.08138e-06
1.07234e-06
1.0606e-06
1.05123e-06
1.04023e-06
1.03078e-06
1.02137e-06
1.01124e-06
1.00183e-06
9.92476e-07
9.82521e-07
9.73296e-07
9.64898e-07
9.56826e-07
9.49264e-07
9.41202e-07
9.2737e-07
8.82107e-07
7.64812e-07
6.43487e-07
5.69686e-07
4.94981e-07
4.43689e-07
4.42595e-07
4.35865e-07
0.999992
0.999992
0.999991
0.99999
0.99999
0.99999
0.99999
0.99999
0.99999
0.99999
0.99999
0.99999
0.99999
0.99999
0.99999
0.99999
0.99999
0.99999
0.99999
0.99999
0.99999
0.99999
0.99999
0.99999
0.99999
0.99999
0.99999
0.99999
0.99999
0.99999
0.99999
0.99999
0.99999
0.99999
0.99999
0.99999
0.99999
0.99999
0.99999
0.99999
0.99999
0.99999
0.99999
0.99999
0.99999
0.99999
0.99999
0.99999
0.99999
0.99999
0.999989
0.999986
0.99998
0.999962
0.999947
0.999909
0.999812
0.999317
0.998514
0.948695
0.0419853
8.37078e-05
1.18785e-06
1.18474e-06
1.17062e-06
1.14511e-06
1.14284e-06
1.12316e-06
1.11661e-06
1.09992e-06
1.09242e-06
1.0802e-06
1.07166e-06
1.06122e-06
1.05151e-06
1.04082e-06
1.03003e-06
1.01986e-06
1.01025e-06
1.0017e-06
9.93313e-07
9.85711e-07
9.78535e-07
9.70268e-07
9.62023e-07
9.53612e-07
9.42799e-07
9.23064e-07
8.73484e-07
7.66621e-07
6.55903e-07
5.81826e-07
5.05139e-07
4.54566e-07
4.56113e-07
4.48141e-07
0.999992
0.999992
0.999991
0.999991
0.99999
0.99999
0.99999
0.99999
0.99999
0.99999
0.99999
0.99999
0.99999
0.99999
0.99999
0.99999
0.99999
0.99999
0.99999
0.99999
0.99999
0.99999
0.99999
0.99999
0.99999
0.99999
0.99999
0.99999
0.99999
0.99999
0.99999
0.99999
0.99999
0.99999
0.99999
0.99999
0.99999
0.99999
0.99999
0.99999
0.99999
0.99999
0.99999
0.99999
0.99999
0.99999
0.99999
0.99999
0.99999
0.99999
0.999989
0.999987
0.999981
0.999966
0.999943
0.999892
0.999864
0.999474
0.999126
0.953114
0.0485475
3.94662e-05
1.2141e-06
1.20895e-06
1.18798e-06
1.16818e-06
1.16653e-06
1.1473e-06
1.14137e-06
1.12484e-06
1.11473e-06
1.09819e-06
1.08632e-06
1.07161e-06
1.05975e-06
1.04714e-06
1.03897e-06
1.02997e-06
1.01933e-06
1.00895e-06
9.98568e-07
9.88012e-07
9.7827e-07
9.6927e-07
9.60094e-07
9.51175e-07
9.36898e-07
9.08584e-07
8.51806e-07
7.56529e-07
6.66522e-07
6.00188e-07
5.23168e-07
4.66218e-07
4.65291e-07
4.55209e-07
0.999992
0.999992
0.999992
0.999992
0.999991
0.99999
0.99999
0.99999
0.99999
0.99999
0.99999
0.99999
0.99999
0.99999
0.99999
0.99999
0.99999
0.99999
0.99999
0.99999
0.99999
0.99999
0.99999
0.99999
0.99999
0.99999
0.99999
0.99999
0.99999
0.99999
0.99999
0.99999
0.99999
0.99999
0.99999
0.99999
0.99999
0.99999
0.99999
0.99999
0.99999
0.99999
0.99999
0.99999
0.99999
0.99999
0.99999
0.99999
0.99999
0.99999
0.999989
0.999987
0.999981
0.999965
0.999931
0.999879
0.999884
0.999588
0.999593
0.942734
0.051238
2.93878e-05
1.27633e-06
1.27797e-06
1.25446e-06
1.19137e-06
1.18186e-06
1.15641e-06
1.14904e-06
1.12749e-06
1.12378e-06
1.12624e-06
1.13099e-06
1.1221e-06
1.10646e-06
1.08743e-06
1.06394e-06
1.0422e-06
1.02513e-06
1.0113e-06
9.99238e-07
9.88623e-07
9.77135e-07
9.64937e-07
9.52286e-07
9.36703e-07
9.11165e-07
8.70358e-07
8.09348e-07
7.37867e-07
6.80364e-07
6.19656e-07
5.43424e-07
4.80091e-07
4.7211e-07
4.5805e-07
0.999992
0.999992
0.999992
0.999992
0.999991
0.999991
0.99999
0.99999
0.99999
0.99999
0.99999
0.99999
0.99999
0.99999
0.99999
0.99999
0.99999
0.99999
0.99999
0.99999
0.99999
0.99999
0.99999
0.99999
0.99999
0.99999
0.99999
0.99999
0.99999
0.99999
0.99999
0.99999
0.99999
0.99999
0.99999
0.99999
0.99999
0.99999
0.99999
0.99999
0.99999
0.99999
0.99999
0.99999
0.99999
0.99999
0.99999
0.99999
0.99999
0.99999
0.999989
0.999986
0.99998
0.999967
0.99993
0.99986
0.999849
0.999694
0.999812
0.872633
0.0172408
5.99141e-05
2.01118e-05
9.40017e-06
6.66732e-06
5.0424e-06
5.05828e-06
4.56831e-06
4.40766e-06
4.12489e-06
3.97954e-06
3.76037e-06
3.50536e-06
3.14003e-06
2.75066e-06
2.37498e-06
2.00354e-06
1.66414e-06
1.40429e-06
1.20967e-06
1.08785e-06
1.01778e-06
9.68065e-07
9.28572e-07
8.94047e-07
8.61307e-07
8.32961e-07
8.01391e-07
7.65973e-07
7.29111e-07
6.87978e-07
6.35562e-07
5.62064e-07
4.94328e-07
4.77839e-07
4.59343e-07
0.999992
0.999992
0.999992
0.999992
0.999992
0.999991
0.99999
0.99999
0.99999
0.99999
0.99999
0.99999
0.99999
0.99999
0.99999
0.99999
0.99999
0.99999
0.99999
0.99999
0.99999
0.99999
0.99999
0.99999
0.99999
0.99999
0.99999
0.99999
0.99999
0.99999
0.99999
0.99999
0.99999
0.99999
0.99999
0.99999
0.99999
0.99999
0.99999
0.99999
0.99999
0.99999
0.99999
0.99999
0.99999
0.99999
0.99999
0.99999
0.99999
0.99999
0.999988
0.999986
0.99998
0.999967
0.999916
0.999852
0.999857
0.999793
0.999955
0.74465
0.00918779
0.00137274
0.00112485
0.000834198
0.000735924
0.000686397
0.000668117
0.000661531
0.000660192
0.000646414
0.000629378
0.000610694
0.000582112
0.000526641
0.000469877
0.000414343
0.000348683
0.000284645
0.000223248
0.000166824
0.000120125
8.08422e-05
5.16389e-05
3.17666e-05
1.84136e-05
9.57821e-06
4.39293e-06
2.0105e-06
1.06796e-06
6.90916e-07
5.25742e-07
4.70035e-07
4.68065e-07
4.74163e-07
4.60735e-07
4.3788e-07
0.999992
0.999992
0.999992
0.999992
0.999992
0.999991
0.999991
0.99999
0.99999
0.99999
0.99999
0.99999
0.99999
0.99999
0.99999
0.99999
0.99999
0.99999
0.99999
0.99999
0.99999
0.99999
0.99999
0.99999
0.99999
0.99999
0.99999
0.99999
0.99999
0.99999
0.99999
0.99999
0.99999
0.99999
0.99999
0.99999
0.99999
0.99999
0.99999
0.99999
0.99999
0.99999
0.99999
0.99999
0.99999
0.99999
0.99999
0.99999
0.99999
0.99999
0.999989
0.999987
0.999981
0.99997
0.999932
0.99986
0.999823
0.999803
0.99999
0.582017
0.0134354
0.00926967
0.00949432
0.00895909
0.00858202
0.0085423
0.0083761
0.00843111
0.00835151
0.00826024
0.00812365
0.00780324
0.00758408
0.00742248
0.00726278
0.00675283
0.00617038
0.00576159
0.00514526
0.00452638
0.00407758
0.0034502
0.00283831
0.00233489
0.00187737
0.00149034
0.00111288
0.000775353
0.000528838
0.000321642
0.000153091
5.24169e-05
9.22794e-06
3.64989e-06
2.76559e-06
5.25011e-06
0.999992
0.999992
0.999992
0.999992
0.999992
0.999991
0.999991
0.999991
0.999991
0.99999
0.99999
0.99999
0.99999
0.99999
0.99999
0.99999
0.99999
0.99999
0.99999
0.99999
0.99999
0.99999
0.99999
0.99999
0.99999
0.99999
0.99999
0.99999
0.99999
0.99999
0.99999
0.99999
0.99999
0.99999
0.99999
0.99999
0.99999
0.99999
0.99999
0.99999
0.99999
0.99999
0.99999
0.99999
0.99999
0.99999
0.99999
0.99999
0.99999
0.99999
0.999989
0.999987
0.999981
0.999969
0.999945
0.999874
0.999831
0.999797
0.999975
0.507482
0.0252144
0.0217878
0.0223854
0.0225375
0.0224877
0.0225615
0.0224648
0.0222842
0.022358
0.0223759
0.0222242
0.0220705
0.0218655
0.0216965
0.0215262
0.0213485
0.0211732
0.0208787
0.0205512
0.0202837
0.0200315
0.0197632
0.0194823
0.0191895
0.0188801
0.0185797
0.0181364
0.0175461
0.0169287
0.0161316
0.0153527
0.0144402
0.0132375
0.0120073
0.0100229
0.00790093
0.999992
0.999992
0.999992
0.999992
0.999992
0.999991
0.999991
0.999991
0.999991
0.99999
0.99999
0.99999
0.99999
0.99999
0.99999
0.99999
0.99999
0.99999
0.99999
0.99999
0.99999
0.99999
0.99999
0.99999
0.99999
0.99999
0.99999
0.99999
0.99999
0.99999
0.99999
0.99999
0.99999
0.99999
0.99999
0.99999
0.99999
0.99999
0.99999
0.99999
0.99999
0.99999
0.99999
0.99999
0.99999
0.99999
0.99999
0.99999
0.99999
0.99999
0.999989
0.999987
0.99998
0.999964
0.999947
0.999899
0.999863
0.999792
0.999951
0.635379
0.0174773
0.00958496
0.00906646
0.00826471
0.00767164
0.00738745
0.00698371
0.00655975
0.00627741
0.00597413
0.00573896
0.00537175
0.00505009
0.00481137
0.00462049
0.00448253
0.00436208
0.00432003
0.00438062
0.00445385
0.00437616
0.00428258
0.00420917
0.0041051
0.00399846
0.00387368
0.00372632
0.00355226
0.00332123
0.00305747
0.00273906
0.00237154
0.00192958
0.00141678
0.000859931
0.000401954
0.999993
0.999992
0.999992
0.999992
0.999992
0.999991
0.999991
0.999991
0.999991
0.99999
0.99999
0.99999
0.99999
0.99999
0.99999
0.99999
0.99999
0.99999
0.99999
0.99999
0.99999
0.99999
0.99999
0.99999
0.99999
0.99999
0.99999
0.99999
0.99999
0.99999
0.99999
0.99999
0.99999
0.99999
0.99999
0.99999
0.99999
0.99999
0.99999
0.99999
0.99999
0.99999
0.99999
0.99999
0.99999
0.99999
0.99999
0.99999
0.99999
0.99999
0.999989
0.999987
0.999979
0.999962
0.999944
0.999909
0.999889
0.999738
0.999874
0.779854
0.0114801
0.00150952
0.0011904
0.000826509
0.000644136
0.00054162
0.000460945
0.000402486
0.00036164
0.000328394
0.000305636
0.000286752
0.000279096
0.00026684
0.000251368
0.000244886
0.000244534
0.000247787
0.000254477
0.000265437
0.000270913
0.000268957
0.000270391
0.000264946
0.000249847
0.000236024
0.000215485
0.000189956
0.000157275
0.000123928
9.47561e-05
6.64563e-05
3.94769e-05
1.94405e-05
7.606e-06
2.90087e-06
0.999993
0.999993
0.999992
0.999992
0.999992
0.999991
0.999991
0.999991
0.999991
0.99999
0.99999
0.99999
0.99999
0.99999
0.99999
0.99999
0.99999
0.99999
0.99999
0.99999
0.99999
0.99999
0.99999
0.99999
0.99999
0.99999
0.99999
0.99999
0.99999
0.99999
0.99999
0.99999
0.99999
0.99999
0.99999
0.99999
0.99999
0.99999
0.99999
0.99999
0.99999
0.99999
0.99999
0.99999
0.99999
0.99999
0.99999
0.99999
0.99999
0.99999
0.999989
0.999987
0.99998
0.99996
0.999933
0.999906
0.999897
0.999627
0.999739
0.897911
0.02439
7.77414e-05
2.87078e-05
1.22099e-05
7.92882e-06
5.3888e-06
4.32315e-06
3.61851e-06
3.21676e-06
2.77748e-06
2.43312e-06
2.17652e-06
2.0232e-06
1.9082e-06
1.85538e-06
1.8546e-06
1.90591e-06
1.98692e-06
2.10386e-06
2.25611e-06
2.40251e-06
2.50384e-06
2.5397e-06
2.51272e-06
2.39035e-06
2.19368e-06
1.90911e-06
1.57172e-06
1.22265e-06
9.38491e-07
7.37018e-07
6.0848e-07
5.32685e-07
4.78474e-07
4.12509e-07
4.0112e-07
0.999994
0.999993
0.999992
0.999992
0.999992
0.999991
0.999991
0.999991
0.999991
0.99999
0.99999
0.99999
0.99999
0.99999
0.99999
0.99999
0.99999
0.99999
0.99999
0.99999
0.99999
0.99999
0.99999
0.99999
0.99999
0.99999
0.99999
0.99999
0.99999
0.99999
0.99999
0.99999
0.99999
0.99999
0.99999
0.99999
0.99999
0.99999
0.99999
0.99999
0.99999
0.99999
0.99999
0.99999
0.99999
0.99999
0.99999
0.99999
0.99999
0.99999
0.999989
0.999987
0.999981
0.999965
0.999925
0.999898
0.999889
0.999524
0.99963
0.952894
0.0498399
2.86866e-05
1.28423e-06
1.09872e-06
1.13904e-06
1.11796e-06
1.11783e-06
1.10088e-06
1.09461e-06
1.07564e-06
1.04778e-06
1.02104e-06
1.00003e-06
9.74994e-07
9.52933e-07
9.33076e-07
9.15287e-07
8.97946e-07
8.81801e-07
8.64781e-07
8.47349e-07
8.31323e-07
8.14781e-07
8.00916e-07
7.91472e-07
7.81693e-07
7.58544e-07
7.17091e-07
6.70362e-07
6.14866e-07
5.51251e-07
4.82388e-07
4.22712e-07
4.01338e-07
4.01036e-07
4.01475e-07
0.999995
0.999994
0.999993
0.999993
0.999993
0.999992
0.999992
0.999991
0.999991
0.99999
0.99999
0.99999
0.99999
0.99999
0.99999
0.99999
0.99999
0.99999
0.99999
0.99999
0.99999
0.99999
0.99999
0.99999
0.99999
0.99999
0.99999
0.99999
0.99999
0.99999
0.99999
0.99999
0.99999
0.99999
0.99999
0.99999
0.99999
0.99999
0.99999
0.99999
0.99999
0.99999
0.99999
0.99999
0.99999
0.99999
0.99999
0.99999
0.99999
0.99999
0.999989
0.999987
0.999981
0.999971
0.999942
0.999907
0.99986
0.999419
0.999467
0.967913
0.0588485
4.31105e-05
1.06321e-06
1.03244e-06
1.02503e-06
1.02198e-06
1.02026e-06
9.96907e-07
9.90234e-07
9.70259e-07
9.60004e-07
9.42535e-07
9.32542e-07
9.18903e-07
9.06653e-07
8.92976e-07
8.78249e-07
8.6289e-07
8.45401e-07
8.27934e-07
8.12266e-07
7.96372e-07
7.81074e-07
7.70122e-07
7.61547e-07
7.53084e-07
7.37652e-07
7.08724e-07
6.6921e-07
6.2042e-07
5.62253e-07
4.99894e-07
4.42515e-07
4.0848e-07
4.04284e-07
4.01782e-07
0.999996
0.999994
0.999994
0.999994
0.999993
0.999993
0.999992
0.999992
0.999991
0.999991
0.99999
0.99999
0.99999
0.99999
0.99999
0.99999
0.99999
0.99999
0.99999
0.99999
0.99999
0.99999
0.99999
0.99999
0.99999
0.99999
0.99999
0.99999
0.99999
0.99999
0.99999
0.99999
0.99999
0.99999
0.99999
0.99999
0.99999
0.99999
0.99999
0.99999
0.99999
0.99999
0.99999
0.99999
0.99999
0.99999
0.99999
0.99999
0.99999
0.99999
0.999989
0.999986
0.999981
0.999971
0.999956
0.99993
0.9998
0.99931
0.999341
0.958354
0.0511748
2.26628e-05
9.76323e-07
9.80378e-07
9.83457e-07
9.68824e-07
9.67051e-07
9.46546e-07
9.35862e-07
9.17461e-07
9.04198e-07
8.88652e-07
8.75425e-07
8.62515e-07
8.50674e-07
8.38589e-07
8.2692e-07
8.14723e-07
8.0143e-07
7.89572e-07
7.77677e-07
7.65359e-07
7.55518e-07
7.47608e-07
7.41912e-07
7.37856e-07
7.29026e-07
7.03593e-07
6.60053e-07
6.12482e-07
5.5828e-07
5.00458e-07
4.48475e-07
4.26429e-07
4.18122e-07
4.05802e-07
0.999996
0.999995
0.999995
0.999994
0.999993
0.999993
0.999993
0.999992
0.999992
0.999991
0.99999
0.99999
0.99999
0.99999
0.99999
0.99999
0.99999
0.99999
0.99999
0.99999
0.99999
0.99999
0.99999
0.99999
0.99999
0.99999
0.99999
0.99999
0.99999
0.99999
0.99999
0.99999
0.99999
0.99999
0.99999
0.99999
0.99999
0.99999
0.99999
0.99999
0.99999
0.99999
0.99999
0.99999
0.99999
0.99999
0.99999
0.99999
0.99999
0.99999
0.999989
0.999986
0.999979
0.999967
0.999958
0.999931
0.999701
0.999196
0.998813
0.956754
0.0471702
0.000103542
9.78009e-07
9.63884e-07
9.50747e-07
9.1822e-07
9.11123e-07
8.92557e-07
8.81372e-07
8.67539e-07
8.55401e-07
8.42321e-07
8.32893e-07
8.20341e-07
8.11835e-07
8.02121e-07
7.92499e-07
7.84541e-07
7.76342e-07
7.67292e-07
7.59494e-07
7.52182e-07
7.45198e-07
7.39655e-07
7.36296e-07
7.3512e-07
7.27409e-07
7.03667e-07
6.59699e-07
6.09719e-07
5.56161e-07
4.98923e-07
4.47547e-07
4.26153e-07
4.20689e-07
4.08726e-07
0.999997
0.999995
0.999995
0.999995
0.999994
0.999993
0.999993
0.999992
0.999991
0.999991
0.99999
0.99999
0.99999
0.99999
0.99999
0.99999
0.99999
0.99999
0.99999
0.99999
0.99999
0.99999
0.99999
0.99999
0.99999
0.99999
0.99999
0.99999
0.99999
0.99999
0.99999
0.99999
0.99999
0.99999
0.99999
0.99999
0.99999
0.99999
0.99999
0.99999
0.99999
0.99999
0.99999
0.99999
0.99999
0.99999
0.99999
0.99999
0.99999
0.99999
0.999989
0.999986
0.99998
0.999969
0.999958
0.999879
0.99979
0.999284
0.999039
0.95155
0.053213
0.000404763
1.57135e-06
8.87553e-07
8.87358e-07
8.6683e-07
8.65976e-07
8.52883e-07
8.47079e-07
8.34944e-07
8.29574e-07
8.17788e-07
8.11536e-07
8.01737e-07
7.94894e-07
7.86213e-07
7.78339e-07
7.71573e-07
7.6422e-07
7.56731e-07
7.51301e-07
7.45576e-07
7.39903e-07
7.35488e-07
7.33132e-07
7.34103e-07
7.31143e-07
7.07732e-07
6.59344e-07
6.10407e-07
5.56863e-07
4.99807e-07
4.47088e-07
4.22833e-07
4.17603e-07
4.06822e-07
0.999991
0.99999
0.99999
0.99999
0.99999
0.99999
0.99999
0.99999
0.99999
0.99999
0.99999
0.99999
0.99999
0.99999
0.99999
0.99999
0.99999
0.99999
0.99999
0.99999
0.99999
0.99999
0.99999
0.99999
0.99999
0.99999
0.99999
0.99999
0.99999
0.99999
0.99999
0.99999
0.99999
0.99999
0.99999
0.99999
0.99999
0.99999
0.99999
0.99999
0.99999
0.99999
0.99999
0.99999
0.99999
0.99999
0.99999
0.99999
0.99999
0.99999
0.99999
0.999986
0.99998
0.999961
0.999946
0.999905
0.999831
0.999222
0.997028
0.938032
0.055792
0.000443524
1.70866e-06
1.16148e-06
1.1588e-06
1.13408e-06
1.13457e-06
1.11411e-06
1.11104e-06
1.09445e-06
1.08801e-06
1.07429e-06
1.06585e-06
1.05368e-06
1.04354e-06
1.03316e-06
1.02336e-06
1.01306e-06
1.00339e-06
9.9375e-07
9.83621e-07
9.74211e-07
9.64956e-07
9.5596e-07
9.47426e-07
9.39512e-07
9.32072e-07
9.23766e-07
9.07336e-07
8.61064e-07
7.4968e-07
5.99362e-07
5.03116e-07
4.75236e-07
4.82492e-07
4.65293e-07
0.999992
0.999991
0.999991
0.99999
0.99999
0.99999
0.99999
0.99999
0.99999
0.99999
0.99999
0.99999
0.99999
0.99999
0.99999
0.99999
0.99999
0.99999
0.99999
0.99999
0.99999
0.99999
0.99999
0.99999
0.99999
0.99999
0.99999
0.99999
0.99999
0.99999
0.99999
0.99999
0.99999
0.99999
0.99999
0.99999
0.99999
0.99999
0.99999
0.99999
0.99999
0.99999
0.99999
0.99999
0.99999
0.99999
0.99999
0.99999
0.99999
0.99999
0.999989
0.999987
0.99998
0.999962
0.999949
0.999911
0.999805
0.999296
0.998159
0.944855
0.0472999
0.000129747
1.20571e-06
1.18189e-06
1.16835e-06
1.13712e-06
1.13807e-06
1.1184e-06
1.1151e-06
1.09938e-06
1.09189e-06
1.07858e-06
1.07001e-06
1.05768e-06
1.04706e-06
1.03687e-06
1.02668e-06
1.01539e-06
1.00615e-06
9.964e-07
9.8581e-07
9.77235e-07
9.67881e-07
9.58061e-07
9.49895e-07
9.41199e-07
9.32142e-07
9.23268e-07
9.0727e-07
8.69247e-07
7.82373e-07
6.44742e-07
5.24696e-07
4.75938e-07
5.00536e-07
4.82218e-07
0.999992
0.999991
0.999991
0.999991
0.999991
0.999991
0.99999
0.99999
0.99999
0.99999
0.99999
0.99999
0.99999
0.99999
0.99999
0.99999
0.99999
0.99999
0.99999
0.99999
0.99999
0.99999
0.99999
0.99999
0.99999
0.99999
0.99999
0.99999
0.99999
0.99999
0.99999
0.99999
0.99999
0.99999
0.99999
0.99999
0.99999
0.99999
0.99999
0.99999
0.99999
0.99999
0.99999
0.99999
0.99999
0.99999
0.99999
0.99999
0.99999
0.99999
0.999989
0.999987
0.99998
0.999964
0.999952
0.999892
0.999858
0.999486
0.999095
0.947403
0.041661
8.24994e-06
1.35326e-06
1.24431e-06
1.20661e-06
1.17392e-06
1.17212e-06
1.14958e-06
1.14458e-06
1.12443e-06
1.11467e-06
1.09637e-06
1.0852e-06
1.07109e-06
1.06025e-06
1.04941e-06
1.03971e-06
1.02965e-06
1.01933e-06
1.00812e-06
9.96764e-07
9.86261e-07
9.75377e-07
9.64453e-07
9.54256e-07
9.4458e-07
9.35247e-07
9.24091e-07
9.06776e-07
8.73949e-07
8.03759e-07
6.89488e-07
5.67946e-07
5.02224e-07
5.15696e-07
4.94621e-07
0.999992
0.999992
0.999991
0.999991
0.999991
0.999991
0.999991
0.999991
0.99999
0.99999
0.99999
0.99999
0.99999
0.99999
0.99999
0.99999
0.99999
0.99999
0.99999
0.99999
0.99999
0.99999
0.99999
0.99999
0.99999
0.99999
0.99999
0.99999
0.99999
0.99999
0.99999
0.99999
0.99999
0.99999
0.99999
0.99999
0.99999
0.99999
0.99999
0.99999
0.99999
0.99999
0.99999
0.99999
0.99999
0.99999
0.99999
0.99999
0.99999
0.99999
0.999988
0.999986
0.99998
0.999966
0.999937
0.999865
0.999844
0.999569
0.999627
0.940683
0.0388482
2.47103e-06
6.11545e-06
2.11267e-06
2.06014e-06
1.72682e-06
1.64864e-06
1.47482e-06
1.38808e-06
1.30123e-06
1.26574e-06
1.22563e-06
1.21226e-06
1.18997e-06
1.17217e-06
1.15141e-06
1.12851e-06
1.09606e-06
1.0679e-06
1.04654e-06
1.02611e-06
1.00568e-06
9.92176e-07
9.79605e-07
9.6708e-07
9.53474e-07
9.39429e-07
9.22059e-07
8.98894e-07
8.6078e-07
8.01937e-07
7.12873e-07
6.09581e-07
5.41744e-07
5.34247e-07
4.98842e-07
0.999992
0.999992
0.999992
0.999991
0.999991
0.999991
0.999991
0.999991
0.999991
0.99999
0.99999
0.99999
0.99999
0.99999
0.99999
0.99999
0.99999
0.99999
0.99999
0.99999
0.99999
0.99999
0.99999
0.99999
0.99999
0.99999
0.99999
0.99999
0.99999
0.99999
0.99999
0.99999
0.99999
0.99999
0.99999
0.99999
0.99999
0.99999
0.99999
0.99999
0.99999
0.99999
0.99999
0.99999
0.99999
0.99999
0.99999
0.99999
0.99999
0.99999
0.999986
0.999981
0.999976
0.999966
0.999896
0.999819
0.999781
0.999767
0.999843
0.882049
0.0165874
0.000327701
0.000268815
0.000150143
0.000122868
0.000106398
9.90957e-05
9.25827e-05
8.49478e-05
7.49399e-05
6.85655e-05
6.06183e-05
5.36265e-05
4.58728e-05
3.87416e-05
3.04697e-05
2.27185e-05
1.53731e-05
1.01968e-05
6.45201e-06
4.08655e-06
2.66297e-06
1.85187e-06
1.41453e-06
1.20101e-06
1.06613e-06
9.79266e-07
9.2241e-07
8.63194e-07
8.12146e-07
7.65914e-07
7.10655e-07
6.43666e-07
5.81428e-07
5.50433e-07
5.01583e-07
0.999993
0.999992
0.999992
0.999991
0.999991
0.999991
0.999991
0.999991
0.999991
0.99999
0.99999
0.99999
0.99999
0.99999
0.99999
0.99999
0.99999
0.99999
0.99999
0.99999
0.99999
0.99999
0.99999
0.99999
0.99999
0.99999
0.99999
0.99999
0.99999
0.99999
0.99999
0.99999
0.99999
0.99999
0.99999
0.99999
0.99999
0.99999
0.99999
0.99999
0.99999
0.99999
0.99999
0.99999
0.99999
0.99999
0.99999
0.99999
0.99999
0.999989
0.999986
0.999981
0.999974
0.999958
0.999865
0.999824
0.999834
0.999878
0.99996
0.74426
0.0146539
0.00674407
0.00650778
0.00562041
0.00536665
0.00503367
0.0047477
0.00462746
0.00451712
0.00449162
0.00445618
0.0043795
0.00416301
0.00386793
0.00359389
0.00327
0.00300163
0.00250936
0.00205856
0.00165084
0.00125295
0.000953461
0.000697163
0.000483119
0.000330035
0.00021414
0.000130564
7.74765e-05
4.24673e-05
2.04386e-05
7.39811e-06
2.63008e-06
1.20498e-06
8.04432e-07
5.99867e-07
4.93386e-07
0.999993
0.999992
0.999992
0.999992
0.999991
0.999991
0.999991
0.999991
0.999991
0.99999
0.99999
0.99999
0.99999
0.99999
0.99999
0.99999
0.99999
0.99999
0.99999
0.99999
0.99999
0.99999
0.99999
0.99999
0.99999
0.99999
0.99999
0.99999
0.99999
0.99999
0.99999
0.99999
0.99999
0.99999
0.99999
0.99999
0.99999
0.99999
0.99999
0.99999
0.99999
0.99999
0.99999
0.99999
0.99999
0.99999
0.99999
0.99999
0.99999
0.99999
0.999989
0.999985
0.999979
0.999969
0.999904
0.999815
0.999762
0.999792
0.999947
0.569188
0.033882
0.0284212
0.0296432
0.0296019
0.02982
0.0300257
0.0301908
0.0305552
0.030807
0.0310108
0.0314464
0.0318292
0.0319731
0.0320786
0.0319593
0.031872
0.0315731
0.0308845
0.0299667
0.0287733
0.0272084
0.025301
0.0232329
0.020846
0.0180421
0.0154949
0.013149
0.0109131
0.00898266
0.00717271
0.00504774
0.00309009
0.00160672
0.00077183
0.000636332
0.000746643
0.999993
0.999993
0.999992
0.999992
0.999992
0.999991
0.999991
0.999991
0.999991
0.99999
0.99999
0.99999
0.99999
0.99999
0.99999
0.99999
0.99999
0.99999
0.99999
0.99999
0.99999
0.99999
0.99999
0.99999
0.99999
0.99999
0.99999
0.99999
0.99999
0.99999
0.99999
0.99999
0.99999
0.99999
0.99999
0.99999
0.99999
0.99999
0.99999
0.99999
0.99999
0.99999
0.99999
0.99999
0.99999
0.99999
0.99999
0.99999
0.99999
0.99999
0.999989
0.999986
0.999981
0.999969
0.99993
0.999829
0.999776
0.999774
0.999767
0.537825
0.0427391
0.0372853
0.0383647
0.0388066
0.039897
0.0409885
0.0418764
0.042955
0.0440937
0.0453031
0.0466518
0.0482517
0.0500646
0.0520575
0.0543526
0.0569516
0.0598091
0.0629634
0.0663757
0.0700482
0.0739674
0.0780815
0.0823291
0.0867609
0.0913566
0.0960654
0.101061
0.106358
0.112114
0.118503
0.125891
0.135023
0.147566
0.168102
0.21447
0.404467
0.999993
0.999993
0.999992
0.999992
0.999992
0.999992
0.999991
0.999991
0.999991
0.99999
0.99999
0.99999
0.99999
0.99999
0.99999
0.99999
0.99999
0.99999
0.99999
0.99999
0.99999
0.99999
0.99999
0.99999
0.99999
0.99999
0.99999
0.99999
0.99999
0.99999
0.99999
0.99999
0.99999
0.99999
0.99999
0.99999
0.99999
0.99999
0.99999
0.99999
0.99999
0.99999
0.99999
0.99999
0.99999
0.99999
0.99999
0.99999
0.99999
0.99999
0.999989
0.999987
0.999982
0.999965
0.999938
0.999881
0.999812
0.999759
0.999927
0.717848
0.0194077
0.00669894
0.0054326
0.00415758
0.00366612
0.00334964
0.00317719
0.0030434
0.00290981
0.00278434
0.00270164
0.00265708
0.00265645
0.00272156
0.00287105
0.00306493
0.00336819
0.00366762
0.00389187
0.00416684
0.00453557
0.00493891
0.00531704
0.00566141
0.00605266
0.00643789
0.00669686
0.00703381
0.00744516
0.00782868
0.00808071
0.0081549
0.00785768
0.00714231
0.0059684
0.00497214
0.999993
0.999993
0.999993
0.999993
0.999993
0.999992
0.999992
0.999991
0.999991
0.999991
0.99999
0.99999
0.99999
0.99999
0.99999
0.99999
0.99999
0.99999
0.99999
0.99999
0.99999
0.99999
0.99999
0.99999
0.99999
0.99999
0.99999
0.99999
0.99999
0.99999
0.99999
0.99999
0.99999
0.99999
0.99999
0.99999
0.99999
0.99999
0.99999
0.99999
0.99999
0.99999
0.99999
0.99999
0.99999
0.99999
0.99999
0.99999
0.99999
0.99999
0.999989
0.999987
0.999981
0.999967
0.999939
0.999886
0.99983
0.999721
0.999905
0.849784
0.0110142
0.00038121
0.000264668
0.000168487
0.000146481
0.000132332
0.000119932
0.000110096
0.00010558
0.000101937
0.00010188
0.000101151
9.73718e-05
9.72674e-05
9.59517e-05
9.26484e-05
9.21047e-05
9.1049e-05
8.91399e-05
8.88945e-05
8.93951e-05
8.85979e-05
8.4841e-05
7.71806e-05
7.03941e-05
6.40936e-05
5.80667e-05
5.36639e-05
5.10424e-05
5.0066e-05
5.0031e-05
4.9569e-05
4.79457e-05
3.97556e-05
1.80883e-05
4.00576e-06
0.999994
0.999994
0.999993
0.999993
0.999993
0.999992
0.999992
0.999991
0.999991
0.999991
0.99999
0.99999
0.99999
0.99999
0.99999
0.99999
0.99999
0.99999
0.99999
0.99999
0.99999
0.99999
0.99999
0.99999
0.99999
0.99999
0.99999
0.99999
0.99999
0.99999
0.99999
0.99999
0.99999
0.99999
0.99999
0.99999
0.99999
0.99999
0.99999
0.99999
0.99999
0.99999
0.99999
0.99999
0.99999
0.99999
0.99999
0.99999
0.99999
0.99999
0.999989
0.999987
0.999981
0.999969
0.99994
0.999899
0.999834
0.999608
0.999789
0.929403
0.0426438
7.13519e-06
1.0422e-05
4.41596e-06
3.67866e-06
2.81612e-06
2.51784e-06
2.28164e-06
2.22408e-06
2.11928e-06
2.05257e-06
1.96913e-06
1.89495e-06
1.80573e-06
1.72161e-06
1.65323e-06
1.58062e-06
1.51991e-06
1.46287e-06
1.41548e-06
1.36835e-06
1.2977e-06
1.19039e-06
1.10062e-06
1.02145e-06
9.53836e-07
9.02766e-07
8.47277e-07
7.78057e-07
7.06269e-07
6.26011e-07
5.44083e-07
4.8833e-07
4.76413e-07
4.56111e-07
4.14177e-07
0.999995
0.999994
0.999993
0.999993
0.999993
0.999993
0.999992
0.999991
0.999991
0.999991
0.99999
0.99999
0.99999
0.99999
0.99999
0.99999
0.99999
0.99999
0.99999
0.99999
0.99999
0.99999
0.99999
0.99999
0.99999
0.99999
0.99999
0.99999
0.99999
0.99999
0.99999
0.99999
0.99999
0.99999
0.99999
0.99999
0.99999
0.99999
0.99999
0.99999
0.99999
0.99999
0.99999
0.99999
0.99999
0.99999
0.99999
0.99999
0.99999
0.99999
0.999989
0.999987
0.999981
0.999969
0.999942
0.999905
0.999864
0.999491
0.999606
0.956577
0.0477291
3.61254e-06
1.41229e-06
1.03207e-06
1.19599e-06
1.15004e-06
1.14936e-06
1.12948e-06
1.1271e-06
1.10659e-06
1.08183e-06
1.04952e-06
1.02328e-06
9.95947e-07
9.72867e-07
9.48958e-07
9.26563e-07
9.03116e-07
8.78002e-07
8.53894e-07
8.33839e-07
8.13191e-07
7.9374e-07
7.78635e-07
7.68563e-07
7.62553e-07
7.56033e-07
7.38724e-07
7.07943e-07
6.56524e-07
5.83735e-07
5.02611e-07
4.3824e-07
4.13502e-07
4.08136e-07
4.03277e-07
0.999995
0.999994
0.999994
0.999993
0.999993
0.999993
0.999992
0.999991
0.999991
0.999991
0.99999
0.99999
0.99999
0.99999
0.99999
0.99999
0.99999
0.99999
0.99999
0.99999
0.99999
0.99999
0.99999
0.99999
0.99999
0.99999
0.99999
0.99999
0.99999
0.99999
0.99999
0.99999
0.99999
0.99999
0.99999
0.99999
0.99999
0.99999
0.99999
0.99999
0.99999
0.99999
0.99999
0.99999
0.99999
0.99999
0.99999
0.99999
0.99999
0.99999
0.999989
0.999986
0.99998
0.999968
0.999957
0.999921
0.999838
0.999398
0.999191
0.964978
0.0585967
1.56917e-05
1.19657e-06
1.06599e-06
1.07551e-06
1.09211e-06
1.109e-06
1.09863e-06
1.0875e-06
1.05768e-06
1.0292e-06
1.00025e-06
9.75557e-07
9.52248e-07
9.31448e-07
9.09688e-07
8.88058e-07
8.66137e-07
8.44374e-07
8.24163e-07
8.05262e-07
7.87916e-07
7.73578e-07
7.61683e-07
7.54593e-07
7.50091e-07
7.4263e-07
7.27035e-07
6.96646e-07
6.48114e-07
5.80154e-07
5.07185e-07
4.48053e-07
4.22423e-07
4.15477e-07
4.05718e-07
0.999995
0.999994
0.999994
0.999994
0.999993
0.999993
0.999992
0.999992
0.999991
0.999991
0.99999
0.99999
0.99999
0.99999
0.99999
0.99999
0.99999
0.99999
0.99999
0.99999
0.99999
0.99999
0.99999
0.99999
0.99999
0.99999
0.99999
0.99999
0.99999
0.99999
0.99999
0.99999
0.99999
0.99999
0.99999
0.99999
0.99999
0.99999
0.99999
0.99999
0.99999
0.99999
0.99999
0.99999
0.99999
0.99999
0.99999
0.99999
0.99999
0.99999
0.999989
0.999986
0.99998
0.999967
0.999958
0.999937
0.999778
0.999307
0.998959
0.959117
0.0605262
1.70229e-05
1.0883e-06
1.07716e-06
1.05055e-06
1.0259e-06
1.02724e-06
1.00757e-06
1.00119e-06
9.78054e-07
9.6354e-07
9.39466e-07
9.2134e-07
8.99777e-07
8.81687e-07
8.63477e-07
8.46049e-07
8.29313e-07
8.13022e-07
7.97662e-07
7.83676e-07
7.71694e-07
7.61189e-07
7.52824e-07
7.47923e-07
7.44649e-07
7.38779e-07
7.22683e-07
6.89151e-07
6.37942e-07
5.72024e-07
5.05292e-07
4.50443e-07
4.27835e-07
4.19801e-07
4.07673e-07
0.999996
0.999995
0.999995
0.999994
0.999994
0.999993
0.999992
0.999992
0.999992
0.999991
0.99999
0.99999
0.99999
0.99999
0.99999
0.99999
0.99999
0.99999
0.99999
0.99999
0.99999
0.99999
0.99999
0.99999
0.99999
0.99999
0.99999
0.99999
0.99999
0.99999
0.99999
0.99999
0.99999
0.99999
0.99999
0.99999
0.99999
0.99999
0.99999
0.99999
0.99999
0.99999
0.99999
0.99999
0.99999
0.99999
0.99999
0.99999
0.99999
0.99999
0.999989
0.999986
0.999979
0.999968
0.999956
0.999928
0.999707
0.999168
0.998186
0.950306
0.0635664
0.00021876
1.09972e-06
9.48948e-07
9.22021e-07
8.91195e-07
8.89472e-07
8.72866e-07
8.74322e-07
8.62023e-07
8.5963e-07
8.48653e-07
8.43104e-07
8.32574e-07
8.24006e-07
8.13147e-07
8.02117e-07
7.92827e-07
7.8328e-07
7.73083e-07
7.6554e-07
7.58199e-07
7.51621e-07
7.46578e-07
7.43515e-07
7.42863e-07
7.37844e-07
7.214e-07
6.83824e-07
6.28132e-07
5.64684e-07
5.01544e-07
4.47766e-07
4.2655e-07
4.19847e-07
4.08164e-07
0.999997
0.999996
0.999995
0.999995
0.999994
0.999993
0.999993
0.999992
0.999992
0.999991
0.99999
0.99999
0.99999
0.99999
0.99999
0.99999
0.99999
0.99999
0.99999
0.99999
0.99999
0.99999
0.99999
0.99999
0.99999
0.99999
0.99999
0.99999
0.99999
0.99999
0.99999
0.99999
0.99999
0.99999
0.99999
0.99999
0.99999
0.99999
0.99999
0.99999
0.99999
0.99999
0.99999
0.99999
0.99999
0.99999
0.99999
0.99999
0.99999
0.99999
0.999989
0.999986
0.999979
0.999969
0.999961
0.999908
0.999777
0.999098
0.997273
0.943856
0.0712243
0.000773649
2.54303e-06
8.80385e-07
8.80022e-07
8.58361e-07
8.60434e-07
8.44673e-07
8.418e-07
8.28032e-07
8.2323e-07
8.11791e-07
8.06016e-07
7.96384e-07
7.88527e-07
7.8099e-07
7.74835e-07
7.67704e-07
7.6144e-07
7.56386e-07
7.51333e-07
7.46449e-07
7.43712e-07
7.41511e-07
7.40639e-07
7.42258e-07
7.39364e-07
7.22521e-07
6.80545e-07
6.22564e-07