/*--------------------------------*- C++ -*----------------------------------*\
| =========                 |                                                 |
| \\      /  F ield         | OpenFOAM: The Open Source CFD Toolbox           |
|  \\    /   O peration     | Version:  2.3.0                                 |
|   \\  /    A nd           | Web:      www.OpenFOAM.org                      |
|    \\/     M anipulation  |                                                 |
\*---------------------------------------------------------------------------*/
FoamFile
{
    version     2.0;
    format      ascii;
    class       volScalarField;
    location    "18";
    object      dsauterMean;
}
// * * * * * * * * * * * * * * * * * * * * * * * * * * * * * * * * * * * * * //

dimensions      [0 0 0 0 0 0 0];

internalField   nonuniform List<scalar> 
6144
(
0.00833335
0.00833335
0.00833335
0.00833335
0.00833335
0.00833335
0.00833335
0.00833335
0.00833335
0.00833335
0.00833335
0.00833335
0.00833335
0.00833335
0.00833335
0.00833335
0.00833335
0.00833335
0.00833335
0.00833335
0.00833335
0.00833335
0.00833335
0.00833335
0.00833335
0.00833335
0.00833335
0.00833335
0.00833335
0.00833335
0.00833335
0.00833335
0.00833335
0.00833335
0.00833335
0.00833335
0.00833335
0.00833335
0.00833335
0.00833335
0.00833335
0.00833335
0.00833335
0.00833335
0.00833335
0.00833335
0.00833335
0.00833335
0.00833335
0.00833335
0.00833335
0.00833335
0.00833335
0.00833335
0.00833335
0.00833335
0.00833335
0.00833325
0.00832374
0.00834578
0.00833398
0.00833323
0.00306845
0.000466072
0.000454488
0.000445345
0.000436195
0.000422477
0.000413323
0.000401902
0.000392744
0.000381306
0.00037216
0.00036301
0.000353865
0.000342424
0.000333282
0.000324127
0.000314982
0.000305954
0.000296015
0.000289043
0.000276695
0.00027222
0.000261759
0.000255518
0.000246261
0.000239733
0.000232509
0.000228074
0.000223499
0.000218926
0.000216642
0.000214351
0.000216623
0.00021439
0.00833335
0.00833335
0.00833335
0.00833335
0.00833335
0.00833335
0.00833335
0.00833335
0.00833335
0.00833335
0.00833335
0.00833335
0.00833335
0.00833335
0.00833335
0.00833335
0.00833335
0.00833335
0.00833335
0.00833335
0.00833335
0.00833335
0.00833335
0.00833335
0.00833335
0.00833335
0.00833335
0.00833335
0.00833335
0.00833335
0.00833335
0.00833335
0.00833335
0.00833335
0.00833335
0.00833335
0.00833335
0.00833335
0.00833335
0.00833335
0.00833335
0.00833335
0.00833335
0.00833335
0.00833335
0.00833335
0.00833335
0.00833335
0.00833335
0.00833335
0.00833335
0.00833335
0.00833335
0.00833335
0.00833335
0.00833335
0.00833335
0.00833314
0.00832485
0.00834342
0.00840885
0.00832829
0.00058714
0.000468226
0.000456618
0.000447213
0.000436138
0.00042476
0.000415663
0.000404773
0.000395203
0.000383276
0.000374378
0.000362964
0.000352294
0.000342139
0.000333644
0.000325226
0.000314001
0.000305735
0.000297254
0.00028736
0.000279049
0.000271556
0.000262416
0.000255693
0.000248658
0.000241797
0.00023494
0.000228074
0.000223502
0.000221213
0.000216078
0.000216854
0.000216661
0.000216683
0.00833335
0.00833335
0.00833335
0.00833335
0.00833335
0.00833335
0.00833335
0.00833335
0.00833335
0.00833335
0.00833335
0.00833335
0.00833335
0.00833335
0.00833335
0.00833335
0.00833335
0.00833335
0.00833335
0.00833335
0.00833335
0.00833335
0.00833335
0.00833335
0.00833335
0.00833335
0.00833335
0.00833335
0.00833335
0.00833335
0.00833335
0.00833335
0.00833335
0.00833335
0.00833335
0.00833335
0.00833335
0.00833335
0.00833335
0.00833335
0.00833335
0.00833335
0.00833335
0.00833335
0.00833335
0.00833335
0.00833335
0.00833335
0.00833335
0.00833335
0.00833335
0.00833335
0.00833335
0.00833335
0.00833335
0.00833335
0.00833335
0.00833335
0.00833369
0.00835754
0.0077327
0.00496897
0.00065346
0.000468993
0.000454158
0.000445346
0.000433646
0.000422893
0.00041333
0.000398268
0.000392032
0.000379058
0.000372427
0.000361299
0.000355526
0.000342943
0.00033346
0.000324704
0.000313491
0.000306904
0.000297475
0.000287537
0.000280678
0.000271519
0.000262225
0.000255524
0.000248658
0.000241798
0.000234937
0.000228074
0.000223783
0.000220986
0.00021668
0.000215559
0.000219528
0.000216844
0.00833335
0.00833335
0.00833335
0.00833335
0.00833335
0.00833335
0.00833335
0.00833335
0.00833335
0.00833335
0.00833335
0.00833335
0.00833335
0.00833335
0.00833335
0.00833335
0.00833335
0.00833335
0.00833335
0.00833335
0.00833335
0.00833335
0.00833335
0.00833335
0.00833335
0.00833335
0.00833335
0.00833335
0.00833335
0.00833335
0.00833335
0.00833335
0.00833335
0.00833335
0.00833335
0.00833335
0.00833335
0.00833335
0.00833335
0.00833335
0.00833335
0.00833335
0.00833335
0.00833335
0.00833335
0.00833335
0.00833335
0.00833335
0.00833335
0.00833335
0.00833335
0.00833335
0.00833335
0.00833335
0.00833335
0.00833335
0.00833335
0.00833335
0.00832906
0.00833781
0.00835273
0.00224083
0.00109715
0.000712992
0.000701477
0.00054877
0.000552287
0.000525392
0.000515795
0.000494086
0.00048194
0.000475059
0.000452204
0.000417902
0.000379018
0.000349293
0.000333276
0.000324112
0.000313907
0.000306146
0.000296713
0.000286437
0.000279029
0.000272136
0.000261873
0.000255508
0.00024866
0.000242143
0.000233968
0.000228074
0.000223511
0.000220438
0.000217528
0.000216633
0.000216638
0.000218926
0.00833335
0.00833335
0.00833335
0.00833335
0.00833335
0.00833335
0.00833335
0.00833335
0.00833335
0.00833335
0.00833335
0.00833335
0.00833335
0.00833335
0.00833335
0.00833335
0.00833335
0.00833335
0.00833335
0.00833335
0.00833335
0.00833335
0.00833335
0.00833335
0.00833335
0.00833335
0.00833335
0.00833335
0.00833335
0.00833335
0.00833335
0.00833335
0.00833335
0.00833335
0.00833335
0.00833335
0.00833335
0.00833335
0.00833335
0.00833335
0.00833335
0.00833335
0.00833335
0.00833335
0.00833335
0.00833335
0.00833335
0.00833335
0.00833335
0.00833335
0.00833335
0.00833335
0.00833335
0.00833335
0.00833335
0.00833335
0.00833335
0.00833335
0.00833328
0.00835091
0.00735177
0.00832591
0.00826338
0.00827143
0.00801636
0.00605664
0.00626838
0.00604565
0.00609753
0.00608916
0.00615175
0.0061427
0.00601279
0.00590739
0.00572963
0.00546204
0.00500692
0.00423557
0.00341778
0.00254409
0.00167627
0.00105779
0.000630092
0.000379018
0.000264667
0.00025386
0.000247026
0.000240104
0.000232846
0.000227753
0.0002235
0.000218926
0.000214344
0.000214341
0.000216651
0.000216639
0.00833335
0.00833335
0.00833335
0.00833335
0.00833335
0.00833335
0.00833335
0.00833335
0.00833335
0.00833335
0.00833335
0.00833335
0.00833335
0.00833335
0.00833335
0.00833335
0.00833335
0.00833335
0.00833335
0.00833335
0.00833335
0.00833335
0.00833335
0.00833335
0.00833335
0.00833335
0.00833335
0.00833335
0.00833335
0.00833335
0.00833335
0.00833335
0.00833335
0.00833335
0.00833335
0.00833335
0.00833335
0.00833335
0.00833335
0.00833335
0.00833335
0.00833335
0.00833335
0.00833335
0.00833335
0.00833335
0.00833335
0.00833335
0.00833335
0.00833335
0.00833335
0.00833335
0.00833335
0.00833335
0.00833335
0.00833335
0.00833335
0.00833335
0.00833335
0.0083443
0.00726108
0.00758606
0.00795695
0.00832781
0.00816533
0.00824945
0.00831914
0.00813852
0.00824836
0.00793617
0.00838083
0.00796634
0.0082102
0.00824337
0.00833406
0.00813057
0.00824957
0.00821096
0.00790841
0.00809619
0.00784323
0.00764376
0.00741392
0.00711806
0.00664637
0.00517939
0.00455793
0.00354294
0.00219567
0.000893292
0.000226203
0.000218328
0.00021674
0.000212316
0.000211999
0.000216819
0.00833335
0.00833335
0.00833335
0.00833335
0.00833335
0.00833335
0.00833335
0.00833335
0.00833335
0.00833335
0.00833335
0.00833335
0.00833335
0.00833335
0.00833335
0.00833335
0.00833335
0.00833335
0.00833335
0.00833335
0.00833335
0.00833335
0.00833335
0.00833335
0.00833335
0.00833335
0.00833335
0.00833335
0.00833335
0.00833335
0.00833335
0.00833335
0.00833335
0.00833335
0.00833335
0.00833335
0.00833335
0.00833335
0.00833335
0.00833335
0.00833335
0.00833335
0.00833335
0.00833335
0.00833335
0.00833335
0.00833335
0.00833335
0.00833335
0.00833335
0.00833335
0.00833335
0.00833335
0.00833335
0.00833335
0.00833335
0.00833335
0.00833332
0.00833362
0.00833334
0.00833004
0.00923804
0.00593756
0.00833665
0.0081692
0.00788956
0.00830703
0.00712481
0.00790373
0.00764808
0.0080153
0.00775552
0.008184
0.00781391
0.00813344
0.00785955
0.00885568
0.00708495
0.00821905
0.00839473
0.00780679
0.00851278
0.00827586
0.00827949
0.00824392
0.00779323
0.00802511
0.00830776
0.00806513
0.00771085
0.00766724
0.00776603
0.00676859
0.00448045
0.00330872
0.00533312
0.00833335
0.00833335
0.00833335
0.00833335
0.00833335
0.00833335
0.00833335
0.00833335
0.00833335
0.00833335
0.00833335
0.00833335
0.00833335
0.00833335
0.00833335
0.00833335
0.00833335
0.00833335
0.00833335
0.00833335
0.00833335
0.00833335
0.00833335
0.00833335
0.00833335
0.00833335
0.00833335
0.00833335
0.00833335
0.00833335
0.00833335
0.00833335
0.00833335
0.00833335
0.00833335
0.00833335
0.00833335
0.00833335
0.00833335
0.00833335
0.00833335
0.00833335
0.00833335
0.00833335
0.00833335
0.00833335
0.00833335
0.00833335
0.00833335
0.00833335
0.00833335
0.00833335
0.00833335
0.00833335
0.00833335
0.00833335
0.00833335
0.00833338
0.00833306
0.00833354
0.00831158
0.00839674
0.00832845
0.00830138
0.00833387
0.00822138
0.00803443
0.00881129
0.00814006
0.00839159
0.00820187
0.00832175
0.00832754
0.0083326
0.00838534
0.00840399
0.00808683
0.00829356
0.00832679
0.00831025
0.00831687
0.00830819
0.00829127
0.00827528
0.00829244
0.00822976
0.00827857
0.00813632
0.0080628
0.00813891
0.00776614
0.00730022
0.007564
0.00679849
0.00733259
0.00812042
0.00833335
0.00833335
0.00833335
0.00833335
0.00833335
0.00833335
0.00833335
0.00833335
0.00833335
0.00833335
0.00833335
0.00833335
0.00833335
0.00833335
0.00833335
0.00833335
0.00833335
0.00833335
0.00833335
0.00833335
0.00833335
0.00833335
0.00833335
0.00833335
0.00833335
0.00833335
0.00833335
0.00833335
0.00833335
0.00833335
0.00833335
0.00833335
0.00833335
0.00833335
0.00833335
0.00833335
0.00833335
0.00833335
0.00833335
0.00833335
0.00833335
0.00833335
0.00833335
0.00833335
0.00833335
0.00833335
0.00833335
0.00833335
0.00833335
0.00833335
0.00833335
0.00833335
0.00833335
0.00833335
0.00833335
0.00833335
0.00833336
0.00833332
0.00833367
0.0083363
0.00794138
0.00793802
0.00776069
0.00764286
0.00823773
0.00718771
0.0076947
0.00814469
0.00809281
0.00795027
0.00777977
0.00839554
0.00772303
0.0085301
0.00777169
0.008291
0.00831618
0.00833111
0.00816058
0.00801628
0.00823819
0.00802907
0.00800304
0.00825918
0.00813275
0.00841059
0.00817658
0.00839622
0.00806085
0.008331
0.00819678
0.00812495
0.00826543
0.00829406
0.00686745
0.00627182
0.00833335
0.00833335
0.00833335
0.00833335
0.00833335
0.00833335
0.00833335
0.00833335
0.00833335
0.00833335
0.00833335
0.00833335
0.00833335
0.00833335
0.00833335
0.00833335
0.00833335
0.00833335
0.00833335
0.00833335
0.00833335
0.00833335
0.00833335
0.00833335
0.00833335
0.00833335
0.00833335
0.00833335
0.00833335
0.00833335
0.00833335
0.00833335
0.00833335
0.00833335
0.00833335
0.00833335
0.00833335
0.00833335
0.00833335
0.00833335
0.00833335
0.00833335
0.00833335
0.00833335
0.00833335
0.00833335
0.00833335
0.00833335
0.00833335
0.00833335
0.00833335
0.00833335
0.00833335
0.00833335
0.00833335
0.00833335
0.00833335
0.00833336
0.00833316
0.00833533
0.00827391
0.00821627
0.00739101
0.008219
0.008194
0.00733877
0.00708473
0.0068974
0.00663939
0.00653707
0.00634848
0.00627813
0.0057445
0.00576919
0.00538357
0.00490718
0.00457281
0.00431229
0.00409597
0.00382398
0.00351844
0.00329359
0.00296231
0.00306984
0.0030671
0.00327679
0.00336181
0.00318737
0.00334403
0.00335243
0.00314231
0.00291597
0.00303488
0.00307191
0.00304826
0.00261453
0.00833335
0.00833335
0.00833335
0.00833335
0.00833335
0.00833335
0.00833335
0.00833335
0.00833335
0.00833335
0.00833335
0.00833335
0.00833335
0.00833335
0.00833335
0.00833335
0.00833335
0.00833335
0.00833335
0.00833335
0.00833335
0.00833335
0.00833335
0.00833335
0.00833335
0.00833335
0.00833335
0.00833335
0.00833335
0.00833335
0.00833335
0.00833335
0.00833335
0.00833335
0.00833335
0.00833335
0.00833335
0.00833335
0.00833335
0.00833335
0.00833335
0.00833335
0.00833335
0.00833335
0.00833335
0.00833335
0.00833335
0.00833335
0.00833335
0.00833335
0.00833335
0.00833335
0.00833335
0.00833335
0.00833335
0.00833335
0.00833335
0.00833395
0.00831231
0.00833703
0.00833519
0.00769806
0.00670988
0.0052587
0.00526313
0.00452049
0.00460801
0.00392332
0.00339946
0.00304013
0.00274642
0.00255113
0.0023539
0.002246
0.00217663
0.00212934
0.00204642
0.00200238
0.00195108
0.0018871
0.00184728
0.00180471
0.00174238
0.00167792
0.00160766
0.00156978
0.00154306
0.00147664
0.00140506
0.00129765
0.00120204
0.000953249
0.000288208
0.000221368
0.000215596
0.000216639
0.00833335
0.00833335
0.00833335
0.00833335
0.00833335
0.00833335
0.00833335
0.00833335
0.00833335
0.00833335
0.00833335
0.00833335
0.00833335
0.00833335
0.00833335
0.00833335
0.00833335
0.00833335
0.00833335
0.00833335
0.00833335
0.00833335
0.00833335
0.00833335
0.00833335
0.00833335
0.00833335
0.00833335
0.00833335
0.00833335
0.00833335
0.00833335
0.00833335
0.00833335
0.00833335
0.00833335
0.00833335
0.00833335
0.00833335
0.00833335
0.00833335
0.00833335
0.00833335
0.00833335
0.00833335
0.00833335
0.00833335
0.00833335
0.00833335
0.00833335
0.00833335
0.00833335
0.00833335
0.00833335
0.00833335
0.00833335
0.00833335
0.00833334
0.00833396
0.00835219
0.00833111
0.00227687
0.00120195
0.000653761
0.000634413
0.000591968
0.000554598
0.000511908
0.000478225
0.000438043
0.000411038
0.000385692
0.00037651
0.000365303
0.000353862
0.000344713
0.000335555
0.000324133
0.000314975
0.000305763
0.000296674
0.00028651
0.000281748
0.00027152
0.000262379
0.000255519
0.000248665
0.000239516
0.000234935
0.000228713
0.000222748
0.000218926
0.000214382
0.000216625
0.000216643
0.000218926
0.00833335
0.00833335
0.00833335
0.00833335
0.00833335
0.00833335
0.00833335
0.00833335
0.00833335
0.00833335
0.00833335
0.00833335
0.00833335
0.00833335
0.00833335
0.00833335
0.00833335
0.00833335
0.00833335
0.00833335
0.00833335
0.00833335
0.00833335
0.00833335
0.00833335
0.00833335
0.00833335
0.00833335
0.00833335
0.00833335
0.00833335
0.00833335
0.00833335
0.00833335
0.00833335
0.00833335
0.00833335
0.00833335
0.00833335
0.00833335
0.00833335
0.00833335
0.00833335
0.00833335
0.00833335
0.00833335
0.00833335
0.00833335
0.00833335
0.00833335
0.00833335
0.00833335
0.00833335
0.00833335
0.00833335
0.00833335
0.00833335
0.00833335
0.00833333
0.00833891
0.0083352
0.00271858
0.000921025
0.000468198
0.000456773
0.000445343
0.000436195
0.000424748
0.000415611
0.000400905
0.000396294
0.000381306
0.000374445
0.00036301
0.000353843
0.000342455
0.000333357
0.000322436
0.000315202
0.000305833
0.00029667
0.000287503
0.000280756
0.000270689
0.000262685
0.000256188
0.000248658
0.000240407
0.000234973
0.000228113
0.000223495
0.000221213
0.000216639
0.000216639
0.000218926
0.000218926
0.00833335
0.00833335
0.00833335
0.00833335
0.00833335
0.00833335
0.00833335
0.00833335
0.00833335
0.00833335
0.00833335
0.00833335
0.00833335
0.00833335
0.00833335
0.00833335
0.00833335
0.00833335
0.00833335
0.00833335
0.00833335
0.00833335
0.00833335
0.00833335
0.00833335
0.00833335
0.00833335
0.00833335
0.00833335
0.00833335
0.00833335
0.00833335
0.00833335
0.00833335
0.00833335
0.00833335
0.00833335
0.00833335
0.00833335
0.00833335
0.00833335
0.00833335
0.00833335
0.00833335
0.00833335
0.00833335
0.00833335
0.00833335
0.00833335
0.00833335
0.00833335
0.00833335
0.00833335
0.00833335
0.00833335
0.00833335
0.00833335
0.00833335
0.00833335
0.00832784
0.00833344
0.00709669
0.000628325
0.000468213
0.000456778
0.000445285
0.000436289
0.00042474
0.00041333
0.000401884
0.000392746
0.000381306
0.000372218
0.00036301
0.000353115
0.000344565
0.000332581
0.000322923
0.000313789
0.000305833
0.000296682
0.000287819
0.000279378
0.000273262
0.00026234
0.00025546
0.000248588
0.000241795
0.000234936
0.000228042
0.000223391
0.000220949
0.00021715
0.000216639
0.000218926
0.000218926
0.00833335
0.00833335
0.00833335
0.00833335
0.00833335
0.00833335
0.00833335
0.00833335
0.00833335
0.00833335
0.00833335
0.00833335
0.00833335
0.00833335
0.00833335
0.00833335
0.00833335
0.00833335
0.00833335
0.00833335
0.00833335
0.00833335
0.00833335
0.00833335
0.00833335
0.00833335
0.00833335
0.00833335
0.00833335
0.00833335
0.00833335
0.00833335
0.00833335
0.00833335
0.00833335
0.00833335
0.00833335
0.00833335
0.00833335
0.00833335
0.00833335
0.00833335
0.00833335
0.00833335
0.00833335
0.00833335
0.00833335
0.00833335
0.00833335
0.00833335
0.00833335
0.00833335
0.00833335
0.00833335
0.00833335
0.00833335
0.00833335
0.00833335
0.00833279
0.00830132
0.00910352
0.00758208
0.000584833
0.000465904
0.000457
0.000445138
0.000436168
0.000424761
0.000413318
0.000401015
0.000395571
0.000383593
0.00037433
0.000363011
0.000353862
0.000344713
0.000336035
0.000326438
0.000312403
0.000307421
0.000296668
0.000286845
0.000281143
0.00027157
0.00026258
0.000252463
0.000249831
0.000240823
0.000234323
0.000228263
0.00022286
0.000221958
0.000216526
0.000216639
0.000218928
0.000218926
0.00833335
0.00833335
0.00833335
0.00833335
0.00833335
0.00833335
0.00833335
0.00833335
0.00833335
0.00833335
0.00833335
0.00833335
0.00833335
0.00833335
0.00833335
0.00833335
0.00833335
0.00833335
0.00833335
0.00833335
0.00833335
0.00833335
0.00833335
0.00833335
0.00833335
0.00833335
0.00833335
0.00833335
0.00833335
0.00833335
0.00833335
0.00833335
0.00833335
0.00833335
0.00833335
0.00833335
0.00833335
0.00833335
0.00833335
0.00833335
0.00833335
0.00833335
0.00833335
0.00833335
0.00833335
0.00833335
0.00833335
0.00833335
0.00833335
0.00833335
0.00833335
0.00833335
0.00833335
0.00833335
0.00833335
0.00833335
0.00833335
0.00833333
0.00832927
0.00833764
0.00833652
0.00786676
0.0053475
0.000466232
0.000456467
0.000445338
0.000436582
0.000422087
0.000413408
0.000404176
0.000392773
0.000383613
0.000375765
0.000362688
0.000354484
0.000345042
0.000333032
0.000324128
0.000314982
0.000306722
0.00029597
0.000287537
0.000280599
0.000271173
0.000262383
0.000255525
0.000247638
0.000242869
0.000235002
0.000228075
0.000223501
0.000221319
0.00021665
0.000216638
0.000218883
0.000218966
0.00833335
0.00833335
0.00833335
0.00833335
0.00833335
0.00833335
0.00833335
0.00833335
0.00833335
0.00833335
0.00833335
0.00833335
0.00833335
0.00833335
0.00833335
0.00833335
0.00833335
0.00833335
0.00833335
0.00833335
0.00833335
0.00833335
0.00833335
0.00833335
0.00833335
0.00833335
0.00833335
0.00833335
0.00833335
0.00833335
0.00833335
0.00833335
0.00833335
0.00833335
0.00833335
0.00833335
0.00833335
0.00833335
0.00833335
0.00833335
0.00833335
0.00833335
0.00833335
0.00833335
0.00833335
0.00833335
0.00833335
0.00833335
0.00833335
0.00833335
0.00833335
0.00833335
0.00833335
0.00833335
0.00833335
0.00833335
0.00833335
0.00833296
0.00833359
0.00833179
0.00833328
0.00833336
0.00735449
0.000465921
0.000454495
0.000446054
0.000432444
0.000423591
0.000413161
0.000401866
0.000392531
0.000381348
0.000372162
0.000363008
0.000354568
0.000342601
0.000333278
0.000324149
0.00031498
0.000305833
0.000296446
0.000287883
0.000280677
0.000272138
0.000261264
0.000256485
0.000248658
0.000241825
0.000235357
0.000227901
0.000223294
0.000221308
0.00021664
0.000216639
0.000216639
0.000216639
0.00833335
0.00833335
0.00833335
0.00833335
0.00833335
0.00833335
0.00833335
0.00833335
0.00833335
0.00833335
0.00833335
0.00833335
0.00833335
0.00833335
0.00833335
0.00833335
0.00833335
0.00833335
0.00833335
0.00833335
0.00833335
0.00833335
0.00833335
0.00833335
0.00833335
0.00833335
0.00833335
0.00833335
0.00833335
0.00833335
0.00833335
0.00833335
0.00833335
0.00833335
0.00833335
0.00833335
0.00833335
0.00833335
0.00833335
0.00833335
0.00833335
0.00833335
0.00833335
0.00833335
0.00833335
0.00833335
0.00833335
0.00833335
0.00833335
0.00833335
0.00833335
0.00833335
0.00833335
0.00833335
0.00833335
0.00833335
0.00833335
0.00833334
0.00833345
0.00833346
0.00842179
0.00832202
0.000838152
0.000468219
0.000455526
0.000445233
0.000435145
0.00042276
0.000415451
0.000401935
0.000393056
0.000383593
0.000372158
0.00036301
0.000354908
0.000343736
0.000335565
0.000324129
0.000314942
0.000305853
0.000296685
0.000289831
0.000280678
0.000272363
0.000263421
0.000255519
0.000248658
0.000241796
0.000234936
0.000228074
0.0002235
0.000221213
0.000217103
0.000217007
0.000219156
0.000216603
0.00833335
0.00833335
0.00833335
0.00833335
0.00833335
0.00833335
0.00833335
0.00833335
0.00833335
0.00833335
0.00833335
0.00833335
0.00833335
0.00833335
0.00833335
0.00833335
0.00833335
0.00833335
0.00833335
0.00833335
0.00833335
0.00833335
0.00833335
0.00833335
0.00833335
0.00833335
0.00833335
0.00833335
0.00833335
0.00833335
0.00833335
0.00833335
0.00833335
0.00833335
0.00833335
0.00833335
0.00833335
0.00833335
0.00833335
0.00833335
0.00833335
0.00833335
0.00833335
0.00833335
0.00833335
0.00833335
0.00833335
0.00833335
0.00833335
0.00833335
0.00833335
0.00833335
0.00833335
0.00833335
0.00833335
0.00833335
0.00833335
0.00833335
0.00833798
0.00832839
0.00827022
0.00125983
0.00144043
0.000495668
0.000472624
0.000454492
0.000447628
0.00042476
0.000414964
0.000404058
0.000395812
0.000383594
0.000374445
0.000362867
0.000355458
0.000342878
0.000335564
0.000327472
0.000314049
0.000306796
0.000297856
0.000289112
0.000279368
0.000272284
0.000264939
0.00025529
0.000248658
0.000241791
0.00023511
0.000227469
0.000223346
0.000221206
0.000216338
0.000216924
0.000218925
0.000218926
0.00833335
0.00833335
0.00833335
0.00833335
0.00833335
0.00833335
0.00833335
0.00833335
0.00833335
0.00833335
0.00833335
0.00833335
0.00833335
0.00833335
0.00833335
0.00833335
0.00833335
0.00833335
0.00833335
0.00833335
0.00833335
0.00833335
0.00833335
0.00833335
0.00833335
0.00833335
0.00833335
0.00833335
0.00833335
0.00833335
0.00833335
0.00833335
0.00833335
0.00833335
0.00833335
0.00833335
0.00833335
0.00833335
0.00833335
0.00833335
0.00833335
0.00833335
0.00833335
0.00833335
0.00833335
0.00833335
0.00833335
0.00833335
0.00833335
0.00833335
0.00833335
0.00833335
0.00833335
0.00833335
0.00833335
0.00833335
0.00833335
0.00833335
0.00833333
0.00834751
0.00783055
0.00159191
0.00795866
0.00194845
0.00306852
0.00159609
0.00167767
0.00159614
0.00156353
0.0014953
0.00141048
0.00130103
0.0011611
0.00106419
0.000942841
0.000750022
0.000584834
0.000486382
0.000402003
0.000335593
0.000308012
0.000291944
0.000282957
0.000271762
0.000260733
0.000256428
0.000248637
0.000243278
0.00023371
0.000227518
0.000223787
0.000219269
0.000214402
0.000216647
0.000216591
0.000218977
0.00833335
0.00833335
0.00833335
0.00833335
0.00833335
0.00833335
0.00833335
0.00833335
0.00833335
0.00833335
0.00833335
0.00833335
0.00833335
0.00833335
0.00833335
0.00833335
0.00833335
0.00833335
0.00833335
0.00833335
0.00833335
0.00833335
0.00833335
0.00833335
0.00833335
0.00833335
0.00833335
0.00833335
0.00833335
0.00833335
0.00833335
0.00833335
0.00833335
0.00833335
0.00833335
0.00833335
0.00833335
0.00833335
0.00833335
0.00833335
0.00833335
0.00833335
0.00833335
0.00833335
0.00833335
0.00833335
0.00833335
0.00833335
0.00833335
0.00833335
0.00833335
0.00833335
0.00833335
0.00833335
0.00833335
0.00833335
0.00833335
0.00833335
0.00833334
0.00834093
0.00732285
0.00787716
0.00829491
0.00822222
0.0082321
0.00828363
0.00836498
0.00829248
0.00826589
0.00803606
0.0079935
0.00792953
0.00799542
0.00802953
0.00786411
0.00768217
0.00769628
0.00758581
0.00731443
0.00651674
0.00570497
0.00458937
0.003682
0.00264113
0.0017067
0.00108253
0.000523121
0.000301346
0.000253299
0.000235554
0.000223517
0.000221217
0.000216596
0.000214376
0.00021665
0.000216639
0.00833335
0.00833335
0.00833335
0.00833335
0.00833335
0.00833335
0.00833335
0.00833335
0.00833335
0.00833335
0.00833335
0.00833335
0.00833335
0.00833335
0.00833335
0.00833335
0.00833335
0.00833335
0.00833335
0.00833335
0.00833335
0.00833335
0.00833335
0.00833335
0.00833335
0.00833335
0.00833335
0.00833335
0.00833335
0.00833335
0.00833335
0.00833335
0.00833335
0.00833335
0.00833335
0.00833335
0.00833335
0.00833335
0.00833335
0.00833335
0.00833335
0.00833335
0.00833335
0.00833335
0.00833335
0.00833335
0.00833335
0.00833335
0.00833335
0.00833335
0.00833335
0.00833335
0.00833335
0.00833335
0.00833335
0.00833335
0.00833335
0.00833335
0.00833336
0.0083212
0.00960158
0.00830781
0.00833411
0.00884475
0.00699277
0.00831675
0.00783796
0.0085518
0.00835367
0.00823859
0.00830489
0.0077732
0.00857174
0.00833227
0.00833626
0.00920743
0.00686786
0.00918039
0.00721649
0.00856819
0.00907135
0.00833109
0.00778048
0.00847455
0.00718797
0.00819222
0.00736749
0.00736869
0.00612206
0.00530914
0.00442397
0.00237048
0.000219958
0.000211323
0.000216486
0.000216769
0.00833335
0.00833335
0.00833335
0.00833335
0.00833335
0.00833335
0.00833335
0.00833335
0.00833335
0.00833335
0.00833335
0.00833335
0.00833335
0.00833335
0.00833335
0.00833335
0.00833335
0.00833335
0.00833335
0.00833335
0.00833335
0.00833335
0.00833335
0.00833335
0.00833335
0.00833335
0.00833335
0.00833335
0.00833335
0.00833335
0.00833335
0.00833335
0.00833335
0.00833335
0.00833335
0.00833335
0.00833335
0.00833335
0.00833335
0.00833335
0.00833335
0.00833335
0.00833335
0.00833335
0.00833335
0.00833335
0.00833335
0.00833335
0.00833335
0.00833335
0.00833335
0.00833335
0.00833335
0.00833335
0.00833335
0.00833335
0.00833335
0.00833336
0.00833335
0.00829148
0.0091492
0.00828821
0.00830114
0.00831582
0.00832017
0.00832537
0.00832724
0.00826947
0.00814656
0.00860614
0.00819683
0.00831759
0.00828513
0.00812245
0.00852727
0.00833741
0.00832265
0.00831264
0.00835824
0.00824165
0.00826909
0.00833187
0.00821803
0.00777352
0.00868206
0.00833052
0.00832214
0.00831102
0.00820322
0.00729666
0.00812251
0.00841401
0.00833357
0.00837724
0.00832081
0.00818591
0.00833335
0.00833335
0.00833335
0.00833335
0.00833335
0.00833335
0.00833335
0.00833335
0.00833335
0.00833335
0.00833335
0.00833335
0.00833335
0.00833335
0.00833335
0.00833335
0.00833335
0.00833335
0.00833335
0.00833335
0.00833335
0.00833335
0.00833335
0.00833335
0.00833335
0.00833335
0.00833335
0.00833335
0.00833335
0.00833335
0.00833335
0.00833335
0.00833335
0.00833335
0.00833335
0.00833335
0.00833335
0.00833335
0.00833335
0.00833335
0.00833335
0.00833335
0.00833335
0.00833335
0.00833335
0.00833335
0.00833335
0.00833335
0.00833335
0.00833335
0.00833335
0.00833335
0.00833335
0.00833335
0.00833335
0.00833335
0.00833335
0.00833305
0.00833361
0.00829711
0.00875317
0.00838809
0.00803079
0.00835833
0.00815952
0.00831915
0.00829632
0.00825317
0.0082614
0.00819268
0.00839344
0.00825089
0.00834519
0.00833141
0.00833262
0.00833101
0.00833651
0.00832719
0.00833208
0.00833565
0.00831593
0.00830428
0.00832928
0.0083098
0.00831092
0.00833209
0.00832846
0.00832497
0.00835193
0.0083277
0.00833736
0.00835233
0.00839422
0.0082123
0.008359
0.00833332
0.00833335
0.00833335
0.00833335
0.00833335
0.00833335
0.00833335
0.00833335
0.00833335
0.00833335
0.00833335
0.00833335
0.00833335
0.00833335
0.00833335
0.00833335
0.00833335
0.00833335
0.00833335
0.00833335
0.00833335
0.00833335
0.00833335
0.00833335
0.00833335
0.00833335
0.00833335
0.00833335
0.00833335
0.00833335
0.00833335
0.00833335
0.00833335
0.00833335
0.00833335
0.00833335
0.00833335
0.00833335
0.00833335
0.00833335
0.00833335
0.00833335
0.00833335
0.00833335
0.00833335
0.00833335
0.00833335
0.00833335
0.00833335
0.00833335
0.00833335
0.00833335
0.00833335
0.00833335
0.00833335
0.00833335
0.00833335
0.00833335
0.00833335
0.00833318
0.00832812
0.00767088
0.00875863
0.00789937
0.0081017
0.00825108
0.00832794
0.00833955
0.00828341
0.00832038
0.00838047
0.00835912
0.0082081
0.00829716
0.00831549
0.00827079
0.00833416
0.00808779
0.00813315
0.00811462
0.00830429
0.00832035
0.00832757
0.00829649
0.00832291
0.00829659
0.00797034
0.00833122
0.00845363
0.00796085
0.00838028
0.00827712
0.00839822
0.00832834
0.00833329
0.008332
0.00833372
0.00833335
0.00833335
0.00833335
0.00833335
0.00833335
0.00833335
0.00833335
0.00833335
0.00833335
0.00833335
0.00833335
0.00833335
0.00833335
0.00833335
0.00833335
0.00833335
0.00833335
0.00833335
0.00833335
0.00833335
0.00833335
0.00833335
0.00833335
0.00833335
0.00833335
0.00833335
0.00833335
0.00833335
0.00833335
0.00833335
0.00833335
0.00833335
0.00833335
0.00833335
0.00833335
0.00833335
0.00833335
0.00833335
0.00833335
0.00833335
0.00833335
0.00833335
0.00833335
0.00833335
0.00833335
0.00833335
0.00833335
0.00833335
0.00833335
0.00833335
0.00833335
0.00833335
0.00833335
0.00833335
0.00833335
0.00833335
0.00833335
0.00833335
0.00833334
0.00832991
0.00861847
0.00855553
0.00829936
0.00845485
0.00829529
0.00828397
0.00837067
0.00816514
0.00836745
0.00824839
0.00826516
0.00818149
0.0082834
0.00824237
0.00831193
0.00828475
0.00825727
0.00830028
0.00843272
0.00839053
0.00827516
0.00812365
0.00843095
0.00822012
0.00816349
0.00817736
0.0080476
0.00775233
0.00723549
0.00560275
0.00521962
0.00492065
0.00496398
0.0048892
0.00446288
0.0018244
0.00833335
0.00833335
0.00833335
0.00833335
0.00833335
0.00833335
0.00833335
0.00833335
0.00833335
0.00833335
0.00833335
0.00833335
0.00833335
0.00833335
0.00833335
0.00833335
0.00833335
0.00833335
0.00833335
0.00833335
0.00833335
0.00833335
0.00833335
0.00833335
0.00833335
0.00833335
0.00833335
0.00833335
0.00833335
0.00833335
0.00833335
0.00833335
0.00833335
0.00833335
0.00833335
0.00833335
0.00833335
0.00833335
0.00833335
0.00833335
0.00833335
0.00833335
0.00833335
0.00833335
0.00833335
0.00833335
0.00833335
0.00833335
0.00833335
0.00833335
0.00833335
0.00833335
0.00833335
0.00833335
0.00833335
0.00833335
0.00833335
0.00833334
0.00833304
0.00833317
0.00831081
0.0018264
0.00750755
0.00263919
0.00329356
0.00226227
0.00221916
0.00183778
0.0017612
0.00156604
0.00149407
0.00145251
0.00142551
0.00139455
0.0013945
0.00139414
0.00138529
0.00136468
0.00134739
0.00131513
0.00131982
0.00128633
0.0012637
0.00122977
0.0011639
0.00101676
0.000755293
0.000489898
0.000358942
0.000240863
0.000223504
0.000221344
0.000216585
0.000216651
0.000216654
0.000218926
0.00833335
0.00833335
0.00833335
0.00833335
0.00833335
0.00833335
0.00833335
0.00833335
0.00833335
0.00833335
0.00833335
0.00833335
0.00833335
0.00833335
0.00833335
0.00833335
0.00833335
0.00833335
0.00833335
0.00833335
0.00833335
0.00833335
0.00833335
0.00833335