/*--------------------------------*- C++ -*----------------------------------*\
| =========                 |                                                 |
| \\      /  F ield         | OpenFOAM: The Open Source CFD Toolbox           |
|  \\    /   O peration     | Version:  2.3.0                                 |
|   \\  /    A nd           | Web:      www.OpenFOAM.org                      |
|    \\/     M anipulation  |                                                 |
\*---------------------------------------------------------------------------*/
FoamFile
{
    version     2.0;
    format      ascii;
    class       volScalarField;
    location    "18";
    object      k.water;
}
// * * * * * * * * * * * * * * * * * * * * * * * * * * * * * * * * * * * * * //

dimensions      [0 2 -2 0 0 0 0];

internalField   nonuniform List<scalar> 
6144
(
8.8499e-05
5.74562e-05
4.48153e-05
4.0035e-05
2.95298e-05
2.3558e-05
1.83622e-05
1.63928e-05
1.51368e-05
1.51518e-05
1.76889e-05
2.15122e-05
2.2976e-05
2.34192e-05
2.26746e-05
2.20896e-05
2.15672e-05
2.12483e-05
2.09871e-05
2.08291e-05
2.07411e-05
2.07175e-05
2.07411e-05
2.07986e-05
2.08717e-05
2.09562e-05
2.10462e-05
2.11594e-05
2.12785e-05
2.13925e-05
2.15133e-05
2.16074e-05
2.17389e-05
2.17798e-05
2.19765e-05
2.19195e-05
2.22222e-05
2.20305e-05
2.24249e-05
2.22646e-05
2.27693e-05
2.31874e-05
2.36533e-05
2.54409e-05
2.50075e-05
2.72902e-05
2.44285e-05
2.52355e-05
2.31021e-05
2.79776e-05
4.27522e-05
5.34277e-05
9.44788e-05
0.000202856
0.000348635
0.000614955
0.000887444
0.00179254
0.00297671
0.00434975
0.00842048
0.00567714
0.00404295
0.00296472
0.00232015
0.00190434
0.00162811
0.00143202
0.00128145
0.00115902
0.00105448
0.00096356
0.000883114
0.00081222
0.000749865
0.000695637
0.000649279
0.000610123
0.000580136
0.00055579
0.000538731
0.000525259
0.000514395
0.000506377
0.000496391
0.000487898
0.000475138
0.000464954
0.000447014
0.000425869
0.000388983
0.000272183
8.63767e-05
8.34774e-05
9.72475e-05
0.000102839
0.000131801
9.30936e-05
7.52931e-05
6.21107e-05
4.42747e-05
3.92481e-05
3.23846e-05
3.16462e-05
3.54661e-05
4.1432e-05
4.63532e-05
5.00308e-05
5.03398e-05
4.95781e-05
4.79446e-05
4.73767e-05
4.7372e-05
4.7716e-05
4.81116e-05
4.85115e-05
4.88898e-05
4.92565e-05
4.96273e-05
4.99962e-05
5.03405e-05
5.06644e-05
5.09638e-05
5.12689e-05
5.15719e-05
5.18745e-05
5.21841e-05
5.24631e-05
5.27656e-05
5.29466e-05
5.33219e-05
5.32528e-05
5.37521e-05
5.33334e-05
5.39544e-05
5.32716e-05
5.41701e-05
5.38308e-05
5.45438e-05
5.65601e-05
5.60671e-05
6.0378e-05
5.76646e-05
6.02798e-05
5.45069e-05
6.72654e-05
8.49762e-05
0.000104748
0.000167176
0.000361842
0.000752405
0.00116704
0.00202736
0.00341234
0.00475731
0.00392318
0.00521621
0.00196271
0.00223268
0.00192932
0.00170914
0.00155593
0.00141389
0.00128873
0.00118459
0.00109477
0.00100766
0.000929356
0.000857644
0.000791779
0.000733976
0.000686984
0.000650663
0.000622087
0.000603527
0.000591677
0.000582759
0.000574297
0.0005677
0.00055829
0.000548281
0.000538993
0.000523369
0.000506394
0.000479196
0.000446129
0.000405035
0.000297064
0.000113036
9.88729e-05
0.000114888
0.000118572
0.000150809
0.000120235
0.000104379
8.92222e-05
6.32727e-05
5.69184e-05
4.55911e-05
4.09878e-05
4.64136e-05
5.27296e-05
5.73474e-05
6.11725e-05
6.05731e-05
5.81109e-05
5.72466e-05
5.74831e-05
5.82463e-05
5.93556e-05
6.04826e-05
6.15158e-05
6.24158e-05
6.32008e-05
6.39098e-05
6.45628e-05
6.51516e-05
6.56876e-05
6.61661e-05
6.66095e-05
6.70369e-05
6.74674e-05
6.78979e-05
6.83126e-05
6.87071e-05
6.90457e-05
6.94636e-05
6.95309e-05
6.99959e-05
6.96026e-05
7.0107e-05
6.90319e-05
6.97153e-05
6.81815e-05
6.89531e-05
6.92547e-05
7.03992e-05
7.57389e-05
7.71676e-05
8.83889e-05
8.46013e-05
0.000114471
0.000116336
0.000153142
0.000205579
0.000390627
0.000924851
0.00147626
0.00198667
0.0033425
0.00353341
0.00241181
0.00398214
0.0012514
0.00140588
0.0013281
0.00129814
0.00122624
0.00112748
0.00105402
0.00098317
0.000920462
0.000865304
0.000814354
0.000765297
0.000716942
0.000676808
0.000643963
0.000622021
0.000605929
0.00059485
0.000589559
0.000574051
0.00055379
0.000533025
0.000513158
0.000501856
0.0004903
0.000489543
0.000486953
0.000473264
0.000443743
0.000401953
0.000287574
0.000120527
0.000124496
0.000142006
0.000142091
0.000169206
0.000135329
0.000120332
0.000115592
8.58971e-05
7.53159e-05
5.25482e-05
4.67699e-05
4.96927e-05
5.59154e-05
6.05454e-05
6.31902e-05
6.21222e-05
5.94719e-05
5.87084e-05
5.91186e-05
6.00317e-05
6.12867e-05
6.25566e-05
6.37241e-05
6.47402e-05
6.5604e-05
6.6354e-05
6.70288e-05
6.7643e-05
6.81949e-05
6.86819e-05
6.91245e-05
6.95464e-05
6.99682e-05
7.03892e-05
7.0802e-05
7.11938e-05
7.15502e-05
7.18925e-05
7.20388e-05
7.2362e-05
7.21143e-05
7.23677e-05
7.14598e-05
7.18629e-05
7.03643e-05
7.14017e-05
7.07357e-05
7.41092e-05
7.8947e-05
8.72768e-05
0.000100409
0.000110172
0.000131375
0.000131532
0.000169524
0.0002599
0.000445375
0.00114331
0.00190975
0.00234995
0.00361939
0.00242046
0.00173493
0.00344256
0.00100287
0.000839124
0.0010776
0.00110677
0.000995428
0.000865918
0.00079546
0.000743476
0.000704511
0.000668212
0.00063248
0.000608239
0.000629236
0.000658365
0.000667708
0.00066839
0.000651986
0.000645239
0.000632842
0.000599433
0.00055749
0.000510136
0.000474273
0.000459508
0.00045379
0.000458355
0.000456572
0.000442764
0.000417428
0.000377768
0.000238471
0.000124452
0.000145315
0.00016075
0.0001539
0.000193946
0.000143818
0.000124404
0.00012395
0.000102404
9.50044e-05
6.35681e-05
5.45202e-05
5.29056e-05
5.8329e-05
6.44e-05
6.56557e-05
6.33627e-05
5.957e-05
5.85245e-05
5.87507e-05
6.00178e-05
6.16298e-05
6.31937e-05
6.45478e-05
6.56686e-05
6.66005e-05
6.73826e-05
6.80569e-05
6.86285e-05
6.91147e-05
6.95295e-05
6.98853e-05
7.02176e-05
7.05476e-05
7.08742e-05
7.12047e-05
7.15036e-05
7.1795e-05
7.20218e-05
7.21493e-05
7.2262e-05
7.20219e-05
7.18819e-05
7.09731e-05
7.0725e-05
6.93736e-05
6.95237e-05
7.00952e-05
7.29099e-05
8.12867e-05
9.18118e-05
0.000105417
0.000122635
0.000135181
0.000136742
0.000188859
0.000328415
0.00062573
0.00162596
0.00273107
0.0042509
0.00434421
0.00180236
0.00151007
0.00263047
0.0009239
0.000796889
0.000784486
0.000719704
0.000697119
0.000701863
0.000729602
0.000739401
0.000742047
0.000740772
0.000744825
0.000762039
0.000774767
0.000781242
0.000784699
0.000781218
0.000750757
0.000709073
0.00066257
0.000603828
0.000545729
0.000482344
0.00042273
0.000386747
0.000375735
0.000384688
0.000392827
0.00039254
0.000366416
0.000291096
0.000161259
0.00013601
0.000160722
0.000171521
0.000157731
0.000234096
0.000157417
0.000121079
0.000121527
0.000106673
0.000103354
7.99555e-05
6.29623e-05
5.83592e-05
6.29537e-05
7.03235e-05
6.88141e-05
6.53523e-05
6.00702e-05
5.85312e-05
5.83475e-05
5.99357e-05
6.18707e-05
6.36622e-05
6.51192e-05
6.62567e-05
6.71649e-05
6.79046e-05
6.85187e-05
6.90285e-05
6.94476e-05
6.978e-05
7.00403e-05
7.0247e-05
7.04305e-05
7.06048e-05
7.07825e-05
7.09276e-05
7.10862e-05
7.11625e-05
7.11799e-05
7.11471e-05
7.07728e-05
7.04984e-05
6.94455e-05
6.89765e-05
6.77565e-05
6.73375e-05
6.88626e-05
7.1146e-05
8.18048e-05
9.40472e-05
0.000109244
0.000130144
0.000135456
0.000140737
0.000207045
0.00037571
0.000732678
0.00198255
0.0034359
0.00445718
0.00432983
0.00184965
0.00173286
0.00222543
0.00104265
0.000957553
0.000914894
0.000903526
0.000888561
0.000894189
0.00089806
0.000902354
0.0009065
0.000913242
0.00091887
0.000923687
0.000927384
0.000925045
0.000913202
0.0008901
0.000853132
0.000818106
0.000766748
0.000701093
0.000629174
0.000533647
0.00044228
0.000370346
0.00031466
0.000288198
0.000278537
0.0002688
0.000241873
0.000191764
0.000158853
0.000160694
0.000174943
0.000178964
0.00015644
0.00025747
0.000210036
0.000115468
0.000104947
0.000100861
0.000103909
8.80556e-05
7.12854e-05
6.74739e-05
6.98784e-05
7.68772e-05
7.01662e-05
6.63297e-05
5.70734e-05
5.43803e-05
5.29157e-05
5.47194e-05
5.69257e-05
5.93166e-05
6.12883e-05
6.27583e-05
6.38039e-05
6.45133e-05
6.502e-05
6.53749e-05
6.55925e-05
6.57248e-05
6.58366e-05
6.59529e-05
6.60629e-05
6.61366e-05
6.61914e-05
6.61843e-05
6.62097e-05
6.60385e-05
6.5971e-05
6.54592e-05
6.5202e-05
6.39625e-05
6.33608e-05
6.12979e-05
6.1407e-05
5.92524e-05
6.33973e-05
6.54738e-05
7.95981e-05
9.41691e-05
0.00010831
0.000125901
0.000129541
0.000143264
0.00022384
0.000377308
0.000668296
0.00151921
0.00286982
0.00413888
0.00412782
0.00206239
0.0020084
0.00206176
0.0013796
0.00135364
0.0013049
0.00127737
0.00122798
0.00121575
0.00119609
0.00118727
0.00117148
0.00116451
0.00115231
0.00113383
0.00110968
0.00107605
0.00104201
0.00100447
0.00096891
0.000939533
0.000902276
0.0008652
0.000822842
0.000764046
0.00068555
0.000590582
0.00048842
0.000395191
0.000323917
0.000291841
0.000283168
0.000281891
0.000305144
0.000313087
0.000239259
0.000198391
0.000159278
0.000291634
0.000301903
0.000130574
9.85463e-05
8.16766e-05
8.01197e-05
7.83385e-05
7.11497e-05
6.95136e-05
6.99645e-05
7.67105e-05
6.8271e-05
6.60807e-05
5.55817e-05
5.25777e-05
4.97573e-05
5.14616e-05
5.35157e-05
5.60723e-05
5.8177e-05
5.98457e-05
6.11293e-05
6.2098e-05
6.28327e-05
6.33978e-05
6.38269e-05
6.41524e-05
6.43862e-05
6.45329e-05
6.46439e-05
6.47103e-05
6.47461e-05
6.47108e-05
6.46965e-05
6.45073e-05
6.44584e-05
6.38557e-05
6.3733e-05
6.22383e-05
6.19157e-05
5.96469e-05
6.00083e-05
5.78915e-05
6.20072e-05
6.47795e-05
7.78328e-05
9.36256e-05
0.000102735
0.000115657
0.000122553
0.000155265
0.00025389
0.00041365
0.000723113
0.00133737
0.00221496
0.00377749
0.00429497
0.00227181
0.00223476
0.0020566
0.00172587
0.00176073
0.00174114
0.00164141
0.00157737
0.00152449
0.00147367
0.00142802
0.00137562
0.00132689
0.00126686
0.00120344
0.00112693
0.00105068
0.000980312
0.00092397
0.000891626
0.000873309
0.000869377
0.00087032
0.000868788
0.000859379
0.000830607
0.000783365
0.000729303
0.000676109
0.000626433
0.000582684
0.000538111
0.000506006
0.000470894
0.000431033
0.000376605
0.000324687
0.00029552
0.000307268
0.000372468
0.000166132
0.000104468
6.74456e-05
5.5522e-05
5.58054e-05
5.70227e-05
5.73371e-05
5.7377e-05
6.22723e-05
5.32174e-05
5.26513e-05
4.21244e-05
3.84283e-05
3.57297e-05
3.72307e-05
3.88977e-05
4.10581e-05
4.28591e-05
4.43738e-05
4.55878e-05
4.6553e-05
4.73162e-05
4.79241e-05
4.84323e-05
4.88184e-05
4.90902e-05
4.92953e-05
4.94632e-05
4.95916e-05
4.96806e-05
4.97144e-05
4.97388e-05
4.96391e-05
4.96225e-05
4.9088e-05
4.91067e-05
4.77694e-05
4.78388e-05
4.59547e-05
4.67931e-05
4.52473e-05
4.91864e-05
5.1832e-05
6.20932e-05
7.47113e-05
7.8822e-05
8.40037e-05
8.94872e-05
0.000122524
0.000214776
0.00037121
0.000640515
0.00121152
0.00241391
0.00414624
0.00492334
0.002225
0.00216907
0.00208628
0.00162222
0.0016099
0.00153689
0.0013942
0.00128369
0.00121735
0.00111831
0.00106356
0.000977075
0.000928192
0.000836365
0.000759731
0.000667582
0.000580968
0.000517128
0.000473771
0.000454372
0.000439122
0.000432369
0.000431254
0.000434832
0.000446977
0.000470396
0.000488638
0.000492237
0.00045471
0.000428132
0.000398708
0.000378109
0.000356011
0.000340356
0.000326085
0.000305179
0.000278212
0.000248622
0.000363217
0.00047522
0.000238384
0.000118706
6.21316e-05
4.12057e-05
4.22208e-05
4.03331e-05
4.00791e-05
4.0448e-05
4.23631e-05
3.80903e-05
3.66911e-05
2.82872e-05
2.53173e-05
2.34178e-05
2.45164e-05
2.5727e-05
2.73077e-05
2.86517e-05
2.98215e-05
3.0778e-05
3.15631e-05
3.22055e-05
3.27382e-05
3.31693e-05
3.35008e-05
3.37634e-05
3.4011e-05
3.42446e-05
3.44508e-05
3.46202e-05
3.47548e-05
3.48557e-05
3.49039e-05
3.49391e-05
3.47835e-05
3.47872e-05
3.4133e-05
3.41074e-05
3.33573e-05
3.38265e-05
3.35359e-05
3.59891e-05
3.86518e-05
4.49919e-05
5.23096e-05
5.49414e-05
5.62974e-05
6.62475e-05
9.91444e-05
0.000195699
0.000346791
0.000625528
0.00137941
0.00299682
0.00497623
0.00485237
0.00208501
0.00199873
0.00223731
0.00139264
0.00132026
0.00118579
0.000971721
0.000767771
0.000682898
0.000574653
0.000535841
0.000499601
0.000483484
0.000463748
0.000450939
0.000439154
0.000435582
0.000427654
0.000417273
0.000405966
0.000393937
0.000383525
0.000372342
0.000355545
0.000331297
0.000306211
0.000296062
0.000299148
0.000302827
0.000294546
0.000275926
0.000254626
0.000239739
0.000226759
0.000215452
0.000201745
0.000183887
0.000158144
0.000463279
0.000634597
0.000314476
0.000135915
5.90617e-05
3.14747e-05
3.02081e-05
2.86186e-05
3.20914e-05
3.44658e-05
3.2831e-05
3.03025e-05
2.59341e-05
1.95079e-05
1.74248e-05
1.6049e-05
1.65497e-05
1.71721e-05
1.80552e-05
1.88409e-05
1.95703e-05
2.01997e-05
2.07539e-05
2.12378e-05
2.16652e-05
2.20347e-05
2.23373e-05
2.25948e-05
2.28453e-05
2.31031e-05
2.33578e-05
2.36007e-05
2.38172e-05
2.40132e-05
2.4189e-05
2.43664e-05
2.45042e-05
2.46197e-05
2.45564e-05
2.46718e-05
2.47604e-05
2.50922e-05
2.58174e-05
2.69202e-05
2.95761e-05
3.24531e-05
3.70754e-05
3.88181e-05
4.19892e-05
5.57273e-05
0.000102072
0.000201264
0.000350632
0.000603049
0.00126112
0.00242581
0.00523318
0.00501218
0.00189516
0.00168717
0.00277668
0.00114592
0.000991278
0.000923633
0.000839166
0.000592657
0.000492038
0.000450878
0.000440679
0.00044522
0.000454869
0.000471964
0.000491028
0.000506721
0.000518893
0.000526584
0.00052988
0.000529389
0.000522107
0.000500973
0.000479586
0.000459006
0.000416111
0.000345437
0.000266377
0.000228386
0.000217268
0.000220097
0.000221512
0.000216963
0.000205305
0.000189077
0.000169051
0.000149255
0.000127366
0.000112658
0.000668353
0.000854246
0.000457612
9.59095e-05
4.17092e-05
2.55522e-05
2.39411e-05
2.45372e-05
2.99555e-05
3.3095e-05
2.96506e-05
2.7333e-05
1.9858e-05
1.52015e-05
1.36327e-05
1.30186e-05
1.31008e-05
1.32907e-05
1.36357e-05
1.39514e-05
1.42803e-05
1.45792e-05
1.48695e-05
1.51411e-05
1.53986e-05
1.56331e-05
1.58613e-05
1.60987e-05
1.63676e-05
1.66722e-05
1.70061e-05
1.73118e-05
1.75766e-05
1.78349e-05
1.8056e-05
1.82969e-05
1.84938e-05
1.86932e-05
1.87584e-05
1.90389e-05
1.91721e-05
1.97304e-05
2.02855e-05
2.13262e-05
2.34632e-05
2.53717e-05
2.91281e-05
3.02691e-05
3.47162e-05
4.93952e-05
0.000104208
0.000193003
0.000321867
0.000514555
0.00110668
0.00222725
0.00370742
0.004352
0.0022863
0.0017008
0.00303262
0.000988859
0.000838455
0.000852282
0.000842481
0.000700634
0.000605749
0.000590821
0.000594631
0.000607387
0.000627716
0.000649349
0.000668606
0.000683182
0.000691383
0.000692246
0.000689246
0.000679235
0.000659489
0.000631829
0.000604087
0.000584166
0.000562334
0.00053687
0.000482148
0.000353122
0.000209376
0.000164607
0.000158667
0.000155701
0.000147667
0.000129423
0.000108226
9.02957e-05
7.63509e-05
6.9059e-05
0.000739268
0.000468019
0.000200086
5.31961e-05
3.40839e-05
2.39128e-05
2.06536e-05
2.17089e-05
2.78324e-05
3.11797e-05
2.90579e-05
2.58258e-05
1.90303e-05
1.49033e-05
1.32744e-05
1.27079e-05
1.26242e-05
1.26698e-05
1.27594e-05
1.28531e-05
1.2952e-05
1.30432e-05
1.31472e-05
1.32543e-05
1.33618e-05
1.34668e-05
1.35812e-05
1.37095e-05
1.38626e-05
1.4045e-05
1.42401e-05
1.44477e-05
1.46622e-05
1.4876e-05
1.50491e-05
1.52171e-05
1.53304e-05
1.55135e-05
1.56924e-05
1.59354e-05
1.62846e-05
1.66504e-05
1.74482e-05
1.79229e-05
1.95306e-05
2.00945e-05
2.30605e-05
2.42031e-05
2.86712e-05
4.24403e-05
0.000101831
0.000185551
0.000296694
0.000463104
0.000858654
0.00162104
0.00257456
0.00358696
0.0032141
0.00200464
0.00365475
0.00102092
0.00084826
0.00110073
0.00115917
0.00106832
0.000925421
0.000863062
0.00082659
0.000824347
0.000830671
0.000842756
0.000858859
0.00086001
0.00085625
0.000850238
0.000837708
0.000821513
0.000796621
0.000765542
0.00072838
0.000689617
0.000651933
0.000610407
0.000565404
0.000503947
0.00044913
0.000350538
0.000205631
0.000134778
0.000114959
0.000101333
8.6742e-05
8.15443e-05
8.11099e-05
7.42818e-05
0.000695624
0.000246733
0.000136669
7.53592e-05
8.5938e-05
5.88833e-05
2.73535e-05
1.70937e-05
2.22839e-05
2.46389e-05
2.51934e-05
1.99434e-05
1.59765e-05
1.33309e-05
1.24602e-05
1.18595e-05
1.17685e-05
1.17259e-05
1.17714e-05
1.18027e-05
1.18326e-05
1.18334e-05
1.18128e-05
1.17594e-05
1.17126e-05
1.167e-05
1.16517e-05
1.16747e-05
1.17459e-05
1.18389e-05
1.19518e-05
1.2072e-05
1.22042e-05
1.23605e-05
1.25094e-05
1.2649e-05
1.27425e-05
1.28591e-05
1.30412e-05
1.32357e-05
1.36351e-05
1.39015e-05
1.46786e-05
1.49922e-05
1.62129e-05
1.64382e-05
1.86768e-05
1.97366e-05
2.36157e-05
3.44828e-05
9.25769e-05
0.000164216
0.000246186
0.000492517
0.000680227
0.00119647
0.00228647
0.00329534
0.00404297
0.00264086
0.00428775
0.00122995
0.00140199
0.00137991
0.00134477
0.00132568
0.00127119
0.00119725
0.00113582
0.0010924
0.00106382
0.00103842
0.00102633
0.00101004
0.000997565
0.000976409
0.000945143
0.000913346
0.000872765
0.000826187
0.000771138
0.000722141
0.000683077
0.000643667
0.000592324
0.000540949
0.000489422
0.000433168
0.000360089
0.000270048
0.000191459
0.000141796
0.000117357
0.000120431
0.000126496
9.79899e-05
0.00080119
0.00036278
0.000228853
0.000176322
0.00033842
0.000313885
0.000117183
1.63933e-05
1.31295e-05
1.39185e-05
1.47196e-05
1.20098e-05
1.06672e-05
9.83912e-06
9.82076e-06
9.42566e-06
9.41112e-06
9.33598e-06
9.35291e-06
9.3337e-06
9.33415e-06
9.32993e-06
9.35422e-06
9.40316e-06
9.46036e-06
9.52358e-06
9.60215e-06
9.70556e-06
9.83873e-06
9.99035e-06
1.01671e-05
1.03413e-05
1.05132e-05
1.06923e-05
1.08637e-05
1.10325e-05
1.11899e-05
1.13446e-05
1.15557e-05
1.1748e-05
1.21446e-05
1.2382e-05
1.30882e-05
1.33644e-05
1.44253e-05
1.45798e-05
1.65749e-05
1.7555e-05
2.05259e-05
2.94923e-05
6.85307e-05
0.000113598
0.000166196
0.000364645
0.000681236
0.00114728
0.00231129
0.00359537
0.00509787
0.00406281
0.00551114
0.00220375
0.00210858
0.0018014
0.00168145
0.00162879
0.00156402
0.00148423
0.00140223
0.0013189
0.00124782
0.00117947
0.00112243
0.0010746
0.0010328
0.000995011
0.000955666
0.000912459
0.000863931
0.000813362
0.000758253
0.000710945
0.000665612
0.000616558
0.000570308
0.000525164
0.000481095
0.000436596
0.000388688
0.000337249
0.000285093
0.000239843
0.000205032
0.000178465
0.000154972
0.000104115
0.000804567
0.000652845
0.000612246
0.000510979
0.000501578
0.000469218
0.000316519
4.84978e-05
1.20915e-05
8.98696e-06
8.71981e-06
7.53962e-06
7.07043e-06
6.70664e-06
6.66654e-06
6.51054e-06
6.52873e-06
6.51946e-06
6.56236e-06
6.59663e-06
6.65012e-06
6.70723e-06
6.77537e-06
6.84782e-06
6.92557e-06
7.00739e-06
7.09492e-06
7.18857e-06
7.28967e-06
7.40045e-06
7.53429e-06
7.67536e-06
7.81638e-06
7.96017e-06
8.09891e-06
8.2363e-06
8.37392e-06
8.50122e-06
8.65759e-06
8.78707e-06
9.09002e-06
9.26348e-06
9.76625e-06
9.937e-06
1.0717e-05
1.08243e-05
1.23087e-05
1.34383e-05
1.60085e-05
2.20295e-05
4.12344e-05
6.70073e-05
0.000124139
0.000244775
0.000463601
0.000654319
0.00121041
0.00175691
0.00285715
0.00426407
0.00850737
0.00591365
0.00435126
0.00330187
0.00263346
0.00219133
0.00188868
0.00167889
0.00152594
0.00140704
0.00131125
0.00122991
0.00116001
0.00109818
0.00104312
0.000991833
0.00094335
0.000896062
0.000847774
0.000798268
0.000745384
0.000694303
0.000642187
0.00058743
0.000535917
0.000492185
0.000451656
0.000407897
0.000362783
0.000319892
0.000280068
0.000244359
0.000213913
0.000184251
0.000156939
0.000101294
0.000176696
0.000105675
6.75787e-05
5.37756e-05
4.08833e-05
3.70163e-05
3.28684e-05
3.26429e-05
3.51796e-05
4.47763e-05
5.75714e-05
7.13104e-05
7.42538e-05
7.40188e-05
6.90267e-05
6.52036e-05
6.17513e-05
5.95687e-05
5.79782e-05
5.70389e-05
5.65109e-05
5.63211e-05
5.63706e-05
5.65953e-05
5.68986e-05
5.72456e-05
5.76207e-05
5.80622e-05
5.85193e-05
5.89718e-05
5.94316e-05
5.98255e-05
6.03174e-05
6.04718e-05
6.1198e-05
6.08983e-05
6.22069e-05
6.12669e-05
6.34865e-05
6.23726e-05
6.58625e-05
6.59919e-05
7.02465e-05
7.23473e-05
7.3934e-05
7.31164e-05
6.29139e-05
5.69551e-05
4.22483e-05
5.17029e-05
8.70128e-05
8.63602e-05
0.000141352
0.000213441
0.000440031
0.000895127
0.00173749
0.00285068
0.00380424
0.00503498
0.00633675
0.00479762
0.00363277
0.0028676
0.00238547
0.00205017
0.00180522
0.00161233
0.00145635
0.0013231
0.0012076
0.00110605
0.00101761
0.000941063
0.000874339
0.000817924
0.000770639
0.000732293
0.000702573
0.000682883
0.000671094
0.000660025
0.000653693
0.000642354
0.000625136
0.000606584
0.000587245
0.000562558
0.000537338
0.000496801
0.000457216
0.000378726
0.000181798
9.99672e-05
0.000124484
0.000135477
0.000323769
0.000217701
0.000156472
0.00012517
0.00011225
0.000111221
0.000111587
0.00011838
0.000130307
0.000148705
0.000156828
0.000165372
0.000162408
0.00015625
0.000149404
0.000145668
0.000143176
0.000142314
0.000142113
0.000142418
0.00014295
0.000143647
0.000144511
0.00014549
0.0001465
0.000147486
0.000148422
0.000149344
0.000150262
0.000151197
0.000152152
0.000153066
0.000154034
0.000154706
0.000155788
0.000155887
0.000157365
0.000156681
0.000158864
0.000157701
0.000160984
0.000160276
0.000165061
0.000165728
0.000171212
0.000170359
0.000166477
0.000156889
0.000143342
0.000173503
0.00023329
0.0002628
0.000361572
0.000573694
0.00137383
0.00274939
0.0045605
0.00699082
0.0129034
0.0140501
0.00247222
0.00142134
0.00246408
0.00239124
0.00215022
0.00190901
0.00169474
0.00152809
0.00141352
0.00134126
0.00129774
0.00125503
0.00121512
0.00117985
0.00115126
0.0011435
0.00114888
0.0011642
0.00119598
0.00122515
0.00122443
0.00121023
0.00117552
0.00111139
0.00104821
0.00096736
0.000880063
0.000790291
0.000687377
0.000602048
0.000512126
0.000453576
0.000305304
0.000222122
0.000200439
0.000158471
0.000371975
0.000266384
0.000221286
0.000169726
0.000151347
0.000148936
0.000152205
0.000168377
0.000173889
0.000186661
0.000189767
0.000188806
0.000181557
0.000171952
0.000165828
0.000163788
0.0001639
0.000165673
0.000167923
0.000170205
0.000172251
0.000174029
0.000175629
0.000177116
0.000178508
0.000179782
0.000180897
0.000181873
0.000182817
0.000183769
0.000184716
0.000185635
0.000186515
0.00018732
0.000188116
0.00018855
0.000189206
0.000188975
0.00018944
0.000188257
0.000188937
0.000187425
0.000189469
0.000190786
0.000197406
0.000204574
0.000215509
0.000220952
0.00023669
0.000278351
0.000314617
0.000372758
0.000533848
0.000870193
0.00179395
0.00303216
0.00433544
0.00671843
0.0100149
0.00890281
0.00220751
0.0022298
0.00311491
0.00225342
0.001932
0.00161592
0.00140143
0.00137605
0.00140779
0.00144779
0.00146662
0.0014862
0.00153428
0.00156905
0.00159309
0.00160233
0.00162622
0.00163781
0.00162746
0.00159214
0.00152221
0.00144078
0.00134553
0.0012416
0.0011605
0.00107571
0.000992477
0.000893964
0.000794995
0.000672745
0.000547686
0.000457969
0.000298886
0.00025834
0.000249948
0.000190341
0.000466358
0.00032499
0.000277786
0.000229876
0.00020753
0.000193389
0.000180536
0.000183171
0.000182975
0.00019293
0.000199724
0.000198141
0.000190492
0.000178888
0.000172823
0.000170921
0.000172073
0.000175126
0.000178818
0.000182308
0.00018531
0.000187836
0.000189924
0.00019174
0.000193368
0.00019482
0.000196056
0.000197085
0.000198073
0.000199046
0.00019998
0.000200863
0.000201642
0.000202426
0.000203032
0.000203548
0.000203751
0.000203651
0.000203052
0.000201899
0.000200862
0.00019952
0.000200071
0.000202837
0.000210886
0.000226817
0.00024646
0.000265898
0.000290799
0.000321978
0.000347996
0.000413237
0.000620926
0.0009488
0.00227335
0.00387039
0.00495313
0.00626871
0.00709426
0.00509692
0.00215584
0.0024268
0.00195976
0.00178054
0.00176142
0.00142167
0.00152102
0.00153315
0.00153209
0.00154134
0.00155222
0.00157125
0.00159937
0.00171273
0.00185807
0.00190164
0.00190139
0.00182753
0.00169611
0.00153972
0.00138549
0.0012452
0.00111659
0.00101017
0.00093281
0.000884929
0.000857692
0.00080949
0.000748091
0.000645984
0.000530547
0.000421872
0.000274739
0.000265123
0.000259731
0.000198686
0.000625648
0.000384634
0.000301038
0.000259537
0.000244408
0.000223848
0.000198694
0.000187188
0.00019152
0.000199046
0.000211841
0.000207002
0.000200868
0.000186087
0.000178883
0.000174106
0.000175744
0.000179421
0.000184082
0.000188321
0.000191886
0.00019487
0.000197298
0.000199324
0.00020106
0.000202551
0.000203809
0.000204889
0.000205951
0.000206953
0.00020785
0.000208677
0.000209361
0.000210104
0.000210517
0.000211073
0.00021088
0.000210957
0.000209476
0.000208687
0.000206218
0.000206078
0.000204758
0.000212066
0.000218237
0.00024079
0.000262081
0.000286376
0.000316046
0.000335412
0.000356758
0.000444198
0.000683155
0.00118936
0.00272395
0.00505739
0.0074082
0.00836476
0.00326839
0.00266968
0.00211277
0.00214097
0.00182283
0.00166252
0.00168171
0.00145327
0.00152581
0.0016884
0.00182195
0.00187912
0.00190273
0.00190974
0.0018907
0.00187504
0.0017972
0.00169173
0.00159126
0.00147822
0.00136979
0.00126154
0.00115094
0.00104693
0.000936477
0.000830401
0.000737402
0.000673489
0.000648474
0.000635984
0.000616383
0.00054488
0.000440539
0.00030477
0.000252264
0.000270547
0.00025922
0.000197871
0.000919134
0.000434565
0.000315317
0.000268889
0.000254619
0.00023252
0.000209262
0.00018669
0.000194206
0.000202325
0.000217516
0.000209898
0.000204704
0.00018766
0.000180017
0.000173324
0.000175518
0.000179636
0.000185049
0.000189797
0.000193763
0.000197019
0.000199612
0.000201734
0.000203513
0.000205005
0.00020625
0.000207342
0.000208441
0.000209447
0.000210311
0.000211087
0.000211695
0.000212379
0.00021263
0.00021316
0.000212671
0.000212825
0.000210726
0.000210264
0.000206587
0.000207589
0.000204174
0.000214318
0.000219686
0.000245537
0.000269158
0.000292251
0.000321595
0.000337357
0.000359426
0.000469998
0.000701638
0.00136473
0.00337941
0.00633279
0.00774791
0.00768509
0.0020963
0.00200749
0.00281729
0.00238194
0.00241312
0.00230765
0.00226908
0.00206405
0.00202399
0.00200779
0.00200491
0.00197027
0.00194176
0.00190965
0.00185703
0.00179841
0.00174537
0.00171415
0.0016864
0.00162698
0.00155269
0.00144563
0.00131317
0.00118515
0.00104871
0.000927248
0.000798987
0.00067359
0.0005611
0.000489227
0.00043838
0.000393298
0.000352278
0.000315644
0.000301972
0.000289556
0.000260317
0.000192549
0.00100781
0.000500602
0.000328159
0.000256625
0.000233318
0.000225933
0.000208893
0.000180275
0.0001884
0.000200769
0.000217711
0.000201228
0.000200389
0.000174362
0.000164881
0.000152558
0.000154913
0.000159052
0.000166265
0.000172621
0.000177997
0.000182257
0.00018547
0.000187836
0.000189624
0.000190948
0.000191984
0.000193019
0.000194289
0.000195322
0.000196057
0.00019663
0.000196895
0.000197304
0.000196808
0.000197206
0.000195263
0.000196032
0.000190862
0.000192278
0.00018356
0.000188953
0.000179714
0.000197788
0.000202524
0.00023701
0.000267928
0.000285324
0.000299466
0.000323528
0.000356473
0.000498881
0.000742259
0.00120025
0.00254389
0.00466738
0.00663848
0.0063135
0.00186106
0.00183317
0.00382571
0.00289861
0.00342317
0.00346206
0.00318685
0.00288607
0.00272179
0.00260167
0.00253428
0.00247226
0.00244698
0.0024314
0.00242823
0.00242325
0.00241294
0.00239646
0.00235076
0.00228462
0.00220025
0.00209471
0.00196332
0.00182162
0.001668
0.00150532
0.00134734
0.00119668
0.00105743
0.000928587
0.000858136
0.000833224
0.000866045
0.000877819
0.000805944
0.000542691
0.000315119
0.000203355
0.00107364
0.000738784
0.000434128
0.000259226
0.000201086
0.000173692
0.000154896
0.000156643
0.000168865
0.000185255
0.000200851
0.000180981
0.000184217
0.000153388
0.000144074
0.000128286
0.000131065
0.000134104
0.000141199
0.000146948
0.000151967
0.000155903
0.000159014
0.000161167
0.000162747
0.000163936
0.000164729
0.000165074
0.000164935
0.000164732
0.000164334
0.000163819
0.000163037
0.000162333
0.000161023
0.000160546
0.000157825
0.000158042
0.000152129
0.000153189
0.000144193
0.000147957
0.000139112
0.000151848
0.000157947
0.000186319
0.000223418
0.00023075
0.000233103
0.000253558
0.000312137
0.000511078
0.000811108
0.00132454
0.00225848
0.00379292
0.00649112
0.00647813
0.00222819
0.00219809
0.00447694
0.00337163
0.00420915
0.0043192
0.00405991
0.00384084
0.00363656
0.0035415
0.00346001
0.00339306
0.00331837
0.00323729
0.00314035
0.00303319
0.00291613
0.00280226
0.00267545
0.00255266
0.00244681
0.0023584
0.00226053
0.00215426
0.00205099
0.00194359
0.00182485
0.00169852
0.00156599
0.00142551
0.00130141
0.00112961
0.000991953
0.000896303
0.00081923
0.000758002
0.000702019
0.00068656
0.00095512
0.00131617
0.000799967
0.000382359
0.000189574
0.000132179
0.00012811
0.000139283
0.000155022
0.000176728
0.000191302
0.000163957
0.000159427
0.000115564
9.78785e-05
8.37088e-05
8.45014e-05
8.58398e-05
9.00392e-05
9.36564e-05
9.69399e-05
9.94721e-05
0.000101467
0.000103145
0.000104213
0.000104605
0.000104585
0.000104455
0.000104465
0.0001044
0.000104264
0.000104039
0.00010356
0.000103198
0.000102207
0.000102049
9.97424e-05
0.000100803
9.6364e-05
9.82791e-05
9.19314e-05
9.65035e-05
8.95891e-05
0.00010148
0.000103292
0.000126276
0.00015587
0.000161235
0.00015658
0.000158957
0.000225585
0.000437827
0.000740891
0.0013021
0.00247196
0.00470511
0.00879923
0.00935685
0.00208097
0.00202064
0.00415922
0.00308717
0.00392357
0.0039429
0.00358134
0.00325131
0.00304837
0.00290679
0.00282894
0.00271835
0.00260656
0.00247822
0.00232751
0.00215863
0.00196512
0.0017732
0.00157733
0.00138758
0.00122711
0.00114327
0.00111088
0.0010988
0.00108622
0.00105813
0.00100669
0.000950211
0.000850751
0.000744032
0.000622639
0.000526173
0.000432775
0.000356659
0.00030936
0.000295289
0.000311051
0.00019502
0.00107337
0.00179569
0.00143597
0.000720517
0.000252349
9.81546e-05
0.000107995
0.000112697
0.000129007
0.000151841
0.000155276
0.000136836
0.000122782
8.98981e-05
7.58963e-05
6.54396e-05
6.51469e-05
6.55019e-05
6.74687e-05
6.92524e-05
7.09802e-05
7.23085e-05
7.32865e-05
7.38987e-05
7.42624e-05
7.45723e-05
7.49576e-05
7.51966e-05
7.52614e-05
7.52046e-05
7.50903e-05
7.48666e-05
7.44285e-05
7.39299e-05
7.31662e-05
7.27879e-05
7.17813e-05
7.23288e-05
6.99822e-05
7.1732e-05
6.76934e-05
7.14483e-05
6.64324e-05
7.28274e-05
7.1278e-05
8.27282e-05
9.81229e-05
0.00010457
0.000101029
0.000116078
0.000179582
0.000378595
0.000708813
0.00135227
0.00295798
0.00640936
0.0101572
0.0087074
0.00208452
0.00204608
0.00356292
0.00243057
0.00306252
0.00269751
0.00236317
0.00185184
0.00167896
0.00149039
0.00142979
0.0013616
0.00133671
0.00133026
0.00133538
0.00134043
0.00132337
0.00126806
0.00118174
0.00106292
0.000938434
0.000858238
0.000827375
0.000827746
0.000816034
0.000752696
0.000666337
0.000570276
0.000454112
0.000402045
0.00036437
0.000310235
0.000260799
0.000222842
0.000182677
0.000141404
0.000113812