/*--------------------------------*- C++ -*----------------------------------*\
| =========                 |                                                 |
| \\      /  F ield         | OpenFOAM: The Open Source CFD Toolbox           |
|  \\    /   O peration     | Version:  2.3.0                                 |
|   \\  /    A nd           | Web:      www.OpenFOAM.org                      |
|    \\/     M anipulation  |                                                 |
\*---------------------------------------------------------------------------*/
FoamFile
{
    version     2.0;
    format      ascii;
    class       surfaceScalarField;
    location    "18";
    object      phi;
}
// * * * * * * * * * * * * * * * * * * * * * * * * * * * * * * * * * * * * * //

dimensions      [0 3 -1 0 0 0 0];

internalField   nonuniform List<scalar> 
16448
(
-2.41867e-06
-2.58765e-06
9.06113e-07
-6.6776e-07
-2.71152e-06
9.60611e-07
-1.19576e-07
-1.69606e-06
1.14787e-06
5.28532e-07
-1.63323e-06
9.85114e-07
7.32948e-07
-7.82729e-07
5.78303e-07
8.43331e-07
-6.20012e-07
5.09617e-07
6.25554e-07
-2.71863e-07
4.89627e-07
2.6442e-07
-2.54048e-07
6.15168e-07
-1.9268e-07
-2.49166e-07
7.06251e-07
-5.51591e-07
-2.93794e-07
6.52689e-07
-7.63106e-07
-3.43371e-07
5.54869e-07
-7.75246e-07
-4.34028e-07
4.46149e-07
-6.7445e-07
-4.99155e-07
3.98341e-07
-5.0949e-07
-5.42836e-07
3.77858e-07
-3.70237e-07
-5.45187e-07
4.05915e-07
-2.55639e-07
-5.48975e-07
4.34355e-07
-1.74183e-07
-5.47499e-07
4.66019e-07
-1.14647e-07
-5.47273e-07
4.87713e-07
-7.33856e-08
-5.45686e-07
5.04398e-07
-4.45189e-08
-5.43608e-07
5.14715e-07
-2.46241e-08
-5.40939e-07
5.21017e-07
-1.07736e-08
-5.37616e-07
5.23738e-07
-8.32269e-10
-5.34218e-07
5.24248e-07
6.69061e-09
-5.30533e-07
5.22981e-07
1.22161e-08
-5.2658e-07
5.21026e-07
1.61489e-08
-5.22374e-07
5.18411e-07
1.86993e-08
-5.1802e-07
5.1544e-07
2.09176e-08
-5.14319e-07
5.1207e-07
2.29941e-08
-5.1077e-07
5.08663e-07
2.45715e-08
-5.07037e-07
5.05428e-07
2.62106e-08
-5.03936e-07
5.02266e-07
2.67235e-08
-5.00193e-07
4.99647e-07
2.91561e-08
-4.98605e-07
4.96141e-07
2.72481e-08
-4.93305e-07
4.95179e-07
3.31754e-08
-4.9531e-07
4.8935e-07
2.91406e-08
-4.87074e-07
4.91074e-07
4.11064e-08
-4.92635e-07
4.80635e-07
3.90644e-08
-4.83492e-07
4.85497e-07
5.73413e-08
-4.88507e-07
4.70195e-07
7.0302e-08
-4.85297e-07
4.72298e-07
9.6714e-08
-4.80375e-07
4.53926e-07
1.57492e-07
-5.01589e-07
4.40771e-07
2.07206e-07
-4.80265e-07
4.30511e-07
3.49371e-07
-5.54279e-07
4.12072e-07
4.14328e-07
-4.92269e-07
4.2727e-07
5.86853e-07
-6.21155e-07
4.48585e-07
5.3187e-07
-4.99628e-07
5.54567e-07
5.58105e-07
-5.85764e-07
5.59481e-07
3.61526e-07
-5.60187e-07
7.5672e-07
2.56401e-07
-4.81453e-07
5.86528e-07
4.79329e-07
-1.08754e-06
8.64568e-07
1.02005e-07
-3.11615e-07
6.88887e-07
6.20732e-07
-1.62873e-06
1.10995e-06
4.11904e-08
-1.07719e-06
1.65668e-06
-1.78905e-07
-1.92747e-06
2.14752e-06
-1.92703e-06
-2.49975e-06
4.24784e-06
-1.80366e-06
9.92999e-07
-1.1164e-06
-4.61694e-06
4.35691e-06
-1.54366e-06
-5.91897e-06
2.98589e-06
-1.68385e-06
-5.87881e-07
-1.76768e-05
1.23457e-05
1.68378e-05
-2.27762e-05
5.35051e-06
2.16816e-05
-7.12734e-06
2.28357e-06
1.88243e-05
4.27771e-06
-1.42042e-06
2.06491e-05
2.27306e-07
-2.05214e-06
2.15415e-05
1.34193e-06
-2.2343e-06
2.23002e-05
2.06587e-06
-2.8246e-06
2.3161e-05
2.15843e-06
-3.01919e-06
2.37068e-05
2.21145e-06
-2.75724e-06
2.37723e-05
2.29398e-06
-2.35953e-06
2.34407e-05
2.32584e-06
-1.99422e-06
2.28586e-05
2.24157e-06
-1.6595e-06
2.21625e-05
2.03757e-06
-1.34149e-06
2.15002e-05
1.68425e-06
-1.02189e-06
2.0929e-05
1.3088e-06
-7.37654e-07
2.04987e-05
9.24041e-07
-4.93715e-07
2.02445e-05
5.44923e-07
-2.9071e-07
2.02244e-05
1.38113e-07
-1.18069e-07
2.04657e-05
-2.67619e-07
2.63388e-08
2.08945e-05
-5.90049e-07
1.61247e-07
2.14601e-05
-8.41524e-07
2.75957e-07
2.21205e-05
-1.00512e-06
3.44664e-07
2.2716e-05
-1.01144e-06
4.15962e-07
2.32117e-05
-9.34046e-07
4.38328e-07
2.34861e-05
-7.25427e-07
4.51077e-07
2.34724e-05
-4.29755e-07
4.43401e-07
2.30084e-05
4.68532e-08
4.17168e-07
2.21444e-05
4.35322e-07
4.28696e-07
2.05831e-05
1.21096e-06
3.50327e-07
1.80053e-05
2.04233e-06
5.35467e-07
1.471e-05
2.63333e-06
6.61931e-07
9.40422e-06
3.90879e-06
1.39701e-06
2.66113e-06
3.57057e-06
3.17253e-06
-2.42697e-06
1.77038e-06
3.31772e-06
-5.10624e-06
1.43075e-06
1.24852e-06
-4.53595e-06
1.71209e-06
-2.28237e-06
1.1559e-06
-5.69185e-06
-4.43932e-06
-3.66828e-06
2.97042e-07
-3.4444e-06
-3.90769e-06
2.01248e-07
-2.67816e-06
-2.9445e-06
4.8219e-07
-1.43723e-06
-2.86993e-06
-4.23584e-09
-6.17216e-07
-1.50036e-06
-1.02396e-07
-6.00951e-10
-1.19128e-06
-4.53534e-08
1.0745e-07
-4.33549e-07
5.36222e-08
-2.21658e-07
-2.12216e-07
2.87261e-07
-6.33324e-07
-1.67515e-07
3.29997e-07
-9.39001e-07
-2.38342e-07
2.50206e-07
-1.08285e-06
-3.38751e-07
1.39206e-07
-1.00872e-06
-5.37504e-07
2.93235e-08
-8.58749e-07
-6.40684e-07
-8.463e-09
-6.69262e-07
-6.95151e-07
-3.71978e-08
-5.08679e-07
-6.88132e-07
-1.76654e-08
-3.74969e-07
-6.85244e-07
2.52793e-09
-2.75959e-07
-6.66758e-07
2.0217e-08
-2.01742e-07
-6.53875e-07
3.23502e-08
-1.49588e-07
-6.40034e-07
4.21574e-08
-1.12744e-07
-6.28143e-07
4.76536e-08
-8.69792e-08
-6.17135e-07
5.03919e-08
-6.88472e-08
-6.06671e-07
5.08829e-08
-5.60081e-08
-5.97083e-07
4.99853e-08
-4.66554e-08
-5.88024e-07
4.80964e-08
-4.02212e-08
-5.79006e-07
4.59494e-08
-3.58828e-08
-5.70096e-07
4.33407e-08
-3.28567e-08
-5.61568e-07
4.04776e-08
-3.05603e-08
-5.54194e-07
3.75336e-08
-2.89116e-08
-5.47071e-07
3.4607e-08
-2.74704e-08
-5.40315e-07
3.17912e-08
-2.54922e-08
-5.34874e-07
2.89128e-08
-2.55424e-08
-5.27279e-07
2.70885e-08
-2.21566e-08
-5.25301e-07
2.32606e-08
-2.65643e-08
-5.13034e-07
2.4087e-08
-1.60309e-08
-5.21857e-07
1.59618e-08
-2.63167e-08
-4.98746e-07
2.19057e-08
-1.54794e-09
-5.24362e-07
6.90344e-09
-1.97331e-08
-4.85427e-07
2.00659e-08
1.972e-08
-5.25474e-07
-2.5436e-09
5.21457e-09
-4.83013e-07
1.21642e-08
7.02575e-08
-5.28041e-07
-1.74378e-08
1.0812e-07
-5.21166e-07
-1.83465e-08
1.94273e-07
-5.47632e-07
-1.8851e-08
3.20784e-07
-6.29909e-07
-5.09457e-08
4.13584e-07
-5.85674e-07
5.37298e-10
5.93308e-07
-7.81599e-07
-1.935e-08
5.58678e-07
-5.72798e-07
1.07727e-07
7.08084e-07
-7.47053e-07
1.18088e-08
4.53296e-07
-5.87944e-07
2.82466e-07
6.49493e-07
-6.52833e-07
-2.48966e-08
3.54494e-07
-1.17868e-06
3.86052e-07
1.07312e-06
-9.73385e-07
-5.69399e-08
1.03839e-07
-1.37315e-06
7.13626e-07
-2.32777e-06
-4.65976e-08
1.40094e-06
9.65274e-08
-3.76704e-06
-5.84797e-07
3.46402e-06
-6.74019e-06
8.72881e-07
-4.29782e-06
1.02208e-05
-1.46597e-06
-1.17937e-05
1.26161e-05
-7.63362e-07
-7.67808e-06
5.70663e-06
-6.83632e-06
-4.02493e-07
-3.02511e-05
5.29867e-06
1.5648e-06
-3.18491e-05
7.10555e-06
1.59283e-06
-7.49579e-06
3.40415e-07
1.22457e-05
4.17986e-07
-6.79315e-06
1.40475e-05
3.00989e-06
-4.58439e-06
1.52571e-05
4.85776e-06
-4.72545e-06
1.76606e-05
4.49934e-06
-4.83693e-06
1.96731e-05
4.38856e-06
-4.24259e-06
2.07841e-05
4.5242e-06
-3.42379e-06
2.12231e-05
4.5654e-06
-2.71047e-06
2.12288e-05
4.45992e-06
-2.13975e-06
2.08662e-05
4.22454e-06
-1.62039e-06
2.02353e-05
3.77515e-06
-1.10664e-06
1.96097e-05
2.87538e-06
-5.65491e-07
1.9134e-05
1.85121e-06
-6.67175e-08
1.87817e-05
9.08293e-07
3.68018e-07
1.84362e-05
2.44683e-07
6.45741e-07
1.81394e-05
-4.25997e-07
8.60863e-07
1.79938e-05
-1.13265e-06
1.01064e-06
1.80293e-05
-1.74708e-06
1.1215e-06
1.82893e-05
-2.26232e-06
1.16087e-06
1.87059e-05
-2.55173e-06
1.12998e-06
1.92271e-05
-2.615e-06
1.08236e-06
1.98102e-05
-2.43789e-06
9.20769e-07
2.02316e-05
-2.00881e-06
8.61934e-07
2.05302e-05
-1.42354e-06
6.95216e-07
2.05291e-05
-5.4509e-07
5.9303e-07
2.00608e-05
4.07341e-07
4.96239e-07
1.91003e-05
1.85609e-06
3.15371e-07
1.7161e-05
3.50531e-06
4.76311e-07
1.43759e-05
4.91725e-06
5.01203e-07
1.02382e-05
6.89256e-06
1.154e-06
4.1047e-06
7.00745e-06
2.69657e-06
-1.64827e-06
4.35651e-06
3.16684e-06
-4.72746e-06
3.19705e-06
1.31288e-06
-4.23455e-06
3.59137e-06
-2.37219e-06
3.40054e-06
-6.47918e-06
-5.12051e-06
-3.97962e-06
2.54947e-07
-4.40139e-06
-4.46666e-06
-1.60146e-07
-3.88541e-06
-3.5943e-06
1.33827e-07
-2.9109e-06
-3.53019e-06
-3.14248e-07
-1.96743e-06
-2.23039e-06
-2.13447e-07
-9.37496e-07
-1.97618e-06
-2.4505e-07
-4.7162e-07
-7.02422e-07
-1.97013e-07
-5.51654e-07
-2.19617e-07
8.74212e-08
-8.33968e-07
-1.25308e-08
1.27313e-07
-1.01759e-06
-1.17167e-07
6.24244e-08
-1.08153e-06
-2.3933e-07
-3.54997e-08
-9.83319e-07
-4.91742e-07
-1.43995e-07
-8.54183e-07
-5.7725e-07
-1.92593e-07
-7.07911e-07
-6.15646e-07
-2.25802e-07
-5.78314e-07
-5.82095e-07
-2.35663e-07
-4.58106e-07
-5.63575e-07
-2.41908e-07
-3.65072e-07
-5.25864e-07
-2.33962e-07
-2.91794e-07
-4.99032e-07
-2.28155e-07
-2.38036e-07
-4.7085e-07
-2.22978e-07
-1.99096e-07
-4.46972e-07
-2.20148e-07
-1.71295e-07
-4.25818e-07
-2.19157e-07
-1.51451e-07
-4.06821e-07
-2.19734e-07
-1.37304e-07
-3.90092e-07
-2.21178e-07
-1.26898e-07
-3.75281e-07
-2.2319e-07
-1.19489e-07
-3.6126e-07
-2.25198e-07
-1.14451e-07
-3.47791e-07
-2.27386e-07
-1.10988e-07
-3.35414e-07
-2.29659e-07
-1.08718e-07
-3.246e-07
-2.31908e-07
-1.0731e-07
-3.14358e-07
-2.34166e-07
-1.06038e-07
-3.05074e-07
-2.36559e-07
-1.05242e-07
-2.9687e-07
-2.38846e-07
-1.04474e-07
-2.87426e-07
-2.40667e-07
-1.043e-07
-2.829e-07
-2.42623e-07
-1.04236e-07
-2.69615e-07
-2.43531e-07
-1.00223e-07
-2.77024e-07
-2.48895e-07
-1.01306e-07
-2.51343e-07
-2.46372e-07
-8.70454e-08
-2.82314e-07
-2.5636e-07
-9.05294e-08
-2.34134e-07
-2.47864e-07
-5.50052e-08
-2.95843e-07
-2.65209e-07
-6.37313e-08
-2.27277e-07
-2.47068e-07
1.32804e-08
-3.28026e-07
-2.77084e-07
-8.72043e-09
-2.55724e-07
-2.43502e-07
1.02713e-07
-3.84918e-07
-2.74208e-07
1.00765e-07
-3.76629e-07
-2.51396e-07
2.16438e-07
-4.70753e-07
-2.30657e-07
2.25567e-07
-5.50123e-07
-2.40674e-07
2.77749e-07
-4.94149e-07
-1.309e-07
4.01938e-07
-6.09077e-07
-2.62237e-07
3.2514e-07
-5.09846e-07
-1.37313e-09
7.75177e-07
-7.62066e-07
-3.40881e-07
4.93329e-07
-9.6971e-07
7.28002e-08
1.19466e-06
-1.38685e-06
-2.87949e-07
1.15535e-06
-1.37163e-06
3.7706e-08
1.99319e-08
1.20029e-06
-1.1155e-07
2.15473e-06
-4.29076e-06
-1.61115e-06
1.63147e-06
-6.75563e-06
5.38644e-07
4.14126e-06
1.08529e-05
-3.14201e-06
1.89053e-06
1.72366e-05
-2.36977e-06
-4.4106e-06
1.55899e-05
-3.58212e-06
-2.45315e-07
-3.73306e-05
2.91408e-06
-3.22942e-06
-3.65597e-05
7.69467e-06
-2.16891e-06
-9.12967e-06
5.73369e-07
8.96631e-06
-7.2769e-06
-3.44033e-06
9.48643e-06
5.17954e-06
-2.68977e-06
1.19511e-05
5.55771e-06
-3.16459e-06
1.44236e-05
5.3478e-06
-3.32096e-06
1.60928e-05
5.38473e-06
-2.66538e-06
1.70394e-05
5.06318e-06
-1.48553e-06
1.73367e-05
4.79415e-06
-5.26096e-07
1.70883e-05
4.53922e-06
1.69089e-07
1.6453e-05
4.09923e-06
7.60667e-07
1.55095e-05
3.48272e-06
1.23593e-06
1.42799e-05
2.35562e-06
1.74931e-06
1.27999e-05
1.13752e-06
2.19365e-06
1.09874e-05
2.50618e-07
2.47026e-06
9.19342e-06
-5.55436e-07
2.59405e-06
7.63394e-06
-1.36352e-06
2.497e-06
6.53152e-06
-2.24596e-06
2.21573e-06
6.08521e-06
-3.13581e-06
1.83504e-06
6.346e-06
-3.89747e-06
1.37436e-06
7.16494e-06
-4.34548e-06
9.74816e-07
8.36882e-06
-4.45809e-06
6.39204e-07
9.6785e-06
-4.12597e-06
3.78396e-07
1.08603e-05
-3.45323e-06
2.62638e-07
1.19444e-05
-2.56764e-06
5.99383e-08
1.27835e-05
-1.39731e-06
1.31566e-08
1.33635e-05
2.0312e-08
-1.92999e-07
1.36727e-05
1.91154e-06
-3.64575e-07
1.31057e-05
4.16644e-06
-9.4141e-08
1.13106e-05
6.45383e-06
2.58472e-07
7.70074e-06
9.16888e-06
1.33356e-06
2.4148e-06
9.38667e-06
2.90673e-06
-2.34893e-06
6.13882e-06
2.98142e-06
-4.82874e-06
4.57927e-06
1.09759e-06
-4.20013e-06
5.38008e-06
-2.41732e-06
5.87098e-06
-6.67057e-06
-5.31768e-06
-4.08704e-06
5.15677e-07
-4.57108e-06
-4.73285e-06
-4.80408e-07
-4.31578e-06
-3.92946e-06
7.98513e-08
-3.45736e-06
-4.02484e-06
-3.63776e-07
-2.6704e-06
-2.87578e-06
-1.4156e-07
-1.50061e-06
-2.87498e-06
-2.71003e-07
-7.89836e-07
-1.26894e-06
-1.44255e-07
-5.83329e-07
-5.2451e-07
9.83702e-08
-7.38809e-07
2.0408e-08
1.22524e-07
-8.73841e-07
-4.04911e-08
5.83338e-08
-8.73143e-07
-1.8809e-07
-5.19586e-08
-7.9104e-07
-4.10404e-07
-1.63468e-07
-7.28173e-07
-4.24862e-07
-2.15281e-07
-6.53601e-07
-4.30413e-07
-2.59835e-07
-5.76171e-07
-3.72778e-07
-2.86777e-07
-4.82269e-07
-3.44842e-07
-3.12669e-07
-3.99652e-07
-2.90294e-07
-3.18221e-07
-3.27495e-07
-2.49883e-07
-3.21343e-07
-2.71217e-07
-2.07884e-07
-3.1928e-07
-2.28853e-07
-1.72061e-07
-3.17315e-07
-1.98583e-07
-1.40037e-07
-3.16091e-07
-1.77401e-07
-1.11864e-07
-3.16179e-07
-1.62758e-07
-8.80186e-08
-3.16758e-07
-1.52752e-07
-6.77595e-08
-3.1757e-07
-1.46126e-07
-4.92659e-08
-3.18664e-07
-1.4176e-07
-3.22263e-08
-3.19974e-07
-1.3889e-07
-1.70551e-08
-3.21274e-07
-1.38086e-07
-2.96685e-09
-3.22481e-07
-1.37983e-07
8.87501e-09
-3.23382e-07
-1.38219e-07
1.93316e-08
-3.24216e-07
-1.39102e-07
2.9032e-08
-3.25066e-07
-1.3939e-07
3.85897e-08
-3.25774e-07
-1.40613e-07
4.52319e-08
-3.26959e-07
-1.3973e-07
5.65544e-08
-3.271e-07
-1.37812e-07
5.1837e-08
-3.30831e-07
-1.361e-07
7.45318e-08
-3.27636e-07
-1.24335e-07
4.35985e-08
-3.37731e-07
-1.23432e-07
9.22129e-08
-3.27302e-07
-9.19335e-08
1.91957e-08
-3.46593e-07
-1.00104e-07
1.04062e-07
-3.23223e-07
-3.57752e-08
-3.64961e-08
-3.55917e-07
-7.88495e-08
9.4724e-08
-3.0743e-07
1.41272e-08
-1.27431e-07
-3.50527e-07
-1.05001e-07
1.91475e-08
-2.76709e-07
-4.12711e-09
-2.56505e-07
-3.15187e-07
-1.81484e-07
-1.15508e-07
-2.57322e-07
-3.1568e-08
-3.79223e-07
-2.64911e-07
-9.46638e-08
-2.60538e-07
-2.85512e-07
1.28675e-07
-5.15423e-07
-2.17837e-07
4.94073e-07
-7.57243e-07
-3.70295e-07
4.21384e-07
-8.13159e-07
-8.39423e-08
-8.95222e-08
-9.07146e-07
3.11279e-08
5.64116e-08
-1.49912e-06
-1.85182e-08
8.56705e-07
2.99991e-07
9.99301e-08
-2.50629e-06
-9.6496e-07
3.71198e-08
-8.43305e-06
-2.19988e-06
1.37095e-06
4.24053e-06
1.21988e-06
-3.04058e-06
8.28028e-06
2.03277e-05
-7.13094e-06
7.7167e-06
1.80427e-05
-1.88932e-06
2.4837e-06
-3.62503e-05
4.15261e-06
-3.14647e-06
-4.04476e-05
9.51799e-06
-6.73299e-06
-7.56414e-06
2.02099e-06
-5.23004e-06
-8.93876e-06
1.5892e-07
-2.13586e-06
5.04503e-06
-2.95965e-06
5.27542e-06
2.26654e-06
-4.1201e-06
8.19142e-06
4.23521e-06
-1.80341e-06
9.86583e-06
3.25103e-06
4.59297e-07
1.03436e-05
2.81943e-06
1.76598e-06
9.74889e-06
2.92491e-06
2.46395e-06
8.20739e-06
3.1469e-06
2.93381e-06
5.44344e-06
3.51953e-06
3.34366e-06
1.41999e-06
3.6338e-06
3.87238e-06
-3.71419e-06
2.97175e-06
4.51804e-06
-8.13505e-06
1.47884e-06
4.07954e-06
-1.06503e-05
-1.37273e-07
2.90315e-06
-1.17145e-05
-1.34384e-06
1.8526e-06
-1.14793e-05
-2.58717e-06
9.88463e-07
-1.02591e-05
-3.70197e-06
2.35786e-07
-8.4482e-06
-4.58776e-06
-3.58937e-07
-6.29566e-06
-5.22579e-06
-8.24224e-07
-3.99338e-06
-5.51955e-06
-1.12821e-06
-1.71517e-06
-5.45114e-06
-1.28516e-06
3.86572e-07
-4.90953e-06
-1.31817e-06
2.19466e-06
-4.01645e-06
-1.24487e-06
3.62536e-06
-2.87591e-06
-1.12243e-06
4.78205e-06
-1.55384e-06
-1.00017e-06
5.94701e-06
-7.04105e-08
-1.07423e-06
6.75478e-06
2.07982e-06
-9.76045e-07
7.06352e-06
4.51602e-06
-6.58332e-07
6.36014e-06
7.55674e-06
-3.99524e-07
3.46429e-06
1.08575e-05
1.20724e-06
-7.24178e-07
1.03782e-05
3.19698e-06
-3.80391e-06
6.59573e-06
2.62283e-06
-5.30073e-06
5.41993e-06
6.56159e-07
-4.244e-06
7.03047e-06
-2.70712e-06
8.48219e-06
-6.85521e-06
-5.28434e-06
-4.01915e-06
6.93388e-07
-4.39504e-06
-4.84791e-06
-7.74234e-07
-4.22899e-06
-4.13301e-06
3.75028e-08
-3.33494e-06
-4.33701e-06
-5.81873e-07
-2.75575e-06
-3.28344e-06
-1.71525e-07
-1.75458e-06
-3.44309e-06
-4.33063e-07
-1.19012e-06
-1.79025e-06
-4.31657e-08
-7.32554e-07
-1.05832e-06
7.62316e-08
-6.23855e-07
-1.67551e-07
7.92375e-08
-6.19228e-07
-8.17818e-08
3.66436e-08
-5.43765e-07
-1.74371e-07
-8.92101e-08
-5.02593e-07
-2.91785e-07
-1.59815e-07
-5.12236e-07
-2.2132e-07
-1.93929e-07
-5.16035e-07
-2.01154e-07
-2.25489e-07
-4.97476e-07
-1.33007e-07
-2.58362e-07
-4.4817e-07
-1.00672e-07
-2.93507e-07
-3.93191e-07
-3.54393e-08
-3.0987e-07
-3.32634e-07
1.17564e-08
-3.22231e-07
-2.82977e-07
6.82076e-08
-3.25787e-07
-2.42827e-07
1.14367e-07
-3.26616e-07
-2.13439e-07
1.55747e-07
-3.25211e-07
-1.93144e-07
1.90547e-07
-3.22747e-07
-1.79482e-07
2.18622e-07
-3.20343e-07
-1.70373e-07
2.41635e-07
-3.18545e-07
-1.64734e-07
2.61412e-07
-3.16359e-07
-1.61038e-07
2.78119e-07
-3.14084e-07
-1.58013e-07
2.91845e-07
-3.11968e-07
-1.55423e-07
3.04156e-07
-3.09758e-07
-1.5438e-07
3.15286e-07
-3.07498e-07
-1.54757e-07
3.24912e-07
-3.05249e-07
-1.56402e-07
3.33603e-07
-3.02971e-07
-1.58037e-07
3.41289e-07
-3.01111e-07
-1.60638e-07
3.47307e-07
-2.99519e-07
-1.61188e-07
3.54504e-07
-2.97448e-07
-1.60695e-07
3.48896e-07
-2.97598e-07
-1.5946e-07
3.66017e-07
-2.9277e-07
-1.50663e-07
3.32714e-07
-2.9796e-07
-1.51078e-07
3.78228e-07
-2.85652e-07
-1.26995e-07
2.92866e-07
-2.97802e-07
-1.37265e-07
3.85783e-07
-2.71505e-07
-9.91207e-08
2.17657e-07
-2.92348e-07
-1.40254e-07
3.81111e-07
-2.4531e-07
-1.2853e-07
1.23757e-07
-2.62964e-07
-2.15087e-07
3.31193e-07
-2.25547e-07
-2.9595e-07
3.88178e-08
-2.14514e-07
-3.94344e-07
2.35812e-07
-2.52987e-07
-4.28066e-07
-1.2121e-07
-2.24348e-07
-4.49255e-07
7.37822e-08
-3.13195e-07
-2.96942e-09
-6.13406e-07
-3.48363e-07
2.43576e-07
-5.69751e-07
-4.34108e-07
2.27517e-07
-7.7249e-07
-2.46763e-08
-6.74998e-07
-1.03858e-07
9.91542e-08
-1.59708e-06
-8.85822e-07
3.08717e-07
-1.33044e-06
-1.31148e-06
1.34476e-06
-2.08971e-07
-1.19941e-08
-2.0745e-06
-2.67627e-06
2.45425e-06
-2.18689e-06
7.94002e-06
-4.03369e-06
-5.36277e-06
1.27064e-05
2.51825e-05
-9.62116e-06
1.89396e-05
2.0194e-06
9.78994e-06
1.25832e-06
-2.44303e-05
5.8612e-06
-1.01426e-05
-3.94286e-05
1.03818e-05
-1.26979e-05
-8.19916e-06
3.19038e-06
-1.40656e-05
-9.20004e-06
1.62899e-06
-9.5138e-06
8.39241e-07
-3.45993e-07
-6.79631e-06
-1.70395e-07
-2.80538e-07
-7.29753e-06
2.2651e-06
2.47135e-06
-1.02149e-05
2.22453e-06
3.94388e-06
-1.38512e-05
2.8169e-06
3.63879e-06
-1.73858e-05
3.08709e-06
3.37245e-06
-2.06681e-05
3.29842e-06
3.13083e-06
-2.31119e-05
3.07412e-06
2.88922e-06
-2.48775e-05
2.82111e-06
2.57822e-06
-2.57448e-05
1.80241e-06
2.03667e-06
-2.60934e-05
6.36362e-07
1.19111e-06
-2.57944e-05
-8.01307e-07
3.65034e-07
-2.47849e-05
-2.03382e-06
-3.19491e-07
-2.3266e-05
-3.15444e-06
-9.51694e-07
-2.13942e-05
-4.13367e-06
-1.44005e-06
-1.91637e-05
-5.03552e-06
-1.78278e-06
-1.66149e-05
-5.72227e-06
-2.05229e-06
-1.38826e-05
-6.08015e-06
-2.17166e-06
-1.10489e-05
-6.08697e-06
-2.19795e-06
-8.30047e-06
-5.53639e-06
-2.12153e-06
-5.88918e-06
-4.53195e-06
-1.89579e-06
-3.99834e-06
-3.06034e-06
-1.70639e-06
-2.62647e-06
-1.31797e-06
-1.60774e-06
-1.65783e-06
5.49233e-07
-1.58828e-06
-8.50748e-07
2.66856e-06
-1.39582e-06
-6.21677e-07
5.2791e-06
-9.92141e-07
-1.49078e-06
8.3045e-06
1.21346e-07
-3.41655e-06
1.06762e-05
2.10702e-06
-4.30834e-06
8.42095e-06
2.84899e-06
-5.23334e-06
5.68789e-06
1.83284e-06
-5.6452e-06
6.18171e-06
-3.49914e-07
-4.16012e-06
8.74859e-06
-3.2032e-06
1.09666e-05
-6.64454e-06
-5.29381e-06
-3.45037e-06
5.40808e-07
-4.21787e-06
-4.6781e-06
-1.24574e-06
-4.04481e-06
-4.04675e-06
-2.59317e-07
-2.95029e-06
-4.45291e-06
-9.7862e-07
-2.46458e-06
-3.408e-06
-3.61156e-07
-1.61653e-06
-3.5714e-06
-7.19735e-07
-1.26351e-06
-1.93224e-06
-2.11039e-07
-8.35247e-07
-1.49618e-06
9.58397e-09
-5.71584e-07
-3.96139e-07
-3.5092e-08
-3.56497e-07
-2.37364e-07
-5.95318e-08
-1.56377e-07
-1.90739e-07
-1.83774e-07
-1.41135e-07
-1.16911e-07
-1.90146e-07
-2.25132e-07
7.74333e-08
-2.14782e-07
-3.16478e-07
1.2035e-07
-2.3019e-07
-3.57857e-07
1.79688e-07
-2.71344e-07
-3.58424e-07
2.00057e-07
-3.00195e-07
-3.42332e-07
2.72075e-07
-3.23637e-07
-3.12216e-07
3.21455e-07
-3.3985e-07
-2.82191e-07
3.82712e-07
-3.44562e-07
-2.54348e-07
4.32391e-07
-3.45903e-07
-2.33276e-07
4.77847e-07
-3.43208e-07
-2.18971e-07
5.1554e-07
-3.39334e-07
-2.10803e-07
5.4595e-07
-3.35533e-07
-2.07274e-07
5.69687e-07
-3.3162e-07
-2.0683e-07
5.88597e-07
-3.27666e-07
-2.08008e-07
6.02827e-07
-3.23569e-07
-2.0984e-07
6.13047e-07
-3.19409e-07
-2.11373e-07
6.20606e-07
-3.14955e-07
-2.13227e-07
6.26505e-07
-3.09405e-07
-2.1542e-07
6.30679e-07
-3.03612e-07
-2.17935e-07
6.33883e-07
-2.97805e-07
-2.19912e-07
6.35626e-07
-2.92398e-07
-2.22434e-07
6.36828e-07
-2.87041e-07
-2.2237e-07
6.36723e-07
-2.82321e-07
-2.24547e-07
6.29717e-07
-2.78687e-07
-2.22822e-07
6.35352e-07
-2.71099e-07
-2.21545e-07
6.03994e-07
-2.72601e-07
-2.19236e-07
6.32405e-07
-2.56524e-07
-2.13408e-07
5.52698e-07
-2.65705e-07
-2.17693e-07
6.25936e-07
-2.35906e-07
-2.23683e-07
4.73911e-07
-2.50308e-07
-2.44466e-07
6.14815e-07
-2.12959e-07
-3.22265e-07
4.1096e-07
-2.09448e-07
-3.64284e-07
5.80697e-07
-2.07521e-07
-5.66765e-07
3.9997e-07
-1.58715e-07
-6.22351e-07
5.3299e-07
-2.4163e-07
-7.49186e-07
2.17992e-07
-2.12412e-07
-7.81642e-07
3.99021e-07
-2.92821e-07
-3.65472e-07
-6.10325e-07
-4.19298e-07
-2.88062e-07
-2.69538e-07
-3.77664e-07
-8.85376e-07
-2.74533e-07
9.93057e-08
-1.06454e-06
1.50736e-07
-7.54718e-08
-1.81621e-06
-4.54743e-07
3.2054e-07
-8.70207e-07
-2.79678e-06
5.39246e-07
1.72508e-06
-7.13621e-08
-2.53597e-06
3.81996e-08
9.17029e-06
-5.0292e-06
6.02798e-06
-1.82552e-06
-8.19801e-06
2.35523e-05
1.92878e-05
-1.16297e-05
1.70875e-05
-1.05151e-05
1.89991e-05
1.47439e-07
-1.36881e-05
6.19775e-06
-2.11528e-05
-3.16992e-05
1.35712e-05
-2.70743e-05
-6.94799e-06
4.67057e-06
-3.43586e-05
-4.49951e-06
2.58399e-06
-3.42781e-05
3.38687e-07
4.20249e-07
-3.54481e-05
9.58488e-07
4.13248e-08
-3.6663e-05
2.33429e-06
1.14584e-06
-3.84447e-05
2.48769e-06
1.5188e-06
-4.00433e-05
2.94969e-06
1.46602e-06
-4.1345e-05
2.89124e-06
1.49778e-06
-4.239e-05
3.0103e-06
1.33337e-06
-4.32028e-05
2.75415e-06
1.13302e-06
-4.35508e-05
2.41517e-06
7.54138e-07
-4.34882e-05
1.46568e-06
2.74425e-07
-4.29398e-05
3.8984e-07
-3.0162e-07
-4.23465e-05
-7.54581e-07
-6.3978e-07
-4.13346e-05
-2.05834e-06
-9.87073e-07
-3.98446e-05
-3.41744e-06
-1.22676e-06
-3.79473e-05
-4.64193e-06
-1.38886e-06
-3.55709e-05
-5.79904e-06
-1.61265e-06
-3.27405e-05
-6.7271e-06
-1.82552e-06
-2.95284e-05
-7.27166e-06
-2.02052e-06
-2.59267e-05
-7.48519e-06
-2.20341e-06
-2.2042e-05
-7.18713e-06
-2.234e-06
-1.82572e-05
-6.32716e-06
-1.98954e-06
-1.49467e-05
-4.73995e-06
-1.63091e-06
-1.2463e-05
-2.66737e-06
-1.13429e-06
-1.07845e-05
-5.40199e-07
-5.89052e-07
-1.00705e-05
1.8653e-06
8.9314e-08
-9.50316e-06
3.85565e-06
8.56069e-07
-8.43851e-06
5.50464e-06
1.73521e-06
-6.72961e-06
6.59207e-06
2.37526e-06
-5.59331e-06
5.33218e-06
1.95248e-06
-5.63484e-06
4.99391e-06
7.35509e-07
-5.17734e-06
6.99603e-06
-1.27183e-06
-3.45546e-06
1.06478e-05
-3.62109e-06
1.39967e-05
-6.48555e-06
-5.67512e-06
-2.37722e-06
4.59603e-07
-4.35877e-06
-4.11244e-06
-1.882e-06
-4.13397e-06
-3.52298e-06
-7.48569e-07
-2.79665e-06
-4.23421e-06
-1.55601e-06
-2.06682e-06
-3.23386e-06
-9.03981e-07
-1.08871e-06
-3.26321e-06
-1.28631e-06
-8.31518e-07
-1.5479e-06
-6.41544e-07
-6.10308e-07
-1.37254e-06
-3.44867e-07
-4.63851e-07
-2.66728e-07
-2.75892e-07
-2.31687e-07
-2.36307e-07
-2.33242e-07
3.87374e-08
-1.16612e-07
-3.44579e-07
4.58202e-08
8.07098e-08
-2.04727e-07
-3.51878e-08
3.81267e-07
-2.22855e-07
-1.50443e-07
4.47971e-07
-2.1239e-07
-2.14567e-07
5.22267e-07
-2.78485e-07
-2.56562e-07
5.41841e-07
-2.99814e-07
-2.88138e-07
6.30128e-07
-3.26507e-07
-2.98325e-07
6.70514e-07
-3.389e-07
-3.01567e-07
7.32533e-07
-3.4661e-07
-2.97652e-07
7.78745e-07
-3.50298e-07
-2.93921e-07
8.22615e-07
-3.4853e-07
-2.91264e-07
8.56927e-07
-3.44074e-07
-2.91645e-07
8.82729e-07
-3.36429e-07
-2.94509e-07
9.00565e-07
-3.28045e-07
-2.98996e-07
9.12685e-07
-3.19632e-07
-3.04886e-07
9.19246e-07
-3.1056e-07
-3.10675e-07
9.21792e-07
-3.02987e-07
-3.14776e-07
9.21554e-07
-2.96879e-07
-3.17996e-07
9.20199e-07
-2.90503e-07
-3.20781e-07
9.17508e-07
-2.84076e-07
-3.23334e-07
9.13909e-07
-2.77502e-07
-3.24849e-07
9.08327e-07
-2.71218e-07
-3.26929e-07
9.03293e-07
-2.64413e-07
-3.2637e-07
8.9476e-07
-2.58628e-07
-3.29136e-07
8.83934e-07
-2.51479e-07
-3.2437e-07
8.75471e-07
-2.44915e-07
-3.30303e-07
8.4885e-07
-2.38949e-07
-3.23431e-07
8.54403e-07
-2.289e-07
-3.39599e-07
7.92792e-07
-2.23949e-07
-3.35598e-07
8.32935e-07
-2.11029e-07
-3.86112e-07
7.24468e-07
-2.00063e-07
-3.90537e-07
8.16771e-07
-1.97556e-07
-5.12438e-07
6.94322e-07
-1.61478e-07
-5.23288e-07
7.93834e-07
-2.02307e-07
-6.9777e-07
7.16979e-07
-1.42539e-07
-7.07325e-07
7.69985e-07
-2.27459e-07
-7.79423e-07
5.21632e-07
-2.31552e-07
-7.86962e-07
6.90716e-07
-2.84173e-07
-6.8652e-07
-3.28378e-07
-3.82401e-07
-6.64291e-07
7.62494e-08
-3.68036e-07
-1.07956e-06
1.18724e-07
2.1996e-08
-7.03789e-07
2.06976e-08
-2.45752e-07
-9.66613e-07
-1.70212e-07
-2.17226e-08
-1.1152e-06
-2.62553e-06
-2.26923e-08
3.68251e-07
-3.67623e-07
-1.18721e-06
7.35163e-06
6.23043e-06
-4.04356e-06
1.05511e-05
4.97555e-06
-1.00006e-05
3.30872e-05
1.08996e-05
-1.41479e-05
7.2945e-06
-8.64742e-06
2.39249e-05
-7.82417e-06
-4.54178e-06
5.97301e-06
-4.19637e-05
-1.32962e-05
1.57387e-05
-5.53699e-05
-1.49498e-07
6.6106e-06
-6.30126e-05
1.1419e-06
2.00441e-06
-6.49187e-05
2.78825e-06
-5.4026e-07
-6.57713e-05
3.01066e-06
-1.19656e-06
-6.63338e-05
3.55877e-06
-6.58996e-07
-6.69852e-05
3.50211e-06
-3.60189e-07
-6.74345e-05
3.62129e-06
-2.19578e-07
-6.80625e-05
3.69408e-06
-1.72116e-07
-6.84771e-05
3.62791e-06
-2.00213e-07
-6.87941e-05
3.36323e-06
-2.89074e-07
-6.87992e-05
2.93215e-06
-5.08619e-07
-6.87223e-05
2.10979e-06
-7.17693e-07
-6.84399e-05
1.00777e-06
-8.96911e-07
-6.79058e-05
-2.91792e-07
-9.93448e-07
-6.71789e-05
-1.72306e-06
-1.05865e-06
-6.61424e-05
-3.37599e-06
-1.07454e-06
-6.46742e-05
-5.06676e-06
-1.04e-06
-6.26682e-05
-6.66477e-06
-1.13735e-06
-6.01885e-05
-7.92352e-06
-1.28068e-06
-5.69597e-05
-8.89589e-06
-1.60219e-06
-5.30198e-05
-9.42879e-06
-1.99421e-06
-4.83939e-05
-9.45828e-06
-2.3532e-06
-4.30524e-05
-9.08681e-06
-2.58075e-06
-3.71138e-05
-8.07625e-06
-2.60154e-06
-3.10098e-05
-6.50322e-06
-2.2677e-06
-2.53304e-05
-4.56388e-06
-1.6555e-06
-2.03718e-05
-2.27495e-06
-8.18313e-07
-1.63607e-05
6.62761e-09
-1.62018e-07
-1.27352e-05
1.80379e-06
7.53164e-08
-9.01232e-06
3.12873e-06
-2.59529e-07
-6.61293e-06
4.15288e-06
-1.22008e-06
-5.27335e-06
6.04109e-06
-2.38676e-06
-3.99057e-06
9.42686e-06
-3.7136e-06
-2.38845e-06
1.40988e-05
-5.05317e-06
1.85177e-05
-6.90942e-06
-5.99341e-06
-5.94957e-07
5.39707e-07
-4.52613e-06
-3.34174e-06
-2.23797e-06
-4.14556e-06
-2.62883e-06
-1.27471e-06
-2.67158e-06
-3.64716e-06
-2.06102e-06
-1.71798e-06
-2.58293e-06
-1.60453e-06
-8.55748e-07
-2.50095e-06
-1.6245e-06
-6.25833e-07
-8.75455e-07
-9.02373e-07
-3.68399e-07
-8.75662e-07
-7.54336e-07
-2.25354e-07
1.59966e-07
-5.69757e-07
-4.57496e-08
5.41961e-09
-4.21357e-07
1.71139e-07
1.81271e-07
-5.14793e-07
8.70391e-08
4.67631e-07
-3.02849e-07
1.63616e-08
8.34874e-07
-3.82952e-07
-4.03768e-08
8.46451e-07
-3.41769e-07
-9.08009e-08
9.93633e-07
-4.20964e-07
-1.54468e-07
1.01427e-06
-4.0879e-07
-2.22595e-07
1.13288e-06
-4.3465e-07
-2.76024e-07
1.17099e-06
-4.47069e-07
-3.17504e-07
1.23938e-06
-4.65386e-07
-3.44438e-07
1.28441e-06
-4.78759e-07
-3.62778e-07
1.32815e-06
-4.87219e-07
-3.75712e-07
1.36311e-06
-4.93275e-07
-3.86163e-07
1.39119e-06
-4.98033e-07
-3.97185e-07
1.41374e-06
-5.02181e-07
-4.11805e-07
1.43239e-06
-5.05115e-07
-4.27398e-07
1.44339e-06
-5.08571e-07
-4.40753e-07
1.44674e-06
-5.11622e-07
-4.50255e-07
1.44558e-06
-5.14548e-07
-4.56929e-07
1.44428e-06
-5.17431e-07
-4.61806e-07
1.44253e-06
-5.20168e-07
-4.65387e-07
1.43981e-06
-5.22342e-07
-4.67188e-07
1.43469e-06
-5.24587e-07
-4.68791e-07
1.43027e-06
-5.25393e-07
-4.67556e-07
1.42126e-06
-5.27756e-07
-4.70545e-07
1.41381e-06
-5.26906e-07
-4.67093e-07
1.40226e-06
-5.30251e-07
-4.82593e-07
1.39022e-06
-5.25886e-07
-4.76326e-07
1.3788e-06
-5.30671e-07
-5.18033e-07
1.355e-06
-5.20519e-07
-5.13719e-07
1.35795e-06
-5.29341e-07
-6.081e-07
1.32373e-06
-5.04887e-07
-6.03422e-07
1.34212e-06
-5.30025e-07
-7.51043e-07
1.32413e-06
-4.82181e-07
-7.21415e-07
1.30886e-06
-5.44641e-07
-8.2581e-07
1.31493e-06
-4.93544e-07
-7.70923e-07
1.27799e-06
-5.6288e-07
-7.07928e-07
1.09367e-06
-6.35026e-07
-7.38866e-07
1.29175e-06
-5.7008e-07
-8.11067e-07
5.28008e-07
-7.84171e-07
-9.61722e-07
9.85257e-07
-7.58334e-07
-9.39114e-07
8.24994e-07
-7.28863e-07
5.15208e-08
1.18849e-07
-1.08877e-06
-2.11395e-07
1.53961e-06
-1.4469e-06
-1.95151e-06
3.49801e-07
-1.2352e-06
-3.46873e-06
2.02427e-06
-8.74674e-07
6.20352e-06
8.6657e-07
-4.3084e-06
1.22706e-05
9.20092e-06
-1.02925e-05
3.64717e-05
5.78335e-06
-1.90849e-05
4.59147e-06
-5.76653e-06
2.89992e-05
-1.43772e-05
6.08474e-06
8.34405e-06
-6.13528e-05
1.16555e-05
2.20297e-05
-8.16994e-05
9.41749e-06
1.07871e-05
-9.0802e-05
7.88805e-06
2.36476e-06
-9.35113e-05
6.89731e-06
-1.39084e-06
-9.43851e-05
6.30297e-06
-2.40956e-06
-9.47745e-05
5.87169e-06
-1.9145e-06
-9.51928e-05
5.56563e-06
-1.63628e-06
-9.5188e-05
5.01824e-06
-1.39266e-06
-9.4921e-05
4.80494e-06
-1.36881e-06
-9.45315e-05
4.65714e-06
-1.40972e-06
-9.40853e-05
4.43034e-06
-1.50398e-06
-9.34787e-05
3.98927e-06
-1.65432e-06
-9.28614e-05
3.31901e-06
-1.81692e-06
-9.21664e-05
2.18193e-06
-1.85959e-06
-9.12795e-05
5.93393e-07
-1.7626e-06
-9.04061e-05
-1.07571e-06
-1.51137e-06
-8.97181e-05
-2.91646e-06
-1.13819e-06
-8.91538e-05
-4.81014e-06
-8.11497e-07
-8.87223e-05
-6.48628e-06
-6.00393e-07
-8.81588e-05
-7.81089e-06
-6.6631e-07
-8.74746e-05
-8.52959e-06
-1.04052e-06
-8.66897e-05
-8.55229e-06
-1.65135e-06
-8.56672e-05
-7.9576e-06
-2.51302e-06
-8.44112e-05
-6.95342e-06
-3.37923e-06
-8.26965e-05
-5.56585e-06
-4.21492e-06
-8.02999e-05
-4.28682e-06
-4.60287e-06
-7.70221e-05
-3.11418e-06
-4.71763e-06
-7.28277e-05
-1.72203e-06
-4.73762e-06
-6.75373e-05
-3.51366e-07
-4.92298e-06
-6.13274e-05
8.43181e-07
-5.24041e-06
-5.45616e-05
2.05794e-06
-5.68653e-06
-4.72522e-05
3.25245e-06
-6.40099e-06
-3.92289e-05
5.04331e-06
-7.01815e-06
-2.96538e-05
7.63939e-06
-7.78107e-06
-1.74287e-05
1.06019e-05
-8.72301e-06
1.11609e-05
-1.00698e-05
-5.69522e-06
2.33231e-06
2.91463e-06
-4.49235e-06
-2.89898e-06
-1.64563e-06
-4.02124e-06
-1.96895e-06
-1.13099e-06
-2.43825e-06
-3.2146e-06
-2.01555e-06
-1.37046e-06
-1.94445e-06
-1.70628e-06
-9.77515e-07
-1.8027e-06
-1.0912e-06
-9.28279e-07
-3.11672e-07
-6.13035e-07
-5.46947e-07
-5.62731e-07
-6.9428e-07
-4.17667e-07
3.09661e-07
-2.78997e-07
-1.82363e-07
-5.16396e-08
-1.78267e-07