/*--------------------------------*- C++ -*----------------------------------*\
| =========                 |                                                 |
| \\      /  F ield         | OpenFOAM: The Open Source CFD Toolbox           |
|  \\    /   O peration     | Version:  2.3.0                                 |
|   \\  /    A nd           | Web:      www.OpenFOAM.org                      |
|    \\/     M anipulation  |                                                 |
\*---------------------------------------------------------------------------*/
FoamFile
{
    version     2.0;
    format      ascii;
    class       surfaceScalarField;
    location    "18";
    object      phi.air;
}
// * * * * * * * * * * * * * * * * * * * * * * * * * * * * * * * * * * * * * //

dimensions      [0 3 -1 0 0 0 0];

internalField   nonuniform List<scalar> 
16448
(
-2.41867e-06
-2.58765e-06
9.06113e-07
-6.67761e-07
-2.71152e-06
9.60611e-07
-1.19577e-07
-1.69606e-06
1.14787e-06
5.28531e-07
-1.63323e-06
9.85114e-07
7.32947e-07
-7.82729e-07
5.78303e-07
8.4333e-07
-6.20012e-07
5.09617e-07
6.25553e-07
-2.71863e-07
4.89627e-07
2.64419e-07
-2.54048e-07
6.15168e-07
-1.92681e-07
-2.49166e-07
7.06251e-07
-5.51592e-07
-2.93794e-07
6.52689e-07
-7.63107e-07
-3.43371e-07
5.54869e-07
-7.75246e-07
-4.34028e-07
4.46149e-07
-6.7445e-07
-4.99155e-07
3.98341e-07
-5.0949e-07
-5.42836e-07
3.77858e-07
-3.70238e-07
-5.45187e-07
4.05915e-07
-2.5564e-07
-5.48975e-07
4.34355e-07
-1.74184e-07
-5.47499e-07
4.66019e-07
-1.14648e-07
-5.47273e-07
4.87713e-07
-7.33865e-08
-5.45686e-07
5.04398e-07
-4.45198e-08
-5.43608e-07
5.14715e-07
-2.4625e-08
-5.40939e-07
5.21017e-07
-1.07745e-08
-5.37616e-07
5.23738e-07
-8.33168e-10
-5.34218e-07
5.24248e-07
6.68971e-09
-5.30533e-07
5.22981e-07
1.22152e-08
-5.2658e-07
5.21026e-07
1.6148e-08
-5.22374e-07
5.18411e-07
1.86984e-08
-5.1802e-07
5.1544e-07
2.09167e-08
-5.14319e-07
5.1207e-07
2.29932e-08
-5.1077e-07
5.08663e-07
2.45706e-08
-5.07037e-07
5.05428e-07
2.62097e-08
-5.03936e-07
5.02266e-07
2.67226e-08
-5.00193e-07
4.99647e-07
2.91552e-08
-4.98605e-07
4.96141e-07
2.72472e-08
-4.93305e-07
4.95179e-07
3.31745e-08
-4.9531e-07
4.8935e-07
2.91397e-08
-4.87074e-07
4.91074e-07
4.11055e-08
-4.92635e-07
4.80635e-07
3.90634e-08
-4.83492e-07
4.85497e-07
5.73404e-08
-4.88507e-07
4.70195e-07
7.03011e-08
-4.85297e-07
4.72298e-07
9.67131e-08
-4.80375e-07
4.53926e-07
1.57491e-07
-5.01589e-07
4.40771e-07
2.07205e-07
-4.80265e-07
4.30511e-07
3.4937e-07
-5.54279e-07
4.12072e-07
4.14327e-07
-4.92269e-07
4.2727e-07
5.86852e-07
-6.21155e-07
4.48585e-07
5.31869e-07
-4.99628e-07
5.54567e-07
5.58105e-07
-5.85764e-07
5.59481e-07
3.61526e-07
-5.60187e-07
7.5672e-07
2.564e-07
-4.81453e-07
5.86528e-07
4.79327e-07
-1.08754e-06
8.64568e-07
1.02003e-07
-3.11615e-07
6.88887e-07
6.20723e-07
-1.62873e-06
1.10995e-06
4.11772e-08
-1.07719e-06
1.65668e-06
-1.78986e-07
-1.92747e-06
2.14752e-06
-1.92713e-06
-2.49976e-06
4.24784e-06
-1.8052e-06
9.92982e-07
-1.1164e-06
-4.61868e-06
4.35688e-06
-1.5436e-06
-6.11538e-06
2.98594e-06
-1.68413e-06
-2.71513e-05
-1.76936e-05
1.22636e-05
-6.541e-05
-1.41001e-05
1.78103e-06
-4.71995e-05
-1.90958e-07
-1.26255e-06
-7.64721e-06
5.90543e-06
-7.97463e-06
1.9223e-05
2.77832e-07
-2.05976e-06
2.01192e-05
1.33973e-06
-2.24724e-06
2.09276e-05
2.04842e-06
-2.83959e-06
2.17874e-05
2.14273e-06
-3.0344e-06
2.23235e-05
2.19823e-06
-2.77184e-06
2.2387e-05
2.28106e-06
-2.37197e-06
2.20571e-05
2.31367e-06
-2.00424e-06
2.14749e-05
2.23131e-06
-1.6673e-06
2.07762e-05
2.03095e-06
-1.3474e-06
2.01081e-05
1.68638e-06
-1.0261e-06
1.95332e-05
1.31225e-06
-7.40259e-07
1.91013e-05
9.24689e-07
-4.94946e-07
1.88485e-05
5.39287e-07
-2.90796e-07
1.88268e-05
1.3372e-07
-1.17038e-07
1.90639e-05
-2.71067e-07
2.83162e-08
1.94897e-05
-5.89146e-07
1.62048e-07
2.0052e-05
-8.38399e-07
2.76274e-07
2.07105e-05
-1.00196e-06
3.44552e-07
2.13045e-05
-1.0113e-06
4.15499e-07
2.17989e-05
-9.36339e-07
4.37456e-07
2.20746e-05
-7.28151e-07
4.49931e-07
2.20554e-05
-4.3073e-07
4.42311e-07
2.15939e-05
4.90791e-08
4.16077e-07
2.07305e-05
4.35193e-07
4.27081e-07
1.91711e-05
1.20832e-06
3.48395e-07
1.65976e-05
2.03837e-06
5.3303e-07
1.33199e-05
2.62702e-06
6.58421e-07
8.08819e-06
3.90392e-06
1.39125e-06
1.59282e-06
3.56835e-06
3.1633e-06
-3.30913e-06
1.77851e-06
3.30676e-06
-5.93568e-06
1.43007e-06
1.23177e-06
-5.32776e-06
1.70236e-06
-2.3172e-06
1.15489e-06
-5.73251e-06
-4.43932e-06
-3.66828e-06
2.97042e-07
-3.4444e-06
-3.90769e-06
2.01248e-07
-2.67816e-06
-2.9445e-06
4.8219e-07
-1.43723e-06
-2.86993e-06
-4.23584e-09
-6.17217e-07
-1.50036e-06
-1.02396e-07
-6.01727e-10
-1.19128e-06
-4.53534e-08
1.07449e-07
-4.33549e-07
5.36222e-08
-2.21659e-07
-2.12216e-07
2.87261e-07
-6.33325e-07
-1.67515e-07
3.29997e-07
-9.39002e-07
-2.38342e-07
2.50206e-07
-1.08285e-06
-3.38751e-07
1.39206e-07
-1.00872e-06
-5.37504e-07
2.93235e-08
-8.5875e-07
-6.40684e-07
-8.46299e-09
-6.69263e-07
-6.95151e-07
-3.71978e-08
-5.0868e-07
-6.88132e-07
-1.76654e-08
-3.74969e-07
-6.85244e-07
2.52794e-09
-2.7596e-07
-6.66758e-07
2.0217e-08
-2.01743e-07
-6.53875e-07
3.23502e-08
-1.49589e-07
-6.40034e-07
4.21574e-08
-1.12745e-07
-6.28143e-07
4.76536e-08
-8.69801e-08
-6.17135e-07
5.03919e-08
-6.88482e-08
-6.06671e-07
5.08829e-08
-5.60091e-08
-5.97083e-07
4.99853e-08
-4.66564e-08
-5.88024e-07
4.80964e-08
-4.02222e-08
-5.79006e-07
4.59494e-08
-3.58837e-08
-5.70096e-07
4.33407e-08
-3.28576e-08
-5.61568e-07
4.04776e-08
-3.05613e-08
-5.54194e-07
3.75336e-08
-2.89125e-08
-5.47071e-07
3.4607e-08
-2.74714e-08
-5.40315e-07
3.17912e-08
-2.54932e-08
-5.34874e-07
2.89128e-08
-2.55433e-08
-5.27279e-07
2.70885e-08
-2.21575e-08
-5.25301e-07
2.32606e-08
-2.65652e-08
-5.13034e-07
2.4087e-08
-1.60319e-08
-5.21857e-07
1.59618e-08
-2.63176e-08
-4.98746e-07
2.19057e-08
-1.54888e-09
-5.24362e-07
6.90344e-09
-1.97341e-08
-4.85427e-07
2.00659e-08
1.9719e-08
-5.25474e-07
-2.5436e-09
5.21363e-09
-4.83013e-07
1.21642e-08
7.02565e-08
-5.28041e-07
-1.74378e-08
1.08119e-07
-5.21166e-07
-1.83465e-08
1.94272e-07
-5.47632e-07
-1.8851e-08
3.20783e-07
-6.29909e-07
-5.09457e-08
4.13583e-07
-5.85674e-07
5.37298e-10
5.93307e-07
-7.81599e-07
-1.935e-08
5.58677e-07
-5.72798e-07
1.07727e-07
7.08083e-07
-7.47053e-07
1.18088e-08
4.53295e-07
-5.87944e-07
2.82466e-07
6.49492e-07
-6.52833e-07
-2.48966e-08
3.54493e-07
-1.17868e-06
3.86052e-07
1.07312e-06
-9.73385e-07
-5.69399e-08
1.03829e-07
-1.37315e-06
7.13626e-07
-2.32779e-06
-4.65973e-08
1.40095e-06
9.64652e-08
-3.76704e-06
-5.84797e-07
3.46392e-06
-6.74019e-06
8.72881e-07
-4.29936e-06
1.02208e-05
-1.46597e-06
-1.17957e-05
1.26164e-05
-7.63297e-07
-7.89788e-06
5.70728e-06
-6.83689e-06
-2.72302e-05
-3.02265e-05
5.24053e-06
-7.48172e-05
-2.24142e-05
3.58188e-06
-3.59333e-05
-1.82545e-06
-3.28951e-06
1.08376e-05
3.6666e-07
-6.91688e-06
1.23378e-05
3.03707e-06
-4.57776e-06
1.38628e-05
4.91537e-06
-4.73719e-06
1.62278e-05
4.5448e-06
-4.86024e-06
1.81701e-05
4.42465e-06
-4.263e-06
1.92803e-05
4.55058e-06
-3.43941e-06
1.97337e-05
4.58466e-06
-2.7222e-06
1.9743e-05
4.47209e-06
-2.14783e-06
1.93776e-05
4.22428e-06
-1.62454e-06
1.87422e-05
3.75929e-06
-1.10683e-06
1.81071e-05
2.85287e-06
-5.62156e-07
1.76215e-05
1.8347e-06
-6.07238e-08
1.7264e-05
9.10263e-07
3.73034e-07
1.6925e-05
2.45697e-07
6.51611e-07
1.66283e-05
-4.21745e-07
8.67295e-07
1.6475e-05
-1.12262e-06
1.01746e-06
1.6501e-05
-1.73629e-06
1.12761e-06
1.67497e-05
-2.25431e-06
1.16572e-06
1.71601e-05
-2.54792e-06
1.13361e-06
1.76729e-05
-2.61862e-06
1.08518e-06
1.82501e-05
-2.4432e-06
9.22178e-07
1.86629e-05
-2.01304e-06
8.63638e-07
1.89517e-05
-1.42724e-06
6.95904e-07
1.89468e-05
-5.45884e-07
5.93417e-07
1.84845e-05
4.0698e-07
4.95912e-07
1.75312e-05
1.84983e-06
3.14672e-07
1.55931e-05
3.49643e-06
4.75175e-07
1.28383e-05
4.90981e-06
4.99556e-07
8.77355e-06
6.87603e-06
1.15023e-06
2.88381e-06
6.98804e-06
2.68698e-06
-2.65603e-06
4.34265e-06
3.14894e-06
-5.68407e-06
3.18732e-06
1.29439e-06
-5.14206e-06
3.58428e-06
-2.40781e-06
3.39333e-06
-6.52167e-06
-5.12051e-06
-3.97962e-06
2.54947e-07
-4.40139e-06
-4.46666e-06
-1.60146e-07
-3.88541e-06
-3.5943e-06
1.33827e-07
-2.91091e-06
-3.53019e-06
-3.14248e-07
-1.96743e-06
-2.23039e-06
-2.13447e-07
-9.37497e-07
-1.97618e-06
-2.4505e-07
-4.71621e-07
-7.02422e-07
-1.97013e-07
-5.51655e-07
-2.19617e-07
8.74212e-08
-8.33968e-07
-1.25308e-08
1.27313e-07
-1.01759e-06
-1.17167e-07
6.24244e-08
-1.08153e-06
-2.3933e-07
-3.54997e-08
-9.8332e-07
-4.91742e-07
-1.43995e-07
-8.54184e-07
-5.7725e-07
-1.92593e-07
-7.07912e-07
-6.15646e-07
-2.25802e-07
-5.78315e-07
-5.82095e-07
-2.35663e-07
-4.58107e-07
-5.63575e-07
-2.41908e-07
-3.65073e-07
-5.25864e-07
-2.33962e-07
-2.91795e-07
-4.99032e-07
-2.28155e-07
-2.38037e-07
-4.7085e-07
-2.22978e-07
-1.99097e-07
-4.46972e-07
-2.20148e-07
-1.71296e-07
-4.25818e-07
-2.19157e-07
-1.51452e-07
-4.06821e-07
-2.19734e-07
-1.37305e-07
-3.90092e-07
-2.21178e-07
-1.26899e-07
-3.75281e-07
-2.2319e-07
-1.1949e-07
-3.6126e-07
-2.25198e-07
-1.14452e-07
-3.47791e-07
-2.27386e-07
-1.10989e-07
-3.35414e-07
-2.29659e-07
-1.08719e-07
-3.246e-07
-2.31908e-07
-1.07311e-07
-3.14358e-07
-2.34166e-07
-1.06039e-07
-3.05074e-07
-2.36559e-07
-1.05243e-07
-2.9687e-07
-2.38846e-07
-1.04475e-07
-2.87426e-07
-2.40667e-07
-1.04301e-07
-2.829e-07
-2.42623e-07
-1.04237e-07
-2.69615e-07
-2.43531e-07
-1.00224e-07
-2.77024e-07
-2.48895e-07
-1.01307e-07
-2.51343e-07
-2.46372e-07
-8.70464e-08
-2.82314e-07
-2.5636e-07
-9.05303e-08
-2.34134e-07
-2.47864e-07
-5.50062e-08
-2.95843e-07
-2.65209e-07
-6.37323e-08
-2.27277e-07
-2.47068e-07
1.32794e-08
-3.28026e-07
-2.77084e-07
-8.72142e-09
-2.55724e-07
-2.43502e-07
1.02712e-07
-3.84918e-07
-2.74208e-07
1.00764e-07
-3.76629e-07
-2.51396e-07
2.16437e-07
-4.70753e-07
-2.30657e-07
2.25566e-07
-5.50123e-07
-2.40674e-07
2.77748e-07
-4.94149e-07
-1.309e-07
4.01937e-07
-6.09077e-07
-2.62237e-07
3.25139e-07
-5.09846e-07
-1.37313e-09
7.75176e-07
-7.62066e-07
-3.40881e-07
4.93327e-07
-9.6971e-07
7.28002e-08
1.19466e-06
-1.38685e-06
-2.87949e-07
1.15534e-06
-1.37163e-06
3.7706e-08
1.99183e-08
1.20029e-06
-1.1155e-07
2.15464e-06
-4.29076e-06
-1.61115e-06
1.63134e-06
-6.75564e-06
5.38646e-07
4.13965e-06
1.08529e-05
-3.14201e-06
1.88914e-06
1.72366e-05
-2.36978e-06
-4.57865e-06
1.55902e-05
-3.58229e-06
-2.35389e-05
-3.73659e-05
2.88242e-06
-3.29035e-05
-3.4534e-05
7.88405e-06
-3.47422e-06
-9.03806e-06
6.35428e-07
7.46464e-06
-7.36878e-06
-3.39831e-06
7.67872e-06
5.15435e-06
-2.65621e-06
1.04108e-05
5.51951e-06
-3.15914e-06
1.2774e-05
5.32034e-06
-3.32649e-06
1.44095e-05
5.34724e-06
-2.67618e-06
1.53751e-05
5.02843e-06
-1.48978e-06
1.56929e-05
4.76763e-06
-5.21945e-07
1.54561e-05
4.52609e-06
1.76484e-07
1.48289e-05
4.11359e-06
7.61974e-07
1.38947e-05
3.50958e-06
1.23622e-06
1.26619e-05
2.38327e-06
1.75103e-06
1.11728e-05
1.15497e-06
2.19796e-06
9.3551e-06
2.5761e-07
2.47862e-06
7.53775e-06
-5.55075e-07
2.60561e-06
5.95884e-06
-1.37174e-06
2.50961e-06
4.85136e-06
-2.258e-06
2.22637e-06
4.40426e-06
-3.14764e-06
1.84332e-06
4.66609e-06
-3.90474e-06
1.38065e-06
5.48663e-06
-4.34758e-06
9.79554e-07
6.68462e-06
-4.45508e-06
6.42689e-07
7.98567e-06
-4.12077e-06
3.81681e-07
9.14308e-06
-3.44882e-06
2.66124e-07
1.02018e-05
-2.56002e-06
6.37953e-08
1.10179e-05
-1.38871e-06
1.70338e-08
1.15979e-05
2.37637e-08
-1.88504e-07
1.19248e-05
1.92074e-06
-3.60473e-07
1.13585e-05
4.16058e-06
-9.11209e-08
9.60039e-06
6.43786e-06
2.59801e-07
6.11828e-06
9.16167e-06
1.33002e-06
1.11102e-06
9.39657e-06
2.89654e-06
-3.46339e-06
6.13198e-06
2.9653e-06
-5.91001e-06
4.57004e-06
1.08131e-06
-5.21524e-06
5.37198e-06
-2.45193e-06
5.87219e-06
-6.70914e-06
-5.31768e-06
-4.08704e-06
5.15677e-07
-4.57108e-06
-4.73285e-06
-4.80408e-07
-4.31578e-06
-3.92946e-06
7.98513e-08
-3.45736e-06
-4.02484e-06
-3.63776e-07
-2.6704e-06
-2.87578e-06
-1.4156e-07
-1.50061e-06
-2.87498e-06
-2.71003e-07
-7.89837e-07
-1.26894e-06
-1.44255e-07
-5.8333e-07
-5.2451e-07
9.83702e-08
-7.3881e-07
2.0408e-08
1.22524e-07
-8.73842e-07
-4.04911e-08
5.83338e-08
-8.73144e-07
-1.8809e-07
-5.19586e-08
-7.91041e-07
-4.10404e-07
-1.63468e-07
-7.28174e-07
-4.24862e-07
-2.15281e-07
-6.53602e-07
-4.30413e-07
-2.59835e-07
-5.76172e-07
-3.72778e-07
-2.86777e-07
-4.8227e-07
-3.44842e-07
-3.12669e-07
-3.99653e-07
-2.90294e-07
-3.18221e-07
-3.27496e-07
-2.49883e-07
-3.21343e-07
-2.71218e-07
-2.07884e-07
-3.1928e-07
-2.28854e-07
-1.72061e-07
-3.17315e-07
-1.98584e-07
-1.40037e-07
-3.16091e-07
-1.77402e-07
-1.11864e-07
-3.16179e-07
-1.62759e-07
-8.80186e-08
-3.16758e-07
-1.52753e-07
-6.77595e-08
-3.1757e-07
-1.46126e-07
-4.92659e-08
-3.18664e-07
-1.41761e-07
-3.22263e-08
-3.19974e-07
-1.38891e-07
-1.70551e-08
-3.21274e-07
-1.38087e-07
-2.96685e-09
-3.22481e-07
-1.37984e-07
8.87501e-09
-3.23382e-07
-1.3822e-07
1.93316e-08
-3.24216e-07
-1.39103e-07
2.9032e-08
-3.25066e-07
-1.39391e-07
3.85897e-08
-3.25774e-07
-1.40614e-07
4.52319e-08
-3.26959e-07
-1.39731e-07
5.65544e-08
-3.271e-07
-1.37813e-07
5.1837e-08
-3.30831e-07
-1.36101e-07
7.45318e-08
-3.27636e-07
-1.24336e-07
4.35985e-08
-3.37731e-07
-1.23433e-07
9.22129e-08
-3.27302e-07
-9.19345e-08
1.91957e-08
-3.46593e-07
-1.00105e-07
1.04062e-07
-3.23223e-07
-3.57762e-08
-3.64961e-08
-3.55917e-07
-7.88505e-08
9.4724e-08
-3.0743e-07
1.41262e-08
-1.27431e-07
-3.50527e-07
-1.05002e-07
1.91475e-08
-2.76709e-07
-4.12816e-09
-2.56505e-07
-3.15187e-07
-1.81485e-07
-1.15508e-07
-2.57322e-07
-3.1569e-08
-3.79223e-07
-2.64911e-07
-9.46648e-08
-2.60538e-07
-2.85512e-07
1.28674e-07
-5.15423e-07
-2.17837e-07
4.94072e-07
-7.57243e-07
-3.70295e-07
4.21383e-07
-8.13159e-07
-8.39423e-08
-8.95247e-08
-9.07146e-07
3.11279e-08
5.64047e-08
-1.49912e-06
-1.85182e-08
8.56689e-07
2.99991e-07
9.99301e-08
-2.50641e-06
-9.64958e-07
3.71207e-08
-8.43318e-06
-2.19987e-06
1.37096e-06
4.23883e-06
1.21988e-06
-3.04058e-06
8.27915e-06
2.03278e-05
-7.13099e-06
7.42561e-06
1.80429e-05
-1.88942e-06
-2.39773e-05
-3.65025e-05
4.13185e-06
-3.95997e-05
-3.66822e-05
9.87122e-06
-8.47315e-06
-7.02632e-06
2.09064e-06
-7.12728e-06
-7.55146e-06
-1.93681e-08
-4.17219e-06
3.66864e-06
-2.79154e-06
3.44622e-06
1.77489e-06
-4.11799e-06
6.34277e-06
3.56228e-06
-1.81367e-06
8.13295e-06
2.78858e-06
9.74652e-07
8.62715e-06
2.82444e-06
2.48737e-06
8.02575e-06
3.07663e-06
3.0337e-06
6.47365e-06
3.2792e-06
2.92221e-06
3.69114e-06
3.43997e-06
3.33829e-06
-4.57721e-07
3.27272e-06
4.44977e-06
-5.71732e-06
2.43527e-06
4.96707e-06
-1.0098e-05
9.47768e-07
4.37379e-06
-1.25064e-05
-6.71284e-07
2.9002e-06
-1.35159e-05
-1.59166e-06
1.8554e-06
-1.32805e-05
-2.80972e-06
9.84445e-07
-1.20758e-05
-3.86139e-06
5.19297e-07
-1.02614e-05
-4.65756e-06
-8.22067e-08
-8.08444e-06
-5.18853e-06
-8.23672e-07
-5.7669e-06
-5.50562e-06
-1.12505e-06
-3.48141e-06
-5.44015e-06
-1.28334e-06
-1.38697e-06
-4.90515e-06
-1.31717e-06
3.85219e-07
-4.02036e-06
-1.24379e-06
1.76801e-06
-2.88435e-06
-1.12084e-06
2.88008e-06
-1.56401e-06
-9.98155e-07
4.03263e-06
-7.22104e-08
-1.07135e-06
4.84552e-06
2.07037e-06
-9.69751e-07
5.14597e-06
4.52322e-06
-6.52817e-07
4.52188e-06
7.57214e-06
-3.95585e-07
1.83333e-06
1.08646e-05
1.20699e-06
-2.05951e-06
1.03707e-05
3.18763e-06
-5.02497e-06
6.58129e-06
2.60974e-06
-6.49904e-06
5.41886e-06
6.44917e-07
-5.35869e-06
7.0414e-06
-2.74059e-06
8.49051e-06
-6.88885e-06
-5.28434e-06
-4.01915e-06
6.93388e-07
-4.39504e-06
-4.84791e-06
-7.74234e-07
-4.22899e-06
-4.13301e-06
3.75028e-08
-3.33494e-06
-4.33701e-06
-5.81873e-07
-2.75575e-06
-3.28344e-06
-1.71525e-07
-1.75458e-06
-3.44309e-06
-4.33063e-07
-1.19012e-06
-1.79025e-06
-4.31657e-08
-7.32555e-07
-1.05832e-06
7.62316e-08
-6.23856e-07
-1.67551e-07
7.92375e-08
-6.19229e-07
-8.17818e-08
3.66436e-08
-5.43766e-07
-1.74371e-07
-8.92101e-08
-5.02594e-07
-2.91785e-07
-1.59815e-07
-5.12237e-07
-2.2132e-07
-1.93929e-07
-5.16036e-07
-2.01154e-07
-2.25489e-07
-4.97477e-07
-1.33007e-07
-2.58362e-07
-4.48171e-07
-1.00672e-07
-2.93507e-07
-3.93192e-07
-3.54393e-08
-3.0987e-07
-3.32635e-07
1.17564e-08
-3.22231e-07
-2.82978e-07
6.82076e-08
-3.25787e-07
-2.42828e-07
1.14367e-07
-3.26616e-07
-2.1344e-07
1.55747e-07
-3.25211e-07
-1.93145e-07
1.90547e-07
-3.22747e-07
-1.79483e-07
2.18622e-07
-3.20343e-07
-1.70374e-07
2.41635e-07
-3.18545e-07
-1.64735e-07
2.61412e-07
-3.16359e-07
-1.61039e-07
2.78119e-07
-3.14084e-07
-1.58014e-07
2.91845e-07
-3.11968e-07
-1.55424e-07
3.04156e-07
-3.09758e-07
-1.54381e-07
3.15286e-07
-3.07498e-07
-1.54758e-07
3.24912e-07
-3.05249e-07
-1.56403e-07
3.33603e-07
-3.02971e-07
-1.58038e-07
3.41289e-07
-3.01111e-07
-1.60639e-07
3.47307e-07
-2.99519e-07
-1.61189e-07
3.54504e-07
-2.97448e-07
-1.60696e-07
3.48896e-07
-2.97598e-07
-1.59461e-07
3.66017e-07
-2.9277e-07
-1.50664e-07
3.32714e-07
-2.9796e-07
-1.51079e-07
3.78228e-07
-2.85652e-07
-1.26997e-07
2.92866e-07
-2.97802e-07
-1.37266e-07
3.85783e-07
-2.71505e-07
-9.91218e-08
2.17657e-07
-2.92348e-07
-1.40255e-07
3.81111e-07
-2.4531e-07
-1.28531e-07
1.23757e-07
-2.62964e-07
-2.15088e-07
3.31193e-07
-2.25547e-07
-2.95951e-07
3.88178e-08
-2.14514e-07
-3.94345e-07
2.35812e-07
-2.52987e-07
-4.28067e-07
-1.2121e-07
-2.24348e-07
-4.49256e-07
7.37822e-08
-3.13195e-07
-2.97059e-09
-6.13406e-07
-3.48363e-07
2.43575e-07
-5.69751e-07
-4.34108e-07
2.27515e-07
-7.7249e-07
-2.46763e-08
-6.75001e-07
-1.03858e-07
9.91542e-08
-1.59709e-06
-8.85822e-07
3.08717e-07
-1.33045e-06
-1.31148e-06
1.34476e-06
-2.09095e-07
-1.19943e-08
-2.0745e-06
-2.67643e-06
2.45425e-06
-2.18688e-06
7.93884e-06
-4.0337e-06
-5.36281e-06
1.27055e-05
2.51826e-05
-9.62124e-06
1.76903e-05
2.01952e-06
9.78988e-06
-3.82122e-05
-2.52493e-05
5.83878e-06
-0.000115265
-3.65268e-05
9.537e-06
-0.000114858
-6.33531e-06
3.26662e-06
-0.000114336
-6.75137e-06
2.10349e-06
-0.000112086
8.87791e-07
8.71778e-07
-0.000109908
6.61627e-07
1.42657e-06
-0.000111238
2.41348e-06
3.42877e-06
-0.000114869
2.41717e-06
4.30561e-06
-0.00011948
2.99537e-06
3.75086e-06
-0.000123624
3.23003e-06
3.67136e-06
-0.000126852
3.30542e-06
3.37525e-06
-0.00012969
3.06621e-06
3.07066e-06
-0.00013171
2.61592e-06
2.65214e-06
-0.000133026
1.55775e-06
2.03618e-06
-0.000131759
3.8365e-07
1.11145e-06
-0.000119285
-1.0705e-06
3.61796e-07
-0.00012353
-2.08386e-06
-1.31914e-07
-0.000133735
-3.04963e-06
-7.98508e-07
-0.00012597
-4.01277e-06
-1.1739e-06
-0.000111323
-4.81884e-06
-1.53492e-06
-5.92266e-05
-5.35715e-06
-1.80845e-06
-1.62308e-05
-5.69938e-06
-2.02496e-06
-1.31858e-05
-5.58696e-06
-2.05132e-06
-1.02808e-05
-4.97654e-06
-1.99215e-06
-7.81761e-06
-3.83203e-06
-1.88431e-06
-5.91619e-06
-2.16921e-06
-1.69982e-06
-4.60814e-06
-5.90029e-07
-1.60406e-06
-3.68791e-06
5.43204e-07
-1.58325e-06
-2.8877e-06
2.6848e-06
-1.3897e-06
-2.63344e-06
5.2908e-06
-9.8406e-07
-3.33763e-06
8.32336e-06
1.30335e-07
-4.95395e-06
1.06886e-05
2.11473e-06
-5.68116e-06
8.40776e-06
2.84341e-06
-6.5778e-06
5.69426e-06
1.82064e-06
-6.96248e-06
6.18124e-06
-3.56385e-07
-5.37503e-06
8.7524e-06
-3.23398e-06
1.09616e-05
-6.67317e-06
-5.29381e-06
-3.45037e-06
5.40808e-07
-4.21787e-06
-4.6781e-06
-1.24574e-06
-4.04481e-06
-4.04675e-06
-2.59317e-07
-2.95029e-06
-4.45291e-06
-9.7862e-07
-2.46458e-06
-3.408e-06
-3.61156e-07
-1.61653e-06
-3.5714e-06
-7.19735e-07
-1.26351e-06
-1.93224e-06
-2.11039e-07
-8.35248e-07
-1.49618e-06
9.58397e-09
-5.71585e-07
-3.96139e-07
-3.5092e-08
-3.56498e-07
-2.37364e-07
-5.95318e-08
-1.56378e-07
-1.90739e-07
-1.83774e-07
-1.41136e-07
-1.16911e-07
-1.90146e-07
-2.25133e-07
7.74333e-08
-2.14782e-07
-3.16479e-07
1.2035e-07
-2.3019e-07
-3.57858e-07
1.79688e-07
-2.71344e-07
-3.58425e-07
2.00057e-07
-3.00195e-07
-3.42333e-07
2.72075e-07
-3.23637e-07
-3.12217e-07
3.21455e-07
-3.3985e-07
-2.82192e-07
3.82712e-07
-3.44562e-07
-2.54349e-07
4.32391e-07
-3.45903e-07
-2.33277e-07
4.77847e-07
-3.43208e-07
-2.18972e-07
5.1554e-07
-3.39334e-07
-2.10804e-07
5.4595e-07
-3.35533e-07
-2.07275e-07
5.69687e-07
-3.3162e-07
-2.06831e-07
5.88597e-07
-3.27666e-07
-2.08009e-07
6.02827e-07
-3.23569e-07
-2.09841e-07
6.13047e-07
-3.19409e-07
-2.11374e-07
6.20606e-07
-3.14955e-07
-2.13228e-07
6.26505e-07
-3.09405e-07
-2.15421e-07
6.30679e-07
-3.03612e-07
-2.17936e-07
6.33883e-07
-2.97805e-07
-2.19914e-07
6.35626e-07
-2.92398e-07
-2.22435e-07
6.36828e-07
-2.87041e-07
-2.22371e-07
6.36723e-07
-2.82321e-07
-2.24548e-07
6.29717e-07
-2.78687e-07
-2.22823e-07
6.35352e-07
-2.71099e-07
-2.21546e-07
6.03994e-07
-2.72601e-07
-2.19237e-07
6.32405e-07
-2.56524e-07
-2.13409e-07
5.52698e-07
-2.65705e-07
-2.17694e-07
6.25936e-07
-2.35906e-07
-2.23684e-07
4.73911e-07
-2.50308e-07
-2.44467e-07
6.14815e-07
-2.12959e-07
-3.22266e-07
4.1096e-07
-2.09448e-07
-3.64286e-07
5.80697e-07
-2.07521e-07
-5.66766e-07
3.9997e-07
-1.58715e-07
-6.22352e-07
5.3299e-07
-2.4163e-07
-7.49187e-07
2.17992e-07
-2.12412e-07
-7.81643e-07
3.99021e-07
-2.92821e-07
-3.65473e-07
-6.10325e-07
-4.19298e-07
-2.88063e-07
-2.69538e-07
-3.77664e-07
-8.85378e-07
-2.74533e-07
9.93057e-08
-1.06455e-06
1.50736e-07
-7.54718e-08
-1.81623e-06
-4.54743e-07
3.20539e-07
-8.70223e-07
-2.79678e-06
5.39246e-07
1.72493e-06
-7.13622e-08
-2.53597e-06
3.80197e-08
9.17029e-06
-5.02921e-06
6.02731e-06
-1.82554e-06
-8.19804e-06
2.35519e-05
1.92878e-05
-1.16297e-05
1.32512e-05
-1.05151e-05
1.89991e-05
-5.01679e-05
-1.51433e-05
6.15084e-06
-0.000112893
-3.23711e-05
1.4309e-05
-0.000125546
-5.91684e-06
4.99339e-06
-0.000142014
-4.52902e-06
3.21682e-06
-0.00014438
5.03027e-07
8.96582e-07
-0.000146099
1.54113e-06
7.03702e-07
-0.000148218
2.7258e-06
1.48064e-06
-0.000149668
2.95958e-06
1.85556e-06
-0.000149267
3.1872e-06
1.89618e-06
-0.000150033
3.21858e-06
1.8811e-06
-0.000151001
3.21007e-06
1.71928e-06
-0.000148807
2.98302e-06
1.45265e-06
-0.00014879
2.62272e-06
1.02799e-06
-0.000154332
1.65902e-06
6.68161e-07
-0.000157456
7.33977e-07
1.9892e-07
-0.000156554
-3.32774e-07
-3.03515e-07
-0.000155816
-1.79999e-06
-5.51607e-07
-0.000154514
-2.8072e-06
-8.66315e-07
-0.000152519
-4.07306e-06
-1.06391e-06
-0.000150824
-5.61121e-06
-1.30579e-06
-0.000149092
-6.42375e-06
-1.5308e-06
-0.000147287
-6.72073e-06
-1.61431e-06
-0.000147582
-6.80757e-06
-1.69386e-06
-0.000141269
-6.43098e-06
-1.56259e-06
-0.000130684
-5.33325e-06
-1.26091e-06
-0.000105039
-3.50556e-06
-8.0036e-07
-4.84065e-05
-2.02952e-06
-3.44191e-07
-1.21588e-05
-1.14388e-06
-1.66072e-07
-1.15678e-05
1.17231e-06
1.05408e-07
-1.12985e-05
2.70963e-06
1.18662e-06
-1.00485e-05
4.27286e-06
1.74931e-06
-8.23378e-06
6.63358e-06
2.39058e-06
-7.07412e-06
5.34241e-06
1.94894e-06
-7.00874e-06
5.01672e-06
7.27583e-07
-6.37224e-06
7.03947e-06
-1.28927e-06
-4.54111e-06
1.24753e-05
-3.65232e-06
1.53348e-05
-6.51381e-06
-5.67512e-06
-2.37722e-06
4.59603e-07
-4.35877e-06
-4.11244e-06
-1.882e-06
-4.13397e-06
-3.52298e-06
-7.48569e-07
-2.79665e-06
-4.23421e-06
-1.55601e-06
-2.06682e-06
-3.23386e-06
-9.03981e-07
-1.08871e-06
-3.26321e-06
-1.28631e-06
-8.31518e-07
-1.5479e-06
-6.41544e-07
-6.10309e-07
-1.37254e-06
-3.44867e-07
-4.63852e-07
-2.66728e-07
-2.75892e-07
-2.31688e-07
-2.36307e-07
-2.33242e-07
3.87364e-08
-1.16612e-07
-3.44579e-07
4.58193e-08
8.07098e-08
-2.04727e-07
-3.51888e-08
3.81267e-07
-2.22855e-07
-1.50444e-07
4.47971e-07
-2.1239e-07
-2.14568e-07
5.22267e-07
-2.78485e-07
-2.56563e-07
5.41841e-07
-2.99814e-07
-2.88139e-07
6.30128e-07
-3.26507e-07
-2.98326e-07
6.70514e-07
-3.389e-07
-3.01568e-07
7.32533e-07
-3.4661e-07
-2.97653e-07
7.78745e-07
-3.50298e-07
-2.93922e-07
8.22615e-07
-3.4853e-07
-2.91265e-07
8.56927e-07
-3.44074e-07
-2.91646e-07
8.82729e-07
-3.36429e-07
-2.9451e-07
9.00565e-07
-3.28045e-07
-2.98997e-07
9.12685e-07
-3.19632e-07
-3.04887e-07
9.19246e-07
-3.1056e-07
-3.10676e-07
9.21792e-07
-3.02987e-07
-3.14777e-07
9.21554e-07
-2.96879e-07
-3.17997e-07
9.20199e-07
-2.90503e-07
-3.20782e-07
9.17508e-07
-2.84076e-07
-3.23335e-07
9.13909e-07
-2.77502e-07
-3.2485e-07
9.08327e-07
-2.71218e-07
-3.2693e-07
9.03293e-07
-2.64413e-07
-3.26371e-07
8.9476e-07
-2.58628e-07
-3.29137e-07
8.83934e-07
-2.51479e-07
-3.24371e-07
8.75471e-07
-2.44915e-07
-3.30304e-07
8.4885e-07
-2.38949e-07
-3.23432e-07
8.54403e-07
-2.289e-07
-3.396e-07
7.92792e-07
-2.23949e-07
-3.35599e-07
8.32935e-07
-2.11029e-07
-3.86114e-07
7.24468e-07
-2.00063e-07
-3.90538e-07
8.16771e-07
-1.97556e-07
-5.12439e-07
6.94322e-07
-1.61478e-07
-5.23289e-07
7.93834e-07
-2.02307e-07
-6.97772e-07
7.16979e-07
-1.42539e-07
-7.07326e-07
7.69985e-07
-2.27459e-07
-7.79424e-07
5.21632e-07
-2.31552e-07
-7.86963e-07
6.90716e-07
-2.84173e-07
-6.86521e-07
-3.28378e-07
-3.82401e-07
-6.64292e-07
7.62494e-08
-3.68036e-07
-1.07956e-06
1.18724e-07
2.1996e-08
-7.03792e-07
2.06976e-08
-2.45752e-07
-9.66627e-07
-1.70212e-07
-2.17226e-08
-1.11522e-06
-2.62553e-06
-2.26921e-08
3.6814e-07
-3.67623e-07
-1.18721e-06
7.35144e-06
6.23042e-06
-4.04357e-06
1.05506e-05
4.97555e-06
-1.00006e-05
3.3087e-05
1.08996e-05
-1.4148e-05
-1.54735e-06
-8.64742e-06
2.39249e-05
-8.61553e-05
-5.26184e-06
5.95103e-06
-0.000153557
-1.36913e-05
1.7563e-05
-0.000155427
-1.22246e-06
6.70201e-06
-0.000163866
6.27909e-07
2.47202e-06
-0.000178389
2.81233e-06
4.06465e-07
-0.000181646
3.53546e-06
-6.05615e-07
-0.000179397
3.92387e-06
-3.31196e-08
-0.000166571
3.85607e-06
1.60231e-07
-0.000168518
4.01751e-06
3.40446e-07
-0.000169858
4.13958e-06
4.62827e-07
-0.000166557
4.06134e-06
4.09126e-07
-0.000179665
3.87249e-06
3.06275e-07
-0.000186162
3.51267e-06
7.51979e-08
-0.00018759
2.56647e-06
-1.47939e-07
-0.000186982
1.51383e-06
-3.35503e-07
-0.000185743
2.79293e-07
-3.84078e-07
-0.000189339
-1.4659e-06
-5.05679e-07
-0.000187221
-3.00967e-06
-5.80097e-07
-0.000182459
-4.86659e-06
-6.90402e-07
-0.00018102
-6.64708e-06
-9.07621e-07
-0.000177586
-7.78947e-06
-1.11273e-06
-0.000179226
-8.59004e-06
-1.49738e-06
-0.000176891
-9.0616e-06
-1.84915e-06
-0.000168691
-9.08156e-06
-2.12062e-06
-0.000160584
-8.42354e-06
-2.12905e-06
-0.000150344
-7.01751e-06
-1.93413e-06
-0.000140326
-5.66311e-06
-1.54261e-06
-0.0001319
-3.96301e-06
-7.8242e-07
-0.000103734
-1.46489e-06
-1.21983e-07
-7.2119e-05
3.49373e-07
1.32785e-07
-4.02285e-05
2.10387e-06
2.31256e-08
-1.041e-05
3.25597e-06
-3.89428e-07
-8.01922e-06
4.7099e-06
-1.65775e-06
-7.09081e-06
6.97734e-06
-3.04203e-06
-5.73489e-05
1.0408e-05
-4.46348e-06
-0.000117187
1.56164e-05
-5.87907e-06
1.79428e-05
-7.21922e-06
-5.99341e-06
-5.94957e-07
5.39707e-07
-4.52613e-06
-3.34174e-06
-2.23797e-06
-4.14556e-06
-2.62883e-06
-1.27471e-06
-2.67158e-06
-3.64716e-06
-2.06102e-06
-1.71798e-06
-2.58293e-06
-1.60453e-06
-8.55749e-07
-2.50095e-06
-1.6245e-06
-6.25834e-07
-8.75455e-07
-9.02373e-07
-3.684e-07
-8.75662e-07
-7.54336e-07
-2.25355e-07
1.59966e-07
-5.69757e-07
-4.57506e-08
5.41961e-09
-4.21357e-07
1.71138e-07
1.81271e-07
-5.14793e-07
8.70381e-08
4.67631e-07
-3.02849e-07
1.63606e-08
8.34874e-07
-3.82952e-07
-4.03778e-08
8.46451e-07
-3.41769e-07
-9.0802e-08
9.93633e-07
-4.20964e-07
-1.54469e-07
1.01427e-06
-4.0879e-07
-2.22596e-07
1.13288e-06
-4.3465e-07
-2.76025e-07
1.17099e-06
-4.47069e-07
-3.17505e-07
1.23938e-06
-4.65386e-07
-3.44439e-07
1.28441e-06
-4.78759e-07
-3.62779e-07
1.32815e-06
-4.87219e-07
-3.75713e-07
1.36311e-06
-4.93275e-07
-3.86164e-07
1.39119e-06
-4.98033e-07
-3.97186e-07
1.41374e-06
-5.02181e-07
-4.11806e-07
1.43239e-06
-5.05115e-07
-4.27399e-07
1.44339e-06
-5.08571e-07
-4.40754e-07
1.44674e-06
-5.11622e-07
-4.50256e-07
1.44558e-06
-5.14548e-07
-4.5693e-07
1.44428e-06
-5.17431e-07
-4.61807e-07
1.44253e-06
-5.20168e-07
-4.65389e-07
1.43981e-06
-5.22342e-07
-4.67189e-07
1.43469e-06
-5.24587e-07
-4.68793e-07
1.43027e-06
-5.25393e-07
-4.67558e-07
1.42126e-06
-5.27756e-07
-4.70546e-07
1.41381e-06
-5.26906e-07
-4.67094e-07
1.40226e-06
-5.30251e-07
-4.82595e-07
1.39022e-06
-5.25886e-07
-4.76327e-07
1.3788e-06
-5.30671e-07
-5.18035e-07
1.355e-06
-5.20519e-07
-5.1372e-07
1.35795e-06
-5.29341e-07
-6.08101e-07
1.32373e-06
-5.04887e-07
-6.03423e-07
1.34212e-06
-5.30025e-07
-7.51044e-07
1.32413e-06
-4.82181e-07
-7.21417e-07
1.30886e-06
-5.44641e-07
-8.25811e-07
1.31493e-06
-4.93544e-07
-7.70924e-07
1.27799e-06
-5.6288e-07
-7.07929e-07
1.09367e-06
-6.35026e-07
-7.38868e-07
1.29175e-06
-5.7008e-07
-8.11068e-07
5.28008e-07
-7.84171e-07
-9.61723e-07
9.85257e-07
-7.58334e-07
-9.39117e-07
8.24994e-07
-7.28863e-07
5.15168e-08
1.18849e-07
-1.08877e-06
-2.11413e-07
1.53961e-06
-1.4469e-06
-1.95154e-06
3.49801e-07
-1.2352e-06
-3.46884e-06
2.02427e-06
-8.74674e-07
6.20335e-06
8.6657e-07
-4.3084e-06
1.227e-05
9.20093e-06
-1.02925e-05
3.64716e-05
5.78334e-06
-1.9085e-05
-8.9598e-06
-5.76653e-06
2.89992e-05
-0.000116311
8.45053e-06
9.3594e-06
-0.000190365
1.51714e-05
2.64899e-05
-0.000208469
1.01425e-05
9.34212e-06
-0.000218192
8.04598e-06
3.34759e-06
-0.000223214
7.16324e-06
-2.72525e-07
-0.000225705
6.7734e-06
-1.56325e-06
-0.000226391
6.13205e-06
-1.08968e-06
-0.000226181
5.73432e-06
-8.06139e-07
-0.000227836
5.40907e-06
-6.10632e-07
-0.000229769
5.28492e-06
-5.56422e-07
-0.000230012
5.11285e-06
-6.07047e-07
-0.000230463
4.82148e-06
-6.98851e-07
-0.000230773
4.44669e-06
-8.62348e-07
-0.0002308
3.68583e-06
-1.04022e-06
-0.000230741
2.40696e-06
-1.01174e-06
-0.000230716
7.96005e-07
-8.6761e-07
-0.000230922
-8.15261e-07
-6.13398e-07
-0.000231751
-3.17152e-06
-3.31478e-07
-0.000232021
-4.79401e-06
-1.35861e-07
-0.000232401
-6.12776e-06
-1.04127e-07
-0.000233403
-7.28562e-06
-3.85574e-07
-0.000233392
-7.84299e-06
-8.26698e-07
-0.000232941
-7.8035e-06
-1.44553e-06
-0.000232905
-7.45219e-06
-2.63169e-06
-0.000232603
-6.32282e-06
-3.10207e-06
-0.000231799
-4.85161e-06
-3.66549e-06
-0.000229722
-3.73089e-06
-4.00305e-06
-0.000226698
-2.45527e-06
-4.02447e-06
-0.000222705
-6.98859e-07
-4.12399e-06
-0.000218365
5.44157e-07
-4.36011e-06
-0.000212124
2.14226e-06
-4.74068e-06
-0.000204664
3.60571e-06
-5.33791e-06
-0.000198159
5.19021e-06
-6.16061e-06
-0.000190155
7.25077e-06
-6.88906e-06
-0.00018265
9.50281e-06
-7.70574e-06
-0.000171127
1.10528e-05
-8.43651e-06
1.0605e-05
-8.56064e-06
-5.69522e-06
2.33231e-06
2.91463e-06
-4.49235e-06
-2.89898e-06
-1.64563e-06
-4.02124e-06
-1.96895e-06
-1.13099e-06
-2.43825e-06
-3.2146e-06
-2.01555e-06
-1.37046e-06
-1.94445e-06
-1.70628e-06
-9.77516e-07
-1.8027e-06
-1.0912e-06
-9.28279e-07
-3.11672e-07
-6.13035e-07
-5.46948e-07
-5.62731e-07
-6.9428e-07
-4.17668e-07
3.09661e-07
-2.78997e-07
-1.82364e-07
-5.16396e-08