/*--------------------------------*- C++ -*----------------------------------*\
| =========                 |                                                 |
| \\      /  F ield         | OpenFOAM: The Open Source CFD Toolbox           |
|  \\    /   O peration     | Version:  2.3.0                                 |
|   \\  /    A nd           | Web:      www.OpenFOAM.org                      |
|    \\/     M anipulation  |                                                 |
\*---------------------------------------------------------------------------*/
FoamFile
{
    version     2.0;
    format      ascii;
    class       surfaceScalarField;
    location    "18";
    object      phi.water;
}
// * * * * * * * * * * * * * * * * * * * * * * * * * * * * * * * * * * * * * //

dimensions      [0 3 -1 0 0 0 0];

internalField   nonuniform List<scalar> 
16448
(
-2.70989e-06
-2.31773e-06
8.91185e-07
-1.26311e-06
-2.47217e-06
1.0286e-06
-7.23542e-07
-1.81102e-06
1.27452e-06
-1.21713e-07
-1.75576e-06
1.15679e-06
7.52811e-08
-1.00411e-06
8.11524e-07
2.16692e-07
-8.27667e-07
6.91484e-07
2.00298e-07
-4.57789e-07
4.7922e-07
2.48766e-08
-3.40722e-07
5.18621e-07
-2.37045e-07
-3.04006e-07
5.6699e-07
-4.73824e-07
-2.8807e-07
5.25011e-07
-6.33028e-07
-3.07142e-07
4.66696e-07
-6.20792e-07
-3.80155e-07
3.68008e-07
-5.21137e-07
-4.3655e-07
3.37157e-07
-3.54433e-07
-4.82113e-07
3.15506e-07
-2.24286e-07
-4.83137e-07
3.5326e-07
-1.13586e-07
-4.94103e-07
3.83572e-07
-4.10175e-08
-4.93113e-07
4.2081e-07
1.28299e-08
-4.98424e-07
4.44795e-07
4.87719e-08
-4.9933e-07
4.63646e-07
7.37353e-08
-4.99282e-07
4.74563e-07
9.06519e-08
-4.97358e-07
4.80705e-07
1.02382e-07
-4.94241e-07
4.8277e-07
1.10783e-07
-4.90226e-07
4.821e-07
1.17408e-07
-4.85625e-07
4.79273e-07
1.23299e-07
-4.80685e-07
4.75084e-07
1.2902e-07
-4.75414e-07
4.69978e-07
1.34863e-07
-4.69849e-07
4.64309e-07
1.40972e-07
-4.63993e-07
4.58182e-07
1.47726e-07
-4.57852e-07
4.51418e-07
1.5582e-07
-4.5144e-07
4.4366e-07
1.66887e-07
-4.45077e-07
4.34352e-07
1.83189e-07
-4.38962e-07
4.22997e-07
2.0835e-07
-4.3291e-07
4.08122e-07
2.47166e-07
-4.27224e-07
3.88782e-07
3.07163e-07
-4.22608e-07
3.63028e-07
3.96598e-07
-4.2045e-07
3.31431e-07
5.26069e-07
-4.23236e-07
2.94231e-07
7.02021e-07
-4.33424e-07
2.57928e-07
9.24785e-07
-4.55523e-07
2.33275e-07
1.18941e-06
-4.93287e-07
2.2917e-07
1.48381e-06
-5.49697e-07
2.55899e-07
1.78806e-06
-6.3265e-07
3.29008e-07
2.08406e-06
-7.52035e-07
4.56761e-07
2.37055e-06
-8.94639e-07
6.08876e-07
2.71649e-06
-1.05951e-06
7.14512e-07
3.36057e-06
-1.35109e-06
7.09938e-07
4.36159e-06
-1.80623e-06
8.15009e-07
5.01733e-06
-1.94581e-06
1.32392e-06
4.92979e-06
-1.472e-06
1.64591e-06
3.96224e-06
-7.75968e-07
1.85885e-06
2.17995e-06
-4.72812e-07
2.35097e-06
-6.66413e-07
-6.97952e-07
3.55338e-06
-3.86805e-07
-3.32701e-06
3.10544e-06
4.45609e-06
-7.64592e-06
2.82018e-06
1.15912e-05
-1.13423e-05
4.26795e-06
1.80986e-05
-1.16285e-05
4.97117e-06
1.73094e-05
-5.61612e-06
6.52484e-06
1.27927e-05
-1.06682e-06
4.84721e-06
-3.11465e-06
1.47765e-05
9.29401e-06
3.05114e-05
-8.32784e-06
-3.27147e-06
2.66271e-05
-2.74082e-05
2.48117e-06
3.07221e-05
-1.41444e-05
7.96307e-06
2.87011e-05
-4.1211e-06
6.13206e-06
2.89574e-05
-4.14857e-06
3.89225e-06
2.69716e-05
2.89038e-07
1.69679e-06
2.49503e-05
8.12262e-07
1.20905e-06
2.22114e-05
1.1821e-06
1.55678e-06
2.03328e-05
3.48013e-07
1.53057e-06
2.00226e-05
-7.49464e-07
1.05967e-06
2.1104e-05
-1.28712e-06
2.05633e-07
2.29965e-05
-1.07146e-06
-8.20993e-07
2.52086e-05
-1.30088e-06
-9.11188e-07
2.65226e-05
-1.22409e-06
-8.99021e-08
2.59654e-05
-8.43184e-07
1.40032e-06
2.27806e-05
9.49192e-07
2.23559e-06
1.74747e-05
2.46478e-06
2.84113e-06
1.28655e-05
3.21213e-06
1.3971e-06
1.09831e-05
4.56976e-06
-2.6874e-06
7.87254e-06
4.7323e-06
-1.6217e-06
2.36612e-06
3.4432e-06
2.06322e-06
-1.69613e-06
6.01293e-07
3.46096e-06
-3.27967e-06
-8.25152e-07
2.40869e-06
-2.94466e-06
-9.54907e-07
6.19902e-07
-2.12447e-06
-7.86362e-07
-3.38306e-08
-1.79628e-06
-9.80227e-07
6.52037e-07
-1.47357e-06
-1.53212e-06
1.20942e-06
-8.78684e-07
-1.92208e-06
1.3272e-06
-3.39456e-07
-1.9484e-06
1.40917e-06
2.56225e-07
-2.05377e-06
1.45809e-06
5.52476e-07
-1.71584e-06
1.41959e-06
3.11326e-07
-1.491e-06
1.73215e-06
-2.18862e-07
-1.47652e-06
2.00671e-06
-1.01873e-06
-1.24161e-06
2.04148e-06
-1.76629e-06
-8.96908e-07
1.64447e-06
-9.41318e-07
-1.54538e-06
7.20403e-07
-1.28862e-06
3.473e-07
-3.90139e-06
-3.27597e-06
2.70668e-07
-3.14739e-06
-3.53843e-06
3.17722e-07
-2.63408e-06
-2.84731e-06
5.28246e-07
-1.78976e-06
-2.72941e-06
1.3419e-07
-1.15309e-06
-1.71516e-06
7.99255e-08
-4.91716e-07
-1.51173e-06
2.70465e-08
-3.20291e-07
-6.17739e-07
-7.98667e-09
-4.44121e-07
-3.51502e-07
1.35257e-07
-6.97485e-07
-2.17168e-07
1.66759e-07
-8.62493e-07
-2.3221e-07
1.08949e-07
-9.3454e-07
-2.98972e-07
6.39253e-08
-8.3698e-07
-4.59227e-07
-1.8912e-08
-6.98864e-07
-5.30592e-07
-4.41808e-08
-5.20259e-07
-5.90262e-07
-7.07299e-08
-3.72565e-07
-5.84826e-07
-4.6066e-08
-2.39415e-07
-5.96415e-07
-3.10165e-08
-1.49142e-07
-5.82936e-07
-5.34323e-10
-7.82879e-08
-5.80552e-07
1.11646e-08
-2.85778e-08
-5.71203e-07
2.21144e-08
7.28219e-09
-5.63059e-07
2.78763e-08
3.22106e-08
-5.53184e-07
3.08753e-08
4.98491e-08
-5.4305e-07
3.11599e-08
6.24641e-08
-5.32618e-07
2.97741e-08
7.21424e-08
-5.22346e-07
2.70499e-08
8.03397e-08
-5.12412e-07
2.35371e-08
8.80547e-08
-5.02651e-07
1.95371e-08
9.57929e-08
-4.9286e-07
1.52859e-08
1.03789e-07
-4.82903e-07
1.09347e-08
1.12397e-07
-4.72904e-07
6.45974e-09
1.22461e-07
-4.62998e-07
1.51588e-09
1.37195e-07
-4.52999e-07
-6.78176e-09
1.59445e-07
-4.43913e-07
-1.72308e-08
1.93408e-07
-4.36803e-07
-2.99754e-08
2.44636e-07
-4.32215e-07
-4.6099e-08
3.20347e-07
-4.32703e-07
-6.54457e-08
4.27476e-07
-4.40456e-07
-8.68987e-08
5.72474e-07
-4.59597e-07
-1.08375e-07
7.55872e-07
-4.92837e-07
-1.2366e-07
9.74498e-07
-5.46705e-07
-1.27078e-07
1.22305e-06
-6.29544e-07
-1.11858e-07
1.49415e-06
-7.50297e-07
-7.0033e-08
1.77702e-06
-9.21625e-07
6.61996e-09
2.08305e-06
-1.14323e-06
8.582e-08
2.41133e-06
-1.38443e-06
1.62414e-07
2.90694e-06
-1.70081e-06
1.47388e-07
3.89208e-06
-2.29799e-06
-3.34746e-08
5.0111e-06
-3.01459e-06
1.01324e-07
5.33845e-06
-3.19026e-06
9.4756e-07
4.89273e-06
-2.57707e-06
1.6296e-06
4.24093e-06
-1.15934e-06
1.13723e-06
3.70135e-06
-5.80788e-07
7.36405e-07
3.33719e-06
-1.44075e-06
1.14642e-06
6.02521e-06
-5.72113e-06
-1.82132e-07
1.15407e-05
-1.3218e-05
1.44841e-07
1.72431e-05
-1.96057e-05
2.72199e-06
2.21266e-05
-1.93129e-05
2.73432e-06
2.37739e-05
-9.99449e-06
3.00815e-06
2.6291e-05
-5.09726e-06
-3.00088e-08
6.53193e-06
2.93788e-05
1.29527e-05
3.08416e-05
-4.12717e-06
-3.02659e-06
1.13551e-05
-3.47096e-05
-2.31869e-06
4.5202e-06
-2.01575e-05
1.09401e-05
4.50187e-06
-1.0866e-05
6.76088e-06
2.86882e-06
-4.40825e-06
1.89273e-06
8.51293e-06
-1.8108e-07
-5.17399e-06
8.85336e-06
3.61778e-06
-3.14595e-06
8.29053e-06
4.26741e-06
-2.52247e-06
7.46881e-06
4.13846e-06
-2.96873e-06
6.38788e-06
4.10324e-06
-3.77178e-06
3.57117e-06
3.52197e-06
-1.99237e-06
1.0612e-08
1.92058e-06
5.68513e-07
-1.37532e-06
-1.10471e-06
1.18977e-06
-1.06962e-06
-2.99729e-06
1.4675e-06
-7.38046e-07
-2.69732e-06
1.52257e-06
-1.87322e-07
1.86592e-07
2.11875e-07
8.35157e-07
2.83395e-06
-1.39165e-06
2.87132e-06
5.14498e-06
-3.969e-06
5.90068e-06
7.47197e-06
-5.93158e-06
3.6765e-06
7.82389e-06
-8.67423e-07
-2.31376e-06
6.56032e-06
2.87314e-06
-6.50942e-06
3.26605e-06
1.5309e-06
-8.20287e-06
1.40199e-06
-5.33693e-07
-7.56262e-06
7.79717e-07
-2.37488e-06
-6.20216e-06
5.35777e-07
-2.6826e-06
-5.75503e-06
-2.26838e-07
-1.20052e-06
-5.33363e-06
-2.13144e-06
1.77914e-07
-5.32672e-06
-2.90669e-06
9.77697e-07
-5.75877e-06
-2.95258e-06
1.43623e-06
-6.61994e-06
-2.88923e-06
1.69663e-06
-7.25986e-06
-2.58361e-06
1.50769e-06
-7.39587e-06
-2.7e-06
1.34501e-06
-6.95355e-06
-3.02731e-06
1.10846e-06
-5.51835e-06
-3.32672e-06
6.49915e-07
-3.19341e-06
-2.96708e-06
-2.54769e-07
-1.12047e-06
-2.78821e-06
-8.30107e-07
-2.60874e-06
1.99654e-07
-3.99381e-06
-3.50691e-06
1.42801e-07
-3.5026e-06
-3.96134e-06
-6.49518e-08
-3.29619e-06
-3.27647e-06
2.2669e-07
-2.71485e-06
-3.27174e-06
-3.55629e-08
-1.98375e-06
-2.35796e-06
-8.32253e-08
-1.04309e-06
-2.27518e-06
-1.73174e-07
-6.86071e-07
-8.04593e-07
-1.66085e-07
-6.3518e-07
-3.78894e-07
-2.29219e-08
-8.03168e-07
-2.59387e-08
-2.30733e-08
-8.73342e-07
-9.40357e-08
-6.81345e-08
-8.78577e-07
-1.88547e-07
-1.05068e-07
-7.73682e-07
-3.84421e-07
-1.79875e-07
-6.78831e-07
-4.17373e-07
-2.0806e-07
-5.64309e-07
-4.65464e-07
-2.39519e-07
-4.53611e-07
-4.48677e-07
-2.46892e-07
-3.37275e-07
-4.56627e-07
-2.56284e-07
-2.4769e-07
-4.27871e-07
-2.44687e-07
-1.72688e-07
-4.16285e-07
-2.39355e-07
-1.18234e-07
-3.93721e-07
-2.31959e-07
-7.73215e-08
-3.75595e-07
-2.28411e-07
-4.83472e-08
-3.56053e-07
-2.26115e-07
-2.74327e-08
-3.38259e-07
-2.25717e-07
-1.23321e-08
-3.21409e-07
-2.26307e-07
-7.62356e-10
-3.06172e-07
-2.27742e-07
9.01592e-09
-2.92417e-07
-2.29756e-07
1.80069e-08
-2.79428e-07
-2.32196e-07
2.70697e-08
-2.67045e-07
-2.34844e-07
3.67839e-08
-2.55015e-07
-2.3757e-07
4.79263e-08
-2.43523e-07
-2.40472e-07
6.22718e-08
-2.33393e-07
-2.43896e-07
8.27748e-08
-2.25185e-07
-2.48237e-07
1.12195e-07
-2.19426e-07
-2.53819e-07
1.53926e-07
-2.17762e-07
-2.60647e-07
2.11555e-07
-2.21449e-07
-2.68259e-07
2.87662e-07
-2.32781e-07
-2.75852e-07
3.82483e-07
-2.53481e-07
-2.81606e-07
4.92214e-07
-2.87818e-07
-2.81265e-07
6.09332e-07
-3.37713e-07
-2.71975e-07
7.24686e-07
-4.10215e-07
-2.51509e-07
8.36386e-07
-5.20105e-07
-2.20775e-07
9.55747e-07
-6.89066e-07
-1.8016e-07
1.10821e-06
-9.37933e-07
-1.35683e-07
1.31194e-06
-1.24149e-06
-1.04785e-07
1.62401e-06
-1.56629e-06
-1.29085e-07
2.28463e-06
-2.04199e-06
-3.15747e-07
3.47061e-06
-2.92188e-06
-5.51378e-07
4.64691e-06
-3.84688e-06
-3.1989e-07
5.00491e-06
-4.2537e-06
7.45189e-07
4.27843e-06
-3.5429e-06
1.77645e-06
3.80287e-06
-1.38816e-06
7.91998e-07
3.93882e-06
-6.48145e-07
-3.00694e-09
4.6941e-06
-2.55079e-06
3.82993e-07
8.20843e-06
-7.94753e-06
-1.06001e-06
9.13579e-06
-1.59159e-05
1.86051e-06
6.79166e-06
-2.26011e-05
5.4105e-06
4.52031e-06
-2.14239e-05
4.1994e-06
1.49321e-05
-1.4256e-05
-4.69654e-06
2.24185e-05
2.18065e-06
-1.38619e-05
9.6886e-06
4.48136e-05
7.81452e-06
3.29426e-05
5.50598e-07
-5.2271e-06
8.20616e-06
-3.74117e-05
-2.83465e-06
-6.9321e-06
-1.90939e-05
1.16598e-05
-1.02436e-05
-1.53029e-05
7.7465e-06
-1.10321e-05
-5.69751e-06
2.07771e-06
-7.96159e-06
-3.13906e-06
-1.12526e-07
-5.68945e-06
1.4879e-06
-1.42259e-07
-5.4276e-06
2.31024e-06
1.69533e-06
-6.17789e-06
3.05094e-06
1.83781e-06
-5.66074e-06
2.6001e-06
9.85996e-07
-4.75568e-06
2.13068e-06
4.86233e-07
-4.00791e-06
9.78386e-07
1.94423e-07
-4.18923e-06
-7.90064e-07
-1.33332e-07
-5.83397e-06
-8.26386e-07
-5.26158e-07
-8.10947e-06
-3.94198e-08
-3.82405e-07
-8.70071e-06
2.1413e-06
-1.36346e-06
-7.59782e-06
5.50766e-06
-3.77661e-06
-5.23016e-06
8.03291e-06
-5.25558e-06
-4.57665e-06
1.00029e-05
-3.18446e-06
-7.70091e-06
1.06452e-05
3.02923e-07
-1.06108e-05
8.31602e-06
1.15422e-06
-1.246e-05
4.69246e-06
4.22756e-07
-1.25783e-05
3.21919e-06
-1.69894e-06
-1.12332e-05
2.39302e-06
-2.95836e-06
-9.76698e-06
1.73075e-06
-2.66119e-06
-9.0822e-06
-4.18065e-07
-4.93551e-07
-8.9805e-06
-3.40227e-06
1.16912e-06
-9.474e-06
-4.09808e-06
1.68491e-06
-9.94231e-06
-4.22692e-06
1.74265e-06
-1.02461e-05
-3.83461e-06
1.24914e-06
-1.00851e-05
-3.17951e-06
4.34939e-07
-9.03714e-06
-3.17555e-06
-5.72415e-07
-7.36752e-06
-3.79327e-06
-9.03656e-07
-4.99165e-06
-4.53003e-06
-1.17256e-06
-2.40606e-06
-3.94324e-06
-1.60943e-06
-3.44207e-07
-3.33635e-06
-1.51372e-06
-3.74981e-06
7.96866e-07
-3.80607e-06
-3.53798e-06
3.41445e-07
-3.27608e-06
-4.18709e-06
-3.02367e-07
-3.27703e-06
-3.53321e-06
2.61483e-07
-2.8203e-06
-3.78616e-06
5.95418e-08
-2.17444e-06
-3.04571e-06
4.53172e-08
-1.22261e-06
-3.12459e-06
-9.86848e-08
-7.26743e-07
-1.2923e-06
-2.3868e-09
-4.61655e-07
-7.19711e-07
7.75737e-08
-5.65863e-07
4.05868e-08
3.82309e-08
-6.39104e-07
-8.96962e-09
-1.21922e-08
-6.27581e-07
-8.28937e-08
-1.16955e-07
-5.70916e-07
-2.43853e-07
-1.97144e-07
-5.53825e-07
-2.04523e-07
-2.29668e-07
-5.13817e-07
-2.36011e-07
-2.6932e-07
-4.5375e-07
-2.14891e-07
-2.93607e-07
-3.66759e-07
-2.21755e-07
-3.2171e-07
-2.86517e-07
-1.82613e-07
-3.25241e-07
-2.08511e-07
-1.63238e-07
-3.30863e-07
-1.48261e-07
-1.27452e-07
-3.26277e-07
-1.00624e-07
-9.91393e-08
-3.23859e-07
-6.64534e-08
-6.90904e-08
-3.2089e-07
-4.19898e-08
-4.23705e-08
-3.20095e-07
-2.5228e-08
-1.76906e-08
-3.20232e-07
-1.40995e-08
3.93008e-09
-3.20966e-07
-5.01919e-09
2.08258e-08
-3.22064e-07
3.05052e-09
3.63717e-08
-3.23578e-07
1.13278e-08
5.03251e-08
-3.25363e-07
2.08156e-08
6.29694e-08
-3.27157e-07
3.27027e-08
7.40675e-08
-3.29172e-07
4.87278e-08
8.26612e-08
-3.31742e-07
7.11124e-08
8.78001e-08
-3.35044e-07
1.02323e-07
8.86335e-08
-3.38907e-07
1.43838e-07
8.37088e-08
-3.42629e-07
1.96511e-07
7.15376e-08
-3.45253e-07
2.57994e-07
5.04397e-08
-3.44303e-07
3.22439e-07
1.99761e-08
-3.37434e-07
3.83058e-07
-2.57142e-08
-3.22232e-07
4.29575e-07
-8.48783e-08
-2.9877e-07
4.54977e-07
-1.66997e-07
-2.68015e-07
4.61671e-07
-2.91247e-07
-2.34859e-07
4.68305e-07
-4.88263e-07
-2.06769e-07
5.13208e-07
-7.81809e-07
-2.00329e-07
6.32496e-07
-1.12619e-06
-2.33909e-07
9.22202e-07
-1.50628e-06
-3.47892e-07
1.6175e-06
-2.15478e-06
-5.74621e-07
2.71981e-06
-3.33857e-06
-6.65666e-07
3.55232e-06
-4.36125e-06
-2.82053e-07
3.33485e-06
-4.91703e-06
9.28852e-07
2.4941e-06
-4.33865e-06
1.72455e-06
2.39968e-06
-2.15178e-06
9.18994e-07
3.04712e-06
-1.48794e-06
2.40232e-07
4.59939e-06
-3.72769e-06
-3.08537e-07
5.34101e-06
-7.67321e-06
-7.22774e-07
-2.58459e-06
-1.36645e-05
5.72616e-06
-1.62423e-05
-1.99849e-05
1.09242e-05
-2.58811e-05
-1.97607e-05
7.93939e-06
-3.24241e-05
-8.32963e-06
2.21167e-06
-2.88571e-05
8.44112e-06
-1.15765e-05
1.12403e-05
2.56563e-05
-4.13046e-06
3.86398e-05
-2.15897e-06
-4.38209e-06
7.74853e-06
-3.77382e-05
-3.76361e-06
-8.78323e-06
-1.79458e-05
1.23244e-05
-1.29228e-05
-1.75674e-05
6.39956e-06
-1.54889e-05
-7.16149e-06
4.02969e-06
-1.54227e-05
-4.0942e-06
8.88768e-07
-1.32986e-05
-1.16469e-06
5.28417e-07
-1.1552e-05
2.68149e-07
2.95452e-07
-9.93521e-06
1.74148e-06
-3.07349e-07
-7.66157e-06
1.68984e-06
-1.36342e-06
-5.08175e-06
2.45245e-06
-2.90164e-06
-4.22356e-06
3.51714e-06
-3.39698e-06
-5.74602e-06
4.4739e-06
-3.74153e-06
-9.45853e-06
5.03913e-06
-2.15303e-06
-1.25191e-05
4.51813e-06
-1.49707e-06
-1.2731e-05
5.32015e-06
-2.96701e-06
-1.08337e-05
8.01126e-06
-4.40095e-06
-9.20257e-06
1.12251e-05
-4.82327e-06
-1.01643e-05
1.29363e-05
-1.97166e-06
-1.25963e-05
1.27638e-05
3.13447e-07
-1.4357e-05
8.33521e-06
1.74145e-06
-1.61394e-05
5.3176e-06
1.15729e-06
-1.62992e-05
4.30509e-06
-9.26031e-07
-1.54773e-05
3.34162e-06
-1.77048e-06
-1.44703e-05
1.54269e-06
-8.18999e-07
-1.35451e-05
-1.67107e-06
3.27872e-07
-1.29741e-05
-3.85616e-06
-1.17154e-07
-1.24978e-05
-4.34997e-06
-2.24423e-07
-1.19512e-05
-4.67647e-06
-9.70036e-08
-1.12955e-05
-4.11234e-06
-3.77965e-07
-1.07288e-05
-3.43311e-06
-3.13106e-07
-9.41529e-06
-3.49691e-06
-9.9216e-07
-7.52082e-06
-4.46335e-06
-1.22439e-06
-4.93096e-06
-5.41575e-06
-1.70413e-06
-2.35446e-06
-4.77476e-06
-1.74499e-06
5.19918e-07
-5.32021e-06
-8.90524e-07
-5.45038e-06
2.22048e-06
-3.78814e-06
-3.55774e-06
5.85657e-07
-3.03451e-06
-4.38086e-06
-5.57119e-07
-3.02064e-06
-3.81336e-06
2.72028e-07
-2.50801e-06
-4.24763e-06
-5.00319e-08
-2.10639e-06
-3.54689e-06
1.02486e-07
-1.38871e-06
-3.70976e-06
-1.31388e-07
-9.38199e-07
-1.84828e-06
1.10485e-07
-4.21603e-07
-1.35826e-06
1.27116e-07
-2.87404e-07
-1.30457e-07
3.92772e-08
-3.09118e-07
-1.9344e-08
3.13161e-08
-2.89369e-07
-5.57724e-09
-9.70012e-08
-3.0224e-07
-7.67023e-08
-1.5427e-07
-3.59941e-07
3.54412e-08
-1.82172e-07
-3.93643e-07
1.20776e-08
-2.14516e-07
-3.82157e-07
2.40565e-08
-2.50471e-07
-3.35167e-07
1.76163e-08
-2.86453e-07
-2.79153e-07
6.74489e-08
-3.06066e-07
-2.14994e-07
9.6965e-08
-3.24434e-07
-1.60999e-07
1.46857e-07
-3.28303e-07
-1.14152e-07
1.84466e-07
-3.305e-07
-7.88083e-08
2.23899e-07
-3.28338e-07
-5.30088e-08
2.57188e-07
-3.25384e-07
-3.47194e-08
2.86297e-07
-3.2227e-07
-2.03544e-08
3.09848e-07
-3.20287e-07
-9.7715e-09
3.29305e-07
-3.19044e-07
-9.50402e-10
3.45478e-07
-3.17937e-07
7.34184e-09
3.588e-07
-3.16752e-07
1.65941e-08
3.69365e-07
-3.15657e-07
2.86783e-08
3.76923e-07
-3.14916e-07
4.49428e-08
3.80642e-07
-3.14245e-07
6.62367e-08
3.79893e-07
-3.13343e-07
9.31248e-08
3.73597e-07
-3.11827e-07
1.24947e-07
3.60623e-07
-3.08655e-07
1.58835e-07
3.40083e-07
-3.02364e-07
1.90189e-07
3.10513e-07
-2.91284e-07
2.1378e-07
2.71086e-07
-2.74572e-07
2.22819e-07
2.1802e-07
-2.52579e-07
2.14292e-07
1.50514e-07
-2.26686e-07
1.90931e-07
5.62919e-08
-1.99673e-07
1.56063e-07
-7.61078e-08
-1.80107e-07
1.22084e-07
-2.75171e-07
-1.78941e-07
1.06697e-07
-5.55368e-07
-2.10914e-07
1.24165e-07
-8.48638e-07
-2.94627e-07
2.76624e-07
-1.21755e-06
-4.37524e-07
7.70985e-07
-2.03867e-06
-5.9448e-07
1.41011e-06
-3.39569e-06
-5.5031e-07
1.18253e-06
-4.1747e-06
8.83818e-08
-4.42645e-07
-4.30948e-06
1.07029e-06
-1.42767e-06
-4.50097e-06
1.23318e-06
-7.49233e-07
-3.53997e-06
7.51644e-07
1.93999e-06
-4.0852e-06
-3.95956e-08
4.12591e-06
-4.69493e-06
-1.1119e-06
2.55149e-06
-5.60071e-06
-1.88051e-07
-8.09075e-06
-8.67843e-06
5.73038e-06
-2.37617e-05
-1.3203e-05
8.68844e-06
-3.47248e-05
-1.34825e-05
4.55113e-06
-4.41343e-05
6.0712e-06
-3.9388e-06
-3.81912e-05
1.07166e-05
-1.08455e-05
1.42723e-05
2.5385e-06
-9.22506e-06
4.28747e-05
-7.32949e-06
-3.87169e-06
9.83401e-06
-3.66049e-05
-5.92547e-06
-8.92573e-06
-1.27543e-05
1.07786e-05
-1.58172e-05
-1.47595e-05
4.07298e-06
-1.7598e-05
-6.66977e-06
1.28445e-06
-1.61472e-05
-1.3013e-06
-4.24679e-06
-1.38168e-05
1.55091e-06
-5.0477e-06
-1.17582e-05
3.26113e-06
-5.05282e-06
-9.77013e-06
4.94055e-06
-5.18837e-06
-8.89646e-06
6.1993e-06
-5.38488e-06
-8.11812e-06
6.7371e-06
-5.06517e-06
-1.07273e-05
7.14259e-06
-1.01734e-06
-1.45492e-05
7.30752e-06
9.88844e-07
-1.70401e-05
7.48386e-06
4.6799e-08
-1.90106e-05
8.05582e-06
-1.56738e-06
-1.94801e-05
9.71366e-06
-3.92603e-06
-1.75891e-05
1.11002e-05
-4.98328e-06
-1.53341e-05
1.1889e-05
-2.92211e-06
-1.49292e-05
1.24765e-05
5.39645e-08
-1.58996e-05
1.14891e-05
2.24578e-06
-1.85369e-05
6.92589e-06
4.04739e-06
-2.10143e-05
4.41872e-06
3.37687e-06
-2.10835e-05
3.6073e-06
7.674e-07
-1.94823e-05
2.23374e-06
-4.93211e-07
-1.72735e-05
-5.20507e-07
-1.45581e-07
-1.59073e-05
-2.69794e-06
-3.39704e-07
-1.54249e-05
-3.29371e-06
-1.04601e-06
-1.51179e-05
-4.49076e-06
-1.67156e-07
-1.44216e-05
-5.40511e-06
3.16184e-08
-1.35032e-05
-5.5808e-06
5.49665e-07
-1.22497e-05
-5.05998e-06
3.73293e-07
-1.04442e-05
-5.36849e-06
6.60826e-08
-8.07207e-06
-7.00955e-06
1.73953e-07
-4.84819e-06
-8.62e-06
-1.96894e-08
-1.66921e-06
-8.61302e-06
6.59274e-07
1.34487e-06
-1.06067e-05
2.27245e-06
-7.56472e-06
3.45921e-06
-4.15972e-06
-3.24313e-06
5.71579e-07
-3.23183e-06
-4.39999e-06
-9.05668e-07
-3.12246e-06
-3.95799e-06
4.29739e-08
-2.21459e-06
-4.59359e-06
-5.59119e-07
-1.7064e-06
-3.92059e-06
-1.29443e-07
-1.05924e-06
-3.99866e-06
-3.58813e-07
-7.6831e-07
-2.1474e-06
1.14805e-08
-3.28567e-07
-1.83684e-06
4.36247e-08
-7.17055e-08
-3.94334e-07
1.09933e-08
-8.83915e-09
-1.0241e-07
2.06378e-08
1.01395e-07
8.78528e-09
-1.24003e-07
2.10933e-08
1.22225e-07
-1.18114e-07
-1.11015e-07
3.31323e-07
-1.63395e-07
-2.37804e-07
3.30522e-07
-1.9148e-07
-2.7522e-07
3.12148e-07
-2.50486e-07
-2.69194e-07
2.97297e-07
-2.85523e-07
-2.42061e-07
3.54755e-07
-3.14166e-07
-2.03741e-07
3.93818e-07
-3.34904e-07
-1.68559e-07
4.55046e-07
-3.4303e-07
-1.34074e-07
4.97744e-07
-3.47416e-07
-1.07318e-07
5.42724e-07
-3.45206e-07
-8.66003e-08
5.78508e-07
-3.41632e-07
-7.22572e-08
6.09236e-07
-3.36879e-07
-6.24198e-08
6.32762e-07
-3.3231e-07
-5.59407e-08
6.50911e-07
-3.27663e-07
-5.17819e-08
6.65226e-07
-3.23447e-07
-4.84594e-08
6.75689e-07
-3.19776e-07
-4.39568e-08
6.81837e-07
-3.16501e-07
-3.65614e-08
6.83902e-07
-3.13925e-07
-2.56936e-08
6.81593e-07
-3.11324e-07
-1.22726e-08
6.74606e-07
-3.07664e-07
2.2837e-09
6.62136e-07
-3.02574e-07
1.49134e-08
6.43739e-07
-2.95248e-07
2.11391e-08
6.18969e-07
-2.84556e-07
1.53042e-08
5.86405e-07
-2.69524e-07
-5.29835e-09
5.42525e-07
-2.50234e-07
-3.96758e-08
4.81447e-07
-2.28478e-07
-8.00529e-08
3.99344e-07
-2.07836e-07
-1.20327e-07
2.90565e-07
-1.93432e-07
-1.54155e-07
1.50517e-07
-1.92133e-07
-2.06362e-07
-8.12946e-09
-2.14068e-07
-2.97314e-07
-1.92785e-07
-2.70642e-07
-4.31423e-07
-3.34188e-07
-3.78385e-07
-5.23164e-07
-6.16648e-07
-4.99383e-07
-6.17218e-07
-1.39966e-06
-5.20293e-07
-1.36912e-06
-2.36093e-06
-2.48314e-07
-3.27309e-06
-2.65134e-06
4.23179e-07
-5.02454e-06
-3.07878e-06
5.94704e-07
-5.30913e-06
-4.4247e-06
3.25104e-07
-2.92697e-06
-5.95168e-06
1.04917e-07
2.26042e-06
-8.76032e-06
-4.7652e-07
4.78846e-06
-6.78023e-06
-4.90865e-07
4.67671e-06
-5.04169e-06
-2.87009e-07
-4.74438e-06
-3.20342e-06
4.08746e-06
-1.67129e-05
-7.41964e-06
6.35277e-06
-2.32235e-05
-8.82726e-06
9.09623e-07
3.8111e-06
-4.84161e-06
-1.01107e-05
1.51301e-05
6.77388e-06
-7.8749e-06
2.52726e-05
3.32988e-06
8.70766e-06
4.40325e-05
-7.31706e-06
-1.01254e-06
4.92328e-06
-3.03183e-05
-7.41038e-06
-1.41305e-05
-5.86291e-06
1.093e-05
-2.20256e-05
-1.01791e-05
3.30605e-06
-2.4536e-05
-4.43679e-06
2.75632e-07
-2.37337e-05
1.84289e-06
-3.96995e-06
-2.20612e-05
4.56825e-06
-4.72756e-06
-2.09313e-05
5.54619e-06
-3.45131e-06
-2.12261e-05
6.53221e-06
-1.31651e-06
-2.28428e-05
7.63163e-06
1.83178e-07
-2.38306e-05
7.82378e-06
-9.60305e-08
-2.52543e-05
8.1231e-06
4.47526e-07
-2.60169e-05
8.53585e-06
-4.62056e-07
-2.54491e-05
7.90723e-06
-9.95024e-07
-2.37977e-05
7.63991e-06
-1.24521e-06
-2.1093e-05
8.30511e-06
-1.31024e-06
-1.75732e-05
8.35345e-06
-7.88856e-07
-1.46645e-05
8.44635e-06
5.20549e-07
-1.252e-05
8.213e-06
2.1081e-06
-1.21169e-05
6.69836e-06
4.38416e-06
-1.53067e-05
5.05067e-06
5.06458e-06
-1.86996e-05
4.18675e-06
3.63306e-06
-1.93064e-05
3.28666e-06
9.2666e-07
-1.84587e-05
1.5947e-06
-2.20012e-07
-1.90656e-05
1.71428e-07
-9.62116e-08
-2.07708e-05
-1.10626e-06
1.10218e-07
-2.20575e-05
-1.87151e-06
-1.46724e-07
-2.30256e-05
-3.48695e-06
-5.82279e-08
-2.25022e-05
-5.35563e-06
-6.05256e-07
-2.11756e-05
-6.41778e-06
-5.23781e-07
-1.82711e-05
-7.0837e-06
-9.10604e-07
-1.53683e-05
-8.40865e-06
1.17561e-07
-1.15799e-05
-1.08978e-05
8.88218e-08
-7.22492e-06
-1.42112e-05
1.22942e-06
-2.37172e-06
-1.64035e-05
2.93618e-06
1.55527e-06
-1.79588e-05
3.42495e-06
-9.51411e-06
3.50444e-06
-4.80676e-06
-2.58419e-06
5.2674e-07
-3.58015e-06
-4.00997e-06
-1.61602e-06
-3.47814e-06
-3.49661e-06
-5.55744e-07
-2.07816e-06
-4.39687e-06
-1.59286e-06
-1.10213e-06
-3.87429e-06
-1.01543e-06
-4.57087e-07
-3.64051e-06
-1.00234e-06
-2.24482e-07
-1.95013e-06
-4.28138e-07
-4.16837e-08
-1.74107e-06
-2.76735e-07
1.30207e-07
-3.65963e-07
-1.97359e-07
1.45369e-07
-5.27148e-08
-6.24519e-08
3.08115e-07
7.71428e-08
-2.29658e-07
1.9803e-07
3.16694e-07
-8.37848e-08
6.9827e-08
5.95146e-07
-1.35561e-07
-7.7271e-08
6.25536e-07
-1.4815e-07
-1.30214e-07
6.14518e-07
-2.49654e-07
-1.57277e-07
6.13286e-07
-2.89209e-07
-1.742e-07
6.97629e-07
-3.26152e-07
-1.79472e-07
7.39452e-07
-3.4065e-07
-1.78744e-07
8.05928e-07
-3.51834e-07
-1.69768e-07
8.46616e-07
-3.58165e-07
-1.61146e-07
8.92264e-07
-3.58449e-07
-1.52923e-07
9.26395e-07
-3.56462e-07
-1.47805e-07
9.55073e-07
-3.51291e-07
-1.44804e-07
9.74074e-07
-3.44684e-07
-1.43763e-07
9.85667e-07
-3.36139e-07
-1.44394e-07
9.92326e-07
-3.2684e-07
-1.45944e-07
9.94534e-07
-3.17635e-07
-1.46349e-07
9.92199e-07
-3.10313e-07
-1.45531e-07
9.86496e-07
-3.03716e-07
-1.44104e-07
9.77265e-07
-2.97416e-07
-1.44036e-07
9.64979e-07
-2.90699e-07
-1.48439e-07
9.48333e-07
-2.82061e-07
-1.61692e-07
9.26665e-07
-2.69868e-07
-1.88765e-07
8.99672e-07
-2.53822e-07
-2.32329e-07
8.64726e-07
-2.34847e-07
-2.88952e-07
8.14027e-07
-2.14929e-07
-3.45944e-07
7.35856e-07
-1.97333e-07
-3.87045e-07
6.28301e-07
-1.87733e-07
-4.001e-07
4.93893e-07
-1.90052e-07
-3.98449e-07
3.55442e-07
-2.06352e-07
-4.2897e-07
2.59869e-07
-2.37169e-07
-5.7813e-07
2.51253e-07
-2.94569e-07
-9.10836e-07
3.76851e-07
-3.75815e-07
-1.44003e-06
3.6899e-07
-4.43731e-07
-2.28713e-06
-1.45483e-07
-3.81182e-07
-3.51324e-06
-9.56072e-07
-1.42368e-07
-4.74476e-06
-1.64316e-06
2.83757e-07
-4.86681e-06
-3.01188e-06
2.03062e-07
-2.67298e-06
-6.1284e-06
-2.40599e-07
1.15528e-06
-9.51169e-06
-5.58948e-08
2.62737e-06
-1.12938e-05
1.22663e-06
-2.91519e-06
-3.80677e-06
2.70225e-06
-1.13443e-05
6.68355e-07
2.62401e-06
-2.09342e-05
-1.57384e-06
7.7608e-06
-2.7977e-05
-1.01157e-05
9.62152e-06
-2.69817e-05
-1.64489e-05
5.76067e-06
1.52328e-06
-2.99656e-05
-4.16495e-07
1.87808e-05
-1.01586e-05
-3.4581e-06
3.69564e-05
1.83242e-05
-3.00779e-06
3.85398e-05
-2.92819e-07
-1.61419e-06
-9.85268e-06
-1.18358e-05
-8.5551e-06
-1.85325e-05
-3.12048e-06
5.57071e-06
-2.67359e-05
-5.07178e-06
3.03618e-06
-2.97367e-05
-3.34647e-06
1.85798e-06
-2.77483e-05
-9.18872e-07
7.48812e-07
-2.54529e-05
1.14209e-06
1.1245e-06
-2.54992e-05
3.39848e-06
2.20283e-06
-2.57899e-05
5.01779e-06
1.82085e-06
-2.59727e-05
6.24816e-06
1.58932e-06
-2.5699e-05
6.49157e-06
1.07667e-06
-2.46441e-05
5.93041e-06
1.14603e-06
-2.23025e-05
4.96161e-06
1.23287e-06
-1.96865e-05
3.52674e-06
1.76277e-06
-1.71468e-05
3.04683e-06
2.053e-06
-1.48837e-05
3.65285e-06
2.39767e-06
-1.29499e-05
3.53806e-06
2.90162e-06
-1.1978e-05
3.68202e-06
3.81993e-06
-1.23906e-05
3.89036e-06
4.77067e-06
-1.47742e-05
3.83479e-06
5.28595e-06
-1.88538e-05
4.72042e-06
4.44364e-06
-2.17707e-05
4.76109e-06
2.3633e-06
-2.29202e-05
3.78191e-06
6.61866e-07
-2.47735e-05
3.42419e-06
2.08798e-08
-2.7549e-05
3.13771e-06
-2.00917e-07
-2.9626e-05
1.6743e-06
-7.21443e-07
-2.97334e-05
-4.05173e-07
-1.40933e-06
-3.00287e-05
-1.81767e-06
-1.46987e-06
-2.87767e-05
-4.73981e-06
-2.00347e-06
-2.66986e-05
-6.89913e-06
-1.76146e-06
-2.36642e-05
-8.61474e-06
-1.67601e-06
-2.08838e-05
-1.04059e-05
-9.48134e-07
-1.75799e-05
-1.34127e-05
-9.5164e-07
-1.39911e-05
-1.74304e-05
-5.30636e-07
-8.14418e-06
-2.19719e-05
-4.05763e-07
-2.22824e-06
-2.52857e-05
1.34484e-06
-1.63877e-05
4.6465e-06
-5.08214e-06
-1.26236e-06
3.90992e-07
-3.7059e-06
-3.34946e-06
-2.03802e-06
-3.62788e-06
-2.36315e-06
-1.20489e-06
-2.12189e-06
-3.65749e-06
-2.24088e-06
-7.85974e-07
-3.26935e-06
-1.93108e-06
-2.21895e-07
-2.76781e-06
-1.42945e-06
4.28191e-08
-1.37083e-06
-8.41785e-07
1.48276e-07
-1.15919e-06
-6.86228e-07
2.44969e-07
1.67931e-09
-4.62371e-07
2.34964e-07
1.89761e-07
-2.29629e-07
3.48355e-07
3.40164e-07
-3.74026e-07
2.16907e-07
6.32374e-07
-1.83319e-07
1.57743e-07
9.47994e-07
-2.93374e-07
8.91858e-08
9.69519e-07
-2.75541e-07
3.9621e-08
1.0676e-06
-4.03429e-07
-2.45436e-08
1.0896e-06
-4.12203e-07
-8.54721e-08
1.21274e-06
-4.53971e-07
-1.36968e-07
1.2553e-06
-4.64281e-07
-1.75876e-07
1.3295e-06
-4.84463e-07
-2.01405e-07
1.37145e-06
-4.99158e-07
-2.17758e-07
1.41885e-06
-5.10044e-07
-2.28159e-07
1.45516e-06
-5.1817e-07
-2.37296e-07
1.48636e-06
-5.21975e-07
-2.48045e-07
1.50882e-06
-5.23797e-07
-2.57334e-07
1.52078e-06
-5.25672e-07
-2.64941e-07
1.52649e-06
-5.26407e-07
-2.71188e-07
1.5277e-06
-5.26813e-07
-2.76256e-07
1.5247e-06
-5.27309e-07
-2.81431e-07
1.51891e-06
-5.27141e-07
-2.8886e-07
1.51105e-06
-5.26236e-07
-3.02502e-07
1.50277e-06
-5.24032e-07
-3.26791e-07
1.49303e-06
-5.20247e-07
-3.64772e-07
1.47965e-06
-5.14864e-07
-4.18007e-07
1.46131e-06
-5.08216e-07
-4.83907e-07
1.43243e-06
-5.01629e-07
-5.53916e-07
1.38337e-06
-4.9914e-07
-6.12868e-07
1.30135e-06
-5.06379e-07
-6.46259e-07
1.18756e-06
-5.25638e-07
-6.5361e-07
1.05999e-06
-5.58461e-07
-6.62369e-07
9.638e-07
-5.99126e-07
-7.59546e-07
9.87018e-07
-6.29327e-07
-1.05561e-06
1.1856e-06
-6.37346e-07
-1.59608e-06
1.539e-06
-6.18082e-07
-2.31353e-06
1.72192e-06
-6.22351e-07
-2.99804e-06
1.24516e-06
-6.76184e-07
-3.33812e-06
-4.07547e-09
-5.60268e-07
-3.604e-06
-1.18879e-06
-1.06271e-07
-3.83777e-06
-2.74058e-06
1.38705e-07
-5.20109e-06
-4.62439e-06
1.26306e-07
-1.43317e-05
-3.31628e-06
3.02952e-06
-3.72355e-05
1.53049e-06
9.93117e-06
-5.92626e-05
7.40981e-06
1.07063e-05
-6.86023e-05
5.99638e-06
4.08119e-06
-6.61619e-05
-6.8464e-06
2.72546e-06
-6.27098e-05
-1.94134e-05
5.78658e-06
-5.43085e-05
-2.62013e-05
1.32436e-06
-5.21761e-05
-3.21545e-05
2.55279e-06
-3.22338e-05
-2.26058e-05
-9.99065e-06
4.95576e-05
-1.69584e-06
-2.18006e-05
4.16384e-05
6.10686e-06
-8.68731e-07
-2.72756e-05
2.27911e-05
-7.80791e-06
-3.88584e-05
4.02843e-06
3.91773e-06
-5.04548e-05
5.293e-06
1.22931e-06
-5.30315e-05
-6.50144e-07
-1.28638e-07
-4.94974e-05
-3.36671e-06
-1.08404e-06
-4.42526e-05
-4.30387e-06
2.31844e-07
-4.13197e-05
-2.3376e-06
2.8689e-06
-3.82372e-05
-1.12314e-06
3.13071e-06
-3.74885e-05
6.7874e-07
4.87711e-06
-3.78676e-05
1.24292e-06
5.67537e-06
-3.99582e-05
9.61959e-07
7.082e-06
-4.36931e-05
1.03004e-06
7.6804e-06
-4.86882e-05
1.29202e-06
7.2364e-06
-5.34025e-05
1.58442e-06
6.17341e-06
-5.60098e-05
1.55731e-06
4.71716e-06
-5.67092e-05
8.52998e-07
3.46779e-06
-5.59384e-05
2.3603e-07
2.7963e-06
-5.38857e-05
6.46989e-09
1.9427e-06
-5.14822e-05
9.10534e-07
5.98355e-07
-4.92559e-05
3.59413e-06
-1.04981e-06
-4.74225e-05
6.45213e-06
-3.61282e-06
-4.57507e-05
6.99541e-06
-5.09795e-06
-4.38103e-05
6.90996e-06
-5.62422e-06
-4.20037e-05
6.34865e-06
-5.21501e-06
-3.92065e-05
3.2023e-06
-4.53241e-06
-3.57803e-05
-5.05111e-07
-3.53324e-06
-3.34138e-05
-2.33804e-06
-2.00061e-06
-3.06456e-05
-6.09924e-06
-1.51941e-06
-2.72367e-05
-1.01579e-05
-1.68847e-07
-2.41631e-05
-1.05373e-05
-1.17571e-06
-2.29636e-05
-1.04768e-05
-1.16044e-06
-2.12566e-05
-1.25878e-05
-2.65332e-06
-1.91504e-05
-1.59183e-05
-3.97693e-06
-1.53062e-05
-2.15687e-05
-4.85845e-06
-9.0189e-06
-2.75756e-05
-4.95215e-06
-2.61906e-05
-2.3031e-07
-4.75134e-06
1.09581e-06
2.57289e-06
-3.64698e-06
-3.18469e-06
-1.27681e-06
-3.66216e-06
-1.55721e-06
-7.83041e-07
-2.18242e-06
-2.95357e-06
-2.17882e-06
-6.51139e-07
-2.69001e-06
-2.09559e-06
-2.23003e-07
-2.08123e-06
-1.10119e-06
-6.30335e-08
-7.52384e-07
-7.75636e-07
-1.08271e-07
-5.28053e-07
-5.85362e-07
-1.45148e-07
2.9595e-07
-2.55654e-07
-2.60434e-08
2.05367e-07
-1.32835e-07
1.25621e-07