/*--------------------------------*- C++ -*----------------------------------*\
| =========                 |                                                 |
| \\      /  F ield         | OpenFOAM: The Open Source CFD Toolbox           |
|  \\    /   O peration     | Version:  2.3.0                                 |
|   \\  /    A nd           | Web:      www.OpenFOAM.org                      |
|    \\/     M anipulation  |                                                 |
\*---------------------------------------------------------------------------*/
FoamFile
{
    version     2.0;
    format      ascii;
    class       volScalarField;
    location    "18";
    object      rho;
}
// * * * * * * * * * * * * * * * * * * * * * * * * * * * * * * * * * * * * * //

dimensions      [1 -3 0 0 0 0 0];

internalField   nonuniform List<scalar> 
6144
(
1.16493
1.16546
1.1658
1.16629
1.16678
1.16745
1.16814
1.16863
1.1688
1.16886
1.16888
1.16889
1.16889
1.1689
1.1689
1.1689
1.1689
1.1689
1.1689
1.1689
1.16891
1.16891
1.16891
1.16891
1.16891
1.16891
1.16892
1.16892
1.16892
1.16892
1.16892
1.16892
1.16893
1.16893
1.16893
1.16893
1.16893
1.16893
1.16894
1.16894
1.16894
1.16894
1.16894
1.16894
1.16894
1.16898
1.16942
1.17163
1.18005
1.2017
1.22757
1.24141
1.24304
1.25475
1.27099
1.29344
1.2996
1.30724
2.28197
51.8024
979.289
1026.76
1027.09
1027.09
1027.1
1027.1
1027.1
1027.1
1027.1
1027.1
1027.1
1027.1
1027.1
1027.1
1027.1
1027.1
1027.1
1027.1
1027.1
1027.1
1027.1
1027.1
1027.1
1027.1
1027.1
1027.1
1027.1
1027.1
1027.1
1027.1
1027.1
1027.1
1027.1
1027.1
1027.1
1027.1
1.16524
1.16576
1.16614
1.16667
1.16722
1.16778
1.16837
1.1687
1.16876
1.16883
1.16888
1.16889
1.1689
1.1689
1.1689
1.1689
1.16891
1.16891
1.16891
1.16891
1.16891
1.16891
1.16892
1.16892
1.16892
1.16892
1.16892
1.16892
1.16893
1.16893
1.16893
1.16893
1.16893
1.16893
1.16893
1.16894
1.16894
1.16894
1.16894
1.16894
1.16894
1.16894
1.16894
1.16895
1.16896
1.1691
1.16983
1.17232
1.17976
1.1971
1.21756
1.22764
1.23309
1.25329
1.29475
1.31121
1.31071
1.31452
1.61797
30.8255
983.164
1026.98
1027.09
1027.09
1027.1
1027.1
1027.1
1027.1
1027.1
1027.1
1027.1
1027.1
1027.1
1027.1
1027.1
1027.1
1027.1
1027.1
1027.1
1027.1
1027.1
1027.1
1027.1
1027.1
1027.1
1027.1
1027.1
1027.1
1027.1
1027.1
1027.1
1027.1
1027.1
1027.1
1027.1
1027.1
1.16535
1.16584
1.16616
1.16659
1.16707
1.16765
1.16829
1.16866
1.16873
1.1688
1.16885
1.16888
1.16889
1.1689
1.1689
1.1689
1.16891
1.16891
1.16891
1.16891
1.16891
1.16891
1.16892
1.16892
1.16892
1.16892
1.16892
1.16892
1.16893
1.16893
1.16893
1.16893
1.16893
1.16893
1.16894
1.16894
1.16894
1.16894
1.16894
1.16894
1.16894
1.16894
1.16895
1.16895
1.16904
1.16956
1.17126
1.17545
1.18411
1.19963
1.21554
1.22202
1.23326
1.2863
1.31324
1.31237
1.3156
1.30994
1.35718
33.9041
976.215
1027.01
1027.09
1027.09
1027.1
1027.1
1027.1
1027.1
1027.1
1027.1
1027.1
1027.1
1027.1
1027.1
1027.1
1027.1
1027.1
1027.1
1027.1
1027.1
1027.1
1027.1
1027.1
1027.1
1027.1
1027.1
1027.1
1027.1
1027.1
1027.1
1027.1
1027.1
1027.1
1027.1
1027.1
1027.1
1.16535
1.16588
1.16619
1.16652
1.16686
1.16726
1.16798
1.16856
1.16873
1.16879
1.16883
1.16887
1.16889
1.1689
1.1689
1.1689
1.1689
1.1689
1.16891
1.16891
1.16891
1.16891
1.16891
1.16891
1.16892
1.16892
1.16892
1.16892
1.16892
1.16892
1.16892
1.16893
1.16893
1.16893
1.16893
1.16893
1.16893
1.16894
1.16894
1.16894
1.16894
1.16894
1.16895
1.16897
1.16924
1.17054
1.17371
1.17954
1.18886
1.20268
1.2117
1.21854
1.24901
1.31153
1.31165
1.31331
1.35204
1.39479
1.43223
41.9967
975.58
1027.02
1027.09
1027.09
1027.09
1027.1
1027.1
1027.1
1027.1
1027.1
1027.1
1027.1
1027.1
1027.1
1027.1
1027.1
1027.1
1027.1
1027.1
1027.1
1027.1
1027.1
1027.1
1027.1
1027.1
1027.1
1027.1
1027.1
1027.1
1027.1
1027.1
1027.1
1027.1
1027.1
1027.1
1027.1
1.165
1.16565
1.16616
1.16648
1.16679
1.16702
1.16736
1.16814
1.16871
1.1688
1.16879
1.16886
1.16889
1.1689
1.1689
1.1689
1.16891
1.16891
1.16891
1.16891
1.16891
1.16892
1.16892
1.16892
1.16892
1.16892
1.16892
1.16892
1.16893
1.16893
1.16893
1.16893
1.16893
1.16893
1.16893
1.16894
1.16894
1.16894
1.16894
1.16894
1.16894
1.16894
1.16895
1.16903
1.16976
1.17231
1.17698
1.18384
1.19356
1.20432
1.21146
1.22813
1.26986
1.31717
1.30989
1.30936
1.32512
1.38236
1.55227
59.7827
982.32
1026.8
1026.91
1026.95
1026.98
1026.99
1026.99
1027
1027.01
1027.02
1027.02
1027.02
1027.02
1027.01
1027.02
1027.04
1027.06
1027.07
1027.07
1027.07
1027.07
1027.07
1027.07
1027.08
1027.08
1027.09
1027.09
1027.1
1027.1
1027.1
1027.1
1027.1
1027.1
1027.1
1027.1
1027.1
1.16443
1.16495
1.1657
1.1661
1.16674
1.16697
1.16712
1.16769
1.16839
1.16868
1.16873
1.16883
1.16887
1.16889
1.1689
1.1689
1.1689
1.1689
1.1689
1.1689
1.16891
1.16891
1.16891
1.16891
1.16891
1.16891
1.16892
1.16892
1.16892
1.16892
1.16892
1.16892
1.16893
1.16893
1.16893
1.16893
1.16893
1.16893
1.16893
1.16894
1.16894
1.16894
1.16895
1.16921
1.1708
1.17438
1.17964
1.18788
1.20217
1.22276
1.24673
1.26359
1.28378
1.31235
1.3075
1.31082
1.31809
1.35105
1.28898
123.706
1007.13
1025.99
1026.01
1026
1025.98
1026.24
1026.43
1026.55
1026.58
1026.53
1026.48
1026.44
1026.42
1026.45
1026.48
1026.53
1026.52
1026.44
1026.37
1026.31
1026.27
1026.25
1026.28
1026.37
1026.35
1026.33
1026.43
1026.57
1026.76
1026.91
1027.03
1027.07
1027.09
1027.1
1027.1
1027.1
1.16402
1.16418
1.16487
1.16524
1.16622
1.16692
1.16713
1.16757
1.16794
1.16839
1.16862
1.16881
1.16888
1.1689
1.1689
1.1689
1.1689
1.16891
1.16891
1.16891
1.16891
1.16891
1.16891
1.16892
1.16892
1.16892
1.16892
1.16892
1.16892
1.16893
1.16893
1.16893
1.16893
1.16893
1.16893
1.16893
1.16894
1.16894
1.16894
1.16894
1.16895
1.16895
1.16898
1.16948
1.17167
1.17536
1.18066
1.1921
1.22091
1.26285
1.28969
1.29299
1.2965
1.30292
1.29897
1.2992
1.29805
1.32336
1.28898
244.172
1019.43
1024.51
1024.6
1024.93
1025.05
1025.03
1024.92
1024.77
1024.57
1024.35
1024.16
1024.01
1023.89
1023.76
1023.56
1023.25
1022.79
1022.22
1021.68
1021.29
1021.02
1020.84
1020.69
1020.63
1020.76
1020.79
1021.29
1021.98
1022.91
1023.77
1024.71
1025.43
1026.3
1026.81
1027.1
1027.08
1.16373
1.16372
1.16425
1.16443
1.16543
1.16684
1.16728
1.16766
1.1678
1.1682
1.16855
1.16879
1.16887
1.1689
1.1689
1.16891
1.1689
1.16891
1.16891
1.16891
1.16891
1.16891
1.16892
1.16892
1.16892
1.16892
1.16892
1.16893
1.16893
1.16893
1.16893
1.16893
1.16893
1.16894
1.16894
1.16894
1.16894
1.16894
1.16895
1.16895
1.16895
1.16895
1.16899
1.1695
1.17136
1.17504
1.18163
1.19485
1.2316
1.28589
1.299
1.29754
1.29732
1.29796
1.29822
1.29832
1.2981
1.30254
1.28898
306.845
1011.43
1017.85
1017.4
1017.24
1017.16
1017.09
1016.55
1015.96
1015.36
1014.82
1014.5
1014.31
1014.23
1014.24
1014.28
1013.84
1012.92
1012.09
1011.49
1011.2
1011.2
1012.51
1013.75
1014.87
1015.93
1016.97
1017.89
1018.44
1018.69
1018.52
1018.7
1018.51
1019.76
1021.41
1024.51
1027.08
1.16339
1.16363
1.16393
1.16402
1.16485
1.16695
1.16742
1.1678
1.16784
1.16819
1.16852
1.16878
1.16886
1.16889
1.1689
1.1689
1.1689
1.1689
1.1689
1.16891
1.16891
1.16891
1.16891
1.16891
1.16891
1.16892
1.16892
1.16892
1.16892
1.16892
1.16893
1.16893
1.16893
1.16893
1.16893
1.16894
1.16894
1.16894
1.16894
1.16894
1.16894
1.16895
1.16899
1.16942
1.17086
1.17391
1.17996
1.19201
1.23116
1.28876
1.29903
1.29898
1.29925
1.30045
1.30119
1.30009
1.29787
1.29721
1.28898
160.854
991.301
1023.26
1023.24
1023.54
1023.54
1023.45
1023.36
1023.3
1023.3
1023.34
1023.28
1023.19
1023.14
1023.16
1023.2
1023.15
1022.93
1022.68
1022.52
1022.52
1023.34
1024.2
1025.16
1026.03
1026.69
1026.95
1026.97
1026.94
1026.92
1026.86
1026.79
1026.7
1026.59
1026.53
1026.52
1026.78
1.1633
1.16357
1.16367
1.16402
1.16463
1.16709
1.16763
1.16798
1.16807
1.16847
1.16865
1.16881
1.16887
1.1689
1.1689
1.16891
1.16891
1.16891
1.16891
1.16891
1.16891
1.16892
1.16892
1.16892
1.16892
1.16892
1.16893
1.16893
1.16893
1.16893
1.16893
1.16893
1.16894
1.16894
1.16894
1.16894
1.16894
1.16894
1.16894
1.16895
1.16895
1.16895
1.16899
1.16927
1.17035
1.17268
1.1774
1.18878
1.21688
1.27474
1.299
1.29895
1.29978
1.30519
1.30649
1.30118
1.29525
1.29386
1.28898
92.7944
1003.62
1026.67
1026.76
1026.87
1026.87
1026.87
1026.87
1026.89
1026.91
1026.93
1026.94
1026.95
1026.96
1026.97
1026.97
1026.97
1026.97
1026.97
1026.96
1026.98
1027.01
1027.04
1027.07
1027.09
1027.1
1027.1
1027.1
1027.1
1027.1
1027.1
1027.1
1027.1
1027.1
1027.1
1027.1
1027.1
1.16324
1.16363
1.16367
1.1643
1.16494
1.16717
1.16801
1.16852
1.16859
1.16881
1.16884
1.16889
1.16888
1.1689
1.1689
1.1689
1.1689
1.1689
1.1689
1.16891
1.16891
1.16891
1.16891
1.16892
1.16892
1.16892
1.16892
1.16892
1.16892
1.16893
1.16893
1.16893
1.16893
1.16893
1.16893
1.16894
1.16894
1.16894
1.16894
1.16894
1.16895
1.16895
1.16897
1.1691
1.16984
1.17157
1.17511
1.18516
1.20506
1.23672
1.28451
1.29782
1.29746
1.2996
1.29635
1.29557
1.28431
1.29197
1.28898
47.4352
1003.16
1027.09
1027.09
1027.09
1027.09
1027.09
1027.09
1027.09
1027.09
1027.1
1027.1
1027.1
1027.09
1027.09
1027.1
1027.1
1027.1
1027.1
1027.1
1027.1
1027.1
1027.1
1027.1
1027.1
1027.1
1027.1
1027.1
1027.1
1027.1
1027.1
1027.1
1027.1
1027.1
1027.1
1027.1
1027.1
1.16261
1.1636
1.16432
1.16468
1.16515
1.16728
1.16826
1.16873
1.1688
1.16886
1.16889
1.16891
1.16891
1.16891
1.16891
1.16892
1.16891
1.16891
1.16891
1.16891
1.16891
1.16892
1.16892
1.16892
1.16892
1.16892
1.16892
1.16892
1.16893
1.16893
1.16893
1.16893
1.16893
1.16894
1.16894
1.16894
1.16894
1.16894
1.16894
1.16895
1.16895
1.16895
1.16896
1.169
1.16935
1.17055
1.17329
1.1817
1.20034
1.21764
1.23943
1.27355
1.28613
1.29395
1.29152
1.29184
1.27876
1.2893
1.38402
32.2048
987.101
1027.09
1027.09
1027.09
1027.09
1027.1
1027.1
1027.1
1027.1
1027.1
1027.1
1027.1
1027.1
1027.1
1027.1
1027.1
1027.1
1027.1
1027.1
1027.1
1027.1
1027.1
1027.1
1027.1
1027.1
1027.1
1027.1
1027.1
1027.1
1027.1
1027.1
1027.1
1027.1
1027.1
1027.1
1027.1
1.16173
1.16151
1.16188
1.16469
1.16531
1.16733
1.16794
1.16868
1.16876
1.16884
1.16887
1.16891
1.16891
1.16891
1.16892
1.16892
1.16892
1.16892
1.16892
1.16892
1.16893
1.16893
1.16893
1.16893
1.16893
1.16893
1.16893
1.16893
1.16893
1.16894
1.16894
1.16894
1.16894
1.16894
1.16894
1.16894
1.16894
1.16894
1.16895
1.16895
1.16896
1.16896
1.16896
1.16897
1.16907
1.16977
1.17185
1.17872
1.19607
1.2157
1.22928
1.24099
1.25671
1.2756
1.27968
1.28788
1.28134
1.29555
1.47671
22.9349
972.596
1027.04
1027.09
1027.09
1027.1
1027.1
1027.1
1027.1
1027.1
1027.1
1027.1
1027.1
1027.1
1027.1
1027.1
1027.1
1027.1
1027.1
1027.1
1027.1
1027.1
1027.1
1027.1
1027.1
1027.1
1027.1
1027.1
1027.1
1027.1
1027.1
1027.1
1027.1
1027.1
1027.1
1027.1
1027.1
1.16097
1.1615
1.16236
1.16429
1.16405
1.16355
1.16555
1.16851
1.16872
1.16883
1.16886
1.16891
1.16891
1.16891
1.16892
1.16892
1.16892
1.16892
1.16892
1.16892
1.16893
1.16893
1.16893
1.16893
1.16893
1.16893
1.16893
1.16893
1.16894
1.16894
1.16894
1.16894
1.16894
1.16894
1.16894
1.16894
1.16895
1.16895
1.16895
1.16895
1.16896
1.16896
1.16896
1.16897
1.169
1.16935
1.17082
1.17646
1.19342
1.21604
1.23099
1.2411
1.24654
1.25839
1.27089
1.28429
1.28012
1.30879
1.56192
23.8056
953.443
1027.01
1027.09
1027.09
1027.1
1027.1
1027.1
1027.1
1027.1
1027.1
1027.1
1027.1
1027.1
1027.1
1027.1
1027.1
1027.1
1027.1
1027.1
1027.1
1027.1
1027.1
1027.1
1027.1
1027.1
1027.1
1027.1
1027.1
1027.1
1027.1
1027.1
1027.1
1027.1
1027.1
1027.1
1027.1
1.16048
1.16129
1.16244
1.16397
1.16157
1.16125
1.16263
1.1677
1.16872
1.16887
1.16887
1.1689
1.1689
1.16891
1.16891
1.16891
1.16891
1.16892
1.16892
1.16892
1.16892
1.16892
1.16892
1.16893
1.16893
1.16893
1.16893
1.16893
1.16893
1.16894
1.16894
1.16894
1.16894
1.16894
1.16894
1.16894
1.16894
1.16895
1.16895
1.16895
1.16895
1.16895
1.16896
1.16896
1.16898
1.16916
1.17037
1.17483
1.1934
1.22
1.23404
1.24279
1.24861
1.25805
1.26056
1.27457
1.2713
1.30063
1.55278
20.3293
940.208
1026.72
1027.09
1027.09
1027.1
1027.1
1027.1
1027.1
1027.1
1027.1
1027.1
1027.1
1027.1
1027.1
1027.1
1027.1
1027.1
1027.1
1027.1
1027.1
1027.1
1027.1
1027.1
1027.1
1027.1
1027.1
1027.1
1027.1
1027.1
1027.1
1027.1
1027.1
1027.1
1027.1
1027.1
1027.1
1.15967
1.16019
1.16027
1.16076
1.16103
1.16114
1.16109
1.16249
1.16803
1.16887
1.16888
1.16891
1.16891
1.16891
1.16892
1.16892
1.16892
1.16892
1.16892
1.16893
1.16893
1.16893
1.16893
1.16893
1.16893
1.16894
1.16894
1.16894
1.16894
1.16894
1.16894
1.16895
1.16895
1.16895
1.16895
1.16895
1.16895
1.16895
1.16896
1.16896
1.16896
1.16896
1.16896
1.16897
1.16899
1.16916
1.17007
1.17421
1.19789
1.23212
1.24368
1.24907
1.25341
1.25751
1.26104
1.26718
1.26417
1.28452
1.57982
31.8181
940.119
1026.09
1027.09
1027.09
1027.1
1027.1
1027.1
1027.1
1027.1
1027.1
1027.1
1027.1
1027.1
1027.1
1027.1
1027.1
1027.1
1027.1
1027.1
1027.1
1027.1
1027.1
1027.1
1027.1
1027.1
1027.1
1027.1
1027.1
1027.1
1027.1
1027.1
1027.1
1027.1
1027.1
1027.1
1027.1
1.16524
1.16568
1.16591
1.16634
1.16686
1.16761
1.16833
1.16864
1.16879
1.16885
1.16888
1.16891
1.16891
1.16891
1.16892
1.16892
1.16892
1.16892
1.16892
1.16892
1.16892
1.16893
1.16893
1.16893
1.16893
1.16893
1.16893
1.16894
1.16894
1.16894
1.16894
1.16894
1.16895
1.16895
1.16895
1.16895
1.16895
1.16895
1.16896
1.16896
1.16896
1.16896
1.16896
1.16896
1.16897
1.16901
1.16939
1.17148
1.1796
1.20034
1.22613
1.24191
1.24664
1.25912
1.27057
1.28752
1.29349
1.307
2.01183
56.65
985.284
1026.9
1027.09
1027.09
1027.1
1027.1
1027.1
1027.1
1027.1
1027.1
1027.1
1027.1
1027.1
1027.1
1027.1
1027.1
1027.1
1027.1
1027.1
1027.1
1027.1
1027.1
1027.1
1027.1
1027.1
1027.1
1027.1
1027.1
1027.1
1027.1
1027.1
1027.1
1027.1
1027.1
1027.1
1027.1
1.16559
1.16613
1.16647
1.16695
1.16735
1.16774
1.16808
1.16831
1.16849
1.16861
1.16875
1.16885
1.1689
1.16891
1.16891
1.16892
1.16892
1.16892
1.16892
1.16892
1.16892
1.16893
1.16893
1.16893
1.16893
1.16893
1.16893
1.16894
1.16894
1.16894
1.16894
1.16894
1.16894
1.16894
1.16895
1.16895
1.16895
1.16895
1.16895
1.16895
1.16895
1.16895
1.16896
1.16898
1.16906
1.16924
1.16976
1.17174
1.17826
1.19572
1.22088
1.23654
1.24564
1.26325
1.28912
1.31027
1.3107
1.32008
1.54667
75.8966
1006.74
1027.08
1027.09
1027.09
1027.1
1027.1
1027.1
1027.1
1027.1
1027.1
1027.1
1027.1
1027.1
1027.1
1027.1
1027.1
1027.1
1027.1
1027.1
1027.1
1027.1
1027.1
1027.1
1027.1
1027.1
1027.1
1027.1
1027.1
1027.1
1027.1
1027.1
1027.1
1027.1
1027.1
1027.1
1027.1
1.16556
1.16616
1.16648
1.16686
1.16714
1.16738
1.16763
1.16788
1.16808
1.1683
1.16857
1.16878
1.16887
1.16891
1.16891
1.16891
1.16891
1.16892
1.16892
1.16892
1.16892
1.16892
1.16892
1.16893
1.16893
1.16893
1.16893
1.16893
1.16893
1.16893
1.16894
1.16894
1.16894
1.16894
1.16894
1.16894
1.16894
1.16895
1.16895
1.16895
1.16895
1.16895
1.16896
1.16899
1.16914
1.16967
1.17115
1.17479
1.18149
1.19418
1.21601
1.22707
1.24511
1.28775
1.31556
1.31567
1.31304
1.32251
1.34091
72.0369
1008.77
1027.09
1027.09
1027.09
1027.1
1027.1
1027.1
1027.1
1027.1
1027.1
1027.1
1027.1
1027.1
1027.1
1027.1
1027.1
1027.1
1027.1
1027.1
1027.1
1027.1
1027.1
1027.1
1027.1
1027.1
1027.1
1027.1
1027.1
1027.1
1027.1
1027.1
1027.1
1027.1
1027.1
1027.1
1027.1
1.1651
1.16597
1.16638
1.16682
1.16707
1.16728
1.16753
1.16781
1.16792
1.16817
1.16846
1.16875
1.16885
1.16891
1.1689
1.16891
1.16891
1.16891
1.16891
1.16892
1.16892
1.16892
1.16892
1.16892
1.16892
1.16893
1.16893
1.16893
1.16893
1.16893
1.16893
1.16893
1.16894
1.16894
1.16894
1.16894
1.16894
1.16894
1.16894
1.16895
1.16895
1.16895
1.16895
1.16899
1.16923
1.17058
1.17468
1.1806
1.18746
1.19648
1.21072
1.21833
1.28412
1.32265
1.31556
1.31235
1.32111
1.33498
1.30944
85.3985
1009.46
1027.08
1027.08
1027.09
1027.09
1027.09
1027.09
1027.09
1027.09
1027.09
1027.09
1027.09
1027.09
1027.09
1027.09
1027.09
1027.09
1027.09
1027.09
1027.09
1027.09
1027.09
1027.09
1027.09
1027.09
1027.09
1027.1
1027.1
1027.1
1027.1
1027.1
1027.1
1027.1
1027.1
1027.1
1027.1
1.16444
1.16522
1.16556
1.16643
1.16689
1.16721
1.16754
1.16783
1.16789
1.16813
1.16843
1.16874
1.16884
1.1689
1.1689
1.16891
1.16891
1.16891
1.16891
1.16892
1.16892
1.16892
1.16892
1.16892
1.16892
1.16892
1.16893
1.16893
1.16893
1.16893
1.16893
1.16893
1.16893
1.16894
1.16894
1.16894
1.16894
1.16894
1.16894
1.16894
1.16895
1.16895
1.16895
1.169
1.16937
1.17157
1.1779
1.18585
1.19335
1.19958
1.20419
1.22036
1.32174
1.33383
1.33326
1.33174
1.33178
1.33195
1.28898
104.627
1004.57
1026.34
1026.41
1026.58
1026.62
1026.66
1026.66
1026.64
1026.58
1026.53
1026.46
1026.4
1026.34
1026.28
1026.2
1026.14
1026.08
1026.04
1026.02
1025.99
1025.98
1026.08
1026.13
1026.16
1026.18
1026.26
1026.39
1026.55
1026.73
1026.86
1026.97
1027.04
1027.08
1027.09
1027.1
1027.1
1.16372
1.16456
1.16463
1.16573
1.16624
1.16691
1.16752
1.16783
1.16789
1.16813
1.16842
1.16873
1.16884
1.1689
1.1689
1.16891
1.16891
1.16891
1.16891
1.16891
1.16891
1.16892
1.16892
1.16892
1.16892
1.16892
1.16892
1.16893
1.16893
1.16893
1.16893
1.16893
1.16893
1.16894
1.16894
1.16894
1.16894
1.16894
1.16894
1.16894
1.16895
1.16895
1.16895
1.16901
1.16942
1.17184
1.17872
1.18803
1.19919
1.20858
1.21433
1.22051
1.31795
1.35223
1.37135
1.37698
1.36499
1.33276
1.28898
268.243
1000.16
1019.12
1018.84
1019.03
1019.08
1018.63
1017.86
1016.94
1016.23
1015.79
1015.44
1014.96
1014.26
1013.37
1012.28
1011.23
1010.37
1009.71
1009.08
1008.47
1008.06
1007.89
1008.15
1008.15
1008.27
1008.8
1009.82
1011.28
1013.23
1015.36
1017.82
1020.57
1023.02
1025.13
1026.43
1026.97
1.16307
1.16386
1.16396
1.16503
1.1655
1.16648
1.16736
1.16781
1.16788
1.16815
1.16842
1.16873
1.16883
1.1689
1.1689
1.16891
1.16891
1.16891
1.16891
1.16891
1.16891
1.16892
1.16892
1.16892
1.16892
1.16892
1.16892
1.16893
1.16893
1.16893
1.16893
1.16893
1.16893
1.16894
1.16894
1.16894
1.16894
1.16894
1.16894
1.16894
1.16895
1.16895
1.16896
1.16901
1.16937
1.17122
1.17722
1.18743
1.20358
1.23303
1.27124
1.27034
1.2932
1.32993
1.33609
1.36741
1.39347
1.40555
1.31485
630.728
1004.02
1004.67
1002.98
1002.04
1001.31
1000.84
1000.46
999.819
999.235
998.76
998.232
997.448
996.28
994.23
991.574
988.669
986.039
983.732
981.381
979.07
977.279
976.208
975.017
973.421
971.675
969.908
967.861
966.099
964.407
963.347
962.767
964.646
967.848
973.664
981.838
992.48
1.16265
1.16284
1.16314
1.16376
1.16447
1.16575
1.16713
1.16778
1.16787
1.16815
1.16842
1.16872
1.16883
1.1689
1.1689
1.16891
1.16891
1.16891
1.16891
1.16891
1.16891
1.16892
1.16892
1.16892
1.16892
1.16892
1.16892
1.16893
1.16893
1.16893
1.16893
1.16893
1.16893
1.16894
1.16894
1.16894
1.16894
1.16894
1.16894
1.16894
1.16895
1.16895
1.16895
1.169
1.16926
1.17067
1.17585
1.18655
1.20651
1.25263
1.29786
1.30198
1.30273
1.31134
1.30998
1.32124
1.32202
1.35521
1.32184
680.338
999.267
999.857
999.679
999.525
999.115
998.464
997.962
997.44
997.105
996.833
996.664
996.306
995.835
995.218
994.062
991.813
988.8
986.085
984.291
983.427
982.466
980.246
976.745
972.533
967.381
961.471
955.483
950.028
944.082
938.106
930.737
922.129
909.083
885.991
831.411
617.572
1.16258
1.16203
1.16216
1.16239
1.16301
1.1648
1.16683
1.16778
1.1679
1.16818
1.16844
1.16873
1.16884
1.1689
1.16891
1.16891
1.16891
1.16891
1.16891
1.16892
1.16892
1.16892
1.16892
1.16892
1.16892
1.16892
1.16893
1.16893
1.16893
1.16893
1.16893
1.16893
1.16894
1.16894
1.16894
1.16894
1.16894
1.16894
1.16895
1.16895
1.16895
1.16895
1.16895
1.16899
1.1692
1.1704
1.17506
1.18611
1.2091
1.25856
1.29743
1.30325
1.3078
1.31264
1.3144
1.33071
1.31106
1.31024
1.28898
324.91
1009.22
1018.05
1018.54
1019.23
1019.5
1019.79
1019.86
1019.93
1019.94
1019.98
1019.77
1019.55
1019.26
1018.92
1018.55
1018.07
1017.34
1016.67
1016.1
1015.42
1014.83
1014.56
1016.18
1018.66
1021.99
1024.7
1025.84
1025.8
1025.79
1025.6
1025.16
1024.44
1023.32
1021.48
1018.19
1014.16
1.16266
1.16187
1.16185
1.16191
1.16229
1.16396
1.16648
1.16781
1.16798
1.16824
1.16849
1.16876
1.16886
1.16891
1.16891
1.16891
1.16891
1.16892
1.16892
1.16892
1.16892
1.16892
1.16892
1.16892
1.16893
1.16893
1.16893
1.16893
1.16893
1.16893
1.16893
1.16894
1.16894
1.16894
1.16894
1.16894
1.16894
1.16895
1.16895
1.16895
1.16895
1.16895
1.16896
1.16898
1.16915
1.17016
1.17437
1.18521
1.20338
1.23385
1.28031
1.30234
1.30736
1.31971
1.33165
1.33734
1.31302
1.30521
1.28898
136.467
1017.37
1026.1
1026.23
1026.46
1026.52
1026.61
1026.64
1026.65
1026.65
1026.63
1026.6
1026.56
1026.51
1026.46
1026.43
1026.41
1026.37
1026.33
1026.27
1026.2
1026.17
1026.36
1026.63
1026.86
1027.02
1027.09
1027.1
1027.1
1027.1
1027.1
1027.1
1027.1
1027.1
1027.1
1027.1
1027.1
1.16261
1.16184
1.1617
1.16178
1.16204
1.16357
1.16623
1.16786
1.16806
1.16832
1.16854
1.16879
1.16888
1.16891
1.16891
1.16891
1.16891
1.16892
1.16892
1.16892
1.16892
1.16892
1.16892
1.16892
1.16893
1.16893
1.16893
1.16893
1.16893
1.16893
1.16893
1.16894
1.16894
1.16894
1.16894
1.16894
1.16894
1.16895
1.16895
1.16895
1.16895
1.16895
1.16895
1.16897
1.1691
1.16984
1.1732
1.18357
1.20078
1.21769
1.23165
1.27241
1.29178
1.30136
1.31302
1.30727
1.29875
1.30413
1.28898
72.0345
1020.43
1027.07
1027.07
1027.08
1027.08
1027.08
1027.09
1027.09
1027.09
1027.09
1027.09
1027.09
1027.09
1027.09
1027.09
1027.09
1027.09
1027.09
1027.09
1027.09
1027.09
1027.09
1027.1
1027.1
1027.1
1027.1
1027.1
1027.1
1027.1
1027.1
1027.1
1027.1
1027.1
1027.1
1027.1
1027.1
1.16171
1.16195
1.16176
1.16185
1.16213
1.16352
1.16583
1.16793
1.16812
1.16837
1.16858
1.16882
1.16889
1.16891
1.16891
1.16891
1.16891
1.16892
1.16892
1.16892
1.16892
1.16892
1.16892
1.16892
1.16893
1.16893
1.16893
1.16893
1.16893
1.16893
1.16893
1.16894
1.16894
1.16894
1.16894
1.16894
1.16894
1.16895
1.16895
1.16895
1.16895
1.16895
1.16895
1.16896
1.16904
1.16955
1.17208
1.18149
1.19916
1.21657
1.2302
1.23652
1.26073
1.27832
1.27747
1.27797
1.27734
1.29011
1.34755
40.4414
1016.25
1027.09
1027.09
1027.09
1027.09
1027.1
1027.1
1027.1
1027.1
1027.1
1027.1
1027.1
1027.1
1027.1
1027.1
1027.1
1027.1
1027.1
1027.1
1027.1
1027.1
1027.1
1027.1
1027.1
1027.1
1027.1
1027.1
1027.1
1027.1
1027.1
1027.1
1027.1
1027.1
1027.1
1027.1
1027.1
1.16161
1.16207
1.1621
1.16202
1.16173
1.16215
1.16453
1.16768
1.16823
1.1685
1.16866
1.16886
1.1689
1.16891
1.16891
1.16891
1.16891
1.16892
1.16891
1.16892
1.16892
1.16892
1.16892
1.16892
1.16893
1.16893
1.16893
1.16893
1.16893
1.16893
1.16893
1.16894
1.16894
1.16894
1.16894
1.16894
1.16894
1.16894
1.16895
1.16895
1.16895
1.16895
1.16895
1.16896
1.169
1.16932
1.17089
1.17827
1.1966
1.21674
1.23249
1.24336
1.24954
1.26349
1.26535
1.29551
1.29137
1.30547
1.49172
23.3735
1000.46
1027.09
1027.09
1027.09
1027.09
1027.1
1027.1
1027.1
1027.1
1027.1
1027.1
1027.1
1027.1
1027.1
1027.1
1027.1
1027.1
1027.1
1027.1
1027.1
1027.1
1027.1
1027.1
1027.1
1027.1
1027.1
1027.1
1027.1
1027.1
1027.1
1027.1
1027.1
1027.1
1027.1
1027.1
1027.1
1.16149
1.1621
1.16239
1.16292
1.16152
1.16124
1.16247
1.16673
1.16831
1.16863
1.16874
1.16888
1.1689
1.16891
1.16891
1.16891
1.16891
1.16891
1.16891
1.16892
1.16892
1.16892
1.16892
1.16892
1.16892
1.16892
1.16893
1.16893
1.16893
1.16893
1.16893
1.16893
1.16893
1.16893
1.16894
1.16894
1.16894
1.16894
1.16894
1.16894
1.16895
1.16895
1.16895
1.16896
1.16899
1.1692
1.17019
1.17542
1.1939
1.21632
1.23073
1.24727
1.25358
1.26655
1.29934
1.30505
1.29148
1.30604
1.70035
33.6509
967.629
1027.09
1027.09
1027.09
1027.1
1027.1
1027.1
1027.1
1027.1
1027.1
1027.1
1027.1
1027.1
1027.1
1027.1
1027.1
1027.1
1027.1
1027.1
1027.1
1027.1
1027.1
1027.1
1027.1
1027.1
1027.1
1027.1
1027.1
1027.1
1027.1
1027.1
1027.1
1027.1
1027.1
1027.1
1027.1
1.16125
1.16169
1.16222
1.16347
1.16138
1.16099
1.16118
1.16458
1.16823
1.16875
1.16881
1.16889
1.1689
1.16891
1.16891
1.16891
1.16891
1.16891
1.16891
1.16891
1.16892
1.16892
1.16892
1.16892
1.16892
1.16892
1.16892
1.16893
1.16893
1.16893
1.16893
1.16893
1.16893
1.16893
1.16893
1.16893
1.16894
1.16894
1.16894
1.16894
1.16894
1.16894
1.16895
1.16895
1.16898
1.16913
1.1699
1.17404
1.19308
1.22212
1.2352
1.24459
1.26155
1.28906
1.30301
1.29917
1.28612
1.30692
1.52427
26.5608
962.05
1027.05
1027.09
1027.09
1027.1
1027.1
1027.1
1027.1
1027.1
1027.1
1027.1
1027.1
1027.1
1027.1
1027.1
1027.1
1027.1
1027.1
1027.1
1027.1
1027.1
1027.1
1027.1
1027.1
1027.1
1027.1
1027.1
1027.1
1027.1
1027.1
1027.1
1027.1
1027.1
1027.1
1027.1
1027.1
1.16066
1.16088
1.16082
1.16087
1.16098
1.16104
1.161
1.16269
1.16792
1.16884
1.16886
1.1689
1.1689
1.16891
1.16891
1.16891
1.16891
1.16892
1.16892
1.16892
1.16892
1.16892
1.16892
1.16893
1.16893
1.16893
1.16893
1.16893
1.16893
1.16894
1.16894
1.16894
1.16894
1.16894
1.16895
1.16895
1.16895
1.16895
1.16895
1.16895
1.16895
1.16895
1.16896
1.16896
1.16899
1.16915
1.16997
1.17421
1.19784
1.23118
1.24465
1.25138
1.25763
1.26428
1.26795
1.29581
1.31925
1.31302
1.45925
27.5319
942.16
1026.17
1027.09
1027.09
1027.1
1027.1
1027.1
1027.1
1027.1
1027.1
1027.1
1027.1
1027.1
1027.1
1027.1
1027.1
1027.1
1027.1
1027.1
1027.1
1027.1
1027.1
1027.1
1027.1
1027.1
1027.1
1027.1
1027.1
1027.1
1027.1
1027.1
1027.1
1027.1
1027.1
1027.1
1027.1
1.16501
1.16554
1.16573
1.1662
1.1669
1.16779
1.16836
1.16855
1.16872
1.16883
1.16888
1.1689
1.1689
1.16891
1.16891
1.16891
1.16891
1.16891
1.16891
1.16892
1.16892
1.16892
1.16892
1.16892
1.16892
1.16893
1.16893
1.16893
1.16893
1.16893
1.16893
1.16894
1.16894
1.16894
1.16894
1.16894
1.16894
1.16895
1.16895
1.16895
1.16895
1.16895
1.16895
1.16895
1.16896
1.16898
1.16944
1.17196
1.18088
1.20195
1.228
1.24656
1.25623
1.27009
1.27651
1.28519
1.28874
1.30228
1.97486
51.9839
975.287
1026.7
1027.09
1027.1
1027.1
1027.1
1027.1
1027.1
1027.1
1027.1
1027.1
1027.1
1027.1
1027.1
1027.1
1027.1
1027.1
1027.1
1027.1
1027.1
1027.1
1027.1
1027.1
1027.1
1027.1
1027.1
1027.1
1027.1
1027.1
1027.1
1027.1
1027.1
1027.1
1027.1
1027.1
1027.1
1.16537
1.16604
1.16624
1.16684
1.1675
1.16794
1.16828
1.16851
1.16869
1.16879
1.16885
1.16888
1.1689
1.16891
1.16891
1.16891
1.16891
1.16891
1.16892
1.16892
1.16892
1.16892
1.16892
1.16892
1.16893
1.16893
1.16893
1.16893
1.16893
1.16893
1.16893
1.16894
1.16894
1.16894
1.16894
1.16894
1.16894
1.16894
1.16894
1.16894
1.16894
1.16895
1.16895
1.16896
1.16898
1.16903
1.16949
1.1717
1.17908
1.19864
1.22751
1.25031
1.26287
1.2729
1.28939
1.30076
1.29868
1.31608
1.65221
58.2019
1006.81
1027.06
1027.09
1027.09
1027.1
1027.1
1027.1
1027.1
1027.1
1027.1
1027.1
1027.1
1027.1
1027.1
1027.1
1027.1
1027.1
1027.1
1027.1
1027.1
1027.1
1027.1
1027.1
1027.1
1027.1
1027.1
1027.1
1027.1
1027.1
1027.1
1027.1
1027.1
1027.1
1027.1
1027.1
1027.1
1.16543
1.16631
1.16674
1.16725
1.16755
1.16786
1.16815
1.16838
1.16855
1.16865
1.16877
1.16885
1.16889
1.1689
1.1689
1.1689
1.1689
1.16891
1.16891
1.16891
1.16891
1.16891
1.16892
1.16892
1.16892
1.16892
1.16892
1.16892
1.16892
1.16893
1.16893
1.16893
1.16893
1.16893
1.16893
1.16893
1.16893
1.16893
1.16893
1.16894
1.16894
1.16894
1.16894
1.16896
1.16903
1.16918
1.16996
1.17246
1.17874
1.19549
1.22412
1.24562
1.25056
1.2682
1.29372
1.31175
1.30401
1.33023
1.53739
66.7946
1017.99
1027.09
1027.09
1027.09
1027.1
1027.1
1027.1
1027.1
1027.1
1027.1
1027.1
1027.1
1027.1
1027.1
1027.1
1027.1
1027.1
1027.1
1027.1
1027.1
1027.1
1027.1
1027.1
1027.1
1027.1
1027.1
1027.1
1027.1
1027.1
1027.1
1027.1
1027.1
1027.1
1027.1
1027.1
1027.1
1.16481
1.16637
1.16682
1.1672
1.16745
1.16771
1.16799
1.16821
1.16839
1.16856
1.16872
1.16883
1.16888
1.1689
1.1689
1.1689
1.1689
1.1689
1.1689
1.16891
1.16891
1.16891
1.16891
1.16891
1.16891
1.16891
1.16892
1.16892
1.16892
1.16892
1.16892
1.16892
1.16893
1.16893
1.16893
1.16893
1.16893
1.16893
1.16893
1.16894
1.16894
1.16894
1.16894
1.16899
1.16915
1.16962
1.17149
1.1753
1.18033
1.19249
1.21705
1.22836
1.24967
1.29741
1.31331
1.31542
1.30156
1.34577
1.44921
76.8184
1018.11
1027.09
1027.09
1027.09
1027.09
1027.09
1027.09
1027.09
1027.09
1027.09
1027.1
1027.1
1027.1
1027.1
1027.1
1027.1
1027.1
1027.1
1027.1
1027.1
1027.1
1027.1
1027.1
1027.1
1027.1
1027.1
1027.1
1027.1
1027.1
1027.1
1027.1
1027.1
1027.1
1027.1
1027.1
1027.1
1.16376
1.16627
1.16667
1.16705
1.16731
1.16765
1.16793
1.16814
1.16832
1.16848
1.16868
1.16881
1.16887
1.1689
1.1689
1.1689
1.1689
1.16891
1.16891
1.16891
1.16891
1.16891
1.16891
1.16891
1.16891
1.16892
1.16892
1.16892
1.16892
1.16892
1.16892
1.16892
1.16893
1.16893
1.16893
1.16893
1.16893
1.16893
1.16893
1.16894
1.16894
1.16894
1.16894
1.16902
1.16929
1.17036
1.17462
1.18103
1.1851
1.19293
1.20766
1.21605
1.28079
1.32668
1.32495
1.32045
1.32277
1.3938
1.42095
114.266
1009.76
1026.76
1026.8
1026.86
1026.87
1026.92
1026.95
1026.96
1026.94
1026.94
1026.94
1026.95
1026.94
1026.94
1026.94
1026.91
1026.89
1026.88
1026.91
1026.95
1027
1027.03
1027.04
1027.05
1027.06
1027.06
1027.06
1027.07
1027.07
1027.08
1027.09
1027.09
1027.1
1027.1
1027.1
1027.1
1.16328
1.1662
1.16676
1.16713
1.16718
1.16752
1.1678
1.16806
1.16819
1.16825
1.16853
1.1687
1.16885
1.16889
1.16889
1.1689
1.1689
1.1689
1.16891
1.16891
1.16891
1.16891
1.16891
1.16891
1.16892
1.16892
1.16892
1.16892
1.16892
1.16892
1.16892
1.16893
1.16893
1.16893
1.16893
1.16893
1.16893
1.16894
1.16894
1.16894
1.16894
1.16894
1.16896
1.169
1.16932
1.17114
1.1776
1.18563
1.19119
1.19483
1.20031
1.20866
1.28926
1.33912
1.35731
1.38106
1.41795
1.43033
1.40292
213.12
997.029
1021.86
1022.23
1022.65
1022.81
1022.96
1022.97
1022.86
1022.83
1023.09
1023.32
1023.55
1023.63
1023.57
1023.45
1023.3
1023.23
1023.54
1024.1
1024.89
1025.72
1026.14
1026.23
1026.33
1026.38
1026.39
1026.33
1026.29
1026.29
1026.44
1026.58
1026.76
1026.92
1027.03
1027.08
1027.09
1.16302
1.16573
1.16674
1.16729
1.16742
1.16767
1.16765
1.1677
1.16795
1.16787
1.16816
1.16849
1.16879
1.16888
1.16889
1.1689
1.1689
1.1689
1.16891
1.16891
1.16891
1.16892
1.16892
1.16892
1.16892
1.16892
1.16893
1.16893
1.16893
1.16893
1.16893
1.16893
1.16893
1.16893
1.16893
1.16893
1.16894
1.16894
1.16894
1.16894
1.16894
1.16895
1.16896
1.16899
1.16928
1.17149
1.17875
1.18792
1.1952
1.20139
1.21245
1.22223
1.26708
1.32834
1.34781
1.39842
1.43199
1.43214
1.32929
470.268
1006.62
1010.88
1011.45
1011.94
1012.03
1011.07
1010.66
1011.13
1011.8
1012.37
1012.93
1013.4
1013.75
1014.09
1014.5
1015.15
1016.31
1018.17
1020.42
1022.67
1024.1
1024.36
1024.34
1024.47
1024.52
1024.42
1024.31
1024.17
1024.16
1024.46
1024.78
1025.25
1025.73
1026.15
1026.57
1026.94
1.16283
1.16462
1.16603
1.1668
1.16745
1.16716
1.16729
1.16735
1.16742
1.16761
1.1679
1.16835
1.16868
1.16885
1.16888
1.16889
1.16889
1.1689
1.1689
1.1689
1.1689
1.16891
1.16891
1.16891
1.16891
1.16891