/*--------------------------------*- C++ -*----------------------------------*\
| =========                 |                                                 |
| \\      /  F ield         | OpenFOAM: The Open Source CFD Toolbox           |
|  \\    /   O peration     | Version:  2.3.0                                 |
|   \\  /    A nd           | Web:      www.OpenFOAM.org                      |
|    \\/     M anipulation  |                                                 |
\*---------------------------------------------------------------------------*/
FoamFile
{
    version     2.0;
    format      ascii;
    class       volVectorField;
    location    "18";
    object      U;
}
// * * * * * * * * * * * * * * * * * * * * * * * * * * * * * * * * * * * * * //

dimensions      [0 1 -1 0 0 0 0];

internalField   nonuniform List<vector> 
6144
(
(0.0114602 0.026863 -0.00317592)
(0.0117487 0.0103678 -0.00345548)
(0.00756069 0.00703458 -0.00431347)
(0.0073825 0.00292804 -0.00391851)
(0.00381959 5.1477e-05 -0.0025025)
(0.00298155 0.000162754 -0.00187226)
(0.00180902 -0.00141011 -0.000727607)
(0.00160188 9.77111e-05 -0.000584667)
(0.00159492 0.00110988 -0.000578467)
(0.00151392 0.0031631 0.000178912)
(0.00145026 0.00440855 0.000660949)
(0.001643 0.00492221 0.00125201)
(0.00190359 0.00441145 0.00132718)
(0.00210232 0.0035064 0.00145013)
(0.00212999 0.00245402 0.00113089)
(0.00218386 0.00173766 0.000906638)
(0.00219397 0.00112997 0.000627059)
(0.00222177 0.000763591 0.000451135)
(0.00223124 0.000474361 0.000321501)
(0.00223519 0.000295538 0.000250123)
(0.0022309 0.000164029 0.000209726)
(0.00222105 7.93876e-05 0.000196327)
(0.00220682 1.75586e-05 0.000201553)
(0.00218968 -2.64991e-05 0.000221752)
(0.00217086 -6.48687e-05 0.000251603)
(0.00215094 -9.9679e-05 0.000287867)
(0.00212984 -0.000135076 0.000330258)
(0.0021076 -0.000171508 0.000378755)
(0.00208415 -0.000209889 0.000433999)
(0.0020597 -0.000254598 0.000498985)
(0.00203563 -0.000310292 0.000578224)
(0.00201089 -0.000391818 0.00067496)
(0.00198152 -0.000512612 0.000799866)
(0.00194772 -0.000705401 0.000961733)
(0.00190881 -0.000997182 0.00117674)
(0.00186925 -0.00145389 0.00144241)
(0.00183633 -0.00211329 0.00175561)
(0.00182582 -0.00306665 0.00207132)
(0.00186011 -0.0042948 0.0023338)
(0.0019624 -0.00583351 0.0024385)
(0.00214499 -0.00756252 0.00228912)
(0.002394 -0.00948155 0.0017965)
(0.00268088 -0.0113187 0.00108901)
(0.00322943 -0.013159 0.000112498)
(0.00386325 -0.014866 -0.000683195)
(0.00469331 -0.0175475 -0.000837458)
(0.00664926 -0.0237121 -0.00186958)
(0.00707612 -0.029463 -0.0043701)
(0.0049915 -0.0292948 -0.0059)
(0.00280839 -0.0262847 -0.00836058)
(0.00293753 -0.0158952 -0.0114437)
(0.00608259 -0.00588643 -0.0167469)
(0.0170424 0.0228793 -0.0137972)
(0.0312844 -0.0140066 -0.00332498)
(0.050862 -0.0323835 -0.00861758)
(0.0552657 -0.102822 -0.0122711)
(0.0287512 -0.0950475 -0.0214376)
(0.0179831 -0.136283 -0.013457)
(-0.0499945 0.00837281 -0.0490115)
(0.054919 0.133383 0.0239599)
(0.160486 -0.298854 0.0385765)
(0.10383 -0.107134 -0.00479807)
(0.0508048 -0.192484 -0.0100718)
(0.0459872 -0.18213 -0.0068771)
(0.0267639 -0.177589 0.00173641)
(0.0259109 -0.163294 0.00581893)
(0.0247323 -0.140794 0.00831073)
(0.029389 -0.125324 0.0172484)
(0.0345205 -0.120603 0.0250991)
(0.0345466 -0.123323 0.0288396)
(0.0283217 -0.135273 0.031837)
(0.0216002 -0.146152 0.0310426)
(0.0107848 -0.157216 0.0208639)
(0.00601452 -0.157706 0.00694869)
(-0.00479332 -0.151732 -0.000784834)
(-0.0115265 -0.1271 -0.00519298)
(-0.00993254 -0.0904881 -0.00148484)
(-0.0209224 -0.0661117 0.0150647)
(-0.024912 -0.0610561 0.014193)
(-0.0180808 -0.0372286 0.000216594)
(0.00412221 0.00662498 -0.00279087)
(0.0123039 0.0165755 0.00187053)
(0.0129579 0.0212349 0.0043112)
(0.00984263 0.013711 0.00378127)
(0.0106354 0.0113318 0.00152855)
(0.0114698 0.00978134 0.00113319)
(0.0115535 0.00773039 0.00183623)
(0.0102257 0.00317195 -0.000299067)
(0.0114753 0.000910583 -0.000905607)
(0.00908572 -0.00364273 -0.00305353)
(0.00618503 -0.00345594 -0.00616746)
(0.00567315 -0.000161845 -0.00669476)
(0.00313103 0.00277076 -0.00943126)
(-0.000379773 0.00896169 -0.00497867)
(0.00464927 0.0117059 0.00267112)
(0.00539185 6.92769e-05 0.00441256)
(0.0191079 0.0298446 0.000756496)
(0.0208428 0.0223889 0.00120488)
(0.0162279 0.018984 0.00012607)
(0.0156316 0.0149779 0.00256178)
(0.00922557 0.00927751 0.00230555)
(0.00762915 0.00589458 0.00310338)
(0.00377734 0.0020095 0.00342221)
(0.00253898 0.0031846 0.00290704)
(0.00206874 0.00403382 0.00260035)
(0.00196924 0.00595247 0.00316692)
(0.00228427 0.00646514 0.00338008)
(0.00300216 0.00650988 0.00407836)
(0.00344716 0.00545508 0.00424859)
(0.00381256 0.00457113 0.00440492)
(0.00379355 0.0033913 0.00426402)
(0.00387061 0.00258341 0.00419483)
(0.00384614 0.00183508 0.0040569)
(0.0038783 0.00138062 0.00395968)
(0.00387363 0.000992915 0.00387755)
(0.00386283 0.000744347 0.00384605)
(0.00383736 0.000556275 0.00384059)
(0.00380318 0.000432436 0.00386139)
(0.00376274 0.000341046 0.00389875)
(0.00371833 0.000276862 0.0039502)
(0.00367154 0.00022392 0.00401103)
(0.00362186 0.000177844 0.00407817)
(0.00357002 0.000132349 0.00414851)
(0.00351595 8.61545e-05 0.00422052)
(0.00345982 3.81068e-05 0.00429516)
(0.00340136 -1.62477e-05 0.00437538)
(0.00334139 -8.40067e-05 0.00445636)
(0.00328657 -0.000190449 0.00453283)
(0.00323843 -0.000348642 0.00461666)
(0.00320012 -0.000599414 0.00471692)
(0.00318215 -0.000961905 0.00483763)
(0.00319715 -0.00150678 0.00498044)
(0.00326912 -0.00224091 0.00513686)
(0.0034125 -0.00323335 0.00528747)
(0.00365834 -0.00441475 0.00540594)
(0.00402659 -0.00582409 0.00546018)
(0.00453589 -0.00735072 0.00542194)
(0.00529265 -0.00901663 0.00515005)
(0.00641688 -0.0106946 0.00442088)
(0.0075549 -0.0126027 0.00357799)
(0.00888018 -0.0145913 0.00308382)
(0.0116954 -0.0187635 0.00412722)
(0.0155261 -0.0267023 0.00277479)
(0.0160015 -0.030706 -0.00247603)
(0.0121941 -0.0276876 -0.00496532)
(0.00652824 -0.0260263 -0.0043095)
(0.00317424 -0.0182385 -0.00170568)
(0.00336229 -0.0194602 -0.00555182)
(0.0251996 -0.0119215 0.00102633)
(0.0659751 -0.0573815 0.0155674)
(0.092539 -0.0691711 0.00583458)
(0.0903492 -0.122553 0.00239154)
(0.0358986 -0.102787 -0.00196036)
(-0.0112667 -0.196106 0.0214413)
(-0.152854 -0.010847 -0.0450355)
(0.0612277 0.0304702 0.0346717)
(0.187722 -0.274006 0.0975063)
(0.0919663 0.100982 -0.0154925)
(0.0140748 -0.120277 -0.0186943)
(0.0086168 0.0477344 -0.00224505)
(-0.0267426 -0.069412 0.0379334)
(-0.0330586 -0.0428723 0.0207312)
(-0.0354851 -0.0490894 0.0200462)
(-0.0317911 -0.0461668 0.027419)
(-0.0254672 -0.0421049 0.0288525)
(-0.0209762 -0.0319122 0.0257563)
(-0.0165836 -0.00724794 0.012963)
(-0.00456855 0.007203 -8.76747e-05)
(0.00607935 0.00695701 -0.00457313)
(0.00659908 0.00652572 -0.00668981)
(-0.00277009 0.00375388 -0.00291541)
(-0.0122104 -0.00261042 0.0164982)
(-0.0226752 -0.00800257 0.0316422)
(-0.0287547 -0.0240903 0.0369687)
(-0.0318645 -0.0391401 0.0173084)
(-0.0263677 -0.00507472 -0.00645292)
(-0.0126368 0.0326318 0.0032266)
(-0.00336352 0.0434648 0.00895152)
(-0.00201877 0.0455382 0.0141639)
(-0.000732119 0.0370114 0.0156525)
(0.000976899 0.0316695 0.0113471)
(0.0071932 0.0308839 0.0100238)
(0.0117182 0.0287438 0.00773096)
(0.0126147 0.0290979 0.00332632)
(0.0128143 0.0347793 -0.000357129)
(0.011254 0.0380412 -0.002019)
(0.011853 0.0409332 -0.00166942)
(0.0122474 0.0399514 -0.000705566)
(0.0118829 0.0351908 0.00136583)
(0.0114703 0.0235475 0.00701579)
(0.0140674 0.0103988 0.0100624)
(0.0107033 0.00252108 0.0107696)
(0.0223299 0.0266627 0.00188294)
(0.0239793 0.0249371 0.00268083)
(0.0194766 0.0216105 0.00171327)
(0.0186294 0.0205935 0.00372158)
(0.0121478 0.015233 0.00363664)
(0.0111567 0.0100292 0.00476327)
(0.00404478 0.00493926 0.00474183)
(0.00199378 0.00462648 0.00432372)
(0.000740044 0.00498168 0.00377911)
(0.00106641 0.00624767 0.00408801)
(0.00156149 0.00614228 0.00413132)
(0.00284203 0.00600446 0.0045499)
(0.0032163 0.00503337 0.00464445)
(0.00355247 0.00463311 0.0048188)
(0.00345502 0.00374684 0.00476563)
(0.00349161 0.00313997 0.00479845)
(0.00332376 0.00241854 0.0047638)
(0.0032491 0.0019624 0.00479578)
(0.00312795 0.00154373 0.00481463)
(0.00302947 0.00126982 0.00485874)
(0.00292496 0.00105536 0.00490296)
(0.00282673 0.000911177 0.00495371)
(0.00273188 0.000803446 0.00500436)
(0.00264446 0.000727026 0.00505575)
(0.00256589 0.000664662 0.0051082)
(0.00249327 0.00061069 0.0051613)
(0.00242325 0.000558308 0.0052132)
(0.00235459 0.000503908 0.00526257)
(0.00228879 0.000445207 0.00530999)
(0.00222816 0.000373418 0.00535845)
(0.00217216 0.000278767 0.00540972)
(0.00212222 0.000137134 0.00546652)
(0.00209018 -6.08165e-05 0.00553155)
(0.00208087 -0.000348273 0.00560659)
(0.00211375 -0.000725747 0.00568788)
(0.00220285 -0.00122415 0.00577339)
(0.00237494 -0.00180784 0.00585118)
(0.00264265 -0.00247448 0.00590507)
(0.00304631 -0.0031303 0.00590816)
(0.00365213 -0.0037796 0.00585153)
(0.00453854 -0.00438687 0.00571506)
(0.00573713 -0.00512218 0.0055548)
(0.00714474 -0.00608282 0.00548498)
(0.00870771 -0.00744513 0.00553087)
(0.0109997 -0.00972696 0.00603493)
(0.0155672 -0.015319 0.00738086)
(0.0206091 -0.0232794 0.00633981)
(0.0219018 -0.0278922 -0.00083813)
(0.01783 -0.0229743 -0.00455073)
(0.00621405 -0.0219058 -0.00274135)
(0.00284279 -0.0156732 -0.000288805)
(0.011613 -0.0239704 -0.000805078)
(0.0408972 -0.0230202 0.0184157)
(0.0871236 -0.0643394 0.0163433)
(0.131243 -0.0305171 -0.00053258)
(0.132445 -0.0436859 -0.00204892)
(0.0995397 0.0191719 0.0327454)
(0.0904687 -0.186765 0.0834048)
(-0.198137 0.0893043 -0.00942722)
(0.0155327 -0.0166961 0.026636)
(0.204569 -0.242538 0.106006)
(0.110463 0.127188 -0.0322846)
(0.0876648 -0.0127079 0.000726081)
(0.0350914 0.0942244 0.0109298)
(0.0289203 0.0393556 0.0130147)
(-0.0100721 0.0378109 0.0321867)
(-0.0161848 0.0261151 0.0174778)
(-0.0175397 0.0322988 0.00787803)
(-0.0197388 0.0318193 0.00461448)
(-0.0130434 0.0272828 0.00620522)
(-0.00136018 0.023139 0.0076677)
(0.0182072 0.0198242 0.0112434)
(0.0253753 0.0241466 0.0104644)
(0.0187653 0.0387938 0.00849781)
(-0.000853686 0.0473804 0.00285051)
(-0.0217473 0.0421272 0.0182246)
(-0.0343192 0.0338558 0.0283252)
(-0.0472814 0.0231185 0.0180496)
(-0.0492663 0.021766 0.00772088)
(-0.0406807 0.0538196 0.00889671)
(-0.0190287 0.0606732 0.0101221)
(-0.00981898 0.0661476 0.0117544)
(-0.00495232 0.0623218 0.0184116)
(-0.00367905 0.0533236 0.0162754)
(0.00211138 0.0454407 0.00514407)
(0.0152978 0.0461983 -0.00183314)
(0.0189809 0.0466503 -0.00568629)
(0.0192353 0.0498429 -0.00634784)
(0.0181648 0.0511814 -0.00560703)
(0.015645 0.0511214 -0.0015726)
(0.016068 0.0498554 0.00557388)
(0.0192236 0.0406133 0.00897374)
(0.0230289 0.0319865 0.00977133)
(0.0204374 0.0167446 0.0114903)
(0.0165076 0.00783473 0.0106382)
(0.0178685 -0.00417749 0.00943694)
(0.0226052 0.0230109 0.000414718)
(0.0261591 0.0243615 0.0021683)
(0.0218602 0.0202145 0.000839116)
(0.0226788 0.0212193 0.00174648)
(0.0173433 0.0159923 0.00252797)
(0.0173648 0.0114804 0.00365526)
(0.00623019 0.00559039 0.00319841)
(0.00281528 0.00426955 0.00306068)
(-0.000300959 0.00320924 0.00292559)
(0.000267418 0.00493372 0.00337581)
(0.000962717 0.00446842 0.00347994)
(0.00214214 0.00447949 0.00415219)
(0.00218605 0.00396714 0.00432726)
(0.00245362 0.00408212 0.0046433)
(0.00233207 0.00355844 0.00459392)
(0.00237578 0.00323367 0.00465281)
(0.00217045 0.00260129 0.00459243)
(0.00208419 0.00217642 0.00462783)
(0.00191854 0.00172081 0.00463992)
(0.00179123 0.00141697 0.00469354)
(0.00165848 0.00116713 0.00474782)
(0.0015448 0.00100056 0.00481607)
(0.00144163 0.000879152 0.00488111)
(0.00135032 0.000800322 0.0049413)
(0.0012668 0.000743663 0.00499876)
(0.00118931 0.000696644 0.00505503)
(0.00111815 0.000650458 0.00510922)
(0.0010505 0.000600598 0.00515852)
(0.000987009 0.000542039 0.00520356)
(0.000935178 0.000464952 0.00524942)
(0.000901824 0.000361709 0.0052996)
(0.000892796 0.000213662 0.00535497)
(0.00091637 1.56841e-05 0.00541538)
(0.000981815 -0.000251949 0.0054805)
(0.00109698 -0.000567315 0.0055404)
(0.00126713 -0.000927128 0.00558167)
(0.00150561 -0.00127288 0.00557862)
(0.00181688 -0.00158324 0.00550714)
(0.00223895 -0.00176881 0.00534725)
(0.00286022 -0.0018491 0.00510956)
(0.00383287 -0.00182919 0.004859)
(0.00532388 -0.00190798 0.00475382)
(0.00716694 -0.00231924 0.00494779)
(0.0091564 -0.00322841 0.00561398)
(0.0122655 -0.00559676 0.00696592)
(0.0180478 -0.011124 0.00825779)
(0.0233524 -0.0172355 0.00665601)
(0.0257653 -0.0192879 -0.000386689)
(0.0208778 -0.01084 -0.00308327)
(0.00824799 -0.0133171 -0.00362923)
(0.00410633 -0.00712477 -0.00017206)
(0.0166386 -0.0224377 0.0101275)
(0.0471081 -0.0194223 0.0354072)
(0.0837075 -0.0319264 0.0173348)
(0.111279 0.0648855 -0.0157442)
(0.104852 0.115093 -0.0156016)
(0.0408141 0.186835 0.00595196)
(-0.093298 0.11896 0.0523434)
(-0.242712 0.3573 0.00909365)
(0.0223592 -0.105767 0.0418234)
(0.198353 -0.226154 0.140888)
(0.09005 0.128174 -0.0420817)
(0.0809556 0.00252428 -0.0173879)
(0.029428 0.100061 -0.000165184)
(0.0123028 0.0717437 0.0163007)
(0.00132261 0.0752346 0.0133191)
(-0.00154065 0.0596292 0.0101739)
(-0.007955 0.0552684 0.0133011)
(-0.00220248 0.043979 0.0163045)
(-0.00498186 0.0299801 0.0198102)
(-0.00642394 0.0216974 0.0192435)
(-0.00906558 0.0186003 0.0178602)
(-0.0174793 0.0363865 -0.00364673)
(-0.0175342 0.0605245 0.00231591)
(-0.0165166 0.0642992 0.0117867)
(-0.028545 0.0558277 0.0210911)
(-0.0461046 0.0473455 0.0255246)
(-0.0556143 0.0447369 0.024307)
(-0.0584328 0.050331 0.0247394)
(-0.039656 0.0694791 0.0115373)
(-0.0248144 0.072433 0.00454807)
(-0.0192504 0.0793548 0.00492818)
(-0.0151732 0.0775956 0.00679399)
(-0.0106536 0.0707329 0.000801565)
(0.00231987 0.0640885 -0.00762993)
(0.0193339 0.063512 0.001241)
(0.0220745 0.0605719 0.00529865)
(0.022731 0.0581802 0.00380715)
(0.0188448 0.0543405 0.00143359)
(0.0157377 0.0505642 0.0022678)
(0.0163531 0.0487651 0.00667872)
(0.019948 0.0383104 0.00737262)
(0.0231005 0.029773 0.00668215)
(0.0198333 0.0145975 0.00903815)
(0.018257 0.00820511 0.00795584)
(0.0197011 -0.0132774 -0.000481155)
(0.0229253 0.0213619 4.34568e-05)
(0.0274014 0.0244184 0.00203819)
(0.0234204 0.0177826 -0.000429105)
(0.0253984 0.019637 -1.89875e-05)
(0.0211384 0.0140914 0.000415897)
(0.0216796 0.0123682 0.00142811)
(0.0096604 0.00670532 0.000843855)
(0.00623098 0.00549897 0.00193176)
(-9.14371e-05 0.00142446 0.00212317)
(-7.60638e-05 0.0032274 0.00277537)
(0.000112622 0.00213668 0.00267417)
(0.00089609 0.00262253 0.0036737)
(0.000367032 0.00249574 0.00372119)
(0.000484702 0.00313596 0.00411642)
(0.000358379 0.00296833 0.00399027)
(0.000409534 0.00290816 0.00412942)
(0.000153232 0.00246624 0.00406767)
(1.67585e-05 0.0021632 0.00411364)
(-0.000234762 0.00176108 0.00409018)
(-0.00042975 0.00148549 0.00411136)
(-0.000634077 0.00123265 0.00412393)
(-0.000811954 0.00106161 0.00414783)
(-0.00096932 0.000934525 0.00417264)
(-0.00109775 0.000844517 0.00420587)
(-0.00120877 0.000773571 0.00424307)
(-0.00130124 0.000719672 0.00427875)
(-0.00137788 0.00067332 0.0043101)
(-0.00144018 0.000626499 0.00433823)
(-0.00148675 0.000569874 0.00436499)
(-0.00151382 0.000492792 0.00439121)
(-0.00151755 0.000393092 0.00441982)
(-0.0014945 0.000261309 0.00445398)
(-0.00143793 0.000104972 0.00449372)
(-0.00134128 -7.85795e-05 0.00453263)
(-0.00119699 -0.000254313 0.00455529)
(-0.00100428 -0.000411681 0.00453688)
(-0.000753407 -0.000490506 0.00444654)
(-0.000444632 -0.000498004 0.00425501)
(-1.59227e-05 -0.000397695 0.00397075)
(0.000661204 -0.00023096 0.00364744)
(0.00178414 -1.68243e-05 0.00341983)
(0.00346313 0.000132576 0.00348376)
(0.00537524 0.000149012 0.00398673)
(0.00761581 -3.93364e-05 0.00515703)
(0.0117338 -0.00152064 0.00664773)
(0.0189363 -0.00530995 0.00695157)
(0.0240616 -0.006776 0.00509937)
(0.0252538 -0.00249175 0.00201378)
(0.0240522 0.0114841 0.00164114)
(0.0140821 0.00567688 0.0026359)
(0.0127459 0.00556491 0.00690462)
(0.0256666 -0.0223034 0.0210773)
(0.0396628 -0.00965016 0.037329)
(0.0595912 -0.00856272 0.0269271)
(0.0856245 0.0989475 0.00331346)
(0.0850072 0.148905 -0.00923263)
(0.0214815 0.220011 -0.00603956)
(-0.0016607 0.175427 0.0109525)
(-0.0514873 0.37772 -0.0197997)
(0.045183 -0.114133 0.052475)
(0.204019 -0.217828 0.156146)
(0.086484 0.096696 -0.0207287)
(0.0865038 0.0258746 -0.014908)
(0.0425538 0.101824 -0.00508635)
(0.0265456 0.0757395 0.0196508)
(0.010383 0.0724481 0.0227617)
(0.000930167 0.0593123 0.0290044)
(-0.00917853 0.0504371 0.0258561)
(-0.0138829 0.0432093 0.0234438)
(-0.0193983 0.0369362 0.0117674)
(-0.0282082 0.0415918 -0.00274281)
(-0.03033 0.0582996 0.00426664)
(-0.0280398 0.0749244 0.0203983)
(-0.0261778 0.0839508 0.03076)
(-0.0345294 0.0906169 0.0324647)
(-0.0442057 0.0862187 0.0379574)
(-0.0502063 0.0758616 0.0416705)
(-0.056366 0.0652875 0.0359776)
(-0.0544366 0.066767 0.0139925)
(-0.0360943 0.0773469 -0.00815982)
(-0.0257499 0.0890844 -0.0181704)
(-0.0209946 0.0980757 -0.010539)
(-0.0165752 0.0930707 -0.000490504)
(-0.00500435 0.0797067 0.000536363)
(0.0120533 0.071027 0.00587794)
(0.0174158 0.0710563 0.0124496)
(0.0208523 0.0657273 0.0110613)
(0.0228444 0.0662435 0.00891209)
(0.0210637 0.0613244 0.00743271)
(0.0162035 0.0548302 0.00291818)
(0.0163149 0.0511881 1.93395e-05)
(0.0212246 0.038556 -0.00227888)
(0.0258058 0.0291944 -0.00567701)
(0.023829 0.0118498 -0.0106944)
(0.0302362 0.00332659 -0.00837787)
(0.0254501 -0.0153056 -0.0183188)
(0.0224091 0.0217767 0.00377471)
(0.0285168 0.0274027 0.00359571)
(0.0249055 0.0178257 -0.000463094)
(0.0280551 0.0200362 0.0004004)
(0.023667 0.0102211 -0.000427248)
(0.0241454 0.0109303 0.000729784)
(0.0129748 0.00418169 0.000283123)
(0.0101983 0.00575678 0.00153866)
(0.00173169 -3.50298e-05 0.00172094)
(0.000464805 0.00205956 0.00278853)
(8.8101e-05 -0.000430348 0.00259039)
(0.000267137 0.000575204 0.00362532)
(-0.000567537 0.00062656 0.00342944)
(-0.000387207 0.00201442 0.00395934)
(-0.000379729 0.00216844 0.00385262)
(-0.00033622 0.00239456 0.00408947)
(-0.000618615 0.00213668 0.00403598)
(-0.000790821 0.0020152 0.0040794)
(-0.00108253 0.00173351 0.00398243)
(-0.0012866 0.00155662 0.0039295)
(-0.00149988 0.00136066 0.00384928)
(-0.00166654 0.00123087 0.00379594)
(-0.00180367 0.00112801 0.00375632)
(-0.0019059 0.00106158 0.00373041)
(-0.00197835 0.00101493 0.00371358)
(-0.00203056 0.000985321 0.00370149)
(-0.00206591 0.000964824 0.00369282)
(-0.00208493 0.000944336 0.00368828)
(-0.00208615 0.000913035 0.00368956)
(-0.00206505 0.000861917 0.00369799)
(-0.00201883 0.000795841 0.0037147)
(-0.00193987 0.000717957 0.00374228)
(-0.0018235 0.000644111 0.00377968)
(-0.00166929 0.000586149 0.00381708)
(-0.00147127 0.000583908 0.00383573)
(-0.00122595 0.000646611 0.00380796)
(-0.000914693 0.000799248 0.00370332)
(-0.000537303 0.000994888 0.00350844)
(-3.92643e-05 0.00122114 0.0032503)
(0.000699408 0.0013906 0.00301094)
(0.00174198 0.00157895 0.00291853)
(0.00304787 0.00187364 0.00313004)
(0.00426871 0.00247364 0.0037488)
(0.00595923 0.00320454 0.00488591)
(0.0101552 0.00338715 0.00561572)
(0.0156947 0.00472774 0.00418189)
(0.017264 0.012166 0.0023586)
(0.0178561 0.0249938 0.00529817)
(0.0208154 0.030438 0.0071405)
(0.0220778 0.0225229 0.00934123)
(0.0303481 0.00985611 0.0134435)
(0.0211294 -0.0255404 0.015249)
(0.0198469 -0.0115622 0.0268078)
(0.0337173 -0.0242717 0.0182902)
(0.049039 0.0848979 0.00745217)
(0.0351363 0.0555263 0.0128243)
(-0.057238 0.215171 0.0760155)
(-0.0793006 -0.187603 0.0522437)
(0.0345456 0.30966 -0.0329321)
(0.0651363 -0.0947621 0.0730878)
(0.17929 -0.174567 0.176946)
(0.0341611 0.107208 -0.00973637)
(0.0507386 0.0603655 -0.0198559)
(0.0178873 0.120159 -0.0143681)
(-0.00980977 0.109428 0.00389351)
(-0.0200233 0.10128 0.00244004)
(-0.0235469 0.0955425 0.00917606)
(-0.0280586 0.0928203 0.00854207)
(-0.034505 0.0978926 0.0147268)
(-0.034238 0.102754 0.0266564)
(-0.0327502 0.1066 0.035248)
(-0.03469 0.11453 0.0355142)
(-0.0351746 0.115279 0.0347583)
(-0.0365522 0.108957 0.0347419)
(-0.0410643 0.0974546 0.035637)
(-0.0435504 0.084469 0.0392174)
(-0.0466279 0.0679903 0.0390596)
(-0.0486558 0.0583295 0.025972)
(-0.0437715 0.050271 -0.00267286)
(-0.0292663 0.0531244 -0.0299881)
(-0.0209807 0.0726898 -0.0330053)
(-0.0142085 0.0864345 -0.00940811)
(-0.000689679 0.0800302 0.00446131)
(0.0115148 0.076392 0.00463743)
(0.0152603 0.0818108 0.00556152)
(0.0146896 0.0900784 0.00766776)
(0.0189121 0.0924131 0.0121243)
(0.0242646 0.096758 0.0169977)
(0.0278029 0.0896872 0.0217212)
(0.0280511 0.0829583 0.0180878)
(0.0292177 0.0659971 0.012453)
(0.0366531 0.0553731 0.0113952)
(0.0442349 0.037566 0.0046766)
(0.0427242 0.0184416 -0.0102255)
(0.0510799 0.000962139 -0.018368)
(0.0300031 -0.01234 -0.0252385)
(0.018831 0.024124 0.00558816)
(0.0270106 0.0316612 0.00644512)
(0.0245309 0.0186445 0.00136285)
(0.0287607 0.0227492 0.00528772)
(0.0243845 0.00545387 0.00308344)
(0.0244532 0.00826742 0.00433709)
(0.0128921 -0.000731333 0.0025826)
(0.011696 0.00421689 0.00244175)
(0.00286218 -0.00213115 0.00187388)
(0.000777673 0.00182568 0.00263516)
(-9.09972e-05 -0.00210897 0.00271198)
(-0.00161935 -0.00029082 0.00352995)
(-0.00333114 -0.000571197 0.00324904)
(-0.0034206 0.00110982 0.00404056)
(-0.00319126 0.00120093 0.00428784)
(-0.00298957 0.00164189 0.00475467)
(-0.00335385 0.00157892 0.00473586)
(-0.0035897 0.00175322 0.00477169)
(-0.00397688 0.00167945 0.00462672)
(-0.00422524 0.00168178 0.00454513)
(-0.00448991 0.00159995 0.00442808)
(-0.00468771 0.00155511 0.00435039)
(-0.00485124 0.00150923 0.00429225)
(-0.00496132 0.00148481 0.0042539)
(-0.00503564 0.00146877 0.00421851)
(-0.00508586 0.00146129 0.00418052)
(-0.00510667 0.00146492 0.00415202)
(-0.0050953 0.00146818 0.00414077)
(-0.00505927 0.0014614 0.00414591)
(-0.00499821 0.00144879 0.00416408)
(-0.00491279 0.00143879 0.00419426)
(-0.00480247 0.00144177 0.00423299)
(-0.00466884 0.00147754 0.00427696)
(-0.00450665 0.00156866 0.00432023)
(-0.00431005 0.00174629 0.00435121)
(-0.0040513 0.00199768 0.00435528)
(-0.0036926 0.00229612 0.0043067)
(-0.00319536 0.00254623 0.00421911)
(-0.0025572 0.00267953 0.0041162)
(-0.00183191 0.00265354 0.00405173)
(-0.00118702 0.00262825 0.00407247)
(-0.000772044 0.0029432 0.00417268)
(-0.000576142 0.00406891 0.00429687)
(0.000537295 0.00624141 0.00459765)
(0.00382938 0.00958446 0.00409938)
(0.00748412 0.0152297 0.00196108)
(0.00947139 0.0220592 0.00075847)
(0.0138929 0.0277757 0.00308963)
(0.0262251 0.0224515 0.00727489)
(0.042442 0.00525038 0.00988599)
(0.0624869 -0.00863106 0.00632611)
(0.049714 -0.00358593 -0.00987155)
(0.0239588 0.0369642 -0.0040232)
(-0.0115439 0.070623 -0.0166886)
(0.0125918 0.132633 -0.00536155)
(0.0520229 0.0991837 0.0358249)
(0.128127 0.211098 0.0724894)
(0.0251141 -0.203949 -0.0457901)
(-0.0572024 0.267973 0.113091)
(0.0493117 -0.105933 0.0711406)
(0.109573 -0.0541122 0.143337)
(0.0233369 0.1054 0.0209544)
(0.0330433 0.0881991 0.0128981)
(0.0165422 0.132248 0.00423099)
(-0.00715576 0.128267 0.00795422)
(-0.0209394 0.110288 0.00706179)
(-0.0253442 0.10605 0.00780158)
(-0.030997 0.109382 0.014185)
(-0.0325703 0.110556 0.0195276)
(-0.0305946 0.109712 0.0264642)
(-0.0294182 0.107054 0.0308709)
(-0.0271098 0.100528 0.0277911)
(-0.0220037 0.0886884 0.019559)
(-0.0194964 0.0775207 0.0145744)
(-0.0218535 0.0670706 0.0110175)
(-0.0210246 0.0586184 0.00857564)
(-0.0213182 0.0517969 0.00110175)
(-0.0225326 0.0499861 -0.0203555)
(-0.0216634 0.054342 -0.0425558)
(-0.0259113 0.0686944 -0.0491931)
(-0.0230456 0.0855677 -0.0360847)
(-0.0165157 0.0948343 -0.01765)
(-0.0147035 0.0959342 -0.00865321)
(-0.0140591 0.103405 -0.00569753)
(-0.00773315 0.11734 0.00196199)
(0.000478024 0.122352 0.0113502)
(0.0104503 0.117476 0.0159154)
(0.0219968 0.118915 0.022441)
(0.0300415 0.107369 0.0290325)
(0.0354613 0.100905 0.0307258)
(0.0430161 0.0829549 0.0314569)
(0.0553302 0.075738 0.0338156)
(0.0710925 0.0589865 0.0323923)
(0.0854304 0.043662 0.0236378)
(0.0879899 0.0196358 6.50376e-05)
(0.0372958 -0.00380759 -0.0384599)
(0.0153403 0.0227225 0.00618657)
(0.0234737 0.0348992 0.00815648)
(0.0189179 0.0174177 0.00323295)
(0.0259643 0.0249866 0.00853816)
(0.0231136 0.00296348 0.00667812)
(0.0208754 0.00703223 0.00665309)
(0.0111364 -0.00265606 0.00470952)
(0.0096664 0.0032023 0.00521306)
(0.00175842 -0.00350728 0.00389864)
(6.61758e-05 0.0016856 0.00349875)
(-0.000569717 -0.00284369 0.00371569)
(-0.00173351 -3.31998e-05 0.00441103)
(-0.00319265 -0.000912726 0.00470502)
(-0.00332096 0.000458853 0.00560712)
(-0.00324775 -6.39494e-06 0.00641994)
(-0.00330882 0.000885571 0.00694578)
(-0.00378399 0.000839544 0.00713285)
(-0.00391836 0.00141026 0.00725816)
(-0.00418099 0.00149255 0.00718923)
(-0.00429093 0.001731 0.00712319)
(-0.00444119 0.00178974 0.00700224)
(-0.00452901 0.0018569 0.00690451)
(-0.00459183 0.00188826 0.00681093)
(-0.00460905 0.00193119 0.0067375)
(-0.00459019 0.00197032 0.00666826)
(-0.00454417 0.00200259 0.00661874)
(-0.00447999 0.00202629 0.00658575)
(-0.00439691 0.00204309 0.00656978)
(-0.00429978 0.00205554 0.00656789)
(-0.00418852 0.00207224 0.00657608)
(-0.00406772 0.00210895 0.00659058)
(-0.00392918 0.00217983 0.00660647)
(-0.00377135 0.00231416 0.0066193)
(-0.00360083 0.00251281 0.00662792)
(-0.00339928 0.00278292 0.00663269)
(-0.00312246 0.00308659 0.00663893)
(-0.00269821 0.00338662 0.0066567)
(-0.00209757 0.00357937 0.00669746)
(-0.00133714 0.0036387 0.00677216)
(-0.000575431 0.00359984 0.00688951)
(-0.000183487 0.00369247 0.00700447)
(-0.000466692 0.00444281 0.00703224)
(-0.00184012 0.00626736 0.00688617)
(-0.00293974 0.00919954 0.0065033)
(-0.0015992 0.0128415 0.00507967)
(0.00204794 0.0153284 0.00197978)
(0.00621715 0.016497 -0.00115274)
(0.0147028 0.0185474 -0.00111803)
(0.0303964 0.019997 0.00242204)
(0.0394724 0.0287283 -0.00729127)
(0.0268012 0.0926864 -0.0342072)
(-0.0244898 0.222718 -0.0273746)
(-0.0270666 0.274926 0.0234677)
(0.037494 0.277237 0.0641422)
(0.0941647 0.257389 0.0499246)
(0.123606 0.239387 0.0801226)
(0.14713 0.236139 0.0776646)
(0.0782938 0.126629 0.0988536)
(-0.0435014 0.312276 0.226664)
(-0.0086748 -0.143268 0.0328403)
(-0.00207625 0.0101804 0.101206)
(0.00630612 0.157909 0.00983978)
(0.0131335 0.175648 0.00870343)
(0.0168885 0.200619 0.00490345)
(0.0204859 0.198224 0.00516273)
(0.0164906 0.171587 0.00159404)
(0.00264057 0.158466 -0.00195488)
(-0.00323261 0.150608 -0.00210344)
(-0.012123 0.140036 -0.00661513)
(-0.0182581 0.139677 -0.0135287)
(-0.0183893 0.142054 -0.0202126)
(-0.0160275 0.1513 -0.0248047)
(-0.0107054 0.166442 -0.0293397)
(-0.00852148 0.185668 -0.028103)
(-0.00957667 0.197464 -0.0228524)
(-0.00838098 0.200985 -0.0213825)
(-0.0084266 0.20024 -0.0206562)
(-0.0110632 0.19367 -0.0228011)
(-0.0150968 0.183839 -0.0228423)
(-0.0175269 0.172256 -0.0120422)
(-0.0173979 0.168728 0.00482723)
(-0.0127163 0.160652 0.0127765)
(-0.00895563 0.152027 0.0128973)
(-0.00475736 0.147543 0.0113787)
(0.000901817 0.139246 0.0112888)
(0.00838216 0.124619 0.00904115)
(0.0116613 0.114906 0.0141048)
(0.0248908 0.104779 0.0144132)
(0.033007 0.0915936 0.0138754)
(0.0417652 0.0867843 0.0231755)
(0.0486656 0.075226 0.0268028)
(0.0608149 0.0753171 0.0342122)
(0.0756572 0.0651227 0.0386594)
(0.0941499 0.0565257 0.0375058)
(0.111938 0.0413572 0.0286286)
(0.0768413 0.00945533 -0.0321849)
(0.00210637 0.0188802 -0.0109937)
(0.0197082 0.0368599 0.00193026)
(0.0116623 0.0157454 -0.0016062)
(0.0208818 0.0269085 0.00625872)
(0.0185728 0.00190677 0.00537215)
(0.0144171 0.00659923 0.00200441)
(0.0063005 -0.00211109 0.00263531)
(0.00543811 0.0038058 0.00371266)
(-0.00138596 -0.000756667 0.00153494)
(-0.00181493 0.00334578 0.000398495)
(-0.00282129 -0.00138817 0.0002402)
(-0.00490461 0.00119703 0.000406216)
(-0.00675857 -0.00115079 0.00141349)
(-0.00662334 0.000241514 0.00216557)
(-0.00745516 -0.000539866 0.00313244)
(-0.00740757 0.000664465 0.00356331)
(-0.00807998 0.000514752 0.00393018)
(-0.00821051 0.00124803 0.00414048)
(-0.00858329 0.00135732 0.00425867)
(-0.00875304 0.00171912 0.0043362)
(-0.00895731 0.00185997 0.00433722)
(-0.00909828 0.00200921 0.00433615)
(-0.00921212 0.00209257 0.00431868)
(-0.00927031 0.00215306 0.00431506)
(-0.00924818 0.00221038 0.00432288)
(-0.00918209 0.00226997 0.0043373)
(-0.0090886 0.00232516 0.00435476)
(-0.00897208 0.00238038 0.00437396)
(-0.00884411 0.00243228 0.00438974)
(-0.00871225 0.00248906 0.00440186)
(-0.00858733 0.00256555 0.00440813)
(-0.00846821 0.00266795 0.00440419)
(-0.00833703 0.00282842 0.00438953)
(-0.00817205 0.00303657 0.00437333)
(-0.00793523 0.0032829 0.00436533)
(-0.00757392 0.0035318 0.00437607)
(-0.00703509 0.0037729 0.00441761)
(-0.00636717 0.00398583 0.00446999)
(-0.00573454 0.00422947 0.00451751)
(-0.00541733 0.00462549 0.00453859)
(-0.005892 0.00535437 0.00444753)
(-0.00740693 0.00653325 0.00411713)
(-0.00942628 0.00825284 0.00343542)
(-0.0101326 0.00967629 0.00280959)
(-0.00738287 0.0102693 0.00234819)
(-0.00086887 0.00820116 0.00138701)
(0.00519639 0.00455799 0.00046622)
(0.0101252 0.00450829 -0.00235106)
(0.0123263 0.0167052 -0.00517715)
(-0.0100094 0.0422315 -0.0124425)
(-0.0480519 0.118167 -0.0230011)
(-0.0494427 0.222359 -0.00219338)
(-0.0101077 0.254918 0.0619503)
(0.0665637 0.246019 0.0785869)
(0.117994 0.266639 0.0499559)
(0.154218 0.273727 0.0703669)
(0.164043 0.282719 0.0694613)
(0.147453 0.219078 0.0906779)
(0.13123 0.456058 0.121132)
(-0.0405042 -0.181851 0.040716)
(-0.100924 -0.0909338 0.10187)
(-0.0392353 0.121278 -0.0012321)
(-0.0416945 0.0752579 0.0182934)
(-0.0041352 0.10898 0.00936465)
(0.010867 0.0978591 0.000865581)
(0.0182489 0.0994648 0.000332791)
(0.0185999 0.104906 0.0195073)
(0.0173514 0.109195 0.0252365)
(0.0104509 0.104966 0.0239626)
(0.00451308 0.0950596 0.00621053)
(-0.00257199 0.0840719 -0.0199518)
(-0.00807207 0.0815986 -0.0271602)
(-0.0140433 0.0816512 -0.0231908)
(-0.0134773 0.0807111 -0.00997014)
(-0.00624359 0.081109 0.00531972)
(-0.000638622 0.0806862 0.0103926)
(0.00295265 0.0827134 0.00982253)
(0.00225945 0.0856752 -0.000607022)
(-0.0080382 0.0910803 -0.0180438)
(-0.0215877 0.10371 -0.0179562)
(-0.0287666 0.106086 -0.00490726)
(-0.0274526 0.0894773 0.00985311)