/*--------------------------------*- C++ -*----------------------------------*\
| =========                 |                                                 |
| \\      /  F ield         | OpenFOAM: The Open Source CFD Toolbox           |
|  \\    /   O peration     | Version:  2.3.0                                 |
|   \\  /    A nd           | Web:      www.OpenFOAM.org                      |
|    \\/     M anipulation  |                                                 |
\*---------------------------------------------------------------------------*/
FoamFile
{
    version     2.0;
    format      ascii;
    class       volVectorField;
    location    "18";
    object      U.airMean;
}
// * * * * * * * * * * * * * * * * * * * * * * * * * * * * * * * * * * * * * //

dimensions      [0 1 -1 0 0 0 0];

internalField   nonuniform List<vector> 
6144
(
(0.00754241 0.0202835 -0.000697142)
(0.00760383 0.00469986 -0.000793272)
(0.00407368 0.00247536 -0.00157223)
(0.00415345 0.000393622 -0.0016053)
(0.00292102 -0.00107892 -0.00136698)
(0.00304331 -0.000657277 -0.00129614)
(0.00268882 -0.000949257 -0.00141741)
(0.00287572 -0.000163525 -0.00150842)
(0.00281586 0.000234622 -0.00182048)
(0.00296497 0.00112589 -0.00184743)
(0.00300574 0.00158086 -0.00179319)
(0.00316412 0.00194527 -0.00165918)
(0.00324919 0.00181797 -0.00163772)
(0.00335005 0.00163549 -0.00162892)
(0.00337583 0.00130803 -0.0017082)
(0.00340813 0.00108212 -0.00176527)
(0.00341433 0.000846576 -0.00184093)
(0.00342419 0.000705738 -0.00188692)
(0.00342664 0.000571548 -0.00193286)
(0.0034295 0.000497448 -0.00195977)
(0.00342918 0.00042946 -0.00198317)
(0.00342898 0.000391906 -0.00199584)
(0.00342728 0.000360737 -0.00200563)
(0.00342549 0.000340745 -0.00200999)
(0.00342279 0.000326548 -0.00201248)
(0.00341997 0.000316922 -0.00201261)
(0.00341661 0.000311626 -0.0020116)
(0.0034136 0.000307687 -0.00200959)
(0.00341051 0.000305307 -0.00200677)
(0.00340694 0.000302654 -0.00200367)
(0.00340411 0.000306919 -0.00200035)
(0.00339926 0.000294653 -0.00199696)
(0.0033993 0.000322033 -0.00199213)
(0.00338908 0.000266789 -0.00199027)
(0.00339733 0.000367452 -0.00198019)
(0.00337776 0.000191706 -0.00198278)
(0.00339606 0.00046585 -0.00196279)
(0.0033684 2.65663e-05 -0.00197305)
(0.00339042 0.000644154 -0.00193587)
(0.00336156 -0.000274258 -0.00195406)
(0.00338011 0.000920693 -0.00188622)
(0.00336139 -0.000781434 -0.00190787)
(0.00336377 0.00126272 -0.00180211)
(0.00337592 -0.00160523 -0.00182926)
(0.00332435 0.00163767 -0.0017286)
(0.00336347 -0.00281916 -0.00174575)
(0.00319923 0.00233656 -0.00182585)
(0.00318776 -0.00403551 -0.00176513)
(0.00305314 0.00435228 -0.00219091)
(0.00306786 -0.0046655 -0.00211735)
(0.00429397 0.00869986 -0.00270743)
(0.00309296 -0.008974 -0.00265164)
(0.00447139 0.0163543 -0.00326905)
(0.0041596 -0.0129259 -0.00479847)
(0.00517511 0.038109 -0.00633667)
(0.00352074 -0.030966 -0.0104485)
(0.0142073 0.0656828 -0.00564822)
(0.0119715 -0.0575585 -0.0234467)
(-0.03818 0.122817 -0.0799975)
(0.0420578 0.0321909 -0.109714)
(0.0829725 0.334659 -0.0027336)
(0.041471 0.382143 -0.00169672)
(0.0191637 -0.0395924 0.00121393)
(0.0302936 -0.0986598 0.00108742)
(0.0250504 -0.116547 0.00190502)
(0.0158436 -0.112566 0.00425183)
(0.0104226 -0.122847 0.00513453)
(0.00659384 -0.119053 0.00494365)
(0.00405837 -0.121988 0.00426471)
(0.00206777 -0.116154 0.00341518)
(0.000668977 -0.115304 0.00254513)
(-0.000179295 -0.108753 0.00174635)
(-0.000471697 -0.105751 0.000986049)
(-0.000458799 -0.0998375 0.000291368)
(-0.000289966 -0.0961686 -0.000355057)
(-9.87003e-05 -0.0910106 -0.000936821)
(0.000102476 -0.0871699 -0.00147849)
(0.000321422 -0.0826584 -0.00195443)
(0.000548852 -0.0785193 -0.0023695)
(0.000760693 -0.0744475 -0.00270466)
(0.000901058 -0.0700396 -0.00297641)
(0.000958522 -0.0651331 -0.0032157)
(0.000901231 -0.059766 -0.00342235)
(0.000740806 -0.0534134 -0.00358953)
(0.000449027 -0.0463956 -0.00378856)
(9.17455e-05 -0.038483 -0.00391125)
(-0.000434194 -0.0297556 -0.00414005)
(-0.00105928 -0.0199054 -0.00434686)
(-0.00170749 -0.00916308 -0.00448487)
(-0.00172985 0.00225992 -0.00403065)
(0.000544824 0.0116932 -0.00387673)
(0.00332852 0.0174244 -0.00600378)
(0.00431971 0.0218911 -0.00644865)
(0.0045596 0.0238287 -0.00402568)
(0.00492318 0.0215819 -2.34462e-05)
(0.00589715 0.017013 0.00325619)
(0.0157223 0.0229891 0.00282256)
(0.0164881 0.0104909 0.00277648)
(0.00916953 0.00723986 0.000944604)
(0.00985254 0.00488246 0.00112021)
(0.0062187 0.00198864 0.0013147)
(0.00657919 0.00224399 0.00130318)
(0.00539491 0.00101219 0.00135018)
(0.00578208 0.00188608 0.0010953)
(0.00550693 0.00183856 0.000874851)
(0.00582802 0.00263942 0.000800883)
(0.00589366 0.0028065 0.000800826)
(0.00633096 0.00302984 0.00100703)
(0.00651105 0.00267782 0.00106339)
(0.00675381 0.0023851 0.00111478)
(0.00677885 0.00193026 0.00102859)
(0.00685051 0.00163805 0.000975892)
(0.00683528 0.00132919 0.000883912)
(0.00684981 0.00114988 0.000837434)
(0.00683458 0.000975741 0.00078419)
(0.00683161 0.000880219 0.00076032)
(0.00681919 0.000791424 0.00073874)
(0.00681107 0.000742676 0.000733135)
(0.00680033 0.000700862 0.000730682)
(0.00679073 0.000675271 0.000735685)
(0.00678003 0.000656636 0.000742805)
(0.00676961 0.000644405 0.000753326)
(0.00675856 0.000638115 0.000765361)
(0.00674836 0.000632399 0.000778776)
(0.0067381 0.000630119 0.000793018)
(0.00672731 0.00062771 0.000807422)
(0.00671834 0.000630575 0.000822241)
(0.00670533 0.00062027 0.000836748)
(0.00670249 0.000645319 0.000853294)
(0.00667872 0.000593726 0.000865126)
(0.00669334 0.000694967 0.000890538)
(0.00664714 0.000509917 0.00089421)
(0.00669058 0.000807637 0.000936962)
(0.00661302 0.000316888 0.00092477)
(0.00668534 0.00101506 0.000995757)
(0.0065818 -4.04658e-05 0.00096665)
(0.00667419 0.00133973 0.00108234)
(0.00657019 -0.000653287 0.00104553)
(0.00666603 0.00176529 0.00120197)
(0.00657828 -0.00165072 0.00116614)
(0.00662565 0.00223405 0.00128698)
(0.00653781 -0.00313473 0.0012612)
(0.0063569 0.00292092 0.00109734)
(0.00613614 -0.00475316 0.00112637)
(0.00565926 0.00453875 0.00028559)
(0.00559964 -0.0053722 0.000545174)
(0.00702335 0.00816639 -0.000595896)
(0.00553775 -0.00633485 -0.000337549)
(0.00538283 0.0162476 -9.70547e-05)
(0.00332893 -0.0101715 -0.000966998)
(0.0145881 0.0409807 0.00146318)
(0.0276119 -0.0415238 -0.00125635)
(-0.0172765 0.039331 0.0066842)
(-0.0143038 -0.0172819 -0.0102046)
(0.0145485 0.189649 -0.00715584)
(0.151383 -0.0079333 -0.0618502)
(0.0873068 0.35038 0.00166122)
(0.000869245 0.435553 0.00828795)
(-0.0243064 -0.0723397 0.0104691)
(-0.00905255 -0.0329713 0.0101597)
(-0.0128688 -0.059939 0.0108238)
(-0.0183888 -0.0699835 0.0125232)
(-0.0189638 -0.082449 0.0117181)
(-0.0185208 -0.0831478 0.0103833)
(-0.0172774 -0.0905234 0.00869521)
(-0.0160371 -0.0886752 0.00699736)
(-0.0145061 -0.0909581 0.00543169)
(-0.0129339 -0.0868847 0.00407678)
(-0.0111689 -0.085923 0.00279327)
(-0.00942505 -0.0817269 0.00163258)
(-0.00765067 -0.0796286 0.000591489)
(-0.00588676 -0.0758506 -0.000246223)
(-0.00405243 -0.0726242 -0.000920421)
(-0.00254022 -0.0684129 -0.00142713)
(-0.00161671 -0.0643202 -0.00180198)
(-0.00122115 -0.0598779 -0.00202866)
(-0.00127349 -0.0552111 -0.00216115)
(-0.00165229 -0.0502861 -0.00217522)
(-0.00224493 -0.0451443 -0.00214218)
(-0.00291315 -0.038979 -0.00207266)
(-0.00359504 -0.0327672 -0.00193414)
(-0.00441571 -0.0262602 -0.001734)
(-0.00531473 -0.0195656 -0.00163572)
(-0.0062707 -0.0127341 -0.0016748)
(-0.00714972 -0.00574743 -0.00203519)
(-0.00682835 0.00196955 -0.00152443)
(-0.00386977 0.00912048 -0.000474244)
(0.000367449 0.0145079 -0.00148247)
(0.003058 0.019245 -0.00172342)
(0.00348912 0.0220511 0.00146457)
(0.00341795 0.019951 0.00600463)
(0.00451966 0.0162976 0.00951944)
(0.0188183 0.0227108 0.00399966)
(0.0208342 0.0131737 0.00395135)
(0.0117676 0.00922762 0.00161268)
(0.0132677 0.00802581 0.00197376)
(0.00756131 0.00394588 0.00208222)
(0.00788515 0.00424587 0.00231713)
(0.00565888 0.00211438 0.00271896)
(0.00614109 0.00302349 0.00261697)
(0.00564246 0.00262883 0.00255017)
(0.00608559 0.00334685 0.00256584)
(0.00608802 0.00318439 0.00256366)
(0.00675734 0.0033663 0.0027633)
(0.00697561 0.0028704 0.00282728)
(0.00729137 0.00259659 0.00290317)
(0.00725871 0.00210006 0.00287232)
(0.00731021 0.00182293 0.00287579)
(0.0072274 0.00149517 0.00284237)
(0.00721011 0.00132017 0.00284121)
(0.00714812 0.00113714 0.0028302)
(0.00711756 0.00104221 0.00283915)
(0.00707484 0.000949222 0.00284612)
(0.00704502 0.000899639 0.00286364)
(0.00701305 0.000856126 0.00288087)
(0.00698612 0.000829863 0.00290239)
(0.00695909 0.000810273 0.00292402)
(0.00693383 0.00079768 0.0029474)
(0.00690924 0.000792236 0.00297071)
(0.00688646 0.00078569 0.00299515)
(0.00686391 0.000784338 0.0030195)
(0.00684207 0.000782889 0.00304387)
(0.00682161 0.000784735 0.00306777)
(0.006798 0.000778772 0.00308988)
(0.00678339 0.000797447 0.00311207)
(0.00675056 0.000758163 0.00313163)
(0.00675723 0.000841145 0.00315855)
(0.00669747 0.000682669 0.00317153)
(0.00674569 0.000946762 0.00320791)
(0.00663716 0.000496571 0.00320877)
(0.00674363 0.00114978 0.00326121)
(0.00657864 0.000138708 0.00324383)
(0.00675886 0.00147993 0.00332733)
(0.0065525 -0.000482577 0.00328391)
(0.0068143 0.00193227 0.00340995)
(0.00657641 -0.00148814 0.0033314)
(0.0068505 0.00252104 0.00346824)
(0.00656579 -0.00297439 0.00335841)
(0.00650577 0.00333669 0.00329611)
(0.00610151 -0.00462081 0.00328343)
(0.00535701 0.00486861 0.00234412)
(0.00560513 -0.00530096 0.0026394)
(0.0062718 0.00857492 0.00140765)
(0.00619453 -0.00507834 0.001904)
(0.00540607 0.0169024 0.00287997)
(0.000917056 -0.0182969 0.00168787)
(0.0229299 0.0334065 0.00490132)
(0.0354126 -0.0496428 0.00133313)
(-0.0489595 0.0714198 0.022001)
(-0.0613632 -0.107782 -0.00526478)
(-0.0533582 0.177479 -0.0355155)
(0.160475 -0.0174558 -0.0381471)
(0.159671 0.30761 -0.0032765)
(0.0674469 0.320501 0.00140617)
(0.0661769 -0.0660367 0.0140374)
(0.0248038 0.00104392 0.0163005)
(0.00220437 -0.0380384 0.0156707)
(-0.00410402 -0.044235 0.0146378)
(-0.00939061 -0.0554274 0.0118417)
(-0.0134245 -0.0553883 0.00921071)
(-0.0152957 -0.0617965 0.00638795)
(-0.0158845 -0.0592214 0.00400867)
(-0.0152107 -0.0607777 0.00189849)
(-0.0131945 -0.0565483 0.000108557)
(-0.0100809 -0.0550321 -0.00153362)
(-0.00762759 -0.0500942 -0.00304321)
(-0.00584259 -0.0464607 -0.00405913)
(-0.00467875 -0.0405895 -0.00488888)
(-0.00366963 -0.0344921 -0.00531547)
(-0.00272537 -0.0278978 -0.00492733)
(-0.00180089 -0.0228816 -0.00401202)
(-0.00122186 -0.0190125 -0.00300167)
(-0.00116528 -0.0165424 -0.00198097)
(-0.00163619 -0.0149389 -0.00109579)
(-0.00253483 -0.0138535 -0.000440331)
(-0.0036467 -0.012572 -1.09443e-05)
(-0.00478437 -0.0108002 0.000177459)
(-0.00591417 -0.00857312 0.00022659)
(-0.00723644 -0.00556058 0.000193722)
(-0.00866869 -0.00210666 -7.24924e-05)
(-0.0102922 0.00172593 -0.000852954)
(-0.0107547 0.00608075 -0.000968113)
(-0.0075831 0.0103778 4.50025e-05)
(-0.00261072 0.0140681 0.000100337)
(0.000279917 0.0178202 0.000987448)
(0.00070394 0.0200787 0.00476388)
(3.38243e-05 0.0190399 0.00919999)
(0.000299868 0.0150693 0.0123399)
(0.0198365 0.0222683 0.00448128)
(0.0239178 0.0150381 0.00464992)
(0.0129236 0.00985877 0.00130193)
(0.0161296 0.0106741 0.00150555)
(0.00923162 0.00552539 0.00118241)
(0.00982317 0.0064263 0.0016499)
(0.00596842 0.00270539 0.00235166)
(0.0061089 0.00371692 0.00252383)
(0.0051099 0.00273588 0.00267619)
(0.00577716 0.00372872 0.00280589)
(0.00563186 0.00329695 0.00287886)
(0.00639209 0.00353696 0.00321289)
(0.00652294 0.00295202 0.00337626)
(0.0068379 0.00278617 0.00351624)
(0.00672639 0.00227809 0.00352249)
(0.00676045 0.00205547 0.00354939)
(0.00663164 0.00170623 0.0035401)
(0.00659663 0.00154529 0.0035573)
(0.00650346 0.00134667 0.00356475)
(0.00645518 0.00125298 0.00358799)
(0.00639177 0.00115193 0.00360791)
(0.00634758 0.00110145 0.00363498)
(0.00630096 0.0010546 0.0036589)
(0.00626293 0.00102805 0.00368617)
(0.0062256 0.00100673 0.00371222)
(0.00619038 0.00099423 0.00373807)
(0.00615657 0.000987353 0.00376285)
(0.00612494 0.000980894 0.00378803)
(0.00609368 0.000979398 0.00381242)
(0.00606382 0.000978322 0.00383627)
(0.00603533 0.00098034 0.00385951)
(0.0060066 0.000977662 0.00388247)
(0.00598414 0.000991064 0.00390564)
(0.00595141 0.000962937 0.00392506)
(0.00594692 0.00102974 0.00394713)
(0.00589324 0.000894322 0.00396064)
(0.00593041 0.00112807 0.00399041)
(0.005832 0.000715956 0.00399174)
(0.00593687 0.00132269 0.0040352)
(0.00577256 0.000359195 0.00401471)
(0.00598398 0.0016477 0.00409109)
(0.00574169 -0.000265395 0.00402659)
(0.00609994 0.00212893 0.00417258)
(0.00574227 -0.00125918 0.00401797)
(0.00625412 0.00280739 0.00426953)
(0.00566585 -0.00267298 0.0039858)
(0.00602922 0.00371634 0.00417727)
(0.00519473 -0.00428469 0.00390373)
(0.00473279 0.00506511 0.00334704)
(0.00468381 -0.00601858 0.00340032)
(0.00512225 0.00811568 0.00261394)
(0.00577351 -0.00899853 0.00320114)
(0.00679332 0.0131518 0.00515231)
(0.000557769 -0.0230544 0.0004435)
(0.0220452 0.0258121 0.0100304)
(0.0242734 -0.0362463 0.00406549)
(-0.00430074 0.0949086 0.0214459)
(-0.0706241 -0.131835 0.0190669)
(-0.0634651 0.216014 -0.0900464)
(0.180824 -0.070292 -0.0178889)
(0.194217 0.319831 -0.00281235)
(0.0668223 0.237819 -0.0012039)
(0.0693225 0.0284106 0.0103802)
(-0.0201206 0.0898667 0.0179368)
(-0.0134985 0.00878623 0.0203007)
(-0.0163512 0.0102549 0.0130584)
(-0.0185231 -0.00907609 0.00665715)
(-0.0188729 -0.0108808 0.00174921)
(-0.0171808 -0.0165976 -0.00185355)
(-0.0151139 -0.0124237 -0.00476825)
(-0.0132534 -0.0108469 -0.00756904)
(-0.0115492 -0.000910212 -0.0094969)
(-0.00911291 0.00864966 -0.010106)
(-0.00672144 0.0188672 -0.00877201)
(-0.00460571 0.024564 -0.00736027)
(-0.00269307 0.0294946 -0.00593669)
(-0.000714744 0.0318087 -0.00440116)
(0.00103967 0.0326556 -0.00295217)
(0.00221861 0.031761 -0.00175366)
(0.00258756 0.0296655 -0.000746426)
(0.00211958 0.0267418 -3.26987e-05)
(0.000857939 0.0233216 0.000433018)
(-0.000991413 0.0199321 0.000706838)
(-0.00315188 0.01686 0.000812264)
(-0.00539289 0.0143487 0.000768896)
(-0.00757731 0.0127224 0.00064432)
(-0.00979415 0.0119285 0.00024842)
(-0.0119404 0.0118406 -0.000383084)
(-0.0131428 0.012085 -0.000867466)
(-0.0124074 0.0125574 -0.000687602)
(-0.00932248 0.0132382 0.000119352)
(-0.00529569 0.014722 0.000902546)
(-0.00284532 0.0165983 0.00251673)
(-0.00270649 0.0177701 0.00605595)
(-0.00403505 0.0170457 0.01028)
(-0.0045826 0.0139433 0.0132327)
(0.0191564 0.0218 0.00522637)
(0.0259237 0.0170238 0.0057808)
(0.0131973 0.00967966 0.00120503)
(0.0182481 0.0125534 0.00173131)
(0.0107034 0.00564521 0.000253398)
(0.0122716 0.00786296 0.000630363)
(0.00703234 0.00313695 0.00104963)
(0.0064271 0.00438554 0.0016496)
(0.00425025 0.00222072 0.0020376)
(0.00470485 0.00337639 0.00238298)
(0.00445036 0.00268146 0.00261326)
(0.00519337 0.00317757 0.0031965)
(0.00511108 0.0026318 0.00349317)
(0.0053455 0.0026771 0.00373133)
(0.00510509 0.00222455 0.00377718)
(0.00507939 0.00212009 0.00383575)
(0.00486173 0.00178919 0.00383041)
(0.00477115 0.00167085 0.00385103)
(0.00462242 0.00146744 0.00385637)
(0.00453635 0.00138668 0.0038778)
(0.00443864 0.00128254 0.00389228)
(0.00436947 0.00123679 0.00391468)
(0.00430315 0.0011889 0.00393377)
(0.00424922 0.00116338 0.00395513)
(0.00419929 0.00114157 0.003974)
(0.00415488 0.00113039 0.00399236)
(0.00411472 0.00112202 0.00400889)
(0.00407787 0.00111663 0.00402382)
(0.00404321 0.00111486 0.00403775)
(0.0040108 0.00111398 0.00405074)
(0.00397925 0.00111596 0.00406203)
(0.00394881 0.00111492 0.00407299)
(0.00392036 0.00112583 0.00408247)
(0.00388957 0.00110626 0.00409105)
(0.00387893 0.00116347 0.00410396)
(0.00383447 0.00104624 0.00410831)
(0.00386041 0.00125919 0.00412774)
(0.00377665 0.00088086 0.00411718)
(0.00387287 0.00145408 0.00414879)
(0.00372307 0.00053824 0.00411285)
(0.00394536 0.00178426 0.00418048)
(0.00369753 -6.31458e-05 0.00409107)
(0.0041149 0.00228652 0.00424378)
(0.00371078 -0.000957031 0.00404821)
(0.00434427 0.00298991 0.0043307)
(0.00370215 -0.00202004 0.00399578)
(0.00418072 0.00396116 0.00422504)
(0.00344795 -0.00316172 0.00386697)
(0.00345275 0.00534861 0.00349653)
(0.00339506 -0.00563141 0.00365215)
(0.0050128 0.00701272 0.00352697)
(0.00511654 -0.0109585 0.00612854)
(0.0073955 0.0127634 0.00909162)
(-0.000916035 -0.0207021 0.00737358)
(0.0171094 0.0251886 0.0327211)
(0.01037 -0.0460802 0.0309475)
(0.00333544 0.0591447 0.0638185)
(-0.100328 -0.125263 0.0466499)
(-0.00385491 0.19049 -0.171256)
(0.132708 -0.0807916 0.00203813)
(0.164008 0.461048 0.000349053)
(0.0557594 0.591682 -0.00118748)
(0.0538261 0.521525 0.00524518)
(0.012602 0.539748 0.00414215)
(0.0122329 0.453679 0.00148072)
(-0.00404015 0.389915 -0.00295662)
(-0.00572873 0.385323 -0.00694644)
(-0.00808376 0.388304 -0.0085498)
(-0.00850054 0.395482 -0.00993502)
(-0.00892056 0.406904 -0.00948309)
(-0.00800162 0.414815 -0.00840217)
(-0.00632955 0.421149 -0.00647464)
(-0.00357048 0.416255 -0.00481566)
(-0.000977523 0.409395 -0.00298979)
(0.00140177 0.394621 -0.00131206)
(0.00312573 0.368919 7.25581e-05)
(0.00466262 0.326306 0.00127012)
(0.00581794 0.272378 0.00206927)
(0.00656333 0.221255 0.00250918)
(0.00673738 0.172843 0.0026417)
(0.00617503 0.128257 0.00251211)
(0.00495321 0.0930139 0.00215803)
(0.0030825 0.0679822 0.0016108)
(0.000775565 0.0528113 0.0010134)
(-0.00179967 0.0433826 0.000496358)
(-0.00434414 0.0368847 0.000109814)
(-0.00672723 0.0315289 -0.000231674)
(-0.00878091 0.0267525 -0.000463946)
(-0.0101459 0.0227579 -0.000640962)
(-0.0099748 0.0196285 -0.000294679)
(-0.00808506 0.0177281 0.000745025)
(-0.00610575 0.016779 0.00174717)
(-0.00586006 0.0170852 0.00295929)
(-0.00783096 0.0173195 0.00576468)
(-0.010977 0.0169438 0.00943454)
(-0.0136109 0.0135076 0.0121068)
(0.0167817 0.02093 0.00619523)
(0.0269713 0.0197184 0.00698507)
(0.0123069 0.00909348 0.00177226)
(0.0189842 0.014097 0.00312314)
(0.0114501 0.0044668 0.000762071)
(0.0137788 0.00845083 0.000490972)
(0.00831289 0.00275566 4.17219e-05)
(0.00732578 0.00496248 0.000644699)
(0.00423335 0.00177886 0.00124139)
(0.00391798 0.00290427 0.00180735)
(0.00312699 0.00155248 0.00219352)
(0.00374521 0.00227592 0.00301455)
(0.00359313 0.00180176 0.00350069)
(0.00382777 0.00221236 0.00388803)
(0.00352634 0.00187336 0.00401291)
(0.00348115 0.00197113 0.00413082)
(0.00323217 0.0017043 0.00415115)
(0.00313216 0.00168465 0.00418174)
(0.00297049 0.00151586 0.00417943)
(0.00288073 0.0014807 0.00418562)
(0.00278464 0.00139353 0.00418138)
(0.00272166 0.00136789 0.00418356)
(0.00266502 0.00133084 0.00418043)
(0.00262179 0.00131687 0.00417925)
(0.00258393 0.00130324 0.00417536)
(0.00255168 0.00130027 0.00417179)
(0.00252437 0.00129674 0.00416779)
(0.00249962 0.0012974 0.00416212)
(0.00247701 0.00129915 0.00415556)
(0.00245682 0.00130168 0.0041487)
(0.00243855 0.00130585 0.00414205)
(0.00242233 0.00130772 0.0041361)
(0.0024065 0.00131795 0.00412939)
(0.00239284 0.00130223 0.00412263)
(0.00238986 0.00135292 0.0041186)
(0.00236733 0.00125306 0.00410948)
(0.00239974 0.00145311 0.00411756)
(0.00235097 0.00111 0.00410077)
(0.00246225 0.00165701 0.00413737)
(0.00235667 0.000800544 0.00409846)
(0.00260602 0.00200146 0.00418865)
(0.00240206 0.000280961 0.00409625)
(0.00282897 0.00254339 0.00427163)
(0.00250064 -0.000385315 0.00408856)
(0.00297632 0.00333589 0.00430648)
(0.00255115 -0.00102498 0.00402793)
(0.00274093 0.00450214 0.00408045)
(0.00248985 -0.00199171 0.0037915)
(0.0027922 0.00582551 0.00360007)
(0.00311153 -0.00508624 0.00382715)
(0.00474411 0.00642801 0.00412059)
(0.0033816 -0.00956262 0.00689765)
(0.00500276 0.0114714 0.00904605)
(-0.00373558 -0.0152216 0.0156116)
(0.00540276 0.0175014 0.0432486)
(-0.0115023 -0.0273131 0.0497263)
(0.0181985 0.042065 0.0985642)
(-0.0741531 -0.117591 0.0830291)
(0.0358511 0.0552325 -0.16927)
(0.0809476 -0.00571652 0.0148107)
(0.155464 0.489993 -0.00580438)
(0.0466066 0.5979 -0.00393381)
(0.0447172 0.580866 0.00355831)
(0.0150303 0.620593 0.00132485)
(0.00764967 0.61176 -0.000731691)
(-0.000166298 0.620169 -0.003029)
(-0.00280435 0.621728 -0.00340483)
(-0.00528053 0.61392 -0.00318641)
(-0.00543571 0.61172 -0.0020189)
(-0.00536412 0.612499 -0.000572039)
(-0.00413088 0.619554 0.00133015)
(-0.00249022 0.611922 0.0029111)
(-7.36348e-05 0.614207 0.00464859)
(0.00190406 0.625862 0.00606424)
(0.00360883 0.619875 0.00736523)
(0.00577343 0.608338 0.00825469)
(0.00768466 0.606591 0.00881609)
(0.00919022 0.596291 0.00902807)
(0.0101814 0.583422 0.00899196)
(0.0106775 0.572389 0.00852694)
(0.0101368 0.543629 0.00797815)
(0.00907875 0.52286 0.00727541)
(0.00746437 0.493784 0.00644232)
(0.00537253 0.462104 0.00549201)
(0.00289766 0.400502 0.00468869)
(0.000286979 0.327754 0.00401437)
(-0.00249632 0.276138 0.00342187)
(-0.00481037 0.195058 0.0031416)
(-0.00658581 0.116855 0.00317996)
(-0.00735521 0.0514731 0.00379776)
(-0.00740777 0.0229477 0.00477538)
(-0.00775626 0.0164414 0.00531405)
(-0.00874722 0.0140923 0.00553809)
(-0.0103834 0.0130841 0.00645078)
(-0.0127983 0.0129693 0.00843811)
(-0.0151618 0.0111596 0.00925707)
(0.0122665 0.019037 0.00530374)
(0.0266314 0.0233526 0.00825201)
(0.00918211 0.0079907 0.00286878)
(0.017799 0.016119 0.00540435)
(0.00965304 0.00321106 0.00266879)
(0.0128214 0.00843748 0.00224204)
(0.00781943 0.00158434 0.000975347)
(0.00729674 0.00502128 0.0007713)
(0.00362312 0.0013264 0.00124623)
(0.00275717 0.00271561 0.00195372)
(0.00128385 0.000683767 0.00227836)
(0.00126336 0.0014294 0.00300125)
(0.000624019 0.000911056 0.0034684)
(0.000760187 0.00162745 0.00393227)
(0.000332751 0.00137133 0.0041157)
(0.000262962 0.00169336 0.00427821)
(-6.73331e-05 0.00152197 0.00430595)
(-0.00020623 0.00164715 0.0043373)
(-0.000426807 0.00154438 0.00432022)
(-0.000549112 0.00158769 0.00431307)
(-0.000673395 0.00153893 0.00428861)
(-0.000751966 0.00155212 0.00427193)
(-0.000816193 0.00153611 0.00424977)
(-0.000858695 0.00154007 0.00423355)
(-0.000890023 0.00153794 0.00421675)
(-0.000909961 0.00154122 0.00420286)
(-0.000921213 0.00154286 0.00418853)
(-0.000925171 0.00154719 0.00417475)
(-0.000924144 0.00155078 0.0041629)
(-0.000919902 0.00155472 0.004153)
(-0.000914416 0.00155936 0.00414453)
(-0.000907112 0.00156304 0.00413786)
(-0.000900703 0.00157178 0.00413201)
(-0.000889566 0.00155906 0.00412892)
(-0.000876221 0.00160295 0.00412732)
(-0.000869486 0.00151435 0.00412856)
(-0.000834129 0.00169593 0.004142)
(-0.000839597 0.00138462 0.00414929)
(-0.000747858 0.00189836 0.00420361)
(-0.000781551 0.0011198 0.00420997)
(-0.000606615 0.00225961 0.00431073)
(-0.000691125 0.000718014 0.00428927)
(-0.000439277 0.00285323 0.00442755)
(-0.000546437 0.000255699 0.00437152)
(-0.00037661 0.00375793 0.00444534)
(-0.000378624 -0.000222914 0.00433723)
(-0.000398735 0.00505808 0.00415889)
(1.56871e-05 -0.00134291 0.00408768)
(0.000525385 0.00647711 0.00400837)
(0.0014691 -0.00443111 0.00427351)
(0.00189512 0.0072193 0.00438044)
(0.00172869 -0.00864831 0.00624688)
(0.000691311 0.00851585 0.00628486)
(-0.00529965 -0.0147482 0.0070556)
(-0.0157238 0.00366549 0.0286097)
(-0.0362455 -0.0409511 0.0484338)
(0.000612104 -0.0214072 0.0848423)
(-0.0161797 -0.114707 0.0832248)
(0.0329585 -0.068761 -0.166341)
(0.0437541 0.0785811 0.0159077)
(0.0823347 0.583709 -0.00994014)
(0.0277226 0.655554 -0.0057906)
(0.0250981 0.618832 0.00369099)
(0.0116985 0.691677 0.00651445)
(0.00743316 0.655338 0.00819468)
(0.00236761 0.671241 0.00682111)
(0.000382212 0.662999 0.00705488)
(-0.00146386 0.648584 0.00696704)
(-0.00221042 0.660683 0.0077023)
(-0.00252421 0.644465 0.00865702)
(-0.00186753 0.662979 0.00981309)
(-0.000869018 0.666405 0.0106724)
(0.000961859 0.669224 0.011723)
(0.00271932 0.64961 0.0125516)
(0.00493638 0.632853 0.0138085)
(0.00710308 0.650586 0.014321)
(0.00915234 0.653374 0.0147565)
(0.0110044 0.628111 0.0149759)
(0.012944 0.652348 0.0151092)
(0.0143933 0.639172 0.0148186)
(0.0148389 0.615167 0.0145915)
(0.01487 0.623115 0.0140246)
(0.0142136 0.6171 0.0130657)
(0.0124124 0.60161 0.0117762)
(0.0100878 0.582798 0.010464)
(0.00763526 0.549723 0.00951954)
(0.0045572 0.543153 0.00830544)
(0.00127704 0.533874 0.00722624)
(-0.00189466 0.50193 0.0063372)
(-0.00488405 0.483497 0.00570398)
(-0.00832957 0.465697 0.00491699)
(-0.0119625 0.428614 0.00384869)
(-0.0155291 0.34322 0.00335963)
(-0.0192033 0.232515 0.00322416)
(-0.0243008 0.174717 0.00361509)
(-0.0309013 0.253924 0.00345457)
(0.00660074 0.0137121 0.00390426)
(0.0249886 0.0269306 0.0083956)
(0.00460655 0.00673001 0.00360976)
(0.0146195 0.0186816 0.00731538)
(0.00669599 0.00277339 0.00467718)
(0.0103346 0.0091689 0.00446346)
(0.0053083 0.000491428 0.00302619)
(0.00579656 0.00489992 0.00206704)
(0.00235509 0.000658611 0.00221036)
(0.00140353 0.0024919 0.0028851)
(-0.000417206 -6.14879e-05 0.00327284)
(-0.000547651 0.000869998 0.00389634)
(-0.00130682 0.00012004 0.00436858)
(-0.00108177 0.000978793 0.00487834)
(-0.00150503 0.000715436 0.00515219)
(-0.00153512 0.00126752 0.00536882)
(-0.00186181 0.00120046 0.00543996)
(-0.00193454 0.00151374 0.00550947)
(-0.00210561 0.00151037 0.00551657)
(-0.0021588 0.00166096 0.00553806)
(-0.00222438 0.00167458 0.00554208)
(-0.0022406 0.00174435 0.00555919)
(-0.00224903 0.00176429 0.00557127)
(-0.00223706 0.00179776 0.00559189)
(-0.00221753 0.00182014 0.00561215)
(-0.00219034 0.00184335 0.00563526)
(-0.00216013 0.00186297 0.00565686)
(-0.00212774 0.00187754 0.00567762)
(-0.00209424 0.00188656 0.00569913)
(-0.00205887 0.00189342 0.00572212)
(-0.00202272 0.00189957 0.00574642)
(-0.00198401 0.00190253 0.00577284)
(-0.00194668 0.00191022 0.00579942)
(-0.00190313 0.00189849 0.00582963)
(-0.00186055 0.00193639 0.00585966)
(-0.00181835 0.00185472 0.00589462)
(-0.00175698 0.00202356 0.00593421)
(-0.00171825 0.00173794 0.00597243)
(-0.00160895 0.0022343 0.00603669)
(-0.00158831 0.00152855 0.00606814)
(-0.00141882 0.00263313 0.00615718)
(-0.00142681 0.00125251 0.00616888)
(-0.00122376 0.00330237 0.00623909)
(-0.00122493 0.000970157 0.00622897)
(-0.00118505 0.00432082 0.00610622)
(-0.00101389 0.000480974 0.00608505)
(-0.00120864 0.00569027 0.00565418)
(-0.000606874 -0.00112342 0.00568446)
(-0.000384288 0.00729607 0.00573584)
(0.000820007 -0.00457797 0.00602505)
(0.000880075 0.00902449 0.00699448)
(0.00276026 -0.00792068 0.00881461)
(0.00013001 0.0106405 0.00926091)
(0.00411574 -0.0106749 0.0086649)
(-0.0121177 0.01259 0.0289763)
(-0.0270484 -0.0436576 0.0454334)
(-0.0162267 -0.0317087 0.0766604)
(0.0182456 -0.0951919 0.074204)
(-0.00474767 -0.0959095 -0.152831)
(-0.0155465 0.12006 0.0127832)
(-0.0306851 0.625337 -0.0181563)
(-0.0119278 0.719591 -0.00558627)
(-0.00795454 0.735824 0.00785474)
(-0.00252642 0.762653 0.0112254)
(-0.000859839 0.761422 0.0132935)
(-0.000692931 0.759268 0.0131131)
(-0.000606548 0.763607 0.0134713)
(-0.000713023 0.774809 0.013631)
(-0.000742491 0.756756 0.0141206)
(-0.000105893 0.758359 0.0148304)
(0.000819295 0.75226 0.0156037)
(0.00203065 0.750723 0.0162541)
(0.00365647 0.745131 0.0169739)
(0.00583654 0.739302 0.0175623)
(0.00850404 0.731369 0.0183455)
(0.0107855 0.722775 0.0188476)
(0.0129677 0.71391 0.0195017)
(0.0150551 0.713155 0.0200683)
(0.016842 0.70901 0.0207517)
(0.018385 0.70248 0.021494)
(0.0197321 0.695779 0.0222758)
(0.0202851 0.68877 0.0229367)
(0.0203185 0.680518 0.0234293)
(0.0197961 0.67196 0.0236891)
(0.0188985 0.660529 0.023665)
(0.0176302 0.642026 0.0233731)
(0.0158749 0.62985 0.0227717)
(0.0137435 0.615325 0.0218318)
(0.0113763 0.596287 0.0204994)
(0.00813734 0.58175 0.0183391)
(0.00397735 0.546838 0.0150985)
(-0.0014547 0.516892 0.0103107)
(-0.00784719 0.487212 0.0039494)
(-0.0147743 0.445083 -0.00565702)
(-0.0246034 0.440405 -0.0230733)
(-0.0322587 0.439928 -0.0438158)
(-0.00423461 0.0100407 -0.00652286)
(0.0225465 0.0305217 0.00510579)
(-0.00174558 0.00639282 0.000425674)
(0.00993718 0.0219943 0.00505824)
(0.00184692 0.00337554 0.00317667)
(0.00598735 0.0111204 0.00321863)
(0.00157344 0.000947524 0.00181614)
(0.00295164 0.00595944 0.000442057)
(3.43536e-05 0.000701864 7.18709e-05)
(-0.000978062 0.00267698 0.000163412)
(-0.00330389 -0.000314688 0.000367949)
(-0.00396416 0.00082763 0.000766575)
(-0.00514628 -0.000277689 0.00116409)
(-0.00504561 0.000650493 0.00164117)
(-0.00563634 0.00038645 0.0019802)
(-0.00570386 0.00109782 0.00223586)
(-0.0060891 0.00109048 0.00237973)
(-0.00619533 0.00150873 0.00249902)
(-0.00640439 0.00155096 0.00256142)
(-0.00648916 0.00175362 0.00262421)
(-0.00658723 0.0017951 0.00266582)
(-0.00663601 0.00188754 0.00271273)
(-0.00667363 0.00192241 0.00275207)
(-0.00669139 0.00196622 0.002797)
(-0.00669764 0.00199388 0.0028413)
(-0.00668921 0.0020195 0.0028888)
(-0.00666221 0.00203903 0.00293771)
(-0.00662099 0.00205472 0.00298839)
(-0.00657772 0.00206666 0.00303914)
(-0.00653354 0.00207636 0.00308935)
(-0.0064883 0.00208481 0.00313907)
(-0.00643983 0.0020899 0.00318879)
(-0.00639306 0.00209988 0.00323682)
(-0.00633973 0.00209213 0.00328561)
(-0.00629149 0.00212884 0.00333129)
(-0.00623975 0.00206083 0.00338143)
(-0.00619324 0.00221687 0.003427)
(-0.00613754 0.00196758 0.00348249)
(-0.00609561 0.00242979 0.00352418)
(-0.00601148 0.00180867 0.00358527)
(-0.00601008 0.00284633 0.00361252)
(-0.00586436 0.00163333 0.00368384)
(-0.00597852 0.00357333 0.00364195)
(-0.00567286 0.00150582 0.00371923)
(-0.0059003 0.00472516 0.00347024)
(-0.0053641 0.0010827 0.00350117)
(-0.00543249 0.00618625 0.00304401)
(-0.00468074 -0.000855 0.00306199)
(-0.00408059 0.0077737 0.00338088)
(-0.00361525 -0.00538508 0.00361765)
(-0.00438407 0.00913461 0.00490889)
(-0.00188108 -0.00800152 0.00674344)
(-0.00799648 0.0122824 0.00610457)
(-0.00312999 -0.00897656 0.00795403)
(-0.0184871 0.0296949 0.0211835)
(-0.0171919 -0.0472142 0.0342698)
(-0.0337335 -0.0216337 0.0588385)
(0.0562002 -0.123516 0.062354)
(-0.0394357 -0.0261706 -0.170585)
(-0.0650662 0.0481841 0.00433566)
(-0.143099 0.532659 -0.0278067)
(-0.0472213 0.615711 -0.00711076)
(-0.0371883 0.604624 0.00323299)
(-0.0170361 0.632359 0.0074682)
(-0.0114952 0.626934 0.00852665)
(-0.00748603 0.611084 0.00854482)
(-0.0059112 0.627168 0.00874466)
(-0.00490115 0.626013 0.00901968)