/*--------------------------------*- C++ -*----------------------------------*\
| =========                 |                                                 |
| \\      /  F ield         | OpenFOAM: The Open Source CFD Toolbox           |
|  \\    /   O peration     | Version:  2.3.0                                 |
|   \\  /    A nd           | Web:      www.OpenFOAM.org                      |
|    \\/     M anipulation  |                                                 |
\*---------------------------------------------------------------------------*/
FoamFile
{
    version     2.0;
    format      ascii;
    class       volVectorField;
    location    "18";
    object      U.waterMean;
}
// * * * * * * * * * * * * * * * * * * * * * * * * * * * * * * * * * * * * * //

dimensions      [0 1 -1 0 0 0 0];

internalField   nonuniform List<vector> 
6144
(
(0.00796016 0.0203734 -0.000920919)
(0.00807591 0.00450643 -0.00100876)
(0.00435178 0.00203205 -0.00169263)
(0.00438069 -0.000309515 -0.0017132)
(0.00288098 -0.00196186 -0.00135581)
(0.00294614 -0.00143414 -0.00122361)
(0.00255106 -0.00178269 -0.00125889)
(0.00275268 -0.000972709 -0.00133204)
(0.0027224 -0.00058097 -0.00166088)
(0.00286366 0.000349788 -0.00169437)
(0.00288032 0.000885027 -0.00163733)
(0.00302846 0.00134528 -0.00146337)
(0.00312799 0.00124252 -0.00141965)
(0.00323822 0.00104208 -0.00139037)
(0.00326947 0.000675051 -0.00147636)
(0.00330212 0.000417055 -0.00154176)
(0.00330981 0.000156872 -0.00162888)
(0.00331979 -4.39606e-07 -0.00168266)
(0.00332192 -0.000144907 -0.00173284)
(0.00332445 -0.000226467 -0.00176184)
(0.00332282 -0.000298584 -0.00178509)
(0.00332155 -0.000338803 -0.00179657)
(0.00331779 -0.00037303 -0.0018037)
(0.00331403 -0.000392905 -0.0018047)
(0.00330914 -0.000409035 -0.00180278)
(0.00330395 -0.000420273 -0.00179794)
(0.00329825 -0.000428039 -0.00179128)
(0.00329213 -0.00043818 -0.00178247)
(0.00328649 -0.000438548 -0.00177179)
(0.00327821 -0.000464553 -0.0017581)
(0.00327326 -0.000442471 -0.00174157)
(0.00326172 -0.000523244 -0.00171984)
(0.00325956 -0.000447411 -0.00169186)
(0.00324327 -0.000653914 -0.00165543)
(0.00324606 -0.000487999 -0.00160482)
(0.0032249 -0.000931581 -0.00154334)
(0.00323642 -0.00065042 -0.00146419)
(0.00321631 -0.0014714 -0.00138741)
(0.00324143 -0.00105488 -0.00131647)
(0.00323904 -0.00233897 -0.0013032)
(0.0032634 -0.00165841 -0.00136513)
(0.00327927 -0.00324296 -0.00155067)
(0.00330355 -0.00186769 -0.00185962)
(0.00337341 -0.00340875 -0.00220714)
(0.00342965 -0.000925578 -0.00249661)
(0.00356285 -0.00283297 -0.0026785)
(0.00386541 0.000176298 -0.00319082)
(0.00330871 -0.00173376 -0.00415678)
(0.00141098 0.00805049 -0.00514308)
(0.00329067 0.00953921 -0.00627879)
(0.0078506 0.0168469 -0.00718514)
(0.0131721 0.0043443 -0.00704351)
(0.0195965 0.00611037 -0.0079262)
(0.0237258 -0.029366 -0.00725879)
(0.0262467 -0.0208105 -0.0105771)
(0.026441 -0.0695806 -0.00745079)
(0.0177425 -0.027255 -0.0215064)
(0.0204513 -0.0927602 0.0104732)
(-0.024813 0.021152 -0.0565823)
(0.0200962 -0.0471029 0.0327798)
(0.118626 -0.283392 0.069497)
(0.0822783 -0.0970618 0.0354877)
(0.0540745 -0.17994 0.0135435)
(0.0435812 -0.174039 0.00842655)
(0.0348316 -0.180805 0.00765826)
(0.0285141 -0.165156 0.00677921)
(0.0227569 -0.168979 0.00521039)
(0.0181524 -0.157744 0.00357934)
(0.0151766 -0.1583 0.00283881)
(0.0134126 -0.148514 0.00269109)
(0.0124152 -0.147633 0.00306088)
(0.0113724 -0.140039 0.00303058)
(0.00970508 -0.135613 0.00341158)
(0.00661334 -0.126163 0.00323626)
(0.00222682 -0.11577 0.00323019)
(-0.000175027 -0.101772 0.00252012)
(-0.000647957 -0.0898536 0.000838046)
(-0.00145737 -0.0779706 -0.000816272)
(-0.0029042 -0.0635987 -0.00141377)
(-0.00116487 -0.0474118 -0.00153204)
(0.00279473 -0.0359142 -0.00094264)
(0.00528965 -0.0277136 0.000119693)
(0.00707912 -0.0246022 0.00214895)
(0.00721189 -0.0253783 0.00283305)
(0.00687184 -0.0259176 0.00209151)
(0.0067543 -0.0266926 0.000434883)
(0.0059918 -0.0254527 -0.00081558)
(0.00476438 -0.0224824 -0.00169243)
(0.00233902 -0.0182466 -0.0022452)
(1.62847e-05 -0.0096827 -0.00326857)
(0.00143856 -0.000484325 -0.00344404)
(0.00322479 0.00732399 -0.00348639)
(0.00371711 0.013959 -0.000544286)
(0.00448533 0.0160524 0.00373079)
(0.00690641 0.0140967 0.0060044)
(0.00854143 0.00513346 0.00765123)
(0.0162361 0.0231986 0.00260316)
(0.0171371 0.0110745 0.00262344)
(0.00987619 0.00768942 0.000900351)
(0.0105198 0.00502898 0.00122871)
(0.00627474 0.0016151 0.0014141)
(0.00644997 0.00170039 0.00144581)
(0.00511026 0.000228653 0.00153988)
(0.00545733 0.00113347 0.00131086)
(0.00521702 0.00110656 0.0010997)
(0.0055293 0.00194706 0.00103507)
(0.00557135 0.0021711 0.00100375)
(0.00600477 0.00246497 0.00122763)
(0.00621792 0.00212048 0.00131461)
(0.00647778 0.00181073 0.00139266)
(0.00651288 0.00131469 0.00131287)
(0.00658429 0.000986208 0.00126275)
(0.00657228 0.000649326 0.00116919)
(0.00658551 0.000449263 0.00112043)
(0.00657061 0.000261678 0.00106785)
(0.0065656 0.000155156 0.00104524)
(0.00655094 6.02399e-05 0.00102729)
(0.00653961 7.03341e-06 0.00102548)
(0.00652479 -3.87391e-05 0.00102836)
(0.00651057 -6.51838e-05 0.00103941)
(0.00649514 -8.69881e-05 0.00105391)
(0.00647935 -0.000101824 0.00107216)
(0.00646308 -0.000112951 0.00109241)
(0.006446 -0.000125665 0.00111512)
(0.00642997 -0.000129764 0.00114006)
(0.00640934 -0.000158922 0.00116784)
(0.00639635 -0.000140167 0.00119929)
(0.00636782 -0.000232707 0.00123402)
(0.00636505 -0.000154791 0.00127526)
(0.00632676 -0.000396232 0.00131923)
(0.00634612 -0.000214098 0.00137845)
(0.00630311 -0.000734334 0.00143831)
(0.00636176 -0.000404731 0.00151593)
(0.00633146 -0.00136212 0.00157826)
(0.00644364 -0.000821432 0.00163482)
(0.00644247 -0.00232058 0.00161985)
(0.00655965 -0.00140359 0.00152244)
(0.00655775 -0.00332828 0.00124137)
(0.00658792 -0.00162023 0.00077608)
(0.00651167 -0.00358083 0.000237556)
(0.00656125 -0.000566142 -0.000247945)
(0.00677986 -0.00286991 -0.000627698)
(0.00629913 0.00119937 -0.00172648)
(0.00348296 0.00171815 -0.00296035)
(0.00188343 0.0110425 -0.00266257)
(0.00730728 0.00578465 -0.00225935)
(0.0180837 0.0078037 -0.00119593)
(0.0263663 -0.0145134 2.55234e-05)
(0.0404677 -0.0150998 0.00402645)
(0.049987 -0.0554851 0.00984038)
(0.0492463 -0.0479458 0.00965885)
(0.0544461 -0.106806 0.0147946)
(0.0284219 -0.0682472 0.00664952)
(0.0218562 -0.171026 0.0331204)
(-0.0568572 0.0345035 -0.0899908)
(0.00974778 -0.0916931 0.00583637)
(0.148935 -0.25845 0.110563)
(0.0745548 0.00655096 0.0431355)
(0.0185224 -0.110675 0.00953903)
(0.0163626 -0.0424644 0.0122284)
(0.00657376 -0.0649897 0.0113844)
(0.00204204 -0.0402722 0.0076681)
(0.00186161 -0.0431353 0.00448652)
(0.00520702 -0.0291993 0.00430485)
(0.0090581 -0.0296371 0.00512558)
(0.0100235 -0.0226529 0.00343709)
(0.00912544 -0.0258644 0.00447318)
(0.00665419 -0.0245337 0.0057232)
(0.00332471 -0.0297474 0.00627063)
(-0.000580751 -0.0313465 0.0048608)
(-0.00300511 -0.0341813 0.00325861)
(-0.00211085 -0.0328887 0.00206052)
(-0.000121797 -0.0312961 0.000137172)
(-0.00211601 -0.0263571 0.000988846)
(-0.00408428 -0.0210468 0.000886335)
(-0.00148398 -0.0152385 0.00219702)
(0.00122386 -0.0114926 0.00340199)
(0.00429618 -0.00760484 0.0055769)
(0.00731326 -0.00895363 0.00860523)
(0.00695495 -0.0123582 0.0100449)
(0.00528044 -0.0155484 0.00993651)
(0.00385792 -0.0182151 0.00970113)
(0.00282857 -0.0192732 0.00923002)
(0.00159759 -0.0197941 0.00801954)
(0.000847507 -0.0194817 0.00647679)
(-0.000417411 -0.018093 0.00386793)
(-0.0004591 -0.0151814 0.00115419)
(0.000829285 -0.00942567 -0.0027837)
(0.00150748 0.000844088 -0.00160637)
(0.00352074 0.00623756 0.00504784)
(0.00652012 0.00647199 0.0102917)
(0.00836216 0.00130077 0.0121504)
(0.0194088 0.0226865 0.00375945)
(0.021563 0.0137366 0.00381112)
(0.0126901 0.00970087 0.00164006)
(0.0141596 0.00855174 0.00213175)
(0.00790415 0.00401967 0.00220343)
(0.00794868 0.00390934 0.00245503)
(0.0053304 0.00145853 0.00285563)
(0.00568728 0.00230676 0.00276312)
(0.00521571 0.00196622 0.0026856)
(0.00568131 0.00271963 0.00273875)
(0.00566181 0.00255811 0.00270883)
(0.00633396 0.00278456 0.00290053)
(0.00659839 0.00229356 0.00297659)
(0.00693608 0.00202338 0.00306922)
(0.00691389 0.00150676 0.00304487)
(0.00696087 0.00120329 0.00305525)
(0.00687328 0.000851101 0.00302658)
(0.00684668 0.000654144 0.00302981)
(0.00677948 0.000456475 0.00302413)
(0.00674064 0.00034811 0.00303752)
(0.00669155 0.000247732 0.00304941)
(0.00665417 0.000191894 0.00307061)
(0.00661525 0.000143552 0.00309159)
(0.00658112 0.000115259 0.00311661)
(0.00654779 9.19424e-05 0.00314227)
(0.00651666 7.61154e-05 0.00316951)
(0.00648675 6.34321e-05 0.00319684)
(0.0064576 4.98325e-05 0.00322455)
(0.00643056 4.35794e-05 0.00325248)
(0.00640133 1.54817e-05 0.00328072)
(0.00638209 2.81555e-05 0.00330982)
(0.00634692 -6.08563e-05 0.0033393)
(0.0063464 4.61387e-06 0.00337191)
(0.00630399 -0.000227525 0.00340382)
(0.00634363 -5.78904e-05 0.00344376)
(0.00630486 -0.000547634 0.00347866)
(0.00641082 -0.000202717 0.00352377)
(0.00639511 -0.00106865 0.00355146)
(0.00658352 -0.000425492 0.00357579)
(0.00660011 -0.00172893 0.00354966)
(0.0068126 -0.000603185 0.00347315)
(0.00677537 -0.00234303 0.00329895)
(0.00676699 -0.000489424 0.00303098)
(0.00655387 -0.00249668 0.00269219)
(0.00663273 0.000577975 0.00228171)
(0.00684964 -0.00149404 0.00174907)
(0.00597177 0.00309882 0.000526781)
(0.00377699 0.00160875 -0.000535631)
(0.00444108 0.00724783 -0.000323435)
(0.0130607 -0.00350904 0.000345537)
(0.0288083 -0.00311036 0.0027218)
(0.0427716 -0.0264789 0.0042763)
(0.0563139 -0.0242638 0.0116498)
(0.0674249 -0.0611234 0.0173858)
(0.067411 -0.0467169 0.0222997)
(0.0775442 -0.109455 0.0285191)
(0.0396258 -0.0553034 0.0319268)
(0.0533686 -0.197776 0.0736819)
(-0.062805 0.0745066 -0.0676774)
(0.022903 -0.129449 -0.018044)
(0.169948 -0.234636 0.122565)
(0.0925365 0.0501065 0.0525055)
(0.0572077 -0.0928227 0.03035)
(0.0351878 8.11991e-05 0.0133671)
(0.0200904 -0.0310911 0.0101756)
(0.0129737 5.24505e-05 0.00928895)
(0.0149317 -0.00726503 0.0108221)
(0.0141635 0.00589654 0.00942961)
(0.0172811 0.00671719 0.00781454)
(0.0184904 0.0145762 0.00763141)
(0.0167964 0.00966674 0.00794442)
(0.0128749 0.0100653 0.00899949)
(0.00919262 0.00377626 0.00875148)
(0.00514244 0.00252433 0.00706005)
(0.00138777 0.000249588 0.00410165)
(-0.0011845 0.00266246 0.00134612)
(-0.00295842 0.00481102 0.00180969)
(-0.004086 0.00620997 0.0031705)
(-0.00424905 0.00515006 0.00385305)
(-0.00265333 0.00409276 0.00560341)
(-4.76336e-05 0.00364101 0.0070658)
(0.00281732 0.00274611 0.0098127)
(0.00514041 -0.000710593 0.0140477)
(0.00334523 -0.00582395 0.0161349)
(-0.000389825 -0.010852 0.0161628)
(-0.00330429 -0.01447 0.0155474)
(-0.00381913 -0.0149423 0.0135184)
(-0.00415659 -0.0155346 0.0111121)
(-0.00392262 -0.0147491 0.00883091)
(-0.00343599 -0.0137376 0.00642041)
(-0.00246808 -0.0113521 0.0042899)
(-0.00348922 -0.00873403 0.00273608)
(-0.00274237 -0.00320881 0.00343011)
(0.000679535 0.000300976 0.00771553)
(0.00355674 0.000559458 0.012913)
(0.00280042 -0.00243698 0.0145606)
(0.0204059 0.0220467 0.00417632)
(0.0246767 0.015439 0.00451134)
(0.0138598 0.0100942 0.00136685)
(0.0171147 0.0110448 0.00170796)
(0.00985604 0.00547787 0.00139416)
(0.0103084 0.00608985 0.00181409)
(0.00577768 0.00191759 0.00244121)
(0.00569452 0.00282335 0.00251289)
(0.00459596 0.00189824 0.00266394)
(0.00528952 0.00298145 0.0028638)
(0.00517443 0.00254018 0.00291958)
(0.00592056 0.00282968 0.00325652)
(0.00608416 0.00228277 0.00343702)
(0.00641357 0.00215556 0.00359934)
(0.00632085 0.00165487 0.00361472)
(0.00635145 0.00142363 0.00364883)
(0.00621973 0.00106006 0.0036414)
(0.00617417 0.000876917 0.00366256)
(0.00607494 0.000663327 0.00367413)
(0.00601726 0.000553159 0.00370165)
(0.00594662 0.000443173 0.00372569)
(0.00589488 0.000384409 0.00375706)
(0.00584246 0.000331726 0.00378643)
(0.005798 0.00030179 0.00381777)
(0.00575528 0.000277265 0.00384766)
(0.00571507 0.000261685 0.00387737)
(0.00567651 0.000248469 0.00390624)
(0.00563942 0.000235198 0.00393415)
(0.00560482 0.000226223 0.00396084)
(0.00557087 0.000199406 0.00398674)
(0.00554818 0.000205243 0.00401229)
(0.00551372 0.000122224 0.00403783)
(0.00551919 0.000176871 0.00406425)
(0.00548381 -3.89858e-05 0.00408883)
(0.00554232 0.000125558 0.00411519)
(0.00550869 -0.000320565 0.00413328)
(0.00564171 5.67164e-05 0.00415046)
(0.00561063 -0.000701435 0.00414356)
(0.00582013 6.73483e-05 0.00412168)
(0.00580431 -0.00103612 0.00406362)
(0.00607802 0.000321235 0.00398494)
(0.00604621 -0.00123872 0.00388939)
(0.00614262 0.000738927 0.0037722)
(0.00570461 -0.00147826 0.0036723)
(0.00536751 0.00150378 0.00359799)
(0.00536135 -0.000670159 0.0034541)
(0.00542 0.0036229 0.00280588)
(0.00444996 0.000379661 0.00206783)
(0.00821973 0.00322922 0.0022821)
(0.0182743 -0.0102867 0.00224101)
(0.0355754 -0.0106749 0.0057373)
(0.0513979 -0.0286454 0.0110488)
(0.0629827 -0.0197382 0.0239122)
(0.0733071 -0.0506966 0.0321207)
(0.0718443 -0.0177211 0.0462796)
(0.0846056 -0.0906102 0.0516961)
(0.0447204 0.0164143 0.0916706)
(0.0751672 -0.213282 0.129548)
(-0.0799587 0.202019 -0.0336139)
(0.0223686 -0.213921 0.0109005)
(0.144904 -0.20361 0.133388)
(0.0660517 0.07022 0.0425327)
(0.0313255 -0.0547022 0.0284324)
(-0.000881911 0.0524344 -0.000844464)
(-0.000455793 0.0233172 0.00495346)
(-0.00341774 0.0546968 0.00528646)
(0.00042448 0.0478571 0.00655564)
(0.00205906 0.0604548 0.00658723)
(0.00658351 0.0563887 0.00633794)
(0.00910018 0.0630561 0.00611031)
(0.00961691 0.0570179 0.00666146)
(0.0080932 0.0564619 0.00597453)
(0.0051644 0.0497656 0.0039905)
(0.000914358 0.0482558 0.00202744)
(-0.000565238 0.0454477 0.00129314)
(-0.00114894 0.0433812 0.00133427)
(-0.00124679 0.039338 0.00271373)
(-0.00150494 0.035444 0.00507196)
(-0.0010554 0.0304843 0.00757822)
(-0.000792377 0.0272726 0.00962536)
(-0.000805243 0.0237905 0.0112621)
(-0.00061936 0.0211938 0.0136798)
(-0.000248853 0.0162335 0.017229)
(-0.00256559 0.0096661 0.0176425)
(-0.00776284 0.00434782 0.0162935)
(-0.0123324 0.000189589 0.0157505)
(-0.0134309 -0.00120866 0.0136035)
(-0.0122942 -0.00254754 0.0108102)
(-0.0106166 -0.00362396 0.00821398)
(-0.00859759 -0.00299261 0.00523491)
(-0.00773483 -0.000676244 0.00486061)
(-0.00786866 -0.000570102 0.00524043)
(-0.00754932 0.00120229 0.00659731)
(-0.00481374 0.000666699 0.0110551)
(-0.00486345 -0.000493335 0.0143423)
(-0.00690254 -0.00275204 0.0146537)
(0.0197844 0.0214379 0.00484147)
(0.0266848 0.0172687 0.00561882)
(0.0141533 0.00958187 0.00116404)
(0.019249 0.0126437 0.00183671)
(0.0114308 0.00539181 0.00047465)
(0.0129004 0.00747493 0.000810234)
(0.00703866 0.00226544 0.00111536)
(0.00619276 0.0034428 0.00159538)
(0.00376807 0.00121968 0.00196907)
(0.0042434 0.00246924 0.00238644)
(0.00400415 0.00175964 0.00256777)
(0.00471515 0.00231789 0.00316675)
(0.00464194 0.00185888 0.00347282)
(0.0048918 0.00197017 0.00373914)
(0.00467167 0.00155274 0.00378713)
(0.00464276 0.00145329 0.00385647)
(0.00442165 0.00112096 0.00385257)
(0.0043211 0.00098526 0.00387756)
(0.004164 0.000773252 0.00388401)
(0.00406509 0.000677153 0.00390613)
(0.00395765 0.000564522 0.00392206)
(0.00387775 0.000508282 0.00394513)
(0.00380194 0.000454208 0.00396405)
(0.00373974 0.000424671 0.00398507)
(0.00368379 0.000398848 0.00400394)
(0.00363454 0.00038155 0.00402286)
(0.0035899 0.000367617 0.00404008)
(0.00355018 0.000355332 0.00405619)
(0.00351526 0.000345733 0.00407121)
(0.00348414 0.000323505 0.00408426)
(0.00346513 0.000327758 0.00409566)
(0.00343909 0.000257863 0.00410525)
(0.00345171 0.000309611 0.00411459)
(0.00342751 0.000123527 0.00411876)
(0.00350154 0.000293845 0.00412392)
(0.00348142 -8.79431e-05 0.00411386)
(0.00363874 0.00032608 0.00409793)
(0.00360534 -0.000317693 0.00404422)
(0.00384062 0.000521871 0.00398164)
(0.00380151 -0.000435899 0.00389042)
(0.00413955 0.00101546 0.00382688)
(0.00414142 -0.000397101 0.00380559)
(0.00441929 0.00165283 0.00380129)
(0.00397345 -0.000640416 0.0037772)
(0.00356988 0.00212252 0.00376083)
(0.0034293 -0.00066629 0.00387162)
(0.00371195 0.00290508 0.00398569)
(0.00432209 -0.00145164 0.00400374)
(0.0105717 -0.000576685 0.0041269)
(0.0223963 -0.0134661 0.00495156)
(0.038729 -0.0103043 0.0096967)
(0.0517566 -0.019456 0.0182233)
(0.0595018 -0.0035393 0.030747)
(0.0646688 -0.028616 0.0384804)
(0.0605375 0.0164444 0.0615487)
(0.0680609 -0.0539348 0.0672864)
(0.0462479 0.0916135 0.11197)
(0.0729489 -0.164087 0.12985)
(-0.050066 0.324029 -0.00513631)
(0.0180611 -0.267007 0.0205325)
(0.119502 -0.177451 0.139619)
(0.0438619 0.0888652 0.0341526)
(0.0233091 -0.0140337 0.0250986)
(-0.00189274 0.079768 -0.00638821)
(0.00644807 0.0642345 0.0035413)
(0.00236597 0.0908752 0.00739344)
(0.00612933 0.0837567 0.0106696)
(0.00679572 0.0942789 0.00922766)
(0.0105771 0.0888459 0.00823306)
(0.0129183 0.0940957 0.00624133)
(0.014601 0.0895182 0.00471261)
(0.0140077 0.0898236 0.00320282)
(0.0136645 0.0853945 0.00251877)
(0.0117711 0.0815618 0.00273295)
(0.0104842 0.0758509 0.00359854)
(0.00803315 0.070632 0.0046316)
(0.00679184 0.0657444 0.00658289)
(0.00512621 0.0608195 0.00912994)
(0.00399083 0.0557325 0.0121826)
(0.00330975 0.0514545 0.0138999)
(0.00185304 0.0467309 0.0150783)
(-0.000610387 0.0399156 0.0175102)
(-0.00226124 0.032801 0.0197841)
(-0.00626038 0.0265047 0.018647)
(-0.0121153 0.021627 0.0148906)
(-0.0167836 0.0184477 0.0102672)
(-0.0163825 0.0152325 0.00735484)
(-0.0148393 0.0118869 0.0045047)
(-0.0129939 0.00959889 0.00175929)
(-0.0121235 0.00948741 0.00181829)
(-0.0120082 0.00921484 0.00482339)
(-0.0121151 0.00638781 0.00647439)
(-0.0117353 0.00605648 0.00893577)
(-0.0101482 0.00144332 0.0129539)
(-0.0118755 0.00100251 0.0156761)
(-0.0172393 -0.00338682 0.0132363)
(0.0175442 0.0206675 0.00588845)
(0.0278558 0.019909 0.00690498)
(0.0132793 0.00871698 0.00165681)
(0.02006 0.0139799 0.0031215)
(0.0121407 0.00397457 0.000962471)
(0.0144336 0.0079092 0.00075842)
(0.00839993 0.0018594 0.00020761)
(0.00721886 0.00407095 0.000709714)
(0.00377318 0.000666942 0.00122027)
(0.00348856 0.00194982 0.00185338)
(0.00275156 0.000561404 0.00214019)
(0.00325903 0.00129118 0.00295048)
(0.0031099 0.00091975 0.00341915)
(0.00339889 0.00143242 0.00384424)
(0.00314211 0.00115179 0.00397136)
(0.00310085 0.0012668 0.00410385)
(0.00285272 0.00101742 0.00412531)
(0.00274244 0.00099045 0.0041554)
(0.00257304 0.000820032 0.00414733)
(0.00247212 0.000772794 0.00414791)
(0.0023677 0.000681638 0.00413769)
(0.00229618 0.000648369 0.00413429)
(0.0022325 0.000607429 0.00412669)
(0.00218436 0.000590185 0.00412194)
(0.00214485 0.000574335 0.00411626)
(0.00211262 0.000566113 0.00411134)
(0.00208575 0.000560386 0.00410564)
(0.00206419 0.000555841 0.00409974)
(0.00204636 0.000553443 0.00409262)
(0.00203437 0.000541662 0.00408611)
(0.00203557 0.000551589 0.00408143)
(0.00203748 0.000503626 0.00407624)
(0.00207749 0.000564961 0.00407583)
(0.00209024 0.000428847 0.0040697)
(0.00219275 0.000627634 0.00406469)
(0.0022104 0.000339581 0.00404257)
(0.00238995 0.000800649 0.0040122)
(0.00237833 0.000282127 0.00394277)
(0.00260662 0.00115366 0.00385468)
(0.0025331 0.000296422 0.00372739)
(0.00279931 0.00172438 0.00360706)
(0.00270021 0.00038383 0.00351272)
(0.00298741 0.00242702 0.00345762)
(0.00249939 9.41661e-05 0.00337696)
(0.002169 0.00262131 0.00325048)
(0.00194184 -0.000609637 0.00332007)
(0.00270427 0.00268368 0.0038979)
(0.00408768 -0.0031208 0.00537355)
(0.011406 -0.00320697 0.00594086)
(0.0224263 -0.0126686 0.00830137)
(0.0353383 -0.00393873 0.0151766)
(0.0422697 -0.00582018 0.0243347)
(0.0483958 0.0138244 0.0373953)
(0.0488912 -0.00408985 0.0468591)
(0.0417876 0.0401338 0.0709524)
(0.0394845 -0.0382248 0.0727551)
(0.0350395 0.0912909 0.0902193)
(0.045947 -0.15423 0.0882434)
(0.0184713 0.345036 0.0418067)
(0.0175639 -0.291794 0.0269314)
(0.0599147 -0.145439 0.133211)
(0.00760835 0.115493 0.0121245)
(-0.00037338 0.0298969 0.0150084)
(-0.0168244 0.110995 -0.00443933)
(-0.0104032 0.102303 0.00841524)
(-0.00853276 0.123316 0.0102777)
(-0.00231191 0.115876 0.0119633)
(0.0025752 0.125574 0.0102638)
(0.0086732 0.119145 0.00988976)
(0.0136266 0.124275 0.00856738)
(0.0188617 0.120815 0.00828951)
(0.0213143 0.121956 0.00793902)
(0.0230428 0.117352 0.0080538)
(0.0221373 0.115237 0.00868734)
(0.0210369 0.109194 0.0100001)
(0.018848 0.104096 0.0112524)
(0.0169603 0.0972778 0.0126286)
(0.014064 0.0908454 0.0135896)
(0.0108592 0.0843543 0.0146793)
(0.00710272 0.0761105 0.0156427)
(0.00266223 0.0674628 0.0160832)
(-0.00226993 0.0592295 0.0170976)
(-0.0059677 0.0514788 0.0170511)
(-0.00975507 0.044578 0.0122059)
(-0.0140179 0.0391023 0.00641111)
(-0.0160825 0.0347585 0.00201115)
(-0.0154314 0.0314331 -9.68607e-05)
(-0.0141651 0.0288204 -0.00188548)
(-0.0132282 0.028023 -0.00122618)
(-0.013393 0.0263609 0.00271208)
(-0.0138461 0.0226855 0.00549657)
(-0.0147627 0.0182793 0.00853183)
(-0.0157225 0.0140044 0.0127584)
(-0.0166912 0.00674777 0.0155412)
(-0.0212586 0.00432662 0.015128)
(-0.0237198 -0.00293867 0.00784871)
(0.0127104 0.0189191 0.00542736)
(0.027657 0.0236202 0.00831279)
(0.0101101 0.00726876 0.00281736)
(0.0189015 0.0158386 0.00545026)
(0.010361 0.00245996 0.00287665)
(0.0134655 0.00784539 0.00258532)
(0.00775838 0.000566389 0.00132176)
(0.00729512 0.00409946 0.0010514)
(0.00326028 8.35825e-05 0.0013187)
(0.00243497 0.00168576 0.0020412)
(0.00102958 -0.000366488 0.00225253)
(0.000886706 0.000461318 0.00297728)
(0.000179389 -2.90212e-06 0.00339238)
(0.000337495 0.000815927 0.00390136)
(-1.36861e-05 0.000609947 0.00410448)
(-6.66883e-05 0.000948792 0.00429024)
(-0.000390683 0.000804158 0.0043184)
(-0.000540618 0.000933061 0.00434509)
(-0.000771231 0.000842124 0.00431746)
(-0.000906066 0.000881931 0.00430285)
(-0.00104011 0.000836421 0.00427068)
(-0.00112807 0.000845952 0.00424766)
(-0.00119978 0.000830218 0.00422112)
(-0.00124748 0.000832769 0.00420103)
(-0.00128127 0.000829866 0.00418123)
(-0.00130222 0.000831819 0.00416483)
(-0.00131319 0.000833849 0.00414976)
(-0.001314 0.00083656 0.00413708)
(-0.00130655 0.000840967 0.00412632)
(-0.00128971 0.000838804 0.00411895)
(-0.00126365 0.000857637 0.00411612)
(-0.00123336 0.000834487 0.00411539)
(-0.00117577 0.000911601 0.00412153)
(-0.00114198 0.000826534 0.00412562)
(-0.0010295 0.00104807 0.00414107)
(-0.000995526 0.000834904 0.00414657)
(-0.000800855 0.00130968 0.00416335)
(-0.000779209 0.000855579 0.0041448)
(-0.000503384 0.00167654 0.00411535)
(-0.000532436 0.00080596 0.00399963)
(-0.000191846 0.00207402 0.00385127)
(-0.000253505 0.000619931 0.00359166)
(0.000224569 0.00254143 0.00337854)
(-2.32154e-05 0.000235509 0.00309429)
(-4.75013e-05 0.00273534 0.00287458)
(-0.000368919 -0.000415952 0.00283829)
(0.000928286 0.00258285 0.00361094)
(0.00310279 -0.00479565 0.00564982)
(0.00909219 -0.00594818 0.00714862)
(0.0189738 -0.010487 0.0113325)
(0.0252618 0.00654135 0.0200758)
(0.0261183 0.0129722 0.0288215)
(0.0269921 0.039341 0.0409765)
(0.0228525 0.0315493 0.0515512)
(0.0269272 0.0695166 0.0687444)
(0.0212099 -0.0118196 0.0688414)
(0.0360749 0.104146 0.084127)
(0.0225127 -0.153537 0.0730575)
(-0.00487845 0.323141 0.0562755)
(0.00408252 -0.293267 0.032388)
(0.00670327 -0.130275 0.120574)
(-0.0205628 0.116553 0.0132706)
(-0.0240214 0.0510425 0.00891948)
(-0.0269408 0.129895 -0.0041468)
(-0.0187236 0.115321 0.0122838)
(-0.0110556 0.131683 0.0127966)
(-0.00394485 0.120016 0.0127424)
(0.00336197 0.127816 0.0103565)
(0.00929287 0.123306 0.0106231)
(0.0140193 0.129543 0.0102931)
(0.0190679 0.127675 0.0111542)
(0.0223446 0.132783 0.0111272)
(0.0254513 0.131526 0.0128737)
(0.0253532 0.13124 0.0128962)
(0.0252914 0.1263 0.0147508)
(0.0228682 0.121149 0.0149492)
(0.0206648 0.114747 0.0157322)
(0.0168156 0.107113 0.0157233)
(0.0131853 0.0995522 0.0159847)
(0.00927469 0.0915353 0.0170435)
(0.0060966 0.0833468 0.0181718)
(0.00228226 0.0738767 0.0175104)
(-0.000750349 0.0644643 0.0136994)
(-0.00440449 0.0569292 0.00713057)
(-0.00773574 0.0520906 6.93402e-05)
(-0.00936628 0.0468484 -0.00580256)
(-0.0103635 0.0441128 -0.00885429)
(-0.0111443 0.0420866 -0.00875235)
(-0.0118316 0.0391894 -0.0070121)
(-0.0119666 0.0355721 -0.0036927)
(-0.0126058 0.0301263 -0.00150542)
(-0.0143832 0.0247573 0.000838064)
(-0.0162418 0.0185754 0.00325933)
(-0.0196487 0.0102644 0.00494944)
(-0.0245079 0.00534798 0.00624724)
(-0.0305589 -0.0049021 -0.0009553)
(0.00692772 0.0130533 0.00331136)
(0.0262565 0.0274883 0.00859936)
(0.00540339 0.00541739 0.00354991)
(0.0156837 0.0183802 0.00727556)
(0.00733019 0.00151626 0.00490231)
(0.0109554 0.00859494 0.00480155)
(0.00530754 -0.00055912 0.00335663)
(0.00579356 0.00408892 0.00253136)
(0.00202726 -0.000638587 0.00240206)
(0.00104559 0.0015407 0.00299916)
(-0.000724029 -0.0010539 0.00325924)
(-0.000930888 1.19292e-05 0.00388974)
(-0.00168838 -0.000733385 0.00433487)
(-0.00140765 0.000173626 0.00490485)
(-0.00174109 -6.4665e-05 0.00522553)
(-0.00176623 0.000506268 0.00546289)
(-0.00208643 0.000464306 0.00554338)
(-0.00216034 0.000791675 0.00561193)
(-0.00232947 0.00080569 0.00561245)
(-0.00238719 0.00095997 0.00562279)
(-0.00245462 0.000981549 0.00561449)
(-0.00247395 0.00104913 0.0056201)
(-0.00248274 0.00107084 0.00562298)
(-0.00246789 0.00110377 0.00563674)
(-0.00244248 0.00112534 0.00565228)
(-0.00240767 0.00114874 0.0056718)
(-0.00236752 0.00116964 0.00569206)
(-0.00232279 0.00118913 0.00571339)
(-0.00227627 0.00120757 0.00573456)
(-0.00222375 0.00121913 0.00575842)
(-0.00216576 0.00124738 0.00578517)
(-0.00210339 0.0012446 0.00581546)
(-0.00201433 0.00133173 0.00585425)
(-0.00194517 0.00128824 0.00589435)
(-0.00179702 0.00152281 0.00594982)
(-0.00172294 0.00138107 0.00599824)
(-0.00148211 0.00187618 0.00605777)
(-0.00141274 0.00152153 0.00607398)
(-0.00106455 0.00234815 0.00606441)
(-0.00103715 0.00157015 0.00592583)
(-0.000656704 0.00278743 0.00568026)
(-0.0008299 0.0013458 0.00520303)
(-0.000552745 0.00306072 0.00469274)
(-0.00104955 0.000629837 0.00416718)
(-0.00135545 0.00271592 0.00391174)
(-0.00177952 -0.00112323 0.00397313)
(0.000557759 1.14368e-06 0.004634)
(0.00392319 -0.00854677 0.00577492)
(0.00683869 -0.00561148 0.00867901)
(0.00450593 0.00066977 0.0188362)
(0.000258508 0.0266738 0.0275108)
(-0.00384676 0.042977 0.0328932)
(-0.000637974 0.0737539 0.0403965)
(0.00499611 0.0828519 0.0501203)
(0.0193747 0.11197 0.0689873)
(0.0300762 0.0718138 0.0783507)
(0.0649986 0.147867 0.10541)
(0.0347801 -0.0919353 0.096765)
(0.00931582 0.337682 0.0325345)
(-0.00826587 -0.308301 0.0289102)
(-0.0594469 -0.0983539 0.089827)
(-0.0511332 0.150018 -0.00797628)
(-0.0507127 0.0806094 0.00603452)
(-0.0380214 0.14622 -0.0037892)
(-0.0285555 0.116628 0.0129322)
(-0.0111625 0.125788 0.0108909)
(-0.00388658 0.112997 0.0098667)
(0.00427225 0.120893 0.00747036)
(0.0103979 0.121137 0.00762613)
(0.0163973 0.12907 0.00954864)
(0.021077 0.13024 0.0108879)
(0.0241037 0.136164 0.0119437)
(0.0270762 0.139157 0.0138719)
(0.0291244 0.144163 0.0151)
(0.0304922 0.144218 0.0173853)
(0.030024 0.141425 0.0193733)
(0.0282702 0.137062 0.020598)
(0.0255136 0.130914 0.0210175)
(0.021869 0.124213 0.0210686)
(0.0180422 0.116493 0.021155)
(0.0142185 0.109362 0.0206039)
(0.0107462 0.102931 0.0182339)
(0.00737533 0.098836 0.0142457)
(0.004672 0.0965676 0.0088026)
(0.0033811 0.0954902 0.00567599)
(0.000425068 0.0926517 0.0028849)
(-0.00159742 0.0895983 0.000561026)
(-0.00278972 0.0842884 -0.000192005)
(-0.00376701 0.0789345 0.00074205)
(-0.00359873 0.0714401 0.00294938)
(-0.0043845 0.0634741 0.00428244)
(-0.00666588 0.0551125 0.00604163)
(-0.0095712 0.0460463 0.00575685)
(-0.0145537 0.0340279 0.00272966)
(-0.021872 0.0199083 -0.00687029)
(-0.0303598 0.00202954 -0.0270103)
(-0.00426595 0.00940659 -0.0071491)
(0.0240654 0.0308986 0.00614658)
(-0.00121343 0.00407623 0.000575029)
(0.0111038 0.0215594 0.0050282)
(0.00236126 0.00160306 0.00330325)
(0.00636764 0.01051 0.00330991)
(0.00150881 -2.98783e-06 0.00202088)
(0.00291202 0.00532312 0.000853902)
(-0.000252655 -0.000240608 0.000247415)
(-0.00134463 0.00202916 0.000272058)
(-0.00354811 -0.00106009 0.000392985)
(-0.00425564 0.00014638 0.000775914)
(-0.00542796 -0.00104374 0.00115686)
(-0.00533078 -0.00012921 0.0016643)
(-0.00586508 -0.000400703 0.00205037)
(-0.00590867 0.000335439 0.00231444)
(-0.00629029 0.000340616 0.00247375)
(-0.00639486 0.000776678 0.00259698)
(-0.00660722 0.000837716 0.00266235)
(-0.00669774 0.00104983 0.00272324)
(-0.00679906 0.00110451 0.00275993)
(-0.00685308 0.00120038 0.00280086)
(-0.00689453 0.00124084 0.0028344)
(-0.00691502 0.00128585 0.00287395)
(-0.00692131 0.00131525 0.00291384)
(-0.00691223 0.00134375 0.00295686)
(-0.00688951 0.00136846 0.00300102)
(-0.00685248 0.00139197 0.00304681)
(-0.00680216 0.00141518 0.00309316)
(-0.00674308 0.00143347 0.00313995)
(-0.00668386 0.00146501 0.00318597)
(-0.00662134 0.0014721 0.00323355)
(-0.0065454 0.00155608 0.0032833)
(-0.00649085 0.00153185 0.0033373)
(-0.00638168 0.00176022 0.00339739)
(-0.00634898 0.00166558 0.00346236)
(-0.00615547 0.0021763 0.00351706)
(-0.00610683 0.00193584 0.00354347)
(-0.00580047 0.00285112 0.00348929)
(-0.00578401 0.00230388 0.00330999)
(-0.00538711 0.00364206 0.00294723)
(-0.00537998 0.00235246 0.00240568)
(-0.00467471 0.00374978 0.00185258)
(-0.00463258 0.000945296 0.00153208)
(-0.00416542 0.00204201 0.00129441)
(-0.00314514 -0.0025981 0.00121897)
(0.000424246 -0.00156189 0.00238805)
(0.000952975 -0.00666241 0.00147836)
(-0.00695953 0.00512568 0.00417106)
(-0.0190453 0.0121847 0.0154025)
(-0.0292253 0.0298586 0.0246557)
(-0.0320596 0.0376007 0.0313772)
(-0.0299193 0.0626102 0.0328581)
(-0.0207352 0.0667965 0.0358269)
(-0.00757842 0.107059 0.0526004)
(0.0155983 0.0516113 0.0562021)
(0.0762922 0.13946 0.0779299)
(0.0617516 -0.049147 0.0904375)
(0.0805648 0.351834 0.0240151)
(-0.0184198 -0.286628 0.0224648)
(-0.11011 -0.138995 0.078271)
(-0.0678244 0.14348 -0.00580318)
(-0.0645904 0.034594 0.00940551)
(-0.0340235 0.111117 0.000831148)
(-0.0285429 0.0531478 0.0174643)
(-0.0116349 0.0681051 0.0129678)
(-0.00606739 0.0485546 0.0116916)
(0.000412647 0.0545675 0.00895838)
(0.00393343 0.0498761 0.00682908)
(0.0102006 0.0542986 0.00785811)