/*--------------------------------*- C++ -*----------------------------------*\
| =========                 |                                                 |
| \\      /  F ield         | OpenFOAM: The Open Source CFD Toolbox           |
|  \\    /   O peration     | Version:  2.3.0                                 |
|   \\  /    A nd           | Web:      www.OpenFOAM.org                      |
|    \\/     M anipulation  |                                                 |
\*---------------------------------------------------------------------------*/
FoamFile
{
    version     2.0;
    format      ascii;
    class       volVectorField;
    location    "18";
    object      U.water;
}
// * * * * * * * * * * * * * * * * * * * * * * * * * * * * * * * * * * * * * //

dimensions      [0 1 -1 0 0 0 0];

internalField   nonuniform List<vector> 
6144
(
(0.0114607 0.0263381 -0.00317587)
(0.011749 0.0098226 -0.00345533)
(0.00756049 0.00646618 -0.00431334)
(0.00738212 0.00233645 -0.00391836)
(0.00381881 -0.000566806 -0.00250247)
(0.00298066 -0.000486371 -0.00187228)
(0.0018081 -0.00208973 -0.000727715)
(0.00160105 -0.000602137 -0.000584829)
(0.0015942 0.000402899 -0.00057864)
(0.00151333 0.00245609 0.000178765)
(0.0014498 0.00370336 0.000660849)
(0.00164264 0.00421914 0.0012519)
(0.00190334 0.00371045 0.0013271)
(0.00210216 0.00280722 0.00145006)
(0.0021299 0.00175643 0.00113084)
(0.00218383 0.00104138 0.000906594)
(0.00219398 0.000434737 0.000627027)
(0.00222183 6.91959e-05 0.000451113)
(0.00223132 -0.000219365 0.000321486)
(0.0022353 -0.000397657 0.000250115)
(0.00223103 -0.000528748 0.00020972)
(0.0022212 -0.000613067 0.000196326)
(0.00220698 -0.000674654 0.000201553)
(0.00218985 -0.000718535 0.000221756)
(0.00217104 -0.000756787 0.000251607)
(0.00215113 -0.000791528 0.000287877)
(0.00213003 -0.000826902 0.000330268)
(0.00210781 -0.000863351 0.000378773)
(0.00208434 -0.000901795 0.000434018)
(0.0020599 -0.000946611 0.000499015)
(0.00203583 -0.00100246 0.000578258)
(0.00201109 -0.0010842 0.000675008)
(0.0019817 -0.00120528 0.00079992)
(0.00194792 -0.00139842 0.000961805)
(0.00190898 -0.00169066 0.00117682)
(0.00186942 -0.00214793 0.00144251)
(0.00183648 -0.00280802 0.00175573)
(0.00182597 -0.00376223 0.00207146)
(0.00186023 -0.0049914 0.00233397)
(0.00196252 -0.00653133 0.00243872)
(0.00214507 -0.00826181 0.00228938)
(0.00239407 -0.0101826 0.00179683)
(0.00268086 -0.0120219 0.00108943)
(0.00322939 -0.0138646 0.000113051)
(0.0038631 -0.0155747 -0.000682502)
(0.00469306 -0.0182645 -0.000836556)
(0.00664894 -0.0244657 -0.00186838)
(0.00707537 -0.0303575 -0.00436851)
(0.00498853 -0.0305776 -0.00589777)
(0.002802 -0.0282328 -0.00835666)
(0.0029311 -0.0185105 -0.0114366)
(0.00608303 -0.00886406 -0.0167375)
(0.0170412 0.0197278 -0.0137868)
(0.0312919 -0.0174471 -0.0033001)
(0.0508987 -0.0362578 -0.00857842)
(0.0553883 -0.107144 -0.0122236)
(0.0289798 -0.099852 -0.0213645)
(0.0180028 -0.142665 -0.0135741)
(-0.0491163 -0.00969168 -0.0481711)
(0.0507814 0.0130331 0.0214214)
(0.161996 -0.327511 0.0399458)
(0.10385 -0.107307 -0.00479001)
(0.0508048 -0.192484 -0.0100718)
(0.0459872 -0.18213 -0.0068771)
(0.0267639 -0.177589 0.00173641)
(0.0259109 -0.163294 0.00581893)
(0.0247323 -0.140794 0.00831073)
(0.029389 -0.125324 0.0172484)
(0.0345205 -0.120603 0.0250991)
(0.0345466 -0.123323 0.0288396)
(0.0283217 -0.135273 0.031837)
(0.0216002 -0.146152 0.0310426)
(0.0107848 -0.157216 0.0208639)
(0.00601452 -0.157706 0.00694869)
(-0.00479332 -0.151732 -0.000784834)
(-0.0115265 -0.1271 -0.00519298)
(-0.00993254 -0.0904881 -0.00148484)
(-0.0209224 -0.0661117 0.0150647)
(-0.024912 -0.0610561 0.014193)
(-0.0180808 -0.0372286 0.000216594)
(0.00412221 0.00662497 -0.00279087)
(0.0123039 0.0165754 0.00187053)
(0.0129579 0.0212349 0.0043112)
(0.00984263 0.013711 0.00378127)
(0.0106354 0.0113318 0.00152855)
(0.0114698 0.00978134 0.00113319)
(0.0115535 0.00773038 0.00183623)
(0.0102257 0.00317195 -0.000299067)
(0.0114753 0.00091058 -0.000905607)
(0.00908572 -0.00364273 -0.00305353)
(0.00618503 -0.00345595 -0.00616746)
(0.00567315 -0.000161849 -0.00669476)
(0.00313103 0.00277075 -0.00943126)
(-0.000379773 0.00896169 -0.00497867)
(0.00464927 0.0117059 0.00267112)
(0.00539185 6.92762e-05 0.00441256)
(0.0191083 0.0293022 0.000756511)
(0.0208425 0.0218263 0.00120502)
(0.0162269 0.0183968 0.000126265)
(0.01563 0.0143652 0.00256204)
(0.00922329 0.0086377 0.00230554)
(0.00762672 0.00522799 0.00310331)
(0.00377492 0.00131898 0.00342204)
(0.00253677 0.0024812 0.00290682)
(0.00206684 0.00332807 0.00260016)
(0.00196768 0.00524711 0.00316676)
(0.00228304 0.00576051 0.00337996)
(0.00300123 0.00580685 0.00407825)
(0.00344653 0.00475397 0.0042485)
(0.00381216 0.00387183 0.00440483)
(0.00379335 0.00269356 0.00426395)
(0.00387056 0.00188694 0.00419477)
(0.00384621 0.00113965 0.00405686)
(0.00387847 0.000686013 0.00395964)
(0.00387389 0.000298967 0.00387752)
(0.00386316 5.09215e-05 0.00384602)
(0.00383775 -0.000136742 0.00384057)
(0.00380362 -0.000260267 0.00386136)
(0.00376321 -0.000351424 0.00389873)
(0.00371885 -0.000415441 0.00395018)
(0.00367207 -0.000468272 0.00401102)
(0.00362242 -0.000514288 0.00407815)
(0.00357058 -0.000559767 0.0041485)
(0.00351651 -0.000605988 0.00422051)
(0.00346038 -0.000654106 0.00429516)
(0.00340191 -0.000708578 0.00437538)
(0.00334192 -0.000776503 0.00445637)
(0.00328708 -0.000883166 0.00453284)
(0.0032389 -0.00104164 0.00461668)
(0.00320055 -0.00129278 0.00471694)
(0.00318252 -0.00165573 0.00483768)
(0.00319746 -0.00220117 0.00498049)
(0.00326934 -0.00293599 0.00513693)
(0.00341263 -0.00392926 0.00528754)
(0.00365835 -0.00511168 0.00540605)
(0.00402646 -0.00652223 0.00546031)
(0.00453557 -0.00805032 0.00542213)
(0.00529212 -0.00971795 0.00515029)
(0.0064161 -0.011398 0.00442123)
(0.00755385 -0.0133086 0.00357841)
(0.00887876 -0.0153016 0.00308436)
(0.0116936 -0.0194882 0.00412804)
(0.0155239 -0.027476 0.00277582)
(0.0159974 -0.031623 -0.00247523)
(0.0121859 -0.0289436 -0.004964)
(0.00651102 -0.0278414 -0.00430445)
(0.00314983 -0.020606 -0.00169687)
(0.00333959 -0.0221478 -0.00554122)
(0.0251667 -0.0148593 0.00103725)
(0.0659542 -0.0608332 0.0155913)
(0.092537 -0.0732749 0.00587089)
(0.0905257 -0.127011 0.00242278)
(0.0366937 -0.108124 -0.00186068)
(-0.0104941 -0.202402 0.02139)
(-0.151752 -0.0235813 -0.0447597)
(0.0519895 -0.0659971 0.027326)
(0.190546 -0.301592 0.0995594)
(0.0919744 0.100939 -0.0154896)
(0.0140748 -0.120277 -0.0186943)
(0.0086168 0.0477344 -0.00224505)
(-0.0267426 -0.069412 0.0379334)
(-0.0330586 -0.0428723 0.0207312)
(-0.0354851 -0.0490894 0.0200462)
(-0.0317911 -0.0461668 0.027419)
(-0.0254672 -0.0421049 0.0288525)
(-0.0209762 -0.0319122 0.0257563)
(-0.0165836 -0.00724794 0.012963)
(-0.00456855 0.00720299 -8.76747e-05)
(0.00607935 0.006957 -0.00457313)
(0.00659908 0.00652572 -0.00668981)
(-0.00277009 0.00375387 -0.00291541)
(-0.0122104 -0.00261043 0.0164982)
(-0.0226752 -0.00800258 0.0316422)
(-0.0287547 -0.0240903 0.0369687)
(-0.0318645 -0.0391401 0.0173084)
(-0.0263677 -0.00507473 -0.00645292)
(-0.0126368 0.0326318 0.0032266)
(-0.00336352 0.0434648 0.00895152)
(-0.00201877 0.0455382 0.0141639)
(-0.000732119 0.0370114 0.0156525)
(0.000976899 0.0316695 0.0113471)
(0.0071932 0.0308839 0.0100238)
(0.0117182 0.0287438 0.00773096)
(0.0126147 0.0290979 0.00332632)
(0.0128143 0.0347793 -0.000357129)
(0.011254 0.0380412 -0.002019)
(0.011853 0.0409332 -0.00166942)
(0.0122474 0.0399514 -0.000705566)
(0.0118829 0.0351908 0.00136583)
(0.0114703 0.0235475 0.00701579)
(0.0140674 0.0103988 0.0100624)
(0.0107033 0.00252107 0.0107696)
(0.0223302 0.0261137 0.001883)
(0.0239781 0.024369 0.00268087)
(0.0194746 0.0210216 0.00171341)
(0.0186265 0.0199839 0.00372163)
(0.0121443 0.0145997 0.00363647)
(0.0111531 0.00936906 0.0047631)
(0.00404122 0.00425317 0.00474155)
(0.00199052 0.0039257 0.00432344)
(0.000737305 0.004278 0.00377888)
(0.00106419 0.00554419 0.00408782)
(0.00155981 0.00543922 0.00413118)
(0.00284089 0.00530254 0.00454976)
(0.00321561 0.00433293 0.00464432)
(0.00355217 0.00393422 0.00481867)
(0.00345499 0.00304939 0.00476551)
(0.00349182 0.00244372 0.00479834)
(0.00332416 0.00172327 0.0047637)
(0.00324965 0.00126791 0.00479569)
(0.00312862 0.000849875 0.00481455)
(0.00303025 0.000576459 0.00485866)
(0.00292583 0.00036239 0.00490289)
(0.00282768 0.000218498 0.00495364)
(0.00273288 0.000110982 0.00500429)
(0.00264551 3.47142e-05 0.00505569)
(0.00256697 -2.75543e-05 0.00510813)
(0.00249438 -8.14803e-05 0.00516123)
(0.00242437 -0.000133858 0.00521313)
(0.00235572 -0.000188297 0.0052625)
(0.0022899 -0.000247081 0.00530993)
(0.00222925 -0.000318997 0.00535839)
(0.00217321 -0.000413828 0.00540967)
(0.00212323 -0.000555696 0.00546648)
(0.0020911 -0.000753951 0.00553152)
(0.00208171 -0.00104179 0.00560657)
(0.00211447 -0.00141974 0.00568787)
(0.00220343 -0.00191873 0.0057734)
(0.00237534 -0.00250314 0.0058512)
(0.00264284 -0.00317065 0.00590511)
(0.00304621 -0.00382752 0.00590823)
(0.00365171 -0.00447807 0.00585165)
(0.00453773 -0.00508683 0.00571522)
(0.0057359 -0.00582391 0.00555504)
(0.00714301 -0.00678673 0.00548531)
(0.00870548 -0.00815243 0.00553131)
(0.0109969 -0.0104446 0.00603544)
(0.0155639 -0.0160718 0.00738169)
(0.0206053 -0.0241268 0.00634096)
(0.0218953 -0.0289393 -0.000837462)
(0.0178174 -0.0243744 -0.00454998)
(0.00618718 -0.0237949 -0.00273659)
(0.00280267 -0.0179972 -0.000279224)
(0.0115638 -0.0265544 -0.000796576)
(0.0408241 -0.0260646 0.018429)
(0.0870061 -0.0682403 0.0163816)
(0.131082 -0.0348483 -0.000453851)
(0.132454 -0.0477339 -0.00203408)
(0.0998434 0.0139633 0.0324945)
(0.0905194 -0.19374 0.0828472)
(-0.197207 0.0780074 -0.00944423)
(-0.00418649 -0.116722 0.0197656)
(0.205496 -0.274749 0.108583)
(0.110464 0.127155 -0.032284)
(0.0876648 -0.0127079 0.000726081)
(0.0350914 0.0942244 0.0109298)
(0.0289203 0.0393556 0.0130147)
(-0.0100721 0.0378109 0.0321867)
(-0.0161848 0.0261151 0.0174778)
(-0.0175397 0.0322988 0.00787803)
(-0.0197388 0.0318193 0.00461448)
(-0.0130434 0.0272828 0.00620522)
(-0.00136018 0.023139 0.0076677)
(0.0182072 0.0198242 0.0112434)
(0.0253753 0.0241466 0.0104644)
(0.0187653 0.0387937 0.00849781)
(-0.000853686 0.0473804 0.00285051)
(-0.0217473 0.0421272 0.0182246)
(-0.0343192 0.0338558 0.0283252)
(-0.0472814 0.0231185 0.0180496)
(-0.0492663 0.021766 0.00772088)
(-0.0406807 0.0538196 0.00889671)
(-0.0190287 0.0606732 0.0101221)
(-0.00981898 0.0661476 0.0117544)
(-0.00495232 0.0623218 0.0184116)
(-0.00367905 0.0533236 0.0162754)
(0.00211138 0.0454406 0.00514407)
(0.0152978 0.0461983 -0.00183314)
(0.0189809 0.0466503 -0.00568629)
(0.0192353 0.0498429 -0.00634784)
(0.0181648 0.0511814 -0.00560703)
(0.015645 0.0511214 -0.0015726)
(0.016068 0.0498554 0.00557388)
(0.0192236 0.0406133 0.00897374)
(0.0230289 0.0319865 0.00977133)
(0.0204374 0.0167446 0.0114903)
(0.0165076 0.00783473 0.0106382)
(0.0178685 -0.00417749 0.00943694)
(0.0226052 0.0224602 0.000414903)
(0.026157 0.0237903 0.0021684)
(0.0218575 0.0196239 0.000839317)
(0.0226749 0.0206131 0.00174653)
(0.0173388 0.0153705 0.00252788)
(0.0173602 0.0108378 0.00365512)
(0.00622556 0.00491925 0.00319813)
(0.0028111 0.00357549 0.00306037)
(-0.000304435 0.00250717 0.0029253)
(0.000264598 0.00423146 0.00337557)
(0.000960667 0.00376707 0.00347976)
(0.0021408 0.00377892 0.00415202)
(0.00218532 0.00326756 0.00432712)
(0.00245339 0.00338385 0.00464315)
(0.00233224 0.0028615 0.00459379)
(0.00237627 0.00253788 0.00465268)
(0.00217121 0.00190642 0.00459232)
(0.00208516 0.0014823 0.00462772)
(0.00191968 0.00102729 0.00463983)
(0.00179252 0.000723913 0.00469345)
(0.0016599 0.000474437 0.00474774)
(0.00154631 0.000308146 0.00481598)
(0.00144323 0.000186939 0.00488104)
(0.00135198 0.000108247 0.00494122)
(0.00126852 5.16739e-05 0.00499869)
(0.00119107 4.69067e-06 0.00505495)
(0.00111993 -4.15025e-05 0.00510916)
(0.00105228 -9.14158e-05 0.00515845)
(0.000988782 -0.000150073 0.00520351)
(0.000936918 -0.000227307 0.00524936)
(0.000903521 -0.000330749 0.00529956)
(0.000894415 -0.00047906 0.00535492)
(0.000917898 -0.000677372 0.00541536)
(0.000983206 -0.00094543 0.00548047)
(0.00109821 -0.00126132 0.0055404)
(0.00126814 -0.00162178 0.00558167)
(0.00150635 -0.00196832 0.00557867)
(0.00181729 -0.00227965 0.0055072)
(0.00223896 -0.00246636 0.00534738)
(0.00285975 -0.00254801 0.00510972)
(0.00383191 -0.00252968 0.00485926)
(0.00532235 -0.00261034 0.00475414)
(0.00716485 -0.00302396 0.00494823)
(0.00915374 -0.00393866 0.00561447)
(0.0122624 -0.00633043 0.00696654)
(0.0180443 -0.0119297 0.00825866)
(0.0233486 -0.0181925 0.00665758)
(0.0257591 -0.020492 -0.000385735)
(0.0208646 -0.0123981 -0.0030826)
(0.00821943 -0.0152787 -0.00362602)
(0.00406435 -0.00938219 -0.000164954)
(0.0165846 -0.02502 0.0101327)
(0.0470175 -0.0227726 0.0354238)
(0.0835158 -0.0361991 0.0174369)
(0.110962 0.0605498 -0.0155278)
(0.104474 0.110822 -0.015432)
(0.0398603 0.180229 0.00619813)
(-0.095943 0.111189 0.0518698)
(-0.241818 0.345216 0.00912274)
(0.00129904 -0.218578 0.0336873)
(0.199951 -0.261943 0.144501)
(0.0900519 0.128133 -0.0420821)
(0.0809557 0.00252179 -0.0173879)
(0.029428 0.10006 -0.000165192)
(0.0123028 0.0717434 0.0163007)
(0.00132261 0.0752346 0.0133191)
(-0.00154065 0.0596292 0.0101739)
(-0.00795501 0.0552684 0.0133011)
(-0.00220248 0.043979 0.0163045)
(-0.00498186 0.0299801 0.0198102)
(-0.00642394 0.0216974 0.0192435)
(-0.00906558 0.0186003 0.0178602)
(-0.0174793 0.0363864 -0.00364673)
(-0.0175342 0.0605245 0.00231591)
(-0.0165166 0.0642992 0.0117867)
(-0.028545 0.0558277 0.0210911)
(-0.0461046 0.0473455 0.0255246)
(-0.0556143 0.0447369 0.024307)
(-0.0584328 0.050331 0.0247394)
(-0.039656 0.0694791 0.0115373)
(-0.0248144 0.072433 0.00454807)
(-0.0192504 0.0793548 0.00492818)
(-0.0151732 0.0775956 0.00679399)
(-0.0106536 0.0707329 0.000801565)
(0.00231987 0.0640885 -0.00762993)
(0.0193339 0.063512 0.001241)
(0.0220745 0.0605719 0.00529865)
(0.022731 0.0581802 0.00380715)
(0.0188448 0.0543405 0.00143359)
(0.0157377 0.0505642 0.0022678)
(0.0163531 0.0487651 0.00667872)
(0.019948 0.0383104 0.00737262)
(0.0231005 0.029773 0.00668215)
(0.0198333 0.0145975 0.00903815)
(0.018257 0.00820511 0.00795584)
(0.0197011 -0.0132774 -0.000481155)
(0.022925 0.0208277 4.39136e-05)
(0.0273983 0.0238567 0.00203821)
(0.0234165 0.0171946 -0.000429005)
(0.0253932 0.0190317 -1.88347e-05)
(0.0211328 0.013474 0.000415929)
(0.0216739 0.0117407 0.00142816)
(0.00965476 0.00606066 0.000843674)
(0.00622601 0.00482543 0.0019315)
(-9.55585e-05 0.000728271 0.00212288)
(-7.93028e-05 0.00252612 0.00277512)
(0.000110326 0.00143728 0.00267396)
(0.000894647 0.00192359 0.00367352)
(0.000366285 0.00179701 0.00372104)
(0.000484557 0.00243821 0.00411629)
(0.000358715 0.00227175 0.00399015)
(0.000410286 0.00221263 0.00412932)
(0.000154313 0.00177154 0.00406758)
(1.81208e-05 0.00146917 0.00411356)
(-0.000233178 0.00106758 0.0040901)
(-0.00042798 0.000792408 0.00411129)
(-0.000632159 0.000539892 0.00412386)
(-0.000809909 0.000369088 0.00414777)
(-0.000967179 0.000242174 0.00417258)
(-0.00109553 0.000152278 0.00420583)
(-0.00120649 8.13901e-05 0.00424302)
(-0.0012989 2.75024e-05 0.00427871)
(-0.00137552 -1.88852e-05 0.00431006)
(-0.0014378 -6.57846e-05 0.00433821)
(-0.0014844 -0.000122534 0.00436496)
(-0.00151149 -0.000199788 0.0043912)
(-0.00151529 -0.000299718 0.00441981)
(-0.00149232 -0.000431796 0.00445399)
(-0.00143589 -0.000588508 0.00449373)
(-0.0013394 -0.000772525 0.00453267)
(-0.00119533 -0.000948837 0.00455533)
(-0.00100291 -0.00110692 0.00453698)
(-0.000752393 -0.0011866 0.00444665)
(-0.000444037 -0.00119512 0.00425519)
(-1.58322e-05 -0.00109603 0.00397096)
(0.000660752 -0.000930703 0.00364774)
(0.0017831 -0.000718206 0.00342018)
(0.00346144 -0.000570753 0.00348421)
(0.00537291 -0.000556996 0.00398721)
(0.0076129 -0.00075668 0.00515755)
(0.0117305 -0.0022871 0.00664821)
(0.0189332 -0.00619808 0.00695222)
(0.0240592 -0.00786567 0.00510027)
(0.0252523 -0.00385438 0.00201435)
(0.0240468 0.0097893 0.00164114)
(0.0140607 0.00365722 0.0026374)
(0.0127068 0.00326066 0.00691157)
(0.025609 -0.0251179 0.0210887)
(0.0395578 -0.0133465 0.0373586)
(0.0594221 -0.013058 0.0270148)
(0.0852968 0.0944819 0.00350211)
(0.0844371 0.144486 -0.00902392)
(0.0219653 0.213042 -0.0060859)
(-0.00293916 0.166312 0.0103593)
(-0.0519367 0.36397 -0.0193872)
(0.025162 -0.244746 0.0414712)
(0.205173 -0.248558 0.15911)
(0.0864894 0.0965403 -0.0207263)
(0.0865075 0.0257763 -0.0149095)
(0.0425552 0.101751 -0.0050877)
(0.0265468 0.0756787 0.0196505)
(0.0103843 0.0723926 0.0227617)
(0.000931045 0.0592595 0.0290049)
(-0.0091779 0.050387 0.0258568)
(-0.0138823 0.0431626 0.0234447)
(-0.0193979 0.0368944 0.0117678)
(-0.0282081 0.0415538 -0.00274338)
(-0.03033 0.0582595 0.00426548)
(-0.0280397 0.0748822 0.0203977)
(-0.0261773 0.0839076 0.0307598)
(-0.0345288 0.0905784 0.0324645)
(-0.0442054 0.0861891 0.0379574)
(-0.0502062 0.0758437 0.0416708)
(-0.0563661 0.0652743 0.035978)
(-0.0544369 0.0667522 0.013993)
(-0.0360946 0.0773314 -0.00815962)
(-0.0257501 0.0890686 -0.0181706)
(-0.0209948 0.098062 -0.0105392)
(-0.0165754 0.0930581 -0.000490602)
(-0.00500456 0.0796974 0.000536273)
(0.0120532 0.0710177 0.00587786)
(0.0174158 0.0710496 0.0124496)
(0.0208523 0.0657246 0.0110614)
(0.0228444 0.0662422 0.0089121)
(0.0210637 0.061324 0.00743271)
(0.0162035 0.05483 0.00291818)
(0.0163149 0.0511875 1.93439e-05)
(0.0212246 0.0385554 -0.00227887)
(0.0258058 0.0291944 -0.00567701)
(0.023829 0.0118498 -0.0106944)
(0.0302362 0.00332658 -0.00837787)
(0.0254501 -0.0153056 -0.0183188)
(0.0224079 0.0212744 0.00377543)
(0.0285121 0.0268735 0.00359555)
(0.0248999 0.0172641 -0.000463136)
(0.0280483 0.0194471 0.000400602)
(0.02366 0.00960968 -0.000427067)
(0.0241385 0.0103075 0.000730259)
(0.0129683 0.00355064 0.000283289)
(0.0101927 0.00510377 0.00153865)
(0.00172706 -0.000714338 0.00172077)
(0.000461239 0.00136711 0.00278835)
(8.56498e-05 -0.00112547 0.00259023)
(0.00026561 -0.000121347 0.00362517)
(-0.000568276 -7.06941e-05 0.00342933)
(-0.000387274 0.00131775 0.00395923)
(-0.000379229 0.00147274 0.00385252)
(-0.000335248 0.00169982 0.00408937)
(-0.000617248 0.00144271 0.0040359)
(-0.000789128 0.00132184 0.00407932)
(-0.00108057 0.00104063 0.00398237)
(-0.00128443 0.000864114 0.00392943)
(-0.00149754 0.000668421 0.00384924)
(-0.00166406 0.000538828 0.00379589)
(-0.00180108 0.000436112 0.00375629)
(-0.00190322 0.000369763 0.00373037)
(-0.00197559 0.000323145 0.00371356)
(-0.00202776 0.000293521 0.00370147)
(-0.00206308 0.000272963 0.00369282)
(-0.0020821 0.000252363 0.00368827)
(-0.00208334 0.000220906 0.00368957)
(-0.00206229 0.000169574 0.003698)
(-0.00201615 0.000103225 0.00371474)
(-0.0019373 2.49926e-05 0.00374232)
(-0.0018211 -4.92826e-05 0.00377975)
(-0.0016671 -0.000107777 0.00381715)
(-0.00146937 -0.000110667 0.00383585)
(-0.0012244 -4.8763e-05 0.0038081)
(-0.000913571 0.000102912 0.00370353)
(-0.000536703 0.000297412 0.00350867)
(-3.92704e-05 0.00052235 0.0032506)
(0.000698722 0.000690295 0.00301125)
(0.00174053 0.000876863 0.00291888)
(0.00304567 0.00116954 0.00313041)
(0.00426574 0.00176518 0.00374917)
(0.00595552 0.00247078 0.00488613)
(0.0101511 0.00257017 0.00561578)
(0.0156916 0.00375403 0.00418193)
(0.0172632 0.0109689 0.00235823)
(0.0178599 0.0234804 0.00529668)
(0.0208182 0.0284691 0.0071375)
(0.0220644 0.0199907 0.00934157)
(0.0303271 0.00679018 0.0134514)
(0.021094 -0.0290516 0.0152718)
(0.0197075 -0.0155525 0.0268626)
(0.0335138 -0.0287827 0.0183589)
(0.0488321 0.0803588 0.00754457)
(0.0347666 0.0518257 0.0129779)
(-0.0570859 0.207456 0.0750768)
(-0.0803428 -0.202498 0.0522466)
(0.0348074 0.295591 -0.0321063)
(0.0522012 -0.261194 0.0605759)
(0.179769 -0.187889 0.178149)
(0.0341679 0.10662 -0.00971792)
(0.0507575 0.0597811 -0.0198573)
(0.017905 0.119587 -0.0143729)
(-0.00979982 0.108846 0.00389402)
(-0.0200187 0.100828 0.00243809)
(-0.0235435 0.0951867 0.00917304)
(-0.0280566 0.0925319 0.00853762)
(-0.0345044 0.0976119 0.0147192)
(-0.0342377 0.102447 0.0266525)
(-0.0327489 0.106272 0.0352473)
(-0.0346883 0.11418 0.035515)
(-0.0351726 0.114919 0.0347586)
(-0.0365496 0.108618 0.0347419)
(-0.0410626 0.0971317 0.0356378)
(-0.0435501 0.0841753 0.0392216)
(-0.0466294 0.0676887 0.0390701)
(-0.0486613 0.0579825 0.0259883)
(-0.043781 0.0498849 -0.00266018)
(-0.0292753 0.0527018 -0.0299888)
(-0.020989 0.0722428 -0.033018)
(-0.0142188 0.0859877 -0.00941641)
(-0.000697369 0.0795931 0.00446006)
(0.0115132 0.0760034 0.00463622)
(0.0152601 0.0814154 0.00555947)
(0.0146887 0.0896696 0.00766563)
(0.018911 0.0920555 0.0121232)
(0.0242651 0.0964776 0.0169983)
(0.0278036 0.0895118 0.0217232)
(0.0280513 0.0828577 0.0180895)
(0.0292176 0.0659635 0.0124535)
(0.0366531 0.0553594 0.0113955)
(0.0442349 0.0375637 0.00467667)
(0.0427242 0.0184411 -0.0102255)
(0.0510799 0.00096174 -0.018368)
(0.0300031 -0.0123411 -0.0252385)
(0.0188288 0.0236466 0.00558826)
(0.0270039 0.0311699 0.00644437)
(0.0245234 0.0181288 0.00136273)
(0.0287525 0.022203 0.00528778)
(0.0243763 0.0048688 0.00308364)
(0.0244456 0.00765222 0.00433769)
(0.012885 -0.00136072 0.00258303)
(0.01169 0.00357383 0.00244201)
(0.00285726 -0.00279138 0.00187388)
(0.000773915 0.00114939 0.00263512)
(-9.35022e-05 -0.00279645 0.00271192)
(-0.00162099 -0.000984624 0.0035299)
(-0.00333193 -0.00126749 0.00324897)
(-0.0034207 0.000413594 0.00404048)
(-0.00319068 0.000505535 0.00428773)
(-0.00298847 0.000947365 0.00475455)
(-0.0033523 0.000885079 0.00473574)
(-0.00358781 0.00105993 0.00477158)
(-0.0039747 0.000986587 0.00462661)
(-0.00422282 0.000989234 0.00454504)
(-0.00448732 0.000907642 0.004428)
(-0.00468498 0.00086297 0.00435034)
(-0.00484839 0.000817197 0.0042922)
(-0.00495839 0.00079283 0.00425387)
(-0.00503265 0.000776792 0.00421848)
(-0.00508284 0.00076927 0.00418052)
(-0.00510364 0.000772806 0.00415201)
(-0.00509229 0.000775934 0.00414078)
(-0.00505629 0.000768959 0.00414593)
(-0.00499531 0.000756105 0.00416412)
(-0.00491 0.000745781 0.0041943)
(-0.00479983 0.000748354 0.00423305)
(-0.00466641 0.000783628 0.00427704)
(-0.00450451 0.000874136 0.00432034)
(-0.00430826 0.00105102 0.00435134)
(-0.00404994 0.00130151 0.00435547)
(-0.00369177 0.00159886 0.00430692)
(-0.00319516 0.0018477 0.00421939)
(-0.00255771 0.00197951 0.00411651)
(-0.00183326 0.00195181 0.00405208)
(-0.00118928 0.00192461 0.00407284)
(-0.000775277 0.0022375 0.00417302)
(-0.000580404 0.00335586 0.00429704)
(0.000531975 0.00548958 0.00459754)
(0.00382352 0.00873156 0.00409882)
(0.00747864 0.0142164 0.00195993)
(0.00946708 0.0208088 0.000756132)
(0.0138898 0.0260768 0.00308482)
(0.0262118 0.019976 0.00727049)
(0.0423779 0.00192015 0.00990307)
(0.0623996 -0.01249 0.00635866)
(0.049709 -0.00771308 -0.00982911)
(0.0240278 0.0326538 -0.00392098)
(-0.0115049 0.0661663 -0.0165527)
(0.0126888 0.128215 -0.00516233)
(0.0522625 0.0950374 0.0360894)
(0.127261 0.204327 0.0726173)
(0.0249845 -0.21332 -0.0449558)
(-0.0563996 0.25435 0.112987)
(0.0282436 -0.314517 0.0685623)
(0.109599 -0.0588416 0.143528)
(0.0233404 0.104036 0.0209754)
(0.0330733 0.08687 0.0129134)
(0.0165786 0.131121 0.00423367)
(-0.00713237 0.127204 0.00795481)
(-0.0209324 0.109195 0.00706088)
(-0.0253392 0.104898 0.00779197)
(-0.0309969 0.108144 0.0141709)
(-0.0325763 0.109211 0.0195148)
(-0.0306009 0.108255 0.0264614)
(-0.0294274 0.105509 0.0308875)
(-0.0271236 0.098909 0.027822)
(-0.0220128 0.0870098 0.0195847)
(-0.0194929 0.0757701 0.0145966)
(-0.0218506 0.0652154 0.0110459)
(-0.0210234 0.0565967 0.00862272)
(-0.0213146 0.0495234 0.00117982)
(-0.0225341 0.0473906 -0.0202807)
(-0.0216616 0.051434 -0.0425462)
(-0.0259219 0.0655631 -0.0492451)
(-0.0230673 0.0823078 -0.0361468)
(-0.0165261 0.0914983 -0.017686)
(-0.0147137 0.0925127 -0.00867792)
(-0.0140831 0.0999334 -0.00573338)
(-0.00776168 0.113964 0.00191793)
(0.00045034 0.119024 0.0113198)
(0.0104246 0.114404 0.0158888)
(0.0219801 0.116218 0.0224189)
(0.0300281 0.105172 0.029029)
(0.0354443 0.0991634 0.0307322)
(0.0430006 0.081711 0.0314662)
(0.0553208 0.0748781 0.0338307)
(0.0710919 0.0585956 0.0324052)
(0.0854326 0.043536 0.0236442)
(0.08799 0.0196354 6.50503e-05)
(0.0372958 -0.00381667 -0.03846)
(0.0153368 0.0222593 0.006185)
(0.0234645 0.0344314 0.00815448)
(0.0189086 0.0169382 0.00323234)
(0.0259549 0.0244853 0.00853775)
(0.0231047 0.002415 0.00667794)
(0.0208673 0.00642812 0.00665308)
(0.0111291 -0.00328987 0.00470963)
(0.00966036 0.00255741 0.00521316)
(0.00175345 -0.00416113 0.00389868)
(6.23156e-05 0.00101853 0.00349878)
(-0.000572256 -0.00352556 0.0037157)
(-0.00173519 -0.000724671 0.00441103)
(-0.00319335 -0.00160779 0.00470496)
(-0.00332098 -0.000236498 0.00560701)
(-0.00324704 -0.000701067 0.00641979)
(-0.0033076 0.000191598 0.0069456)
(-0.00378231 0.000146143 0.00713267)
(-0.00391633 0.000717294 0.00725796)
(-0.00417866 0.000799912 0.00718904)
(-0.00428836 0.00103861 0.00712299)
(-0.00443844 0.00109753 0.00700205)
(-0.00452611 0.0011648 0.00690432)
(-0.00458882 0.00119622 0.00681075)
(-0.00460596 0.00123915 0.00673733)
(-0.00458705 0.00127823 0.00666811)
(-0.004541 0.00131041 0.0066186)
(-0.00447682 0.00133398 0.00658563)
(-0.00439377 0.00135058 0.00656966)
(-0.0042967 0.00136279 0.00656779)
(-0.00418554 0.00137918 0.006576)
(-0.00406489 0.00141549 0.00659052)
(-0.00392655 0.00148588 0.00660643)
(-0.00376899 0.00161962 0.0066193)
(-0.0035988 0.00181754 0.00662795)
(-0.00339767 0.00208676 0.00663278)
(-0.00312135 0.00238938 0.00663906)
(-0.00269772 0.0026882 0.00665689)
(-0.00209781 0.00287956 0.00669771)
(-0.00133824 0.00293729 0.00677246)
(-0.000577485 0.00289665 0.00688983)
(-0.000186657 0.00298729 0.00700481)
(-0.000471169 0.0037353 0.00703254)
(-0.00184617 0.00555164 0.0068863)
(-0.00294749 0.00844812 0.00650311)
(-0.0016084 0.0119979 0.00507888)
(0.00203769 0.0143163 0.00197811)
(0.00620599 0.0152094 -0.00115617)
(0.0146902 0.0167293 -0.00112363)
(0.0303764 0.0172244 0.00242799)
(0.0394269 0.024973 -0.00722243)
(0.0267664 0.0885603 -0.0341585)
(-0.0245107 0.21867 -0.0273329)
(-0.0269713 0.270829 0.0236581)
(0.0378144 0.27307 0.0643893)
(0.094673 0.2532 0.0501767)
(0.12412 0.235113 0.0803343)
(0.146742 0.2292 0.0783195)
(0.0787334 0.118973 0.0997981)
(-0.0438122 0.299576 0.225926)
(-0.0148659 -0.362971 0.044614)
(-0.00225151 0.000462587 0.101318)
(0.00624889 0.153058 0.00989976)
(0.0131666 0.170486 0.008723)
(0.0169078 0.195448 0.00492655)
(0.0205258 0.193157 0.00520593)
(0.0165683 0.166342 0.00164282)
(0.00268324 0.152927 -0.00190979)
(-0.0031709 0.144732 -0.00201299)
(-0.0120819 0.133783 -0.00650804)
(-0.0182523 0.133127 -0.0134164)
(-0.0184128 0.135276 -0.0201229)
(-0.0160551 0.14439 -0.0247522)
(-0.0107095 0.159506 -0.0293491)
(-0.00850238 0.178702 -0.0281531)
(-0.00956612 0.190603 -0.0228728)
(-0.00836388 0.193971 -0.0214032)
(-0.00839114 0.192767 -0.0206749)
(-0.0110171 0.18576 -0.0228429)
(-0.015065 0.175616 -0.0229558)
(-0.0175229 0.163848 -0.0121936)
(-0.0174277 0.16032 0.00474953)
(-0.0127577 0.152969 0.0127653)
(-0.00899347 0.144996 0.012898)
(-0.00479188 0.141132 0.0113748)
(0.000866217 0.13342 0.0112809)
(0.00834721 0.11932 0.00900301)
(0.0116003 0.110071 0.0140645)
(0.0248316 0.100228 0.0143893)
(0.032957 0.0871634 0.013827)
(0.0417007 0.0822609 0.0231517)
(0.048605 0.070794 0.0268054)
(0.0607469 0.0707938 0.0342378)
(0.0756206 0.0612856 0.0387333)
(0.0941657 0.0535715 0.0376166)
(0.11199 0.0400324 0.0287143)
(0.0768415 0.00944696 -0.0321847)
(0.00210102 0.0186066 -0.0109963)
(0.0196956 0.0363829 0.00192677)
(0.0116514 0.0152837 -0.00160733)
(0.0208716 0.0264337 0.00625798)
(0.0185633 0.00138152 0.00537173)
(0.0144082 0.00599858 0.00200394)
(0.00629294 -0.00275156 0.00263524)
(0.00543187 0.00315616 0.00371272)
(-0.00139129 -0.00141181 0.00153502)
(-0.00181906 0.00268043 0.000398637)
(-0.00282429 -0.00206765 0.000240331)
(-0.00490675 0.000507651 0.000406404)
(-0.00675981 -0.00184424 0.00141363)
(-0.00662389 -0.000452608 0.00216571)
(-0.00745506 -0.00123352 0.00313255)
(-0.00740698 -2.8667e-05 0.00356341)
(-0.00807896 -0.000177935 0.0039303)
(-0.00820917 0.000555693 0.00414061)
(-0.00858166 0.000665245 0.0042588)
(-0.00875121 0.00102723 0.00433633)
(-0.0089553 0.00116819 0.00433736)
(-0.00909615 0.00131749 0.00433629)
(-0.00920988 0.00140086 0.00431883)
(-0.00926801 0.00146133 0.00431523)
(-0.00924582 0.00151856 0.00432305)
(-0.00917972 0.00157803 0.00433747)
(-0.00908623 0.00163304 0.00435494)
(-0.00896975 0.00168802 0.00437415)
(-0.00884186 0.00173962 0.00438994)
(-0.00871013 0.00179602 0.00440208)
(-0.00858538 0.00187205 0.00440836)
(-0.00846651 0.00197389 0.00440445)
(-0.00833562 0.00213368 0.00438982)
(-0.00817103 0.002341 0.00437365)
(-0.00793469 0.00258633 0.00436567)
(-0.00757398 0.00283407 0.00437645)
(-0.00703586 0.00307381 0.00441799)
(-0.00636881 0.00328519 0.00447038)
(-0.00573719 0.00352705 0.00451789)
(-0.00542117 0.00392108 0.00453896)
(-0.00589725 0.00464775 0.00444788)
(-0.00741386 0.00582393 0.00411741)
(-0.00943516 0.00753574 0.00343548)
(-0.0101436 0.00892971 0.00280932)
(-0.00739605 0.00944741 0.00234743)
(-0.00088401 0.00723062 0.00138562)
(0.00517975 0.00333169 0.000463981)
(0.0101088 0.00275158 -0.0023547)
(0.0123235 0.0139431 -0.00517312)
(-0.00996061 0.0384399 -0.0123924)
(-0.0480375 0.114049 -0.0229668)
(-0.0494085 0.218374 -0.00214348)
(-0.00991118 0.250932 0.06215)
(0.0668385 0.241846 0.0786995)
(0.118267 0.262248 0.0500996)
(0.154268 0.26895 0.0704568)
(0.16422 0.275814 0.0700004)
(0.148147 0.213589 0.0913049)
(0.130881 0.445559 0.121025)
(-0.0149151 -0.357766 0.0434911)
(-0.100602 -0.11456 0.102841)
(-0.0392622 0.1193 -0.00123275)
(-0.0417464 0.0732238 0.0183204)
(-0.00416873 0.107109 0.00938441)
(0.0108555 0.0959829 0.000862705)
(0.0182382 0.0975079 0.000302983)
(0.0186067 0.10291 0.0195179)
(0.0173768 0.107217 0.0252741)
(0.0104841 0.102976 0.0240494)
(0.00454697 0.093072 0.00630113)
(-0.00254618 0.0820349 -0.0199256)
(-0.00805012 0.0795287 -0.0271703)
(-0.0140382 0.0795613 -0.0232351)
(-0.013495 0.0786124 -0.010008)
(-0.00625181 0.0790109 0.00531782)
(-0.000633125 0.0785663 0.0104094)
(0.00297226 0.0804951 0.00985349)
(0.00230432 0.0833136 -0.000568772)
(-0.00798883 0.0886192 -0.0180607)