/*--------------------------------*- C++ -*----------------------------------*\
| =========                 |                                                 |
| \\      /  F ield         | OpenFOAM: The Open Source CFD Toolbox           |
|  \\    /   O peration     | Version:  2.3.0                                 |
|   \\  /    A nd           | Web:      www.OpenFOAM.org                      |
|    \\/     M anipulation  |                                                 |
\*---------------------------------------------------------------------------*/
FoamFile
{
    version     2.0;
    format      ascii;
    class       volVectorField;
    location    "18";
    object      U.water;
}
// * * * * * * * * * * * * * * * * * * * * * * * * * * * * * * * * * * * * * //

dimensions      [0 1 -1 0 0 0 0];

internalField   nonuniform List<vector> 
6144
(
(0.0122298 0.0257174 -0.00308159)
(0.0121834 0.00547927 -0.00330145)
(0.00597876 0.00231832 -0.00363097)
(0.00553729 -0.00190661 -0.00322797)
(0.00262322 -0.00540675 -0.0015387)
(0.00207528 -0.00549487 -0.00103526)
(0.00103918 -0.00585412 -0.000862386)
(0.0012295 -0.00349145 -0.00121285)
(0.00131928 -0.000852606 -0.00157225)
(0.0015388 0.00206356 -0.000760318)
(0.00163368 0.00387027 2.97557e-05)
(0.00187131 0.00457745 0.000714722)
(0.0021424 0.00412922 0.000937221)
(0.00234442 0.00321678 0.00102024)
(0.00237979 0.00215795 0.00077676)
(0.00240204 0.00138064 0.00057111)
(0.00240492 0.00074435 0.000352745)
(0.00241095 0.000322213 0.00021079)
(0.00241136 1.15123e-06 0.000102999)
(0.00240798 -0.000207514 3.70599e-05)
(0.00240054 -0.00036026 -2.04682e-06)
(0.00238933 -0.000461694 -1.81314e-05)
(0.00237737 -0.000532977 -1.9202e-05)
(0.00236383 -0.000587992 -9.17462e-06)
(0.00234882 -0.000626234 6.20323e-06)
(0.00233266 -0.000657231 2.58391e-05)
(0.00231572 -0.000674219 4.81695e-05)
(0.00230182 -0.000689595 7.3245e-05)
(0.00228893 -0.000701338 9.86167e-05)
(0.00227484 -0.000716951 0.000122657)
(0.00226214 -0.000713435 0.000147711)
(0.00225046 -0.000753392 0.000168236)
(0.00224034 -0.000689618 0.000197843)
(0.00222955 -0.000831579 0.000204434)
(0.00222192 -0.000594972 0.000253705)
(0.0022154 -0.00100597 0.000237876)
(0.00220033 -0.000410357 0.000324173)
(0.0022168 -0.0013364 0.00028535)
(0.00217445 -0.000145248 0.000408319)
(0.00222361 -0.00188175 0.00040972)
(0.00213037 0.000130637 0.000541076)
(0.00226843 -0.00279154 0.000680362)
(0.00209808 0.000205047 0.000737351)
(0.00245335 -0.0045401 0.000928909)
(0.00208416 5.02969e-05 0.000771882)
(0.00262359 -0.00750879 0.000821695)
(0.00205577 0.000822927 -0.000114112)
(0.00241964 -0.0104053 0.000275273)
(0.00246783 0.00467832 -0.0010972)
(0.00208002 -0.012428 -0.000453286)
(0.00531531 0.010205 -0.00144343)
(0.000487627 -0.0208763 -0.00157685)
(0.00967725 0.0211692 -0.00219838)
(0.0069036 -0.0372198 -0.00505108)
(0.00405235 0.0403864 -0.00810165)
(0.00137667 -0.0517963 -0.0151972)
(0.0186283 0.0819152 -0.0107147)
(-0.0167186 -0.0752559 -0.0239823)
(-0.0535243 0.146654 -0.0538963)
(0.0258885 -0.111772 -0.145878)
(0.120272 -0.253737 -0.0244667)
(0.0713409 -0.0709985 -0.00474038)
(0.0199654 -0.134426 0.00808872)
(0.0272665 -0.123003 0.0104374)
(0.0207018 -0.124488 0.0106846)
(0.0102948 -0.132498 0.0125836)
(0.00436109 -0.139025 0.0136067)
(0.000719341 -0.143286 0.0127048)
(-0.00208497 -0.144973 0.0108951)
(-0.00418206 -0.144225 0.00913176)
(-0.00537563 -0.141437 0.00749148)
(-0.00571183 -0.137327 0.00598189)
(-0.00519845 -0.132714 0.00452639)
(-0.0042189 -0.12854 0.00328882)
(-0.00299291 -0.125188 0.00221685)
(-0.00179243 -0.122963 0.00144868)
(-0.000920882 -0.122075 0.000738199)
(0.000415659 -0.12234 0.000218188)
(0.00135051 -0.124293 -0.000186584)
(0.00207376 -0.126934 -0.000651779)
(0.00296333 -0.130542 -0.000820234)
(0.00292654 -0.134544 -0.00124484)
(0.00280351 -0.137552 -0.00122289)
(0.00237237 -0.140463 -0.00151871)
(0.000968049 -0.141176 -0.00141135)
(-0.000845671 -0.139895 -0.00173436)
(-0.00107053 -0.136133 -0.00153886)
(-0.00429823 -0.129967 -0.00119568)
(-0.00630018 -0.118036 -0.00350709)
(-0.0088444 -0.100023 -0.00112326)
(-0.0167778 -0.0803313 -0.0103093)
(-0.011749 -0.0346254 -0.0124483)
(-0.00560401 0.00399163 -0.00955179)
(-0.00480179 0.0282988 -0.00152906)
(-0.00478298 0.0301977 0.0167849)
(-0.00169755 0.0202983 0.029131)
(0.0215 0.0329759 0.000334033)
(0.0224368 0.0239008 0.00120454)
(0.0152891 0.0194725 -0.000383313)
(0.0150142 0.01244 0.00224753)
(0.00723465 0.00477065 0.00270178)
(0.0057984 0.00150253 0.00304776)
(0.00236278 -0.00252748 0.00286282)
(0.00182678 -9.65216e-05 0.00146832)
(0.00168088 0.00187931 0.00123)
(0.00201337 0.00477026 0.0020454)
(0.00254757 0.00600387 0.00277936)
(0.0034422 0.00629625 0.0036778)
(0.0039851 0.00524576 0.00407347)
(0.00431978 0.00425122 0.00425556)
(0.00431418 0.00302401 0.00414826)
(0.00434203 0.0021508 0.00403253)
(0.00431489 0.00139738 0.00386049)
(0.00429953 0.0008872 0.00375392)
(0.0042724 0.00048758 0.00367543)
(0.0042434 0.000228255 0.00363589)
(0.00421159 3.33628e-05 0.00362386)
(0.00417564 -9.5796e-05 0.00363553)
(0.00413954 -0.000188308 0.00366271)
(0.00410169 -0.000257083 0.00370161)
(0.00406218 -0.000302202 0.00374494)
(0.00402113 -0.000337482 0.00379329)
(0.00397922 -0.000354818 0.00384394)
(0.00394234 -0.000374832 0.00389603)
(0.00390625 -0.000383517 0.003948)
(0.003869 -0.000397277 0.00399817)
(0.00383868 -0.00039367 0.00404848)
(0.00379872 -0.000436935 0.00408985)
(0.00378611 -0.00036588 0.00414771)
(0.00372441 -0.000519673 0.00416373)
(0.00375647 -0.000250924 0.00426247)
(0.00365162 -0.000724188 0.00422918)
(0.00374269 -2.11641e-05 0.0043975)
(0.00359314 -0.00111114 0.00429408)
(0.00370877 0.000309561 0.00453643)
(0.0035911 -0.00178315 0.00442589)
(0.00364669 0.000670197 0.00467701)
(0.00375808 -0.00291322 0.00470459)
(0.00366589 0.000909559 0.00473146)
(0.00421346 -0.00494634 0.00498442)
(0.00382777 0.0009432 0.00463173)
(0.00485111 -0.00813523 0.00472024)
(0.00391028 0.00170723 0.00361879)
(0.00457249 -0.0112908 0.00416656)
(0.00410374 0.00436505 0.00203451)
(0.00354617 -0.0131224 0.00386986)
(0.00737423 0.00755764 0.00195338)
(0.00334348 -0.015673 0.00213088)
(0.0094214 0.00733924 -4.28616e-05)
(0.00569126 -0.0145111 -0.000917705)
(0.0179077 0.0503188 0.00623785)
(0.0311169 -0.0657569 0.00450487)
(-0.0339069 0.032834 -0.00439819)
(-0.0401126 -0.0149201 -0.0107348)
(0.0130969 0.18913 0.0111917)
(0.170095 -0.125574 -0.0830856)
(0.17137 -0.214417 -0.0259258)
(0.025846 0.132266 0.0124098)
(-0.0559738 -0.128993 0.0222792)
(-0.0316353 -0.0515507 0.0168096)
(-0.0338117 -0.082833 0.0177477)
(-0.0307822 -0.0989222 0.0195076)
(-0.0268609 -0.106835 0.0180144)
(-0.0244019 -0.114327 0.0150846)
(-0.0227644 -0.119317 0.0122326)
(-0.0213311 -0.121046 0.00981872)
(-0.0196075 -0.120002 0.00766213)
(-0.0175292 -0.116817 0.00561115)
(-0.0150705 -0.11249 0.00355611)
(-0.0119249 -0.108739 0.00169884)
(-0.00835925 -0.105881 7.78077e-05)
(-0.00438235 -0.103883 -0.000987379)
(-0.000582058 -0.102395 -0.00207687)
(0.00274953 -0.100444 -0.00281195)
(0.00514409 -0.0999843 -0.00353363)
(0.00716405 -0.100033 -0.0038566)
(0.00826825 -0.10197 -0.00387492)
(0.00878963 -0.104324 -0.00400564)
(0.00839005 -0.10721 -0.00313898)
(0.00648153 -0.110611 -0.00360818)
(0.00437969 -0.111672 -0.00251938)
(0.000311272 -0.11356 -0.00303487)
(-0.00372252 -0.111609 -0.00233479)
(-0.00910562 -0.109037 -0.00196957)
(-0.0168043 -0.10168 -0.00408249)
(-0.0206437 -0.0875851 -0.00199608)
(-0.0283124 -0.0735744 -0.00944264)
(-0.0303204 -0.0407742 -0.0136163)
(-0.0164635 -0.00284174 -0.00933366)
(-0.0116778 0.023401 0.00200736)
(-0.0126284 0.0268839 0.0216144)
(-0.00928571 0.015126 0.0356154)
(0.0249486 0.0327561 0.00110386)
(0.0271504 0.0307812 0.00293559)
(0.021497 0.0253786 0.00167019)
(0.0208021 0.0216146 0.00399196)
(0.0114182 0.0141507 0.00316928)
(0.00899148 0.00857565 0.00412032)
(0.00302084 0.00218796 0.00422562)
(0.000992865 0.00240716 0.00305374)
(0.000482982 0.0034528 0.0023605)
(0.00106272 0.00563927 0.00298638)
(0.00179339 0.00599909 0.00371358)
(0.00336034 0.00610532 0.00434411)
(0.0040438 0.00498012 0.00457744)
(0.00434774 0.00430796 0.0047471)
(0.00421023 0.00330175 0.00473222)
(0.00410402 0.00259958 0.0047889)
(0.00388134 0.00189276 0.00479035)
(0.00372219 0.00141155 0.00481891)
(0.0035654 0.0010093 0.00484719)
(0.00343613 0.000739999 0.0048858)
(0.00332113 0.000533893 0.00493096)
(0.00321835 0.000394348 0.00498176)
(0.00312766 0.000292785 0.00503387)
(0.00304619 0.000217269 0.00508603)
(0.00296759 0.000165014 0.00513692)
(0.00289252 0.000123922 0.00518704)
(0.0028241 0.00010303 0.00523506)
(0.00276576 7.93104e-05 0.00528251)
(0.00271169 7.12877e-05 0.00532887)
(0.0026645 5.98836e-05 0.005375)
(0.00262563 5.71412e-05 0.00542023)
(0.00257343 3.43466e-05 0.0054594)
(0.00255737 7.72088e-05 0.00550146)
(0.0024743 -2.85313e-05 0.00553029)
(0.00253796 0.000166505 0.005597)
(0.00237444 -0.000214466 0.00560133)
(0.00256911 0.00036565 0.00568942)
(0.00227596 -0.000624545 0.00566444)
(0.00261403 0.000707886 0.00578175)
(0.00225489 -0.00137273 0.00572332)
(0.00271688 0.00119243 0.00587972)
(0.00250137 -0.00259345 0.00577236)
(0.00293938 0.00169849 0.00590838)
(0.00331283 -0.00443503 0.00586914)
(0.00323728 0.00269417 0.00581295)
(0.00438114 -0.00712872 0.00574077)
(0.00305108 0.0045188 0.00550513)
(0.00429653 -0.0100862 0.00589197)
(0.00303721 0.00633095 0.00475664)
(0.00441105 -0.013004 0.00644827)
(0.00617178 0.00659107 0.00402573)
(0.00785517 -0.0164565 0.00391922)
(0.0070125 0.00741861 0.00305983)
(-0.00478318 -0.0292423 0.00520461)
(0.0290209 0.0316056 0.0115004)
(0.0486923 -0.0721311 0.00673496)
(-0.0769506 0.0617313 0.00957033)
(-0.0954009 -0.108575 -0.00797701)
(-0.0704166 0.12134 -0.00650018)
(0.175651 -0.106491 -0.0689867)
(0.184339 -0.164637 -0.0297003)
(0.0522842 0.155104 0.0169187)
(0.0512597 -0.111235 0.0235165)
(-0.00173128 -0.0173506 0.0206555)
(-0.0235573 -0.0637905 0.017833)
(-0.0220812 -0.0733514 0.0191564)
(-0.0236987 -0.080503 0.0166528)
(-0.0268882 -0.0879189 0.0113965)
(-0.0286314 -0.0918801 0.00649937)
(-0.0285143 -0.092277 0.00268907)
(-0.0266961 -0.0894926 -0.000476691)
(-0.0225319 -0.0851753 -0.00298357)
(-0.0146823 -0.0791331 -0.00548419)
(-0.00742836 -0.0712465 -0.00790607)
(-0.00278309 -0.06278 -0.0100514)
(0.000334079 -0.0524516 -0.0114339)
(0.00346013 -0.0430485 -0.0113592)
(0.00743357 -0.0355913 -0.00977311)
(0.0119066 -0.0316055 -0.0072872)
(0.0160328 -0.030615 -0.00453904)
(0.0186699 -0.0339899 -0.00250247)
(0.0196905 -0.0388094 -0.000828987)
(0.0184815 -0.0458202 6.756e-05)
(0.0156519 -0.0523831 1.02314e-05)
(0.0115718 -0.0573896 0.000925009)
(0.00591319 -0.0633599 -0.000108132)
(-1.85238e-05 -0.0653652 0.00106213)
(-0.00940047 -0.0696604 0.000771842)
(-0.0191569 -0.0700304 -0.00158934)
(-0.0304042 -0.0634754 -0.00258059)
(-0.0438659 -0.05339 -0.0121806)
(-0.0434281 -0.0266596 -0.015351)
(-0.0293343 0.00325571 -0.00850836)
(-0.0206886 0.0230151 0.00449111)
(-0.0216142 0.024953 0.0233139)
(-0.0210972 0.013056 0.0371071)
(0.0261129 0.0311651 2.37685e-05)
(0.0294259 0.0325684 0.00314019)
(0.0239978 0.026942 0.0017307)
(0.0239045 0.0248297 0.00388106)
(0.0162468 0.0183756 0.00265812)
(0.0154826 0.0128334 0.00411088)
(0.00578203 0.00479872 0.00333185)
(0.00172757 0.00348523 0.00247521)
(-0.000279632 0.00282882 0.00169474)
(0.000506015 0.00496926 0.00227018)
(0.0013152 0.0047289 0.00296188)
(0.00292685 0.00470165 0.00390019)
(0.00331216 0.00388554 0.00426212)
(0.00347991 0.00372773 0.0045977)
(0.00319572 0.00309183 0.00459418)
(0.00305811 0.00265201 0.00466369)
(0.00279708 0.00203447 0.00465166)
(0.00261135 0.00159395 0.0046966)
(0.00241236 0.00118593 0.00473526)
(0.00224566 0.000899539 0.00478982)
(0.00210327 0.000677788 0.00485014)
(0.00197838 0.000528516 0.00491609)
(0.00187069 0.000421818 0.00497666)
(0.00177858 0.000347556 0.00503292)
(0.00169465 0.000298111 0.00508932)
(0.00161486 0.000263593 0.00514368)
(0.0015417 0.000242308 0.00519276)
(0.00147699 0.000225795 0.00523875)
(0.00141073 0.000223742 0.00528205)
(0.00135016 0.00021968 0.00532305)
(0.00129572 0.000223996 0.00536255)
(0.00123973 0.000215112 0.00539964)
(0.00120742 0.000248117 0.00543973)
(0.00113815 0.000169024 0.00546478)
(0.00116996 0.00033054 0.00552067)
(0.00103379 -8.05305e-06 0.0055207)
(0.00121483 0.000517353 0.00560807)
(0.000942649 -0.000416964 0.00557327)
(0.00134096 0.000844655 0.00569794)
(0.000896017 -0.00116228 0.00561234)
(0.00161667 0.00139174 0.00579795)
(0.000998368 -0.0023119 0.00559662)
(0.00206601 0.00236775 0.00588495)
(0.00152902 -0.00381974 0.00550387)
(0.00272652 0.00433432 0.00597495)
(0.00228618 -0.00572721 0.0054009)
(0.00310162 0.00743938 0.00613009)
(0.00289463 -0.00878472 0.00594372)
(0.00311177 0.00952743 0.00634519)
(0.00466802 -0.0132223 0.00741301)
(0.00506261 0.00946563 0.00411709)
(0.00715299 -0.018205 0.00193682)
(0.00827298 0.0201153 0.00468194)
(-0.00747402 -0.0271373 -0.00050791)
(0.0130745 0.0210332 0.00791243)
(0.0182606 -0.0120579 0.00549503)
(-0.0332656 0.132162 0.0154666)
(-0.0911748 -0.158317 0.0206929)
(-0.109613 0.160284 -0.0366654)
(0.202832 -0.202267 -0.0515183)
(0.216124 -0.144038 -0.03734)
(0.0402779 0.13121 0.00794161)
(0.0351749 -0.0272192 0.0177958)
(-0.0426157 0.0589512 0.0179026)
(-0.0256511 -0.0293098 0.0239496)
(-0.0282278 -0.0309077 0.0146605)
(-0.0268179 -0.0464482 0.00270828)
(-0.0214958 -0.0517773 -0.00490522)
(-0.0184881 -0.0511478 -0.00948898)
(-0.0177806 -0.0457947 -0.01286)
(-0.018158 -0.0354372 -0.0158724)
(-0.017906 -0.0196889 -0.019545)
(-0.0148734 0.00432255 -0.0188944)
(-0.00840052 0.0330303 -0.0164742)
(-0.00211609 0.0487205 -0.0114808)
(0.00454334 0.056121 -0.00419449)
(0.0110118 0.0572174 0.000951349)
(0.01667 0.0533902 0.00503953)
(0.0213651 0.0454178 0.00786514)
(0.0246207 0.0361649 0.00974916)
(0.0259692 0.0248444 0.0105918)
(0.0255777 0.0139539 0.0105458)
(0.0231463 0.00290439 0.00979502)
(0.0191658 -0.00627804 0.00872027)
(0.0140264 -0.0140178 0.00725093)
(0.00772677 -0.0200501 0.00586861)
(0.000217198 -0.0244245 0.00614445)
(-0.00963207 -0.0311105 0.00372474)
(-0.0207733 -0.0328858 0.00194006)
(-0.0308649 -0.0325324 0.0005549)
(-0.0466874 -0.0295709 -0.0124595)
(-0.051476 -0.00458115 -0.0169234)
(-0.0307284 0.0120585 -0.00524673)
(-0.0217635 0.0259088 0.0072289)
(-0.0253134 0.0233818 0.0257156)
(-0.0288505 0.012132 0.0385509)
(0.0263925 0.0288388 -0.000410959)
(0.0308886 0.0327401 0.0036644)
(0.0260218 0.0254501 0.00169217)
(0.0266232 0.0243711 0.0036415)
(0.0198497 0.0179153 0.0022436)
(0.0203853 0.0141071 0.00389583)
(0.00975207 0.00708568 0.00152846)
(0.00473052 0.00586372 0.00155162)
(8.7837e-05 0.00235435 0.00101974)
(3.41185e-05 0.00389378 0.00152816)
(0.00100501 0.00263152 0.00193731)
(0.00209035 0.00270207 0.00322034)
(0.00187132 0.00228265 0.00359052)
(0.00178034 0.00264291 0.00402814)
(0.00136641 0.00240627 0.00402835)
(0.00118027 0.0022997 0.00416515)
(0.000792202 0.00188449 0.004136)
(0.000503217 0.00156755 0.00417055)
(0.00021219 0.00120489 0.00418071)
(-3.45638e-05 0.000948567 0.00420744)
(-0.000256812 0.000735536 0.00423243)
(-0.000447158 0.000593354 0.00425974)
(-0.000601272 0.000492497 0.00428819)
(-0.000726811 0.000424384 0.0043195)
(-0.00083731 0.000379036 0.00434701)
(-0.000932017 0.000351591 0.00437337)
(-0.00100847 0.000328551 0.00439636)
(-0.00107315 0.000307375 0.00440968)
(-0.00113237 0.000295227 0.00441982)
(-0.00118231 0.000288111 0.00442945)
(-0.00122584 0.000292258 0.0044391)
(-0.00126378 0.000292333 0.00445158)
(-0.0012897 0.000319945 0.00446566)
(-0.0013314 0.000271964 0.00447184)
(-0.00128904 0.000402854 0.00450575)
(-0.00139088 0.00012001 0.00449045)
(-0.00120135 0.000585731 0.00455783)
(-0.00145414 -0.000254421 0.00450332)
(-0.00101269 0.000934722 0.00461462)
(-0.00149303 -0.000936079 0.0045002)
(-0.000654231 0.00154217 0.00468919)
(-0.00146123 -0.00191189 0.00444255)
(-0.000125303 0.00265577 0.00474352)
(-0.00114496 -0.00288635 0.0043582)
(0.000575385 0.00466593 0.00478357)
(-0.000445504 -0.00363923 0.00451048)
(0.00150356 0.00779582 0.00524726)
(0.000494581 -0.00600634 0.00520159)
(0.00305637 0.0112224 0.00630523)
(0.00395364 -0.0132892 0.00600108)
(0.00406112 0.0114401 0.00285413)
(0.00207274 -0.0172808 0.00168985)
(0.00680176 0.0264783 0.00420973)
(0.00272308 -0.0196881 -0.00585105)
(0.00187116 0.0393629 0.0212773)
(0.00920804 -0.0497982 0.0243816)
(0.022916 0.0882943 0.0692191)
(-0.111725 -0.149222 0.0530069)
(-0.0524502 0.170351 -0.146953)
(0.132314 -0.288246 -0.0389263)
(0.191874 -0.0816186 -0.0396741)
(0.0418034 0.121611 0.00173181)
(0.0521777 0.0397851 0.00886198)
(-0.00890209 0.0698833 0.010461)
(0.00314852 0.0318029 0.0047496)
(-0.0131786 0.0283036 -0.00924908)
(-0.00979235 0.0395284 -0.0202282)
(-0.0112437 0.0590452 -0.0166408)
(-0.015084 0.07382 -0.0155908)
(-0.0171786 0.0898521 -0.0140002)
(-0.0180962 0.101913 -0.0113839)
(-0.0172097 0.110982 -0.00819608)
(-0.0121814 0.117632 -0.00361208)
(-0.00459517 0.120597 0.00146811)
(0.00368202 0.120058 0.00584314)
(0.0100125 0.115601 0.00917455)
(0.0152538 0.11016 0.0119078)
(0.0195841 0.101533 0.0137932)
(0.0232364 0.0918993 0.014915)
(0.0261474 0.0813614 0.0158006)
(0.0275509 0.0685479 0.0156784)
(0.0272112 0.0565669 0.0149211)
(0.0246822 0.0431499 0.0134705)
(0.0205252 0.0314491 0.0114292)
(0.0150227 0.0214155 0.00981476)
(0.00891481 0.0141931 0.00878997)
(0.00212229 0.00953157 0.00832975)
(-0.00754068 0.00476744 0.00675007)
(-0.020472 0.00236591 0.00403955)
(-0.0397559 0.00338433 -0.00577934)
(-0.0554977 0.0081769 -0.0170744)
(-0.0445322 0.019571 -0.0105762)
(-0.0280041 0.0198931 -0.00142778)
(-0.0247762 0.0269077 0.0110446)
(-0.0326296 0.0217198 0.0274761)
(-0.0390032 0.0109614 0.0381821)
(0.0247365 0.0268257 0.00380277)
(0.0309349 0.0334568 0.00570126)
(0.0262995 0.0231993 0.00232878)
(0.0277325 0.0234243 0.00456464)
(0.0214186 0.014455 0.00294809)
(0.0221425 0.0134888 0.00403452)
(0.012141 0.00641374 0.0013341)
(0.00810713 0.0071669 0.00129653)
(0.00194613 0.00239469 0.00107342)
(0.0010361 0.00305798 0.00203544)
(0.00117649 0.000274542 0.00201814)
(0.00165298 0.000383552 0.00323219)
(0.00104422 0.000206401 0.00331236)
(0.000931132 0.00125143 0.00382785)
(0.000525673 0.00136227 0.00379794)
(0.000337292 0.00162542 0.00401645)
(-6.66127e-05 0.00143571 0.00398605)
(-0.000337213 0.00134346 0.00400693)
(-0.000645132 0.00112078 0.00393893)
(-0.000890977 0.000956838 0.00388961)
(-0.0011069 0.000801406 0.00383489)
(-0.00127794 0.000698943 0.00379727)
(-0.00140726 0.000628819 0.00377083)
(-0.0015064 0.000592495 0.0037497)
(-0.00158315 0.000575151 0.00373211)
(-0.00164049 0.000575364 0.00371786)
(-0.00168305 0.000575703 0.00369736)
(-0.00172274 0.000580018 0.0036665)
(-0.00175788 0.000582918 0.0036335)
(-0.00178418 0.000587258 0.00360202)
(-0.00180559 0.000593789 0.00357406)
(-0.00182075 0.000598781 0.00355216)
(-0.00182968 0.000616526 0.00353488)
(-0.00183603 0.000577633 0.00352036)
(-0.00178649 0.000684366 0.00353204)
(-0.00183874 0.000445621 0.00350245)
(-0.00164017 0.000873111 0.00357463)
(-0.00184621 0.000116094 0.0034826)
(-0.00135345 0.00123764 0.00365844)
(-0.00183502 -0.000455157 0.00346044)
(-0.000885143 0.00188473 0.0037843)
(-0.00178015 -0.001151 0.00342736)
(-0.000429913 0.00298941 0.00382732)
(-0.00155765 -0.00154288 0.003414)
(-0.000293315 0.00486471 0.00359941)
(-0.0012173 -0.00152035 0.00356407)
(0.000516712 0.00795871 0.0037204)
(-0.000445806 -0.00351402 0.00401319)
(0.00420248 0.0121704 0.0056181)
(0.00282453 -0.0114553 0.00383587)
(0.00359418 0.0148123 0.000802643)
(-0.000549519 -0.0112866 0.00119299)
(0.00309771 0.0247946 0.00219066)
(0.0110778 -0.0173911 -0.00539022)
(0.00277746 0.0287424 0.0383333)
(-0.0290585 -0.05963 0.0464009)
(0.0346012 0.0644486 0.0923542)
(-0.108222 -0.115966 0.0816432)
(0.0175863 0.025408 -0.199497)
(0.0639158 -0.290138 -0.0382604)
(0.163007 -0.0104579 -0.0531351)
(0.0410451 0.144871 -0.0116371)
(0.0308979 0.136353 -0.00187484)
(0.00292287 0.155249 -0.000401325)
(-0.0017916 0.157065 -0.00331342)
(-0.0103626 0.159232 -0.00531606)
(-0.0114401 0.169249 -0.00519975)
(-0.0142094 0.172675 -0.00331869)
(-0.0128308 0.180493 -0.00264935)
(-0.0129191 0.183773 -0.000638684)
(-0.0110374 0.186915 0.00109219)
(-0.00957034 0.186772 0.00372502)
(-0.0048783 0.187453 0.00612048)
(-0.000216443 0.185995 0.00891088)
(0.00471525 0.184447 0.0104836)
(0.00966835 0.179637 0.0127175)
(0.0146622 0.174424 0.01412)
(0.0190445 0.16554 0.0152492)
(0.0235783 0.156622 0.0166122)
(0.0269481 0.145123 0.0173621)
(0.0285808 0.131432 0.0173878)
(0.0288437 0.117642 0.0169073)
(0.0263422 0.100621 0.0151013)
(0.021232 0.0843845 0.0119342)
(0.0130546 0.0686381 0.00798597)
(0.00319108 0.0557239 0.00370108)
(-0.00670909 0.0469668 -0.000225481)
(-0.0166572 0.0420971 -0.00428483)
(-0.0266536 0.0396308 -0.00909176)
(-0.0352417 0.0359895 -0.0133891)
(-0.0399267 0.0302523 -0.014485)
(-0.0273054 0.0241915 -0.00582129)
(-0.0199324 0.0228983 0.00197178)
(-0.0238571 0.023289 0.0122776)
(-0.0333104 0.0181432 0.0279065)
(-0.0415928 0.00747073 0.0377374)
(0.018462 0.0267451 0.00562434)
(0.0279909 0.0368795 0.0087054)
(0.024186 0.0221942 0.00368357)
(0.0275067 0.0247061 0.00709058)
(0.0205138 0.0114784 0.00538316)
(0.0211504 0.0111561 0.00767353)
(0.0109581 0.00237813 0.00460584)
(0.00949593 0.00580704 0.0028406)
(0.00258772 0.00114012 0.0019969)
(0.00174645 0.00289109 0.00313442)
(0.00107744 -0.00104595 0.00320001)
(-0.000187914 -0.000601925 0.00377012)
(-0.00186411 -0.00102711 0.00345604)
(-0.00221777 0.000260891 0.00399895)
(-0.00251211 0.000382714 0.00414996)
(-0.00251027 0.000898679 0.00449559)
(-0.00293018 0.000945368 0.00447747)
(-0.00319683 0.00114273 0.00445926)
(-0.00357082 0.0011087 0.00434385)
(-0.00386382 0.00111226 0.00426557)
(-0.00413345 0.00106702 0.00417816)
(-0.00435179 0.00104404 0.00410637)
(-0.0045241 0.00102432 0.00403198)
(-0.00464826 0.00102483 0.0039659)
(-0.0047371 0.00103443 0.00391)
(-0.00478979 0.00105269 0.00385905)
(-0.00481003 0.00107576 0.0038022)
(-0.00480389 0.00109473 0.00375264)
(-0.0047862 0.00110067 0.00371493)
(-0.00475871 0.00110625 0.00368323)
(-0.00472541 0.00111009 0.00365736)
(-0.0046822 0.00111061 0.00363911)
(-0.00464016 0.00111449 0.00362556)
(-0.00458599 0.00108625 0.00361928)
(-0.00451332 0.00115631 0.00362541)
(-0.00447529 0.00096034 0.00362252)
(-0.00429272 0.00130948 0.00368999)
(-0.00434313 0.000680496 0.00364059)
(-0.00394555 0.00165194 0.00382285)
(-0.00419044 0.000268132 0.00368907)
(-0.00349983 0.00228226 0.00400363)
(-0.00402604 -0.000114803 0.00378443)
(-0.00323064 0.0033524 0.00405115)
(-0.00379471 -0.000279759 0.00386712)
(-0.00322967 0.00506686 0.00368656)
(-0.00356754 -0.000708948 0.00372898)
(-0.00215239 0.00769972 0.00337115)
(-0.00289637 -0.00316505 0.0036084)
(0.00245857 0.0114452 0.00546267)
(0.000218654 -0.00837365 0.0036339)
(-0.000898592 0.0158978 0.00130584)
(-0.000833911 -0.0113139 0.00155323)
(0.00180086 0.0200319 0.000696686)
(0.0134895 -0.019106 -0.00512201)
(0.0042482 0.0331298 0.0207532)
(-0.0429168 -0.0474424 0.0382721)
(-0.00311183 -0.0128414 0.0785619)
(-0.0553962 -0.100213 0.102633)
(0.0317462 -0.144735 -0.216592)
(0.031555 -0.296155 -0.040619)
(0.0910808 0.0822623 -0.0566093)
(0.0168531 0.225184 -0.010517)
(0.00665626 0.25587 0.000211928)
(-0.00603104 0.265607 0.00601998)
(-0.00683013 0.27348 0.00730483)
(-0.0111299 0.274986 0.00679454)
(-0.0111425 0.27848 0.00685428)
(-0.0123072 0.278221 0.00653716)
(-0.0127369 0.27976 0.00669028)
(-0.0124452 0.280138 0.00730342)
(-0.0109608 0.279333 0.00824104)
(-0.00911914 0.278181 0.00950139)
(-0.00536857 0.276843 0.0108677)
(-0.000634036 0.274962 0.0123425)
(0.00424438 0.271659 0.0135525)
(0.0103323 0.268279 0.0149552)
(0.0170067 0.263225 0.0162953)
(0.0236565 0.257419 0.0177893)
(0.0300687 0.249829 0.0196529)
(0.0350739 0.240127 0.0214105)
(0.0387648 0.228069 0.023539)
(0.0405494 0.21373 0.0250567)
(0.0399087 0.1968 0.0253908)
(0.0371775 0.17793 0.0241159)
(0.0316497 0.15586 0.0212268)
(0.0234736 0.132029 0.0169044)
(0.0139821 0.108237 0.0116096)
(0.00410208 0.0854619 0.00632325)
(-0.00464959 0.0682137 0.00379636)
(-0.0105826 0.0549174 0.00469864)
(-0.0139661 0.0407061 0.00764171)
(-0.0149393 0.0287986 0.0112845)
(-0.0184362 0.0224921 0.0149374)
(-0.0282112 0.0175054 0.020447)
(-0.0437309 0.0129391 0.029124)
(-0.0599719 0.00365581 0.0364143)
(0.0132887 0.0240622 0.00454264)
(0.0238913 0.041453 0.00897993)
(0.0196989 0.0203287 0.0045977)
(0.0251358 0.0258709 0.00833633)
(0.0190386 0.0083634 0.00717292)
(0.0193318 0.00987517 0.00981062)
(0.00843358 0.000624099 0.00728948)
(0.00746877 0.0048911 0.0059064)
(0.00092605 -0.000961696 0.00454125)
(0.0013787 0.00211378 0.00482279)
(0.000618972 -0.00254761 0.00471738)
(-0.000406795 -0.000766107 0.00502148)
(-0.00213972 -0.00124158 0.00514468)
(-0.00245092 -0.000127107 0.00565149)
(-0.0028875 -0.000497161 0.00612808)
(-0.00301405 0.000293981 0.00645433)
(-0.00349701 0.000338581 0.00657233)
(-0.00359786 0.000875275 0.00663364)
(-0.00383497 0.00100533 0.00655026)
(-0.00397058 0.00121319 0.00645615)
(-0.00410333 0.00129374 0.00633896)
(-0.0041811 0.00135901 0.00624202)
(-0.00421399 0.00139826 0.00617447)
(-0.00420817 0.00143624 0.00613576)
(-0.00417642 0.00148108 0.00610697)
(-0.00412929 0.00154188 0.00607756)
(-0.00407422 0.00160044 0.0060432)
(-0.0040169 0.00163931 0.00600945)
(-0.00396094 0.0016573 0.00598077)
(-0.00390316 0.00166625 0.00595393)
(-0.00384409 0.00166786 0.00592965)
(-0.00377773 0.00166119 0.00590933)
(-0.00371966 0.00165406 0.00588936)
(-0.00364456 0.00162205 0.00587685)
(-0.0035695 0.00165999 0.00587284)
(-0.00349554 0.00149789 0.00587166)
(-0.00335399 0.00180366 0.00590876)
(-0.00334115 0.00128076 0.00586477)
(-0.00303485 0.00215858 0.00598982)
(-0.00319421 0.00103169 0.00586607)
(-0.00270269 0.002825 0.00606828)
(-0.00311534 0.000893213 0.00585057)
(-0.00261348 0.0038908 0.0059433)
(-0.00304881 0.000701167 0.00571175)
(-0.00284747 0.00533163 0.00536574)
(-0.00298186 -0.000565506 0.00528949)
(-0.00205975 0.00732408 0.00497354)
(-0.0027186 -0.00397951 0.00515404)
(0.00174835 0.0108343 0.00727319)
(4.37933e-05 -0.00748776 0.00648353)
(0.000897469 0.0171015 0.00742451)
(0.00154727 -0.0144903 0.00652383)
(-7.90313e-05 0.0147518 0.0058194)
(0.00909344 -0.0192789 0.00838844)
(0.00247246 0.0396982 0.0204187)
(-0.00579938 -0.0297514 0.0313532)
(-0.0211834 -0.013485 0.0753512)
(-0.0159662 -0.0995351 0.105515)
(-1.33954e-05 -0.172357 -0.201053)
(-0.00873503 -0.267252 -0.0494491)
(-0.00981883 0.138691 -0.0690462)
(-0.023266 0.273689 -0.0148444)
(-0.0197295 0.311047 0.00129129)
(-0.0184595 0.324511 0.0102075)
(-0.0178984 0.329816 0.0117069)
(-0.0171111 0.330523 0.0110661)
(-0.0163819 0.330762 0.0109046)
(-0.01594 0.32872 0.0100151)
(-0.0156542 0.325422 0.0100544)
(-0.0150751 0.321809 0.0101947)
(-0.0137038 0.317455 0.0107249)
(-0.0113947 0.313218 0.0110841)
(-0.00817136 0.308525 0.0116409)
(-0.00312479 0.304383 0.01168)
(0.00279931 0.299466 0.0116574)
(0.00948124 0.294242 0.0115394)
(0.0169925 0.289358 0.0114897)
(0.0242503 0.284937 0.0120809)
(0.0307348 0.281007 0.013556)
(0.0359004 0.277017 0.0160476)
(0.039705 0.273059 0.0196692)
(0.041398 0.268475 0.0236651)
(0.0412435 0.263546 0.0277573)
(0.0399619 0.257854 0.0303311)
(0.0362403 0.251452 0.0319134)
(0.0312089 0.243485 0.0326313)
(0.0253567 0.233001 0.0323966)
(0.0183776 0.219909 0.0321062)
(0.011484 0.20377 0.032055)
(0.00532962 0.18328 0.0319673)
(-0.000470503 0.163467 0.0333392)
(-0.00630577 0.141568 0.0346308)
(-0.0152465 0.118739 0.0350833)
(-0.0280097 0.0924169 0.0346859)
(-0.0438611 0.0604732 0.0327532)
(-0.0556922 0.0161364 0.0286158)
(-0.00460261 0.0196132 -0.0140015)
(0.0192698 0.0447096 0.00279992)
(0.014021 0.017835 0.000562123)
(0.0214619 0.0268006 0.00541938)
(0.0139562 0.00501719 0.0039617)
(0.0129359 0.00944767 0.00607359)
(0.00321417 0.00290953 0.00506701)
(0.00423562 0.00616839 0.00466702)
(-0.00214406 0.000246118 0.00250788)
(-0.000899084 0.00304801 0.00183567)
(-0.00202951 -0.00160307 0.00130766)
(-0.00421666 0.000421725 0.000952429)
(-0.00643323 -0.00145303 0.00148018)
(-0.00609636 -0.000323993 0.00190459)
(-0.00705838 -0.00105266 0.00258074)
(-0.00698189 -1.88657e-05 0.0028455)
(-0.00762193 -8.12595e-05 0.00316067)
(-0.00775717 0.000651351 0.0033447)
(-0.00810728 0.000829039 0.00343913)
(-0.00830621 0.00117521 0.00349359)
(-0.00850217 0.00134069 0.00349814)
(-0.00865307 0.00148176 0.0034999)
(-0.008773 0.0015735 0.00349887)
(-0.008865 0.00164835 0.00350297)
(-0.00893232 0.0017033 0.00351166)
(-0.00892599 0.00176997 0.00353509)
(-0.00885305 0.00183596 0.0035591)
(-0.00874284 0.00188225 0.00358483)
(-0.00863159 0.00190905 0.00361201)
(-0.00852071 0.00192358 0.00363592)
(-0.00840455 0.00192942 0.00365722)
(-0.00827432 0.00192636 0.00367706)
(-0.00814755 0.00192109 0.00369075)
(-0.00799432 0.00189728 0.00370379)
(-0.00785823 0.00192093 0.00371172)
(-0.00768337 0.00180158 0.00372797)
(-0.0075591 0.00204393 0.00375407)
(-0.00734059 0.00163851 0.00377959)
(-0.00724339 0.00237562 0.00382493)
(-0.00702046 0.00150003 0.00384333)
(-0.00699036 0.00303034 0.00388062)
(-0.0067003 0.00148507 0.00389112)
(-0.00688469 0.00410971 0.00377851)
(-0.00630606 0.00130769 0.0037371)
(-0.00660244 0.00564657 0.00325911)
(-0.00615858 -0.000371742 0.0031428)
(-0.00533445 0.00753328 0.00287608)
(-0.00657417 -0.0047448 0.0025335)
(-0.00270602 0.0103846 0.00478761)
(-0.00539985 -0.00856033 0.00426701)
(-0.00376937 0.0168355 0.0064411)
(0.00095864 -0.0146525 0.00598509)
(-0.00832164 0.0134398 0.0059012)
(-0.00646905 -0.0278288 0.00775641)
(-0.00865093 0.0367917 0.0113721)
(0.0109686 -0.0363852 0.0209593)
(-0.0161621 0.0192444 0.0715827)
(0.0191882 -0.113011 0.0867994)
(-0.0661064 -0.174224 -0.214402)
(-0.05641 -0.273845 -0.0474675)
(-0.119184 0.114728 -0.0650712)
(-0.0564269 0.245356 -0.013449)
(-0.040878 0.271034 0.000493035)
(-0.0298303 0.274949 0.00800638)
(-0.0236332 0.268231 0.00962184)
(-0.0215828 0.259963 0.00767347)
(-0.0198803 0.249003 0.00844458)
(-0.0174912 0.237698 0.00610839)
(-0.0162139 0.224825 0.00621575)
(-0.0153676 0.210678 0.00536131)
(-0.0136021 0.196456 0.00633162)
(-0.0119069 0.181574 0.00525611)
(-0.00895005 0.166403 0.0051664)