/*--------------------------------*- C++ -*----------------------------------*\
| =========                 |                                                 |
| \\      /  F ield         | OpenFOAM: The Open Source CFD Toolbox           |
|  \\    /   O peration     | Version:  2.3.0                                 |
|   \\  /    A nd           | Web:      www.OpenFOAM.org                      |
|    \\/     M anipulation  |                                                 |
\*---------------------------------------------------------------------------*/
FoamFile
{
    version     2.0;
    format      ascii;
    class       volVectorField;
    location    "18";
    object      Ur;
}
// * * * * * * * * * * * * * * * * * * * * * * * * * * * * * * * * * * * * * //

dimensions      [0 1 -1 0 0 0 0];

internalField   nonuniform List<vector> 
6144
(
(-4.38165e-07 0.000374622 -1.00799e-06)
(-1.20506e-07 0.00040408 -1.00072e-06)
(1.86095e-07 0.000435631 -7.08017e-07)
(2.5434e-07 0.000460574 -4.94717e-07)
(3.99129e-07 0.000487261 -2.81617e-07)
(4.60386e-07 0.000518983 -2.23941e-07)
(5.24396e-07 0.000550735 -1.00783e-07)
(5.64791e-07 0.000570601 -3.86056e-08)
(5.54412e-07 0.000575545 2.91202e-08)
(4.98896e-07 0.000574694 3.24223e-08)
(4.30801e-07 0.000573389 1.28159e-08)
(3.60902e-07 0.000572183 2.47338e-08)
(2.97498e-07 0.000571125 2.00904e-08)
(2.47696e-07 0.000570215 2.26099e-08)
(2.0896e-07 0.000569422 1.24921e-08)
(1.78112e-07 0.000568724 7.13126e-09)
(1.49174e-07 0.000568101 -2.58604e-09)
(1.26049e-07 0.000567555 -8.6164e-09)
(1.06968e-07 0.000567102 -1.3216e-08)
(8.97913e-08 0.000566713 -1.6351e-08)
(7.6703e-08 0.000566345 -1.75011e-08)
(6.31781e-08 0.000566005 -1.86397e-08)
(5.36905e-08 0.000565714 -1.78503e-08)
(4.25771e-08 0.000565459 -1.78281e-08)
(3.53145e-08 0.000565219 -1.59778e-08)
(2.61091e-08 0.000564983 -1.50771e-08)
(2.02693e-08 0.000564775 -1.2596e-08)
(1.25395e-08 0.000564611 -1.11318e-08)
(7.51154e-09 0.000564467 -8.33728e-09)
(1.07229e-09 0.000564334 -6.12971e-09)
(-3.48559e-09 0.000564214 -2.84539e-09)
(-9.11588e-09 0.000564098 -2.77951e-10)
(-1.34588e-08 0.000563987 3.59335e-09)
(-1.86619e-08 0.000563861 5.93655e-09)
(-2.28804e-08 0.000563753 1.1147e-08)
(-2.8628e-08 0.000563602 1.20023e-08)
(-3.26631e-08 0.000563489 1.98427e-08)
(-3.8258e-08 0.000563275 1.81367e-08)
(-4.15879e-08 0.000563122 3.1121e-08)
(-4.28137e-08 0.00056283 2.472e-08)
(-5.24647e-08 0.000562678 4.05457e-08)
(-6.09745e-08 0.000562366 4.61054e-08)
(-6.04704e-08 0.000562281 5.04466e-08)
(-6.93483e-08 0.000561886 4.39879e-08)
(-7.28307e-08 0.000561906 5.75196e-08)
(-5.87423e-08 0.000561282 2.57466e-09)
(-5.5015e-08 0.000561574 5.02814e-09)
(-8.75909e-09 0.000560242 -3.97563e-08)
(3.09169e-08 0.000564752 -5.13044e-08)
(9.17558e-08 0.000580002 -2.92073e-08)
(1.41814e-07 0.000637049 1.91157e-09)
(2.29465e-07 0.000739638 -2.67027e-08)
(6.88018e-07 0.00103182 4.60286e-07)
(-1.54601e-06 0.00155115 -1.17354e-06)
(3.64855e-06 0.00236231 1.66522e-06)
(-2.58823e-05 0.00385979 -2.27911e-05)
(5.03789e-05 0.00704205 2.83772e-05)
(6.13896e-05 0.0109402 -7.82513e-05)
(0.000285824 0.0208788 0.00143443)
(0.00723193 0.11389 0.0144938)
(-0.0320206 0.583126 0.0274984)
(-0.0368569 0.497025 0.0109745)
(-0.0489458 0.300331 0.0194304)
(0.000142196 0.0303141 1.43042e-05)
(-8.4465e-05 0.00800769 -5.89172e-06)
(-6.30772e-05 0.00835105 -1.14499e-06)
(-3.45533e-05 0.00837012 -1.34966e-05)
(-2.44255e-05 0.00839635 -2.53921e-05)
(-2.04654e-05 0.00842228 -2.86995e-05)
(-1.52854e-05 0.00844637 -2.55359e-05)
(-8.32477e-06 0.00846491 -2.15958e-05)
(-6.18817e-07 0.00847536 -1.88711e-05)
(6.2153e-06 0.00847663 -1.65584e-05)
(1.00727e-05 0.0084717 -1.38315e-05)
(1.05858e-05 0.00846502 -1.11578e-05)
(9.2186e-06 0.00845811 -8.9022e-06)
(8.47761e-06 0.00845057 -7.20132e-06)
(8.80698e-06 0.00844329 -5.70475e-06)
(8.22656e-06 0.00843331 -4.7993e-06)
(6.84499e-06 0.00842367 -3.94923e-06)
(4.3905e-06 0.00841887 -3.4507e-06)
(8.35859e-07 0.00841965 -3.00739e-06)
(-2.43035e-06 0.00842735 -2.8053e-06)
(-5.60405e-06 0.00843718 -2.51117e-06)
(-9.14804e-06 0.00845529 -2.31976e-06)
(-1.2135e-05 0.00847622 -2.41211e-06)
(-1.33445e-05 0.00849566 -1.6484e-06)
(-1.83796e-05 0.00851902 -4.54251e-06)
(-1.87839e-05 0.00854851 -6.93953e-06)
(-2.20901e-05 0.00856338 -1.30709e-05)
(-1.9886e-05 0.00829264 -2.25116e-05)
(-8.47039e-06 0.00714808 -1.8731e-05)
(-4.11463e-06 0.00565347 -8.87799e-06)
(-2.64194e-06 0.0050644 -8.01006e-06)
(-5.10611e-06 0.00501378 -2.16663e-05)
(-1.92524e-06 0.0048138 -7.72643e-06)
(-1.64583e-07 0.000377123 -1.35047e-06)
(7.56789e-07 0.000397365 -8.82423e-07)
(1.08502e-06 0.000422659 -5.10392e-07)
(1.19823e-06 0.000452499 -3.66021e-07)
(1.49133e-06 0.00048573 -1.47454e-07)
(1.62086e-06 0.000519996 -7.62417e-08)
(1.70919e-06 0.00055417 3.27119e-08)
(1.66602e-06 0.000573167 7.82229e-08)
(1.59212e-06 0.000575865 1.28981e-07)
(1.417e-06 0.000574585 1.66563e-07)
(1.21814e-06 0.000573339 1.44132e-07)
(1.01513e-06 0.000572185 1.6255e-07)
(8.4185e-07 0.000571162 1.46672e-07)
(7.08095e-07 0.000570266 1.44821e-07)
(6.03353e-07 0.000569463 1.29976e-07)
(5.16356e-07 0.000568755 1.25266e-07)
(4.38708e-07 0.000568144 1.15907e-07)
(3.74729e-07 0.000567633 1.1238e-07)
(3.20917e-07 0.000567186 1.07656e-07)
(2.7448e-07 0.00056677 1.07035e-07)
(2.35176e-07 0.000566389 1.04777e-07)
(1.99103e-07 0.000566057 1.06086e-07)
(1.68326e-07 0.000565772 1.05236e-07)
(1.38706e-07 0.000565519 1.07579e-07)
(1.13302e-07 0.000565267 1.07954e-07)
(8.81777e-08 0.000565019 1.11075e-07)
(6.62991e-08 0.000564824 1.12264e-07)
(4.3989e-08 0.000564671 1.1532e-07)
(2.41589e-08 0.00056452 1.16966e-07)
(3.66041e-09 0.000564381 1.20094e-07)
(-1.49895e-08 0.000564277 1.22741e-07)
(-3.46827e-08 0.000564176 1.2572e-07)
(-5.1683e-08 0.000564069 1.30156e-07)
(-7.14122e-08 0.000563933 1.31556e-07)
(-8.71608e-08 0.00056383 1.38554e-07)
(-1.0988e-07 0.000563685 1.37988e-07)
(-1.20375e-07 0.000563573 1.49058e-07)
(-1.49014e-07 0.000563334 1.43659e-07)
(-1.57031e-07 0.00056316 1.58821e-07)
(-1.87921e-07 0.000562808 1.44657e-07)
(-1.97333e-07 0.000562691 1.69369e-07)
(-2.22113e-07 0.00056235 1.65239e-07)
(-2.3941e-07 0.000562334 1.65806e-07)
(-2.44314e-07 0.000561898 1.81933e-07)
(-2.72741e-07 0.00056201 1.6108e-07)
(-2.19733e-07 0.000561301 1.64411e-07)
(-2.15669e-07 0.000561726 9.7037e-08)
(-1.24315e-07 0.000560491 1.44469e-07)
(2.3349e-08 0.000562207 1.69613e-08)
(7.42505e-08 0.000570151 9.63029e-08)
(3.88923e-07 0.000604231 9.56434e-08)
(6.55993e-07 0.000668089 6.44168e-08)
(1.70838e-06 0.00103127 9.40204e-07)
(-2.91502e-06 0.0016652 -3.48436e-07)
(-7.87235e-07 0.00225444 2.71198e-06)
(-1.61689e-05 0.00357236 -6.64495e-06)
(-0.000101059 0.00730564 5.5714e-06)
(-0.000447464 0.0111174 -0.000207222)
(-0.00156915 0.0229558 0.00159854)
(-0.00390767 0.106204 0.010355)
(-0.0865373 0.559016 0.0241699)
(-0.0507793 0.311168 0.00445094)
(-0.00261772 0.0234214 -8.74375e-05)
(7.36095e-05 0.00872781 -6.3042e-05)
(-7.93878e-05 0.00830316 -6.52827e-06)
(-4.92537e-05 0.00839863 -1.36746e-05)
(-3.47788e-05 0.00841538 -2.89695e-05)
(-3.17189e-05 0.00841376 -3.45164e-05)
(-2.71716e-05 0.00842813 -3.21475e-05)
(-1.94244e-05 0.00845063 -2.75e-05)
(-9.11601e-06 0.00846942 -2.35813e-05)
(1.71269e-06 0.00848323 -2.08864e-05)
(1.18384e-05 0.00848942 -1.85128e-05)
(1.97637e-05 0.00848619 -1.56781e-05)
(2.5127e-05 0.00847428 -1.15098e-05)
(2.87947e-05 0.00846115 -7.76343e-06)
(2.86132e-05 0.00845464 -5.08561e-06)
(2.42176e-05 0.00845552 -3.46079e-06)
(1.84994e-05 0.00846407 -2.67319e-06)
(1.2522e-05 0.00847927 -2.19944e-06)
(6.6215e-06 0.00849782 -1.96959e-06)
(1.14183e-06 0.00851938 -1.31119e-06)
(-5.01346e-06 0.0085445 -1.09277e-06)
(-1.05658e-05 0.00858064 -1.04052e-06)
(-1.62808e-05 0.00862342 -6.27419e-07)
(-2.26779e-05 0.00865572 -8.37061e-07)
(-3.05416e-05 0.00867123 -4.95397e-07)
(-3.97088e-05 0.00867363 -2.61246e-06)
(-4.57276e-05 0.0086673 -5.06174e-06)
(-4.84628e-05 0.00864613 -8.95828e-06)
(-4.72883e-05 0.00839436 -2.0105e-05)
(-2.98613e-05 0.00735388 -1.94148e-05)
(-1.23217e-05 0.00591745 -1.20981e-05)
(-9.12374e-06 0.00527117 -5.6703e-06)
(-9.53168e-06 0.00519993 -1.48547e-05)
(-6.78601e-06 0.00504415 -3.72755e-06)
(2.27436e-07 0.0003825 -6.1037e-07)
(1.74257e-06 0.000395764 -3.89573e-07)
(2.10062e-06 0.000414725 -3.02715e-07)
(2.45197e-06 0.000440549 -2.0002e-07)
(2.78527e-06 0.000472726 1.76315e-08)
(2.95833e-06 0.000510088 8.88243e-08)
(2.94593e-06 0.000547524 1.84783e-07)
(2.76656e-06 0.000570555 2.43946e-07)
(2.47342e-06 0.000575655 1.99356e-07)
(2.14237e-06 0.000574304 2.21557e-07)
(1.80163e-06 0.000573036 1.79496e-07)
(1.47073e-06 0.000571912 1.8983e-07)
(1.18695e-06 0.000570934 1.74468e-07)
(9.72361e-07 0.000570082 1.73359e-07)
(7.97485e-07 0.000569324 1.58207e-07)
(6.60143e-07 0.00056865 1.54097e-07)
(5.42806e-07 0.000568062 1.47132e-07)
(4.4749e-07 0.000567563 1.47613e-07)
(3.66477e-07 0.000567123 1.46678e-07)
(2.95706e-07 0.000566716 1.47599e-07)
(2.3464e-07 0.000566349 1.48343e-07)
(1.7808e-07 0.000566028 1.48895e-07)
(1.28537e-07 0.000565752 1.50013e-07)
(8.04006e-08 0.000565505 1.50928e-07)
(3.74539e-08 0.000565262 1.52793e-07)
(-5.20472e-09 0.000565029 1.54444e-07)
(-4.4048e-08 0.000564842 1.56515e-07)
(-8.34364e-08 0.000564689 1.5797e-07)
(-1.18498e-07 0.000564543 1.59989e-07)
(-1.54975e-07 0.000564415 1.62085e-07)
(-1.89869e-07 0.000564314 1.64681e-07)
(-2.2614e-07 0.000564205 1.6695e-07)
(-2.59242e-07 0.000564096 1.70267e-07)
(-2.9643e-07 0.000563965 1.71589e-07)
(-3.2774e-07 0.000563859 1.77377e-07)
(-3.66818e-07 0.000563723 1.78508e-07)
(-3.96207e-07 0.000563603 1.8228e-07)
(-4.38526e-07 0.000563392 1.84767e-07)
(-4.65946e-07 0.000563218 1.89179e-07)
(-5.20957e-07 0.000562908 1.86769e-07)
(-5.31894e-07 0.000562803 1.99133e-07)
(-5.87633e-07 0.000562439 1.82515e-07)
(-6.07175e-07 0.000562478 2.02244e-07)
(-6.25175e-07 0.000561988 1.76892e-07)
(-6.32638e-07 0.000562167 2.11549e-07)
(-6.01103e-07 0.000561414 1.61559e-07)
(-5.26129e-07 0.00056193 2.24436e-07)
(-4.59973e-07 0.000560607 1.92606e-07)
(-2.19882e-07 0.000563705 2.14837e-07)
(-2.80616e-07 0.000576142 2.41408e-07)
(1.683e-07 0.000626235 2.11206e-07)
(6.54219e-07 0.000700148 1.3737e-07)
(2.70327e-06 0.000962141 1.04934e-06)
(-1.00999e-06 0.00146464 1.2466e-06)
(1.38917e-05 0.00232306 5.65626e-06)
(8.6277e-05 0.00366294 -9.23261e-06)
(-0.000181801 0.00665017 7.31087e-05)
(-0.000838974 0.00920751 -1.83808e-05)
(-0.00220465 0.0181416 0.000801694)
(0.000382941 0.0986966 0.00787067)
(-0.0181674 0.410007 0.0117788)
(6.70692e-05 0.0357583 -0.000445768)
(9.88449e-05 0.00832147 1.16455e-05)
(-0.000212006 0.0092625 -4.25096e-06)
(-0.000111176 0.00861352 -1.0454e-05)
(-2.26804e-05 0.00877649 -8.83547e-06)
(-3.55337e-05 0.00880093 -3.50166e-05)
(-3.27707e-05 0.00878875 -4.37737e-05)
(-2.21372e-05 0.00875555 -3.91467e-05)
(-1.07638e-05 0.00871321 -3.28507e-05)
(1.6291e-06 0.00865975 -2.85278e-05)
(2.16422e-05 0.00859248 -2.44901e-05)
(4.44253e-05 0.00853715 -2.04056e-05)
(4.12767e-05 0.00851694 -1.66113e-05)
(2.41637e-05 0.00853122 -1.32031e-05)
(1.25568e-05 0.00857527 -1.03147e-05)
(6.95015e-06 0.00863297 -6.85997e-06)
(4.69135e-06 0.00866668 -5.46878e-06)
(4.44067e-06 0.00865887 -4.50784e-06)
(4.07905e-06 0.00862679 -3.64708e-06)
(3.59423e-06 0.0085927 -3.12578e-06)
(1.82836e-06 0.0085714 -2.96564e-06)
(-1.06277e-06 0.00858888 -2.69838e-06)
(-4.39345e-06 0.00865668 -2.31915e-06)
(-8.14348e-06 0.00876262 -1.53911e-06)
(-1.16851e-05 0.00886455 -2.09102e-07)
(-1.84514e-05 0.00891521 2.58325e-06)
(-2.91701e-05 0.00891822 1.86731e-06)
(-4.07812e-05 0.00889878 -1.16677e-06)
(-5.17097e-05 0.00883183 -8.11256e-06)
(-5.07369e-05 0.00844189 -1.83597e-05)
(-3.48899e-05 0.00727844 -1.96153e-05)
(-2.06534e-05 0.00590334 -1.11812e-05)
(-1.12381e-05 0.00538145 -4.99815e-06)
(-9.53794e-06 0.00532644 -1.13502e-05)
(-8.6215e-06 0.00515508 -1.23785e-06)
(3.30621e-07 0.000391232 -4.57085e-07)
(2.66979e-06 0.000400823 -2.18729e-07)
(3.15144e-06 0.000414216 -2.76595e-07)
(3.85519e-06 0.000435624 -2.10319e-07)
(4.08541e-06 0.00046417 2.55509e-08)
(4.20606e-06 0.000500468 8.35851e-08)
(4.09916e-06 0.000539191 2.37946e-07)
(3.78751e-06 0.000565965 2.18304e-07)
(3.27602e-06 0.000574449 2.16733e-07)
(2.76107e-06 0.000573907 1.8931e-07)
(2.28948e-06 0.000572559 1.61626e-07)
(1.83712e-06 0.000571486 1.62953e-07)
(1.48464e-06 0.000570583 1.58812e-07)
(1.19544e-06 0.000569763 1.54131e-07)
(9.6577e-07 0.000569049 1.44184e-07)
(7.73008e-07 0.00056842 1.40914e-07)
(6.17373e-07 0.000567856 1.34313e-07)
(4.92081e-07 0.000567372 1.35904e-07)
(3.84815e-07 0.000566946 1.33749e-07)
(2.95115e-07 0.000566559 1.37069e-07)
(2.14052e-07 0.000566201 1.36446e-07)
(1.43477e-07 0.000565888 1.40585e-07)
(7.7313e-08 0.000565619 1.39879e-07)
(1.74469e-08 0.000565372 1.43215e-07)
(-4.08356e-08 0.000565125 1.42655e-07)
(-9.48918e-08 0.0005649 1.46558e-07)
(-1.48266e-07 0.000564722 1.46541e-07)
(-1.99103e-07 0.000564575 1.49422e-07)
(-2.52107e-07 0.00056444 1.48137e-07)
(-3.02652e-07 0.000564318 1.50214e-07)
(-3.52714e-07 0.000564209 1.51185e-07)
(-4.02824e-07 0.000564092 1.53067e-07)
(-4.51073e-07 0.00056398 1.55221e-07)
(-5.04021e-07 0.00056386 1.55481e-07)
(-5.48684e-07 0.000563766 1.60348e-07)
(-6.03972e-07 0.000563628 1.58893e-07)
(-6.49096e-07 0.000563518 1.65407e-07)
(-7.05395e-07 0.000563301 1.61162e-07)
(-7.46233e-07 0.000563141 1.69781e-07)
(-8.09152e-07 0.000562865 1.62543e-07)
(-8.32549e-07 0.000562745 1.73454e-07)
(-9.10278e-07 0.000562428 1.56863e-07)
(-9.03025e-07 0.000562447 1.78347e-07)
(-9.81068e-07 0.000562018 1.37532e-07)
(-9.14124e-07 0.000562169 1.82412e-07)
(-1.00604e-06 0.000561522 1.34076e-07)
(-7.88866e-07 0.000561992 2.1875e-07)
(-8.89804e-07 0.00056074 1.76884e-07)
(-5.35373e-07 0.000565353 2.62105e-07)
(-7.35211e-07 0.000581889 2.40752e-07)
(-1.78394e-07 0.000647481 1.11201e-07)
(-2.63729e-07 0.000765404 5.61729e-09)
(3.20899e-06 0.000979089 8.63058e-07)
(6.39485e-06 0.0014897 2.32212e-06)
(-5.81048e-07 0.00270923 6.06503e-07)
(5.99285e-05 0.00380443 -3.79088e-05)
(8.60574e-05 0.0058848 4.20954e-05)
(-0.000464138 0.00767031 0.000141015)
(-0.00252469 0.0180333 0.00118051)
(0.0101912 0.109332 0.0050677)
(-0.013209 0.442797 0.0125995)
(-0.000794156 0.0353999 -0.000458507)
(0.000707168 0.00923826 0.000135603)
(-0.000303189 0.010261 -0.000108574)
(3.88442e-06 0.00968298 3.8078e-06)
(-6.78156e-05 0.0093035 -4.79315e-05)
(5.41581e-05 0.00882107 -0.000445658)
(0.000107239 0.00859157 -0.000316586)
(7.64069e-05 0.00855948 -0.000274978)
(2.67096e-05 0.008572 -1.80818e-05)
(-3.33854e-05 0.00865025 -1.65063e-05)
(-0.000122837 0.00902639 -0.000221406)
(-0.000230855 0.00958317 -0.000264955)
(-0.000263746 0.00960524 -0.000297303)
(-0.00019672 0.00924678 -1.42665e-05)
(-0.000123131 0.00887439 -1.86729e-05)
(-0.000135711 0.00878654 -1.5743e-05)
(-0.000115084 0.0087765 -0.000193102)
(-8.66525e-05 0.00881903 -0.000169393)
(-5.49824e-05 0.00863575 -8.13334e-06)
(-2.64424e-06 0.00846023 -8.63051e-06)
(1.21179e-06 0.00842282 -5.06788e-06)
(3.20895e-06 0.00840513 -3.53425e-06)
(3.26411e-06 0.00848064 -3.31785e-06)
(2.82196e-06 0.00865755 -3.09765e-06)
(1.73293e-06 0.00885027 -2.1669e-06)
(-3.72672e-07 0.00895335 -4.60698e-07)
(-4.19449e-06 0.00897801 1.43789e-06)
(-1.11112e-05 0.00895427 2.05371e-06)
(-2.16578e-05 0.00882962 -1.47763e-06)
(-2.56812e-05 0.00820813 -1.48859e-05)
(-2.07916e-05 0.00689046 -1.68916e-05)
(-1.75687e-05 0.005774 -7.5607e-06)
(-7.54059e-06 0.00546716 -5.15948e-06)
(-6.30936e-06 0.00539657 -8.57415e-06)
(-7.98505e-06 0.00519605 2.2609e-07)
(7.4998e-07 0.000398295 -5.61892e-07)
(3.97301e-06 0.000409874 -1.25173e-07)
(4.6274e-06 0.000421975 -4.27528e-07)
(5.62848e-06 0.000437478 -4.35754e-07)
(5.56015e-06 0.000457677 -1.51839e-07)
(5.66362e-06 0.00048407 -9.88575e-10)
(5.19753e-06 0.000516273 1.61652e-07)
(4.68575e-06 0.000549408 2.36428e-07)
(3.89969e-06 0.000569316 2.21473e-07)
(3.26288e-06 0.000573178 2.06794e-07)
(2.61151e-06 0.00057189 1.40196e-07)
(2.08427e-06 0.000570988 1.61115e-07)
(1.66763e-06 0.000570272 1.2597e-07)
(1.34237e-06 0.000569535 1.33379e-07)
(1.07835e-06 0.00056888 1.07563e-07)
(8.56782e-07 0.000568296 1.09608e-07)
(6.72997e-07 0.000567778 1.00331e-07)
(5.23804e-07 0.00056731 1.01281e-07)
(3.97647e-07 0.000566904 9.93335e-08)
(2.91182e-07 0.000566545 9.70247e-08)
(2.00202e-07 0.000566215 9.8232e-08)
(1.1742e-07 0.000565913 9.50679e-08)
(4.31404e-08 0.000565652 9.64778e-08)
(-2.79472e-08 0.000565414 9.36096e-08)
(-9.38243e-08 0.000565176 9.5438e-08)
(-1.58358e-07 0.000564957 9.35143e-08)
(-2.1969e-07 0.00056478 9.4776e-08)
(-2.80514e-07 0.000564628 9.27827e-08)
(-3.42303e-07 0.000564496 9.41055e-08)
(-4.02701e-07 0.000564389 9.28424e-08)
(-4.6262e-07 0.000564274 9.25681e-08)
(-5.22056e-07 0.00056414 9.22466e-08)
(-5.8136e-07 0.000564016 9.21754e-08)
(-6.42118e-07 0.0005639 9.16567e-08)
(-6.99071e-07 0.000563815 9.29225e-08)
(-7.63209e-07 0.000563692 9.07159e-08)
(-8.1803e-07 0.000563588 9.38852e-08)
(-8.86249e-07 0.000563359 8.88285e-08)
(-9.33419e-07 0.000563192 9.42622e-08)
(-1.0024e-06 0.000562909 8.46382e-08)
(-1.03376e-06 0.000562802 9.36357e-08)
(-1.10836e-06 0.000562574 7.61306e-08)
(-1.10557e-06 0.000562547 8.28356e-08)
(-1.21914e-06 0.00056223 6.01513e-08)
(-1.14729e-06 0.000562303 6.48171e-08)
(-1.33412e-06 0.000561788 5.65239e-08)
(-1.11428e-06 0.000562246 7.66608e-08)
(-1.37175e-06 0.000561207 6.85935e-08)
(-9.35144e-07 0.000566131 1.29712e-07)
(-1.43358e-06 0.000583059 5.71997e-09)
(-5.80022e-07 0.000650188 -1.35928e-07)
(-1.98643e-06 0.000801788 -2.09757e-07)
(4.48178e-07 0.00104548 1.48218e-07)
(5.00143e-06 0.00125706 -2.46889e-06)
(2.05301e-06 0.00215684 8.28181e-06)
(1.10763e-05 0.00380654 -4.24387e-05)
(0.000214086 0.00607276 0.000154922)
(-0.000907344 0.00620379 0.000534988)
(-0.00298296 0.022958 0.00186051)
(0.0212244 0.165579 0.0106717)
(-0.028725 0.558695 0.0185703)
(-0.00722581 0.475024 0.0020016)
(-0.0187482 0.494689 -0.00151645)
(0.00300827 0.481561 -0.00648013)
(-0.00551175 0.492857 -0.00828182)
(0.000598818 0.493448 -0.00475695)
(-0.00080354 0.492258 -1.46144e-05)
(-0.00260424 0.493125 0.00165032)
(-0.00153739 0.498912 0.00078739)
(-0.00027158 0.496514 0.00222125)
(0.00127956 0.495989 0.00230865)
(0.00324274 0.496981 0.00309136)
(0.00410086 0.494432 0.00302415)
(0.00420518 0.493368 0.00257917)
(0.00407795 0.473023 0.00208542)
(0.00124517 0.392462 0.000651585)
(0.00123088 0.513877 0.000487629)
(0.00148838 0.483145 0.00044437)
(0.00101232 0.4653 0.000151976)
(-6.62779e-05 0.346712 -0.000385539)
(-6.53453e-05 0.0303023 -9.68423e-05)
(-4.78468e-05 0.00970188 -0.000143738)
(-1.0586e-05 0.0091824 -0.000141887)
(2.15363e-05 0.00861474 -0.000156735)
(5.76888e-05 0.00845767 2.6169e-06)
(8.42665e-05 0.00852228 3.11118e-06)
(1.66412e-05 0.00879224 2.41703e-06)
(1.73296e-05 0.00891143 3.38863e-06)
(1.73782e-05 0.00882599 2.27735e-06)
(1.11793e-05 0.0084184 -1.14838e-06)
(5.87127e-06 0.00741036 -2.24577e-06)
(-5.93184e-06 0.00623406 -5.24768e-06)
(-1.01035e-05 0.00569937 -4.68484e-06)
(-3.15906e-06 0.00563292 -7.92161e-06)
(-4.05325e-06 0.00547071 -6.70414e-06)
(-7.44931e-06 0.00519585 6.01872e-07)
(1.80962e-06 0.000400408 1.05239e-07)
(6.21275e-06 0.000414485 5.28169e-08)
(6.96065e-06 0.000428654 -4.36367e-07)
(7.80155e-06 0.000443747 -6.29644e-07)
(7.39494e-06 0.000460362 -4.15691e-07)
(7.1147e-06 0.000477036 -3.72908e-07)
(6.13163e-06 0.000496106 -1.93488e-08)
(5.37419e-06 0.000525529 1.67017e-07)
(4.34377e-06 0.000553285 2.50738e-07)
(3.55588e-06 0.000566472 2.1379e-07)
(2.77585e-06 0.000569614 1.7161e-07)
(2.20725e-06 0.000570096 1.61187e-07)
(1.76859e-06 0.000569768 1.24647e-07)
(1.43115e-06 0.000569109 1.2503e-07)
(1.15092e-06 0.000568518 1.02297e-07)
(9.18698e-07 0.000567977 1.0834e-07)
(7.13997e-07 0.000567493 9.9626e-08)
(5.49531e-07 0.000567062 1.0178e-07)
(4.09206e-07 0.000566669 9.19702e-08)
(2.96873e-07 0.000566316 9.09368e-08)
(1.99835e-07 0.000565996 8.2251e-08)
(1.15595e-07 0.000565715 8.07192e-08)
(3.7998e-08 0.00056546 7.4517e-08)
(-3.4468e-08 0.00056521 7.38641e-08)
(-1.04231e-07 0.000564969 6.91838e-08)
(-1.715e-07 0.000564764 6.83466e-08)
(-2.36992e-07 0.0005646 6.41421e-08)
(-3.01303e-07 0.000564458 6.22081e-08)
(-3.62579e-07 0.000564328 5.86872e-08)
(-4.25171e-07 0.00056421 5.60323e-08)
(-4.86868e-07 0.000564095 5.40226e-08)
(-5.49591e-07 0.000563971 5.1513e-08)
(-6.1066e-07 0.000563856 5.1157e-08)
(-6.74619e-07 0.000563739 4.76289e-08)
(-7.32959e-07 0.000563633 5.08779e-08)
(-8.00666e-07 0.000563497 4.36914e-08)
(-8.56443e-07 0.000563409 5.15315e-08)
(-9.29239e-07 0.000563209 3.74388e-08)
(-9.77457e-07 0.00056306 5.16477e-08)
(-1.05558e-06 0.000562776 2.85323e-08)
(-1.08354e-06 0.000562692 4.91785e-08)
(-1.17689e-06 0.000562485 1.63499e-08)
(-1.17397e-06 0.000562473 2.92517e-08)
(-1.31722e-06 0.000562208 -1.66694e-09)
(-1.26248e-06 0.00056229 -2.17241e-08)
(-1.48865e-06 0.000561849 -1.80628e-08)
(-1.34647e-06 0.000562308 -6.35276e-08)
(-1.67236e-06 0.000561482 -3.8087e-08)
(-1.30348e-06 0.000566236 -2.87241e-08)
(-1.84672e-06 0.000582554 -8.79073e-08)
(-1.33091e-06 0.000637043 -4.3922e-07)
(-2.52138e-06 0.000769119 -1.27465e-07)
(-3.54382e-06 0.00108235 9.22338e-07)
(-8.85308e-07 0.0015069 -5.32518e-06)
(1.77918e-05 0.00251259 2.57646e-05)
(-6.28653e-05 0.00387432 4.64628e-05)
(0.00024878 0.00545204 0.000197486)
(-0.000549388 0.00498581 0.000437244)
(-0.00191167 0.0263526 0.00318149)
(0.0236902 0.258577 0.0194441)
(0.0137236 0.493337 0.0094393)
(-0.0127246 0.3881 0.00553107)
(-0.00116073 0.497801 -0.00028731)
(-0.00371212 0.49827 -0.000514033)
(-0.00222253 0.498199 0.000220856)
(-0.000771752 0.500552 0.00121733)
(-0.00147571 0.502696 0.00126935)
(0.000181416 0.49634 0.000501581)
(-0.000418001 0.478928 0.00103513)
(1.56429e-05 0.486707 0.000374481)
(-6.71961e-05 0.478089 0.00060868)
(0.000346317 0.455305 0.000281183)
(0.000126872 0.469233 0.000697105)
(-0.000560671 0.503727 5.62214e-05)
(1.4298e-05 0.492095 0.00041102)
(0.000894962 0.49357 0.000502311)
(-0.000241081 0.492032 7.47442e-05)
(-0.00053387 0.490782 3.31898e-05)
(-0.00103205 0.487275 -0.000372595)
(-0.00156203 0.489569 -0.00107413)
(-0.00298748 0.492599 -0.00188561)
(-0.00439057 0.502037 -0.00255995)
(-0.00511741 0.520217 -0.0029826)
(-0.00619442 0.47291 -0.00326544)
(-0.00693681 0.46017 -0.00345886)
(-0.00403847 0.262736 -0.00215241)
(8.12292e-05 0.0281502 -6.13421e-05)
(0.000110325 0.00544627 1.30487e-05)
(0.000145235 0.006803 -8.10543e-05)
(9.05085e-05 0.00704704 1.43123e-05)
(1.54713e-05 0.00635859 -4.63223e-06)
(3.04679e-06 0.00594832 -3.7851e-06)
(-2.48713e-07 0.00564475 -2.26823e-06)
(-6.74119e-07 0.00510382 -4.78309e-06)
(-2.14452e-05 0.00458255 -7.72691e-06)
(-6.57747e-05 0.00440496 -3.27392e-06)
(3.65938e-06 0.000393618 9.57208e-07)
(9.82864e-06 0.000406641 7.15527e-07)
(1.00858e-05 0.000425174 -2.18026e-07)
(1.01363e-05 0.000446436 -3.42006e-07)
(9.04372e-06 0.000466152 -5.28735e-07)
(7.89478e-06 0.000479596 -5.29376e-07)
(6.59765e-06 0.000490463 -2.65801e-07)
(5.57565e-06 0.000510375 -4.88294e-08)
(4.35815e-06 0.000533037 9.39199e-08)
(3.54523e-06 0.000551437 1.51127e-07)
(2.68331e-06 0.000563973 9.64993e-08)
(2.20954e-06 0.000569126 1.27556e-07)
(1.75994e-06 0.000569469 9.20937e-08)
(1.47464e-06 0.000568895 1.23288e-07)
(1.17021e-06 0.000568371 1.18728e-07)
(9.45831e-07 0.000567896 1.38227e-07)
(7.26263e-07 0.000567457 1.35997e-07)
(5.55715e-07 0.000567048 1.37229e-07)
(4.06174e-07 0.000566694 1.27482e-07)
(2.85991e-07 0.000566378 1.17073e-07)
(1.83007e-07 0.000566076 1.08678e-07)
(9.5171e-08 0.000565797 9.86291e-08)
(1.67803e-08 0.000565547 9.47772e-08)
(-5.42696e-08 0.000565314 8.81865e-08)
(-1.21679e-07 0.000565088 8.59036e-08)
(-1.846e-07 0.000564892 7.98035e-08)
(-2.47895e-07 0.000564727 7.62743e-08)
(-3.1013e-07 0.000564582 7.25324e-08)
(-3.7351e-07 0.000564452 7.04264e-08)
(-4.35316e-07 0.000564337 6.86107e-08)
(-4.98188e-07 0.000564213 6.58637e-08)
(-5.5891e-07 0.000564076 6.48465e-08)
(-6.20173e-07 0.000563945 6.1459e-08)
(-6.80561e-07 0.000563821 6.09396e-08)
(-7.37747e-07 0.000563719 5.82935e-08)
(-8.02497e-07 0.000563591 5.55202e-08)
(-8.54057e-07 0.000563491 5.55845e-08)
(-9.27505e-07 0.000563297 4.58766e-08)
(-9.66571e-07 0.000563145 5.10155e-08)
(-1.05278e-06 0.000562902 3.43196e-08)
(-1.06504e-06 0.000562813 4.45589e-08)
(-1.1815e-06 0.000562611 2.3475e-08)
(-1.16607e-06 0.000562597 2.27626e-08)
(-1.34503e-06 0.000562342 8.2381e-09)
(-1.32641e-06 0.000562425 -2.77079e-08)
(-1.56672e-06 0.000562015 -1.38131e-08)
(-1.55501e-06 0.000562472 -8.11525e-08)
(-1.86118e-06 0.000561927 -5.56844e-08)
(-1.67163e-06 0.000568299 -6.35757e-08)
(-2.08138e-06 0.000587488 -9.84775e-08)
(-2.20967e-06 0.000641055 -2.66767e-07)
(-2.58053e-06 0.00077914 -4.40734e-07)
(-4.36783e-06 0.00117311 1.42408e-06)
(-3.85976e-06 0.00160893 -7.93836e-06)
(1.23433e-05 0.00230808 4.99297e-06)
(-2.9951e-05 0.0038528 2.39927e-05)
(0.000116347 0.00548606 0.00019833)
(-2.47064e-05 0.00428454 0.000440557)
(-0.00105525 0.0213707 0.00508791)
(0.0171161 0.399455 0.0238185)
(0.00947373 0.549601 0.00578566)
(0.00811165 0.474926 -0.00245484)
(0.00360525 0.404837 -0.00199214)
(0.0033704 0.493733 -0.000468054)
(-0.00127998 0.502496 0.00132431)
(-0.000542833 0.506396 0.000870051)
(-0.000702881 0.468314 0.00027809)
(-0.000556286 0.392188 7.41382e-05)
(-0.000806753 0.476401 4.20273e-05)
(-0.00076937 0.392289 -9.28901e-05)
(-0.00141138 0.444026 -0.000439108)
(-0.0014988 0.495233 -0.000460613)
(-0.000830101 0.490234 0.000105538)
(-0.00127585 0.500716 6.31635e-05)
(-0.00227282 0.488549 -0.000125087)
(-0.00132171 0.491433 0.000170411)
(-0.00315935 0.518246 4.66689e-05)
(-0.00276282 0.477471 0.000250155)
(0.000157652 0.480743 0.000927687)
(-0.000974457 0.475518 0.000443502)
(-0.00224093 0.4767 -0.000537408)
(-0.00229788 0.508536 -0.00108998)
(-0.00194564 0.476773 -0.00146565)
(-0.00311652 0.471769 -0.00254709)
(-0.00490009 0.450632 -0.00374978)
(-0.00257301 0.433697 -0.00247674)
(-0.00134393 0.41843 -0.00139212)
(-0.00235342 0.409578 -0.00112195)
(0.000945682 0.216937 0.000473929)
(0.00146785 0.203241 0.000672739)
(6.87244e-05 0.01363 -0.00011895)
(4.98935e-06 0.00492793 -0.000168865)
(-4.03423e-05 0.00515562 -0.00020889)
(-0.000236621 0.0255987 -0.000145331)
(-0.00883531 0.378292 0.00335017)
(-0.00189139 0.460666 0.000823556)
(8.07721e-06 0.000389414 2.94615e-06)
(1.48373e-05 0.000395726 2.47094e-06)
(1.33743e-05 0.000411788 6.16157e-07)
(1.23076e-05 0.000437142 2.78731e-07)
(1.01407e-05 0.000464152 -1.93956e-07)
(8.10599e-06 0.000483434 -2.57167e-07)
(6.47254e-06 0.000493861 -8.37174e-08)
(5.29891e-06 0.000507439 2.63618e-08)
(4.1657e-06 0.000525288 1.12107e-07)
(3.40292e-06 0.000546738 1.17784e-07)
(2.54834e-06 0.00056312 1.11516e-07)
(2.19093e-06 0.000568814 1.23695e-07)
(1.67949e-06 0.000568976 1.55237e-07)
(1.43201e-06 0.000568495 1.92168e-07)
(1.0962e-06 0.000568037 2.31434e-07)
(8.98941e-07 0.000567643 2.53726e-07)
(6.74555e-07 0.000567235 2.64248e-07)
(5.12112e-07 0.000566863 2.77058e-07)
(3.58025e-07 0.00056652 2.78535e-07)
(2.35923e-07 0.000566222 2.84909e-07)
(1.29967e-07 0.000565943 2.82508e-07)
(3.69558e-08 0.000565686 2.83057e-07)
(-4.56814e-08 0.00056545 2.7952e-07)
(-1.22876e-07 0.000565225 2.78e-07)
(-1.9473e-07 0.00056501 2.72874e-07)
(-2.66417e-07 0.000564822 2.66988e-07)
(-3.34775e-07 0.000564671 2.6123e-07)
(-4.03368e-07 0.000564551 2.57071e-07)
(-4.70204e-07 0.000564447 2.5407e-07)
(-5.37862e-07 0.000564336 2.50242e-07)
(-6.03982e-07 0.000564216 2.47498e-07)
(-6.69433e-07 0.000564089 2.4269e-07)
(-7.32632e-07 0.000563972 2.39983e-07)
(-7.95385e-07 0.000563869 2.34527e-07)
(-8.53787e-07 0.000563792 2.3279e-07)
(-9.20675e-07 0.0005637 2.25006e-07)
(-9.71359e-07 0.000563614 2.24543e-07)
(-1.05166e-06 0.000563422 2.07623e-07)
(-1.08541e-06 0.000563292 2.09721e-07)
(-1.18587e-06 0.000563111 1.85409e-07)
(-1.19377e-06 0.000563044 1.89888e-07)
(-1.33235e-06 0.000562863 1.62111e-07)
(-1.3271e-06 0.000562868 1.5846e-07)
(-1.51349e-06 0.000562599 1.40456e-07)
(-1.54227e-06 0.000562698 1.2535e-07)
(-1.72947e-06 0.000562193 1.35292e-07)
(-1.84899e-06 0.000562684 1.18233e-07)
(-1.99595e-06 0.000562504 1.53072e-07)
(-2.03273e-06 0.00057126 2.29125e-07)
(-2.37337e-06 0.000594779 2.19078e-07)
(-2.72395e-06 0.000656101 3.53449e-07)
(-3.57748e-06 0.000800759 -1.64182e-07)
(-6.44119e-06 0.00120606 1.09521e-06)
(-9.29823e-06 0.00181441 -8.74701e-07)
(-9.28564e-07 0.00254728 8.8323e-06)
(3.34653e-05 0.00353032 -1.52141e-06)
(-8.20031e-05 0.00517136 0.000151813)
(7.69104e-05 0.0042569 0.000265534)
(-0.00024058 0.0133551 0.00654259)
(-0.0020165 0.447413 0.0178566)
(0.00116494 0.538433 -0.00226981)
(-0.000840004 0.489666 0.00474533)
(0.00216606 0.489856 -0.00267368)
(-0.00135481 0.499071 0.00245094)
(-0.00120713 0.501446 0.000213442)
(-0.00110999 0.495718 0.000991306)
(-0.00106392 0.494236 5.29746e-05)
(-0.0014051 0.48841 0.000344207)
(-0.00161084 0.499843 0.000170812)
(-0.00186919 0.495134 0.000181083)
(-0.00224093 0.497808 7.05115e-06)
(-0.002731 0.496997 5.29469e-05)
(-0.00224714 0.495352 0.000193045)
(-0.00250139 0.495244 0.000407218)
(-0.00164482 0.493263 0.000588822)
(-0.000844633 0.493332 0.000839747)
(-0.000264069 0.492444 0.00123033)
(0.000500359 0.499702 0.00192385)
(-0.00120818 0.496707 0.00190225)
(-0.000771924 0.493906 0.00225337)
(-0.000488857 0.498055 0.00237606)
(-0.000146683 0.497268 0.00221019)
(0.00035167 0.495388 0.00178757)
(2.56418e-05 0.494 0.00182776)
(-0.000503783 0.494809 0.00165515)
(-0.000645223 0.494737 0.00163433)
(-0.00103521 0.49018 0.00162401)
(-0.00167068 0.489531 0.00161207)
(-0.00250838 0.485021 0.00159397)
(-0.00369184 0.489601 0.00200341)
(-0.00481331 0.477549 0.00185769)
(-0.00658039 0.477507 0.00139818)
(-0.00830824 0.474418 0.000274074)
(-0.00842403 0.470082 -0.00205951)
(-0.00579004 0.481575 -0.00678251)
(-0.000286932 0.465497 -0.012715)
(1.46385e-05 0.000234447 4.75247e-06)
(2.14115e-05 0.000400306 4.40377e-06)
(1.63096e-05 0.000399541 1.36511e-06)
(1.39009e-05 0.000427345 8.08937e-07)
(1.10216e-05 0.000459489 6.45553e-08)
(8.44148e-06 0.00048656 -1.72831e-07)
(6.52154e-06 0.000501849 -1.13513e-07)
(5.17514e-06 0.000514062 1.33712e-08)