/*--------------------------------*- C++ -*----------------------------------*\
| =========                 |                                                 |
| \\      /  F ield         | OpenFOAM: The Open Source CFD Toolbox           |
|  \\    /   O peration     | Version:  2.3.0                                 |
|   \\  /    A nd           | Web:      www.OpenFOAM.org                      |
|    \\/     M anipulation  |                                                 |
\*---------------------------------------------------------------------------*/
FoamFile
{
    version     2.0;
    format      ascii;
    class       volScalarField;
    location    "18";
    object      w2;
}
// * * * * * * * * * * * * * * * * * * * * * * * * * * * * * * * * * * * * * //

dimensions      [0 0 0 0 0 0 0];

internalField   nonuniform List<scalar> 
6144
(
0.452838
0.452838
0.452838
0.452838
0.452838
0.452838
0.452838
0.452838
0.452838
0.452838
0.452838
0.452838
0.452838
0.452838
0.452838
0.452838
0.452838
0.452838
0.452838
0.452838
0.452838
0.452838
0.452838
0.452838
0.452838
0.452838
0.452838
0.452838
0.452838
0.452838
0.452838
0.452838
0.452838
0.452838
0.452838
0.452838
0.452838
0.452838
0.452838
0.452838
0.452838
0.452838
0.452838
0.452838
0.452838
0.452838
0.452838
0.452838
0.452838
0.452838
0.452838
0.452838
0.452838
0.452838
0.452839
0.452839
0.452845
0.453096
0.47886
0.464425
0.216225
0.00657169
8.15712e-06
7.56239e-06
0.0166014
0.0114906
0.0059472
0.00508947
0.00695883
0.00929386
0.0104514
0.0124226
0.0239134
0.0597755
0.0793996
0.0417574
0.0365674
0.0326344
0.889718
0.50407
0.190535
0.130801
0.0410544
0.0716162
0.0272991
0.0537441
0.124734
0.0666205
0.0800932
0.0275964
0.00309353
0.000714686
0.000609037
0.00314192
0.0157126
0.000135834
0.452838
0.452838
0.452838
0.452838
0.452838
0.452838
0.452838
0.452838
0.452838
0.452838
0.452838
0.452838
0.452838
0.452838
0.452838
0.452838
0.452838
0.452838
0.452838
0.452838
0.452838
0.452838
0.452838
0.452838
0.452838
0.452838
0.452838
0.452838
0.452838
0.452838
0.452838
0.452838
0.452838
0.452838
0.452838
0.452838
0.452838
0.452838
0.452838
0.452838
0.452838
0.452838
0.452838
0.452838
0.452838
0.452838
0.452838
0.452838
0.452838
0.452838
0.452838
0.452838
0.452838
0.452838
0.452838
0.452838
0.452852
0.453738
0.485363
0.491693
0.161074
0.000416282
6.06569e-06
0.000663786
0.000574615
0.244175
0.00527205
0.00894589
0.00599101
0.0105649
0.0859379
0.0135861
0.00669822
0.00737332
0.256311
0.0142809
0.0140877
0.0172069
0.0382158
0.0976025
0.134622
0.0222451
0.0277999
0.0247244
0.0177634
0.0331661
0.0434473
0.0865719
0.0422217
0.00800341
0.00376566
0.000881081
0.000760537
0.00536457
0.00799803
0.000138111
0.452838
0.452838
0.452838
0.452838
0.452838
0.452838
0.452838
0.452838
0.452838
0.452838
0.452838
0.452838
0.452838
0.452838
0.452838
0.452838
0.452838
0.452838
0.452838
0.452838
0.452838
0.452838
0.452838
0.452838
0.452838
0.452838
0.452838
0.452838
0.452838
0.452838
0.452838
0.452838
0.452838
0.452838
0.452838
0.452838
0.452838
0.452838
0.452838
0.452838
0.452838
0.452838
0.452838
0.452838
0.452838
0.452838
0.452838
0.452838
0.452838
0.452838
0.452838
0.452838
0.452838
0.452838
0.452839
0.452839
0.452842
0.452807
0.460911
0.450973
0.7275
9.26213e-06
0.00116982
0.000719151
0.00129026
0.00119915
0.00195807
0.00496734
0.0106699
0.0346736
0.00965818
0.0043451
0.00463325
0.00784734
0.0286246
0.0175215
0.0117913
0.0138674
0.0150369
0.0490962
0.826031
0.0600606
0.0484962
0.018861
0.0226772
0.0244297
0.0311518
0.00664284
0.0387424
0.00828036
0.00178302
0.000677997
0.000794023
0.0082113
0.00468658
0.00013473
0.452838
0.452838
0.452838
0.452838
0.452838
0.452838
0.452838
0.452838
0.452838
0.452838
0.452838
0.452838
0.452838
0.452838
0.452838
0.452838
0.452838
0.452838
0.452838
0.452838
0.452838
0.452838
0.452838
0.452838
0.452838
0.452838
0.452838
0.452838
0.452838
0.452838
0.452838
0.452838
0.452838
0.452838
0.452838
0.452838
0.452838
0.452838
0.452838
0.452838
0.452838
0.452838
0.452838
0.452838
0.452838
0.452838
0.452838
0.452838
0.452838
0.452838
0.452838
0.452838
0.452838
0.452838
0.452839
0.452838
0.452841
0.452892
0.472674
0.50494
0.620629
5.45105e-05
0.000223604
0.000218145
0.0011191
0.000386653
0.00118984
0.000305953
0.000321844
0.00195196
0.00202733
0.00387026
0.00116142
0.00133017
0.000600018
0.00130285
0.00111589
0.00202248
0.00110089
0.00354704
0.0109411
0.0147086
0.0327646
0.00571899
0.00406313
0.00426908
0.0175515
0.0350192
0.0463373
0.00230347
0.00113892
0.000728256
0.00166389
0.008058
0.00226397
0.000133086
0.452838
0.452838
0.452838
0.452838
0.452838
0.452838
0.452838
0.452838
0.452838
0.452838
0.452838
0.452838
0.452838
0.452838
0.452838
0.452838
0.452838
0.452838
0.452838
0.452838
0.452838
0.452838
0.452838
0.452838
0.452838
0.452838
0.452838
0.452838
0.452838
0.452838
0.452838
0.452838
0.452838
0.452838
0.452838
0.452838
0.452838
0.452838
0.452838
0.452838
0.452838
0.452838
0.452838
0.452838
0.452838
0.452838
0.452838
0.452838
0.452838
0.452838
0.452838
0.452838
0.452838
0.452838
0.452839
0.452839
0.452841
0.452832
0.453525
0.480495
0.0779988
0.0014815
0.000808645
0.00483838
0.000690072
0.00180295
0.00637907
0.00272471
0.058563
0.0111298
0.0188039
0.506303
0.0165665
0.00222065
0.000325977
0.998489
0.999926
0.999714
9.65713e-05
1.23841e-05
8.83477e-06
0.000347156
0.000311018
0.000336845
0.000282948
0.000394801
0.00588017
0.0116243
0.0075622
0.00153944
0.000731912
0.00117891
0.00472293
0.00826871
0.00265607
0.000132495
0.452838
0.452838
0.452838
0.452838
0.452838
0.452838
0.452838
0.452838
0.452838
0.452838
0.452838
0.452838
0.452838
0.452838
0.452838
0.452838
0.452838
0.452838
0.452838
0.452838
0.452838
0.452838
0.452838
0.452838
0.452838
0.452838
0.452838
0.452838
0.452838
0.452838
0.452838
0.452838
0.452838
0.452838
0.452838
0.452838
0.452838
0.452838
0.452838
0.452838
0.452838
0.452838
0.452838
0.452838
0.452838
0.452838
0.452838
0.452838
0.452838
0.452838
0.452838
0.452838
0.452838
0.452838
0.452839
0.452839
0.45284
0.45284
0.45286
0.499828
0.183139
0.895611
0.0366228
0.173143
0.485822
0.074859
0.965067
0.961384
0.99737
7.84087e-05
0.29838
0.828068
0.0768923
0.942686
0.999098
0.0736136
0.00056148
0.00394952
0.908876
0.161113
0.138115
0.0270827
0.997847
0.999142
0.999955
9.5682e-06
5.79056e-06
0.000172873
0.000230358
0.000222316
0.00136011
0.00449576
0.0016584
0.000811996
7.50755e-05
5.97121e-05
0.452838
0.452838
0.452838
0.452838
0.452838
0.452838
0.452838
0.452838
0.452838
0.452838
0.452838
0.452838
0.452838
0.452838
0.452838
0.452838
0.452838
0.452838
0.452838
0.452838
0.452838
0.452838
0.452838
0.452838
0.452838
0.452838
0.452838
0.452838
0.452838
0.452838
0.452838
0.452838
0.452838
0.452838
0.452838
0.452838
0.452838
0.452838
0.452838
0.452838
0.452838
0.452838
0.452838
0.452838
0.452838
0.452838
0.452838
0.452838
0.452838
0.452838
0.452838
0.452838
0.452838
0.452838
0.452838
0.452839
0.452825
0.453583
0.446132
0.514653
0.16445
0.000965064
0.182228
0.268815
0.999055
0.571095
0.281517
0.818209
1
0.982749
0.849557
0.928056
0.921641
0.891948
0.178994
0.789996
0.990948
0.893698
0.590438
0.897527
0.53324
0.999984
0.0452077
0.856961
0.99266
0.741692
0.929205
0.998134
0.000314828
1.20635e-05
3.98907e-06
0.996674
0.999689
1
0.00856007
0.000194955
0.452838
0.452838
0.452838
0.452838
0.452838
0.452838
0.452838
0.452838
0.452838
0.452838
0.452838
0.452838
0.452838
0.452838
0.452838
0.452838
0.452838
0.452838
0.452838
0.452838
0.452838
0.452838
0.452838
0.452838
0.452838
0.452838
0.452838
0.452838
0.452838
0.452838
0.452838
0.452838
0.452838
0.452838
0.452838
0.452838
0.452838
0.452838
0.452838
0.452838
0.452838
0.452838
0.452838
0.452838
0.452838
0.452838
0.452838
0.452838
0.452838
0.452838
0.452838
0.452838
0.452838
0.452838
0.452839
0.452839
0.452839
0.451852
0.466567
0.45853
0.357766
0.999996
0.295785
0.462951
0.869538
0.852765
0.953555
0.82711
0.203802
0.594391
0.308873
0.29174
0.376261
0.511509
0.447274
0.605967
0.734428
0.460403
0.786832
0.178209
0.84085
0.578299
0.762872
0.892004
0.645643
0.844044
0.417843
0.379601
0.813872
0.848618
0.286688
0.503454
0.401717
0.238971
0.542828
0.93629
0.452838
0.452838
0.452838
0.452838
0.452838
0.452838
0.452838
0.452838
0.452838
0.452838
0.452838
0.452838
0.452838
0.452838
0.452838
0.452838
0.452838
0.452838
0.452838
0.452838
0.452838
0.452838
0.452838
0.452838
0.452838
0.452838
0.452838
0.452838
0.452838
0.452838
0.452838
0.452838
0.452838
0.452838
0.452838
0.452838
0.452838
0.452838
0.452838
0.452838
0.452838
0.452838
0.452838
0.452838
0.452838
0.452838
0.452838
0.452838
0.452838
0.452838
0.452838
0.452838
0.452838
0.452838
0.452839
0.452838
0.452855
0.452971
0.45768
0.480595
0.699766
0.995237
0.972677
0.742246
0.999713
0.99529
0.984906
0.00365165
0.102561
0.846129
0.979262
0.980761
0.407297
0.126379
0.988247
0.997826
0.0166103
5.0585e-05
2.02115e-05
0.00464601
0.386106
0.00642105
0.00628582
0.857771
0.76405
0.999046
0.990273
0.424263
0.689749
0.444295
0.465111
0.501186
0.473418
0.685435
0.781762
0.00320237
0.452838
0.452838
0.452838
0.452838
0.452838
0.452838
0.452838
0.452838
0.452838
0.452838
0.452838
0.452838
0.452838
0.452838
0.452838
0.452838
0.452838
0.452838
0.452838
0.452838
0.452838
0.452838
0.452838
0.452838
0.452838
0.452838
0.452838
0.452838
0.452838
0.452838
0.452838
0.452838
0.452838
0.452838
0.452838
0.452838
0.452838
0.452838
0.452838
0.452838
0.452838
0.452838
0.452838
0.452838
0.452838
0.452838
0.452838
0.452838
0.452838
0.452838
0.452838
0.452838
0.452838
0.452838
0.452839
0.452838
0.452841
0.452731
0.453471
0.51283
1
0.999192
0.141666
0.949233
0.168198
0.0840331
0.910731
0.825737
0.614069
0.378811
0.00853963
0.0530661
0.00510482
0.0897458
0.042398
0.000642606
0.459195
0.38434
0.51593
0.187304
0.0394334
0.978546
0.755433
0.648809
0.856277
0.602578
0.953665
0.438938
0.165719
0.362757
0.0479582
0.0409442
0.0251509
0.069102
0.0114321
1.94118e-05
0.452838
0.452838
0.452838
0.452838
0.452838
0.452838
0.452838
0.452838
0.452838
0.452838
0.452838
0.452838
0.452838
0.452838
0.452838
0.452838
0.452838
0.452838
0.452838
0.452838
0.452838
0.452838
0.452838
0.452838
0.452838
0.452838
0.452838
0.452838
0.452838
0.452838
0.452838
0.452838
0.452838
0.452838
0.452838
0.452838
0.452838
0.452838
0.452838
0.452838
0.452838
0.452838
0.452838
0.452838
0.452838
0.452838
0.452838
0.452838
0.452838
0.452838
0.452838
0.452838
0.452838
0.452838
0.452839
0.452839
0.45284
0.447719
0.605202
0.529312
0.0403113
1
0.0156584
0.00506827
0.000443329
4.99429e-05
9.32737e-06
6.93616e-06
0.000469978
0.00603555
0.000643865
0.00102275
0.000250607
0.00040078
0.000520973
0.00288966
0.000534122
0.998828
0.000232634
0.000507481
0.000460394
0.000662156
6.84235e-06
7.03455e-06
0.000155374
0.00219174
0.000126163
1.31165e-05
7.51126e-06
0.00193916
0.0117778
0.000457104
0.000226864
0.000456132
0.000216953
0.000636856
0.452838
0.452838
0.452838
0.452838
0.452838
0.452838
0.452838
0.452838
0.452838
0.452838
0.452838
0.452838
0.452838
0.452838
0.452838
0.452838
0.452838
0.452838
0.452838
0.452838
0.452838
0.452838
0.452838
0.452838
0.452838
0.452838
0.452838
0.452838
0.452838
0.452838
0.452838
0.452838
0.452838
0.452838
0.452838
0.452838
0.452838
0.452838
0.452838
0.452838
0.452838
0.452838
0.452838
0.452838
0.452838
0.452838
0.452838
0.452838
0.452838
0.452838
0.452838
0.452838
0.452838
0.452838
0.452839
0.452838
0.452839
0.452983
0.447099
0.396533
0.440002
4.60738e-06
4.82661e-05
0.000328561
0.0001321
0.000300108
0.000274317
0.0389376
0.0169757
0.0085637
0.00940338
0.00677431
0.00484897
0.00382516
0.00374308
0.00432039
0.00535229
0.00593343
0.00470977
0.0048657
0.00390326
0.00197182
0.00246823
0.000866683
0.000652506
0.000302034
6.11591e-05
5.36043e-05
0.000679217
0.00429017
0.00162183
0.00160623
0.00245254
0.00329687
0.00229522
0.000133738
0.452838
0.452838
0.452838
0.452838
0.452838
0.452838
0.452838
0.452838
0.452838
0.452838
0.452838
0.452838
0.452838
0.452838
0.452838
0.452838
0.452838
0.452838
0.452838
0.452838
0.452838
0.452838
0.452838
0.452838
0.452838
0.452838
0.452838
0.452838
0.452838
0.452838
0.452838
0.452838
0.452838
0.452838
0.452838
0.452838
0.452838
0.452838
0.452838
0.452838
0.452838
0.452838
0.452838
0.452838
0.452838
0.452838
0.452838
0.452838
0.452838
0.452838
0.452838
0.452838
0.452838
0.452838
0.452839
0.452838
0.452841
0.452838
0.453138
0.505162
0.314604
3.93979e-06
0.000722154
0.00153182
0.00102664
0.00104131
0.00167256
0.00251549
0.00599789
0.00471923
0.00297066
0.00271637
0.00246503
0.00223101
0.00216838
0.00223907
0.00243567
0.0044014
0.0599577
0.0124817
0.0126523
0.0168004
0.0195647
0.0144505
0.00421538
0.00317038
0.000819255
0.0105743
0.016289
0.14473
0.010351
0.00141549
0.0013247
0.00248308
0.00489066
0.000116328
0.452838
0.452838
0.452838
0.452838
0.452838
0.452838
0.452838
0.452838
0.452838
0.452838
0.452838
0.452838
0.452838
0.452838
0.452838
0.452838
0.452838
0.452838
0.452838
0.452838
0.452838
0.452838
0.452838
0.452838
0.452838
0.452838
0.452838
0.452838
0.452838
0.452838
0.452838
0.452838
0.452838
0.452838
0.452838
0.452838
0.452838
0.452838
0.452838
0.452838
0.452838
0.452838
0.452838
0.452838
0.452838
0.452838
0.452838
0.452838
0.452838
0.452838
0.452838
0.452838
0.452838
0.452838
0.452839
0.452839
0.452843
0.452842
0.452944
0.538739
0.202022
1.36318e-05
3.07323e-06
0.000292791
0.000886713
0.000804789
0.00228582
0.00697027
0.00325445
0.0116514
0.0932883
0.0467983
0.00629614
0.00368248
0.00326403
0.00232903
0.00187865
0.00225963
0.00339646
0.00735056
0.0169252
0.0164785
0.00643141
0.00508616
0.00262208
0.00209876
0.0160736
0.00196306
0.00125858
0.00126711
0.0164288
0.0048463
0.00456573
0.00909564
0.000836744
0.000110206
0.452838
0.452838
0.452838
0.452838
0.452838
0.452838
0.452838
0.452838
0.452838
0.452838
0.452838
0.452838
0.452838
0.452838
0.452838
0.452838
0.452838
0.452838
0.452838
0.452838
0.452838
0.452838
0.452838
0.452838
0.452838
0.452838
0.452838
0.452838
0.452838
0.452838
0.452838
0.452838
0.452838
0.452838
0.452838
0.452838
0.452838
0.452838
0.452838
0.452838
0.452838
0.452838
0.452838
0.452838
0.452838
0.452838
0.452838
0.452838
0.452838
0.452838
0.452838
0.452838
0.452838
0.452838
0.452838
0.452838
0.452844
0.452842
0.457475
0.566219
0.0965986
0.00118989
3.16235e-06
0.000299709
0.000231379
0.00124442
0.00356517
0.00649154
0.00626768
0.0056888
0.0031748
0.00253235
0.00246083
0.00253686
0.00222289
0.00323352
0.104035
0.0103036
0.0108935
0.00302272
0.00159158
0.00112005
0.000860509
0.000927629
0.00155015
0.00849548
0.00659242
0.00323302
0.00176147
0.00533538
0.0293769
0.0954787
0.035221
0.0490211
0.00175773
0.000121317
0.452838
0.452838
0.452838
0.452838
0.452838
0.452838
0.452838
0.452838
0.452838
0.452838
0.452838
0.452838
0.452838
0.452838
0.452838
0.452838
0.452838
0.452838
0.452838
0.452838
0.452838
0.452838
0.452838
0.452838
0.452838
0.452838
0.452838
0.452838
0.452838
0.452838
0.452838
0.452838
0.452838
0.452838
0.452838
0.452838
0.452838
0.452838
0.452838
0.452838
0.452838
0.452838
0.452838
0.452838
0.452838
0.452838
0.452838
0.452838
0.452838
0.452838
0.452838
0.452838
0.452838
0.452838
0.452839
0.452838
0.452844
0.453031
0.486667
0.493762
0.202122
0.968804
9.13935e-06
2.55483e-06
0.005092
0.00256408
0.00202673
0.00168235
0.00185745
0.00172068
0.00153878
0.00158324
0.00184498
0.00242137
0.0032618
0.00400398
0.00570763
0.00854115
0.00708484
0.00757491
0.00495589
0.00224246
0.00148245
0.00231792
0.00612638
0.0166647
0.00499031
0.00256062
0.00271496
0.00849812
0.0157292
0.010962
0.00400015
0.00704967
0.00129673
0.000119702
0.452838
0.452838
0.452838
0.452838
0.452838
0.452838
0.452838
0.452838
0.452838
0.452838
0.452838
0.452838
0.452838
0.452838
0.452838
0.452838
0.452838
0.452838
0.452838
0.452838
0.452838
0.452838
0.452838
0.452838
0.452838
0.452838
0.452838
0.452838
0.452838
0.452838
0.452838
0.452838
0.452838
0.452838
0.452838
0.452838
0.452838
0.452838
0.452838
0.452838
0.452838
0.452838
0.452838
0.452838
0.452838
0.452838
0.452838
0.452838
0.452838
0.452838
0.452838
0.452838
0.452838
0.452838
0.452839
0.452839
0.452842
0.45457
0.491782
0.489847
0.234674
0.0154767
1.15448e-05
6.91272e-06
0.00396251
0.00508138
0.00488928
0.0047501
0.00745184
0.0150177
0.027975
0.0333296
0.047289
0.0668157
0.457403
0.069735
0.0403675
0.0736483
0.230032
0.299056
0.0743102
0.270112
0.05766
0.182203
0.0767373
0.193357
0.1759
0.0704514
0.0335085
0.0125439
0.00502555
0.00134425
0.00103621
0.00372108
0.00152082
0.000113493
0.452838
0.452838
0.452838
0.452838
0.452838
0.452838
0.452838
0.452838
0.452838
0.452838
0.452838
0.452838
0.452838
0.452838
0.452838
0.452838
0.452838
0.452838
0.452838
0.452838
0.452838
0.452838
0.452838
0.452838
0.452838
0.452838
0.452838
0.452838
0.452838
0.452838
0.452838
0.452838
0.452838
0.452838
0.452838
0.452838
0.452838
0.452838
0.452838
0.452838
0.452838
0.452838
0.452838
0.452838
0.452838
0.452838
0.452838
0.452838
0.452838
0.452838
0.452838
0.452838
0.452838
0.452838
0.452838
0.452839
0.452843
0.452878
0.4528
0.487193
0.200392
0.000893221
8.19821e-06
0.000936534
0.000681887
0.00315534
0.00585649
0.00338774
0.00503244
0.0123988
0.0440531
0.0379632
0.0185523
0.0254
0.123356
0.0233814
0.0667053
0.0289959
0.0301155
0.0184032
0.0185064
0.0108024
0.0190871
0.0180395
0.0358099
0.0863937
0.0258181
0.0100028
0.0494176
0.00814989
0.00767615
0.00162054
0.00092667
0.00203663
0.00131657
0.000121056
0.452838
0.452838
0.452838
0.452838
0.452838
0.452838
0.452838
0.452838
0.452838
0.452838
0.452838
0.452838
0.452838
0.452838
0.452838
0.452838
0.452838
0.452838
0.452838
0.452838
0.452838
0.452838
0.452838
0.452838
0.452838
0.452838
0.452838
0.452838
0.452838
0.452838
0.452838
0.452838
0.452838
0.452838
0.452838
0.452838
0.452838
0.452838
0.452838
0.452838
0.452838
0.452838
0.452838
0.452838
0.452838
0.452838
0.452838
0.452838
0.452838
0.452838
0.452838
0.452838
0.452838
0.452838
0.452839
0.452839
0.452842
0.452844
0.430695
0.525682
0.423451
1.368e-05
0.00015514
0.00049023
0.00234343
0.00141702
0.00354257
0.00176157
0.00137208
0.00694172
0.00405472
0.00144168
0.00149288
0.00186057
0.00695404
0.00430683
0.00412032
0.000610475
0.000645382
0.028026
0.0264176
0.0657364
0.0264525
0.486165
0.119707
0.0505038
0.0202693
0.010441
0.997954
0.00603331
0.00256431
0.000996725
0.00082022
0.00189861
0.00116441
0.000120492
0.452838
0.452838
0.452838
0.452838
0.452838
0.452838
0.452838
0.452838
0.452838
0.452838
0.452838
0.452838
0.452838
0.452838
0.452838
0.452838
0.452838
0.452838
0.452838
0.452838
0.452838
0.452838
0.452838
0.452838
0.452838
0.452838
0.452838
0.452838
0.452838
0.452838
0.452838
0.452838
0.452838
0.452838
0.452838
0.452838
0.452838
0.452838
0.452838
0.452838
0.452838
0.452838
0.452838
0.452838
0.452838
0.452838
0.452838
0.452838
0.452838
0.452838
0.452838
0.452838
0.452838
0.452838
0.452838
0.452839
0.452841
0.452841
0.452902
0.471768
0.639046
0.00116019
3.00706e-05
9.15334e-06
6.48718e-06
1.9705e-05
9.01942e-06
2.66963e-05
1.12084e-05
6.25723e-06
1.04496e-05
9.87712e-06
4.67391e-05
1.22532e-05
6.62303e-06
0.000260901
1.4915e-05
1.47194e-05
1.79184e-05
1.29489e-05
0.0144166
0.00101538
0.00177434
0.00151213
0.00912236
0.0321172
0.0443828
0.63182
5.28748e-06
0.993553
0.00162441
0.00100784
0.000956405
0.00753171
0.00117095
0.000120295
0.452838
0.452838
0.452838
0.452838
0.452838
0.452838
0.452838
0.452838
0.452838
0.452838
0.452838
0.452838
0.452838
0.452838
0.452838
0.452838
0.452838
0.452838
0.452838
0.452838
0.452838
0.452838
0.452838
0.452838
0.452838
0.452838
0.452838
0.452838
0.452838
0.452838
0.452838
0.452838
0.452838
0.452838
0.452838
0.452838
0.452838
0.452838
0.452838
0.452838
0.452838
0.452838
0.452838
0.452838
0.452838
0.452838
0.452838
0.452838
0.452838
0.452838
0.452838
0.452838
0.452838
0.452838
0.452839
0.452839
0.452841
0.452845
0.452928
0.514775
0.13589
0.0328394
0.0796511
0.0394757
0.0126777
0.0385504
0.16566
0.0470524
0.0312185
0.0151125
0.0377345
0.0127099
0.0183997
0.0320228
0.729969
0.7571
0.0384887
0.0238892
0.0567389
0.00435938
0.0012356
0.000239616
4.16598e-05
8.76609e-06
9.93986e-06
0.000285499
0.000303419
0.00797445
0.000688389
0.00430057
0.0012145
0.000975912
0.0018188
0.0111401
0.00110185
0.000116307
0.452838
0.452838
0.452838
0.452838
0.452838
0.452838
0.452838
0.452838
0.452838
0.452838
0.452838
0.452838
0.452838
0.452838
0.452838
0.452838
0.452838
0.452838
0.452838
0.452838
0.452838
0.452838
0.452838
0.452838
0.452838
0.452838
0.452838
0.452838
0.452838
0.452838
0.452838
0.452838
0.452838
0.452838
0.452838
0.452838
0.452838
0.452838
0.452838
0.452838
0.452838
0.452838
0.452838
0.452838
0.452838
0.452838
0.452838
0.452838
0.452838
0.452838
0.452838
0.452838
0.452838
0.452838
0.452839
0.452839
0.452838
0.45282
0.452487
0.536398
0.984417
0.999999
0.0189198
0.923425
0.87134
0.995046
0.127204
0.999339
0.325964
0.94868
0.360147
0.553634
0.97479
0.970807
0.450574
0.932474
0.994471
0.11365
0.77877
0.917305
0.988774
0.101124
0.127413
0.990549
0.0147731
0.000723756
3.10432e-05
0.000329543
0.00132237
7.35941e-06
0.000323758
0.00135516
0.000379106
0.000128769
8.3057e-05
4.7997e-05
0.452838
0.452838
0.452838
0.452838
0.452838
0.452838
0.452838
0.452838
0.452838
0.452838
0.452838
0.452838
0.452838
0.452838
0.452838
0.452838
0.452838
0.452838
0.452838
0.452838
0.452838
0.452838
0.452838
0.452838
0.452838
0.452838
0.452838
0.452838
0.452838
0.452838
0.452838
0.452838
0.452838
0.452838
0.452838
0.452838
0.452838
0.452838
0.452838
0.452838
0.452838
0.452838
0.452838
0.452838
0.452838
0.452838
0.452838
0.452838
0.452838
0.452838
0.452838
0.452838
0.452838
0.452838
0.452838
0.452839
0.452836
0.45274
0.448291
0.563299
0.0519462
0.601973
0.687872
0.468946
0.865725
0.198036
0.834987
0.907948
0.506987
0.957026
0.999732
0.891311
0.780432
0.777694
0.999996
0.798981
0.148557
0.684014
0.900137
0.860418
0.826353
0.431968
0.160342
0.00162164
0.804784
0.214264
0.891512
0.726955
0.912634
0.92713
0.997524
0.335403
0.067918
0.0939257
0.109046
0.00509017
0.452838
0.452838
0.452838
0.452838
0.452838
0.452838
0.452838
0.452838
0.452838
0.452838
0.452838
0.452838
0.452838
0.452838
0.452838
0.452838
0.452838
0.452838
0.452838
0.452838
0.452838
0.452838
0.452838
0.452838
0.452838
0.452838
0.452838
0.452838
0.452838
0.452838
0.452838
0.452838
0.452838
0.452838
0.452838
0.452838
0.452838
0.452838
0.452838
0.452838
0.452838
0.452838
0.452838
0.452838
0.452838
0.452838
0.452838
0.452838
0.452838
0.452838
0.452838
0.452838
0.452838
0.452838
0.452839
0.452839
0.452852
0.45319
0.454716
0.562395
0.115473
0.921805
0.666003
0.85067
0.734287
0.387519
0.188814
0.859998
0.466829
0.72418
0.829305
0.544728
0.481114
0.68017
0.5038
0.406963
0.785487
0.329393
0.431424
0.471374
0.416356
0.172861
0.202163
0.957228
0.193474
0.451208
0.624595
0.721303
0.257945
0.478305
0.426555
0.324937
0.205772
0.986431
0.994623
0.999885
0.452838
0.452838
0.452838
0.452838
0.452838
0.452838
0.452838
0.452838
0.452838
0.452838
0.452838
0.452838
0.452838
0.452838
0.452838
0.452838
0.452838
0.452838
0.452838
0.452838
0.452838
0.452838
0.452838
0.452838
0.452838
0.452838
0.452838
0.452838
0.452838
0.452838
0.452838
0.452838
0.452838
0.452838
0.452838
0.452838
0.452838
0.452838
0.452838
0.452838
0.452838
0.452838
0.452838
0.452838
0.452838
0.452838
0.452838
0.452838
0.452838
0.452838
0.452838
0.452838
0.452838
0.452838
0.452839
0.452839
0.452839
0.452807
0.450964
0.520327
0.485043
0.89006
0.387712
0.330617
0.90412
0.703848
0.41563
0.648589
0.934553
0.560959
0.813473
0.624845
0.999999
0.865006
0.131416
0.0548292
0.864025
0.942276
0.411319
0.26855
0.847565
0.382505
0.536555
0.207915
0.846264
0.762465
0.892017
0.999545
0.237067
0.906021
0.475425
0.661157
0.484883
0.489569
0.912328
0.977912
0.452838
0.452838
0.452838
0.452838
0.452838
0.452838
0.452838
0.452838
0.452838
0.452838
0.452838
0.452838
0.452838
0.452838
0.452838
0.452838
0.452838
0.452838
0.452838
0.452838
0.452838
0.452838
0.452838
0.452838
0.452838
0.452838
0.452838
0.452838
0.452838
0.452838
0.452838
0.452838
0.452838
0.452838
0.452838
0.452838
0.452838
0.452838
0.452838
0.452838
0.452838
0.452838
0.452838
0.452838
0.452838
0.452838
0.452838
0.452838
0.452838
0.452838
0.452838
0.452838
0.452838
0.452838
0.452839
0.452838
0.452838
0.452838
0.452721
0.533242
0.978379
0.990884
0.978768
0.0381115
0.0607066
0.966736
0.0684665
0.984714
0.0244752
0.108864
0.0649136
0.0378544
0.0448997
0.0160902
0.00675438
0.013737
0.0524185
0.0933808
0.0432333
0.995564
0.102512
0.320529
0.0168347
0.0234844
0.0359088
0.00408787
0.00282319
0.00519813
0.00885585
0.0209827
0.0177242
0.425624
0.0145381
0.00389616
0.00467329
1.62095e-05
0.452838
0.452838
0.452838
0.452838
0.452838
0.452838
0.452838
0.452838
0.452838
0.452838
0.452838
0.452838
0.452838
0.452838
0.452838
0.452838
0.452838
0.452838
0.452838
0.452838
0.452838
0.452838
0.452838
0.452838
0.452838
0.452838
0.452838
0.452838
0.452838
0.452838
0.452838
0.452838
0.452838
0.452838
0.452838
0.452838
0.452838
0.452838
0.452838
0.452838
0.452838
0.452838
0.452838
0.452838
0.452838
0.452838
0.452838
0.452838
0.452838
0.452838
0.452838
0.452838
0.452838
0.452838
0.452839
0.452839
0.45284
0.453035
0.427804
0.559876
0.27923
0.999989
0.000142823
0.00074001
5.19718e-05
1.1874e-05
4.11129e-05
0.000559601
0.000875703
0.000657108
0.000965105
0.0029618
0.000608642
8.84269e-06
0.0062375
8.14803e-06
0.000149289
0.000389033
0.000546977
8.85424e-06
0.000986968
6.90022e-06
0.0016925
0.000366125
0.00114289
0.000267703
0.000140291
9.37968e-05
0.001027
0.0101527
0.000385981
0.00030012
0.000281223
0.000736173
0.000462673
0.000128875
0.452838
0.452838
0.452838
0.452838
0.452838
0.452838
0.452838
0.452838
0.452838
0.452838
0.452838
0.452838
0.452838
0.452838
0.452838
0.452838
0.452838
0.452838
0.452838
0.452838
0.452838
0.452838
0.452838
0.452838
0.452838
0.452838
0.452838
0.452838
0.452838
0.452838
0.452838
0.452838
0.452838
0.452838
0.452838
0.452838
0.452838
0.452838
0.452838
0.452838
0.452838
0.452838
0.452838
0.452838
0.452838
0.452838
0.452838
0.452838
0.452838
0.452838
0.452838
0.452838
0.452838
0.452838
0.452839
0.452839
0.452842
0.452827
0.432325
0.505
0.61712
0.999999
9.94296e-05
5.30641e-06
0.000496653
7.58178e-05
0.00275705
0.0447606
0.00945206
0.0440494
0.019368
0.0251887
0.0087236
0.00487824
0.00309392
0.00194537
0.00145706
0.00115061
0.00112842
0.00198493
0.000227438
0.00623907
0.00488889
0.00401434
0.00385401
0.000839487
0.000846841
0.00188275
0.000512015
0.000590752
0.00119126
0.00362156
0.00450913
0.00269738
0.00074141
0.000105123
0.452838
0.452838
0.452838
0.452838
0.452838
0.452838
0.452838
0.452838
0.452838
0.452838
0.452838
0.452838
0.452838
0.452838
0.452838
0.452838
0.452838
0.452838
0.452838
0.452838
0.452838
0.452838
0.452838
0.452838
0.452838
0.452838
0.452838
0.452838
0.452838
0.452838
0.452838
0.452838
0.452838
0.452838
0.452838
0.452838
0.452838
0.452838
0.452838
0.452838
0.452838
0.452838
0.452838
0.452838
0.452838
0.452838
0.452838
0.452838
0.452838
0.452838
0.452838
0.452838
0.452838
0.452838
0.452839
0.452839
0.45284
0.452842
0.45357
0.539118
0.307256
0.00527717
0.000827503
0.00268302
0.00288174
0.0028916
0.00250961
0.00784916
0.00334116
0.00255147
0.00206173
0.00259817
0.00373798
0.00577935
0.0042075
0.00208847
0.00152997
0.00144899
0.0015369
0.00216395
0.0119961
0.0053861
0.0103463
0.00312695
0.00249965
0.00354761
0.0797678
0.00386832
0.0736457
0.00136931
0.00144047
0.0112424
0.00436915
0.00276873
0.0012842
0.00010963
0.452838
0.452838
0.452838
0.452838
0.452838
0.452838
0.452838
0.452838
0.452838
0.452838
0.452838
0.452838
0.452838
0.452838
0.452838
0.452838
0.452838
0.452838
0.452838
0.452838
0.452838
0.452838
0.452838
0.452838
0.452838
0.452838
0.452838
0.452838
0.452838
0.452838
0.452838
0.452838
0.452838
0.452838
0.452838
0.452838
0.452838
0.452838
0.452838
0.452838
0.452838
0.452838
0.452838
0.452838
0.452838
0.452838
0.452838
0.452838
0.452838
0.452838
0.452838
0.452838
0.452838
0.452838
0.452838
0.452838
0.452842
0.452808
0.454715
0.500476
0.432651
4.67825e-05
0.000376525
0.000455407
0.00129523
0.00130484
0.00400117
0.00304439
0.00314808
0.0142286
0.00507479
0.00348499
0.00260655
0.00254201
0.00252462
0.00184549
0.00144115
0.00112674
0.000956014
0.000997662
0.00216024
0.00175117
0.001794
0.00214333
0.00217275
0.00662626
0.00268426
0.0592673
0.0120386
0.00416754
0.00269985
0.00834199
0.00441371
0.00296007
0.00126061
0.000121527
0.452838
0.452838
0.452838
0.452838
0.452838
0.452838
0.452838
0.452838
0.452838
0.452838
0.452838
0.452838
0.452838
0.452838
0.452838
0.452838
0.452838
0.452838
0.452838
0.452838
0.452838
0.452838
0.452838
0.452838
0.452838
0.452838
0.452838
0.452838
0.452838
0.452838
0.452838
0.452838
0.452838
0.452838
0.452838
0.452838
0.452838
0.452838
0.452838
0.452838
0.452838
0.452838
0.452838
0.452838
0.452838
0.452838
0.452838
0.452838
0.452838
0.452838
0.452838
0.452838
0.452838
0.452838
0.452838
0.452838
0.452843
0.453359
0.487864
0.361245
0.545193
0.00233356
7.40344e-06
0.00176996
0.00023108
0.00066953
0.00140343
0.000908095
0.00102562
0.00167273
0.00181952
0.00241288
0.00328893
0.00509155
0.0165212
0.00390117
0.00151929
0.00136677
0.00191037
0.00375822
0.00180776
0.00187541
0.00325317
0.00465459
0.00296713
0.0192646
0.017415
0.00381124
0.00243968
0.00289687
0.250051
0.036417
0.00848724
0.013418
0.00301632
0.000125999
0.452838
0.452838
0.452838
0.452838
0.452838
0.452838
0.452838
0.452838
0.452838
0.452838
0.452838
0.452838
0.452838
0.452838
0.452838
0.452838
0.452838
0.452838
0.452838
0.452838
0.452838
0.452838
0.452838
0.452838
0.452838
0.452838
0.452838
0.452838
0.452838
0.452838
0.452838
0.452838
0.452838
0.452838
0.452838
0.452838
0.452838
0.452838
0.452838
0.452838
0.452838
0.452838
0.452838
0.452838
0.452838
0.452838
0.452838
0.452838
0.452838
0.452838
0.452838
0.452838
0.452838
0.452838
0.452838
0.452839
0.452842
0.453012
0.460651
0.551553
0.200763
0.099063
1.60446e-05
2.41824e-06
0.0018541
0.00313841
0.00247923
0.00136254
0.00119029
0.00164089
0.00200347
0.00205855
0.00215863
0.00227144
0.00278524
0.00386646
0.00339873
0.00324282
0.00397969
0.00461599
0.00632351
0.00498467
0.00118522
0.00117588
0.00763876
0.00368688
0.00215737
0.0179653
0.00602772
0.0106204
0.0165564
0.0192618
0.0151396
0.0114786
0.00217691
0.000125086