/*--------------------------------*- C++ -*----------------------------------*\
| =========                 |                                                 |
| \\      /  F ield         | OpenFOAM: The Open Source CFD Toolbox           |
|  \\    /   O peration     | Version:  2.3.0                                 |
|   \\  /    A nd           | Web:      www.OpenFOAM.org                      |
|    \\/     M anipulation  |                                                 |
\*---------------------------------------------------------------------------*/
FoamFile
{
    version     2.0;
    format      ascii;
    class       surfaceScalarField;
    location    "51";
    object      phi.water;
}
// * * * * * * * * * * * * * * * * * * * * * * * * * * * * * * * * * * * * * //

dimensions      [0 3 -1 0 0 0 0];

internalField   nonuniform List<scalar> 
16448
(
-1.29453e-06
-2.57229e-06
5.27248e-07
7.56138e-07
-2.76492e-06
7.19078e-07
7.96506e-07
-1.20061e-06
1.16481e-06
6.69738e-07
-9.71635e-07
1.10194e-06
2.24184e-07
-4.46517e-07
8.98362e-07
4.94385e-08
-6.11252e-07
7.95269e-07
6.91065e-09
-6.62048e-07
7.14165e-07
7.58291e-09
-6.44507e-07
6.51411e-07
-5.91382e-08
-5.10572e-07
5.8257e-07
-2.20023e-07
-3.77217e-07
5.39836e-07
-4.11679e-07
-2.90901e-07
4.82967e-07
-5.13206e-07
-2.94948e-07
3.96514e-07
-5.10608e-07
-3.27546e-07
3.25159e-07
-4.12071e-07
-3.70988e-07
2.72591e-07
-2.8827e-07
-3.86772e-07
2.63205e-07
-1.51603e-07
-4.05153e-07
2.68677e-07
-2.58503e-08
-4.18063e-07
2.92558e-07
7.99093e-08
-4.29502e-07
3.2398e-07
1.58667e-07
-4.39272e-07
3.60774e-07
2.10653e-07
-4.46518e-07
3.94786e-07
2.35729e-07
-4.49649e-07
4.24841e-07
2.3948e-07
-4.53527e-07
4.50035e-07
2.30497e-07
-4.53372e-07
4.62626e-07
2.15598e-07
-4.48792e-07
4.63955e-07
1.99131e-07
-4.39432e-07
4.56183e-07
1.85431e-07
-4.27136e-07
4.41117e-07
1.78605e-07
-4.15304e-07
4.22435e-07
1.82338e-07
-4.06155e-07
4.02722e-07
1.96244e-07
-3.9698e-07
3.83398e-07
2.17792e-07
-3.87477e-07
3.66249e-07
2.46284e-07
-3.78577e-07
3.50432e-07
2.8384e-07
-3.71427e-07
3.34211e-07
3.3314e-07
-3.66168e-07
3.17237e-07
3.96948e-07
-3.62932e-07
2.99483e-07
4.78174e-07
-3.62679e-07
2.81842e-07
5.78705e-07
-3.6699e-07
2.66838e-07
6.9527e-07
-3.76551e-07
2.60395e-07
8.1581e-07
-3.91174e-07
2.71029e-07
9.16206e-07
-4.07377e-07
3.07412e-07
9.65881e-07
-4.28576e-07
3.79314e-07
9.41061e-07
-4.62278e-07
4.87456e-07
8.66917e-07
-5.16062e-07
5.90417e-07
9.4869e-07
-7.25406e-07
6.52809e-07
1.59153e-06
-1.32736e-06
7.23297e-07
2.82937e-06
-2.13665e-06
9.56094e-07
4.03929e-06
-2.46979e-06
1.31474e-06
4.03807e-06
-1.63143e-06
1.70747e-06
2.22976e-06
-1.88188e-07
2.09631e-06
2.74568e-07
-6.97806e-07
2.7642e-06
-4.43462e-07
-2.9222e-06
3.68216e-06
1.48856e-06
-7.62476e-06
5.68511e-06
5.04194e-06
-9.622e-06
6.03271e-06
6.64562e-06
-8.55064e-06
6.92857e-06
6.64851e-06
-7.74071e-06
7.65631e-06
8.50785e-06
-9.00811e-06
7.15941e-06
1.39523e-05
-1.07213e-05
5.10434e-06
8.25851e-06
4.00617e-06
1.82974e-06
1.28338e-05
5.65501e-07
-4.31738e-06
-6.62667e-07
1.00017e-05
1.2255e-05
3.03122e-05
-4.55013e-06
-6.02252e-06
3.24783e-05
-3.65213e-05
4.63515e-06
4.08535e-05
-1.98671e-05
1.01538e-05
3.90823e-05
-8.93602e-06
1.07014e-05
3.98598e-05
-8.86634e-06
8.08883e-06
4.13941e-05
-7.93881e-06
6.40457e-06
4.14203e-05
-5.11605e-06
5.08979e-06
4.11219e-05
-4.07909e-06
4.37747e-06
4.04212e-05
-3.83793e-06
4.53868e-06
3.91204e-05
-3.51862e-06
4.8194e-06
3.80376e-05
-3.90444e-06
4.98723e-06
3.53826e-05
-2.30857e-06
4.9636e-06
3.15202e-05
3.48869e-07
3.51355e-06
2.6929e-05
2.18626e-06
2.40493e-06
2.11687e-05
3.31506e-06
2.44522e-06
1.5929e-05
2.83198e-06
2.40773e-06
1.3261e-05
1.46405e-06
1.20388e-06
1.31357e-05
1.13727e-07
1.165e-08
1.36996e-05
-7.80496e-08
-4.85872e-07
1.40927e-05
1.94518e-07
-5.87675e-07
1.38414e-05
7.72887e-07
-5.21577e-07
1.36525e-05
9.17643e-07
-7.28717e-07
1.41412e-05
9.88573e-07
-1.47725e-06
1.54931e-05
8.37426e-07
-2.18939e-06
1.69798e-05
7.99965e-07
-2.28663e-06
1.89663e-05
1.76273e-07
-2.16281e-06
2.07228e-05
-3.61166e-07
-1.39533e-06
2.21141e-05
-5.86479e-07
-8.04783e-07
2.3023e-05
-2.77237e-07
-6.31727e-07
2.26531e-05
7.88434e-07
-4.1852e-07
2.11143e-05
1.66211e-06
-1.23258e-07
1.75721e-05
2.99476e-06
5.47455e-07
9.8969e-06
4.5282e-06
3.14696e-06
2.82438e-07
3.64062e-06
5.97384e-06
-5.24732e-06
2.66996e-06
2.8598e-06
-5.84494e-06
2.53017e-06
-1.93256e-06
2.62758e-06
-8.47251e-06
-1.98723e-06
-3.62476e-06
-2.04514e-07
-4.57418e-07
-4.06093e-06
-2.25328e-07
-3.64337e-08
-2.2971e-06
6.83241e-07
3.17945e-07
-1.84601e-06
5.25756e-07
3.30247e-07
-7.48309e-07
2.96778e-07
2.19191e-07
-7.43924e-07
2.51422e-07
8.58782e-08
-6.74916e-07
1.54463e-07
-2.73606e-08
-6.12417e-07
8.83775e-08
-1.78408e-07
-4.34018e-07
7.90072e-08
-3.92728e-07
-2.73434e-07
1.11618e-07
-5.92325e-07
-1.90775e-07
9.95508e-08
-6.7388e-07
-2.41732e-07
2.79777e-08
-6.59044e-07
-3.11686e-07
-3.08568e-08
-5.59305e-07
-3.87824e-07
-8.30763e-08
-4.30736e-07
-4.17245e-07
-9.81714e-08
-2.87357e-07
-4.46838e-07
-1.01793e-07
-1.50149e-07
-4.65111e-07
-9.02177e-08
-2.91995e-08
-4.78976e-07
-7.15406e-08
6.73003e-08
-4.88214e-07
-4.76083e-08
1.37925e-07
-4.93144e-07
-2.40546e-08
1.80929e-07
-4.91692e-07
-1.04025e-09
2.01485e-07
-4.86275e-07
1.21388e-08
2.06854e-07
-4.77037e-07
1.82571e-08
2.03069e-07
-4.63559e-07
1.85211e-08
1.94345e-07
-4.45182e-07
1.44421e-08
1.84548e-07
-4.24464e-07
7.08718e-09
1.7697e-07
-4.05157e-07
-2.61464e-09
1.77796e-07
-3.88908e-07
-1.80867e-08
1.87632e-07
-3.74139e-07
-3.26734e-08
2.05783e-07
-3.59426e-07
-4.61724e-08
2.32667e-07
-3.46237e-07
-5.91831e-08
2.70867e-07
-3.37304e-07
-7.22557e-08
3.22933e-07
-3.33558e-07
-8.45968e-08
3.9054e-07
-3.35349e-07
-9.50788e-08
4.73863e-07
-3.43691e-07
-1.02188e-07
5.70466e-07
-3.60373e-07
-1.03065e-07
6.73196e-07
-3.87014e-07
-9.20976e-08
7.70721e-07
-4.24707e-07
-6.37939e-08
8.3955e-07
-4.6872e-07
-7.31013e-09
8.57966e-07
-5.13312e-07
6.66371e-08
8.41704e-07
-6.21073e-07
1.75422e-07
9.47371e-07
-8.65765e-07
2.47375e-07
1.50202e-06
-1.47951e-06
2.25673e-07
2.53796e-06
-2.6365e-06
3.28382e-07
3.29103e-06
-3.65487e-06
8.2717e-07
3.09835e-06
-3.66121e-06
1.44928e-06
2.76194e-06
-2.87485e-06
1.66545e-06
2.66787e-06
-1.42524e-06
1.42588e-06
1.50118e-06
-9.40485e-07
1.51578e-06
-2.36372e-06
-2.5859e-06
3.59272e-06
-6.52266e-06
-1.0745e-05
7.28412e-06
-9.12381e-06
-1.44005e-05
7.35864e-06
-1.20899e-05
-1.32121e-05
7.63422e-06
-1.15816e-05
-1.43692e-05
6.08175e-06
-7.26508e-06
-1.6878e-05
3.70375e-06
-3.12833e-06
-1.57636e-05
7.46433e-07
2.44402e-06
9.91349e-07
-2.11347e-06
1.49583e-05
-8.51539e-06
-4.00812e-06
-2.87756e-06
1.5855e-05
2.06344e-05
3.10783e-05
-1.49821e-05
-1.19128e-06
1.89301e-05
-5.20163e-05
-2.55313e-06
1.59359e-05
-2.27852e-05
4.67679e-06
1.76858e-05
-9.95754e-06
-7.30741e-07
2.08155e-05
-8.66376e-06
-3.33226e-06
2.24453e-05
-5.8955e-06
-3.67313e-06
2.42593e-05
-2.12781e-06
-4.80219e-06
2.61567e-05
-1.62755e-06
-4.34896e-06
2.61335e-05
-6.2722e-07
-3.18754e-06
2.38191e-05
1.43485e-06
-2.63903e-06
2.02413e-05
9.69757e-07
-1.29639e-06
1.54791e-05
2.59121e-06
-1.37592e-07
1.16688e-05
5.7068e-06
-1.54763e-06
8.88924e-06
7.54724e-06
-2.58146e-06
7.03302e-06
7.24785e-06
-2.07657e-06
7.04542e-06
4.27095e-06
-1.45137e-06
7.81745e-06
3.97069e-06
-3.27866e-06
9.7851e-06
4.69474e-06
-6.54867e-06
1.16581e-05
5.50469e-06
-7.45572e-06
1.2446e-05
5.15581e-06
-5.74923e-06
1.21648e-05
4.4901e-06
-3.43601e-06
1.19282e-05
3.22898e-06
-2.07473e-06
1.1628e-05
2.05927e-06
-7.70533e-07
1.21464e-05
8.30313e-07
-5.11279e-07
1.3751e-05
-5.12913e-07
-2.91707e-07
1.53974e-05
-1.44706e-06
-2.30781e-08
1.71473e-05
-2.35315e-06
2.421e-07
1.86469e-05
-2.21435e-06
1.28279e-07
1.97712e-05
-1.61676e-06
2.15224e-07
1.96395e-05
2.36763e-09
9.1775e-07
1.83539e-05
1.95812e-06
9.89618e-07
1.55289e-05
4.50806e-06
1.31165e-06
8.41215e-06
7.9485e-06
3.69645e-06
-5.1684e-07
6.87742e-06
5.6922e-06
-5.59151e-06
4.93115e-06
2.81348e-06
-6.0299e-06
5.07339e-06
-2.10482e-06
5.66999e-06
-9.07231e-06
-2.41975e-06
-3.90018e-06
-4.14601e-07
-1.25458e-06
-4.55664e-06
-6.6121e-07
-7.70786e-07
-2.96914e-06
1.964e-07
-1.36863e-07
-2.55828e-06
8.64798e-08
1.78792e-07
-1.04864e-06
-7.12702e-09
1.14876e-07
-6.8573e-07
1.27277e-08
-1.43163e-08
-4.18543e-07
-1.19619e-07
-1.53886e-07
-3.15881e-07
-1.51039e-07
-2.8995e-07
-1.23464e-07
-1.70758e-07
-4.1766e-07
-5.50984e-09
-1.38669e-07
-5.34087e-07
5.31692e-08
-1.2677e-07
-5.83921e-07
-2.64064e-08
-1.6533e-07
-5.83858e-07
-9.86052e-08
-2.12985e-07
-5.3597e-07
-1.80624e-07
-2.55086e-07
-4.63436e-07
-2.16164e-07
-2.7358e-07
-3.73851e-07
-2.49258e-07
-2.87191e-07
-2.79813e-07
-2.67685e-07
-2.91475e-07
-1.87372e-07
-2.80341e-07
-2.91115e-07
-1.04625e-07
-2.85406e-07
-2.85573e-07
-3.37447e-08
-2.86005e-07
-2.78042e-07
2.42576e-08
-2.79309e-07
-2.70391e-07
6.82152e-08
-2.65429e-07
-2.64799e-07
9.93627e-08
-2.47463e-07
-2.60695e-07
1.20221e-07
-2.26505e-07
-2.5788e-07
1.33557e-07
-2.02575e-07
-2.55889e-07
1.42489e-07
-1.77969e-07
-2.55368e-07
1.49385e-07
-1.55421e-07
-2.56552e-07
1.56588e-07
-1.36615e-07
-2.59407e-07
1.6683e-07
-1.20593e-07
-2.63669e-07
1.82539e-07
-1.05947e-07
-2.69062e-07
2.05847e-07
-9.44509e-08
-2.74936e-07
2.38559e-07
-8.9638e-08
-2.80212e-07
2.81522e-07
-9.2686e-08
-2.83638e-07
3.34024e-07
-1.04516e-07
-2.83127e-07
3.92705e-07
-1.26387e-07
-2.75742e-07
4.51401e-07
-1.60124e-07
-2.58691e-07
5.0247e-07
-2.0861e-07
-2.29194e-07
5.39316e-07
-2.76858e-07
-1.84419e-07
5.52692e-07
-3.65595e-07
-1.16241e-07
5.07117e-07
-4.63606e-07
-3.82749e-09
4.11682e-07
-6.47503e-07
1.22373e-07
3.62151e-07
-1.0237e-06
2.14936e-07
4.73942e-07
-1.76122e-06
2.05402e-07
2.41375e-07
-2.65302e-06
2.95888e-07
-6.09076e-07
-3.44228e-06
6.70476e-07
-1.23745e-06
-3.93652e-06
9.4779e-07
-3.88285e-07
-4.19667e-06
5.64929e-07
1.47494e-06
-3.21179e-06
3.54479e-08
1.50661e-06
-1.09481e-06
2.39208e-07
-2.90884e-06
-8.52342e-07
2.73597e-06
-9.98941e-06
-1.06136e-05
6.95001e-06
-1.52827e-05
-1.56392e-05
6.49139e-06
-1.88825e-05
-1.50834e-05
5.43469e-06
-1.76851e-05
-1.67231e-05
1.07744e-06
-1.39928e-05
-1.90267e-05
-1.50753e-06
-1.11315e-05
-1.77923e-05
-1.17809e-06
7.85843e-06
-1.24866e-05
-4.44969e-06
2.36381e-05
-1.97384e-05
-6.17262e-06
5.37193e-06
2.23291e-05
2.21325e-05
3.15467e-05
-2.06007e-05
1.7047e-06
8.43066e-06
-5.65313e-05
-2.67411e-06
4.7516e-06
-2.05705e-05
1.82877e-07
1.29585e-05
-1.7356e-05
-8.09448e-07
1.20375e-05
-7.34424e-06
-3.98578e-07
1.29323e-05
-5.45767e-06
-1.33262e-06
1.2828e-05
3.15933e-07
-2.3394e-06
1.05597e-05
2.89076e-06
-2.25005e-06
4.51853e-06
4.20708e-06
1.20687e-06
-1.93631e-06
6.38395e-06
1.50574e-06
-5.4376e-06
4.80162e-06
-3.3057e-07
-6.91177e-06
5.23733e-06
-1.17195e-06
-6.8524e-06
7.42302e-06
-1.77558e-06
-5.66332e-06
8.27962e-06
-1.92146e-06
-1.85713e-06
7.07522e-06
-3.63356e-06
2.53816e-06
7.81258e-06
-7.93692e-06
4.95842e-06
9.59006e-06
-8.03963e-06
5.44494e-06
1.06215e-05
-6.41326e-06
5.80831e-06
9.85539e-06
-4.71407e-06
5.97708e-06
7.10586e-06
-2.11881e-06
6.19827e-06
4.39443e-06
-1.25512e-07
6.88562e-06
1.467e-06
1.07463e-06
7.87631e-06
-4.42096e-07
1.51067e-06
8.97869e-06
-2.64269e-06
2.37063e-06
1.03144e-05
-4.8012e-06
2.95256e-06
1.16919e-05
-5.32739e-06
2.50281e-06
1.33953e-05
-5.41047e-06
1.35396e-06
1.53246e-05
-5.38034e-06
1.23664e-06
1.68512e-05
-4.94775e-06
1.80445e-06
1.67507e-05
-1.73817e-06
1.84105e-06
1.47265e-05
2.46998e-06
1.51234e-06
1.02731e-05
5.7939e-06
3.16754e-06
3.34766e-06
9.73056e-06
5.14336e-06
-2.96096e-06
7.69612e-06
5.48991e-06
-6.46834e-06
6.36528e-06
2.07326e-06
-6.07128e-06
6.97679e-06
-2.30046e-06
8.40235e-06
-8.80364e-06
-2.84851e-06
-3.94025e-06
-1.8953e-07
-1.70405e-06
-4.82828e-06
-8.66152e-07
-1.31375e-06
-3.41556e-06
6.4752e-08
-5.90378e-07
-3.32388e-06
5.19535e-08
-9.67377e-08
-1.6446e-06
1.12022e-07
-3.1222e-08
-8.23997e-07
7.9736e-08
-9.77915e-08
-2.14696e-07
-1.30494e-07
-1.70863e-07
-5.7344e-08
-1.80167e-07
-2.15108e-07
1.33222e-07
-2.08591e-07
-2.80907e-07
2.52372e-07
-1.90323e-07
-3.52561e-07
3.24801e-07
-1.99055e-07
-4.17637e-07
2.67175e-07
-2.28162e-07
-4.66959e-07
2.12055e-07
-2.61021e-07
-4.68518e-07
1.19576e-07
-2.98496e-07
-4.39208e-07
7.4451e-08
-3.1973e-07
-3.85234e-07
3.7813e-08
-3.40872e-07
-3.19919e-07
2.35931e-08
-3.56403e-07
-2.49837e-07
2.07015e-08
-3.70932e-07
-1.81452e-07
2.66965e-08
-3.8028e-07
-1.17351e-07
3.57623e-08
-3.8564e-07
-5.933e-08
4.97594e-08
-3.86858e-07
-6.81212e-09
6.78264e-08
-3.85524e-07
3.74752e-08
8.92781e-08
-3.80784e-07
7.24893e-08
1.1333e-07
-3.74582e-07
9.86022e-08
1.39759e-07
-3.6819e-07
1.17429e-07
1.66044e-07
-3.62558e-07
1.3142e-07
1.8883e-07
-3.57975e-07
1.43151e-07
2.06606e-07
-3.5466e-07
1.54714e-07
2.21112e-07
-3.52996e-07
1.67699e-07
2.33961e-07
-3.52599e-07
1.83247e-07
2.43136e-07
-3.52865e-07
2.02105e-07
2.43782e-07
-3.51982e-07
2.23254e-07
2.34332e-07
-3.4789e-07
2.44072e-07
2.1343e-07
-3.38446e-07
2.61312e-07
1.78349e-07
-3.21668e-07
2.71429e-07
1.26938e-07
-2.96815e-07
2.7085e-07
5.32912e-08
-2.60951e-07
2.54238e-07
-5.12172e-08
-2.08597e-07
2.20823e-07
-2.05253e-07
-1.2652e-07
1.50733e-07
-4.0215e-07
9.12956e-09
1.79364e-08
-6.7482e-07
1.61262e-07
-2.63834e-07
-1.04227e-06
3.08185e-07
-8.33231e-07
-1.55383e-06
3.86808e-07
-1.82537e-06
-2.08818e-06
4.59782e-07
-2.99742e-06
-2.63999e-06
3.95554e-07
-3.74534e-06
-3.44121e-06
2.93003e-07
-3.61568e-06
-4.06754e-06
-1.75011e-07
-1.84684e-06
-3.63441e-06
-1.22944e-06
4.79384e-07
-2.02083e-06
-1.23727e-06
-2.00759e-06
3.82886e-07
1.32929e-06
-1.00497e-05
-7.76852e-06
5.20528e-06
-1.67274e-05
-1.46633e-05
5.66912e-06
-2.03616e-05
-1.50401e-05
3.55271e-06
-1.99459e-05
-1.63482e-05
-8.12225e-07
-1.64813e-05
-2.06598e-05
-1.76414e-06
-1.24127e-05
-2.10552e-05
-1.15638e-06
9.78301e-06
-2.54655e-05
-6.70842e-06
1.95437e-05
-1.92882e-05
-9.82823e-06
1.84308e-05
2.88805e-05
1.00077e-05
3.36826e-05
-1.35803e-05
-3.15279e-06
3.3533e-06
-5.8068e-05
-5.06366e-07
-3.55905e-06
-1.61021e-05
1.15699e-06
7.34989e-07
-2.28596e-05
1.20844e-06
-5.69108e-06
-7.47557e-06
6.55732e-06
-6.86735e-06
-8.91633e-06
4.63484e-06
-9.20748e-06
-6.11517e-07
3.26757e-06
-1.00504e-05
2.27466e-06
1.4589e-06
-1.03421e-05
3.47468e-06
1.02403e-06
-9.38397e-06
3.71992e-06
1.70592e-06
-1.03161e-05
3.94359e-06
1.79014e-06
-1.12212e-05
5.65323e-06
4.89255e-07
-9.88782e-06
8.60234e-06
-2.51281e-06
-7.92452e-06
1.16055e-05
-5.28926e-06
-6.92021e-06
1.3818e-05
-7.74703e-06
-5.34779e-06
1.45132e-05
-8.27302e-06
-3.52997e-06
1.34743e-05
-5.70202e-06
-1.44243e-06
1.20739e-05
-3.53991e-06
3.56752e-07
8.69138e-06
-6.3512e-07
1.21991e-06
5.15416e-06
1.08857e-06
1.05983e-06
1.60681e-06
2.94773e-06
5.27605e-07
-2.06719e-06
4.06642e-06
-1.17013e-06
-3.87164e-06
5.12728e-06
-3.81299e-06
-4.97966e-06
4.97983e-06
-5.43728e-06
-6.11247e-06
2.93556e-06
-5.43185e-06
-6.47175e-06
1.13892e-06
-4.584e-06
-6.48385e-06
2.25534e-07
-3.80497e-06
-6.3078e-06
1.48438e-07
-2.94266e-06
-5.83107e-06
2.10082e-08
-2.95353e-06
-2.92474e-06
1.19743e-06
-4.52457e-06
1.53732e-06
2.5037e-06
-5.86923e-06
3.54573e-06
3.59284e-06
-5.45889e-06
4.94983e-06
4.37039e-06
-6.84351e-06
5.04733e-06
4.03341e-06
-7.97228e-06
6.70241e-06
7.91638e-07
-6.14541e-06
8.09684e-06
-2.94692e-06
1.11079e-05
-8.851e-06
-3.23109e-06
-3.77898e-06
1.14403e-08
-2.12252e-06
-4.98606e-06
-9.46254e-07
-1.8368e-06
-3.62927e-06
-6.4323e-08
-1.07081e-06
-3.92167e-06
-1.59365e-07
-5.18839e-07
-2.46424e-06
2.77599e-07
-1.78838e-07
-1.36626e-06
2.11176e-07
-9.20291e-08
-1.78467e-07
-1.1501e-07
-1.51125e-07
1.83463e-07
-1.76339e-07
-1.17943e-07
3.42547e-07
-2.38591e-07
-1.42381e-07
5.02667e-07
-2.23716e-07
-1.94948e-07
6.04719e-07
-2.261e-07
-2.79874e-07
5.76308e-07
-2.23738e-07
-3.68158e-07
5.3439e-07
-2.33763e-07
-4.06498e-07
4.17767e-07
-2.59844e-07
-4.01058e-07
3.46549e-07
-2.77503e-07
-3.63072e-07
2.99501e-07
-2.99699e-07
-3.10894e-07
2.89876e-07
-3.18462e-07
-2.56823e-07
3.04755e-07
-3.3815e-07
-2.03444e-07
3.28603e-07
-3.55279e-07
-1.5049e-07
3.51912e-07
-3.69118e-07
-9.69536e-08
3.75451e-07
-3.79222e-07
-4.3394e-08
3.99618e-07
-3.8537e-07
6.14042e-09
4.26247e-07
-3.86502e-07
4.90923e-08
4.53855e-07
-3.83499e-07
8.45968e-08
4.81819e-07
-3.7756e-07
1.12797e-07
5.07307e-07
-3.6948e-07
1.34619e-07
5.27698e-07
-3.60675e-07
1.50943e-07
5.42463e-07
-3.52178e-07
1.62799e-07
5.5374e-07
-3.44437e-07
1.70988e-07
5.63132e-07
-3.37321e-07
1.74857e-07
5.69361e-07
-3.29999e-07
1.72903e-07
5.67638e-07
-3.21815e-07
1.61748e-07
5.56796e-07
-3.11163e-07
1.37485e-07
5.34648e-07
-2.96812e-07
9.68424e-08
4.97296e-07
-2.78093e-07
3.7615e-08
4.39588e-07
-2.53207e-07
-3.71224e-08
3.46558e-07
-2.18225e-07
-1.18297e-07
1.9741e-07
-1.67141e-07
-2.09273e-07
-2.1265e-08
-9.26722e-08
-2.93902e-07
-3.25333e-07
8.14312e-09
-3.60598e-07
-6.85123e-07
7.83154e-08
-5.591e-07
-1.0107e-06
1.71829e-07
-1.22981e-06
-1.20162e-06
3.32828e-07
-2.45462e-06
-1.35684e-06
5.16915e-07
-3.8015e-06
-1.67794e-06
4.1088e-07
-4.70443e-06
-2.38478e-06
-1.13483e-07
-5.13366e-06
-2.90121e-06
-6.63219e-07
-4.25108e-06
-2.6956e-06
-1.71025e-06
-1.13937e-06
-2.51252e-06
-2.46022e-06
-8.14139e-07
5.75162e-07
-4.47612e-07
-9.7983e-06
-1.95463e-06
3.22298e-06
-1.92988e-05
-1.07442e-05
5.53697e-06
-2.37298e-05
-1.45252e-05
3.90036e-06
-2.38736e-05
-1.52054e-05
-1.02212e-06
-2.23718e-05
-2.00603e-05
-2.16665e-06
-2.06509e-05
-2.19698e-05
-1.01966e-06
-2.11248e-05
-2.01161e-05
-3.0217e-06
-2.53508e-05
-1.63824e-05
3.29057e-07
2.48636e-05
2.34624e-08
2.13602e-06
3.68357e-05
-1.17494e-05
-3.8719e-06
-2.88254e-06
-5.4778e-05
8.40042e-07
-1.0217e-05
-1.32207e-05
3.28031e-06
-1.38967e-05
-1.97834e-05
5.98169e-07
-1.40768e-05
-9.46726e-06
2.16934e-06
-1.4618e-05
-9.69611e-06
1.31865e-06
-1.33664e-05
-3.32646e-06
1.46195e-06
-1.19202e-05
7.33812e-08
7.54346e-07
-1.08735e-05
3.01814e-06
-5.90729e-07
-1.07932e-05
4.85577e-06
-1.21674e-06
-1.22134e-05
7.02144e-06
-1.65847e-06
-1.43839e-05
1.11077e-05
-3.28472e-06
-1.62909e-05
1.51249e-05
-4.61567e-06
-1.62986e-05
1.79842e-05
-6.37036e-06
-1.38006e-05
1.86238e-05
-7.30234e-06
-1.03322e-05
1.6366e-05
-5.31933e-06
-7.34384e-06
1.29877e-05
-2.49949e-06
-5.01673e-06
9.07561e-06
6.73359e-07
-5.5146e-06
5.29861e-06
3.89247e-06
-1.12869e-05
3.6051e-06
7.32351e-06
-1.9782e-05
1.55165e-06
8.55284e-06
-2.38275e-05
-2.88193e-06
4.85986e-06
-2.42885e-05
-5.11837e-06
1.70685e-06
-2.32219e-05
-6.70235e-06
6.54971e-07
-2.12861e-05
-8.27725e-06
2.27755e-07
-1.97988e-05
-8.6333e-06
6.73445e-07
-1.88217e-05
-8.75808e-06
1.29663e-06
-1.78713e-05
-8.77866e-06
1.52038e-06
-1.71285e-05
-8.11986e-06
1.5459e-06
-1.68191e-05
-5.75329e-06
2.51911e-06
-1.54488e-05
-2.83037e-06
2.99737e-06
-1.38896e-05
-1.48169e-06
3.46824e-06
-1.24547e-05
1.92997e-07
3.322e-06
-1.14735e-05
1.54355e-06
2.52249e-06
-9.57041e-06
4.7152e-06
8.4174e-08
-6.18807e-06
9.35179e-06
-4.63729e-06
1.38244e-05
-8.90457e-06
-3.57059e-06
-3.42635e-06
3.27384e-07
-2.53298e-06
-5.10043e-06
-9.20844e-07
-2.27929e-06
-3.67496e-06
-2.01472e-07
-1.35336e-06
-4.14662e-06
-6.92341e-07
-7.6912e-07
-3.14564e-06
1.06992e-07
-2.13848e-07
-2.15252e-06
2.39998e-07
2.14596e-08
-3.28953e-07
-7.53227e-08
-6.52185e-08
3.89839e-07
-1.13135e-07
1.6658e-08
5.11399e-07
-2.46414e-07
9.68218e-10
7.26766e-07
-2.0579e-07
-4.291e-08
8.53541e-07
-2.03088e-07
-1.60524e-07
8.84912e-07
-1.90127e-07
-2.95485e-07
8.61781e-07
-1.91787e-07
-3.52799e-07
6.93013e-07
-2.17616e-07
-3.44943e-07
5.84148e-07
-2.45098e-07
-3.01965e-07
5.32055e-07
-2.75188e-07
-2.49148e-07
5.36417e-07
-2.99015e-07
-2.06593e-07
5.80612e-07
-3.18028e-07
-1.74448e-07
6.31132e-07
-3.34269e-07
-1.45794e-07
6.7146e-07
-3.47755e-07
-1.14996e-07
7.03023e-07
-3.57932e-07
-7.98065e-08
7.28842e-07
-3.63944e-07
-4.2917e-08
7.54164e-07
-3.64359e-07
-7.03623e-09
7.78896e-07
-3.60448e-07
2.42642e-08
8.04028e-07
-3.53063e-07
4.92942e-08
8.26029e-07
-3.43268e-07
7.00201e-08
8.38874e-07
-3.31447e-07
8.6976e-08
8.45141e-07
-3.19144e-07
9.88343e-08
8.49409e-07
-3.07065e-07
1.02258e-07
8.55439e-07
-2.95223e-07
9.24949e-08
8.62363e-07
-2.82757e-07
6.63255e-08
8.64226e-07
-2.69891e-07
2.00102e-08
8.59725e-07
-2.56121e-07
-4.75121e-08
8.44245e-07
-2.41538e-07
-1.32252e-07
8.08714e-07
-2.26193e-07
-2.29836e-07
7.46375e-07
-2.08694e-07
-3.32197e-07
6.40287e-07
-1.90938e-07
-4.30082e-07
4.70144e-07
-1.74387e-07
-5.12973e-07
2.23209e-07
-1.61156e-07
-5.79532e-07
-9.46866e-08
-1.63567e-07
-5.88499e-07
-4.72651e-07
-2.0225e-07
-5.86433e-07
-7.76323e-07
-2.32681e-07
-9.63005e-07
-7.8479e-07
-3.14211e-08
-1.94379e-06
-6.31747e-07
2.71529e-07
-3.19814e-06
-6.131e-07
2.11952e-07
-4.13061e-06
-1.01736e-06
-3.9663e-07
-4.84042e-06
-1.40921e-06
-7.16096e-07
-4.81379e-06
-1.53535e-06
-1.06776e-06
-2.68868e-06
-2.59144e-06
-1.92171e-06
2.76567e-08
-9.23156e-07
-1.08838e-06
-6.13139e-06
2.818e-06
1.43565e-06
-1.78835e-05
-2.6865e-06
3.69186e-06
-2.36536e-05
-1.21668e-05
3.36903e-06
-2.50646e-05
-1.47891e-05
9.91132e-07
-2.41297e-05
-2.34363e-05
2.52578e-06
-2.33234e-05
-2.90717e-05
6.13403e-06
-2.86073e-05
-2.01395e-05
6.60105e-06
-3.51489e-05
-2.25838e-05
1.1074e-05
3.45625e-05
-5.35547e-05
1.36745e-05
4.10818e-05
-1.07971e-05
-1.98143e-06
-7.60719e-06
-4.69191e-05
3.3732e-06
-1.19923e-05
-1.2509e-05
2.27435e-06
-1.765e-05
-1.42509e-05
8.98161e-08
-2.02876e-05
-6.85969e-06
6.85757e-09
-2.33526e-05
-5.92618e-06
-7.20726e-07
-2.32701e-05
-2.15323e-06
-1.26743e-06
-2.29673e-05
1.04733e-06
-1.2836e-06
-2.26146e-05
4.49613e-06
-1.83311e-06
-2.38605e-05
8.18905e-06
-2.08567e-06
-2.50017e-05
1.11047e-05
-2.93783e-06
-2.52851e-05
1.4711e-05
-3.31095e-06
-2.36742e-05
1.75817e-05
-4.05103e-06
-1.98901e-05
1.86637e-05
-4.44029e-06
-1.53567e-05
1.66369e-05
-2.51754e-06
-1.26734e-05
1.33756e-05
3.40612e-07
-1.47144e-05
1.08259e-05
4.23589e-06
-2.22468e-05
9.55566e-06
7.08497e-06
-3.19093e-05
7.48514e-06
7.50406e-06
-3.85259e-05
5.05531e-06
5.18308e-06
-4.20563e-05
1.35113e-06
3.73712e-06
-4.29764e-05
-3.22632e-06
1.24067e-06
-4.19657e-05
-5.84612e-06
-3.2269e-07
-4.00994e-05
-7.50933e-06
-1.10371e-06
-3.73169e-05
-9.42887e-06
-1.68594e-06
-3.37505e-05
-1.03635e-05
-1.89182e-06
-3.02268e-05
-1.05835e-05
-1.74449e-06
-2.67401e-05
-1.06103e-05
-1.69108e-06
-2.34934e-05
-9.72925e-06
-1.66288e-06
-2.08372e-05
-7.70542e-06
-7.1841e-07
-1.86876e-05
-5.30878e-06
3.22553e-07
-1.6825e-05
-3.71421e-06
3.67208e-07
-1.46169e-05
-1.85196e-06
-1.64004e-07
-1.28836e-05
3.40539e-07
-5.30674e-07
-9.37527e-06
4.17383e-06
-2.96709e-06
-5.72771e-06
1.11705e-05
-5.46631e-06
1.6382e-05
-8.28532e-06
-3.8067e-06
-2.80258e-06
6.73774e-07
-2.89377e-06
-5.03233e-06
-9.80824e-07
-2.67121e-06
-3.48505e-06
-4.07543e-07
-1.5338e-06
-4.02163e-06
-1.25444e-06
-8.45782e-07
-3.38784e-06
-4.3582e-07
-1.40624e-07
-2.67453e-06
-1.75701e-07
1.47021e-07
-4.37111e-07
-1.70164e-07
-9.32689e-09
6.38013e-07
-8.29492e-08
8.38326e-08
7.22336e-07
-2.99593e-07
5.03788e-08
9.93348e-07
-2.30359e-07
1.66094e-08
1.12015e-06
-2.31308e-07
-1.03345e-07
1.1813e-06
-1.75896e-07
-2.28003e-07
1.15431e-06
-1.67673e-07
-2.64034e-07
9.37354e-07
-2.08566e-07
-2.43054e-07
8.12411e-07
-2.4944e-07
-2.00504e-07
7.70017e-07
-2.80782e-07
-1.60181e-07
7.97349e-07
-3.01486e-07
-1.38275e-07
8.69231e-07
-3.10794e-07
-1.34106e-07
9.42846e-07
-3.16113e-07
-1.37927e-07
9.96018e-07
-3.21002e-07
-1.41768e-07
1.032e-06
-3.25374e-07
-1.41553e-07
1.05591e-06
-3.27543e-07
-1.35654e-07
1.07388e-06
-3.25838e-07
-1.25543e-07
1.08869e-06
-3.20145e-07
-1.1554e-07
1.10395e-06
-3.10123e-07
-1.07623e-07
1.11454e-06
-2.96635e-07
-9.74457e-08
1.11275e-06
-2.84185e-07
-8.49105e-08
1.10479e-06
-2.7231e-07
-7.41285e-08
1.09852e-06
-2.59963e-07
-7.33747e-08
1.10157e-06
-2.46963e-07
-9.0157e-08
1.11207e-06
-2.32944e-07
-1.26685e-07
1.1194e-06
-2.18668e-07
-1.83946e-07
1.12034e-06
-2.03299e-07
-2.58452e-07
1.10716e-06
-1.88326e-07
-3.39102e-07
1.06633e-06
-1.76779e-07
-4.14739e-07
9.91792e-07
-1.69571e-07
-4.73498e-07
8.68031e-07
-1.68718e-07
-5.17389e-07
6.88362e-07
-1.74075e-07
-5.525e-07
4.55199e-07
-1.96604e-07
-5.91006e-07
1.93154e-07
-2.49024e-07
-6.20805e-07
-1.10572e-07
-3.31542e-07
-6.33702e-07
-3.62532e-07
-3.98466e-07
-7.42321e-07
-3.67916e-07
-3.02207e-07
-1.1277e-06
-1.75614e-07
-6.01355e-08
-1.80771e-06
1.73978e-07
-9.08473e-08
-2.4587e-06
-5.06369e-08
-2.83621e-07
-3.4151e-06
-1.78153e-07
-2.10145e-07
-3.31095e-06
-1.44454e-06
-6.59972e-08
2.97958e-07
-4.27116e-06
-1.76562e-06
4.07234e-06
-2.58534e-06
-2.00305e-06
4.44478e-06
2.26834e-06
3.16981e-07
-4.38739e-06
3.53337e-06
2.73275e-06
-1.73278e-05
-2.99698e-06
3.8342e-06
-2.29048e-05
-1.17011e-05
2.46472e-06
-2.28284e-05
-2.55596e-05
2.21679e-06
-2.08165e-05
-3.41752e-05
2.27385e-06
8.71634e-06
-4.05303e-05
-5.40465e-06
2.32144e-05
-3.38902e-05
-4.1119e-06
4.44892e-05
-4.64041e-05
5.78798e-06
3.70044e-05
-8.78829e-06
1.51424e-06
-1.97561e-05
-3.1783e-05
7.47222e-06
-2.49364e-05
-1.13254e-05
3.21182e-06
-3.09644e-05
-8.89878e-06
5.31083e-07
-3.10347e-05
-5.50131e-06
-1.40778e-06
-3.0997e-05
-4.26779e-06
-1.77919e-06
-2.94758e-05
-1.83225e-06
-1.89691e-06
-2.86867e-05
1.28089e-06
-1.03222e-06
-2.86688e-05
5.2313e-06
-7.22901e-07
-2.86811e-05
8.54528e-06
-2.89227e-07
-2.86056e-05
1.10661e-05
3.54398e-08
-2.78065e-05
1.37292e-05
2.84293e-07
-2.70063e-05
1.61045e-05
8.1573e-07
-2.81891e-05
1.79145e-05
2.11356e-06
-3.52909e-05
1.95881e-05
4.36591e-06
-4.73045e-05
1.97737e-05
5.8216e-06
-5.81294e-05
1.74825e-05
4.32926e-06
-6.43599e-05
1.37307e-05
2.18087e-06
-6.70786e-05
9.17075e-06
1.12036e-06
-6.64568e-05
4.49126e-06
-7.53592e-09
-6.49686e-05
8.32507e-07
-9.39816e-07
-6.36598e-05
-2.88003e-06
-1.69792e-06
-6.21959e-05
-5.31651e-06
-2.07331e-06
-6.02614e-05
-6.89436e-06
-2.64679e-06
-5.80795e-05
-8.38188e-06
-3.39179e-06
-5.57919e-05
-9.22534e-06
-3.63913e-06
-5.28904e-05
-9.91788e-06
-3.81883e-06
-4.91723e-05
-1.06805e-05
-3.92822e-06
-4.45592e-05
-1.0471e-05
-4.1575e-06
-3.85203e-05
-9.70377e-06
-4.32219e-06
-3.1429e-05
-7.99641e-06
-4.6746e-06
-2.44241e-05
-6.0648e-06
-4.90129e-06
-1.7975e-05
-3.70461e-06
-4.79506e-06
-1.33943e-05
4.14015e-07
-4.77927e-06
-9.09561e-06
5.85485e-06
-6.05383e-06
-4.71383e-06
1.3564e-05
-6.80627e-06
1.91461e-05
-7.47726e-06
-3.68496e-06
-1.9419e-06
1.28544e-06
-3.12448e-06
-4.67129e-06
-9.22762e-07
-3.11347e-06
-3.14966e-06
-3.42722e-07
-1.90558e-06
-3.77819e-06
-1.44393e-06
-9.37217e-07
-3.44577e-06
-8.99588e-07
7.66938e-09
-2.86524e-06
-7.46457e-07
3.29458e-07
-4.90174e-07
-2.59679e-07
1.69782e-07
7.69612e-07
3.73801e-08
1.84093e-07
1.04612e-06
-3.32177e-07
6.38511e-08
1.34432e-06
-2.27284e-07
3.22353e-08
1.43203e-06
-2.78077e-07
-2.38694e-09
1.46319e-06
-2.46482e-07
-7.93249e-09
1.43247e-06
-2.72073e-07
-9.93876e-09
1.26557e-06
-3.26213e-07
-8.87209e-09
1.19011e-06
-3.78577e-07
-2.38959e-08
1.19695e-06
-4.11793e-07
-5.40283e-08
1.26227e-06
-4.34639e-07
-9.33054e-08
1.3557e-06
-4.47044e-07
-1.38323e-07
1.44418e-06
-4.56163e-07
-1.88442e-07
1.51083e-06
-4.64501e-07
-2.30944e-07
1.54651e-06
-4.71861e-07
-2.61717e-07
1.56366e-06
-4.76833e-07
-2.81379e-07
1.57293e-06
-4.79305e-07
-2.90781e-07
1.57721e-06
-4.79058e-07
-2.91437e-07
1.58057e-06
-4.75988e-07
-2.85524e-07
1.57975e-06
-4.71191e-07
-2.77347e-07
1.57069e-06
-4.6626e-07
-2.66123e-07
1.55488e-06
-4.6147e-07
-2.55541e-07
1.54234e-06
-4.54603e-07
-2.58054e-07
1.54799e-06
-4.44086e-07
-2.82145e-07
1.56625e-06
-4.3028e-07
-3.29068e-07
1.5819e-06
-4.15732e-07
-3.95494e-07
1.58874e-06
-4.02151e-07
-4.67203e-07
1.57047e-06
-3.91757e-07
-5.21094e-07
1.50773e-06
-3.87704e-07
-5.41042e-07
1.40148e-06
-3.89904e-07
-5.2622e-07
1.2523e-06
-3.99216e-07
-4.83875e-07
1.05541e-06
-4.09402e-07
-4.33997e-07
8.46839e-07
-4.41479e-07
-4.05832e-07
6.6208e-07
-4.96931e-07
-4.25047e-07
4.86632e-07
-5.77535e-07
-4.68628e-07
3.17719e-07
-6.35002e-07
-5.08316e-07
2.66236e-07
-5.89728e-07
-5.11188e-07
3.47781e-07
-5.12237e-07
-5.02653e-07
7.14151e-07
-5.34916e-07
-7.72816e-07
7.06945e-07
-4.62785e-07
-1.6789e-06
7.29402e-07
7.6082e-08
-1.37867e-06
-1.73431e-06
1.46391e-07
3.28286e-06
-5.96742e-06
-2.70169e-06
8.68229e-06
-1.87812e-06
-5.96772e-06
1.05036e-05
3.17547e-06
-2.59529e-06
7.0774e-06
5.85068e-06
1.11788e-06
-7.9056e-06
9.24777e-06
2.67094e-06
-2.35418e-05
2.35164e-06
1.56987e-06
-3.21003e-05
-1.77641e-05
8.53587e-07
-2.8829e-05
-3.42498e-05
-3.50597e-06
-1.6835e-05
-3.92463e-05
-1.06299e-05
1.01278e-05
-4.26853e-05
-2.02057e-05
4.46683e-05
-3.46645e-05
-9.20158e-06
1.76815e-05
8.26547e-07
3.4251e-06
-5.85431e-05
1.3345e-06
1.68479e-05
-7.40254e-05
-3.19473e-06
7.19928e-06
-8.05913e-05
-4.09567e-06
1.7688e-06
-8.02427e-05
-2.87079e-06
-2.95806e-06
-7.97509e-05
-2.20372e-07
-4.52584e-06
-7.81434e-05
6.32616e-07
-4.03708e-06
-7.61651e-05
1.29584e-06
-1.96267e-06
-7.46818e-05
4.11658e-06
-3.16493e-07
-7.38274e-05
6.92149e-06
8.48774e-07
-7.46371e-05
1.02152e-05
1.73977e-06
-7.72115e-05
1.3945e-05
2.46568e-06
-8.11305e-05
1.70085e-05
3.13675e-06
-8.65349e-05
1.96443e-05
3.80282e-06
-9.22507e-05
2.11878e-05
4.24736e-06
-9.55023e-05
2.02098e-05
2.93988e-06
-9.53495e-05
1.74037e-05
4.08109e-08
-9.36912e-05
1.37338e-05
-1.56873e-06
-9.14506e-05
8.98438e-06
-2.00175e-06
-8.8365e-05
3.98268e-06
-2.54901e-06
-8.51695e-05
8.25367e-08
-2.43475e-06
-8.25815e-05
-3.03121e-06
-2.37558e-06
-8.04542e-05
-5.40196e-06
-1.91528e-06
-7.81826e-05
-7.00971e-06
-2.00178e-06
-7.66634e-05
-6.79904e-06
-2.97989e-06
-7.55982e-05
-5.57591e-06
-4.64126e-06
-7.41381e-05
-5.20275e-06
-6.16094e-06
-7.31454e-05
-5.63821e-06
-6.0458e-06
-7.10587e-05
-6.55105e-06
-5.97202e-06
-6.82642e-05
-6.70738e-06
-5.7497e-06
-6.40992e-05
-5.86291e-06
-6.28433e-06
-5.89538e-05
-4.27359e-06
-7.09692e-06
-5.15201e-05
-3.46782e-06
-7.94719e-06
-4.18852e-05
-1.17093e-06
-8.44676e-06
-3.03568e-05
2.54967e-06
-8.79539e-06
-1.6613e-05
7.95746e-06
-8.96169e-06
8.92401e-06
-1.05306e-05
-2.82964e-06
-1.09281e-06
2.17381e-06
-3.16855e-06
-4.17867e-06
-1.59127e-07
-3.5411e-06
-2.88588e-06
1.11838e-07
-2.48327e-06
-3.69417e-06
-1.13485e-06
-1.32156e-06
-3.61602e-06
-9.79437e-07
6.64577e-08
-3.15766e-06
-1.08373e-06
5.87171e-07
-1.02444e-06
2.16649e-08
3.6401e-07
4.6852e-07
5.29997e-07
2.26448e-07
1.04883e-06
1.41943e-07
6.53482e-08
1.28086e-06
2.29014e-07
8.53694e-08
1.34887e-06
6.5874e-08
1.12646e-07
1.3384e-06
9.90123e-08
1.6814e-07
1.29169e-06