/*--------------------------------*- C++ -*----------------------------------*\
| =========                 |                                                 |
| \\      /  F ield         | OpenFOAM: The Open Source CFD Toolbox           |
|  \\    /   O peration     | Version:  2.3.0                                 |
|   \\  /    A nd           | Web:      www.OpenFOAM.org                      |
|    \\/     M anipulation  |                                                 |
\*---------------------------------------------------------------------------*/
FoamFile
{
    version     2.0;
    format      ascii;
    class       volScalarField;
    location    "51";
    object      rho;
}
// * * * * * * * * * * * * * * * * * * * * * * * * * * * * * * * * * * * * * //

dimensions      [1 -3 0 0 0 0 0];

internalField   nonuniform List<scalar> 
6144
(
1.16248
1.16308
1.16359
1.16405
1.16452
1.1654
1.16652
1.16754
1.16837
1.16878
1.16886
1.16888
1.16888
1.16889
1.16889
1.1689
1.1689
1.1689
1.1689
1.1689
1.1689
1.16891
1.16891
1.16891
1.16891
1.16891
1.16891
1.16891
1.16891
1.16891
1.16892
1.16892
1.16892
1.16892
1.16892
1.16892
1.16892
1.16892
1.16892
1.16892
1.16893
1.16893
1.16909
1.17158
1.17969
1.1903
1.20344
1.22705
1.25697
1.27686
1.28286
1.28292
1.28098
1.27968
1.27729
1.27772
1.27687
1.27687
3.07602
82.0977
995.894
1026.88
1027.09
1027.1
1027.1
1027.1
1027.1
1027.1
1027.1
1027.1
1027.1
1027.1
1027.1
1027.1
1027.1
1027.1
1027.1
1027.1
1027.1
1027.1
1027.1
1027.1
1027.1
1027.1
1027.1
1027.1
1027.1
1027.1
1027.1
1027.1
1027.1
1027.1
1027.1
1027.1
1027.1
1027.1
1.16214
1.16281
1.16374
1.16423
1.16493
1.16572
1.16664
1.16761
1.1684
1.16877
1.16885
1.16887
1.16888
1.16889
1.1689
1.1689
1.16891
1.16891
1.16891
1.16891
1.16891
1.16891
1.16891
1.16891
1.16892
1.16892
1.16892
1.16892
1.16892
1.16892
1.16892
1.16893
1.16893
1.16893
1.16893
1.16893
1.16893
1.16893
1.16893
1.16893
1.16893
1.16895
1.16978
1.17498
1.18394
1.19511
1.20841
1.22734
1.25305
1.27937
1.28321
1.28091
1.27774
1.27627
1.27517
1.27533
1.27121
1.27823
2.13443
44.5041
998.056
1026.99
1027.1
1027.1
1027.1
1027.1
1027.1
1027.1
1027.1
1027.1
1027.1
1027.1
1027.1
1027.1
1027.1
1027.1
1027.1
1027.1
1027.1
1027.1
1027.1
1027.1
1027.1
1027.1
1027.1
1027.1
1027.1
1027.1
1027.1
1027.1
1027.1
1027.1
1027.1
1027.1
1027.1
1027.1
1.16201
1.16247
1.16347
1.1641
1.16512
1.1659
1.16677
1.16766
1.16827
1.16861
1.16876
1.16883
1.16886
1.16888
1.16889
1.1689
1.1689
1.16891
1.16891
1.16891
1.16891
1.16891
1.16891
1.16892
1.16892
1.16892
1.16892
1.16892
1.16892
1.16892
1.16892
1.16893
1.16893
1.16893
1.16893
1.16893
1.16893
1.16893
1.16893
1.16893
1.16894
1.16905
1.17084
1.1776
1.18525
1.19096
1.20101
1.21977
1.25032
1.27963
1.28279
1.28202
1.28003
1.27828
1.27637
1.2749
1.27103
1.27686
1.50129
35.9135
998.745
1027.05
1027.1
1027.09
1027.1
1027.1
1027.1
1027.1
1027.1
1027.1
1027.1
1027.1
1027.1
1027.1
1027.1
1027.1
1027.1
1027.1
1027.1
1027.1
1027.1
1027.1
1027.1
1027.1
1027.1
1027.1
1027.1
1027.1
1027.1
1027.1
1027.1
1027.1
1027.1
1027.1
1027.1
1027.1
1.16197
1.16218
1.16317
1.16382
1.16509
1.16593
1.16678
1.16755
1.16815
1.16852
1.16871
1.1688
1.16885
1.16888
1.16889
1.1689
1.1689
1.1689
1.1689
1.16891
1.16891
1.16891
1.16891
1.16891
1.16891
1.16891
1.16891
1.16891
1.16892
1.16892
1.16892
1.16892
1.16892
1.16892
1.16892
1.16892
1.16892
1.16893
1.16893
1.16893
1.16895
1.16914
1.17077
1.17515
1.17955
1.1838
1.19219
1.20941
1.23522
1.27307
1.28174
1.2826
1.28083
1.27869
1.27672
1.27495
1.27126
1.27685
1.26871
36.108
1003.97
1027.08
1027.09
1027.09
1027.09
1027.09
1027.09
1027.1
1027.1
1027.1
1027.09
1027.1
1027.1
1027.1
1027.1
1027.1
1027.1
1027.1
1027.1
1027.1
1027.1
1027.1
1027.1
1027.1
1027.1
1027.1
1027.1
1027.1
1027.1
1027.1
1027.1
1027.1
1027.1
1027.1
1027.1
1027.1
1.16195
1.16202
1.16287
1.16343
1.16465
1.16554
1.16664
1.16745
1.16804
1.16844
1.16866
1.16879
1.16885
1.16888
1.16889
1.1689
1.1689
1.16891
1.16891
1.16891
1.16891
1.16891
1.16891
1.16891
1.16892
1.16892
1.16892
1.16892
1.16892
1.16892
1.16892
1.16892
1.16892
1.16892
1.16892
1.16892
1.16892
1.16893
1.16893
1.16893
1.16896
1.16918
1.17008
1.17248
1.17574
1.17936
1.18666
1.20076
1.22107
1.25563
1.27874
1.28197
1.28088
1.27875
1.27738
1.27635
1.27539
1.27941
1.26871
68.3433
1007.5
1026.98
1027.02
1027.04
1027.05
1027.06
1027.06
1027.06
1027.06
1027.05
1027.05
1027.05
1027.05
1027.04
1027.05
1027.05
1027.05
1027.05
1027.04
1027.05
1027.06
1027.07
1027.08
1027.09
1027.09
1027.1
1027.1
1027.1
1027.1
1027.1
1027.1
1027.1
1027.1
1027.1
1027.1
1027.1
1.1619
1.16198
1.1626
1.16305
1.16427
1.16509
1.16627
1.1673
1.1679
1.16835
1.16862
1.16877
1.16884
1.16887
1.16888
1.16889
1.1689
1.1689
1.1689
1.1689
1.1689
1.16891
1.16891
1.16891
1.16891
1.16891
1.16891
1.16891
1.16891
1.16892
1.16892
1.16892
1.16892
1.16892
1.16892
1.16892
1.16892
1.16892
1.16893
1.16893
1.16895
1.16911
1.16966
1.17096
1.17311
1.1761
1.18249
1.19511
1.21299
1.23955
1.27218
1.27966
1.2806
1.27842
1.27778
1.2778
1.27586
1.2785
1.26871
143.852
1003.44
1025.83
1026.04
1026.3
1026.39
1026.45
1026.47
1026.45
1026.4
1026.33
1026.25
1026.12
1025.96
1025.76
1025.49
1025.19
1024.91
1024.7
1024.6
1024.54
1024.69
1025
1025.32
1025.74
1026.15
1026.5
1026.78
1026.96
1027.05
1027.09
1027.1
1027.1
1027.1
1027.1
1027.1
1027.1
1.16186
1.16198
1.16243
1.16274
1.16396
1.16477
1.16574
1.16707
1.16778
1.16827
1.16858
1.16876
1.16884
1.16888
1.16889
1.1689
1.1689
1.1689
1.16891
1.16891
1.16891
1.16891
1.16891
1.16891
1.16891
1.16891
1.16891
1.16892
1.16892
1.16892
1.16892
1.16892
1.16892
1.16892
1.16892
1.16892
1.16892
1.16893
1.16893
1.16893
1.16894
1.16903
1.16938
1.17016
1.17146
1.17351
1.17853
1.19023
1.20756
1.24028
1.24996
1.27063
1.28051
1.27921
1.27829
1.2791
1.27666
1.29047
1.26871
337.751
1007.21
1018.26
1019.27
1020.53
1021.26
1021.77
1021.94
1021.71
1021.31
1020.71
1019.89
1018.8
1017.44
1015.91
1014.39
1012.98
1011.76
1010.81
1010.19
1009.9
1010
1010.69
1011.34
1012.45
1013.93
1015.66
1017.57
1019.55
1021.44
1023.23
1024.81
1026.06
1026.8
1027
1027.09
1027.08
1.1618
1.16207
1.16238
1.16255
1.16373
1.1646
1.16555
1.16675
1.16764
1.16821
1.16855
1.16875
1.16884
1.16887
1.16889
1.1689
1.1689
1.1689
1.16891
1.16891
1.16891
1.16891
1.16891
1.16891
1.16892
1.16892
1.16892
1.16892
1.16892
1.16892
1.16892
1.16892
1.16892
1.16893
1.16893
1.16893
1.16893
1.16893
1.16893
1.16893
1.16894
1.169
1.16923
1.1698
1.17072
1.17222
1.17588
1.1892
1.2097
1.24804
1.27066
1.27575
1.28193
1.28108
1.27844
1.27925
1.28342
1.29278
1.26871
619.265
999.997
1002.09
1002.2
1002.47
1002.68
1002.77
1002.89
1002.97
1002.62
1002.32
1001.8
1001.19
1000.4
999.453
998.461
997.506
996.853
996.554
996.496
996.598
996.731
996.515
995.652
995.119
994.814
994.756
994.892
994.899
994.816
994.621
995.038
996.517
998.333
1000.99
1004.66
1009.21
1.16153
1.16212
1.16239
1.16249
1.16359
1.16454
1.16589
1.16653
1.16744
1.16813
1.16851
1.16873
1.16883
1.16887
1.16888
1.16889
1.1689
1.1689
1.1689
1.1689
1.1689
1.1689
1.16891
1.16891
1.16891
1.16891
1.16891
1.16892
1.16892
1.16892
1.16892
1.16892
1.16892
1.16892
1.16892
1.16892
1.16893
1.16893
1.16893
1.16893
1.16894
1.16901
1.16923
1.16974
1.17056
1.17188
1.17533
1.1917
1.21722
1.25627
1.27415
1.28123
1.2838
1.28405
1.27792
1.27615
1.27604
1.27957
1.26871
585.276
1005.83
1007.79
1007.27
1007.05
1006.9
1006.93
1006.95
1006.91
1007.21
1007.64
1008.36
1009.39
1010.87
1012.83
1015.11
1017.47
1019.64
1021.3
1022.35
1022.78
1022.84
1022.71
1022.62
1022.55
1022.5
1022.38
1022.27
1022.25
1022.25
1022.35
1022.54
1023.08
1023.77
1024.61
1025.68
1026.53
1.16118
1.16172
1.16207
1.16237
1.16347
1.16456
1.16604
1.16658
1.16735
1.16811
1.1685
1.16872
1.16882
1.16887
1.16888
1.1689
1.1689
1.1689
1.1689
1.16891
1.16891
1.16891
1.16891
1.16891
1.16891
1.16892
1.16892
1.16892
1.16892
1.16892
1.16892
1.16892
1.16892
1.16892
1.16892
1.16892
1.16893
1.16893
1.16893
1.16893
1.16895
1.16904
1.16928
1.16979
1.17063
1.17204
1.17567
1.19322
1.22216
1.25553
1.27434
1.28102
1.28458
1.28649
1.28136
1.27663
1.2761
1.2785
1.26871
275.134
998.382
1020.78
1020.58
1020.53
1020.48
1020.37
1020.32
1020.56
1020.96
1021.56
1022.36
1023.37
1024.47
1025.49
1026.25
1026.73
1026.97
1027.06
1027.07
1027.07
1027.07
1027.07
1027.07
1027.07
1027.07
1027.08
1027.08
1027.07
1027.07
1027.07
1027.08
1027.08
1027.09
1027.09
1027.1
1027.1
1.16091
1.16137
1.16165
1.16198
1.16318
1.16445
1.16601
1.16691
1.1674
1.16813
1.16852
1.16871
1.1688
1.16886
1.16887
1.16889
1.1689
1.1689
1.1689
1.1689
1.16891
1.16891
1.16891
1.16891
1.16891
1.16891
1.16892
1.16892
1.16892
1.16892
1.16892
1.16892
1.16892
1.16892
1.16892
1.16892
1.16893
1.16893
1.16893
1.16893
1.16896
1.16905
1.16929
1.16978
1.1707
1.17244
1.17696
1.19591
1.22553
1.24996
1.27516
1.28354
1.28516
1.28639
1.28476
1.28604
1.27819
1.28575
1.26871
108.707
1007.79
1026.62
1026.62
1026.69
1026.68
1026.66
1026.63
1026.62
1026.68
1026.77
1026.86
1026.96
1027.03
1027.07
1027.09
1027.1
1027.1
1027.1
1027.1
1027.1
1027.1
1027.1
1027.1
1027.1
1027.1
1027.1
1027.1
1027.1
1027.1
1027.1
1027.1
1027.1
1027.1
1027.1
1027.1
1027.1
1.16074
1.16104
1.16117
1.16137
1.16249
1.16387
1.16582
1.16714
1.16753
1.16818
1.16857
1.16872
1.16879
1.16883
1.16886
1.16888
1.16889
1.1689
1.1689
1.1689
1.16891
1.16891
1.16891
1.16891
1.16891
1.16892
1.16892
1.16892
1.16892
1.16892
1.16892
1.16892
1.16892
1.16893
1.16893
1.16893
1.16893
1.16893
1.16893
1.16894
1.16896
1.16905
1.16927
1.16981
1.17094
1.17321
1.17854
1.19555
1.22512
1.24373
1.27329
1.28314
1.28526
1.28669
1.28782
1.28782
1.28396
1.28909
1.26871
62.6975
1002.9
1027.09
1027.09
1027.09
1027.09
1027.09
1027.09
1027.09
1027.09
1027.09
1027.1
1027.1
1027.1
1027.1
1027.1
1027.1
1027.1
1027.1
1027.1
1027.1
1027.1
1027.1
1027.1
1027.1
1027.1
1027.1
1027.1
1027.1
1027.1
1027.1
1027.1
1027.1
1027.1
1027.1
1027.1
1027.1
1.16056
1.16083
1.16086
1.16093
1.16166
1.16284
1.16489
1.16683
1.16783
1.16828
1.16862
1.16876
1.16881
1.16884
1.16886
1.16889
1.1689
1.16891
1.16891
1.16891
1.16891
1.16891
1.16891
1.16892
1.16892
1.16892
1.16892
1.16892
1.16892
1.16892
1.16892
1.16893
1.16893
1.16893
1.16893
1.16893
1.16893
1.16893
1.16893
1.16894
1.16895
1.16903
1.16927
1.16992
1.17131
1.17396
1.1794
1.19307
1.21848
1.23847
1.25614
1.27497
1.2815
1.28551
1.28552
1.28649
1.28154
1.29024
1.35105
37.9125
943.768
1027.09
1027.09
1027.09
1027.1
1027.1
1027.1
1027.1
1027.1
1027.1
1027.1
1027.1
1027.1
1027.1
1027.1
1027.1
1027.1
1027.1
1027.1
1027.1
1027.1
1027.1
1027.1
1027.1
1027.1
1027.1
1027.1
1027.1
1027.1
1027.1
1027.1
1027.1
1027.1
1027.1
1027.1
1027.1
1.1605
1.16078
1.16074
1.1608
1.16113
1.16197
1.1638
1.1662
1.16805
1.16841
1.16866
1.16876
1.1688
1.16883
1.16885
1.16889
1.16891
1.16891
1.16891
1.16891
1.16891
1.16892
1.16892
1.16892
1.16892
1.16892
1.16892
1.16892
1.16892
1.16893
1.16893
1.16893
1.16893
1.16893
1.16893
1.16893
1.16893
1.16893
1.16893
1.16894
1.16895
1.16901
1.16929
1.17014
1.17169
1.17445
1.17976
1.19086
1.2117
1.2353
1.24503
1.2595
1.27142
1.28011
1.28061
1.28209
1.27844
1.28795
1.44539
35.843
950.377
1027.09
1027.09
1027.09
1027.1
1027.1
1027.1
1027.1
1027.1
1027.1
1027.1
1027.1
1027.1
1027.1
1027.1
1027.1
1027.1
1027.1
1027.1
1027.1
1027.1
1027.1
1027.1
1027.1
1027.1
1027.1
1027.1
1027.1
1027.1
1027.1
1027.1
1027.1
1027.1
1027.1
1027.1
1027.1
1.16057
1.16114
1.16122
1.16124
1.16113
1.16176
1.16305
1.16548
1.16794
1.16852
1.16869
1.16875
1.16879
1.16881
1.16884
1.16888
1.1689
1.16891
1.16891
1.16891
1.16891
1.16891
1.16892
1.16892
1.16892
1.16892
1.16892
1.16892
1.16892
1.16892
1.16893
1.16893
1.16893
1.16893
1.16893
1.16893
1.16893
1.16893
1.16893
1.16894
1.16894
1.16899
1.16928
1.17027
1.17226
1.17537
1.18055
1.1905
1.20666
1.23015
1.24482
1.25051
1.26028
1.26963
1.2723
1.27684
1.27401
1.28533
1.48188
47.9904
950.418
1027
1027.09
1027.1
1027.1
1027.1
1027.1
1027.1
1027.1
1027.1
1027.1
1027.1
1027.1
1027.1
1027.1
1027.1
1027.1
1027.1
1027.1
1027.1
1027.1
1027.1
1027.1
1027.1
1027.1
1027.1
1027.1
1027.1
1027.1
1027.1
1027.1
1027.1
1027.1
1027.1
1027.1
1027.1
1.16028
1.16026
1.16116
1.16195
1.16204
1.16218
1.16329
1.16549
1.16795
1.16856
1.16869
1.16873
1.16876
1.16879
1.16883
1.16888
1.16891
1.16891
1.16892
1.16892
1.16892
1.16892
1.16892
1.16892
1.16893
1.16893
1.16893
1.16893
1.16893
1.16893
1.16893
1.16893
1.16893
1.16893
1.16894
1.16894
1.16894
1.16894
1.16894
1.16894
1.16895
1.16898
1.16918
1.17029
1.17326
1.17765
1.18355
1.19246
1.20576
1.22958
1.24794
1.25202
1.25514
1.26099
1.26233
1.26908
1.26603
1.27549
1.93642
56.9389
925.381
1025.64
1027.09
1027.1
1027.1
1027.1
1027.1
1027.1
1027.1
1027.1
1027.1
1027.1
1027.1
1027.1
1027.1
1027.1
1027.1
1027.1
1027.1
1027.1
1027.1
1027.1
1027.1
1027.1
1027.1
1027.1
1027.1
1027.1
1027.1
1027.1
1027.1
1027.1
1027.1
1027.1
1027.1
1027.1
1.16191
1.16296
1.16365
1.16415
1.16461
1.16556
1.16674
1.16777
1.16848
1.16874
1.16881
1.16884
1.16887
1.16889
1.16891
1.16892
1.16892
1.16892
1.16892
1.16892
1.16892
1.16892
1.16893
1.16893
1.16893
1.16893
1.16893
1.16893
1.16893
1.16894
1.16894
1.16894
1.16894
1.16894
1.16894
1.16894
1.16894
1.16894
1.16894
1.16895
1.16897
1.16901
1.16918
1.17144
1.1792
1.1899
1.20266
1.22649
1.25671
1.27594
1.28282
1.28458
1.28219
1.28109
1.27937
1.28016
1.27835
1.30123
2.34915
52.8756
980.141
1026.8
1027.09
1027.1
1027.1
1027.1
1027.1
1027.1
1027.1
1027.1
1027.1
1027.1
1027.1
1027.1
1027.1
1027.1
1027.1
1027.1
1027.1
1027.1
1027.1
1027.1
1027.1
1027.1
1027.1
1027.1
1027.1
1027.1
1027.1
1027.1
1027.1
1027.1
1027.1
1027.1
1027.1
1027.1
1.16121
1.16248
1.16406
1.16464
1.16531
1.1661
1.1671
1.16785
1.16829
1.1685
1.16866
1.16877
1.16884
1.16888
1.16889
1.16891
1.16891
1.16892
1.16892
1.16892
1.16892
1.16892
1.16892
1.16893
1.16893
1.16893
1.16893
1.16893
1.16893
1.16893
1.16893
1.16893
1.16894
1.16894
1.16894
1.16894
1.16894
1.16894
1.16894
1.16895
1.16903
1.16932
1.17003
1.17279
1.18154
1.19529
1.21127
1.23026
1.25361
1.27791
1.28353
1.2835
1.27835
1.27703
1.27517
1.27771
1.27534
1.30051
1.76605
52.7758
1002.8
1027.07
1027.09
1027.1
1027.1
1027.1
1027.1
1027.1
1027.1
1027.1
1027.1
1027.1
1027.1
1027.1
1027.1
1027.1
1027.1
1027.1
1027.1
1027.1
1027.1
1027.1
1027.1
1027.1
1027.1
1027.1
1027.1
1027.1
1027.1
1027.1
1027.1
1027.1
1027.1
1027.1
1027.1
1027.1
1.16094
1.16171
1.16359
1.16451
1.16535
1.16603
1.16681
1.1675
1.16799
1.16832
1.16856
1.16873
1.16883
1.16887
1.16889
1.1689
1.16891
1.16891
1.16891
1.16892
1.16892
1.16892
1.16892
1.16892
1.16892
1.16892
1.16893
1.16893
1.16893
1.16893
1.16893
1.16893
1.16893
1.16893
1.16893
1.16893
1.16894
1.16894
1.16894
1.16895
1.16902
1.16934
1.17028
1.17294
1.18056
1.19604
1.21591
1.2337
1.24871
1.27485
1.28251
1.28362
1.27876
1.27709
1.27539
1.27774
1.27108
1.29306
1.44083
54.9812
1019.11
1027.09
1027.09
1027.09
1027.1
1027.1
1027.1
1027.1
1027.1
1027.1
1027.1
1027.1
1027.1
1027.1
1027.1
1027.1
1027.1
1027.1
1027.1
1027.1
1027.1
1027.1
1027.1
1027.1
1027.1
1027.1
1027.1
1027.1
1027.1
1027.1
1027.1
1027.1
1027.1
1027.1
1027.1
1027.1
1.16084
1.16109
1.16281
1.16383
1.16475
1.16556
1.16643
1.16719
1.1678
1.16824
1.16852
1.16872
1.16882
1.16887
1.16888
1.1689
1.16891
1.16891
1.16891
1.16891
1.16891
1.16892
1.16892
1.16892
1.16892
1.16892
1.16892
1.16892
1.16892
1.16893
1.16893
1.16893
1.16893
1.16893
1.16893
1.16893
1.16893
1.16893
1.16894
1.16894
1.16898
1.16916
1.16976
1.17109
1.17403
1.18358
1.20108
1.21887
1.22881
1.25715
1.27699
1.28405
1.28102
1.27754
1.2761
1.27725
1.27263
1.28389
1.26871
63.3356
1021.53
1027.07
1027.08
1027.09
1027.09
1027.09
1027.09
1027.09
1027.09
1027.09
1027.09
1027.09
1027.09
1027.09
1027.09
1027.09
1027.09
1027.09
1027.09
1027.09
1027.09
1027.09
1027.1
1027.1
1027.1
1027.1
1027.1
1027.1
1027.1
1027.1
1027.1
1027.1
1027.1
1027.1
1027.1
1027.1
1.16077
1.16071
1.1621
1.16322
1.16425
1.16515
1.16612
1.16696
1.16767
1.16819
1.16851
1.16871
1.16882
1.16887
1.16888
1.1689
1.16891
1.16891
1.16891
1.16891
1.16891
1.16891
1.16892
1.16892
1.16892
1.16892
1.16892
1.16892
1.16892
1.16892
1.16893
1.16893
1.16893
1.16893
1.16893
1.16893
1.16893
1.16893
1.16894
1.16894
1.16896
1.16904
1.16939
1.17025
1.1721
1.17662
1.1859
1.20048
1.21296
1.2282
1.26921
1.28455
1.28468
1.28315
1.28146
1.28146
1.27887
1.2802
1.26871
123.211
1019.27
1026.41
1026.55
1026.76
1026.84
1026.9
1026.92
1026.93
1026.92
1026.9
1026.88
1026.86
1026.83
1026.8
1026.76
1026.73
1026.69
1026.66
1026.64
1026.62
1026.61
1026.7
1026.79
1026.89
1026.97
1027.04
1027.07
1027.09
1027.1
1027.1
1027.1
1027.1
1027.1
1027.1
1027.1
1027.1
1.16072
1.16047
1.16147
1.16262
1.1638
1.16481
1.16589
1.16681
1.1676
1.16816
1.1685
1.16871
1.16882
1.16887
1.16888
1.1689
1.16891
1.16891
1.16891
1.16891
1.16891
1.16891
1.16891
1.16892
1.16892
1.16892
1.16892
1.16892
1.16892
1.16892
1.16892
1.16893
1.16893
1.16893
1.16893
1.16893
1.16893
1.16893
1.16893
1.16894
1.16894
1.16899
1.16919
1.16986
1.17147
1.17477
1.17976
1.18762
1.20065
1.22732
1.27377
1.28776
1.28774
1.28756
1.27793
1.27383
1.27301
1.273
1.26871
184.115
1010.63
1022.05
1022.42
1023.29
1023.85
1024.33
1024.66
1024.77
1024.66
1024.53
1024.33
1024.02
1023.63
1023.13
1022.56
1021.97
1021.26
1020.58
1019.95
1019.56
1019.4
1019.88
1020.35
1021.15
1022.09
1023.16
1024.27
1025.24
1025.92
1026.41
1026.72
1026.93
1027.05
1027.09
1027.1
1027.1
1.1607
1.16031
1.16099
1.16199
1.16338
1.16452
1.16574
1.16671
1.16755
1.16815
1.16849
1.16871
1.16882
1.16886
1.16888
1.1689
1.16891
1.16891
1.16891
1.16891
1.16891
1.16891
1.16891
1.16892
1.16892
1.16892
1.16892
1.16892
1.16892
1.16892
1.16892
1.16893
1.16893
1.16893
1.16893
1.16893
1.16893
1.16893
1.16893
1.16893
1.16894
1.16897
1.16913
1.16978
1.17136
1.17435
1.17879
1.18917
1.20751
1.25548
1.28413
1.28235
1.28288
1.27994
1.27577
1.27466
1.27549
1.27886
1.26871
294.496
1002.5
1013.99
1013.85
1014.17
1014.28
1014.38
1014.53
1014.55
1014.38
1014.17
1013.67
1012.97
1012.14
1011.22
1010.3
1009.44
1008.61
1007.93
1007.41
1006.97
1006.16
1005.2
1004.24
1003.19
1002.38
1002.08
1002.33
1003.44
1004.61
1006.48
1008.98
1012.54
1017.3
1022.67
1026.88
1027.01
1.1607
1.1602
1.16062
1.16135
1.16276
1.16417
1.16559
1.16665
1.16753
1.16814
1.16849
1.16871
1.16882
1.16887
1.16888
1.1689
1.1689
1.16891
1.16891
1.16891
1.16891
1.16891
1.16891
1.16892
1.16892
1.16892
1.16892
1.16892
1.16892
1.16892
1.16892
1.16893
1.16893
1.16893
1.16893
1.16893
1.16893
1.16893
1.16893
1.16893
1.16894
1.16896
1.16911
1.16982
1.17164
1.17464
1.17899
1.19259
1.22222
1.27453
1.28606
1.28583
1.28891
1.2913
1.29507
1.2991
1.30516
1.32741
1.26871
459.659
1004.68
1010.16
1010.41
1010.1
1008.97
1008.36
1007.94
1007.74
1007.92
1008.29
1008.72
1009.26
1009.85
1010.41
1010.71
1010.77
1010.01
1009.34
1008.29
1006.54
1004.59
1002.09
999.107
995.727
991.879
987.331
981.617
975.011
967.45
959.362
950.755
940.449
924.865
898.031
840.057
644.187
1.16061
1.16014
1.16035
1.16079
1.16201
1.16362
1.16539
1.16659
1.16751
1.16814
1.1685
1.16871
1.16883
1.16887
1.16888
1.1689
1.16891
1.16891
1.16891
1.16891
1.16891
1.16891
1.16892
1.16892
1.16892
1.16892
1.16892
1.16892
1.16892
1.16893
1.16893
1.16893
1.16893
1.16893
1.16893
1.16893
1.16893
1.16893
1.16893
1.16893
1.16894
1.16896
1.1691
1.16982
1.17163
1.17449
1.17946
1.19544
1.23205
1.28508
1.28697
1.28629
1.28674
1.28298
1.27801
1.2786
1.2763
1.29909
1.27101
388.448
1011.73
1019.74
1021.05
1022.09
1022.41
1022.56
1022.13
1021.94
1021.91
1022
1022.2
1022.7
1023.4
1024.17
1024.81
1025.21
1025.38
1025.34
1025.21
1024.96
1024.69
1024.55
1024.38
1023.98
1023.49
1022.98
1022.07
1021.27
1020.68
1020.23
1019.85
1019.35
1019.07
1019.86
1022.97
1026.89
1.16047
1.16009
1.16016
1.16039
1.16126
1.16294
1.16514
1.16654
1.16751
1.16815
1.16851
1.16872
1.16883
1.16887
1.16888
1.1689
1.16891
1.16891
1.16891
1.16891
1.16891
1.16892
1.16892
1.16892
1.16892
1.16892
1.16892
1.16892
1.16893
1.16893
1.16893
1.16893
1.16893
1.16893
1.16893
1.16893
1.16893
1.16893
1.16893
1.16894
1.16894
1.16896
1.16909
1.16973
1.17143
1.17407
1.18002
1.19616
1.22891
1.2832
1.28705
1.28496
1.28457
1.28399
1.28187
1.27746
1.27748
1.29082
1.28285
172.73
1001.1
1024.35
1024.69
1025.47
1025.91
1026.36
1026.62
1026.81
1026.91
1026.93
1026.92
1026.92
1026.95
1026.98
1027
1027.03
1027.04
1027.04
1027.04
1027.04
1027.03
1027.03
1027.03
1027.03
1027.04
1027.06
1027.07
1027.08
1027.08
1027.08
1027.09
1027.09
1027.09
1027.09
1027.1
1027.1
1.16036
1.16003
1.16002
1.16012
1.16079
1.16226
1.1647
1.16641
1.1675
1.16815
1.16851
1.16873
1.16884
1.16887
1.16888
1.1689
1.16891
1.16891
1.16891
1.16891
1.16892
1.16892
1.16892
1.16892
1.16892
1.16892
1.16892
1.16893
1.16893
1.16893
1.16893
1.16893
1.16893
1.16893
1.16893
1.16893
1.16893
1.16893
1.16894
1.16894
1.16894
1.16896
1.16908
1.16964
1.17113
1.17382
1.18041
1.19531
1.22595
1.27669
1.28707
1.28494
1.28397
1.2836
1.28357
1.28615
1.27909
1.28569
1.27942
95.5541
1008.94
1026.94
1026.93
1026.99
1026.99
1026.99
1027
1027.03
1027.06
1027.07
1027.08
1027.09
1027.09
1027.1
1027.1
1027.1
1027.1
1027.1
1027.1
1027.1
1027.1
1027.1
1027.1
1027.1
1027.1
1027.1
1027.1
1027.1
1027.1
1027.1
1027.1
1027.1
1027.1
1027.1
1027.1
1027.1
1.16029
1.15999
1.15994
1.15994
1.16044
1.16179
1.16414
1.16624
1.16755
1.16818
1.16853
1.16874
1.16884
1.16887
1.16888
1.1689
1.16891
1.16891
1.16891
1.16891
1.16892
1.16892
1.16892
1.16892
1.16892
1.16892
1.16892
1.16893
1.16893
1.16893
1.16893
1.16893
1.16893
1.16893
1.16893
1.16893
1.16893
1.16894
1.16894
1.16894
1.16894
1.16896
1.16907
1.16957
1.17094
1.17363
1.17971
1.19251
1.21344
1.24925
1.28646
1.2859
1.28409
1.28461
1.28269
1.28551
1.27899
1.28528
1.32658
46.3451
997.228
1027.09
1027.09
1027.09
1027.09
1027.1
1027.1
1027.1
1027.09
1027.09
1027.1
1027.1
1027.1
1027.1
1027.1
1027.1
1027.1
1027.1
1027.1
1027.1
1027.1
1027.1
1027.1
1027.1
1027.1
1027.1
1027.1
1027.1
1027.1
1027.1
1027.1
1027.1
1027.1
1027.1
1027.1
1027.1
1.16028
1.1601
1.15992
1.15988
1.16
1.16081
1.16288
1.16565
1.16759
1.16823
1.16855
1.16875
1.16885
1.16886
1.16887
1.1689
1.16891
1.16891
1.16891
1.16891
1.16892
1.16892
1.16892
1.16892
1.16892
1.16892
1.16892
1.16893
1.16893
1.16893
1.16893
1.16893
1.16893
1.16893
1.16893
1.16893
1.16893
1.16893
1.16894
1.16894
1.16894
1.16897
1.16907
1.16956
1.17089
1.17356
1.17911
1.19062
1.20881
1.23142
1.26724
1.28153
1.28269
1.28412
1.28306
1.28357
1.27635
1.28524
1.37598
29.6812
974.041
1027.09
1027.09
1027.09
1027.1
1027.1
1027.1
1027.1
1027.1
1027.1
1027.1
1027.1
1027.1
1027.1
1027.1
1027.1
1027.1
1027.1
1027.1
1027.1
1027.1
1027.1
1027.1
1027.1
1027.1
1027.1
1027.1
1027.1
1027.1
1027.1
1027.1
1027.1
1027.1
1027.1
1027.1
1027.1
1.16038
1.16053
1.16021
1.16008
1.15987
1.15999
1.16099
1.1639
1.16745
1.16835
1.1686
1.16876
1.16883
1.16884
1.16885
1.16889
1.1689
1.16891
1.16891
1.16891
1.16891
1.16891
1.16892
1.16892
1.16892
1.16892
1.16892
1.16892
1.16892
1.16892
1.16892
1.16892
1.16892
1.16892
1.16892
1.16893
1.16893
1.16893
1.16893
1.16893
1.16894
1.16897
1.16911
1.16968
1.17091
1.1735
1.17889
1.18962
1.20735
1.2259
1.24441
1.26264
1.2717
1.2784
1.27791
1.27766
1.26973
1.28226
1.46132
32.5227
958.776
1027.09
1027.09
1027.1
1027.1
1027.1
1027.1
1027.1
1027.1
1027.1
1027.1
1027.1
1027.1
1027.1
1027.1
1027.1
1027.1
1027.1
1027.1
1027.1
1027.1
1027.1
1027.1
1027.1
1027.1
1027.1
1027.1
1027.1
1027.1
1027.1
1027.1
1027.1
1027.1
1027.1
1027.1
1027.1
1.16049
1.16078
1.1608
1.16061
1.16009
1.16001
1.16022
1.16221
1.16676
1.1685
1.16867
1.16876
1.16878
1.16879
1.16882
1.16888
1.1689
1.16891
1.16891
1.16891
1.16891
1.16891
1.16891
1.16892
1.16892
1.16892
1.16892
1.16892
1.16892
1.16892
1.16892
1.16892
1.16892
1.16892
1.16892
1.16892
1.16892
1.16893
1.16893
1.16893
1.16894
1.16897
1.16914
1.16999
1.17187
1.1752
1.1812
1.1908
1.20579
1.22525
1.24057
1.24924
1.25706
1.26803
1.26739
1.26955
1.26677
1.28457
1.56325
53.2446
946.805
1026.96
1027.09
1027.1
1027.1
1027.1
1027.1
1027.1
1027.1
1027.1
1027.1
1027.1
1027.1
1027.1
1027.1
1027.1
1027.1
1027.1
1027.1
1027.1
1027.1
1027.1
1027.1
1027.1
1027.1
1027.1
1027.1
1027.1
1027.1
1027.1
1027.1
1027.1
1027.1
1027.1
1027.1
1027.1
1.16021
1.16037
1.16103
1.16108
1.16024
1.16011
1.16025
1.16201
1.16658
1.16858
1.16871
1.16874
1.16876
1.16877
1.16881
1.16888
1.16891
1.16891
1.16891
1.16891
1.16892
1.16892
1.16892
1.16892
1.16892
1.16892
1.16892
1.16892
1.16893
1.16893
1.16893
1.16893
1.16893
1.16893
1.16893
1.16893
1.16893
1.16894
1.16894
1.16894
1.16895
1.16897
1.16911
1.17012
1.17316
1.17802
1.18421
1.1927
1.20548
1.22799
1.24772
1.25225
1.25347
1.25788
1.25863
1.2659
1.26281
1.2739
1.87858
46.3656
906.922
1024.84
1027.09
1027.1
1027.1
1027.1
1027.1
1027.1
1027.1
1027.1
1027.1
1027.1
1027.1
1027.1
1027.1
1027.1
1027.1
1027.1
1027.1
1027.1
1027.1
1027.1
1027.1
1027.1
1027.1
1027.1
1027.1
1027.1
1027.1
1027.1
1027.1
1027.1
1027.1
1027.1
1027.1
1027.1
1.16157
1.16255
1.16353
1.1641
1.16458
1.1655
1.16668
1.16776
1.16852
1.16875
1.16881
1.16885
1.16887
1.16889
1.1689
1.16891
1.16891
1.16891
1.16891
1.16892
1.16892
1.16892
1.16892
1.16892
1.16892
1.16892
1.16892
1.16893
1.16893
1.16893
1.16893
1.16893
1.16893
1.16893
1.16893
1.16894
1.16894
1.16894
1.16894
1.16894
1.16895
1.16897
1.16915
1.17128
1.17817
1.18843
1.20201
1.22563
1.25343
1.27195
1.28039
1.28411
1.28334
1.28289
1.28208
1.28207
1.28025
1.34087
2.9305
61.1365
928.634
1026.02
1027.09
1027.1
1027.1
1027.1
1027.1
1027.1
1027.1
1027.1
1027.1
1027.1
1027.1
1027.1
1027.1
1027.1
1027.1
1027.1
1027.1
1027.1
1027.1
1027.1
1027.1
1027.1
1027.1
1027.1
1027.1
1027.1
1027.1
1027.1
1027.1
1027.1
1027.1
1027.1
1027.1
1027.1
1.16072
1.16155
1.16402
1.1645
1.165
1.16585
1.16694
1.16799
1.16847
1.16864
1.16873
1.1688
1.16885
1.16888
1.16889
1.1689
1.16891
1.16891
1.16891
1.16891
1.16892
1.16892
1.16892
1.16892
1.16892
1.16892
1.16892
1.16893
1.16893
1.16893
1.16893
1.16893
1.16893
1.16893
1.16893
1.16893
1.16893
1.16893
1.16893
1.16894
1.16899
1.16913
1.16953
1.17212
1.18019
1.19244
1.20589
1.22547
1.24996
1.26917
1.28136
1.28384
1.28271
1.28166
1.27924
1.27903
1.2763
1.32965
1.94787
39.5755
958.578
1026.84
1027.09
1027.1
1027.1
1027.1
1027.1
1027.1
1027.1
1027.1
1027.1
1027.1
1027.1
1027.1
1027.1
1027.1
1027.1
1027.1
1027.1
1027.1
1027.1
1027.1
1027.1
1027.1
1027.1
1027.1
1027.1
1027.1
1027.1
1027.1
1027.1
1027.1
1027.1
1027.1
1027.1
1027.1
1.16052
1.16076
1.1639
1.16475
1.16535
1.16612
1.16708
1.16793
1.16832
1.16851
1.16865
1.16877
1.16884
1.16887
1.16888
1.1689
1.1689
1.1689
1.1689
1.16891
1.16891
1.16891
1.16891
1.16891
1.16891
1.16892
1.16892
1.16892
1.16892
1.16892
1.16892
1.16892
1.16892
1.16892
1.16892
1.16892
1.16892
1.16892
1.16893
1.16893
1.16901
1.16929
1.17006
1.1734
1.18158
1.1948
1.20937
1.22679
1.24692
1.26302
1.27743
1.28285
1.28287
1.28184
1.27772
1.27603
1.27093
1.32394
1.50193
46.1232
1004.42
1027.08
1027.09
1027.1
1027.1
1027.1
1027.1
1027.1
1027.1
1027.1
1027.1
1027.1
1027.1
1027.1
1027.1
1027.1
1027.1
1027.1
1027.1
1027.1
1027.1
1027.1
1027.1
1027.1
1027.1
1027.1
1027.1
1027.1
1027.1
1027.1
1027.1
1027.1
1027.1
1027.1
1027.1
1027.1
1.16047
1.16052
1.16285
1.16458
1.16532
1.16615
1.16706
1.16778
1.16816
1.16842
1.16862
1.16876
1.16884
1.16887
1.16889
1.1689
1.1689
1.1689
1.16891
1.16891
1.16891
1.16891
1.16891
1.16891
1.16891
1.16891
1.16891
1.16891
1.16892
1.16892
1.16892
1.16892
1.16892
1.16892
1.16892
1.16892
1.16892
1.16892
1.16892
1.16893
1.169
1.16933
1.17035
1.17324
1.17878
1.19227
1.21316
1.22949
1.24594
1.25119
1.26104
1.27341
1.28234
1.28327
1.27966
1.27551
1.27921
1.32612
1.34585
39.423
1016.27
1027.08
1027.08
1027.09
1027.09
1027.09
1027.09
1027.09
1027.09
1027.09
1027.09
1027.09
1027.09
1027.09
1027.09
1027.09
1027.09
1027.09
1027.1
1027.1
1027.1
1027.1
1027.1
1027.1
1027.1
1027.1
1027.1
1027.1
1027.1
1027.1
1027.1
1027.1
1027.1
1027.1
1027.1
1027.1
1.16046
1.1605
1.16095
1.16418
1.16523
1.16612
1.167
1.16763
1.16807
1.16839
1.1686
1.16875
1.16883
1.16887
1.16888
1.16889
1.1689
1.1689
1.1689
1.16891
1.16891
1.16891
1.16891
1.16891
1.16891
1.16891
1.16891
1.16891
1.16892
1.16892
1.16892
1.16892
1.16892
1.16892
1.16892
1.16892
1.16892
1.16892
1.16892
1.16895
1.16904
1.16946
1.1709
1.17363
1.17843
1.1926
1.21507
1.22935
1.24289
1.2391
1.2451
1.26581
1.28282
1.28601
1.28401
1.28067
1.29451
1.31581
1.30193
80.8682
1016.43
1026.8
1026.85
1026.96
1027
1027.03
1027.04
1027.04
1027.03
1027.02
1027.01
1026.99
1026.97
1026.96
1026.95
1026.95
1026.95
1026.96
1026.98
1027.02
1027.05
1027.06
1027.07
1027.08
1027.09
1027.09
1027.1
1027.1
1027.1
1027.1
1027.1
1027.1
1027.1
1027.1
1027.1
1027.1
1.1605
1.16044
1.16096
1.16333
1.16504
1.16605
1.16692
1.1675
1.168
1.16837
1.1686
1.16875
1.16883
1.16887
1.16888
1.16889
1.1689
1.1689
1.1689
1.1689
1.16891
1.16891
1.16891
1.16891
1.16891
1.16891
1.16891
1.16891
1.16892
1.16892
1.16892
1.16892
1.16892
1.16892
1.16892
1.16892
1.16892
1.16892
1.16893
1.16897
1.16908
1.16955
1.17117
1.17389
1.17776
1.18446
1.19315
1.20484
1.21866
1.21815
1.24486
1.27519
1.28651
1.28615
1.28469
1.28253
1.29288
1.29991
1.28915
138.481
1012.38
1025.45
1025.66
1025.88
1026.04
1026.21
1026.32
1026.37
1026.37
1026.27
1026.17
1026.03
1025.87
1025.73
1025.64
1025.64
1025.92
1026.22
1026.57
1026.82
1026.93
1026.93
1026.93
1026.96
1027
1027.03
1027.06
1027.07
1027.09
1027.09
1027.1
1027.1
1027.1
1027.1
1027.1
1027.1
1.16046
1.16026
1.16086
1.16261
1.16458
1.16591
1.16701
1.16755
1.16804
1.16838
1.16859
1.16873
1.16881
1.16886
1.16888
1.16889
1.16889
1.1689
1.1689
1.1689
1.16891
1.16891
1.16891
1.16891
1.16892
1.16892
1.16892
1.16892
1.16892
1.16892
1.16892
1.16892
1.16892
1.16892
1.16892
1.16893
1.16893
1.16893
1.16894
1.16896
1.16904
1.16939
1.17072
1.17353
1.17684
1.18019
1.18402
1.1911
1.20339
1.22066
1.26806
1.28163
1.2777
1.28327
1.2844
1.2843
1.29431
1.31068
1.37887
215.815
1003.79
1023.9
1024.23
1024.26
1023.97
1023.86
1023.83
1023.82
1023.84
1023.95
1024.08
1024.26
1024.55
1025.01
1025.63
1026.25
1026.67
1026.89
1027.04
1027.09
1027.09
1027.1
1027.1
1027.08
1027.1
1027.1
1027.1
1027.1
1027.1
1027.1
1027.1
1027.1
1027.1
1027.1
1027.1
1027.1
1.16039
1.16015
1.16061
1.16163
1.16374
1.16533
1.16664
1.16738
1.16798
1.16819
1.16847
1.16871
1.16879
1.16885
1.16888
1.16889
1.16889
1.16889
1.1689
1.1689
1.1689
1.1689
1.1689
1.16891
1.16891
1.16891
1.16891
1.16891
1.16891
1.16891
1.16891