/*--------------------------------*- C++ -*----------------------------------*\
| =========                 |                                                 |
| \\      /  F ield         | OpenFOAM: The Open Source CFD Toolbox           |
|  \\    /   O peration     | Version:  2.3.0                                 |
|   \\  /    A nd           | Web:      www.OpenFOAM.org                      |
|    \\/     M anipulation  |                                                 |
\*---------------------------------------------------------------------------*/
FoamFile
{
    version     2.0;
    format      ascii;
    class       volVectorField;
    location    "51";
    object      U;
}
// * * * * * * * * * * * * * * * * * * * * * * * * * * * * * * * * * * * * * //

dimensions      [0 1 -1 0 0 0 0];

internalField   nonuniform List<vector> 
6144
(
(0.0115931 0.0215702 -0.00029001)
(0.0123559 -0.00317078 -0.00177221)
(0.00450569 -0.00532928 -0.00297113)
(0.00350094 -0.00448325 -0.00276724)
(0.0017077 -0.00256032 -0.0018922)
(0.00280707 0.000517604 -0.00156523)
(0.00320727 9.16163e-05 -0.00134174)
(0.0031548 0.000941758 -0.00118243)
(0.00251369 0.00040373 -0.000949636)
(0.00195365 0.00164878 -0.000499935)
(0.00148932 0.0026791 1.73416e-05)
(0.00140292 0.00385738 0.000699598)
(0.00147615 0.00408511 0.00113145)
(0.00159695 0.00372275 0.00155442)
(0.00163911 0.00291706 0.00166913)
(0.00171378 0.00210317 0.00164158)
(0.00178198 0.00122946 0.00145553)
(0.00185364 0.000495599 0.00121069)
(0.00192059 -9.84102e-05 0.000950033)
(0.00197645 -0.000503571 0.000713671)
(0.00201309 -0.000747528 0.000506397)
(0.00204623 -0.000823196 0.000322503)
(0.00205816 -0.000795837 0.000227967)
(0.00204867 -0.00071209 0.000218169)
(0.00201705 -0.000607578 0.00027966)
(0.00197004 -0.000505613 0.000399256)
(0.00191933 -0.00043338 0.000545776)
(0.00187434 -0.000420098 0.000700412)
(0.00182659 -0.000478272 0.000854849)
(0.00177809 -0.000592285 0.000993264)
(0.00173207 -0.000746712 0.0011201)
(0.00169089 -0.000948891 0.00124834)
(0.00165305 -0.00121599 0.00138219)
(0.00161719 -0.00156443 0.00152163)
(0.00158631 -0.00201232 0.001661)
(0.00156882 -0.00257716 0.00178321)
(0.00157427 -0.00326233 0.001846)
(0.0016112 -0.00402167 0.00178696)
(0.00168096 -0.00475045 0.00152383)
(0.00178265 -0.00525188 0.000950689)
(0.00188582 -0.00535937 8.95107e-05)
(0.00194947 -0.00487707 -0.000732931)
(0.0023265 -0.004314 -0.0010585)
(0.00448006 -0.00615145 -0.00114542)
(0.0087121 -0.0128383 -0.00182622)
(0.0114779 -0.0211592 -0.00380595)
(0.00751178 -0.0251141 -0.00547204)
(0.000486877 -0.0188728 -0.00740068)
(0.00447455 -0.00078338 -0.00929642)
(0.0189421 0.00407269 -0.0114253)
(0.0325263 0.0075653 -0.0175871)
(0.0402477 -0.0190419 -0.0184321)
(0.0394926 -0.0313117 -0.0254463)
(0.0306042 -0.0448191 -0.0323368)
(0.031178 -0.025012 -0.0323319)
(0.0481755 -0.0807871 -0.0192901)
(0.00448996 -0.0565619 -0.0107271)
(-0.00277537 -0.0618664 0.0289764)
(-0.0384458 -0.0533936 -0.0498667)
(0.0327101 0.174671 0.0463179)
(0.205794 -0.314013 0.0334806)
(0.14474 -0.182958 0.00179787)
(0.0993199 -0.232835 -0.013311)
(0.0773094 -0.256009 -0.0116718)
(0.0701385 -0.248716 -0.0089673)
(0.0585021 -0.250416 -0.00474373)
(0.0499654 -0.253873 -0.00467199)
(0.0469162 -0.250752 -0.00799822)
(0.038549 -0.245994 -0.0125191)
(0.0357793 -0.231761 -0.0133716)
(0.030344 -0.219774 -0.0155767)
(0.0287855 -0.207095 -0.0107368)
(0.0241315 -0.187225 -0.0061063)
(0.0122275 -0.147723 -0.00774838)
(0.00358182 -0.104698 -0.00534164)
(0.00282473 -0.0818909 0.00288612)
(0.00795781 -0.0778135 0.00689115)
(0.0110286 -0.0801564 0.00708562)
(0.00947347 -0.084096 0.00555873)
(0.006029 -0.0847397 0.00391596)
(0.0049904 -0.083217 0.00504414)
(0.002338 -0.0829911 0.00807657)
(-0.000221568 -0.0871141 0.0118449)
(-0.00213755 -0.0977938 0.0121346)
(0.000973487 -0.105703 0.0138515)
(0.00217302 -0.11799 0.0133704)
(0.00458764 -0.126917 0.0119151)
(0.00559423 -0.136419 0.00976126)
(0.00152296 -0.137363 0.0063713)
(-0.00025476 -0.132708 0.00617689)
(-0.0053333 -0.121723 0.00186286)
(-0.0172265 -0.096537 -0.0126338)
(-0.0108741 -0.0264893 -0.0173843)
(-0.00870651 0.0242356 0.00576023)
(-0.00688293 0.0392798 0.0300535)
(-0.00698366 0.023531 0.0500183)
(0.0214037 0.0209932 0.00354995)
(0.0235667 0.00588875 0.00267473)
(0.0114087 0.000966291 -0.0016894)
(0.0093052 0.000149346 -0.000957701)
(0.00414306 -0.00288232 0.000917406)
(0.00485175 -0.000542597 0.00140751)
(0.00501271 -0.000863644 0.00192053)
(0.00480516 0.000989255 0.00221713)
(0.00375413 0.000836081 0.00239934)
(0.00262927 0.00268442 0.00245656)
(0.00202953 0.00381418 0.00271249)
(0.00217163 0.00490491 0.00337596)
(0.00250599 0.00496011 0.00386964)
(0.00292694 0.00460714 0.00418741)
(0.00307809 0.00377654 0.00428278)
(0.00322819 0.00295472 0.00429992)
(0.00331589 0.00202769 0.00424677)
(0.0033821 0.00123099 0.00417092)
(0.00343209 0.000540905 0.00409295)
(0.00346183 2.76017e-05 0.0040347)
(0.00345911 -0.000327671 0.00400055)
(0.0034663 -0.000504329 0.00392374)
(0.0034457 -0.000574775 0.00390239)
(0.00339264 -0.000570264 0.00393555)
(0.00330399 -0.000525781 0.00401397)
(0.0031958 -0.000461639 0.00412564)
(0.00309829 -0.000398404 0.00423351)
(0.00302671 -0.000370291 0.00431572)
(0.00295873 -0.000402517 0.00440403)
(0.00288786 -0.000486276 0.00448915)
(0.00282255 -0.00061855 0.00456916)
(0.00277459 -0.000809304 0.00464636)
(0.00274803 -0.00107636 0.00472164)
(0.00274549 -0.00143316 0.00479344)
(0.00277579 -0.00188607 0.00485494)
(0.00284998 -0.00242896 0.00489527)
(0.00296755 -0.0030339 0.00488917)
(0.00311547 -0.00364668 0.00480855)
(0.00324969 -0.00418062 0.00459916)
(0.00340529 -0.00445447 0.00400859)
(0.00374419 -0.00440951 0.00286706)
(0.00455601 -0.00425673 0.00176827)
(0.00714241 -0.0058501 0.00174257)
(0.0130816 -0.011183 0.00218232)
(0.0191963 -0.0176662 0.000842206)
(0.0195903 -0.0174944 -0.00283779)
(0.0119524 -0.0135783 -0.00501332)
(0.00161485 -0.0143056 -0.00435271)
(0.00427309 -0.0101664 -0.0063384)
(0.0172331 -0.000949091 -0.0149257)
(0.0596022 0.033915 -0.0326798)
(0.0771669 0.0488716 -0.0350152)
(0.0666997 0.0688175 -0.0378812)
(0.0680272 0.077214 -0.026422)
(0.0862812 0.0729872 -0.0122876)
(0.0873989 0.00419209 0.00728033)
(-0.0455021 0.0588518 0.01645)
(-0.00472677 -0.096761 0.0484122)
(-0.097691 -0.0206129 -0.0885049)
(0.0548962 0.135148 0.0334687)
(0.264191 -0.301646 0.0914626)
(0.125757 0.0108068 0.0531045)
(0.0299896 -0.134218 0.00422341)
(0.036052 -0.103229 0.0242623)
(0.0315972 -0.116387 0.031986)
(0.0093056 -0.139181 0.036761)
(0.00433553 -0.146178 0.0310097)
(0.00504987 -0.147072 0.0224129)
(0.0100293 -0.146496 0.0203739)
(0.0157757 -0.130086 0.0123481)
(-0.000296196 -0.0932727 0.003078)
(-0.031575 -0.0729824 0.0186192)
(-0.046476 -0.0650387 0.0171784)
(-0.0488531 -0.0417808 0.0100189)
(-0.0332082 -0.0337166 0.00925063)
(-0.0169239 -0.0409646 0.0205914)
(-0.00856548 -0.0501091 0.0392966)
(-0.00953194 -0.0596562 0.0439398)
(-0.0117576 -0.0658591 0.0346298)
(-0.0143925 -0.0701855 0.0213501)
(-0.0139917 -0.0671492 0.0196298)
(-0.0115108 -0.0651218 0.0214671)
(-0.00710887 -0.0653247 0.0230397)
(-0.00521767 -0.0705827 0.0234252)
(-0.00172734 -0.0787128 0.0222558)
(0.00326097 -0.0883768 0.0168239)
(0.00256736 -0.0970638 0.0158861)
(-0.0021901 -0.104325 0.0133006)
(-0.0113734 -0.109771 0.0096043)
(-0.0199383 -0.104301 0.0107355)
(-0.027996 -0.0972997 0.00184555)
(-0.0334122 -0.0790963 -0.0125286)
(-0.0314306 -0.0175551 -0.0154157)
(-0.0206913 0.0254012 0.00624185)
(-0.0186078 0.0380096 0.0339684)
(-0.0188771 0.0205423 0.054572)
(0.0244185 0.0201664 0.00452817)
(0.0277457 0.0117758 0.00452882)
(0.0171397 0.00527584 0.00102679)
(0.0138927 0.00460847 0.00198307)
(0.0052865 -0.00164446 0.0034834)
(0.00445293 0.000268459 0.00325136)
(0.00339115 -0.000442362 0.00405241)
(0.00284997 0.00175774 0.00396088)
(0.00167832 0.00169304 0.0040131)
(0.000893942 0.00315079 0.00397206)
(0.000450266 0.00356952 0.00407969)
(0.000932218 0.00434519 0.00440497)
(0.0014311 0.00430189 0.00471249)
(0.00193697 0.00423083 0.00494241)
(0.00212992 0.00375423 0.00499365)
(0.00232479 0.00328998 0.00499876)
(0.00243804 0.00267752 0.00496451)
(0.00251842 0.00211646 0.0049261)
(0.00256005 0.00156282 0.00488644)
(0.00257354 0.00110166 0.00486828)
(0.00254638 0.000706286 0.00487182)
(0.00246695 0.000400388 0.00490744)
(0.00237162 0.000176483 0.00495885)
(0.00226105 2.71275e-05 0.00501527)
(0.00212944 -6.87742e-05 0.00507418)
(0.00199123 -0.000128987 0.00513456)
(0.00186064 -0.00017111 0.00520028)
(0.00174505 -0.000206217 0.00527293)
(0.00164403 -0.000251467 0.00534913)
(0.00154703 -0.000322295 0.00542647)
(0.00146297 -0.000431219 0.00550343)
(0.00141312 -0.000590273 0.00557793)
(0.00140372 -0.000808074 0.00564788)
(0.00143672 -0.00108494 0.00570617)
(0.00151515 -0.00141021 0.00574055)
(0.001646 -0.00175484 0.00572887)
(0.00184218 -0.00207638 0.00564077)
(0.00212427 -0.00232835 0.0054421)
(0.00248089 -0.0024924 0.00506692)
(0.00282731 -0.00242082 0.00438013)
(0.00365166 -0.0020253 0.00302405)
(0.00565004 -0.001308 0.00198389)
(0.0102259 -0.00135269 0.00293476)
(0.0171268 -0.00235339 0.00563086)
(0.0222536 0.00227075 0.00530593)
(0.0225842 0.00859623 0.00196345)
(0.0212197 0.00962065 0.00120869)
(0.0152826 -0.00240601 0.00129178)
(0.00625243 -0.00856436 -0.00232786)
(0.0109768 -0.00172173 -0.0111599)
(0.061618 0.0405743 -0.029194)
(0.0855118 0.076394 -0.0238124)
(0.0812372 0.103762 -0.018604)
(0.0922098 0.112496 -0.0022704)
(0.0995107 0.0969116 0.0104626)
(0.0846095 0.0429726 0.0186065)
(0.0329028 0.115991 0.0360389)
(0.0906543 -0.199394 0.0557646)
(-0.104216 0.0829116 -0.048488)
(0.144119 0.0154717 -0.00206383)
(0.307545 -0.253339 0.0722476)
(0.122312 0.120162 0.0454086)
(0.0708353 -0.138844 0.0331256)
(0.0547516 -0.0366522 0.0199808)
(0.0380008 -0.069911 0.017014)
(0.0176435 -0.0761295 0.0176067)
(0.0112432 -0.0704478 0.00772841)
(-0.00214778 -0.0441919 -0.0314915)
(-0.0309335 -0.00483956 -0.0072331)
(-0.0272089 0.0282374 0.0320297)
(-0.0273594 0.03382 0.0396462)
(-0.0347288 0.0337474 0.0412765)
(-0.0379218 0.0372147 0.0386501)
(-0.0248666 0.0194086 0.0388288)
(-0.0151047 -0.00301693 0.0539312)
(-0.0283303 -0.0207178 0.0543498)
(-0.0379815 -0.029276 0.0465833)
(-0.0414211 -0.0261064 0.0384304)
(-0.0359234 -0.0311723 0.0308006)
(-0.0294309 -0.0328517 0.0254499)
(-0.0190464 -0.0332288 0.0237892)
(-0.0107312 -0.0372701 0.0197037)
(-0.00148858 -0.045075 0.00990599)
(0.0111556 -0.0476075 -0.00313975)
(0.0169143 -0.055917 -0.0097004)
(0.0216862 -0.0604004 -0.0153599)
(0.0230637 -0.0733306 -0.018102)
(0.0215818 -0.0793822 -0.0190163)
(0.0115345 -0.0863831 -0.0178778)
(0.00208751 -0.0805774 -0.0118311)
(-0.0181503 -0.0709694 -0.0200162)
(-0.0530381 -0.0380969 -0.0141394)
(-0.0404202 0.00349803 -0.00971393)
(-0.0287468 0.0304286 0.00394522)
(-0.0285627 0.0369082 0.0353676)
(-0.0320596 0.0172197 0.0540275)
(0.0251618 0.0200242 0.00474057)
(0.0296724 0.0155986 0.00487478)
(0.0201851 0.00783163 0.000701504)
(0.0182107 0.0084868 0.000944884)
(0.00799715 0.000260445 0.00193982)
(0.00436421 0.00173318 0.00233188)
(0.00187507 4.54638e-05 0.00410417)
(0.00112193 0.00222978 0.00416757)
(-4.20995e-05 0.00139891 0.00425839)
(-0.000730964 0.00248397 0.00417229)
(-0.00101736 0.00246175 0.00430746)
(-0.000468973 0.00317437 0.00467364)
(-3.13406e-05 0.00337628 0.00493749)
(0.000504862 0.00363414 0.00512805)
(0.000764297 0.00343685 0.00515535)
(0.000984319 0.00321947 0.00518129)
(0.00109938 0.00280045 0.00518783)
(0.00117104 0.00240352 0.00520452)
(0.00118531 0.00196746 0.0052039)
(0.00117189 0.00157522 0.00520228)
(0.00111111 0.00120824 0.00520279)
(0.00101621 0.000881432 0.00521501)
(0.000892657 0.00059265 0.00523811)
(0.000752791 0.00036162 0.00526752)
(0.000603617 0.000185893 0.00530304)
(0.000456449 6.07854e-05 0.00534398)
(0.000328085 -2.67287e-05 0.00538818)
(0.000228869 -9.4169e-05 0.00543469)
(0.000150146 -0.000155617 0.00548643)
(8.52413e-05 -0.000221107 0.00554577)
(4.58163e-05 -0.000297239 0.00561113)
(5.1081e-05 -0.000390895 0.00567119)
(0.000107759 -0.000503032 0.00571626)
(0.000222097 -0.000620717 0.00573071)
(0.000402974 -0.000728324 0.00569239)
(0.000660176 -0.000803812 0.00557754)
(0.00101477 -0.000828275 0.00535101)
(0.00150147 -0.000776406 0.00497539)
(0.00211146 -0.00064378 0.00437998)
(0.0027835 -0.000370297 0.00342423)
(0.00388459 0.000113735 0.00183443)
(0.00587136 0.0011519 0.000432835)
(0.00947883 0.00351671 0.000939201)
(0.0136815 0.00811556 0.00429406)
(0.0178299 0.0151687 0.00868978)
(0.0220316 0.0211396 0.00851649)
(0.0245833 0.022547 0.00645912)
(0.0198034 0.0177716 0.00523005)
(0.00680504 0.00562879 0.00413303)
(-0.00148569 -0.00467926 -0.00338052)
(0.0513611 0.0341313 -0.0195806)
(0.0829798 0.0782825 -0.0141638)
(0.0815225 0.107922 -0.00164289)
(0.0913711 0.11529 0.0165949)
(0.110693 0.105553 0.0176137)
(0.113672 0.0498404 0.0252409)
(0.125018 0.119047 0.0453562)
(0.140712 -0.195239 0.0551101)
(-0.0999939 0.199568 0.0394074)
(0.108407 -0.106889 0.0501664)
(0.309658 -0.202041 0.0731505)
(0.0919488 0.143072 0.0394945)
(0.126169 -0.0803115 0.0443764)
(0.0285219 0.0622841 -0.0217188)
(0.0236777 0.0109011 -0.0152998)
(-0.0203052 0.0498822 -0.0129172)
(-0.0358155 0.0456087 -0.0104477)
(-0.0349636 0.0523821 0.00693843)
(-0.0254693 0.0455636 0.0179054)
(-0.0143915 0.051125 0.0269233)
(-0.0184542 0.0572954 0.0368668)
(-0.0290098 0.050567 0.0406131)
(-0.0402683 0.0423373 0.0524604)
(-0.0452759 0.0305967 0.0642518)
(-0.0529714 0.0362981 0.0638436)
(-0.055457 0.0197348 0.0487681)
(-0.0583716 0.0139832 0.0413627)
(-0.0510195 0.000830193 0.0301744)
(-0.0345965 -0.00474445 0.0195685)
(-0.0107352 -0.00736928 0.00984577)
(0.00532228 -0.00392569 -0.00173172)
(0.0150885 -8.18878e-05 -0.0200076)
(0.0257271 0.0108398 -0.029017)
(0.0330984 0.0246896 -0.0269789)
(0.0344803 0.0284148 -0.0208557)
(0.0316337 0.0241839 -0.0145743)
(0.0287549 0.0182525 -0.0110026)
(0.0253392 0.0188341 -0.00683636)
(0.00447424 0.0108724 -0.00491922)
(-0.0272227 0.0167845 -0.0161672)
(-0.039049 0.0229145 -0.0146778)
(-0.0409632 0.0272859 -0.014011)
(-0.0337064 0.0252174 -0.0157124)
(-0.03101 0.0422438 0.000599879)
(-0.0306577 0.0344984 0.0347561)
(-0.0383609 0.0162104 0.0533514)
(0.0249804 0.0199912 0.00460596)
(0.0313665 0.0191343 0.00534035)
(0.0225871 0.0103374 0.000995917)
(0.0232594 0.0120528 0.000664752)
(0.0123535 0.00287749 -0.00114493)
(0.00600121 0.00394162 -0.000493099)
(0.000979773 -0.000254246 0.00288161)
(-0.000259465 0.00242267 0.00349671)
(-0.00143825 0.000922397 0.00379171)
(-0.00217042 0.00174964 0.00398715)
(-0.00274037 0.00145671 0.00422432)
(-0.00256233 0.00222349 0.00462762)
(-0.00232519 0.00261709 0.00481899)
(-0.00172287 0.0031293 0.00499)
(-0.00143773 0.00311609 0.00497848)
(-0.00120695 0.00300411 0.00502442)
(-0.00113783 0.00266936 0.00506554)
(-0.00116015 0.00236336 0.00512818)
(-0.00123477 0.00203083 0.00515561)
(-0.00131875 0.00172377 0.00515559)
(-0.00141408 0.00140947 0.00513039)
(-0.00152085 0.00109668 0.00510047)
(-0.00163553 0.000793735 0.00507524)
(-0.00176012 0.000528446 0.00505887)
(-0.00189931 0.000305693 0.00505024)
(-0.00203406 0.000128772 0.00504945)
(-0.00214098 -6.85538e-06 0.00506002)
(-0.00221314 -0.000108917 0.00507981)
(-0.00226292 -0.000181966 0.00510683)
(-0.00230252 -0.000233218 0.00514169)
(-0.00232037 -0.00026348 0.00518542)
(-0.00229026 -0.000266867 0.00522413)
(-0.00220704 -0.000232076 0.00524138)
(-0.00206449 -0.000134942 0.00521407)
(-0.00184878 3.89229e-05 0.00511486)
(-0.00155206 0.00030834 0.00491598)
(-0.00113208 0.00067674 0.00457749)
(-0.000489172 0.00110467 0.0040892)
(0.000485091 0.0015786 0.00346978)
(0.00178942 0.00207747 0.0027332)
(0.00341152 0.00245961 0.00188196)
(0.00509883 0.00284383 0.00100102)
(0.00695968 0.00484161 0.0006096)
(0.00919591 0.0103591 0.001849)
(0.0119383 0.0184393 0.0060123)
(0.0162146 0.0245144 0.00917966)
(0.0193165 0.0269807 0.00861174)
(0.0182476 0.0283571 0.00823594)
(0.0139495 0.0175696 0.0119788)
(-0.00266026 -0.00237116 0.0103139)
(0.0277875 0.0187466 -0.00933538)
(0.0659763 0.0861792 -0.0131376)
(0.07488 0.118976 -0.000575515)
(0.0779359 0.127361 0.0177431)
(0.0987515 0.117593 0.0195607)
(0.104537 0.099389 0.0247233)
(0.113263 0.141293 0.00825822)
(0.0378728 0.0449235 -0.0038136)
(-0.200524 0.484025 0.0506906)
(0.08592 -0.179294 0.033515)
(0.294013 -0.120696 0.0526369)
(0.0687672 0.125758 0.0198688)
(0.0989106 0.0131997 0.021669)
(0.0479786 0.089684 0.000653794)
(0.0589948 0.0624931 0.00943383)
(0.0254307 0.0702901 0.00970513)
(0.0104313 0.0544325 0.0158293)
(-0.000643286 0.0554819 0.0270375)
(-0.0083382 0.0487353 0.0282647)
(-0.0174621 0.0555712 0.0322932)
(-0.0332025 0.0588294 0.0382273)
(-0.0534121 0.0715973 0.0479283)
(-0.0684762 0.0746602 0.0573339)
(-0.0763785 0.0720244 0.0589804)
(-0.072232 0.0585365 0.0460962)
(-0.0621126 0.0389678 0.0378365)
(-0.0480508 0.0263425 0.0226728)
(-0.0279417 0.0204718 0.00127609)
(-0.0178241 0.0290337 -0.0194922)
(-0.0102811 0.0680909 -0.0347579)
(0.0098934 0.109859 -0.014163)
(0.0187487 0.109422 0.00993741)
(0.0213145 0.106739 0.0165898)
(0.0256307 0.100258 0.0161099)
(0.025972 0.0903777 0.0061927)
(0.0258469 0.0846988 0.000930751)
(0.0262132 0.0814835 -0.000950614)
(0.0248 0.0792241 -0.00372534)
(0.0179427 0.0732502 -0.0102483)
(0.00741907 0.069262 -0.0161834)
(0.000269768 0.0612361 -0.0184329)
(-0.00814163 0.0565081 -0.0185387)
(-0.0144872 0.0528369 -0.0126949)
(-0.0268997 0.0498054 -0.000532775)
(-0.0347069 0.0337089 0.0330197)
(-0.0511848 0.0143718 0.0494433)
(0.023236 0.0190493 0.00450532)
(0.0322672 0.0230442 0.0067375)
(0.0233337 0.0124223 0.00266243)
(0.0257708 0.0147433 0.00260344)
(0.0179026 0.00403783 -0.00174826)
(0.0105959 0.00551267 -0.00308703)
(0.00133592 -0.00141377 0.000626839)
(-0.00184381 0.00221348 0.00184347)
(-0.00255245 4.82699e-05 0.00261811)
(-0.00370982 0.000990725 0.00319326)
(-0.00428086 0.000450001 0.00352267)
(-0.0040315 0.00138359 0.00404115)
(-0.00368865 0.00201225 0.00427263)
(-0.00285008 0.00279485 0.00460821)
(-0.00224946 0.00276146 0.00475549)
(-0.00188514 0.00262636 0.0049754)
(-0.00179856 0.00226469 0.00512589)
(-0.00190042 0.00199633 0.00523296)
(-0.0020524 0.00177253 0.00526256)
(-0.00218991 0.00160711 0.00523158)
(-0.00232103 0.0014369 0.00514251)
(-0.00244954 0.00124743 0.00502357)
(-0.00259795 0.00103669 0.00489786)
(-0.00274673 0.000829316 0.00477674)
(-0.00288232 0.000639047 0.00466948)
(-0.00299227 0.000485442 0.00457749)
(-0.00307214 0.000362596 0.00449745)
(-0.00312379 0.000261641 0.00443517)
(-0.00315836 0.000184449 0.00439773)
(-0.00318038 0.000141361 0.00439002)
(-0.00318843 0.000157076 0.00440247)
(-0.0031611 0.000252033 0.00440642)
(-0.00309597 0.000442082 0.00437772)
(-0.00298241 0.000744677 0.0042882)
(-0.00279736 0.001148 0.00411323)
(-0.00250568 0.00163083 0.00385246)
(-0.00200793 0.00216104 0.00352846)
(-0.0011557 0.00269081 0.00323601)
(0.0001601 0.00314833 0.00309344)
(0.0019577 0.00355277 0.00319855)
(0.00399055 0.0038394 0.00349091)
(0.00559909 0.00366409 0.00380068)
(0.00563899 0.00399028 0.00317582)
(0.00528522 0.00765338 0.00219101)
(0.00641001 0.014411 0.00400838)
(0.00980054 0.0204611 0.00752624)
(0.0117966 0.0233051 0.00710498)
(0.0106322 0.0289548 0.0079245)
(0.0123485 0.0199661 0.014509)
(-0.000759987 0.00897066 0.0217019)
(-0.00877597 -0.00288437 0.0108114)
(0.0386839 0.071655 0.00220576)
(0.0665152 0.109288 0.00356951)
(0.0746385 0.126203 0.0198806)
(0.105125 0.122446 0.0172698)
(0.117381 0.101991 0.011441)
(0.0757382 0.154365 0.0265039)
(0.127586 0.0706596 -0.013312)
(0.208677 0.559245 -0.0514561)
(0.0695811 -0.198435 0.0188648)
(0.236095 -0.0606154 0.0276641)
(0.0613022 0.103647 0.0259794)
(0.0814344 0.0405114 0.021012)
(0.0362893 0.0971184 0.00231242)
(0.0298073 0.100784 0.0163155)
(0.00658152 0.10766 0.0206279)
(-0.0068942 0.101366 0.0235016)
(-0.0199426 0.102613 0.0275093)
(-0.0319021 0.101337 0.0312637)
(-0.0421455 0.111888 0.0396618)
(-0.0578049 0.109113 0.0435785)
(-0.0699274 0.110817 0.0467608)
(-0.0763143 0.0947126 0.0511669)
(-0.0724022 0.07828 0.0431843)
(-0.0584944 0.0593759 0.0264937)
(-0.0445024 0.0534248 -0.00174751)
(-0.0398733 0.0704906 -0.0337377)
(-0.0290406 0.120012 -0.0391231)
(-0.0213975 0.157716 -0.0200204)
(-0.00527902 0.171785 -0.00615923)
(0.0180625 0.18705 0.00860246)
(0.0318655 0.180234 0.0203756)
(0.0405594 0.172003 0.0237959)
(0.0492167 0.164324 0.0294807)
(0.0511148 0.150499 0.0310148)
(0.0509513 0.130905 0.0256651)
(0.0494233 0.118811 0.020931)
(0.0429815 0.102724 0.0122182)
(0.0280538 0.088763 -0.00143493)
(0.0143318 0.0783353 -0.0122117)
(0.00799397 0.0709243 -0.0185048)
(0.001643 0.0634501 -0.018637)
(-0.00241725 0.0565616 -0.00910241)
(-0.0141297 0.0461869 0.00989695)
(-0.0376261 0.0306617 0.0308994)
(-0.052875 0.0115794 0.0441171)
(0.0200996 0.0167888 0.00481372)
(0.0326301 0.0268651 0.00928988)
(0.0227445 0.0140665 0.00523474)
(0.0253712 0.0170701 0.00553975)
(0.0205493 0.00427126 0.000897212)
(0.0152672 0.00592879 -0.00191064)
(0.00251219 -0.0028021 -0.000576008)
(-0.00274845 0.00204699 0.000530794)
(-0.00368297 -0.000503678 0.00171368)
(-0.0050006 0.000765145 0.00255441)
(-0.00595067 7.31361e-05 0.00279458)
(-0.00644855 0.00105181 0.00346554)
(-0.00644869 0.00164703 0.00389225)
(-0.00521483 0.0023222 0.00470776)
(-0.00447404 0.00215398 0.00517216)
(-0.00415404 0.002004 0.00561204)
(-0.00422349 0.00168628 0.00586097)
(-0.0045675 0.00151901 0.00596597)
(-0.00493425 0.00143958 0.00593999)
(-0.00519602 0.00145103 0.00583735)
(-0.00536314 0.00147361 0.00565786)
(-0.00546636 0.00148276 0.00544004)
(-0.00554288 0.00145941 0.00521323)
(-0.00560967 0.00140698 0.00500117)
(-0.00569056 0.00134385 0.00482542)
(-0.00576127 0.00129261 0.00468213)
(-0.00576121 0.00124335 0.00456172)
(-0.00571581 0.00117897 0.00448368)
(-0.00566548 0.00110801 0.00444914)
(-0.00564432 0.00106449 0.00445639)
(-0.00564226 0.00109881 0.00449065)
(-0.00561835 0.00123524 0.00451649)
(-0.00556743 0.00147363 0.0044951)
(-0.00545367 0.00181547 0.00440684)
(-0.0052101 0.00221753 0.00425678)
(-0.00480531 0.00262012 0.00407104)
(-0.00417163 0.00296436 0.00387906)
(-0.0032473 0.00320355 0.00376367)
(-0.0019869 0.00338409 0.00388146)
(-0.000438045 0.00356122 0.00444652)
(0.00135332 0.00376124 0.00532042)
(0.00277092 0.00388434 0.00584661)
(0.00266029 0.00395285 0.00512066)
(0.00135911 0.00494155 0.00348568)
(0.000402117 0.00786772 0.00390441)
(0.00182494 0.0116407 0.00642764)
(0.00375063 0.0146687 0.00508335)
(0.0062656 0.022191 0.00481459)
(0.0163718 0.00977252 0.0135175)
(0.0144947 -0.00810123 0.0304808)
(-0.0109443 -0.0238111 0.048789)
(-0.00817657 -0.0105011 0.0226861)
(0.0518007 0.0601386 -0.00391354)
(0.0673407 0.109063 -0.0121948)
(0.119016 0.115568 -0.00596894)
(0.147368 0.0685244 0.0139705)
(0.157011 0.176395 0.0933034)
(0.110719 -0.23435 0.088501)
(0.236078 0.300731 -0.0361278)
(0.0413995 -0.149137 0.000723441)
(0.175989 0.0207888 -0.00968539)
(0.0673895 0.122915 0.0307482)
(0.0483526 0.126934 0.0166314)
(0.0303211 0.13546 0.017618)
(0.0298932 0.139035 0.0221438)
(0.0195353 0.132582 0.0312299)
(0.00343329 0.12522 0.0312597)
(-0.012605 0.124931 0.0352058)
(-0.0297434 0.122402 0.0344202)
(-0.0409608 0.126348 0.0348754)
(-0.0542832 0.12026 0.0324741)
(-0.0654012 0.119588 0.0267272)
(-0.0711901 0.11469 0.0145391)
(-0.0722965 0.128259 -0.00851262)
(-0.0687823 0.166699 -0.0260675)
(-0.0613857 0.234462 -0.0115663)
(-0.0502643 0.2601 0.011405)
(-0.0350924 0.281145 0.0233287)
(-0.0161193 0.275825 0.0305999)
(-0.00143491 0.270375 0.0379498)
(0.015895 0.268063 0.0465099)
(0.0268369 0.257347 0.0471897)
(0.0329103 0.248687 0.0489024)
(0.0406446 0.240689 0.05222)
(0.0447873 0.229935 0.05217)
(0.0466233 0.21858 0.0520319)
(0.0487843 0.204708 0.050508)
(0.0470328 0.184615 0.0487871)
(0.0432171 0.163343 0.0447738)
(0.0351717 0.13511 0.0402856)
(0.0265599 0.108137 0.0334364)
(0.0159166 0.0801455 0.0236517)
(0.00129155 0.0549423 0.0162366)
(-0.0143334 0.0447218 0.0243782)
(-0.0421692 0.0238767 0.0313471)
(-0.0641475 0.00935149 0.0392452)
(0.016738 0.0108634 0.00475882)
(0.0313714 0.0297366 0.0113553)
(0.0211841 0.0149768 0.00599639)
(0.0246873 0.0206487 0.00577059)
(0.0212701 0.00538007 0.00243259)
(0.01731 0.00556822 0.000958404)
(0.00293104 -0.00438241 -0.00063533)
(-0.00490641 0.00118477 -0.000607585)
(-0.00461521 -0.00175573 0.00203482)
(-0.00645975 0.000768046 0.00287452)
(-0.00683324 -4.61708e-05 0.00327923)
(-0.00697917 0.000953497 0.00417391)
(-0.00652932 0.000545813 0.00487826)
(-0.00503265 0.000888649 0.00598203)
(-0.00415457 0.000659837 0.006777)
(-0.0038379 0.000802075 0.00747756)
(-0.00394819 0.000865924 0.00790101)
(-0.00429933 0.00109511 0.00808976)
(-0.00465363 0.00130134 0.00808757)
(-0.00489063 0.0015644 0.00797607)
(-0.00504929 0.0018084 0.00775947)
(-0.0051523 0.00199167 0.00748818)
(-0.0052257 0.00210754 0.00720221)
(-0.00528251 0.00216878 0.00692311)
(-0.00533895 0.00217685 0.00666575)
(-0.00536746 0.00214717 0.00645098)
(-0.00534184 0.00209971 0.0062847)
(-0.00526549 0.00204059 0.00616535)
(-0.00519012 0.00196748 0.00608815)
(-0.0051664 0.00192311 0.00604666)
(-0.00519398 0.00197366 0.00601724)
(-0.00521669 0.00213396 0.00597249)
(-0.00521643 0.00239947 0.00590313)
(-0.00515354 0.00273229 0.00578537)
(-0.00495326 0.00303403 0.00561505)
(-0.00457381 0.00319773 0.00542619)
(-0.00390684 0.00319867 0.00526989)
(-0.00294153 0.0030521 0.00533028)
(-0.00175062 0.0027729 0.00569188)
(-0.000509208 0.0025959 0.0063293)
(0.000817192 0.00253431 0.00718017)
(0.00195632 0.00278194 0.00764275)
(0.00201992 0.00295007 0.00687447)
(0.00122758 0.00298408 0.00581628)
(-0.000933633 0.00306682 0.00569832)
(-9.15806e-05 0.00286488 0.00601061)
(-0.001189 0.00621392 0.00298557)
(0.00867747 0.0112476 0.00232706)
(0.028169 0.00274884 0.0145723)
(0.0174348 -0.0278554 0.0382803)
(0.000519701 -0.0334985 0.0523567)
(-0.0219036 -0.0451836 0.0337032)
(-0.0337837 -0.00762718 -0.00801196)
(0.0316632 0.0848488 -0.0155524)
(0.104775 0.113827 -0.0138687)
(0.172449 0.124885 0.0487113)
(0.189429 0.149676 0.082038)
(0.195169 -0.031449 0.13097)
(0.17439 0.0295331 0.00626715)
(0.0311007 -0.145204 -0.0219982)
(0.0501815 0.188365 -0.0409108)
(0.0164473 0.271208 -0.000507627)
(0.0249916 0.305098 0.00898461)
(0.0186771 0.310379 0.0278515)
(0.0124677 0.30551 0.0329527)
(0.00399157 0.301711 0.0290165)
(-0.00543289 0.294236 0.0200605)
(-0.0195182 0.283409 0.0146741)
(-0.0302699 0.277913 0.0148905)
(-0.0453008 0.276058 0.0145295)
(-0.0567839 0.279332 0.0111053)
(-0.0673402 0.290447 0.00854051)
(-0.0784231 0.304579 0.00636626)
(-0.0853662 0.326089 0.00489847)
(-0.0795233 0.343807 0.0139366)
(-0.0623097 0.3432 0.0272417)
(-0.0424817 0.337349 0.0348397)
(-0.0233706 0.327099 0.0357734)
(-0.00524304 0.317591 0.0384259)
(0.00906064 0.303257 0.0399567)
(0.0229329 0.2923 0.0392682)
(0.031487 0.283238 0.0401786)
(0.0385196 0.273391 0.042037)
(0.0430242 0.267896 0.0462084)
(0.0443562 0.261202 0.0470324)
(0.0459073 0.25661 0.0481435)
(0.0462633 0.251718 0.0466246)
(0.0442329 0.243923 0.0462487)
(0.0407633 0.235934 0.0453696)
(0.0347377 0.222688 0.0457119)
(0.0276057 0.207434 0.0452187)
(0.0199845 0.185969 0.044399)
(0.00561971 0.162631 0.0435583)
(-0.0140946 0.123564 0.0372171)
(-0.0398838 0.0805853 0.0326357)
(-0.0560591 0.0313668 0.0285934)
(0.00960148 0.000669693 0.00152692)
(0.028008 0.0310434 0.0107212)
(0.0188381 0.0155218 0.00436191)
(0.0233679 0.0251497 0.00338684)
(0.0219179 0.00867524 0.0015942)
(0.0185544 0.00686026 0.00167593)
(0.00300172 -0.0065037 -0.00545445)
(-0.00445857 -0.000188293 -0.00534842)
(-0.00752283 -0.00256612 -0.00195788)
(-0.00892476 0.000921076 -0.000349376)
(-0.00936983 -0.000241221 0.000232865)
(-0.00924469 0.000529965 0.00133783)
(-0.00900518 -0.000446875 0.00209472)
(-0.00821294 -0.000175465 0.00296242)
(-0.00790275 -0.000268155 0.00362794)
(-0.00796719 0.000156282 0.00431886)
(-0.00829068 0.000460025 0.00488583)
(-0.00872014 0.000899348 0.00528207)
(-0.00912668 0.00124707 0.00548217)
(-0.00943266 0.00160615 0.00553891)
(-0.00950423 0.00193056 0.00546818)
(-0.00944982 0.00219901 0.00531415)
(-0.00935008 0.00239799 0.00513082)
(-0.00921899 0.00252896 0.00494898)
(-0.00908234 0.00259445 0.00477615)
(-0.00892967 0.00260878 0.00462)
(-0.00874542 0.00259587 0.00448593)
(-0.00853547 0.0025774 0.00437854)
(-0.00835288 0.00255953 0.00429851)
(-0.00830047 0.00256465 0.00423918)
(-0.00832652 0.00264441 0.00418495)
(-0.0083374 0.00279916 0.0041123)
(-0.00828801 0.003022 0.00401771)
(-0.00806745 0.00328537 0.00389774)
(-0.00757194 0.00351544 0.00375239)
(-0.0068583 0.00366855 0.00360299)
(-0.00603897 0.00361996 0.00349396)
(-0.00499835 0.00332458 0.0035781)
(-0.00393854 0.00291086 0.00391744)
(-0.00303003 0.00259803 0.00450149)
(-0.00220352 0.00222748 0.00525564)
(-0.00141305 0.00204062 0.00571601)
(-0.00122337 0.00160884 0.00511038)
(-0.00153242 0.000961273 0.00440137)
(-0.00307029 -0.00192636 0.00334414)
(-0.0044716 -0.00344804 0.000192425)
(-0.004828 0.00140175 -0.00169554)
(0.00836026 0.00206933 0.000215204)
(0.033237 0.00422046 0.0141166)
(0.0209122 -0.0322968 0.0408944)
(0.00314255 -0.048046 0.0644282)
(-0.00662864 -0.0607189 0.053308)
(-0.0439001 -0.0662051 0.0209038)
(-0.0561945 -0.0338516 -0.0171348)
(0.0454356 0.0644594 -0.0170749)
(0.164709 0.181349 0.0678439)
(0.208628 0.202559 0.0879522)
(0.256664 0.0704942 0.119684)
(0.163066 0.171472 0.151082)
(-0.0796846 -0.166506 -0.0665409)
(-0.0848538 0.186913 -0.0632196)
(0.00589303 0.280359 -0.0237996)
(0.0110895 0.323366 -0.0200769)
(0.0154152 0.33571 -0.00331614)
(0.00311863 0.343041 0.00311551)
(0.00188257 0.338499 0.0074214)
(0.000796991 0.333238 0.00836381)
(-0.0135722 0.330044 0.00712474)
(-0.0254212 0.330025 0.00699482)
(-0.0359574 0.32449 0.00837801)
(-0.0517362 0.316507 0.0106513)
(-0.0632977 0.307075 0.0125879)
(-0.0733073 0.304156 0.0148105)
(-0.0764489 0.298952 0.0170829)
(-0.0677254 0.279975 0.0257662)
(-0.0556623 0.244902 0.0308311)
(-0.0394582 0.220488 0.0276016)
(-0.0199372 0.178333 0.0212144)
(-0.00403704 0.145837 0.0100898)
(0.0072321 0.119535 0.00578964)
(0.0169309 0.108947 0.00253639)
(0.0243732 0.101073 0.000282912)
(0.0292997 0.0984096 0.00137848)
(0.0313653 0.107361 0.0153895)