/*--------------------------------*- C++ -*----------------------------------*\
| =========                 |                                                 |
| \\      /  F ield         | OpenFOAM: The Open Source CFD Toolbox           |
|  \\    /   O peration     | Version:  2.3.0                                 |
|   \\  /    A nd           | Web:      www.OpenFOAM.org                      |
|    \\/     M anipulation  |                                                 |
\*---------------------------------------------------------------------------*/
FoamFile
{
    version     2.0;
    format      ascii;
    class       volVectorField;
    location    "51";
    object      U.waterMean;
}
// * * * * * * * * * * * * * * * * * * * * * * * * * * * * * * * * * * * * * //

dimensions      [0 1 -1 0 0 0 0];

internalField   nonuniform List<vector> 
6144
(
(0.00980177 0.0196398 -0.000546848)
(0.0100891 -0.00110994 -0.00150106)
(0.0045717 -0.00265183 -0.00249705)
(0.00416078 -0.00329734 -0.00240123)
(0.0026363 -0.00317373 -0.00192697)
(0.00299566 -0.00150393 -0.00166464)
(0.00265586 -0.00157497 -0.00130775)
(0.00260628 -0.000539389 -0.00102151)
(0.00226775 -0.000369684 -0.000888769)
(0.00203969 0.000846655 -0.000564838)
(0.00185449 0.00173787 -0.000261793)
(0.00192064 0.00248425 0.00016236)
(0.00205016 0.00248856 0.000357084)
(0.00218549 0.00210605 0.000585742)
(0.00225438 0.00143538 0.000516535)
(0.00233173 0.000832861 0.000411302)
(0.00237829 0.000240773 0.000205467)
(0.00242855 -0.000181638 3.01704e-05)
(0.00246832 -0.000525841 -0.000154558)
(0.00249775 -0.000724176 -0.000297735)
(0.00251512 -0.000843782 -0.000411178)
(0.00252504 -0.000870673 -0.000484147)
(0.00252318 -0.000858116 -0.000514472)
(0.00251123 -0.000813005 -0.000507801)
(0.00248973 -0.0007577 -0.000470871)
(0.00246132 -0.000699298 -0.000408755)
(0.00242946 -0.000647817 -0.00033051)
(0.00239643 -0.000611293 -0.000245756)
(0.00236218 -0.000588217 -0.000158981)
(0.0023262 -0.000588348 -7.5229e-05)
(0.00228946 -0.000581673 7.91661e-06)
(0.00224718 -0.000619651 9.68072e-05)
(0.00220428 -0.000611893 0.000198151)
(0.00215306 -0.000722347 0.000320139)
(0.00210793 -0.000737782 0.000470033)
(0.00205809 -0.00103208 0.000641484)
(0.00202752 -0.00115376 0.000814538)
(0.00199756 -0.00174053 0.000939924)
(0.00199742 -0.00191651 0.000973641)
(0.00200126 -0.00265216 0.000859142)
(0.00202045 -0.00252809 0.000553013)
(0.00203406 -0.00288522 1.74649e-05)
(0.00208175 -0.00171493 -0.000575361)
(0.00234124 -0.00126754 -0.00104788)
(0.00288852 0.000317674 -0.00146798)
(0.00357936 -0.000138196 -0.00191608)
(0.0040263 0.000915937 -0.00261716)
(0.00335923 0.00117015 -0.00373022)
(0.00291062 0.00717142 -0.00562141)
(0.00677555 0.0104249 -0.00787386)
(0.0178763 0.010406 -0.0101409)
(0.0261203 -0.00921602 -0.0102437)
(0.03149 -0.0201141 -0.0109292)
(0.0307487 -0.0565308 -0.0102881)
(0.0261456 -0.0513803 -0.0114147)
(0.0222788 -0.0917223 -0.00753831)
(0.00468898 -0.0450471 -0.0133959)
(0.00651936 -0.102251 0.0221701)
(-0.0357181 -0.00297023 -0.0466251)
(0.0236491 -0.0325446 0.0385003)
(0.1356 -0.293689 0.0629818)
(0.0928606 -0.118402 0.0280638)
(0.0610233 -0.187384 0.00761647)
(0.051262 -0.197794 0.00437654)
(0.0426102 -0.198288 0.00501462)
(0.0351755 -0.190478 0.00509209)
(0.0287724 -0.1895 0.00438369)
(0.0238828 -0.183041 0.00398677)
(0.020639 -0.179628 0.00407513)
(0.0178449 -0.172331 0.00440161)
(0.0153984 -0.167111 0.00475488)
(0.0129477 -0.158532 0.00518815)
(0.0109313 -0.150537 0.00578127)
(0.00849127 -0.140968 0.00633907)
(0.00545059 -0.130513 0.00662778)
(0.00309774 -0.117641 0.00525258)
(0.0019698 -0.104735 0.00267501)
(0.000691464 -0.0920401 0.00121367)
(-0.000518059 -0.0790624 0.00116156)
(0.000450149 -0.0664763 0.00194497)
(0.00194571 -0.0560337 0.00262555)
(0.00255903 -0.0476402 0.00336802)
(0.00265223 -0.0421067 0.00444779)
(0.00171498 -0.037762 0.00461594)
(0.00122171 -0.032557 0.00402875)
(0.00144388 -0.0262419 0.00320857)
(0.00175275 -0.019584 0.00291394)
(0.00157334 -0.0124358 0.0021205)
(0.000878525 -0.00566706 0.00108179)
(-0.000179268 0.003015 0.000410615)
(0.000386559 0.0109966 0.00117979)
(0.00163931 0.0172409 0.00248396)
(0.00215417 0.0206744 0.00409964)
(0.00240295 0.0215357 0.00683413)
(0.00390612 0.0189897 0.0100778)
(0.00688371 0.00932867 0.0147481)
(0.0191333 0.0207419 0.00301372)
(0.0203394 0.00685914 0.00247326)
(0.0104336 0.00339925 -0.000542347)
(0.0100021 0.00213546 0.000183688)
(0.00580046 -0.000811994 0.00102741)
(0.0058021 4.68826e-05 0.00155017)
(0.0044638 -0.000912542 0.00211043)
(0.00425321 0.00045294 0.00215278)
(0.00355539 0.000693823 0.00213226)
(0.0032156 0.00221597 0.00218983)
(0.00307441 0.00298713 0.00234801)
(0.00343286 0.00362333 0.00281715)
(0.00380612 0.00343782 0.00305196)
(0.00419921 0.00304303 0.0032397)
(0.00433814 0.00228632 0.00322434)
(0.00448035 0.00162462 0.00319187)
(0.00451377 0.000926894 0.00310266)
(0.00456756 0.000421006 0.00303642)
(0.00459497 -1.80237e-05 0.00295709)
(0.00461212 -0.000297799 0.00290733)
(0.00461051 -0.000492555 0.00286753)
(0.00460189 -0.000577826 0.00284233)
(0.00457414 -0.000613629 0.00284804)
(0.00452954 -0.000603713 0.00288318)
(0.00446933 -0.000574087 0.00294033)
(0.00439894 -0.000531521 0.00301379)
(0.00432639 -0.000488566 0.0030896)
(0.00425712 -0.000455664 0.00315999)
(0.00418845 -0.000434841 0.00322998)
(0.00411828 -0.000437248 0.00329435)
(0.00404891 -0.000437294 0.00335702)
(0.00397069 -0.000492709 0.00342253)
(0.00389995 -0.000506742 0.0034935)
(0.00382107 -0.000660002 0.0035705)
(0.00377676 -0.000700084 0.00365894)
(0.00373415 -0.00103915 0.00375139)
(0.00375184 -0.00113276 0.00384469)
(0.00375196 -0.00172634 0.00391342)
(0.00379976 -0.00179376 0.00394232)
(0.00378278 -0.00252408 0.00388914)
(0.00373966 -0.00224486 0.00371406)
(0.00364094 -0.00268977 0.00328257)
(0.00367887 -0.00152609 0.00261487)
(0.00402488 -0.00155266 0.00200887)
(0.00494132 6.17348e-05 0.00147729)
(0.00589999 -6.35458e-08 0.00085769)
(0.00557228 0.00269494 -0.000341349)
(0.00461233 0.00443816 -0.00186034)
(0.00675937 0.00930743 -0.00329312)
(0.0170537 0.00572359 -0.00399104)
(0.0370726 -0.000714615 -0.00502324)
(0.0499809 -0.0183301 -0.00461624)
(0.05833 -0.0230934 -0.00248908)
(0.0549839 -0.0513573 -0.000466285)
(0.0438013 -0.0397854 0.00431616)
(0.0428106 -0.0974266 0.0120416)
(0.00366272 -0.0467895 0.0117394)
(0.00114826 -0.162053 0.0423845)
(-0.09174 0.026953 -0.0748795)
(0.00446312 -0.0840667 0.0134356)
(0.174319 -0.262207 0.102691)
(0.0882435 0.00487692 0.043045)
(0.0269155 -0.112509 0.0092198)
(0.0264758 -0.0529854 0.0155155)
(0.0129819 -0.0698081 0.0172018)
(0.00519329 -0.0571553 0.0152745)
(0.00197678 -0.0581005 0.0123486)
(0.0019506 -0.051219 0.0114819)
(0.00314331 -0.0490267 0.0109919)
(0.00275423 -0.0431819 0.00979924)
(0.00126962 -0.0429009 0.0105247)
(-0.000836909 -0.0420206 0.0114338)
(-0.00239015 -0.0440604 0.011881)
(-0.00482268 -0.0452033 0.0111692)
(-0.00779292 -0.0465466 0.00996239)
(-0.00880104 -0.0447099 0.00881213)
(-0.00855389 -0.0430441 0.00740548)
(-0.00926142 -0.0405222 0.00664272)
(-0.00942052 -0.0372189 0.00630347)
(-0.0077344 -0.0342427 0.00663171)
(-0.00560274 -0.0304727 0.00676672)
(-0.00387397 -0.0268004 0.00756462)
(-0.00298294 -0.0258024 0.00889635)
(-0.0032978 -0.0262397 0.00905598)
(-0.00390797 -0.0259815 0.00789624)
(-0.0035718 -0.0247588 0.00679639)
(-0.00314017 -0.0213072 0.00530992)
(-0.00329988 -0.0162285 0.00377713)
(-0.00364864 -0.010809 0.00242225)
(-0.00394781 -0.00442901 0.00156185)
(-0.0029587 0.00148348 0.00262045)
(-0.00108439 0.00624929 0.00408861)
(-0.000690736 0.011182 0.00634511)
(-0.000630784 0.0120013 0.0102064)
(0.000119552 0.0114911 0.0143099)
(0.003188 0.00386269 0.0195474)
(0.022442 0.0207268 0.00413039)
(0.0243782 0.0115735 0.00402667)
(0.0144885 0.00696862 0.00127315)
(0.0134829 0.00638135 0.00218769)
(0.00707399 0.00187572 0.00289396)
(0.00620483 0.00231076 0.00313447)
(0.0035638 0.000333957 0.00369351)
(0.00316356 0.00157446 0.00358716)
(0.00225148 0.0015792 0.00351147)
(0.00218316 0.00278753 0.00359241)
(0.00211057 0.00298761 0.00366014)
(0.00277148 0.00348095 0.00395356)
(0.00321651 0.00322871 0.00413056)
(0.00372179 0.00307768 0.00428376)
(0.00390957 0.00252906 0.00426946)
(0.00410004 0.00207107 0.0042574)
(0.00411417 0.0014875 0.00420871)
(0.00415545 0.0010519 0.00418764)
(0.00413264 0.000627343 0.00416904)
(0.00410702 0.000328345 0.0041757)
(0.00404703 7.56863e-05 0.00419332)
(0.0039763 -8.62597e-05 0.00422831)
(0.00389635 -0.000198574 0.00426935)
(0.00381137 -0.000257568 0.0043166)
(0.00371982 -0.000287583 0.00436682)
(0.00362624 -0.000296448 0.0044186)
(0.00353164 -0.000297395 0.00447176)
(0.00343665 -0.00029712 0.00452765)
(0.00334248 -0.000298643 0.00458559)
(0.00324382 -0.000317315 0.00464524)
(0.00314527 -0.000333982 0.00470627)
(0.0030401 -0.000403266 0.0047686)
(0.00294778 -0.000435876 0.00483279)
(0.00284643 -0.000591569 0.00489634)
(0.00279235 -0.000616707 0.00496028)
(0.00273899 -0.00087745 0.0050167)
(0.00276724 -0.000828812 0.00506572)
(0.00277555 -0.0011787 0.00508947)
(0.00285915 -0.00094096 0.0050834)
(0.00286815 -0.00131136 0.00501994)
(0.00290297 -0.000722029 0.00488041)
(0.00279885 -0.0010683 0.00465574)
(0.00283256 -7.72474e-05 0.00438462)
(0.00317096 -0.000569958 0.00410092)
(0.00393958 0.000775462 0.00362838)
(0.00471741 0.000663316 0.00314232)
(0.00466783 0.00332566 0.00217859)
(0.00534771 0.0029073 0.0007713)
(0.0111479 0.00568593 -0.000406046)
(0.0274171 -0.00186576 -2.97296e-05)
(0.0515556 -0.00555462 -0.00100277)
(0.0678866 -0.0151388 0.000312678)
(0.074062 -0.0107182 0.00399049)
(0.0713404 -0.0289346 0.00677453)
(0.0635704 -0.0137906 0.0161683)
(0.0599789 -0.0792131 0.0247074)
(0.0061129 -0.0164097 0.0346752)
(0.0181003 -0.183567 0.0632774)
(-0.108799 0.0718975 -0.0609421)
(0.0278978 -0.114483 -0.0176364)
(0.198847 -0.23913 0.106692)
(0.108258 0.053649 0.0476497)
(0.0732705 -0.0860708 0.0231365)
(0.0461815 -0.00140682 0.0153691)
(0.0294595 -0.0305211 0.01317)
(0.0190316 -0.0118907 0.0134462)
(0.0164652 -0.0161516 0.0136743)
(0.0124102 -0.00883901 0.011541)
(0.0116474 -0.00460525 0.010332)
(0.0121883 0.00126486 0.010756)
(0.0113775 0.00107076 0.0125719)
(0.00861948 0.00091396 0.013867)
(0.006389 -0.00283145 0.0141841)
(0.00349461 -0.00450753 0.0134058)
(0.000204311 -0.0074382 0.0114214)
(-0.00170366 -0.00828026 0.00943168)
(-0.00271442 -0.00801569 0.00876261)
(-0.00422288 -0.00746181 0.00888198)
(-0.00583656 -0.00809649 0.00975221)
(-0.00586344 -0.00882942 0.010221)
(-0.00479565 -0.00900193 0.0104578)
(-0.00342259 -0.00940086 0.0114809)
(-0.00280036 -0.0116682 0.013241)
(-0.00457077 -0.0144852 0.013098)
(-0.0059736 -0.0169034 0.0121826)
(-0.00658054 -0.0179666 0.010421)
(-0.00668642 -0.0166458 0.00779024)
(-0.00671322 -0.0143871 0.0048526)
(-0.00634233 -0.0111107 0.00168385)
(-0.00578786 -0.00507831 -0.000130009)
(-0.00489536 -0.000248132 0.00251199)
(-0.00393133 0.00358767 0.00575386)
(-0.00317614 0.00651046 0.0090379)
(-0.00282886 0.00623617 0.0126268)
(-0.00370895 0.00653042 0.0166806)
(-0.00326238 0.000772403 0.0212713)
(0.023636 0.0208038 0.00437638)
(0.0270585 0.0148226 0.00453302)
(0.0164478 0.00867317 0.00101907)
(0.0163331 0.00946929 0.00145234)
(0.00884668 0.0037402 0.00207257)
(0.00752459 0.00438571 0.00254362)
(0.0032304 0.000887677 0.00346591)
(0.00227985 0.0018072 0.00344855)
(0.00095002 0.00109836 0.0035539)
(0.00112344 0.00231947 0.00370104)
(0.0010677 0.0021826 0.00385785)
(0.00170571 0.00278749 0.00426062)
(0.00207412 0.00274007 0.00445938)
(0.00260125 0.00288304 0.00461765)
(0.00281764 0.00252312 0.00458796)
(0.00302946 0.00224063 0.00458922)
(0.0030329 0.00174289 0.00455933)
(0.00305961 0.00137609 0.00456538)
(0.0030084 0.000977734 0.00456209)
(0.00296139 0.000684679 0.00457501)
(0.00287388 0.000412802 0.00459009)
(0.00277862 0.000215529 0.00461697)
(0.00266899 5.5028e-05 0.00464898)
(0.00255672 -5.28235e-05 0.00468747)
(0.00244415 -0.000124622 0.00472962)
(0.00233556 -0.000164997 0.00477511)
(0.00223308 -0.000187022 0.00482181)
(0.00213727 -0.000200369 0.00486939)
(0.0020471 -0.000211712 0.00491844)
(0.00195894 -0.000234916 0.00496917)
(0.00187674 -0.000254679 0.00502168)
(0.0017937 -0.000314729 0.0050743)
(0.00172867 -0.000333326 0.00512429)
(0.00165819 -0.000450591 0.00516625)
(0.00163565 -0.000427188 0.00519608)
(0.00159904 -0.000600062 0.00520584)
(0.00164013 -0.000441111 0.00519385)
(0.00163176 -0.000629471 0.00515034)
(0.00170221 -0.000208037 0.00507901)
(0.00168008 -0.000370038 0.00497156)
(0.00174556 0.000413704 0.0048229)
(0.00175155 0.000151278 0.00463068)
(0.00197918 0.000972194 0.00442422)
(0.00227836 8.22195e-05 0.00421225)
(0.00284472 0.000869768 0.0039491)
(0.003363 3.01308e-05 0.00384349)
(0.00393898 0.00183928 0.00351756)
(0.00594105 -0.000840112 0.00233705)
(0.0146815 -0.000178238 0.00143674)
(0.0318258 -0.00805879 0.00188678)
(0.0556009 -0.0060565 0.00158584)
(0.0710824 -0.00358272 0.00500713)
(0.0779848 0.0107635 0.00965794)
(0.0757056 0.00454223 0.0132036)
(0.0680528 0.0273195 0.0258884)
(0.0619086 -0.0314502 0.0411369)
(0.0175038 0.0549418 0.0759323)
(0.034653 -0.193055 0.101425)
(-0.143126 0.195097 -0.0415401)
(0.0297134 -0.206801 0.00880193)
(0.183195 -0.203088 0.115276)
(0.0799106 0.0818076 0.0351374)
(0.0510733 -0.0424901 0.0230136)
(0.0154469 0.0458031 0.0040435)
(0.00988227 0.0246025 0.00746787)
(0.00028639 0.0448461 0.00841911)
(-0.000393432 0.0427249 0.010224)
(-0.000978636 0.0497875 0.0102374)
(0.00145935 0.0490628 0.00925481)
(0.00273779 0.0524992 0.0084888)
(0.00328955 0.050843 0.00927265)
(0.00303503 0.048914 0.00960888)
(0.00122821 0.0445539 0.00961493)
(-0.00155284 0.0414701 0.00930907)
(-0.0039355 0.036792 0.00827516)
(-0.00560327 0.0339478 0.00847387)
(-0.00732182 0.0297814 0.00869739)
(-0.00856052 0.0271428 0.00869187)
(-0.00962427 0.0232054 0.0102675)
(-0.00976474 0.0206814 0.0117295)
(-0.00968303 0.0173658 0.0133783)
(-0.00957173 0.0147354 0.0140387)
(-0.00981948 0.01206 0.0148966)
(-0.0108259 0.00848331 0.0138666)
(-0.0126371 0.00569057 0.0127976)
(-0.0136683 0.00321061 0.0112092)
(-0.0129356 0.00185742 0.00689661)
(-0.0112331 0.00246313 0.00369823)
(-0.0107311 0.00252134 0.00084617)
(-0.00915341 0.00601387 -0.000709559)
(-0.00754563 0.00848453 0.003222)
(-0.00663667 0.00859287 0.00677253)
(-0.00637651 0.00806862 0.0100623)
(-0.00766132 0.00522318 0.0140762)
(-0.0115336 0.00478152 0.0173122)
(-0.0131905 -0.000632971 0.021688)
(0.0236555 0.0209654 0.00452633)
(0.0289199 0.0178554 0.00517085)
(0.0180545 0.00989738 0.000880784)
(0.0192861 0.0117116 0.000995631)
(0.0108999 0.00438229 0.000429233)
(0.00944007 0.00588562 0.00101092)
(0.00381316 0.00118681 0.00214316)
(0.00217587 0.00230977 0.00262636)
(-0.000196288 0.000268828 0.00301161)
(-0.000267876 0.00141654 0.00339558)
(-0.000587563 0.00101658 0.00364266)
(-0.000197582 0.00191113 0.0042051)
(1.49468e-07 0.00210928 0.0044168)
(0.000569962 0.00255704 0.00460581)
(0.000829561 0.00236282 0.00454825)
(0.00104217 0.00219126 0.00456725)
(0.000990095 0.00175058 0.00454857)
(0.000925156 0.00144985 0.00457623)
(0.000787334 0.00109763 0.00457506)
(0.000676649 0.000838561 0.00457728)
(0.000543184 0.000572177 0.00456673)
(0.000420522 0.000360163 0.00456362)
(0.000297039 0.000173131 0.00456448)
(0.000176954 3.5429e-05 0.00457312)
(5.81187e-05 -6.72189e-05 0.00458664)
(-4.98772e-05 -0.000135658 0.0046061)
(-0.000145637 -0.000181634 0.00462965)
(-0.000228193 -0.000214162 0.00465576)
(-0.000301297 -0.000238639 0.00468178)
(-0.000371506 -0.000264126 0.0047077)
(-0.000437913 -0.000279262 0.00473332)
(-0.00050617 -0.000319656 0.00475648)
(-0.000559412 -0.000311529 0.00477479)
(-0.000619712 -0.000373474 0.0047805)
(-0.00063075 -0.000284548 0.00476862)
(-0.000657442 -0.000353534 0.00472737)
(-0.000604838 -8.45412e-05 0.00465667)
(-0.000610977 -0.000116161 0.00454781)
(-0.00053319 0.000466259 0.00441697)
(-0.000561655 0.000479771 0.00427598)
(-0.000410493 0.00135558 0.00415799)
(-0.000220902 0.00105518 0.00404535)
(0.000335299 0.00165628 0.00388298)
(0.00089538 0.000397058 0.00365232)
(0.00155567 0.000719607 0.00354465)
(0.00196738 -0.0007638 0.00359811)
(0.00316947 -0.000158985 0.00406896)
(0.00672946 -0.00443013 0.00358003)
(0.0169451 -0.00602965 0.00347321)
(0.032562 -0.00999204 0.00534237)
(0.05043 3.7696e-05 0.00722003)
(0.0639393 0.0134138 0.0130382)
(0.0699995 0.0400826 0.0170972)
(0.0691157 0.0464362 0.0210227)
(0.0629718 0.0759282 0.0373987)
(0.0538377 0.0337362 0.053316)
(0.0258098 0.126061 0.0893827)
(0.0370452 -0.122655 0.105791)
(-0.114674 0.302788 -0.0121275)
(0.0179749 -0.267507 0.017427)
(0.160155 -0.16665 0.118585)
(0.0613219 0.0952423 0.0291003)
(0.0513227 -0.000663507 0.0258287)
(0.0164156 0.0786391 0.00287236)
(0.0149484 0.0670691 0.00821707)
(0.00552256 0.0847787 0.00908425)
(0.00473522 0.0835027 0.0103866)
(0.00216539 0.0899042 0.00927034)
(0.00290482 0.0900952 0.00857688)
(0.00357588 0.0936975 0.00900171)
(0.00516596 0.0920658 0.0105179)
(0.00519245 0.0917574 0.0108306)
(0.00534818 0.0894841 0.0107964)
(0.00472273 0.0864239 0.0106723)
(0.00407968 0.0818986 0.0112579)
(0.0022668 0.0771277 0.011046)
(0.000572555 0.0726869 0.0106042)
(-0.00183953 0.0683937 0.0106067)
(-0.00423658 0.0640246 0.0121482)
(-0.00616216 0.0602111 0.0136767)
(-0.00788542 0.0560916 0.0150146)
(-0.0100033 0.0502968 0.0164502)
(-0.0111912 0.0438414 0.016903)
(-0.0119663 0.0371803 0.0151231)
(-0.0123722 0.0310604 0.0116655)
(-0.0112115 0.0267353 0.00709415)
(-0.00920281 0.0244443 0.00279491)
(-0.00740325 0.0236299 0.00100958)
(-0.00742697 0.0232721 6.95284e-05)
(-0.00619834 0.0227892 0.00324762)
(-0.00659564 0.0206667 0.00735232)
(-0.00643589 0.0171212 0.00973942)
(-0.00684142 0.0143934 0.0134869)
(-0.0102504 0.00809103 0.0166378)
(-0.0171831 0.00647706 0.0179953)
(-0.0235512 -0.000958284 0.0206124)
(0.0223223 0.0206324 0.00510393)
(0.0302662 0.0212333 0.00645172)
(0.0187678 0.0109365 0.00173102)
(0.0215038 0.0137714 0.00228858)
(0.0132175 0.00384618 -7.39684e-05)
(0.0114097 0.00636931 -3.9455e-05)
(0.00491945 0.000556788 0.000808327)
(0.00260473 0.00271722 0.00150338)
(-0.000336574 -0.000353892 0.00216127)
(-0.00123453 0.000681796 0.00277049)
(-0.00186261 -0.000283616 0.00306688)
(-0.00168244 0.000851865 0.0037971)
(-0.00141999 0.00130419 0.00410596)
(-0.000663498 0.00211516 0.00448496)
(-0.000196462 0.00199031 0.0045776)
(9.11577e-05 0.00189389 0.00472414)
(1.85717e-05 0.00147657 0.00474808)
(-0.000113993 0.00125877 0.00478482)
(-0.000308394 0.00100155 0.00475739)
(-0.000455037 0.000850376 0.00471944)
(-0.000611129 0.000672895 0.00465055)
(-0.000749166 0.000528779 0.00457863)
(-0.000890519 0.000382993 0.00450629)
(-0.00101878 0.000264701 0.0044437)
(-0.00112991 0.000169151 0.0043899)
(-0.00122009 0.000102761 0.00434502)
(-0.00128924 5.55696e-05 0.00430902)
(-0.00134226 2.13767e-05 0.00428151)
(-0.00138764 -4.89688e-06 0.00426158)
(-0.0014271 -2.80131e-05 0.00425087)
(-0.00146008 -3.39276e-05 0.00424838)
(-0.00149064 -4.68271e-05 0.00424827)
(-0.00150695 -1.16632e-06 0.00424608)
(-0.00152934 3.67708e-06 0.00422882)
(-0.00151437 0.000164612 0.00418945)
(-0.00152956 0.000198757 0.00411468)
(-0.00149851 0.000552116 0.00400237)
(-0.00156159 0.000614775 0.00384349)
(-0.001553 0.00121715 0.00366675)
(-0.00159662 0.00121111 0.00352035)
(-0.00136434 0.00194933 0.00346504)
(-0.000975263 0.00153065 0.00348175)
(-0.000152422 0.00200471 0.00345566)
(0.000586482 0.000654789 0.00343806)
(0.00129484 0.000877284 0.00365006)
(0.0016612 -0.00102491 0.0039762)
(0.00351244 -0.00189922 0.0044718)
(0.00883753 -0.00675256 0.00431006)
(0.0166 -0.00839182 0.00544386)
(0.0260294 -0.00928375 0.00984331)
(0.0366929 0.00636986 0.0144346)
(0.0431242 0.027871 0.0209457)
(0.051036 0.0615294 0.0276859)
(0.0530159 0.0764133 0.035778)
(0.0491824 0.105386 0.0524374)
(0.043029 0.0691474 0.0623044)
(0.0353481 0.145294 0.0838403)
(0.0480835 -0.0920156 0.0840075)
(-0.0371432 0.34449 0.0247549)
(0.0189917 -0.305646 0.0250871)
(0.103055 -0.12448 0.112782)
(0.0261455 0.112326 0.0174223)
(0.0223382 0.0476544 0.0188465)
(-0.00230622 0.114328 0.00256149)
(-0.00154941 0.113373 0.0106353)
(-0.0059586 0.127741 0.0121668)
(-0.0037067 0.126746 0.0135449)
(-0.00268184 0.132632 0.0133143)
(0.000584073 0.131525 0.013881)
(0.0031735 0.134067 0.0147006)
(0.00615658 0.132107 0.0149239)
(0.00761133 0.132148 0.0144922)
(0.00903501 0.129949 0.0141726)
(0.00903756 0.128907 0.0142988)
(0.00815285 0.125909 0.014728)
(0.00626675 0.122118 0.0148705)
(0.00414586 0.11717 0.0151067)
(0.00179424 0.111901 0.0155432)
(-0.0010613 0.105792 0.0164204)
(-0.00409346 0.0975167 0.0174473)
(-0.00701912 0.0886592 0.0177875)
(-0.00931513 0.0788075 0.0172364)
(-0.00980796 0.0693942 0.0148526)
(-0.00944854 0.0608463 0.0105812)
(-0.00897774 0.0549787 0.0058755)
(-0.00786327 0.0515313 0.00176569)
(-0.0063795 0.0497964 -0.00131844)
(-0.00597112 0.048829 -0.00158502)
(-0.00640342 0.0464343 0.00176512)
(-0.0075009 0.0414968 0.00721602)
(-0.00893742 0.0350153 0.00949834)
(-0.010071 0.0291695 0.0119865)
(-0.011553 0.023672 0.0160663)
(-0.0155214 0.0154408 0.0191625)
(-0.0227046 0.0109715 0.0199419)
(-0.028968 -7.07065e-05 0.0185253)
(0.0188508 0.01914 0.00526029)
(0.0303023 0.0249768 0.00850233)
(0.0176705 0.0113945 0.00364745)
(0.0215317 0.0159712 0.00499904)
(0.0139121 0.00285359 0.00153647)
(0.012032 0.00603219 0.000757144)
(0.00493611 -0.000843412 0.000937873)
(0.00257364 0.00265093 0.00113661)
(-0.000724057 -0.000700999 0.00163484)
(-0.00216114 0.000590779 0.00240578)
(-0.00353422 -0.000957718 0.00261615)
(-0.0042203 0.000216555 0.00339382)
(-0.00435515 0.000586705 0.00382046)
(-0.00336393 0.00150842 0.00458515)
(-0.00276029 0.00136915 0.00498299)
(-0.00248235 0.00140744 0.00531604)
(-0.00269542 0.0010783 0.00538102)
(-0.00302684 0.000993751 0.00538267)
(-0.00337856 0.00085687 0.00528525)
(-0.00361 0.00084251 0.00517622)
(-0.00379473 0.000793804 0.00503382)
(-0.00392024 0.000774446 0.0048946)
(-0.00402306 0.000730722 0.00475968)
(-0.00410829 0.000691155 0.00464568)
(-0.00418997 0.000653703 0.00455577)
(-0.00424292 0.000629059 0.00448239)
(-0.00426851 0.000606568 0.00442387)
(-0.00426852 0.000585468 0.00438687)
(-0.00425565 0.000564623 0.00436996)
(-0.0042435 0.000546211 0.0043706)
(-0.00423799 0.000550602 0.00438517)
(-0.0042379 0.000565726 0.00440436)
(-0.00423755 0.000653424 0.00441962)
(-0.00424942 0.000726767 0.00441438)
(-0.00422634 0.000948283 0.00438623)
(-0.00422378 0.00104715 0.00432482)
(-0.00415631 0.00140827 0.00424027)
(-0.00414774 0.00142868 0.00412007)
(-0.00404748 0.00185085 0.00397787)
(-0.00401103 0.0015811 0.00382432)
(-0.0037238 0.00199085 0.00372027)
(-0.00329983 0.00137628 0.00363413)
(-0.00231198 0.00185023 0.00360074)
(-0.00142201 0.000736386 0.00380572)
(-0.000634869 0.000971569 0.00420705)
(0.000323663 -0.00112302 0.00456107)
(0.00351144 -0.00270519 0.00486064)
(0.00859306 -0.00640774 0.00502527)
(0.0139033 -0.00597352 0.00639586)
(0.0157277 -0.00189775 0.0118147)
(0.0141395 0.0187501 0.0192236)
(0.0171273 0.0418195 0.0264602)
(0.0228371 0.0785931 0.0345143)
(0.0283029 0.0999396 0.0433627)
(0.0352134 0.126416 0.0556446)
(0.0418037 0.0917069 0.060601)
(0.0530354 0.159621 0.0712661)
(0.0494729 -0.0657498 0.0615117)
(0.00831989 0.346851 0.0575448)
(0.0081224 -0.324396 0.0312233)
(0.0420377 -0.0836725 0.0977624)
(-0.000696146 0.126746 0.0179928)
(0.00021554 0.0906232 0.0154485)
(-0.0128599 0.148786 0.00409922)
(-0.00831646 0.147175 0.0133946)
(-0.00804931 0.158667 0.0139924)
(-0.00513772 0.156528 0.0147744)
(-0.0038323 0.162121 0.0147823)
(-0.0013201 0.162625 0.0158572)
(0.00158132 0.166011 0.0164196)
(0.00553678 0.165298 0.0164807)
(0.00766507 0.168278 0.0159758)
(0.0100509 0.168305 0.0166166)
(0.0103853 0.168131 0.0171393)
(0.010425 0.165017 0.0179976)
(0.00909918 0.16061 0.0180055)
(0.00756657 0.154448 0.0179832)
(0.00532279 0.146852 0.0179747)
(0.0031356 0.138618 0.017891)
(0.000703156 0.129202 0.0182557)
(-0.00111626 0.118895 0.0179442)
(-0.00215846 0.108601 0.0159066)
(-0.00157664 0.0997776 0.0124042)
(-0.000843202 0.0931102 0.00791794)
(2.31789e-05 0.0889368 0.0036168)
(0.000632407 0.0850216 -0.00106469)
(0.000190124 0.0821489 -0.00315647)
(-0.000376714 0.078216 -0.00143596)
(-0.000689018 0.0712775 0.000877195)
(-0.001773 0.0630361 0.00391779)
(-0.00439449 0.0522284 0.00569625)
(-0.0081759 0.0425666 0.00777007)
(-0.0122864 0.0328934 0.0108247)
(-0.0181058 0.0220268 0.0132302)
(-0.0258264 0.014363 0.0155061)
(-0.0370605 -0.000115732 0.0120712)
(0.0158551 0.0139486 0.00431265)
(0.02917 0.0280714 0.0093642)
(0.0151415 0.0114495 0.00438192)
(0.0203617 0.0189681 0.0059914)
(0.0136017 0.00306703 0.0026328)
(0.0113125 0.00617922 0.00161167)
(0.00333318 -0.00204366 0.00171543)
(0.000997677 0.00242267 0.00139997)
(-0.00142557 -0.00125267 0.0021093)
(-0.00296796 0.000875642 0.00277243)
(-0.00428419 -0.00103068 0.00305413)
(-0.0050712 -2.4675e-05 0.00391162)
(-0.00504186 -0.000541636 0.00460518)
(-0.00388708 0.000109162 0.00563)
(-0.00324952 -0.000110287 0.00635444)
(-0.00299506 0.000313334 0.00695367)
(-0.00319266 0.000368736 0.00722285)
(-0.00347187 0.000679939 0.00731454)
(-0.00377003 0.0007957 0.00724622)
(-0.00395317 0.000995205 0.00712903)
(-0.00410479 0.00109767 0.00696077)
(-0.00419884 0.00119241 0.00679167)
(-0.00426987 0.00122747 0.00662999)
(-0.00431707 0.00124584 0.00649154)
(-0.00435092 0.00123847 0.00637455)
(-0.00435835 0.00122224 0.00628299)
(-0.00433895 0.00120245 0.00621637)
(-0.00429662 0.00118085 0.00617283)
(-0.00424591 0.00115762 0.00614891)
(-0.0042015 0.00114147 0.00614242)
(-0.00417264 0.0011564 0.00614625)
(-0.00415898 0.00119812 0.00614846)
(-0.0041572 0.00131995 0.00614047)
(-0.00416329 0.00144015 0.00611431)
(-0.00413096 0.00168363 0.00606943)
(-0.00411626 0.00179085 0.00599929)
(-0.0040268 0.00208653 0.00591578)
(-0.00397638 0.00201361 0.00580666)
(-0.00378928 0.00227172 0.00568865)
(-0.0036657 0.001872 0.0055579)
(-0.00337545 0.0021083 0.0054516)
(-0.00303356 0.00136107 0.00535725)
(-0.00216236 0.00174034 0.00535942)
(-0.00127004 0.000627887 0.00558688)
(-0.000506674 0.000962703 0.00590562)
(0.000750322 -0.00154148 0.00586023)
(0.00361296 -0.00169945 0.00528661)
(0.00632102 -0.00196868 0.00550879)
(0.00697471 0.00239967 0.00762655)
(0.000880822 0.0116946 0.0163117)
(-0.00727187 0.0306747 0.0256769)
(-0.0118322 0.0521987 0.0308479)
(-0.00890574 0.0847092 0.0344333)
(0.0056585 0.109734 0.039484)
(0.0238953 0.140454 0.0503332)
(0.0506003 0.12608 0.0568654)
(0.0755139 0.183017 0.0707281)
(0.0848764 -0.00744213 0.0643566)
(0.0946387 0.388004 0.0410848)
(-0.00373294 -0.347563 0.0312256)
(-0.0434934 -0.0502334 0.0665103)
(-0.0361195 0.158946 -0.00593551)
(-0.0337276 0.129725 0.00364669)
(-0.0257225 0.178464 -0.00116195)
(-0.0191746 0.172248 0.00850047)
(-0.0119719 0.17756 0.00824667)
(-0.00844443 0.17469 0.00875297)
(-0.00447803 0.177559 0.00847644)
(-0.00073586 0.177933 0.00943663)
(0.00389358 0.17902 0.0106775)
(0.00705717 0.178896 0.0111533)
(0.00893155 0.180783 0.0115605)
(0.0112925 0.181725 0.0127738)
(0.0137392 0.183472 0.0144886)
(0.0155737 0.182634 0.0162279)
(0.0163236 0.179415 0.0177827)
(0.0165515 0.174463 0.0189437)
(0.0160515 0.167788 0.0196938)
(0.0148411 0.160099 0.0199549)
(0.0134597 0.151672 0.0197158)
(0.0119264 0.143627 0.0189791)
(0.0110357 0.135216 0.0175126)
(0.0102758 0.128513 0.0148597)
(0.00943944 0.124215 0.0107053)
(0.00833725 0.121918 0.00737488)
(0.00659094 0.120608 0.00551442)
(0.00596165 0.11856 0.00535793)
(0.00611379 0.115384 0.00541827)
(0.00672535 0.111354 0.00606873)
(0.00653364 0.106046 0.00818049)
(0.00444201 0.0969954 0.01072)
(0.000357819 0.0862994 0.0135926)
(-0.00383317 0.0730267 0.0161129)
(-0.0104105 0.0554842 0.0164519)
(-0.0195853 0.0349018 0.0113606)
(-0.0285607 0.00738087 -0.0042356)
(0.00646574 0.00891993 -0.0024035)
(0.0266311 0.0298103 0.00757881)
(0.0111204 0.0118716 0.00208401)
(0.0183119 0.0229216 0.00372697)
(0.0128349 0.00527301 0.00139691)
(0.0104937 0.00773086 0.000274413)
(0.00134429 -0.00233775 -0.00164529)
(-0.000628977 0.00285351 -0.00193902)
(-0.00371938 -0.00110163 -0.00113775)
(-0.00503646 0.00143093 -0.000481437)
(-0.00643291 -0.000902305 -9.97421e-05)
(-0.00721234 -0.000155053 0.000750954)
(-0.00767549 -0.0014078 0.00147669)
(-0.007115 -0.000855238 0.00235201)
(-0.00708191 -0.000983548 0.00308358)
(-0.00715017 -0.000269855 0.00370058)
(-0.00755957 -5.23456e-06 0.0041585)
(-0.00789848 0.000513955 0.00444083)
(-0.00824314 0.000754804 0.00455143)
(-0.00843084 0.00105802 0.00456614)
(-0.00852411 0.00123066 0.00450451)
(-0.00852528 0.00138529 0.00442323)
(-0.00850149 0.00146892 0.00433983)
(-0.00845942 0.001522 0.00426817)
(-0.00840743 0.00153963 0.00420608)
(-0.00833913 0.00153926 0.00415592)
(-0.00825442 0.00153029 0.00411782)
(-0.00815657 0.00152167 0.00409174)
(-0.00805896 0.00151745 0.00407569)
(-0.00799127 0.0015236 0.00406762)
(-0.00796221 0.00155625 0.00406354)
(-0.00795297 0.00161434 0.00405522)
(-0.00795588 0.00173644 0.00403724)
(-0.0079523 0.00184741 0.00400474)
(-0.00788484 0.00205823 0.00395601)
(-0.00779738 0.00214177 0.00389515)
(-0.0076114 0.00240499 0.00382135)
(-0.00746382 0.00234593 0.00373189)
(-0.00725491 0.00259596 0.00361288)
(-0.00715322 0.00219859 0.00347292)
(-0.00683293 0.00236178 0.00331498)
(-0.00645247 0.0014957 0.00317358)
(-0.00557687 0.00163053 0.0030824)
(-0.00471738 0.000303671 0.00322496)
(-0.00375316 0.000456911 0.00333206)
(-0.0027604 -0.00218463 0.00269449)
(-0.00105767 1.09932e-05 0.00228471)
(-0.000144449 0.000236029 0.00254079)
(-0.00355651 0.00730774 0.00528724)
(-0.014174 0.0139067 0.0143367)
(-0.0290133 0.0254993 0.025605)
(-0.0342879 0.0353469 0.0309262)
(-0.0329661 0.0582929 0.0304763)
(-0.0196438 0.0683763 0.0266196)
(-0.000799395 0.112796 0.034061)
(0.0350239 0.0791886 0.0396745)
(0.0715539 0.179877 0.0597343)
(0.0973954 -0.0315847 0.0660218)
(0.181194 0.411537 0.0341795)
(-0.00845436 -0.329189 0.0258948)
(-0.114503 -0.0904524 0.0468018)
(-0.0583114 0.149289 -0.0101118)
(-0.0557831 0.0854803 0.00313448)
(-0.0274078 0.137433 0.00178032)
(-0.0244161 0.110348 0.0116483)
(-0.0104163 0.111983 0.00922019)
(-0.00824699 0.099906 0.00748796)
(-0.00467109 0.0981886 0.00554264)