/*--------------------------------*- C++ -*----------------------------------*\
| =========                 |                                                 |
| \\      /  F ield         | OpenFOAM: The Open Source CFD Toolbox           |
|  \\    /   O peration     | Version:  2.3.0                                 |
|   \\  /    A nd           | Web:      www.OpenFOAM.org                      |
|    \\/     M anipulation  |                                                 |
\*---------------------------------------------------------------------------*/
FoamFile
{
    version     2.0;
    format      ascii;
    class       volScalarField;
    location    "20";
    object      alpha.airMean;
}
// * * * * * * * * * * * * * * * * * * * * * * * * * * * * * * * * * * * * * //

dimensions      [0 0 0 0 0 0 0];

internalField   nonuniform List<scalar> 
6144
(
0.999991
0.999991
0.999991
0.999991
0.999991
0.99999
0.99999
0.99999
0.99999
0.99999
0.99999
0.99999
0.99999
0.99999
0.99999
0.99999
0.99999
0.99999
0.99999
0.99999
0.99999
0.99999
0.99999
0.99999
0.99999
0.99999
0.99999
0.99999
0.99999
0.99999
0.99999
0.99999
0.99999
0.99999
0.99999
0.99999
0.99999
0.99999
0.99999
0.99999
0.99999
0.99999
0.99999
0.99999
0.99999
0.99999
0.999989
0.999985
0.999977
0.99997
0.999964
0.999958
0.999954
0.999948
0.999943
0.999933
0.999928
0.999919
0.998745
0.9346
0.0333328
0.000200372
1.2142e-06
1.04012e-06
1.03378e-06
1.01701e-06
1.01497e-06
1.00206e-06
1.00166e-06
9.92932e-07
9.90543e-07
9.8335e-07
9.76804e-07
9.69194e-07
9.62848e-07
9.53394e-07
9.46204e-07
9.40492e-07
9.32468e-07
9.19934e-07
9.03995e-07
8.88684e-07
8.76804e-07
8.64797e-07
8.50874e-07
8.3656e-07
8.22132e-07
8.03429e-07
7.73877e-07
7.27074e-07
6.7109e-07
6.23621e-07
5.67358e-07
5.20429e-07
4.85013e-07
4.66243e-07
0.999992
0.999991
0.999991
0.999991
0.999991
0.99999
0.99999
0.99999
0.99999
0.99999
0.99999
0.99999
0.99999
0.99999
0.99999
0.99999
0.99999
0.99999
0.99999
0.99999
0.99999
0.99999
0.99999
0.99999
0.99999
0.99999
0.99999
0.99999
0.99999
0.99999
0.99999
0.99999
0.99999
0.99999
0.99999
0.99999
0.99999
0.99999
0.99999
0.99999
0.99999
0.99999
0.99999
0.99999
0.99999
0.99999
0.999988
0.999984
0.999979
0.999973
0.999967
0.999959
0.999952
0.999942
0.999933
0.999922
0.999918
0.999907
0.999413
0.947888
0.028347
0.000112391
1.09383e-06
1.08232e-06
1.06267e-06
1.04877e-06
1.04673e-06
1.04086e-06
1.04144e-06
1.02471e-06
1.01909e-06
1.0038e-06
9.95232e-07
9.86596e-07
9.78266e-07
9.64879e-07
9.56619e-07
9.4984e-07
9.39385e-07
9.23423e-07
9.03961e-07
8.86287e-07
8.69013e-07
8.51033e-07
8.32578e-07
8.15845e-07
8.02385e-07
7.90014e-07
7.73314e-07
7.43479e-07
6.98185e-07
6.38451e-07
5.75782e-07
5.31718e-07
5.00943e-07
4.74016e-07
0.999992
0.999992
0.999991
0.999991
0.999991
0.999991
0.99999
0.99999
0.99999
0.99999
0.99999
0.99999
0.99999
0.99999
0.99999
0.99999
0.99999
0.99999
0.99999
0.99999
0.99999
0.99999
0.99999
0.99999
0.99999
0.99999
0.99999
0.99999
0.99999
0.99999
0.99999
0.99999
0.99999
0.99999
0.99999
0.99999
0.99999
0.99999
0.99999
0.99999
0.99999
0.99999
0.99999
0.99999
0.99999
0.99999
0.999988
0.999985
0.99998
0.999974
0.999965
0.999954
0.999943
0.999929
0.99992
0.999909
0.999908
0.9999
0.999601
0.936506
0.024749
7.33434e-05
2.59159e-06
2.61267e-06
2.5663e-06
2.46321e-06
2.13384e-06
1.77392e-06
1.43447e-06
1.19275e-06
1.08455e-06
1.03516e-06
1.0187e-06
1.00559e-06
9.97344e-07
9.79141e-07
9.68788e-07
9.57142e-07
9.43252e-07
9.26931e-07
9.0981e-07
8.90849e-07
8.73158e-07
8.51598e-07
8.32645e-07
8.1792e-07
8.07075e-07
7.97966e-07
7.83621e-07
7.58594e-07
7.18537e-07
6.62314e-07
5.9244e-07
5.40373e-07
5.15895e-07
4.78417e-07
0.999992
0.999992
0.999992
0.999991
0.999991
0.999991
0.99999
0.99999
0.99999
0.99999
0.99999
0.99999
0.99999
0.99999
0.99999
0.99999
0.99999
0.99999
0.99999
0.99999
0.99999
0.99999
0.99999
0.99999
0.99999
0.99999
0.99999
0.99999
0.99999
0.99999
0.99999
0.99999
0.99999
0.99999
0.99999
0.99999
0.99999
0.99999
0.99999
0.99999
0.99999
0.99999
0.99999
0.99999
0.99999
0.999989
0.999988
0.999985
0.99998
0.999972
0.99996
0.999946
0.999932
0.999917
0.999909
0.999899
0.999901
0.999892
0.999687
0.913051
0.0233379
9.34077e-05
4.80111e-05
4.60212e-05
4.55052e-05
4.3565e-05
3.88507e-05
3.1487e-05
2.28755e-05
1.47989e-05
8.70746e-06
4.79954e-06
2.76104e-06
1.87554e-06
1.53227e-06
1.33809e-06
1.18727e-06
1.06643e-06
9.84394e-07
9.42965e-07
9.32195e-07
9.18392e-07
9.03262e-07
8.77211e-07
8.64399e-07
8.66845e-07
8.69663e-07
8.61471e-07
8.40888e-07
8.01063e-07
7.50271e-07
6.86742e-07
6.14438e-07
5.60658e-07
5.3459e-07
4.84408e-07
0.999992
0.999992
0.999992
0.999992
0.999991
0.999991
0.999991
0.99999
0.99999
0.99999
0.99999
0.99999
0.99999
0.99999
0.99999
0.99999
0.99999
0.99999
0.99999
0.99999
0.99999
0.99999
0.99999
0.99999
0.99999
0.99999
0.99999
0.99999
0.99999
0.99999
0.99999
0.99999
0.99999
0.99999
0.99999
0.99999
0.99999
0.99999
0.99999
0.99999
0.99999
0.99999
0.99999
0.99999
0.99999
0.999989
0.999988
0.999985
0.999979
0.999968
0.999953
0.999936
0.999922
0.999909
0.999901
0.999893
0.999895
0.999884
0.999722
0.885924
0.0260857
0.000617458
0.00058214
0.000542984
0.00053522
0.000503182
0.000453857
0.000391404
0.000327284
0.000263918
0.00020694
0.000159617
0.000122813
9.63554e-05
7.89886e-05
6.67316e-05
5.72062e-05
4.92463e-05
4.25104e-05
3.68725e-05
3.31364e-05
3.06055e-05
2.89769e-05
2.65434e-05
2.55764e-05
2.51681e-05
2.40302e-05
2.14618e-05
1.79359e-05
1.31752e-05
7.94994e-06
4.19504e-06
2.01511e-06
1.00382e-06
6.59183e-07
5.35477e-07
0.999992
0.999992
0.999992
0.999992
0.999992
0.999991
0.999991
0.999991
0.99999
0.99999
0.99999
0.99999
0.99999
0.99999
0.99999
0.99999
0.99999
0.99999
0.99999
0.99999
0.99999
0.99999
0.99999
0.99999
0.99999
0.99999
0.99999
0.99999
0.99999
0.99999
0.99999
0.99999
0.99999
0.99999
0.99999
0.99999
0.99999
0.99999
0.99999
0.99999
0.99999
0.99999
0.99999
0.99999
0.99999
0.999989
0.999988
0.999985
0.999977
0.999963
0.999944
0.999927
0.999916
0.999905
0.999899
0.999895
0.999899
0.999879
0.999783
0.850595
0.0233391
0.00272287
0.00283714
0.00274756
0.00274189
0.0025934
0.00242334
0.00224113
0.0020705
0.00191511
0.00176671
0.00162821
0.00149945
0.00138046
0.00127547
0.00118551
0.00110847
0.00103772
0.000964152
0.000883992
0.000790958
0.000695737
0.000607967
0.000538537
0.000504532
0.000500985
0.00050281
0.000493884
0.000456157
0.000388573
0.000301311
0.000211218
0.000130556
6.7796e-05
2.68987e-05
1.05544e-05
0.999992
0.999993
0.999992
0.999992
0.999992
0.999992
0.999991
0.999991
0.999991
0.99999
0.99999
0.99999
0.99999
0.99999
0.99999
0.99999
0.99999
0.99999
0.99999
0.99999
0.99999
0.99999
0.99999
0.99999
0.99999
0.99999
0.99999
0.99999
0.99999
0.99999
0.99999
0.99999
0.99999
0.99999
0.99999
0.99999
0.99999
0.99999
0.99999
0.99999
0.99999
0.99999
0.99999
0.99999
0.99999
0.999989
0.999988
0.999985
0.999974
0.999955
0.999936
0.999922
0.999913
0.999907
0.999905
0.999901
0.999905
0.999894
0.999819
0.824879
0.0261686
0.00621003
0.00656578
0.00648684
0.00641944
0.00623934
0.00606311
0.00592226
0.00580831
0.00567659
0.0055564
0.00540052
0.00526483
0.00511195
0.00496298
0.00479626
0.00463723
0.0044564
0.00425427
0.0039967
0.00370772
0.00337707
0.00302721
0.00269449
0.00242725
0.00222083
0.00210228
0.00203527
0.00195453
0.00187015
0.00176481
0.00160966
0.0013685
0.00104613
0.000673464
0.000363231
0.999993
0.999993
0.999992
0.999992
0.999992
0.999992
0.999991
0.999991
0.999991
0.99999
0.99999
0.99999
0.99999
0.99999
0.99999
0.99999
0.99999
0.99999
0.99999
0.99999
0.99999
0.99999
0.99999
0.99999
0.99999
0.99999
0.99999
0.99999
0.99999
0.99999
0.99999
0.99999
0.99999
0.99999
0.99999
0.99999
0.99999
0.99999
0.99999
0.99999
0.99999
0.99999
0.99999
0.99999
0.99999
0.999989
0.999988
0.999984
0.999967
0.999946
0.99993
0.99992
0.999915
0.999914
0.999914
0.999914
0.999914
0.999899
0.999782
0.805322
0.029932
0.00957825
0.0101688
0.0101392
0.0100426
0.00993293
0.00988925
0.00993704
0.0100022
0.0100531
0.010103
0.0101209
0.0101137
0.0100636
0.00999244
0.00989554
0.00978445
0.00968658
0.00958206
0.00950045
0.00945189
0.00943369
0.00941316
0.00939636
0.00943357
0.00952087
0.00964134
0.00981478
0.0100501
0.0103192
0.0105365
0.0106703
0.0105609
0.0101621
0.00908016
0.00744461
0.999993
0.999993
0.999992
0.999992
0.999992
0.999992
0.999991
0.999991
0.999991
0.999991
0.99999
0.99999
0.99999
0.99999
0.99999
0.99999
0.99999
0.99999
0.99999
0.99999
0.99999
0.99999
0.99999
0.99999
0.99999
0.99999
0.99999
0.99999
0.99999
0.99999
0.99999
0.99999
0.99999
0.99999
0.99999
0.99999
0.99999
0.99999
0.99999
0.99999
0.99999
0.99999
0.99999
0.99999
0.99999
0.999989
0.999986
0.99998
0.999966
0.999947
0.999932
0.999923
0.999918
0.999918
0.999918
0.999917
0.99992
0.999907
0.999796
0.862027
0.0273733
0.00523653
0.00511859
0.00458015
0.00431578
0.00413018
0.00404126
0.00397681
0.00395535
0.00395779
0.0039945
0.00402263
0.00404652
0.00405639
0.0040693
0.0040738
0.00407953
0.00407888
0.0040759
0.00405411
0.0040224
0.00397164
0.00391448
0.00384313
0.00377988
0.00374953
0.0037602
0.00381089
0.0038415
0.00380345
0.00367034
0.00340431
0.00297526
0.00232062
0.00144519
0.000719316
0.999994
0.999993
0.999992
0.999992
0.999992
0.999992
0.999991
0.999991
0.999991
0.99999
0.99999
0.99999
0.99999
0.99999
0.99999
0.99999
0.99999
0.99999
0.99999
0.99999
0.99999
0.99999
0.99999
0.99999
0.99999
0.99999
0.99999
0.99999
0.99999
0.99999
0.99999
0.99999
0.99999
0.99999
0.99999
0.99999
0.99999
0.99999
0.99999
0.99999
0.99999
0.99999
0.99999
0.99999
0.999989
0.999987
0.999985
0.99998
0.999969
0.999953
0.999938
0.999929
0.999922
0.99992
0.999919
0.999918
0.999922
0.999915
0.999869
0.916579
0.0236651
0.00119456
0.000990324
0.000720527
0.000622661
0.000547636
0.000517321
0.000496282
0.000494837
0.000498714
0.000510177
0.000519152
0.000528007
0.000535308
0.000544317
0.000553755
0.000562603
0.000569464
0.000582709
0.000602373
0.00063123
0.00067456
0.000735549
0.000809416
0.000889338
0.000968294
0.00103263
0.00106482
0.00106035
0.000995691
0.000866654
0.000674996
0.000460012
0.000254337
0.000105979
4.24011e-05
0.999994
0.999993
0.999992
0.999992
0.999992
0.999992
0.999991
0.999991
0.999991
0.99999
0.99999
0.99999
0.99999
0.99999
0.99999
0.99999
0.99999
0.99999
0.99999
0.99999
0.99999
0.99999
0.99999
0.99999
0.99999
0.99999
0.99999
0.99999
0.99999
0.99999
0.99999
0.99999
0.99999
0.99999
0.99999
0.99999
0.99999
0.99999
0.99999
0.99999
0.99999
0.99999
0.99999
0.99999
0.999989
0.999987
0.999985
0.99998
0.999973
0.99996
0.999947
0.999937
0.99993
0.999925
0.999923
0.999921
0.999925
0.999915
0.999873
0.949018
0.0256225
0.00014374
5.71252e-05
3.32024e-05
2.48552e-05
1.96311e-05
1.88353e-05
1.90599e-05
2.04236e-05
2.21777e-05
2.41095e-05
2.56952e-05
2.70137e-05
2.79205e-05
2.85204e-05
2.87825e-05
2.87127e-05
2.87298e-05
3.01153e-05
3.27124e-05
3.69256e-05
4.26137e-05
4.9358e-05
5.62141e-05
6.20627e-05
6.64561e-05
6.92451e-05
7.01217e-05
6.71625e-05
5.88031e-05
4.5958e-05
2.8644e-05
1.46986e-05
5.94677e-06
2.18994e-06
1.13375e-06
0.999995
0.999993
0.999993
0.999993
0.999992
0.999992
0.999991
0.999991
0.999991
0.99999
0.99999
0.99999
0.99999
0.99999
0.99999
0.99999
0.99999
0.99999
0.99999
0.99999
0.99999
0.99999
0.99999
0.99999
0.99999
0.99999
0.99999
0.99999
0.99999
0.99999
0.99999
0.99999
0.99999
0.99999
0.99999
0.99999
0.99999
0.99999
0.99999
0.99999
0.99999
0.99999
0.99999
0.99999
0.999989
0.999988
0.999986
0.999981
0.999975
0.999965
0.999954
0.999946
0.999938
0.999931
0.999928
0.999925
0.999926
0.999915
0.999811
0.967024
0.0363328
0.000119748
1.58872e-06
1.27994e-06
1.18639e-06
1.15462e-06
1.13408e-06
1.11156e-06
1.10597e-06
1.10741e-06
1.12035e-06
1.11055e-06
1.09883e-06
1.08938e-06
1.07763e-06
1.05792e-06
1.02525e-06
9.90801e-07
9.83807e-07
9.82838e-07
9.93731e-07
1.03507e-06
1.09267e-06
1.14881e-06
1.19263e-06
1.21244e-06
1.18565e-06
1.12056e-06
1.07228e-06
1.00304e-06
8.92214e-07
7.68247e-07
6.64524e-07
6.15153e-07
5.82013e-07
5.16962e-07
0.999996
0.999995
0.999994
0.999993
0.999993
0.999992
0.999991
0.999991
0.999991
0.99999
0.99999
0.99999
0.99999
0.99999
0.99999
0.99999
0.99999
0.99999
0.99999
0.99999
0.99999
0.99999
0.99999
0.99999
0.99999
0.99999
0.99999
0.99999
0.99999
0.99999
0.99999
0.99999
0.99999
0.99999
0.99999
0.99999
0.99999
0.99999
0.99999
0.99999
0.99999
0.99999
0.99999
0.99999
0.99999
0.999989
0.999987
0.999983
0.999976
0.999968
0.999959
0.999951
0.999945
0.999938
0.999933
0.999929
0.999929
0.999913
0.999733
0.972667
0.0506694
0.000221932
1.21883e-06
1.09838e-06
1.0836e-06
1.07624e-06
1.06953e-06
1.05718e-06
1.04584e-06
1.03342e-06
1.02731e-06
1.02108e-06
1.01756e-06
1.0088e-06
9.95241e-07
9.82781e-07
9.75248e-07
9.67956e-07
9.57773e-07
9.487e-07
9.40619e-07
9.31094e-07
9.20386e-07
9.08664e-07
8.9508e-07
8.73915e-07
8.4541e-07
8.08512e-07
7.62739e-07
7.17593e-07
6.87293e-07
6.47963e-07
5.9255e-07
5.64124e-07
5.33136e-07
4.74716e-07
0.999996
0.999995
0.999994
0.999994
0.999994
0.999993
0.999992
0.999991
0.999991
0.99999
0.99999
0.99999
0.99999
0.99999
0.99999
0.99999
0.99999
0.99999
0.99999
0.99999
0.99999
0.99999
0.99999
0.99999
0.99999
0.99999
0.99999
0.99999
0.99999
0.99999
0.99999
0.99999
0.99999
0.99999
0.99999
0.99999
0.99999
0.99999
0.99999
0.99999
0.99999
0.99999
0.99999
0.99999
0.99999
0.999989
0.999988
0.999984
0.999977
0.999969
0.999962
0.999954
0.999949
0.999942
0.999937
0.999932
0.999929
0.999906
0.999701
0.970705
0.0608663
0.000360598
1.43409e-06
1.08516e-06
1.07062e-06
1.06068e-06
1.05826e-06
1.04817e-06
1.04111e-06
1.02963e-06
1.02387e-06
1.01349e-06
1.00665e-06
9.97965e-07
9.88684e-07
9.78296e-07
9.68724e-07
9.60637e-07
9.52428e-07
9.44332e-07
9.35437e-07
9.27942e-07
9.20476e-07
9.1202e-07
9.01463e-07
8.83264e-07
8.53627e-07
8.12906e-07
7.59785e-07
6.99681e-07
6.50245e-07
6.1937e-07
5.80733e-07
5.57959e-07
5.28084e-07
4.64898e-07
0.999997
0.999996
0.999995
0.999995
0.999994
0.999994
0.999993
0.999992
0.999991
0.999991
0.99999
0.99999
0.99999
0.99999
0.99999
0.99999
0.99999
0.99999
0.99999
0.99999
0.99999
0.99999
0.99999
0.99999
0.99999
0.99999
0.99999
0.99999
0.99999
0.99999
0.99999
0.99999
0.99999
0.99999
0.99999
0.99999
0.99999
0.99999
0.99999
0.99999
0.99999
0.99999
0.99999
0.99999
0.99999
0.99999
0.999988
0.999985
0.999978
0.99997
0.999964
0.999957
0.999952
0.999946
0.999941
0.999935
0.999928
0.999909
0.999723
0.964605
0.0557067
0.000252386
1.20558e-06
1.07971e-06
1.0684e-06
1.0537e-06
1.0461e-06
1.03466e-06
1.02911e-06
1.01737e-06
1.01312e-06
1.00454e-06
9.96589e-07
9.88094e-07
9.79402e-07
9.70292e-07
9.61218e-07
9.54434e-07
9.47072e-07
9.3958e-07
9.32055e-07
9.24145e-07
9.16277e-07
9.09372e-07
9.01728e-07
8.90198e-07
8.68741e-07
8.30564e-07
7.74665e-07
7.05443e-07
6.43666e-07
5.98298e-07
5.65614e-07
5.40301e-07
5.10287e-07
4.56316e-07
0.999997
0.999996
0.999996
0.999995
0.999995
0.999994
0.999994
0.999993
0.999991
0.99999
0.99999
0.99999
0.99999
0.99999
0.99999
0.99999
0.99999
0.99999
0.99999
0.99999
0.99999
0.99999
0.99999
0.99999
0.99999
0.99999
0.99999
0.99999
0.99999
0.99999
0.99999
0.99999
0.99999
0.99999
0.99999
0.99999
0.99999
0.99999
0.99999
0.99999
0.99999
0.99999
0.99999
0.99999
0.99999
0.99999
0.999988
0.999985
0.999978
0.999969
0.999962
0.999958
0.999953
0.99995
0.999943
0.999933
0.999929
0.999914
0.999487
0.958604
0.0586514
0.000447806
1.64963e-06
1.08094e-06
1.07224e-06
1.05648e-06
1.04721e-06
1.03357e-06
1.02966e-06
1.01842e-06
1.01168e-06
1.00236e-06
9.93868e-07
9.85738e-07
9.77443e-07
9.69125e-07
9.61554e-07
9.54124e-07
9.46281e-07
9.39216e-07
9.31898e-07
9.23924e-07
9.16882e-07
9.10226e-07
9.03155e-07
8.96643e-07
8.83318e-07
8.53249e-07
8.03974e-07
7.36893e-07
6.53649e-07
5.82029e-07
5.46044e-07
5.1082e-07
4.79227e-07
4.39412e-07
0.999991
0.999991
0.999991
0.999991
0.999991
0.99999
0.99999
0.99999
0.99999
0.99999
0.99999
0.99999
0.99999
0.99999
0.99999
0.99999
0.99999
0.99999
0.99999
0.99999
0.99999
0.99999
0.99999
0.99999
0.99999
0.99999
0.99999
0.99999
0.99999
0.99999
0.99999
0.99999
0.99999
0.99999
0.99999
0.99999
0.99999
0.99999
0.99999
0.99999
0.99999
0.99999
0.99999
0.99999
0.99999
0.99999
0.999989
0.999985
0.999977
0.99997
0.999964
0.999958
0.999955
0.999949
0.999945
0.999939
0.999935
0.999908
0.999215
0.945706
0.0333163
0.000122239
1.08306e-06
1.03874e-06
1.03088e-06
1.01393e-06
1.01245e-06
9.99387e-07
9.97745e-07
9.88623e-07
9.86614e-07
9.78729e-07
9.73721e-07
9.65955e-07
9.59106e-07
9.51227e-07
9.43806e-07
9.3727e-07
9.29173e-07
9.16438e-07
9.02494e-07
8.88431e-07
8.74445e-07
8.56673e-07
8.39434e-07
8.28525e-07
8.20053e-07
8.08979e-07
7.90924e-07
7.59063e-07
7.09484e-07
6.49774e-07
5.85348e-07
5.32318e-07
4.99922e-07
4.74834e-07
0.999992
0.999991
0.999991
0.999991
0.999991
0.999991
0.999991
0.99999
0.99999
0.99999
0.99999
0.99999
0.99999
0.99999
0.99999
0.99999
0.99999
0.99999
0.99999
0.99999
0.99999
0.99999
0.99999
0.99999
0.99999
0.99999
0.99999
0.99999
0.99999
0.99999
0.99999
0.99999
0.99999
0.99999
0.99999
0.99999
0.99999
0.99999
0.99999
0.99999
0.99999
0.99999
0.99999
0.99999
0.99999
0.99999
0.999988
0.999985
0.999978
0.999972
0.999966
0.999958
0.999951
0.999943
0.999938
0.999932
0.999925
0.999897
0.999594
0.914834
0.01489
1.32193e-05
1.06541e-06
1.12952e-06
1.09301e-06
1.0789e-06
1.07253e-06
1.053e-06
1.04968e-06
1.03523e-06
1.02808e-06
1.00787e-06
9.96071e-07
9.83488e-07
9.73808e-07
9.63256e-07
9.55212e-07
9.47946e-07
9.37946e-07
9.25049e-07
9.08008e-07
8.91379e-07
8.70827e-07
8.46041e-07
8.20992e-07
8.01858e-07
7.88044e-07
7.79896e-07
7.7167e-07
7.54744e-07
7.20202e-07
6.64131e-07
5.97117e-07
5.48964e-07
5.24823e-07
4.89412e-07
0.999992
0.999992
0.999991
0.999991
0.999991
0.999991
0.999991
0.999991
0.999991
0.99999
0.99999
0.99999
0.99999
0.99999
0.99999
0.99999
0.99999
0.99999
0.99999
0.99999
0.99999
0.99999
0.99999
0.99999
0.99999
0.99999
0.99999
0.99999
0.99999
0.99999
0.99999
0.99999
0.99999
0.99999
0.99999
0.99999
0.99999
0.99999
0.99999
0.99999
0.99999
0.99999
0.99999
0.99999
0.99999
0.99999
0.999988
0.999985
0.99998
0.999973
0.999964
0.999951
0.999939
0.99993
0.999926
0.999922
0.999919
0.99989
0.999737
0.881762
0.0119189
7.90762e-06
7.24934e-06
6.73712e-06
6.44217e-06
5.23991e-06
4.16792e-06
2.96221e-06
2.14559e-06
1.5828e-06
1.29756e-06
1.13705e-06
1.06335e-06
1.03726e-06
1.0281e-06
1.01083e-06
9.98348e-07
9.89008e-07
9.82358e-07
9.71417e-07
9.56531e-07
9.38139e-07
9.12562e-07
8.72989e-07
8.35569e-07
8.10625e-07
7.93059e-07
7.808e-07
7.70067e-07
7.53207e-07
7.24176e-07
6.76672e-07
6.09558e-07
5.58875e-07
5.38951e-07
5.0391e-07
0.999992
0.999992
0.999992
0.999992
0.999991
0.999991
0.999991
0.999991
0.999991
0.99999
0.99999
0.99999
0.99999
0.99999
0.99999
0.99999
0.99999
0.99999
0.99999
0.99999
0.99999
0.99999
0.99999
0.99999
0.99999
0.99999
0.99999
0.99999
0.99999
0.99999
0.99999
0.99999
0.99999
0.99999
0.99999
0.99999
0.99999
0.99999
0.99999
0.99999
0.99999
0.99999
0.99999
0.99999
0.99999
0.999989
0.999988
0.999985
0.99998
0.999971
0.999956
0.999939
0.999924
0.999916
0.999911
0.9999
0.999887
0.999864
0.999782
0.823382
0.00777766
0.000285773
0.000263782
0.000232967
0.000219882
0.00018469
0.000147905
0.000110646
7.8519e-05
5.26188e-05
3.41893e-05
2.17898e-05
1.42521e-05
9.94522e-06
7.75222e-06
6.58179e-06
5.94431e-06
5.53841e-06
5.13653e-06
4.63455e-06
4.12974e-06
3.69147e-06
3.3056e-06
2.9749e-06
2.7019e-06
2.44867e-06
2.14021e-06
1.84118e-06
1.45218e-06
1.09683e-06
8.71361e-07
7.53954e-07
6.89126e-07
6.31905e-07
5.83388e-07
5.20444e-07
0.999992
0.999992
0.999992
0.999992
0.999991
0.999991
0.999991
0.999991
0.999991
0.99999
0.99999
0.99999
0.99999
0.99999
0.99999
0.99999
0.99999
0.99999
0.99999
0.99999
0.99999
0.99999
0.99999
0.99999
0.99999
0.99999
0.99999
0.99999
0.99999
0.99999
0.99999
0.99999
0.99999
0.99999
0.99999
0.99999
0.99999
0.99999
0.99999
0.99999
0.99999
0.99999
0.99999
0.99999
0.99999
0.999989
0.999988
0.999985
0.999979
0.999966
0.999946
0.999929
0.999912
0.999901
0.99989
0.999873
0.999862
0.999851
0.999844
0.735633
0.0112469
0.00371069
0.00356591
0.00328394
0.00310335
0.00278712
0.00245777
0.00211543
0.00178122
0.00146793
0.00119668
0.000968548
0.00078686
0.000651818
0.000552108
0.000486079
0.000445958
0.000422858
0.000411973
0.000406144
0.000400715
0.000385422
0.000364238
0.000341802
0.000313217
0.000281706
0.000250742
0.000207858
0.000157457
0.00010526
6.05118e-05
2.91339e-05
1.20916e-05
4.58625e-06
1.7822e-06
9.01995e-07
0.999993
0.999992
0.999992
0.999992
0.999992
0.999991
0.999991
0.999991
0.999991
0.99999
0.99999
0.99999
0.99999
0.99999
0.99999
0.99999
0.99999
0.99999
0.99999
0.99999
0.99999
0.99999
0.99999
0.99999
0.99999
0.99999
0.99999
0.99999
0.99999
0.99999
0.99999
0.99999
0.99999
0.99999
0.99999
0.99999
0.99999
0.99999
0.99999
0.99999
0.99999
0.99999
0.99999
0.99999
0.99999
0.999989
0.999988
0.999984
0.999977
0.999962
0.999939
0.999923
0.999907
0.999892
0.999878
0.99987
0.999868
0.999863
0.999789
0.604781
0.0208981
0.0152376
0.0156156
0.0154849
0.0153149
0.0150029
0.0145852
0.0140982
0.0134727
0.0127876
0.0120274
0.0112379
0.0104415
0.00967531
0.00895458
0.00833316
0.0078067
0.00738537
0.00706228
0.00680765
0.00655795
0.0062871
0.00594588
0.00562581
0.00527468
0.00484817
0.0044037
0.00391805
0.00340806
0.00284074
0.00226327
0.00167791
0.00111863
0.000636308
0.00028628
0.000102447
0.999993
0.999993
0.999993
0.999992
0.999992
0.999992
0.999991
0.999991
0.999991
0.999991
0.99999
0.99999
0.99999
0.99999
0.99999
0.99999
0.99999
0.99999
0.99999
0.99999
0.99999
0.99999
0.99999
0.99999
0.99999
0.99999
0.99999
0.99999
0.99999
0.99999
0.99999
0.99999
0.99999
0.99999
0.99999
0.99999
0.99999
0.99999
0.99999
0.99999
0.99999
0.99999
0.99999
0.99999
0.99999
0.999989
0.999987
0.999983
0.999974
0.999956
0.999933
0.999917
0.999905
0.999898
0.999891
0.999885
0.999885
0.999877
0.999251
0.578236
0.0316979
0.0251585
0.0263859
0.0269515
0.0273993
0.0279131
0.0283755
0.0288159
0.0292069
0.0296227
0.0300174
0.0304013
0.0306893
0.0309064
0.0310144
0.0310742
0.0310421
0.0309619
0.0307778
0.0304778
0.0300004
0.0293481
0.0286248
0.0278535
0.0269503
0.0260212
0.024969
0.0238729
0.0228021
0.021674
0.0204242
0.0190182
0.0172571
0.0150191
0.0123056
0.0098417
0.999993
0.999993
0.999993
0.999993
0.999992
0.999992
0.999991
0.999991
0.999991
0.999991
0.99999
0.99999
0.99999
0.99999
0.99999
0.99999
0.99999
0.99999
0.99999
0.99999
0.99999
0.99999
0.99999
0.99999
0.99999
0.99999
0.99999
0.99999
0.99999
0.99999
0.99999
0.99999
0.99999
0.99999
0.99999
0.99999
0.99999
0.99999
0.99999
0.99999
0.99999
0.99999
0.99999
0.99999
0.99999
0.999989
0.999987
0.999982
0.999967
0.999945
0.999928
0.999918
0.999914
0.999913
0.999911
0.999906
0.999904
0.999898
0.998655
0.718283
0.0322096
0.0192892
0.020117
0.0203396
0.020798
0.0216055
0.0226913
0.0239463
0.0253855
0.026923
0.0285697
0.0303645
0.0322557
0.0341958
0.0362233
0.0383215
0.0405576
0.042943
0.0454319
0.0479691
0.0505539
0.0533179
0.0563986
0.0598273
0.0635822
0.0676295
0.071998
0.0768578
0.0824037
0.0888856
0.0968438
0.10673
0.120027
0.141163
0.189624
0.385417
0.999994
0.999994
0.999993
0.999993
0.999993
0.999992
0.999992
0.999991
0.999991
0.999991
0.99999
0.99999
0.99999
0.99999
0.99999
0.99999
0.99999
0.99999
0.99999
0.99999
0.99999
0.99999
0.99999
0.99999
0.99999
0.99999
0.99999
0.99999
0.99999
0.99999
0.99999
0.99999
0.99999
0.99999
0.99999
0.99999
0.99999
0.99999
0.99999
0.99999
0.99999
0.99999
0.99999
0.99999
0.99999
0.999989
0.999986
0.999981
0.99997
0.999948
0.999932
0.999925
0.99992
0.999919
0.999914
0.999908
0.999906
0.999901
0.99979
0.839111
0.0201492
0.00508014
0.0047437
0.00395952
0.00365954
0.00340458
0.00336209
0.00340479
0.00347975
0.00358865
0.00372186
0.00384207
0.00396778
0.00410592
0.00429516
0.00452655
0.0048065
0.00507922
0.0053463
0.00563809
0.00594264
0.0062399
0.0064886
0.00676682
0.00715873
0.00769427
0.00835735
0.00909927
0.0098615
0.0106262
0.0112882
0.0119876
0.0129306
0.0139037
0.0145794
0.0134081
0.999994
0.999994
0.999993
0.999993
0.999993
0.999992
0.999992
0.999991
0.999991
0.999991
0.99999
0.99999
0.99999
0.99999
0.99999
0.99999
0.99999
0.99999
0.99999
0.99999
0.99999
0.99999
0.99999
0.99999
0.99999
0.99999
0.99999
0.99999
0.99999
0.99999
0.99999
0.99999
0.99999
0.99999
0.99999
0.99999
0.99999
0.99999
0.99999
0.99999
0.99999
0.99999
0.99999
0.99999
0.99999
0.999988
0.999986
0.999981
0.999974
0.99996
0.999942
0.999934
0.999928
0.999922
0.999915
0.999912
0.99991
0.999901
0.999901
0.895628
0.0122764
0.000666554
0.000564049
0.000396538
0.000341887
0.000292628
0.000287213
0.000292737
0.000305246
0.000319223
0.00033516
0.000348433
0.000359256
0.00036697
0.000371314
0.000373383
0.000375173
0.000373394
0.000373099
0.000380509
0.000397559
0.000440673
0.000503249
0.000589387
0.000689679
0.000805629
0.000938359
0.00106806
0.00120803
0.00135951
0.00149923
0.00157973
0.00154393
0.00121087
0.000726096
0.000318048
0.999995
0.999994
0.999994
0.999994
0.999993
0.999993
0.999992
0.999991
0.999991
0.999991
0.99999
0.99999
0.99999
0.99999
0.99999
0.99999
0.99999
0.99999
0.99999
0.99999
0.99999
0.99999
0.99999
0.99999
0.99999
0.99999
0.99999
0.99999
0.99999
0.99999
0.99999
0.99999
0.99999
0.99999
0.99999
0.99999
0.99999
0.99999
0.99999
0.99999
0.99999
0.99999
0.99999
0.99999
0.99999
0.999989
0.999987
0.999983
0.999975
0.999967
0.999954
0.999944
0.999939
0.999933
0.999927
0.999921
0.999916
0.999898
0.999887
0.930277
0.0139436
3.92757e-05
3.46141e-05
1.99571e-05
1.74401e-05
1.49167e-05
1.47662e-05
1.47918e-05
1.50091e-05
1.50694e-05
1.5317e-05
1.56242e-05
1.58987e-05
1.58899e-05
1.60009e-05
1.59211e-05
1.50217e-05
1.36744e-05
1.31025e-05
1.33513e-05
1.46304e-05
1.78924e-05
2.21679e-05
2.73503e-05
3.19242e-05
3.43772e-05
3.47451e-05
3.34964e-05
3.1768e-05
2.99608e-05
2.93144e-05
2.80335e-05
2.21261e-05
1.25911e-05
5.76543e-06
2.45491e-06
0.999995
0.999994
0.999994
0.999994
0.999994
0.999993
0.999992
0.999991
0.999991
0.999991
0.99999
0.99999
0.99999
0.99999
0.99999
0.99999
0.99999
0.99999
0.99999
0.99999
0.99999
0.99999
0.99999
0.99999
0.99999
0.99999
0.99999
0.99999
0.99999
0.99999
0.99999
0.99999
0.99999
0.99999
0.99999
0.99999
0.99999
0.99999
0.99999
0.99999
0.99999
0.99999
0.99999
0.99999
0.99999
0.99999
0.999988
0.999984
0.999977
0.99997
0.999961
0.999952
0.999946
0.99994
0.999936
0.99993
0.999919
0.999896
0.999838
0.951179
0.0201713
1.61325e-06
2.37023e-06
1.33671e-06
1.37645e-06
1.26424e-06
1.26403e-06
1.2262e-06
1.20944e-06
1.18521e-06
1.1763e-06
1.17311e-06
1.1665e-06
1.15224e-06
1.13662e-06
1.12007e-06
1.08098e-06
1.04706e-06
1.03803e-06
1.03223e-06
1.03796e-06
1.04681e-06
1.06305e-06
1.07931e-06
1.07929e-06
1.03716e-06
9.48511e-07
8.74757e-07
8.34164e-07
7.94535e-07
7.428e-07
6.89138e-07
6.41018e-07
6.06926e-07
5.69628e-07
5.12728e-07
0.999995
0.999995
0.999994
0.999994
0.999994
0.999993
0.999992
0.999991
0.999991
0.999991
0.99999
0.99999
0.99999
0.99999
0.99999
0.99999
0.99999
0.99999
0.99999
0.99999
0.99999
0.99999
0.99999
0.99999
0.99999
0.99999
0.99999
0.99999
0.99999
0.99999
0.99999
0.99999
0.99999
0.99999
0.99999
0.99999
0.99999
0.99999
0.99999
0.99999
0.99999
0.99999
0.99999
0.99999
0.99999
0.99999
0.999989
0.999985
0.999978
0.999972
0.999965
0.999956
0.999947
0.999939
0.999934
0.999926
0.999912
0.999893
0.999776
0.957721
0.0320331
1.99654e-05
1.14287e-06
1.11162e-06
1.11611e-06
1.10231e-06
1.09242e-06
1.07576e-06
1.06584e-06
1.04735e-06
1.03709e-06
1.02393e-06
1.01528e-06
1.00264e-06
9.89643e-07
9.77916e-07
9.70268e-07
9.59965e-07
9.48543e-07
9.40026e-07
9.30946e-07
9.21444e-07
9.13714e-07
9.06049e-07
8.95621e-07
8.78367e-07
8.51091e-07
8.1363e-07
7.68348e-07
7.19656e-07
6.69136e-07
6.35835e-07
5.92481e-07
5.63562e-07
5.23104e-07
4.56295e-07
0.999996
0.999995
0.999995
0.999994
0.999994
0.999993
0.999992
0.999991
0.999991
0.999991
0.99999
0.99999
0.99999
0.99999
0.99999
0.99999
0.99999
0.99999
0.99999
0.99999
0.99999
0.99999
0.99999
0.99999
0.99999
0.99999
0.99999
0.99999
0.99999
0.99999
0.99999
0.99999
0.99999
0.99999
0.99999
0.99999
0.99999
0.99999
0.99999
0.99999
0.99999
0.99999
0.99999
0.99999
0.99999
0.99999
0.999989
0.999985
0.999978
0.999971
0.999965
0.999957
0.999947
0.999938
0.999927
0.999917
0.999902
0.999877
0.999708
0.9523
0.0346926
3.28003e-05
1.11481e-06
1.09428e-06
1.07278e-06
1.06092e-06
1.0596e-06
1.04665e-06
1.04167e-06
1.0285e-06
1.02099e-06
1.00966e-06
1.00339e-06
9.92673e-07
9.82166e-07
9.7139e-07
9.62081e-07
9.52684e-07
9.43597e-07
9.35658e-07
9.2697e-07
9.18658e-07
9.12348e-07
9.05207e-07
8.95344e-07
8.80011e-07
8.52767e-07
8.15281e-07
7.67273e-07
7.04193e-07
6.45039e-07
6.07063e-07
5.80422e-07
5.62994e-07
5.35149e-07
4.57231e-07
0.999996
0.999996
0.999995
0.999995
0.999994
0.999994
0.999993
0.999992
0.999991
0.999991
0.99999
0.99999
0.99999
0.99999
0.99999
0.99999
0.99999
0.99999
0.99999
0.99999
0.99999
0.99999
0.99999
0.99999
0.99999
0.99999
0.99999
0.99999
0.99999
0.99999
0.99999
0.99999
0.99999
0.99999
0.99999
0.99999
0.99999
0.99999
0.99999
0.99999
0.99999
0.99999
0.99999
0.99999
0.99999
0.99999
0.999989
0.999985
0.999979
0.99997
0.999964
0.999958
0.999946
0.999937
0.999921
0.999906
0.999888
0.999868
0.999739
0.929436
0.0276082
5.29824e-05
1.1232e-06
1.07747e-06
1.06336e-06
1.04539e-06
1.04226e-06
1.02924e-06
1.02473e-06
1.0132e-06
1.0075e-06
9.96499e-07
9.89346e-07
9.79772e-07
9.7221e-07
9.63667e-07
9.55522e-07
9.48399e-07
9.40298e-07
9.32554e-07
9.24245e-07
9.15866e-07
9.0921e-07
9.02621e-07
8.94656e-07
8.8411e-07
8.6391e-07
8.27161e-07
7.72154e-07
7.03092e-07
6.34573e-07
5.81885e-07
5.57902e-07
5.41432e-07
5.14677e-07
4.50057e-07
0.999997
0.999997
0.999996
0.999996
0.999995
0.999994
0.999994
0.999993
0.999991
0.999991
0.99999
0.99999
0.99999
0.99999
0.99999
0.99999
0.99999
0.99999
0.99999
0.99999
0.99999
0.99999
0.99999
0.99999
0.99999
0.99999
0.99999
0.99999
0.99999
0.99999
0.99999
0.99999
0.99999
0.99999
0.99999
0.99999
0.99999
0.99999
0.99999
0.99999
0.99999
0.99999
0.99999
0.99999
0.99999
0.99999
0.999989
0.999985
0.999978
0.999969
0.999962
0.999957
0.999953
0.999946
0.999931
0.999911
0.999894
0.999862
0.999617
0.953364
0.0462195
0.000272609
1.43704e-06
1.07514e-06
1.065e-06
1.04582e-06
1.04215e-06
1.02872e-06
1.02376e-06
1.01169e-06
1.00543e-06
9.9484e-07
9.88023e-07
9.78888e-07
9.71244e-07
9.63358e-07
9.56783e-07
9.49601e-07
9.41747e-07
9.352e-07