/*--------------------------------*- C++ -*----------------------------------*\
| =========                 |                                                 |
| \\      /  F ield         | OpenFOAM: The Open Source CFD Toolbox           |
|  \\    /   O peration     | Version:  2.3.0                                 |
|   \\  /    A nd           | Web:      www.OpenFOAM.org                      |
|    \\/     M anipulation  |                                                 |
\*---------------------------------------------------------------------------*/
FoamFile
{
    version     2.0;
    format      ascii;
    class       surfaceScalarField;
    location    "20";
    object      phi;
}
// * * * * * * * * * * * * * * * * * * * * * * * * * * * * * * * * * * * * * //

dimensions      [0 3 -1 0 0 0 0];

internalField   nonuniform List<scalar> 
16448
(
-1.78365e-06
-1.99163e-06
7.26036e-07
-6.17221e-07
-2.03943e-06
8.73001e-07
-2.06066e-07
-1.51794e-06
1.10679e-06
1.53838e-07
-1.42028e-06
1.06038e-06
2.11379e-07
-9.5225e-07
8.94712e-07
2.67585e-07
-8.17416e-07
7.61213e-07
1.73183e-07
-4.42754e-07
5.37158e-07
1.04379e-08
-3.12765e-07
4.75512e-07
-2.09871e-07
-2.27603e-07
4.47913e-07
-4.09441e-07
-1.89873e-07
3.89444e-07
-5.41913e-07
-2.20107e-07
3.5258e-07
-5.28427e-07
-2.96151e-07
2.82666e-07
-4.58499e-07
-3.47282e-07
2.77355e-07
-3.27809e-07
-3.96055e-07
2.65367e-07
-2.31125e-07
-4.10406e-07
3.13724e-07
-1.40996e-07
-4.3406e-07
3.43934e-07
-8.89892e-08
-4.40961e-07
3.88957e-07
-4.90306e-08
-4.54358e-07
4.14402e-07
-2.63234e-08
-4.61732e-07
4.39027e-07
-1.14455e-08
-4.66762e-07
4.51888e-07
-4.29932e-09
-4.67199e-07
4.60056e-07
-1.53423e-09
-4.65477e-07
4.62716e-07
-1.8992e-09
-4.61714e-07
4.62083e-07
-4.01195e-09
-4.5673e-07
4.58848e-07
-7.07657e-09
-4.50734e-07
4.53804e-07
-1.08476e-08
-4.43913e-07
4.4769e-07
-1.56261e-08
-4.36268e-07
4.41053e-07
-2.21132e-08
-4.27653e-07
4.34147e-07
-3.08355e-08
-4.1801e-07
4.2674e-07
-4.10455e-08
-4.08198e-07
4.18416e-07
-5.16187e-08
-3.97606e-07
4.08187e-07
-6.10644e-08
-3.85407e-07
3.94862e-07
-6.64752e-08
-3.71433e-07
3.76853e-07
-6.38173e-08
-3.55629e-07
3.52982e-07
-4.75291e-08
-3.38278e-07
3.22e-07
-1.26303e-08
-3.19742e-07
2.84855e-07
4.39247e-08
-3.00884e-07
2.4434e-07
1.14246e-07
-2.8009e-07
2.09781e-07
1.83309e-07
-2.5634e-07
1.8729e-07
2.22996e-07
-2.26431e-07
1.86757e-07
1.87821e-07
-1.83734e-07
2.18924e-07
7.57593e-09
-1.16375e-07
2.96634e-07
-4.00418e-07
-2.47053e-08
4.32714e-07
-1.08414e-06
1.27973e-07
5.55766e-07
-1.93358e-06
2.85481e-07
5.63975e-07
-2.69167e-06
2.39081e-07
5.19035e-07
-3.16475e-06
-1.39955e-07
6.13052e-07
-3.21748e-06
-7.35396e-07
7.88153e-07
-3.2735e-06
-1.07426e-06
1.13029e-06
-4.53027e-06
-5.13042e-07
1.76983e-06
-6.58469e-06
1.61719e-07
1.89273e-06
-6.07756e-06
-2.03499e-06
1.52789e-06
2.18532e-06
-1.08946e-05
2.63173e-06
1.03356e-05
-1.20312e-05
3.88091e-06
1.40131e-05
-9.69301e-06
6.01559e-06
1.62049e-05
-7.20291e-06
5.01103e-06
1.00519e-05
-1.00926e-06
7.16219e-06
9.96487e-06
-1.22088e-07
2.09039e-07
-1.07838e-05
1.15616e-05
9.18685e-06
1.16517e-07
-5.56358e-06
-5.33687e-06
2.90045e-05
-3.11414e-05
2.25341e-06
3.81101e-05
-1.73093e-05
8.2037e-06
3.78729e-05
-8.92037e-06
9.15756e-06
3.98755e-05
-8.29509e-06
6.29245e-06
4.12329e-05
-5.90371e-06
4.54631e-06
4.16313e-05
-3.61196e-06
3.21357e-06
4.15913e-05
-2.41496e-06
2.45492e-06
4.14077e-05
-1.85729e-06
2.04098e-06
4.1307e-05
-1.49138e-06
1.59208e-06
4.13518e-05
-1.13841e-06
1.09353e-06
4.13728e-05
-8.56111e-07
8.35148e-07
4.18045e-05
-7.89218e-07
3.57479e-07
4.23593e-05
-5.55998e-07
1.17823e-09
4.25025e-05
-6.28391e-08
-8.03532e-08
4.19917e-05
6.69328e-07
-1.58539e-07
4.04824e-05
1.62022e-06
-1.10839e-07
3.86964e-05
2.37329e-06
-5.87345e-07
3.50335e-05
4.01199e-06
-3.49054e-07
2.97575e-05
4.94924e-06
3.26721e-07
2.21722e-05
5.87068e-06
1.7146e-06
1.26591e-05
6.49957e-06
3.01357e-06
4.85667e-06
3.80334e-06
3.99906e-06
-7.0586e-07
1.57045e-06
3.99208e-06
-4.39388e-06
1.37519e-06
2.31283e-06
-5.96199e-06
1.41715e-06
1.50967e-07
-6.1846e-06
1.48859e-06
-1.26598e-06
-6.06072e-06
1.45734e-06
-1.58122e-06
-6.44717e-06
1.20595e-06
-8.19495e-07
-6.57455e-06
6.28206e-07
-5.00833e-07
-6.45933e-06
4.31171e-08
-1.58328e-07
-6.31548e-06
-1.69146e-07
2.5293e-08
-6.24319e-06
6.18253e-08
-1.34115e-07
-6.08009e-06
4.26659e-07
-5.89755e-07
-5.47798e-06
4.77304e-07
-1.07941e-06
-3.48139e-06
-8.1648e-08
-1.91495e-06
-1.21525e-06
-2.26614e-06
-2.23593e-06
-2.91895e-06
8.22695e-08
-1.41469e-06
-3.05497e-06
1.94305e-07
-1.1e-06
-2.35053e-06
5.17901e-07
-6.5852e-07
-2.178e-06
3.16245e-07
-3.17294e-07
-1.50034e-06
2.06877e-07
-3.09936e-08
-1.19211e-06
8.84052e-08
-6.62774e-08
-4.16605e-07
9.14224e-09
-2.67395e-07
-1.62366e-07
5.07243e-08
-5.21462e-07
-3.10429e-08
5.75116e-08
-6.77977e-07
-6.17365e-08
2.83829e-08
-7.67532e-07
-1.42203e-07
1.16552e-08
-7.19103e-07
-2.85116e-07
-5.9459e-08
-6.39393e-07
-3.54904e-07
-7.20817e-08
-5.09364e-07
-4.33639e-07
-9.24383e-08
-3.95379e-07
-4.56334e-07
-6.805e-08
-2.8035e-07
-4.95192e-07
-5.38908e-08
-2.04991e-07
-4.96739e-07
-1.95734e-08
-1.44137e-07
-5.13575e-07
-1.62972e-09
-1.06091e-07
-5.1338e-07
1.36103e-08
-7.84442e-08
-5.1481e-07
2.04106e-08
-6.27328e-08
-5.08119e-07
2.52183e-08
-5.36327e-08
-5.00701e-07
2.61349e-08
-4.98244e-08
-4.90638e-07
2.51274e-08
-4.90345e-08
-4.79713e-07
2.22043e-08
-5.02367e-08
-4.6798e-07
1.84608e-08
-5.27816e-08
-4.5558e-07
1.42257e-08
-5.67122e-08
-4.42168e-07
9.84447e-09
-6.26716e-08
-4.27224e-07
5.54524e-09
-7.10733e-08
-4.10534e-07
9.40527e-10
-8.01229e-08
-3.92899e-07
-6.23303e-09
-8.78693e-08
-3.74225e-07
-1.56171e-08
-9.21703e-08
-3.53959e-07
-2.71298e-08
-8.93621e-08
-3.32254e-07
-4.19687e-08
-7.49945e-08
-3.09257e-07
-6.07208e-08
-4.42386e-08
-2.85776e-07
-8.32382e-08
5.87998e-09
-2.62869e-07
-1.06971e-07
7.32178e-08
-2.40114e-07
-1.28086e-07
1.48478e-07
-2.13199e-07
-1.42129e-07
2.15132e-07
-1.80001e-07
-1.4297e-07
2.48269e-07
-1.37003e-07
-1.22542e-07
2.06115e-07
-7.16476e-08
-6.99083e-08
2.33153e-08
4.30982e-08
2.33528e-08
-3.71267e-07
2.30245e-07
1.39659e-07
-1.00891e-06
5.44673e-07
2.20968e-07
-1.711e-06
8.15148e-07
1.72452e-07
-2.27673e-06
7.8048e-07
2.43722e-08
-2.77374e-06
3.332e-07
2.38882e-08
-3.21328e-06
-4.91111e-07
1.95286e-07
-3.64269e-06
-9.42838e-07
2.98019e-07
-4.18497e-06
-3.66135e-07
3.95415e-07
-2.97427e-06
-1.04197e-06
-6.97619e-09
3.21079e-06
-6.32788e-06
-1.89215e-06
1.02523e-05
-1.70853e-05
-8.50789e-07
1.49634e-05
-1.7794e-05
1.05157e-06
1.74557e-05
-1.43177e-05
2.13238e-06
2.18586e-05
-1.2549e-05
9.43148e-07
1.93475e-05
-1.38011e-06
2.88195e-06
2.23107e-05
-2.14844e-06
-9.36906e-07
-5.53689e-06
2.35509e-05
1.58579e-05
3.57585e-07
-8.60159e-06
-2.85677e-06
1.48521e-05
-4.21059e-05
-3.53006e-06
1.3136e-05
-2.34825e-05
7.8894e-06
1.41356e-05
-1.58636e-05
5.94355e-06
1.57339e-05
-1.11065e-05
1.21313e-06
1.65618e-05
-5.99233e-06
-7.39241e-07
1.81864e-05
-3.87889e-06
-1.3577e-06
1.85545e-05
-1.62912e-06
-1.15395e-06
1.83552e-05
-9.48525e-07
-7.09446e-07
1.82989e-05
-6.5593e-07
-7.7915e-07
1.87379e-05
-3.75681e-07
-1.20171e-06
1.93627e-05
-1.92465e-07
-1.2885e-06
2.01527e-05
-3.76984e-07
-1.20224e-06
2.14847e-05
-5.78522e-07
-1.3095e-06
2.29825e-05
-2.75705e-07
-1.28493e-06
2.46497e-05
3.47812e-07
-1.34567e-06
2.63101e-05
1.56178e-06
-1.60196e-06
2.69159e-05
3.93598e-06
-2.16848e-06
2.62048e-05
6.33827e-06
-1.61522e-06
2.39018e-05
8.31918e-06
-1.06695e-06
1.81738e-05
1.1222e-05
3.76704e-07
9.58587e-06
1.24761e-05
2.61137e-06
-3.42185e-09
9.16924e-06
4.22339e-06
-6.93881e-06
5.55137e-06
2.95447e-06
-1.15128e-05
4.53559e-06
1.41363e-06
-1.31517e-05
4.05002e-06
-9.93975e-07
-1.26146e-05
3.48076e-06
-2.52927e-06
-1.05446e-05
2.50095e-06
-3.11362e-06
-9.00917e-06
1.34093e-06
-1.67042e-06
-8.09781e-06
4.6748e-07
-7.50635e-07
-7.46837e-06
-9.50876e-07
3.64561e-07
-6.69201e-06
-2.31641e-06
1.37091e-06
-6.01015e-06
-2.75332e-06
2.13328e-06
-5.68082e-06
-2.50058e-06
2.59791e-06
-5.23014e-06
-2.65262e-06
2.67925e-06
-3.39966e-06
-3.99087e-06
2.07875e-06
-5.69377e-06
1.07886e-06
-2.53794e-06
-3.40255e-06
-4.00485e-08
-1.78544e-06
-3.65666e-06
-1.50802e-07
-1.58566e-06
-2.85049e-06
3.00191e-07
-1.19373e-06
-2.76925e-06
1.99334e-07
-7.67031e-07
-2.02798e-06
1.00953e-07
-3.59955e-07
-1.58475e-06
-1.44304e-08
-2.56197e-07
-3.72298e-07
-1.48059e-07
-3.43903e-07
3.7576e-08
-1.1223e-07
-5.48362e-07
2.95956e-07
-1.22536e-07
-6.65787e-07
1.83866e-07
-1.28174e-07
-7.15748e-07
5.44445e-08
-1.46683e-07
-6.92822e-07
-1.01117e-07
-2.0692e-07
-6.62199e-07
-1.53554e-07
-2.31967e-07
-5.96072e-07
-2.37497e-07
-2.62263e-07
-5.10904e-07
-2.75266e-07
-2.6623e-07
-4.08439e-07
-3.24805e-07
-2.72846e-07
-3.27535e-07
-3.21384e-07
-2.56251e-07
-2.53156e-07
-3.38171e-07
-2.49775e-07
-2.03456e-07
-3.25501e-07
-2.37571e-07
-1.65502e-07
-3.20321e-07
-2.32434e-07
-1.41944e-07
-3.04483e-07
-2.27184e-07
-1.26661e-07
-2.90513e-07
-2.25462e-07
-1.18387e-07
-2.73783e-07
-2.25119e-07
-1.14555e-07
-2.57253e-07
-2.26281e-07
-1.13842e-07
-2.40739e-07
-2.27941e-07
-1.1508e-07
-2.24287e-07
-2.30043e-07
-1.1742e-07
-2.07397e-07
-2.32417e-07
-1.20207e-07
-1.89318e-07
-2.35104e-07
-1.22473e-07
-1.69915e-07
-2.38337e-07
-1.23156e-07
-1.49721e-07
-2.4248e-07
-1.20472e-07
-1.29126e-07
-2.47767e-07
-1.12043e-07
-1.08111e-07
-2.54259e-07
-9.54204e-08
-8.7109e-08
-2.6175e-07
-6.87791e-08
-6.64014e-08
-2.69478e-07
-3.28148e-08
-4.61586e-08
-2.75562e-07
9.04425e-09
-2.59351e-08
-2.78773e-07
4.96021e-08
-4.7459e-09
-2.75905e-07
7.5169e-08
2.60791e-08
-2.64823e-07
7.21378e-08
6.5768e-08
-2.42715e-07
2.38795e-08
1.17178e-07
-2.05899e-07
-8.10974e-08
1.83475e-07
-1.50121e-07
-2.48401e-07
2.81573e-07
-7.11459e-08
-4.79707e-07
4.53118e-07
8.4594e-09
-6.74289e-07
7.31858e-07
7.42595e-09
-6.99849e-07
9.9075e-07
-1.50013e-07
-7.19271e-07
1.08278e-06
-2.82852e-07
-1.09911e-06
9.4926e-07
-2.36191e-07
-1.73546e-06
3.35294e-07
-1.90025e-07
-1.9983e-06
-1.99385e-07
-4.80582e-07
-1.73802e-06
2.49452e-08
-6.51331e-07
1.6921e-06
-3.53811e-06
-9.33948e-07
8.8987e-06
-1.2448e-05
-1.08649e-06
1.04042e-05
-1.99094e-05
1.31873e-06
7.65001e-06
-1.85681e-05
3.52826e-06
8.36718e-06
-1.63849e-05
1.35009e-06
1.50936e-05
-1.6484e-05
-2.7913e-06
1.65201e-05
2.26266e-06
-5.0692e-06
2.42659e-05
-5.91793e-06
-3.97646e-06
-4.02538e-06
3.1848e-05
1.99935e-05
3.70096e-08
-1.16879e-05
-9.76347e-07
7.75606e-06
-4.40436e-05
-5.78131e-06
9.20853e-07
-2.39518e-05
7.30448e-06
4.39059e-06
-2.21466e-05
2.8133e-06
2.27947e-06
-9.66071e-06
6.65316e-07
4.83528e-06
-6.63451e-06
-1.91364e-06
4.92924e-06
-3.79493e-06
-1.77914e-07
5.49711e-06
-2.41223e-06
2.1524e-07
7.12449e-06
-2.51246e-06
-6.34375e-08
9.8093e-06
-2.60414e-06
-7.36605e-07
1.26134e-05
-1.81005e-06
-1.36969e-06
1.49663e-05
-8.59488e-07
-1.6859e-06
1.66239e-05
-2.06763e-07
-1.82786e-06
1.79275e-05
-1.11204e-07
-1.77086e-06
1.90233e-05
-6.23669e-08
-1.3092e-06
1.97513e-05
4.53847e-07
-8.34026e-07
1.97324e-05
2.23966e-06
-6.58932e-07
1.8935e-05
6.24595e-06
-1.51261e-06
1.69479e-05
1.00728e-05
-1.74744e-06
1.30576e-05
1.36194e-05
-1.41e-06
6.90769e-06
1.70993e-05
2.72588e-07
-2.54154e-07
1.65937e-05
3.04426e-06
-6.81686e-06
1.18874e-05
3.84457e-06
-1.20816e-05
8.89043e-06
1.92563e-06
-1.55211e-05
7.10845e-06
8.66683e-07
-1.62411e-05
6.14816e-06
-1.37818e-06
-1.48859e-05
5.04573e-06
-2.92014e-06
-1.31e-05
3.68754e-06
-2.97253e-06
-1.25782e-05
1.99914e-06
-1.17994e-06
-1.23445e-05
-2.08751e-07
4.42527e-07
-1.20312e-05
-2.68995e-06
1.42577e-06
-1.17497e-05
-4.6531e-06
2.05515e-06
-1.09947e-05
-6.01601e-06
2.50774e-06
-9.57648e-06
-6.53087e-06
2.61205e-06
-7.22297e-06
-7.44396e-06
2.43784e-06
-4.39711e-06
-8.56516e-06
1.74843e-06
-9.6419e-06
-4.48981e-07
-3.10138e-06
-3.73194e-06
9.67824e-09
-2.15176e-06
-4.17745e-06
-4.28825e-07
-1.93673e-06
-3.36982e-06
3.04309e-07
-1.48968e-06
-3.47579e-06
2.59494e-07
-1.04539e-06
-2.79346e-06
3.21206e-07
-6.19387e-07
-2.27264e-06
2.61889e-07
-3.14754e-07
-7.55432e-07
7.85074e-08
-1.8276e-07
-1.42813e-07
4.83997e-08
-3.04621e-07
4.86216e-07
-6.83959e-08
-4.48511e-07
4.40719e-07
-1.12959e-07
-5.154e-07
3.02092e-07
-1.80754e-07
-5.76352e-07
1.91506e-07
-2.31667e-07
-6.10772e-07
1.52517e-07
-2.71644e-07
-6.10342e-07
6.71421e-08
-3.05064e-07
-5.57961e-07
-1.12263e-09
-3.26517e-07
-4.77207e-07
-6.04908e-08
-3.45062e-07
-3.94865e-07
-5.87876e-08
-3.44931e-07
-3.12192e-07
-7.10763e-08
-3.4976e-07
-2.50071e-07
-4.55148e-08
-3.42098e-07
-2.00435e-07
-3.09714e-08
-3.38977e-07
-1.68653e-07
-2.74138e-09
-3.33514e-07
-1.47353e-07
1.89016e-08
-3.30704e-07
-1.35253e-07
4.24988e-08
-3.28371e-07
-1.29317e-07
6.42445e-08
-3.27422e-07
-1.27803e-07
8.50828e-08
-3.27323e-07
-1.29108e-07
1.05087e-07
-3.28055e-07
-1.31663e-07
1.24693e-07
-3.2952e-07
-1.33703e-07
1.44365e-07
-3.31629e-07
-1.33454e-07
1.64203e-07
-3.34352e-07
-1.29521e-07
1.83953e-07
-3.37591e-07
-1.20828e-07
2.03511e-07
-3.41313e-07
-1.06441e-07
2.22806e-07
-3.45286e-07
-8.63454e-08
2.41443e-07
-3.4863e-07
-6.21102e-08
2.59337e-07
-3.49954e-07
-3.7683e-08
2.76664e-07
-3.4723e-07
-1.94362e-08
2.94449e-07
-3.38611e-07
-1.58803e-08
3.14482e-07
-3.22763e-07
-3.4301e-08
3.43553e-07
-2.99031e-07
-8.74821e-08
3.85064e-07
-2.66091e-07
-1.82912e-07
4.34428e-07
-2.21797e-07
-3.07209e-07
4.77068e-07
-1.6927e-07
-4.03394e-07
4.99012e-07
-1.21228e-07
-3.93893e-07
5.48038e-07
-1.04395e-07
-1.84716e-07
6.79626e-07
-1.56918e-07
3.18288e-07
8.01606e-07
-3.13831e-07
8.32619e-07
8.74035e-07
-3.05554e-07
8.70956e-07
9.11913e-07
-9.61759e-10
7.06753e-07
4.71804e-07
2.77226e-08
8.04006e-07
1.06454e-07
-4.03063e-07
1.83899e-06
-5.06846e-07
-5.03163e-07
5.55321e-06
-6.87798e-06
-3.74325e-07
9.41284e-06
-1.56838e-05
-6.23828e-07
2.50502e-06
-1.74084e-05
4.4068e-06
-7.49274e-06
-1.58148e-05
7.24451e-06
-8.29922e-06
-1.67227e-05
1.14427e-06
-6.05176e-06
-1.43971e-05
-4.33427e-06
8.12203e-06
4.87953e-06
-1.67904e-05
2.16304e-05
-1.47933e-05
-4.63321e-06
-4.86134e-09
3.30943e-05
2.03879e-05
-4.11116e-07
-7.67724e-06
-3.60436e-06
3.97611e-06
-4.24486e-05
-5.98209e-06
-7.34308e-06
-1.91339e-05
6.50129e-06
-7.40381e-06
-2.14735e-05
-6.12429e-07
-7.41498e-06
-1.01352e-05
4.85614e-07
-5.99097e-06
-6.15134e-06
-1.90718e-06
-3.36765e-06
-2.55225e-06
-3.86599e-06
3.52223e-07
-1.80151e-06
-4.33059e-06
3.01384e-06
-1.10242e-06
-4.07166e-06
5.53126e-06
-7.33326e-07
-4.38823e-06
7.71363e-06
5.30023e-07
-4.52244e-06
8.87797e-06
1.49816e-06
-3.52199e-06
7.79592e-06
2.22757e-06
-1.35229e-06
5.5538e-06
2.1993e-06
-6.8383e-08
3.47632e-06
2.59057e-06
-5.75453e-07
1.85282e-06
3.38695e-06
-1.3096e-06
7.84173e-07
4.94e-06
-1.63169e-06
-4.89461e-07
8.66826e-06
-1.14868e-06
-2.83735e-06
1.28369e-05
-4.16164e-07
-5.86232e-06
1.61232e-05
5.21137e-07
-8.55825e-06
1.78721e-05
1.92318e-06
-1.14154e-05
1.63227e-05
3.12821e-06
-1.45803e-05
1.31638e-05
1.88847e-06
-1.7662e-05
1.06608e-05
1.31135e-06
-1.94388e-05
8.55527e-06
3.29971e-07
-1.97227e-05
7.77021e-06
-1.33813e-06
-1.94335e-05
7.24269e-06
-2.48613e-06
-1.9538e-05
6.25074e-06
-2.45872e-06
-1.90973e-05
2.8789e-06
-1.3204e-06
-1.78812e-05
-7.20919e-07
-7.03944e-07
-1.7057e-05
-2.94865e-06
-5.6555e-07
-1.59447e-05
-5.24931e-06
-5.16074e-07
-1.39717e-05
-7.50238e-06
-4.86642e-07
-1.13322e-05
-8.47255e-06
-6.97778e-07
-7.93466e-06
-9.46835e-06
-1.37316e-06
-4.30965e-06
-9.75069e-06
-2.43948e-06
-1.05025e-05
-3.44902e-06
-3.8021e-06
-3.92915e-06
1.08105e-07
-2.70637e-06
-4.49141e-06
-7.81755e-07
-2.48711e-06
-3.68775e-06
9.86877e-08
-1.8511e-06
-4.05343e-06
-5.83702e-08
-1.41718e-06
-3.5322e-06
3.04829e-07
-9.74299e-07
-3.11597e-06
4.00453e-07
-5.37429e-07
-1.56968e-06
3.77381e-07
-1.96202e-07
-7.19545e-07
2.35508e-07
-7.306e-08
3.29714e-07
3.33621e-08
-1.5886e-07
5.67822e-07
-4.13002e-08
-2.3892e-07
5.14548e-07
-1.32394e-07
-4.02711e-07
5.06663e-07
-1.51363e-07
-5.12748e-07
4.66696e-07
-2.04138e-07
-5.77678e-07
3.70781e-07
-2.38704e-07
-5.53374e-07
2.53278e-07
-2.787e-07
-4.95428e-07
1.87076e-07
-3.05508e-07
-4.19435e-07
1.89327e-07
-3.24101e-07
-3.43245e-07
1.9226e-07
-3.3952e-07
-2.79677e-07
2.33883e-07
-3.42958e-07
-2.24941e-07
2.60753e-07
-3.46452e-07
-1.83629e-07
2.9936e-07
-3.43406e-07
-1.54845e-07
3.31139e-07
-3.41012e-07
-1.37676e-07
3.625e-07
-3.3716e-07
-1.28739e-07
3.89326e-07
-3.34008e-07
-1.25532e-07
4.13463e-07
-3.31576e-07
-1.25608e-07
4.35165e-07
-3.2999e-07
-1.26667e-07
4.54978e-07
-3.29214e-07
-1.26291e-07
4.73293e-07
-3.29291e-07
-1.22572e-07
4.90488e-07
-3.2999e-07
-1.14509e-07
5.06808e-07
-3.30904e-07
-1.02356e-07
5.22589e-07
-3.31217e-07
-8.71391e-08
5.37541e-07
-3.29936e-07
-7.1562e-08
5.51745e-07
-3.25863e-07
-6.01411e-08
5.65738e-07
-3.17805e-07
-5.82821e-08
5.7977e-07
-3.04947e-07
-7.14061e-08
5.95078e-07
-2.87486e-07
-1.04225e-07
6.12893e-07
-2.65573e-07
-1.60759e-07
6.38464e-07
-2.38356e-07
-2.41986e-07
6.70828e-07
-2.04517e-07
-3.34647e-07
6.9305e-07
-1.65939e-07
-3.95515e-07
6.74965e-07
-1.37006e-07
-3.45667e-07
6.00158e-07
-1.50971e-07
-9.88212e-08
5.28612e-07
-2.27395e-07
4.16273e-07
5.05612e-07
-3.41056e-07
1.23036e-06
4.26736e-07
-4.3919e-07
1.96171e-06
4.35462e-07
-2.92757e-07
2.2013e-06
4.98379e-07
1.73966e-07
2.39826e-06
1.81096e-07
9.37689e-08
2.90957e-06
-4.48856e-08
-3.59941e-07
5.06162e-06
-2.00293e-06
-6.5594e-07
8.74176e-06
-9.7484e-06
-8.0971e-07
7.13076e-06
-1.40714e-05
-1.38828e-09
-2.82225e-06
-1.25408e-05
5.0854e-06
-1.3753e-05
-1.10318e-05
6.14781e-06
-1.94213e-05
-7.79275e-06
-3.26156e-06
-2.1019e-05
-8.61137e-06
-4.18793e-06
-2.02244e-07
-4.09158e-06
-1.18454e-05
4.45142e-06
-2.02862e-05
8.39072e-07
-2.42947e-06
2.00309e-05
1.9943e-05
6.73309e-07
-6.98109e-06
-3.79916e-06
1.53327e-06
-3.62057e-05
-7.10251e-06
-1.01543e-05
-1.27848e-05
5.33857e-06
-1.30633e-05
-1.63931e-05
-2.17134e-06
-1.32582e-05
-7.60123e-06
-2.33904e-06
-1.32736e-05
-4.12769e-06
-2.00816e-06
-1.31086e-05
-2.76205e-06
4.48176e-08
-1.37511e-05
-2.81647e-06
1.65742e-06
-1.42584e-05
-1.73239e-06
1.13732e-06
-1.44533e-05
-4.1124e-07
-1.27128e-07
-1.45153e-05
1.32886e-06
-7.36854e-07
-1.49035e-05
2.11611e-06
-2.2972e-07
-1.52893e-05
2.44987e-06
1.63498e-07
-1.54093e-05
2.52317e-06
-2.03837e-07
-1.58643e-05
3.43154e-06
-3.85973e-07
-1.69856e-05
5.10361e-06
-5.95306e-07
-1.82195e-05
6.69538e-06
-5.2147e-07
-1.94067e-05
9.6263e-06
2.29105e-07
-2.0181e-05
1.27726e-05
8.38657e-07
-2.01221e-05
1.501e-05
1.05433e-06
-1.91581e-05
1.53711e-05
1.53701e-06
-1.91614e-05
1.46012e-05
1.72484e-06
-2.04613e-05
1.31088e-05
1.35497e-06
-2.26145e-05
1.17433e-05
1.07064e-06
-2.4648e-05
1.0956e-05
-3.67228e-07
-2.59258e-05
1.13316e-05
-2.28354e-06
-2.64403e-05
1.07927e-05
-3.0355e-06
-2.58423e-05
8.07312e-06
-2.42033e-06
-2.423e-05
2.74294e-06
-1.4763e-06
-2.27272e-05
-1.28041e-06
-9.43286e-07
-2.11374e-05
-3.67679e-06
-8.61684e-07
-1.96959e-05
-5.84133e-06
-8.49423e-07
-1.72665e-05
-8.41269e-06
-1.51912e-06
-1.35275e-05
-1.012e-05
-2.09152e-06
-9.21112e-06
-1.09556e-05
-2.82917e-06
-4.79502e-06
-1.04438e-05
-3.72296e-06
-1.06245e-05
-4.67309e-06
-4.17802e-06
-3.84767e-06
-2.37814e-08
-2.9139e-06
-4.59973e-06
-1.1558e-06
-2.8391e-06
-3.57313e-06
-1.89414e-07
-2.05536e-06
-4.1105e-06
-7.2666e-07
-1.5087e-06
-3.84189e-06
-2.36965e-07
-8.23636e-07
-3.74323e-06
-5.77983e-08
-2.99386e-07
-2.48309e-06
3.89166e-07
-1.26219e-07
-1.2963e-06
4.03588e-07
1.66164e-08
1.6496e-09
1.85229e-07
4.00279e-08
5.09674e-07
3.47358e-08
5.76153e-08
5.79974e-07
-8.30126e-08
-1.59565e-07
7.85711e-07
-6.18675e-08
-3.59076e-07
7.96665e-07
-1.30456e-07
-5.0459e-07
6.90447e-07
-1.7415e-07
-5.08385e-07
5.0611e-07
-2.49033e-07
-4.61815e-07
4.35348e-07
-2.94839e-07
-3.97239e-07
4.50866e-07
-3.26111e-07
-3.40042e-07
4.80927e-07
-3.4586e-07
-2.91586e-07
5.40026e-07
-3.54594e-07
-2.49857e-07
5.79278e-07
-3.6025e-07
-2.17362e-07
6.25149e-07
-3.58278e-07
-1.93531e-07
6.59992e-07
-3.52678e-07
-1.78956e-07
6.92243e-07
-3.44311e-07
-1.71449e-07
7.18053e-07
-3.36228e-07
-1.68851e-07
7.39671e-07
-3.28798e-07
-1.69069e-07
7.58039e-07
-3.22648e-07
-1.70176e-07
7.74172e-07
-3.18078e-07
-1.70201e-07
7.8833e-07
-3.15004e-07
-1.67883e-07
8.00901e-07
-3.12721e-07
-1.6285e-07
8.12423e-07
-3.10639e-07
-1.56406e-07
8.24049e-07
-3.07893e-07
-1.51319e-07
8.36181e-07
-3.03717e-07
-1.52185e-07
8.49596e-07
-2.96973e-07
-1.64549e-07
8.64441e-07
-2.86328e-07
-1.93095e-07
8.80446e-07
-2.72119e-07
-2.40204e-07
8.97251e-07
-2.55052e-07
-3.03779e-07
9.12925e-07
-2.36445e-07
-3.74566e-07
9.25425e-07
-2.1616e-07
-4.33319e-07
9.2883e-07
-1.99236e-07
-4.55696e-07
9.12177e-07
-1.96736e-07
-4.20475e-07
8.63894e-07
-2.24136e-07
-2.72046e-07
7.60059e-07
-3.08315e-07
1.15379e-07
6.13034e-07
-4.71832e-07
8.83684e-07
4.05106e-07
-6.67786e-07
1.92674e-06
1.15063e-07
-7.31371e-07
2.7013e-06
8.23064e-08
-4.21391e-07
2.93504e-06
5.18008e-08
2.12852e-07
3.30876e-06
-1.52296e-07
-4.03168e-08
4.29202e-06
-3.65878e-07
-6.62258e-07
7.02559e-06
-3.59195e-06
-1.14453e-06
8.76848e-06
-9.46757e-06
-2.02372e-06
7.89312e-06
-1.15574e-05
-1.63861e-06
4.63696e-06
-1.11493e-05
1.86468e-06
-3.44227e-06
-8.82526e-06
5.8727e-06
-5.77925e-06
-8.74177e-06
3.28603e-06
-5.60494e-06
-1.17368e-05
2.95112e-06
-9.22932e-06
2.38249e-06
-2.84949e-06
-1.91945e-05
-1.78545e-05
7.53339e-06
-2.98726e-07
-1.30568e-05
1.41911e-05
2.44561e-06
-7.41998e-06
-2.30538e-06
-1.21636e-06
-2.74472e-05
-5.09603e-06
-1.35702e-05
-5.55751e-06
5.12711e-06
-1.9591e-05
-1.03344e-05
-3.73858e-08
-2.16382e-05
-5.21347e-06
-3.40254e-07
-2.24887e-05
-3.00452e-06
-2.72249e-07
-2.30655e-05
-2.76686e-06
5.81923e-07
-2.40139e-05
-2.75004e-06
8.823e-07
-2.39612e-05
-2.33899e-06
5.5421e-07
-2.37628e-05
-8.05467e-07
1.96063e-07
-2.35906e-05
8.52245e-07
3.04725e-07
-2.34609e-05
1.11358e-06
8.73027e-07
-2.32837e-05
9.19231e-07
1.35376e-06
-2.30814e-05
8.53366e-07
1.4678e-06
-2.30093e-05
1.8365e-06
1.52322e-06
-2.36344e-05
4.06656e-06
1.66244e-06
-2.43864e-05
5.90245e-06
1.54527e-06
-2.42738e-05
7.91731e-06
1.59667e-06
-2.34737e-05
1.01215e-05
1.85141e-06
-2.24075e-05
1.19532e-05
1.99112e-06
-2.194e-05
1.26578e-05
2.24621e-06
-2.26713e-05
1.31192e-05
2.21391e-06
-2.47883e-05
1.32344e-05
1.99201e-06
-2.79252e-05
1.36605e-05
1.22036e-06
-3.04985e-05
1.3382e-05
1.48041e-07
-3.11884e-05
1.25638e-05
-5.41457e-07
-3.09799e-05
1.09905e-05
-4.05583e-07
-3.0326e-05
7.72538e-06
-3.05366e-07
-2.95141e-05
1.75896e-06
1.72726e-07
-2.74791e-05
-3.82884e-06
5.14042e-07
-2.54291e-05
-6.65274e-06
9.26552e-07
-2.44693e-05
-7.97233e-06
1.17157e-06
-2.34699e-05
-9.72081e-06
3.09017e-07
-2.04168e-05
-1.22347e-05
-9.38338e-07
-1.4515e-05
-1.36833e-05
-3.17402e-06
-6.77979e-06
-1.30193e-05
-5.15967e-06
-1.17214e-05
-5.68284e-06
-4.44498e-06
-3.40281e-06
-1.56775e-07
-2.98961e-06
-4.3277e-06
-1.72738e-06
-3.00767e-06
-3.05133e-06
-5.03731e-07
-2.13794e-06
-3.57868e-06
-1.40154e-06
-1.5216e-06
-3.45352e-06
-1.0047e-06
-6.9621e-07
-3.62423e-06
-9.44395e-07
3.34449e-08
-2.84662e-06
-3.66127e-07
1.62539e-07
-1.60459e-06
1.79188e-07
1.17461e-07
-1.71332e-07
2.18056e-07
1.03512e-07
4.60477e-07
6.31421e-08
1.87907e-07
5.59313e-07
-6.37374e-08
6.00047e-09
9.52298e-07
1.53159e-08
-1.93101e-07
1.05021e-06
-5.44454e-08
-3.65925e-07
9.74658e-07
-1.11389e-07
-3.8552e-07
7.63793e-07
-2.38091e-07
-3.69528e-07
7.19613e-07
-3.00258e-07
-3.37991e-07
7.62167e-07
-3.42839e-07
-3.1657e-07
8.16054e-07
-3.56549e-07
-2.99763e-07
8.86983e-07
-3.63765e-07
-2.84349e-07
9.30016e-07
-3.66153e-07
-2.71082e-07
9.76466e-07
-3.64584e-07
-2.61641e-07
1.00855e-06
-3.57996e-07
-2.56274e-07
1.03729e-06
-3.50415e-07
-2.54443e-07
1.05832e-06
-3.42099e-07
-2.54966e-07
1.07459e-06
-3.34391e-07
-2.56606e-07
1.08692e-06
-3.27237e-07
-2.5871e-07
1.09693e-06
-3.20656e-07
-2.60248e-07
1.10411e-06
-3.14235e-07
-2.61117e-07
1.10947e-06
-3.077e-07
-2.62339e-07
1.11513e-06
-3.01478e-07
-2.6666e-07
1.12292e-06
-2.94545e-07
-2.78392e-07
1.13393e-06
-2.86014e-07
-3.0262e-07
1.1494e-06
-2.75577e-07
-3.41991e-07
1.16679e-06
-2.62972e-07
-3.96184e-07
1.18324e-06
-2.48594e-07
-4.57483e-07
1.19357e-06
-2.35012e-07
-5.11771e-07
1.19186e-06
-2.2464e-07
-5.38524e-07
1.17314e-06
-2.20963e-07
-5.17533e-07
1.13596e-06
-2.28121e-07
-4.37648e-07
1.08704e-06
-2.54745e-07
-2.95483e-07
1.03674e-06
-3.15013e-07
-6.0205e-08
9.57362e-07
-4.32578e-07
3.65914e-07
8.11011e-07
-6.24094e-07
1.16245e-06
4.91007e-07
-8.82438e-07
2.17861e-06
5.79896e-08
-9.59086e-07
2.87959e-06
-6.22693e-08
-5.56413e-07
2.98183e-06
-2.11374e-07
1.60935e-07
3.94875e-06
-8.01369e-07
-3.17849e-07
5.87728e-06
-1.30926e-06
-9.85148e-07
6.62557e-06
-3.01438e-06
-1.32587e-06
4.90836e-06
-3.73641e-06
-4.01395e-06
4.17477e-06
-6.97305e-06
-3.85074e-06
1.78674e-06
-8.61776e-06
-1.43457e-07
-5.22674e-06
-4.36688e-06
2.55513e-06
-7.98723e-06
-6.74585e-06
7.64599e-07
-1.57149e-05
-5.46458e-06
1.45565e-06
3.13193e-06
-9.22922e-06
-7.23458e-06
1.23772e-05
-2.75394e-05
4.39421e-07
4.96608e-06
-1.45848e-05
8.93748e-06
-2.96219e-06
7.62576e-07
-2.534e-07
-3.00283e-05
-2.82309e-06
2.44368e-06
-3.94315e-05
1.40421e-06
2.44356e-06
-4.6897e-05
-2.23088e-06
-6.35876e-07
-4.97688e-05
-1.53479e-06
-8.04608e-07
-5.12696e-05
-1.17435e-06
-3.27119e-07
-5.33049e-05
-1.29313e-06
5.63754e-07
-5.41834e-05
-2.01897e-06
1.49674e-07
-5.33436e-05
-2.81223e-06
-3.64355e-07
-5.17516e-05
-1.98827e-06
-4.07059e-07
-5.01213e-05
-4.3369e-07
-3.42229e-07
-4.80802e-05
-5.70673e-07
-3.54805e-07
-4.53128e-05
-1.44432e-06
-4.01801e-07
-4.17009e-05
-2.57085e-06
-1.85696e-07
-3.75917e-05
-2.659e-06
3.88314e-07
-3.42917e-05
-2.01576e-07
9.69996e-07
-3.17163e-05
1.81982e-06
1.50917e-06
-2.96543e-05
3.80464e-06
2.05256e-06
-2.83619e-05
6.36628e-06
2.46489e-06
-2.79759e-05
8.80626e-06
2.76297e-06
-2.89893e-05
1.06504e-05
3.02311e-06
-3.11604e-05
1.23335e-05
2.9592e-06
-3.37481e-05
1.3095e-05
2.72955e-06
-3.55752e-05
1.29918e-05
2.49853e-06
-3.58476e-05
1.17651e-05
1.89199e-06
-3.4618e-05
1.0333e-05
1.00407e-06
-3.23796e-05
8.79394e-06
-3.88817e-08
-3.08168e-05
5.8516e-06
3.13949e-07
-3.00932e-05
-2.53273e-07
1.29163e-06
-2.86002e-05
-6.67212e-06
1.35328e-06
-2.72925e-05
-1.04413e-05
2.48374e-06
-2.62288e-05
-1.14908e-05
2.45735e-06
-2.63298e-05
-1.14853e-05
1.86788e-06
-2.46182e-05
-1.41625e-05
2.18266e-07
-1.94039e-05
-1.72196e-05
-1.67652e-06
-1.00915e-05
-1.81961e-05
-4.13479e-06
-1.61368e-05
-5.67589e-06
-4.64905e-06
-2.42903e-06
-1.16171e-07
-3.14783e-06
-3.52186e-06
-2.30706e-06
-3.18679e-06
-2.27924e-06
-7.33135e-07
-2.28863e-06
-2.67099e-06
-1.80585e-06
-1.60245e-06
-2.67377e-06
-1.46593e-06
-7.29263e-07
-2.98119e-06
-1.51623e-06
1.35736e-07
-2.50281e-06
-1.20882e-06
3.82739e-07
-1.3495e-06
-5.02098e-07
2.68546e-07
-3.97667e-08
-1.73797e-08
1.61871e-07
5.67731e-07
-5.86563e-10
1.75474e-07
6.73397e-07
-1.27693e-07
9.12168e-08
1.03947e-06
-2.92478e-09
2.57309e-08
1.22579e-06
-1.101e-07
-4.1337e-08
1.22317e-06
-1.81455e-07
-9.0957e-08
1.16215e-06
-3.48748e-07
-1.53671e-07
1.18931e-06
-4.06985e-07
-2.07362e-07
1.28509e-06
-4.6924e-07
-2.55324e-07
1.35114e-06
-4.87133e-07
-2.9185e-07
1.43034e-06
-5.06833e-07
-3.21141e-07
1.47758e-06
-5.18282e-07
-3.4577e-07
1.52816e-06
-5.2707e-07
-3.64114e-07
1.5595e-06
-5.32612e-07
-3.75241e-07
1.58294e-06
-5.3453e-07
-3.81774e-07
1.59931e-06
-5.34459e-07
-3.85684e-07
1.61167e-06
-5.33177e-07
-3.87866e-07
1.62105e-06
-5.31954e-07
-3.89326e-07
1.62859e-06
-5.30199e-07
-3.9055e-07
1.63368e-06
-5.28355e-07
-3.92944e-07
1.63821e-06
-5.26352e-07
-3.99112e-07
1.64457e-06
-5.23278e-07
-4.12733e-07
1.65471e-06
-5.18174e-07
-4.38182e-07
1.67025e-06
-5.10878e-07
-4.80641e-07
1.69339e-06
-5.01531e-07
-5.36402e-07
1.71559e-06
-4.93045e-07
-5.95504e-07
1.72936e-06
-4.87029e-07
-6.43033e-07
1.72677e-06
-4.85677e-07
-6.60284e-07
1.6999e-06
-4.90795e-07
-6.3052e-07
1.64973e-06
-5.06362e-07
-5.42272e-07
1.58542e-06
-5.37714e-07
-3.97916e-07
1.53144e-06
-5.88762e-07
-2.00779e-07
1.51052e-06
-6.70925e-07
6.95074e-08
1.49008e-06
-8.03012e-07
5.03117e-07
1.37995e-06
-1.00257e-06
1.197e-06
1.0305e-06
-1.23339e-06
1.96793e-06
5.29269e-07
-1.24223e-06
2.44884e-06
8.97092e-08
-6.32912e-07
2.72449e-06
-4.63884e-07
-2.31551e-08
4.70229e-06
-1.74989e-06
-1.02931e-06
7.35725e-06
-2.34901e-06
-1.61524e-06
5.70485e-06
4.67235e-07
-1.82923e-06
2.46021e-06
5.81615e-06
-6.30794e-06
-3.14206e-06
4.81702e-06
-6.18779e-06
-1.2324e-05
2.15499e-06
-1.59075e-06
-2.17239e-05
5.32066e-06
-2.87625e-07
-3.30884e-05
5.38064e-06
-7.61919e-07
-3.41711e-05
-1.16416e-06
-3.21748e-06
-5.40348e-06
-2.4914e-05
-1.30823e-05
2.90263e-06
-2.77708e-05
-8.07498e-06
7.18431e-06
-2.20991e-05
3.23054e-06
-5.4388e-06
1.17639e-05
1.62257e-06
-4.54368e-05
2.12898e-05
1.58877e-05
-6.02348e-05
7.85945e-06
8.34612e-06
-6.92364e-05
4.92881e-06
1.84548e-06
-7.22719e-05
3.5518e-06
-2.04731e-06
-7.34953e-05
4.1282e-06
-4.07534e-06
-7.42677e-05
3.98456e-06
-4.50144e-06
-7.5531e-05
3.4076e-06
-4.15944e-06
-7.71252e-05
1.49102e-06
-2.70512e-06
-7.83511e-05
4.5295e-07
-1.21135e-06
-7.79918e-05
1.10515e-07
-8.99462e-07
-7.71163e-05
-1.73606e-07
-1.26858e-06
-7.55863e-05
-7.00684e-07
-2.26964e-06
-7.31781e-05
-1.52415e-06
-3.45083e-06
-7.02365e-05
-2.40322e-06
-3.19348e-06
-6.67798e-05
-2.62381e-06
-1.03052e-06
-6.26256e-05
-2.9382e-06
6.07774e-07
-5.84284e-05
-2.04075e-06
1.65206e-06
-5.45546e-05
5.5722e-07
1.93913e-06
-5.1132e-05
3.0774e-06
2.31012e-06
-4.8899e-05
5.39924e-06
3.02211e-06
-4.71289e-05
7.39354e-06
3.17372e-06
-4.55375e-05
8.70938e-06
2.79827e-06
-4.38299e-05
9.32614e-06
1.96212e-06
-4.04377e-05
8.16265e-06
2.14276e-07
-3.46489e-05
6.92195e-06
-2.37382e-06
-2.63521e-05
5.87135e-06
-5.37032e-06
-1.69821e-05
3.63087e-06
-7.14568e-06
-9.79714e-06
-2.18755e-06
-5.24707e-06
-8.07346e-06
-1.20169e-05
3.62495e-06
-1.18664e-05
-1.35576e-05
6.91346e-06
-1.64325e-05
-1.16294e-05
4.70928e-06
-2.06739e-05
-1.09526e-05
3.71362e-06
-2.40502e-05
-1.27188e-05
1.93769e-06
-2.24218e-05
-1.51662e-05
-3.67684e-06
-1.42311e-05
-1.90203e-05
-7.36225e-06
-2.14693e-05
-8.89682e-06
-4.17657e-06
-3.23987e-07
2.10925e-06
-3.4251e-06
-2.89516e-06
-1.37817e-06
-3.80436e-06
-1.34173e-06
-5.58242e-07
-2.75887e-06
-2.05307e-06
-1.66341e-06
-1.94122e-06
-1.95204e-06
-1.53938e-06
-8.88736e-07
-2.42114e-06
-1.61254e-06
1.23494e-07
-1.98813e-06
-1.52691e-06
2.90343e-07
-7.5598e-07
-7.60376e-07
1.41873e-07
3.4937e-07
-2.40677e-07
1.16502e-07
5.43843e-07
4.92493e-08