/*--------------------------------*- C++ -*----------------------------------*\
| =========                 |                                                 |
| \\      /  F ield         | OpenFOAM: The Open Source CFD Toolbox           |
|  \\    /   O peration     | Version:  2.3.0                                 |
|   \\  /    A nd           | Web:      www.OpenFOAM.org                      |
|    \\/     M anipulation  |                                                 |
\*---------------------------------------------------------------------------*/
FoamFile
{
    version     2.0;
    format      ascii;
    class       surfaceScalarField;
    location    "20";
    object      phi.air;
}
// * * * * * * * * * * * * * * * * * * * * * * * * * * * * * * * * * * * * * //

dimensions      [0 3 -1 0 0 0 0];

internalField   nonuniform List<scalar> 
16448
(
-1.78365e-06
-1.99163e-06
7.26036e-07
-6.17222e-07
-2.03943e-06
8.73001e-07
-2.06067e-07
-1.51794e-06
1.10679e-06
1.53837e-07
-1.42028e-06
1.06038e-06
2.11378e-07
-9.5225e-07
8.94712e-07
2.67584e-07
-8.17416e-07
7.61213e-07
1.73182e-07
-4.42754e-07
5.37158e-07
1.04368e-08
-3.12765e-07
4.75512e-07
-2.09872e-07
-2.27603e-07
4.47913e-07
-4.09442e-07
-1.89873e-07
3.89444e-07
-5.41914e-07
-2.20107e-07
3.5258e-07
-5.28428e-07
-2.96151e-07
2.82666e-07
-4.585e-07
-3.47282e-07
2.77355e-07
-3.2781e-07
-3.96055e-07
2.65367e-07
-2.31126e-07
-4.10406e-07
3.13724e-07
-1.40997e-07
-4.3406e-07
3.43934e-07
-8.89903e-08
-4.40961e-07
3.88957e-07
-4.90317e-08
-4.54358e-07
4.14402e-07
-2.63245e-08
-4.61732e-07
4.39027e-07
-1.14466e-08
-4.66762e-07
4.51888e-07
-4.30043e-09
-4.67199e-07
4.60056e-07
-1.53534e-09
-4.65477e-07
4.62716e-07
-1.90031e-09
-4.61714e-07
4.62083e-07
-4.01306e-09
-4.5673e-07
4.58848e-07
-7.07768e-09
-4.50734e-07
4.53804e-07
-1.08487e-08
-4.43913e-07
4.4769e-07
-1.56272e-08
-4.36268e-07
4.41053e-07
-2.21143e-08
-4.27653e-07
4.34147e-07
-3.08366e-08
-4.1801e-07
4.2674e-07
-4.10466e-08
-4.08198e-07
4.18416e-07
-5.16198e-08
-3.97606e-07
4.08187e-07
-6.10656e-08
-3.85407e-07
3.94862e-07
-6.64763e-08
-3.71433e-07
3.76853e-07
-6.38184e-08
-3.55629e-07
3.52982e-07
-4.75302e-08
-3.38278e-07
3.22e-07
-1.26315e-08
-3.19742e-07
2.84855e-07
4.39236e-08
-3.00884e-07
2.4434e-07
1.14245e-07
-2.8009e-07
2.09781e-07
1.83308e-07
-2.5634e-07
1.8729e-07
2.22995e-07
-2.26431e-07
1.86757e-07
1.87819e-07
-1.83734e-07
2.18924e-07
7.5748e-09
-1.16375e-07
2.96634e-07
-4.00419e-07
-2.47053e-08
4.32714e-07
-1.08414e-06
1.27973e-07
5.55766e-07
-1.93358e-06
2.85481e-07
5.63975e-07
-2.69167e-06
2.39081e-07
5.19035e-07
-3.16475e-06
-1.39955e-07
6.13052e-07
-3.21749e-06
-7.35396e-07
7.88153e-07
-3.27352e-06
-1.07426e-06
1.13029e-06
-4.5303e-06
-5.13042e-07
1.76983e-06
-6.58473e-06
1.61719e-07
1.89273e-06
-6.07762e-06
-2.03499e-06
1.52789e-06
2.18525e-06
-1.08946e-05
2.63173e-06
1.03356e-05
-1.20312e-05
3.88092e-06
1.4013e-05
-9.693e-06
6.01559e-06
1.62048e-05
-7.2029e-06
5.01103e-06
1.00518e-05
-1.00925e-06
7.1622e-06
9.96325e-06
-1.22088e-07
2.09024e-07
-1.12515e-05
1.15625e-05
9.1875e-06
-3.32311e-05
-5.71941e-06
-5.26403e-06
-5.67011e-05
-2.46879e-05
8.49203e-06
-7.62293e-06
-5.92339e-06
1.39867e-05
3.69088e-05
-8.89601e-06
9.087e-06
3.89293e-05
-8.35518e-06
6.22407e-06
4.00998e-05
-5.9534e-06
4.52209e-06
4.04699e-05
-3.654e-06
3.22047e-06
4.04485e-05
-2.44213e-06
2.45335e-06
4.02651e-05
-1.8754e-06
2.04247e-06
4.0134e-05
-1.50386e-06
1.59806e-06
4.01705e-05
-1.14943e-06
1.10086e-06
4.02243e-05
-8.67047e-07
8.44132e-07
4.0649e-05
-8.01542e-07
3.64472e-07
4.11705e-05
-5.65097e-07
4.21383e-09
4.12886e-05
-6.04254e-08
-7.17846e-08
4.07796e-05
6.56145e-07
-1.50005e-07
3.92817e-05
1.60027e-06
-1.05434e-07
3.74674e-05
2.35142e-06
-5.75743e-07
3.38413e-05
3.98473e-06
-3.41363e-07
2.85887e-05
4.92466e-06
3.38744e-07
2.09518e-05
5.86759e-06
1.71378e-06
1.14224e-05
6.54336e-06
3.01218e-06
3.68976e-06
3.84751e-06
4.0352e-06
-1.81747e-06
1.59233e-06
4.03065e-06
-5.45441e-06
1.38438e-06
2.30472e-06
-6.96188e-06
1.41582e-06
1.60329e-07
-7.07211e-06
1.49052e-06
-1.26772e-06
-6.81011e-06
1.46565e-06
-1.58852e-06
-7.06652e-06
1.20966e-06
-8.15925e-07
-7.13344e-06
6.31357e-07
-4.97817e-07
-6.99887e-06
4.51376e-08
-1.57322e-07
-6.8642e-06
-1.65839e-07
2.48097e-08
-6.81238e-06
6.37753e-08
-1.37005e-07
-6.67079e-06
4.31424e-07
-5.97587e-07
-6.04005e-06
4.807e-07
-1.09287e-06
-4.03193e-06
-8.18982e-08
-1.92686e-06
-1.22495e-06
-2.27687e-06
-2.23593e-06
-2.91895e-06
8.22695e-08
-1.41469e-06
-3.05497e-06
1.94305e-07
-1.1e-06
-2.35053e-06
5.17901e-07
-6.5852e-07
-2.178e-06
3.16245e-07
-3.17295e-07
-1.50034e-06
2.06877e-07
-3.09946e-08
-1.19211e-06
8.84052e-08
-6.62785e-08
-4.16605e-07
9.14224e-09
-2.67396e-07
-1.62366e-07
5.07243e-08
-5.21463e-07
-3.10429e-08
5.75116e-08
-6.77978e-07
-6.17365e-08
2.83829e-08
-7.67533e-07
-1.42203e-07
1.16552e-08
-7.19104e-07
-2.85116e-07
-5.9459e-08
-6.39394e-07
-3.54904e-07
-7.20817e-08
-5.09365e-07
-4.33639e-07
-9.24383e-08
-3.9538e-07
-4.56334e-07
-6.805e-08
-2.80351e-07
-4.95192e-07
-5.38908e-08
-2.04993e-07
-4.96739e-07
-1.95734e-08
-1.44138e-07
-5.13575e-07
-1.62971e-09
-1.06092e-07
-5.1338e-07
1.36103e-08
-7.84454e-08
-5.1481e-07
2.04106e-08
-6.27339e-08
-5.08119e-07
2.52183e-08
-5.36338e-08
-5.00701e-07
2.61349e-08
-4.98256e-08
-4.90638e-07
2.51274e-08
-4.90357e-08
-4.79713e-07
2.22043e-08
-5.02379e-08
-4.6798e-07
1.84608e-08
-5.27828e-08
-4.5558e-07
1.42257e-08
-5.67134e-08
-4.42168e-07
9.84447e-09
-6.26727e-08
-4.27224e-07
5.54524e-09
-7.10744e-08
-4.10534e-07
9.40528e-10
-8.01241e-08
-3.92899e-07
-6.23302e-09
-8.78705e-08
-3.74225e-07
-1.56171e-08
-9.21715e-08
-3.53959e-07
-2.71298e-08
-8.93632e-08
-3.32254e-07
-4.19687e-08
-7.49957e-08
-3.09257e-07
-6.07208e-08
-4.42397e-08
-2.85776e-07
-8.32382e-08
5.87881e-09
-2.62869e-07
-1.06971e-07
7.32166e-08
-2.40114e-07
-1.28086e-07
1.48477e-07
-2.13199e-07
-1.42129e-07
2.1513e-07
-1.80001e-07
-1.4297e-07
2.48268e-07
-1.37003e-07
-1.22542e-07
2.06114e-07
-7.16476e-08
-6.99083e-08
2.33141e-08
4.30982e-08
2.33528e-08
-3.71268e-07
2.30245e-07
1.39659e-07
-1.00891e-06
5.44673e-07
2.20968e-07
-1.711e-06
8.15148e-07
1.72452e-07
-2.27674e-06
7.8048e-07
2.43722e-08
-2.77375e-06
3.332e-07
2.38882e-08
-3.21329e-06
-4.91111e-07
1.95286e-07
-3.6427e-06
-9.42838e-07
2.98019e-07
-4.185e-06
-3.66135e-07
3.95415e-07
-2.9743e-06
-1.04198e-06
-6.9762e-09
3.21074e-06
-6.32788e-06
-1.89215e-06
1.02522e-05
-1.70853e-05
-8.50789e-07
1.49633e-05
-1.7794e-05
1.05157e-06
1.74556e-05
-1.43177e-05
2.13238e-06
2.18585e-05
-1.25489e-05
9.4315e-07
1.93474e-05
-1.38011e-06
2.88195e-06
2.23105e-05
-2.14845e-06
-9.3692e-07
-5.79047e-06
2.3551e-05
1.58581e-05
-3.22947e-05
-8.80771e-06
-2.8997e-06
-7.19491e-05
-3.33045e-05
2.34979e-06
-2.94999e-05
-1.3099e-05
1.16538e-05
1.31394e-05
-1.57071e-05
5.89906e-06
1.43833e-05
-1.09889e-05
1.23313e-06
1.54146e-05
-5.94819e-06
-7.33925e-07
1.69878e-05
-3.8209e-06
-1.37131e-06
1.73622e-05
-1.60059e-06
-1.16344e-06
1.71297e-05
-9.33722e-07
-7.12957e-07
1.70276e-05
-6.44821e-07
-7.8431e-07
1.74654e-05
-3.63782e-07
-1.20975e-06
1.81203e-05
-1.854e-07
-1.2964e-06
1.88961e-05
-3.696e-07
-1.2079e-06
2.01645e-05
-5.68027e-07
-1.30234e-06
2.16551e-05
-2.69737e-07
-1.25616e-06
2.33257e-05
3.57117e-07
-1.30699e-06
2.49697e-05
1.59466e-06
-1.56459e-06
2.5595e-05
3.98501e-06
-2.13463e-06
2.4894e-05
6.3688e-06
-1.59194e-06
2.2596e-05
8.31383e-06
-1.0478e-06
1.6868e-05
1.11979e-05
3.94168e-07
8.3005e-06
1.24442e-05
2.64467e-06
-1.03149e-06
9.12208e-06
4.27156e-06
-7.8479e-06
5.52711e-06
2.99065e-06
-1.23513e-05
4.52086e-06
1.40744e-06
-1.39361e-05
4.05419e-06
-9.97337e-07
-1.33433e-05
3.49041e-06
-2.53619e-06
-1.12727e-05
2.50717e-06
-3.10764e-06
-9.69888e-06
1.35147e-06
-1.66244e-06
-8.75867e-06
4.7652e-07
-7.46648e-07
-8.10747e-06
-9.4024e-07
3.67455e-07
-7.30725e-06
-2.3008e-06
1.38044e-06
-6.60746e-06
-2.73795e-06
2.13349e-06
-6.26573e-06
-2.48783e-06
2.58179e-06
-5.79903e-06
-2.64011e-06
2.65585e-06
-3.96486e-06
-3.96852e-06
2.06233e-06
-5.66784e-06
1.06875e-06
-2.53794e-06
-3.40255e-06
-4.00485e-08
-1.78544e-06
-3.65666e-06
-1.50802e-07
-1.58566e-06
-2.85049e-06
3.00191e-07
-1.19373e-06
-2.76925e-06
1.99334e-07
-7.67032e-07
-2.02798e-06
1.00953e-07
-3.59956e-07
-1.58475e-06
-1.44304e-08
-2.56198e-07
-3.72298e-07
-1.48059e-07
-3.43905e-07
3.7576e-08
-1.1223e-07
-5.48363e-07
2.95956e-07
-1.22536e-07
-6.65788e-07
1.83866e-07
-1.28174e-07
-7.15749e-07
5.44445e-08
-1.46683e-07
-6.92823e-07
-1.01117e-07
-2.0692e-07
-6.622e-07
-1.53554e-07
-2.31967e-07
-5.96073e-07
-2.37497e-07
-2.62263e-07
-5.10905e-07
-2.75266e-07
-2.6623e-07
-4.0844e-07
-3.24805e-07
-2.72846e-07
-3.27536e-07
-3.21384e-07
-2.56251e-07
-2.53157e-07
-3.38171e-07
-2.49775e-07
-2.03457e-07
-3.25501e-07
-2.37571e-07
-1.65503e-07
-3.20321e-07
-2.32434e-07
-1.41946e-07
-3.04483e-07
-2.27184e-07
-1.26663e-07
-2.90513e-07
-2.25462e-07
-1.18388e-07
-2.73783e-07
-2.25119e-07
-1.14556e-07
-2.57253e-07
-2.26281e-07
-1.13843e-07
-2.40739e-07
-2.27941e-07
-1.15082e-07
-2.24286e-07
-2.30043e-07
-1.17421e-07
-2.07397e-07
-2.32417e-07
-1.20208e-07
-1.89318e-07
-2.35104e-07
-1.22475e-07
-1.69915e-07
-2.38337e-07
-1.23158e-07
-1.49721e-07
-2.4248e-07
-1.20474e-07
-1.29126e-07
-2.47767e-07
-1.12044e-07
-1.08111e-07
-2.54259e-07
-9.54216e-08
-8.71089e-08
-2.6175e-07
-6.87803e-08
-6.64014e-08
-2.69478e-07
-3.28161e-08
-4.61586e-08
-2.75562e-07
9.04304e-09
-2.59351e-08
-2.78773e-07
4.96009e-08
-4.74589e-09
-2.75905e-07
7.51678e-08
2.60791e-08
-2.64823e-07
7.21365e-08
6.5768e-08
-2.42715e-07
2.38783e-08
1.17178e-07
-2.05899e-07
-8.10987e-08
1.83475e-07
-1.50121e-07
-2.48402e-07
2.81573e-07
-7.11459e-08
-4.79708e-07
4.53118e-07
8.4594e-09
-6.7429e-07
7.31858e-07
7.42595e-09
-6.9985e-07
9.9075e-07
-1.50013e-07
-7.19273e-07
1.08278e-06
-2.82852e-07
-1.09911e-06
9.4926e-07
-2.36191e-07
-1.73546e-06
3.35294e-07
-1.90025e-07
-1.99831e-06
-1.99385e-07
-4.80582e-07
-1.73803e-06
2.49451e-08
-6.51331e-07
1.69207e-06
-3.53811e-06
-9.33948e-07
8.89863e-06
-1.2448e-05
-1.08649e-06
1.0404e-05
-1.99094e-05
1.31873e-06
7.64989e-06
-1.85681e-05
3.52826e-06
8.36706e-06
-1.63849e-05
1.35009e-06
1.50935e-05
-1.6484e-05
-2.7913e-06
1.65199e-05
2.26267e-06
-5.0692e-06
2.42659e-05
-5.91795e-06
-3.97645e-06
-4.35188e-06
3.1848e-05
1.99936e-05
-3.44347e-05
-1.20413e-05
-1.10966e-06
-8.50982e-05
-3.8119e-05
-1.04652e-06
-4.22099e-05
-1.93849e-05
8.80616e-06
2.83809e-06
-1.80544e-05
3.63891e-06
8.24139e-07
-7.94664e-06
6.51293e-07
3.57992e-06
-4.92006e-06
-1.90115e-06
3.55879e-06
-2.81642e-06
-1.75498e-07
4.1797e-06
-1.79751e-06
2.14683e-07
5.7854e-06
-1.95347e-06
-6.2302e-08
8.46788e-06
-2.61929e-06
-7.48069e-07
1.12886e-05
-1.82435e-06
-1.38564e-06
1.36347e-05
-8.74709e-07
-1.70104e-06
1.52695e-05
-2.14216e-07
-1.8379e-06
1.65556e-05
-1.10831e-07
-1.77272e-06
1.7639e-05
-5.95591e-08
-1.29439e-06
1.82959e-05
4.3883e-07
-8.15683e-07
1.82448e-05
2.19798e-06
-6.43245e-07
1.74946e-05
6.18663e-06
-1.48476e-06
1.55148e-05
1.00187e-05
-1.71931e-06
1.1632e-05
1.35778e-05
-1.38258e-06
5.55866e-06
1.70792e-05
2.94305e-07
-1.44209e-06
1.65655e-05
3.09325e-06
-7.87761e-06
1.18715e-05
3.89463e-06
-1.30996e-05
8.87112e-06
1.95279e-06
-1.64959e-05
7.08737e-06
8.70251e-07
-1.71804e-05
6.12327e-06
-1.38047e-06
-1.58062e-05
5.44871e-06
-2.91991e-06
-1.40412e-05
4.31554e-06
-2.96482e-06
-1.34799e-05
2.0272e-06
-1.17032e-06
-1.31688e-05
-1.8912e-07
4.5003e-07
-1.27753e-05
-2.66645e-06
1.44524e-06
-1.24323e-05
-4.65545e-06
2.07276e-06
-1.16672e-05
-6.03288e-06
2.50128e-06
-1.02659e-05
-6.55302e-06
2.58946e-06
-7.97124e-06
-7.46907e-06
2.40982e-06
-5.22143e-06
-8.59511e-06
1.72921e-06
-9.67062e-06
-4.50057e-07
-3.10138e-06
-3.73194e-06
9.67824e-09
-2.15176e-06
-4.17745e-06
-4.28825e-07
-1.93673e-06
-3.36982e-06
3.04309e-07
-1.48968e-06
-3.47579e-06
2.59494e-07
-1.0454e-06
-2.79346e-06
3.21206e-07
-6.19388e-07
-2.27264e-06
2.61889e-07
-3.14755e-07
-7.55432e-07
7.85074e-08
-1.82761e-07
-1.42813e-07
4.83997e-08
-3.04622e-07
4.86216e-07
-6.83959e-08
-4.48512e-07
4.40719e-07
-1.12959e-07
-5.15401e-07
3.02092e-07
-1.80754e-07
-5.76353e-07
1.91506e-07
-2.31667e-07
-6.10774e-07
1.52517e-07
-2.71644e-07
-6.10343e-07
6.71421e-08
-3.05064e-07
-5.57963e-07
-1.12262e-09
-3.26517e-07
-4.77208e-07
-6.04908e-08
-3.45062e-07
-3.94866e-07
-5.87876e-08
-3.44931e-07
-3.12193e-07
-7.10763e-08
-3.4976e-07
-2.50073e-07
-4.55148e-08
-3.42098e-07
-2.00437e-07
-3.09714e-08
-3.38977e-07
-1.68655e-07
-2.74138e-09
-3.33514e-07
-1.47355e-07
1.89016e-08
-3.30704e-07
-1.35254e-07
4.24989e-08
-3.28371e-07
-1.29318e-07
6.42445e-08
-3.27422e-07
-1.27804e-07
8.50828e-08
-3.27323e-07
-1.29109e-07
1.05087e-07
-3.28055e-07
-1.31665e-07
1.24693e-07
-3.2952e-07
-1.33705e-07
1.44365e-07
-3.31629e-07
-1.33455e-07
1.64203e-07
-3.34352e-07
-1.29522e-07
1.83953e-07
-3.37591e-07
-1.20829e-07
2.03511e-07
-3.41313e-07
-1.06443e-07
2.22806e-07
-3.45286e-07
-8.63466e-08
2.41443e-07
-3.4863e-07
-6.21115e-08
2.59337e-07
-3.49954e-07
-3.76843e-08
2.76664e-07
-3.4723e-07
-1.94374e-08
2.94449e-07
-3.38611e-07
-1.58816e-08
3.14482e-07
-3.22763e-07
-3.43023e-08
3.43553e-07
-2.99031e-07
-8.74834e-08
3.85064e-07
-2.66091e-07
-1.82913e-07
4.34428e-07
-2.21797e-07
-3.07211e-07
4.77068e-07
-1.6927e-07
-4.03396e-07
4.99012e-07
-1.21228e-07
-3.93894e-07
5.48038e-07
-1.04395e-07
-1.84717e-07
6.79626e-07
-1.56918e-07
3.18287e-07
8.01606e-07
-3.13831e-07
8.32617e-07
8.74035e-07
-3.05554e-07
8.70953e-07
9.11913e-07
-9.61752e-10
7.06748e-07
4.71804e-07
2.77226e-08
8.03999e-07
1.06454e-07
-4.03063e-07
1.83898e-06
-5.06846e-07
-5.03163e-07
5.55318e-06
-6.87798e-06
-3.74325e-07
9.41275e-06
-1.56838e-05
-6.23828e-07
2.50487e-06
-1.74084e-05
4.40681e-06
-7.49286e-06
-1.58148e-05
7.24452e-06
-8.29934e-06
-1.67227e-05
1.14428e-06
-6.05184e-06
-1.43971e-05
-4.33426e-06
8.12172e-06
4.87956e-06
-1.67904e-05
2.16303e-05
-1.47933e-05
-4.63323e-06
-7.93023e-07
3.30943e-05
2.03879e-05
-4.18725e-05
-8.28855e-06
-3.83035e-06
-0.000112848
-3.88203e-05
-2.13334e-06
-0.000111828
-1.67835e-05
4.85704e-06
-0.000109541
-1.5249e-05
3.48577e-07
-9.80336e-05
-7.10168e-06
2.49337e-07
-7.95614e-05
-3.92761e-06
-3.16238e-06
-8.21132e-05
-2.15015e-06
-3.76992e-06
-8.63531e-05
-1.41358e-06
-3.62647e-06
-4.02768e-05
-4.32978e-07
-3.70612e-06
3.59582e-06
-6.8405e-08
-3.99458e-06
5.60025e-06
1.07315e-06
-3.82011e-06
7.07915e-06
1.67617e-06
-2.45894e-06
6.62096e-06
2.28608e-06
-5.72704e-07
4.50749e-06
2.3988e-06
2.68163e-07
2.28842e-06
3.17998e-06
-7.21761e-08
4.90962e-07
4.72533e-06
-4.70274e-07
-4.45443e-07
6.56377e-06
-3.79118e-07
-1.51375e-06
1.01515e-05
2.87836e-07
-3.83355e-06
1.35898e-05
1.79917e-06
-6.82527e-06
1.60284e-05
2.80888e-06
-9.55346e-06
1.70143e-05
3.6478e-06
-1.24831e-05
1.52184e-05
3.73713e-06
-1.56689e-05
1.23711e-05
2.1485e-06
-1.87194e-05
1.01042e-05
1.57794e-06
-2.09417e-05
8.53637e-06
4.29876e-07
-5.53547e-05
7.98019e-06
-8.71957e-07
-8.92434e-05
6.84842e-06
-1.80694e-06
-5.5406e-05
5.18597e-06
-1.80069e-06
-2.10576e-05
1.73792e-06
-5.90565e-07
-1.97268e-05
-1.22079e-06
-3.11303e-07
-1.83898e-05
-3.45274e-06
-3.54769e-07
-1.69187e-05
-5.74346e-06
-3.05294e-07
-1.49501e-05
-7.5246e-06
-3.77446e-07
-1.25414e-05
-8.30673e-06
-7.12312e-07
-9.38606e-06
-9.19577e-06
-1.38382e-06
-5.85122e-06
-9.74745e-06
-2.45346e-06
-1.0506e-05
-3.4535e-06
-3.8021e-06
-3.92915e-06
1.08105e-07
-2.70637e-06
-4.49141e-06
-7.81755e-07
-2.48711e-06
-3.68775e-06
9.86877e-08
-1.8511e-06
-4.05343e-06
-5.83702e-08
-1.41718e-06
-3.5322e-06
3.04829e-07
-9.74299e-07
-3.11597e-06
4.00453e-07
-5.3743e-07
-1.56968e-06
3.77381e-07
-1.96203e-07
-7.19545e-07
2.35508e-07
-7.30611e-08
3.29714e-07
3.33621e-08
-1.58861e-07
5.67822e-07
-4.13002e-08
-2.38921e-07
5.14548e-07
-1.32394e-07
-4.02712e-07
5.06663e-07
-1.51363e-07
-5.12749e-07
4.66696e-07
-2.04138e-07
-5.77679e-07
3.70781e-07
-2.38704e-07
-5.53375e-07
2.53278e-07
-2.787e-07
-4.95429e-07
1.87077e-07
-3.05508e-07
-4.19436e-07
1.89327e-07
-3.24101e-07
-3.43246e-07
1.9226e-07
-3.3952e-07
-2.79678e-07
2.33883e-07
-3.42958e-07
-2.24943e-07
2.60753e-07
-3.46452e-07
-1.8363e-07
2.9936e-07
-3.43406e-07
-1.54846e-07
3.31139e-07
-3.41012e-07
-1.37678e-07
3.625e-07
-3.3716e-07
-1.2874e-07
3.89326e-07
-3.34008e-07
-1.25533e-07
4.13463e-07
-3.31576e-07
-1.2561e-07
4.35165e-07
-3.2999e-07
-1.26669e-07
4.54978e-07
-3.29214e-07
-1.26292e-07
4.73293e-07
-3.29291e-07
-1.22573e-07
4.90488e-07
-3.2999e-07
-1.1451e-07
5.06808e-07
-3.30904e-07
-1.02357e-07
5.22589e-07
-3.31217e-07
-8.71404e-08
5.37541e-07
-3.29936e-07
-7.15632e-08
5.51745e-07
-3.25863e-07
-6.01424e-08
5.65738e-07
-3.17805e-07
-5.82834e-08
5.7977e-07
-3.04947e-07
-7.14074e-08
5.95078e-07
-2.87486e-07
-1.04226e-07
6.12893e-07
-2.65573e-07
-1.60761e-07
6.38464e-07
-2.38356e-07
-2.41987e-07
6.70828e-07
-2.04517e-07
-3.34648e-07
6.9305e-07
-1.65939e-07
-3.95517e-07
6.74965e-07
-1.37006e-07
-3.45668e-07
6.00158e-07
-1.50971e-07
-9.88226e-08
5.28612e-07
-2.27395e-07
4.16272e-07
5.05612e-07
-3.41056e-07
1.23035e-06
4.26736e-07
-4.3919e-07
1.96171e-06
4.35462e-07
-2.92757e-07
2.2013e-06
4.98379e-07
1.73966e-07
2.39826e-06
1.81096e-07
9.37689e-08
2.90956e-06
-4.48857e-08
-3.59941e-07
5.0616e-06
-2.00293e-06
-6.5594e-07
8.74172e-06
-9.7484e-06
-8.09712e-07
7.13065e-06
-1.40714e-05
-1.39552e-09
-2.82242e-06
-1.25407e-05
5.0854e-06
-1.37532e-05
-1.10318e-05
6.14782e-06
-1.94215e-05
-7.79274e-06
-3.26155e-06
-2.10191e-05
-8.61137e-06
-4.18792e-06
-2.02661e-07
-4.09161e-06
-1.18454e-05
4.45139e-06
-2.02861e-05
8.39002e-07
-3.74774e-06
2.00309e-05
1.99431e-05
-4.60877e-05
-7.77893e-06
-4.23947e-06
-0.000121527
-3.60263e-05
-4.05017e-06
-0.000122165
-1.23371e-05
4.66439e-06
-0.000124143
-1.30957e-05
-1.00292e-06
-0.000126663
-5.98262e-06
-4.81702e-07
-0.000126957
-3.98936e-06
4.3072e-08
-0.000127793
-2.98978e-06
1.43309e-06
-0.000128689
-2.17142e-06
1.67104e-06
-0.000130047
-4.17243e-07
3.75965e-07
-0.00013028
5.75085e-07
-4.5481e-07
-0.000130039
1.85924e-06
-4.47578e-07
-0.000130852
2.01123e-06
3.66867e-07
-0.000131997
2.45315e-06
5.64047e-07
-0.00013183
3.1779e-06
4.43327e-07
-0.000131822
4.13806e-06
3.58645e-07
-0.000132871
6.03031e-06
2.95727e-07
-0.000132927
8.1152e-06
5.46749e-07
-0.00013292
1.08396e-05
1.25252e-06
-0.000133403
1.31425e-05
1.7542e-06
-0.000133177
1.45794e-05
2.01645e-06
-0.000133071
1.4749e-05
2.13052e-06
-0.000135082
1.38419e-05
2.09109e-06
-0.000138126
1.25081e-05
1.64028e-06
-0.000141106
1.12669e-05
1.24477e-06
-0.000144226
1.06301e-05
-4.20462e-07
-0.000147475
1.01507e-05
-1.85175e-06
-0.000149562
8.349e-06
-2.11915e-06
-0.000148948
4.9262e-06
-1.63936e-06
-0.000147889
3.64036e-07
-1.04368e-06
-0.000147153
-2.53106e-06
-8.26175e-07
-0.000145588
-4.95057e-06
-1.08072e-06
-0.000142905
-7.01266e-06
-1.35491e-06
-0.000135244
-8.76031e-06
-1.99162e-06
-0.000112885
-9.40871e-06
-2.45545e-06
-5.40701e-05
-9.59566e-06
-3.25504e-06
-7.50856e-06
-9.62342e-06
-3.91632e-06
-9.97418e-06
-4.62186e-06
-4.17802e-06
-3.84767e-06
-2.37814e-08
-2.9139e-06
-4.59973e-06
-1.1558e-06
-2.8391e-06
-3.57313e-06
-1.89414e-07
-2.05536e-06
-4.1105e-06
-7.2666e-07
-1.5087e-06
-3.84189e-06
-2.36965e-07
-8.23637e-07
-3.74323e-06
-5.77983e-08
-2.99387e-07
-2.48309e-06
3.89166e-07
-1.2622e-07
-1.2963e-06
4.03588e-07
1.66153e-08
1.64959e-09
1.85229e-07
4.00268e-08
5.09674e-07
3.47358e-08
5.76142e-08
5.79974e-07
-8.30126e-08
-1.59566e-07
7.85711e-07
-6.18675e-08
-3.59077e-07
7.96665e-07
-1.30456e-07
-5.04591e-07
6.90447e-07
-1.7415e-07
-5.08386e-07
5.0611e-07
-2.49033e-07
-4.61816e-07
4.35348e-07
-2.94839e-07
-3.9724e-07
4.50866e-07
-3.26111e-07
-3.40043e-07
4.80927e-07
-3.4586e-07
-2.91588e-07
5.40026e-07
-3.54594e-07
-2.49858e-07
5.79278e-07
-3.6025e-07
-2.17363e-07
6.25149e-07
-3.58278e-07
-1.93533e-07
6.59992e-07
-3.52678e-07
-1.78958e-07
6.92243e-07
-3.44311e-07
-1.7145e-07
7.18053e-07
-3.36228e-07
-1.68852e-07
7.39671e-07
-3.28798e-07
-1.69071e-07
7.58039e-07
-3.22648e-07
-1.70178e-07
7.74172e-07
-3.18078e-07
-1.70202e-07
7.8833e-07
-3.15004e-07
-1.67885e-07
8.00901e-07
-3.12721e-07
-1.62852e-07
8.12423e-07
-3.10639e-07
-1.56407e-07
8.24049e-07
-3.07893e-07
-1.5132e-07
8.36181e-07
-3.03717e-07
-1.52187e-07
8.49596e-07
-2.96973e-07
-1.64551e-07
8.64441e-07
-2.86328e-07
-1.93096e-07
8.80446e-07
-2.72119e-07
-2.40206e-07
8.97251e-07
-2.55052e-07
-3.03781e-07
9.12925e-07
-2.36445e-07
-3.74568e-07
9.25425e-07
-2.1616e-07
-4.3332e-07
9.2883e-07
-1.99236e-07
-4.55697e-07
9.12177e-07
-1.96736e-07
-4.20476e-07
8.63894e-07
-2.24136e-07
-2.72047e-07
7.60059e-07
-3.08315e-07
1.15377e-07
6.13034e-07
-4.71832e-07
8.83683e-07
4.05106e-07
-6.67786e-07
1.92674e-06
1.15063e-07
-7.31371e-07
2.7013e-06
8.23064e-08
-4.21391e-07
2.93504e-06
5.18008e-08
2.12852e-07
3.30876e-06
-1.52296e-07
-4.03168e-08
4.29202e-06
-3.65878e-07
-6.62258e-07
7.02556e-06
-3.59195e-06
-1.14453e-06
8.76841e-06
-9.46757e-06
-2.02373e-06
7.89298e-06
-1.15574e-05
-1.63862e-06
4.63676e-06
-1.11493e-05
1.8647e-06
-3.44245e-06
-8.82526e-06
5.87272e-06
-5.77941e-06
-8.74179e-06
3.28604e-06
-5.605e-06
-1.17368e-05
2.95113e-06
-9.22955e-06
2.38251e-06
-2.84953e-06
-1.91946e-05
-1.78545e-05
7.5333e-06
-2.98311e-06
-1.30568e-05
1.41911e-05
-5.18753e-05
-7.93724e-06
-3.05907e-06
-0.000129553
-2.49143e-05
-3.0556e-06
-0.000132094
-5.64578e-06
5.38308e-06
-0.000136487
-8.88319e-06
3.47255e-07
-0.000140988
-4.1461e-06
5.56125e-07
-0.000141917
-3.37956e-06
5.65068e-07
-0.000143609
-2.95804e-06
1.16664e-06
-0.000145476
-2.27913e-06
1.26475e-06
-0.000145765
-1.37142e-06
1.00902e-06
-0.000146106
9.50004e-08
8.22634e-07
-0.000147
1.17779e-06
1.09e-06
-0.000147047
8.87896e-07
1.56085e-06
-0.000147621
8.65013e-07
1.91198e-06
-0.000148908
1.50935e-06
1.98904e-06
-0.000149067
2.64469e-06
2.16724e-06
-0.000149468
4.51756e-06
2.30483e-06
-0.000150823
6.35927e-06
2.30945e-06
-0.000151254
8.30542e-06
2.56443e-06
-0.000151295
1.04654e-05
2.80254e-06
-0.000151702
1.20202e-05
2.94557e-06
-0.000151569
1.26939e-05
2.96979e-06
-0.000152427
1.34399e-05
2.91959e-06
-0.000155642
1.32386e-05
2.77513e-06
-0.000159127
1.29413e-05
1.86539e-06
-0.00016137
1.17759e-05
9.63866e-07
-0.000162397
1.04293e-05
2.61751e-07
-0.000162472
7.95901e-06
2.72213e-07
-0.00016201
4.24439e-06
8.9012e-08
-0.000161233
-6.86524e-07
5.25709e-07
-0.000160072
-4.86176e-06
5.91922e-07
-0.000159111
-7.41613e-06
5.39799e-07
-0.000158852
-8.83596e-06
1.24845e-07
-0.000157507
-1.05989e-05
-1.15721e-06
-0.000153826
-1.16924e-05
-2.52402e-06
-0.000147962
-1.13687e-05
-4.13998e-06
-0.00014009
-9.90048e-06
-4.86768e-06
-8.88783e-06
-4.35354e-06
-4.44498e-06
-3.40281e-06
-1.56775e-07
-2.98961e-06
-4.3277e-06
-1.72738e-06
-3.00767e-06
-3.05133e-06
-5.03731e-07
-2.13794e-06
-3.57868e-06
-1.40154e-06
-1.5216e-06
-3.45352e-06
-1.0047e-06
-6.96211e-07
-3.62423e-06
-9.44395e-07
3.34441e-08
-2.84662e-06
-3.66127e-07
1.62538e-07
-1.60459e-06
1.79188e-07
1.1746e-07
-1.71332e-07
2.18056e-07
1.03511e-07
4.60477e-07
6.31421e-08
1.87906e-07
5.59313e-07
-6.37374e-08
5.99929e-09
9.52298e-07
1.53159e-08
-1.93102e-07
1.05021e-06
-5.44453e-08
-3.65926e-07
9.74658e-07
-1.11389e-07
-3.85521e-07
7.63793e-07
-2.38091e-07
-3.69529e-07
7.19613e-07
-3.00258e-07
-3.37992e-07
7.62167e-07
-3.42839e-07
-3.16571e-07
8.16054e-07
-3.56549e-07
-2.99764e-07
8.86983e-07
-3.63765e-07
-2.8435e-07
9.30016e-07
-3.66153e-07
-2.71083e-07
9.76466e-07
-3.64584e-07
-2.61642e-07
1.00855e-06
-3.57996e-07
-2.56275e-07
1.03729e-06
-3.50415e-07
-2.54444e-07
1.05832e-06
-3.42099e-07
-2.54968e-07
1.07459e-06
-3.34391e-07
-2.56607e-07
1.08692e-06
-3.27237e-07
-2.58712e-07
1.09693e-06
-3.20656e-07
-2.60249e-07
1.10411e-06
-3.14235e-07
-2.61118e-07
1.10947e-06
-3.077e-07
-2.6234e-07
1.11513e-06
-3.01478e-07
-2.66661e-07
1.12292e-06
-2.94545e-07
-2.78393e-07
1.13393e-06
-2.86014e-07
-3.02621e-07
1.1494e-06
-2.75577e-07
-3.41992e-07
1.16679e-06
-2.62972e-07
-3.96186e-07
1.18324e-06
-2.48594e-07
-4.57484e-07
1.19357e-06
-2.35012e-07
-5.11772e-07
1.19186e-06
-2.2464e-07
-5.38526e-07
1.17314e-06
-2.20963e-07
-5.17534e-07
1.13596e-06
-2.28121e-07
-4.3765e-07
1.08704e-06
-2.54745e-07
-2.95484e-07
1.03674e-06
-3.15013e-07
-6.02064e-08
9.57362e-07
-4.32578e-07
3.65913e-07
8.11011e-07
-6.24094e-07
1.16245e-06
4.91007e-07
-8.82438e-07
2.17861e-06
5.79896e-08
-9.59086e-07
2.87959e-06
-6.22693e-08
-5.56413e-07
2.98183e-06
-2.11374e-07
1.60935e-07
3.94874e-06
-8.01369e-07
-3.17849e-07
5.87727e-06
-1.30926e-06
-9.85148e-07
6.62554e-06
-3.01438e-06
-1.32587e-06
4.90827e-06
-3.73641e-06
-4.01396e-06
4.17462e-06
-6.97305e-06
-3.85074e-06
1.78655e-06
-8.61776e-06
-1.4345e-07
-5.22692e-06
-4.36687e-06
2.55515e-06
-7.9874e-06
-6.74585e-06
7.64607e-07
-1.5715e-05
-5.46457e-06
1.45565e-06
3.13153e-06
-9.22921e-06
-7.23461e-06
1.23769e-05
-2.75394e-05
4.39396e-07
-2.00006e-06
-1.45848e-05
8.93747e-06
-7.39858e-05
1.53594e-06
-3.42077e-07
-0.000157037
-2.49636e-06
3.56172e-06
-0.00016375
8.2299e-07
3.16538e-06
-0.000170736
-2.00264e-06
3.39672e-07
-0.000174123
-1.14073e-06
3.10858e-07
-0.000176083
-1.40238e-06
5.65165e-07
-0.0001789
-1.65422e-06
7.81601e-07
-0.00018018
-2.18426e-06
4.68822e-07
-0.000179748
-2.36159e-06
2.39654e-07
-0.000178882
-1.42885e-06
1.38788e-07
-0.000177607
-7.28956e-07
3.35356e-07
-0.000175932
-1.14559e-06
2.49798e-07
-0.000173503
-1.85395e-06
3.18948e-07
-0.000170422
-2.30568e-06
6.8931e-07
-0.000167258
-1.41733e-06
1.28365e-06
-0.000165092
8.40195e-07
1.90505e-06
-0.000163488
2.73225e-06
2.50141e-06
-0.000162673
4.94037e-06
3.1007e-06
-0.000163263
7.59759e-06
3.50421e-06
-0.000163809
9.63464e-06
3.76432e-06
-0.000165808
1.10333e-05
4.01492e-06
-0.00016904
1.24323e-05
4.1575e-06
-0.000170629
1.23326e-05
3.89496e-06
-0.000171431
1.14665e-05
3.42473e-06
-0.000171888
9.31288e-06
2.61029e-06
-0.000171113
7.25594e-06
1.64872e-06
-0.000169895
4.50176e-06
9.51336e-07
-0.000169223
1.00525e-06
1.09414e-06
-0.000169138
-3.4718e-06
1.51462e-06
-0.000168934
-8.15499e-06
1.56865e-06
-0.000168488
-1.08275e-05
2.10699e-06
-0.000168438
-1.15335e-05
1.51543e-06
-0.000168389
-1.27306e-05
3.9061e-07
-0.000165965
-1.52692e-05
-1.42016e-06
-0.000160233
-1.63674e-05
-3.52235e-06
-0.000149844
-1.55511e-05
-5.26343e-06
-1.34443e-05
-5.57798e-06
-4.64905e-06
-2.42903e-06
-1.16171e-07
-3.14783e-06
-3.52186e-06
-2.30706e-06
-3.18679e-06
-2.27924e-06
-7.33135e-07
-2.28863e-06
-2.67099e-06
-1.80585e-06
-1.60245e-06
-2.67377e-06
-1.46593e-06
-7.29264e-07
-2.98119e-06
-1.51623e-06
1.35735e-07
-2.50281e-06
-1.20882e-06
3.82738e-07
-1.3495e-06
-5.02098e-07
2.68545e-07
-3.97667e-08
-1.73797e-08
1.6187e-07
5.67731e-07
-5.86555e-10
1.75472e-07
6.73397e-07
-1.27693e-07
9.12156e-08
1.03947e-06
-2.92478e-09
2.57297e-08
1.22579e-06
-1.101e-07
-4.13383e-08
1.22317e-06
-1.81455e-07
-9.09583e-08
1.16215e-06
-3.48748e-07
-1.53673e-07
1.18931e-06
-4.06985e-07
-2.07364e-07
1.28509e-06
-4.6924e-07
-2.55325e-07
1.35114e-06
-4.87133e-07
-2.91852e-07
1.43034e-06
-5.06833e-07
-3.21143e-07
1.47758e-06
-5.18282e-07
-3.45772e-07
1.52816e-06
-5.2707e-07
-3.64115e-07
1.5595e-06
-5.32612e-07
-3.75242e-07
1.58294e-06
-5.3453e-07
-3.81775e-07
1.59931e-06
-5.34459e-07
-3.85685e-07
1.61167e-06
-5.33177e-07
-3.87867e-07
1.62105e-06
-5.31954e-07
-3.89328e-07
1.62859e-06
-5.30199e-07
-3.90551e-07
1.63368e-06
-5.28355e-07
-3.92946e-07
1.63821e-06
-5.26352e-07
-3.99114e-07
1.64457e-06
-5.23278e-07
-4.12734e-07
1.65471e-06
-5.18174e-07
-4.38183e-07
1.67025e-06
-5.10878e-07
-4.80642e-07
1.69339e-06
-5.01531e-07
-5.36403e-07
1.71559e-06
-4.93045e-07
-5.95506e-07
1.72936e-06
-4.87029e-07
-6.43035e-07
1.72677e-06
-4.85677e-07
-6.60286e-07
1.6999e-06
-4.90795e-07
-6.30521e-07
1.64973e-06
-5.06362e-07
-5.42274e-07
1.58542e-06
-5.37714e-07
-3.97918e-07
1.53144e-06
-5.88762e-07
-2.0078e-07
1.51052e-06
-6.70925e-07
6.95057e-08
1.49008e-06
-8.03012e-07
5.03115e-07
1.37995e-06
-1.00257e-06
1.19699e-06
1.0305e-06
-1.23339e-06
1.96793e-06
5.29269e-07
-1.24223e-06
2.44884e-06
8.97092e-08
-6.32912e-07
2.72448e-06
-4.63884e-07
-2.31551e-08
4.70229e-06
-1.74989e-06
-1.02931e-06
7.35725e-06
-2.34901e-06
-1.61524e-06
5.70481e-06
4.67235e-07
-1.82923e-06
2.4601e-06
5.81615e-06
-6.30795e-06
-3.14223e-06
4.81701e-06
-6.18779e-06
-1.23242e-05
2.15499e-06
-1.59074e-06
-2.1724e-05
5.32067e-06
-2.87617e-07
-3.30885e-05
5.38065e-06
-7.61914e-07
-3.41712e-05
-1.16414e-06
-3.21747e-06
-5.40413e-06
-2.4914e-05
-1.30823e-05
2.90218e-06
-2.77708e-05
-8.075e-06
-1.68766e-06
-2.20991e-05
3.23055e-06
-9.00984e-05
1.42485e-05
2.73393e-06
-0.000192489
2.14649e-05
1.87099e-05
-0.000204979
7.00799e-06
5.86311e-06
-0.000212716
6.67884e-06
8.20211e-07
-0.000216334
4.48896e-06
-2.07643e-06
-0.000218476
4.3036e-06
-3.49226e-06
-0.000221208
3.70035e-06
-2.83211e-06
-0.000223914
2.92753e-06
-1.43479e-06
-0.000226751
1.46701e-06
-2.09656e-07
-0.000228639
4.80075e-07
1.86224e-07
-0.000228866
-3.32598e-08
-1.57456e-07
-0.000228668
-4.45474e-07
-1.17002e-06
-0.000227993
-1.23442e-06
-2.15368e-06
-0.000226278
-2.05963e-06
-2.12558e-06
-0.000224243
-2.59563e-06
-7.55217e-07
-0.000221971
-2.52558e-06
1.05368e-06
-0.00021871
-1.92365e-06
2.24665e-06
-0.000215724
-3.73886e-08
2.92936e-06
-0.00021335
2.60681e-06
3.22523e-06
-0.000211199
4.93333e-06
3.88563e-06
-0.000210062
6.66929e-06
4.46123e-06
-0.000209383
7.73341e-06
4.22028e-06
-0.000208194
7.72369e-06
3.48016e-06
-0.000206233
6.94366e-06
2.10514e-06
-0.000202069
5.37245e-06
-1.32411e-07
-0.000195689
3.46818e-06
-2.63179e-06
-0.000188589
8.24939e-07
-4.54808e-06
-0.000182362
-3.61952e-06
-4.07508e-06
-0.000179981
-9.07453e-06
2.7569e-07
-0.000182754
-1.22784e-05
5.22889e-06
-0.00018808
-1.23079e-05
5.81845e-06
-0.000192507
-1.13433e-05
3.92289e-06
-0.000196358
-1.22143e-05
2.06852e-06
-0.000198573
-1.47492e-05
-3.58624e-08
-0.000194877
-1.68587e-05
-6.15202e-06
-0.000183668
-1.95761e-05
-7.41071e-06
-2.03795e-05
-7.60173e-06
-4.17657e-06
-3.23987e-07
2.10925e-06
-3.4251e-06
-2.89516e-06
-1.37817e-06
-3.80436e-06
-1.34173e-06
-5.58242e-07
-2.75887e-06
-2.05307e-06
-1.66341e-06
-1.94122e-06
-1.95204e-06
-1.53938e-06
-8.88736e-07
-2.42114e-06
-1.61254e-06
1.23493e-07
-1.98813e-06
-1.52691e-06
2.90342e-07
-7.5598e-07
-7.60376e-07
1.41872e-07
3.4937e-07
-2.40677e-07
1.16501e-07
5.43843e-07
4.92493e-08
1.38284e-07
5.54014e-07