/*--------------------------------*- C++ -*----------------------------------*\
| =========                 |                                                 |
| \\      /  F ield         | OpenFOAM: The Open Source CFD Toolbox           |
|  \\    /   O peration     | Version:  2.3.0                                 |
|   \\  /    A nd           | Web:      www.OpenFOAM.org                      |
|    \\/     M anipulation  |                                                 |
\*---------------------------------------------------------------------------*/
FoamFile
{
    version     2.0;
    format      ascii;
    class       surfaceScalarField;
    location    "20";
    object      phi.water;
}
// * * * * * * * * * * * * * * * * * * * * * * * * * * * * * * * * * * * * * //

dimensions      [0 3 -1 0 0 0 0];

internalField   nonuniform List<scalar> 
16448
(
-2.27917e-06
-2.12745e-06
8.15073e-07
-9.86561e-07
-2.23288e-06
9.42152e-07
-5.44153e-07
-1.61836e-06
1.17762e-06
-6.87228e-08
-1.55073e-06
1.07693e-06
9.80452e-08
-9.858e-07
8.2164e-07
2.17924e-07
-8.49016e-07
7.32988e-07
1.67433e-07
-4.93336e-07
5.48901e-07
-3.68531e-08
-3.5139e-07
5.58659e-07
-3.2942e-07
-2.79336e-07
5.72735e-07
-5.53024e-07
-2.57953e-07
4.81634e-07
-6.65475e-07
-2.9382e-07
4.06594e-07
-6.08811e-07
-3.76976e-07
3.20466e-07
-4.85017e-07
-4.26557e-07
3.03069e-07
-3.13791e-07
-4.65156e-07
2.94093e-07
-1.8985e-07
-4.65233e-07
3.41594e-07
-8.51451e-08
-4.7999e-07
3.75484e-07
-2.00907e-08
-4.82205e-07
4.17418e-07
2.84187e-08
-4.91964e-07
4.4367e-07
5.90034e-08
-4.95742e-07
4.65403e-07
7.9188e-08
-4.98182e-07
4.78221e-07
9.13068e-08
-4.97951e-07
4.8606e-07
9.84638e-08
-4.96285e-07
4.8935e-07
1.0259e-07
-4.9361e-07
4.89715e-07
1.05029e-07
-4.90171e-07
4.87958e-07
1.063e-07
-4.86056e-07
4.85015e-07
1.06594e-07
-4.81349e-07
4.8128e-07
1.06043e-07
-4.76375e-07
4.77167e-07
1.05047e-07
-4.71595e-07
4.72828e-07
1.03733e-07
-4.66821e-07
4.68385e-07
1.01089e-07
-4.6127e-07
4.64152e-07
9.9839e-08
-4.57621e-07
4.59129e-07
9.33214e-08
-4.4968e-07
4.56437e-07
9.37483e-08
-4.49387e-07
4.49222e-07
8.03588e-08
-4.36118e-07
4.49739e-07
8.44049e-08
-4.42248e-07
4.38484e-07
6.30485e-08
-4.21164e-07
4.42721e-07
7.33041e-08
-4.35663e-07
4.25742e-07
4.40359e-08
-4.04242e-07
4.3363e-07
6.51377e-08
-4.275e-07
4.06822e-07
3.24213e-08
-3.83931e-07
4.16629e-07
8.07452e-08
-4.22841e-07
3.75038e-07
6.3969e-08
-3.66925e-07
3.83791e-07
1.48976e-07
-4.26725e-07
3.42279e-07
1.91667e-07
-3.97025e-07
3.54219e-07
2.71396e-07
-4.22591e-07
3.43699e-07
2.61786e-07
-4.37089e-07
4.46203e-07
1.44872e-07
-3.78301e-07
4.96085e-07
-7.99263e-08
-4.07795e-07
6.31466e-07
-5.22698e-07
-2.28504e-07
6.75152e-07
-7.64642e-07
-4.4624e-07
6.89009e-07
-1.05768e-06
-2.8109e-07
5.9765e-07
-1.01205e-06
-5.75609e-07
5.36717e-07
-6.73855e-07
-7.30584e-07
5.32015e-07
-1.26061e-06
-4.78116e-07
1.04106e-06
3.50713e-07
-3.28813e-06
2.12878e-06
-1.16045e-06
-2.8803e-06
4.05862e-06
2.37181e-07
2.49215e-06
-1.93196e-06
-2.82033e-06
3.71135e-06
-1.13829e-06
2.87807e-06
3.01929e-06
-1.25148e-07
2.79084e-05
-1.90993e-05
1.43825e-05
2.12608e-05
-2.49404e-05
5.31718e-06
2.58954e-05
-8.94057e-06
2.4267e-06
2.36272e-05
3.14628e-06
-8.84209e-07
2.54251e-05
-1.52737e-07
-1.6451e-06
2.66985e-05
6.92137e-07
-1.96555e-06
2.71288e-05
1.98861e-06
-2.41898e-06
2.72277e-05
2.58849e-06
-2.68738e-06
2.71672e-05
2.74441e-06
-2.6839e-06
2.68099e-05
2.84384e-06
-2.48657e-06
2.60092e-05
2.92399e-06
-2.12327e-06
2.49188e-05
2.89472e-06
-1.80436e-06
2.36215e-05
2.7739e-06
-1.47653e-06
2.21408e-05
2.59396e-06
-1.11334e-06
2.04987e-05
2.34935e-06
-7.07179e-07
1.87699e-05
2.04189e-06
-3.13122e-07
1.70502e-05
1.67488e-06
4.48143e-08
1.5454e-05
1.17789e-06
4.18306e-07
1.44767e-05
1.88301e-07
7.89012e-07
1.38929e-05
-5.67172e-07
1.15093e-06
1.35235e-05
-1.1311e-06
1.5005e-06
1.33219e-05
-1.5533e-06
1.75496e-06
1.33781e-05
-1.95298e-06
1.89678e-06
1.3697e-05
-2.24826e-06
1.92934e-06
1.42478e-05
-2.40762e-06
1.85684e-06
1.5021e-05
-2.50373e-06
1.73054e-06
1.57114e-05
-2.2375e-06
1.54708e-06
1.62524e-05
-2.04413e-06
1.50308e-06
1.64072e-05
-1.59868e-06
1.44389e-06
1.60515e-05
-1.05552e-06
1.41122e-06
1.53027e-05
-5.35049e-07
1.28386e-06
1.35527e-05
5.96612e-07
1.15335e-06
1.10123e-05
1.59922e-06
9.41174e-07
6.97057e-06
3.31286e-06
7.28918e-07
1.60499e-06
3.95971e-06
1.40587e-06
-1.09594e-06
3.33245e-06
-6.31512e-07
2.60468e-06
-3.70062e-06
-3.16153e-06
-3.04538e-06
1.95001e-07
-2.35926e-06
-3.25828e-06
2.26886e-07
-1.91623e-06
-2.56079e-06
5.02786e-07
-1.24401e-06
-2.41136e-06
1.91614e-07
-7.31283e-07
-1.61363e-06
1.19246e-07
-2.1932e-07
-1.42496e-06
6.83517e-08
-1.46587e-07
-5.92421e-07
3.00534e-08
-3.66118e-07
-2.77797e-07
1.46877e-07
-6.77345e-07
-1.27448e-07
1.59367e-07
-8.57872e-07
-1.59299e-07
8.15159e-08
-9.18212e-07
-2.65977e-07
3.25019e-08
-8.05867e-07
-4.38019e-07
-5.14689e-08
-6.62453e-07
-5.03996e-07
-6.58953e-08
-4.85892e-07
-5.58021e-07
-8.37584e-08
-3.45423e-07
-5.53774e-07
-5.18448e-08
-2.17684e-07
-5.7334e-07
-3.44287e-08
-1.335e-07
-5.65766e-07
-5.96229e-10
-6.6676e-08
-5.71079e-07
1.22785e-08
-2.21799e-08
-5.65797e-07
2.55944e-08
8.90495e-09
-5.61887e-07
3.26446e-08
2.89508e-08
-5.54828e-07
3.68681e-08
4.2143e-08
-5.4735e-07
3.79134e-08
5.04871e-08
-5.39075e-07
3.71655e-08
5.57813e-08
-5.30473e-07
3.50528e-08
5.89288e-08
-5.2146e-07
3.2294e-08
6.06861e-08
-5.12098e-07
2.90315e-08
6.14231e-08
-5.02699e-07
2.56299e-08
6.11067e-08
-4.93589e-07
2.23528e-08
5.9759e-08
-4.84504e-07
1.90709e-08
5.77389e-08
-4.75129e-07
1.59116e-08
5.58241e-08
-4.67915e-07
1.22584e-08
5.09766e-08
-4.54869e-07
1.00449e-08
4.82763e-08
-4.52068e-07
5.43714e-09
3.73589e-08
-4.30827e-07
5.59132e-09
3.73228e-08
-4.38793e-07
-3.32458e-09
1.89468e-08
-4.03526e-07
6.06225e-10
2.74937e-08
-4.26903e-07
-1.70789e-08
4.50967e-10
-3.70127e-07
-7.4282e-09
2.42554e-08
-4.16411e-07
-3.44066e-08
-7.02523e-09
-3.32044e-07
-2.11677e-08
5.30877e-08
-4.21587e-07
-6.07792e-08
2.83213e-08
-3.00296e-07
-4.23146e-08
1.39027e-07
-4.59145e-07
-7.77107e-08
1.18705e-07
-3.2856e-07
-4.84073e-08
2.40377e-07
-4.93185e-07
-5.05242e-08
1.55191e-07
-3.81917e-07
2.93558e-08
1.12238e-07
-3.88476e-07
5.36729e-08
-1.05592e-07
-3.57178e-07
1.65949e-07
-5.75193e-07
6.08131e-08
1.83592e-07
-8.16062e-07
-3.89302e-07
1.83539e-07
-1.3882e-06
1.11413e-07
2.02e-07
-1.256e-06
-6.49099e-07
-5.66356e-08
5.48771e-08
-1.47873e-06
-3.93495e-07
-2.95033e-07
-3.50692e-07
2.03448e-07
1.17917e-06
-4.55023e-06
6.26142e-08
3.08868e-06
-7.05072e-06
2.01156e-06
-1.57451e-06
1.02735e-05
-1.45091e-06
-8.99385e-06
1.09378e-05
-3.10378e-07
4.21756e-06
4.51208e-06
-5.70787e-06
2.84702e-05
-3.31237e-05
7.02237e-06
6.15368e-06
-3.53996e-05
6.49474e-06
4.98777e-06
-9.96513e-06
4.96706e-07
1.36207e-05
5.30186e-07
-6.01821e-06
1.67909e-05
1.27959e-06
-4.60253e-06
1.85303e-05
3.43114e-06
-4.4784e-06
2.0621e-05
4.46742e-06
-4.56956e-06
2.24765e-05
4.96635e-06
-4.2333e-06
2.3569e-05
5.23445e-06
-3.58262e-06
2.38231e-05
5.35741e-06
-2.76758e-06
2.35041e-05
5.32005e-06
-2.07712e-06
2.29757e-05
5.18159e-06
-1.75841e-06
2.22057e-05
4.95388e-06
-1.40998e-06
2.09032e-05
4.74325e-06
-8.4685e-07
1.91892e-05
4.22515e-06
-1.61742e-07
1.74631e-05
3.22585e-06
5.42092e-07
1.58196e-05
2.25315e-06
1.06528e-06
1.41535e-05
1.45813e-06
1.38578e-06
1.22528e-05
4.63932e-07
1.62508e-06
1.03998e-05
-6.88078e-07
1.97394e-06
8.58455e-06
-1.55521e-06
2.23935e-06
7.20355e-06
-2.37744e-06
2.20514e-06
6.55268e-06
-3.10102e-06
1.79891e-06
6.83619e-06
-3.71731e-06
1.18553e-06
7.87619e-06
-4.05856e-06
6.10934e-07
9.23316e-06
-4.00707e-06
1.46363e-07
1.04554e-05
-3.49638e-06
3.66033e-08
1.11115e-05
-2.92581e-06
2.25636e-07
1.13619e-05
-2.26879e-06
4.19677e-07
1.10721e-05
-1.40317e-06
6.3746e-07
1.04555e-05
-3.91038e-07
4.72602e-07
9.5812e-06
1.15983e-06
3.11099e-07
8.08315e-06
3.2446e-06
-1.4733e-07
5.84477e-06
5.75625e-06
-2.04996e-07
1.99626e-06
7.19295e-06
6.1527e-07
-3.44398e-07
6.69783e-06
-1.02471e-06
6.30798e-06
-4.0477e-06
-3.24781e-06
-3.32981e-06
8.80434e-08
-2.64537e-06
-3.68466e-06
-1.73297e-07
-2.41128e-06
-2.99307e-06
2.01013e-07
-1.89026e-06
-2.94248e-06
1.26752e-08
-1.30229e-06
-2.15781e-06
-3.97205e-08
-6.3735e-07
-1.9498e-06
-1.35988e-07
-4.17524e-07
-6.3306e-07
-1.75358e-07
-4.64073e-07
-1.60782e-07
-6.96474e-08
-6.75115e-07
1.27718e-07
-4.41789e-08
-7.88048e-07
3.29065e-08
-7.9621e-08
-8.17403e-07
-1.17429e-07
-1.19107e-07
-7.36644e-07
-3.19546e-07
-1.99203e-07
-6.52364e-07
-3.65041e-07
-2.23116e-07
-5.45037e-07
-4.14735e-07
-2.50625e-07
-4.38682e-07
-4.0684e-07
-2.5321e-07
-3.25457e-07
-4.27299e-07
-2.59288e-07
-2.39539e-07
-4.06773e-07
-2.4485e-07
-1.66539e-07
-4.05373e-07
-2.387e-07
-1.15708e-07
-3.8709e-07
-2.29486e-07
-7.81417e-08
-3.74359e-07
-2.25067e-07
-5.30219e-08
-3.5814e-07
-2.21763e-07
-3.57485e-08
-3.43623e-07
-2.20962e-07
-2.44561e-08
-3.29064e-07
-2.21257e-07
-1.70454e-08
-3.1536e-07
-2.22482e-07
-1.20281e-08
-3.02323e-07
-2.2411e-07
-8.70829e-09
-2.89337e-07
-2.26034e-07
-6.72322e-09
-2.76498e-07
-2.28128e-07
-6.2301e-09
-2.63859e-07
-2.30167e-07
-7.24889e-09
-2.51184e-07
-2.32238e-07
-8.8478e-09
-2.38995e-07
-2.34479e-07
-1.18489e-08
-2.28035e-07
-2.36794e-07
-1.51688e-08
-2.13162e-07
-2.38354e-07
-1.98076e-08
-2.06102e-07
-2.412e-07
-2.55834e-08
-1.83521e-07
-2.41547e-07
-2.75507e-08
-1.88748e-07
-2.47867e-07
-3.65218e-08
-1.49108e-07
-2.45557e-07
-3.0396e-08
-1.76525e-07
-2.56155e-07
-4.38065e-08
-1.07868e-07
-2.49123e-07
-2.27287e-08
-1.708e-07
-2.66076e-07
-4.26397e-08
-6.18605e-08
-2.50848e-07
-5.56871e-10
-1.86799e-07
-2.75996e-07
-3.62364e-08
-2.27869e-08
-2.42698e-07
1.3253e-08
-2.31569e-07
-2.75896e-07
-7.19736e-08
-3.44128e-08
-2.09928e-07
-4.91503e-08
-2.74307e-07
-2.40161e-07
-1.73969e-07
-1.01247e-07
-1.57331e-07
-2.13556e-07
-1.67353e-07
-1.79594e-07
-2.82807e-07
-1.52463e-07
-1.37499e-07
-3.9741e-07
2.89562e-07
-1.09306e-07
-3.88762e-07
-2.48661e-07
-1.49158e-07
-8.10477e-07
5.49633e-07
1.58737e-08
-1.0715e-06
-1.47829e-07
-2.33791e-07
-1.39929e-07
-1.62301e-06
-7.07416e-07
3.42779e-06
-2.10415e-06
-1.82131e-06
4.88586e-06
-6.05192e-06
5.40789e-07
3.11255e-06
-6.91423e-06
1.49536e-06
7.50047e-06
1.19346e-05
-3.63972e-06
1.04163e-06
1.69338e-05
-5.79147e-07
7.14299e-06
1.21865e-05
-3.40702e-06
2.68118e-05
-3.85519e-05
3.3198e-06
-1.45699e-06
-3.99794e-05
6.76587e-06
1.33205e-07
-1.33346e-05
1.54948e-07
1.59402e-05
-1.12559e-05
-4.02098e-06
1.78966e-05
2.00526e-06
-2.68209e-06
1.79876e-05
5.77942e-06
-2.4393e-06
1.91096e-05
5.87036e-06
-2.52496e-06
1.99367e-05
6.47042e-06
-2.3312e-06
2.03784e-05
7.07189e-06
-2.27916e-06
2.0262e-05
7.19195e-06
-1.71807e-06
1.96137e-05
6.85262e-06
-8.84285e-07
1.85832e-05
6.34392e-06
-1.31834e-07
1.76125e-05
5.2371e-06
6.87419e-07
1.65325e-05
4.43086e-06
1.39244e-06
1.49588e-05
3.83913e-06
1.95971e-06
1.23054e-05
3.28791e-06
2.59129e-06
8.44168e-06
2.88316e-06
3.23374e-06
3.09737e-06
2.65956e-06
4.14288e-06
-1.83913e-06
1.41268e-06
3.98774e-06
-4.46362e-06
-6.0048e-07
2.53688e-06
-5.08233e-06
-2.20246e-06
1.26596e-06
-4.06022e-06
-3.54796e-06
1.48404e-07
-2.24784e-06
-4.20888e-06
-7.04521e-07
-2.32434e-08
-4.52771e-06
-1.4142e-06
2.33575e-06
-4.51936e-06
-1.89819e-06
4.4118e-06
-4.15055e-06
-1.93257e-06
5.78965e-06
-3.40919e-06
-1.46503e-06
6.28223e-06
-2.64921e-06
-7.69188e-07
6.0441e-06
-1.84195e-06
-1.88713e-07
5.37586e-06
-7.90688e-07
5.57604e-08
4.53819e-06
5.09865e-07
-6.32349e-08
3.80263e-06
2.27654e-06
-3.81142e-07
3.17571e-06
4.77338e-06
-9.01859e-07
2.23307e-06
7.73234e-06
-1.03346e-06
-2.43421e-08
9.64193e-06
-1.91566e-07
-8.87608e-07
9.24158e-06
-1.68048e-06
9.53633e-06
-4.11595e-06
-3.29142e-06
-3.41597e-06
1.72271e-07
-2.60914e-06
-3.95452e-06
-4.09774e-07
-2.48943e-06
-3.34297e-06
2.33731e-07
-2.029e-06
-3.50079e-06
9.99723e-08
-1.50868e-06
-2.77433e-06
9.93402e-08
-8.59605e-07
-2.60097e-06
6.28439e-09
-4.99838e-07
-9.46885e-07
-4.03547e-08
-3.22052e-07
-3.36575e-07
-6.58388e-11
-4.21499e-07
2.5064e-07
-2.32182e-08
-5.21388e-07
1.89485e-07
-5.71181e-08
-5.60355e-07
6.05808e-08
-1.38931e-07
-5.59833e-07
-1.06895e-07
-2.12968e-07
-5.58259e-07
-1.18027e-07
-2.48305e-07
-5.23915e-07
-1.6425e-07
-2.84599e-07
-4.5942e-07
-1.65411e-07
-3.05638e-07
-3.71257e-07
-1.87034e-07
-3.2821e-07
-2.90978e-07
-1.57859e-07
-3.28905e-07
-2.12778e-07
-1.49663e-07
-3.33684e-07
-1.53775e-07
-1.18452e-07
-3.27373e-07
-1.07408e-07
-9.60051e-08
-3.24476e-07
-7.55892e-08
-6.89524e-08
-3.20751e-07
-5.38109e-08
-4.53966e-08
-3.19747e-07
-4.00529e-08
-2.30595e-08
-3.19508e-07
-3.26561e-08
-2.55909e-09
-3.19942e-07
-2.85829e-08
1.42127e-08
-3.20359e-07
-2.66777e-08
3.0032e-08
-3.21006e-07
-2.58563e-08
4.48545e-08
-3.21904e-07
-2.58427e-08
5.91267e-08
-3.22718e-07
-2.69179e-08
7.34714e-08
-3.23301e-07
-2.89542e-08
8.72319e-08
-3.23906e-07
-3.23387e-08
1.00339e-07
-3.24698e-07
-3.55358e-08
1.15241e-07
-3.24944e-07
-3.96619e-08
1.25086e-07
-3.26736e-07
-4.3467e-08
1.46718e-07
-3.2622e-07
-4.46219e-08
1.44328e-07
-3.31521e-07
-5.05881e-08
1.84545e-07
-3.27573e-07
-4.37433e-08
1.5515e-07
-3.37999e-07
-5.37286e-08
2.30253e-07
-3.28204e-07
-3.53807e-08
1.56135e-07
-3.44543e-07
-5.58538e-08
2.82404e-07
-3.24144e-07
-3.95634e-08
1.40138e-07
-3.42187e-07
-8.62234e-08
3.30215e-07
-3.07008e-07
-1.27168e-07
1.21978e-07
-3.11371e-07
-2.16833e-07
3.29596e-07
-2.75257e-07
-3.37721e-07
1.1395e-07
-2.65704e-07
-4.39435e-07
2.58339e-07
-2.59462e-07
-4.79079e-07
1.29041e-07
-2.54095e-07
-5.29806e-07
1.50009e-07
-2.54541e-07
-1.01828e-07
1.60071e-07
-2.91673e-07
-5.53689e-08
-3.18235e-08
-2.64949e-07
3.22737e-07
3.827e-07
-1.78588e-07
7.00098e-07
2.40019e-08
-5.34581e-07
1.28999e-06
-1.67627e-06
-4.13684e-07
4.70159e-06
-4.50277e-06
-9.83323e-07
3.44508e-07
-3.58506e-06
2.3376e-06
-7.33466e-06
-2.52645e-06
3.12298e-06
8.16526e-06
3.83215e-06
-4.54199e-06
7.64619e-06
2.09583e-05
-5.19172e-06
1.43603e-05
1.65702e-05
-7.49269e-07
2.98557e-05
-3.77768e-05
1.64048e-06
7.20626e-07
-4.44328e-05
7.4444e-06
-2.3993e-06
-1.26221e-05
1.46178e-06
3.77753e-06
-1.56484e-05
-1.78439e-06
4.90239e-06
4.77803e-06
-3.89769e-06
1.04986e-05
5.26929e-06
-5.08615e-06
1.33913e-05
7.24852e-06
-4.27082e-06
1.42036e-05
8.47671e-06
-2.81862e-06
1.45071e-05
8.40286e-06
-1.63453e-06
1.45472e-05
7.49411e-06
-3.42262e-07
1.41505e-05
6.21535e-06
1.03405e-06
1.32928e-05
5.0819e-06
2.11966e-06
1.10422e-05
4.4689e-06
3.01877e-06
6.93801e-06
4.51615e-06
4.01893e-06
2.64763e-07
5.51595e-06
4.99642e-06
-7.11622e-06
5.56418e-06
5.1047e-06
-1.21793e-05
4.35709e-06
3.58916e-06
-1.44404e-05
2.49643e-06
2.42419e-06
-1.47046e-05
5.11747e-07
1.16514e-06
-1.38227e-05
-1.35505e-06
-1.27316e-07
-1.22903e-05
-2.54421e-06
-1.19072e-06
-1.03872e-05
-3.39164e-06
-2.0594e-06
-8.09778e-06
-3.87575e-06
-2.62254e-06
-5.57847e-06
-4.1282e-06
-2.91884e-06
-3.07783e-06
-4.16779e-06
-2.85222e-06
-9.26901e-07
-3.99406e-06
-2.30742e-06
4.58469e-07
-3.3575e-06
-1.43707e-06
8.95838e-07
-2.5054e-06
-5.81178e-07
7.3798e-07
-1.56706e-06
-1.17025e-07
4.14582e-07
-4.17378e-07
-4.99123e-08
4.52803e-09
1.2369e-06
-3.16981e-07
-3.35312e-07
3.44283e-06
-8.26442e-07
-2.70966e-07
6.18779e-06
-1.47875e-06
-5.19176e-07
9.39728e-06
-1.41673e-06
-1.61683e-06
1.13261e-05
-5.86484e-07
-1.46922e-06
1.10365e-05
-1.94249e-06
1.19831e-05
-3.91602e-06
-3.63977e-06
-3.50456e-06
4.67954e-07
-2.81852e-06
-4.20468e-06
-5.69063e-07
-2.6208e-06
-3.72363e-06
1.87984e-07
-2.03038e-06
-4.08036e-06
-7.71028e-09
-1.6275e-06
-3.34143e-06
1.68089e-07
-1.13658e-06
-3.21665e-06
1.2807e-07
-7.92804e-07
-1.46217e-06
1.7682e-07
-3.74242e-07
-8.36763e-07
8.57399e-08
-2.22593e-07
1.14092e-07
-1.34001e-08
-2.08862e-07
2.06052e-07
-3.08397e-08
-2.3232e-07
1.95081e-07
-1.11057e-07
-3.2877e-07
1.38343e-07
-1.48675e-07
-4.04741e-07
1.47914e-07
-1.89904e-07
-4.39966e-07
9.85857e-08
-2.27558e-07
-4.1355e-07
7.27383e-08
-2.64521e-07
-3.59962e-07
5.38275e-08
-2.94406e-07
-2.98407e-07
9.21192e-08
-3.11455e-07
-2.31749e-07
1.11845e-07
-3.28141e-07
-1.76435e-07
1.57193e-07
-3.30888e-07
-1.29007e-07
1.89365e-07
-3.32772e-07
-9.46381e-08
2.26682e-07
-3.29951e-07
-7.05706e-08
2.57459e-07
-3.2689e-07
-5.48088e-08
2.84755e-07
-3.23522e-07
-4.41178e-08
3.07646e-07
-3.20851e-07
-3.9227e-08
3.27938e-07
-3.18564e-07
-3.76457e-08
3.45354e-07
-3.16866e-07
-3.71013e-08
3.59891e-07
-3.15533e-07
-3.67311e-08
3.73043e-07
-3.14254e-07
-3.69032e-08
3.86384e-07
-3.12695e-07
-3.79591e-08
3.99134e-07
-3.10816e-07
-4.04544e-08
4.11458e-07
-3.08577e-07
-4.30876e-08
4.24108e-07
-3.06229e-07
-4.64583e-08
4.33401e-07
-3.04867e-07
-4.91115e-08
4.5067e-07
-3.01338e-07
-4.85255e-08
4.46468e-07
-3.02574e-07
-5.29326e-08
4.8333e-07
-2.94516e-07
-4.58372e-08
4.49542e-07
-3.01205e-07
-5.71466e-08
5.25791e-07
-2.84546e-07
-4.52783e-08
4.40778e-07
-2.96004e-07
-7.13912e-08
5.75262e-07
-2.67298e-07
-7.95534e-08
4.24901e-07
-2.75822e-07
-1.30039e-07
6.206e-07
-2.40673e-07
-2.21044e-07
4.43587e-07
-2.29554e-07
-2.99409e-07
6.25949e-07
-2.19144e-07
-4.99759e-07
5.06405e-07
-1.90511e-07
-5.71698e-07
5.74222e-07
-2.45915e-07
-6.50201e-07
4.41505e-07
-2.31244e-07
-6.58494e-07
4.60433e-07
-3.05561e-07
-4.28358e-08
-9.95192e-08
-3.4905e-07
2.37625e-07
7.9524e-08
-3.9187e-07
5.18686e-07
1.93156e-07
-5.97651e-08
1.45268e-06
-3.67706e-07
-5.26138e-07
1.79189e-06
-1.53635e-06
-3.19522e-07
1.85801e-06
-4.59068e-06
3.32881e-08
-2.10366e-06
-8.69077e-07
1.7807e-06
-7.86276e-06
2.13418e-06
7.64939e-07
9.48953e-06
-6.0621e-06
-4.51298e-06
1.40453e-05
2.43689e-05
-9.4149e-06
3.47753e-05
4.49062e-06
8.54731e-06
3.34868e-05
-2.50554e-05
3.6559e-06
-5.15638e-06
-4.40049e-05
7.06607e-06
-8.38252e-06
-1.29831e-05
2.32398e-06
-8.44325e-06
-1.45824e-05
-1.00966e-06
-1.3924e-06
1.80194e-06
-4.07585e-06
5.9788e-06
2.25388e-06
-4.35668e-06
8.19632e-06
7.3148e-06
-2.28409e-06
9.252e-06
8.14603e-06
-7.24927e-07
9.45341e-06
7.33179e-06
8.69829e-07
8.43328e-06
5.83329e-06
2.68102e-06
4.92963e-06
5.42783e-06
4.29089e-06
-1.78451e-06
6.40632e-06
5.38945e-06
-1.07858e-05
7.71918e-06
5.75107e-06
-1.87594e-05
7.85018e-06
4.63988e-06
-2.37509e-05
6.92985e-06
3.57797e-06
-2.62188e-05
5.41063e-06
2.62175e-06
-2.70454e-05
3.78372e-06
1.40033e-06
-2.70414e-05
2.12619e-06
3.66285e-07
-2.62965e-05
5.09817e-07
-7.43132e-07
-2.51198e-05
-9.77649e-07
-1.55442e-06
-2.33309e-05
-2.29628e-06
-2.03723e-06
-2.11169e-05
-3.38262e-06
-2.22343e-06
-1.8523e-05
-4.17943e-06
-2.2907e-06
-1.56943e-05
-4.70467e-06
-2.25246e-06
-1.27277e-05
-4.9736e-06
-2.16088e-06
-9.87686e-06
-4.92868e-06
-1.91625e-06
-7.46928e-06
-4.22523e-06
-1.53988e-06
-5.93689e-06
-3.01773e-06
-1.02007e-06
-5.338e-06
-1.51866e-06
-6.473e-07
-5.31572e-06
1.85321e-07
-6.24977e-07
-5.17024e-06
1.92446e-06
-8.33032e-07
-4.75672e-06
4.22699e-06
-1.19768e-06
-4.34054e-06
7.25033e-06
-1.47873e-06
-3.99644e-06
1.0157e-05
-1.1038e-06
-3.65757e-06
1.17325e-05
-7.45266e-07
-2.31867e-06
1.18451e-05
-2.14755e-06
1.33159e-05
-3.65143e-06
-4.24e-06
-3.36821e-06
4.8639e-07
-3.32644e-06
-4.38282e-06
-7.34932e-07
-3.14437e-06
-3.92529e-06
2.52135e-08
-2.19082e-06
-4.53496e-06
-4.94743e-07
-1.5966e-06
-3.88065e-06
-4.87865e-08
-1.00323e-06
-3.77114e-06
-3.45438e-08
-7.29343e-07
-2.02372e-06
2.92109e-07
-4.20635e-07
-1.31753e-06
1.76047e-07
-1.78846e-07
-1.34587e-07
1.02222e-08
9.22098e-10
6.61837e-08
-3.91787e-08
1.04045e-07
2.1398e-07
-1.21403e-07
-4.73501e-08
3.79606e-07
-8.94632e-08
-2.01879e-07
4.55161e-07
-1.52446e-07
-3.13486e-07
4.06421e-07
-1.95957e-07
-3.25401e-07
3.45688e-07
-2.60798e-07
-3.02842e-07
3.2664e-07
-2.95115e-07
-2.64252e-07
3.7586e-07
-3.22038e-07
-2.20752e-07
4.10171e-07
-3.4154e-07
-1.81561e-07
4.67502e-07
-3.49167e-07
-1.45243e-07
5.06715e-07
-3.53343e-07
-1.18321e-07
5.50586e-07
-3.50473e-07
-9.84256e-08
5.84292e-07
-3.46363e-07
-8.60803e-08
6.13186e-07
-3.40412e-07
-8.0458e-08
6.36093e-07
-3.33691e-07
-8.00106e-08
6.55217e-07
-3.27362e-07
-8.27784e-08
6.70589e-07
-3.22082e-07
-8.65194e-08
6.81784e-07
-3.17778e-07
-8.95394e-08
6.90412e-07
-3.13962e-07
-9.18571e-08
6.9914e-07
-3.10063e-07
-9.38081e-08
7.07363e-07
-3.05891e-07
-9.58705e-08
7.15317e-07
-3.01417e-07
-9.72681e-08
7.22714e-07
-2.96839e-07
-9.98962e-08
7.28657e-07
-2.92217e-07
-1.00431e-07
7.37977e-07
-2.86447e-07
-1.01778e-07
7.32685e-07
-2.84383e-07
-1.0424e-07
7.59284e-07
-2.73262e-07
-1.05601e-07
7.28018e-07
-2.76507e-07
-1.15197e-07
7.90542e-07
-2.55103e-07
-1.24873e-07
7.15238e-07
-2.63992e-07
-1.47216e-07
8.29232e-07
-2.3183e-07
-1.95316e-07
7.10862e-07
-2.3679e-07
-2.26944e-07
8.6332e-07
-2.11613e-07
-3.64312e-07
7.70435e-07
-1.88057e-07
-3.99815e-07
8.71212e-07
-2.10788e-07
-6.15324e-07
8.83189e-07
-1.59242e-07
-6.34877e-07
8.43013e-07
-2.51061e-07
-7.11545e-07
7.63109e-07
-2.41658e-07
-6.47829e-07
7.39365e-07
-3.45653e-07
-4.60611e-07
5.25951e-08
-3.31238e-07
-2.77736e-07
3.22901e-07
-4.26466e-07
-1.8983e-07
3.60185e-07
-2.07841e-07
-3.79651e-07
-1.38239e-07
-2.71131e-08
-2.75568e-07
-8.70953e-07
-5.92544e-07
-2.5088e-06
-2.09612e-06
-3.09499e-07
8.71293e-07
-3.9048e-06
3.71799e-07
5.43595e-06
1.19047e-06
-3.89777e-06
1.35538e-05
-6.1492e-06
-6.02703e-06
2.3221e-05
2.39564e-05
-9.7375e-06
4.31739e-05
-9.66466e-06
1.75628e-05
3.58376e-05
-1.41086e-05
4.57771e-06
-9.71551e-06
-3.8981e-05
8.76573e-06
-1.37509e-05
-1.28237e-05
2.65961e-06
-1.45956e-05
-1.3013e-05
-7.6396e-07
-7.48162e-06
-2.35001e-06
-2.98378e-06
-3.26702e-06
-1.82085e-07
-1.79287e-06
-1.4847e-06
4.41351e-06
1.10852e-06
-1.7449e-06
5.62276e-06
2.78421e-06
-5.95735e-06
6.95995e-06
4.601e-06
-1.43361e-05
8.20249e-06
6.03014e-06
-2.39028e-05
9.34768e-06
5.64612e-06
-3.23567e-05
1.02531e-05
4.59758e-06
-3.74648e-05
9.28993e-06
3.5245e-06
-4.04667e-05
8.27297e-06
2.60218e-06
-4.23405e-05
7.14117e-06
1.70095e-06
-4.35251e-05
5.76814e-06
8.25386e-07
-4.4017e-05
4.23114e-06
4.35795e-08
-4.38909e-05
2.67846e-06
-6.89335e-07
-4.32639e-05
1.00739e-06
-1.13932e-06
-4.21911e-05
-8.04068e-07
-1.25377e-06
-4.06772e-05
-2.57196e-06
-1.25255e-06
-3.8539e-05
-4.32899e-06
-1.21552e-06
-3.57529e-05
-5.78598e-06
-1.20589e-06
-3.226e-05
-6.9086e-06
-1.31715e-06
-2.82522e-05
-7.44877e-06
-1.55359e-06
-2.39347e-05
-7.47207e-06
-1.78892e-06
-1.9668e-05
-6.66042e-06
-1.84084e-06
-1.59321e-05
-5.15293e-06
-1.60593e-06
-1.31695e-05
-3.04071e-06
-1.24252e-06
-1.13326e-05
-8.19341e-07
-8.32339e-07
-1.0402e-05
1.66463e-06
-6.70721e-07
-9.76507e-06
4.16439e-06
-5.74328e-07
-8.76596e-06
6.6639e-06
-4.12676e-07
-7.10498e-06
8.7503e-06
-2.54285e-07
-4.92514e-06
1.01851e-05
-6.32435e-07
-2.75359e-06
1.15546e-05
-1.88107e-06
1.38211e-05
-3.25885e-06
-4.80795e-06
-2.92933e-06
4.83484e-07
-3.72617e-06
-4.16273e-06
-1.30352e-06
-3.60256e-06
-3.56579e-06
-4.77587e-07
-2.3494e-06
-4.37069e-06
-1.41374e-06
-1.55363e-06
-3.87666e-06
-7.93716e-07
-6.88429e-07
-3.90232e-06
-7.28037e-07
-2.50375e-07
-2.33844e-06
-1.18435e-07
-1.7796e-07
-1.51803e-06
1.30308e-07
-9.40849e-08
-2.34552e-07
1.86778e-08
6.9143e-08
-4.27945e-08
-5.17673e-08
2.51071e-07
1.94389e-07
-1.60866e-07
1.05551e-07
5.52338e-07
-2.67301e-08
-4.46297e-08
7.06953e-07
-1.01676e-07
-1.74541e-07
6.84982e-07
-1.48714e-07
-2.00829e-07
6.29055e-07
-2.57208e-07
-2.07506e-07
6.34832e-07
-3.01641e-07
-2.08738e-07
7.12851e-07
-3.35881e-07
-2.05339e-07
7.56182e-07
-3.49581e-07
-1.97682e-07
8.19521e-07
-3.59828e-07
-1.84918e-07
8.58641e-07
-3.64917e-07
-1.74508e-07
9.03658e-07
-3.63699e-07
-1.66338e-07
9.35763e-07
-3.59909e-07
-1.63252e-07
9.62099e-07
-3.52255e-07
-1.64257e-07
9.80428e-07
-3.43614e-07
-1.68093e-07
9.93685e-07
-3.34904e-07
-1.74125e-07
1.00227e-06
-3.25935e-07
-1.81315e-07
1.00597e-06
-3.17271e-07
-1.87351e-07
1.00676e-06
-3.10588e-07
-1.91994e-07
1.00785e-06
-3.04322e-07
-1.95742e-07
1.0092e-06
-2.98356e-07
-1.99146e-07
1.01109e-06
-2.92612e-07
-2.01239e-07
1.01184e-06
-2.87301e-07
-2.04481e-07
1.01295e-06
-2.81243e-07
-2.04133e-07
1.01268e-06
-2.75333e-07
-2.08554e-07
1.00565e-06
-2.68632e-07
-2.06408e-07
1.01622e-06
-2.59432e-07
-2.1792e-07
9.92981e-07
-2.53362e-07
-2.1938e-07
1.03141e-06
-2.39905e-07
-2.52932e-07
9.82599e-07
-2.33487e-07
-2.61686e-07
1.05753e-06
-2.20253e-07
-3.45859e-07
1.00239e-06
-2.06675e-07
-3.54954e-07
1.08306e-06
-2.11649e-07
-5.04147e-07
1.09948e-06
-1.78729e-07
-4.9587e-07
1.08806e-06
-2.26635e-07
-6.61137e-07
1.24123e-06
-1.91049e-07
-6.26538e-07
1.08102e-06
-2.74937e-07
-7.26907e-07
1.15097e-06
-2.84731e-07
-6.69629e-07
1.06342e-06
-3.84568e-07
-8.67212e-07
5.50646e-07
-2.91745e-07
-7.85316e-07
7.47166e-07
-5.06002e-07
-5.13144e-07
6.84938e-07
-5.49859e-07
-7.08048e-07
3.13271e-07
-2.51414e-07
7.4036e-07
-9.58697e-07
-1.17357e-06
-5.23725e-07
-1.2825e-07
-7.45794e-07
-1.44482e-07
-3.91342e-06
2.73967e-07
6.30348e-06
-1.61099e-06
-3.86255e-06
1.08541e-05
8.66484e-07
-1.04474e-05
3.21162e-05
1.42635e-05
-1.17981e-05
3.83174e-05
-1.18118e-05
2.35161e-05
2.663e-05
-7.14243e-06
4.39914e-06
-3.21432e-05
-1.86007e-05
9.81267e-06
-3.89517e-05
-9.95014e-06
3.57864e-06
-4.38705e-05
-7.83849e-06
-3.27055e-07
-4.17996e-05
-3.0442e-06
-1.3574e-06
-4.24269e-05
-1.29395e-07
5.28536e-07
-4.34538e-05
3.33819e-06
2.11234e-06
-4.67967e-05
5.70991e-06
3.23375e-06
-5.16786e-05
7.87965e-06
3.70595e-06
-5.67401e-05
9.22529e-06
3.67081e-06
-5.99597e-05
9.6371e-06
3.1549e-06
-6.01171e-05
8.93727e-06
1.96247e-06
-6.12228e-05
9.04225e-06
1.46775e-06
-6.18092e-05
8.19654e-06
7.62874e-07
-6.19157e-05
7.12368e-06
1.57486e-07
-6.14953e-05
5.86784e-06
-4.85062e-07
-6.07464e-05
4.40191e-06
-9.18304e-07
-5.9698e-05
2.7396e-06
-1.1519e-06
-5.84621e-05
8.66749e-07
-1.13867e-06
-5.70917e-05
-1.17946e-06
-1.01283e-06
-5.57869e-05
-3.14819e-06
-8.0021e-07
-5.44857e-05
-5.14437e-06
-5.49029e-07
-5.31567e-05
-6.90961e-06
-3.02011e-07
-5.15671e-05
-8.51557e-06
-1.28308e-07
-4.94043e-05
-9.67007e-06
-1.22355e-07
-4.60398e-05
-1.03451e-05
-6.67154e-07
-4.13836e-05
-1.00924e-05
-1.35835e-06
-3.56816e-05
-9.19646e-06
-1.82851e-06
-2.94594e-05
-7.50884e-06
-1.94611e-06
-2.34392e-05
-5.22297e-06
-1.73803e-06
-1.82967e-05
-2.17111e-06
-1.36883e-06
-1.43486e-05
1.1128e-06
-9.13426e-07
-1.12688e-05
4.34128e-06
-7.5736e-07
-8.44281e-06
6.79559e-06
-8.71875e-07
-5.61259e-06
8.83955e-06
-1.48452e-06
-3.06928e-06
1.1319e-05
-2.30983e-06
1.39444e-05
-3.19301e-06
-5.10702e-06
-1.91155e-06
4.10367e-07
-3.80474e-06
-3.56843e-06
-1.89988e-06
-3.80644e-06
-2.6985e-06
-8.60362e-07
-2.5065e-06
-3.69541e-06
-1.97044e-06
-1.61262e-06
-3.30009e-06
-1.46366e-06
-6.29099e-07
-3.53302e-06
-1.34465e-06
6.53996e-08
-2.17167e-06
-8.54689e-07
1.83711e-07
-1.32284e-06
-3.1113e-07
1.87343e-07
-6.39487e-08
-1.72213e-07
2.02463e-07
1.12535e-07
-1.67107e-07
2.88117e-07
3.67165e-07
-2.56164e-07
1.82574e-07
7.13521e-07
-5.52935e-08
1.2034e-07
9.74778e-07
-2.05542e-07
5.70388e-08
9.91225e-07
-2.43013e-07
1.22898e-08
1.06081e-06
-3.86858e-07
-5.02078e-08
1.10862e-06
-4.11273e-07
-1.07813e-07
1.22765e-06
-4.57022e-07
-1.58407e-07
1.27805e-06
-4.71186e-07
-1.95892e-07
1.35032e-06
-4.93152e-07
-2.21841e-07
1.39296e-06
-5.08245e-07
-2.39969e-07
1.44066e-06
-5.18729e-07
-2.56041e-07
1.47732e-06
-5.25341e-07
-2.71858e-07
1.50689e-06
-5.28856e-07
-2.85639e-07
1.52455e-06
-5.30251e-07
-2.97065e-07
1.53524e-06
-5.30079e-07
-3.05696e-07
1.54115e-06
-5.30205e-07
-3.12668e-07
1.54348e-06
-5.30523e-07
-3.18548e-07
1.54368e-06
-5.3104e-07
-3.23281e-07
1.5441e-06
-5.31558e-07
-3.27323e-07
1.54531e-06
-5.32112e-07
-3.31491e-07
1.54755e-06
-5.32365e-07
-3.34884e-07
1.54871e-06
-5.33565e-07
-3.3909e-07
1.55101e-06
-5.3394e-07
-3.38979e-07
1.54893e-06
-5.3654e-07
-3.46303e-07
1.54777e-06
-5.34838e-07
-3.44255e-07
1.55038e-06
-5.36569e-07
-3.66833e-07
1.54454e-06
-5.28926e-07
-3.63007e-07
1.55743e-06
-5.30493e-07
-4.19283e-07
1.55321e-06
-5.14038e-07
-4.15354e-07
1.57405e-06
-5.2147e-07
-5.25468e-07
1.6072e-06
-4.94054e-07
-5.0253e-07
1.58011e-06
-5.21502e-07
-6.37832e-07
1.72598e-06
-4.90097e-07
-5.67966e-07
1.56088e-06
-5.44827e-07
-6.35062e-07
1.86033e-06
-5.50353e-07
-5.33572e-07
1.56815e-06
-5.91566e-07
-5.65262e-07
1.85623e-06
-6.70859e-07
-5.84334e-07
1.76666e-06
-6.87434e-07
-9.5505e-07
1.6406e-06
-7.0879e-07
-1.13629e-06
1.80132e-06
-8.72983e-07
-8.04739e-07
1.44223e-06
-1.03798e-06
-9.17088e-07
1.31017e-06
-8.83045e-07
1.13194e-07
1.38531e-07
-1.92742e-06
-3.10569e-07
1.84489e-06
-1.57974e-06
-2.2795e-06
-5.76534e-07
-7.93255e-07
5.73602e-06
-2.92089e-06
-6.70707e-06
1.10512e-05
9.95517e-06
-1.35367e-05
3.48362e-05
5.6896e-06
-1.59527e-05
3.86372e-05
-1.21945e-05
2.70736e-05
2.1334e-05
9.44988e-07
5.59389e-06
-4.91224e-05
8.85748e-06
1.5e-05
-6.66657e-05
1.51288e-06
5.8852e-06
-7.57609e-05
9.54226e-07
2.06892e-07
-7.82894e-05
7.09248e-07
-1.30415e-06
-7.93475e-05
1.54664e-06
-6.54471e-07
-7.99064e-05
3.39075e-06
5.15954e-07
-8.0201e-05
5.05689e-06
9.89193e-07
-8.0429e-05
6.55518e-06
1.53234e-06
-8.0255e-05
7.57205e-06
1.46129e-06
-7.97942e-05
8.06468e-06
1.17315e-06
-7.93078e-05
8.13421e-06
3.61803e-07
-7.8347e-05
8.53034e-06
-4.04458e-07
-7.7223e-05
8.32496e-06
-1.22238e-06
-7.55259e-05
7.47551e-06
-2.04328e-06
-7.3449e-05
6.40918e-06
-2.62012e-06
-7.12558e-05
5.18744e-06
-3.02082e-06
-6.8853e-05
3.32355e-06
-3.08973e-06
-6.66948e-05
1.36972e-06
-2.78735e-06
-6.48856e-05
-8.90935e-07
-2.20126e-06
-6.35855e-05
-3.1775e-06
-1.31873e-06
-6.31035e-05
-5.25725e-06
-3.50099e-07
-6.34084e-05
-6.99681e-06
4.4408e-07
-6.43315e-05
-8.55581e-06
1.03886e-06
-6.54299e-05
-9.64638e-06
1.1651e-06
-6.63187e-05
-1.02535e-05
8.79778e-07
-6.6243e-05
-9.89362e-06
-2.35695e-07
-6.49135e-05
-8.73433e-06
-1.80004e-06
-6.25951e-05
-7.07192e-06
-2.85989e-06
-5.8959e-05
-5.83204e-06
-3.1663e-06
-5.39391e-05
-4.35424e-06
-3.03049e-06
-4.78066e-05
-2.31474e-06
-2.97093e-06
-4.09484e-05
2.1193e-07
-3.05423e-06
-3.29705e-05
1.86518e-06
-3.38299e-06
-2.36507e-05
3.12494e-06
-4.10964e-06
-1.25364e-05
3.98402e-06
-4.50993e-06
3.79411e-06
-4.90012e-06
-5.05204e-06
1.20729e-06
2.04653e-06
-3.81659e-06
-3.49375e-06
-1.31688e-06
-4.00197e-06
-1.63882e-06
-8.70461e-07
-2.65851e-06
-2.89778e-06
-2.13626e-06
-1.71031e-06
-2.49589e-06
-1.74495e-06
-6.46281e-07
-3.01834e-06
-1.56724e-06
2.91224e-07
-1.87836e-06
-1.22073e-06
2.9242e-07
-8.208e-07
-4.99023e-07
1.90086e-07
1.367e-07
-9.68397e-08
2.05964e-07
5.01227e-08
4.98351e-08
2.54938e-07
2.43544e-07
7.663e-08
2.35429e-07
4.25864e-07