/*--------------------------------*- C++ -*----------------------------------*\
| =========                 |                                                 |
| \\      /  F ield         | OpenFOAM: The Open Source CFD Toolbox           |
|  \\    /   O peration     | Version:  2.3.0                                 |
|   \\  /    A nd           | Web:      www.OpenFOAM.org                      |
|    \\/     M anipulation  |                                                 |
\*---------------------------------------------------------------------------*/
FoamFile
{
    version     2.0;
    format      ascii;
    class       surfaceScalarField;
    location    "20";
    object      phi.air;
}
// * * * * * * * * * * * * * * * * * * * * * * * * * * * * * * * * * * * * * //

dimensions      [0 3 -1 0 0 0 0];

internalField   nonuniform List<scalar> 
16448
(
-2.34614e-06
-2.12703e-06
8.14956e-07
-1.05601e-06
-2.23238e-06
9.42242e-07
-6.15891e-07
-1.61793e-06
1.17781e-06
-1.42758e-07
-1.55034e-06
1.07721e-06
2.10317e-08
-9.856e-07
8.21806e-07
1.36817e-07
-8.48898e-07
7.33108e-07
8.15173e-08
-4.93465e-07
5.48759e-07
-1.25434e-07
-3.51579e-07
5.58524e-07
-4.18553e-07
-2.79516e-07
5.72629e-07
-6.41956e-07
-2.58112e-07
4.81508e-07
-7.54463e-07
-2.93964e-07
4.06464e-07
-6.97672e-07
-3.77113e-07
3.20315e-07
-5.73912e-07
-4.26686e-07
3.02919e-07
-4.0258e-07
-4.65279e-07
2.93941e-07
-2.78685e-07
-4.65349e-07
3.41446e-07
-1.73929e-07
-4.80101e-07
3.75338e-07
-1.08909e-07
-4.8231e-07
4.17282e-07
-6.0392e-08
-4.92065e-07
4.43539e-07
-2.98401e-08
-4.9584e-07
4.65279e-07
-9.67389e-09
-4.98277e-07
4.78102e-07
2.41806e-09
-4.98044e-07
4.85943e-07
9.54931e-09
-4.96375e-07
4.89235e-07
1.36391e-08
-4.93699e-07
4.896e-07
1.6045e-08
-4.90257e-07
4.87843e-07
1.72795e-08
-4.86142e-07
4.84899e-07
1.75417e-08
-4.81433e-07
4.81162e-07
1.69454e-08
-4.76459e-07
4.77047e-07
1.59069e-08
-4.71677e-07
4.72708e-07
1.45398e-08
-4.66904e-07
4.68262e-07
1.1853e-08
-4.6135e-07
4.64029e-07
1.05425e-08
-4.57703e-07
4.59005e-07
3.98253e-09
-4.4976e-07
4.56313e-07
4.34594e-09
-4.49468e-07
4.49096e-07
-9.0762e-09
-4.36198e-07
4.49613e-07
-5.10769e-09
-4.42331e-07
4.38355e-07
-2.64637e-08
-4.21244e-07
4.42593e-07
-1.63304e-08
-4.35749e-07
4.25608e-07
-4.55113e-08
-4.04326e-07
4.335e-07
-2.46081e-08
-4.27591e-07
4.0668e-07
-5.70921e-08
-3.84017e-07
4.16495e-07
-9.04728e-09
-4.22937e-07
3.74885e-07
-2.56882e-08
-3.67017e-07
3.83653e-07
5.89933e-08
-4.2682e-07
3.42131e-07
1.02059e-07
-3.97144e-07
3.54073e-07
1.81177e-07
-4.22679e-07
3.43555e-07
1.72296e-07
-4.3723e-07
4.46106e-07
5.46844e-08
-3.78398e-07
4.96004e-07
-1.68799e-07
-4.07963e-07
6.31444e-07
-6.15195e-07
-2.28681e-07
6.75072e-07
-8.57537e-07
-4.46506e-07
6.88847e-07
-1.17358e-06
-2.81322e-07
5.97361e-07
-1.13373e-06
-5.76202e-07
5.36354e-07
-9.34878e-07
-7.30648e-07
5.31782e-07
-1.49868e-06
-4.78601e-07
1.0424e-06
-3.38635e-07
-3.29207e-06
2.13196e-06
-1.51868e-06
-2.89762e-06
4.07764e-06
-2.03084e-06
2.44214e-06
-1.93152e-06
-4.61111e-06
3.65495e-06
-1.07558e-06
-7.56131e-06
3.03795e-06
-3.40889e-07
-2.79358e-05
-1.95822e-05
1.21239e-05
-5.98345e-05
-1.45453e-05
1.81144e-06
-1.55461e-05
-1.1847e-06
-7.02881e-07
2.22531e-05
3.25511e-06
-5.66131e-06
2.40811e-05
-1.61757e-07
-1.6499e-06
2.52875e-05
6.87205e-07
-1.97906e-06
2.57582e-05
1.96965e-06
-2.43173e-06
2.58797e-05
2.56474e-06
-2.70123e-06
2.58102e-05
2.72461e-06
-2.69777e-06
2.54409e-05
2.82728e-06
-2.49932e-06
2.46393e-05
2.91226e-06
-2.13419e-06
2.35455e-05
2.89016e-06
-1.8133e-06
2.22409e-05
2.77309e-06
-1.48359e-06
2.0754e-05
2.59269e-06
-1.11846e-06
1.91068e-05
2.35658e-06
-7.09715e-07
1.73744e-05
2.05401e-06
-3.12766e-07
1.56539e-05
1.68429e-06
4.76387e-08
1.40638e-05
1.17215e-06
4.18379e-07
1.30722e-05
1.82508e-07
7.87954e-07
1.24808e-05
-5.6289e-07
1.14915e-06
1.2115e-05
-1.11991e-06
1.49727e-06
1.19189e-05
-1.54007e-06
1.75061e-06
1.19702e-05
-1.94235e-06
1.89234e-06
1.22838e-05
-2.24695e-06
1.92483e-06
1.28277e-05
-2.41446e-06
1.85221e-06
1.35945e-05
-2.51301e-06
1.72543e-06
1.42875e-05
-2.24616e-06
1.54195e-06
1.48246e-05
-2.05279e-06
1.49792e-06
1.49785e-05
-1.60609e-06
1.43964e-06
1.46225e-05
-1.06087e-06
1.40842e-06
1.38714e-05
-5.3783e-07
1.28081e-06
1.21347e-05
5.9331e-07
1.15044e-06
9.60819e-06
1.59021e-06
9.361e-07
5.64364e-06
3.30235e-06
7.22718e-07
5.26625e-07
3.95583e-06
1.3948e-06
-1.90905e-06
3.33462e-06
-6.44202e-07
2.61946e-06
-3.68949e-06
-3.23007e-06
-3.0454e-06
1.94722e-07
-2.43084e-06
-3.25835e-06
2.26737e-07
-1.99059e-06
-2.56095e-06
5.02772e-07
-1.321e-06
-2.41153e-06
1.91598e-07
-8.11975e-07
-1.61379e-06
1.19161e-07
-3.04033e-07
-1.42515e-06
6.83099e-08
-2.35142e-07
-5.92542e-07
3.01817e-08
-4.55898e-07
-2.77907e-07
1.47079e-07
-7.67392e-07
-1.27566e-07
1.59538e-07
-9.47794e-07
-1.59388e-07
8.16719e-08
-1.00832e-06
-2.66049e-07
3.2607e-08
-8.95929e-07
-4.38073e-07
-5.14403e-08
-7.52666e-07
-5.04063e-07
-6.5893e-08
-5.76092e-07
-5.58086e-07
-8.37728e-08
-4.35771e-07
-5.53844e-07
-5.18338e-08
-3.0807e-07
-5.73409e-07
-3.44015e-08
-2.24028e-07
-5.65835e-07
-5.25062e-10
-1.57292e-07
-5.71144e-07
1.23345e-08
-1.12925e-07
-5.65857e-07
2.56401e-08
-8.19519e-08
-5.61944e-07
3.26848e-08
-6.20319e-08
-5.5488e-07
3.69069e-08
-4.89661e-08
-5.474e-07
3.79504e-08
-4.07558e-08
-5.39122e-07
3.72037e-08
-3.55955e-08
-5.30518e-07
3.50908e-08
-3.25794e-08
-5.21501e-07
3.23339e-08
-3.09559e-08
-5.12137e-07
2.90711e-08
-3.03623e-08
-5.02734e-07
2.56722e-08
-3.08227e-08
-4.93622e-07
2.23962e-08
-3.23185e-08
-4.84534e-07
1.91174e-08
-3.44801e-08
-4.75157e-07
1.59594e-08
-3.65613e-08
-4.67941e-07
1.23104e-08
-4.1538e-08
-4.54891e-07
1.00988e-08
-4.44226e-08
-4.5209e-07
5.49775e-09
-5.54355e-08
-4.30845e-07
5.65119e-09
-5.57044e-08
-4.38811e-07
-3.26016e-09
-7.40884e-08
-4.03541e-07
6.71828e-10
-6.58867e-08
-4.26917e-07
-1.70414e-08
-9.27083e-08
-3.70139e-07
-7.37324e-09
-6.94893e-08
-4.16424e-07
-3.43931e-08
-1.00324e-07
-3.32056e-07
-2.11332e-08
-4.08729e-08
-4.21603e-07
-6.07918e-08
-6.52869e-08
-3.0031e-07
-4.22998e-08
4.47879e-08
-4.59169e-07
-7.7731e-08
2.46236e-08
-3.28588e-07
-4.83965e-08
1.45686e-07
-4.93233e-07
-5.05126e-08
6.10082e-08
-3.81962e-07
2.94057e-08
1.74684e-08
-3.88571e-07
5.37114e-08
-1.99155e-07
-3.57305e-07
1.65963e-07
-6.72191e-07
6.07614e-08
1.83593e-07
-9.1246e-07
-3.8956e-07
1.83323e-07
-1.50685e-06
1.11127e-07
2.01939e-07
-1.37642e-06
-6.49779e-07
-5.68498e-08
-2.32802e-07
-1.48001e-06
-3.94259e-07
-5.65182e-07
-3.51857e-07
2.05628e-07
6.25185e-07
-4.54554e-06
6.30669e-08
2.73606e-06
-7.02775e-06
2.01919e-06
-3.74698e-06
1.03842e-05
-1.46061e-06
-1.09432e-05
1.11095e-05
-2.59111e-07
-7.22451e-06
5.15691e-06
-6.09949e-06
-2.76696e-05
-3.26364e-05
5.61587e-06
-7.38371e-05
-2.15656e-05
3.07162e-06
-3.33327e-05
-3.88441e-06
-2.63717e-06
1.2344e-05
5.78715e-07
-6.10998e-06
1.51191e-05
1.30301e-06
-4.60903e-06
1.71114e-05
3.49313e-06
-4.49241e-06
1.92262e-05
4.51492e-06
-4.5863e-06
2.10132e-05
5.00044e-06
-4.24881e-06
2.20866e-05
5.25426e-06
-3.59404e-06
2.23579e-05
5.35966e-06
-2.7775e-06
2.20475e-05
5.31119e-06
-2.08635e-06
2.15002e-05
5.17385e-06
-1.76646e-06
2.0707e-05
4.95136e-06
-1.41349e-06
1.94065e-05
4.74147e-06
-8.44404e-07
1.76918e-05
4.21018e-06
-1.54123e-07
1.59481e-05
3.20498e-06
5.48032e-07
1.42946e-05
2.25378e-06
1.06885e-06
1.26375e-05
1.47552e-06
1.39483e-06
1.075e-05
4.71657e-07
1.63774e-06
8.87285e-06
-6.78612e-07
1.98644e-06
7.04443e-06
-1.56451e-06
2.24882e-06
5.65357e-06
-2.39226e-06
2.20754e-06
4.99522e-06
-3.11484e-06
1.79658e-06
5.27368e-06
-3.72527e-06
1.1822e-06
6.30527e-06
-4.05529e-06
6.08865e-07
7.66753e-06
-3.99699e-06
1.46839e-07
8.88682e-06
-3.48679e-06
3.84836e-08
9.53817e-06
-2.91754e-06
2.26159e-07
9.78213e-06
-2.26166e-06
4.19537e-07
9.47595e-06
-1.39729e-06
6.3672e-07
8.86499e-06
-3.84873e-07
4.72099e-07
7.99509e-06
1.17025e-06
3.12629e-07
6.53882e-06
3.25527e-06
-1.46717e-07
4.39319e-06
5.74392e-06
-2.0647e-07
7.87742e-07
7.17163e-06
6.1029e-07
-1.27912e-06
6.67567e-06
-1.03444e-06
6.28443e-06
-4.03611e-06
-3.3165e-06
-3.32979e-06
8.80939e-08
-2.71672e-06
-3.68481e-06
-1.73312e-07
-2.48559e-06
-2.99315e-06
2.01075e-07
-1.96722e-06
-2.94269e-06
1.27897e-08
-1.38326e-06
-2.15816e-06
-3.9594e-08
-7.22453e-07
-1.95014e-06
-1.35818e-07
-5.06771e-07
-6.33189e-07
-1.75039e-07
-5.54571e-07
-1.6094e-07
-6.91715e-08
-7.65959e-07
1.27569e-07
-4.37525e-08
-8.78835e-07
3.27703e-08
-7.92889e-08
-9.08484e-07
-1.17508e-07
-1.18899e-07
-8.27868e-07
-3.19564e-07
-1.99131e-07
-7.43837e-07
-3.6502e-07
-2.23081e-07
-6.3663e-07
-4.14684e-07
-2.50615e-07
-5.30509e-07
-4.06774e-07
-2.53199e-07
-4.17426e-07
-4.27222e-07
-2.59278e-07
-3.31747e-07
-4.06691e-07
-2.44832e-07
-2.58931e-07
-4.05289e-07
-2.3868e-07
-2.08331e-07
-3.87004e-07
-2.29462e-07
-1.70974e-07
-3.74268e-07
-2.25042e-07
-1.46082e-07
-3.58045e-07
-2.21737e-07
-1.29033e-07
-3.43521e-07
-2.20937e-07
-1.17975e-07
-3.28957e-07
-2.21234e-07
-1.10796e-07
-3.15246e-07
-2.2246e-07
-1.06011e-07
-3.02206e-07
-2.2409e-07
-1.02925e-07
-2.89215e-07
-2.26016e-07
-1.01183e-07
-2.76373e-07
-2.28113e-07
-1.00932e-07
-2.63729e-07
-2.30153e-07
-1.02199e-07
-2.51051e-07
-2.32226e-07
-1.04038e-07
-2.38858e-07
-2.34469e-07
-1.07306e-07
-2.27896e-07
-2.36786e-07
-1.1084e-07
-2.13019e-07
-2.38347e-07
-1.15785e-07
-2.05957e-07
-2.41196e-07
-1.21722e-07
-1.83375e-07
-2.41542e-07
-1.24072e-07
-1.886e-07
-2.47868e-07
-1.33105e-07
-1.48961e-07
-2.45555e-07
-1.2749e-07
-1.76378e-07
-2.56162e-07
-1.40785e-07
-1.07727e-07
-2.49124e-07
-1.20467e-07
-1.70656e-07
-2.66092e-07
-1.39945e-07
-6.17347e-08
-2.5085e-07
-9.88702e-08
-1.86664e-07
-2.7602e-07
-1.33799e-07
-2.26908e-08
-2.42695e-07
-8.56046e-08
-2.31452e-07
-2.75917e-07
-1.69933e-07
-3.43546e-08
-2.09908e-07
-1.4877e-07
-2.74235e-07
-2.40165e-07
-2.7217e-07
-1.01281e-07
-1.57282e-07
-3.13807e-07
-1.67362e-07
-1.79575e-07
-3.80934e-07
-1.52679e-07
-1.37497e-07
-5.00337e-07
2.89492e-07
-1.09329e-07
-4.91272e-07
-2.49124e-07
-1.49498e-07
-9.45751e-07
5.49595e-07
1.60112e-08
-1.21378e-06
-1.47901e-07
-2.3385e-07
-3.62918e-07
-1.62334e-06
-7.07532e-07
3.2026e-06
-2.09445e-06
-1.82294e-06
4.17362e-06
-6.05794e-06
5.41304e-07
2.64507e-06
-7.00266e-06
1.50338e-06
4.79479e-06
1.18975e-05
-3.66468e-06
-5.53384e-07
1.70181e-05
-5.60533e-07
-4.75736e-06
1.26801e-05
-3.59195e-06
-2.92305e-05
-3.89053e-05
2.89008e-06
-7.7503e-05
-3.30291e-05
6.66337e-06
-3.69385e-05
-1.29457e-05
4.68241e-07
1.44951e-05
-1.27517e-05
-3.99731e-06
1.60649e-05
1.97123e-06
-2.65804e-06
1.64832e-05
5.72825e-06
-2.43521e-06
1.75864e-05
5.83207e-06
-2.53214e-06
1.83592e-05
6.42858e-06
-2.34051e-06
1.87951e-05
7.0212e-06
-2.28691e-06
1.86967e-05
7.15008e-06
-1.71966e-06
1.8054e-05
6.8509e-06
-8.81557e-07
1.7009e-05
6.35049e-06
-1.24741e-07
1.60049e-05
5.23125e-06
6.88087e-07
1.49138e-05
4.4425e-06
1.39149e-06
1.33312e-05
3.88415e-06
1.96044e-06
1.06752e-05
3.33662e-06
2.59647e-06
6.83404e-06
2.91636e-06
3.23797e-06
1.46574e-06
2.64819e-06
4.1462e-06
-3.49865e-06
1.40422e-06
4.00131e-06
-6.11279e-06
-6.00529e-07
2.54502e-06
-6.73629e-06
-2.20259e-06
1.26295e-06
-5.73949e-06
-3.53062e-06
1.51665e-07
-3.94801e-06
-4.18954e-06
-7.04877e-07
-1.73428e-06
-4.5087e-06
-1.41538e-06
6.23828e-07
-4.50356e-06
-1.90009e-06
2.70503e-06
-4.14003e-06
-1.93504e-06
4.07738e-06
-3.40393e-06
-1.46693e-06
4.55299e-06
-2.64389e-06
-7.6906e-07
4.2922e-06
-1.83584e-06
-1.85706e-07
3.61063e-06
-7.85751e-07
5.95341e-08
2.78336e-06
5.12594e-07
-6.01369e-08
2.05841e-06
2.27544e-06
-3.77197e-07
1.48868e-06
4.77053e-06
-8.96715e-07
6.95744e-07
7.74887e-06
-1.03215e-06
-1.27339e-06
9.65118e-06
-1.91019e-07
-1.89503e-06
9.25233e-06
-1.69169e-06
9.53656e-06
-4.10677e-06
-3.35754e-06
-3.41588e-06
1.72443e-07
-2.67793e-06
-3.95473e-06
-4.09701e-07
-2.56196e-06
-3.34311e-06
2.33995e-07
-2.10385e-06
-3.50104e-06
1.00244e-07
-1.58706e-06
-2.77461e-06
9.96682e-08
-9.42475e-07
-2.60135e-06
6.62224e-09
-5.88413e-07
-9.47316e-07
-3.99365e-08
-4.13047e-07
-3.36863e-07
5.50688e-10
-5.13253e-07
2.50436e-07
-2.26673e-08
-6.13096e-07
1.89283e-07
-5.6677e-08
-6.52419e-07
6.04424e-08
-1.38635e-07
-6.52202e-07
-1.06991e-07
-2.12798e-07
-6.50968e-07
-1.18093e-07
-2.48168e-07
-6.16881e-07
-1.64289e-07
-2.84491e-07
-5.52703e-07
-1.6543e-07
-3.0553e-07
-4.64791e-07
-1.87035e-07
-3.28108e-07
-3.84847e-07
-1.57846e-07
-3.28798e-07
-3.06925e-07
-1.49641e-07
-3.3358e-07
-2.48254e-07
-1.18419e-07
-3.27265e-07
-2.02193e-07
-9.59664e-08
-3.24372e-07
-1.70699e-07
-6.89027e-08
-3.20646e-07
-1.49246e-07
-4.53393e-08
-3.19645e-07
-1.35817e-07
-2.29889e-08
-3.19406e-07
-1.28755e-07
-2.47452e-09
-3.19844e-07
-1.25009e-07
1.42987e-08
-3.2026e-07
-1.2344e-07
3.01165e-08
-3.2091e-07
-1.22957e-07
4.49432e-08
-3.21808e-07
-1.23287e-07
5.92159e-08
-3.22625e-07
-1.24705e-07
7.35659e-08
-3.23208e-07
-1.27085e-07
8.73275e-08
-3.23815e-07
-1.30825e-07
1.00441e-07
-3.24605e-07
-1.34344e-07
1.15344e-07
-3.24852e-07
-1.3886e-07
1.25195e-07
-3.26644e-07
-1.42942e-07
1.46828e-07
-3.26129e-07
-1.4456e-07
1.44444e-07
-3.31433e-07
-1.50708e-07
1.84661e-07
-3.27483e-07
-1.44448e-07
1.5527e-07
-3.37914e-07
-1.5444e-07
2.30371e-07
-3.28113e-07
-1.36896e-07
1.56256e-07
-3.44462e-07
-1.57106e-07
2.82519e-07
-3.2405e-07
-1.41919e-07
1.40251e-07
-3.42105e-07
-1.88022e-07
3.30311e-07
-3.06905e-07
-2.30258e-07
1.22054e-07
-3.11271e-07
-3.19117e-07
3.2964e-07
-2.75141e-07
-4.4173e-07
1.13964e-07
-2.65586e-07
-5.41977e-07
2.58303e-07
-2.5934e-07
-5.84293e-07
1.28949e-07
-2.53991e-07
-6.32343e-07
1.49816e-07
-2.54447e-07
-2.10998e-07
1.59866e-07
-2.91715e-07
-1.62934e-07
-3.21054e-08
-2.65085e-07
1.83196e-07
3.82025e-07
-1.78554e-07
5.46937e-07
2.34959e-08
-5.35141e-07
1.01397e-06
-1.67715e-06
-4.13228e-07
4.40651e-06
-4.50214e-06
-9.84868e-07
-3.82603e-07
-3.61819e-06
2.34928e-06
-7.98113e-06
-2.55705e-06
3.15289e-06
4.68513e-06
3.78153e-06
-4.55201e-06
5.88153e-06
2.10602e-05
-5.23812e-06
2.07285e-06
1.7149e-05
-9.03189e-07
-2.37042e-05
-4.05496e-05
1.06641e-06
-3.55618e-05
-3.70627e-05
7.38286e-06
-2.24659e-05
-1.04832e-05
1.53503e-06
-2.15599e-05
-1.12259e-05
-2.00517e-06
3.18703e-06
5.51087e-06
-3.88573e-06
8.81441e-06
6.01338e-06
-5.037e-06
1.15784e-05
8.11884e-06
-3.926e-06
1.24877e-05
8.5388e-06
-2.78018e-06
1.28362e-05
7.53359e-06
-1.63216e-06
1.29473e-05
6.09567e-06
2.36826e-07
1.26205e-05
5.29447e-06
2.16036e-06
1.17508e-05
5.20746e-06
3.11336e-06
9.46476e-06
5.31237e-06
2.9881e-06
5.38892e-06
5.31533e-06
4.80621e-06
-1.30806e-06
5.65546e-06
5.72932e-06
-8.76931e-06
5.20734e-06
5.46922e-06
-1.38723e-05
3.59598e-06
3.57654e-06
-1.61775e-05
2.10691e-06
2.89309e-06
-1.64745e-05
2.74283e-07
1.25893e-06
-1.56202e-05
-1.30624e-06
6.93626e-08
-1.41128e-05
-2.39698e-06
-1.18916e-06
-1.22262e-05
-3.16172e-06
-2.05153e-06
-9.95266e-06
-3.61493e-06
-2.62165e-06
-7.44468e-06
-3.90917e-06
-2.92102e-06
-4.92089e-06
-4.16487e-06
-2.85604e-06
-2.7319e-06
-3.99521e-06
-2.31174e-06
-1.36023e-06
-3.36334e-06
-1.4392e-06
-9.66631e-07
-2.51464e-06
-5.79832e-07
-1.15876e-06
-1.57743e-06
-1.12266e-07
-1.49028e-06
-4.22759e-07
-4.41013e-08
-1.88438e-06
1.22685e-06
-3.13681e-07
-2.20264e-06
3.42911e-06
-8.2447e-07
-2.06144e-06
6.17931e-06
-1.47308e-06
-2.08517e-06
9.39742e-06
-1.41256e-06
-2.90497e-06
1.13205e-05
-5.84507e-07
-2.55127e-06
1.10326e-05
-1.95356e-06
1.19738e-05
-3.9138e-06
-3.70148e-06
-3.50463e-06
4.6819e-07
-2.88265e-06
-4.20491e-06
-5.68651e-07
-2.68998e-06
-3.72407e-06
1.88299e-07
-2.10277e-06
-4.08089e-06
-7.36292e-09
-1.7041e-06
-3.34178e-06
1.68503e-07
-1.21677e-06
-3.21715e-06
1.28472e-07
-8.7864e-07
-1.46269e-06
1.77239e-07
-4.64539e-07
-8.37249e-07
8.62794e-08
-3.15167e-07
1.13839e-07
-1.27828e-08
-3.01497e-07
2.05906e-07
-3.03012e-08
-3.25388e-07
1.94994e-07
-1.1067e-07
-4.22318e-07
1.38315e-07
-1.48384e-07
-4.9872e-07
1.47936e-07
-1.89637e-07
-5.34334e-07
9.86351e-08
-2.27318e-07
-5.08305e-07
7.2806e-08
-2.64275e-07
-4.55095e-07
5.39109e-08
-2.94164e-07
-3.93964e-07
9.22269e-08
-3.11213e-07
-3.27687e-07
1.11975e-07
-3.27902e-07
-2.72808e-07
1.57341e-07
-3.30649e-07
-2.25782e-07
1.89532e-07
-3.32534e-07
-1.91843e-07
2.26861e-07
-3.29713e-07
-1.68194e-07
2.57654e-07
-3.26651e-07
-1.52867e-07
2.84958e-07
-3.23284e-07
-1.42599e-07
3.07862e-07
-3.20612e-07
-1.38142e-07
3.28158e-07
-3.18327e-07
-1.36992e-07
3.45586e-07
-3.16628e-07
-1.36889e-07
3.60128e-07
-3.15297e-07
-1.36956e-07
3.7329e-07
-3.14015e-07
-1.37574e-07
3.86634e-07
-3.12458e-07
-1.3907e-07
3.99393e-07
-3.10577e-07
-1.42018e-07
4.1172e-07
-3.0834e-07
-1.45071e-07
4.24378e-07
-3.05989e-07
-1.48928e-07
4.33672e-07
-3.04629e-07
-1.51959e-07
4.50948e-07
-3.01095e-07
-1.51935e-07
4.46745e-07
-3.02334e-07
-1.56624e-07
4.83611e-07
-2.94267e-07
-1.50213e-07
4.49816e-07
-3.00965e-07
-1.61621e-07
5.26067e-07
-2.84293e-07
-1.50646e-07
4.41037e-07
-2.95762e-07
-1.76607e-07
5.75515e-07
-2.67037e-07
-1.85915e-07
4.25126e-07
-2.75573e-07
-2.36009e-07
6.20805e-07
-2.40402e-07
-3.28441e-07
4.43761e-07
-2.2928e-07
-4.06021e-07
6.26089e-07
-2.18868e-07
-6.08365e-07
5.06513e-07
-1.9021e-07
-6.78707e-07
5.74295e-07
-2.45646e-07
-7.60331e-07
4.41534e-07
-2.30963e-07
-7.65662e-07
4.6043e-07
-3.05276e-07
-1.5714e-07
-9.97113e-08
-3.48947e-07
1.2326e-07
7.92347e-08
-3.91733e-07
3.71844e-07
1.92793e-07
-5.93556e-08
1.29071e-06
-3.68808e-07
-5.26556e-07
1.47152e-06
-1.53907e-06
-3.18903e-07
1.53725e-06
-4.60087e-06
3.29859e-08
-3.00038e-06
-8.7796e-07
1.79728e-06
-8.5493e-06
2.19672e-06
7.95186e-07
5.89137e-06
-6.10442e-06
-4.5562e-06
1.19627e-05
2.45358e-05
-9.54662e-06
1.48805e-05
5.0346e-06
8.33239e-06
-3.60545e-05
-2.94166e-05
3.28023e-06
-0.000111823
-3.93515e-05
6.19444e-06
-0.000108038
-1.02194e-05
1.2997e-06
-0.000106169
-8.3229e-06
-1.35796e-06
-9.98039e-05
3.6716e-06
-3.07788e-06
-9.38364e-05
4.6109e-06
-2.4701e-06
-9.2551e-05
7.78663e-06
-2.5661e-07
-9.21828e-05
7.3839e-06
1.40882e-06
-9.39541e-05
6.41309e-06
3.11937e-06
-9.69583e-05
5.49105e-06
4.52768e-06
-0.000101831
6.04534e-06
5.76781e-06
-0.000110605
7.27536e-06
6.10045e-06
-0.00011978
7.96278e-06
5.52971e-06
-0.000125944
7.59418e-06
4.39975e-06
-0.000130497
6.49548e-06
3.26185e-06
-0.000133663
5.17176e-06
2.39781e-06
-0.000135707
3.31232e-06
1.40267e-06
-0.000136121
1.95875e-06
2.63381e-07
-0.000135374
4.5778e-07
-5.48377e-07
-0.000134295
-9.30543e-07
-1.47744e-06
-0.000131717
-2.20178e-06
-1.73981e-06
-0.000125376
-3.11076e-06
-1.95965e-06
-0.000106569
-3.6115e-06
-2.03117e-06
-5.52791e-05
-4.11287e-06
-1.98599e-06
-1.51784e-05
-4.79059e-06
-2.08554e-06
-1.2075e-05
-4.42337e-06
-1.72746e-06
-9.42753e-06
-3.68395e-06
-1.33251e-06
-7.85575e-06
-2.35054e-06
-8.37601e-07
-7.28355e-06
-4.42794e-07
-6.43329e-07
-7.28765e-06
1.76016e-07
-6.22482e-07
-7.1239e-06
1.94462e-06
-8.31373e-07
-6.66748e-06
4.24615e-06
-1.19488e-06
-6.10077e-06
7.26665e-06
-1.46907e-06
-5.51409e-06
1.01638e-05
-1.09733e-06
-4.96263e-06
1.17346e-05
-7.42074e-07
-3.45806e-06
1.18314e-05
-2.15813e-06
1.33117e-05
-3.65598e-06
-4.29715e-06
-3.3685e-06
4.86446e-07
-3.38444e-06
-4.38344e-06
-7.34178e-07
-3.20817e-06
-3.92593e-06
2.55919e-08
-2.2591e-06
-4.5359e-06
-4.94047e-07
-1.67087e-06
-3.8816e-06
-4.84099e-08
-1.08182e-06
-3.77204e-06
-3.41614e-08
-8.12743e-07
-2.02441e-06
2.92642e-07
-5.08478e-07
-1.31812e-06
1.766e-07
-2.70489e-07
-1.34979e-07
1.08212e-08
-9.19386e-08
6.59438e-08
-3.85983e-08
1.01667e-08
2.1382e-07
-1.2094e-07
-1.42002e-07
3.7951e-07
-8.90365e-08
-2.97079e-07
4.55062e-07
-1.52057e-07
-4.09203e-07
4.06349e-07
-1.956e-07
-4.21592e-07
3.4563e-07
-2.60444e-07
-3.99523e-07
3.26603e-07
-2.94771e-07
-3.61447e-07
3.75833e-07
-3.21691e-07
-3.18436e-07
4.10154e-07
-3.412e-07
-2.79774e-07
4.67492e-07
-3.48822e-07
-2.43958e-07
5.06705e-07
-3.52999e-07
-2.17561e-07
5.50579e-07
-3.50123e-07
-1.98189e-07
5.84283e-07
-3.46011e-07
-1.86369e-07
6.13183e-07
-3.40054e-07
-1.81275e-07
6.36089e-07
-3.33331e-07
-1.81352e-07
6.55222e-07
-3.26995e-07
-1.84657e-07
6.70595e-07
-3.21713e-07
-1.88933e-07
6.818e-07
-3.17404e-07
-1.92495e-07
6.90431e-07
-3.13588e-07
-1.95351e-07
6.99168e-07
-3.09685e-07
-1.97846e-07
7.07392e-07
-3.05513e-07
-2.00453e-07
7.15353e-07
-3.01033e-07
-2.0238e-07
7.2275e-07
-2.96454e-07
-2.05583e-07
7.28697e-07
-2.91828e-07
-2.06604e-07
7.38015e-07
-2.86054e-07
-2.086e-07
7.32725e-07
-2.83989e-07
-2.11456e-07
7.59319e-07
-2.72859e-07
-2.13587e-07
7.28052e-07
-2.76108e-07
-2.23402e-07
7.90565e-07
-2.5469e-07
-2.34036e-07
7.15257e-07
-2.63588e-07
-2.56355e-07
8.29234e-07
-2.31407e-07
-3.0571e-07
7.10853e-07
-2.36374e-07
-3.37019e-07
8.63292e-07
-2.11184e-07
-4.76016e-07
7.70373e-07
-1.87614e-07
-5.10704e-07
8.7113e-07
-2.1036e-07
-7.28465e-07
8.83044e-07
-1.58767e-07
-7.46372e-07
8.42843e-07
-2.50646e-07
-8.26447e-07
7.62833e-07
-2.4122e-07
-7.59915e-07
7.39066e-07
-3.45172e-07
-5.80865e-07
5.21998e-08
-3.30954e-07
-3.9791e-07
3.22338e-07
-4.26063e-07
-3.57167e-07
3.59312e-07
-2.07253e-07
-5.6076e-07
-1.39096e-07
-2.61245e-08
-6.38227e-07
-8.70281e-07
-5.91319e-07
-2.83464e-06
-2.09323e-06
-3.11238e-07
-1.84612e-07
-3.90733e-06
3.79255e-07
4.75526e-06
1.16627e-06
-3.90948e-06
1.10908e-05
-6.23837e-06
-6.20241e-06
2.13237e-05
2.40902e-05
-9.78723e-06
1.59155e-05
-9.38034e-06
1.7309e-05
-4.31241e-05
-1.85494e-05
4.06695e-06
-0.000112964
-3.82427e-05
8.5774e-06
-0.000114939
-1.20301e-05
2.4263e-06
-0.000118509
-1.04135e-05
-4.2858e-07
-0.000114989
-1.32876e-06
-1.63167e-06
-0.000111891
1.12611e-06
5.0256e-07
-0.000110708
5.56528e-06
3.14171e-06
-0.000110891
5.83642e-06
4.41882e-06
-0.000117969
7.06619e-06
5.93823e-06
-0.000131272
7.54009e-06
6.40892e-06
-0.000139846
9.38033e-06
5.44413e-06
-0.000137465
1.06142e-05
4.38815e-06
-0.000115719
9.30345e-06
3.3933e-06
-0.000128653
8.36134e-06
2.74327e-06
-0.000159593
7.15262e-06
1.94223e-06
-0.000159496
5.868e-06
9.64548e-07
-0.000159979
4.35991e-06
4.96081e-07
-0.000159271
3.0254e-06
-1.90069e-07
-0.000158157
1.53258e-06
-5.66146e-07
-0.000157885
-8.2846e-07
-8.29473e-07
-0.000157367
-2.45754e-06
-8.99728e-07
-0.000156182
-3.81616e-06
-9.42431e-07
-0.00015599
-5.24106e-06
-1.01591e-06
-0.000148974
-6.21453e-06
-1.14031e-06
-0.000140251
-6.84291e-06
-1.32462e-06
-0.000135537
-6.35906e-06
-1.33997e-06
-0.000131044
-5.59742e-06
-1.20558e-06
-0.00011176
-4.08371e-06
-9.43561e-07
-5.41601e-05
-1.81776e-06
-5.84742e-07
-1.27098e-05
-8.79634e-07
-5.66809e-07
-1.19001e-05
1.35246e-06
-6.00724e-07
-1.1495e-05
3.36487e-06
-5.66624e-07
-1.02566e-05
6.66539e-06
-4.06157e-07
-8.4107e-06
8.06975e-06
-2.49781e-07
-6.10605e-06
1.02346e-05
-6.3214e-07
-3.85079e-06
1.20387e-05
-1.89137e-06
1.38503e-05
-3.26967e-06
-4.86169e-06
-2.92906e-06
4.83648e-07
-3.77874e-06
-4.1637e-06
-1.30268e-06
-3.66111e-06
-3.56638e-06
-4.77174e-07
-2.41317e-06
-4.37143e-06
-1.4124e-06
-1.62447e-06
-3.87738e-06
-7.9293e-07
-7.65777e-07
-3.90301e-06
-7.27721e-07
-3.33162e-07
-2.33911e-06
-1.17931e-07
-2.63842e-07
-1.51851e-06
1.31062e-07
-1.83382e-07
-2.34794e-07
1.93444e-08
-2.33205e-08
-4.2966e-08
-5.11603e-08
1.56402e-07
1.94354e-07
-1.60267e-07
9.73504e-09
5.52299e-07
-2.61312e-08
-1.41111e-07
7.07009e-07
-1.01112e-07
-2.71638e-07
6.8507e-07
-1.48203e-07
-2.98515e-07
6.2923e-07
-2.56733e-07
-3.05778e-07
6.35048e-07
-3.01191e-07
-3.07634e-07
7.13109e-07
-3.3543e-07
-3.04826e-07
7.56469e-07
-3.4913e-07
-2.97808e-07
8.19831e-07
-3.59367e-07
-2.8564e-07
8.58973e-07
-3.64443e-07
-2.75863e-07
9.04002e-07
-3.6321e-07
-2.68303e-07
9.36119e-07
-3.59403e-07
-2.65849e-07
9.62452e-07
-3.51732e-07
-2.67475e-07
9.80779e-07
-3.43071e-07
-2.71941e-07
9.94025e-07
-3.34345e-07
-2.786e-07
1.0026e-06
-3.25355e-07
-2.86426e-07
1.00629e-06
-3.16674e-07
-2.93094e-07
1.00707e-06
-3.09978e-07
-2.9838e-07
1.00815e-06
-3.03705e-07
-3.02765e-07
1.0095e-06
-2.9773e-07
-3.06814e-07
1.01138e-06
-2.91983e-07
-3.09529e-07
1.01213e-06
-2.86667e-07
-3.13447e-07
1.01321e-06
-2.80607e-07
-3.13678e-07
1.01293e-06
-2.74689e-07
-3.18854e-07
1.00588e-06
-2.67989e-07
-3.17187e-07
1.01643e-06
-2.58777e-07
-3.29589e-07
9.93162e-07
-2.52714e-07
-3.31344e-07
1.03156e-06
-2.39242e-07
-3.65988e-07
9.82736e-07
-2.3284e-07
-3.74779e-07
1.05761e-06
-2.1959e-07
-4.60373e-07
1.00247e-06
-2.06028e-07
-4.69159e-07
1.08307e-06
-2.1099e-07
-6.20204e-07
1.09948e-06
-1.78073e-07
-6.11085e-07
1.08799e-06
-2.25977e-07
-7.78825e-07
1.24114e-06
-1.90363e-07
-7.42588e-07
1.08087e-06
-2.74262e-07
-8.4654e-07
1.1508e-06
-2.84025e-07
-7.86904e-07
1.06325e-06
-3.83814e-07
-9.93951e-07
5.50456e-07
-2.91216e-07
-9.1319e-07
7.46831e-07
-5.05247e-07
-6.89334e-07
6.8475e-07
-5.49302e-07
-8.90467e-07
3.12753e-07
-2.5071e-07
3.71735e-07
-9.59687e-07
-1.17281e-06
-8.48591e-07
-1.27413e-07
-7.45494e-07
-1.11792e-06
-3.92189e-06
2.83788e-07
5.53329e-06
-1.6077e-06
-3.87728e-06
9.08515e-06
8.00027e-07
-1.05907e-05
3.07726e-05
1.41781e-05
-1.17753e-05
1.84832e-06
-1.15182e-05
2.33845e-05
-7.39012e-05
-9.39254e-06
3.43124e-06
-0.000141434
-1.99374e-05
1.21679e-05
-0.000140423
-9.1098e-06
3.18288e-06
-0.000144966
-7.46641e-06
7.20075e-07
-0.000152761
-3.37178e-06
-4.52613e-07
-0.000153086
-2.41224e-07
1.55205e-06
-0.000161457
4.53356e-06
3.00943e-06
-0.000162846
5.98172e-06
3.84759e-06
-0.000130998
8.15671e-06
4.1792e-06
-8.6975e-05
9.7126e-06
4.3945e-06
-0.000115367
9.18151e-06
3.74307e-06
-0.000164577
8.61736e-06
2.21507e-06
-0.000171511
9.06067e-06
1.97397e-06
-0.00017853
8.37721e-06
1.35585e-06
-0.00017939
7.40012e-06
7.41902e-07
-0.000181669
6.15677e-06
3.0051e-07
-0.000184032
4.57716e-06
-2.55238e-07
-0.000182922
3.11025e-06
-5.19208e-07
-0.000179386
1.45718e-06
-5.30794e-07
-0.000180725
-1.47671e-06
-4.34781e-07
-0.000179886
-3.11845e-06
-2.40448e-07
-0.00017983
-5.03887e-06
-2.97289e-08
-0.000178936
-6.95861e-06
1.42379e-07
-0.000176394
-8.44403e-06
1.86268e-07
-0.000172407
-9.37443e-06
-1.331e-07
-0.000166937
-9.47879e-06
-4.61238e-07
-0.000164741
-8.98542e-06
-1.14339e-06
-0.000162792
-7.81202e-06
-1.44039e-06
-0.000148444
-6.08421e-06
-1.44439e-06
-0.000132454
-3.46925e-06
-1.17966e-06
-0.000105643
-6.59135e-07
-8.89237e-07
-4.88563e-05
1.81104e-06
-4.85634e-07
-2.5321e-05
4.35119e-06
-6.4226e-07
-2.4221e-05
6.86568e-06
-7.41938e-07
-6.20213e-05
8.86606e-06
-1.51876e-06
-0.000121678
1.19671e-05
-2.41682e-06
1.36177e-05
-3.13325e-06
-5.15882e-06
-1.91265e-06
4.10666e-07
-3.85308e-06
-3.56936e-06
-1.90007e-06
-3.86011e-06
-2.69941e-06
-8.59932e-07
-2.56607e-06
-3.69598e-06
-1.96949e-06
-1.68036e-06
-3.30044e-06
-1.46265e-06
-7.05321e-07
-3.53329e-06
-1.34477e-06
-1.80207e-08
-2.17188e-06
-8.54536e-07
9.66797e-08
-1.32289e-06
-3.10331e-07
9.73381e-08
-6.40226e-08
-1.71439e-07
1.08266e-07
1.12579e-07
-1.66485e-07
1.90753e-07
3.67362e-07
-2.55505e-07
8.3846e-08
7.13816e-07
-5.46212e-08
2.06138e-08
9.75194e-07
-2.04962e-07
-4.35285e-08
9.91685e-07
-2.42484e-07
-8.92464e-08
1.06133e-06
-3.86394e-07
-1.52555e-07
1.10917e-06
-4.10828e-07
-2.11109e-07
1.22824e-06
-4.56588e-07
-2.6256e-07
1.27867e-06
-4.70759e-07
-3.00983e-07
1.35097e-06
-4.92725e-07
-3.27826e-07
1.39363e-06
-5.0782e-07
-3.46877e-07
1.44134e-06
-5.18298e-07
-3.63871e-07
1.47801e-06
-5.24907e-07
-3.80616e-07
1.5076e-06
-5.2841e-07
-3.95327e-07
1.52528e-06
-5.29796e-07
-4.07683e-07
1.53599e-06
-5.29612e-07
-4.17261e-07
1.5419e-06
-5.29731e-07
-4.25183e-07
1.54425e-06
-5.30039e-07
-4.32024e-07
1.54446e-06
-5.3055e-07
-4.37713e-07
1.5449e-06
-5.3106e-07
-4.42722e-07
1.54611e-06
-5.3161e-07
-4.47856e-07
1.54836e-06
-5.31855e-07
-4.52215e-07
1.54953e-06
-5.33053e-07
-4.57422e-07
1.55184e-06
-5.3342e-07
-4.58244e-07
1.54976e-06
-5.36015e-07
-4.66664e-07
1.54861e-06
-5.34306e-07
-4.65439e-07
1.55122e-06
-5.36027e-07
-4.8928e-07
1.54538e-06
-5.2838e-07
-4.86056e-07
1.55826e-06
-5.29934e-07
-5.43867e-07
1.55403e-06
-5.13481e-07
-5.40232e-07
1.57487e-06
-5.20896e-07
-6.52287e-07
1.608e-06
-4.93481e-07
-6.29197e-07
1.58088e-06
-5.20918e-07
-7.66978e-07
1.72676e-06
-4.89502e-07
-6.96337e-07
1.56157e-06
-5.44236e-07
-7.66563e-07
1.8611e-06
-5.49734e-07
-6.63505e-07
1.56876e-06
-5.90958e-07
-6.99412e-07
1.85692e-06
-6.70217e-07
-7.16623e-07
1.76722e-06
-6.86773e-07
-1.09909e-06
1.64112e-06
-7.08203e-07
-1.28197e-06
1.80197e-06
-8.72263e-07
-1.00242e-06
1.44252e-06
-1.03731e-06
-1.11906e-06
1.31116e-06
-8.81785e-07
-2.88835e-07
1.37615e-07
-1.92753e-06
-6.84725e-07
1.84511e-06
-1.57665e-06
-3.25767e-06
-5.68019e-07
-7.8101e-07
4.75024e-06
-2.90817e-06
-6.70755e-06
9.23182e-06
9.99347e-06
-1.36754e-05
3.36617e-05
5.64296e-06
-1.58944e-05
-4.41629e-06
-1.17733e-05
2.68987e-05
-0.000104311
4.1045e-06
5.82422e-06
-0.00018365
9.8917e-06
1.77543e-05
-0.000199649
2.58548e-06
5.56682e-06
-0.000207145
1.33758e-06
1.08046e-06
-0.000210555
4.21029e-07
-1.22703e-07
-0.000212445
1.7367e-06
9.28119e-08
-0.000213598
3.60618e-06
1.31089e-06
-0.000216552
5.22501e-06
1.7918e-06
-0.000217337
6.97283e-06
2.29262e-06
-0.000216746
7.88904e-06
2.29107e-06
-0.000218884
8.25163e-06
1.89879e-06
-0.000220174
8.47891e-06
9.95847e-07
-0.000220229
8.82574e-06
3.07787e-07
-0.000219534
8.34686e-06
-4.65367e-07
-0.000218513
7.49809e-06
-1.22252e-06
-0.00021756
6.44041e-06
-1.75861e-06
-0.000216464
5.12729e-06
-2.1121e-06
-0.000214992
3.00426e-06
-2.06719e-06
-0.000214004
1.24393e-06
-1.70031e-06
-0.000213701
-1.56727e-06
-1.06862e-06
-0.000214118
-3.25144e-06
-2.53249e-07
-0.000215281
-5.40122e-06
5.67408e-07
-0.000216406
-6.80383e-06
1.24388e-06
-0.000218148
-8.48406e-06
1.69458e-06
-0.000220788
-9.12992e-06
1.72093e-06
-0.000222347
-9.45812e-06
1.15039e-06
-0.000221182
-8.87241e-06
-5.33673e-08
-0.000218779
-7.59989e-06
-1.3834e-06
-0.000217008
-6.18997e-06
-2.07639e-06
-0.00021614
-4.70634e-06
-2.24335e-06
-0.000211953
-2.80062e-06
-2.20267e-06
-0.000205012
-1.01667e-06
-2.27766e-06
-0.000195927
1.34011e-06
-2.4465e-06
-0.000188801
2.38139e-06
-2.81014e-06
-0.000182364
3.57019e-06
-3.22981e-06
-0.000171704
3.75829e-06
-3.31682e-06
3.07544e-06
-2.00271e-06
-5.10544e-06
1.20673e-06
2.0469e-06
-3.86131e-06
-3.49603e-06
-1.31746e-06
-4.05056e-06
-1.64006e-06
-8.70093e-07
-2.71187e-06
-2.89876e-06
-2.13592e-06
-1.77202e-06
-2.49634e-06
-1.74394e-06
-7.18383e-07
-3.01886e-06
-1.56807e-06
2.10006e-07
-1.87879e-06
-1.22149e-06
2.0672e-07
-8.21146e-07
-4.98468e-07
1.02229e-07
1.36496e-07
-9.60398e-08
1.14151e-07
5.0086e-08