/*--------------------------------*- C++ -*----------------------------------*\
| =========                 |                                                 |
| \\      /  F ield         | OpenFOAM: The Open Source CFD Toolbox           |
|  \\    /   O peration     | Version:  2.3.0                                 |
|   \\  /    A nd           | Web:      www.OpenFOAM.org                      |
|    \\/     M anipulation  |                                                 |
\*---------------------------------------------------------------------------*/
FoamFile
{
    version     2.0;
    format      ascii;
    class       volScalarField;
    location    "20";
    object      rho;
}
// * * * * * * * * * * * * * * * * * * * * * * * * * * * * * * * * * * * * * //

dimensions      [1 -3 0 0 0 0 0];

internalField   nonuniform List<scalar> 
6144
(
1.16603
1.16642
1.16662
1.16692
1.16719
1.16763
1.16813
1.16859
1.16879
1.16886
1.16888
1.16889
1.16889
1.1689
1.1689
1.1689
1.1689
1.1689
1.1689
1.1689
1.16891
1.16891
1.16891
1.16891
1.16891
1.16891
1.16891
1.16892
1.16892
1.16892
1.16892
1.16892
1.16892
1.16893
1.16893
1.16893
1.16893
1.16893
1.16893
1.16894
1.16894
1.16894
1.16894
1.16894
1.16896
1.16941
1.17328
1.18592
1.20613
1.2264
1.23956
1.24651
1.25947
1.28388
1.29308
1.29994
1.29915
1.2925
3.11836
77.9572
999.134
1026.94
1027.09
1027.1
1027.1
1027.1
1027.1
1027.1
1027.1
1027.1
1027.1
1027.1
1027.1
1027.1
1027.1
1027.1
1027.1
1027.1
1027.1
1027.1
1027.1
1027.1
1027.1
1027.1
1027.1
1027.1
1027.1
1027.1
1027.1
1027.1
1027.1
1027.1
1027.1
1027.1
1027.1
1027.1
1.16593
1.16646
1.1668
1.16711
1.16749
1.16791
1.16843
1.1687
1.16879
1.16886
1.16888
1.16889
1.1689
1.1689
1.1689
1.1689
1.16891
1.16891
1.16891
1.16891
1.16891
1.16891
1.16892
1.16892
1.16892
1.16892
1.16892
1.16892
1.16893
1.16893
1.16893
1.16893
1.16893
1.16893
1.16893
1.16894
1.16894
1.16894
1.16894
1.16894
1.16894
1.16894
1.16894
1.16895
1.169
1.16962
1.17291
1.18263
1.19744
1.21081
1.21891
1.22785
1.26473
1.30785
1.30893
1.30857
1.30596
1.30877
2.04983
50.7775
998.377
1027.01
1027.09
1027.1
1027.1
1027.1
1027.1
1027.1
1027.1
1027.1
1027.1
1027.1
1027.1
1027.1
1027.1
1027.1
1027.1
1027.1
1027.1
1027.1
1027.1
1027.1
1027.1
1027.1
1027.1
1027.1
1027.1
1027.1
1027.1
1027.1
1027.1
1027.1
1027.1
1027.1
1027.1
1027.1
1.16509
1.16572
1.16625
1.16665
1.16713
1.16757
1.16827
1.16861
1.16871
1.16878
1.16883
1.16887
1.16889
1.1689
1.1689
1.1689
1.16891
1.16891
1.16891
1.16891
1.16891
1.16891
1.16892
1.16892
1.16892
1.16892
1.16892
1.16892
1.16893
1.16893
1.16893
1.16893
1.16893
1.16893
1.16893
1.16894
1.16894
1.16894
1.16894
1.16894
1.16894
1.16894
1.16894
1.16897
1.16927
1.17041
1.17293
1.17801
1.18782
1.19945
1.20472
1.22533
1.29663
1.32078
1.3094
1.30392
1.29739
1.30307
1.63355
53.2881
1005.85
1027.06
1027.09
1027.1
1027.1
1027.1
1027.1
1027.1
1027.1
1027.1
1027.1
1027.1
1027.1
1027.1
1027.1
1027.1
1027.1
1027.1
1027.1
1027.1
1027.1
1027.1
1027.1
1027.1
1027.1
1027.1
1027.1
1027.1
1027.1
1027.1
1027.1
1027.1
1027.1
1027.1
1027.1
1027.1
1.16434
1.16491
1.16547
1.16602
1.16666
1.16716
1.16789
1.16851
1.16872
1.16876
1.16879
1.16885
1.16888
1.1689
1.1689
1.1689
1.1689
1.1689
1.16891
1.16891
1.16891
1.16891
1.16891
1.16891
1.16891
1.16892
1.16892
1.16892
1.16892
1.16892
1.16892
1.16893
1.16893
1.16893
1.16893
1.16893
1.16893
1.16893
1.16894
1.16894
1.16894
1.16894
1.16894
1.169
1.16938
1.17065
1.17292
1.17638
1.18334
1.19018
1.20014
1.24559
1.32422
1.32219
1.2998
1.29908
1.29237
1.29821
1.3049
79.8717
1008.99
1027.06
1027.09
1027.09
1027.09
1027.09
1027.09
1027.09
1027.1
1027.1
1027.1
1027.1
1027.1
1027.1
1027.1
1027.1
1027.1
1027.1
1027.1
1027.1
1027.1
1027.1
1027.1
1027.1
1027.1
1027.1
1027.1
1027.1
1027.1
1027.1
1027.1
1027.1
1027.1
1027.1
1027.1
1027.1
1.16378
1.16426
1.16483
1.16541
1.16608
1.16673
1.16744
1.16803
1.1687
1.16879
1.16877
1.16884
1.16888
1.1689
1.1689
1.1689
1.16891
1.16891
1.16891
1.16891
1.16891
1.16892
1.16892
1.16892
1.16892
1.16892
1.16892
1.16892
1.16893
1.16893
1.16893
1.16893
1.16893
1.16893
1.16893
1.16894
1.16894
1.16894
1.16894
1.16894
1.16894
1.16894
1.16895
1.169
1.16934
1.17043
1.17237
1.17549
1.18149
1.18593
1.20884
1.26794
1.33522
1.3333
1.30699
1.29879
1.29238
1.29956
1.50732
110.329
1000.85
1026.56
1026.68
1026.87
1026.94
1026.98
1026.99
1026.99
1027
1027.01
1027.01
1027.01
1027.01
1027.01
1027
1027
1027
1026.98
1026.95
1026.92
1026.89
1026.86
1026.83
1026.8
1026.79
1026.85
1026.92
1026.97
1027.01
1027.04
1027.07
1027.08
1027.09
1027.1
1027.1
1027.1
1.16333
1.16365
1.16437
1.16496
1.16551
1.16619
1.16709
1.16765
1.16831
1.16869
1.16871
1.16882
1.16887
1.16889
1.1689
1.1689
1.1689
1.1689
1.1689
1.1689
1.16891
1.16891
1.16891
1.16891
1.16891
1.16891
1.16892
1.16892
1.16892
1.16892
1.16892
1.16892
1.16893
1.16893
1.16893
1.16893
1.16893
1.16893
1.16893
1.16894
1.16894
1.16894
1.16895
1.16902
1.16935
1.1703
1.17215
1.1756
1.18
1.18543
1.22614
1.28944
1.33663
1.35054
1.32018
1.30316
1.29222
1.29724
1.30164
171.824
997.951
1023.88
1024.05
1024.78
1025.06
1025.25
1025.41
1025.54
1025.62
1025.63
1025.6
1025.58
1025.57
1025.54
1025.49
1025.41
1025.31
1025.16
1024.94
1024.67
1024.36
1024.04
1023.77
1023.55
1023.41
1023.35
1023.36
1023.56
1023.83
1024.39
1025.03
1025.67
1026.25
1026.69
1026.96
1027.05
1.16301
1.16308
1.16393
1.16454
1.1651
1.16571
1.16668
1.16754
1.16782
1.16835
1.16859
1.16878
1.16887
1.1689
1.1689
1.1689
1.1689
1.16891
1.16891
1.16891
1.16891
1.16891
1.16891
1.16892
1.16892
1.16892
1.16892
1.16892
1.16892
1.16892
1.16893
1.16893
1.16893
1.16893
1.16893
1.16893
1.16893
1.16894
1.16894
1.16894
1.16894
1.16894
1.16895
1.16906
1.16947
1.17044
1.17241
1.17541
1.17782
1.18639
1.24579
1.30653
1.32893
1.34592
1.31946
1.30301
1.29243
1.29683
1.28896
344.345
1010.51
1016.24
1016.19
1016.59
1016.73
1016.85
1017.05
1017.21
1017.34
1017.46
1017.49
1017.59
1017.75
1017.86
1017.89
1017.76
1017.54
1017.19
1016.73
1016.14
1015.55
1014.93
1014.25
1013.61
1013.11
1012.69
1012.42
1012.29
1012.67
1013.18
1014.05
1015.36
1017.19
1019.54
1022.51
1024.75
1.16284
1.16277
1.16344
1.16395
1.16468
1.16531
1.16629
1.16743
1.16776
1.16808
1.16844
1.16874
1.16886
1.1689
1.1689
1.16891
1.1689
1.16891
1.16891
1.16891
1.16891
1.16891
1.16892
1.16892
1.16892
1.16892
1.16892
1.16892
1.16893
1.16893
1.16893
1.16893
1.16893
1.16893
1.16894
1.16894
1.16894
1.16894
1.16894
1.16895
1.16895
1.16895
1.16896
1.16911
1.16956
1.17059
1.17267
1.17503
1.1774
1.18828
1.26004
1.31092
1.31779
1.30873
1.2973
1.29541
1.29241
1.29669
1.28896
378.412
1007.22
1012.75
1012.77
1012.75
1012.86
1012.91
1012.96
1012.89
1012.87
1012.87
1012.82
1012.81
1012.88
1012.9
1012.91
1012.87
1012.64
1012.42
1012.21
1011.88
1011.58
1011.35
1011.08
1010.82
1010.57
1010.45
1010.42
1010.49
1009.92
1008.55
1007.32
1006.29
1005.56
1005.05
1008.01
1011.12
1.16281
1.16285
1.16316
1.16339
1.1642
1.16487
1.16589
1.16737
1.1678
1.16811
1.16845
1.16873
1.16885
1.16889
1.16889
1.1689
1.1689
1.1689
1.1689
1.1689
1.16891
1.16891
1.16891
1.16891
1.16891
1.16892
1.16892
1.16892
1.16892
1.16892
1.16892
1.16893
1.16893
1.16893
1.16893
1.16893
1.16894
1.16894
1.16894
1.16894
1.16894
1.16894
1.16897
1.16917
1.16977
1.1709
1.17255
1.17535
1.17932
1.18805
1.24638
1.30651
1.30998
1.30206
1.29552
1.29416
1.29362
1.29511
1.28896
276.84
1013.04
1020.44
1020.8
1021.31
1021.66
1022.01
1022.36
1022.61
1022.72
1022.75
1022.68
1022.46
1022.27
1022.04
1021.77
1021.55
1021.4
1021.36
1021.55
1021.94
1022.43
1023.05
1023.77
1024.57
1025.33
1026.05
1026.66
1026.96
1026.92
1026.87
1026.94
1026.89
1026.8
1026.74
1026.71
1026.81
1.16311
1.16333
1.16313
1.16307
1.16368
1.16441
1.16548
1.16751
1.16802
1.16839
1.1686
1.16878
1.16886
1.1689
1.1689
1.16891
1.16891
1.16891
1.16891
1.16891
1.16891
1.16892
1.16892
1.16892
1.16892
1.16892
1.16892
1.16892
1.16893
1.16893
1.16893
1.16893
1.16893
1.16893
1.16894
1.16894
1.16894
1.16894
1.16894
1.16894
1.16894
1.16895
1.16899
1.16926
1.16995
1.17087
1.1721
1.17606
1.18349
1.18919
1.22082
1.27952
1.30256
1.30461
1.30153
1.303
1.29635
1.29643
1.28896
137.032
1019.6
1026.35
1026.52
1026.67
1026.7
1026.75
1026.8
1026.86
1026.91
1026.94
1026.95
1026.93
1026.9
1026.87
1026.85
1026.83
1026.82
1026.84
1026.88
1026.93
1026.98
1027.03
1027.06
1027.08
1027.09
1027.1
1027.1
1027.1
1027.1
1027.1
1027.1
1027.1
1027.1
1027.1
1027.1
1027.1
1.16325
1.1635
1.1634
1.16327
1.16347
1.16419
1.16523
1.1675
1.16834
1.16874
1.16882
1.16889
1.16888
1.1689
1.1689
1.1689
1.1689
1.1689
1.1689
1.16891
1.16891
1.16891
1.16891
1.16892
1.16892
1.16892
1.16892
1.16892
1.16892
1.16893
1.16893
1.16893
1.16893
1.16893
1.16894
1.16894
1.16894
1.16894
1.16894
1.16894
1.16895
1.16895
1.169
1.16927
1.16987
1.17049
1.17178
1.17765
1.18904
1.19669
1.20994
1.24477
1.27759
1.29556
1.2985
1.30297
1.29899
1.29971
1.28896
106.674
1020.59
1027.08
1027.09
1027.09
1027.09
1027.09
1027.09
1027.1
1027.1
1027.1
1027.1
1027.1
1027.1
1027.1
1027.1
1027.1
1027.1
1027.1
1027.1
1027.1
1027.1
1027.1
1027.1
1027.1
1027.1
1027.1
1027.1
1027.1
1027.1
1027.1
1027.1
1027.1
1027.1
1027.1
1027.1
1027.1
1.16311
1.16326
1.16349
1.16359
1.16403
1.16465
1.16619
1.16802
1.16869
1.16884
1.16888
1.16891
1.16891
1.16892
1.16891
1.16891
1.16891
1.16891
1.16891
1.16891
1.16891
1.16891
1.16891
1.16892
1.16892
1.16892
1.16892
1.16892
1.16893
1.16893
1.16893
1.16893
1.16893
1.16893
1.16894
1.16894
1.16894
1.16894
1.16894
1.16895
1.16895
1.16895
1.16899
1.16916
1.16953
1.17002
1.17182
1.17979
1.19319
1.20439
1.21579
1.22999
1.24945
1.26762
1.27842
1.29231
1.28965
1.29736
1.28896
59.6143
989.625
1027.09
1027.09
1027.09
1027.09
1027.1
1027.1
1027.1
1027.1
1027.1
1027.1
1027.1
1027.1
1027.1
1027.1
1027.1
1027.1
1027.1
1027.1
1027.1
1027.1
1027.1
1027.1
1027.1
1027.1
1027.1
1027.1
1027.1
1027.1
1027.1
1027.1
1027.1
1027.1
1027.1
1027.1
1027.1
1.16262
1.16269
1.16267
1.16336
1.16415
1.16475
1.1668
1.1683
1.16873
1.16881
1.16883
1.1689
1.16891
1.16892
1.16892
1.16892
1.16892
1.16892
1.16892
1.16892
1.16892
1.16893
1.16893
1.16893
1.16893
1.16893
1.16893
1.16893
1.16893
1.16893
1.16893
1.16893
1.16894
1.16894
1.16894
1.16894
1.16894
1.16894
1.16895
1.16895
1.16895
1.16896
1.16897
1.16902
1.16919
1.16963
1.17153
1.1802
1.19573
1.20942
1.22094
1.23184
1.23857
1.2495
1.25432
1.26983
1.27057
1.28181
1.4249
29.7944
978.564
1027.08
1027.09
1027.09
1027.1
1027.1
1027.1
1027.1
1027.1
1027.1
1027.1
1027.1
1027.1
1027.1
1027.1
1027.1
1027.1
1027.1
1027.1
1027.1
1027.1
1027.1
1027.1
1027.1
1027.1
1027.1
1027.1
1027.1
1027.1
1027.1
1027.1
1027.1
1027.1
1027.1
1027.1
1027.1
1.16205
1.16229
1.16196
1.16244
1.1627
1.16266
1.16617
1.16833
1.16868
1.16876
1.1688
1.16888
1.16891
1.16892
1.16892
1.16892
1.16892
1.16892
1.16892
1.16892
1.16893
1.16893
1.16893
1.16893
1.16893
1.16893
1.16893
1.16893
1.16894
1.16894
1.16894
1.16894
1.16894
1.16894
1.16894
1.16894
1.16894
1.16895
1.16895
1.16895
1.16896
1.16896
1.16896
1.16898
1.16905
1.16938
1.17092
1.17915
1.1972
1.21342
1.22563
1.2387
1.24163
1.26366
1.25552
1.26047
1.26181
1.28508
1.53189
19.2336
945.845
1026.8
1027.09
1027.09
1027.1
1027.1
1027.1
1027.1
1027.1
1027.1
1027.1
1027.1
1027.1
1027.1
1027.1
1027.1
1027.1
1027.1
1027.1
1027.1
1027.1
1027.1
1027.1
1027.1
1027.1
1027.1
1027.1
1027.1
1027.1
1027.1
1027.1
1027.1
1027.1
1027.1
1027.1
1027.1
1.16137
1.16186
1.16162
1.16177
1.16102
1.16085
1.16315
1.168
1.16867
1.16881
1.16883
1.16889
1.1689
1.16891
1.16891
1.16892
1.16891
1.16892
1.16892
1.16892
1.16892
1.16892
1.16893
1.16893
1.16893
1.16893
1.16893
1.16893
1.16893
1.16893
1.16894
1.16894
1.16894
1.16894
1.16894
1.16894
1.16894
1.16894
1.16895
1.16895
1.16895
1.16896
1.16896
1.16896
1.16899
1.16924
1.17068
1.17754
1.19672
1.22027
1.23448
1.24712
1.25483
1.28427
1.29368
1.2883
1.3268
1.31332
1.40703
23.1671
938.178
1026.42
1027.09
1027.09
1027.1
1027.1
1027.1
1027.1
1027.1
1027.1
1027.1
1027.1
1027.1
1027.1
1027.1
1027.1
1027.1
1027.1
1027.1
1027.1
1027.1
1027.1
1027.1
1027.1
1027.1
1027.1
1027.1
1027.1
1027.1
1027.1
1027.1
1027.1
1027.1
1027.1
1027.1
1027.1
1.16008
1.16079
1.16076
1.16074
1.16066
1.16048
1.16047
1.16477
1.16849
1.16886
1.16887
1.16891
1.16891
1.16892
1.16892
1.16892
1.16892
1.16892
1.16892
1.16893
1.16893
1.16893
1.16893
1.16893
1.16893
1.16894
1.16894
1.16894
1.16894
1.16894
1.16894
1.16895
1.16895
1.16895
1.16895
1.16895
1.16895
1.16895
1.16896
1.16896
1.16896
1.16896
1.16896
1.16897
1.169
1.16926
1.17103
1.17829
1.19568
1.22145
1.24357
1.25856
1.26745
1.27648
1.28033
1.30102
1.34046
1.3388
1.53909
51.9202
950.096
1026.31
1027.09
1027.09
1027.1
1027.1
1027.1
1027.1
1027.1
1027.1
1027.1
1027.1
1027.1
1027.1
1027.1
1027.1
1027.1
1027.1
1027.1
1027.1
1027.1
1027.1
1027.1
1027.1
1027.1
1027.1
1027.1
1027.1
1027.1
1027.1
1027.1
1027.1
1027.1
1027.1
1027.1
1027.1
1.16606
1.16649
1.16669
1.16698
1.16728
1.16779
1.16831
1.16857
1.16868
1.16873
1.16882
1.16887
1.16891
1.16891
1.16892
1.16892
1.16892
1.16892
1.16892
1.16892
1.16892
1.16893
1.16893
1.16893
1.16893
1.16893
1.16893
1.16894
1.16894
1.16894
1.16894
1.16894
1.16895
1.16895
1.16895
1.16895
1.16895
1.16895
1.16896
1.16896
1.16896
1.16896
1.16896
1.16896
1.16898
1.16955
1.17417
1.18786
1.2082
1.22861
1.24309
1.25194
1.25976
1.27358
1.28365
1.29298
1.29368
1.33859
2.29614
58.0629
1004.49
1027.04
1027.09
1027.1
1027.1
1027.1
1027.1
1027.1
1027.1
1027.1
1027.1
1027.1
1027.1
1027.1
1027.1
1027.1
1027.1
1027.1
1027.1
1027.1
1027.1
1027.1
1027.1
1027.1
1027.1
1027.1
1027.1
1027.1
1027.1
1027.1
1027.1
1027.1
1027.1
1027.1
1027.1
1027.1
1.16576
1.16656
1.16701
1.16734
1.16763
1.16783
1.16795
1.16802
1.16814
1.16833
1.16859
1.16878
1.16887
1.16891
1.16891
1.16892
1.16892
1.16892
1.16892
1.16892
1.16892
1.16893
1.16893
1.16893
1.16893
1.16893
1.16893
1.16894
1.16894
1.16894
1.16894
1.16894
1.16894
1.16894
1.16894
1.16895
1.16895
1.16895
1.16895
1.16895
1.16895
1.16895
1.16897
1.16909
1.1694
1.17045
1.17436
1.18563
1.20282
1.21977
1.23246
1.24288
1.26137
1.28889
1.29998
1.30105
1.29883
1.32149
1.72709
73.3176
1013.44
1027.09
1027.09
1027.1
1027.1
1027.1
1027.1
1027.1
1027.1
1027.1
1027.1
1027.1
1027.1
1027.1
1027.1
1027.1
1027.1
1027.1
1027.1
1027.1
1027.1
1027.1
1027.1
1027.1
1027.1
1027.1
1027.1
1027.1
1027.1
1027.1
1027.1
1027.1
1027.1
1027.1
1027.1
1027.1
1.16492
1.16575
1.16619
1.16642
1.16668
1.16708
1.16755
1.16778
1.16793
1.16818
1.16846
1.16873
1.16885
1.1689
1.16891
1.16891
1.16891
1.16892
1.16892
1.16892
1.16892
1.16892
1.16892
1.16893
1.16893
1.16893
1.16893
1.16893
1.16893
1.16893
1.16894
1.16894
1.16894
1.16894
1.16894
1.16894
1.16894
1.16894
1.16895
1.16895
1.16895
1.16895
1.16899
1.16926
1.17017
1.17186
1.17484
1.18058
1.1916
1.20699
1.21781
1.23931
1.28585
1.31223
1.31043
1.3083
1.29904
1.30958
1.48363
95.4978
1007.81
1027.09
1027.09
1027.1
1027.1
1027.1
1027.1
1027.1
1027.1
1027.1
1027.1
1027.1
1027.1
1027.1
1027.1
1027.1
1027.1
1027.1
1027.1
1027.1
1027.1
1027.1
1027.1
1027.1
1027.1
1027.1
1027.1
1027.1
1027.1
1027.1
1027.1
1027.1
1027.1
1027.1
1027.1
1027.1
1.16439
1.16529
1.16565
1.16594
1.16603
1.16637
1.16715
1.16764
1.16789
1.16816
1.16842
1.16872
1.16884
1.1689
1.16891
1.16891
1.16891
1.16891
1.16891
1.16892
1.16892
1.16892
1.16892
1.16892
1.16892
1.16893
1.16893
1.16893
1.16893
1.16893
1.16893
1.16893
1.16894
1.16894
1.16894
1.16894
1.16894
1.16894
1.16894
1.16895
1.16895
1.16895
1.16897
1.16911
1.16974
1.17133
1.17411
1.17824
1.18489
1.19179
1.21548
1.27071
1.31668
1.31697
1.30802
1.30606
1.29289
1.32409
1.34922
160.376
1022.85
1026.9
1026.98
1027.06
1027.07
1027.08
1027.08
1027.08
1027.08
1027.08
1027.08
1027.08
1027.08
1027.08
1027.08
1027.08
1027.07
1027.07
1027.07
1027.06
1027.06
1027.06
1027.06
1027.06
1027.06
1027.06
1027.06
1027.07
1027.08
1027.09
1027.1
1027.1
1027.1
1027.1
1027.1
1027.1
1.16376
1.16493
1.16538
1.1659
1.1659
1.16603
1.16678
1.16746
1.16787
1.16816
1.1684
1.16871
1.16884
1.1689
1.16891
1.16891
1.16891
1.16891
1.16891
1.16892
1.16892
1.16892
1.16892
1.16892
1.16892
1.16892
1.16893
1.16893
1.16893
1.16893
1.16893
1.16893
1.16893
1.16894
1.16894
1.16894
1.16894
1.16894
1.16894
1.16894
1.16895
1.16895
1.16896
1.16903
1.16937
1.17058
1.17304
1.17725
1.18332
1.19003
1.26409
1.30803
1.32353
1.31098
1.30366
1.3068
1.30928
1.3126
1.29482
266.867
1013.91
1022.42
1023.1
1024.12
1024.55
1024.84
1025.05
1025.26
1025.44
1025.66
1025.84
1025.96
1026
1025.98
1025.93
1025.87
1025.76
1025.59
1025.33
1025.01
1024.64
1024.29
1023.98
1023.77
1023.65
1023.61
1023.58
1024.18
1024.92
1025.74
1026.39
1026.8
1027
1027.07
1027.09
1027.1
1.16296
1.16404
1.16495
1.16608
1.16599
1.16599
1.16648
1.16719
1.16779
1.16816
1.16839
1.1687
1.16883
1.1689
1.1689
1.16891
1.16891
1.16891
1.16891
1.16891
1.16892
1.16892
1.16892
1.16892
1.16892
1.16892
1.16892
1.16893
1.16893
1.16893
1.16893
1.16893
1.16893
1.16894
1.16894
1.16894
1.16894
1.16894
1.16894
1.16894
1.16894
1.16895
1.16895
1.169
1.16922
1.17005
1.17228
1.17713
1.1829
1.20392
1.30333
1.31224
1.31366
1.31392
1.30579
1.30529
1.3047
1.30302
1.28896
396.489
1001.17
1007.83
1007.54
1008.46
1009.02
1009.51
1009.94
1010.37
1010.98
1011.72
1012.54
1013.23
1013.73
1014.03
1014.08
1013.59
1012.97
1012.07
1010.83
1009.22
1007.5
1005.84
1004.23
1003
1002.16
1001.52
1001.26
1002.02
1003.97
1007.12
1011.07
1015.39
1019.66
1023.11
1025.41
1026.51
1.16239
1.16287
1.16399
1.16577
1.16614
1.16614
1.16633
1.16694
1.16767
1.16813
1.16839
1.1687
1.16883
1.1689
1.1689
1.16891
1.16891
1.16891
1.16891
1.16891
1.16891
1.16892
1.16892
1.16892
1.16892
1.16892
1.16892
1.16893
1.16893
1.16893
1.16893
1.16893
1.16893
1.16894
1.16894
1.16894
1.16894
1.16894
1.16894
1.16894
1.16894
1.16895
1.16895
1.16899
1.16918
1.16992
1.17223
1.17765
1.18295
1.21441
1.30385
1.30738
1.30806
1.30928
1.30504
1.304
1.30052
1.3053
1.28896
474.144
996.221
1000.61
999.98
999.57
999.135
998.513
997.984
997.54
997.063
996.659
996.449
996.29
996.066
995.749
995.311
994.796
994.226
993.495
992.595
991.499
990.295
988.952
987.523
985.984
984.656
983.211
981.711
979.862
977.655
975.377
973.632
972.22
971.811
974.646
978.858
986.221
1.16215
1.16196
1.16284
1.16439
1.1653
1.16566
1.16623
1.16675
1.16759
1.16812
1.16839
1.1687
1.16883
1.1689
1.1689
1.16891
1.16891
1.16891
1.16891
1.16891
1.16891
1.16892
1.16892
1.16892
1.16892
1.16892
1.16892
1.16893
1.16893
1.16893
1.16893
1.16893
1.16893
1.16894
1.16894
1.16894
1.16894
1.16894
1.16894
1.16894
1.16894
1.16894
1.16895
1.16898
1.16917
1.16994
1.17264
1.17941
1.18789
1.21258
1.3
1.29931
1.29707
1.2971
1.29729
1.29729
1.2965
1.30001
1.28896
267.397
1005.63
1015.61
1015.67
1015.61
1015.31
1014.84
1014.33
1013.63
1012.62
1011.2
1009.59
1008.02
1006.66
1005.43
1004.32
1003.3
1002.25
1001.23
1000.38
999.709
999.131
998.695
998.403
998.113
997.358
996.09
993.857
989.887
983.636
977.649
968.716
958.749
943.652
919.232
865.27
660.256
1.16218
1.16162
1.16194
1.16286
1.16407
1.16486
1.16569
1.1665
1.16752
1.16813
1.16842
1.16872
1.16885
1.1689
1.16891
1.16891
1.16891
1.16891
1.16891
1.16892
1.16892
1.16892
1.16892
1.16892
1.16892
1.16892
1.16893
1.16893
1.16893
1.16893
1.16893
1.16893
1.16894
1.16894
1.16894
1.16894
1.16894
1.16894
1.16894
1.16895
1.16895
1.16895
1.16895
1.16898
1.16918
1.17002
1.17294
1.18052
1.1951
1.20243
1.28406
1.30211
1.30297
1.29719
1.29387
1.29387
1.29217
1.29997
1.28896
216.966
1017.14
1024.54
1024.89
1025.19
1025.32
1025.35
1025.26
1025.18
1025.07
1024.95
1024.7
1024.35
1023.99
1023.62
1023.11
1022.53
1021.85
1021.15
1020.55
1020.11
1019.87
1019.79
1019.94
1020.3
1021.04
1022.06
1023.43
1024.97
1026.18
1025.9
1025.6
1025.16
1024.38
1023.17
1021.37
1019.47
1.16227
1.16157
1.16157
1.16177
1.16266
1.16368
1.16487
1.16606
1.16744
1.16817
1.16847
1.16875
1.16887
1.16891
1.16891
1.16891
1.16891
1.16891
1.16892
1.16892
1.16892
1.16892
1.16892
1.16892
1.16893
1.16893
1.16893
1.16893
1.16893
1.16893
1.16893
1.16894
1.16894
1.16894
1.16894
1.16894
1.16894
1.16894
1.16895
1.16895
1.16895
1.16895
1.16895
1.16897
1.16918
1.17001
1.17295
1.18088
1.19686
1.21284
1.24006
1.28199
1.29566
1.30023
1.29724
1.30022
1.2882
1.29646
1.28896
138.619
1022.41
1026.81
1026.86
1026.92
1026.93
1026.95
1026.96
1026.97
1026.96
1026.96
1026.96
1026.95
1026.92
1026.89
1026.85
1026.81
1026.77
1026.73
1026.72
1026.73
1026.77
1026.8
1026.83
1026.86
1026.93
1026.99
1027.05
1027.09
1027.1
1027.1
1027.1
1027.1
1027.1
1027.1
1027.1
1027.1
1.16219
1.16159
1.16156
1.16148
1.16185
1.1627
1.16403
1.16575
1.16735
1.16821
1.16852
1.16878
1.16888
1.16891
1.16891
1.16891
1.16891
1.16891
1.16892
1.16892
1.16892
1.16892
1.16892
1.16892
1.16893
1.16893
1.16893
1.16893
1.16893
1.16893
1.16894
1.16894
1.16894
1.16894
1.16894
1.16894
1.16894
1.16895
1.16895
1.16895
1.16895
1.16895
1.16895
1.16897
1.1692
1.16995
1.17298
1.18174
1.1981
1.22011
1.23047
1.25144
1.26789
1.28018
1.28191
1.28727
1.28377
1.29476
1.28896
87.2407
1013.27
1027.09
1027.09
1027.09
1027.09
1027.1
1027.09
1027.09
1027.09
1027.09
1027.09
1027.1
1027.1
1027.1
1027.1
1027.09
1027.09
1027.09
1027.09
1027.09
1027.09
1027.09
1027.1
1027.1
1027.1
1027.1
1027.1
1027.1
1027.1
1027.1
1027.1
1027.1
1027.1
1027.1
1027.1
1027.1
1.1617
1.1618
1.16183
1.16171
1.16168
1.16241
1.16381
1.16582
1.16757
1.16828
1.16856
1.16881
1.16889
1.16891
1.16891
1.16891
1.16891
1.16891
1.16892
1.16892
1.16892
1.16892
1.16892
1.16892
1.16893
1.16893
1.16893
1.16893
1.16893
1.16893
1.16894
1.16894
1.16894
1.16894
1.16894
1.16894
1.16894
1.16895
1.16895
1.16895
1.16895
1.16895
1.16895
1.16897
1.16916
1.16985
1.17302
1.18231
1.19894
1.22201
1.23912
1.24825
1.25289
1.26082
1.2627
1.2712
1.2721
1.28175
1.31368
38.5135
958.73
1027.09
1027.09
1027.09
1027.09
1027.1
1027.1
1027.1
1027.1
1027.1
1027.1
1027.1
1027.1
1027.1
1027.1
1027.1
1027.1
1027.1
1027.1
1027.1
1027.1
1027.1
1027.1
1027.1
1027.1
1027.1
1027.1
1027.1
1027.1
1027.1
1027.1
1027.1
1027.1
1027.1
1027.1
1027.1
1.16146
1.16196
1.16199
1.16191
1.16182
1.16264
1.16467
1.1665
1.16779
1.16837
1.16862
1.16884
1.1689
1.16891
1.16891
1.16891
1.16891
1.16891
1.16892
1.16892
1.16892
1.16892
1.16892
1.16892
1.16893
1.16893
1.16893
1.16893
1.16893
1.16893
1.16894
1.16894
1.16894
1.16894
1.16894
1.16894
1.16894
1.16894
1.16895
1.16895
1.16895
1.16895
1.16895
1.16897
1.1691
1.16962
1.1724
1.18197
1.1995
1.22275
1.24059
1.25107
1.25683
1.28495
1.31439
1.29985
1.2991
1.30524
1.4279
38.7839
975.662
1027.09
1027.09
1027.09
1027.09
1027.1
1027.1
1027.1
1027.1
1027.1
1027.1
1027.1
1027.1
1027.1
1027.1
1027.1
1027.1
1027.1
1027.1
1027.1
1027.1
1027.1
1027.1
1027.1
1027.1
1027.1
1027.1
1027.1
1027.1
1027.1
1027.1
1027.1
1027.1
1027.1
1027.1
1027.1
1.16114
1.16159
1.16162
1.16178
1.16112
1.16112
1.16373
1.16681
1.16794
1.16847
1.16868
1.16885
1.1689
1.16891
1.16891
1.16891
1.16891
1.16891
1.16891
1.16892
1.16892
1.16892
1.16892
1.16892
1.16892
1.16893
1.16893
1.16893
1.16893
1.16893
1.16893
1.16893
1.16893
1.16893
1.16894
1.16894
1.16894
1.16894
1.16894
1.16894
1.16895
1.16895
1.16895
1.16896
1.16903
1.16935
1.17174
1.18153
1.20114
1.22448
1.24098
1.25143
1.26012
1.32634
1.36938
1.34814
1.33172
1.33348
1.56671
33.0069
961.219
1026.96
1027.09
1027.09
1027.1
1027.1
1027.1
1027.1
1027.1
1027.1
1027.1
1027.1
1027.1
1027.1
1027.1
1027.1
1027.1
1027.1
1027.1
1027.1
1027.1
1027.1
1027.1
1027.1
1027.1
1027.1
1027.1
1027.1
1027.1
1027.1
1027.1
1027.1
1027.1
1027.1
1027.1
1027.1
1.16073
1.16097
1.16084
1.16117
1.16062
1.16053
1.1618
1.16629
1.16821
1.16862
1.16874
1.16886
1.1689
1.16891
1.16891
1.16891
1.16891
1.16891
1.16891
1.16892
1.16892
1.16892
1.16892
1.16892
1.16892
1.16892
1.16893
1.16893
1.16893
1.16893
1.16893
1.16893
1.16893
1.16893
1.16893
1.16893
1.16894
1.16894
1.16894
1.16894
1.16894
1.16895
1.16895
1.16896
1.16899
1.16928
1.17148
1.18038
1.19845
1.22129
1.23818
1.25168
1.2814
1.39393
1.39399
1.39186
1.39269
1.40203
1.57492
28.2742
966.482
1026.89
1027.09
1027.09
1027.1
1027.1
1027.1
1027.1
1027.1
1027.1
1027.1
1027.1
1027.1
1027.1
1027.1
1027.1
1027.1
1027.1
1027.1
1027.1
1027.1
1027.1
1027.1
1027.1
1027.1
1027.1
1027.1
1027.1
1027.1
1027.1
1027.1
1027.1
1027.1
1027.1
1027.1
1027.1
1.16006
1.16021
1.1603
1.16035
1.16041
1.16041
1.1607
1.16532
1.16841
1.16879
1.16883
1.16889
1.1689
1.16891
1.16891
1.16891
1.16891
1.16892
1.16892
1.16892
1.16892
1.16892
1.16892
1.16893
1.16893
1.16893
1.16893
1.16893
1.16894
1.16894
1.16894
1.16894
1.16894
1.16894
1.16895
1.16895
1.16895
1.16895
1.16895
1.16895
1.16895
1.16896
1.16896
1.16896
1.16899
1.16931
1.17146
1.17959
1.19638
1.22084
1.24352
1.25921
1.26652
1.28739
1.34675
1.37444
1.3761
1.37832
1.41547
50.2047
996.244
1027.05
1027.09
1027.09
1027.1
1027.1
1027.1
1027.1
1027.1
1027.1
1027.1
1027.1
1027.1
1027.1
1027.1
1027.1
1027.1
1027.1
1027.1
1027.1
1027.1
1027.1
1027.1
1027.1
1027.1
1027.1
1027.1
1027.1
1027.1
1027.1
1027.1
1027.1
1027.1
1027.1
1027.1
1027.1
1.16597
1.16636
1.16648
1.16676
1.16712
1.16776
1.16836
1.16863
1.16876
1.16881
1.16886
1.16889
1.1689
1.16891
1.16891
1.16891
1.16891
1.16891
1.16891
1.16892
1.16892
1.16892
1.16892
1.16892
1.16892
1.16893
1.16893
1.16893
1.16893
1.16893
1.16893
1.16894
1.16894
1.16894
1.16894
1.16894
1.16894
1.16895
1.16895
1.16895
1.16895
1.16895
1.16895
1.16895
1.16899
1.16969
1.17494
1.18967
1.21074
1.23047
1.24382
1.2521
1.25893
1.2661
1.27435
1.28211
1.28481
1.33361
2.46293
52.4459
989.96
1026.88
1027.09
1027.1
1027.1
1027.1
1027.1
1027.1
1027.1
1027.1
1027.1
1027.1
1027.1
1027.1
1027.1
1027.1
1027.1
1027.1
1027.1
1027.1
1027.1
1027.1
1027.1
1027.1
1027.1
1027.1
1027.1
1027.1
1027.1
1027.1
1027.1
1027.1
1027.1
1027.1
1027.1
1027.1
1.16594
1.1666
1.16692
1.16725
1.16767
1.16808
1.16832
1.16842
1.16849
1.16859
1.16873
1.16883
1.16888
1.1689
1.16891
1.16891
1.16891
1.16891
1.16892
1.16892
1.16892
1.16892
1.16892
1.16892
1.16893
1.16893
1.16893
1.16893
1.16893
1.16893
1.16893
1.16894
1.16894
1.16894
1.16894
1.16894
1.16894
1.16894
1.16894
1.16894
1.16894
1.16895
1.16895
1.16898
1.16909
1.17006
1.17635
1.19156
1.21071
1.2286
1.24327
1.25679
1.26905
1.27636
1.27512
1.27174
1.27422
1.30862
1.79791
45.2265
1003.6
1027.07
1027.09
1027.1
1027.1
1027.1
1027.1
1027.1
1027.1
1027.1
1027.1
1027.1
1027.1
1027.1
1027.1
1027.1
1027.1
1027.1
1027.1
1027.1
1027.1
1027.1
1027.1
1027.1
1027.1
1027.1
1027.1
1027.1
1027.1
1027.1
1027.1
1027.1
1027.1
1027.1
1027.1
1027.1
1.16536
1.16654
1.16695
1.16734
1.16768
1.16799
1.16812
1.16814
1.16824
1.16842
1.16864
1.1688
1.16887
1.1689
1.1689
1.1689
1.1689
1.16891
1.16891
1.16891
1.16891
1.16891
1.16891
1.16892
1.16892
1.16892
1.16892
1.16892
1.16892
1.16893
1.16893
1.16893
1.16893
1.16893
1.16893
1.16893
1.16893
1.16893
1.16893
1.16894
1.16894
1.16894
1.16896
1.16904
1.16921
1.17059
1.17713
1.19008
1.2076
1.22551
1.24028
1.26222
1.28282
1.29728
1.29599
1.28693
1.2779
1.30896
1.56986
83.7373
1017.29
1027.09
1027.09
1027.1
1027.1
1027.1
1027.1
1027.1
1027.1
1027.1
1027.1
1027.1
1027.1
1027.1
1027.1
1027.1
1027.1
1027.1
1027.1
1027.1
1027.1
1027.1
1027.1
1027.1
1027.1
1027.1
1027.1
1027.1
1027.1
1027.1
1027.1
1027.1
1027.1
1027.1
1027.1
1027.1
1.16449
1.16648
1.1668
1.1672
1.16748
1.16773
1.16788
1.16798
1.16815
1.16836
1.1686
1.16878
1.16886
1.1689
1.1689
1.1689
1.1689
1.1689
1.1689
1.16891
1.16891
1.16891
1.16891
1.16891
1.16891
1.16891
1.16892
1.16892
1.16892
1.16892
1.16892
1.16892
1.16893
1.16893
1.16893
1.16893
1.16893
1.16893
1.16893
1.16893
1.16894
1.16894
1.16895
1.16903
1.16928
1.17104
1.1768
1.18614
1.19862
1.21335
1.23717
1.27943
1.30138
1.30667
1.30613
1.3043
1.29345
1.3241
1.50543
126.111
1022.31
1026.99
1027.03
1027.07
1027.08
1027.09
1027.09
1027.09
1027.09
1027.09
1027.09
1027.09
1027.09
1027.09
1027.09
1027.09
1027.09
1027.09
1027.09
1027.09
1027.09
1027.1
1027.1
1027.1
1027.1
1027.1
1027.1
1027.1
1027.1
1027.1
1027.1
1027.1
1027.1
1027.1
1027.1
1027.1
1.16251
1.16552
1.16664
1.16719
1.16728
1.16749
1.1677
1.16791
1.16808
1.16826
1.16852
1.16873
1.16885
1.16889
1.1689
1.1689
1.1689
1.16891
1.16891
1.16891
1.16891
1.16891
1.16891
1.16891
1.16891
1.16892
1.16892
1.16892
1.16892
1.16892
1.16892
1.16892
1.16893
1.16893
1.16893
1.16893
1.16893
1.16893
1.16893
1.16893
1.16894
1.16894
1.16895
1.16906
1.16934
1.17089
1.17598
1.18355
1.19071
1.19782
1.27134
1.30655
1.31056
1.30394
1.30362
1.30633
1.32061
1.36272
1.41687
227.191
1019.09
1024.77
1025.19
1025.69
1025.91
1026.09
1026.21
1026.29
1026.32
1026.37
1026.46
1026.54
1026.61
1026.67
1026.7
1026.71
1026.7
1026.7
1026.71
1026.73
1026.77
1026.85
1026.96
1027.05
1027.09
1027.08
1027.09
1027.1
1027.1
1027.1
1027.1
1027.1
1027.1
1027.1
1027.1
1027.1
1.16157
1.16465
1.16652
1.16724
1.16748
1.16765
1.16767
1.16782
1.16794
1.16803
1.16837
1.16863
1.16882
1.16888
1.16889
1.1689
1.1689
1.1689
1.1689
1.16891
1.16891
1.16891
1.16891
1.16891
1.16892
1.16892
1.16892
1.16892
1.16892
1.16892
1.16893
1.16893
1.16893
1.16893
1.16893
1.16893
1.16893
1.16893
1.16894
1.16894
1.16894
1.16894
1.16896
1.16908
1.16944
1.17083
1.17468
1.18181
1.18963
1.20589
1.30342
1.31358
1.31161
1.31595
1.32367
1.34362
1.36298
1.37091
1.35022
337.735
1010.69
1017.41
1018
1018.31
1018.45
1018.62
1019.07
1019.45
1019.85
1020.22
1020.63
1021.07
1021.51
1021.91
1022.25
1022.55
1022.86
1023.21
1023.61
1024.11
1024.76
1025.55
1026.3
1026.77
1026.87
1026.74
1026.67
1026.65
1026.72
1026.85
1026.97
1027.06
1027.09
1027.09
1027.09
1027.09
1.16178
1.16421
1.16627
1.16709
1.16743
1.16782
1.16792
1.16784
1.1678
1.16782
1.16806
1.16852
1.16876
1.16886
1.16889
1.1689
1.1689
1.1689
1.1689
1.16891
1.16891
1.16891
1.16892
1.16892
1.16892
1.16892
1.16892
1.16892
1.16893
1.16893
1.16893
1.16893
1.16893
1.16893
1.16893
1.16893
1.16893
1.16894
1.16894
1.16894
1.16894
1.16895
1.16897
1.16906
1.16942
1.17067
1.17364
1.18051
1.19068
1.21413
1.30865
1.32215
1.32577
1.33145
1.33965
1.34952
1.35348
1.33156
1.28896
373.884
1007.18
1013.89
1014.17
1013.83
1013.42
1013.21
1013.15
1013.36
1013.66
1014
1014.43
1014.92
1015.48
1016.04
1016.7
1017.53
1018.46
1019.5
1020.62
1021.81
1023.02
1024.11
1024.83
1025.11
1024.41
1023.73
1023.06
1022.64
1022.54
1023.45
1024.41
1025.88
1026.8
1027.07
1026.98
1026.89
1.16201
1.16248
1.16528
1.16646
1.16712
1.16767
1.16807
1.1681
1.16788
1.16782
1.16783
1.16842
1.16868
1.16884
1.16888
1.16889
1.16889
1.1689
1.1689
1.1689
1.1689
1.1689
1.16891
1.16891
1.16891
1.16891