/*--------------------------------*- C++ -*----------------------------------*\
| =========                 |                                                 |
| \\      /  F ield         | OpenFOAM: The Open Source CFD Toolbox           |
|  \\    /   O peration     | Version:  2.3.0                                 |
|   \\  /    A nd           | Web:      www.OpenFOAM.org                      |
|    \\/     M anipulation  |                                                 |
\*---------------------------------------------------------------------------*/
FoamFile
{
    version     2.0;
    format      ascii;
    class       volVectorField;
    location    "20";
    object      U;
}
// * * * * * * * * * * * * * * * * * * * * * * * * * * * * * * * * * * * * * //

dimensions      [0 1 -1 0 0 0 0];

internalField   nonuniform List<vector> 
6144
(
(0.00913902 0.0193991 -0.00223993)
(0.00927875 0.00475 -0.00291337)
(0.00673201 0.0028342 -0.00332819)
(0.00641251 -0.000292907 -0.00327148)
(0.00411277 -0.00153328 -0.00244721)
(0.00349044 -0.00134106 -0.00174568)
(0.00219108 -0.00188059 -0.000536838)
(0.00176764 -0.000469403 -1.52896e-06)
(0.00146695 0.000365457 0.000202046)
(0.00112691 0.00218104 0.000868503)
(0.00111998 0.00314813 0.00109917)
(0.00134121 0.0036028 0.00159844)
(0.00154846 0.00317168 0.00162136)
(0.00172958 0.00253206 0.00174867)
(0.00181337 0.00169678 0.0013514)
(0.00192237 0.00116656 0.00113372)
(0.00197715 0.000663471 0.000801531)
(0.00204123 0.000431268 0.000617716)
(0.00207793 0.000207721 0.000432087)
(0.00210191 0.000113201 0.000339564)
(0.00210761 3.72553e-05 0.000282279)
(0.00210317 1.4144e-05 0.00026647)
(0.00209078 6.34168e-06 0.000272139)
(0.00207347 1.67148e-05 0.000297422)
(0.00205147 3.32653e-05 0.000338481)
(0.00202579 5.47809e-05 0.000389637)
(0.00199676 8.06983e-05 0.000445969)
(0.00196438 0.000114819 0.000504846)
(0.00192895 0.000162421 0.000567882)
(0.00189187 0.000222643 0.000637542)
(0.00184993 0.000289395 0.000721247)
(0.00179903 0.000353642 0.000828627)
(0.00173663 0.000405056 0.000971472)
(0.00166061 0.000418417 0.0011593)
(0.00156913 0.000368322 0.00140164)
(0.00146323 0.000213453 0.00169293)
(0.00134709 -6.82277e-05 0.0020146)
(0.00122131 -0.000486225 0.00231794)
(0.00109138 -0.000943446 0.00252981)
(0.000964273 -0.00133796 0.00255318)
(0.000838552 -0.00143013 0.00228664)
(0.000682665 -0.000896054 0.00160436)
(0.000439911 0.000798988 0.000458606)
(1.12579e-05 0.00408618 -0.000571256)
(-0.000340776 0.00935548 -0.00100066)
(6.66938e-05 0.0151676 -0.000815799)
(0.00161254 0.0196221 -0.00125463)
(0.00339834 0.0207273 -0.00194362)
(0.00473036 0.0195636 -0.00325509)
(0.00247343 0.0211022 -0.0060177)
(-0.000212142 0.0367455 -0.00643492)
(0.00968145 0.0486001 -0.00356569)
(0.0490877 0.0218676 -0.00463818)
(0.0613712 -0.0527702 -0.015012)
(0.0515164 -0.067842 -0.0230656)
(0.0324311 -0.108368 -0.0185644)
(0.00485451 -0.0766156 -0.0289442)
(-0.00204517 -0.0622495 0.030115)
(-0.032243 -0.042102 -0.0397478)
(0.0470086 0.154237 0.0524112)
(0.175688 -0.301271 0.0733617)
(0.119696 -0.166898 0.0296247)
(0.0813222 -0.217742 0.00645275)
(0.0647298 -0.254614 0.00357571)
(0.0564807 -0.251527 0.00568984)
(0.0479813 -0.252333 0.00869032)
(0.0420892 -0.253951 0.00981127)
(0.0376036 -0.25419 0.0088138)
(0.034219 -0.252137 0.00858341)
(0.0305237 -0.24968 0.00711101)
(0.0267759 -0.251172 0.0082558)
(0.0238622 -0.25309 0.00858053)
(0.0203791 -0.25564 0.00962505)
(0.0173211 -0.25639 0.0109502)
(0.0131908 -0.255048 0.00902582)
(0.00617629 -0.251147 0.0119301)
(0.00410672 -0.239522 0.0118683)
(-0.00486455 -0.227879 0.0130213)
(-0.0158634 -0.200269 0.011784)
(-0.0262326 -0.168563 0.00400133)
(-0.032448 -0.103459 0.0149287)
(-0.0124612 -0.0461237 0.0054928)
(-0.000796423 -0.00823367 -0.0160104)
(-3.60281e-05 0.0188004 -0.0129916)
(0.00145008 0.0327051 -0.00199167)
(-0.000862729 0.0362435 0.00415739)
(-0.00581384 0.0349681 0.00543828)
(-0.00918984 0.0379523 0.00470973)
(-0.0050751 0.0406252 0.00430488)
(-0.00179611 0.0394113 0.00385655)
(-0.00125665 0.0385122 0.00541401)
(-0.00293547 0.0378842 0.00679641)
(-0.00245517 0.0376618 0.00830427)
(-0.000694946 0.036229 0.0124702)
(0.000711711 0.026991 0.0199963)
(0.00416163 0.0133207 0.0209048)
(0.0167783 0.0196365 0.00208871)
(0.0172517 0.0100367 0.00147037)
(0.0130661 0.00788361 -2.40716e-05)
(0.012071 0.00583628 0.00166329)
(0.00821431 0.00279692 0.00249874)
(0.00677289 0.000940086 0.00345874)
(0.00321801 -0.000462831 0.00404585)
(0.00197375 0.00119046 0.00369376)
(0.00123327 0.00234822 0.00330073)
(0.00113317 0.00404556 0.00353243)
(0.0015265 0.00461309 0.00358259)
(0.00225319 0.0048663 0.00409661)
(0.00268301 0.00420133 0.00419121)
(0.00310798 0.00367621 0.00435723)
(0.00319597 0.00274357 0.004237)
(0.00337809 0.0021102 0.00419172)
(0.00340537 0.00142834 0.00406703)
(0.00350559 0.00107638 0.00401541)
(0.00355526 0.000735048 0.00390032)
(0.00358971 0.000560338 0.00386526)
(0.00358414 0.000417143 0.00384795)
(0.00356249 0.000350156 0.00386726)
(0.00352311 0.000310302 0.00390429)
(0.00347399 0.000298862 0.00396013)
(0.00341736 0.000300375 0.00402492)
(0.00335468 0.000311996 0.00409538)
(0.00328557 0.000330618 0.0041683)
(0.00320818 0.000359044 0.00424197)
(0.00312142 0.000402363 0.00431578)
(0.00303395 0.000457089 0.00437585)
(0.00294197 0.000510416 0.00443318)
(0.00284007 0.000547994 0.00450011)
(0.00272915 0.000558506 0.00458058)
(0.00261127 0.000509555 0.00467884)
(0.00249274 0.000381943 0.00479504)
(0.0023782 0.000139583 0.00492579)
(0.00227167 -0.000213543 0.00505571)
(0.0021548 -0.000670276 0.00516973)
(0.00200785 -0.00111025 0.00523652)
(0.00178316 -0.00145069 0.0052051)
(0.0013974 -0.00149184 0.00500883)
(0.000734285 -0.000945941 0.0044967)
(-0.000127576 0.000660267 0.00321575)
(-0.00171006 0.00369553 0.00179613)
(-0.00338493 0.00830353 0.00122956)
(-0.00320124 0.0124348 0.00165554)
(3.99732e-05 0.0155723 0.0017168)
(0.00536505 0.0185025 0.00119991)
(0.00767364 0.0199972 0.00173054)
(0.00358878 0.0233511 0.00157541)
(-0.00142609 0.0272215 0.00224297)
(0.017247 0.00469419 0.0110764)
(0.089569 -0.0446098 0.0115978)
(0.0903483 -0.0819641 -0.00630621)
(0.0704213 -0.0835823 -0.00814319)
(0.0579888 -0.126622 0.00185729)
(0.0092594 -0.10382 -0.00604638)
(0.00520815 -0.159707 0.0358644)
(-0.121868 -0.0384286 -0.0747264)
(0.0215939 0.0831053 0.0272763)
(0.230601 -0.274275 0.112515)
(0.118167 0.0236361 0.0264903)
(0.047164 -0.121714 -0.00685289)
(0.0431407 -0.0697267 0.0127133)
(0.0223517 -0.0939614 0.0237735)
(0.00224041 -0.101906 0.0194089)
(-0.00885698 -0.107857 0.0144619)
(-0.012633 -0.106997 0.0145634)
(-0.0142113 -0.102671 0.0160539)
(-0.0147301 -0.102064 0.0216395)
(-0.014334 -0.107457 0.0274279)
(-0.0120959 -0.112455 0.0308679)
(-0.0115389 -0.116252 0.0329575)
(-0.015255 -0.122135 0.033315)
(-0.0178079 -0.13278 0.0334037)
(-0.0206626 -0.141904 0.0395798)
(-0.0268012 -0.150244 0.0406042)
(-0.0361794 -0.151411 0.0358718)
(-0.0368293 -0.144707 0.0287103)
(-0.0402227 -0.128132 0.017654)
(-0.0467944 -0.0816771 0.0209237)
(-0.0367578 -0.0229874 0.00146349)
(-0.0203216 0.0238584 -0.0130482)
(-0.0172861 0.0563129 -0.00688184)
(-0.0174787 0.0694385 0.00331345)
(-0.0160657 0.0716459 0.0103683)
(-0.0113226 0.0630547 0.0140456)
(-0.00460669 0.054106 0.00893325)
(-0.00210145 0.0461957 0.0056732)
(0.00136988 0.0434388 0.00188473)
(0.00312281 0.0388059 -0.00220631)
(0.00216892 0.034668 -0.00622819)
(-0.00289349 0.0316563 -0.00859482)
(-0.0049149 0.0306461 -0.00697078)
(0.00099331 0.0250735 -0.00397897)
(0.0116729 0.0104215 -0.0025943)
(0.0202181 0.0195538 0.00300528)
(0.0212826 0.0130256 0.00238665)
(0.0163483 0.010109 0.000765059)
(0.0151876 0.00965902 0.00183778)
(0.0105275 0.00569173 0.00300579)
(0.00823106 0.00356781 0.00382579)
(0.00217138 0.00115612 0.0047402)
(0.000221839 0.00187593 0.00471484)
(-0.000747544 0.00259099 0.00434139)
(-0.000246202 0.00408696 0.0042921)
(0.000365646 0.00427988 0.00414018)
(0.00141241 0.00449361 0.00453301)
(0.0017776 0.00407718 0.00465995)
(0.0023055 0.00400535 0.00485782)
(0.00246514 0.00334041 0.00478051)
(0.00273944 0.00285761 0.00477338)
(0.00271013 0.00217714 0.004693)
(0.00280076 0.00177058 0.00470098)
(0.00273753 0.00133636 0.00469384)
(0.00271129 0.00110694 0.00473271)
(0.00262758 0.000903876 0.00476704)
(0.00255355 0.000798263 0.00481904)
(0.00246631 0.000724324 0.00486981)
(0.00237947 0.000690012 0.00492326)
(0.00229156 0.000675563 0.00497608)
(0.00220264 0.000676716 0.0050275)
(0.00210893 0.000686243 0.00507729)
(0.00200628 0.000700194 0.00512608)
(0.00189357 0.000714513 0.00517398)
(0.00177246 0.000722503 0.00522295)
(0.00164569 0.00071806 0.00527512)
(0.00151239 0.000685388 0.00533286)
(0.00137434 0.00061496 0.00539822)
(0.00123198 0.00048639 0.00547265)
(0.00108892 0.000303876 0.00555201)
(0.000950053 6.89573e-05 0.00562983)
(0.000806932 -0.000177692 0.00569035)
(0.000639642 -0.000393184 0.00572226)
(0.00042684 -0.000473683 0.0056917)
(0.000148593 -0.000354708 0.0055661)
(-0.000244115 8.43771e-05 0.00529477)
(-0.000924447 0.000827109 0.00479789)
(-0.00223482 0.00195265 0.0040067)
(-0.00429603 0.00343642 0.00287787)
(-0.00581931 0.00428844 0.00215612)
(-0.00597977 0.00383557 0.00249591)
(-0.00414153 0.0048372 0.00320129)
(0.0003165 0.00833674 0.00392307)
(0.0036843 0.0114303 0.00708013)
(0.00106884 0.010117 0.00861539)
(0.0134684 0.0108582 0.0060526)
(0.0583631 -0.0349293 0.0130482)
(0.106861 -0.062635 0.00246752)
(0.112012 -0.057708 -0.0166703)
(0.0908403 -0.0178882 0.00219758)
(0.0916157 -0.0842942 0.0302321)
(0.00746195 -0.0502851 0.0342737)
(0.0206226 -0.173673 0.0441193)
(-0.171352 0.0361791 -0.0681084)
(0.0753852 0.023053 -0.00299802)
(0.248312 -0.2437 0.111705)
(0.135924 0.102958 -0.00261688)
(0.121715 -0.0931278 0.00456664)
(0.0717147 0.0258977 0.0126674)
(0.0441612 -0.0405353 0.0224842)
(0.0366785 -0.0200955 0.0114224)
(0.0256095 -0.0287173 0.0114487)
(0.0237149 -0.0314664 0.0186196)
(0.0231098 -0.0432952 0.0266836)
(0.0208671 -0.0594589 0.0311093)
(0.0189293 -0.075057 0.0324931)
(0.0182524 -0.084134 0.0283635)
(0.0193868 -0.0906838 0.0241242)
(0.0201844 -0.0963307 0.0237697)
(0.0153506 -0.101985 0.0228005)
(0.00355922 -0.0998906 0.0199077)
(-0.0161128 -0.101179 0.0312476)
(-0.03039 -0.0971235 0.0382913)
(-0.0484789 -0.0824368 0.0317874)
(-0.0751548 -0.0577134 0.0279623)
(-0.0818301 -0.0190373 0.00856605)
(-0.0566421 0.02275 -0.0114037)
(-0.0378399 0.0526061 -0.0109379)
(-0.0304374 0.0745225 -0.0056339)
(-0.0256301 0.0823975 0.00544541)
(-0.0202755 0.0790928 0.0141912)
(-0.0140347 0.068678 0.0124863)
(-0.00970942 0.0644924 0.00531722)
(-0.00303493 0.0637101 0.00244451)
(0.00806154 0.0614514 -0.00236072)
(0.0200055 0.0599855 -0.00576462)
(0.025372 0.0582731 -0.00728596)
(0.0282192 0.0534273 -0.00530692)
(0.0322303 0.043226 -0.00257301)
(0.0398049 0.0270955 -0.000235677)
(0.047032 0.0149665 0.00678057)
(0.0226527 0.021899 0.00284857)
(0.0247798 0.016304 0.00170688)
(0.0194368 0.0119676 -0.000437946)
(0.0194997 0.0118826 -0.000507048)
(0.0146927 0.0069359 0.00013731)
(0.0116467 0.00575956 0.000774477)
(0.00276001 0.0021539 0.00305487)
(-0.00056542 0.00151486 0.00375432)
(-0.0027465 0.000888506 0.00407987)
(-0.00186399 0.00275883 0.0041986)
(-0.000892409 0.00281412 0.0040612)
(2.46187e-05 0.00346573 0.00459025)
(0.000331115 0.00352541 0.00471763)
(0.000860284 0.00385887 0.00491212)
(0.00116661 0.00348604 0.0047801)
(0.00149851 0.00319473 0.00476523)
(0.00147206 0.00255608 0.00464881)
(0.00157683 0.00212938 0.00464269)
(0.00147586 0.00161984 0.00461359)
(0.00143505 0.00132737 0.00464838)
(0.00132692 0.00105945 0.00468284)
(0.00123168 0.000918003 0.0047417)
(0.00111945 0.000814887 0.00479711)
(0.00101162 0.000763874 0.00485347)
(0.000906549 0.000740342 0.00490797)
(0.000804664 0.000739085 0.00496166)
(0.000703629 0.000749195 0.00501398)
(0.000598508 0.000761777 0.00506457)
(0.000488802 0.000766162 0.00511321)
(0.000378952 0.000752194 0.00516054)
(0.000271344 0.000715695 0.00520935)
(0.000166963 0.000647507 0.00526255)
(6.9114e-05 0.000548811 0.00532046)
(-1.98136e-05 0.000416684 0.00538041)
(-0.000102789 0.000275224 0.00543032)
(-0.000191611 0.000143133 0.00545352)
(-0.000297844 7.56497e-05 0.00542568)
(-0.000446258 9.70984e-05 0.00532341)
(-0.000667523 0.000284172 0.00512331)
(-0.000969896 0.000683345 0.00480456)
(-0.00134851 0.00132328 0.00436654)
(-0.00182379 0.00201055 0.00383141)
(-0.00254781 0.00230122 0.00325323)
(-0.00369343 0.00189898 0.00276968)
(-0.00494367 7.25508e-05 0.00276511)
(-0.00567299 -0.00362137 0.00276103)
(-0.00572395 -0.00487516 0.00283116)
(-0.00328815 -0.00421347 0.00233459)
(-0.00051592 -0.00395335 0.00600816)
(-0.000300957 -0.00413757 0.00879549)
(0.027684 -0.0176153 0.00779908)
(0.0822447 -0.048078 0.0240138)
(0.105725 -0.0527659 -0.00502805)
(0.089008 0.022881 -0.01487)
(0.0999383 0.0687356 0.0194979)
(0.0978755 -0.00389324 0.0509284)
(-0.0225398 0.0969968 0.103707)
(0.0487473 -0.205382 0.126795)
(-0.149528 0.175665 -0.0514116)
(0.0520292 -0.0604607 0.038597)
(0.228255 -0.200924 0.125763)
(0.107102 0.119903 -0.0103867)
(0.107264 -0.00878662 0.0265858)
(0.0417918 0.0618024 0.00732727)
(0.0285869 0.0247894 0.015308)
(0.00966566 0.0297344 0.0242453)
(0.00469623 0.00370062 0.0312891)
(0.00544662 -0.00770474 0.029247)
(0.00719533 -0.0209295 0.0284596)
(0.00314216 -0.032492 0.0281521)
(-0.00543269 -0.0440926 0.0180207)
(-0.013734 -0.0456304 -0.000487463)
(-0.0165972 -0.0326017 -0.00548063)
(-0.0167808 -0.020156 0.00917044)
(-0.0149648 -0.0127046 0.0191981)
(-0.0189178 -0.00441539 0.0206132)
(-0.0377044 -0.00280719 0.0147791)
(-0.0614113 0.00673944 0.0196051)
(-0.0797677 0.0189426 0.0220751)
(-0.0906581 0.0326677 0.0102836)
(-0.0804976 0.0474677 -0.0123946)
(-0.0608704 0.0659864 -0.011078)
(-0.049662 0.0789066 -0.010592)
(-0.0382485 0.0909471 -0.00138067)
(-0.031922 0.0924593 0.011452)
(-0.0276416 0.0911414 0.0171407)
(-0.0225884 0.0890077 0.0172862)
(-0.0101611 0.0933296 0.0153784)
(0.0062369 0.0875952 0.0135319)
(0.0181734 0.0804023 0.00866652)
(0.0266758 0.0780419 0.00754932)
(0.0356037 0.0709891 0.00839136)
(0.0387111 0.0603368 0.0135051)
(0.0447289 0.0449173 0.0210622)
(0.0486159 0.0271048 0.0247524)
(0.0518125 0.0102083 0.0256032)
(0.0248056 0.0249705 0.00314547)
(0.0277997 0.0209233 0.00247938)
(0.0227227 0.0151049 5.96544e-05)
(0.0239351 0.0149999 -0.000408911)
(0.0201438 0.00862225 -0.00204626)
(0.0164901 0.00848102 -0.00262881)
(0.0063792 0.00359541 -0.00056258)
(0.00234547 0.00276046 0.00154238)
(-0.00308315 -0.000283021 0.00304101)
(-0.00341931 0.00113271 0.00370534)
(-0.00266168 0.000844913 0.0037122)
(-0.00215849 0.00208796 0.00447131)
(-0.00199177 0.00268983 0.00450149)
(-0.00147667 0.00344911 0.00467604)
(-0.000948573 0.00335728 0.00441956)
(-0.000576146 0.00319638 0.00440304)
(-0.000575143 0.00263751 0.00427476)
(-0.000534003 0.002265 0.00427523)
(-0.000728245 0.00177021 0.00420784)
(-0.000845354 0.0014657 0.00420897)
(-0.00103528 0.00115215 0.00419393)
(-0.00119494 0.000961563 0.00421629)
(-0.00135387 0.00082157 0.00424122)
(-0.00148775 0.000749908 0.00427505)
(-0.00160908 0.000713383 0.00431044)
(-0.0017203 0.000704101 0.00434716)
(-0.00182486 0.000706606 0.00438468)
(-0.00192349 0.000707937 0.00442489)
(-0.00201673 0.00069545 0.00446767)
(-0.00210588 0.000659412 0.00451089)
(-0.0021918 0.000600742 0.00455308)
(-0.00227427 0.000520152 0.00459465)
(-0.00235226 0.000431464 0.00463584)
(-0.00242802 0.000348174 0.00467251)
(-0.00250418 0.000306116 0.00468868)
(-0.00258781 0.000325281 0.00466164)
(-0.00269075 0.000445621 0.00456432)
(-0.00284888 0.00067421 0.00436349)
(-0.00308576 0.00104675 0.00404101)
(-0.00334834 0.00151262 0.00360412)
(-0.00345209 0.00200754 0.00313388)
(-0.0032715 0.00212384 0.00286082)
(-0.00313358 0.00142059 0.00287002)
(-0.00342772 -0.000433683 0.00314524)
(-0.00347276 -0.00399261 0.00379349)
(-0.00339204 -0.00898017 0.00417175)
(-0.00369676 -0.010971 0.00287753)
(-0.00157209 -0.0122409 0.00269216)
(7.34659e-05 -0.0133464 0.00691619)
(0.00735926 -0.0159251 0.0105011)
(0.046454 -0.0412705 0.0173095)
(0.0842564 -0.0467087 0.0449912)
(0.0730911 -0.0244256 0.0228386)
(0.0674902 0.0519258 -0.00365388)
(0.0558963 0.0956133 0.0294678)
(0.040228 0.0615673 0.0674626)
(0.000538127 0.21083 0.15384)
(0.129676 -0.218723 0.165284)
(-0.195182 0.399389 -0.0464082)
(0.0309306 -0.110475 0.0266192)
(0.208527 -0.155859 0.126886)
(0.074241 0.111535 -0.00245021)
(0.101287 0.0236049 0.0375055)
(0.0550409 0.0783588 0.0312278)
(0.0328216 0.0589585 0.0322181)
(0.0164826 0.061749 0.00852437)
(0.0145239 0.0600638 -0.0009953)
(0.00636018 0.0657582 -0.00329894)
(0.00159092 0.0710223 0.0036146)
(-0.00583686 0.0675644 0.00716357)
(-0.00843738 0.0663865 0.00384639)
(-0.00946924 0.0698013 0.00330254)
(-0.00658407 0.0723202 0.0101106)
(-0.00949023 0.072334 0.014882)
(-0.0189144 0.0754509 0.0182899)
(-0.030429 0.0827409 0.019553)
(-0.0485961 0.084009 0.0177828)
(-0.0634809 0.0897227 0.0175362)
(-0.0754936 0.0886339 0.0123744)
(-0.0784866 0.0877937 0.00173151)
(-0.0724088 0.0850833 -0.0038039)
(-0.0601995 0.0906131 8.07599e-05)
(-0.047368 0.0962893 0.00606164)
(-0.0383585 0.105072 0.0148701)
(-0.037254 0.111408 0.0253)
(-0.0362562 0.116034 0.0274528)
(-0.0299689 0.117717 0.0213331)
(-0.0109951 0.109907 0.0147319)
(0.00387407 0.10083 0.0109178)
(0.0121576 0.0963074 0.00834838)
(0.024413 0.0872058 0.00910362)
(0.0343958 0.0832665 0.00859976)
(0.0390628 0.0669107 0.0160349)
(0.0431849 0.0491728 0.0263544)
(0.0446573 0.0308668 0.033058)
(0.0482771 0.00725811 0.0282767)
(0.0252437 0.0265072 0.00633674)
(0.0293892 0.0230947 0.00422522)
(0.0237181 0.0162715 0.00148214)
(0.0266459 0.0174572 0.00239714)
(0.023777 0.0090406 -0.000844566)
(0.021857 0.00887018 -0.00229283)
(0.0127517 0.00102506 -0.00358867)
(0.00639492 0.0024839 -0.00127666)
(-0.000792336 -0.000867198 0.00122797)
(-0.00323854 0.000634585 0.0027372)
(-0.00331852 -0.00108044 0.00298317)
(-0.00361954 0.000422812 0.00400994)
(-0.0032378 0.00143415 0.00408118)
(-0.00254803 0.00283514 0.00448075)
(-0.00167605 0.00299432 0.00434542)
(-0.00125396 0.00292979 0.00446025)
(-0.00125817 0.00241685 0.00435077)
(-0.00130072 0.00215756 0.00439202)
(-0.00155295 0.00176371 0.00427956)
(-0.00170733 0.00154927 0.00423076)
(-0.00192209 0.00129765 0.00413072)
(-0.00208716 0.00114892 0.00406414)
(-0.00224639 0.00102781 0.00399562)
(-0.00237701 0.000966774 0.00394286)
(-0.00248794 0.000934643 0.00389981)
(-0.00257929 0.000925473 0.00387144)
(-0.00265383 0.000926281 0.00385868)
(-0.0027151 0.000926483 0.00386243)
(-0.00276713 0.00091657 0.00388162)
(-0.00281211 0.000891035 0.00391278)
(-0.00285381 0.000854051 0.00395193)
(-0.00289022 0.00081412 0.00399645)
(-0.00292446 0.000794172 0.0040387)
(-0.00296122 0.000816743 0.00406699)
(-0.00300302 0.000916732 0.00406332)
(-0.00305903 0.00110567 0.00400423)
(-0.00313706 0.00139637 0.0038655)
(-0.00326606 0.00174519 0.00362783)
(-0.003415 0.00210609 0.00332893)
(-0.00347247 0.00231464 0.00307208)
(-0.00325364 0.00230589 0.00295336)
(-0.00266256 0.00192213 0.00309819)
(-0.00197068 0.000778089 0.00373707)
(-0.00129313 -0.00200628 0.0049251)
(-0.000139296 -0.00700543 0.00609477)
(-0.000173921 -0.0124598 0.00567717)
(-0.000611525 -0.0139845 0.00281701)
(0.000448564 -0.0158896 0.00290946)
(0.00161303 -0.0169334 0.00772212)
(0.0147899 -0.0288068 0.0128507)
(0.0573485 -0.0442195 0.0310719)
(0.0673801 -0.0364572 0.0718261)
(0.0603391 -0.0364742 0.0605494)
(0.0457275 -0.0140643 0.0237726)
(0.0387585 0.0576957 0.0464111)
(0.0704835 -0.0237352 0.0605818)
(0.0481238 0.107625 0.137513)
(0.0754968 -0.076839 0.0821426)
(-0.0142094 0.428773 -0.00613971)
(0.0425916 -0.137467 0.0392734)
(0.16344 -0.111385 0.107069)
(0.0406043 0.100151 -0.00520363)
(0.0551569 0.0575743 0.019468)
(0.0246917 0.102422 0.0224665)
(0.0124434 0.0978227 0.0195984)
(0.011435 0.09925 0.0136137)
(0.0139332 0.104203 0.0122331)
(0.0129336 0.108167 0.0164921)
(0.00579148 0.108338 0.0201181)
(-0.00249962 0.104639 0.018818)
(-0.00696745 0.102503 0.0158215)
(-0.00856036 0.101678 0.0153813)
(-0.0109514 0.102117 0.0188248)
(-0.0150581 0.101222 0.0222391)
(-0.0199421 0.0989075 0.023562)
(-0.0248143 0.104475 0.0258614)
(-0.0337131 0.104518 0.0258338)
(-0.0451814 0.102107 0.0186827)
(-0.0537632 0.0946196 0.010576)
(-0.055788 0.0931515 0.00371128)
(-0.0563986 0.0923109 0.00193318)
(-0.0550462 0.100725 0.0038289)
(-0.0535687 0.109323 0.00797409)
(-0.0526293 0.122684 0.0119298)
(-0.0528931 0.129249 0.0117066)
(-0.0483993 0.130852 0.00510018)
(-0.0333271 0.128023 0.00303216)
(-0.0096668 0.122089 0.00154365)
(0.00889551 0.114846 0.00305282)
(0.0223527 0.106755 0.00535254)
(0.028603 0.0995042 0.00162599)
(0.039432 0.0994243 -0.000236103)
(0.0495725 0.0910292 0.00450983)
(0.0536521 0.073278 0.0208536)
(0.0475382 0.0431028 0.0330308)
(0.0437109 0.00707002 0.0271189)
(0.0230874 0.0268326 0.00819481)
(0.0283094 0.0250417 0.00858809)
(0.0212959 0.015969 0.00447359)
(0.0243708 0.0189791 0.00695326)
(0.0232658 0.00879742 0.00391268)
(0.0236114 0.00905815 0.0026498)
(0.0170171 -0.000889129 -0.00158142)
(0.00891896 0.00040758 -0.00224536)
(0.000770366 -0.00220041 -0.000615999)
(-0.00289374 0.000678802 0.00139554)
(-0.00356937 -0.00185214 0.00208329)
(-0.00556553 -0.000359667 0.00314998)
(-0.00608155 0.000292732 0.00349123)
(-0.00544807 0.00198244 0.0044334)
(-0.00412879 0.00216769 0.00481629)
(-0.00365854 0.00227415 0.00524675)
(-0.00380769 0.00193401 0.00518089)
(-0.00406581 0.00189515 0.00522189)
(-0.00446085 0.00169088 0.00505781)
(-0.00471072 0.0016496 0.00496637)
(-0.00497646 0.00152134 0.00481621)
(-0.0051547 0.00146586 0.00470284)
(-0.00530609 0.00140694 0.00458731)
(-0.00540786 0.00138411 0.00450088)
(-0.00547855 0.00137163 0.00443936)
(-0.00552896 0.00136995 0.0044059)
(-0.00556773 0.00137273 0.00439863)
(-0.00559452 0.00137521 0.00441408)
(-0.0056107 0.00137222 0.00444442)
(-0.00562083 0.0013667 0.00448896)
(-0.00563304 0.00136948 0.00454781)
(-0.00565353 0.00139723 0.00461351)
(-0.0056884 0.0014768 0.00467497)
(-0.00573654 0.00162649 0.00471705)
(-0.00579377 0.00185887 0.00472503)
(-0.00585007 0.00214695 0.00468921)
(-0.00587257 0.00245672 0.00459883)
(-0.00582015 0.00266277 0.00447515)
(-0.0056691 0.00268518 0.0043562)
(-0.00539891 0.00241555 0.00430128)
(-0.00506391 0.00187011 0.00440305)
(-0.00450638 0.00102289 0.00482002)
(-0.00358725 -0.000435272 0.00572237)
(-0.00198425 -0.00319707 0.00713127)
(-2.41881e-05 -0.00825887 0.00813191)
(0.000168869 -0.012748 0.00630187)
(0.000293535 -0.0142125 0.00168069)
(0.0012807 -0.0149076 0.00285249)
(0.00276707 -0.0239196 0.0063781)
(0.0213807 -0.035848 0.0144319)
(0.0357654 -0.0234096 0.0445162)
(0.0529802 -0.0194087 0.0755043)
(0.0595717 -0.0137372 0.0748976)
(0.0420249 -0.00792287 0.0545155)
(0.0524457 0.0692556 0.0914393)
(0.035479 -0.0251131 0.084615)
(-0.0322825 0.222982 0.158283)
(0.117561 -0.266283 0.0745729)
(0.127759 0.387255 0.0300573)
(0.0335432 -0.15356 0.032115)
(0.0687371 0.0380121 0.00673774)
(0.014187 0.174971 -0.00479628)
(0.0324139 0.192049 -0.0022589)
(0.0198237 0.212016 -0.00464219)
(0.0130633 0.213836 -0.00996396)
(0.0112605 0.220888 -0.00949521)
(0.0100681 0.228745 0.00339712)
(0.0107823 0.229986 0.0196849)
(0.0065875 0.224251 0.0260064)
(-0.000502978 0.212821 0.0265342)
(0.000238384 0.204249 0.0256843)
(0.00413417 0.194886 0.0286931)
(0.00852253 0.181522 0.0296944)
(0.00614293 0.164386 0.0274866)
(-0.0057048 0.144145 0.0255997)
(-0.0159573 0.13403 0.0219412)
(-0.0244478 0.122622 0.016388)
(-0.0337258 0.115463 0.0083548)
(-0.0438233 0.11104 0.00182304)
(-0.0499235 0.111736 -0.00181473)
(-0.0545494 0.118068 -0.00255958)
(-0.0563423 0.131426 -0.00425996)
(-0.0581008 0.137363 -0.00946197)
(-0.0549489 0.141423 -0.0124468)
(-0.0486565 0.137262 -0.0153296)
(-0.0409623 0.131779 -0.00914361)
(-0.0280894 0.125441 -0.0109929)
(-0.00651021 0.11626 -0.0100373)
(0.0213657 0.110123 -0.000547367)
(0.0334196 0.104526 0.00363594)
(0.0373428 0.10188 0.00471777)
(0.0410566 0.101657 0.00116725)
(0.0519387 0.0992837 0.00555236)
(0.0630552 0.085666 0.0206259)
(0.0650374 0.0621575 0.0291189)
(0.0503077 0.00712473 0.022664)
(0.0224914 0.0247153 0.00830348)
(0.0259405 0.0279023 0.0108484)
(0.0175651 0.015723 0.00559938)
(0.0202218 0.0205786 0.00896157)
(0.019761 0.00906979 0.00627106)
(0.0210541 0.00939398 0.00611662)
(0.0173283 -0.00103149 0.00243098)
(0.0101046 -0.000770238 -0.000337852)
(0.00119704 -0.00345495 0.000118989)
(-0.00258733 0.00011127 0.00108341)
(-0.00285426 -0.0018706 0.00217329)
(-0.00543992 -0.000262698 0.00312479)
(-0.00588135 -0.00070661 0.00400397)
(-0.00539832 0.000387704 0.00538593)
(-0.0040066 0.000109174 0.00652068)
(-0.00379426 0.000855543 0.00738628)
(-0.00399726 0.000858718 0.00768344)
(-0.00422775 0.00135511 0.00784045)
(-0.0045274 0.00141576 0.00775978)
(-0.00465889 0.00166962 0.00768463)
(-0.00481808 0.00173779 0.00753346)
(-0.00491794 0.00185965 0.00739197)
(-0.00501037 0.00190699 0.00723383)
(-0.0050673 0.00193777 0.00710491)
(-0.00510189 0.00194473 0.00700113)
(-0.00511068 0.00194448 0.00692815)
(-0.00510163 0.0019353 0.0068803)
(-0.00507165 0.00192373 0.00685814)
(-0.00503037 0.00191617 0.0068605)
(-0.0049929 0.00191612 0.00687841)
(-0.00497216 0.00194169 0.00690395)
(-0.00497728 0.00201443 0.00692743)
(-0.0050161 0.0021581 0.00694104)
(-0.00507221 0.00237559 0.00693551)
(-0.00513243 0.00263232 0.00689991)
(-0.00516086 0.00288421 0.0068323)
(-0.00510856 0.00302528 0.006764)
(-0.00493453 0.00298765 0.00673661)
(-0.00465273 0.00270755 0.0067861)
(-0.00433901 0.00215561 0.0069686)
(-0.00403966 0.00137556 0.00735645)
(-0.00363297 0.000398673 0.00800565)
(-0.00279217 -0.00103658 0.00893307)
(-0.00085579 -0.00340825 0.00993165)
(0.00141823 -0.00698326 0.0100245)
(0.00184915 -0.00984535 0.0064993)
(0.00214077 -0.0109238 0.00119133)
(0.007364 -0.0127475 0.00433893)
(0.0109129 -0.0294137 0.00455447)
(0.00709506 -0.0293143 0.0128849)
(0.00400609 -0.0196607 0.0500649)
(0.021529 0.0035262 0.0686857)
(0.0247782 0.0246477 0.0590254)
(0.00519321 0.0695874 0.0513116)
(0.0195014 0.117757 0.0733999)
(0.0322557 0.107 0.107284)
(0.146192 0.227421 0.155713)
(0.143036 -0.187588 0.0892892)
(0.0150071 0.407885 -0.00921245)
(-0.038506 -0.165809 0.0114196)
(-0.0568326 0.0710201 -0.0352804)
(-0.0338217 0.225261 -0.0179198)
(-0.0137379 0.24579 0.00257224)
(-0.00886364 0.264978 0.00433677)
(-0.00410571 0.267051 0.00992738)
(-0.00120567 0.270232 0.00934695)
(0.00725679 0.2692 0.0106562)
(0.0150066 0.275346 0.0153694)
(0.0149911 0.281548 0.0216318)
(0.0130286 0.279755 0.0261769)
(0.0145968 0.275504 0.0279266)
(0.018701 0.26986 0.0254166)
(0.0207669 0.258788 0.0183932)
(0.0193104 0.245822 0.0122442)
(0.0129476 0.236432 0.00656084)
(0.00497835 0.222156 0.000892313)
(-0.00365666 0.203497 -0.00159251)
(-0.0157814 0.189443 -0.00109184)
(-0.0260002 0.176744 -0.00511819)
(-0.0355411 0.163942 -0.0130984)
(-0.0439016 0.158812 -0.0193845)
(-0.0497654 0.152706 -0.0247118)
(-0.0499881 0.145445 -0.0300132)
(-0.0439126 0.137284 -0.0292203)
(-0.0363977 0.120295 -0.0187043)
(-0.0247902 0.0981501 -0.00408894)
(-0.0109611 0.0745325 0.00873691)
(0.0100316 0.0401745 0.000456007)
(0.0347907 0.0182988 -0.0102698)
(0.0487564 0.0274954 -0.00125195)
(0.0506363 0.0467694 0.0146584)
(0.0457315 0.0582813 0.0198016)
(0.0568996 0.0691013 0.0281611)
(0.0775878 0.0767689 0.0441828)
(0.090313 0.0602462 0.0529358)
(0.0922333 0.0182635 0.0470873)
(0.00961568 0.0210656 -0.00626332)
(0.0204009 0.0276477 0.00636349)
(0.0111354 0.0199656 0.00355598)
(0.0144461 0.0240803 0.0066645)
(0.0142583 0.0118453 0.00515352)
(0.0166019 0.0108753 0.00544277)
(0.0138333 -0.000536237 0.00382824)
(0.00664445 -0.00107688 -0.000311321)
(-0.000809035 -0.00224238 -0.00227975)
(-0.00404758 0.000399411 -0.00255338)
(-0.00478251 -0.00166186 -0.00155805)
(-0.00626458 -0.000144942 -0.000712254)
(-0.00754649 -0.00166106 0.000755165)
(-0.0075592 -0.000685928 0.00204531)
(-0.00778412 -0.00096305 0.00338821)
(-0.00794823 0.00024424 0.00412871)
(-0.00851522 0.000402156 0.00468633)
(-0.00877607 0.00113946 0.00496386)
(-0.00914822 0.00129729 0.0050866)
(-0.00933979 0.00167352 0.00514908)
(-0.00955853 0.00181373 0.00513044)
(-0.00961938 0.00198444 0.00511327)
(-0.00961194 0.00208699 0.00507402)
(-0.00956248 0.00216553 0.00504679)
(-0.00949854 0.00220703 0.00502729)
(-0.00942546 0.00223352 0.00502053)
(-0.00934458 0.00225081 0.00502335)
(-0.00925581 0.00226545 0.005034)
(-0.00916992 0.00228589 0.00504905)
(-0.00909548 0.00232121 0.00506469)
(-0.00904585 0.00237321 0.00507704)
(-0.00903126 0.00246241 0.00508255)
(-0.00906148 0.00260314 0.00507594)
(-0.00906731 0.00277848 0.00505748)
(-0.0089898 0.00296221 0.00503434)
(-0.0087978 0.00307262 0.00501436)
(-0.00844147 0.00304927 0.00501057)
(-0.0079602 0.00283328 0.00505146)
(-0.00742696 0.00243012 0.0051862)
(-0.00697325 0.00186853 0.00547019)
(-0.0067252 0.00117762 0.00597077)
(-0.00646211 0.000329294 0.00671682)
(-0.0056829 -0.000920476 0.00763898)
(-0.00384103 -0.00269911 0.00829753)
(-0.00170762 -0.0046169 0.00719166)
(-0.000482561 -0.00517796 0.00189468)
(0.00182442 -0.00461344 -0.00319999)
(0.0101994 -0.004661 0.00176523)
(0.0125136 -0.0171897 0.00406957)
(-0.00550811 -0.0249479 0.00532612)
(-0.0294727 -0.0326827 0.0437741)
(-0.0304755 -0.0179305 0.0486927)
(-0.0168117 -0.00616949 0.0217875)
(-0.0332981 0.0286939 -0.00151396)
(-0.0330727 0.079453 0.013033)
(0.0240407 0.0997153 0.0350803)
(0.0990465 0.169837 -0.00367267)
(0.119862 0.130619 0.0145596)
(0.195251 0.546621 0.0540757)
(-0.0596257 -0.195352 0.00976631)
(-0.132376 0.0305244 -0.041987)
(-0.0417247 0.20365 -0.0231454)
(-0.0262696 0.210722 -0.0096825)
(-0.0167179 0.230579 -0.0069549)
(-0.0192849 0.228268 0.00690455)
(-0.0168527 0.212802 0.0160547)
(-0.0179354 0.204402 0.0195577)
(-0.0100783 0.197407 0.0194713)
(-0.00357392 0.19769 0.0161563)
(0.00350448 0.199329 0.0222824)
(0.00888889 0.1978 0.0333988)
(0.0102515 0.192994 0.0368172)
(0.0129444 0.18309 0.0308669)
(0.0161422 0.169038 0.0206209)
(0.0188451 0.159238 0.0167349)
(0.0214577 0.153521 0.011657)
(0.0181083 0.148915 0.00579078)
(0.00881485 0.147291 0.00152539)
(-0.00444253 0.143839 -0.000949286)
(-0.0171933 0.136578 -0.00389614)