/*--------------------------------*- C++ -*----------------------------------*\
| =========                 |                                                 |
| \\      /  F ield         | OpenFOAM: The Open Source CFD Toolbox           |
|  \\    /   O peration     | Version:  2.3.0                                 |
|   \\  /    A nd           | Web:      www.OpenFOAM.org                      |
|    \\/     M anipulation  |                                                 |
\*---------------------------------------------------------------------------*/
FoamFile
{
    version     2.0;
    format      ascii;
    class       volScalarField;
    location    "20";
    object      w3;
}
// * * * * * * * * * * * * * * * * * * * * * * * * * * * * * * * * * * * * * //

dimensions      [0 0 0 0 0 0 0];

internalField   nonuniform List<scalar> 
6144
(
0.0283736
0.0283736
0.0283736
0.0283736
0.0283736
0.0283736
0.0283736
0.0283736
0.0283736
0.0283736
0.0283736
0.0283736
0.0283736
0.0283736
0.0283736
0.0283736
0.0283736
0.0283736
0.0283736
0.0283736
0.0283736
0.0283736
0.0283736
0.0283736
0.0283736
0.0283736
0.0283736
0.0283736
0.0283736
0.0283736
0.0283736
0.0283736
0.0283736
0.0283736
0.0283736
0.0283736
0.0283736
0.0283736
0.0283736
0.0283736
0.0283736
0.0283736
0.0283736
0.0283736
0.0283736
0.0283736
0.0283736
0.0283736
0.0283736
0.0283736
0.0283736
0.0283736
0.0283736
0.0283736
0.0283736
0.0283736
0.0283742
0.028405
0.0324494
0.0294457
0.0144288
0.000128663
5.6583e-07
0.000861892
0.00015988
0.00179474
0.000957992
0.00032226
0.000344658
0.000602566
0.000829001
0.000903722
0.000553657
0.0198045
0.00172481
0.00128655
0.254565
0.000673186
0.00251673
0.0013414
0.00131153
0.0155042
0.00118505
0.000763003
0.000673577
0.00128324
0.000814092
0.00114257
0.00170384
0.00173196
0.00211082
0.0261267
0.000244932
5.45798e-05
3.20536e-05
9.11689e-06
0.0283736
0.0283736
0.0283736
0.0283736
0.0283736
0.0283736
0.0283736
0.0283736
0.0283736
0.0283736
0.0283736
0.0283736
0.0283736
0.0283736
0.0283736
0.0283736
0.0283736
0.0283736
0.0283736
0.0283736
0.0283736
0.0283736
0.0283736
0.0283736
0.0283736
0.0283736
0.0283736
0.0283736
0.0283736
0.0283736
0.0283736
0.0283736
0.0283736
0.0283736
0.0283736
0.0283736
0.0283736
0.0283736
0.0283736
0.0283736
0.0283736
0.0283736
0.0283736
0.0283736
0.0283736
0.0283736
0.0283736
0.0283736
0.0283736
0.0283736
0.0283736
0.0283736
0.0283736
0.0283736
0.0283736
0.0283735
0.0283753
0.0285086
0.0333245
0.0301519
0.0128754
8.87464e-06
4.08213e-07
4.1202e-05
4.93966e-05
0.000205984
0.000650337
0.00152679
0.000595645
0.00786031
0.000498337
0.00063065
0.00477248
0.000876282
0.000346125
0.00103729
0.000376986
0.000398588
0.00223743
0.000628469
0.000445473
0.000469334
0.0011949
0.0219545
0.000476373
0.000972561
0.00130006
0.00216633
9.15932e-05
0.00118934
0.000854962
0.000262996
0.000178908
6.30818e-05
3.96727e-05
9.48657e-06
0.0283736
0.0283736
0.0283736
0.0283736
0.0283736
0.0283736
0.0283736
0.0283736
0.0283736
0.0283736
0.0283736
0.0283736
0.0283736
0.0283736
0.0283736
0.0283736
0.0283736
0.0283736
0.0283736
0.0283736
0.0283736
0.0283736
0.0283736
0.0283736
0.0283736
0.0283736
0.0283736
0.0283736
0.0283736
0.0283736
0.0283736
0.0283736
0.0283736
0.0283736
0.0283736
0.0283736
0.0283736
0.0283736
0.0283736
0.0283736
0.0283736
0.0283736
0.0283736
0.0283736
0.0283736
0.0283736
0.0283736
0.0283736
0.0283736
0.0283736
0.0283736
0.0283736
0.0283736
0.0283736
0.0283736
0.0283736
0.0283739
0.0283766
0.0306763
0.0161501
0.0533255
5.35149e-08
4.69544e-07
4.01143e-05
7.46938e-05
0.000147064
0.000116796
0.000193589
0.000585311
0.00108128
0.00251026
0.000463852
0.013017
0.000319665
0.000231626
0.000275153
0.000336922
0.000557175
0.00221827
0.0164288
0.00174168
0.00150585
0.00120078
0.00188514
0.00655503
0.00137241
0.000880671
0.000850644
0.00167722
0.00187832
0.00677479
0.000366681
9.51164e-05
4.4783e-05
3.88581e-05
9.01895e-06
0.0283736
0.0283736
0.0283736
0.0283736
0.0283736
0.0283736
0.0283736
0.0283736
0.0283736
0.0283736
0.0283736
0.0283736
0.0283736
0.0283736
0.0283736
0.0283736
0.0283736
0.0283736
0.0283736
0.0283736
0.0283736
0.0283736
0.0283736
0.0283736
0.0283736
0.0283736
0.0283736
0.0283736
0.0283736
0.0283736
0.0283736
0.0283736
0.0283736
0.0283736
0.0283736
0.0283736
0.0283736
0.0283736
0.0283736
0.0283736
0.0283736
0.0283736
0.0283736
0.0283736
0.0283736
0.0283736
0.0283736
0.0283736
0.0283736
0.0283736
0.0283736
0.0283736
0.0283736
0.0283736
0.0283736
0.0283736
0.0283739
0.0283766
0.0292875
0.0320453
0.0813693
3.49656e-06
5.88229e-05
7.1715e-07
2.02085e-05
1.57731e-05
7.43765e-05
2.28568e-05
2.50255e-05
5.99006e-05
1.38755e-05
2.01629e-05
9.84505e-06
1.97011e-05
0.000130806
2.02557e-05
0.000388859
0.000107944
8.35873e-05
0.000137987
9.11293e-05
8.25253e-05
0.000100644
0.00328548
0.000853022
0.000670151
0.000332957
0.000420654
0.00152209
0.00319803
0.00180343
0.000248166
8.32502e-05
5.2297e-05
6.13226e-05
9.33542e-06
0.0283736
0.0283736
0.0283736
0.0283736
0.0283736
0.0283736
0.0283736
0.0283736
0.0283736
0.0283736
0.0283736
0.0283736
0.0283736
0.0283736
0.0283736
0.0283736
0.0283736
0.0283736
0.0283736
0.0283736
0.0283736
0.0283736
0.0283736
0.0283736
0.0283736
0.0283736
0.0283736
0.0283736
0.0283736
0.0283736
0.0283736
0.0283736
0.0283736
0.0283736
0.0283736
0.0283736
0.0283736
0.0283736
0.0283736
0.0283736
0.0283736
0.0283736
0.0283736
0.0283736
0.0283736
0.0283736
0.0283736
0.0283736
0.0283736
0.0283736
0.0283736
0.0283736
0.0283736
0.0283736
0.0283736
0.0283735
0.0283738
0.0283727
0.0284067
0.0279033
0.00283242
0.000354346
0.000122411
0.000100799
6.22401e-05
0.0001849
0.000195878
0.000652871
0.000185978
1.69653e-05
0.000368214
0.000308541
0.000513291
0.000700279
0.000387045
0.000362161
0.000947773
0.00117296
0.000259831
0.000598069
3.38908e-05
5.4465e-06
1.17059e-06
7.76333e-07
2.54438e-05
1.97096e-05
2.16026e-05
1.8338e-05
0.000728201
0.00040847
0.000255639
0.000103526
6.56976e-05
6.00101e-05
8.07074e-05
9.14711e-06
0.0283736
0.0283736
0.0283736
0.0283736
0.0283736
0.0283736
0.0283736
0.0283736
0.0283736
0.0283736
0.0283736
0.0283736
0.0283736
0.0283736
0.0283736
0.0283736
0.0283736
0.0283736
0.0283736
0.0283736
0.0283736
0.0283736
0.0283736
0.0283736
0.0283736
0.0283736
0.0283736
0.0283736
0.0283736
0.0283736
0.0283736
0.0283736
0.0283736
0.0283736
0.0283736
0.0283736
0.0283736
0.0283736
0.0283736
0.0283736
0.0283736
0.0283736
0.0283736
0.0283736
0.0283736
0.0283736
0.0283736
0.0283736
0.0283736
0.0283736
0.0283736
0.0283736
0.0283736
0.0283736
0.0283736
0.0283736
0.0283737
0.0283737
0.0283756
0.0259557
0.0155351
0.0377287
8.47488e-05
0.00540472
0.00394135
0.00186765
2.91222e-10
0.138206
0.000154266
0.133219
0.00190836
0.000955635
0.0027283
0.00475244
0.120297
0.0208542
0.0136865
0.122834
0.0656672
0.108248
0.0174114
0.00545523
0.0222436
0.00160788
0.010408
0.00199491
2.9525e-05
9.27931e-07
3.7136e-07
2.76266e-05
1.80659e-05
6.95494e-05
2.78411e-05
6.8679e-05
1.8556e-05
9.50025e-06
0.0283736
0.0283736
0.0283736
0.0283736
0.0283736
0.0283736
0.0283736
0.0283736
0.0283736
0.0283736
0.0283736
0.0283736
0.0283736
0.0283736
0.0283736
0.0283736
0.0283736
0.0283736
0.0283736
0.0283736
0.0283736
0.0283736
0.0283736
0.0283736
0.0283736
0.0283736
0.0283736
0.0283736
0.0283736
0.0283736
0.0283736
0.0283736
0.0283736
0.0283736
0.0283736
0.0283736
0.0283736
0.0283736
0.0283736
0.0283736
0.0283736
0.0283736
0.0283736
0.0283736
0.0283736
0.0283736
0.0283736
0.0283736
0.0283736
0.0283736
0.0283736
0.0283736
0.0283736
0.0283736
0.0283736
0.0283736
0.0283739
0.0283611
0.0279107
0.044322
0.00804698
0.772322
0.000331215
0.014414
0.031225
0.000383085
0.370887
5.81192e-05
0.00101039
0.00425959
0.0072525
0.0014827
0.095742
0.115441
0.199412
0.124363
0.00043384
0.746307
0.00906819
0.0315208
0.0242427
0.000288861
2.29601e-05
0.0166255
0.0410069
0.0429695
0.00010936
0.0487515
0.00987784
0.000126211
2.21658e-08
8.85508e-07
0.000480053
2.69188e-08
1.61868e-05
3.56419e-06
0.0283736
0.0283736
0.0283736
0.0283736
0.0283736
0.0283736
0.0283736
0.0283736
0.0283736
0.0283736
0.0283736
0.0283736
0.0283736
0.0283736
0.0283736
0.0283736
0.0283736
0.0283736
0.0283736
0.0283736
0.0283736
0.0283736
0.0283736
0.0283736
0.0283736
0.0283736
0.0283736
0.0283736
0.0283736
0.0283736
0.0283736
0.0283736
0.0283736
0.0283736
0.0283736
0.0283736
0.0283736
0.0283736
0.0283736
0.0283736
0.0283736
0.0283736
0.0283736
0.0283736
0.0283736
0.0283736
0.0283736
0.0283736
0.0283736
0.0283736
0.0283736
0.0283736
0.0283736
0.0283736
0.0283736
0.0283736
0.0283736
0.0283233
0.0291825
0.0340178
0.0167036
0.000299542
0.012416
0.00685975
0.122082
0.0952305
0.110304
0.0894931
0.000169544
0.00159985
0.0734214
0.0103801
0.0036072
0.0945202
0.00317257
0.041065
0.0236153
0.0349027
0.0416623
0.032814
0.00798036
0.098602
0.0140049
0.0347524
0.0241895
0.0178907
0.000590116
0.00132435
0.101991
0.168563
0.0214136
0.0041955
0.0548025
0.18067
1.13992e-05
0.00706547
0.0283736
0.0283736
0.0283736
0.0283736
0.0283736
0.0283736
0.0283736
0.0283736
0.0283736
0.0283736
0.0283736
0.0283736
0.0283736
0.0283736
0.0283736
0.0283736
0.0283736
0.0283736
0.0283736
0.0283736
0.0283736
0.0283736
0.0283736
0.0283736
0.0283736
0.0283736
0.0283736
0.0283736
0.0283736
0.0283736
0.0283736
0.0283736
0.0283736
0.0283736
0.0283736
0.0283736
0.0283736
0.0283736
0.0283736
0.0283736
0.0283736
0.0283736
0.0283736
0.0283736
0.0283736
0.0283736
0.0283736
0.0283736
0.0283736
0.0283736
0.0283736
0.0283736
0.0283736
0.0283736
0.0283736
0.0283736
0.0283745
0.0283629
0.0288096
0.0373222
0.0219119
0.00112304
0.0046066
0.0975911
1.32968e-13
0.102418
0.850483
0.855837
0.00155333
0.060676
0.0275068
0.00855753
0.0318647
0.0569365
0.11874
0.853642
0.0568686
0.0113467
0.0458896
0.0563819
1.42271e-08
0.0411047
0.00759641
0.0583616
0.0614547
0.00103242
0.0159606
0.0040303
0.01555
0.00771313
0.0146002
0.017051
0.81694
0.0110505
0.1126
2.40477e-05
0.0283736
0.0283736
0.0283736
0.0283736
0.0283736
0.0283736
0.0283736
0.0283736
0.0283736
0.0283736
0.0283736
0.0283736
0.0283736
0.0283736
0.0283736
0.0283736
0.0283736
0.0283736
0.0283736
0.0283736
0.0283736
0.0283736
0.0283736
0.0283736
0.0283736
0.0283736
0.0283736
0.0283736
0.0283736
0.0283736
0.0283736
0.0283736
0.0283736
0.0283736
0.0283736
0.0283736
0.0283736
0.0283736
0.0283736
0.0283736
0.0283736
0.0283736
0.0283736
0.0283736
0.0283736
0.0283736
0.0283736
0.0283736
0.0283736
0.0283736
0.0283736
0.0283736
0.0283736
0.0283736
0.0283736
0.0283736
0.0283739
0.0283574
0.0285269
0.0371727
1.78157e-05
0.177275
0.0289935
0.0279768
0.0183145
0.0617059
4.96028e-08
0.000427403
0.00605882
0.000277716
0.00225044
0.00104191
0.00033237
0.00142296
0.000105306
1.96574e-05
7.0614e-07
3.10675e-07
7.51959e-06
2.7984e-05
1.03372e-11
4.6634e-05
1.71045e-05
6.01641e-06
2.09738e-05
2.12958e-09
3.33567e-06
9.2403e-05
3.15542e-06
6.78177e-06
9.54709e-07
0.000177975
2.78239e-07
1.84018e-05
1.45662e-05
3.94309e-06
0.0283736
0.0283736
0.0283736
0.0283736
0.0283736
0.0283736
0.0283736
0.0283736
0.0283736
0.0283736
0.0283736
0.0283736
0.0283736
0.0283736
0.0283736
0.0283736
0.0283736
0.0283736
0.0283736
0.0283736
0.0283736
0.0283736
0.0283736
0.0283736
0.0283736
0.0283736
0.0283736
0.0283736
0.0283736
0.0283736
0.0283736
0.0283736
0.0283736
0.0283736
0.0283736
0.0283736
0.0283736
0.0283736
0.0283736
0.0283736
0.0283736
0.0283736
0.0283736
0.0283736
0.0283736
0.0283736
0.0283736
0.0283736
0.0283736
0.0283736
0.0283736
0.0283736
0.0283736
0.0283736
0.0283736
0.0283736
0.0283737
0.0277963
0.0469623
0.0368247
0.00366877
3.21009e-05
0.000900522
0.000346859
0.000355352
7.94572e-05
6.75932e-05
0.000231693
5.96112e-06
9.17701e-07
8.95382e-07
5.58423e-05
5.23358e-05
3.16337e-05
4.54956e-05
3.45128e-05
3.47141e-05
0.000132962
0.000109916
0.000112839
0.000205372
0.000613104
0.000159698
0.00014166
8.64467e-05
8.51739e-05
0.000120876
0.000244402
0.00011238
0.000174837
0.000103839
5.27973e-05
0.0004821
9.65447e-05
0.000198506
9.98796e-06
0.0283736
0.0283736
0.0283736
0.0283736
0.0283736
0.0283736
0.0283736
0.0283736
0.0283736
0.0283736
0.0283736
0.0283736
0.0283736
0.0283736
0.0283736
0.0283736
0.0283736
0.0283736
0.0283736
0.0283736
0.0283736
0.0283736
0.0283736
0.0283736
0.0283736
0.0283736
0.0283736
0.0283736
0.0283736
0.0283736
0.0283736
0.0283736
0.0283736
0.0283736
0.0283736
0.0283736
0.0283736
0.0283736
0.0283736
0.0283736
0.0283736
0.0283736
0.0283736
0.0283736
0.0283736
0.0283736
0.0283736
0.0283736
0.0283736
0.0283736
0.0283736
0.0283736
0.0283736
0.0283736
0.0283736
0.0283735
0.0283736
0.0283874
0.0276683
0.0190573
0.0343066
2.3334e-10
1.79189e-05
1.50792e-05
0.000121442
1.76805e-05
1.7847e-05
2.44047e-05
2.35523e-05
2.99883e-05
0.000316868
0.000274475
0.0002882
0.000238159
0.000270974
0.000255479
0.000315332
0.000340736
0.000275581
0.000344084
0.000294723
0.000279344
0.000170781
0.000189286
0.000137362
0.00011436
9.11747e-05
0.000202575
0.000522475
0.000459693
0.000562682
0.00120121
0.000684618
0.000424832
0.00014244
8.47708e-06
0.0283736
0.0283736
0.0283736
0.0283736
0.0283736
0.0283736
0.0283736
0.0283736
0.0283736
0.0283736
0.0283736
0.0283736
0.0283736
0.0283736
0.0283736
0.0283736
0.0283736
0.0283736
0.0283736
0.0283736
0.0283736
0.0283736
0.0283736
0.0283736
0.0283736
0.0283736
0.0283736
0.0283736
0.0283736
0.0283736
0.0283736
0.0283736
0.0283736
0.0283736
0.0283736
0.0283736
0.0283736
0.0283736
0.0283736
0.0283736
0.0283736
0.0283736
0.0283736
0.0283736
0.0283736
0.0283736
0.0283736
0.0283736
0.0283736
0.0283736
0.0283736
0.0283736
0.0283736
0.0283735
0.0283736
0.0283736
0.0283737
0.0283736
0.0284027
0.0376645
0.00178547
2.58047e-07
9.23088e-05
0.000883984
5.83707e-05
6.29289e-05
0.000178491
0.000207925
0.00040201
0.000227608
0.000396175
0.000425639
0.00062568
0.000458305
0.000315725
0.00032005
0.000293068
0.000236369
0.000182719
0.00023945
0.000238695
0.000310258
0.000239783
0.0119229
0.000229185
0.000131401
0.000151573
0.000206981
0.000650002
8.28625e-05
0.000102967
0.000338796
0.00010314
0.000132976
0.000151442
9.38493e-06
0.0283736
0.0283736
0.0283736
0.0283736
0.0283736
0.0283736
0.0283736
0.0283736
0.0283736
0.0283736
0.0283736
0.0283736
0.0283736
0.0283736
0.0283736
0.0283736
0.0283736
0.0283736
0.0283736
0.0283736
0.0283736
0.0283736
0.0283736
0.0283736
0.0283736
0.0283736
0.0283736
0.0283736
0.0283736
0.0283736
0.0283736
0.0283736
0.0283736
0.0283736
0.0283736
0.0283736
0.0283736
0.0283736
0.0283736
0.0283736
0.0283736
0.0283736
0.0283736
0.0283736
0.0283736
0.0283736
0.0283736
0.0283736
0.0283736
0.0283736
0.0283736
0.0283736
0.0283736
0.0283736
0.0283736
0.0283736
0.0283738
0.0283739
0.0283851
0.0348216
0.0173188
8.56336e-07
3.43468e-05
1.53275e-05
3.97648e-05
5.18218e-05
0.000112128
0.000215393
0.000316262
0.00294043
0.000619939
0.000284939
0.000284955
0.000260325
0.000282639
0.000391699
0.000358368
0.000309559
0.000282147
0.000325634
0.000319801
0.000428353
0.00133073
0.000784273
0.000727095
0.000161625
0.000102453
0.000104758
0.000300174
0.000478806
0.000148171
5.34418e-05
0.00060534
0.000234609
5.27056e-05
7.91637e-06
0.0283736
0.0283736
0.0283736
0.0283736
0.0283736
0.0283736
0.0283736
0.0283736
0.0283736
0.0283736
0.0283736
0.0283736
0.0283736
0.0283736
0.0283736
0.0283736
0.0283736
0.0283736
0.0283736
0.0283736
0.0283736
0.0283736
0.0283736
0.0283736
0.0283736
0.0283736
0.0283736
0.0283736
0.0283736
0.0283736
0.0283736
0.0283736
0.0283736
0.0283736
0.0283736
0.0283736
0.0283736
0.0283736
0.0283736
0.0283736
0.0283736
0.0283736
0.0283736
0.0283736
0.0283736
0.0283736
0.0283736
0.0283736
0.0283736
0.0283736
0.0283736
0.0283736
0.0283736
0.0283736
0.0283736
0.0283735
0.028374
0.028374
0.0287009
0.0376917
0.0441543
1.82423e-05
2.10349e-07
1.77004e-05
1.5013e-05
0.000248376
0.000141722
0.00189088
0.00151512
0.000355684
0.000281229
0.000242109
0.000255128
0.000278284
0.000352726
0.000555029
0.00104771
0.00127761
0.00132126
0.000906682
0.00104363
0.00027467
0.000100285
8.50342e-05
0.000109861
0.000152047
0.000388448
0.00184233
0.000289856
0.000149416
0.000229619
0.000107362
0.000115382
0.00133683
0.000560796
9.86871e-06
0.0283736
0.0283736
0.0283736
0.0283736
0.0283736
0.0283736
0.0283736
0.0283736
0.0283736
0.0283736
0.0283736
0.0283736
0.0283736
0.0283736
0.0283736
0.0283736
0.0283736
0.0283736
0.0283736
0.0283736
0.0283736
0.0283736
0.0283736
0.0283736
0.0283736
0.0283736
0.0283736
0.0283736
0.0283736
0.0283736
0.0283736
0.0283736
0.0283736
0.0283736
0.0283736
0.0283736
0.0283736
0.0283736
0.0283736
0.0283736
0.0283736
0.0283736
0.0283736
0.0283736
0.0283736
0.0283736
0.0283736
0.0283736
0.0283736
0.0283736
0.0283736
0.0283736
0.0283736
0.0283736
0.0283736
0.0283735
0.0283739
0.0283834
0.0318162
0.0323818
0.0134738
0.000776825
5.19885e-07
7.86846e-06
0.000134639
0.000648339
0.000136539
0.000111962
0.000126885
0.000135768
0.000154314
0.000156123
0.000167118
0.000154144
0.000174295
0.00020229
0.000257617
0.000347513
0.000521471
0.0013896
0.000863313
0.000969111
0.000256957
0.000141659
0.00260546
0.000210809
0.000323397
0.000163935
0.000513122
0.000115565
8.28945e-05
0.000224459
0.00036329
0.000157247
0.000142867
9.60498e-06
0.0283736
0.0283736
0.0283736
0.0283736
0.0283736
0.0283736
0.0283736
0.0283736
0.0283736
0.0283736
0.0283736
0.0283736
0.0283736
0.0283736
0.0283736
0.0283736
0.0283736
0.0283736
0.0283736
0.0283736
0.0283736
0.0283736
0.0283736
0.0283736
0.0283736
0.0283736
0.0283736
0.0283736
0.0283736
0.0283736
0.0283736
0.0283736
0.0283736
0.0283736
0.0283736
0.0283736
0.0283736
0.0283736
0.0283736
0.0283736
0.0283736
0.0283736
0.0283736
0.0283736
0.0283736
0.0283736
0.0283736
0.0283736
0.0283736
0.0283736
0.0283736
0.0283736
0.0283736
0.0283736
0.0283736
0.0283736
0.0283738
0.0286722
0.0366603
0.0284219
0.017015
0.000910002
8.63044e-07
5.02984e-07
0.00013803
0.000406974
0.000293953
0.000614713
0.000937425
0.000932584
0.00339906
0.0430237
0.00535122
0.0377091
0.00505533
0.0015989
0.00352788
0.00206967
0.012767
0.00104806
0.00238478
0.00900987
0.00717849
0.00200121
0.00159647
0.00576141
0.0140397
0.00361436
0.0252616
0.00183
0.00218342
0.0022797
0.000674254
0.000449166
4.69533e-05
8.72572e-06
0.0283736
0.0283736
0.0283736
0.0283736
0.0283736
0.0283736
0.0283736
0.0283736
0.0283736
0.0283736
0.0283736
0.0283736
0.0283736
0.0283736
0.0283736
0.0283736
0.0283736
0.0283736
0.0283736
0.0283736
0.0283736
0.0283736
0.0283736
0.0283736
0.0283736
0.0283736
0.0283736
0.0283736
0.0283736
0.0283736
0.0283736
0.0283736
0.0283736
0.0283736
0.0283736
0.0283736
0.0283736
0.0283736
0.0283736
0.0283736
0.0283736
0.0283736
0.0283736
0.0283736
0.0283736
0.0283736
0.0283736
0.0283736
0.0283736
0.0283736
0.0283736
0.0283736
0.0283736
0.0283736
0.0283736
0.0283736
0.028374
0.0283797
0.0283607
0.0321503
0.0126045
7.7924e-05
5.12911e-07
4.4e-05
5.8245e-05
0.000124577
0.000310717
0.000282109
0.00021364
0.000545748
0.000558408
0.000743157
0.0228935
0.00090363
0.000313358
0.00129751
0.00210459
0.00381406
0.000462389
0.000457957
0.00050637
0.000686741
0.00127041
0.00260415
0.00166791
0.00144023
0.00113962
0.004347
0.853557
0.000427016
0.000830389
0.000497998
0.000640286
0.00119214
6.20683e-05
9.23512e-06
0.0283736
0.0283736
0.0283736
0.0283736
0.0283736
0.0283736
0.0283736
0.0283736
0.0283736
0.0283736
0.0283736
0.0283736
0.0283736
0.0283736
0.0283736
0.0283736
0.0283736
0.0283736
0.0283736
0.0283736
0.0283736
0.0283736
0.0283736
0.0283736
0.0283736
0.0283736
0.0283736
0.0283736
0.0283736
0.0283736
0.0283736
0.0283736
0.0283736
0.0283736
0.0283736
0.0283736
0.0283736
0.0283736
0.0283736
0.0283736
0.0283736
0.0283736
0.0283736
0.0283736
0.0283736
0.0283736
0.0283736
0.0283736
0.0283736
0.0283736
0.0283736
0.0283736
0.0283736
0.0283736
0.0283736
0.0283737
0.0283738
0.0283742
0.0252475
0.03619
0.031453
7.33009e-07
5.92588e-05
0.000181421
1.27262e-05
1.45249e-05
0.000223342
0.000285212
7.18134e-05
6.93581e-05
3.02816e-05
0.00636269
8.55418e-05
4.19628e-05
2.74964e-05
0.00231884
0.000125082
2.01155e-05
2.95584e-05
0.00193668
0.00109498
0.000368514
0.000253371
0.000332147
0.000420959
0.000812656
0.00788696
0.00225561
0.00822706
0.00329945
0.00653283
0.000698107
0.000341047
0.000235579
4.5668e-05
8.73527e-06
0.0283736
0.0283736
0.0283736
0.0283736
0.0283736
0.0283736
0.0283736
0.0283736
0.0283736
0.0283736
0.0283736
0.0283736
0.0283736
0.0283736
0.0283736
0.0283736
0.0283736
0.0283736
0.0283736
0.0283736
0.0283736
0.0283736
0.0283736
0.0283736
0.0283736
0.0283736
0.0283736
0.0283736
0.0283736
0.0283736
0.0283736
0.0283736
0.0283736
0.0283736
0.0283736
0.0283736
0.0283736
0.0283736
0.0283736
0.0283736
0.0283736
0.0283736
0.0283736
0.0283736
0.0283736
0.0283736
0.0283736
0.0283736
0.0283736
0.0283736
0.0283736
0.0283736
0.0283736
0.0283736
0.0283736
0.0283736
0.0283738
0.0283734
0.028454
0.0271063
0.0622163
3.54092e-05
7.98292e-05
5.74624e-06
1.15251e-06
6.42241e-07
5.66639e-07
1.2877e-06
7.00717e-07
5.68414e-06
9.12591e-07
1.09518e-06
7.59645e-07
4.84233e-06
9.77037e-07
9.23507e-07
6.40455e-07
1.94205e-06
1.14366e-06
1.04073e-06
6.37254e-05
9.71526e-05
0.00140461
8.31519e-05
4.927e-05
6.33681e-05
0.000109583
0.000511176
0.00155257
0.00897356
0.00215474
0.000636608
0.000570624
0.000421136
5.08512e-05
8.71125e-06
0.0283736
0.0283736
0.0283736
0.0283736
0.0283736
0.0283736
0.0283736
0.0283736
0.0283736
0.0283736
0.0283736
0.0283736
0.0283736
0.0283736
0.0283736
0.0283736
0.0283736
0.0283736
0.0283736
0.0283736
0.0283736
0.0283736
0.0283736
0.0283736
0.0283736
0.0283736
0.0283736
0.0283736
0.0283736
0.0283736
0.0283736
0.0283736
0.0283736
0.0283736
0.0283736
0.0283736
0.0283736
0.0283736
0.0283736
0.0283736
0.0283736
0.0283736
0.0283736
0.0283736
0.0283736
0.0283736
0.0283736
0.0283736
0.0283736
0.0283736
0.0283736
0.0283736
0.0283736
0.0283736
0.0283736
0.0283736
0.0283738
0.028374
0.028383
0.0328243
0.00963807
0.0067695
0.0284011
0.00168078
0.0132766
0.853232
0.00384841
0.0107312
0.0130057
0.925217
0.00422607
0.000909029
0.0188371
0.0218485
0.00285557
0.0204883
0.0964502
0.0322873
0.0120454
4.56582e-06
0.00407304
0.000528034
0.000156291
0.000326667
1.98689e-07
3.69545e-06
5.6563e-07
5.01378e-07
1.32493e-05
2.64642e-05
0.000681974
0.000491179
0.000359923
0.000182314
4.61569e-05
8.42326e-06
0.0283736
0.0283736
0.0283736
0.0283736
0.0283735
0.0283736
0.0283736
0.0283736
0.0283736
0.0283736
0.0283736
0.0283736
0.0283736
0.0283736
0.0283736
0.0283736
0.0283736
0.0283736
0.0283736
0.0283736
0.0283736
0.0283736
0.0283736
0.0283736
0.0283736
0.0283736
0.0283736
0.0283736
0.0283736
0.0283736
0.0283736
0.0283736
0.0283736
0.0283736
0.0283736
0.0283736
0.0283736
0.0283736
0.0283736
0.0283736
0.0283736
0.0283736
0.0283736
0.0283736
0.0283736
0.0283736
0.0283736
0.0283736
0.0283736
0.0283736
0.0283736
0.0283736
0.0283736
0.0283736
0.0283736
0.0283736
0.0283736
0.0283724
0.0283472
0.044948
0.00584741
0.875164
0.109794
0.0839835
0.0531501
0.0602298
1.38458e-05
0.0211279
0.000830003
0.090618
0.00011034
0.0505039
0.0411278
2.45128e-06
0.0359497
0.00010448
1.34389e-05
0.118525
0.121567
0.00959795
0.13641
0.0317742
0.0107501
0.0366993
0.0122476
1.40797e-10
0.00245756
0.000899818
6.57455e-06
4.8581e-06
4.92269e-07
0.000264918
1.83285e-05
3.57605e-05
8.59252e-06
3.41718e-06
0.0283736
0.0283736
0.0283736
0.0283736
0.0283736
0.0283736
0.0283736
0.0283736
0.0283736
0.0283736
0.0283736
0.0283736
0.0283736
0.0283736
0.0283736
0.0283736
0.0283736
0.0283736
0.0283736
0.0283736
0.0283736
0.0283736
0.0283736
0.0283736
0.0283736
0.0283736
0.0283736
0.0283736
0.0283736
0.0283736
0.0283736
0.0283736
0.0283736
0.0283736
0.0283736
0.0283736
0.0283736
0.0283736
0.0283736
0.0283736
0.0283736
0.0283736
0.0283736
0.0283736
0.0283736
0.0283736
0.0283736
0.0283736
0.0283736
0.0283736
0.0283736
0.0283736
0.0283736
0.0283736
0.0283736
0.0283736
0.0283739
0.0283804
0.0265525
0.0495657
7.16756e-05
1.39486e-06
0.0663039
0.0259705
0.131599
0.00836523
0.0189864
0.0598348
0.103229
0.0260385
0.00223997
0.0520084
0.0284028
0.0414594
0.115177
0.0438405
0.0245001
0.0355792
0.0157754
0.0214756
0.00330416
0.0358016
0.0765205
0.0138122
0.0212897
3.72928e-07
1.14536e-05
4.95636e-06
0.853993
0.599119
0.000838441
0.0132504
0.125153
2.69177e-07
0.0182607
0.000446408
0.0283736
0.0283736
0.0283736
0.0283736
0.0283736
0.0283736
0.0283736
0.0283736
0.0283736
0.0283736
0.0283736
0.0283736
0.0283736
0.0283736
0.0283736
0.0283736
0.0283736
0.0283736
0.0283736
0.0283736
0.0283736
0.0283736
0.0283736
0.0283736
0.0283736
0.0283736
0.0283736
0.0283736
0.0283736
0.0283736
0.0283736
0.0283736
0.0283736
0.0283736
0.0283736
0.0283736
0.0283736
0.0283736
0.0283736
0.0283736
0.0283736
0.0283736
0.0283736
0.0283736
0.0283736
0.0283736
0.0283736
0.0283736
0.0283736
0.0283736
0.0283736
0.0283736
0.0283736
0.0283736
0.0283736
0.0283736
0.0283755
0.0283841
0.0285648
0.0512064
0.000198689
2.48934e-06
0.0384423
0.0425606
0.033851
0.0250208
0.000133416
0.0794624
2.7432e-10
0.0877598
0.0438746
0.0564991
0.00932178
0.0310078
0.0318151
0.0228311
0.0422446
0.0208185
0.0195347
0.0268405
0.0297214
0.0346369
0.0363326
0.0486418
0.0378116
0.00408609
0.0543421
0.0271313
0.000114931
0.00267652
0.0272064
0.0320795
0.00692292
0.0698035
0.0594533
0.000154063
0.0283736
0.0283736
0.0283736
0.0283736
0.0283736
0.0283736
0.0283736
0.0283736
0.0283736
0.0283736
0.0283736
0.0283736
0.0283736
0.0283736
0.0283736
0.0283736
0.0283736
0.0283736
0.0283736
0.0283736
0.0283736
0.0283736
0.0283736
0.0283736
0.0283736
0.0283736
0.0283736
0.0283736
0.0283736
0.0283736
0.0283736
0.0283736
0.0283736
0.0283736
0.0283736
0.0283736
0.0283736
0.0283736
0.0283736
0.0283736
0.0283736
0.0283736
0.0283736
0.0283736
0.0283736
0.0283736
0.0283736
0.0283736
0.0283736
0.0283736
0.0283736
0.0283736
0.0283736
0.0283736
0.0283736
0.0283736
0.0283737
0.0283742
0.0281791
0.0365316
0.0194123
0.0336939
0.000276084
0.0267183
0.111783
1.74339e-06
0.0395339
0.0825091
0.0300928
0.0508192
0.00836527
0.00154194
0.0164242
0.17489
0.0408564
1.3199e-07
0.0115829
0.0861188
0.0276943
0.0417884
0.0335451
0.0129891
0.853829
0.853574
0.853949
0.0883368
0.00767331
0.0289226
0.0565131
0.0236954
0.00502942
0.0805206
0.00248793
0.0176342
0.00439512
3.08722e-05
0.0283736
0.0283736
0.0283736
0.0283736
0.0283736
0.0283736
0.0283736
0.0283736
0.0283736
0.0283736
0.0283736
0.0283736
0.0283736
0.0283736
0.0283736
0.0283736
0.0283736
0.0283736
0.0283736
0.0283736
0.0283736
0.0283736
0.0283736
0.0283736
0.0283736
0.0283736
0.0283736
0.0283736
0.0283736
0.0283736
0.0283736
0.0283736
0.0283736
0.0283736
0.0283736
0.0283736
0.0283736
0.0283736
0.0283736
0.0283736
0.0283736
0.0283736
0.0283736
0.0283736
0.0283736
0.0283736
0.0283736
0.0283736
0.0283736
0.0283736
0.0283736
0.0283736
0.0283736
0.0283736
0.0283736
0.0283736
0.0283735
0.0283739
0.0283744
0.0363747
2.34722e-06
0.0099899
0.0472837
0.00241567
0.0172995
0.00197879
0.110629
0.0229541
0.0145805
0.00123192
0.00335608
0.00577902
5.26622e-07
7.39393e-05
6.66102e-05
0.000195045
0.000346132
0.000143749
0.000121305
5.3204e-05
7.67083e-05
0.000145578
0.000104862
0.000112015
0.00011978
7.7547e-06
1.85351e-06
1.95103e-07
4.04612e-06
1.70818e-05
1.71073e-05
2.88019e-05
1.717e-05
1.39794e-05
7.01749e-06
3.3721e-06
0.0283736
0.0283736
0.0283736
0.0283736
0.0283736
0.0283736
0.0283736
0.0283736
0.0283736
0.0283736
0.0283736
0.0283736
0.0283736
0.0283736
0.0283736
0.0283736
0.0283736
0.0283736
0.0283736
0.0283736
0.0283736
0.0283736
0.0283736
0.0283736
0.0283736
0.0283736
0.0283736
0.0283736
0.0283736
0.0283736
0.0283736
0.0283736
0.0283736
0.0283736
0.0283736
0.0283736
0.0283736
0.0283736
0.0283736
0.0283736
0.0283736
0.0283736
0.0283736
0.0283736
0.0283736
0.0283736
0.0283736
0.0283736
0.0283736
0.0283736
0.0283736
0.0283736
0.0283736
0.0283736
0.0283736
0.0283736
0.0283737
0.0283852
0.0262157
0.0424951
0.0112763
4.03349e-06
8.38134e-06
0.000480982
1.2462e-05
4.55287e-06
8.00817e-07
4.90938e-07
0.000306158
0.000452297
6.79396e-05
3.21851e-05
3.5012e-05
4.35971e-05
3.26426e-05
4.07598e-05
3.81379e-05
3.11675e-05
2.30827e-05
1.66836e-05
1.45489e-05
1.38207e-05
6.1204e-05
3.16511e-05
1.59869e-05
1.81072e-05
5.47248e-05
4.73579e-05
0.000158615
5.62308e-05
0.000240618
0.000147377
0.000225527
0.000139192
6.61339e-05
8.99271e-06
0.0283736
0.0283736
0.0283736
0.0283736
0.0283736
0.0283736
0.0283736
0.0283736
0.0283736
0.0283736
0.0283736
0.0283736
0.0283736
0.0283736
0.0283736
0.0283736
0.0283736
0.0283736
0.0283736
0.0283736
0.0283736
0.0283736
0.0283736
0.0283736
0.0283736
0.0283736
0.0283736
0.0283736
0.0283736
0.0283736
0.0283736
0.0283736
0.0283736
0.0283736
0.0283736
0.0283736
0.0283736
0.0283736
0.0283736
0.0283736
0.0283736
0.0283736
0.0283736
0.0283736
0.0283736
0.0283736
0.0283736
0.0283736
0.0283736
0.0283736
0.0283736
0.0283736
0.0283736
0.0283736
0.0283736
0.0283736
0.0283737
0.0283728
0.0274287
0.0318038
0.0937361
2.34979e-07
1.72303e-05
3.71089e-05
6.41256e-05
4.13139e-05
0.000257063
0.000842212
0.000432837
0.000457558
0.000406942
0.000291725
0.000332592
0.000561657
0.00196929
0.0018771
0.00181218
0.00198734
0.000377669
0.000211096
0.000144514
0.000178623
0.000129422
0.000122871
0.0073102
0.000243367
0.00106654
8.29498e-05
0.000323663
0.000581271
5.03133e-05
0.000332494
0.000764694
0.00093526
0.000115208
8.53194e-06
0.0283736
0.0283736
0.0283736
0.0283736
0.0283736
0.0283736
0.0283736
0.0283736
0.0283736
0.0283736
0.0283736
0.0283736
0.0283736
0.0283736
0.0283736
0.0283736
0.0283736
0.0283736
0.0283736
0.0283736
0.0283736
0.0283736
0.0283736
0.0283736
0.0283736
0.0283736
0.0283736
0.0283736
0.0283736
0.0283736
0.0283736
0.0283736
0.0283736
0.0283736
0.0283736
0.0283736
0.0283736
0.0283736
0.0283736
0.0283736
0.0283736
0.0283736
0.0283736
0.0283736
0.0283736
0.0283736
0.0283736
0.0283736
0.0283736
0.0283736
0.0283736
0.0283736
0.0283736
0.0283736
0.0283736
0.0283736
0.0283737
0.0283737
0.0284353
0.0371187
0.0152828
2.54782e-10
6.26315e-05
0.000529948
0.000225399
0.000239193
0.000122365
0.000180162
0.000246386
0.000306891
0.000224708
0.000193366
0.000214904
0.00025875
0.000315025
0.000352773
0.000332852
0.000216051
0.000145325
0.000107426
8.70862e-05
0.000107915
0.000211523
0.00020264
0.00159841
0.000453524
0.000118986
0.0005256
0.000171474
0.000263394
0.000605471
6.37347e-05
0.000172574
0.000126692
0.000291652
8.86718e-06
0.0283736