/*--------------------------------*- C++ -*----------------------------------*\
| =========                 |                                                 |
| \\      /  F ield         | OpenFOAM: The Open Source CFD Toolbox           |
|  \\    /   O peration     | Version:  2.3.0                                 |
|   \\  /    A nd           | Web:      www.OpenFOAM.org                      |
|    \\/     M anipulation  |                                                 |
\*---------------------------------------------------------------------------*/
FoamFile
{
    version     2.0;
    format      ascii;
    class       volScalarField;
    location    "62";
    object      alpha.airMean;
}
// * * * * * * * * * * * * * * * * * * * * * * * * * * * * * * * * * * * * * //

dimensions      [0 0 0 0 0 0 0];

internalField   nonuniform List<scalar> 
6144
(
0.999994
0.999994
0.999993
0.999993
0.999993
0.999992
0.999991
0.999991
0.99999
0.99999
0.99999
0.99999
0.99999
0.99999
0.99999
0.99999
0.99999
0.99999
0.99999
0.99999
0.99999
0.99999
0.99999
0.99999
0.99999
0.99999
0.99999
0.99999
0.99999
0.99999
0.99999
0.99999
0.99999
0.99999
0.99999
0.99999
0.99999
0.99999
0.99999
0.99999
0.99999
0.99999
0.99999
0.99999
0.999988
0.999986
0.999981
0.999972
0.999957
0.999939
0.999925
0.999913
0.999907
0.999902
0.999899
0.999893
0.999892
0.999887
0.998657
0.934326
0.036815
0.000238051
9.932e-07
6.73483e-07
6.73342e-07
6.70164e-07
6.71696e-07
6.69924e-07
6.72351e-07
6.71213e-07
6.71593e-07
6.70203e-07
6.69201e-07
6.67634e-07
6.65742e-07
6.63781e-07
6.62934e-07
6.62134e-07
6.61998e-07
6.62314e-07
6.6104e-07
6.58049e-07
6.55459e-07
6.50999e-07
6.43181e-07
6.28432e-07
6.13158e-07
6.00216e-07
5.83715e-07
5.60354e-07
5.32924e-07
5.09561e-07
4.7845e-07
4.45385e-07
4.14272e-07
3.87998e-07
0.999995
0.999994
0.999993
0.999993
0.999992
0.999992
0.999991
0.999991
0.99999
0.99999
0.99999
0.99999
0.99999
0.99999
0.99999
0.99999
0.99999
0.99999
0.99999
0.99999
0.99999
0.99999
0.99999
0.99999
0.99999
0.99999
0.99999
0.99999
0.99999
0.99999
0.99999
0.99999
0.99999
0.99999
0.99999
0.99999
0.99999
0.99999
0.99999
0.99999
0.99999
0.99999
0.99999
0.999989
0.999988
0.999985
0.99998
0.999972
0.99996
0.999946
0.999927
0.999912
0.999904
0.999897
0.999894
0.999887
0.999888
0.999879
0.999344
0.948814
0.0311235
0.000128148
7.43414e-07
7.04556e-07
7.01076e-07
7.06977e-07
7.13851e-07
7.11697e-07
7.12856e-07
7.05497e-07
7.0145e-07
6.95286e-07
6.93435e-07
6.89634e-07
6.86096e-07
6.83349e-07
6.83367e-07
6.85314e-07
6.89457e-07
6.90022e-07
6.84914e-07
6.76865e-07
6.66295e-07
6.56866e-07
6.444e-07
6.30315e-07
6.17866e-07
6.07682e-07
5.9689e-07
5.81302e-07
5.61151e-07
5.34188e-07
4.99574e-07
4.69874e-07
4.40384e-07
3.99928e-07
0.999995
0.999994
0.999993
0.999993
0.999992
0.999992
0.999991
0.999991
0.99999
0.99999
0.99999
0.99999
0.99999
0.99999
0.99999
0.99999
0.99999
0.99999
0.99999
0.99999
0.99999
0.99999
0.99999
0.99999
0.99999
0.99999
0.99999
0.99999
0.99999
0.99999
0.99999
0.99999
0.99999
0.99999
0.99999
0.99999
0.99999
0.99999
0.99999
0.99999
0.99999
0.99999
0.99999
0.999989
0.999988
0.999985
0.999981
0.999973
0.999961
0.999945
0.999922
0.999906
0.999897
0.99989
0.999887
0.999881
0.999884
0.999873
0.999566
0.941146
0.0271565
8.62824e-05
2.03825e-06
1.91352e-06
1.9601e-06
1.97993e-06
1.886e-06
1.68893e-06
1.39667e-06
1.12871e-06
9.24975e-07
8.06858e-07
7.54542e-07
7.36788e-07
7.35555e-07
7.33588e-07
7.33155e-07
7.29005e-07
7.20969e-07
7.12307e-07
7.0302e-07
6.90039e-07
6.7542e-07
6.60269e-07
6.46125e-07
6.34068e-07
6.26195e-07
6.22563e-07
6.16237e-07
6.03425e-07
5.8788e-07
5.62212e-07
5.2524e-07
4.89198e-07
4.56975e-07
4.096e-07
0.999995
0.999995
0.999994
0.999993
0.999992
0.999992
0.999991
0.999991
0.99999
0.99999
0.99999
0.99999
0.99999
0.99999
0.99999
0.99999
0.99999
0.99999
0.99999
0.99999
0.99999
0.99999
0.99999
0.99999
0.99999
0.99999
0.99999
0.99999
0.99999
0.99999
0.99999
0.99999
0.99999
0.99999
0.99999
0.99999
0.99999
0.99999
0.99999
0.99999
0.99999
0.99999
0.99999
0.999989
0.999988
0.999985
0.999981
0.999973
0.999961
0.999941
0.999916
0.999899
0.99989
0.999884
0.999882
0.999877
0.99988
0.999865
0.999697
0.916255
0.0206155
9.29878e-05
5.19711e-05
4.72429e-05
4.74214e-05
4.72557e-05
4.59034e-05
4.19184e-05
3.52172e-05
2.68023e-05
1.89671e-05
1.26762e-05
8.4289e-06
5.92253e-06
4.57768e-06
3.75224e-06
3.12453e-06
2.48654e-06
1.85433e-06
1.34321e-06
1.00777e-06
8.32848e-07
7.50525e-07
7.15355e-07
7.02119e-07
6.92734e-07
6.81677e-07
6.7485e-07
6.60024e-07
6.36932e-07
6.1769e-07
5.93311e-07
5.53248e-07
5.13014e-07
4.75817e-07
4.20688e-07
0.999995
0.999995
0.999994
0.999994
0.999993
0.999992
0.999991
0.999991
0.99999
0.99999
0.99999
0.99999
0.99999
0.99999
0.99999
0.99999
0.99999
0.99999
0.99999
0.99999
0.99999
0.99999
0.99999
0.99999
0.99999
0.99999
0.99999
0.99999
0.99999
0.99999
0.99999
0.99999
0.99999
0.99999
0.99999
0.99999
0.99999
0.99999
0.99999
0.99999
0.99999
0.99999
0.99999
0.999989
0.999988
0.999985
0.999981
0.999972
0.999959
0.999936
0.99991
0.999893
0.999885
0.99988
0.999878
0.999874
0.999875
0.999859
0.999732
0.882304
0.0208877
0.000653364
0.000607183
0.00054757
0.000533199
0.000513641
0.000486092
0.000448421
0.000401443
0.000349532
0.000295335
0.000244859
0.000201877
0.000167746
0.00014154
0.000120288
0.000101933
8.48005e-05
6.87129e-05
5.41778e-05
4.19947e-05
3.27008e-05
2.59383e-05
2.08578e-05
1.73901e-05
1.47884e-05
1.24899e-05
1.02069e-05
8.06879e-06
5.77771e-06
3.49933e-06
1.95382e-06
1.08236e-06
6.72367e-07
5.25962e-07
4.53248e-07
0.999995
0.999995
0.999994
0.999994
0.999993
0.999993
0.999992
0.999991
0.999991
0.99999
0.99999
0.99999
0.99999
0.99999
0.99999
0.99999
0.99999
0.99999
0.99999
0.99999
0.99999
0.99999
0.99999
0.99999
0.99999
0.99999
0.99999
0.99999
0.99999
0.99999
0.99999
0.99999
0.99999
0.99999
0.99999
0.99999
0.99999
0.99999
0.99999
0.99999
0.99999
0.99999
0.99999
0.999989
0.999988
0.999985
0.99998
0.999971
0.999956
0.999932
0.999906
0.999888
0.999882
0.999878
0.999876
0.999874
0.999877
0.999856
0.999731
0.83836
0.0223093
0.00302033
0.0030699
0.00289017
0.00285109
0.00275164
0.00264681
0.00252685
0.00239953
0.00226795
0.00212922
0.00199369
0.00185801
0.00172546
0.00160039
0.00148419
0.00137368
0.0012631
0.00115215
0.00103878
0.000922857
0.000807304
0.000694498
0.000589187
0.000500937
0.000433377
0.000378748
0.000330285
0.000280509
0.000223716
0.000164008
0.000108694
6.3466e-05
3.07348e-05
1.17001e-05
4.63482e-06
0.999995
0.999995
0.999995
0.999994
0.999993
0.999993
0.999992
0.999991
0.999991
0.99999
0.99999
0.99999
0.99999
0.99999
0.99999
0.99999
0.99999
0.99999
0.99999
0.99999
0.99999
0.99999
0.99999
0.99999
0.99999
0.99999
0.99999
0.99999
0.99999
0.99999
0.99999
0.99999
0.99999
0.99999
0.99999
0.99999
0.99999
0.99999
0.99999
0.99999
0.99999
0.99999
0.99999
0.999989
0.999987
0.999985
0.999979
0.999969
0.999954
0.999929
0.999902
0.999886
0.99988
0.999877
0.999876
0.999875
0.999878
0.999863
0.999797
0.790335
0.0256395
0.00771661
0.00805113
0.00787554
0.00780792
0.00770484
0.00759681
0.00750878
0.00741812
0.00732932
0.00725009
0.00716676
0.00709578
0.00700975
0.0069019
0.00676784
0.00661582
0.00642357
0.00620213
0.00594208
0.00564909
0.00531791
0.00495396
0.00455701
0.00413999
0.00370798
0.00327106
0.00282173
0.00236367
0.00193531
0.00154706
0.00121903
0.000942122
0.000682284
0.000421195
0.000224597
0.999995
0.999995
0.999995
0.999995
0.999994
0.999993
0.999992
0.999992
0.999991
0.999991
0.99999
0.99999
0.99999
0.99999
0.99999
0.99999
0.99999
0.99999
0.99999
0.99999
0.99999
0.99999
0.99999
0.99999
0.99999
0.99999
0.99999
0.99999
0.99999
0.99999
0.99999
0.99999
0.99999
0.99999
0.99999
0.99999
0.99999
0.99999
0.99999
0.99999
0.99999
0.99999
0.99999
0.999989
0.999988
0.999984
0.999978
0.999968
0.999951
0.999927
0.999899
0.999885
0.999879
0.999878
0.999879
0.999879
0.999881
0.999866
0.999805
0.767896
0.0280961
0.01194
0.0125876
0.012593
0.0125473
0.0125513
0.0125676
0.0126522
0.0127515
0.0128672
0.0129938
0.0131179
0.0132306
0.0133236
0.0133896
0.01343
0.0134452
0.0134269
0.0133864
0.0133325
0.0132867
0.0132682
0.0133154
0.0134267
0.0135919
0.0137956
0.0139915
0.0141584
0.0142754
0.0143423
0.0143073
0.0141094
0.0136388
0.0128065
0.01131
0.00923005
0.999996
0.999995
0.999995
0.999995
0.999994
0.999993
0.999992
0.999992
0.999991
0.999991
0.99999
0.99999
0.99999
0.99999
0.99999
0.99999
0.99999
0.99999
0.99999
0.99999
0.99999
0.99999
0.99999
0.99999
0.99999
0.99999
0.99999
0.99999
0.99999
0.99999
0.99999
0.99999
0.99999
0.99999
0.99999
0.99999
0.99999
0.99999
0.99999
0.99999
0.99999
0.99999
0.99999
0.999989
0.999988
0.999984
0.999977
0.999967
0.999951
0.999929
0.999903
0.999887
0.999882
0.99988
0.999881
0.999882
0.999886
0.999872
0.999798
0.82592
0.0257328
0.00716672
0.00706707
0.00651295
0.00621008
0.00599383
0.00589791
0.00582731
0.00578592
0.00575322
0.00572817
0.00569561
0.00566013
0.00562521
0.0055867
0.00554732
0.00551486
0.00547783
0.0054274
0.00536873
0.00531199
0.00524825
0.0051907
0.0051293
0.00508478
0.00505543
0.00502203
0.0049607
0.00485459
0.00470016
0.00448563
0.00412147
0.00360508
0.00289965
0.00187284
0.00101355
0.999996
0.999995
0.999995
0.999995
0.999994
0.999993
0.999992
0.999992
0.999991
0.999991
0.99999
0.99999
0.99999
0.99999
0.99999
0.99999
0.99999
0.99999
0.99999
0.99999
0.99999
0.99999
0.99999
0.99999
0.99999
0.99999
0.99999
0.99999
0.99999
0.99999
0.99999
0.99999
0.99999
0.99999
0.99999
0.99999
0.99999
0.99999
0.99999
0.99999
0.99999
0.99999
0.99999
0.999989
0.999987
0.999984
0.999977
0.999968
0.999954
0.999935
0.999911
0.999893
0.999885
0.999882
0.999882
0.999881
0.999887
0.999876
0.999836
0.887437
0.021269
0.00227056
0.00204834
0.00169124
0.00152883
0.00140275
0.00133664
0.00127502
0.00123168
0.00119211
0.00116148
0.00113246
0.00110756
0.00109224
0.0010872
0.0010897
0.00110167
0.00112412
0.00116535
0.00122055
0.00128549
0.00134213
0.00139165
0.00143021
0.00146405
0.00149235
0.00150137
0.00147877
0.00142847
0.00132863
0.00117108
0.000959181
0.000710853
0.000444913
0.000206435
9.43786e-05
0.999996
0.999996
0.999995
0.999995
0.999994
0.999993
0.999992
0.999991
0.999991
0.999991
0.99999
0.99999
0.99999
0.99999
0.99999
0.99999
0.99999
0.99999
0.99999
0.99999
0.99999
0.99999
0.99999
0.99999
0.99999
0.99999
0.99999
0.99999
0.99999
0.99999
0.99999
0.99999
0.99999
0.99999
0.99999
0.99999
0.99999
0.99999
0.99999
0.99999
0.99999
0.99999
0.99999
0.999989
0.999987
0.999984
0.999978
0.999969
0.999956
0.99994
0.99992
0.999901
0.999891
0.999885
0.999885
0.999882
0.999888
0.999877
0.999852
0.931345
0.023102
0.000368877
0.000270282
0.000194671
0.000168846
0.000147171
0.000139091
0.000132622
0.000128616
0.000124291
0.000121152
0.000117666
0.000114825
0.000113065
0.000113923
0.000116789
0.000122687
0.000132806
0.00014815
0.000167097
0.000188454
0.000207425
0.000224939
0.000243431
0.000267037
0.000288825
0.000300298
0.000301839
0.000289182
0.000255256
0.000203244
0.000142242
8.34743e-05
3.76357e-05
1.41136e-05
6.27757e-06
0.999997
0.999996
0.999996
0.999996
0.999995
0.999994
0.999992
0.999991
0.999991
0.99999
0.99999
0.99999
0.99999
0.99999
0.99999
0.99999
0.99999
0.99999
0.99999
0.99999
0.99999
0.99999
0.99999
0.99999
0.99999
0.99999
0.99999
0.99999
0.99999
0.99999
0.99999
0.99999
0.99999
0.99999
0.99999
0.99999
0.99999
0.99999
0.99999
0.99999
0.99999
0.99999
0.99999
0.999989
0.999988
0.999985
0.99998
0.99997
0.999958
0.999943
0.999927
0.999911
0.9999
0.99989
0.999888
0.999884
0.99989
0.999877
0.999822
0.957114
0.0328588
9.64084e-05
1.63246e-05
1.0867e-05
9.14566e-06
7.86837e-06
7.53379e-06
7.21985e-06
7.03582e-06
6.93462e-06
6.9091e-06
6.81347e-06
6.69928e-06
6.67208e-06
7.09658e-06
7.81734e-06
8.93641e-06
1.04603e-05
1.24129e-05
1.45727e-05
1.67426e-05
1.85246e-05
2.04684e-05
2.33334e-05
2.7116e-05
2.95755e-05
3.08224e-05
3.0573e-05
2.83827e-05
2.38599e-05
1.73089e-05
1.05383e-05
5.19188e-06
2.15867e-06
1.03191e-06
6.72606e-07
0.999997
0.999997
0.999996
0.999996
0.999995
0.999994
0.999993
0.999992
0.999991
0.99999
0.99999
0.99999
0.99999
0.99999
0.99999
0.99999
0.99999
0.99999
0.99999
0.99999
0.99999
0.99999
0.99999
0.99999
0.99999
0.99999
0.99999
0.99999
0.99999
0.99999
0.99999
0.99999
0.99999
0.99999
0.99999
0.99999
0.99999
0.99999
0.99999
0.99999
0.99999
0.99999
0.99999
0.999989
0.999988
0.999985
0.99998
0.999972
0.999959
0.999944
0.99993
0.999917
0.999908
0.999897
0.999893
0.999888
0.999892
0.999874
0.99973
0.969181
0.0466983
0.000150763
1.2548e-06
1.05061e-06
9.83166e-07
9.33479e-07
9.10828e-07
8.9948e-07
8.9763e-07
8.90893e-07
8.89995e-07
8.84305e-07
8.78656e-07
8.72583e-07
8.82826e-07
9.06377e-07
9.47136e-07
1.00343e-06
1.06569e-06
1.12719e-06
1.1635e-06
1.19481e-06
1.23638e-06
1.32377e-06
1.40287e-06
1.4133e-06
1.38148e-06
1.33501e-06
1.24057e-06
1.10909e-06
9.40821e-07
7.79303e-07
6.49934e-07
5.82118e-07
5.29774e-07
4.62075e-07
0.999997
0.999997
0.999997
0.999996
0.999996
0.999995
0.999994
0.999992
0.999991
0.99999
0.99999
0.99999
0.99999
0.99999
0.99999
0.99999
0.99999
0.99999
0.99999
0.99999
0.99999
0.99999
0.99999
0.99999
0.99999
0.99999
0.99999
0.99999
0.99999
0.99999
0.99999
0.99999
0.99999
0.99999
0.99999
0.99999
0.99999
0.99999
0.99999
0.99999
0.99999
0.99999
0.99999
0.999989
0.999988
0.999985
0.99998
0.999972
0.999959
0.999945
0.999931
0.999919
0.999912
0.999902
0.999897
0.999891
0.999891
0.999863
0.999623
0.967602
0.0563038
0.00027869
1.08656e-06
7.85941e-07
7.76351e-07
7.82806e-07
7.87246e-07
7.84216e-07
7.80692e-07
7.7547e-07
7.68843e-07
7.61729e-07
7.56982e-07
7.52507e-07
7.47545e-07
7.4184e-07
7.36076e-07
7.32897e-07
7.30414e-07
7.28748e-07
7.2616e-07
7.26303e-07
7.24733e-07
7.2247e-07
7.1964e-07
7.14984e-07
7.06775e-07
6.96392e-07
6.79567e-07
6.5476e-07
6.29501e-07
6.10081e-07
5.85551e-07
5.63713e-07
5.26108e-07
4.52613e-07
0.999997
0.999997
0.999997
0.999996
0.999996
0.999996
0.999995
0.999993
0.999991
0.99999
0.99999
0.99999
0.99999
0.99999
0.99999
0.99999
0.99999
0.99999
0.99999
0.99999
0.99999
0.99999
0.99999
0.99999
0.99999
0.99999
0.99999
0.99999
0.99999
0.99999
0.99999
0.99999
0.99999
0.99999
0.99999
0.99999
0.99999
0.99999
0.99999
0.99999
0.99999
0.99999
0.99999
0.999989
0.999988
0.999985
0.99998
0.999972
0.99996
0.999945
0.999931
0.99992
0.999914
0.999906
0.999901
0.999893
0.999887
0.99986
0.999547
0.961638
0.0561705
0.000279727
1.04924e-06
7.6383e-07
7.57924e-07
7.56484e-07
7.5741e-07
7.56058e-07
7.55968e-07
7.53314e-07
7.52246e-07
7.4869e-07
7.44801e-07
7.41278e-07
7.37833e-07
7.33863e-07
7.29829e-07
7.28221e-07
7.26917e-07
7.25072e-07
7.22473e-07
7.21531e-07
7.19563e-07
7.16422e-07
7.13075e-07
7.10049e-07
7.03299e-07
6.91663e-07
6.72166e-07
6.46309e-07
6.2233e-07
6.00691e-07
5.80739e-07
5.56369e-07
5.15903e-07
4.47376e-07
0.999998
0.999997
0.999997
0.999996
0.999996
0.999996
0.999995
0.999993
0.999991
0.99999
0.99999
0.99999
0.99999
0.99999
0.99999
0.99999
0.99999
0.99999
0.99999
0.99999
0.99999
0.99999
0.99999
0.99999
0.99999
0.99999
0.99999
0.99999
0.99999
0.99999
0.99999
0.99999
0.99999
0.99999
0.99999
0.99999
0.99999
0.99999
0.99999
0.99999
0.99999
0.99999
0.99999
0.999989
0.999988
0.999986
0.999981
0.999972
0.99996
0.999944
0.999929
0.999918
0.999913
0.999907
0.999904
0.999892
0.999891
0.999866
0.999214
0.953391
0.0625754
0.000575767
1.85271e-06
7.58586e-07
7.5627e-07
7.51769e-07
7.49517e-07
7.46005e-07
7.45663e-07
7.42935e-07
7.41631e-07
7.39414e-07
7.37333e-07
7.35347e-07
7.33442e-07
7.31458e-07
7.28694e-07
7.26706e-07
7.24964e-07
7.23492e-07
7.21963e-07
7.21344e-07
7.19754e-07
7.17055e-07
7.13707e-07
7.11748e-07
7.07838e-07
6.97524e-07
6.78626e-07
6.52744e-07
6.22728e-07
5.93296e-07
5.68108e-07
5.37133e-07
5.00035e-07
4.33744e-07
0.999995
0.999994
0.999993
0.999993
0.999993
0.999992
0.999991
0.999991
0.99999
0.99999
0.99999
0.99999
0.99999
0.99999
0.99999
0.99999
0.99999
0.99999
0.99999
0.99999
0.99999
0.99999
0.99999
0.99999
0.99999
0.99999
0.99999
0.99999
0.99999
0.99999
0.99999
0.99999
0.99999
0.99999
0.99999
0.99999
0.99999
0.99999
0.99999
0.99999
0.99999
0.99999
0.99999
0.99999
0.999988
0.999986
0.999981
0.999972
0.999957
0.999939
0.999926
0.999914
0.999908
0.999903
0.999901
0.999895
0.999895
0.999873
0.999158
0.944108
0.035795
0.00013819
7.54789e-07
6.74657e-07
6.71983e-07
6.66664e-07
6.66868e-07
6.6367e-07
6.64475e-07
6.62913e-07
6.63755e-07
6.62843e-07
6.63009e-07
6.61844e-07
6.60697e-07
6.58978e-07
6.57862e-07
6.57254e-07
6.5632e-07
6.55958e-07
6.56064e-07
6.54372e-07
6.50402e-07
6.42782e-07
6.36183e-07
6.29546e-07
6.2086e-07
6.11185e-07
5.98779e-07
5.80723e-07
5.58477e-07
5.35768e-07
5.06534e-07
4.76461e-07
4.42451e-07
4.00705e-07
0.999995
0.999994
0.999993
0.999993
0.999992
0.999992
0.999991
0.999991
0.999991
0.99999
0.99999
0.99999
0.99999
0.99999
0.99999
0.99999
0.99999
0.99999
0.99999
0.99999
0.99999
0.99999
0.99999
0.99999
0.99999
0.99999
0.99999
0.99999
0.99999
0.99999
0.99999
0.99999
0.99999
0.99999
0.99999
0.99999
0.99999
0.99999
0.99999
0.99999
0.99999
0.99999
0.99999
0.999989
0.999988
0.999986
0.999981
0.999972
0.999961
0.999945
0.999928
0.999914
0.999906
0.9999
0.999897
0.999892
0.999891
0.999865
0.999548
0.919627
0.0166827
1.33341e-05
6.81891e-07
7.18932e-07
7.06386e-07
7.07502e-07
7.13091e-07
7.1021e-07
7.11709e-07
7.06916e-07
7.04997e-07
6.98875e-07
6.9191e-07
6.8526e-07
6.81077e-07
6.77565e-07
6.76277e-07
6.76261e-07
6.78746e-07
6.8313e-07
6.83613e-07
6.78508e-07
6.66319e-07
6.52351e-07
6.40603e-07
6.29442e-07
6.18809e-07
6.09484e-07
5.99691e-07
5.86992e-07
5.71663e-07
5.50777e-07
5.19633e-07
4.93282e-07
4.68624e-07
4.2031e-07
0.999995
0.999995
0.999993
0.999993
0.999992
0.999992
0.999991
0.999991
0.999991
0.999991
0.99999
0.99999
0.99999
0.99999
0.99999
0.99999
0.99999
0.99999
0.99999
0.99999
0.99999
0.99999
0.99999
0.99999
0.99999
0.99999
0.99999
0.99999
0.99999
0.99999
0.99999
0.99999
0.99999
0.99999
0.99999
0.99999
0.99999
0.99999
0.99999
0.99999
0.99999
0.99999
0.99999
0.999989
0.999988
0.999985
0.999981
0.999973
0.999962
0.999946
0.999925
0.999908
0.999898
0.999891
0.99989
0.999886
0.999889
0.999863
0.99969
0.904144
0.0159713
3.98099e-06
3.44355e-06
2.89474e-06
2.83187e-06
2.38778e-06
2.00553e-06
1.54893e-06
1.24038e-06
1.01833e-06
8.91488e-07
8.15935e-07
7.81803e-07
7.66877e-07
7.59657e-07
7.54634e-07
7.52941e-07
7.44168e-07
7.38563e-07
7.36411e-07
7.27067e-07
7.12097e-07
6.93089e-07
6.75311e-07
6.60182e-07
6.46112e-07
6.33904e-07
6.22837e-07
6.13698e-07
6.03796e-07
5.93967e-07
5.75e-07
5.42495e-07
5.13856e-07
4.86167e-07
4.35008e-07
0.999996
0.999995
0.999994
0.999993
0.999993
0.999992
0.999992
0.999991
0.999991
0.999991
0.99999
0.99999
0.99999
0.99999
0.99999
0.99999
0.99999
0.99999
0.99999
0.99999
0.99999
0.99999
0.99999
0.99999
0.99999
0.99999
0.99999
0.99999
0.99999
0.99999
0.99999
0.99999
0.99999
0.99999
0.99999
0.99999
0.99999
0.99999
0.99999
0.99999
0.99999
0.99999
0.99999
0.999989
0.999988
0.999985
0.99998
0.999974
0.999962
0.999943
0.999918
0.999898
0.999888
0.999884
0.999882
0.999877
0.999873
0.99985
0.999769
0.854852
0.00748857
0.000161655
0.000143317
0.000117553
0.000109368
9.25019e-05
7.6271e-05
5.91766e-05
4.42526e-05
3.16239e-05
2.21921e-05
1.56266e-05
1.14171e-05
8.94125e-06
7.56179e-06
6.69417e-06
6.12651e-06
5.57784e-06
5.03427e-06
4.49404e-06
3.97358e-06
3.48814e-06
3.0165e-06
2.55898e-06
2.19895e-06
1.90303e-06
1.6322e-06
1.39749e-06
1.0952e-06
8.53065e-07
7.16635e-07
6.5363e-07
6.15064e-07
5.68663e-07
5.23841e-07
4.57483e-07
0.999996
0.999996
0.999994
0.999994
0.999993
0.999993
0.999992
0.999991
0.999991
0.999991
0.99999
0.99999
0.99999
0.99999
0.99999
0.99999
0.99999
0.99999
0.99999
0.99999
0.99999
0.99999
0.99999
0.99999
0.99999
0.99999
0.99999
0.99999
0.99999
0.99999
0.99999
0.99999
0.99999
0.99999
0.99999
0.99999
0.99999
0.99999
0.99999
0.99999
0.99999
0.99999
0.99999
0.999989
0.999988
0.999985
0.99998
0.999973
0.99996
0.999937
0.999908
0.999889
0.99988
0.999876
0.999872
0.999864
0.999857
0.999842
0.999833
0.782951
0.00914045
0.00248892
0.00235052
0.00208439
0.00193971
0.00173024
0.00153787
0.00133766
0.001147
0.000969354
0.000817648
0.000691677
0.000591798
0.00051462
0.000457017
0.000415141
0.000384768
0.000361291
0.00034371
0.000329633
0.000316497
0.000297775
0.000268701
0.000238429
0.000207513
0.000180047
0.000155991
0.000127742
9.5775e-05
6.38811e-05
3.67997e-05
1.78499e-05
7.41802e-06
2.79773e-06
1.12888e-06
6.53445e-07
0.999996
0.999996
0.999995
0.999994
0.999993
0.999993
0.999992
0.999992
0.999991
0.999991
0.99999
0.99999
0.99999
0.99999
0.99999
0.99999
0.99999
0.99999
0.99999
0.99999
0.99999
0.99999
0.99999
0.99999
0.99999
0.99999
0.99999
0.99999
0.99999
0.99999
0.99999
0.99999
0.99999
0.99999
0.99999
0.99999
0.99999
0.99999
0.99999
0.99999
0.99999
0.99999
0.99999
0.999989
0.999988
0.999985
0.99998
0.999972
0.999957
0.99993
0.9999
0.999883
0.999875
0.999869
0.999863
0.999858
0.999855
0.999848
0.999834
0.675309
0.0188975
0.0115495
0.0117687
0.0115388
0.0113229
0.0110369
0.0107221
0.0103764
0.00997483
0.00954096
0.00905941
0.00856141
0.00806769
0.00758163
0.0071147
0.0066915
0.00631213
0.0059787
0.00568947
0.00543444
0.00518028
0.00487603
0.00452687
0.00418757
0.00383236
0.00346078
0.00310038
0.00274099
0.00238401
0.00199783
0.00159738
0.00117789
0.000770982
0.000424955
0.000181584
6.74236e-05
0.999996
0.999996
0.999996
0.999995
0.999994
0.999993
0.999992
0.999992
0.999991
0.999991
0.99999
0.99999
0.99999
0.99999
0.99999
0.99999
0.99999
0.99999
0.99999
0.99999
0.99999
0.99999
0.99999
0.99999
0.99999
0.99999
0.99999
0.99999
0.99999
0.99999
0.99999
0.99999
0.99999
0.99999
0.99999
0.99999
0.99999
0.99999
0.99999
0.99999
0.99999
0.99999
0.99999
0.999989
0.999988
0.999985
0.999979
0.999969
0.999953
0.999925
0.999895
0.999879
0.999872
0.999868
0.999864
0.999861
0.999861
0.999855
0.99967
0.603088
0.0284921
0.021906
0.0228345
0.0232409
0.0235471
0.0239598
0.0243322
0.0247345
0.0250736
0.0254118
0.0257066
0.0259847
0.0261957
0.0263492
0.0264144
0.026421
0.0263534
0.0262245
0.0260081
0.025699
0.0252866
0.0247776
0.0242542
0.0236643
0.0229408
0.0220843
0.0210231
0.0198164
0.0186155
0.0174426
0.0162932
0.0151086
0.0137397
0.011918
0.00980196
0.00803926
0.999996
0.999997
0.999996
0.999995
0.999994
0.999993
0.999992
0.999992
0.999991
0.999991
0.99999
0.99999
0.99999
0.99999
0.99999
0.99999
0.99999
0.99999
0.99999
0.99999
0.99999
0.99999
0.99999
0.99999
0.99999
0.99999
0.99999
0.99999
0.99999
0.99999
0.99999
0.99999
0.99999
0.99999
0.99999
0.99999
0.99999
0.99999
0.99999
0.99999
0.99999
0.99999
0.99999
0.999989
0.999988
0.999985
0.999978
0.999968
0.99995
0.999922
0.999892
0.999877
0.999873
0.999871
0.99987
0.999869
0.999871
0.999866
0.999473
0.684061
0.0316052
0.0205115
0.0213122
0.0215743
0.0219893
0.0226908
0.0235393
0.0244954
0.0255151
0.0266215
0.027811
0.0291226
0.0305235
0.0319905
0.0335418
0.0351881
0.0369709
0.0388845
0.0408916
0.0429892
0.0452069
0.0476011
0.050219
0.0530791
0.0562762
0.059798
0.0636652
0.0680444
0.0732196
0.0794967
0.0872709
0.0971631
0.1106
0.132444
0.182334
0.378173
0.999996
0.999997
0.999996
0.999996
0.999995
0.999994
0.999993
0.999992
0.999991
0.999991
0.99999
0.99999
0.99999
0.99999
0.99999
0.99999
0.99999
0.99999
0.99999
0.99999
0.99999
0.99999
0.99999
0.99999
0.99999
0.99999
0.99999
0.99999
0.99999
0.99999
0.99999
0.99999
0.99999
0.99999
0.99999
0.99999
0.99999
0.99999
0.99999
0.99999
0.99999
0.99999
0.99999
0.999989
0.999988
0.999984
0.999978
0.999968
0.999953
0.999928
0.999899
0.999883
0.999877
0.999875
0.999874
0.999873
0.999875
0.999871
0.999845
0.814575
0.0220627
0.00703934
0.00668044
0.00588284
0.00556985
0.00529774
0.00516178
0.00509801
0.00512791
0.0051998
0.00532827
0.00547093
0.005658
0.00589308
0.00619739
0.00657356
0.00704366
0.00761221
0.00827319
0.00900701
0.00979706
0.0106366
0.0115091
0.0124057
0.0133014
0.014235
0.0152213
0.016279
0.0174254
0.0185384
0.0195437
0.020689
0.0219643
0.0230236
0.023463
0.0220139
0.999997
0.999997
0.999997
0.999996
0.999996
0.999994
0.999993
0.999992
0.999991
0.999991
0.99999
0.99999
0.99999
0.99999
0.99999
0.99999
0.99999
0.99999
0.99999
0.99999
0.99999
0.99999
0.99999
0.99999
0.99999
0.99999
0.99999
0.99999
0.99999
0.99999
0.99999
0.99999
0.99999
0.99999
0.99999
0.99999
0.99999
0.99999
0.99999
0.99999
0.99999
0.99999
0.99999
0.999989
0.999988
0.999985
0.999978
0.999969
0.999957
0.999938
0.999911
0.999891
0.999883
0.999879
0.999877
0.999875
0.999878
0.999868
0.99988
0.878911
0.0132019
0.00143983
0.00127281
0.00101358
0.000920172
0.000831395
0.000800654
0.000784791
0.000800111
0.000823952
0.000862064
0.000909238
0.000962029
0.00101927
0.00108411
0.00116448
0.00127741
0.00143838
0.00164996
0.00195033
0.00232083
0.00277449
0.00326375
0.00375999
0.00426924
0.00476047
0.00521099
0.00558839
0.00590133
0.00611661
0.00609836
0.005839
0.00522673
0.00400882
0.00239957
0.00114188
0.999997
0.999997
0.999997
0.999997
0.999996
0.999995
0.999993
0.999992
0.999991
0.999991
0.99999
0.99999
0.99999
0.99999
0.99999
0.99999
0.99999
0.99999
0.99999
0.99999
0.99999
0.99999
0.99999
0.99999
0.99999
0.99999
0.99999
0.99999
0.99999
0.99999
0.99999
0.99999
0.99999
0.99999
0.99999
0.99999
0.99999
0.99999
0.99999
0.99999
0.99999
0.99999
0.99999
0.999989
0.999988
0.999985
0.99998
0.99997
0.999958
0.999943
0.999924
0.999904
0.999893
0.999886
0.999884
0.99988
0.999881
0.999863
0.999871
0.921691
0.0149984
0.000186277
0.000165239
0.000125645
0.000115467
0.000103514
0.000102124
0.000101289
0.000103864
0.000107595
0.000113688
0.000120808
0.000128418
0.0001364
0.000145998
0.000160627
0.000181903
0.000217623
0.000270504
0.000347532
0.000446985
0.000572052
0.000725189
0.00091051
0.00111558
0.00131097
0.00145054
0.00153014
0.00155076
0.00146186
0.00126282
0.000931007
0.000564451
0.000265815
9.25005e-05
3.40141e-05
0.999997
0.999997
0.999997
0.999997
0.999996
0.999995
0.999994
0.999992
0.999991
0.999991
0.99999
0.99999
0.99999
0.99999
0.99999
0.99999
0.99999
0.99999
0.99999
0.99999
0.99999
0.99999
0.99999
0.99999
0.99999
0.99999
0.99999
0.99999
0.99999
0.99999
0.99999
0.99999
0.99999
0.99999
0.99999
0.99999
0.99999
0.99999
0.99999
0.99999
0.99999
0.99999
0.99999
0.999989
0.999988
0.999985
0.99998
0.999972
0.999959
0.999945
0.999929
0.999915
0.999903
0.999893
0.999891
0.999886
0.999884
0.999856
0.999822
0.948033
0.0220488
1.53091e-05
1.48493e-05
1.0335e-05
9.76906e-06
8.73943e-06
8.77622e-06
8.89277e-06
9.22859e-06
9.70989e-06
1.04135e-05
1.10603e-05
1.15937e-05
1.21149e-05
1.29508e-05
1.47242e-05
1.74483e-05
2.20386e-05
2.86785e-05
3.81073e-05
5.01921e-05
6.55144e-05
8.54436e-05
0.000109538
0.000136503
0.000162404
0.000176841
0.00017773
0.000163317
0.000132665
8.97369e-05
4.75545e-05
1.89044e-05
5.99043e-06
1.88894e-06
1.00159e-06
0.999997
0.999997
0.999997
0.999997
0.999997
0.999996
0.999994
0.999992
0.999991
0.999991
0.99999
0.99999
0.99999
0.99999
0.99999
0.99999
0.99999
0.99999
0.99999
0.99999
0.99999
0.99999
0.99999
0.99999
0.99999
0.99999
0.99999
0.99999
0.99999
0.99999
0.99999
0.99999
0.99999
0.99999
0.99999
0.99999
0.99999
0.99999
0.99999
0.99999
0.99999
0.99999
0.99999
0.999989
0.999988
0.999986
0.999981
0.999973
0.999961
0.999946
0.999931
0.999918
0.999909
0.999899
0.999894
0.999886
0.99988
0.999843
0.999733
0.958642
0.032284
9.1886e-06
1.59701e-06
1.21543e-06
1.20988e-06
1.14127e-06
1.12827e-06
1.13381e-06
1.15301e-06
1.16873e-06
1.19328e-06
1.2114e-06
1.22017e-06
1.23416e-06
1.2586e-06
1.33882e-06
1.46817e-06
1.68269e-06
1.98204e-06
2.35054e-06
2.74862e-06
3.22165e-06
3.91938e-06
4.66128e-06
5.42099e-06
5.86994e-06
5.65282e-06
4.80186e-06
3.89939e-06
2.88378e-06
1.75852e-06
1.05058e-06
7.03634e-07
5.85183e-07
5.26018e-07
4.47195e-07
0.999997
0.999997
0.999997
0.999997
0.999997
0.999997
0.999996
0.999993
0.999991
0.999991
0.99999
0.99999
0.99999
0.99999
0.99999
0.99999
0.99999
0.99999
0.99999
0.99999
0.99999
0.99999
0.99999
0.99999
0.99999
0.99999
0.99999
0.99999
0.99999
0.99999
0.99999
0.99999
0.99999
0.99999
0.99999
0.99999
0.99999
0.99999
0.99999
0.99999
0.99999
0.99999
0.99999
0.999989
0.999988
0.999986
0.999981
0.999972
0.99996
0.999946
0.999931
0.999918
0.99991
0.9999
0.999892
0.999882
0.999869
0.999819
0.999597
0.95483
0.0385925
2.6847e-05
8.52805e-07
8.11451e-07
7.99941e-07
8.02967e-07
8.04477e-07
7.9925e-07
7.93898e-07
7.86664e-07
7.81755e-07
7.7493e-07
7.70454e-07
7.65315e-07
7.60237e-07
7.5484e-07
7.48722e-07
7.42397e-07
7.41718e-07
7.42553e-07
7.40158e-07
7.39331e-07
7.41779e-07
7.42062e-07
7.40598e-07
7.34227e-07
7.18216e-07
6.99737e-07
6.79824e-07
6.49765e-07
6.1832e-07
5.95451e-07
5.78956e-07
5.5981e-07
5.19872e-07
4.36628e-07
0.999998
0.999997
0.999997
0.999997
0.999997
0.999997
0.999996
0.999995
0.999992
0.999991
0.99999
0.99999
0.99999
0.99999
0.99999
0.99999
0.99999
0.99999
0.99999
0.99999
0.99999
0.99999
0.99999
0.99999
0.99999
0.99999
0.99999
0.99999
0.99999
0.99999
0.99999
0.99999
0.99999
0.99999
0.99999
0.99999
0.99999
0.99999
0.99999
0.99999
0.99999
0.99999
0.99999
0.999989
0.999988
0.999985
0.999981
0.999972
0.99996
0.999945
0.999931
0.999919
0.99991
0.9999
0.99989
0.999873
0.999856
0.999809
0.999546
0.9373
0.0357558
5.45004e-05
8.66649e-07
7.70671e-07
7.61827e-07
7.58901e-07
7.60591e-07
7.58137e-07
7.576e-07
7.55458e-07
7.55091e-07
7.5215e-07
7.49451e-07
7.45384e-07
7.42001e-07
7.38574e-07
7.35223e-07
7.32637e-07
7.28917e-07
7.25918e-07
7.23809e-07
7.21362e-07
7.18036e-07
7.13911e-07
7.10251e-07
7.07465e-07
7.00625e-07
6.8777e-07
6.66094e-07
6.34793e-07
6.03449e-07
5.79275e-07
5.65012e-07
5.44871e-07
5.06104e-07
4.3224e-07
0.999998
0.999998
0.999997
0.999997
0.999997
0.999997
0.999997
0.999995
0.999992
0.999991
0.99999
0.99999
0.99999
0.99999
0.99999
0.99999
0.99999
0.99999
0.99999
0.99999
0.99999
0.99999
0.99999
0.99999
0.99999
0.99999
0.99999
0.99999
0.99999
0.99999
0.99999
0.99999
0.99999
0.99999
0.99999
0.99999
0.99999
0.99999
0.99999
0.99999
0.99999
0.99999
0.99999
0.999989
0.999988
0.999985
0.99998
0.999972
0.99996
0.999945
0.999929
0.999918
0.999912
0.999905
0.999897
0.999879
0.999871
0.999821
0.999362
0.952582
0.0561037
0.000440402
1.47677e-06
7.59934e-07
7.55711e-07
7.49191e-07
7.48224e-07
7.4439e-07
7.43311e-07
7.40013e-07
7.38766e-07
7.36268e-07
7.35209e-07
7.33662e-07
7.32985e-07
7.32665e-07
7.32632e-07
7.31925e-07
7.28984e-07
7.26639e-07
7.24847e-07