/*--------------------------------*- C++ -*----------------------------------*\
| =========                 |                                                 |
| \\      /  F ield         | OpenFOAM: The Open Source CFD Toolbox           |
|  \\    /   O peration     | Version:  2.3.0                                 |
|   \\  /    A nd           | Web:      www.OpenFOAM.org                      |
|    \\/     M anipulation  |                                                 |
\*---------------------------------------------------------------------------*/
FoamFile
{
    version     2.0;
    format      ascii;
    class       surfaceScalarField;
    location    "62";
    object      phi;
}
// * * * * * * * * * * * * * * * * * * * * * * * * * * * * * * * * * * * * * //

dimensions      [0 3 -1 0 0 0 0];

internalField   nonuniform List<scalar> 
16448
(
-1.2254e-06
-2.44019e-06
5.91164e-07
5.60887e-07
-2.56813e-06
7.81841e-07
6.09421e-07
-1.25282e-06
1.20429e-06
5.60238e-07
-1.04684e-06
1.09602e-06
2.25366e-07
-5.54541e-07
8.89405e-07
9.63008e-08
-6.43559e-07
7.72617e-07
6.79067e-08
-6.54963e-07
6.83349e-07
5.49165e-08
-6.42883e-07
6.55866e-07
-3.49182e-08
-4.96937e-07
5.86765e-07
-2.23178e-07
-3.4438e-07
5.32634e-07
-4.43841e-07
-2.53155e-07
4.73813e-07
-5.67823e-07
-2.60863e-07
3.84839e-07
-5.79609e-07
-2.99604e-07
3.11385e-07
-4.95444e-07
-3.45332e-07
2.61161e-07
-3.83907e-07
-3.65435e-07
2.53892e-07
-2.60183e-07
-3.85296e-07
2.61565e-07
-1.45058e-07
-3.99487e-07
2.84355e-07
-4.40148e-08
-4.1381e-07
3.1276e-07
3.57868e-08
-4.26303e-07
3.46495e-07
9.23496e-08
-4.35879e-07
3.79309e-07
1.22958e-07
-4.41152e-07
4.10537e-07
1.31097e-07
-4.45143e-07
4.36997e-07
1.24622e-07
-4.48045e-07
4.54514e-07
1.10135e-07
-4.46238e-07
4.60718e-07
9.22855e-08
-4.39449e-07
4.57292e-07
7.5556e-08
-4.28775e-07
4.45497e-07
6.45333e-08
-4.16581e-07
4.27597e-07
6.40263e-08
-4.07659e-07
4.08158e-07
7.49963e-08
-3.98991e-07
3.88014e-07
9.45348e-08
-3.89796e-07
3.7025e-07
1.19588e-07
-3.80699e-07
3.5564e-07
1.48985e-07
-3.73094e-07
3.4369e-07
1.82129e-07
-3.67627e-07
3.34476e-07
2.19457e-07
-3.65195e-07
3.2786e-07
2.6323e-07
-3.67286e-07
3.23506e-07
3.15302e-07
-3.743e-07
3.22221e-07
3.72186e-07
-3.83433e-07
3.26543e-07
4.20213e-07
-3.88629e-07
3.40594e-07
4.43495e-07
-3.89435e-07
3.66146e-07
4.30667e-07
-4.01134e-07
4.13956e-07
3.93449e-07
-4.43367e-07
4.80578e-07
4.36886e-07
-5.85239e-07
5.41794e-07
6.53299e-07
-8.26674e-07
6.10254e-07
9.6287e-07
-1.06864e-06
7.59058e-07
1.13995e-06
-1.18154e-06
1.00445e-06
1.1402e-06
-1.22087e-06
1.22061e-06
1.0154e-06
-1.20644e-06
1.33123e-06
9.08777e-07
-1.32715e-06
1.43377e-06
1.21388e-06
-1.8128e-06
1.5077e-06
1.62926e-06
-1.9495e-06
1.53411e-06
1.13186e-06
-1.36153e-06
1.85893e-06
-1.47142e-07
-1.00827e-06
2.28728e-06
2.43076e-06
-6.14097e-06
3.56307e-06
8.20028e-06
-1.12383e-05
5.46879e-06
1.37603e-05
-1.20886e-05
6.52853e-06
1.84332e-05
-1.01457e-05
5.4727e-06
1.60452e-05
-3.99725e-06
6.38525e-06
1.51858e-05
2.05044e-07
6.54251e-07
-8.92332e-06
1.17727e-05
1.23361e-05
4.15104e-07
-5.89653e-06
-3.4421e-06
2.4307e-05
-1.8492e-05
-5.39985e-06
3.0725e-05
-9.21738e-06
2.79938e-06
2.64162e-05
7.95533e-07
3.5132e-06
2.78592e-05
-1.97952e-06
5.36546e-07
2.82693e-05
-1.35351e-06
9.43388e-07
2.72129e-05
-1.23719e-06
2.29362e-06
2.48127e-05
-6.30299e-07
3.03051e-06
2.24023e-05
-1.7673e-06
4.17771e-06
1.96294e-05
-2.343e-06
5.1159e-06
1.74645e-05
-2.74926e-06
4.91409e-06
1.683e-05
-3.73419e-06
4.36876e-06
1.74895e-05
-4.41931e-06
3.75978e-06
1.93354e-05
-5.21606e-06
3.37013e-06
2.21331e-05
-5.88325e-06
3.08556e-06
2.52733e-05
-5.72849e-06
2.58829e-06
2.78835e-05
-5.18125e-06
2.571e-06
2.94215e-05
-3.49996e-06
1.96199e-06
2.98911e-05
-1.50322e-06
1.03361e-06
2.94236e-05
-1.16037e-07
5.83512e-07
2.83689e-05
2.40697e-07
8.14041e-07
2.58164e-05
1.56332e-06
9.8915e-07
2.10981e-05
3.45476e-06
1.26357e-06
1.65636e-05
2.67417e-06
1.86035e-06
1.20505e-05
1.6428e-06
2.8703e-06
5.80351e-06
3.27909e-06
2.96786e-06
1.4067e-06
1.63307e-06
2.76374e-06
1.16064e-06
-3.11298e-06
3.35905e-06
1.83909e-06
-4.91668e-06
4.23822e-06
2.12741e-06
-5.19338e-06
4.90507e-06
2.60766e-06
-5.52302e-06
5.04277e-06
2.16319e-06
-4.22142e-06
4.66588e-06
4.93256e-07
-2.26888e-06
3.93881e-06
-1.39898e-06
-1.61965e-06
3.51188e-06
-2.38815e-06
-6.03962e-07
1.59313e-06
-1.85675e-06
-1.19986e-06
6.68454e-07
-1.10952e-06
-7.47224e-07
-1.94186e-06
-3.44915e-06
-1.98127e-07
-5.34969e-07
-3.79925e-06
-1.75768e-07
-1.83041e-07
-2.3145e-06
7.09739e-07
2.16214e-07
-1.89979e-06
4.53686e-07
3.14214e-07
-9.41931e-07
2.89377e-07
2.46193e-07
-8.0753e-07
2.31979e-07
1.34277e-07
-6.82477e-07
1.39417e-07
2.55993e-08
-6.25194e-07
9.09769e-08
-1.31214e-07
-4.06471e-07
6.63377e-08
-3.66545e-07
-2.06564e-07
9.75051e-08
-6.05535e-07
-1.13272e-07
9.9099e-08
-7.21166e-07
-1.7286e-07
2.76184e-08
-7.30759e-07
-2.54273e-07
-3.57493e-08
-6.49557e-07
-3.37454e-07
-8.90906e-08
-5.32061e-07
-3.77343e-07
-1.05598e-07
-3.9875e-07
-4.10561e-07
-1.08057e-07
-2.70996e-07
-4.31395e-07
-9.58577e-08
-1.55865e-07
-4.50239e-07
-7.8713e-08
-6.03829e-08
-4.6483e-07
-5.69673e-08
1.2851e-08
-4.74591e-07
-3.45339e-08
6.13361e-08
-4.77189e-07
-1.2461e-08
8.61715e-08
-4.75366e-07
5.37437e-09
9.50305e-08
-4.70524e-07
1.3607e-08
9.35066e-08
-4.60954e-07
1.62267e-08
8.61632e-08
-4.46189e-07
1.40702e-08
7.69428e-08
-4.27651e-07
8.08288e-09
6.95451e-08
-4.08256e-07
-9.40781e-10
6.99168e-08
-3.92263e-07
-1.5781e-08
8.00927e-08
-3.78281e-07
-3.09e-08
9.87851e-08
-3.6394e-07
-4.45633e-08
1.23674e-07
-3.49573e-07
-5.60297e-08
1.53327e-07
-3.37633e-07
-6.5129e-08
1.86324e-07
-3.29248e-07
-7.13922e-08
2.21236e-07
-3.25695e-07
-7.44282e-08
2.58494e-07
-3.29418e-07
-7.51416e-08
2.9962e-07
-3.41791e-07
-7.36519e-08
3.41648e-07
-3.57611e-07
-6.78672e-08
3.7135e-07
-3.65082e-07
-5.32664e-08
3.69474e-07
-3.62573e-07
-2.50036e-08
3.36678e-07
-3.81556e-07
1.31997e-08
3.34606e-07
-4.83459e-07
4.2146e-08
4.21762e-07
-7.34978e-07
6.25641e-08
5.33834e-07
-1.05028e-06
1.11519e-07
5.66065e-07
-1.33126e-06
2.30371e-07
4.78867e-07
-1.53863e-06
4.44275e-07
6.25137e-08
-1.56665e-06
7.6212e-07
-4.86903e-07
-1.49618e-06
8.39144e-07
-9.71382e-07
-1.60246e-06
7.59773e-07
-1.14731e-06
-2.4007e-06
7.63813e-07
-1.37666e-06
-2.62651e-06
9.06352e-07
-1.23667e-06
-2.69689e-06
1.19536e-06
2.50799e-06
-5.50839e-06
7.55453e-07
9.72455e-06
-1.42841e-05
9.26575e-07
1.59233e-05
-1.91561e-05
1.71908e-06
1.94906e-05
-1.81412e-05
2.48528e-06
2.27459e-05
-1.46092e-05
1.20807e-06
2.08579e-05
-3.14194e-06
1.03274e-06
2.34568e-05
2.72618e-06
-5.12026e-06
-4.72466e-06
2.57726e-05
1.4181e-05
1.98225e-07
-8.43187e-06
-2.38782e-06
1.22659e-05
-2.30722e-05
-7.48755e-06
8.59686e-06
-6.14413e-06
5.95788e-07
8.83443e-06
6.18021e-06
-5.62224e-06
9.36112e-06
3.63959e-06
-6.14581e-06
5.89132e-06
1.87406e-06
2.42236e-07
1.60961e-06
2.05084e-06
9.93683e-07
-5.34117e-06
1.91503e-06
4.40544e-06
-1.09393e-05
-1.24548e-06
5.07634e-06
-1.27956e-05
-4.75975e-06
4.27308e-06
-1.28447e-05
-6.35729e-06
3.65707e-06
-1.19662e-05
-8.25334e-06
3.64068e-06
-1.05695e-05
-9.52156e-06
3.70555e-06
-9.03109e-06
-1.06548e-05
3.90037e-06
-7.42208e-06
-1.16225e-05
4.13023e-06
-5.62113e-06
-1.1611e-05
4.08156e-06
-3.73609e-06
-1.1132e-05
4.06573e-06
-5.32578e-07
-8.95889e-06
2.25542e-06
4.25014e-06
-4.22329e-06
-2.06265e-06
7.32755e-06
-1.95689e-08
-3.17388e-06
7.84879e-06
1.9818e-06
-2.26234e-06
7.13363e-06
3.89692e-06
-1.61845e-06
2.97186e-06
5.99704e-06
1.61949e-06
-2.23662e-06
4.5953e-06
3.28735e-06
-3.66108e-06
7.13457e-07
2.35381e-06
-2.65246e-06
-5.99311e-07
2.86978e-06
-1.12191e-06
-2.80874e-06
2.91126e-06
-1.00682e-07
-5.65791e-06
1.5237e-06
2.31523e-07
-7.0985e-06
1.84962e-06
4.15615e-07
-7.88283e-06
2.50535e-06
2.63445e-07
-8.34772e-06
2.97687e-06
-2.64823e-07
-6.89064e-06
3.19749e-06
-1.26031e-06
-3.63316e-06
2.35977e-06
-2.9419e-06
-2.65061e-06
2.71255e-06
-3.93016e-06
-1.36867e-06
1.75297e-06
-3.35799e-06
-2.42977e-06
6.57737e-07
-3.01085e-06
-1.45666e-06
-2.46668e-06
-3.72204e-06
-4.484e-07
-1.3399e-06
-4.2525e-06
-6.73538e-07
-9.29522e-07
-2.92952e-06
2.04634e-07
-3.35891e-07
-2.5608e-06
6.73687e-08
2.7847e-08
-1.30729e-06
1.60528e-09
5.67053e-08
-8.31609e-07
-4.79254e-09
-3.63669e-08
-4.42784e-07
-1.46633e-07
-1.61686e-07
-3.36501e-07
-1.63385e-07
-2.80589e-07
-1.06215e-07
-1.81363e-07
-4.00844e-07
6.24421e-08
-1.4876e-07
-5.3467e-07
1.43421e-07
-1.22876e-07
-6.19705e-07
6.82005e-08
-1.56035e-07
-6.51423e-07
-1.50518e-08
-2.07513e-07
-6.26877e-07
-1.07879e-07
-2.54132e-07
-5.66603e-07
-1.60582e-07
-2.77045e-07
-4.82197e-07
-2.02531e-07
-2.92447e-07
-3.92351e-07
-2.26099e-07
-2.95153e-07
-3.04953e-07
-2.44465e-07
-2.93183e-07
-2.26823e-07
-2.559e-07
-2.87071e-07
-1.59266e-07
-2.62279e-07
-2.79881e-07
-1.02851e-07
-2.61241e-07
-2.72374e-07
-5.77603e-08
-2.53357e-07
-2.67112e-07
-2.43254e-08
-2.40629e-07
-2.63343e-07
-5.77472e-10
-2.23999e-07
-2.60716e-07
1.5953e-08
-2.03728e-07
-2.59004e-07
2.78543e-08
-1.81273e-07
-2.58292e-07
3.75955e-08
-1.59124e-07
-2.58887e-07
4.62977e-08
-1.39808e-07
-2.61171e-07
5.60506e-08
-1.23362e-07
-2.64685e-07
6.77976e-08
-1.07072e-07
-2.68629e-07
8.12742e-08
-9.10945e-08
-2.71969e-07
9.59226e-08
-7.82768e-08
-2.7402e-07
1.1068e-07
-6.96242e-08
-2.74396e-07
1.24425e-07
-6.59991e-08
-2.73456e-07
1.35338e-07
-6.93001e-08
-2.71046e-07
1.42115e-07
-8.09082e-08
-2.67676e-07
1.43746e-07
-9.60853e-08
-2.63173e-07
1.37952e-07
-1.02707e-07
-2.56598e-07
1.20167e-07
-9.94542e-08
-2.45351e-07
1.13446e-07
-1.40632e-07
-2.34219e-07
1.73194e-07
-3.16008e-07
-2.27216e-07
2.63373e-07
-6.19002e-07
-2.06172e-07
2.13297e-07
-8.81659e-07
-1.18568e-07
-1.43916e-08
-1.11603e-06
1.24467e-08
-2.85266e-07
-1.422e-06
1.54226e-07
-7.71394e-07
-1.47683e-06
3.96294e-07
-1.32842e-06
-1.44372e-06
5.04561e-07
-1.81333e-06
-1.68865e-06
5.71088e-07
-2.2188e-06
-2.56164e-06
5.66398e-07
-2.62973e-06
-2.60106e-06
3.85468e-07
-9.82874e-08
-5.12917e-06
-9.91695e-08
7.55828e-06
-1.27719e-05
-3.93058e-07
1.37242e-05
-2.19046e-05
1.45455e-06
1.58213e-05
-2.26164e-05
1.36314e-06
1.67858e-05
-2.00365e-05
9.30823e-07
1.57225e-05
-1.34349e-05
-1.10942e-07
1.9721e-05
-3.59042e-06
-3.55006e-06
2.9757e-05
5.76767e-07
-7.88679e-06
-2.92266e-07
4.20549e-05
1.37662e-05
1.00582e-07
-6.68698e-06
-2.13792e-06
3.0942e-06
-2.09942e-05
-5.07159e-06
-8.4617e-07
-1.47896e-06
-7.24804e-07
8.29323e-06
5.18086e-07
-3.47727e-06
-3.05089e-06
8.98146e-06
6.00225e-06
-1.31456e-05
4.05022e-06
7.91854e-06
-2.011e-05
2.02761e-06
6.98764e-06
-2.10925e-05
-2.59689e-06
5.49445e-06
-2.11308e-05
-5.88963e-06
4.68247e-06
-2.23276e-05
-8.5676e-06
5.00459e-06
-2.26565e-05
-1.08898e-05
4.86143e-06
-2.30105e-05
-1.31135e-05
5.21411e-06
-2.28608e-05
-1.46916e-05
5.0203e-06
-2.24166e-05
-1.59101e-05
4.8111e-06
-2.2258e-05
-1.64881e-05
4.7071e-06
-2.22545e-05
-1.61997e-05
4.58521e-06
-2.20451e-05
-1.55605e-05
4.21898e-06
-2.19758e-05
-1.35047e-05
4.47657e-06
-2.13194e-05
-9.69716e-06
4.8175e-06
-1.97213e-05
-6.25181e-06
4.63408e-06
-1.81888e-05
-3.73517e-06
4.18451e-06
-1.64997e-05
-2.43515e-06
4.64294e-06
-1.34252e-05
-2.28471e-06
5.2073e-06
-1.08303e-05
-2.34377e-06
4.34419e-06
-8.27629e-06
-4.19633e-06
2.35577e-06
-4.76449e-06
-5.02527e-06
9.1415e-07
-1.16395e-06
-6.17064e-06
-2.38631e-07
1.01163e-06
-7.39385e-06
-4.39634e-07
2.32312e-06
-8.017e-06
-3.93003e-07
2.42213e-06
-7.90898e-06
-7.28608e-08
1.43703e-06
-7.87629e-06
5.13675e-07
9.33987e-07
-7.35168e-06
9.64081e-07
1.00433e-06
-4.54643e-06
8.42933e-07
1.11873e-07
-2.56205e-06
8.03891e-07
-1.65653e-06
-1.39259e-06
1.79232e-06
-2.94863e-06
-1.88059e-06
7.42935e-07
-4.92004e-06
-1.03944e-06
-2.94106e-06
-3.78116e-06
-2.24046e-07
-1.85338e-06
-4.49647e-06
-8.4371e-07
-1.53215e-06
-3.32862e-06
7.78637e-08
-9.14023e-07
-3.24327e-06
6.43254e-08
-4.24609e-07
-1.95509e-06
1.58379e-07
-1.5597e-07
-1.18078e-06
8.05172e-08
-1.41882e-07
-3.09276e-07
-1.47608e-07
-2.2449e-07
-7.03941e-08
-1.8351e-07
-2.66561e-07
1.47987e-07
-2.1214e-07
-3.22465e-07
3.09301e-07
-1.90964e-07
-3.82694e-07
4.05406e-07
-2.01765e-07
-4.58415e-07
3.70735e-07
-2.26824e-07
-5.3643e-07
3.21597e-07
-2.58645e-07
-5.65666e-07
2.17899e-07
-2.96552e-07
-5.52192e-07
1.48444e-07
-3.2251e-07
-5.04859e-07
9.61813e-08
-3.46056e-07
-4.39751e-07
6.921e-08
-3.60429e-07
-3.70493e-07
5.79611e-08
-3.71695e-07
-3.04679e-07
5.66361e-08
-3.78362e-07
-2.44438e-07
5.97756e-08
-3.82307e-07
-1.89365e-07
6.77471e-08
-3.84073e-07
-1.3932e-07
8.02555e-08
-3.83669e-07
-9.51558e-08
9.61437e-08
-3.80949e-07
-5.7852e-08
1.15176e-07
-3.76491e-07
-2.80658e-08
1.37735e-07
-3.71263e-07
-5.63394e-09
1.62371e-07
-3.66089e-07
1.08702e-08
1.85423e-07
-3.61064e-07
2.34935e-08
2.04349e-07
-3.56793e-07
3.28644e-08
2.20719e-07
-3.53466e-07
3.86776e-08
2.37894e-07
-3.50793e-07
4.03991e-08
2.56079e-07
-3.4891e-07
3.87725e-08
2.70599e-07
-3.47263e-07
3.5741e-08
2.78782e-07
-3.4539e-07
3.3527e-08
2.79787e-07
-3.43587e-07
3.23176e-08
2.73606e-07
-3.41713e-07
2.91587e-08
2.61453e-07
-3.39218e-07
2.13971e-08
2.48638e-07
-3.36978e-07
9.37178e-09
2.4512e-07
-3.35818e-07
4.91527e-10
2.41233e-07
-3.31824e-07
1.96651e-08
1.64061e-07
-3.23883e-07
7.88379e-08
-7.08889e-08
-3.04309e-07
1.05674e-07
-3.95546e-07
-2.5031e-07
-7.69794e-09
-6.23122e-07
-1.45183e-07
-2.36295e-07
-8.44903e-07
-4.25498e-08
-5.01407e-07
-1.18313e-06
2.62278e-08
-8.85835e-07
-1.25748e-06
1.65059e-07
-1.34679e-06
-1.23609e-06
2.53305e-07
-1.87261e-06
-1.63308e-06
4.7023e-07
-2.25337e-06
-2.6792e-06
4.98325e-07
-2.12716e-06
-2.45267e-06
-2.74607e-07
2.69058e-06
-8.85773e-06
-1.08918e-06
8.80464e-06
-2.00422e-05
1.15625e-06
8.85112e-06
-2.37721e-05
1.82103e-06
7.75406e-06
-2.25779e-05
1.05856e-06
4.63061e-06
-1.89425e-05
2.02948e-06
-4.12346e-06
-6.66639e-06
1.98558e-06
9.64566e-06
2.11687e-07
-1.7571e-05
1.28392e-05
1.06431e-05
-1.326e-05
7.58362e-07
5.21886e-05
1.94587e-06
-5.35842e-07
-3.60908e-06
-1.78352e-06
-1.01629e-05
-1.05128e-05
-8.54283e-07
-1.75422e-05
2.52086e-06
3.37954e-06
-2.12303e-05
3.23261e-06
9.73538e-07
-2.34736e-05
8.346e-06
2.87881e-06
-2.60129e-05
3.11953e-06
3.47006e-06
-2.64468e-05
-3.02136e-07
2.76368e-06
-2.68476e-05
-5.52611e-06
3.33005e-06
-2.65027e-05
-9.66868e-06
3.43417e-06
-2.66174e-05
-1.19602e-05
3.50734e-06
-2.72261e-05
-1.38648e-05
3.58372e-06
-2.76198e-05
-1.59172e-05
3.19744e-06
-2.80459e-05
-1.73082e-05
3.04277e-06
-2.77121e-05
-1.83604e-05
2.11642e-06
-2.73722e-05
-1.86234e-05
1.79531e-06
-2.72292e-05
-1.85361e-05
2.19335e-06
-2.75386e-05
-1.7921e-05
2.66999e-06
-2.79924e-05
-1.6369e-05
3.31806e-06
-2.78263e-05
-1.40202e-05
4.15706e-06
-2.67087e-05
-1.17793e-05
4.40994e-06
-2.46202e-05
-9.74149e-06
3.9178e-06
-2.16153e-05
-8.12859e-06
2.68847e-06
-1.82956e-05
-6.96593e-06
1.36154e-06
-1.45369e-05
-5.76175e-06
-3.40716e-07
-1.09712e-05
-5.66505e-06
-2.09697e-06
-7.03137e-06
-5.60317e-06
-3.36189e-06
-2.79313e-06
-5.57178e-06
-4.8371e-06
1.12977e-06
-5.66285e-06
-5.65391e-06
4.48729e-06
-5.76486e-06
-5.60966e-06
5.71573e-06
-4.4525e-06
-4.68491e-06
4.51675e-06
-4.22073e-06
-2.45657e-06
3.20531e-06
-4.73607e-06
-1.30417e-06
2.89478e-06
-3.00452e-06
-1.23138e-06
3.01706e-06
-4.44273e-07
-2.24006e-06
3.57396e-06
-1.00124e-06
-9.48246e-07
2.05385e-06
-1.06423e-06
7.03741e-07
-4.85776e-06
1.99157e-06
-3.38666e-06
-3.68724e-06
1.71536e-08
-2.33235e-06
-4.64899e-06
-9.01786e-07
-2.04428e-06
-3.57451e-06
-4.21869e-08
-1.37352e-06
-3.79492e-06
-1.19116e-07
-8.58109e-07
-2.77919e-06
3.08673e-07
-3.48946e-07
-1.92399e-06
2.34041e-07
-1.75627e-07
-3.72774e-07
-1.0983e-07
-2.36387e-07
1.51905e-07
-1.61549e-07
-2.15726e-07
3.38903e-07
-2.11585e-07
-2.23344e-07
5.2029e-07
-2.03381e-07
-2.4018e-07
6.40059e-07
-2.17826e-07
-3.15402e-07
6.65104e-07
-2.19156e-07
-4.27551e-07
6.62106e-07
-2.28368e-07
-5.01898e-07
5.46263e-07
-2.54028e-07
-5.19351e-07
4.43487e-07
-2.77599e-07
-4.92797e-07
3.72419e-07
-3.02802e-07
-4.43063e-07
3.41676e-07
-3.22209e-07
-3.87766e-07
3.42111e-07
-3.39458e-07
-3.33599e-07
3.55813e-07
-3.53354e-07
-2.81831e-07
3.72599e-07
-3.64604e-07
-2.31066e-07
3.90431e-07
-3.73459e-07
-1.80337e-07
4.09457e-07
-3.79942e-07
-1.32032e-07
4.3059e-07
-3.82762e-07
-8.804e-08
4.53136e-07
-3.81965e-07
-4.97188e-08
4.77108e-07
-3.77705e-07
-1.82886e-08
5.0117e-07
-3.70241e-07
6.29742e-09
5.2193e-07
-3.61105e-07
2.40894e-08
5.38049e-07
-3.51505e-07
3.37047e-08
5.52826e-07
-3.41734e-07
3.39998e-08
5.69856e-07
-3.3227e-07
2.55535e-08
5.88282e-07
-3.23769e-07
1.04449e-08
6.02503e-07
-3.16809e-07
-8.40485e-09
6.09628e-07
-3.12009e-07
-2.84787e-08
6.09612e-07
-3.09764e-07
-5.00088e-08
6.04181e-07
-3.09057e-07
-7.65005e-08
5.96394e-07
-3.08462e-07
-1.08822e-07
5.88515e-07
-3.07567e-07
-1.35649e-07
5.78957e-07
-3.07024e-07
-1.34947e-07
5.41769e-07
-3.01251e-07
-9.01412e-08
3.96648e-07
-2.77406e-07
-3.10178e-08
8.43289e-08
-2.14355e-07
-2.81772e-08
-2.68771e-07
-1.29629e-07
-1.21685e-07
-4.94991e-07
-3.46358e-08
-2.9121e-07
-6.76492e-07
1.10094e-09
-4.5537e-07
-9.52227e-07
-6.67595e-08
-6.25766e-07
-9.94077e-07
-9.30193e-08
-9.25702e-07
-9.40773e-07
4.61219e-09
-1.40209e-06
-1.47819e-06
3.21492e-07
-1.70617e-06
-2.6987e-06
3.2358e-07
-1.73198e-07
-3.08241e-06
-9.03234e-07
2.90143e-06
-1.14833e-05
-4.49054e-07
8.0493e-07
-1.99992e-05
2.05349e-06
-7.46861e-06
-1.77058e-05
2.20719e-06
-1.82434e-05
-1.49188e-05
3.11565e-06
-3.37221e-05
-1.00109e-05
6.54718e-06
-3.75739e-05
-4.47115e-07
-2.36739e-06
-3.76533e-05
1.22233e-05
-1.19321e-05
-3.45433e-05
2.16501e-05
-1.41172e-05
1.11148e-06
3.55993e-05
-1.90666e-05
7.03185e-07
-1.70048e-06
-1.49994e-06
-1.23957e-05
1.30924e-06
1.27724e-06
-2.0008e-05
6.30241e-06
3.83114e-06
-2.49008e-05
7.50987e-06
6.15983e-07
-2.55908e-05
8.70042e-06
3.36053e-07
-2.7618e-05
4.96535e-06
1.81842e-07
-2.84701e-05
-2.69121e-07
8.19601e-07
-3.03812e-05
-5.49135e-06
1.87675e-06
-3.163e-05
-1.10308e-05
2.61119e-06
-3.30546e-05
-1.38218e-05
3.28642e-06
-3.42468e-05
-1.58295e-05
3.15705e-06
-3.48352e-05
-1.78385e-05
2.50979e-06
-3.48624e-05
-1.8092e-05
8.1116e-07
-3.40342e-05
-1.8193e-05
-9.95517e-07
-3.32133e-05
-1.76752e-05
-1.76899e-06
-3.23405e-05
-1.70668e-05
-2.34206e-06
-3.16476e-05
-1.62132e-05
-2.40073e-06
-3.10707e-05
-1.47605e-05
-2.18544e-06
-3.02156e-05
-1.31281e-05
-1.74716e-06
-2.88008e-05
-1.15403e-05
-1.65391e-06
-2.63706e-05
-9.9417e-06
-2.22999e-06
-2.34418e-05
-8.18659e-06
-2.87076e-06
-2.03185e-05
-6.10511e-06
-3.98412e-06
-1.6483e-05
-4.16569e-06
-5.43159e-06
-1.18242e-05
-2.94076e-06
-7.38306e-06
-6.76295e-06
-1.7183e-06
-8.94613e-06
-1.67792e-06
-1.08496e-06
-9.57185e-06
2.95485e-06
-3.43579e-07
-9.95204e-06
7.1674e-06
-3.27916e-07
-9.6495e-06
1.08723e-05
1.29739e-06
-9.45481e-06
1.14861e-05
2.8877e-06
-7.72216e-06
9.46146e-06
2.07169e-06
-4.78316e-06
6.47439e-06
2.56405e-06
-2.58151e-06
5.99568e-06
4.58202e-06
-4.54758e-06
6.65023e-06
3.02565e-06
-4.68144e-06
5.35181e-06
1.27767e-06
-1.04348e-06
-3.05663e-06
3.55068e-06
-3.81343e-06
-3.48994e-06
3.97883e-07
-2.82865e-06
-4.81733e-06
-8.16441e-07
-2.52159e-06
-3.72165e-06
-1.59926e-07
-1.63777e-06
-4.06766e-06
-6.11088e-07
-1.08839e-06
-3.423e-06
9.44211e-08
-4.33325e-07
-2.75502e-06
1.75955e-07
-1.31733e-07
-6.47385e-07
-2.69911e-08
-1.83242e-07
2.78305e-07
-7.48982e-08
-1.21694e-07
4.73374e-07
-1.96027e-07
-1.16683e-07
6.98067e-07
-1.82795e-07
-1.10057e-07
8.35894e-07
-2.02469e-07
-1.97022e-07
9.4155e-07
-1.89488e-07
-3.45946e-07
9.93441e-07
-1.8242e-07
-4.52183e-07
8.53443e-07
-2.00949e-07
-4.75342e-07
6.99599e-07
-2.32962e-07
-4.47552e-07
6.11194e-07
-2.66572e-07
-3.9902e-07
5.86884e-07
-2.93749e-07
-3.53272e-07
6.10344e-07
-3.13988e-07
-3.15716e-07
6.47684e-07
-3.29436e-07
-2.83097e-07
6.81437e-07
-3.41463e-07
-2.5057e-07
7.08719e-07
-3.50823e-07
-2.15683e-07
7.31494e-07
-3.56931e-07
-1.79807e-07
7.5334e-07
-3.58634e-07
-1.44462e-07
7.74379e-07
-3.56596e-07
-1.1307e-07
7.9637e-07
-3.50661e-07
-8.79649e-08
8.17203e-07
-3.41147e-07
-6.73528e-08
8.30011e-07
-3.28702e-07
-5.13518e-08
8.36959e-07
-3.14918e-07
-4.17444e-08
8.43347e-07
-3.00137e-07
-4.12749e-08
8.54635e-07
-2.85255e-07
-5.14812e-08
8.70051e-07
-2.7157e-07
-7.11202e-08
8.82072e-07
-2.59937e-07
-9.8024e-08
8.87338e-07
-2.50814e-07
-1.29381e-07
8.85154e-07
-2.44191e-07
-1.63749e-07
8.77522e-07
-2.38979e-07
-2.01985e-07
8.68784e-07
-2.34159e-07
-2.41934e-07
8.57295e-07
-2.28838e-07
-2.67566e-07
8.26992e-07
-2.22408e-07
-2.5875e-07
7.39108e-07
-2.0616e-07
-2.0765e-07
5.17238e-07
-1.71696e-07
-1.59716e-07
1.47047e-07
-1.10657e-07
-1.50656e-07
-2.43976e-07
-3.38594e-08
-1.86769e-07
-4.77782e-07
1.89005e-08
-2.8192e-07
-6.03824e-07
2.24803e-08
-3.93037e-07
-7.69742e-07
-7.13687e-08
-4.64832e-07
-7.04741e-07
-2.1754e-07
-6.23013e-07
-6.03365e-07
-1.79224e-07
-1.07226e-06
-1.23532e-06
2.06384e-07
-1.85994e-06
-2.07523e-06
1.64217e-07
2.48709e-07
-3.99592e-06
-1.19513e-06
-1.08818e-06
-1.03601e-05
2.13655e-07
-1.03523e-05
-1.23928e-05
1.65767e-06
-2.16217e-05
-7.59765e-06
1.16133e-06
-3.69546e-05
-2.73071e-06
3.14489e-06
-5.27231e-05
3.28394e-06
2.47382e-06
-5.90644e-05
9.63304e-06
-3.73878e-06
-6.45916e-05
2.08034e-05
-3.05271e-06
-5.06374e-05
1.99298e-05
-1.2234e-05
3.46756e-06
7.94814e-06
-2.64549e-05
2.20626e-07
-4.7729e-07
2.02402e-06
-1.62099e-05
1.63077e-05
1.43321e-06
-2.15376e-05
7.35612e-06
4.27551e-06
-2.58452e-05
1.1883e-05
-6.40579e-08
-2.46436e-05
9.74641e-06
-2.24594e-06
-2.34524e-05
6.44784e-06
-2.67216e-06
-2.39386e-05
2.08884e-07
9.64238e-09
-2.80913e-05
-3.4492e-06
2.11211e-06
-3.30085e-05
-9.47295e-06
3.36068e-06
-3.69587e-05
-1.32041e-05
3.33382e-06
-3.85484e-05
-1.60101e-05
1.77134e-06
-3.95724e-05
-1.75844e-05
7.70929e-07
-3.97133e-05
-1.68897e-05
-1.06064e-06
-3.92913e-05
-1.67674e-05
-1.847e-06
-3.88748e-05
-1.59272e-05
-2.16407e-06
-3.81413e-05
-1.47566e-05
-3.04332e-06
-3.72319e-05
-1.39566e-05
-3.1657e-06
-3.59516e-05
-1.29528e-05
-3.08777e-06
-3.44963e-05
-1.18044e-05
-2.77887e-06
-3.32767e-05
-1.03013e-05
-2.45857e-06
-3.20797e-05
-8.08641e-06
-3.0522e-06
-3.04948e-05
-5.88161e-06
-3.88979e-06
-2.76409e-05
-3.60106e-06
-5.35791e-06
-2.32382e-05
-9.50731e-07
-7.61766e-06
-1.84139e-05
1.45832e-06
-9.22336e-06
-1.36874e-05
3.42579e-06
-9.87063e-06
-9.18523e-06
3.92468e-06
-9.5118e-06
-4.32356e-06
3.53425e-06
-8.7395e-06
2.91695e-07
2.52087e-06
-7.46404e-06
5.98695e-06
2.08007e-06
-6.47794e-06
1.01855e-05
4.57277e-06
-5.88361e-06
1.10854e-05
4.33879e-06
-3.16704e-06
1.00105e-05
5.66089e-06
-2.02186e-06
9.12629e-06
8.95195e-06
-3.48576e-06
9.11979e-06
9.20314e-06
-6.17099e-06
7.2865e-06
7.65662e-06
-4.54565e-06
2.11784e-06
2.11203e-06
-4.15021e-06
-3.13857e-06
8.38384e-07
-3.32409e-06
-4.84501e-06
-7.98431e-07
-3.03018e-06
-3.67878e-06
-3.36784e-07
-1.84907e-06
-4.05591e-06
-1.19287e-06
-1.12601e-06
-3.68262e-06
-4.63442e-07
-3.42078e-07
-3.20107e-06
-3.37886e-07
4.593e-09
-8.84781e-07
-1.0928e-07
-1.07052e-07
4.28666e-07
-3.87222e-08
-2.7137e-08
6.23008e-07
-2.29554e-07
-4.57293e-08
9.07613e-07
-1.9096e-07
-4.60827e-08
1.04662e-06
-2.10383e-07
-1.45102e-07
1.19886e-06
-1.58299e-07
-2.82606e-07
1.2682e-06
-1.37262e-07
-3.63929e-07
1.09975e-06
-1.6499e-07
-3.73469e-07
9.27538e-07
-2.18404e-07
-3.43844e-07
8.41087e-07
-2.59523e-07
-3.06475e-07
8.36805e-07
-2.87293e-07
-2.82486e-07
8.87724e-07
-3.01374e-07
-2.73118e-07
9.47593e-07
-3.09279e-07
-2.71359e-07
9.94866e-07
-3.15192e-07
-2.71441e-07
1.02841e-06
-3.19613e-07
-2.69481e-07
1.05134e-06
-3.21812e-07
-2.63947e-07
1.06819e-06
-3.20389e-07
-2.55446e-07
1.08075e-06
-3.14874e-07
-2.4836e-07
1.09338e-06
-3.04095e-07
-2.44403e-07
1.10364e-06
-2.90395e-07
-2.38323e-07
1.10122e-06
-2.77287e-07
-2.30263e-07
1.0934e-06
-2.64503e-07
-2.22062e-07
1.0867e-06
-2.51554e-07
-2.18601e-07
1.08965e-06
-2.38479e-07
-2.25079e-07
1.10233e-06
-2.25799e-07
-2.41391e-07
1.11262e-06
-2.14233e-07
-2.64437e-07
1.11441e-06
-2.04024e-07
-2.89339e-07
1.10555e-06
-1.95492e-07
-3.11766e-07
1.08787e-06
-1.87921e-07
-3.30982e-07
1.06759e-06
-1.79586e-07
-3.50548e-07
1.04431e-06
-1.67444e-07
-3.68457e-07
9.95752e-07
-1.50845e-07
-3.71531e-07
8.69646e-07
-1.27457e-07
-3.46988e-07
5.90567e-07
-9.7864e-08
-3.03647e-07
1.64521e-07
-6.08064e-08
-2.61715e-07
-2.46545e-07
-3.9353e-08
-2.11163e-07
-5.00953e-07
-2.73696e-08
-1.75894e-07
-6.11735e-07
-2.73439e-08
-1.84987e-07
-7.03524e-07
-5.71098e-08
-3.16142e-07
-4.81133e-07
-9.24355e-08
-5.73168e-07
-3.02476e-07
-4.38434e-08
-9.1291e-07
-9.7e-07
7.444e-08
-1.32597e-06
-1.46872e-06
-1.93428e-07
-1.30016e-06
-2.89105e-06
-1.13066e-06
-6.66818e-06
-5.1668e-06
1.74796e-07
-1.52342e-05
-3.56833e-06
-2.58382e-07
-2.12827e-05
1.2986e-06
-2.8477e-06
-2.60624e-05
6.67812e-06
-4.62909e-06
-3.242e-05
1.23287e-05
-2.68695e-06
-3.51731e-05
1.50247e-05
-2.63844e-06
-4.19373e-05
2.94051e-05
-1.83737e-06
-3.27795e-05
2.20054e-05
-1.12336e-05
5.3696e-07
-9.64095e-06
-1.57286e-05
-1.62896e-07
-5.18609e-07
7.41514e-07
-5.77257e-06
2.27603e-05
-8.41076e-07
-2.08364e-05
1.52905e-05
7.132e-06
-2.331e-05
1.66116e-05
-2.25277e-06
-2.08496e-05
1.10171e-05
-3.72866e-06
-1.64906e-05
5.52496e-06
-3.43394e-06
-1.32411e-05
-3.02261e-06
-1.58076e-08
-1.43762e-05
-3.85104e-06
1.53913e-06
-1.93755e-05
-7.73489e-06
3.26341e-06
-2.89576e-05
-7.60664e-06
3.98692e-06
-3.76029e-05
-9.27983e-06
1.91742e-06
-4.14514e-05
-1.39372e-05
2.03525e-07
-4.26681e-05
-1.46341e-05
-1.03675e-06
-4.26897e-05
-1.47015e-05
-2.04219e-06
-4.27693e-05
-1.36914e-05
-2.15448e-06
-4.19174e-05
-1.27614e-05
-2.84553e-06
-4.03283e-05
-1.24752e-05
-3.06922e-06
-3.79077e-05
-1.28933e-05
-2.47909e-06
-3.54015e-05
-1.27816e-05
-1.52821e-06
-3.32527e-05
-1.17481e-05
-7.01343e-07
-3.16604e-05
-9.6005e-06
-7.77388e-08
-3.0763e-05
-6.74517e-06
-3.34509e-08
-2.95308e-05
-4.07538e-06
-7.57472e-07
-2.66546e-05
-2.29064e-06
-1.53602e-06
-2.31854e-05
-7.56184e-07
-1.25445e-06
-1.95823e-05
-7.83378e-08
-9.87762e-08
-1.70132e-05
-9.38197e-07
2.29408e-06
-1.35298e-05
-3.64329e-06
3.69432e-06
-9.7338e-06
-5.90205e-06
4.62708e-06
-4.19416e-06
-6.20532e-06
2.74587e-06
3.57865e-06
-2.15068e-06
-1.04928e-06
7.75136e-06
3.75822e-07
-2.0968e-07
8.87366e-06
4.97995e-06
-4.41282e-07
9.11885e-06
1.11858e-05
-2.47901e-06
1.03109e-05
1.32109e-05
-5.19973e-06
8.81176e-06
1.44326e-05
-5.27679e-06
1.11341e-05
-2.04462e-07
-4.06528e-06
-2.64894e-06
1.48693e-06
-3.64347e-06
-4.49103e-06
-7.75796e-07
-3.64407e-06
-3.4255e-06
-2.5269e-07
-2.36895e-06
-3.90276e-06
-1.42827e-06
-1.34808e-06
-3.7815e-06
-9.21994e-07
-2.66906e-07
-3.38934e-06
-8.92917e-07
1.34039e-07
-1.15137e-06
-1.34363e-07
1.68071e-08
4.97541e-07
4.83526e-08
4.71706e-08
8.79136e-07
-2.86496e-07
-5.0735e-08
1.20356e-06
-1.98045e-07
-7.40997e-08
1.29814e-06
-2.28159e-07
-1.1755e-07
1.42245e-06
-1.80137e-07
-1.34485e-07
1.48143e-06
-1.96291e-07
-1.39977e-07
1.35851e-06
-2.53266e-07
-1.42877e-07
1.25538e-06
-3.24941e-07
-1.55787e-07
1.23171e-06
-3.7771e-07
-1.81334e-07
1.27663e-06
-4.14279e-07
-2.17629e-07
1.35824e-06
-4.34224e-07
-2.60356e-07
1.43855e-06
-4.48225e-07
-3.08171e-07
1.50241e-06
-4.59731e-07
-3.51352e-07
1.5402e-06
-4.68608e-07
-3.83823e-07
1.55859e-06
-4.74771e-07
-4.06981e-07
1.56934e-06
-4.77985e-07
-4.219e-07
1.57439e-06
-4.78711e-07
-4.29145e-07
1.5775e-06
-4.76875e-07
-4.30609e-07
1.57779e-06
-4.72676e-07
-4.30012e-07
1.56907e-06
-4.68443e-07
-4.24944e-07
1.55302e-06
-4.64676e-07
-4.1569e-07
1.53749e-06
-4.6003e-07
-4.09726e-07
1.53728e-06
-4.53583e-07
-4.1521e-07
1.5529e-06
-4.45077e-07
-4.29136e-07
1.56407e-06
-4.37517e-07
-4.46719e-07
1.56424e-06
-4.32237e-07
-4.62955e-07
1.55053e-06
-4.28733e-07
-4.73548e-07
1.52405e-06
-4.2557e-07
-4.76092e-07
1.49089e-06
-4.20739e-07
-4.72283e-07
1.45171e-06
-4.11192e-07
-4.64386e-07
1.38603e-06
-3.98152e-07
-4.473e-07
1.23981e-06
-3.87225e-07
-4.12866e-07
9.40733e-07
-3.84577e-07
-3.54317e-07
5.00116e-07
-3.9412e-07
-3.01433e-07
1.02269e-07
-4.01671e-07
-2.18741e-07
-1.71856e-07
-4.11758e-07
-8.21827e-08
-3.40704e-07
-4.07556e-07
-4.09272e-08
-3.75636e-07
-3.69107e-07
-3.3445e-07
-8.93671e-09
-1.78636e-07
-8.42571e-07
1.15354e-07
9.03311e-08
-1.34916e-06
-4.96804e-07
3.34362e-08
-1.35465e-06
-6.01022e-07
-8.62163e-07
-4.86404e-06
3.01406e-06
-2.39567e-06
-1.58237e-05
8.35007e-06
-2.55714e-06
-2.45939e-05
8.88805e-06
-3.68606e-06
-3.01081e-05
1.2252e-05
-5.43916e-06
-3.30378e-05
1.47312e-05
-5.12316e-06
-3.36931e-05
1.69856e-05
-4.0015e-06
-2.85558e-05
1.31274e-05
-3.23979e-06
3.2428e-06
6.22991e-06
-8.62304e-06
1.11238e-05
1.77667e-05
-3.64256e-06
-1.3017e-06
-1.13063e-05
1.40891e-05
-1.21398e-06
4.01818e-06
-4.62432e-06
-8.02646e-06
3.48878e-05
-5.31294e-06
-2.28629e-05
2.07922e-05
9.33755e-06
-2.4706e-05
2.12001e-05
-2.74287e-06
-1.86603e-05
8.64879e-06
-3.67485e-06
-1.31216e-05
3.8008e-06
-3.81221e-06
-9.81407e-06
-7.45739e-06
1.12965e-06
-8.84536e-06
-6.76655e-06
1.94919e-06
-9.08983e-06
-9.08002e-06
1.59208e-06
-1.10149e-05
-9.04419e-06
3.36521e-06
-1.81105e-05
-7.01451e-06
4.83312e-06
-2.88959e-05
-6.5397e-06
3.39088e-06
-3.80054e-05
-5.09971e-06
-4.2175e-07
-4.25025e-05
-8.17991e-06
-2.02141e-06
-4.45251e-05
-7.95543e-06
-3.71028e-06
-4.5077e-05
-7.70337e-06
-4.50321e-06
-4.51672e-05
-7.85593e-06
-4.52637e-06
-4.46761e-05
-9.66184e-06
-3.72007e-06
-4.31739e-05
-1.12017e-05
-3.07966e-06
-4.04758e-05
-1.13784e-05
-3.06564e-06
-3.59429e-05
-1.12462e-05
-2.8852e-06
-2.94741e-05
-1.07459e-05
-2.4663e-06
-2.3619e-05
-9.16835e-06
-7.6052e-07
-1.99545e-05
-7.56802e-06
1.6145e-06
-1.84638e-05
-5.86214e-06
3.61682e-06
-1.72004e-05
-6.42091e-06
5.08081e-06
-1.62867e-05
-7.67093e-06
5.82065e-06
-1.58185e-05
-1.04799e-05
6.37007e-06
-1.56345e-05
-1.41431e-05
8.05896e-06
-1.56854e-05
-1.50125e-05
8.86016e-06
-1.49046e-05
-1.12491e-05
8.31991e-06
-1.25291e-05
-6.39535e-06
4.39798e-06
-1.14736e-05
3.94768e-06
-2.07299e-08
-9.53447e-06
1.14834e-05
-2.23436e-06
-5.42459e-06
1.40286e-05
-4.92583e-06
2.61112e-07
1.46636e-05
-5.9159e-06
1.21151e-05
-7.19835e-07
-3.4479e-06
-1.54817e-06
2.46366e-06
-3.77357e-06
-4.08206e-06
-8.32966e-08
-4.2715e-06
-3.13253e-06
2.04969e-07
-3.12992e-06
-3.89868e-06
-1.14566e-06
-1.92633e-06
-3.97235e-06
-1.01274e-06
-4.60533e-07
-3.71014e-06
-1.145e-06
1.33312e-07
-1.64567e-06
-9.95414e-08
5.76634e-09
2.3253e-07
3.92554e-07
5.4521e-09
8.24187e-07
5.5262e-08
-9.8068e-08
1.14955e-06
1.57528e-07
-7.87033e-08