/*--------------------------------*- C++ -*----------------------------------*\
| =========                 |                                                 |
| \\      /  F ield         | OpenFOAM: The Open Source CFD Toolbox           |
|  \\    /   O peration     | Version:  2.3.0                                 |
|   \\  /    A nd           | Web:      www.OpenFOAM.org                      |
|    \\/     M anipulation  |                                                 |
\*---------------------------------------------------------------------------*/
FoamFile
{
    version     2.0;
    format      ascii;
    class       surfaceScalarField;
    location    "62";
    object      phi.water;
}
// * * * * * * * * * * * * * * * * * * * * * * * * * * * * * * * * * * * * * //

dimensions      [0 3 -1 0 0 0 0];

internalField   nonuniform List<scalar> 
16448
(
-1.16711e-06
-2.43995e-06
5.90796e-07
6.24083e-07
-2.56814e-06
7.81569e-07
6.76813e-07
-1.2531e-06
1.2041e-06
6.31283e-07
-1.04703e-06
1.0959e-06
3.02258e-07
-5.54609e-07
8.89464e-07
1.81499e-07
-6.43443e-07
7.72774e-07
1.62064e-07
-6.54773e-07
6.83542e-07
1.57058e-07
-6.42673e-07
6.56024e-07
7.29905e-08
-4.96722e-07
5.86895e-07
-1.13004e-07
-3.44183e-07
5.32706e-07
-3.33297e-07
-2.52998e-07
4.73869e-07
-4.57432e-07
-2.60725e-07
3.84942e-07
-4.69238e-07
-2.99481e-07
3.1152e-07
-3.85165e-07
-3.4522e-07
2.61313e-07
-2.73636e-07
-3.65333e-07
2.54054e-07
-1.4995e-07
-3.85204e-07
2.61734e-07
-3.48108e-08
-3.99401e-07
2.84525e-07
6.62383e-08
-4.13731e-07
3.12929e-07
1.46071e-07
-4.2623e-07
3.46663e-07
2.02668e-07
-4.35812e-07
3.79473e-07
2.33331e-07
-4.41089e-07
4.10697e-07
2.41526e-07
-4.45085e-07
4.3715e-07
2.35118e-07
-4.47989e-07
4.54664e-07
2.20695e-07
-4.46187e-07
4.60865e-07
2.02923e-07
-4.39398e-07
4.5744e-07
1.86269e-07
-4.2873e-07
4.45647e-07
1.75336e-07
-4.16537e-07
4.27751e-07
1.74913e-07
-4.0762e-07
4.08316e-07
1.85981e-07
-3.98954e-07
3.88178e-07
2.05615e-07
-3.89766e-07
3.70415e-07
2.30784e-07
-3.80672e-07
3.55807e-07
2.60295e-07
-3.73076e-07
3.43856e-07
2.93578e-07
-3.67612e-07
3.34642e-07
3.31045e-07
-3.65192e-07
3.28022e-07
3.74991e-07
-3.67287e-07
3.23665e-07
4.27238e-07
-3.74314e-07
3.22374e-07
4.84336e-07
-3.83453e-07
3.26694e-07
5.32583e-07
-3.88665e-07
3.40742e-07
5.56136e-07
-3.89476e-07
3.66299e-07
5.43572e-07
-4.01195e-07
4.14124e-07
5.06831e-07
-4.43436e-07
4.80781e-07
5.52664e-07
-5.85355e-07
5.42042e-07
7.77007e-07
-8.26875e-07
6.10497e-07
1.10318e-06
-1.0689e-06
7.59207e-07
1.30876e-06
-1.18169e-06
1.00431e-06
1.35027e-06
-1.22061e-06
1.22e-06
1.27595e-06
-1.20525e-06
1.33029e-06
1.21176e-06
-1.32501e-06
1.43312e-06
1.5606e-06
-1.81093e-06
1.50707e-06
2.03172e-06
-1.94952e-06
1.5332e-06
1.64398e-06
-1.36117e-06
1.85646e-06
4.4092e-07
-1.00089e-06
2.28462e-06
3.10066e-06
-6.15891e-06
3.55776e-06
8.88385e-06
-1.12842e-05
5.45477e-06
1.45702e-05
-1.21362e-05
6.50693e-06
1.91509e-05
-1.02098e-05
5.45215e-06
1.71085e-05
-4.09246e-06
6.34176e-06
1.53454e-05
1.82844e-07
6.83988e-07
2.05106e-06
1.14371e-05
1.21226e-05
3.05901e-05
-4.11874e-06
-3.18134e-06
2.54434e-05
-1.856e-05
-5.46358e-06
3.07275e-05
-9.21779e-06
2.79926e-06
2.64162e-05
7.95533e-07
3.5132e-06
2.78592e-05
-1.97952e-06
5.36546e-07
2.82693e-05
-1.35351e-06
9.43388e-07
2.72129e-05
-1.23719e-06
2.29362e-06
2.48127e-05
-6.30299e-07
3.03051e-06
2.24023e-05
-1.7673e-06
4.17771e-06
1.96294e-05
-2.343e-06
5.1159e-06
1.74645e-05
-2.74926e-06
4.91409e-06
1.683e-05
-3.73419e-06
4.36876e-06
1.74895e-05
-4.41931e-06
3.75978e-06
1.93354e-05
-5.21606e-06
3.37013e-06
2.21331e-05
-5.88325e-06
3.08556e-06
2.52733e-05
-5.72849e-06
2.58829e-06
2.78835e-05
-5.18125e-06
2.571e-06
2.94215e-05
-3.49996e-06
1.96199e-06
2.98911e-05
-1.50322e-06
1.03361e-06
2.94236e-05
-1.16037e-07
5.83512e-07
2.83689e-05
2.40697e-07
8.14041e-07
2.58164e-05
1.56332e-06
9.8915e-07
2.10981e-05
3.45476e-06
1.26357e-06
1.65636e-05
2.67417e-06
1.86035e-06
1.20505e-05
1.6428e-06
2.8703e-06
5.80351e-06
3.27909e-06
2.96786e-06
1.4067e-06
1.63307e-06
2.76374e-06
1.16064e-06
-3.11298e-06
3.35905e-06
1.83909e-06
-4.91668e-06
4.23822e-06
2.12741e-06
-5.19338e-06
4.90507e-06
2.60766e-06
-5.52302e-06
5.04277e-06
2.16319e-06
-4.22142e-06
4.66588e-06
4.93256e-07
-2.26888e-06
3.93881e-06
-1.39898e-06
-1.61965e-06
3.51188e-06
-2.38815e-06
-6.03962e-07
1.59313e-06
-1.85675e-06
-1.19986e-06
6.68454e-07
-1.10952e-06
-7.47224e-07
-1.88661e-06
-3.44898e-06
-1.98579e-07
-4.7172e-07
-3.79896e-06
-1.76045e-07
-1.13663e-07
-2.31411e-06
7.09595e-07
2.90799e-07
-1.89956e-06
4.53698e-07
3.9503e-07
-9.41747e-07
2.89506e-07
3.33958e-07
-8.07296e-07
2.32144e-07
2.30236e-07
-6.82195e-07
1.39576e-07
1.29243e-07
-6.24947e-07
9.10259e-08
-2.2051e-08
-4.06322e-07
6.62204e-08
-2.55224e-07
-2.06516e-07
9.72941e-08
-4.93679e-07
-1.13246e-07
9.89216e-08
-6.09321e-07
-1.72853e-07
2.74687e-08
-6.18787e-07
-2.54276e-07
-3.58447e-08
-5.37523e-07
-3.37475e-07
-8.91197e-08
-4.19902e-07
-3.77378e-07
-1.05609e-07
-2.86495e-07
-4.10604e-07
-1.0806e-07
-1.58604e-07
-4.31442e-07
-9.58684e-08
-4.33467e-08
-4.50288e-07
-7.87366e-08
5.22868e-08
-4.64881e-07
-5.70108e-08
1.25682e-07
-4.74643e-07
-3.45984e-08
1.74338e-07
-4.77245e-07
-1.25566e-08
1.99354e-07
-4.75426e-07
5.26594e-09
2.08398e-07
-4.70594e-07
1.35115e-08
2.07066e-07
-4.61032e-07
1.6136e-08
1.9992e-07
-4.46278e-07
1.39757e-08
1.90904e-07
-4.2775e-07
7.98253e-09
1.83719e-07
-4.08369e-07
-1.05557e-09
1.84303e-07
-3.92389e-07
-1.58655e-08
1.94698e-07
-3.78422e-07
-3.09658e-08
2.13617e-07
-3.64095e-07
-4.4611e-08
2.38741e-07
-3.49744e-07
-5.60692e-08
2.68639e-07
-3.37818e-07
-6.51577e-08
3.01892e-07
-3.29448e-07
-7.14199e-08
3.37073e-07
-3.25908e-07
-7.44507e-08
3.74618e-07
-3.29645e-07
-7.51687e-08
4.1605e-07
-3.42028e-07
-7.36776e-08
4.5841e-07
-3.57859e-07
-6.79031e-08
4.88469e-07
-3.65335e-07
-5.33113e-08
4.86982e-07
-3.62833e-07
-2.50853e-08
4.54617e-07
-3.81816e-07
1.31159e-08
4.53665e-07
-4.83709e-07
4.21246e-08
5.44345e-07
-7.35186e-07
6.25922e-08
6.65331e-07
-1.05042e-06
1.11554e-07
7.16297e-07
-1.33132e-06
2.3027e-07
6.60838e-07
-1.53866e-06
4.43452e-07
2.81564e-07
-1.56678e-06
7.60399e-07
-2.32941e-07
-1.49675e-06
8.37411e-07
-6.87383e-07
-1.60393e-06
7.58531e-07
-8.03253e-07
-2.40222e-06
7.62033e-07
-9.64714e-07
-2.62714e-06
9.04367e-07
-7.30503e-07
-2.69678e-06
1.19315e-06
3.1251e-06
-5.52765e-06
7.55795e-07
1.04941e-05
-1.43245e-05
9.26017e-07
1.66842e-05
-1.9162e-05
1.71045e-06
2.03698e-05
-1.81484e-05
2.46044e-06
2.34974e-05
-1.46247e-05
1.19926e-06
2.2201e-05
-3.2058e-06
1.0028e-06
2.34339e-05
2.74981e-06
-5.05208e-06
7.0503e-06
2.54072e-05
1.39541e-05
3.23684e-05
-5.23596e-06
-1.074e-06
1.25517e-05
-2.31039e-05
-7.49602e-06
8.59707e-06
-6.14418e-06
5.95785e-07
8.83443e-06
6.18021e-06
-5.62224e-06
9.36112e-06
3.63959e-06
-6.14581e-06
5.89132e-06
1.87406e-06
2.42236e-07
1.60961e-06
2.05084e-06
9.93683e-07
-5.34117e-06
1.91504e-06
4.40544e-06
-1.09393e-05
-1.24548e-06
5.07634e-06
-1.27956e-05
-4.75975e-06
4.27308e-06
-1.28447e-05
-6.35729e-06
3.65707e-06
-1.19662e-05
-8.25334e-06
3.64068e-06
-1.05695e-05
-9.52156e-06
3.70555e-06
-9.03109e-06
-1.06548e-05
3.90037e-06
-7.42208e-06
-1.16225e-05
4.13023e-06
-5.62113e-06
-1.1611e-05
4.08156e-06
-3.73609e-06
-1.1132e-05
4.06573e-06
-5.32577e-07
-8.95889e-06
2.25542e-06
4.25014e-06
-4.22329e-06
-2.06265e-06
7.32755e-06
-1.95689e-08
-3.17388e-06
7.84879e-06
1.9818e-06
-2.26234e-06
7.13363e-06
3.89692e-06
-1.61845e-06
2.97186e-06
5.99704e-06
1.61949e-06
-2.23661e-06
4.5953e-06
3.28735e-06
-3.66108e-06
7.13457e-07
2.35381e-06
-2.65246e-06
-5.99311e-07
2.86978e-06
-1.12191e-06
-2.80874e-06
2.91126e-06
-1.00682e-07
-5.65791e-06
1.5237e-06
2.31524e-07
-7.0985e-06
1.84962e-06
4.15616e-07
-7.88283e-06
2.50535e-06
2.63445e-07
-8.34772e-06
2.97687e-06
-2.64823e-07
-6.89064e-06
3.19749e-06
-1.26031e-06
-3.63316e-06
2.35977e-06
-2.9419e-06
-2.65061e-06
2.71255e-06
-3.93016e-06
-1.36867e-06
1.75297e-06
-3.35799e-06
-2.42977e-06
6.57737e-07
-3.01085e-06
-1.45666e-06
-2.41448e-06
-3.72195e-06
-4.48835e-07
-1.27932e-06
-4.25215e-06
-6.73647e-07
-8.61273e-07
-2.92913e-06
2.04426e-07
-2.6056e-07
-2.56032e-06
6.72915e-08
1.10286e-07
-1.30694e-06
1.47714e-09
1.46428e-07
-8.31391e-07
-4.95356e-09
6.13649e-08
-4.4256e-07
-1.4678e-07
-5.74144e-08
-3.36282e-07
-1.63598e-07
-1.71646e-07
-1.06075e-07
-1.81598e-07
-2.89442e-07
6.25308e-08
-1.4903e-07
-4.22092e-07
1.43472e-07
-1.23114e-07
-5.06703e-07
6.81762e-08
-1.5619e-07
-5.38012e-07
-1.51266e-08
-2.07603e-07
-5.13211e-07
-1.08019e-07
-2.54179e-07
-4.52656e-07
-1.60768e-07
-2.77077e-07
-3.68008e-07
-2.02754e-07
-2.92469e-07
-2.77891e-07
-2.26346e-07
-2.95173e-07
-1.9024e-07
-2.44733e-07
-2.93207e-07
-1.1183e-07
-2.56182e-07
-2.87098e-07
-4.39903e-08
-2.62573e-07
-2.79912e-07
1.27217e-08
-2.61544e-07
-2.72407e-07
5.81146e-08
-2.53669e-07
-2.67146e-07
9.18614e-08
-2.40946e-07
-2.63377e-07
1.15922e-07
-2.24327e-07
-2.60749e-07
1.32774e-07
-2.04065e-07
-2.59035e-07
1.44997e-07
-1.81624e-07
-2.58322e-07
1.55066e-07
-1.59486e-07
-2.58913e-07
1.64102e-07
-1.40186e-07
-2.61194e-07
1.742e-07
-1.23751e-07
-2.64704e-07
1.86295e-07
-1.07479e-07
-2.68643e-07
2.00131e-07
-9.15133e-08
-2.7198e-07
2.15141e-07
-7.87145e-08
-2.74028e-07
2.30278e-07
-7.00737e-08
-2.74402e-07
2.4441e-07
-6.64688e-08
-2.73461e-07
2.55735e-07
-6.97827e-08
-2.71051e-07
2.62942e-07
-8.14138e-08
-2.67682e-07
2.65038e-07
-9.66052e-08
-2.63179e-07
2.59737e-07
-1.03249e-07
-2.56605e-07
2.42487e-07
-1.00009e-07
-2.45358e-07
2.36491e-07
-1.41205e-07
-2.34217e-07
2.98095e-07
-3.16603e-07
-2.27212e-07
3.92415e-07
-6.19614e-07
-2.06231e-07
3.50798e-07
-8.82221e-07
-1.18762e-07
1.39877e-07
-1.11653e-06
1.19877e-08
-1.04827e-07
-1.42236e-06
1.5323e-07
-5.6086e-07
-1.47725e-06
3.94134e-07
-1.08409e-06
-1.44444e-06
5.01762e-07
-1.52754e-06
-1.68954e-06
5.69018e-07
-1.85657e-06
-2.56318e-06
5.64413e-07
-2.20625e-06
-2.60279e-06
3.83162e-07
4.96358e-07
-5.13502e-06
-9.96749e-08
8.3324e-06
-1.28228e-05
-3.9499e-07
1.45683e-05
-2.19073e-05
1.45464e-06
1.6639e-05
-2.26296e-05
1.34167e-06
1.77082e-05
-2.01075e-05
9.21171e-07
1.64759e-05
-1.35159e-05
-9.98102e-08
2.16531e-05
-3.82727e-06
-3.54719e-06
3.00701e-05
4.64488e-07
-7.87623e-06
1.70732e-05
4.15832e-05
1.36175e-05
3.58197e-05
-1.89155e-06
-7.52248e-07
3.17138e-06
-2.10055e-05
-5.07563e-06
-8.45993e-07
-1.4792e-06
-7.24808e-07
8.29339e-06
5.17976e-07
-3.47728e-06
-3.05078e-06
8.98164e-06
6.00225e-06
-1.31456e-05
4.05042e-06
7.91854e-06
-2.011e-05
2.02774e-06
6.98764e-06
-2.10924e-05
-2.59685e-06
5.49445e-06
-2.11307e-05
-5.88961e-06
4.68246e-06
-2.23275e-05
-8.56759e-06
5.00459e-06
-2.26565e-05
-1.08898e-05
4.86143e-06
-2.30105e-05
-1.31134e-05
5.21411e-06
-2.28608e-05
-1.46916e-05
5.0203e-06
-2.24166e-05
-1.59101e-05
4.8111e-06
-2.2258e-05
-1.64881e-05
4.7071e-06
-2.22545e-05
-1.61997e-05
4.58521e-06
-2.2045e-05
-1.55605e-05
4.21898e-06
-2.19758e-05
-1.35047e-05
4.47657e-06
-2.13194e-05
-9.69716e-06
4.8175e-06
-1.97213e-05
-6.25181e-06
4.63408e-06
-1.81888e-05
-3.73517e-06
4.18451e-06
-1.64997e-05
-2.43515e-06
4.64294e-06
-1.34252e-05
-2.28471e-06
5.2073e-06
-1.08303e-05
-2.34377e-06
4.34419e-06
-8.27629e-06
-4.19633e-06
2.35577e-06
-4.76448e-06
-5.02527e-06
9.1415e-07
-1.16395e-06
-6.17064e-06
-2.38631e-07
1.01163e-06
-7.39386e-06
-4.39634e-07
2.32312e-06
-8.017e-06
-3.93003e-07
2.42213e-06
-7.90898e-06
-7.28608e-08
1.43703e-06
-7.87629e-06
5.13675e-07
9.33988e-07
-7.35168e-06
9.64081e-07
1.00433e-06
-4.54643e-06
8.42933e-07
1.11874e-07
-2.56205e-06
8.03891e-07
-1.65653e-06
-1.39259e-06
1.79232e-06
-2.94863e-06
-1.88059e-06
7.42935e-07
-4.92004e-06
-1.03944e-06
-2.89084e-06
-3.78107e-06
-2.2481e-07
-1.79594e-06
-4.49608e-06
-8.4363e-07
-1.46688e-06
-3.32816e-06
7.75678e-08
-8.41243e-07
-3.2427e-06
6.40984e-08
-3.4338e-07
-1.95446e-06
1.58131e-07
-6.60409e-08
-1.18023e-06
8.01745e-08
-4.36592e-08
-3.09041e-07
-1.48074e-07
-1.20337e-07
-7.01915e-08
-1.83925e-07
-1.57554e-07
1.48113e-07
-2.12511e-07
-2.10597e-07
3.09346e-07
-1.9132e-07
-2.69228e-07
4.05374e-07
-2.02065e-07
-3.44161e-07
3.70647e-07
-2.27061e-07
-4.21534e-07
3.21464e-07
-2.58837e-07
-4.5036e-07
2.1772e-07
-2.9671e-07
-4.36467e-07
1.48224e-07
-3.22658e-07
-3.88749e-07
9.59362e-08
-3.46192e-07
-3.23252e-07
6.89418e-08
-3.60561e-07
-2.53615e-07
5.76728e-08
-3.71823e-07
-1.87403e-07
5.63264e-08
-3.7849e-07
-1.26753e-07
5.94517e-08
-3.82431e-07
-7.12638e-08
6.74059e-08
-3.84198e-07
-2.07911e-08
7.99034e-08
-3.83789e-07
2.38016e-08
9.57749e-08
-3.8107e-07
6.15434e-08
1.14796e-07
-3.76607e-07
9.17662e-08
1.37337e-07
-3.71381e-07
1.14646e-07
1.6196e-07
-3.66204e-07
1.31599e-07
1.84989e-07
-3.61183e-07
1.44684e-07
2.03896e-07
-3.56909e-07
1.54518e-07
2.20236e-07
-3.53585e-07
1.60811e-07
2.37385e-07
-3.50908e-07
1.63012e-07
2.55527e-07
-3.49028e-07
1.61884e-07
2.70016e-07
-3.47377e-07
1.59352e-07
2.78161e-07
-3.45508e-07
1.57663e-07
2.79141e-07
-3.437e-07
1.56987e-07
2.72923e-07
-3.41831e-07
1.54397e-07
2.60747e-07
-3.39329e-07
1.47226e-07
2.47898e-07
-3.37093e-07
1.35838e-07
2.44359e-07
-3.35922e-07
1.27638e-07
2.4044e-07
-3.31929e-07
1.47865e-07
1.63255e-07
-3.23976e-07
2.09238e-07
-7.1714e-08
-3.04432e-07
2.40615e-07
-3.96421e-07
-2.50525e-07
1.36037e-07
-6.24034e-07
-1.45558e-07
-7.7469e-08
-8.45763e-07
-4.3074e-08
-3.20163e-07
-1.18395e-06
2.54905e-08
-6.77586e-07
-1.25817e-06
1.63892e-07
-1.10233e-06
-1.23681e-06
2.51407e-07
-1.57632e-06
-1.63418e-06
4.68209e-07
-1.87444e-06
-2.68063e-06
4.9648e-07
-1.66922e-06
-2.45596e-06
-2.76791e-07
3.50268e-06
-8.87175e-06
-1.09244e-06
9.65868e-06
-2.00257e-05
1.15354e-06
9.75065e-06
-2.37338e-05
1.78056e-06
8.58098e-06
-2.25299e-05
1.02841e-06
5.57982e-06
-1.89152e-05
2.02636e-06
-3.45624e-06
-6.72281e-06
2.00775e-06
1.27837e-05
5.649e-07
-1.73465e-05
1.50399e-05
1.07816e-05
-1.31754e-05
2.58279e-05
5.19087e-05
1.87805e-06
3.61086e-05
1.61608e-06
-2.1921e-06
-1.00357e-05
-1.05357e-05
-8.56432e-07
-1.75234e-05
2.5201e-06
3.37948e-06
-2.12111e-05
3.23208e-06
9.73346e-07
-2.3454e-05
8.34852e-06
2.87871e-06
-2.59944e-05
3.12232e-06
3.46998e-06
-2.64306e-05
-2.99109e-07
2.76353e-06
-2.68349e-05
-5.52462e-06
3.32989e-06
-2.64939e-05
-9.66813e-06
3.43406e-06
-2.66118e-05
-1.19598e-05
3.50724e-06
-2.72228e-05
-1.38645e-05
3.58364e-06
-2.7618e-05
-1.59171e-05
3.19738e-06
-2.80451e-05
-1.73081e-05
3.04274e-06
-2.77117e-05
-1.83604e-05
2.1164e-06
-2.7372e-05
-1.86233e-05
1.7953e-06
-2.72291e-05
-1.85361e-05
2.19335e-06
-2.75386e-05
-1.7921e-05
2.66999e-06
-2.79923e-05
-1.6369e-05
3.31806e-06
-2.78263e-05
-1.40202e-05
4.15706e-06
-2.67087e-05
-1.17794e-05
4.40994e-06
-2.46202e-05
-9.74149e-06
3.9178e-06
-2.16153e-05
-8.12859e-06
2.68847e-06
-1.82956e-05
-6.96593e-06
1.36154e-06
-1.45369e-05
-5.76175e-06
-3.40716e-07
-1.09712e-05
-5.66505e-06
-2.09697e-06
-7.03137e-06
-5.60317e-06
-3.36189e-06
-2.79313e-06
-5.57178e-06
-4.8371e-06
1.12977e-06
-5.66285e-06
-5.65391e-06
4.48729e-06
-5.76486e-06
-5.60966e-06
5.71573e-06
-4.4525e-06
-4.68491e-06
4.51675e-06
-4.22073e-06
-2.45657e-06
3.20531e-06
-4.73607e-06
-1.30417e-06
2.89478e-06
-3.00452e-06
-1.23138e-06
3.01706e-06
-4.44273e-07
-2.24006e-06
3.57396e-06
-1.00124e-06
-9.48246e-07
2.05385e-06
-1.06423e-06
7.03741e-07
-4.85776e-06
1.99157e-06
-3.33789e-06
-3.68721e-06
1.61386e-08
-2.27786e-06
-4.6487e-06
-9.01695e-07
-1.98216e-06
-3.57412e-06
-4.25599e-08
-1.30391e-06
-3.79436e-06
-1.19395e-07
-7.80052e-07
-2.7785e-06
3.08406e-07
-2.61417e-07
-1.92325e-06
2.33736e-07
-7.81651e-08
-3.72386e-07
-1.10327e-07
-1.32113e-07
1.52119e-07
-1.62104e-07
-1.06555e-07
3.39018e-07
-2.12065e-07
-1.10953e-07
5.20309e-07
-2.03834e-07
-1.25745e-07
6.3998e-07
-2.18232e-07
-1.99835e-07
6.64932e-07
-2.19524e-07
-3.11124e-07
6.61852e-07
-2.28707e-07
-3.84901e-07
5.45945e-07
-2.54345e-07
-4.01794e-07
4.4312e-07
-2.77907e-07
-3.74722e-07
3.72007e-07
-3.03103e-07
-3.24468e-07
3.41227e-07
-3.22502e-07
-2.68669e-07
3.41622e-07
-3.39748e-07
-2.13972e-07
3.55291e-07
-3.53639e-07
-1.61673e-07
3.7204e-07
-3.64888e-07
-1.1036e-07
3.89845e-07
-3.73739e-07
-5.90863e-08
4.08839e-07
-3.80224e-07
-1.02238e-08
4.2995e-07
-3.83041e-07
3.4323e-08
4.52467e-07
-3.82247e-07
7.32097e-08
4.76418e-07
-3.77984e-07
1.05203e-07
5.00451e-07
-3.70524e-07
1.30367e-07
5.21193e-07
-3.61387e-07
1.48733e-07
5.37284e-07
-3.51794e-07
1.58939e-07
5.52044e-07
-3.42022e-07
1.59824e-07
5.69044e-07
-3.32566e-07
1.51988e-07
5.87451e-07
-3.24065e-07
1.37487e-07
6.01638e-07
-3.17112e-07
1.1927e-07
6.08742e-07
-3.1231e-07
9.98337e-08
6.08688e-07
-3.10073e-07
7.89776e-08
6.03234e-07
-3.09362e-07
5.31704e-08
5.95407e-07
-3.08774e-07
2.15788e-08
5.87504e-07
-3.07873e-07
-4.49224e-09
5.77907e-07
-3.07335e-07
-2.88828e-09
5.40704e-07
-3.01555e-07
4.32677e-08
3.95573e-07
-2.77731e-07
1.04802e-07
8.33127e-08
-2.14738e-07
1.12353e-07
-2.69874e-07
-1.30146e-07
2.79622e-08
-4.96116e-07
-3.53054e-08
-1.26573e-07
-6.77706e-07
3.62869e-10
-2.69144e-07
-9.53592e-07
-6.7527e-08
-4.12352e-07
-9.95544e-07
-9.38175e-08
-6.74347e-07
-9.42118e-07
3.90894e-09
-1.08582e-06
-1.4791e-06
3.20734e-07
-1.31653e-06
-2.69789e-06
3.22793e-07
4.32381e-07
-3.08118e-06
-9.06099e-07
3.76233e-06
-1.1466e-05
-4.56953e-07
1.73909e-06
-1.99724e-05
2.01573e-06
-6.51379e-06
-1.76811e-05
2.14747e-06
-1.73823e-05
-1.48811e-05
3.06664e-06
-3.28491e-05
-9.92947e-06
6.51704e-06
-3.66546e-05
-3.50038e-07
-2.35417e-06
-3.50821e-05
1.2414e-05
-1.19594e-05
-3.3418e-05
2.18888e-05
-1.41377e-05
2.95341e-05
3.56976e-05
-1.8935e-05
3.98407e-05
1.18335e-06
-4.00445e-06
-1.15188e-05
1.28003e-06
1.25917e-06
-1.97237e-05
6.30326e-06
3.83157e-06
-2.46067e-05
7.51519e-06
6.14737e-07
-2.52879e-05
8.71423e-06
3.343e-07
-2.73258e-05
4.98037e-06
1.78941e-07
-2.82031e-05
-2.5079e-07
8.16181e-07
-3.01528e-05
-5.47807e-06
1.87381e-06
-3.14455e-05
-1.10225e-05
2.60837e-06
-3.29155e-05
-1.38184e-05
3.28454e-06
-3.41461e-05
-1.58282e-05
3.15562e-06
-3.47657e-05
-1.78396e-05
2.50906e-06
-3.48167e-05
-1.80922e-05
8.10993e-07
-3.40057e-05
-1.81937e-05
-9.95738e-07
-3.31965e-05
-1.76757e-05
-1.76915e-06
-3.23311e-05
-1.70673e-05
-2.34221e-06
-3.16426e-05
-1.62137e-05
-2.40085e-06
-3.10681e-05
-1.47609e-05
-2.18553e-06
-3.02143e-05
-1.31284e-05
-1.7472e-06
-2.88001e-05
-1.15405e-05
-1.65391e-06
-2.63703e-05
-9.94189e-06
-2.22998e-06
-2.34417e-05
-8.18673e-06
-2.87075e-06
-2.03185e-05
-6.10521e-06
-3.98412e-06
-1.6483e-05
-4.16576e-06
-5.43158e-06
-1.18242e-05
-2.94079e-06
-7.38306e-06
-6.76295e-06
-1.71832e-06
-8.94613e-06
-1.67792e-06
-1.08497e-06
-9.57185e-06
2.95485e-06
-3.43582e-07
-9.95204e-06
7.1674e-06
-3.27918e-07
-9.6495e-06
1.08723e-05
1.29739e-06
-9.45481e-06
1.14861e-05
2.8877e-06
-7.72216e-06
9.46146e-06
2.07169e-06
-4.78316e-06
6.47439e-06
2.56405e-06
-2.58151e-06
5.99568e-06
4.58202e-06
-4.54758e-06
6.65023e-06
3.02565e-06
-4.68144e-06
5.35181e-06
1.27767e-06
-1.04348e-06
-3.05663e-06
3.55068e-06
-3.7656e-06
-3.48975e-06
3.96431e-07
-2.77673e-06
-4.81691e-06
-8.16837e-07
-2.46275e-06
-3.72111e-06
-1.60488e-07
-1.57135e-06
-4.06689e-06
-6.11344e-07
-1.01302e-06
-3.42226e-06
9.41045e-08
-3.49395e-07
-2.75428e-06
1.75596e-07
-3.67046e-08
-6.4682e-07
-2.74357e-08
-7.90626e-08
2.78597e-07
-7.54945e-08
-1.23931e-08
4.73599e-07
-1.9657e-07
-3.8541e-09
6.98176e-07
-1.83346e-07
5.32975e-09
8.35921e-07
-2.02994e-07
-8.01923e-08
9.41487e-07
-1.89995e-07
-2.28042e-07
9.9333e-07
-1.82923e-07
-3.33562e-07
8.533e-07
-2.01427e-07
-3.56043e-07
6.99423e-07
-2.33426e-07
-3.27604e-07
6.10982e-07
-2.67016e-07
-2.78432e-07
5.86633e-07
-2.94184e-07
-2.32047e-07
6.10065e-07
-3.14414e-07
-1.93842e-07
6.47375e-07
-3.29863e-07
-1.60559e-07
6.81106e-07
-3.41889e-07
-1.27366e-07
7.08358e-07
-3.51255e-07
-9.18003e-08
7.31111e-07
-3.57366e-07
-5.5248e-08
7.52926e-07
-3.59079e-07
-1.92161e-08
7.73943e-07
-3.57044e-07
1.2855e-08
7.95902e-07
-3.51119e-07
3.86603e-08
8.16716e-07
-3.41608e-07
5.99642e-08
8.29495e-07
-3.29174e-07
7.66746e-08
8.36425e-07
-3.15394e-07
8.69852e-08
8.42784e-07
-3.00626e-07
8.8181e-08
8.54057e-07
-2.85748e-07
7.86968e-08
8.69443e-07
-2.72075e-07
5.98049e-08
8.81446e-07
-2.60445e-07
3.3646e-08
8.86677e-07
-2.51335e-07
3.06996e-09
8.8447e-07
-2.44715e-07
-3.05118e-08
8.76798e-07
-2.39518e-07
-6.79137e-08
8.68039e-07
-2.34702e-07
-1.0701e-07
8.56513e-07
-2.29396e-07
-1.31741e-07
8.26196e-07
-2.2297e-07
-1.2188e-07
7.38287e-07
-2.06742e-07
-6.92735e-08
5.16403e-07
-1.72305e-07
-1.8964e-08
1.46127e-07
-1.11353e-07
-5.42589e-09
-2.44854e-07
-3.46852e-08
-3.2752e-08
-4.78658e-07
1.80093e-08
-1.12898e-07
-6.04733e-07
2.15662e-08
-2.0118e-07
-7.70778e-07
-7.23372e-08
-2.41869e-07
-7.06111e-07
-2.18618e-07
-3.54174e-07
-6.04968e-07
-1.80181e-07
-7.27409e-07
-1.23643e-06
2.05559e-07
-1.44991e-06
-2.07632e-06
1.62766e-07
1.03007e-06
-3.99484e-06
-1.19898e-06
-1.8047e-07
-1.03482e-05
2.00682e-07
-9.37554e-06
-1.23846e-05
1.61852e-06
-2.06341e-05
-7.60985e-06
1.10937e-06
-3.60193e-05
-2.75225e-06
3.06073e-06
-5.17977e-05
3.31056e-06
2.40516e-06
-5.79821e-05
9.67226e-06
-3.77544e-06
-6.13711e-05
2.06892e-05
-3.22394e-06
-4.97051e-05
1.97586e-05
-1.24513e-05
3.39767e-05
7.95138e-06
-2.63417e-05
4.08177e-05
-1.83693e-06
-1.30104e-06
-1.46106e-05
1.62881e-05
1.40985e-06
-2.05685e-05
7.34025e-06
4.27912e-06
-2.48362e-05
1.1897e-05
-6.22064e-08
-2.36053e-05
9.768e-06
-2.25867e-06
-2.24275e-05
6.47821e-06
-2.69253e-06
-2.29449e-05
2.41337e-07
-1.01668e-08
-2.71577e-05
-3.42123e-06
2.09997e-06
-3.21579e-05
-9.44977e-06
3.35354e-06
-3.62127e-05
-1.31919e-05
3.33198e-06
-3.79084e-05
-1.60019e-05
1.76768e-06
-3.90391e-05
-1.75822e-05
7.69814e-07
-3.92812e-05
-1.6889e-05
-1.06152e-06
-3.89542e-05
-1.67689e-05
-1.84838e-06
-3.86205e-05
-1.59302e-05
-2.16272e-06
-3.79556e-05
-1.47597e-05
-3.04458e-06
-3.71004e-05
-1.396e-05
-3.16686e-06
-3.58594e-05
-1.2956e-05
-3.088e-06
-3.44312e-05
-1.18075e-05
-2.77868e-06
-3.32304e-05
-1.03042e-05
-2.45706e-06
-3.20474e-05
-8.08901e-06
-3.05012e-06
-3.04737e-05
-5.88403e-06
-3.88752e-06
-2.76283e-05
-3.60337e-06
-5.35584e-06
-2.32315e-05
-9.52589e-07
-7.61633e-06
-1.84109e-05
1.45696e-06
-9.22275e-06
-1.36863e-05
3.42501e-06
-9.87045e-06
-9.18492e-06
3.92431e-06
-9.51179e-06
-4.32348e-06
3.53407e-06
-8.73952e-06
2.9171e-07
2.52078e-06
-7.46405e-06
5.98695e-06
2.0802e-06
-6.47795e-06
1.01855e-05
4.57289e-06
-5.88361e-06
1.10854e-05
4.33876e-06
-3.16705e-06
1.00105e-05
5.66058e-06
-2.02186e-06
9.12629e-06
8.95173e-06
-3.48575e-06
9.11979e-06
9.20306e-06
-6.17099e-06
7.2865e-06
7.65655e-06
-4.54565e-06
2.11783e-06
2.11203e-06
-4.1031e-06
-3.13875e-06
8.36402e-07
-3.27422e-06
-4.8444e-06
-7.995e-07
-2.97404e-06
-3.67822e-06
-3.37676e-07
-1.78544e-06
-4.05523e-06
-1.19281e-06
-1.05269e-06
-3.68202e-06
-4.63669e-07
-2.60413e-07
-3.20064e-06
-3.38365e-07
9.71254e-08
-8.84511e-07
-1.09763e-07
-3.88721e-09
4.28939e-07
-3.9368e-08
8.20468e-08
6.2302e-07
-2.30263e-07
6.76604e-08
9.07531e-07
-1.9173e-07
7.0194e-08
1.04641e-06
-2.11124e-07
-2.69872e-08
1.19861e-06
-1.59014e-07
-1.6317e-07
1.26791e-06
-1.37968e-07
-2.43642e-07
1.09937e-06
-1.65659e-07
-2.52348e-07
9.27037e-07
-2.19028e-07
-2.21952e-07
8.40505e-07
-2.60116e-07
-1.83799e-07
8.36164e-07
-2.87867e-07
-1.59049e-07
8.87033e-07
-3.01947e-07
-1.48894e-07
9.46866e-07
-3.09857e-07
-1.46355e-07
9.94104e-07
-3.15786e-07
-1.45642e-07
1.02763e-06
-3.20224e-07
-1.42893e-07
1.05055e-06
-3.22448e-07
-1.36554e-07
1.0674e-06
-3.21048e-07
-1.27256e-07
1.07996e-06
-3.15566e-07
-1.19358e-07
1.0926e-06
-3.04831e-07
-1.14589e-07
1.10289e-06
-2.91176e-07
-1.07687e-07
1.1005e-06
-2.78081e-07
-9.88071e-08
1.0927e-06
-2.65312e-07
-8.97668e-08
1.086e-06
-2.52368e-07
-8.54706e-08
1.08894e-06
-2.39303e-07
-9.10888e-08
1.10161e-06
-2.26623e-07
-1.06545e-07
1.11188e-06
-2.15066e-07
-1.28704e-07
1.11366e-06
-2.04861e-07
-1.52715e-07
1.10479e-06
-1.96341e-07
-1.74208e-07
1.08711e-06
-1.88777e-07
-1.92479e-07
1.06682e-06
-1.80459e-07
-2.11043e-07
1.04354e-06
-1.68328e-07
-2.27924e-07
9.9498e-07
-1.51747e-07
-2.29794e-07
8.6887e-07
-1.28367e-07
-2.03642e-07
5.89739e-07
-9.87944e-08
-1.57949e-07
1.63595e-07
-6.17647e-08
-1.11683e-07
-2.47484e-07
-4.03633e-08
-5.21912e-08
-5.01932e-07
-2.83994e-08
-1.44955e-09
-6.12888e-07
-2.83599e-08
1.339e-08
-7.04897e-07
-5.80762e-08
-8.23716e-08
-4.82662e-07
-9.31186e-08
-2.8098e-07
-3.03939e-07
-4.44457e-08
-5.40808e-07
-9.71835e-07
7.28776e-08
-8.15055e-07
-1.47058e-06
-1.96624e-07
-4.80652e-07
-2.8601e-06
-1.12197e-06
-5.65969e-06
-5.13117e-06
1.81014e-07
-1.42358e-05
-3.55894e-06
-2.85793e-07
-2.02917e-05
1.28452e-06
-2.90412e-06
-2.50655e-05
6.63786e-06
-4.68581e-06
-3.13319e-05
1.22966e-05
-2.7307e-06
-3.41604e-05
1.50757e-05
-2.66454e-06
-3.91464e-05
2.88929e-05
-1.83528e-06
-3.17276e-05
2.17115e-05
-1.11122e-05
2.76167e-05
-9.66412e-06
-1.57528e-05
4.59601e-05
-4.04419e-06
-1.72925e-06
-2.69904e-06
2.26577e-05
-8.90221e-07
-1.92249e-05
1.53037e-05
7.15617e-06
-2.16801e-05
1.66616e-05
-2.26766e-06
-1.9252e-05
1.10705e-05
-3.7614e-06
-1.49477e-05
5.57323e-06
-3.47681e-06
-1.16901e-05
-3.01184e-06
-5.57529e-08
-1.28264e-05
-3.8362e-06
1.50602e-06
-1.78332e-05
-7.72662e-06
3.24063e-06
-2.74588e-05
-7.59196e-06
3.98658e-06
-3.61807e-05
-9.24861e-06
1.91891e-06
-4.01096e-05
-1.39234e-05
2.00155e-07
-4.14213e-05
-1.46337e-05
-1.03899e-06
-4.15619e-05
-1.47002e-05
-2.05099e-06
-4.17785e-05
-1.36883e-05
-2.15923e-06
-4.10721e-05
-1.27549e-05
-2.85507e-06
-3.96328e-05
-1.247e-05
-3.08662e-06
-3.73486e-05
-1.2893e-05
-2.50094e-06
-3.49574e-05
-1.27868e-05
-1.54934e-06
-3.28967e-05
-1.17575e-05
-7.23193e-07
-3.13672e-05
-9.6114e-06
-8.95916e-08
-3.0514e-05
-6.75525e-06
-3.50088e-08
-2.932e-05
-4.08353e-06
-7.51662e-07
-2.64777e-05
-2.29692e-06
-1.53155e-06
-2.30269e-05
-7.59592e-07
-1.25488e-06
-1.94255e-05
-7.67849e-08
-1.05479e-07
-1.6861e-05
-9.34668e-07
2.29133e-06
-1.33941e-05
-3.6438e-06
3.69397e-06
-9.62569e-06
-5.91008e-06
4.63033e-06
-4.11732e-06
-6.22229e-06
2.74802e-06
3.63894e-06
-2.16709e-06
-1.05372e-06
7.81119e-06
3.58111e-07
-2.12831e-07
8.93705e-06
4.95958e-06
-4.38698e-07
9.17679e-06
1.11794e-05
-2.47673e-06
1.03441e-05
1.3214e-05
-5.20804e-06
8.81769e-06
1.44368e-05
-5.29734e-06
1.11341e-05
-2.15766e-07
-4.01908e-06
-2.6486e-06
1.48462e-06
-3.59508e-06
-4.49037e-06
-7.77226e-07
-3.58964e-06
-3.42495e-06
-2.53956e-07
-2.30709e-06
-3.90241e-06
-1.42777e-06
-1.2756e-06
-3.7812e-06
-9.21803e-07
-1.84616e-07
-3.3892e-06
-8.9319e-07
2.26358e-07
-1.15127e-06
-1.34782e-07
1.19434e-07
4.97538e-07
4.76468e-08
1.57633e-07
8.78805e-07
-2.87221e-07
6.50825e-08
1.20313e-06
-1.98854e-07
4.53287e-08
1.2976e-06
-2.28935e-07
4.09472e-09
1.42181e-06
-1.80881e-07
-1.10644e-08
1.48066e-06
-1.97002e-07
-1.54052e-08
1.35765e-06
-2.53917e-07
-1.70632e-08
1.25444e-06
-3.25552e-07
-2.88436e-08
1.2307e-06
-3.78281e-07
-5.32331e-08
1.27556e-06
-4.14829e-07
-8.84029e-08
1.35712e-06
-4.3476e-07
-1.29991e-07
1.43738e-06
-4.48758e-07
-1.76646e-07
1.50121e-06
-4.60264e-07
-2.18663e-07
1.53897e-06
-4.69153e-07
-2.49958e-07
1.55732e-06
-4.75331e-07
-2.71937e-07
1.56803e-06
-4.78568e-07
-2.85661e-07
1.57305e-06
-4.79315e-07
-2.91711e-07
1.57613e-06
-4.77505e-07
-2.9197e-07
1.57639e-06
-4.73327e-07
-2.90161e-07
1.56764e-06
-4.69116e-07
-2.8386e-07
1.55156e-06
-4.65367e-07
-2.73375e-07
1.536e-06
-4.6074e-07
-2.66158e-07
1.53577e-06
-4.54305e-07
-2.70379e-07
1.55136e-06
-4.45817e-07
-2.83017e-07
1.56252e-06
-4.38268e-07
-2.99302e-07
1.56266e-06
-4.33007e-07
-3.142e-07
1.54894e-06
-4.2952e-07
-3.23427e-07
1.52244e-06
-4.26385e-07
-3.24552e-07
1.48928e-06
-4.2158e-07
-3.19289e-07
1.4501e-06
-4.12069e-07
-3.09861e-07
1.38443e-06
-3.99063e-07
-2.91128e-07
1.23824e-06
-3.88177e-07
-2.54691e-07
9.39222e-07
-3.8558e-07
-1.9355e-07
4.98706e-07
-3.95227e-07
-1.35635e-07
1.01013e-07
-4.0291e-07
-4.18262e-08
-1.73232e-07
-4.13047e-07
1.1424e-07
-3.4228e-07
-4.08835e-07
1.84492e-07
-3.77367e-07
-3.70199e-07
-6.3869e-08
-1.03768e-08
-1.79156e-07
-4.96508e-07
1.14077e-07
8.94314e-08
-9.13117e-07
-4.9726e-07
3.11357e-08
-6.60043e-07
-6.01865e-07
-8.67008e-07
-3.92779e-06
2.98026e-06
-2.36162e-06
-1.46767e-05
8.33015e-06
-2.55769e-06
-2.3485e-05
8.86262e-06
-3.72196e-06
-2.90181e-05
1.22187e-05
-5.48708e-06
-3.1953e-05
1.4706e-05
-5.16034e-06
-3.2339e-05
1.69226e-05
-4.0009e-06
-2.79689e-05
1.30534e-05
-3.21935e-06
7.3158e-06
6.24249e-06
-8.01011e-06
1.14436e-05
1.78443e-05
-3.32836e-06
2.83016e-05
-1.09827e-05
1.3173e-05
5.1464e-05
1.53647e-07
-3.17774e-06
-4.1195e-06
3.48376e-05
-5.47421e-06
-2.10775e-05
2.08202e-05
9.37472e-06
-2.29304e-05
2.12698e-05
-2.77917e-06
-1.69135e-05
8.69196e-06
-3.72612e-06
-1.14009e-05
3.84672e-06
-3.89683e-06
-8.0485e-06
-7.45614e-06
1.0749e-06
-7.02604e-06
-6.76388e-06
1.90567e-06
-7.20333e-06
-9.09126e-06
1.53857e-06
-9.03146e-06
-9.06372e-06
3.31524e-06
-1.60484e-05
-7.02345e-06
4.82522e-06
-2.68202e-05
-6.54276e-06
3.41704e-06
-3.59612e-05
-5.08473e-06
-4.15342e-07
-4.05102e-05
-8.1739e-06
-2.01994e-06
-4.26206e-05
-7.9545e-06
-3.71869e-06
-4.32839e-05
-7.69418e-06
-4.53036e-06
-4.35038e-05
-7.84342e-06
-4.57312e-06
-4.31315e-05
-9.65164e-06
-3.78237e-06
-4.17284e-05
-1.11998e-05
-3.14322e-06
-3.91332e-05
-1.13795e-05
-3.1378e-06
-3.47005e-05
-1.12514e-05
-2.96612e-06
-2.83123e-05
-1.07549e-05
-2.55333e-06
-2.24989e-05
-9.17723e-06
-8.49215e-07
-1.88317e-05
-7.57352e-06
1.54381e-06
-1.73283e-05
-5.86101e-06
3.5524e-06
-1.60331e-05
-6.4181e-06
5.0129e-06
-1.50598e-05
-7.66411e-06
5.73662e-06
-1.45096e-05
-1.0479e-05
6.2402e-06
-1.4208e-05
-1.41537e-05
7.91466e-06
-1.4115e-05
-1.50396e-05
8.76326e-06
-1.31951e-05
-1.12929e-05
8.32336e-06
-1.07059e-05
-6.45202e-06
4.4329e-06
-9.58309e-06
3.91221e-06
-3.37159e-08
-7.83701e-06
1.14731e-05
-2.28261e-06
-4.31565e-06
1.40289e-05
-5.1201e-06
5.90501e-07
1.46669e-05
-6.43844e-06
1.21153e-05
-2.12614e-06
-3.40092e-06
-1.54765e-06
2.46176e-06
-3.72766e-06
-4.08119e-06
-8.55972e-08
-4.21971e-06
-3.13182e-06
2.0346e-07
-3.07098e-06
-3.89802e-06
-1.14477e-06
-1.85644e-06
-3.9717e-06
-1.01195e-06
-3.79219e-07
-3.70965e-06
-1.14482e-06
2.22228e-07
-1.64535e-06
-9.96462e-08
1.02498e-07
2.32705e-07
3.91658e-07
1.11282e-07
8.24395e-07
5.44395e-08
1.34956e-08
1.14965e-06
1.56614e-07
3.64059e-08
1.19291e-06
8.498e-08
7.67618e-08
1.2613e-06
1.21673e-07