/*--------------------------------*- C++ -*----------------------------------*\
| =========                 |                                                 |
| \\      /  F ield         | OpenFOAM: The Open Source CFD Toolbox           |
|  \\    /   O peration     | Version:  2.3.0                                 |
|   \\  /    A nd           | Web:      www.OpenFOAM.org                      |
|    \\/     M anipulation  |                                                 |
\*---------------------------------------------------------------------------*/
FoamFile
{
    version     2.0;
    format      ascii;
    class       volVectorField;
    location    "62";
    object      U.water;
}
// * * * * * * * * * * * * * * * * * * * * * * * * * * * * * * * * * * * * * //

dimensions      [0 1 -1 0 0 0 0];

internalField   nonuniform List<vector> 
6144
(
(0.0108527 0.0191538 -0.000835148)
(0.011241 -0.00319854 -0.00234268)
(0.00471502 -0.0046385 -0.00315657)
(0.00382989 -0.00439208 -0.0028431)
(0.00217054 -0.00322827 -0.00198279)
(0.00291457 -0.000842127 -0.00142715)
(0.00315133 -0.00133623 -0.0010692)
(0.003131 -0.000819253 -0.00110602)
(0.00249411 -0.00109772 -0.000963533)
(0.001864 0.0001434 -0.000527374)
(0.00136342 0.00139441 1.75459e-05)
(0.00127744 0.00274552 0.000742296)
(0.00136927 0.00307718 0.00119855)
(0.00149026 0.00280169 0.00164719)
(0.00155012 0.00208627 0.00173836)
(0.00163385 0.0013502 0.00168871)
(0.00170801 0.000559638 0.00151259)
(0.0017891 -0.000122295 0.0012947)
(0.00186434 -0.000704688 0.00105751)
(0.00192823 -0.00113312 0.000829575)
(0.00197402 -0.00141074 0.000614299)
(0.00201092 -0.00152057 0.000428474)
(0.00203642 -0.00151469 0.000300042)
(0.00203886 -0.00144043 0.00025506)
(0.00201802 -0.00133228 0.000284092)
(0.00197876 -0.001217 0.000379414)
(0.00193057 -0.00112227 0.000523747)
(0.00188851 -0.00108039 0.000675661)
(0.00184334 -0.00111553 0.000835548)
(0.00179593 -0.00121602 0.000978359)
(0.00174948 -0.00135806 0.00109519)
(0.00170945 -0.00152878 0.00118893)
(0.00167829 -0.00172428 0.00125905)
(0.00165935 -0.00194189 0.00130723)
(0.00165711 -0.0021906 0.00133652)
(0.00167279 -0.00248933 0.00134234)
(0.00169902 -0.00283925 0.00130865)
(0.00172222 -0.00319404 0.00121211)
(0.00175055 -0.00343169 0.0010488)
(0.00182003 -0.00348907 0.000717256)
(0.00195233 -0.00325381 0.000345068)
(0.00249196 -0.00307454 0.00012709)
(0.00354829 -0.00390333 -2.98413e-05)
(0.00472074 -0.00604122 -0.000420217)
(0.00502147 -0.00769408 -0.00138219)
(0.00497011 -0.00827074 -0.0024819)
(0.00488694 -0.00789649 -0.00323921)
(0.00543538 -0.00763469 -0.00369344)
(0.0074973 -0.00707666 -0.00456433)
(0.00870042 -0.0129866 -0.00530099)
(0.00563435 -0.0112094 -0.00667272)
(-0.00164808 -0.00921105 -0.00922121)
(0.0193313 0.00439435 -0.015202)
(0.0470591 -0.0449077 -0.0236701)
(0.0576557 -0.0607212 -0.0251588)
(0.0499141 -0.122152 -0.0200255)
(0.0224684 -0.093509 -0.026367)
(0.00488615 -0.152995 0.009538)
(-0.0271981 -0.0199986 -0.0558036)
(0.0130131 -0.0335328 0.0234964)
(0.108988 -0.293626 0.0751091)
(0.0797952 -0.123693 0.0453843)
(0.0523991 -0.177956 0.0136684)
(0.0498706 -0.170612 0.020488)
(0.0401405 -0.171578 0.0190227)
(0.0310793 -0.168579 0.0129195)
(0.0340996 -0.164173 0.00731059)
(0.0327607 -0.146977 0.00108919)
(0.0234728 -0.12259 -0.0116789)
(0.018918 -0.109526 -0.0128311)
(0.0179782 -0.101986 -0.00904049)
(0.0186318 -0.102686 -0.00808867)
(0.0210674 -0.108817 -0.00720473)
(0.0248425 -0.122287 -0.00642116)
(0.0247702 -0.140711 -0.00406579)
(0.0233176 -0.162475 -0.00450158)
(0.0159551 -0.172651 -0.00232679)
(0.00804801 -0.181839 -1.32572e-05)
(0.00230799 -0.180812 0.00175309)
(0.00249761 -0.176567 0.00124432)
(0.000386112 -0.16709 0.00333879)
(-0.000600977 -0.149271 -0.000427706)
(0.0072584 -0.110954 -0.000119261)
(0.00884885 -0.0842324 -0.00791789)
(-0.0200518 -0.0589646 -0.00700605)
(-0.0241191 -0.0103921 -0.00343517)
(0.00668085 -0.00509763 -0.0150413)
(0.0192369 -0.00944136 -0.0204572)
(0.0193187 -0.0119158 -0.021443)
(0.0202921 -0.0144387 -0.0204728)
(0.016332 -0.0156382 -0.0193617)
(0.0117904 -0.00956375 -0.0160597)
(0.0100948 0.00343256 -0.0138632)
(0.00162821 0.0128818 -0.00288142)
(0.00368427 0.0163574 0.00541257)
(0.0042637 0.0044646 0.00834766)
(0.0203305 0.0197029 0.00325254)
(0.0220904 0.00505526 0.00235605)
(0.0118613 0.00111925 -0.00202689)
(0.00995244 2.70232e-05 -0.000550329)
(0.00507287 -0.00348807 0.000926339)
(0.00515547 -0.0018071 0.0016383)
(0.00497417 -0.00219131 0.0023046)
(0.00481353 -0.000827114 0.00249943)
(0.00358783 -0.000740472 0.0026749)
(0.00229884 0.000965471 0.00265955)
(0.00167973 0.00237638 0.00278064)
(0.0018699 0.00370513 0.00344674)
(0.00226282 0.00394033 0.00393659)
(0.00271168 0.00371778 0.0042473)
(0.00289836 0.00297908 0.00433779)
(0.00305772 0.00221636 0.00434168)
(0.0031562 0.00135465 0.00428466)
(0.00324959 0.000608288 0.00421621)
(0.00332572 -5.98393e-05 0.00414539)
(0.00337668 -0.000581585 0.00408951)
(0.00339192 -0.000963073 0.00404964)
(0.00339869 -0.00117708 0.00400376)
(0.00340224 -0.00126954 0.00396088)
(0.00337164 -0.00128382 0.0039705)
(0.00330379 -0.00125061 0.00402853)
(0.00320778 -0.00119408 0.00412749)
(0.00310281 -0.00113636 0.00424867)
(0.0030312 -0.00110567 0.00433094)
(0.00296702 -0.00113783 0.00442182)
(0.0028991 -0.00122766 0.00451069)
(0.00283188 -0.0013615 0.00458916)
(0.00277691 -0.00152675 0.00465428)
(0.00273936 -0.00171701 0.00470414)
(0.00272711 -0.00192142 0.00473904)
(0.00275356 -0.00213438 0.00476188)
(0.0028221 -0.00236691 0.00478062)
(0.00290548 -0.00262327 0.00480241)
(0.00294272 -0.00286686 0.00483091)
(0.00291917 -0.0029724 0.00484593)
(0.00298423 -0.00284283 0.00467922)
(0.0033602 -0.00258665 0.00440557)
(0.00456977 -0.00285218 0.00426647)
(0.00653749 -0.00365263 0.00392684)
(0.00832497 -0.00432425 0.00340851)
(0.00917685 -0.00390534 0.00241427)
(0.00933118 -0.00357638 0.000745116)
(0.00891603 0.000509321 -0.000259766)
(0.00965102 0.00225868 -0.000255477)
(0.0137392 0.00622944 -0.00134401)
(0.0145115 0.00242251 -0.00355797)
(0.0103499 0.0103489 -0.00447772)
(0.0147401 -0.00376362 -0.000402684)
(0.058236 -0.0339308 -0.00491968)
(0.0945292 -0.0920253 -0.00783489)
(0.0932386 -0.0975137 0.000342116)
(0.0778462 -0.143601 0.00712106)
(0.0322092 -0.105366 0.00801758)
(-0.00441606 -0.1901 0.0471523)
(-0.12875 -0.018707 -0.0638301)
(0.0374117 -0.0856101 0.00381317)
(0.127634 -0.2665 0.0884325)
(0.0435297 0.0477868 0.0195341)
(-0.0577493 -0.101191 0.0089545)
(-0.0238271 -0.03 0.025318)
(-0.0167795 -0.0549498 0.0198937)
(-0.0132332 -0.0240454 0.0267981)
(-0.0292181 0.00429383 -0.00297764)
(-0.0139023 0.0596487 -0.01416)
(0.00687688 0.0696355 -0.0167671)
(0.0163223 0.0734905 -0.00915087)
(0.0282369 0.0696084 -0.011507)
(0.0348035 0.0640119 -0.0143548)
(0.0419418 0.0542869 -0.0185121)
(0.0473587 0.0497716 -0.02258)
(0.0467581 0.0353181 -0.0194659)
(0.0429738 0.0271959 -0.0224149)
(0.0319836 0.0189443 -0.0192818)
(0.0141816 -0.0125562 -0.0121977)
(-0.000603169 -0.0403125 -0.0105281)
(-0.00594685 -0.0390902 -0.0070662)
(-0.0213295 -0.0478558 0.000533738)
(-0.0466686 -0.0374457 -0.00642349)
(-0.0438842 0.00486001 -0.01097)
(-0.0274275 0.023418 -0.009027)
(-0.0164471 0.0146165 -0.00834255)
(0.00377403 0.0121864 -0.00864366)
(0.0279984 0.00171646 0.00107089)
(0.038373 -0.000738413 -0.000624372)
(0.0425887 -0.00153286 -0.000929715)
(0.0457725 -0.00327491 -0.00227807)
(0.03375 0.000495948 -0.00483679)
(0.0150744 0.00265795 -0.00173473)
(0.00809353 0.0107586 -0.00926007)
(0.00540047 0.0206002 -0.00762302)
(0.0100574 0.0230276 0.000682947)
(0.00855307 0.0115567 0.00848195)
(0.0232212 0.0200109 0.00438438)
(0.025886 0.0109671 0.00439218)
(0.0169893 0.00560778 0.000750804)
(0.013975 0.0045844 0.00204371)
(0.0068169 -0.00104464 0.00341826)
(0.00499282 -0.000451812 0.00345534)
(0.00350846 -0.00127068 0.00430894)
(0.00296108 0.000446264 0.00432005)
(0.00150232 0.00040808 0.00431286)
(0.00038569 0.0016222 0.00422635)
(-0.000174566 0.0020825 0.00423325)
(0.000369975 0.00305717 0.0044862)
(0.000962916 0.00323574 0.00479229)
(0.00153156 0.00332985 0.00502466)
(0.00182119 0.00296459 0.005081)
(0.00205268 0.0025431 0.00507071)
(0.0021895 0.00195339 0.00502059)
(0.00230622 0.00141959 0.00497455)
(0.00238893 0.000897381 0.004931)
(0.00244035 0.000458801 0.0049086)
(0.00244342 7.89765e-05 0.00490759)
(0.00240564 -0.000228014 0.00493208)
(0.0023388 -0.000465068 0.00498035)
(0.00225121 -0.000632894 0.00503613)
(0.00214114 -0.000750029 0.00509545)
(0.00201635 -0.000830781 0.00515674)
(0.00189279 -0.000892233 0.00522086)
(0.00177983 -0.000944178 0.00529622)
(0.00168443 -0.000994675 0.00537933)
(0.0015893 -0.00105697 0.00546522)
(0.00149288 -0.00113084 0.00554648)
(0.00141283 -0.00121271 0.00561793)
(0.00135701 -0.00129897 0.00567638)
(0.00133112 -0.00138351 0.0057202)
(0.00135019 -0.00145565 0.00575126)
(0.00142652 -0.00150671 0.00578033)
(0.00152506 -0.00153213 0.0058197)
(0.00157019 -0.00152547 0.00587035)
(0.00155519 -0.00146632 0.00590069)
(0.00169657 -0.00131863 0.00591429)
(0.00247988 -0.0013772 0.00589578)
(0.00413557 -0.00202985 0.00574584)
(0.0057137 -0.00236611 0.00534758)
(0.00709315 -0.00149029 0.00507028)
(0.00866183 -6.19328e-05 0.00523906)
(0.00891312 0.00151593 0.00478565)
(0.00875543 0.00542442 0.00400763)
(0.00959468 0.0067144 0.00277792)
(0.014291 0.0110718 0.000533228)
(0.015318 0.00898622 -0.0012671)
(0.0209964 0.01753 0.00193005)
(0.050133 -0.0239096 0.00362513)
(0.105429 -0.0679611 -0.00935529)
(0.12251 -0.0944486 0.00674952)
(0.111279 -0.0833492 0.0125373)
(0.0859157 -0.119993 0.0139116)
(-0.00221106 -0.0378635 0.0279227)
(-0.022399 -0.21986 0.0564132)
(-0.178393 0.0465016 -0.00658734)
(0.0217184 -0.17206 0.00662907)
(0.139113 -0.233539 0.063565)
(0.0304586 0.161881 0.0327927)
(0.00253406 -0.130034 0.0396809)
(-0.0242846 0.00751732 -0.00705596)
(-0.0129931 0.0367597 -0.0177387)
(-0.0142909 0.100953 -0.0155345)
(0.00681475 0.109443 -0.0156233)
(0.0258611 0.113176 -0.0126756)
(0.040915 0.115836 -0.0159196)
(0.0502663 0.122252 -0.0161636)
(0.0609616 0.118407 -0.018696)
(0.0686199 0.121536 -0.0187303)
(0.0738224 0.118347 -0.0180197)
(0.0762688 0.117828 -0.0165501)
(0.07386 0.115622 -0.0148889)
(0.070133 0.117116 -0.0144704)
(0.0548865 0.117599 -0.0164107)
(0.0241268 0.112176 -0.0193465)
(-0.00067439 0.107247 -0.0203742)
(-0.0138217 0.0967771 -0.0178787)
(-0.0168111 0.0866747 -0.0172794)
(-0.0111793 0.0778121 -0.0155628)
(-0.000446113 0.060769 -0.00903867)
(0.0204482 0.051242 -0.000471377)
(0.0245877 0.0335701 0.0063726)
(0.0313465 0.0136895 0.0178804)
(0.0399455 -0.000801234 0.0202882)
(0.0451792 -0.00978533 0.0210964)
(0.0482688 -0.0132914 0.0215426)
(0.04841 -0.011381 0.0206405)
(0.0430042 -0.00355984 0.0117283)
(0.0259666 -0.00538859 0.00965975)
(0.0207232 -0.00390149 0.00999475)
(0.00672671 0.00247198 -0.00898753)
(0.0145659 0.0151189 -0.00264383)
(0.0244554 0.0123849 0.00170386)
(0.0240555 0.0203136 0.00443279)
(0.0277143 0.0152489 0.00471145)
(0.0197469 0.00851422 0.00074404)
(0.017997 0.00896369 0.000849192)
(0.00959795 0.00202979 0.0014199)
(0.00564437 0.00179801 0.0022667)
(0.00216885 -0.000776806 0.00422131)
(0.00128883 0.00118464 0.00433533)
(-7.0708e-05 0.000457625 0.0044336)
(-0.00104972 0.00137647 0.00435249)
(-0.00150272 0.00128496 0.00442775)
(-0.00106334 0.00194704 0.00472634)
(-0.00061262 0.0023082 0.00503097)
(7.95662e-06 0.00275222 0.0052431)
(0.000389004 0.00269186 0.0052767)
(0.000685275 0.00253046 0.00528196)
(0.000840969 0.00212512 0.00525688)
(0.000948921 0.00172362 0.00524836)
(0.00100289 0.00129756 0.00523253)
(0.00102538 0.000923607 0.00522372)
(0.00100585 0.000576329 0.00522143)
(0.000945219 0.000262843 0.00523124)
(0.000857022 -1.83455e-05 0.00525347)
(0.000746891 -0.000259298 0.00528355)
(0.000619759 -0.000456666 0.00532056)
(0.000485184 -0.000607225 0.00536231)
(0.000355393 -0.000716616 0.00540632)
(0.000249189 -0.000798708 0.00545383)
(0.000161158 -0.000860913 0.00550892)
(7.6029e-05 -0.000904553 0.00557062)
(-3.29418e-06 -0.000925644 0.00563362)
(-6.20272e-05 -0.000923211 0.00568703)
(-9.69896e-05 -0.000906404 0.00572381)
(-0.000103762 -0.000889249 0.00574431)
(-7.56932e-05 -0.000881327 0.00575368)
(-9.02058e-06 -0.000874742 0.00576669)
(7.73869e-05 -0.000845823 0.00580651)
(0.000119227 -0.000792414 0.005873)
(0.000109303 -0.000710091 0.00592359)
(0.000443156 -0.000699669 0.00595197)
(0.00166329 -0.000907773 0.00588766)
(0.00338571 -0.00135562 0.00554147)
(0.00462778 -0.00121182 0.00481144)
(0.00574717 -0.000259539 0.00426157)
(0.00744401 0.001242 0.00465591)
(0.00783884 0.00246395 0.0053413)
(0.00778696 0.00530706 0.00583152)
(0.00948217 0.00673478 0.00414129)
(0.0142919 0.0108614 0.0016698)
(0.0134577 0.00902527 0.00241312)
(0.0386125 0.00827488 0.00753554)
(0.0916757 -0.047761 -0.00619988)
(0.134411 -0.0517596 0.0101327)
(0.128711 -0.0541409 0.0258461)
(0.11735 -0.0264338 0.00857793)
(0.066333 -0.0430958 -0.00326444)
(0.0688836 0.0983965 0.0912288)
(0.0290408 -0.215312 0.104286)
(-0.26946 0.287351 -0.0165755)
(-1.12371e-05 -0.291057 0.012423)
(0.0751837 -0.11801 0.0472553)
(-0.0120866 0.164659 -0.00454302)
(-0.00968964 0.0627697 0.00264918)
(-0.0574098 0.120396 -0.0116784)
(-0.0216649 0.129845 -0.00981171)
(-0.00329255 0.136705 -0.00290271)
(0.0230521 0.129213 -0.00531006)
(0.0396652 0.13742 -0.00290858)
(0.0524946 0.128961 -0.00219069)
(0.0671935 0.138538 -0.00260325)
(0.0797727 0.133511 -0.00254904)
(0.0884993 0.13798 -0.00762896)
(0.0937994 0.136344 -0.00884054)
(0.0960227 0.135271 -0.00881477)
(0.0960969 0.133964 -0.00925709)
(0.092405 0.134839 -0.00845956)
(0.0838934 0.136271 -0.00916442)
(0.0708309 0.135543 -0.00855589)
(0.0587961 0.132471 -0.00469018)
(0.0475343 0.122633 -0.000624416)
(0.0388442 0.110039 0.0044273)
(0.0331469 0.0959598 0.0108674)
(0.0268799 0.0782159 0.0157089)
(0.0275679 0.0603493 0.0254915)
(0.0314944 0.0422451 0.0313911)
(0.0323829 0.0233868 0.041003)
(0.0338227 0.00332776 0.0439604)
(0.0340764 -0.0140203 0.0444134)
(0.0312469 -0.0262935 0.0388475)
(0.0332093 -0.0259159 0.032938)
(0.0320932 -0.0174907 0.0268212)
(0.0197499 -0.0139504 0.0171396)
(0.00949378 -0.0106088 0.0235943)
(0.0101062 -0.0170517 0.0228687)
(0.0052533 -0.0167624 0.00549811)
(0.0238355 -0.00384084 -0.0128513)
(0.024042 0.0207372 0.00422553)
(0.0290241 0.0193047 0.00505681)
(0.0219467 0.011262 0.00105944)
(0.0224965 0.012256 0.000658072)
(0.0144877 0.0046862 -0.000930586)
(0.00890661 0.00424885 -0.000458795)
(0.00187657 -0.000740846 0.00283956)
(-0.000261709 0.00153685 0.00347697)
(-0.00158339 0.000242635 0.00369737)
(-0.00254572 0.00094909 0.00392675)
(-0.00322865 0.000466637 0.00417153)
(-0.00321447 0.000998205 0.00461509)
(-0.00305448 0.00147126 0.00490046)
(-0.00239269 0.00220335 0.00511247)
(-0.0019193 0.00237515 0.00511146)
(-0.00158318 0.0023551 0.00512488)
(-0.00141486 0.00205079 0.00513285)
(-0.00137658 0.00174143 0.00516403)
(-0.00140307 0.00139674 0.00516982)
(-0.00145101 0.0010875 0.00515899)
(-0.00151364 0.00078343 0.00513175)
(-0.00158739 0.000484688 0.00510197)
(-0.00167039 0.000192361 0.00507892)
(-0.0017652 -7.61604e-05 0.00506451)
(-0.00188086 -0.000313724 0.00505644)
(-0.002009 -0.000513292 0.00505336)
(-0.00211811 -0.000670335 0.00505959)
(-0.002197 -0.000789815 0.00507452)
(-0.00225894 -0.000867511 0.00509236)
(-0.00232654 -0.000894616 0.00511219)
(-0.00240044 -0.000870152 0.00513352)
(-0.00245546 -0.000801267 0.00514933)
(-0.00247148 -0.00070384 0.00515595)
(-0.00244037 -0.000595924 0.00515155)
(-0.00236758 -0.000487939 0.0051395)
(-0.00226976 -0.000366666 0.00513907)
(-0.00218449 -0.000207277 0.00517775)
(-0.00215296 -2.84872e-05 0.00525682)
(-0.00206668 7.05335e-05 0.00533757)
(-0.00153558 -3.90372e-05 0.00534036)
(-0.000219009 -0.000400347 0.00511084)
(0.00157748 -0.000693046 0.00461304)
(0.00271541 -0.000465561 0.00378514)
(0.00383687 0.000243593 0.00330468)
(0.00568396 0.00121859 0.00385211)
(0.00601486 0.00163406 0.00493439)
(0.00587613 0.00285113 0.00540966)
(0.0084004 0.00443432 0.00385045)
(0.0143724 0.0069807 0.00245519)
(0.0138146 0.00744021 0.00492676)
(0.0550439 -0.0127306 0.00484476)
(0.11467 -0.0271844 0.00356474)
(0.110544 0.0121532 0.0328656)
(0.101356 0.0470201 0.0291002)
(0.0709672 0.132798 -0.0255237)
(0.00610964 0.20094 -0.0135555)
(-0.0707871 0.18564 0.0353718)
(-0.136109 0.100749 0.0387861)
(-0.262017 0.445211 0.015161)
(-0.0136196 -0.33468 0.021647)
(0.0319281 -0.105501 0.0279749)
(-0.0184512 0.161178 1.31385e-05)
(-0.0197924 0.0756346 0.0139619)
(-0.034584 0.13215 0.00850461)
(-0.0128819 0.122039 0.00988255)
(0.00583675 0.137924 0.00778316)
(0.0281115 0.132094 -0.000664585)
(0.0519407 0.146576 -0.00130937)
(0.0642777 0.151252 -0.000761992)
(0.0713209 0.160012 0.00232071)
(0.0790276 0.160264 0.00393811)
(0.0816228 0.160657 0.00489522)
(0.0839753 0.15871 0.00611937)
(0.0840393 0.155427 0.00745622)
(0.0825451 0.15208 0.00810328)
(0.0788745 0.148423 0.0058163)
(0.0718098 0.143886 0.00337806)
(0.0624087 0.139578 0.001278)
(0.0536575 0.133103 0.00429852)
(0.0461638 0.124367 0.00717702)
(0.0393296 0.111696 0.0129616)
(0.0331508 0.0975306 0.026752)
(0.0279705 0.0809277 0.037934)
(0.0274364 0.0639975 0.0499895)
(0.0236751 0.0390608 0.0549038)
(0.02421 0.0198113 0.0594326)
(0.0250339 -0.00448441 0.0596422)
(0.0262546 -0.0207757 0.0567208)
(0.0155122 -0.0413327 0.0522649)
(0.0095603 -0.051797 0.0431458)
(0.0140728 -0.0485061 0.0370679)
(0.00935138 -0.0325395 0.0243091)
(-0.00149352 -0.025241 0.0268925)
(0.00315777 -0.0240983 0.0309555)
(0.00652012 -0.0298714 0.0190451)
(0.0145406 -0.0195962 -0.0126042)
(0.0231331 0.0205003 0.00390828)
(0.0302978 0.0236311 0.00622764)
(0.0232265 0.014015 0.00248729)
(0.0249697 0.0148109 0.00232737)
(0.0197659 0.00573723 -0.000938271)
(0.0144712 0.005812 -0.00199609)
(0.00275839 -0.00121628 0.000355488)
(-0.00144739 0.001501 0.00155835)
(-0.00236883 -0.000380998 0.00221986)
(-0.00355178 0.000434656 0.00291851)
(-0.00423717 -0.000328194 0.00335326)
(-0.00445233 0.000217922 0.00398864)
(-0.00447955 0.000805219 0.00428653)
(-0.00368816 0.00183179 0.00462018)
(-0.00289291 0.0020733 0.0047813)
(-0.00234554 0.00204634 0.00495501)
(-0.00210874 0.0017404 0.00508749)
(-0.00210288 0.00145952 0.0051949)
(-0.00218617 0.00120416 0.00522581)
(-0.00228424 0.00100489 0.0052011)
(-0.00238193 0.000815065 0.00512364)
(-0.00248327 0.000617991 0.00501584)
(-0.00259943 0.000409372 0.00490045)
(-0.00271898 0.00020327 0.00478856)
(-0.00283171 9.77873e-06 0.0046864)
(-0.00293138 -0.000149628 0.00459235)
(-0.00301254 -0.000276555 0.00450435)
(-0.00307227 -0.000379861 0.00442702)
(-0.00313334 -0.000453374 0.00436237)
(-0.0032114 -0.000485032 0.00431511)
(-0.00329561 -0.000460811 0.00428302)
(-0.00335178 -0.000380426 0.00425075)
(-0.00337066 -0.000256024 0.00420273)
(-0.00336142 -0.000101401 0.00413055)
(-0.00333789 6.65949e-05 0.004039)
(-0.00331363 0.000249846 0.00395292)
(-0.00327049 0.000456003 0.00391079)
(-0.00314849 0.000657214 0.0039401)
(-0.00279305 0.00071538 0.00400799)
(-0.00179294 0.000532421 0.00405868)
(5.59485e-05 0.00020898 0.00403642)
(0.00196576 2.59979e-05 0.00380372)
(0.00306477 6.77731e-05 0.00313507)
(0.00377979 0.000326458 0.00273897)
(0.00491849 0.000912794 0.00363408)
(0.00517857 0.00112396 0.00517022)
(0.00466172 0.00134301 0.00535029)
(0.00700585 0.00243197 0.00307015)
(0.0123722 0.00530867 0.00271866)
(0.0181943 0.0103037 0.00622168)
(0.0580942 -0.0206318 0.00682776)
(0.0843346 0.0245697 0.0343654)
(0.0677606 0.0680698 0.0480283)
(0.0434759 0.124222 0.0144878)
(0.0169743 0.219501 0.00778042)
(-0.00651171 0.278161 0.0189081)
(-0.0588294 0.281043 0.0226658)
(-0.0855161 0.231804 0.0452738)
(-0.0994049 0.453525 0.0687023)
(0.00580032 -0.353782 0.0225123)
(-0.0415762 -0.0771889 0.0466402)
(-0.0314874 0.153614 0.0105491)
(-0.0434642 0.0776082 0.0275337)
(-0.0404707 0.123491 0.024185)
(-0.0270313 0.101755 0.0332913)
(0.000691904 0.102921 0.0222655)
(0.0271373 0.105244 -0.00105719)
(0.0549011 0.130178 -0.00605673)
(0.0673382 0.15565 -0.00701742)
(0.0757123 0.16684 -0.00120816)
(0.0823971 0.168527 0.00382535)
(0.0807279 0.173147 0.0102343)
(0.0790675 0.169821 0.0161602)
(0.0734583 0.169474 0.0185012)
(0.0694546 0.166821 0.0223954)
(0.0649819 0.1635 0.0222526)
(0.0587917 0.157296 0.018415)
(0.0528525 0.15177 0.011137)
(0.0468493 0.142131 0.00537495)
(0.0402611 0.137488 0.0060065)
(0.0322595 0.132943 0.0073924)
(0.0234309 0.122735 0.021796)
(0.0159469 0.106625 0.0428929)
(0.00933864 0.0872904 0.0553198)
(0.00371991 0.063793 0.0600715)
(-0.00156289 0.0507294 0.0557672)
(-0.0100952 0.0237244 0.0450434)
(-0.0131055 0.0110367 0.0338488)
(-0.0166479 -0.0129004 0.0279122)
(-0.0249244 -0.0365135 0.025628)
(-0.0243567 -0.0451426 0.0139161)
(-0.0249187 -0.0424876 0.0120859)
(-0.0284688 -0.0389904 0.0181145)
(-0.0207187 -0.0370053 0.0310618)
(-0.011516 -0.0315229 0.02719)
(0.00996422 -0.0303296 -0.00862574)
(0.0209633 0.0190214 0.00417188)
(0.0310426 0.0279914 0.00857056)
(0.0234929 0.0167805 0.00503075)
(0.0251928 0.0175409 0.00523616)
(0.0221744 0.00591631 0.00155196)
(0.0189152 0.00591048 -0.000116094)
(0.00487523 -0.00244556 -0.00131406)
(-0.00195124 0.00123688 -0.000212249)
(-0.00343814 -0.00106165 0.000940303)
(-0.0048318 2.71033e-05 0.00200559)
(-0.00573904 -0.000777503 0.00243925)
(-0.00663731 -9.22251e-05 0.00321292)
(-0.00715228 0.000475182 0.00366356)
(-0.00621843 0.00136138 0.00443169)
(-0.00516027 0.00145809 0.00499344)
(-0.00460622 0.00140594 0.0054453)
(-0.00449376 0.00112868 0.00570576)
(-0.00470358 0.000950573 0.00584857)
(-0.00498562 0.000845467 0.00586104)
(-0.00521076 0.000817568 0.00579597)
(-0.00536173 0.000809249 0.00565185)
(-0.00545704 0.000798153 0.00545649)
(-0.00552578 0.000768419 0.00524316)
(-0.00558055 0.000717865 0.00503187)
(-0.00565053 0.000661425 0.00484745)
(-0.00571983 0.000624542 0.00469234)
(-0.00572003 0.000593841 0.0045497)
(-0.00567651 0.000547828 0.00444693)
(-0.00562659 0.000492664 0.00438227)
(-0.00561226 0.000447166 0.00435339)
(-0.0056332 0.000443355 0.00434353)
(-0.00564264 0.000498851 0.00432136)
(-0.00561921 0.000597082 0.00426399)
(-0.00554835 0.000719525 0.0041667)
(-0.00543822 0.000835411 0.00403992)
(-0.00532102 0.000929634 0.00389709)
(-0.00519399 0.00101736 0.0037476)
(-0.0049491 0.00111741 0.00364125)
(-0.00435184 0.00118005 0.00362901)
(-0.00303372 0.00111682 0.00375496)
(-0.00102426 0.000898137 0.00399676)
(0.000921898 0.000674781 0.00439294)
(0.00200882 0.000464932 0.00418481)
(0.00244625 7.0983e-05 0.00371684)
(0.00307851 -1.6145e-05 0.00418612)
(0.00263134 -7.4034e-05 0.00550085)
(0.0022983 0.000981734 0.00486032)
(0.00533705 0.00178444 0.00233649)
(0.00787815 0.00407545 0.0022129)
(0.0213205 0.00341431 0.0115755)
(0.0455212 0.000404825 0.0345321)
(0.0389576 0.0547331 0.0373965)
(0.0144365 0.0782042 0.0335155)
(-0.00730151 0.108714 0.0640459)
(-0.043738 0.121831 0.0570331)
(-0.0732309 0.150544 0.0358545)
(-0.11796 0.181538 0.0332488)
(-0.076574 0.116238 0.0203058)
(0.0347609 0.32924 0.0257561)
(0.0161558 -0.278922 0.0288125)
(-0.0764568 -0.171651 0.0998449)
(-0.0434639 0.16401 0.00330361)
(-0.0589676 0.0510671 0.0353522)
(-0.0419818 0.109891 0.0352544)
(-0.0218564 0.0689702 0.0491624)
(0.00263617 0.054528 0.0282674)
(0.0037661 0.0480844 0.0144312)
(0.0227168 0.0562061 -0.00526222)
(0.0377807 0.0902402 -0.0225147)
(0.057492 0.14454 -0.0115136)
(0.0706551 0.160899 -0.000626159)
(0.0673854 0.170336 0.0080619)
(0.0667397 0.171679 0.0134209)
(0.0662268 0.172984 0.017654)
(0.0601838 0.170545 0.0241577)
(0.0561069 0.166811 0.0273172)
(0.0530213 0.157028 0.027287)
(0.0492641 0.147637 0.0221329)
(0.0434973 0.134177 0.0144037)
(0.0293097 0.127826 -0.00260996)
(0.0150418 0.120618 -0.0141052)
(0.0056694 0.118629 -0.0155037)
(-0.00196696 0.112385 -0.00733394)
(-0.0114006 0.0983635 -5.68167e-05)
(-0.0187325 0.0835016 -0.000957796)
(-0.0189564 0.0690853 -0.0123071)
(-0.0113934 0.0584177 -0.02842)
(-0.00466141 0.042904 -0.0420388)
(0.001443 0.033823 -0.0417822)
(-0.00610489 -0.0040802 -0.0176472)
(-0.00550104 -0.0234244 -0.00817822)
(-0.0154596 -0.0334766 0.000870656)
(-0.0357382 -0.0332279 0.0133871)
(-0.0420766 -0.0389854 0.0268647)
(-0.04366 -0.034123 0.0250522)
(-0.0302069 -0.0360278 -0.00123723)
(0.0207875 0.0137149 0.00397077)
(0.0304042 0.0306151 0.0101728)
(0.0228532 0.0190624 0.00578342)
(0.0252022 0.0219272 0.00594686)
(0.0232368 0.00791586 0.00266969)
(0.0204656 0.00620317 0.00205761)
(0.00605353 -0.00365115 -0.00245379)
(-0.0033221 0.000695078 -0.00143814)
(-0.00378183 -0.00202562 0.00116871)
(-0.00568692 8.69526e-05 0.00209022)
(-0.00626828 -0.000751756 0.00251576)
(-0.00707004 0.000150747 0.00336092)
(-0.00724997 -0.000137123 0.00415648)
(-0.00601256 0.000211859 0.00530789)
(-0.00484828 6.73116e-06 0.00625954)
(-0.00423408 0.000147266 0.00708583)
(-0.00415028 0.000179527 0.00759451)
(-0.0043876 0.000378894 0.00786129)
(-0.00466274 0.00056931 0.00793193)
(-0.00486149 0.000812256 0.00788783)
(-0.00499931 0.00104676 0.00773584)
(-0.00509365 0.00123095 0.00750914)
(-0.00515989 0.00135475 0.00725038)
(-0.0052042 0.00143328 0.0069887)
(-0.00524566 0.00146785 0.00673967)
(-0.00527778 0.00146724 0.00651439)
(-0.00525651 0.00145277 0.00633196)
(-0.00518835 0.00142175 0.0061925)
(-0.00511874 0.00136444 0.00608995)
(-0.00509943 0.00129911 0.00602248)
(-0.0051379 0.00127535 0.00596769)
(-0.0051645 0.00131304 0.00589921)
(-0.00514286 0.00137585 0.00580202)
(-0.00506819 0.00144623 0.00567365)
(-0.00495211 0.00149545 0.00551592)
(-0.00482513 0.00150813 0.00532848)
(-0.00468437 0.00148647 0.00511903)
(-0.00440328 0.0014467 0.00494318)
(-0.00367934 0.00137931 0.00490901)
(-0.00211472 0.00125988 0.00516346)
(0.000265974 0.000998432 0.0057649)
(0.00238625 0.000717715 0.00641465)
(0.00373335 0.000520044 0.00646906)
(0.00438078 -0.000152347 0.00622101)
(0.00476589 -0.000853455 0.00647636)
(0.00325694 -0.000720694 0.0068382)
(0.00156631 0.00142206 0.00489311)
(0.00445227 0.0031299 0.00219922)
(0.00665913 0.00548828 0.00389575)
(0.00621256 -0.00110173 0.0271708)
(0.00337224 0.0336908 0.0435825)
(-0.00216779 0.0866825 0.0444899)
(-0.0173531 0.105746 0.0687455)
(-0.0334085 0.13219 0.1072)
(-0.0450713 0.130458 0.13058)
(-0.0497324 0.0943752 0.138882)
(-0.0929374 0.174062 0.172142)
(-0.0736905 -0.225761 0.246656)
(0.0802868 0.290582 0.0827253)
(0.0248219 -0.273614 0.0228586)
(-0.104031 -0.165443 0.123691)
(-0.0807509 0.164239 -0.0134108)
(-0.0708894 0.0421943 0.0321196)
(-0.0400296 0.0997884 0.023402)
(-0.0120562 0.0403808 0.024604)
(0.0275631 0.0361427 -0.000625385)
(0.0295534 0.0252711 -0.00271273)
(0.0441755 0.0248486 0.0108487)
(0.0259768 0.0264109 0.00519136)
(0.0094938 0.0365764 -0.0218714)
(0.0282337 0.0723747 -0.032362)
(0.0439107 0.120144 -0.00371233)
(0.0497061 0.135066 0.00591764)
(0.049477 0.145216 0.0163163)
(0.0541718 0.14907 0.0270641)
(0.0592073 0.152096 0.0316302)
(0.0664865 0.148029 0.0324201)
(0.0670382 0.142138 0.0305869)
(0.0622195 0.135835 0.0313902)
(0.0570996 0.122416 0.0316407)
(0.0474994 0.107412 0.0296988)
(0.0325769 0.0810701 0.0203383)
(0.0220334 0.0635149 0.00532468)
(0.0181856 0.0587441 -0.00080674)
(0.021642 0.0541766 -0.00331671)
(0.0250713 0.0487808 -0.00503512)
(0.0339664 0.0477002 -0.00501836)
(0.040042 0.0430515 -0.0177918)
(0.0318804 0.0434475 -0.0366558)
(0.011664 0.0428619 -0.0491686)
(-0.00422151 0.0385958 -0.0329205)
(-0.0219321 0.0316837 -0.00320085)
(-0.0408328 0.0267815 0.0154146)
(-0.044715 0.0170675 0.0279206)
(-0.0486816 0.0128178 0.027916)
(-0.0584624 -0.017402 -0.053612)
(0.0138304 0.00731851 0.000633288)
(0.027051 0.0311142 0.0096767)
(0.0205305 0.0214009 0.00363732)
(0.0244859 0.0273799 0.00369858)
(0.024079 0.0123672 0.00195609)
(0.021743 0.008809 0.00207584)
(0.00770354 -0.00372942 -0.00543931)
(-0.00284531 0.000735134 -0.00600243)
(-0.00644092 -0.00193741 -0.00273579)
(-0.00814645 0.000572758 -0.00118135)
(-0.00850565 -0.00059771 -0.00071601)
(-0.00889177 6.19979e-05 0.00024312)
(-0.00904043 -0.000915076 0.00122606)
(-0.00845841 -0.000893319 0.00230768)
(-0.00806934 -0.00106857 0.00316566)
(-0.00804921 -0.000672092 0.00395802)
(-0.00831339 -0.000353843 0.00459887)
(-0.00870666 8.95657e-05 0.0050494)
(-0.00908471 0.000442387 0.00530484)
(-0.00938168 0.000801274 0.00542135)
(-0.00948138 0.00112359 0.00540654)
(-0.00943598 0.00139135 0.00529913)
(-0.00934996 0.00160049 0.00514453)
(-0.00923187 0.00174947 0.00497739)
(-0.00910188 0.00184099 0.00481016)
(-0.00895748 0.00188233 0.00465011)
(-0.00877349 0.00189424 0.00451)
(-0.00855344 0.00189049 0.00439897)
(-0.00833584 0.00187096 0.00431518)
(-0.0082185 0.00184293 0.00425599)
(-0.00820443 0.00183614 0.00420637)
(-0.00816708 0.00185956 0.00414091)
(-0.0080793 0.00189031 0.00405007)
(-0.00792188 0.00192818 0.00392468)
(-0.00769746 0.00195167 0.00376273)
(-0.0074418 0.0019395 0.00356217)
(-0.00716275 0.00188332 0.00333735)
(-0.00676738 0.00176405 0.00313192)
(-0.00599682 0.00156383 0.00302781)
(-0.00452678 0.00133861 0.00310008)
(-0.00246893 0.00114291 0.00338719)
(-0.00065609 0.00117899 0.00376495)
(0.000779924 0.00120241 0.00373452)
(0.00177069 0.000567939 0.0035623)
(0.00190312 5.31971e-05 0.00391194)
(-0.000332295 0.00071568 0.00345932)
(-0.00129497 0.00391047 -9.14971e-05)
(0.000130349 0.00878995 -0.00205748)
(0.000594804 0.0122363 0.00204815)
(-0.0188634 0.00934558 0.0169195)
(-0.0531466 0.00159503 0.03288)
(-0.0545559 0.0649937 0.0241616)
(-0.0550745 0.0922285 0.0549966)
(-0.0451815 0.107625 0.0864364)
(-0.0362658 0.113165 0.108287)
(0.00815828 0.0645485 0.117304)
(0.115994 0.155267 0.166324)
(0.0542799 -0.262526 0.285029)
(0.0481183 0.185657 0.070046)
(-0.011575 -0.218765 0.0223497)
(-0.119589 -0.208357 0.136728)
(-0.110001 0.167547 -0.0345708)
(-0.0858148 -0.00533968 0.0281205)
(-0.0310607 0.0710466 0.0036941)
(-0.00698206 0.00715628 0.0238996)
(0.0416883 0.0208923 0.0136929)
(0.035689 -0.00722018 0.0164406)
(0.0357768 -0.0162731 0.000121381)
(0.0406219 -0.0152673 -0.0149467)
(0.0350701 -0.0187279 -0.0199692)
(0.0170881 -0.0138624 -0.0151456)
(-0.00274694 0.0042758 -0.0236518)
(0.0222511 0.0309191 -0.0101572)
(0.021875 0.0445793 0.00515318)
(0.0202069 0.04927 0.0110502)
(0.0228204 0.054015 0.0244419)
(0.0325093 0.0571314 0.0313494)