/*--------------------------------*- C++ -*----------------------------------*\
| =========                 |                                                 |
| \\      /  F ield         | OpenFOAM: The Open Source CFD Toolbox           |
|  \\    /   O peration     | Version:  2.3.0                                 |
|   \\  /    A nd           | Web:      www.OpenFOAM.org                      |
|    \\/     M anipulation  |                                                 |
\*---------------------------------------------------------------------------*/
FoamFile
{
    version     2.0;
    format      ascii;
    class       volScalarField;
    location    "32";
    object      alpha.air;
}
// * * * * * * * * * * * * * * * * * * * * * * * * * * * * * * * * * * * * * //

dimensions      [0 0 0 0 0 0 0];

internalField   nonuniform List<scalar> 
6144
(
0.999995
0.999994
0.999994
0.999993
0.999993
0.999992
0.999992
0.999991
0.99999
0.99999
0.99999
0.99999
0.99999
0.99999
0.99999
0.99999
0.99999
0.99999
0.99999
0.99999
0.99999
0.99999
0.99999
0.99999
0.99999
0.99999
0.99999
0.99999
0.99999
0.99999
0.99999
0.99999
0.99999
0.99999
0.99999
0.99999
0.99999
0.99999
0.99999
0.99999
0.99999
0.99999
0.99999
0.99999
0.99999
0.999989
0.999987
0.999984
0.999979
0.999971
0.999958
0.999943
0.999929
0.999915
0.999906
0.999895
0.999889
0.999879
0.998137
0.926425
0.0366763
0.00024349
9.19246e-07
5.4184e-07
5.51967e-07
5.53686e-07
5.51286e-07
5.48568e-07
5.49464e-07
5.5259e-07
5.51396e-07
5.49033e-07
5.49022e-07
5.48678e-07
5.45988e-07
5.52165e-07
5.58499e-07
5.25919e-07
4.96718e-07
4.9115e-07
4.92241e-07
4.91782e-07
4.89615e-07
4.83134e-07
4.71414e-07
4.5971e-07
4.49294e-07
4.43371e-07
4.40756e-07
4.39218e-07
4.37159e-07
4.3006e-07
4.19622e-07
4.1391e-07
4.13874e-07
4.13825e-07
0.999996
0.999995
0.999993
0.999993
0.999992
0.999992
0.999991
0.999991
0.99999
0.99999
0.99999
0.99999
0.99999
0.99999
0.99999
0.99999
0.99999
0.99999
0.99999
0.99999
0.99999
0.99999
0.99999
0.99999
0.99999
0.99999
0.99999
0.99999
0.99999
0.99999
0.99999
0.99999
0.99999
0.99999
0.99999
0.99999
0.99999
0.99999
0.99999
0.99999
0.99999
0.99999
0.99999
0.99999
0.99999
0.999989
0.999987
0.999984
0.999979
0.999968
0.999955
0.99994
0.999921
0.999901
0.99989
0.999874
0.999875
0.999866
0.99896
0.930036
0.020424
4.52468e-05
5.25064e-07
5.81768e-07
5.48039e-07
5.62194e-07
5.62462e-07
5.78594e-07
5.74639e-07
5.61117e-07
5.45833e-07
5.36527e-07
5.35778e-07
5.34804e-07
5.49082e-07
5.68792e-07
5.74373e-07
5.66834e-07
5.67045e-07
5.80996e-07
5.99096e-07
6.08433e-07
6.1288e-07
6.08584e-07
5.85682e-07
5.60853e-07
5.33847e-07
5.07745e-07
4.87472e-07
4.72498e-07
4.64734e-07
4.59678e-07
4.54935e-07
4.44136e-07
4.21431e-07
4.13777e-07
0.999996
0.999995
0.999994
0.999993
0.999992
0.999992
0.999991
0.999991
0.99999
0.99999
0.99999
0.99999
0.99999
0.99999
0.99999
0.99999
0.99999
0.99999
0.99999
0.99999
0.99999
0.99999
0.99999
0.99999
0.99999
0.99999
0.99999
0.99999
0.99999
0.99999
0.99999
0.99999
0.99999
0.99999
0.99999
0.99999
0.99999
0.99999
0.99999
0.99999
0.99999
0.99999
0.99999
0.99999
0.99999
0.999989
0.999986
0.999982
0.999975
0.999953
0.999926
0.999904
0.999887
0.999876
0.999871
0.999861
0.999869
0.999861
0.999375
0.917697
0.0183166
2.46907e-05
5.25065e-07
6.60347e-07
6.09565e-07
6.35184e-07
6.45082e-07
6.2689e-07
5.91244e-07
5.83673e-07
5.7906e-07
5.64855e-07
5.59516e-07
5.68709e-07
5.86973e-07
6.03062e-07
6.09477e-07
6.13776e-07
6.43847e-07
6.85415e-07
7.12211e-07
7.23392e-07
7.28273e-07
7.01414e-07
6.49898e-07
6.08827e-07
5.9134e-07
5.7513e-07
5.45662e-07
5.26037e-07
5.27194e-07
5.12741e-07
4.99017e-07
4.79604e-07
4.43423e-07
4.1373e-07
0.999996
0.999995
0.999994
0.999993
0.999993
0.999992
0.999992
0.999991
0.99999
0.99999
0.99999
0.99999
0.99999
0.99999
0.99999
0.99999
0.99999
0.99999
0.99999
0.99999
0.99999
0.99999
0.99999
0.99999
0.99999
0.99999
0.99999
0.99999
0.99999
0.99999
0.99999
0.99999
0.99999
0.99999
0.99999
0.99999
0.99999
0.99999
0.99999
0.99999
0.99999
0.99999
0.99999
0.99999
0.999989
0.999988
0.999985
0.99998
0.999947
0.999903
0.999881
0.999871
0.999867
0.999864
0.999864
0.999861
0.99987
0.999859
0.99958
0.898403
0.0252383
4.0713e-05
5.25065e-07
8.88874e-07
9.39668e-07
7.83519e-07
7.53782e-07
6.21422e-07
5.88677e-07
5.86864e-07
6.02489e-07
6.15131e-07
6.2316e-07
6.47764e-07
6.60535e-07
6.52139e-07
6.45656e-07
6.66743e-07
7.12067e-07
7.45476e-07
7.83079e-07
8.00321e-07
8.18177e-07
7.85659e-07
7.35409e-07
6.9056e-07
6.44195e-07
6.13552e-07
5.81358e-07
5.46143e-07
5.25905e-07
4.99628e-07
4.79289e-07
4.63524e-07
4.39771e-07
4.1228e-07
0.999996
0.999996
0.999995
0.999994
0.999993
0.999992
0.999992
0.999991
0.999991
0.99999
0.99999
0.99999
0.99999
0.99999
0.99999
0.99999
0.99999
0.99999
0.99999
0.99999
0.99999
0.99999
0.99999
0.99999
0.99999
0.99999
0.99999
0.99999
0.99999
0.99999
0.99999
0.99999
0.99999
0.99999
0.99999
0.99999
0.99999
0.99999
0.99999
0.99999
0.99999
0.99999
0.99999
0.99999
0.999989
0.999988
0.999984
0.999963
0.999896
0.999873
0.999866
0.999863
0.999863
0.999861
0.999862
0.999861
0.999867
0.999833
0.999605
0.878106
0.0220192
5.2582e-05
2.11849e-05
1.94393e-05
1.54933e-05
1.05381e-05
8.6729e-06
8.58699e-06
8.18458e-06
6.62491e-06
5.69834e-06
5.28755e-06
5.58265e-06
5.85046e-06
5.8121e-06
5.1219e-06
4.26707e-06
2.97816e-06
1.81626e-06
1.05992e-06
8.1118e-07
7.82192e-07
7.01007e-07
6.82412e-07
6.83755e-07
6.25246e-07
6.24405e-07
6.333e-07
5.80399e-07
5.43718e-07
5.20854e-07
4.90885e-07
4.50558e-07
4.43724e-07
4.25697e-07
4.02679e-07
0.999997
0.999996
0.999995
0.999994
0.999993
0.999992
0.999992
0.999991
0.999991
0.99999
0.99999
0.99999
0.99999
0.99999
0.99999
0.99999
0.99999
0.99999
0.99999
0.99999
0.99999
0.99999
0.99999
0.99999
0.99999
0.99999
0.99999
0.99999
0.99999
0.99999
0.99999
0.99999
0.99999
0.99999
0.99999
0.99999
0.99999
0.99999
0.99999
0.99999
0.99999
0.99999
0.99999
0.99999
0.999989
0.999987
0.999978
0.999912
0.999874
0.999868
0.999864
0.999862
0.999861
0.99986
0.999857
0.999842
0.999824
0.999797
0.999778
0.880205
0.0176887
0.000457562
0.00044451
0.000439638
0.000437794
0.00039761
0.000380238
0.000371676
0.000377548
0.000379499
0.000357972
0.000353256
0.000354926
0.000345103
0.000299242
0.000243722
0.000177789
0.00011768
6.67145e-05
3.10311e-05
1.25367e-05
4.71976e-06
1.6193e-06
9.37136e-07
5.18585e-07
4.36661e-07
4.36661e-07
4.36661e-07
4.36661e-07
4.36661e-07
4.36662e-07
4.75081e-07
1.23561e-06
3.98689e-07
3.9855e-07
3.76212e-07
0.999997
0.999996
0.999995
0.999995
0.999993
0.999993
0.999992
0.999991
0.999991
0.999991
0.99999
0.99999
0.99999
0.99999
0.99999
0.99999
0.99999
0.99999
0.99999
0.99999
0.99999
0.99999
0.99999
0.99999
0.99999
0.99999
0.99999
0.99999
0.99999
0.99999
0.99999
0.99999
0.99999
0.99999
0.99999
0.99999
0.99999
0.99999
0.99999
0.99999
0.99999
0.99999
0.99999
0.99999
0.999989
0.999986
0.99996
0.999889
0.999876
0.999874
0.999869
0.999862
0.999857
0.99985
0.999834
0.999816
0.99981
0.999813
0.999885
0.893785
0.0164371
0.00177405
0.00184383
0.00186694
0.00187856
0.00186093
0.0018734
0.0019511
0.00202505
0.00203394
0.00196996
0.00198367
0.00200757
0.00186452
0.00165334
0.0014114
0.00110579
0.00082798
0.000616793
0.000511626
0.000445244
0.000322053
0.0002667
0.000246983
0.000202693
0.000205122
0.000253828
0.000316838
0.000411527
0.000522024
0.000605215
0.000641678
0.000346148
0.000103935
2.35372e-07
2.35373e-07
0.999997
0.999996
0.999996
0.999995
0.999994
0.999993
0.999992
0.999991
0.999991
0.999991
0.99999
0.99999
0.99999
0.99999
0.99999
0.99999
0.99999
0.99999
0.99999
0.99999
0.99999
0.99999
0.99999
0.99999
0.99999
0.99999
0.99999
0.99999
0.99999
0.99999
0.99999
0.99999
0.99999
0.99999
0.99999
0.99999
0.99999
0.99999
0.99999
0.99999
0.99999
0.99999
0.99999
0.99999
0.999989
0.999986
0.99996
0.999891
0.999879
0.999879
0.999876
0.99987
0.99986
0.999847
0.999835
0.999829
0.999832
0.999855
0.999885
0.850807
0.0200813
0.00833787
0.00960575
0.0101261
0.0104643
0.0107556
0.0109846
0.0112642
0.0117834
0.0123802
0.0128177
0.0131398
0.013442
0.0136652
0.0138622
0.0140528
0.0141348
0.0141341
0.0139891
0.0139539
0.0139629
0.0140885
0.0142388
0.0144401
0.0146093
0.0149065
0.0158587
0.0174511
0.0195214
0.0217705
0.0239114
0.0256168
0.026525
0.026805
0.0255934
0.0217942
0.999997
0.999997
0.999996
0.999995
0.999994
0.999993
0.999992
0.999992
0.999991
0.999991
0.99999
0.99999
0.99999
0.99999
0.99999
0.99999
0.99999
0.99999
0.99999
0.99999
0.99999
0.99999
0.99999
0.99999
0.99999
0.99999
0.99999
0.99999
0.99999
0.99999
0.99999
0.99999
0.99999
0.99999
0.99999
0.99999
0.99999
0.99999
0.99999
0.99999
0.99999
0.99999
0.99999
0.99999
0.999989
0.999987
0.999977
0.999912
0.999881
0.999882
0.999882
0.999879
0.999877
0.999875
0.99987
0.999861
0.99984
0.999776
0.999583
0.90338
0.0327462
0.0113554
0.0132475
0.0137246
0.0139059
0.0144224
0.0148219
0.0151769
0.0153817
0.015718
0.0160695
0.0163674
0.0165908
0.0168284
0.0170353
0.0172063
0.0174113
0.0176445
0.0178769
0.0182935
0.0189955
0.0195263
0.0199096
0.0203043
0.0206178
0.0208526
0.0212089
0.0215795
0.0217322
0.021805
0.021869
0.0203572
0.018091
0.014666
0.00993615
0.00594231
0.999997
0.999997
0.999997
0.999996
0.999995
0.999994
0.999992
0.999992
0.999991
0.999991
0.99999
0.99999
0.99999
0.99999
0.99999
0.99999
0.99999
0.99999
0.99999
0.99999
0.99999
0.99999
0.99999
0.99999
0.99999
0.99999
0.99999
0.99999
0.99999
0.99999
0.99999
0.99999
0.99999
0.99999
0.99999
0.99999
0.99999
0.99999
0.99999
0.99999
0.99999
0.99999
0.99999
0.99999
0.999989
0.999987
0.999983
0.99996
0.999907
0.999889
0.999886
0.99988
0.999873
0.999869
0.999862
0.999853
0.999843
0.999823
0.999695
0.944415
0.0467305
0.00639107
0.00643558
0.00579052
0.00576522
0.00649074
0.006976
0.00736955
0.0076403
0.00782143
0.00789674
0.00796011
0.00822211
0.00840186
0.00843748
0.00828713
0.00803413
0.00787171
0.00806651
0.00857212
0.00920643
0.00996669
0.0107502
0.0112529
0.0115813
0.0119184
0.0120675
0.0120593
0.0113672
0.0103425
0.00840115
0.00625212
0.00420929
0.00251874
0.00118889
0.000561679
0.999998
0.999997
0.999997
0.999997
0.999995
0.999994
0.999992
0.999991
0.999991
0.999991
0.99999
0.99999
0.99999
0.99999
0.99999
0.99999
0.99999
0.99999
0.99999
0.99999
0.99999
0.99999
0.99999
0.99999
0.99999
0.99999
0.99999
0.99999
0.99999
0.99999
0.99999
0.99999
0.99999
0.99999
0.99999
0.99999
0.99999
0.99999
0.99999
0.99999
0.99999
0.99999
0.99999
0.99999
0.999989
0.999988
0.999985
0.999979
0.999951
0.999918
0.999897
0.999888
0.999881
0.999878
0.999873
0.99986
0.999852
0.999855
0.99987
0.963357
0.0453862
0.00126058
0.0010008
0.000796716
0.000977451
0.00113911
0.00132161
0.00144301
0.00150764
0.00155168
0.00158752
0.00162483
0.00165441
0.00165441
0.00159882
0.00152065
0.00142855
0.00133817
0.00131209
0.00140572
0.00151504
0.00162851
0.00173245
0.00183596
0.00191671
0.00196861
0.00200451
0.0018432
0.00155083
0.00122089
0.000797634
0.000461353
0.00023199
0.000102944
3.816e-05
1.64269e-05
0.999998
0.999998
0.999997
0.999997
0.999996
0.999995
0.999993
0.999991
0.999991
0.99999
0.99999
0.99999
0.99999
0.99999
0.99999
0.99999
0.99999
0.99999
0.99999
0.99999
0.99999
0.99999
0.99999
0.99999
0.99999
0.99999
0.99999
0.99999
0.99999
0.99999
0.99999
0.99999
0.99999
0.99999
0.99999
0.99999
0.99999
0.99999
0.99999
0.99999
0.99999
0.99999
0.99999
0.99999
0.999989
0.999988
0.999986
0.999982
0.999972
0.999949
0.999921
0.999901
0.999889
0.999879
0.999874
0.999871
0.999872
0.999836
0.999876
0.977794
0.0355983
8.49113e-05
2.51435e-05
1.45631e-05
2.61383e-05
3.66717e-05
4.6578e-05
5.29981e-05
5.48983e-05
6.17311e-05
6.97367e-05
7.57368e-05
7.91134e-05
7.96962e-05
7.3968e-05
6.61032e-05
5.81918e-05
5.25657e-05
5.08169e-05
5.69154e-05
6.40709e-05
6.87277e-05
7.14269e-05
7.24319e-05
7.2033e-05
7.05425e-05
7.00614e-05
5.60646e-05
3.9866e-05
2.62532e-05
1.41027e-05
6.49361e-06
2.60813e-06
1.09992e-06
7.75536e-07
8.94252e-07
0.999998
0.999998
0.999998
0.999998
0.999997
0.999995
0.999993
0.999992
0.999991
0.99999
0.99999
0.99999
0.99999
0.99999
0.99999
0.99999
0.99999
0.99999
0.99999
0.99999
0.99999
0.99999
0.99999
0.99999
0.99999
0.99999
0.99999
0.99999
0.99999
0.99999
0.99999
0.99999
0.99999
0.99999
0.99999
0.99999
0.99999
0.99999
0.99999
0.99999
0.99999
0.99999
0.99999
0.99999
0.999989
0.999988
0.999986
0.999982
0.999975
0.999961
0.999938
0.999915
0.9999
0.999884
0.999877
0.999874
0.999878
0.999869
0.999818
0.984936
0.0382068
5.91e-05
6.41591e-07
6.41559e-07
6.41521e-07
6.41483e-07
6.41445e-07
6.41426e-07
6.41472e-07
6.41519e-07
6.41568e-07
6.61798e-07
1.02358e-06
1.22128e-06
8.8109e-07
8.18261e-07
8.96065e-07
7.57874e-07
5.328e-07
5.22764e-07
5.22766e-07
5.22768e-07
5.2277e-07
5.22775e-07
5.22779e-07
5.22783e-07
9.70944e-07
1.50832e-06
7.57221e-07
4.69407e-07
5.35385e-07
7.90825e-07
9.54783e-07
7.77823e-07
6.09449e-07
5.01016e-07
0.999998
0.999998
0.999998
0.999998
0.999997
0.999996
0.999994
0.999992
0.999991
0.99999
0.99999
0.99999
0.99999
0.99999
0.99999
0.99999
0.99999
0.99999
0.99999
0.99999
0.99999
0.99999
0.99999
0.99999
0.99999
0.99999
0.99999
0.99999
0.99999
0.99999
0.99999
0.99999
0.99999
0.99999
0.99999
0.99999
0.99999
0.99999
0.99999
0.99999
0.99999
0.99999
0.99999
0.99999
0.999989
0.999988
0.999986
0.999983
0.999976
0.999965
0.999946
0.999921
0.999904
0.999888
0.999881
0.999874
0.999878
0.99987
0.99972
0.981659
0.0408513
5.34623e-05
6.41642e-07
6.6129e-07
6.49571e-07
6.5511e-07
6.69636e-07
6.70405e-07
6.66784e-07
6.60006e-07
6.5456e-07
6.52154e-07
6.47987e-07
6.51558e-07
6.53921e-07
6.57667e-07
6.55349e-07
6.51542e-07
6.50998e-07
6.51238e-07
6.5191e-07
6.5301e-07
6.5211e-07
6.49425e-07
6.47898e-07
6.485e-07
6.51377e-07
6.29977e-07
5.0417e-07
4.44519e-07
6.27814e-07
7.38161e-07
7.70362e-07
7.24741e-07
6.27447e-07
5.19763e-07
0.999998
0.999997
0.999997
0.999997
0.999998
0.999997
0.999995
0.999993
0.999991
0.99999
0.99999
0.99999
0.99999
0.99999
0.99999
0.99999
0.99999
0.99999
0.99999
0.99999
0.99999
0.99999
0.99999
0.99999
0.99999
0.99999
0.99999
0.99999
0.99999
0.99999
0.99999
0.99999
0.99999
0.99999
0.99999
0.99999
0.99999
0.99999
0.99999
0.99999
0.99999
0.99999
0.99999
0.99999
0.999989
0.999988
0.999986
0.999982
0.999976
0.999965
0.999949
0.99992
0.999901
0.999885
0.99988
0.999873
0.999874
0.999868
0.999547
0.981157
0.0594952
0.000273009
9.29044e-07
6.48106e-07
6.43471e-07
6.43929e-07
6.46629e-07
6.48e-07
6.47358e-07
6.46709e-07
6.47095e-07
6.48366e-07
6.49364e-07
6.50271e-07
6.52673e-07
6.54499e-07
6.53498e-07
6.52804e-07
6.52448e-07
6.51455e-07
6.49422e-07
6.49422e-07
6.49528e-07
6.50189e-07
6.50981e-07
6.5441e-07
6.5377e-07
6.10164e-07
4.18403e-07
3.2779e-07
5.38034e-07
6.91856e-07
7.22218e-07
7.12829e-07
6.41077e-07
5.36751e-07
0.999998
0.999998
0.999998
0.999997
0.999997
0.999997
0.999996
0.999993
0.999991
0.99999
0.99999
0.99999
0.99999
0.99999
0.99999
0.99999
0.99999
0.99999
0.99999
0.99999
0.99999
0.99999
0.99999
0.99999
0.99999
0.99999
0.99999
0.99999
0.99999
0.99999
0.99999
0.99999
0.99999
0.99999
0.99999
0.99999
0.99999
0.99999
0.99999
0.99999
0.99999
0.99999
0.99999
0.99999
0.999989
0.999988
0.999984
0.999978
0.999968
0.999956
0.999941
0.999916
0.999901
0.999882
0.999879
0.999874
0.999873
0.999858
0.999222
0.964545
0.0948062
0.00122767
4.03981e-06
6.43181e-07
6.43413e-07
6.43472e-07
6.45056e-07
6.48179e-07
6.50338e-07
6.5078e-07
6.50872e-07
6.51268e-07
6.52046e-07
6.52478e-07
6.5345e-07
6.55511e-07
6.55933e-07
6.55939e-07
6.55784e-07
6.55517e-07
6.55177e-07
6.55482e-07
6.55919e-07
6.54257e-07
6.53987e-07
6.54705e-07
6.52808e-07
6.07176e-07
4.48209e-07
3.22928e-07
3.61857e-07
5.04317e-07
5.8027e-07
6.02138e-07
5.74439e-07
4.6893e-07
0.999996
0.999995
0.999994
0.999993
0.999993
0.999992
0.999991
0.999991
0.99999
0.99999
0.99999
0.99999
0.99999
0.99999
0.99999
0.99999
0.99999
0.99999
0.99999
0.99999
0.99999
0.99999
0.99999
0.99999
0.99999
0.99999
0.99999
0.99999
0.99999
0.99999
0.99999
0.99999
0.99999
0.99999
0.99999
0.99999
0.99999
0.99999
0.99999
0.99999
0.99999
0.99999
0.99999
0.99999
0.99999
0.999989
0.999987
0.999984
0.99998
0.999972
0.999959
0.999942
0.999927
0.999913
0.999904
0.999892
0.99989
0.999874
0.999147
0.924237
0.0175809
3.73176e-05
5.25064e-07
5.41648e-07
5.41686e-07
5.39981e-07
5.38932e-07
5.3891e-07
5.39774e-07
5.41495e-07
5.41371e-07
5.40282e-07
5.41183e-07
5.45116e-07
5.43051e-07
5.40298e-07
5.47929e-07
5.39657e-07
4.97813e-07
4.8506e-07
4.8506e-07
4.85576e-07
4.88215e-07
4.88166e-07
4.8864e-07
4.89298e-07
4.89254e-07
5.04429e-07
5.18728e-07
5.31915e-07
5.37686e-07
5.32785e-07
5.14066e-07
4.85739e-07
4.23945e-07
4.13874e-07
0.999997
0.999995
0.999993
0.999993
0.999992
0.999992
0.999991
0.999991
0.999991
0.99999
0.99999
0.99999
0.99999
0.99999
0.99999
0.99999
0.99999
0.99999
0.99999
0.99999
0.99999
0.99999
0.99999
0.99999
0.99999
0.99999
0.99999
0.99999
0.99999
0.99999
0.99999
0.99999
0.99999
0.99999
0.99999
0.99999
0.99999
0.99999
0.99999
0.99999
0.99999
0.99999
0.99999
0.99999
0.99999
0.999989
0.999987
0.999983
0.999978
0.999969
0.999958
0.999943
0.999925
0.999903
0.999889
0.999876
0.999879
0.999859
0.999517
0.8901
0.0143158
4.61575e-06
5.25063e-07
5.80641e-07
6.01489e-07
5.95416e-07
5.73645e-07
5.74392e-07
5.82038e-07
5.56128e-07
5.31579e-07
5.31561e-07
5.32609e-07
5.34892e-07
5.35949e-07
5.4524e-07
5.51864e-07
5.41639e-07
5.1234e-07
5.08933e-07
5.21906e-07
5.34419e-07
5.42723e-07
5.45757e-07
5.4414e-07
5.3873e-07
5.21377e-07
5.08665e-07
5.08654e-07
5.25939e-07
5.50854e-07
5.62453e-07
5.54376e-07
5.51835e-07
5.15236e-07
4.42385e-07
0.999997
0.999996
0.999994
0.999993
0.999992
0.999992
0.999991
0.999991
0.999991
0.999991
0.99999
0.99999
0.99999
0.99999
0.99999
0.99999
0.99999
0.99999
0.99999
0.99999
0.99999
0.99999
0.99999
0.99999
0.99999
0.99999
0.99999
0.99999
0.99999
0.99999
0.99999
0.99999
0.99999
0.99999
0.99999
0.99999
0.99999
0.99999
0.99999
0.99999
0.99999
0.99999
0.99999
0.99999
0.99999
0.999988
0.999985
0.99998
0.999971
0.999958
0.999941
0.999916
0.999895
0.999877
0.999871
0.999867
0.999873
0.999855
0.999679
0.879861
0.0308196
5.59414e-07
1.02808e-06
6.12807e-07
8.61733e-07
7.90145e-07
8.52582e-07
8.09748e-07
8.13787e-07
7.29688e-07
6.95009e-07
6.22389e-07
5.32602e-07
5.35998e-07
5.38549e-07
5.64971e-07
5.73325e-07
5.6133e-07
5.3934e-07
5.38151e-07
5.40995e-07
5.45455e-07
5.71607e-07
5.90609e-07
5.72649e-07
5.49189e-07
5.42753e-07
5.43829e-07
5.56403e-07
5.70584e-07
5.70063e-07
5.70108e-07
5.60359e-07
5.50416e-07
5.35659e-07
4.70624e-07
0.999997
0.999997
0.999995
0.999994
0.999993
0.999992
0.999992
0.999991
0.999991
0.999991
0.99999
0.99999
0.99999
0.99999
0.99999
0.99999
0.99999
0.99999
0.99999
0.99999
0.99999
0.99999
0.99999
0.99999
0.99999
0.99999
0.99999
0.99999
0.99999
0.99999
0.99999
0.99999
0.99999
0.99999
0.99999
0.99999
0.99999
0.99999
0.99999
0.99999
0.99999
0.99999
0.99999
0.99999
0.999989
0.999988
0.999984
0.999977
0.999948
0.999912
0.999889
0.999875
0.999869
0.999864
0.999865
0.999864
0.99987
0.999851
0.999791
0.768368
0.00564007
3.89266e-05
2.83398e-05
1.47738e-05
8.29247e-06
4.2214e-06
2.3668e-06
1.22202e-06
7.69072e-07
6.51553e-07
9.73216e-07
1.4811e-06
7.27958e-07
5.35917e-07
6.50665e-07
8.64277e-07
9.46377e-07
9.10146e-07
7.83186e-07
7.80941e-07
7.40885e-07
7.75231e-07
8.37027e-07
8.20166e-07
7.79605e-07
7.28776e-07
6.68816e-07
6.17601e-07
5.98826e-07
5.98588e-07
5.73783e-07
5.50214e-07
4.94952e-07
4.87794e-07
5.13655e-07
4.67195e-07
0.999997
0.999997
0.999995
0.999994
0.999993
0.999993
0.999992
0.999991
0.999991
0.999991
0.99999
0.99999
0.99999
0.99999
0.99999
0.99999
0.99999
0.99999
0.99999
0.99999
0.99999
0.99999
0.99999
0.99999
0.99999
0.99999
0.99999
0.99999
0.99999
0.99999
0.99999
0.99999
0.99999
0.99999
0.99999
0.99999
0.99999
0.99999
0.99999
0.99999
0.99999
0.99999
0.99999
0.99999
0.999989
0.999987
0.999982
0.999962
0.999902
0.999875
0.999867
0.999864
0.999864
0.999864
0.999866
0.999861
0.999864
0.999864
0.999884
0.70534
0.00332328
0.00115642
0.000929845
0.000666629
0.000493056
0.000339126
0.000235923
0.000155029
9.97155e-05
6.30408e-05
4.62207e-05
4.35449e-05
5.19513e-05
5.9823e-05
6.4409e-05
6.51145e-05
5.37123e-05
4.31599e-05
2.9725e-05
1.75101e-05
8.69449e-06
3.46107e-06
1.23174e-06
6.82199e-07
7.94449e-07
6.2496e-07
7.5468e-07
8.19594e-07
7.01786e-07
5.58811e-07
4.57552e-07
4.45169e-07
4.21259e-07
4.21929e-07
4.48902e-07
4.48363e-07
0.999997
0.999997
0.999996
0.999995
0.999994
0.999993
0.999992
0.999991
0.999991
0.999991
0.99999
0.99999
0.99999
0.99999
0.99999
0.99999
0.99999
0.99999
0.99999
0.99999
0.99999
0.99999
0.99999
0.99999
0.99999
0.99999
0.99999
0.99999
0.99999
0.99999
0.99999
0.99999
0.99999
0.99999
0.99999
0.99999
0.99999
0.99999
0.99999
0.99999
0.99999
0.99999
0.99999
0.99999
0.999989
0.999987
0.999977
0.999924
0.999876
0.999868
0.999866
0.999864
0.999863
0.999863
0.999861
0.999859
0.999868
0.999875
0.999885
0.665334
0.0104805
0.00669176
0.00628462
0.00564335
0.00519587
0.00462562
0.00415604
0.00363005
0.0031575
0.00275212
0.00239046
0.00210126
0.00194611
0.00191006
0.00191605
0.00182501
0.00167797
0.0014795
0.00121062
0.000921955
0.00064751
0.000411114
0.000228758
0.000117968
5.5232e-05
2.62613e-05
2.0602e-05
3.3416e-05
4.33319e-05
4.61275e-05
4.15282e-05
4.56029e-05
4.09015e-05
4.72803e-06
3.74009e-07
3.9323e-07
0.999998
0.999998
0.999996
0.999995
0.999994
0.999993
0.999992
0.999992
0.999991
0.999991
0.99999
0.99999
0.99999
0.99999
0.99999
0.99999
0.99999
0.99999
0.99999
0.99999
0.99999
0.99999
0.99999
0.99999
0.99999
0.99999
0.99999
0.99999
0.99999
0.99999
0.99999
0.99999
0.99999
0.99999
0.99999
0.99999
0.99999
0.99999
0.99999
0.99999
0.99999
0.99999
0.99999
0.99999
0.999989
0.999987
0.99997
0.999898
0.999876
0.999877
0.999872
0.999866
0.99986
0.999854
0.999849
0.99985
0.999869
0.999882
0.999885
0.677153
0.018822
0.0129127
0.0135228
0.0136245
0.0137749
0.0136518
0.0136799
0.0137009
0.0138255
0.0140379
0.014052
0.0134412
0.0128155
0.0122325
0.0117677
0.0114317
0.0112068
0.0109345
0.0104851
0.00991533
0.00932725
0.00888218
0.00851459
0.00809803
0.00762471
0.00736957
0.00736489
0.0084649
0.00944056
0.0101535
0.0105342
0.0106661
0.00805006
0.00404493
0.000120154
0.000764391
0.999998
0.999998
0.999997
0.999996
0.999994
0.999993
0.999992
0.999992
0.999991
0.999991
0.99999
0.99999
0.99999
0.99999
0.99999
0.99999
0.99999
0.99999
0.99999
0.99999
0.99999
0.99999
0.99999
0.99999
0.99999
0.99999
0.99999
0.99999
0.99999
0.99999
0.99999
0.99999
0.99999
0.99999
0.99999
0.99999
0.99999
0.99999
0.99999
0.99999
0.99999
0.99999
0.99999
0.99999
0.999989
0.999988
0.999975
0.999904
0.999881
0.999885
0.999887
0.999884
0.99987
0.999855
0.999848
0.999847
0.999863
0.999881
0.999885
0.734328
0.025847
0.0160076
0.0176793
0.017949
0.0179167
0.0182017
0.0184188
0.0191181
0.0202419
0.0213861
0.022342
0.0231847
0.0236417
0.0238209
0.0238795
0.0239128
0.0240264
0.0241736
0.024245
0.0246775
0.0256706
0.027133
0.0290289
0.0309432
0.0327052
0.0345699
0.0365475
0.0388666
0.0421741
0.0462489
0.0505203
0.0561472
0.068321
0.0925911
0.144072
0.332305
0.999998
0.999998
0.999997
0.999997
0.999995
0.999994
0.999992
0.999992
0.999991
0.999991
0.99999
0.99999
0.99999
0.99999
0.99999
0.99999
0.99999
0.99999
0.99999
0.99999
0.99999
0.99999
0.99999
0.99999
0.99999
0.99999
0.99999
0.99999
0.99999
0.99999
0.99999
0.99999
0.99999
0.99999
0.99999
0.99999
0.99999
0.99999
0.99999
0.99999
0.99999
0.99999
0.99999
0.99999
0.999989
0.999988
0.999984
0.999964
0.999892
0.999884
0.999894
0.999902
0.999896
0.999878
0.999871
0.999864
0.99986
0.999872
0.999885
0.838833
0.0283902
0.0118479
0.0120802
0.0115584
0.0113527
0.0113236
0.0113367
0.0113753
0.0114137
0.0114911
0.0115263
0.0114548
0.0112358
0.0109887
0.010867
0.0108416
0.0113951
0.0124181
0.0135211
0.014629
0.0155942
0.0163218
0.0170195
0.0178264
0.0187024
0.0195372
0.020327
0.0210036
0.0216173
0.0223101
0.0234564
0.0266686
0.0313807
0.0377298
0.0419736
0.0424936
0.999998
0.999998
0.999998
0.999997
0.999996
0.999994
0.999993
0.999992
0.999991
0.999991
0.99999
0.99999
0.99999
0.99999
0.99999
0.99999
0.99999
0.99999
0.99999
0.99999
0.99999
0.99999
0.99999
0.99999
0.99999
0.99999
0.99999
0.99999
0.99999
0.99999
0.99999
0.99999
0.99999
0.99999
0.99999
0.99999
0.99999
0.99999
0.99999
0.99999
0.99999
0.99999
0.99999
0.99999
0.999989
0.999988
0.999985
0.999979
0.999941
0.999911
0.99991
0.999914
0.999901
0.999885
0.999884
0.999857
0.999839
0.999861
0.999885
0.881392
0.0236609
0.00402408
0.00348941
0.00293513
0.00277909
0.00264968
0.00252303
0.00250502
0.0024992
0.0024316
0.00240548
0.00237449
0.00235309
0.0022017
0.00204894
0.00194593
0.00197979
0.00258785
0.00323526
0.00409349
0.00476703
0.00514271
0.00534713
0.0054638
0.00549606
0.00541087
0.00538831
0.00490901
0.00421194
0.0034062
0.00271659
0.00246972
0.00281012
0.00301965
0.00197195
0.00100529
0.999998
0.999998
0.999998
0.999998
0.999997
0.999995
0.999993
0.999992
0.999991
0.999991
0.99999
0.99999
0.99999
0.99999
0.99999
0.99999
0.99999
0.99999
0.99999
0.99999
0.99999
0.99999
0.99999
0.99999
0.99999
0.99999
0.99999
0.99999
0.99999
0.99999
0.99999
0.99999
0.99999
0.99999
0.99999
0.99999
0.99999
0.99999
0.99999
0.99999
0.99999
0.99999
0.99999
0.99999
0.99999
0.999988
0.999985
0.99998
0.999969
0.999948
0.999939
0.999924
0.999908
0.99989
0.999882
0.999868
0.99982
0.999818
0.999885
0.912061
0.0163593
0.000708717
0.000634935
0.000589466
0.000638961
0.000654605
0.000637704
0.000554951
0.000465282
0.000386677
0.000336535
0.000306817
0.000304284
0.000336008
0.000344199
0.000322387
0.000289656
0.000279885
0.000376829
0.000515068
0.00064533
0.000714022
0.000731787
0.000713986
0.000676286
0.000611263
0.000527581
0.000382238
0.000249433
0.000155714
7.68019e-05
3.51174e-05
1.8306e-05
1.5653e-05
8.5672e-06
3.21446e-06
0.999998
0.999998
0.999998
0.999998
0.999998
0.999996
0.999994
0.999992
0.999991
0.999991
0.99999
0.99999
0.99999
0.99999
0.99999
0.99999
0.99999
0.99999
0.99999
0.99999
0.99999
0.99999
0.99999
0.99999
0.99999
0.99999
0.99999
0.99999
0.99999
0.99999
0.99999
0.99999
0.99999
0.99999
0.99999
0.99999
0.99999
0.99999
0.99999
0.99999
0.99999
0.99999
0.99999
0.99999
0.99999
0.999988
0.999985
0.99998
0.999972
0.999957
0.999942
0.999921
0.999906
0.999885
0.99988
0.999874
0.999846
0.999791
0.999835
0.932034
0.0121625
3.92648e-05
4.41332e-05
3.47418e-05
3.82209e-05
3.92696e-05
3.78453e-05
3.47121e-05
3.29436e-05
3.10806e-05
2.95613e-05
2.499e-05
1.96491e-05
1.4701e-05
1.20686e-05
1.09361e-05
1.06095e-05
1.26065e-05
1.72339e-05
2.41256e-05
3.15508e-05
3.52646e-05
3.49037e-05
2.99849e-05
2.57228e-05
2.10114e-05
1.54596e-05
9.29318e-06
4.48779e-06
1.84906e-06
9.68419e-07
6.62752e-07
7.19323e-07
3.3802e-07
5.67135e-07
4.54412e-07
0.999998
0.999998
0.999998
0.999998
0.999998
0.999998
0.999995
0.999992
0.999991
0.999991
0.99999
0.99999
0.99999
0.99999
0.99999
0.99999
0.99999
0.99999
0.99999
0.99999
0.99999
0.99999
0.99999
0.99999
0.99999
0.99999
0.99999
0.99999
0.99999
0.99999
0.99999
0.99999
0.99999
0.99999
0.99999
0.99999
0.99999
0.99999
0.99999
0.99999
0.99999
0.99999
0.99999
0.99999
0.999989
0.999988
0.999985
0.999979
0.999971
0.999958
0.999942
0.99992
0.999906
0.999889
0.999883
0.999876
0.999877
0.999846
0.999738
0.968459
0.0260357
6.41801e-07
2.30753e-06
8.94046e-07
1.07704e-06
9.10193e-07
1.00489e-06
6.64863e-07
1.01264e-06
1.0003e-06
9.68788e-07
9.23151e-07
8.40331e-07
8.17902e-07
8.20402e-07
8.02782e-07
7.38555e-07
6.09001e-07
5.70135e-07
5.78779e-07
5.97706e-07
1.08745e-06
1.30491e-06
7.50888e-07
5.54008e-07
5.54924e-07
5.8587e-07
6.96467e-07
6.99195e-07
6.04632e-07
4.79273e-07
5.0298e-07
5.17821e-07
3.80255e-07
2.59122e-07
2.33742e-07
0.999998
0.999998
0.999998
0.999998
0.999999
0.999998
0.999997
0.999994
0.999991
0.99999
0.99999
0.99999
0.99999
0.99999
0.99999
0.99999
0.99999
0.99999
0.99999
0.99999
0.99999
0.99999
0.99999
0.99999
0.99999
0.99999
0.99999
0.99999
0.99999
0.99999
0.99999
0.99999
0.99999
0.99999
0.99999
0.99999
0.99999
0.99999
0.99999
0.99999
0.99999
0.99999
0.99999
0.99999
0.999989
0.999988
0.999984
0.999978
0.999969
0.999958
0.999944
0.99992
0.999904
0.999888
0.999883
0.999878
0.99988
0.999856
0.999607
0.973924
0.0404028
6.41747e-07
6.41695e-07
6.60677e-07
6.44638e-07
6.66419e-07
7.19014e-07
7.02467e-07
6.72761e-07
6.43906e-07
6.44031e-07
6.43862e-07
6.44031e-07
6.43968e-07
6.4405e-07
6.45749e-07
6.47179e-07
6.48184e-07
6.52755e-07
6.6043e-07
6.63227e-07
6.63329e-07
6.58728e-07
6.61374e-07
6.64308e-07
6.62028e-07
6.58723e-07
6.08853e-07
4.35272e-07
3.56795e-07
4.17774e-07
4.92886e-07
5.43824e-07
5.05029e-07
4.1926e-07
3.28529e-07
0.999998
0.999998
0.999998
0.999998
0.999999
0.999999
0.999998
0.999996
0.999991
0.99999
0.99999
0.99999
0.99999
0.99999
0.99999
0.99999
0.99999
0.99999
0.99999
0.99999
0.99999
0.99999
0.99999
0.99999
0.99999
0.99999
0.99999
0.99999
0.99999
0.99999
0.99999
0.99999
0.99999
0.99999
0.99999
0.99999
0.99999
0.99999
0.99999
0.99999
0.99999
0.99999
0.99999
0.99999
0.999989
0.999988
0.999984
0.999976
0.999966
0.999956
0.999943
0.999918
0.999902
0.999885
0.999882
0.999877
0.999881
0.999853
0.999631
0.93924
0.026971
1.28145e-05
6.41747e-07
6.56203e-07
6.44595e-07
6.45663e-07
6.46574e-07
6.4822e-07
6.4427e-07
6.44032e-07
6.44035e-07
6.45181e-07
6.45666e-07
6.46039e-07
6.4792e-07
6.50885e-07
6.51371e-07
6.50909e-07
6.50994e-07
6.51549e-07
6.53459e-07
6.58191e-07
6.611e-07
6.67037e-07
6.6847e-07
6.67434e-07
6.62579e-07
5.96439e-07
3.81018e-07
3.19836e-07
3.82408e-07
5.1826e-07
5.88455e-07
5.97178e-07
5.50771e-07
4.56797e-07
0.999998
0.999998
0.999998
0.999998
0.999998
0.999998
0.999998
0.999997
0.999992
0.99999
0.99999
0.99999
0.99999
0.99999
0.99999
0.99999
0.99999
0.99999
0.99999
0.99999
0.99999
0.99999
0.99999
0.99999
0.99999
0.99999
0.99999
0.99999
0.99999
0.99999
0.99999
0.99999
0.99999
0.99999
0.99999
0.99999
0.99999
0.99999
0.99999
0.99999
0.99999
0.99999
0.99999
0.99999
0.999989
0.999988
0.999983
0.999974
0.999962
0.999949
0.999936
0.999916
0.999905
0.999888
0.999885
0.999879
0.999879
0.999854
0.999501
0.966439
0.0606759
0.000346179
8.7666e-07
6.44967e-07
6.44802e-07
6.44136e-07
6.44425e-07
6.46224e-07
6.46862e-07
6.46454e-07
6.46497e-07
6.47124e-07
6.48031e-07
6.48702e-07
6.49894e-07
6.52707e-07
6.55443e-07
6.56162e-07
6.57399e-07
6.58778e-07
6.5987e-07
6.62872e-07
6.63034e-07
6.64131e-07
6.64774e-07
6.62623e-07