/*--------------------------------*- C++ -*----------------------------------*\
| =========                 |                                                 |
| \\      /  F ield         | OpenFOAM: The Open Source CFD Toolbox           |
|  \\    /   O peration     | Version:  2.3.0                                 |
|   \\  /    A nd           | Web:      www.OpenFOAM.org                      |
|    \\/     M anipulation  |                                                 |
\*---------------------------------------------------------------------------*/
FoamFile
{
    version     2.0;
    format      ascii;
    class       volScalarField;
    location    "32";
    object      alpha.water;
}
// * * * * * * * * * * * * * * * * * * * * * * * * * * * * * * * * * * * * * //

dimensions      [0 0 0 0 0 0 0];

internalField   nonuniform List<scalar> 
6144
(
4.74967e-06
5.59988e-06
6.1863e-06
6.68922e-06
7.12933e-06
7.7243e-06
8.40083e-06
9.21259e-06
9.77144e-06
9.94887e-06
9.97509e-06
9.98222e-06
9.98565e-06
9.9883e-06
9.9886e-06
9.98941e-06
9.98843e-06
9.9889e-06
9.98831e-06
9.98854e-06
9.98811e-06
9.98813e-06
9.98786e-06
9.98773e-06
9.98749e-06
9.98735e-06
9.98715e-06
9.98704e-06
9.98685e-06
9.98657e-06
9.9861e-06
9.98568e-06
9.98509e-06
9.98453e-06
9.98385e-06
9.98347e-06
9.98311e-06
9.983e-06
9.98267e-06
9.98219e-06
9.98181e-06
9.98181e-06
9.98181e-06
9.98181e-06
1.01989e-05
1.11715e-05
1.30653e-05
1.60274e-05
2.0632e-05
2.93884e-05
4.2197e-05
5.72606e-05
7.10255e-05
8.46324e-05
9.41915e-05
0.000104831
0.000111141
0.000121183
0.0018634
0.0735745
0.963324
0.999757
0.999999
0.999999
0.999999
0.999999
0.999999
0.999999
0.999999
0.999999
0.999999
0.999999
0.999999
0.999999
0.999999
0.999999
0.999999
0.999999
1
1
1
1
1
1
1
1
1
1
1
1
1
1
1
1
1
1
4.23922e-06
5.38021e-06
6.53992e-06
7.03053e-06
7.55534e-06
8.03125e-06
8.61586e-06
9.29395e-06
9.79952e-06
9.94825e-06
9.97314e-06
9.98282e-06
9.98966e-06
9.9955e-06
9.99715e-06
9.99788e-06
9.99705e-06
9.99716e-06
9.99647e-06
9.99627e-06
9.99557e-06
9.99534e-06
9.99491e-06
9.99469e-06
9.9945e-06
9.99446e-06
9.99448e-06
9.99458e-06
9.99462e-06
9.99452e-06
9.99439e-06
9.99423e-06
9.99399e-06
9.99364e-06
9.99328e-06
9.99294e-06
9.99251e-06
9.99186e-06
9.99088e-06
9.98973e-06
9.98828e-06
9.98705e-06
9.98609e-06
1.00131e-05
1.02893e-05
1.1061e-05
1.2749e-05
1.6044e-05
2.1257e-05
3.16755e-05
4.48676e-05
5.98995e-05
7.94765e-05
9.92362e-05
0.000109866
0.000125773
0.000124848
0.000133746
0.00104006
0.0699642
0.979576
0.999955
0.999999
0.999999
0.999999
0.999999
0.999999
0.999999
0.999999
0.999999
0.999999
0.999999
0.999999
0.999999
0.999999
0.999999
0.999999
0.999999
0.999999
0.999999
0.999999
0.999999
0.999999
0.999999
0.999999
0.999999
0.999999
0.999999
1
1
1
1
1
1
1
1
3.93667e-06
4.94706e-06
6.28807e-06
6.96605e-06
7.63476e-06
8.08925e-06
8.6527e-06
9.21198e-06
9.63959e-06
9.82586e-06
9.89504e-06
9.94325e-06
9.97452e-06
9.99129e-06
9.99656e-06
9.9981e-06
9.99765e-06
9.99778e-06
9.99733e-06
9.99716e-06
9.99657e-06
9.99634e-06
9.99589e-06
9.99561e-06
9.99534e-06
9.99521e-06
9.99509e-06
9.99503e-06
9.99495e-06
9.99485e-06
9.99467e-06
9.99446e-06
9.99411e-06
9.99364e-06
9.99292e-06
9.99207e-06
9.99084e-06
9.98962e-06
9.98829e-06
9.98747e-06
9.98677e-06
9.9881e-06
9.9968e-06
1.00956e-05
1.04958e-05
1.14882e-05
1.37189e-05
1.79347e-05
2.50308e-05
4.70551e-05
7.41985e-05
9.62776e-05
0.000112907
0.000124421
0.000129154
0.000138638
0.000131411
0.000139387
0.000625479
0.0823033
0.981683
0.999975
0.999999
0.999999
0.999999
0.999999
0.999999
0.999999
0.999999
0.999999
0.999999
0.999999
0.999999
0.999999
0.999999
0.999999
0.999999
0.999999
0.999999
0.999999
0.999999
0.999999
0.999999
0.999999
0.999999
0.999999
0.999999
0.999999
0.999999
0.999999
0.999999
0.999999
1
1
1
1
3.73321e-06
4.56388e-06
5.84268e-06
6.65133e-06
7.48543e-06
7.93867e-06
8.4908e-06
9.03954e-06
9.50317e-06
9.73906e-06
9.84839e-06
9.92269e-06
9.96533e-06
9.9864e-06
9.9925e-06
9.99437e-06
9.99397e-06
9.99397e-06
9.99365e-06
9.99352e-06
9.99302e-06
9.9926e-06
9.99207e-06
9.99155e-06
9.99112e-06
9.99071e-06
9.99042e-06
9.99007e-06
9.9899e-06
9.98968e-06
9.98962e-06
9.98946e-06
9.98939e-06
9.9891e-06
9.98877e-06
9.98816e-06
9.98758e-06
9.98673e-06
9.98597e-06
9.98569e-06
9.98569e-06
9.98721e-06
1.00055e-05
1.016e-05
1.0659e-05
1.19202e-05
1.46612e-05
1.99815e-05
5.2614e-05
9.66999e-05
0.000119202
0.000129313
0.000132917
0.000136074
0.000135915
0.000139163
0.000130084
0.000141135
0.00042022
0.101597
0.974762
0.999959
0.999999
0.999999
0.999999
0.999999
0.999999
0.999999
0.999999
0.999999
0.999999
0.999999
0.999999
0.999999
0.999999
0.999999
0.999999
0.999999
0.999999
0.999999
0.999999
0.999999
0.999999
0.999999
0.999999
0.999999
0.999999
0.999999
0.999999
0.999999
0.999999
1
1
1
1
1
3.54966e-06
4.27264e-06
5.41214e-06
6.25513e-06
7.30345e-06
7.82448e-06
8.40876e-06
8.91991e-06
9.36342e-06
9.64636e-06
9.809e-06
9.91582e-06
9.96743e-06
9.98934e-06
9.99549e-06
9.99741e-06
9.99732e-06
9.99768e-06
9.99753e-06
9.99771e-06
9.99736e-06
9.99723e-06
9.99676e-06
9.99636e-06
9.9958e-06
9.99539e-06
9.99486e-06
9.99442e-06
9.99389e-06
9.99345e-06
9.9929e-06
9.99237e-06
9.99169e-06
9.9911e-06
9.99038e-06
9.98975e-06
9.98901e-06
9.98822e-06
9.98718e-06
9.98636e-06
9.98567e-06
9.99117e-06
1.00355e-05
1.02334e-05
1.07951e-05
1.23132e-05
1.57174e-05
3.67332e-05
0.000104306
0.000127477
0.000134041
0.000137191
0.000137395
0.00013872
0.00013756
0.000138854
0.000133479
0.000167296
0.000395489
0.121894
0.977981
0.999947
0.999979
0.999981
0.999985
0.999989
0.999991
0.999991
0.999992
0.999993
0.999994
0.999995
0.999994
0.999994
0.999994
0.999995
0.999996
0.999997
0.999998
0.999999
0.999999
0.999999
0.999999
0.999999
0.999999
0.999999
0.999999
0.999999
0.999999
0.999999
0.999999
1
1
1
1
1
3.35732e-06
4.03517e-06
5.00661e-06
5.78029e-06
6.92892e-06
7.64675e-06
8.3043e-06
8.81592e-06
9.23752e-06
9.55309e-06
9.75843e-06
9.90265e-06
9.96295e-06
9.98407e-06
9.98891e-06
9.99067e-06
9.99054e-06
9.99054e-06
9.99054e-06
9.99056e-06
9.99078e-06
9.99093e-06
9.99085e-06
9.99069e-06
9.99045e-06
9.99013e-06
9.98984e-06
9.98947e-06
9.98916e-06
9.98879e-06
9.98844e-06
9.98794e-06
9.98745e-06
9.98687e-06
9.98635e-06
9.98575e-06
9.98524e-06
9.98455e-06
9.98455e-06
9.98454e-06
9.98454e-06
9.98456e-06
1.00512e-05
1.02594e-05
1.0879e-05
1.28044e-05
2.18676e-05
8.79966e-05
0.000125507
0.000131906
0.000136008
0.000138399
0.000139247
0.000140173
0.000143246
0.000157649
0.000176298
0.000203209
0.000222123
0.119795
0.982311
0.999542
0.999555
0.99956
0.999562
0.999602
0.99962
0.999628
0.999622
0.999621
0.999642
0.999647
0.999645
0.999655
0.999701
0.999756
0.999822
0.999882
0.999933
0.999969
0.999987
0.999995
0.999998
0.999999
0.999999
1
1
1
1
1
1
1
0.999999
1
1
1
3.1504e-06
3.77841e-06
4.61457e-06
5.32799e-06
6.50972e-06
7.42444e-06
8.15187e-06
8.74197e-06
9.16553e-06
9.47511e-06
9.70748e-06
9.89028e-06
9.9642e-06
9.98836e-06
9.99394e-06
9.99631e-06
9.99592e-06
9.9959e-06
9.99534e-06
9.99479e-06
9.99402e-06
9.99367e-06
9.99325e-06
9.99295e-06
9.99253e-06
9.99209e-06
9.99158e-06
9.99112e-06
9.99071e-06
9.99039e-06
9.99002e-06
9.98958e-06
9.98901e-06
9.98839e-06
9.9877e-06
9.98705e-06
9.98644e-06
9.98581e-06
9.98544e-06
9.98515e-06
9.98507e-06
9.99084e-06
1.0062e-05
1.02841e-05
1.09976e-05
1.36002e-05
4.04114e-05
0.000110663
0.000124057
0.00012607
0.000131211
0.000137551
0.00014348
0.000150291
0.000165706
0.000184308
0.000190325
0.000187167
0.000114537
0.106215
0.983563
0.998226
0.998156
0.998133
0.998121
0.998139
0.998127
0.998049
0.997975
0.997966
0.99803
0.998016
0.997992
0.998135
0.998347
0.998589
0.998894
0.999172
0.999383
0.999488
0.999555
0.999678
0.999733
0.999753
0.999797
0.999795
0.999746
0.999683
0.999588
0.999478
0.999395
0.999358
0.999654
0.999896
1
1
2.92126e-06
3.50495e-06
4.23698e-06
4.92713e-06
6.1587e-06
7.24062e-06
7.90265e-06
8.60487e-06
9.11012e-06
9.45452e-06
9.67224e-06
9.87574e-06
9.95943e-06
9.98726e-06
9.99309e-06
9.99621e-06
9.99582e-06
9.99582e-06
9.99529e-06
9.99536e-06
9.99541e-06
9.99546e-06
9.99543e-06
9.99547e-06
9.99551e-06
9.99554e-06
9.99543e-06
9.99525e-06
9.99506e-06
9.9949e-06
9.99465e-06
9.99424e-06
9.99371e-06
9.99312e-06
9.99254e-06
9.99204e-06
9.99161e-06
9.9911e-06
9.99053e-06
9.99018e-06
9.99076e-06
1.00006e-05
1.00549e-05
1.02418e-05
1.09303e-05
1.35296e-05
3.98053e-05
0.000108923
0.000120562
0.000121272
0.00012363
0.000130011
0.000140078
0.000152947
0.000164549
0.000170581
0.000168272
0.000145366
0.000114537
0.149193
0.979919
0.991662
0.990394
0.989874
0.989536
0.989244
0.989015
0.988736
0.988217
0.98762
0.987182
0.98686
0.986558
0.986335
0.986138
0.985947
0.985865
0.985866
0.986011
0.986046
0.986037
0.985912
0.985761
0.98556
0.985391
0.985093
0.984141
0.982549
0.980479
0.978229
0.976089
0.974383
0.973475
0.973195
0.974407
0.978206
2.69463e-06
3.23138e-06
3.84217e-06
4.52538e-06
5.68495e-06
6.8179e-06
7.69893e-06
8.40005e-06
9.08838e-06
9.46652e-06
9.67251e-06
9.858e-06
9.94867e-06
9.98257e-06
9.98645e-06
9.98952e-06
9.98892e-06
9.98913e-06
9.98876e-06
9.98937e-06
9.98982e-06
9.99019e-06
9.99036e-06
9.99054e-06
9.99069e-06
9.99081e-06
9.9908e-06
9.9907e-06
9.99056e-06
9.9904e-06
9.99016e-06
9.98988e-06
9.98944e-06
9.98889e-06
9.98834e-06
9.98784e-06
9.98757e-06
9.98756e-06
9.98756e-06
9.98756e-06
9.98756e-06
9.99038e-06
1.00376e-05
1.01976e-05
1.08548e-05
1.30935e-05
2.28609e-05
8.80447e-05
0.000119112
0.000118226
0.000117893
0.000120631
0.000123134
0.000125277
0.000130217
0.00013873
0.000159521
0.000223959
0.000417035
0.09662
0.967254
0.988645
0.986753
0.986275
0.986094
0.985578
0.985178
0.984823
0.984618
0.984282
0.983931
0.983633
0.983409
0.983172
0.982965
0.982794
0.982589
0.982355
0.982123
0.981707
0.981005
0.980474
0.98009
0.979696
0.979382
0.979147
0.978791
0.97842
0.978268
0.978195
0.978131
0.979643
0.981909
0.985334
0.990064
0.994058
2.53419e-06
2.93785e-06
3.40006e-06
4.00926e-06
5.10063e-06
6.35437e-06
7.78443e-06
8.42731e-06
9.05627e-06
9.49547e-06
9.68837e-06
9.8472e-06
9.93748e-06
9.97997e-06
9.98904e-06
9.99498e-06
9.99476e-06
9.99496e-06
9.99442e-06
9.9947e-06
9.99473e-06
9.99471e-06
9.99446e-06
9.99425e-06
9.99405e-06
9.99391e-06
9.99372e-06
9.99346e-06
9.99317e-06
9.99281e-06
9.99231e-06
9.99174e-06
9.99104e-06
9.99019e-06
9.98941e-06
9.98871e-06
9.98824e-06
9.988e-06
9.98792e-06
9.98797e-06
9.98805e-06
9.98975e-06
1.00235e-05
1.01746e-05
1.08344e-05
1.27604e-05
1.66926e-05
3.9659e-05
9.30115e-05
0.000110554
0.000113842
0.000120076
0.000127273
0.000131009
0.000138021
0.0001469
0.000157186
0.000176508
0.000304543
0.0555847
0.953269
0.993609
0.993564
0.994209
0.994235
0.993509
0.993024
0.99263
0.99236
0.992179
0.992103
0.99204
0.991778
0.991598
0.991563
0.991713
0.991966
0.992128
0.991933
0.991428
0.990794
0.990033
0.98925
0.988747
0.988419
0.988082
0.987933
0.987941
0.988633
0.989658
0.991599
0.993748
0.995791
0.997481
0.998811
0.999438
2.38158e-06
2.66546e-06
2.95948e-06
3.48609e-06
4.60675e-06
5.91279e-06
7.52627e-06
8.62134e-06
9.09684e-06
9.49817e-06
9.69385e-06
9.81914e-06
9.89262e-06
9.94358e-06
9.97054e-06
9.9863e-06
9.98843e-06
9.99001e-06
9.99041e-06
9.99135e-06
9.99206e-06
9.99255e-06
9.99281e-06
9.99302e-06
9.99318e-06
9.99327e-06
9.9933e-06
9.99321e-06
9.99303e-06
9.99271e-06
9.99234e-06
9.99192e-06
9.99125e-06
9.99056e-06
9.98993e-06
9.98938e-06
9.989e-06
9.98881e-06
9.98873e-06
9.9889e-06
9.9892e-06
9.9908e-06
1.0009e-05
1.01439e-05
1.07963e-05
1.24345e-05
1.52426e-05
2.10523e-05
4.89627e-05
8.19702e-05
0.000102526
0.000111685
0.00011879
0.000121768
0.000126531
0.000139526
0.0001475
0.000145329
0.000129912
0.0366426
0.954614
0.998739
0.998999
0.999203
0.999023
0.998861
0.998678
0.998557
0.998492
0.998448
0.998412
0.998375
0.998346
0.998346
0.998401
0.998479
0.998571
0.998662
0.998688
0.998594
0.998485
0.998371
0.998268
0.998164
0.998083
0.998031
0.997995
0.998157
0.998449
0.998779
0.999202
0.999539
0.999768
0.999897
0.999962
0.999984
2.30373e-06
2.47232e-06
2.56781e-06
2.90312e-06
4.03783e-06
5.48619e-06
7.39345e-06
8.72782e-06
9.18312e-06
9.51262e-06
9.6623e-06
9.79259e-06
9.87499e-06
9.9485e-06
9.97983e-06
9.99204e-06
9.9905e-06
9.9909e-06
9.99082e-06
9.99171e-06
9.99244e-06
9.99299e-06
9.9933e-06
9.99358e-06
9.99377e-06
9.99394e-06
9.99404e-06
9.99406e-06
9.99391e-06
9.9937e-06
9.99379e-06
9.99397e-06
9.99371e-06
9.99355e-06
9.99341e-06
9.99325e-06
9.99315e-06
9.99297e-06
9.99282e-06
9.99272e-06
9.99324e-06
9.99505e-06
1.00028e-05
1.0102e-05
1.07145e-05
1.21269e-05
1.43204e-05
1.84819e-05
2.82482e-05
5.10957e-05
7.94135e-05
9.88886e-05
0.000110948
0.000120992
0.00012582
0.00012892
0.000127511
0.000163846
0.000123615
0.0222062
0.964402
0.999915
0.999975
0.999985
0.999974
0.999963
0.999953
0.999947
0.999945
0.999938
0.99993
0.999924
0.999921
0.99992
0.999926
0.999934
0.999942
0.999947
0.999949
0.999943
0.999936
0.999931
0.999929
0.999928
0.999928
0.999929
0.99993
0.999944
0.99996
0.999974
0.999986
0.999994
0.999997
0.999999
0.999999
0.999999
2.22098e-06
2.36951e-06
2.33909e-06
2.38625e-06
3.26561e-06
4.63482e-06
6.78776e-06
8.44733e-06
9.23811e-06
9.56432e-06
9.70715e-06
9.83216e-06
9.91435e-06
9.98048e-06
1.00062e-05
1.00079e-05
1.00039e-05
9.99854e-06
9.99606e-06
9.99589e-06
9.99611e-06
9.99644e-06
9.99667e-06
9.99685e-06
9.99693e-06
9.99697e-06
9.99692e-06
9.99676e-06
9.99649e-06
9.99614e-06
9.99603e-06
9.99602e-06
9.99558e-06
9.99527e-06
9.99503e-06
9.99468e-06
9.99427e-06
9.99395e-06
9.99371e-06
9.99389e-06
9.99531e-06
9.99834e-06
1.0004e-05
1.00748e-05
1.06283e-05
1.19522e-05
1.40232e-05
1.77041e-05
2.47547e-05
3.86592e-05
6.17654e-05
8.46295e-05
0.000100007
0.000116442
0.000123137
0.000126201
0.000122135
0.000130535
0.000181822
0.0150641
0.961793
0.999941
0.999999
0.999999
0.999999
0.999999
0.999999
0.999999
0.999999
0.999999
0.999999
0.999999
0.999999
0.999999
0.999999
0.999999
0.999999
0.999999
0.999999
0.999999
0.999999
0.999999
0.999999
0.999999
0.999999
0.999999
0.999999
0.999998
0.999999
1
0.999999
0.999999
0.999999
0.999999
0.999999
0.999999
2.16924e-06
2.34825e-06
2.24414e-06
2.22279e-06
2.63239e-06
3.66977e-06
5.68723e-06
7.94816e-06
9.28149e-06
9.58368e-06
9.7089e-06
9.81809e-06
9.89753e-06
9.96917e-06
1.00059e-05
1.00079e-05
1.00079e-05
1.00068e-05
1.00039e-05
1.00025e-05
1.00018e-05
1.00015e-05
1.00013e-05
1.0001e-05
1.00008e-05
1.00005e-05
1.00002e-05
9.99976e-06
9.99926e-06
9.99872e-06
9.99826e-06
9.99795e-06
9.9973e-06
9.99678e-06
9.99645e-06
9.99602e-06
9.99563e-06
9.99545e-06
9.99562e-06
9.99673e-06
9.99948e-06
1.00035e-05
1.00093e-05
1.00755e-05
1.05851e-05
1.19001e-05
1.39745e-05
1.74411e-05
2.35463e-05
3.45876e-05
5.37214e-05
7.89156e-05
9.57816e-05
0.000111768
0.000119296
0.00012587
0.000122118
0.000129683
0.000280085
0.0183405
0.959149
0.999947
0.999999
0.999999
0.999999
0.999999
0.999999
0.999999
0.999999
0.999999
0.999999
0.999999
0.999999
0.999999
0.999999
0.999999
0.999999
0.999999
0.999999
0.999999
0.999999
0.999999
0.999999
0.999999
0.999999
0.999999
0.999999
0.999999
0.999999
1
0.999999
0.999999
0.999999
0.999999
0.999999
0.999999
2.2487e-06
2.67116e-06
2.63465e-06
2.56901e-06
2.40393e-06
3.13961e-06
4.54738e-06
7.09379e-06
9.16062e-06
9.58123e-06
9.70151e-06
9.78409e-06
9.85703e-06
9.93929e-06
9.99575e-06
1.00064e-05
1.00065e-05
1.00061e-05
1.00036e-05
1.00019e-05
1.0001e-05
1.00005e-05
1.00001e-05
9.99968e-06
9.99934e-06
9.99902e-06
9.99866e-06
9.99823e-06
9.99776e-06
9.99727e-06
9.99685e-06
9.99655e-06
9.99625e-06
9.99589e-06
9.99558e-06
9.99523e-06
9.99494e-06
9.99485e-06
9.99506e-06
9.99611e-06
9.99826e-06
1.0002e-05
1.0009e-05
1.00793e-05
1.05496e-05
1.18716e-05
1.40307e-05
1.76273e-05
2.41135e-05
3.46246e-05
5.11057e-05
7.97718e-05
9.93154e-05
0.000115315
0.000120321
0.000127199
0.000126488
0.000132372
0.000453241
0.0188432
0.940505
0.999727
0.999999
0.999999
0.999999
0.999999
0.999999
0.999999
0.999999
0.999999
0.999999
0.999999
0.999999
0.999999
0.999999
0.999999
0.999999
0.999999
0.999999
0.999999
0.999999
0.999999
0.999999
0.999999
0.999999
0.999999
0.999999
0.999999
1
1
0.999999
0.999999
0.999999
0.999999
0.999999
0.999999
1.8709e-06
2.05884e-06
2.28029e-06
3.09446e-06
3.11526e-06
3.05572e-06
4.24235e-06
6.5618e-06
9.09644e-06
9.60493e-06
9.73029e-06
9.80678e-06
9.86583e-06
9.93999e-06
1.0006e-05
1.0012e-05
1.0012e-05
1.0012e-05
1.00119e-05
1.00105e-05
1.00092e-05
1.00084e-05
1.00077e-05
1.00072e-05
1.00067e-05
1.00063e-05
1.00059e-05
1.00055e-05
1.0005e-05
1.00046e-05
1.00042e-05
1.00039e-05
1.00037e-05
1.00034e-05
1.00031e-05
1.00028e-05
1.00026e-05
1.00025e-05
1.00028e-05
1.00037e-05
1.00053e-05
1.00097e-05
1.00219e-05
1.01078e-05
1.05582e-05
1.20433e-05
1.56153e-05
2.24339e-05
3.17161e-05
4.37915e-05
5.85895e-05
8.36224e-05
9.94005e-05
0.000118283
0.000120699
0.000125962
0.000127017
0.000141554
0.000777511
0.0354549
0.905194
0.998772
0.999996
0.999999
0.999999
0.999999
0.999999
0.999999
0.999999
0.999999
0.999999
0.999999
0.999999
0.999999
0.999999
0.999999
0.999999
0.999999
0.999999
0.999999
0.999999
0.999999
0.999999
0.999999
0.999999
0.999999
0.999999
0.999999
1
1
1
0.999999
0.999999
0.999999
0.999999
1
4.15486e-06
5.36311e-06
6.13809e-06
6.65317e-06
7.06773e-06
7.72078e-06
8.6582e-06
9.39087e-06
9.72673e-06
9.82766e-06
9.89311e-06
9.94809e-06
9.98742e-06
1.00085e-05
1.00106e-05
1.00106e-05
1.00106e-05
1.00106e-05
1.00101e-05
1.00091e-05
1.00081e-05
1.00077e-05
1.00071e-05
1.00069e-05
1.00067e-05
1.00071e-05
1.00071e-05
1.00071e-05
1.00071e-05
1.00071e-05
1.00071e-05
1.00071e-05
1.00071e-05
1.0007e-05
1.00068e-05
1.00066e-05
1.00063e-05
1.00058e-05
1.00048e-05
1.00039e-05
1.00026e-05
1.00037e-05
1.00136e-05
1.00536e-05
1.0278e-05
1.11759e-05
1.29668e-05
1.57895e-05
1.99283e-05
2.77887e-05
4.06849e-05
5.78059e-05
7.27751e-05
8.65615e-05
9.64298e-05
0.000107705
0.00011032
0.000126043
0.000852827
0.0757635
0.982419
0.999963
0.999999
0.999999
0.999999
0.999999
0.999999
0.999999
0.999999
0.999999
0.999999
0.999999
0.999999
0.999999
0.999999
0.999999
0.999999
0.999999
1
1
1
1
1
1
1
1
1
0.999999
0.999999
0.999999
0.999999
0.999999
0.999999
1
1
1
3.34858e-06
4.8366e-06
6.55637e-06
7.13665e-06
7.76918e-06
8.44673e-06
8.87671e-06
9.15495e-06
9.38666e-06
9.56759e-06
9.72783e-06
9.8571e-06
9.94253e-06
9.98951e-06
1.00045e-05
1.00091e-05
1.00086e-05
1.00089e-05
1.00086e-05
1.00089e-05
1.00087e-05
1.00085e-05
1.00082e-05
1.00079e-05
1.00075e-05
1.00072e-05
1.00067e-05
1.00062e-05
1.00057e-05
1.00054e-05
1.0005e-05
1.00045e-05
1.00039e-05
1.00033e-05
1.00025e-05
1.00017e-05
1.00008e-05
9.99992e-06
9.99912e-06
9.99897e-06
9.99936e-06
1.00051e-05
1.00258e-05
1.01183e-05
1.04042e-05
1.11617e-05
1.30121e-05
1.71251e-05
2.19107e-05
3.07487e-05
4.21924e-05
5.67612e-05
7.49333e-05
9.6633e-05
0.000110834
0.000124188
0.000121468
0.000141485
0.000483147
0.1099
0.985684
0.999995
0.999999
0.999999
0.999999
0.999999
0.999999
0.999999
0.999999
0.999999
0.999999
0.999999
0.999999
0.999999
0.999999
0.999999
0.999999
0.999999
0.999999
0.999999
0.999999
0.999999
0.999999
0.999999
0.999999
0.999999
0.999999
0.999999
0.999999
0.999999
0.999999
0.999999
0.999999
0.999999
0.999999
1
3.01995e-06
3.9909e-06
6.02554e-06
6.85709e-06
7.54992e-06
8.0948e-06
8.5565e-06
8.88319e-06
9.17829e-06
9.42958e-06
9.64248e-06
9.81385e-06
9.91905e-06
9.98009e-06
9.99961e-06
1.00057e-05
1.00056e-05
1.00058e-05
1.00055e-05
1.00055e-05
1.00051e-05
1.00048e-05
1.00044e-05
1.0004e-05
1.00036e-05
1.00032e-05
1.00028e-05
1.00025e-05
1.00021e-05
1.00017e-05
1.00013e-05
1.00008e-05
1.00003e-05
9.99971e-06
9.99896e-06
9.99815e-06
9.99743e-06
9.9966e-06
9.996e-06
9.99603e-06
9.99786e-06
1.0006e-05
1.00238e-05
1.01096e-05
1.04794e-05
1.18021e-05
1.486e-05
2.04921e-05
2.86307e-05
4.22356e-05
5.9286e-05
8.36619e-05
0.000105396
0.000123045
0.00012936
0.000132796
0.000126966
0.000144662
0.000321035
0.120139
0.96918
0.999999
0.999999
0.999999
0.999999
0.999999
0.999999
0.999999
0.999999
0.999999
0.999999
0.999999
0.999999
0.999999
0.999999
0.999999
0.999999
0.999999
0.999999
0.999999
0.999999
0.999999
0.999999
0.999999
0.999999
0.999999
0.999999
0.999999
0.999999
0.999999
0.999999
0.999999
0.999999
0.999999
0.999999
1
2.88425e-06
3.29972e-06
5.36269e-06
6.29617e-06
7.05702e-06
7.73821e-06
8.32632e-06
8.75376e-06
9.09968e-06
9.38677e-06
9.6148e-06
9.80043e-06
9.91041e-06
9.97487e-06
9.99607e-06
1.00032e-05
1.00029e-05
1.0003e-05
1.00025e-05
1.00024e-05
1.00018e-05
1.00014e-05
1.0001e-05
1.00005e-05
1.00001e-05
9.99972e-06
9.99936e-06
9.99902e-06
9.9987e-06
9.99836e-06
9.99794e-06
9.99755e-06
9.99708e-06
9.99653e-06
9.99584e-06
9.99514e-06
9.99448e-06
9.99372e-06
9.9931e-06
9.99305e-06
9.99564e-06
1.00045e-05
1.00235e-05
1.01148e-05
1.06213e-05
1.24371e-05
1.61102e-05
2.29624e-05
5.21931e-05
8.80839e-05
0.000110861
0.000124929
0.00013069
0.000135625
0.000135274
0.000136131
0.000130221
0.000148877
0.000208563
0.231632
0.99436
0.999961
0.999972
0.999985
0.999992
0.999996
0.999998
0.999999
0.999999
0.999999
0.999999
0.999999
0.999999
0.999999
0.999999
0.999999
0.999999
0.999999
0.999999
0.999999
0.999999
0.999999
0.999999
0.999999
0.999999
0.999999
0.999999
0.999999
0.999999
0.999999
0.999999
0.999999
1
1
0.999999
1
2.78307e-06
2.89323e-06
4.78968e-06
5.8651e-06
6.69987e-06
7.43084e-06
8.11994e-06
8.64942e-06
9.0519e-06
9.369e-06
9.60557e-06
9.79702e-06
9.90812e-06
9.97246e-06
9.99424e-06
1.00019e-05
1.00016e-05
1.00017e-05
1.00011e-05
1.00009e-05
1.00003e-05
9.99985e-06
9.99934e-06
9.99889e-06
9.99844e-06
9.99805e-06
9.99771e-06
9.9974e-06
9.99709e-06
9.99678e-06
9.9964e-06
9.99604e-06
9.99559e-06
9.99505e-06
9.99439e-06
9.99371e-06
9.99309e-06
9.99237e-06
9.99177e-06
9.99179e-06
9.99497e-06
1.00043e-05
1.00242e-05
1.01269e-05
1.07347e-05
1.28115e-05
1.80612e-05
3.75967e-05
9.82646e-05
0.000124587
0.000132531
0.000135951
0.000135777
0.000135804
0.000134348
0.000139234
0.000135882
0.000136157
0.000115747
0.29466
0.996677
0.998844
0.99907
0.999333
0.999507
0.999661
0.999764
0.999845
0.9999
0.999937
0.999954
0.999956
0.999948
0.99994
0.999936
0.999935
0.999946
0.999957
0.99997
0.999982
0.999991
0.999997
0.999999
0.999999
0.999999
0.999999
0.999999
0.999999
0.999999
0.999999
1
1
1
1
1
1
2.6357e-06
2.6012e-06
4.17278e-06
5.41738e-06
6.40823e-06
7.18022e-06
7.93869e-06
8.55019e-06
9.01332e-06
9.35931e-06
9.60272e-06
9.79805e-06
9.9081e-06
9.97138e-06
9.99298e-06
1.00009e-05
1.00006e-05
1.00005e-05
9.99988e-06
9.99963e-06
9.99898e-06
9.99848e-06
9.99794e-06
9.99748e-06
9.99704e-06
9.99668e-06
9.99637e-06
9.99611e-06
9.99589e-06
9.99567e-06
9.99537e-06
9.99508e-06
9.9947e-06
9.99425e-06
9.99366e-06
9.9931e-06
9.9926e-06
9.99196e-06
9.9914e-06
9.99148e-06
9.99493e-06
1.00059e-05
1.00281e-05
1.0144e-05
1.07671e-05
1.29612e-05
2.31722e-05
7.64477e-05
0.000124196
0.000131962
0.000134215
0.000135624
0.000136537
0.000136736
0.000139233
0.00014126
0.000132178
0.000124557
0.000114537
0.334666
0.989519
0.993308
0.993715
0.994357
0.994804
0.995374
0.995844
0.99637
0.996843
0.997248
0.99761
0.997899
0.998054
0.99809
0.998084
0.998175
0.998322
0.998521
0.998789
0.999078
0.999352
0.999589
0.999771
0.999882
0.999945
0.999974
0.999979
0.999967
0.999957
0.999954
0.999958
0.999954
0.999959
0.999995
1
1
2.47972e-06
2.34932e-06
3.5675e-06
4.88063e-06
6.13801e-06
7.00539e-06
7.83025e-06
8.48898e-06
8.99493e-06
9.35599e-06
9.60282e-06
9.8044e-06
9.91207e-06
9.97112e-06
9.99241e-06
1.00004e-05
1.00002e-05
1e-05
9.99941e-06
9.99918e-06
9.99853e-06
9.998e-06
9.99747e-06
9.99703e-06
9.99663e-06
9.99629e-06
9.99602e-06
9.9958e-06
9.99563e-06
9.99545e-06
9.99519e-06
9.99495e-06
9.99462e-06
9.99421e-06
9.99368e-06
9.99324e-06
9.99284e-06
9.99233e-06
9.99197e-06
9.99241e-06
9.99633e-06
1.00071e-05
1.00312e-05
1.01468e-05
1.07296e-05
1.3001e-05
3.00049e-05
0.000101648
0.000123743
0.0001234
0.000127939
0.000133955
0.000140367
0.000146017
0.000150954
0.000150487
0.00013058
0.000117578
0.000114537
0.322847
0.981178
0.987087
0.986477
0.986375
0.986225
0.986348
0.98632
0.986299
0.986174
0.985962
0.985948
0.986559
0.987185
0.987767
0.988232
0.988568
0.988793
0.989066
0.989515
0.990085
0.990673
0.991118
0.991485
0.991902
0.992375
0.99263
0.992635
0.991535
0.990559
0.989846
0.989466
0.989334
0.99195
0.995955
0.99988
0.999236
2.34081e-06
2.15378e-06
3.06906e-06
4.22813e-06
5.69644e-06
6.79614e-06
7.74972e-06
8.44888e-06
8.9884e-06
9.35862e-06
9.61118e-06
9.81105e-06
9.91611e-06
9.97215e-06
9.99199e-06
9.99985e-06
9.99971e-06
9.99974e-06
9.99933e-06
9.99927e-06
9.99897e-06
9.99862e-06
9.9982e-06
9.99787e-06
9.99756e-06
9.9973e-06
9.99705e-06
9.99684e-06
9.99661e-06
9.99637e-06
9.99605e-06
9.99576e-06
9.99537e-06
9.99493e-06
9.99443e-06
9.99399e-06
9.99355e-06
9.99305e-06
9.99266e-06
9.99332e-06
9.99713e-06
1.00064e-05
1.00283e-05
1.01338e-05
1.06224e-05
1.24248e-05
2.53421e-05
9.59677e-05
0.000118666
0.000114996
0.000113057
0.000116144
0.000129764
0.000144968
0.000152181
0.000152891
0.000136854
0.000118516
0.000114537
0.265672
0.974153
0.983992
0.982321
0.982051
0.982083
0.981798
0.981581
0.980882
0.979758
0.978614
0.977658
0.976815
0.976358
0.976179
0.976121
0.976087
0.975974
0.975826
0.975755
0.975323
0.974329
0.972867
0.970971
0.969057
0.967295
0.96543
0.963453
0.961133
0.957826
0.953751
0.94948
0.943853
0.931679
0.907409
0.855928
0.667695
2.19459e-06
2.00371e-06
2.60231e-06
3.48844e-06
5.02191e-06
6.43583e-06
7.63318e-06
8.41899e-06
8.98836e-06
9.37465e-06
9.6227e-06
9.82263e-06
9.92307e-06
9.97472e-06
9.99429e-06
1.00018e-05
1.00016e-05
1.00013e-05
1.00009e-05
1.00007e-05
1.00002e-05
9.99986e-06
9.99947e-06
9.99916e-06
9.99886e-06
9.9986e-06
9.99835e-06
9.99815e-06
9.99797e-06
9.99778e-06
9.99753e-06
9.99728e-06
9.99695e-06
9.99658e-06
9.9961e-06
9.99566e-06
9.99525e-06
9.99479e-06
9.99447e-06
9.99537e-06
9.9999e-06
1.00099e-05
1.00302e-05
1.0123e-05
1.05411e-05
1.19673e-05
1.57647e-05
3.57531e-05
0.000107561
0.000116246
0.00010554
9.82141e-05
0.000103713
0.000121817
0.000129318
0.000135969
0.000140063
0.000127729
0.000114537
0.161167
0.97161
0.988152
0.98792
0.988442
0.988647
0.988676
0.988663
0.988625
0.988586
0.988509
0.988474
0.988545
0.988764
0.989011
0.989133
0.989158
0.988605
0.987582
0.986479
0.985371
0.984406
0.983678
0.982981
0.982174
0.981298
0.980463
0.979673
0.978996
0.978383
0.97769
0.976544
0.973331
0.968619
0.96227
0.958026
0.957506
2.07396e-06
1.87238e-06
2.18124e-06
2.82107e-06
4.08129e-06
5.7988e-06
7.4183e-06
8.39183e-06
8.99992e-06
9.38951e-06
9.64161e-06
9.84008e-06
9.93104e-06
9.97649e-06
9.99581e-06
1.00032e-05
1.00031e-05
1.0003e-05
1.00028e-05
1.00026e-05
1.00022e-05
1.00019e-05
1.00015e-05
1.00011e-05
1.00008e-05
1.00005e-05
1.00002e-05
9.99997e-06
9.99972e-06
9.99945e-06
9.99918e-06
9.99888e-06
9.9985e-06
9.99804e-06
9.99744e-06
9.99686e-06
9.99635e-06
9.99579e-06
9.99547e-06
9.99634e-06
1.00007e-05
1.00107e-05
1.00312e-05
1.0118e-05
1.05002e-05
1.17985e-05
1.4988e-05
2.1197e-05
5.9143e-05
8.9119e-05
9.00635e-05
8.6158e-05
9.90901e-05
0.00011483
0.000116258
0.00014314
0.000161185
0.000138863
0.000114537
0.118608
0.976339
0.995976
0.996511
0.997065
0.997221
0.99735
0.997477
0.997495
0.997501
0.997568
0.997595
0.997626
0.997647
0.997798
0.997951
0.998054
0.99802
0.997412
0.996765
0.995907
0.995233
0.994857
0.994653
0.994536
0.994504
0.994589
0.994612
0.995091
0.995788
0.996594
0.997283
0.99753
0.99719
0.99698
0.998028
0.998995
1.95454e-06
1.74434e-06
1.84943e-06
2.18962e-06
3.03515e-06
4.84425e-06
7.017e-06
8.27647e-06
8.99427e-06
9.39819e-06
9.66246e-06
9.85757e-06
9.93663e-06
9.97647e-06
9.99591e-06
1.00033e-05
1.00033e-05
1.00033e-05
1.00033e-05
1.00031e-05
1.00028e-05
1.00025e-05
1.00022e-05
1.00019e-05
1.00015e-05
1.00013e-05
1.0001e-05
1.00007e-05
1.00005e-05
1.00002e-05
1e-05
9.99976e-06
9.99946e-06
9.99908e-06
9.99855e-06
9.99806e-06
9.99764e-06
9.9972e-06
9.99691e-06
9.9978e-06
1.00021e-05
1.0012e-05
1.00323e-05
1.01171e-05
1.0488e-05
1.17409e-05
1.47044e-05
2.02876e-05
3.12151e-05
5.22675e-05
6.1393e-05
7.61256e-05
9.15205e-05
0.000109682
0.000117613
0.000131503
0.000179961
0.000182202
0.000114537
0.0879393
0.983641
0.999291
0.999365
0.999411
0.999361
0.999345
0.999362
0.999445
0.999535
0.999613
0.999663
0.999693
0.999696
0.999664
0.999656
0.999678
0.99971
0.99972
0.999623
0.999485
0.999355
0.999286
0.999268
0.999286
0.999324
0.999389
0.999472
0.999618
0.999751
0.999844
0.999923
0.999965
0.999982
0.999984
0.999991
0.999997
1.86882e-06
1.62778e-06
1.62869e-06
1.72978e-06
2.18724e-06
3.65118e-06
6.30346e-06
8.12318e-06
8.99718e-06
9.42861e-06
9.695e-06
9.8762e-06
9.94068e-06
9.97748e-06
9.99644e-06
1.00033e-05
1.00032e-05
1.00033e-05
1.00031e-05
1.0003e-05
1.00027e-05
1.00024e-05
1.00021e-05
1.00018e-05
1.00015e-05
1.00012e-05
1.0001e-05
1.00007e-05
1.00005e-05
1.00002e-05
1e-05
9.99977e-06
9.99946e-06
9.99906e-06
9.99851e-06
9.99805e-06
9.99767e-06
9.99729e-06
9.997e-06
9.99799e-06
1.00023e-05
1.00124e-05
1.00332e-05
1.01195e-05
1.04945e-05
1.17463e-05
1.46537e-05
1.98524e-05
2.82865e-05
4.28057e-05
5.81199e-05
7.94073e-05
9.43767e-05
0.000114549
0.000120275
0.000126446
0.000153817
0.000209431
0.000164887
0.0679656
0.987838
0.999961
0.999956
0.999965
0.999962
0.999961
0.999962
0.999965
0.999967
0.999969
0.99997
0.999975
0.99998
0.999985
0.999988
0.999989
0.999989
0.999987
0.999983
0.999976
0.999968
0.999965
0.999965
0.99997
0.999974
0.999979
0.999985
0.999991
0.999996
0.999998
0.999999
0.999999
0.999999
1
0.999999
1
1.82137e-06
1.56336e-06
1.54149e-06
1.53402e-06
1.6648e-06
2.47231e-06
4.89315e-06
7.69102e-06
9.05752e-06
9.47908e-06
9.73239e-06
9.88389e-06
9.93412e-06
9.96766e-06
9.99468e-06
1.00034e-05
1.00035e-05
1.00035e-05
1.00035e-05
1.00033e-05
1.00029e-05
1.00026e-05
1.00023e-05
1.0002e-05
1.00018e-05
1.00015e-05
1.00012e-05
1.00009e-05
1.00006e-05
1.00003e-05
9.99991e-06
9.99929e-06
9.99863e-06
9.99782e-06
9.99712e-06
9.99649e-06
9.996e-06
9.9957e-06
9.99558e-06
9.99676e-06
1.00008e-05
1.00127e-05
1.00348e-05
1.01238e-05
1.05028e-05
1.18181e-05
1.49597e-05
2.0568e-05
2.88182e-05
4.24261e-05
5.78302e-05
8.00964e-05
9.35718e-05
0.000110909
0.000116737
0.000123743
0.000122566
0.000153783
0.000262292
0.0315414
0.973964
0.999999
0.999998
0.999999
0.999999
0.999999
0.999999
0.999999
0.999999
0.999999
0.999999
0.999999
0.999999
0.999999