/*--------------------------------*- C++ -*----------------------------------*\
| =========                 |                                                 |
| \\      /  F ield         | OpenFOAM: The Open Source CFD Toolbox           |
|  \\    /   O peration     | Version:  2.3.0                                 |
|   \\  /    A nd           | Web:      www.OpenFOAM.org                      |
|    \\/     M anipulation  |                                                 |
\*---------------------------------------------------------------------------*/
FoamFile
{
    version     2.0;
    format      ascii;
    class       volScalarField;
    location    "32";
    object      k.water;
}
// * * * * * * * * * * * * * * * * * * * * * * * * * * * * * * * * * * * * * //

dimensions      [0 2 -2 0 0 0 0];

internalField   nonuniform List<scalar> 
6144
(
8.32967e-05
6.52286e-05
4.58912e-05
3.76403e-05
2.71409e-05
2.21674e-05
1.86693e-05
1.90105e-05
2.02806e-05
2.33992e-05
2.57765e-05
2.77379e-05
2.84426e-05
2.85832e-05
2.76483e-05
2.6959e-05
2.59395e-05
2.52239e-05
2.4759e-05
2.45163e-05
2.43362e-05
2.42762e-05
2.42944e-05
2.43547e-05
2.44548e-05
2.45853e-05
2.47356e-05
2.48941e-05
2.50612e-05
2.53313e-05
2.57285e-05
2.60349e-05
2.62431e-05
2.63105e-05
2.64336e-05
2.64565e-05
2.67034e-05
2.68198e-05
2.73309e-05
2.73491e-05
2.78486e-05
2.73849e-05
2.77902e-05
2.69655e-05
2.75387e-05
2.723e-05
2.81225e-05
2.89539e-05
3.35203e-05
4.4761e-05
7.44159e-05
0.00010264
0.000135753
0.000236957
0.000399059
0.0005519
0.000825145
0.00152649
0.00465438
0.00588094
0.0150915
0.00903594
0.00524157
0.00314511
0.00216626
0.0016049
0.00134588
0.00124454
0.00120062
0.00117826
0.00116628
0.00116297
0.00115513
0.00115204
0.0011453
0.00113828
0.00112877
0.00110745
0.00108451
0.00103456
0.000973207
0.000849301
0.000491645
0.000205278
0.000179065
0.000194749
0.000201429
0.000201023
0.000193124
0.000170645
0.000150022
0.000131759
0.00011454
0.000104013
9.75613e-05
8.66333e-05
0.0001213
9.65738e-05
7.36368e-05
6.27005e-05
4.66064e-05
4.31463e-05
4.12817e-05
4.33059e-05
4.46684e-05
4.93175e-05
5.2155e-05
5.44169e-05
5.42268e-05
5.31506e-05
5.12181e-05
5.01704e-05
4.92712e-05
4.91124e-05
4.93912e-05
5.00978e-05
5.06919e-05
5.13014e-05
5.18499e-05
5.23355e-05
5.27815e-05
5.32118e-05
5.36425e-05
5.40745e-05
5.4512e-05
5.5218e-05
5.60231e-05
5.66431e-05
5.70974e-05
5.73675e-05
5.76589e-05
5.78323e-05
5.82637e-05
5.85015e-05
5.92047e-05
5.92436e-05
6.00556e-05
5.96928e-05
6.07666e-05
6.02724e-05
6.16664e-05
6.16112e-05
6.15328e-05
6.23542e-05
6.99348e-05
9.43027e-05
0.000124367
0.000181503
0.000236982
0.000416403
0.000704078
0.00100558
0.00173856
0.00242017
0.00385823
0.00545915
0.0136504
0.00750527
0.00371704
0.00166141
0.00116267
0.00105358
0.00106773
0.00110827
0.0011446
0.00114396
0.00113075
0.00109592
0.00104741
0.00101321
0.000980148
0.000968494
0.000968854
0.000971872
0.000969882
0.000958218
0.000926885
0.00083938
0.00053751
0.000269827
0.000259139
0.000284756
0.000287837
0.000267996
0.000223012
0.00018751
0.000163105
0.000141867
0.000128015
0.000120108
0.000112001
9.2828e-05
0.000135146
0.000110171
9.61518e-05
8.95462e-05
7.20645e-05
6.77243e-05
6.47528e-05
5.96559e-05
5.64032e-05
5.96892e-05
6.19416e-05
6.22502e-05
6.01327e-05
5.8026e-05
5.66565e-05
5.63497e-05
5.69464e-05
5.86402e-05
6.06942e-05
6.2532e-05
6.40498e-05
6.53781e-05
6.64365e-05
6.72863e-05
6.79972e-05
6.86271e-05
6.92263e-05
6.98153e-05
7.03984e-05
7.09632e-05
7.14838e-05
7.18757e-05
7.2185e-05
7.23687e-05
7.25148e-05
7.2579e-05
7.26521e-05
7.2619e-05
7.27485e-05
7.27861e-05
7.32683e-05
7.36599e-05
7.45736e-05
7.50009e-05
7.56189e-05
7.6211e-05
7.57209e-05
7.89178e-05
8.99229e-05
0.000130526
0.000172839
0.000257236
0.000324637
0.00054513
0.000989643
0.00142987
0.00233524
0.00309242
0.00439176
0.00531181
0.0138121
0.00647983
0.00206878
0.000993667
0.000979112
0.00105423
0.00107526
0.00106308
0.0010085
0.000921127
0.000834171
0.000765658
0.000711762
0.000686979
0.000688751
0.000699957
0.000722272
0.000769118
0.000814349
0.000829963
0.00082241
0.00078015
0.000540583
0.000342286
0.000372323
0.000402094
0.000385403
0.000322597
0.000258369
0.00022545
0.000190205
0.000161477
0.000147056
0.000138946
0.000129192
0.00010394
0.000142386
0.000116597
0.000105639
0.000107017
9.13437e-05
8.53486e-05
7.61775e-05
6.73636e-05
6.08233e-05
6.17822e-05
6.40438e-05
6.38775e-05
6.14953e-05
5.91161e-05
5.79544e-05
5.7915e-05
5.91135e-05
6.10683e-05
6.31841e-05
6.50997e-05
6.68086e-05
6.82872e-05
6.94413e-05
7.0332e-05
7.10562e-05
7.16844e-05
7.22726e-05
7.28498e-05
7.34248e-05
7.39762e-05
7.44671e-05
7.48316e-05
7.51012e-05
7.52439e-05
7.53404e-05
7.53749e-05
7.54009e-05
7.53483e-05
7.54667e-05
7.56305e-05
7.61928e-05
7.66764e-05
7.74496e-05
7.7602e-05
7.77811e-05
7.82004e-05
7.90156e-05
8.69005e-05
0.000102011
0.000136248
0.000228797
0.000360949
0.000449292
0.000595215
0.00120282
0.00194685
0.00320703
0.00379474
0.00412472
0.00432455
0.0124175
0.00382713
0.00105715
0.00092625
0.00101257
0.00102575
0.000998548
0.000955214
0.000872481
0.000786785
0.000694945
0.000602451
0.000548904
0.000544377
0.000559334
0.000605215
0.000702228
0.000769157
0.000782846
0.000784822
0.000786629
0.000723823
0.000471847
0.000420975
0.000492728
0.000493374
0.0004192
0.000331482
0.00027774
0.00023431
0.000190935
0.000173452
0.000167582
0.000162128
0.000150523
0.000114578
0.000155932
0.000119359
0.000107372
0.00011159
0.000101376
9.80452e-05
7.9779e-05
7.2846e-05
6.72287e-05
6.44903e-05
6.60602e-05
6.37796e-05
6.00983e-05
5.71028e-05
5.61265e-05
5.6386e-05
5.79466e-05
6.03103e-05
6.28849e-05
6.53047e-05
6.75857e-05
6.94177e-05
7.07864e-05
7.17647e-05
7.24783e-05
7.3047e-05
7.35291e-05
7.39722e-05
7.44053e-05
7.48094e-05
7.5139e-05
7.53387e-05
7.54208e-05
7.53852e-05
7.53066e-05
7.52121e-05
7.5127e-05
7.50942e-05
7.51675e-05
7.54921e-05
7.60133e-05
7.65071e-05
7.67852e-05
7.66036e-05
7.61008e-05
7.78208e-05
8.18536e-05
9.66832e-05
0.000114777
0.000156066
0.000276809
0.000450094
0.000641557
0.000902742
0.00177636
0.00277008
0.00371925
0.00347891
0.0034771
0.00349033
0.00727338
0.00147457
0.00100918
0.00108415
0.00110988
0.00110315
0.00106281
0.000999273
0.000904906
0.0007874
0.00068539
0.000587855
0.000539989
0.000542509
0.000601719
0.00067616
0.000739189
0.000786884
0.000796037
0.000788061
0.000706162
0.000561064
0.000470823
0.000555979
0.000580782
0.000506285
0.000400406
0.000326722
0.00027155
0.000218909
0.000196801
0.000212894
0.000209169
0.000184576
0.000158258
0.000118599
0.000163777
0.000122031
0.000104741
0.000111811
0.000106135
0.000109343
8.94474e-05
8.03272e-05
7.23527e-05
6.64562e-05
6.78685e-05
6.3338e-05
5.8761e-05
5.50445e-05
5.30492e-05
5.30062e-05
5.49886e-05
5.81082e-05
6.16079e-05
6.48151e-05
6.74491e-05
6.94241e-05
7.08406e-05
7.18141e-05
7.24754e-05
7.29457e-05
7.32998e-05
7.3611e-05
7.39166e-05
7.42015e-05
7.44171e-05
7.45011e-05
7.4478e-05
7.43423e-05
7.41643e-05
7.39875e-05
7.3847e-05
7.38599e-05
7.40101e-05
7.44517e-05
7.49343e-05
7.53503e-05
7.53289e-05
7.50441e-05
7.44374e-05
7.72818e-05
8.38822e-05
0.000104566
0.000126801
0.000172751
0.000292404
0.00046222
0.000665264
0.00100852
0.00222238
0.00305772
0.00354847
0.00377624
0.003189
0.00318054
0.00543954
0.00130332
0.001163
0.00126775
0.00129523
0.00126502
0.00121309
0.00111609
0.000998312
0.000884301
0.000782785
0.000675403
0.000601811
0.000572062
0.0005935
0.0006466
0.000687333
0.000705256
0.000704477
0.000669554
0.000604651
0.000569144
0.000599691
0.000661351
0.000602271
0.000478093
0.000373588
0.000305542
0.000251907
0.000232332
0.000262109
0.000295684
0.000245016
0.000191038
0.000160403
0.000119196
0.00015182
0.000133292
0.000101701
0.000112752
0.000106481
0.000113978
9.85385e-05
8.56233e-05
7.79084e-05
7.00612e-05
7.07573e-05
6.3487e-05
5.65288e-05
5.04096e-05
4.83426e-05
4.83737e-05
5.02818e-05
5.30224e-05
5.62038e-05
5.93495e-05
6.21082e-05
6.43375e-05
6.59592e-05
6.70131e-05
6.76241e-05
6.79261e-05
6.807e-05
6.815e-05
6.82398e-05
6.83448e-05
6.84113e-05
6.8339e-05
6.80831e-05
6.77037e-05
6.72699e-05
6.69534e-05
6.67226e-05
6.67289e-05
6.68385e-05
6.73033e-05
6.75365e-05
6.78571e-05
6.70745e-05
6.69861e-05
6.62706e-05
7.17192e-05
8.17573e-05
0.000105097
0.000129516
0.000171709
0.000268024
0.000412971
0.000589581
0.000822209
0.00155638
0.00258095
0.00324862
0.00388998
0.00307853
0.00306148
0.00517822
0.00134235
0.00122253
0.00137185
0.00143695
0.00148227
0.00149158
0.00136861
0.00116257
0.00103004
0.000930873
0.000852029
0.000776683
0.000703354
0.00067053
0.000668377
0.000689607
0.000699774
0.000703775
0.000704138
0.000730823
0.000878173
0.000975357
0.00088758
0.000688825
0.000503742
0.000391265
0.000342764
0.00033182
0.000431409
0.000579065
0.000524554
0.000333816
0.000220639
0.0001747
0.00012078
0.000145031
0.000145107
9.86097e-05
0.000104979
9.26483e-05
0.000103982
9.75242e-05
8.20653e-05
7.9632e-05
7.3173e-05
7.51235e-05
6.60467e-05
5.73889e-05
4.92883e-05
4.52195e-05
4.49402e-05
4.76432e-05
5.12035e-05
5.48256e-05
5.81546e-05
6.09679e-05
6.32002e-05
6.48386e-05
6.59286e-05
6.65786e-05
6.69432e-05
6.71466e-05
6.72786e-05
6.73563e-05
6.74001e-05
6.7365e-05
6.71601e-05
6.67892e-05
6.63425e-05
6.58352e-05
6.5401e-05
6.50394e-05
6.48879e-05
6.48166e-05
6.5075e-05
6.51287e-05
6.53707e-05
6.47256e-05
6.48687e-05
6.45873e-05
6.92572e-05
7.83512e-05
9.72508e-05
0.000122882
0.000170183
0.000271688
0.000416817
0.000590026
0.000808391
0.00176822
0.00280189
0.00275913
0.00272223
0.00349822
0.0035129
0.00681878
0.00145134
0.0011863
0.00135309
0.00145386
0.00158752
0.00165936
0.00168706
0.00154389
0.00125206
0.00108455
0.00101158
0.000972377
0.000955826
0.00094195
0.000938913
0.000957908
0.00099227
0.00103884
0.00107848
0.00109298
0.00100351
0.000881615
0.0006664
0.000578615
0.000562255
0.000604448
0.000646848
0.000670367
0.00067235
0.000602497
0.000493787
0.000416674
0.000360084
0.000267714
0.000189977
0.000138751
0.000150527
9.99608e-05
0.000102442
8.39683e-05
8.60495e-05
7.95181e-05
6.44502e-05
6.82065e-05
6.76591e-05
7.16399e-05
6.22936e-05
5.22616e-05
4.07929e-05
3.4389e-05
3.35781e-05
3.66023e-05
4.03815e-05
4.38271e-05
4.67873e-05
4.92912e-05
5.13612e-05
5.29265e-05
5.40034e-05
5.46778e-05
5.50802e-05
5.53343e-05
5.55125e-05
5.56214e-05
5.56567e-05
5.55465e-05
5.526e-05
5.48283e-05
5.43829e-05
5.38976e-05
5.35434e-05
5.32236e-05
5.30911e-05
5.29738e-05
5.31416e-05
5.30429e-05
5.32523e-05
5.28324e-05
5.32335e-05
5.37833e-05
5.74143e-05
6.66355e-05
8.12008e-05
0.000106652
0.000157551
0.000272528
0.000429183
0.000602791
0.00076477
0.00116941
0.00215745
0.00218247
0.00234696
0.0034114
0.00343484
0.00728131
0.00132531
0.000952008
0.000989387
0.00114543
0.00136653
0.0015764
0.00169721
0.00173782
0.00159966
0.00126549
0.00106752
0.0010022
0.00098428
0.000984677
0.000991884
0.00099682
0.0010015
0.00100562
0.000995975
0.000927011
0.000744297
0.000629047
0.000589347
0.000580099
0.000586532
0.000592959
0.000585971
0.000554451
0.000501133
0.000432533
0.000400757
0.000361934
0.000311477
0.000236941
0.000184321
0.000132313
0.0001432
0.00010444
0.000106996
8.14524e-05
7.80629e-05
7.0395e-05
5.40135e-05
5.42554e-05
5.67744e-05
6.10634e-05
5.33943e-05
4.29399e-05
3.17666e-05
2.53904e-05
2.3982e-05
2.61104e-05
2.93894e-05
3.22266e-05
3.46271e-05
3.67629e-05
3.83886e-05
3.96379e-05
4.05476e-05
4.11549e-05
4.15653e-05
4.18795e-05
4.21351e-05
4.23232e-05
4.24352e-05
4.24452e-05
4.23437e-05
4.21632e-05
4.20137e-05
4.18548e-05
4.18089e-05
4.17259e-05
4.17469e-05
4.16801e-05
4.17346e-05
4.17291e-05
4.19302e-05
4.22173e-05
4.28091e-05
4.40262e-05
4.63732e-05
5.42293e-05
6.39407e-05
8.81082e-05
0.000134651
0.000258155
0.000424133
0.000621849
0.00078596
0.00127836
0.00198429
0.00243194
0.00292882
0.00353731
0.00356435
0.00744928
0.00121866
0.00079913
0.00083416
0.000817598
0.000942041
0.00122281
0.0014169
0.00157096
0.00163343
0.00150884
0.00123973
0.00105057
0.000969281
0.000939738
0.000929879
0.000921312
0.000900914
0.000851116
0.000757404
0.000654362
0.000596157
0.000564221
0.000542954
0.000532494
0.000500336
0.000455348
0.000401387
0.000339396
0.000303374
0.000279326
0.000268389
0.000240956
0.000196053
0.000163101
0.000142141
0.000115313
0.000110927
0.000100418
0.00010689
8.15175e-05
7.53734e-05
6.61048e-05
4.7471e-05
4.28683e-05
4.64994e-05
4.81074e-05
4.12311e-05
3.25696e-05
2.40384e-05
1.9203e-05
1.75869e-05
1.86928e-05
2.1125e-05
2.33618e-05
2.52285e-05
2.68702e-05
2.81479e-05
2.91546e-05
2.99191e-05
3.04865e-05
3.09157e-05
3.12862e-05
3.16285e-05
3.19094e-05
3.20901e-05
3.2166e-05
3.21727e-05
3.21509e-05
3.21842e-05
3.22419e-05
3.23868e-05
3.25371e-05
3.27308e-05
3.28503e-05
3.2973e-05
3.31239e-05
3.33249e-05
3.40162e-05
3.44726e-05
3.61079e-05
3.68774e-05
4.26193e-05
4.71095e-05
6.53113e-05
0.000103389
0.00022818
0.000388427
0.000606593
0.000700706
0.0010231
0.00173002
0.00305191
0.00385857
0.00370009
0.00378171
0.00777222
0.00126351
0.000804465
0.000904548
0.000743064
0.000729585
0.000947767
0.00111915
0.00129742
0.00139162
0.00142797
0.0013101
0.0011022
0.000943546
0.000843032
0.000796636
0.000748516
0.000701431
0.000647812
0.000599963
0.000559109
0.000533396
0.000504452
0.00047611
0.000439613
0.000411542
0.000393997
0.000364426
0.000304255
0.000278592
0.00021423
0.000180842
0.000166109
0.000143801
0.000125299
0.000112635
0.000102522
9.39912e-05
9.10176e-05
9.74483e-05
7.59709e-05
6.8708e-05
6.15122e-05
4.60987e-05
3.67976e-05
3.83367e-05
3.96312e-05
3.18765e-05
2.33625e-05
1.73447e-05
1.46339e-05
1.39371e-05
1.47583e-05
1.6318e-05
1.79207e-05
1.93087e-05
2.05146e-05
2.15164e-05
2.23505e-05
2.30469e-05
2.36356e-05
2.41406e-05
2.46057e-05
2.50542e-05
2.54599e-05
2.58157e-05
2.61158e-05
2.62905e-05
2.64141e-05
2.65742e-05
2.67507e-05
2.70114e-05
2.72418e-05
2.74342e-05
2.75104e-05
2.75119e-05
2.75043e-05
2.7615e-05
2.8291e-05
2.8836e-05
3.05026e-05
3.07219e-05
3.49063e-05
3.59337e-05
4.50506e-05
6.77042e-05
0.00016971
0.000263031
0.000463484
0.000527462
0.000790646
0.00157268
0.00315406
0.00399782
0.00427102
0.00446454
0.00892321
0.00172696
0.00110542
0.00127967
0.000812086
0.000640315
0.000745723
0.000960076
0.00110857
0.00121726
0.00126014
0.00124987
0.00111932
0.00093858
0.000793584
0.000683634
0.000630329
0.00059868
0.000563868
0.000536236
0.000509942
0.000481403
0.000456437
0.000435575
0.000426681
0.000423404
0.000417049
0.000412714
0.000385148
0.000346067
0.000309782
0.000223213
0.000138479
0.000110738
9.95738e-05
9.27551e-05
9.36071e-05
8.18036e-05
7.68223e-05
7.94171e-05
5.95398e-05
5.28423e-05
4.85566e-05
3.96965e-05
3.22951e-05
3.16671e-05
3.1899e-05
2.51097e-05
1.83206e-05
1.40059e-05
1.22293e-05
1.16867e-05
1.23653e-05
1.34442e-05
1.45051e-05
1.54194e-05
1.62232e-05
1.69405e-05
1.75721e-05
1.81056e-05
1.85866e-05
1.90771e-05
1.95727e-05
2.00659e-05
2.05496e-05
2.10009e-05
2.13799e-05
2.1627e-05
2.179e-05
2.19838e-05
2.22385e-05
2.25538e-05
2.2847e-05
2.3084e-05
2.3201e-05
2.32185e-05
2.32582e-05
2.33037e-05
2.3975e-05
2.43231e-05
2.58269e-05
2.56495e-05
2.85991e-05
2.8386e-05
3.24942e-05
4.36853e-05
0.000107991
0.00019768
0.000345582
0.00045884
0.000899461
0.0017405
0.00283702
0.00387881
0.00576413
0.00591726
0.0108371
0.00260931
0.00205798
0.00167424
0.00109707
0.000592223
0.000587222
0.000810029
0.000934383
0.0010456
0.00110965
0.00113137
0.00107833
0.000990037
0.000866523
0.000733536
0.000631381
0.000583687
0.000555856
0.000527389
0.000500134
0.000474437
0.000458152
0.000451249
0.000450442
0.000448784
0.000453972
0.000453771
0.000419745
0.000345734
0.000323177
0.000299963
0.000239504
0.000130913
8.61513e-05
7.67373e-05
7.95019e-05
7.81592e-05
7.13145e-05
6.99461e-05
4.76042e-05
3.90186e-05
3.61253e-05
3.14322e-05
2.86232e-05
2.67273e-05
2.72922e-05
2.22401e-05
1.63642e-05
1.27928e-05
1.10505e-05
1.05264e-05
1.10192e-05
1.18303e-05
1.2626e-05
1.32825e-05
1.38453e-05
1.43224e-05
1.47365e-05
1.50988e-05
1.54794e-05
1.58535e-05
1.62151e-05
1.6606e-05
1.7022e-05
1.74342e-05
1.77999e-05
1.80276e-05
1.81449e-05
1.82983e-05
1.85857e-05
1.89495e-05
1.92921e-05
1.95722e-05
1.97598e-05
1.98157e-05
1.98712e-05
1.98432e-05
2.04538e-05
2.07272e-05
2.19862e-05
2.17143e-05
2.35802e-05
2.32561e-05
2.546e-05
3.1882e-05
7.19975e-05
0.000156099
0.000260288
0.000358443
0.000758185
0.00145376
0.00232871
0.00439476
0.00732227
0.00815644
0.0128248
0.00482666
0.00297073
0.00177224
0.00112463
0.000547258
0.000460488
0.00064228
0.000764972
0.000863026
0.000920554
0.000942801
0.000944222
0.000886544
0.000816131
0.000750177
0.000691598
0.000639023
0.000589219
0.000546137
0.000520748
0.000498685
0.000484612
0.000468783
0.000445986
0.000425066
0.000417921
0.000429202
0.000414171
0.000348683
0.000301653
0.000292793
0.00027864
0.000238319
0.000139538
8.16873e-05
8.33555e-05
9.0032e-05
7.8187e-05
7.20189e-05
4.37212e-05
3.26901e-05
2.50274e-05
2.60751e-05
2.45185e-05
2.19245e-05
2.07523e-05
1.70554e-05
1.3294e-05
1.06356e-05
9.1489e-06
8.70674e-06
9.07307e-06
9.67435e-06
1.02493e-05
1.0729e-05
1.11515e-05
1.15333e-05
1.18941e-05
1.22455e-05
1.26178e-05
1.30147e-05
1.34162e-05
1.38436e-05
1.4299e-05
1.47579e-05
1.51788e-05
1.54881e-05
1.56913e-05
1.5897e-05
1.62161e-05
1.65706e-05
1.69206e-05
1.72071e-05
1.74307e-05
1.75121e-05
1.76169e-05
1.76358e-05
1.8171e-05
1.83974e-05
1.94403e-05
1.92164e-05
2.05649e-05
2.0414e-05
2.20413e-05
2.60398e-05
4.76985e-05
0.00010266
0.00017473
0.00026398
0.000513338
0.00100156
0.00270586
0.00525267
0.00813663
0.00934679
0.0133721
0.00726821
0.00349121
0.00139592
0.000820372
0.000482493
0.000327788
0.000445731
0.000575069
0.000656759
0.000729536
0.000758164
0.000764823
0.000743747
0.000712948
0.000665206
0.000625665
0.000585259
0.000546856
0.000513688
0.000487326
0.000464655
0.000447268
0.000423984
0.000382122
0.000319676
0.000297592
0.000325121
0.000333766
0.000299196
0.000256723
0.000247997
0.000248944
0.00024206
0.000211073
0.00011034
9.23432e-05
9.40639e-05
8.62119e-05
7.65868e-05
7.51246e-05
4.33892e-05
1.97526e-05
1.55737e-05
1.51227e-05
1.33344e-05
1.25299e-05
1.0826e-05
8.98729e-06
7.46792e-06
6.5633e-06
6.28281e-06
6.47753e-06
6.81445e-06
7.13903e-06
7.41388e-06
7.66421e-06
7.89961e-06
8.13389e-06
8.37506e-06
8.63363e-06
8.91588e-06
9.20764e-06
9.51496e-06
9.84478e-06
1.01818e-05
1.0502e-05
1.07615e-05
1.09533e-05
1.11366e-05
1.1401e-05
1.16971e-05
1.20143e-05
1.22774e-05
1.25381e-05
1.26579e-05
1.28284e-05
1.29025e-05
1.32782e-05
1.34033e-05
1.40471e-05
1.39343e-05
1.45244e-05
1.46785e-05
1.61857e-05
1.94788e-05
2.98421e-05
5.38771e-05
9.51156e-05
0.000168421
0.00035039
0.000754047
0.00163222
0.00262817
0.00631935
0.00901946
0.0139236
0.00719141
0.0036036
0.00153357
0.000747324
0.000391351
0.000280143
0.000225348
0.000218365
0.000301323
0.000409424
0.00045904
0.000482608
0.000493338
0.00049647
0.000481122
0.000467678
0.000448063
0.000426738
0.000407435
0.000390421
0.000375666
0.000362925
0.000343953
0.00031348
0.000268782
0.000218774
0.0002238
0.000261487
0.000250425
0.000219329
0.000219551
0.000220923
0.000216867
0.000188873
0.000103125
0.000170162
0.000134232
7.849e-05
5.35257e-05
3.41169e-05
2.80961e-05
3.16799e-05
4.23401e-05
5.39152e-05
6.99238e-05
7.75763e-05
8.18895e-05
8.16501e-05
8.10215e-05
7.76941e-05
7.53807e-05
7.19329e-05
6.8826e-05
6.52615e-05
6.23708e-05
6.0321e-05
5.93924e-05
5.92772e-05
5.96862e-05
6.0557e-05
6.17782e-05
6.32118e-05
6.47925e-05
6.64673e-05
6.80632e-05
6.95467e-05
7.06755e-05
7.13352e-05
7.16532e-05
7.20096e-05
7.22525e-05
7.30421e-05
7.37906e-05
7.52701e-05
7.56522e-05
7.67931e-05
7.60002e-05
7.70905e-05
7.61196e-05
7.84583e-05
7.80334e-05
8.02015e-05
7.36811e-05
7.30288e-05
7.53948e-05
0.00010547
0.000117631
0.000132546
0.000229954
0.000418344
0.00066989
0.0014151
0.00167144
0.00244313
0.00332414
0.00750428
0.00499466
0.00357221
0.00255969
0.00198585
0.00175795
0.00170762
0.00171849
0.00173851
0.00173686
0.00171848
0.00166902
0.00160311
0.00154716
0.00148745
0.00143374
0.00138342
0.00132432
0.00126794
0.00118859
0.00109523
0.000997133
0.000780991
0.000511814
0.000379358
0.000347679
0.000336185
0.00030587
0.000231203
0.000163297
0.000122063
0.000111511
0.000111616
0.000110311
0.000105407
8.98025e-05
0.000307731
0.000241259
0.000161733
0.000121589
8.96461e-05
9.26387e-05
0.000113076
0.000131764
0.000141055
0.000157421
0.000163242
0.000165291
0.000160311
0.000154201
0.000148723
0.000146357
0.000145469
0.000145348
0.000144641
0.000144032
0.000143758
0.000144344
0.000145469
0.000146945
0.000148713
0.000150727
0.000152919
0.000155235
0.000157598
0.000159755
0.000161608
0.00016294
0.000163752
0.000164208
0.00016455
0.000164833
0.00016541
0.000166067
0.000167079
0.000167606
0.00016868
0.000169081
0.000170704
0.000171398
0.000173831
0.000173365
0.000173897
0.000166154
0.000167216
0.000188737
0.00024268
0.0002659
0.000278256
0.000506064
0.00104259
0.00184478
0.00319559
0.00357628
0.00398248
0.00393774
0.00165872
0.00358216
0.00367304
0.00277931
0.00242803
0.00246973
0.0025445
0.00256854
0.00255316
0.00248879
0.00233
0.0021251
0.00195264
0.00181817
0.0017026
0.00160489
0.00149694
0.00141591
0.00134464
0.00126594
0.00121415
0.00113366
0.000938022
0.000722275
0.000574937
0.000482315
0.000444277
0.000366035
0.000254714
0.000186775
0.000165095
0.000168332
0.000167011
0.00015487
0.000142482
0.000100335
0.000354955
0.000274762
0.00023744
0.000194399
0.000167377
0.000161176
0.000170867
0.000181295
0.000180274
0.000185282
0.000186624
0.000184044
0.000175269
0.000164954
0.000158014
0.000155866
0.000157425
0.000160828
0.000164424
0.000167867
0.000170892
0.00017383
0.000176383
0.000178593
0.000180554
0.000182366
0.000184137
0.000185915
0.000187698
0.000189385
0.000190777
0.000191723
0.000192299
0.0001926
0.000192763
0.0001929
0.000193112
0.000193478
0.000194085
0.000194862
0.000195873
0.000196822
0.000197705
0.000198384
0.000198785
0.000201208
0.000201492
0.000202449
0.000210067
0.000254971
0.000322257
0.000412161
0.00043951
0.000670931
0.00137809
0.00267244
0.00398157
0.00499263
0.00305658
0.0022181
0.00158788
0.00301146
0.0023529
0.00200163
0.00277426
0.00254179
0.00256358
0.00255902
0.00252188
0.00242755
0.00219287
0.00190442
0.00175628
0.00168147
0.00165172
0.0016453
0.00162756
0.0015884
0.00150916
0.00140448
0.00134308
0.00126425
0.00108256
0.000923985
0.000732297
0.000639052
0.000561205
0.000405973
0.000287181
0.000244468
0.000241573
0.000230738
0.000202246
0.000172982
0.000167554
0.000119121
0.000455411
0.000335633
0.000300593
0.000275202
0.000241664
0.000220826
0.000214303
0.00021548
0.000206786
0.000203559
0.00020299
0.000195858
0.000182505
0.000169266
0.000160928
0.000158497
0.000160915
0.000166028
0.000171913
0.000177468
0.000182578
0.00018706
0.000190608
0.000193369
0.000195573
0.00019743
0.000199106
0.000200722
0.00020232
0.000203813
0.000204997
0.000205727
0.000206085
0.000206156
0.000206113
0.000206127
0.000206264
0.000206587
0.000207212
0.000208275
0.000209333
0.000210234
0.000210288
0.00021046
0.000209944
0.000216111
0.000224181
0.000240671
0.000249025
0.000287029
0.000386014
0.000586576
0.000771934
0.000791763
0.0017841
0.00424818
0.0056497
0.00612101
0.00239382
0.0020302
0.00183859
0.00235826
0.00182544
0.00191265
0.00239623
0.00224726
0.00230107
0.00228536
0.00227323
0.00212568
0.00182451
0.00154757
0.00144807
0.00146248
0.00154446
0.00166324
0.00167432
0.00165649
0.00160126
0.0015175
0.00146675
0.00134295
0.00116216
0.000988484
0.00083929
0.000754447
0.000568509
0.000388488
0.000311143
0.000289906
0.000271813
0.000266653
0.000237974
0.000194062
0.000185619
0.000131407
0.000590717
0.000367122
0.000330057
0.000320116
0.000302857
0.000269645
0.000246047
0.000240155
0.000231036
0.000223812
0.000223483
0.000210574
0.000191575
0.000172313
0.00016217
0.000159245
0.000161917
0.000167618
0.000174299
0.000180723
0.000187292
0.000192709
0.000196899
0.000200074
0.000202501
0.000204458
0.000206148
0.000207746
0.000209327
0.000210801
0.000211959
0.000212606
0.000212822
0.000212727
0.00021254
0.000212529
0.000212742
0.00021336
0.000214271
0.000215764
0.000216803
0.000217796
0.00021729
0.000218197
0.000219006
0.000231026
0.000247402
0.00027486
0.000280639
0.000296686
0.000396965
0.000630594
0.000923897
0.00130616
0.00302219
0.00641095
0.00673344
0.0052811
0.00173187
0.00158105
0.00192789
0.00180034
0.00171767
0.00208892
0.00225941
0.0021653
0.00213092
0.00201953
0.00194364
0.00191986
0.00173608
0.00149144
0.00136095
0.00135539
0.00139163
0.00146945
0.00153946
0.00156907
0.00155125
0.00150289
0.0014554
0.00129551
0.00114663
0.00100683
0.000904283
0.000713042
0.000486051
0.000379518
0.00033511
0.00031616
0.000346342
0.000350501
0.000239306
0.00019437
0.000184409
0.000132526
0.000750452
0.000387512
0.000343506
0.000337663
0.000330355
0.000313385
0.000277565
0.000261502
0.000245363
0.000233809
0.000235604
0.000218
0.000195009
0.000171682
0.000155097
0.000149201
0.000152677
0.000160469
0.000170216
0.000179712
0.000187472
0.000193416
0.000198004
0.000201463
0.000204041
0.000206053
0.000207753
0.000209347
0.000210923
0.0002124
0.000213553
0.00021414
0.000214253
0.000214041
0.000213745
0.000213718
0.00021395
0.000214651
0.000215606
0.000217225
0.00021821
0.000219258
0.000218508
0.000219922
0.000220922
0.000235287
0.000254563
0.000287801
0.000301915
0.000326874
0.000385996
0.000593302
0.000886584
0.00177535
0.0043321
0.00630048
0.00625734
0.00674436
0.00159212
0.00152593
0.00227399
0.00184697
0.00188278
0.00226099
0.00238554
0.00234233
0.0022044
0.00200326
0.00180386
0.00172025
0.00166111
0.00152933
0.00135269
0.00124899
0.00121667
0.00124904
0.00131123
0.00135209
0.00136131
0.00134452
0.001303
0.00125311
0.00117114
0.0010602
0.000893576
0.000682897
0.000534926
0.000469704
0.000437917
0.000490973
0.000588304
0.000426765
0.000216674
0.000171484
0.000166644
0.00013005
0.00067862
0.000395238
0.000350445
0.000346528
0.000341034
0.000335523
0.000302689
0.000275212
0.000252421
0.000237965
0.000240425
0.000220101
0.000193396
0.000157789
0.000138319
0.000131615
0.000135313
0.000142728
0.000151587
0.000160466
0.000168835
0.000176066
0.00018185
0.000186174
0.00018919
0.000191281
0.000192873
0.000194314
0.000195691
0.000196939
0.000197744
0.000197765
0.000197142
0.000196192
0.000195156
0.000194878
0.000194813
0.000195333
0.000195916
0.000197507
0.000197845
0.000198987
0.00019717
0.000200081
0.000201631
0.000222443
0.000249495
0.000283237
0.000302059
0.000337666
0.000405758
0.000560949
0.000754076
0.00124244
0.00260022
0.00474164
0.00545119
0.00649974
0.00153329
0.00149172
0.0024847
0.00190625
0.00196292
0.00243708
0.00263077
0.00271645
0.00275918
0.00260976
0.00209422
0.0017556
0.00160696
0.00158191
0.00153045
0.00146265
0.00137635
0.00133743
0.00136827
0.00141461
0.00146488
0.00150834
0.00157003
0.00168259
0.00180244
0.00180209
0.00166156
0.00151599
0.00139654
0.00133433
0.00147935
0.00165086
0.00139992
0.000927352
0.000436048
0.000266899
0.000224143
0.000142971
0.000542068
0.000404933
0.000337248
0.000323008
0.000321937
0.000327879
0.000306335
0.000276614
0.000252835
0.000237674
0.000240358
0.000216177
0.000180237
0.00013819
0.000112679
0.000104357
0.000110675
0.000121214
0.000132087
0.000142066
0.000150366
0.000156869
0.000161823
0.00016543
0.000167823
0.000169329
0.000170334
0.000171096
0.000171429
0.000171438
0.000170924
0.000169715
0.000168139
0.000166494
0.000164663
0.000162909
0.000161422
0.000160432
0.0001594
0.000159356
0.000158575
0.000158956
0.000157775
0.000160173
0.000163929
0.000176228
0.000202803
0.000226763
0.000241671
0.000296046
0.000412047
0.000553237
0.000721668
0.00115074
0.00318154
0.00470212
0.0039542
0.00319462
0.00203789
0.00202929
0.00288078
0.00187353
0.00185497
0.00236449
0.00264907
0.0028154
0.00305168
0.0031766
0.00315917
0.00263518
0.00194939
0.00164991
0.0015836
0.00163193
0.00172345
0.00179241
0.00184303
0.00194781
0.00209744
0.00227228
0.0023568
0.0023452
0.00203578
0.00188086
0.00182335
0.00196536
0.00210997
0.00216204
0.00208477
0.00176658
0.00142039
0.00101329
0.000813317
0.000753265
0.000794263
0.000800309
0.000411959
0.00046297
0.000330978
0.000285774
0.000274179
0.000273818
0.000271272
0.000258077
0.000242658
0.000230965
0.0002316
0.00020297
0.000160839
0.000109159
8.05587e-05
7.16091e-05
7.38361e-05
7.97289e-05
8.65746e-05
9.35458e-05
0.00010052
0.000106877
0.000111843
0.000115386
0.000117639
0.000118833
0.000119537
0.000120142
0.000120785
0.000121268
0.000121067
0.000120107
0.000118545
0.000116925
0.000115237
0.000114347
0.000113636
0.000113597
0.000113175
0.000113883
0.00011311
0.000114186
0.000113351
0.000115697
0.000121352
0.000129591
0.000155464
0.000179259
0.000187061
0.000256611
0.000391935
0.000512932
0.000761705
0.00107053
0.00185894
0.0035182
0.0039665
0.00423372
0.00277259
0.00276456
0.00336698
0.00163336
0.00159851
0.00191494
0.00203513
0.00198745
0.00237084
0.00298486
0.00350655
0.00366595
0.00328055
0.00239543
0.00183619
0.00161084
0.00155719
0.00156716
0.0016498
0.00171794
0.0017537
0.00175969
0.00162917
0.00148178
0.0014143
0.00142969
0.00156886
0.00162563
0.00163504
0.00156047
0.00134094
0.00108591
0.000853513
0.000666065
0.000522272
0.000455833
0.000404659
0.000234786
0.000382135
0.000500706
0.000345284
0.000268251
0.000217436
0.000196003
0.000193603
0.000195931
0.000192874
0.000194344
0.000199092
0.000167791
0.000127025
8.53477e-05
6.40852e-05
5.74786e-05
5.80887e-05
6.14742e-05
6.55716e-05
7.03255e-05
7.54905e-05
7.88232e-05
8.14963e-05
8.35184e-05
8.48861e-05
8.55693e-05
8.61523e-05
8.68968e-05
8.75516e-05
8.79819e-05
8.78829e-05
8.72717e-05
8.62929e-05
8.55139e-05
8.47721e-05
8.43988e-05
8.39266e-05
8.37908e-05
8.33637e-05
8.34022e-05
8.26137e-05
8.32254e-05
8.35919e-05
8.54106e-05
8.91091e-05
9.19913e-05
0.000107928
0.000119457
0.000130279
0.000173969
0.000291928
0.000439181
0.000782737
0.00119203
0.00222379
0.00348554
0.00490445
0.0045111
0.00372846
0.00371715
0.00387976
0.00160243
0.00149013
0.00183974
0.00179114
0.00162306
0.00154942
0.00189799
0.0023629
0.00308712
0.00352593
0.00324125
0.00268164
0.00217317
0.00180018
0.00161146
0.00150003
0.00142998
0.00135879
0.00129957
0.00126537
0.001254
0.00127356
0.00129736
0.00129851
0.00115767
0.00100536
0.000904363
0.000796705
0.000627613
0.000422633
0.000301935
0.000224929
0.000202242
0.00016348
9.89696e-05
0.0003689
0.000512454