/*--------------------------------*- C++ -*----------------------------------*\
| =========                 |                                                 |
| \\      /  F ield         | OpenFOAM: The Open Source CFD Toolbox           |
|  \\    /   O peration     | Version:  2.3.0                                 |
|   \\  /    A nd           | Web:      www.OpenFOAM.org                      |
|    \\/     M anipulation  |                                                 |
\*---------------------------------------------------------------------------*/
FoamFile
{
    version     2.0;
    format      ascii;
    class       volScalarField;
    location    "32";
    object      nut.water;
}
// * * * * * * * * * * * * * * * * * * * * * * * * * * * * * * * * * * * * * //

dimensions      [0 2 -1 0 0 0 0];

internalField   nonuniform List<scalar> 
6144
(
1.28119e-05
1.13461e-05
9.52072e-06
8.62579e-06
7.32603e-06
6.62229e-06
6.08035e-06
6.13816e-06
6.34185e-06
6.81491e-06
7.15581e-06
7.42606e-06
7.52283e-06
7.54437e-06
7.42271e-06
7.33254e-06
7.1954e-06
7.09817e-06
7.03494e-06
7.00311e-06
6.98006e-06
6.97417e-06
6.97949e-06
6.99086e-06
7.00793e-06
7.02933e-06
7.05351e-06
7.07881e-06
7.10529e-06
7.14638e-06
7.20502e-06
7.2506e-06
7.2823e-06
7.29443e-06
7.31421e-06
7.32018e-06
7.357e-06
7.37586e-06
7.44853e-06
7.4538e-06
7.52426e-06
7.46426e-06
7.52202e-06
7.41271e-06
7.49319e-06
7.45347e-06
7.57404e-06
7.68695e-06
8.27925e-06
9.58401e-06
1.23546e-05
1.45091e-05
1.66913e-05
2.20685e-05
2.86392e-05
3.37552e-05
4.14581e-05
5.62467e-05
9.85751e-05
0.000111621
0.000190229
0.000139535
0.000111006
8.60627e-05
7.25676e-05
6.37936e-05
6.01259e-05
5.9678e-05
6.0762e-05
6.23057e-05
6.39556e-05
6.54446e-05
6.62901e-05
6.68651e-05
6.67962e-05
6.64089e-05
6.57039e-05
6.40737e-05
6.23897e-05
5.9013e-05
5.58096e-05
5.03715e-05
3.64435e-05
2.19836e-05
1.95428e-05
2.06078e-05
2.17013e-05
2.26781e-05
2.32346e-05
2.26009e-05
2.1512e-05
2.02588e-05
1.85822e-05
1.72924e-05
1.60342e-05
1.40596e-05
1.5472e-05
1.38309e-05
1.21003e-05
1.11865e-05
9.65888e-06
9.30916e-06
9.12316e-06
9.35885e-06
9.52062e-06
1.00214e-05
1.03243e-05
1.05649e-05
1.05651e-05
1.04776e-05
1.03028e-05
1.02143e-05
1.01397e-05
1.01407e-05
1.01866e-05
1.02769e-05
1.03554e-05
1.04353e-05
1.05088e-05
1.05759e-05
1.06389e-05
1.07003e-05
1.07617e-05
1.08232e-05
1.08852e-05
1.09741e-05
1.10724e-05
1.11521e-05
1.12154e-05
1.12607e-05
1.13081e-05
1.1344e-05
1.14051e-05
1.14473e-05
1.15349e-05
1.15578e-05
1.16558e-05
1.16399e-05
1.17634e-05
1.1735e-05
1.18886e-05
1.19016e-05
1.19111e-05
1.20053e-05
1.27369e-05
1.48155e-05
1.704e-05
2.0618e-05
2.36096e-05
3.13633e-05
4.08193e-05
4.89636e-05
6.46605e-05
7.62506e-05
9.65062e-05
0.000115812
0.000195222
0.000137466
0.000100218
6.56935e-05
5.63742e-05
5.49138e-05
5.70146e-05
5.99113e-05
6.29893e-05
6.50662e-05
6.66123e-05
6.73957e-05
6.70727e-05
6.67986e-05
6.60826e-05
6.55876e-05
6.52521e-05
6.42884e-05
6.32733e-05
6.13439e-05
5.897e-05
5.46446e-05
4.26837e-05
2.86384e-05
2.69185e-05
2.86498e-05
2.96031e-05
2.95419e-05
2.79156e-05
2.62659e-05
2.47933e-05
2.30819e-05
2.15716e-05
2.04892e-05
1.9265e-05
1.484e-05
1.63411e-05
1.47969e-05
1.38625e-05
1.3419e-05
1.20722e-05
1.17357e-05
1.15101e-05
1.1078e-05
1.08007e-05
1.11416e-05
1.13825e-05
1.14438e-05
1.12791e-05
1.11103e-05
1.10087e-05
1.10092e-05
1.1098e-05
1.1293e-05
1.1521e-05
1.17265e-05
1.19006e-05
1.20563e-05
1.21867e-05
1.22978e-05
1.23962e-05
1.24872e-05
1.25754e-05
1.26628e-05
1.27497e-05
1.28351e-05
1.29164e-05
1.29862e-05
1.30487e-05
1.30999e-05
1.31477e-05
1.31883e-05
1.32296e-05
1.32614e-05
1.3308e-05
1.33463e-05
1.34253e-05
1.34961e-05
1.36146e-05
1.36885e-05
1.37802e-05
1.38695e-05
1.3861e-05
1.41829e-05
1.51807e-05
1.83173e-05
2.11109e-05
2.58214e-05
2.90781e-05
3.78054e-05
5.10325e-05
6.16763e-05
7.89961e-05
9.12644e-05
0.000108778
0.000120819
0.00020766
0.000137585
8.00247e-05
5.57637e-05
5.55701e-05
5.79949e-05
5.97743e-05
6.11977e-05
6.16531e-05
6.08787e-05
5.98044e-05
5.86861e-05
5.73012e-05
5.66956e-05
5.65936e-05
5.69246e-05
5.78494e-05
5.8968e-05
5.99776e-05
5.96179e-05
5.87326e-05
5.63811e-05
4.61684e-05
3.47411e-05
3.52007e-05
3.73086e-05
3.74172e-05
3.52278e-05
3.2214e-05
3.0571e-05
2.83785e-05
2.59482e-05
2.45045e-05
2.3524e-05
2.23692e-05
1.6318e-05
1.67849e-05
1.52496e-05
1.45709e-05
1.47247e-05
1.36582e-05
1.32545e-05
1.25738e-05
1.18707e-05
1.13225e-05
1.14548e-05
1.17082e-05
1.17387e-05
1.15617e-05
1.13788e-05
1.13091e-05
1.13482e-05
1.15085e-05
1.17415e-05
1.19883e-05
1.22145e-05
1.242e-05
1.26035e-05
1.27568e-05
1.28858e-05
1.29997e-05
1.31049e-05
1.32067e-05
1.33076e-05
1.34085e-05
1.35074e-05
1.36009e-05
1.3683e-05
1.37566e-05
1.38188e-05
1.38767e-05
1.39291e-05
1.39807e-05
1.4025e-05
1.40853e-05
1.41499e-05
1.42519e-05
1.43465e-05
1.44684e-05
1.45322e-05
1.45996e-05
1.46901e-05
1.48219e-05
1.55926e-05
1.69408e-05
1.9615e-05
2.54622e-05
3.21021e-05
3.58981e-05
4.14183e-05
5.90746e-05
7.58869e-05
9.76126e-05
0.000106167
0.0001112
0.000115638
0.000206056
0.00011379
5.96598e-05
5.87724e-05
6.11088e-05
6.13441e-05
6.1405e-05
6.10284e-05
5.95739e-05
5.74584e-05
5.4796e-05
5.13217e-05
4.86707e-05
4.79914e-05
4.84257e-05
5.02884e-05
5.43474e-05
5.74695e-05
5.85367e-05
5.85086e-05
5.87491e-05
5.68967e-05
4.5854e-05
4.05723e-05
4.37471e-05
4.4756e-05
4.22427e-05
3.82938e-05
3.55598e-05
3.30799e-05
2.99806e-05
2.80566e-05
2.74712e-05
2.69611e-05
2.5931e-05
1.7469e-05
1.75789e-05
1.54577e-05
1.47324e-05
1.50945e-05
1.44596e-05
1.42902e-05
1.29563e-05
1.24428e-05
1.20138e-05
1.18249e-05
1.2027e-05
1.18757e-05
1.15833e-05
1.1345e-05
1.13015e-05
1.13819e-05
1.15935e-05
1.18841e-05
1.21927e-05
1.24836e-05
1.27595e-05
1.29917e-05
1.31801e-05
1.33323e-05
1.34602e-05
1.35748e-05
1.36816e-05
1.37851e-05
1.38879e-05
1.39882e-05
1.40817e-05
1.41633e-05
1.42338e-05
1.42934e-05
1.43488e-05
1.44028e-05
1.44575e-05
1.45173e-05
1.45875e-05
1.46821e-05
1.4796e-05
1.49072e-05
1.49979e-05
1.5044e-05
1.50602e-05
1.5297e-05
1.57615e-05
1.7194e-05
1.87831e-05
2.19387e-05
2.93193e-05
3.75264e-05
4.49243e-05
5.34605e-05
7.53709e-05
9.51107e-05
0.000110105
0.000107023
0.00010768
0.000110984
0.000162381
7.92579e-05
6.40251e-05
6.87442e-05
7.00285e-05
6.9908e-05
6.93219e-05
6.77791e-05
6.48513e-05
6.04296e-05
5.59385e-05
5.11337e-05
4.82967e-05
4.77116e-05
4.95398e-05
5.24589e-05
5.55382e-05
5.85248e-05
6.01448e-05
6.10944e-05
5.95604e-05
5.36679e-05
4.71272e-05
4.96449e-05
5.16299e-05
4.91312e-05
4.4339e-05
4.05314e-05
3.72696e-05
3.36741e-05
3.13203e-05
3.19635e-05
3.21028e-05
3.05006e-05
2.84676e-05
1.86356e-05
1.80262e-05
1.56615e-05
1.45976e-05
1.51733e-05
1.48702e-05
1.51843e-05
1.38143e-05
1.31701e-05
1.25755e-05
1.21253e-05
1.2327e-05
1.19793e-05
1.16054e-05
1.12972e-05
1.11543e-05
1.12139e-05
1.14873e-05
1.18763e-05
1.22983e-05
1.26857e-05
1.30137e-05
1.32765e-05
1.34857e-05
1.3653e-05
1.37909e-05
1.3911e-05
1.40204e-05
1.41259e-05
1.42311e-05
1.43346e-05
1.44315e-05
1.45159e-05
1.45898e-05
1.46527e-05
1.47112e-05
1.47698e-05
1.48318e-05
1.49093e-05
1.50007e-05
1.51218e-05
1.52473e-05
1.53662e-05
1.54409e-05
1.5489e-05
1.55055e-05
1.58816e-05
1.66338e-05
1.86524e-05
2.06069e-05
2.41216e-05
3.1507e-05
3.97552e-05
4.78306e-05
5.90608e-05
8.82234e-05
0.000104583
0.00011294
0.000117191
0.000108475
0.000112664
0.000145274
7.93338e-05
7.35567e-05
7.9326e-05
8.07582e-05
8.09407e-05
7.99019e-05
7.77551e-05
7.38541e-05
6.95325e-05
6.45387e-05
5.87382e-05
5.40269e-05
5.1719e-05
5.21808e-05
5.49304e-05
5.77592e-05
5.98478e-05
6.11816e-05
6.06934e-05
5.81037e-05
5.5294e-05
5.55615e-05
5.87985e-05
5.68717e-05
5.11538e-05
4.55657e-05
4.14823e-05
3.76505e-05
3.56237e-05
3.69264e-05
3.93086e-05
3.67177e-05
3.30433e-05
3.0428e-05
1.87169e-05
1.73591e-05
1.63966e-05
1.44302e-05
1.53031e-05
1.49698e-05
1.55977e-05
1.46039e-05
1.37082e-05
1.3165e-05
1.25731e-05
1.27249e-05
1.2138e-05
1.1532e-05
1.09628e-05
1.08077e-05
1.08835e-05
1.11702e-05
1.15467e-05
1.19664e-05
1.23773e-05
1.2744e-05
1.30545e-05
1.33027e-05
1.34939e-05
1.36411e-05
1.37574e-05
1.38579e-05
1.39521e-05
1.40475e-05
1.41444e-05
1.42375e-05
1.43161e-05
1.43752e-05
1.44209e-05
1.44602e-05
1.45117e-05
1.4572e-05
1.46581e-05
1.47556e-05
1.48925e-05
1.50039e-05
1.51253e-05
1.51237e-05
1.52003e-05
1.52076e-05
1.5915e-05
1.70933e-05
1.94751e-05
2.17123e-05
2.51051e-05
3.15032e-05
3.9257e-05
4.70792e-05
5.57675e-05
7.68209e-05
0.000100246
0.000113271
0.000124821
0.000112103
0.000116317
0.000148414
8.41319e-05
7.90476e-05
8.64056e-05
8.88047e-05
9.17971e-05
9.29107e-05
9.06715e-05
8.50581e-05
8.09237e-05
7.67493e-05
7.25273e-05
6.79779e-05
6.36979e-05
6.15807e-05
6.13562e-05
6.2751e-05
6.39055e-05
6.47365e-05
6.50772e-05
6.59317e-05
7.16985e-05
7.56522e-05
7.26879e-05
6.41293e-05
5.49119e-05
4.82935e-05
4.52512e-05
4.44415e-05
4.99949e-05
5.79876e-05
5.58145e-05
4.55075e-05
3.81498e-05
3.44951e-05
1.94109e-05
1.69656e-05
1.71203e-05
1.4252e-05
1.48298e-05
1.40495e-05
1.50056e-05
1.46472e-05
1.35453e-05
1.34477e-05
1.29966e-05
1.3277e-05
1.25511e-05
1.17936e-05
1.10154e-05
1.06332e-05
1.06828e-05
1.10849e-05
1.15805e-05
1.20752e-05
1.25313e-05
1.2928e-05
1.32614e-05
1.35324e-05
1.37468e-05
1.39161e-05
1.40561e-05
1.41797e-05
1.4296e-05
1.44069e-05
1.45142e-05
1.46131e-05
1.46934e-05
1.47552e-05
1.4808e-05
1.48531e-05
1.49058e-05
1.49662e-05
1.50503e-05
1.51437e-05
1.52756e-05
1.53837e-05
1.55141e-05
1.55394e-05
1.56594e-05
1.57309e-05
1.63993e-05
1.75607e-05
1.9681e-05
2.22476e-05
2.63353e-05
3.34368e-05
4.16072e-05
4.9738e-05
5.86078e-05
8.72432e-05
0.00011072
0.000110429
0.000110553
0.000125951
0.000130194
0.000183808
9.15256e-05
8.1313e-05
9.00326e-05
9.36439e-05
9.94899e-05
0.000102504
0.000104999
0.000102388
9.42894e-05
8.87711e-05
8.59172e-05
8.40659e-05
8.28514e-05
8.18057e-05
8.15787e-05
8.23797e-05
8.38984e-05
8.58693e-05
8.74576e-05
8.80113e-05
8.47201e-05
7.97845e-05
6.9991e-05
6.63187e-05
6.6782e-05
6.97871e-05
7.28279e-05
7.43606e-05
7.4578e-05
7.08871e-05
6.45237e-05
5.90178e-05
5.38928e-05
4.59878e-05
2.33913e-05
1.657e-05
1.73862e-05
1.42899e-05
1.4572e-05
1.32907e-05
1.35518e-05
1.31115e-05
1.18861e-05
1.23085e-05
1.23404e-05
1.27837e-05
1.20034e-05
1.1069e-05
9.84422e-06
9.09731e-06
9.04781e-06
9.50815e-06
1.0052e-05
1.05399e-05
1.09601e-05
1.13213e-05
1.16298e-05
1.188e-05
1.20753e-05
1.22259e-05
1.23466e-05
1.24509e-05
1.2547e-05
1.26354e-05
1.27155e-05
1.27788e-05
1.28216e-05
1.28469e-05
1.28699e-05
1.28873e-05
1.29196e-05
1.29555e-05
1.30139e-05
1.30738e-05
1.31689e-05
1.32309e-05
1.33314e-05
1.3353e-05
1.34787e-05
1.3625e-05
1.41576e-05
1.53389e-05
1.70208e-05
1.96006e-05
2.3944e-05
3.15888e-05
3.97368e-05
4.72968e-05
5.36881e-05
6.6887e-05
9.1409e-05
9.24396e-05
9.65868e-05
0.000115835
0.000119375
0.000181007
8.26239e-05
6.73069e-05
7.17673e-05
7.65546e-05
8.49105e-05
9.16868e-05
9.65842e-05
9.89618e-05
9.70691e-05
8.87708e-05
8.28e-05
8.05578e-05
7.98639e-05
7.98125e-05
7.9964e-05
8.01421e-05
8.03988e-05
8.05541e-05
8.01661e-05
7.76204e-05
7.10989e-05
6.6732e-05
6.57568e-05
6.5698e-05
6.59882e-05
6.59569e-05
6.53285e-05
6.33537e-05
6.01751e-05
5.58673e-05
5.3297e-05
5.00552e-05
4.56768e-05
3.87543e-05
2.11991e-05
1.61635e-05
1.69101e-05
1.45575e-05
1.48314e-05
1.30306e-05
1.28391e-05
1.2261e-05
1.08079e-05
1.0891e-05
1.12053e-05
1.16898e-05
1.09969e-05
9.92039e-06
8.58205e-06
7.71592e-06
7.54132e-06
7.91378e-06
8.44392e-06
8.8923e-06
9.26958e-06
9.60473e-06
9.86946e-06
1.00843e-05
1.02555e-05
1.03886e-05
1.04971e-05
1.05937e-05
1.06832e-05
1.07644e-05
1.0836e-05
1.08946e-05
1.09388e-05
1.09727e-05
1.10103e-05
1.10465e-05
1.10975e-05
1.11435e-05
1.12032e-05
1.12512e-05
1.13156e-05
1.13718e-05
1.14562e-05
1.15529e-05
1.16913e-05
1.1916e-05
1.22916e-05
1.33597e-05
1.4576e-05
1.71914e-05
2.13481e-05
2.96042e-05
3.79588e-05
4.61484e-05
5.23413e-05
6.72578e-05
8.43673e-05
9.40587e-05
0.000104039
0.000114091
0.000117184
0.000177869
7.63318e-05
5.78294e-05
6.32081e-05
6.13867e-05
6.70608e-05
7.61219e-05
8.27629e-05
8.78023e-05
9.084e-05
8.91681e-05
8.32701e-05
7.78023e-05
7.54382e-05
7.46336e-05
7.44416e-05
7.43079e-05
7.37713e-05
7.22377e-05
6.91073e-05
6.53746e-05
6.32711e-05
6.20356e-05
6.10583e-05
6.017e-05
5.77639e-05
5.45336e-05
5.06672e-05
4.61961e-05
4.34976e-05
4.16115e-05
4.09347e-05
3.88717e-05
3.5026e-05
3.12565e-05
1.86201e-05
1.50819e-05
1.4862e-05
1.42431e-05
1.4782e-05
1.29784e-05
1.25452e-05
1.18021e-05
1.00596e-05
9.60344e-06
1.00503e-05
1.02751e-05
9.56155e-06
8.54116e-06
7.37356e-06
6.62221e-06
6.36806e-06
6.59714e-06
7.04743e-06
7.4471e-06
7.77629e-06
8.06389e-06
8.2928e-06
8.47988e-06
8.63098e-06
8.75344e-06
8.85612e-06
8.95056e-06
9.04115e-06
9.12311e-06
9.1909e-06
9.24379e-06
9.2868e-06
9.32576e-06
9.37271e-06
9.42332e-06
9.48676e-06
9.55113e-06
9.62196e-06
9.68206e-06
9.74277e-06
9.80789e-06
9.88045e-06
1.00262e-05
1.01367e-05
1.04199e-05
1.05764e-05
1.14214e-05
1.206e-05
1.4266e-05
1.80058e-05
2.6745e-05
3.48627e-05
4.37417e-05
4.73377e-05
5.7538e-05
7.54121e-05
0.000101057
0.000113967
0.000111946
0.000115281
0.000174722
7.43194e-05
5.46288e-05
6.3787e-05
5.56448e-05
5.68853e-05
6.35655e-05
6.99945e-05
7.53837e-05
7.88466e-05
8.06471e-05
7.87392e-05
7.38026e-05
6.95878e-05
6.67956e-05
6.56727e-05
6.45099e-05
6.32275e-05
6.15901e-05
5.99833e-05
5.84021e-05
5.72848e-05
5.53236e-05
5.25013e-05
4.91929e-05
4.636e-05
4.43582e-05
4.16395e-05
3.73081e-05
3.58778e-05
3.27308e-05
3.13544e-05
3.05437e-05
2.86545e-05
2.62643e-05
1.70761e-05
1.42126e-05
1.36779e-05
1.35319e-05
1.40733e-05
1.24654e-05
1.19064e-05
1.13131e-05
9.83778e-06
8.82345e-06
9.04288e-06
9.2346e-06
8.31809e-06
7.15027e-06
6.1852e-06
5.70373e-06
5.58841e-06
5.77388e-06
6.09591e-06
6.4139e-06
6.68426e-06
6.91722e-06
7.1121e-06
7.27718e-06
7.41868e-06
7.54216e-06
7.65196e-06
7.75525e-06
7.85581e-06
7.94959e-06
8.03559e-06
8.11286e-06
8.17081e-06
8.22095e-06
8.27696e-06
8.33568e-06
8.40758e-06
8.47483e-06
8.53628e-06
8.57978e-06
8.61175e-06
8.64245e-06
8.69169e-06
8.83025e-06
8.94708e-06
9.23592e-06
9.30269e-06
9.95318e-06
1.01351e-05
1.13973e-05
1.40234e-05
2.22039e-05
2.76801e-05
3.67807e-05
3.94494e-05
4.86467e-05
6.90148e-05
9.80935e-05
0.00011076
0.00011503
0.000119224
0.000179535
8.22629e-05
6.45283e-05
7.09756e-05
5.53617e-05
5.07482e-05
5.30972e-05
6.13207e-05
6.59831e-05
6.97995e-05
7.15228e-05
7.21542e-05
6.94043e-05
6.50211e-05
6.10992e-05
5.79372e-05
5.65199e-05
5.57157e-05
5.44804e-05
5.32042e-05
5.15498e-05
4.93269e-05
4.6954e-05
4.49078e-05
4.36555e-05
4.29521e-05
4.21561e-05
4.15576e-05
4.00825e-05
3.77517e-05
3.59955e-05
3.09981e-05
2.53414e-05
2.32115e-05
2.1723e-05
1.51445e-05
1.35754e-05
1.27535e-05
1.2416e-05
1.26781e-05
1.10123e-05
1.04071e-05
9.99945e-06
9.06734e-06
8.19947e-06
8.14411e-06
8.2015e-06
7.30138e-06
6.25656e-06
5.48769e-06
5.1438e-06
5.04406e-06
5.20455e-06
5.44404e-06
5.67262e-06
5.86702e-06
6.03678e-06
6.18792e-06
6.32169e-06
6.43667e-06
6.54164e-06
6.64775e-06
6.75408e-06
6.85946e-06
6.96268e-06
7.05998e-06
7.14475e-06
7.20741e-06
7.25614e-06
7.31017e-06
7.37435e-06
7.4485e-06
7.51893e-06
7.58011e-06
7.62167e-06
7.64691e-06
7.67591e-06
7.70571e-06
7.83933e-06
7.91889e-06
8.18438e-06
8.17958e-06
8.66284e-06
8.65506e-06
9.29034e-06
1.08057e-05
1.70072e-05
2.30104e-05
3.04559e-05
3.52915e-05
4.96807e-05
6.92771e-05
8.85939e-05
0.000104096
0.000127539
0.000130486
0.000188786
9.71586e-05
8.65403e-05
7.39542e-05
6.11844e-05
4.54548e-05
4.44845e-05
5.33558e-05
5.75035e-05
6.15908e-05
6.38011e-05
6.50726e-05
6.42086e-05
6.23952e-05
5.9269e-05
5.54646e-05
5.21382e-05
5.03086e-05
4.89769e-05
4.73186e-05
4.5478e-05
4.35443e-05
4.22074e-05
4.14136e-05
4.1044e-05
4.06998e-05
4.0645e-05
4.0559e-05
3.9544e-05
3.63278e-05
3.51492e-05
3.45794e-05
3.09582e-05
2.25056e-05
1.80147e-05
1.34004e-05
1.25194e-05
1.24653e-05
1.19448e-05
1.18514e-05
9.79323e-06
8.88441e-06
8.56907e-06
8.00757e-06
7.65577e-06
7.41365e-06
7.50892e-06
6.79541e-06
5.84236e-06
5.17736e-06
4.82252e-06
4.71711e-06
4.83694e-06
5.02311e-06
5.201e-06
5.34651e-06
5.47082e-06
5.57667e-06
5.66925e-06
5.75122e-06
5.83611e-06
5.91913e-06
5.99937e-06
6.08456e-06
6.17373e-06
6.2616e-06
6.34056e-06
6.39465e-06
6.42923e-06
6.47035e-06
6.53508e-06
6.6129e-06
6.68668e-06
6.74942e-06
6.79611e-06
6.82015e-06
6.8443e-06
6.85392e-06
6.97379e-06
7.03508e-06
7.26143e-06
7.23115e-06
7.5521e-06
7.51498e-06
7.87968e-06
8.83574e-06
1.32842e-05
1.95711e-05
2.52894e-05
2.98031e-05
4.34878e-05
6.03617e-05
7.66141e-05
0.000105601
0.000136833
0.000145082
0.000196091
0.000118762
9.58526e-05
7.20083e-05
5.85909e-05
3.9626e-05
3.65496e-05
4.48819e-05
4.93464e-05
5.3161e-05
5.53843e-05
5.65874e-05
5.69635e-05
5.56505e-05
5.36502e-05
5.15556e-05
4.93458e-05
4.71126e-05
4.4824e-05
4.26551e-05
4.11718e-05
3.98362e-05
3.90349e-05
3.82372e-05
3.72167e-05
3.62839e-05
3.58644e-05
3.64976e-05
3.62931e-05
3.43549e-05
3.22682e-05
3.24216e-05
3.20255e-05
2.932e-05
2.14336e-05
1.40404e-05
1.28119e-05
1.33376e-05
1.24395e-05
1.19377e-05
9.3203e-06
8.07409e-06
7.08074e-06
7.23831e-06
7.02673e-06
6.65241e-06
6.48112e-06
5.88525e-06
5.20302e-06
4.65973e-06
4.32716e-06
4.2266e-06
4.32014e-06
4.46694e-06
4.60387e-06
4.71659e-06
4.81486e-06
4.90299e-06
4.98556e-06
5.06524e-06
5.14833e-06
5.23541e-06
5.32238e-06
5.41346e-06
5.50884e-06
5.6037e-06
5.69023e-06
5.75512e-06
5.80006e-06
5.84544e-06
5.91137e-06
5.98325e-06
6.05375e-06
6.1125e-06
6.1598e-06
6.18191e-06
6.20826e-06
6.21937e-06
6.32139e-06
6.36863e-06
6.55539e-06
6.52529e-06
6.75934e-06
6.74217e-06
7.01293e-06
7.63022e-06
1.03362e-05
1.51779e-05
1.98109e-05
2.44132e-05
3.41141e-05
4.77381e-05
7.85212e-05
0.000109535
0.000136529
0.000146808
0.000189351
0.000131562
9.55529e-05
6.09792e-05
4.77057e-05
3.42062e-05
2.84887e-05
3.47856e-05
4.01493e-05
4.35561e-05
4.64599e-05
4.78042e-05
4.82408e-05
4.76621e-05
4.64593e-05
4.45474e-05
4.26723e-05
4.0675e-05
3.87495e-05
3.70614e-05
3.5782e-05
3.47166e-05
3.39176e-05
3.27948e-05
3.10495e-05
2.88335e-05
2.82926e-05
2.98767e-05
3.03155e-05
2.96667e-05
2.81204e-05
2.83867e-05
2.86476e-05
2.80224e-05
2.55688e-05
1.59174e-05
1.34639e-05
1.35853e-05
1.2986e-05
1.2247e-05
1.21177e-05
9.17989e-06
6.21001e-06
5.52533e-06
5.44437e-06
5.11082e-06
4.95261e-06
4.60269e-06
4.19246e-06
3.82025e-06
3.57996e-06
3.50136e-06
3.55409e-06
3.64436e-06
3.7291e-06
3.79913e-06
3.86161e-06
3.91932e-06
3.97584e-06
4.03315e-06
4.09373e-06
4.15885e-06
4.22507e-06
4.29372e-06
4.36619e-06
4.43895e-06
4.50678e-06
4.56064e-06
4.59962e-06
4.63654e-06
4.68985e-06
4.74891e-06
4.81135e-06
4.86221e-06
4.91196e-06
4.93377e-06
4.96534e-06
4.97807e-06
5.04869e-06
5.07083e-06
5.18989e-06
5.16715e-06
5.27396e-06
5.2996e-06
5.56147e-06
6.09679e-06
7.54618e-06
1.01422e-05
1.34708e-05
1.79216e-05
2.58909e-05
3.79909e-05
5.57495e-05
7.06958e-05
0.000109547
0.000131353
0.000174164
0.000118729
8.81345e-05
5.42916e-05
3.98734e-05
2.77891e-05
2.4685e-05
2.19417e-05
2.09568e-05
2.50891e-05
3.01297e-05
3.22207e-05
3.31185e-05
3.32936e-05
3.30897e-05
3.21602e-05
3.14237e-05
3.07022e-05
3.01601e-05
2.98055e-05
2.9478e-05
2.91452e-05
2.8688e-05
2.78528e-05
2.63066e-05
2.38642e-05
2.10631e-05
2.17836e-05
2.34147e-05
2.37133e-05
2.30173e-05
2.38499e-05
2.40081e-05
2.32544e-05
2.09074e-05
1.50347e-05
1.831e-05
1.6277e-05
1.245e-05
1.02841e-05
8.21065e-06
7.45197e-06
7.91657e-06
9.15315e-06
1.03303e-05
1.17682e-05
1.23995e-05
1.27436e-05
1.2729e-05
1.26835e-05
1.24235e-05
1.22406e-05
1.19609e-05
1.17031e-05
1.13992e-05
1.11468e-05
1.09651e-05
1.08833e-05
1.08757e-05
1.09162e-05
1.09986e-05
1.11121e-05
1.12435e-05
1.13865e-05
1.1536e-05
1.1677e-05
1.18068e-05
1.19055e-05
1.19641e-05
1.1994e-05
1.20269e-05
1.20505e-05
1.21193e-05
1.21846e-05
1.23092e-05
1.23436e-05
1.24394e-05
1.23786e-05
1.24703e-05
1.23953e-05
1.25863e-05
1.25535e-05
1.27236e-05
1.21913e-05
1.21342e-05
1.23518e-05
1.46205e-05
1.54477e-05
1.63968e-05
2.161e-05
2.91294e-05
3.69603e-05
5.39033e-05
5.85082e-05
7.08976e-05
8.34487e-05
0.000136437
0.000103952
9.17677e-05
7.65607e-05
6.87001e-05
6.58143e-05
6.61674e-05
6.7965e-05
7.04002e-05
7.24716e-05
7.41469e-05
7.49761e-05
7.48271e-05
7.44472e-05
7.34736e-05
7.2261e-05
7.08082e-05
6.87027e-05
6.62608e-05
6.30633e-05
5.92854e-05
5.536e-05
4.89525e-05
3.90984e-05
3.22166e-05
2.97672e-05
2.93834e-05
2.87857e-05
2.56831e-05
2.19608e-05
1.84851e-05
1.69133e-05
1.67631e-05
1.65928e-05
1.59442e-05
1.43746e-05
6.45809e-05
5.86602e-05
4.27055e-05
3.53282e-05
2.95549e-05
3.12385e-05
3.61542e-05
3.94895e-05
4.08896e-05
4.29068e-05
4.34367e-05
4.31083e-05
4.1356e-05
3.96341e-05
3.84959e-05
3.81195e-05
3.83518e-05
3.87677e-05
3.91245e-05
3.94479e-05
3.96567e-05
3.99736e-05
4.03005e-05
4.0599e-05
4.08726e-05
4.11315e-05
4.13887e-05
4.16436e-05
4.18872e-05
4.20788e-05
4.22186e-05
4.22975e-05
4.23185e-05
4.22961e-05
4.22575e-05
4.22009e-05
4.21666e-05
4.21644e-05
4.22551e-05
4.23332e-05
4.25061e-05
4.25681e-05
4.2703e-05
4.26704e-05
4.27734e-05
4.28141e-05
4.31924e-05
4.34114e-05
4.39486e-05
4.59482e-05
4.92168e-05
4.41946e-05
3.6933e-05
5.44859e-05
0.000100905
0.00013947
0.000209639
0.000222332
0.000206261
0.000188236
1.75213e-05
0.000106668
0.000127787
0.000130464
0.000136307
0.000148318
0.000157051
0.000160672
0.000162277
0.00016223
0.000159059
0.000152933
0.000146733
0.000140944
0.000135697
0.000129524
0.000119415
0.000109972
9.99049e-05
8.91307e-05
8.20982e-05
7.40104e-05
6.16112e-05
5.12084e-05
4.51918e-05
4.41237e-05
4.52913e-05
4.02266e-05
3.18594e-05
2.69581e-05
2.72146e-05
3.01008e-05
3.12218e-05
2.97852e-05
2.60264e-05
1.55504e-05
6.27326e-05
6.03756e-05
5.76692e-05
5.26888e-05
4.79547e-05
4.67706e-05
4.80809e-05
4.9549e-05
4.92257e-05
4.86264e-05
4.78835e-05
4.59697e-05
4.31799e-05
4.02922e-05
3.86415e-05
3.81741e-05
3.87155e-05
3.96603e-05
4.06614e-05
4.16525e-05
4.24428e-05
4.32323e-05
4.38636e-05
4.43117e-05
4.46166e-05
4.48262e-05
4.49891e-05
4.51283e-05
4.52514e-05
4.53443e-05
4.53917e-05
4.5389e-05
4.53277e-05
4.52242e-05
4.51079e-05
4.50016e-05
4.492e-05
4.48912e-05
4.49419e-05
4.50535e-05
4.51701e-05
4.52025e-05
4.51626e-05
4.51571e-05
4.53611e-05
4.66227e-05
4.85149e-05
5.00936e-05
5.15912e-05
5.40614e-05
5.44377e-05
5.73248e-05
5.59299e-05
7.20352e-05
0.000114996
0.000152983
0.000192769
0.000216309
0.000122782
8.81122e-05
1.50241e-05
0.000113996
0.000126963
0.000134822
0.0001654
0.000165032
0.000165373
0.000165895
0.000165363
0.000163123
0.000155829
0.000144357
0.000138297
0.000134895
0.00013411
0.000134571
0.000135036
0.000131597
0.000123247
0.000111065
0.000102442
9.28283e-05
7.63571e-05
6.80738e-05
6.0618e-05
5.86045e-05
5.38525e-05
4.40656e-05
3.80656e-05
3.84403e-05
4.00223e-05
3.96546e-05
3.62384e-05
3.27013e-05
3.05549e-05
1.74835e-05
6.90536e-05
6.58199e-05
6.466e-05
6.37579e-05
5.9627e-05
5.62646e-05
5.4887e-05
5.40722e-05
5.15214e-05
4.90523e-05
4.7523e-05
4.42573e-05
4.0471e-05
3.70704e-05
3.52731e-05
3.48166e-05
3.56259e-05
3.70246e-05
3.86505e-05
4.00301e-05
4.12067e-05
4.22945e-05
4.31411e-05
4.37194e-05
4.4069e-05
4.42581e-05
4.43733e-05
4.44567e-05
4.45284e-05
4.45842e-05
4.46086e-05
4.45758e-05
4.4481e-05
4.43487e-05
4.42105e-05
4.4112e-05
4.40456e-05
4.40127e-05
4.40147e-05
4.41343e-05
4.42677e-05
4.43817e-05
4.43769e-05
4.44631e-05
4.47262e-05
4.64692e-05
4.95574e-05
5.38047e-05
5.54524e-05
5.39417e-05
5.52589e-05
7.03147e-05
8.22395e-05
8.27139e-05
0.00011495
0.00017041
0.00019505
0.000179884
7.21344e-05
6.01142e-05
1.4563e-05
0.000113267
0.000123786
0.000137974
0.000157903
0.000150898
0.000151208
0.00015183
0.000151348
0.000145701
0.000134639
0.000124372
0.000123149
0.000124271
0.000129439
0.000136867
0.000138156
0.000137292
0.000133414
0.00012431
0.000117275
0.000102727
8.65149e-05
7.75023e-05
7.22902e-05
6.49987e-05
5.17069e-05
4.5124e-05
4.62493e-05
4.75042e-05
4.36293e-05
4.15574e-05
3.78981e-05
3.48128e-05
3.42891e-05
1.89215e-05
7.40002e-05
6.51159e-05
6.47642e-05
6.54591e-05
6.56021e-05
6.26951e-05
5.8214e-05
5.55153e-05
5.24263e-05
4.85554e-05
4.70073e-05
4.32892e-05
3.88077e-05
3.50312e-05
3.34591e-05
3.30848e-05
3.35746e-05
3.45315e-05
3.56201e-05
3.66542e-05
3.79028e-05
3.89052e-05
3.96175e-05
4.00918e-05
4.04029e-05
4.06077e-05
4.07318e-05
4.08206e-05
4.08973e-05
4.09598e-05
4.09879e-05
4.0948e-05
4.08484e-05
4.07096e-05
4.05673e-05
4.04778e-05
4.04164e-05
4.04258e-05
4.04763e-05
4.06557e-05
4.07826e-05
4.09169e-05
4.0839e-05
4.10135e-05
4.14937e-05
4.38816e-05
4.78974e-05
5.39507e-05
5.6936e-05
5.28517e-05
5.47356e-05
7.37707e-05
9.06487e-05
0.000101094
0.000142362
0.000193627
0.000186291
0.000136245
3.78903e-05
3.57857e-05
1.45666e-05
0.000105288
0.000124595
0.000149763
0.000155869
0.000149029
0.000145897
0.000142021
0.000140477
0.000139498
0.000130473
0.000121731
0.000119371
0.000123613
0.000125814
0.000128112
0.000130017
0.000131009
0.000129686
0.000123344
0.000116564
0.000101387
9.16224e-05
8.36437e-05
7.45577e-05
5.92155e-05
5.21185e-05
5.25106e-05
5.19295e-05
4.82826e-05
4.69044e-05
4.39245e-05
3.39582e-05
3.46341e-05
3.48425e-05
1.99259e-05
8.27487e-05
6.3318e-05
6.31234e-05
6.48953e-05
6.52571e-05
6.57957e-05
6.02505e-05
5.54071e-05
5.10966e-05
4.69328e-05
4.6053e-05
4.21898e-05
3.76715e-05
3.39572e-05
3.03946e-05
2.9073e-05
2.97378e-05
3.12679e-05
3.32055e-05
3.50772e-05
3.6491e-05
3.73883e-05
3.79601e-05
3.83433e-05
3.85907e-05
3.87496e-05
3.88603e-05
3.89518e-05
3.90439e-05
3.91204e-05
3.91724e-05
3.91666e-05
3.91062e-05
3.90003e-05
3.88976e-05
3.87826e-05
3.87175e-05
3.87019e-05
3.87422e-05
3.88416e-05
3.89626e-05
3.90108e-05
3.90571e-05
3.90968e-05
3.96456e-05
4.11734e-05
4.46345e-05
5.07802e-05
5.60138e-05
5.74564e-05
5.70751e-05
7.7071e-05
8.90244e-05
0.000111188
0.000167943
0.00018432
0.000165153
0.000155941
2.69374e-05
2.83367e-05
1.55482e-05
0.000108046
0.000132139
0.000156631
0.000162442
0.00015753
0.000150284
0.00014259
0.000135965
0.000133048
0.000128618
0.000121226
0.000116817
0.000115673
0.000115453
0.000116027
0.000118189
0.000119164
0.000118242
0.000114718
0.000109304
0.000102749
9.37567e-05
8.41039e-05
7.19322e-05
6.34501e-05
5.81282e-05
5.60486e-05
5.08495e-05
5.07863e-05
5.37595e-05
3.9569e-05
2.73017e-05
3.2329e-05
3.43886e-05
2.02718e-05
7.58703e-05
6.12163e-05
5.86949e-05
6.20105e-05
6.30324e-05
6.3469e-05
5.91884e-05
5.33377e-05
4.87802e-05
4.53736e-05
4.47264e-05
4.10252e-05
3.64952e-05
2.9889e-05
2.64607e-05
2.52624e-05
2.56608e-05
2.66586e-05
2.78785e-05
2.91385e-05
3.03862e-05
3.14799e-05
3.23433e-05
3.29499e-05
3.33246e-05
3.35299e-05
3.365e-05
3.37478e-05
3.38404e-05
3.39078e-05
3.39201e-05
3.38155e-05
3.36069e-05
3.33485e-05
3.30937e-05
3.29342e-05
3.28204e-05
3.27761e-05
3.27429e-05
3.28338e-05
3.28085e-05
3.28851e-05
3.27156e-05
3.30966e-05
3.37412e-05
3.6563e-05
4.1529e-05
4.73465e-05
5.3991e-05
5.87822e-05
6.4071e-05
7.84644e-05
8.62676e-05
0.000103422
0.000148727
0.00017438
0.000151792
0.000142871
2.51404e-05
2.84626e-05
1.77136e-05
0.000111197
0.000136275
0.000162399
0.000169978
0.000173342
0.000172422
0.00016471
0.00014741
0.000136124
0.000130454
0.000127817
0.000122949
0.000119243
0.000117513
0.000117146
0.00011913
0.000120615
0.000121275
0.000119647
0.000117065
0.000113182
0.000110004
0.000105138
9.66672e-05
9.09092e-05
8.51052e-05
8.04361e-05
8.394e-05
9.08358e-05
7.73954e-05
5.49975e-05
3.49565e-05
3.61918e-05
3.69202e-05
2.18652e-05
6.1561e-05
5.6936e-05
5.21937e-05
5.31981e-05
5.49676e-05
5.83164e-05
5.71858e-05
5.13758e-05
4.67648e-05
4.35729e-05
4.28904e-05
3.89135e-05
3.24441e-05
2.595e-05
2.13821e-05
1.97965e-05
2.05657e-05
2.21114e-05
2.36444e-05
2.50612e-05
2.62204e-05
2.70413e-05
2.76201e-05
2.80131e-05
2.82418e-05
2.83451e-05
2.83869e-05
2.83998e-05
2.8359e-05
2.82631e-05
2.81066e-05
2.78546e-05
2.75567e-05
2.72742e-05
2.69888e-05
2.67421e-05
2.65405e-05
2.6388e-05
2.62367e-05
2.6184e-05
2.60974e-05
2.61193e-05
2.61417e-05
2.64308e-05
2.72941e-05
2.86344e-05
3.24526e-05
3.57484e-05
4.10095e-05
4.93739e-05
6.42477e-05
7.65419e-05
8.46691e-05
9.82726e-05
0.000145728
0.000170657
0.000124684
8.77349e-05
3.7364e-05
4.03233e-05
2.17237e-05
0.000106387
0.000128857
0.000157903
0.000168619
0.000176988
0.000180599
0.000183567
0.000181214
0.000170249
0.000148426
0.000136106
0.000132263
0.000131187
0.000133642
0.000134585
0.000135022
0.000136757
0.00013956
0.000142605
0.000143972
0.000142128
0.00012784
0.000119976
0.000116535
0.000117649
0.000118469
0.000118009
0.000110267
9.68881e-05
8.38554e-05
7.03339e-05
6.73815e-05
6.90875e-05
7.36721e-05
5.83714e-05
4.64709e-05
5.56083e-05
4.67411e-05
4.32842e-05
4.37143e-05
4.55304e-05
4.65213e-05
4.43796e-05
4.21109e-05
3.99568e-05
3.90971e-05
3.44535e-05
2.80576e-05
2.08516e-05
1.70065e-05
1.57097e-05
1.58916e-05
1.66225e-05
1.74214e-05
1.80081e-05
1.86e-05
1.93358e-05
1.9897e-05
2.028e-05
2.0499e-05
2.05727e-05
2.05955e-05
2.06275e-05
2.06921e-05
2.0737e-05
2.06979e-05
2.05558e-05
2.03175e-05
2.00739e-05
1.98446e-05
1.97086e-05
1.96056e-05
1.95521e-05
1.94651e-05
1.94744e-05
1.93824e-05
1.94457e-05
1.94766e-05
1.9746e-05
2.06705e-05
2.15851e-05
2.50431e-05
2.79903e-05
3.12433e-05
4.04417e-05
5.80882e-05
6.73859e-05
9.00892e-05
0.000105092
0.0001357
0.000175147
0.000180575
0.000175513
7.5186e-05
7.65892e-05
2.67214e-05
8.54865e-05
0.000106648
0.000128514
0.000133159
0.000135564
0.000157309
0.000174807
0.000186558
0.000192918
0.000187561
0.000165923
0.000143019
0.000132325
0.000128504
0.000124582
0.000127272
0.000127678
0.000126485
0.000125247
0.000117081
0.000108108
0.000103966
0.000102779
0.000106178
0.00010696
0.000106441
0.000105777
9.82844e-05
8.67627e-05
7.49492e-05
6.11892e-05
4.80526e-05
4.13496e-05
3.3758e-05
2.37106e-05
4.24089e-05
5.7928e-05
4.44448e-05
3.75102e-05
3.25639e-05
3.19918e-05
3.30456e-05
3.4352e-05
3.45864e-05
3.41773e-05
3.44621e-05
3.0286e-05
2.40634e-05
1.82524e-05
1.48318e-05
1.39559e-05
1.40939e-05
1.46284e-05
1.51199e-05
1.58157e-05
1.66939e-05
1.70489e-05
1.73351e-05
1.75252e-05
1.75876e-05
1.75432e-05
1.74936e-05
1.74991e-05
1.75336e-05
1.75371e-05
1.74766e-05
1.73457e-05
1.71735e-05
1.70481e-05
1.69484e-05
1.68965e-05
1.687e-05
1.68391e-05
1.67764e-05
1.6736e-05
1.66725e-05
1.66832e-05
1.68659e-05
1.70016e-05
1.75581e-05
1.76052e-05
1.93073e-05
2.05459e-05
2.26216e-05
2.82547e-05
4.36611e-05