/*--------------------------------*- C++ -*----------------------------------*\
| =========                 |                                                 |
| \\      /  F ield         | OpenFOAM: The Open Source CFD Toolbox           |
|  \\    /   O peration     | Version:  2.3.0                                 |
|   \\  /    A nd           | Web:      www.OpenFOAM.org                      |
|    \\/     M anipulation  |                                                 |
\*---------------------------------------------------------------------------*/
FoamFile
{
    version     2.0;
    format      ascii;
    class       surfaceScalarField;
    location    "32";
    object      phi;
}
// * * * * * * * * * * * * * * * * * * * * * * * * * * * * * * * * * * * * * //

dimensions      [0 3 -1 0 0 0 0];

internalField   nonuniform List<scalar> 
16448
(
-9.96839e-07
-2.52523e-06
5.02717e-07
6.79933e-07
-2.50113e-06
8.24361e-07
7.83417e-07
-1.25256e-06
1.14907e-06
7.78695e-07
-1.15678e-06
1.16149e-06
4.43853e-07
-7.01214e-07
1.03605e-06
1.63312e-07
-6.31516e-07
9.12048e-07
-7.92127e-08
-4.58275e-07
7.00792e-07
-2.20465e-07
-4.08567e-07
5.49814e-07
-4.30443e-07
-2.82659e-07
4.92636e-07
-6.44305e-07
-2.1573e-07
4.29593e-07
-7.71958e-07
-2.29072e-07
3.56729e-07
-7.70237e-07
-2.92626e-07
2.9091e-07
-6.82388e-07
-3.56387e-07
2.68542e-07
-5.27223e-07
-4.10945e-07
2.55782e-07
-3.74755e-07
-4.37063e-07
2.84599e-07
-2.2884e-07
-4.59424e-07
3.13513e-07
-1.19632e-07
-4.6742e-07
3.58218e-07
-3.85158e-08
-4.78612e-07
3.97501e-07
1.1699e-08
-4.89077e-07
4.3887e-07
3.9217e-08
-4.96917e-07
4.69406e-07
4.84212e-08
-4.99868e-07
4.90671e-07
4.64969e-08
-4.99049e-07
5.0098e-07
3.80274e-08
-4.94754e-07
5.03232e-07
2.61333e-08
-4.87422e-07
4.99323e-07
1.33604e-08
-4.77768e-07
4.90549e-07
1.97508e-09
-4.66674e-07
4.78067e-07
-6.82152e-09
-4.54504e-07
4.63309e-07
-1.25757e-08
-4.41462e-07
4.47224e-07
-1.52504e-08
-4.27937e-07
4.3062e-07
-1.42765e-08
-4.16234e-07
4.15267e-07
-8.89428e-09
-4.06686e-07
4.01312e-07
-2.20543e-09
-3.96604e-07
3.89923e-07
3.30792e-09
-3.86679e-07
3.81174e-07
4.42356e-09
-3.75587e-07
3.7448e-07
4.13126e-09
-3.66162e-07
3.66463e-07
-7.53637e-10
-3.5463e-07
3.59522e-07
-1.41614e-09
-3.4688e-07
3.47551e-07
-5.16332e-09
-3.34057e-07
3.37812e-07
4.83569e-09
-3.30658e-07
3.20668e-07
5.61522e-09
-3.15478e-07
3.14707e-07
2.21607e-08
-3.17638e-07
3.01102e-07
1.1438e-08
-2.96029e-07
3.06761e-07
1.18303e-08
-2.9876e-07
2.98377e-07
-3.39652e-08
-2.66052e-07
3.11856e-07
-9.82507e-08
-2.36817e-07
3.01113e-07
-2.08922e-07
-1.97513e-07
3.08194e-07
-4.48424e-07
-6.2052e-08
3.01563e-07
-7.78831e-07
1.02755e-08
3.20142e-07
-1.25219e-06
2.2216e-07
2.51207e-07
-1.60817e-06
4.42076e-08
3.11782e-07
-1.01774e-06
-1.23997e-06
6.49555e-07
-2.93141e-07
-2.11799e-06
1.3934e-06
-1.37265e-06
-1.41168e-06
2.4912e-06
-2.87374e-06
-1.09121e-06
2.59231e-06
-3.4569e-06
-1.91793e-06
2.50111e-06
-4.3562e-06
-3.00869e-06
3.90801e-06
-1.56123e-06
-3.46858e-06
6.73623e-07
3.7104e-06
-2.51084e-06
-2.76079e-06
-3.16213e-06
4.09313e-07
6.46324e-06
-3.79501e-07
-7.61993e-06
4.83737e-06
1.32764e-05
-1.20925e-05
-1.56333e-06
1.64508e-05
-5.50827e-06
2.33387e-06
1.40941e-05
-2.5087e-06
4.86543e-06
1.57277e-05
-4.56808e-06
2.93444e-06
1.61757e-05
-3.42827e-06
2.98029e-06
1.84345e-05
-5.05819e-06
2.79939e-06
2.23589e-05
-6.04075e-06
2.11628e-06
2.75601e-05
-6.5767e-06
1.37551e-06
3.33005e-05
-6.48827e-06
7.47875e-07
3.86897e-05
-5.79853e-06
4.09339e-07
4.32378e-05
-4.83737e-06
2.89304e-07
4.63938e-05
-3.47715e-06
3.21114e-07
4.8426e-05
-2.53394e-06
5.01751e-07
4.93745e-05
-1.54917e-06
6.00666e-07
4.91621e-05
-4.9253e-07
7.04952e-07
4.80141e-05
4.89022e-07
6.58902e-07
4.53842e-05
1.87741e-06
7.52541e-07
4.19798e-05
2.75353e-06
6.50827e-07
3.71513e-05
4.00464e-06
8.23881e-07
3.11957e-05
4.73594e-06
1.21967e-06
2.46457e-05
5.16315e-06
1.38688e-06
1.53172e-05
5.92076e-06
3.4077e-06
6.1161e-06
4.76762e-06
4.43349e-06
1.1587e-06
2.15044e-06
2.80695e-06
3.35147e-08
3.67809e-07
7.57374e-07
1.40313e-06
-5.52237e-07
-8.1738e-07
4.06407e-06
-8.13967e-07
-1.84698e-06
6.98055e-06
-3.68447e-07
-2.54803e-06
9.18704e-06
4.69806e-07
-2.6763e-06
1.01841e-05
1.09228e-06
-2.08935e-06
9.99016e-06
1.38826e-06
-1.19431e-06
9.06018e-06
1.16692e-06
-2.3695e-07
7.61951e-06
8.73517e-07
5.67151e-07
5.66376e-06
8.68735e-07
1.08701e-06
3.34894e-06
1.23076e-06
1.08406e-06
1.57513e-06
1.77381e-06
-1.92702e-06
-3.71736e-06
-8.48768e-08
-7.78094e-07
-3.82932e-06
1.79255e-07
-4.57165e-07
-2.36948e-06
7.95979e-07
-8.42408e-08
-2.10843e-06
5.78712e-07
2.75504e-08
-1.22018e-06
4.0716e-07
4.09063e-08
-8.73487e-07
2.28598e-07
-6.09127e-08
-4.01567e-07
4.5097e-08
-2.89915e-07
-2.31199e-07
5.16259e-08
-6.40306e-07
-3.93309e-08
1.07061e-07
-9.09531e-07
-3.13244e-08
8.48192e-08
-1.03134e-06
-1.27485e-07
2.02219e-08
-1.00396e-06
-2.61624e-07
-5.83748e-08
-8.96212e-07
-3.70125e-07
-9.40091e-08
-7.27226e-07
-4.63879e-07
-1.16049e-07
-5.53989e-07
-5.09954e-07
-1.00342e-07
-3.85059e-07
-5.46305e-07
-8.20422e-08
-2.48906e-07
-5.53459e-07
-5.01056e-08
-1.41895e-07
-5.6379e-07
-2.18228e-08
-7.08266e-08
-5.67312e-07
7.17616e-09
-2.55867e-08
-5.66956e-07
2.48095e-08
-2.13719e-09
-5.60985e-07
3.76787e-08
6.36844e-09
-5.51138e-07
4.3594e-08
5.38064e-09
-5.38339e-07
4.45838e-08
-1.51803e-09
-5.22721e-07
4.22099e-08
-1.09561e-08
-5.05299e-07
3.69804e-08
-2.02177e-08
-4.86537e-07
2.91365e-08
-2.79585e-08
-4.66843e-07
2.00916e-08
-3.37231e-08
-4.46378e-07
1.06923e-08
-3.75239e-08
-4.25748e-07
1.62377e-09
-3.71759e-08
-4.06057e-07
-1.05127e-08
-3.26134e-08
-3.89356e-07
-2.18809e-08
-2.69042e-08
-3.71384e-07
-3.09171e-08
-2.18403e-08
-3.53296e-07
-3.84343e-08
-2.02619e-08
-3.32168e-07
-4.49857e-08
-1.97092e-08
-3.14768e-07
-5.19345e-08
-2.29127e-08
-2.9349e-07
-5.79236e-08
-2.17107e-08
-2.809e-07
-6.71698e-08
-2.37107e-08
-2.58754e-07
-7.32893e-08
-1.51193e-08
-2.55238e-07
-8.39989e-08
-1.96328e-08
-2.26765e-07
-8.41865e-08
-1.2543e-08
-2.3062e-07
-9.40952e-08
-3.52453e-08
-1.86944e-07
-8.63692e-08
-4.20054e-08
-1.93218e-07
-9.87678e-08
-8.08676e-08
-1.35925e-07
-9.1251e-08
-9.87883e-08
-1.10243e-07
-1.0864e-07
-1.53531e-07
-4.00418e-08
-1.02714e-07
-2.41197e-07
1.16709e-07
-9.10806e-08
-4.52614e-07
2.9343e-07
-7.17231e-08
-5.8605e-07
5.61879e-07
-2.06268e-07
-2.94846e-07
2.0371e-07
-4.50692e-07
3.2166e-07
-1.91473e-06
5.82691e-08
-8.13343e-08
-2.80178e-06
1.08679e-06
-2.41321e-06
-1.23602e-06
2.15623e-06
-3.88798e-06
-1.10992e-06
1.4935e-06
-2.38077e-06
-3.69876e-06
2.73638e-07
-1.56254e-06
-5.67369e-06
1.84678e-06
-8.88478e-07
-1.79097e-06
-2.35165e-06
-3.6127e-06
1.75792e-06
-1.54453e-06
-6.45027e-06
-4.42536e-06
7.6723e-06
5.43735e-07
-1.60466e-05
1.43274e-06
9.69018e-06
-1.68342e-05
-4.40476e-06
9.91766e-06
-8.92869e-06
3.19295e-06
6.98873e-06
-5.89993e-06
6.32015e-06
6.92714e-06
-6.70401e-06
2.19751e-06
8.47354e-06
-6.83083e-06
1.85614e-06
1.21958e-05
-9.4702e-06
6.89695e-07
1.74462e-05
-1.07471e-05
-5.43947e-07
2.37528e-05
-1.13063e-05
-1.57703e-06
3.05e-05
-1.11908e-05
-2.04467e-06
3.66509e-05
-1.00519e-05
-1.89757e-06
4.14664e-05
-8.1272e-06
-1.52559e-06
4.48343e-05
-5.94212e-06
-9.02996e-07
4.68117e-05
-4.11666e-06
-3.94623e-07
4.77861e-05
-2.35764e-06
-1.65952e-07
4.77956e-05
-5.39643e-07
3.75929e-08
4.66834e-05
1.68201e-06
-8.07857e-08
4.42184e-05
4.35905e-06
-1.66389e-08
4.08589e-05
6.34707e-06
-2.33982e-07
3.67252e-05
8.1669e-06
-2.85966e-08
3.12332e-05
9.86752e-06
3.60423e-07
2.51031e-05
1.07351e-05
5.58081e-07
1.69704e-05
1.14274e-05
2.62596e-06
8.51614e-06
9.55271e-06
3.66921e-06
3.47364e-06
4.99115e-06
2.20179e-06
2.29377e-06
1.56625e-06
-1.85737e-08
3.68823e-06
-7.67124e-08
-1.86998e-06
6.39287e-06
-5.85858e-08
-3.46003e-06
9.14622e-06
1.0408e-06
-4.1626e-06
1.10415e-05
2.52781e-06
-3.95331e-06
1.17567e-05
3.26392e-06
-2.88684e-06
1.12105e-05
3.26286e-06
-1.32837e-06
1.01738e-05
2.24183e-06
-3.82322e-08
8.59092e-06
1.64233e-06
8.14064e-07
6.59034e-06
1.64243e-06
1.22688e-06
4.12514e-06
2.54474e-06
1.15121e-06
4.02279e-06
1.67748e-06
-2.60014e-06
-4.13587e-06
-3.80789e-07
-1.73691e-06
-4.36247e-06
-3.3008e-07
-1.47735e-06
-2.88474e-06
2.55689e-07
-9.56134e-07
-2.61645e-06
-1.32071e-08
-5.83271e-07
-1.52815e-06
-6.49117e-08
-2.6596e-07
-1.05573e-06
-1.35086e-07
-1.52512e-07
-2.85731e-07
-2.29298e-07
-2.95142e-07
2.95669e-08
-1.18146e-07
-6.39603e-07
3.47818e-07
-4.26893e-08
-8.99539e-07
2.79688e-07
-5.10743e-08
-1.00385e-06
1.00346e-07
-1.23516e-07
-9.96021e-07
-6.4328e-08
-2.05118e-07
-9.20855e-07
-1.84859e-07
-2.60427e-07
-7.97743e-07
-2.92221e-07
-2.94764e-07
-6.58006e-07
-3.43425e-07
-3.06258e-07
-5.16322e-07
-3.82778e-07
-3.05204e-07
-3.92862e-07
-3.83676e-07
-2.93233e-07
-2.86463e-07
-3.88151e-07
-2.82028e-07
-2.04092e-07
-3.80807e-07
-2.68865e-07
-1.43112e-07
-3.69262e-07
-2.58663e-07
-1.00863e-07
-3.52914e-07
-2.50308e-07
-7.34566e-08
-3.3374e-07
-2.44793e-07
-5.82894e-08
-3.11717e-07
-2.41777e-07
-5.19211e-08
-2.8779e-07
-2.41288e-07
-5.11084e-08
-2.63538e-07
-2.42561e-07
-5.32403e-08
-2.39381e-07
-2.45013e-07
-5.64248e-08
-2.15374e-07
-2.48273e-07
-5.9209e-08
-1.91662e-07
-2.51921e-07
-6.03644e-08
-1.68877e-07
-2.55704e-07
-6.01774e-08
-1.46675e-07
-2.59558e-07
-5.93124e-08
-1.26515e-07
-2.63694e-07
-5.88684e-08
-1.04584e-07
-2.67233e-07
-5.79518e-08
-8.3032e-08
-2.71169e-07
-5.77328e-08
-5.79099e-08
-2.74465e-07
-5.66411e-08
-3.77611e-08
-2.78086e-07
-5.60685e-08
-1.33656e-08
-2.80685e-07
-5.42397e-08
5.32339e-10
-2.83249e-07
-5.91221e-08
2.83257e-08
-2.82185e-07
-6.59085e-08
3.46991e-08
-2.83138e-07
-8.41784e-08
6.95264e-08
-2.78009e-07
-1.02715e-07
6.84071e-08
-2.80476e-07
-1.25798e-07
1.1497e-07
-2.78818e-07
-1.2709e-07
1.01557e-07
-2.93469e-07
-1.24257e-07
1.55086e-07
-2.93831e-07
-6.24658e-08
1.40273e-07
-3.12292e-07
-5.35225e-08
2.396e-07
-2.88571e-07
-7.97473e-09
3.445e-07
-2.73324e-07
-1.57275e-07
6.79241e-07
-2.36495e-07
1.8725e-08
7.54396e-07
-3.68503e-07
8.21406e-07
9.34989e-09
-6.08307e-07
8.91765e-07
-2.07853e-06
9.3456e-08
-1.16669e-07
-2.60656e-06
8.13225e-07
-2.20471e-06
-7.2219e-07
1.57423e-06
-3.70525e-06
-3.02657e-07
6.93305e-07
-1.9256e-06
-4.40461e-06
-1.07378e-06
-1.6206e-06
-6.80942e-06
8.30742e-07
4.50604e-06
-4.80235e-06
-3.11525e-06
9.13835e-06
3.37512e-06
-6.2495e-06
-3.8728e-06
-4.13934e-06
1.27252e-05
6.28302e-07
-1.86239e-05
-1.92356e-06
7.55058e-06
-2.01479e-05
-3.60865e-06
4.33099e-06
-8.61565e-06
2.90655e-06
1.47044e-06
-7.72882e-06
4.68943e-06
-1.57973e-06
-5.73787e-06
2.08403e-06
2.79862e-06
-1.16779e-05
4.68732e-07
5.72042e-06
-1.11138e-05
-1.27819e-06
1.09389e-05
-1.40412e-05
-1.92441e-06
1.76331e-05
-1.58018e-05
-2.19875e-06
2.4395e-05
-1.63357e-05
-1.61697e-06
3.01921e-05
-1.51932e-05
-6.55761e-07
3.42152e-05
-1.26524e-05
5.02061e-07
3.64432e-05
-9.66279e-06
1.49273e-06
3.74734e-05
-7.00906e-06
1.86212e-06
3.77369e-05
-4.40531e-06
1.78426e-06
3.73613e-05
-1.62846e-06
1.46438e-06
3.70438e-05
1.34914e-06
6.50365e-07
3.61865e-05
5.12683e-06
8.95075e-08
3.4322e-05
8.78069e-06
-5.69091e-07
3.11791e-05
1.17557e-05
-4.45819e-07
2.71107e-05
1.41245e-05
-1.88624e-07
2.21988e-05
1.56494e-05
-2.46623e-09
1.49759e-05
1.65628e-05
2.08757e-06
7.68765e-06
1.35962e-05
3.24472e-06
3.95982e-06
7.01714e-06
1.70183e-06
3.64145e-06
2.83324e-06
-9.48626e-07
5.53572e-06
1.55968e-06
-3.53067e-06
8.30755e-06
2.43818e-06
-5.26859e-06
1.04664e-05
4.25958e-06
-5.37761e-06
1.16898e-05
5.58161e-06
-4.27726e-06
1.19999e-05
5.48714e-06
-2.53334e-06
1.12691e-05
4.59923e-06
-6.05526e-07
1.03121e-05
2.60519e-06
5.93594e-07
8.85375e-06
2.1471e-06
9.53627e-07
6.90532e-06
2.49497e-06
1.09589e-06
4.34755e-06
3.90465e-06
1.19786e-06
6.766e-06
1.60434e-06
-3.04145e-06
-4.28787e-06
-1.99663e-07
-2.16012e-06
-4.69448e-06
-5.49333e-07
-2.02677e-06
-3.14237e-06
1.24266e-07
-1.50342e-06
-2.99908e-06
-1.40738e-07
-1.10342e-06
-1.84093e-06
-8.72462e-08
-5.80405e-07
-1.43826e-06
-1.40501e-07
-1.90149e-07
-4.43108e-07
-2.32894e-07
-1.07342e-07
7.15743e-08
-1.2482e-07
-3.46497e-07
6.37127e-07
-5.01555e-08
-6.38515e-07
6.21374e-07
-4.96629e-08
-7.94081e-07
3.90235e-07
-1.34319e-07
-8.79127e-07
2.32973e-07
-2.12246e-07
-8.80441e-07
9.49876e-08
-2.78526e-07
-8.1103e-07
-3.17766e-08
-3.29846e-07
-6.97439e-07
-9.70142e-08
-3.59993e-07
-5.72795e-07
-1.3055e-07
-3.76861e-07
-4.65304e-07
-1.08557e-07
-3.826e-07
-3.71556e-07
-9.42029e-08
-3.87683e-07
-2.88742e-07
-7.35772e-08
-3.90033e-07
-2.18146e-07
-5.17129e-08
-3.88132e-07
-1.61985e-07
-2.56379e-08
-3.83426e-07
-1.20729e-07
2.49957e-09
-3.77482e-07
-9.13086e-08
2.98971e-08
-3.71023e-07
-7.27189e-08
5.92871e-08
-3.65654e-07
-6.23865e-08
8.83296e-08
-3.62188e-07
-5.7706e-08
1.16182e-07
-3.60231e-07
-5.66674e-08
1.42886e-07
-3.59287e-07
-5.77994e-08
1.6829e-07
-3.58807e-07
-5.99199e-08
1.91718e-07
-3.58463e-07
-6.21594e-08
2.1367e-07
-3.58093e-07
-6.47644e-08
2.34151e-07
-3.5805e-07
-6.81183e-08
2.57056e-07
-3.58273e-07
-7.13818e-08
2.80064e-07
-3.59821e-07
-7.48246e-08
3.06584e-07
-3.61039e-07
-7.75403e-08
3.27453e-07
-3.62486e-07
-8.18949e-08
3.53465e-07
-3.62463e-07
-8.93032e-08
3.69072e-07
-3.61119e-07
-1.01381e-07
3.96092e-07
-3.55676e-07
-1.17558e-07
4.04087e-07
-3.53198e-07
-1.36969e-07
4.37333e-07
-3.48381e-07
-1.5162e-07
4.3661e-07
-3.53539e-07
-1.56728e-07
4.73583e-07
-3.53491e-07
-1.34682e-07
4.50136e-07
-3.70611e-07
-1.09728e-07
4.91418e-07
-3.61271e-07
-4.14078e-08
4.47986e-07
-3.76019e-07
-1.26933e-08
5.50558e-07
-3.39657e-07
3.4418e-08
6.4604e-07
-3.48637e-07
2.03902e-07
8.81281e-07
-3.71509e-07
7.03131e-07
7.60873e-07
-5.05691e-07
1.27503e-06
-1.32496e-07
-4.3004e-07
1.99502e-07
-1.43793e-06
4.34944e-07
-5.59606e-07
-2.39067e-06
5.43239e-07
-2.36505e-07
-1.34107e-06
2.95802e-07
7.09894e-08
-1.82529e-08
-5.9188e-07
2.47452e-06
-4.9733e-06
-1.83482e-06
3.92864e-06
-8.27528e-06
1.17635e-08
8.33647e-06
-5.65535e-06
-3.55482e-06
1.13747e-05
7.17307e-06
-6.83618e-06
-4.01184e-07
-7.15352e-06
1.479e-05
1.06104e-06
-1.79591e-05
-2.12712e-06
3.20399e-06
-2.08287e-05
-1.46221e-06
-5.6414e-06
-4.52265e-06
4.75239e-06
-8.57321e-06
-8.42124e-06
3.62424e-06
-1.1177e-05
-5.59749e-06
2.46341e-06
-9.35158e-06
-1.3409e-05
-9.44006e-08
-5.23675e-06
-1.41979e-05
-1.0308e-06
-6.00752e-08
-1.83669e-05
-8.50979e-07
5.58674e-06
-2.06164e-05
-8.32154e-07
1.15535e-05
-2.20791e-05
-2.23343e-07
1.6306e-05
-2.08573e-05
9.11442e-07
1.87344e-05
-1.71614e-05
2.08068e-06
1.91315e-05
-1.28286e-05
2.76874e-06
1.85507e-05
-9.13413e-06
2.70581e-06
1.81408e-05
-6.04762e-06
2.05222e-06
1.82902e-05
-2.79722e-06
1.01937e-06
1.86675e-05
1.02528e-06
-5.34004e-08
1.90139e-05
5.61574e-06
-8.35311e-07
1.89141e-05
1.00554e-05
-1.17495e-06
1.75903e-05
1.38484e-05
-7.68948e-07
1.57104e-05
1.66301e-05
-6.25653e-07
1.24959e-05
1.91958e-05
-3.31895e-07
7.4755e-06
1.98269e-05
1.75633e-06
3.93526e-06
1.48333e-05
2.30319e-06
2.95812e-06
7.78611e-06
2.08174e-07
3.9286e-06
4.43152e-06
-2.56877e-06
6.29358e-06
4.75655e-06
-5.56184e-06
8.74996e-06
6.57084e-06
-6.58905e-06
1.03787e-05
7.9199e-06
-5.28905e-06
1.12027e-05
7.93704e-06
-3.17942e-06
1.12355e-05
6.56822e-06
-1.11394e-06
1.0273e-05
4.70004e-06
8.61686e-07
9.49469e-06
2.46292e-06
9.20607e-07
8.58608e-06
2.47201e-06
5.83691e-07
7.15401e-06
3.30744e-06
6.19591e-07
4.79671e-06
5.42749e-06
8.34459e-07
1.00746e-05
1.48808e-06
-3.27209e-06
-4.22506e-06
-1.04065e-07
-2.34799e-06
-4.95327e-06
-6.65304e-07
-2.32907e-06
-3.28996e-06
1.28648e-07
-1.77655e-06
-3.38132e-06
-1.70312e-07
-1.43097e-06
-2.19895e-06
1.2416e-08
-8.94364e-07
-1.90019e-06
-7.47003e-08
-4.55768e-07
-7.81739e-07
-9.99736e-08
-1.2032e-07
-1.75367e-07
-8.85119e-08
-7.27329e-08
6.5938e-07
-6.9835e-08
-3.33875e-07
9.12016e-07
-2.94955e-08
-5.40123e-07
6.91607e-07
-9.5114e-08
-7.15884e-07
5.44901e-07
-1.36161e-07
-8.02327e-07
3.70144e-07
-1.88702e-07
-7.87682e-07
2.01857e-07
-2.4827e-07
-6.96496e-07
1.02087e-07
-2.90274e-07
-5.75687e-07
7.12032e-08
-3.22552e-07
-4.76585e-07
1.33258e-07
-3.40903e-07
-3.93856e-07
1.8248e-07
-3.59401e-07
-3.19366e-07
2.27867e-07
-3.7592e-07
-2.51254e-07
2.66949e-07
-3.86762e-07
-1.91742e-07
3.05726e-07
-3.90861e-07
-1.40557e-07
3.42105e-07
-3.90779e-07
-1.01224e-07
3.78544e-07
-3.87965e-07
-7.31378e-08
4.14065e-07
-3.82852e-07
-5.48545e-08
4.46952e-07
-3.76892e-07
-4.39798e-08
4.76394e-07
-3.71075e-07
-3.91874e-08
5.03281e-07
-3.65174e-07
-3.86322e-08
5.27057e-07
-3.59311e-07
-4.03965e-08
5.47169e-07
-3.53673e-07
-4.36776e-08
5.65012e-07
-3.48049e-07
-4.8748e-08
5.82082e-07
-3.42847e-07
-5.49474e-08
6.01529e-07
-3.38262e-07
-6.08637e-08
6.20442e-07
-3.34449e-07
-6.74944e-08
6.44017e-07
-3.3079e-07
-7.48115e-08
6.6204e-07
-3.27256e-07
-8.581e-08
6.87257e-07
-3.22782e-07
-1.00773e-07
7.01984e-07
-3.17936e-07
-1.20498e-07
7.28678e-07
-3.12848e-07
-1.42608e-07
7.35358e-07
-3.09147e-07
-1.62391e-07
7.63624e-07
-3.06494e-07
-1.7763e-07
7.61882e-07
-3.10017e-07
-1.82622e-07
7.87535e-07
-3.08946e-07
-1.81167e-07
7.65847e-07
-3.17149e-07
-1.72817e-07
7.89141e-07
-3.06058e-07
-1.72317e-07
7.61081e-07
-3.13579e-07
-1.17884e-07
8.14714e-07
-3.18573e-07
2.48956e-08
8.96093e-07
-3.92816e-07
5.56193e-07
8.67318e-07
-5.17318e-07
1.11787e-06
7.74904e-07
-5.75693e-07
6.56088e-07
3.09561e-07
1.97404e-08
-1.47269e-06
-1.185e-07
8.09366e-07
-2.41324e-06
-1.97568e-06
5.2558e-07
-9.33023e-07
-2.27204e-06
-5.49223e-07
3.81522e-06
-2.55186e-06
-2.21462e-06
7.25071e-06
-5.17911e-06
-3.22967e-06
7.66627e-06
-6.54252e-06
-2.1483e-06
9.91655e-06
-1.56866e-06
-6.33697e-06
1.89191e-05
6.26511e-06
-8.09462e-06
3.00366e-06
-8.23853e-06
1.70005e-05
-1.96201e-06
-1.178e-05
-1.21348e-06
-1.1416e-05
-1.34361e-05
2.06149e-06
-1.83907e-05
-2.07901e-06
4.53137e-06
-2.23739e-05
-7.43965e-06
3.0018e-06
-2.21683e-05
-7.60833e-06
1.80539e-06
-2.16555e-05
-1.4114e-05
1.92319e-07
-1.86915e-05
-1.65931e-05
-5.68639e-07
-1.50245e-05
-2.10972e-05
-9.36712e-07
-1.00805e-05
-2.42254e-05
-1.335e-06
-4.8559e-06
-2.63475e-05
-9.56214e-07
-1.74691e-07
-2.55484e-05
9.98741e-09
3.38244e-06
-2.18262e-05
1.10764e-06
5.21787e-06
-1.62504e-05
1.58638e-06
5.911e-06
-1.11232e-05
1.29592e-06
6.18151e-06
-6.87304e-06
5.54909e-07
6.48038e-06
-2.73268e-06
-3.63409e-07
6.91016e-06
1.70914e-06
-1.11364e-06
7.40846e-06
6.6937e-06
-1.57626e-06
7.42687e-06
1.18204e-05
-1.78339e-06
6.41301e-06
1.65734e-05
-1.71105e-06
4.27061e-06
2.01326e-05
-1.3601e-06
8.69392e-07
2.22678e-05
3.29266e-07
-9.47675e-07
1.95424e-05
2.10156e-06
-1.26363e-07
1.29527e-05
1.05929e-06
1.06619e-06
8.58892e-06
-1.99536e-06
2.91811e-06
8.48294e-06
-5.90335e-06
5.60842e-06
9.83088e-06
-7.76464e-06
7.92684e-06
1.06034e-05
-6.35095e-06
9.13018e-06
1.03853e-05
-3.66879e-06
9.61132e-06
8.72052e-06
-1.26462e-06
8.83999e-06
6.51751e-06
8.22026e-07
7.66108e-06
4.33127e-06
1.54768e-06
8.00353e-06
2.50842e-06
-3.87955e-07
8.10268e-06
3.2283e-06
-8.55453e-07
6.73251e-06
4.7995e-06
-1.21884e-07
4.42698e-06
7.00934e-06
7.23663e-07
1.29854e-05
1.51619e-06
-3.46174e-06
-3.87278e-06
-1.06593e-07
-2.44268e-06
-5.06585e-06
-9.06494e-07
-2.56693e-06
-3.29933e-06
1.33593e-07
-2.00386e-06
-3.76173e-06
-1.82682e-07
-1.6816e-06
-2.59888e-06
7.76358e-08
-1.10197e-06
-2.3611e-06
-1.1873e-07
-6.81503e-07
-1.16752e-06
-3.4691e-08
-2.79456e-07
-5.24246e-07
-5.31626e-08
2.7107e-08
4.23349e-07
-7.05293e-08
-3.8528e-08
9.72897e-07
4.76461e-09
-1.81713e-07
9.02496e-07
-6.76985e-08
-4.52009e-07
8.95244e-07
-8.0034e-08
-6.40825e-07
6.88385e-07
-1.29416e-07
-6.75438e-07
4.32488e-07
-1.96004e-07
-6.12731e-07
2.98262e-07
-2.58872e-07
-5.0669e-07
2.69495e-07
-3.04318e-07
-4.22883e-07
3.72951e-07
-3.23488e-07
-3.62486e-07
4.64637e-07
-3.42539e-07
-3.12768e-07
5.38616e-07
-3.60457e-07
-2.66831e-07
5.94236e-07
-3.73209e-07
-2.23642e-07
6.41815e-07
-3.79267e-07
-1.83004e-07
6.81377e-07
-3.79896e-07
-1.46542e-07
7.17884e-07
-3.75791e-07
-1.17241e-07
7.52939e-07
-3.68161e-07
-9.57369e-08
7.84062e-07
-3.58602e-07
-8.27348e-08
8.11638e-07
-3.48232e-07
-7.67238e-08
8.34439e-07
-3.37158e-07
-7.64158e-08
8.53052e-07
-3.26289e-07
-7.97051e-08
8.66499e-07
-3.16029e-07
-8.41533e-08
8.75875e-07
-3.06402e-07
-8.85793e-08
8.84499e-07
-2.97979e-07
-9.33652e-08
8.9696e-07
-2.90633e-07
-9.93372e-08
9.10777e-07
-2.84351e-07
-1.07985e-07
9.30815e-07
-2.78137e-07
-1.20889e-07
9.47154e-07
-2.722e-07
-1.39743e-07
9.72107e-07
-2.65982e-07
-1.6354e-07
9.86352e-07
-2.6056e-07
-1.88174e-07
1.01038e-06
-2.57057e-07
-2.11399e-07
1.01471e-06
-2.56119e-07
-2.25929e-07
1.03483e-06
-2.56665e-07
-2.41013e-07
1.03607e-06
-2.59094e-07
-2.47545e-07
1.05266e-06
-2.58582e-07
-2.84977e-07
1.06141e-06
-2.58117e-07
-3.12127e-07
1.07236e-06
-2.56054e-07
-4.11338e-07
1.11748e-06
-2.57178e-07
-3.79271e-07
1.09406e-06
-3.11395e-07
-2.84099e-07
1.20184e-06
-4.009e-07
1.87531e-07
9.76626e-07
-5.80921e-07
4.9766e-07
1.10178e-06
-6.36989e-07
-9.47113e-08
9.72722e-07
-7.07734e-08
-1.82701e-06
9.94339e-07
6.19478e-07
-2.43043e-06
-1.59038e-06
2.18146e-07
4.40279e-09
-3.50544e-06
-1.20141e-06
5.73223e-06
-5.93419e-06
-2.34548e-06
7.38365e-06
-3.59989e-06
-3.23061e-06
6.56423e-06
-1.59206e-06
-4.13103e-06
9.20102e-06
2.40318e-06
-6.60861e-06
2.16543e-05
4.63218e-06
-1.08203e-05
4.97953e-06
-7.54002e-06
1.59763e-05
-3.81318e-06
-3.71929e-06
7.32613e-07
-1.93984e-05
-2.37452e-06
4.52416e-06
-2.50576e-05
-8.07668e-07
4.38894e-06
-3.15949e-05
-4.50428e-06
3.60309e-06
-3.31845e-05
-7.9593e-06
1.94182e-06
-3.37991e-05
-1.40026e-05
5.04475e-07
-3.25136e-05
-1.76899e-05
-1.87708e-07
-3.01376e-05
-2.26078e-05
-8.64775e-07
-2.64456e-05
-2.6629e-05
-1.2879e-06
-2.18376e-05
-2.98323e-05
-1.12299e-06
-1.68805e-05
-3.00414e-05
-4.64049e-07
-1.27494e-05
-2.65029e-05
5.45753e-07
-9.60517e-06
-2.08128e-05
1.41811e-06
-7.98406e-06
-1.41635e-05
1.41922e-06
-7.6498e-06
-8.15913e-06
9.5183e-07
-7.98714e-06
-2.71667e-06
3.21336e-07
-8.78141e-06
2.64835e-06
-1.44934e-07
-9.54552e-06
7.74993e-06
-2.92127e-07
-1.02084e-05
1.2608e-05
-1.24823e-07
-1.0713e-05
1.67067e-05
3.71297e-07
-1.06277e-05
1.90036e-05
1.04369e-06
-9.08644e-06
1.91844e-05
1.54204e-06
-6.21872e-06
1.66479e-05
2.68406e-08
-3.94007e-06
1.40009e-05
-3.32686e-06
-1.64745e-06
1.32691e-05
-6.9728e-06
1.37868e-06
1.35276e-05
-8.07081e-06
4.38721e-06
1.30521e-05
-6.22978e-06
6.51958e-06
1.18496e-05
-3.37864e-06
7.5958e-06
1.02206e-05
-9.11517e-07
6.983e-06
8.3257e-06
1.00762e-06
5.34619e-06
6.43485e-06
1.71946e-06
4.66844e-06
5.09861e-06
-8.95897e-08
5.68489e-06
4.19676e-06
-2.70478e-06
6.87312e-06
5.20289e-06
-3.16282e-06
5.75621e-06
7.58722e-06
-1.67081e-06
3.58457e-06
9.57795e-06
-3.96971e-07
1.50332e-05
1.53676e-06
-3.72188e-06
-3.25325e-06
9.32118e-08
-2.64309e-06
-4.90035e-06
-1.2443e-06
-2.85777e-06
-3.11916e-06
3.44934e-08
-2.20317e-06
-3.88172e-06
-5.34643e-07
-1.83386e-06
-2.87414e-06
-9.40617e-08
-1.09796e-06
-2.71233e-06
-3.8467e-07
-6.22027e-07
-1.3669e-06
-2.76557e-07
-3.92681e-07
-5.91936e-07
-1.61653e-07
-1.06471e-07
2.56866e-07
-1.19715e-07
1.37675e-08
8.96171e-07
-4.35057e-08
1.86655e-08
9.98351e-07
-1.00739e-07
-2.42211e-07
1.18782e-06
-3.16958e-08
-4.56346e-07
9.78751e-07
-7.62159e-08
-5.20612e-07
6.56889e-07
-1.60124e-07
-4.91868e-07
5.13955e-07
-2.44422e-07
-4.10801e-07
4.9064e-07
-3.02202e-07
-3.41951e-07
6.22503e-07
-3.18387e-07
-3.00413e-07
7.49993e-07
-3.26883e-07
-2.78099e-07
8.49715e-07
-3.33398e-07
-2.63986e-07
9.18725e-07
-3.38591e-07
-2.5354e-07
9.7134e-07
-3.39956e-07
-2.42203e-07
1.00823e-06
-3.38176e-07
-2.29447e-07
1.03779e-06
-3.32647e-07
-2.1788e-07
1.06485e-06
-3.2347e-07
-2.08932e-07
1.08695e-06
-3.11819e-07
-2.03211e-07
1.10454e-06
-2.98615e-07
-2.01459e-07
1.11851e-06
-2.8581e-07
-2.0374e-07
1.12857e-06
-2.73229e-07
-2.08574e-07
1.13388e-06
-2.62536e-07
-2.1253e-07
1.13417e-06
-2.54326e-07
-2.14567e-07
1.13413e-06
-2.47581e-07
-2.1673e-07
1.14033e-06
-2.41195e-07
-2.22515e-07
1.15149e-06
-2.34919e-07
-2.33299e-07
1.17007e-06
-2.2846e-07
-2.51906e-07
1.18792e-06
-2.22147e-07
-2.76533e-07
1.21306e-06
-2.16313e-07
-3.06097e-07
1.22741e-06
-2.11481e-07
-3.33039e-07
1.24688e-06
-2.09547e-07
-3.5731e-07
1.24797e-06
-2.08974e-07
-3.68773e-07
1.25697e-06
-2.10661e-07
-3.87288e-07
1.26218e-06
-2.07582e-07
-3.89916e-07
1.26325e-06
-2.07948e-07
-4.44497e-07
1.31014e-06
-1.94133e-07
-4.72631e-07
1.30275e-06
-2.02243e-07
-5.99496e-07
1.43222e-06
-1.87861e-07
-5.69706e-07
1.33905e-06
-2.74771e-07
-5.74045e-07
1.55306e-06
-3.46874e-07
-3.04441e-07
1.23849e-06
-5.31453e-07
-2.50959e-07
1.64534e-06
-5.97028e-07
-4.31302e-07
1.52142e-06
-3.68341e-07
-1.32578e-06
1.76e-06
1.28832e-07
-1.3424e-06
-1.37203e-06
-2.01708e-07
6.46689e-07
-4.22739e-06
-1.26712e-06
5.74615e-06
-9.22303e-06
-1.81059e-06
8.99024e-06
-4.19515e-06
-2.64881e-06
1.10608e-05
1.42706e-07
-3.80531e-06
1.4628e-05
6.98859e-06
-8.15262e-06
2.71641e-05
5.74046e-06
-1.36444e-05
3.9669e-06
-3.17675e-06
1.8834e-05
-5.63586e-06
4.35654e-06
1.52724e-06
-2.20884e-05
8.90963e-06
5.17e-06
-2.87437e-05
1.12568e-06
4.72446e-06
-3.62232e-05
-1.12008e-06
4.09771e-06
-3.85901e-05
-7.73063e-06
2.14098e-06
-4.02349e-05
-1.34182e-05
1.06293e-06
-4.09779e-05
-1.71483e-05
2.03657e-07
-4.13098e-05
-2.1671e-05
-6.02879e-07
-4.02398e-05
-2.63606e-05
-1.33656e-06
-3.86409e-05
-2.9794e-05
-1.63558e-06
-3.59871e-05
-3.12211e-05
-1.47278e-06
-3.20474e-05
-2.97439e-05
-6.97851e-07
-2.73712e-05
-2.56031e-05
1.14653e-07
-2.33055e-05
-1.93727e-05
1.14376e-06
-2.07436e-05
-1.23311e-05
1.6101e-06
-1.9704e-05
-5.35853e-06
1.60238e-06
-1.93382e-05
8.44468e-07
1.43804e-06
-1.91746e-05
6.33215e-06
1.25423e-06
-1.86725e-05
1.12013e-05
9.04708e-07
-1.72776e-05
1.50632e-05
2.48604e-07
-1.50057e-05
1.76219e-05
-8.90056e-07
-1.2111e-05
1.8982e-05
-2.69226e-06
-9.50796e-06
1.92459e-05
-5.20098e-06
-7.48521e-06
1.90051e-05
-7.02697e-06
-4.84557e-06
1.75626e-05
-6.93313e-06
-1.50397e-06
1.47129e-05
-4.52687e-06
1.16252e-06
1.23287e-05
-1.94306e-06
2.4873e-06
1.06096e-05
-8.47592e-08
2.19533e-06
9.41708e-06
1.09552e-06
5.87343e-07
8.70693e-06
1.22676e-06
-9.80162e-07
8.1944e-06
-1.92046e-07
-9.77758e-07
7.73581e-06
-2.6396e-06
3.05513e-07
7.46697e-06
-4.55349e-06
2.64445e-06
8.46164e-06
-5.59769e-06
3.39765e-06
1.15174e-05
-4.6834e-06
2.26813e-06
1.3834e-05
-3.12651e-06
1.74393e-05
-1.37943e-07
-3.85559e-06
-2.43395e-06
6.33362e-07
-2.86466e-06
-4.4951e-06
-1.39619e-06
-3.18242e-06
-2.83885e-06
3.74092e-08
-2.44443e-06
-3.86451e-06
-7.55216e-07
-2.01539e-06
-3.11794e-06
-1.85267e-07
-1.11391e-06
-3.06262e-06
-5.51191e-07
-4.48058e-07
-1.62943e-06
-4.03328e-07
-3.4968e-07
-5.58577e-07
-1.31725e-07
-2.9679e-07
3.6406e-07
-1.60077e-07
-1.42653e-07
8.21589e-07
-7.95396e-08
8.45704e-08
9.51617e-07
-1.80479e-07
8.11161e-08
1.31226e-06
-1.20966e-07
6.34894e-09
1.24443e-06
-1.90907e-07
-7.5838e-08
1.01168e-06
-2.72593e-07
-1.51085e-07
9.46162e-07
-3.5695e-07
-2.18145e-07
9.85353e-07
-4.27638e-07
-2.67624e-07
1.13345e-06
-4.61456e-07
-3.11799e-07
1.2748e-06
-4.80619e-07
-3.45175e-07
1.37339e-06
-4.90292e-07
-3.63936e-07
1.43409e-06
-4.96591e-07
-3.75581e-07
1.48133e-06
-4.98334e-07
-3.80554e-07
1.51175e-06
-4.98533e-07
-3.79815e-07
1.53348e-06
-4.96423e-07
-3.75482e-07
1.55258e-06
-4.92046e-07
-3.70918e-07
1.5683e-06
-4.85911e-07
-3.6804e-07
1.58118e-06
-4.795e-07
-3.67754e-07
1.59103e-06
-4.728e-07
-3.68327e-07
1.59598e-06
-4.66824e-07
-3.683e-07
1.59601e-06
-4.62148e-07
-3.65761e-07
1.59085e-06
-4.59211e-07
-3.63108e-07
1.58886e-06
-4.5737e-07
-3.64435e-07
1.5964e-06
-4.54732e-07
-3.72312e-07
1.61074e-06
-4.51364e-07
-3.86815e-07
1.63214e-06
-4.47561e-07
-4.10475e-07
1.65521e-06
-4.43625e-07
-4.39994e-07
1.68298e-06
-4.40396e-07
-4.72213e-07
1.69805e-06
-4.3841e-07
-4.98948e-07
1.71202e-06
-4.38395e-07
-5.19918e-07
1.70947e-06
-4.40521e-07
-5.25312e-07
1.70752e-06
-4.45147e-07
-5.48307e-07
1.72481e-06
-4.39625e-07
-5.5118e-07
1.71108e-06
-4.44941e-07
-6.32613e-07
1.81233e-06
-4.20746e-07
-6.60555e-07
1.77263e-06
-4.41928e-07
-7.89033e-07
1.9661e-06
-4.05389e-07
-7.50378e-07
1.79146e-06
-4.91049e-07
-8.01292e-07
2.08645e-06
-4.82456e-07
-7.12384e-07
1.7487e-06
-5.99103e-07
-1.11753e-06
2.49196e-06
-4.41458e-07
-1.43488e-06
2.16585e-06
-3.27062e-07
-2.08033e-06
2.60639e-06
-2.00922e-07
-1.24069e-06
-7.6395e-07
-1.4477e-06
2.24279e-07
-3.16463e-06
-2.5277e-06
2.9522e-06
-9.39663e-06
-2.5543e-06
4.39785e-06
-9.30455e-07
-4.71032e-06
8.60933e-06
5.02239e-06
-9.09115e-06
1.44469e-05
1.15199e-05
-1.03689e-05
2.91207e-05
-2.23685e-06
-6.69643e-06
4.65185e-06
-1.94297e-06
2.3235e-05
-3.98285e-06
1.00886e-05
2.90294e-06
-1.87152e-05
1.75142e-05
6.13014e-06
-2.97111e-05
4.50015e-06
7.62485e-06
-3.90524e-05
1.86237e-06
6.36204e-06
-4.1721e-05
-8.27744e-06
3.21889e-06
-4.52873e-05
-1.19361e-05
2.08745e-06
-4.72903e-05
-1.56727e-05
5.30388e-07
-5.01268e-05
-1.7309e-05
-1.52233e-06
-5.20081e-05
-2.07276e-05
-3.74812e-06
-5.35428e-05
-2.3549e-05
-4.70625e-06
-5.45325e-05
-2.56931e-05
-4.53424e-06
-5.48007e-05
-2.55997e-05
-3.87228e-06
-5.43978e-05
-2.28217e-05
-3.181e-06
-5.32043e-05
-1.82361e-05
-2.32704e-06
-5.14155e-05
-1.25876e-05
-1.52934e-06
-4.96974e-05
-6.06335e-06
-1.01022e-06
-4.84229e-05
5.57535e-07
-9.8427e-07
-4.68708e-05
6.22545e-06
-1.44206e-06
-4.50016e-05
1.1718e-05
-2.38258e-06
-4.25383e-05
1.62326e-05
-3.62932e-06
-3.94175e-05
1.96165e-05
-5.11181e-06
-3.54597e-05
2.11774e-05
-6.14946e-06
-3.15986e-05
2.11452e-05
-5.75664e-06
-2.96885e-05
2.0639e-05
-3.54001e-06
-3.1614e-05
1.97481e-05
-2.55707e-07
-3.73776e-05
1.84297e-05
2.05164e-06
-4.3563e-05
1.64035e-05
2.11601e-06
-4.85569e-05
1.44361e-05
1.17315e-06
-5.13251e-05
1.25868e-05
-3.95456e-07
-5.16994e-05
1.13839e-05
-2.29643e-06
-4.99404e-05
1.04681e-05
-4.02649e-06
-4.60046e-05
9.70428e-06
-5.89853e-06
-3.93983e-05
8.36419e-06
-7.4984e-06
-3.01878e-05
7.42423e-06
-8.16913e-06
-1.90624e-05
7.87263e-06
-7.47791e-06
-8.92278e-06
8.34177e-06
-4.6461e-06
9.95079e-06
-1.43391e-06
-3.68291e-06
-6.90925e-07
2.04242e-06
-2.93214e-06
-3.95613e-06
-1.28975e-06
-3.52841e-06
-2.36117e-06
1.18565e-07
-2.70088e-06
-3.70363e-06
-9.88438e-07
-2.181e-06
-3.29208e-06
-3.45753e-07
-1.2039e-06
-3.30159e-06
-7.38133e-07
-3.43172e-07
-2.03105e-06
-4.59106e-07
-1.70817e-07
-7.1883e-07
-1.20934e-08
-2.55593e-07
4.16591e-07
3.22588e-08
-1.44232e-07
6.45902e-07
6.43369e-08
1.33255e-07
8.17889e-07
-1.43744e-07
2.95929e-07
1.16726e-06
-1.76628e-08
3.25461e-07