/*--------------------------------*- C++ -*----------------------------------*\
| =========                 |                                                 |
| \\      /  F ield         | OpenFOAM: The Open Source CFD Toolbox           |
|  \\    /   O peration     | Version:  2.3.0                                 |
|   \\  /    A nd           | Web:      www.OpenFOAM.org                      |
|    \\/     M anipulation  |                                                 |
\*---------------------------------------------------------------------------*/
FoamFile
{
    version     2.0;
    format      ascii;
    class       surfaceScalarField;
    location    "32";
    object      phi;
}
// * * * * * * * * * * * * * * * * * * * * * * * * * * * * * * * * * * * * * //

dimensions      [0 3 -1 0 0 0 0];

internalField   nonuniform List<scalar> 
16448
(
-9.50667e-07
-2.53098e-06
4.24565e-07
1.08851e-06
-2.60062e-06
5.61442e-07
1.00398e-06
-9.6251e-07
1.04704e-06
8.54165e-07
-9.1377e-07
1.06359e-06
4.31078e-07
-5.56245e-07
9.79339e-07
1.81284e-07
-6.32046e-07
8.81848e-07
1.02586e-08
-5.3137e-07
7.02403e-07
-6.15065e-08
-4.99515e-07
5.71286e-07
-1.74443e-07
-3.75543e-07
4.88484e-07
-3.52484e-07
-2.85963e-07
4.64008e-07
-5.19243e-07
-2.35213e-07
4.01976e-07
-5.94803e-07
-2.57205e-07
3.3277e-07
-5.76418e-07
-3.11061e-07
2.92682e-07
-4.68246e-07
-3.65351e-07
2.57185e-07
-3.39775e-07
-3.96386e-07
2.67922e-07
-2.03597e-07
-4.23525e-07
2.87354e-07
-9.31126e-08
-4.35084e-07
3.24607e-07
-7.81723e-09
-4.47533e-07
3.62246e-07
4.63319e-08
-4.56795e-07
4.02654e-07
7.3642e-08
-4.6468e-07
4.3738e-07
8.19954e-08
-4.71562e-07
4.63218e-07
7.78348e-08
-4.73705e-07
4.77876e-07
6.6165e-08
-4.71618e-07
4.83299e-07
5.06817e-08
-4.65972e-07
4.81468e-07
3.40545e-08
-4.57448e-07
4.74089e-07
1.83292e-08
-4.46787e-07
4.62528e-07
4.50172e-09
-4.34013e-07
4.47855e-07
-6.60811e-09
-4.1979e-07
4.30916e-07
-1.24107e-08
-4.07657e-07
4.13477e-07
-1.09358e-08
-3.96686e-07
3.9523e-07
-2.2224e-09
-3.85485e-07
3.7679e-07
1.09969e-08
-3.72555e-07
3.59356e-07
2.61888e-08
-3.57639e-07
3.42467e-07
4.50864e-08
-3.42509e-07
3.23634e-07
7.50576e-08
-3.30758e-07
3.00808e-07
1.24915e-07
-3.25087e-07
2.75255e-07
1.96275e-07
-3.25784e-07
2.54447e-07
2.80578e-07
-3.31608e-07
2.47331e-07
3.63511e-07
-3.40947e-07
2.58038e-07
4.3068e-07
-3.52948e-07
2.85807e-07
4.63859e-07
-3.63934e-07
3.30781e-07
4.41723e-07
-3.74845e-07
3.9701e-07
3.50386e-07
-3.90492e-07
4.81857e-07
2.78857e-07
-4.60692e-07
5.32251e-07
3.6981e-07
-6.28701e-07
5.37777e-07
7.24886e-07
-8.91809e-07
5.36764e-07
1.30879e-06
-1.21241e-06
6.28533e-07
2.13946e-06
-1.82116e-06
9.90513e-07
2.85122e-06
-2.23192e-06
1.52019e-06
3.1374e-06
-2.17503e-06
1.88888e-06
3.37305e-06
-2.36227e-06
2.12664e-06
3.7803e-06
-2.13196e-06
1.72473e-06
7.42651e-06
-5.42069e-06
1.7745e-06
1.11957e-05
-5.86924e-06
2.10006e-06
1.32142e-05
-3.89435e-06
1.87588e-06
1.50089e-05
-3.11616e-06
1.32141e-06
1.05035e-05
2.6313e-06
1.87411e-06
9.55895e-06
3.68923e-06
-2.74481e-06
-1.17585e-05
1.43922e-05
6.92497e-06
1.59233e-07
-4.7276e-06
-7.19025e-06
2.50944e-05
-2.16461e-05
-3.28907e-06
3.2222e-05
-1.04857e-05
3.35813e-06
2.93599e-05
-2.82591e-06
5.68804e-06
2.90251e-05
-5.30049e-06
5.63527e-06
2.70705e-05
-3.5372e-06
5.49173e-06
2.41806e-05
-2.71376e-06
5.60369e-06
2.07464e-05
-1.77658e-06
5.2108e-06
1.87941e-05
-2.02848e-06
3.98075e-06
1.702e-05
-7.72049e-07
2.54613e-06
1.39234e-05
7.52034e-07
2.34453e-06
1.01734e-05
1.38512e-06
2.36497e-06
7.27058e-06
1.52288e-06
1.3799e-06
6.38709e-06
7.24891e-07
1.58594e-07
5.8331e-06
1.00013e-06
-4.46141e-07
3.70376e-06
2.71091e-06
-5.8158e-07
-9.7285e-07
4.72073e-06
-4.41193e-08
-7.47627e-06
5.37846e-06
1.12496e-06
-1.19947e-05
2.83316e-06
1.68529e-06
-1.50954e-05
1.28639e-06
1.81432e-06
-1.62647e-05
-7.10066e-07
1.87932e-06
-1.61628e-05
-2.39249e-06
2.29062e-06
-1.66358e-05
-2.83069e-06
3.30367e-06
-1.69201e-05
-3.27986e-06
3.56421e-06
-1.68917e-05
-3.43332e-06
3.40493e-06
-1.66665e-05
-2.94209e-06
2.71686e-06
-1.62079e-05
-2.7168e-06
2.25822e-06
-1.59475e-05
-2.02142e-06
1.76103e-06
-1.56029e-05
-1.46229e-06
1.11762e-06
-1.49951e-05
-1.38907e-06
7.813e-07
-1.42815e-05
-9.31743e-07
2.18124e-07
-1.35961e-05
-4.61892e-07
-2.23432e-07
-1.28328e-05
-8.25879e-08
-6.80719e-07
-1.21222e-05
3.10885e-07
-1.02152e-06
-1.01576e-05
8.39222e-07
-2.80377e-06
-7.40541e-06
1.20991e-06
-3.96215e-06
-7.34882e-07
-6.67053e-06
-1.67871e-06
-3.57396e-06
-2.32994e-07
-1.41634e-07
-3.85864e-06
-2.79047e-07
1.16031e-07
-1.78163e-06
5.61465e-07
2.20665e-07
-1.52447e-06
5.0608e-07
1.68724e-07
-8.57905e-07
3.53618e-07
1.30062e-07
-7.97066e-07
2.03699e-07
6.87022e-08
-5.30453e-07
6.04584e-08
-6.16487e-08
-4.38353e-07
6.92022e-08
-2.86041e-07
-2.38242e-07
8.71038e-08
-5.44494e-07
-1.40744e-07
1.13245e-07
-7.27478e-07
-1.08065e-07
5.58461e-08
-7.92563e-07
-1.80914e-07
-1.11934e-08
-7.59998e-07
-2.75936e-07
-6.76763e-08
-6.4468e-07
-3.71993e-07
-1.0866e-07
-5.01504e-07
-4.27953e-07
-1.11593e-07
-3.47716e-07
-4.74183e-07
-1.03115e-07
-2.16485e-07
-4.89798e-07
-7.64998e-08
-1.07983e-07
-5.05731e-07
-5.02861e-08
-3.10052e-08
-5.12509e-07
-2.12448e-08
1.50353e-08
-5.15046e-07
4.34491e-09
3.92954e-08
-5.14107e-07
1.83065e-08
4.73418e-08
-5.08377e-07
2.6649e-08
4.43022e-08
-4.98207e-07
2.96527e-08
3.44741e-08
-4.84421e-07
2.83029e-08
2.12989e-08
-4.67963e-07
2.3717e-08
7.48874e-09
-4.49612e-07
1.66629e-08
-5.2513e-09
-4.29336e-07
8.09352e-09
-1.52307e-08
-4.07722e-07
-2.05693e-09
-1.80755e-08
-3.87621e-07
-1.71583e-08
-1.25678e-08
-3.7009e-07
-3.20687e-08
7.85013e-10
-3.52189e-07
-4.66126e-08
1.95955e-08
-3.31171e-07
-6.01571e-08
4.23744e-08
-3.07317e-07
-7.30618e-08
7.04568e-08
-2.84287e-07
-8.62637e-08
1.07569e-07
-2.68435e-07
-9.93924e-08
1.56334e-07
-2.62955e-07
-1.10855e-07
2.15105e-07
-2.67674e-07
-1.16837e-07
2.7821e-07
-2.80588e-07
-1.1408e-07
3.3621e-07
-2.97526e-07
-1.01375e-07
3.81346e-07
-3.20315e-07
-7.77222e-08
4.01657e-07
-3.44539e-07
-3.96574e-08
3.88106e-07
-3.71673e-07
1.04263e-08
3.7496e-07
-4.25333e-07
4.80374e-08
4.83575e-07
-6.00061e-07
3.08033e-08
8.00084e-07
-8.80255e-07
-6.49044e-08
1.31616e-06
-1.26325e-06
-1.44581e-07
1.76054e-06
-1.6734e-06
1.66595e-08
2.053e-06
-2.64971e-06
5.36141e-07
2.40135e-06
-3.68453e-06
1.1043e-06
3.24848e-06
-4.19118e-06
1.16906e-06
6.19087e-06
-5.48192e-06
1.77307e-07
1.17901e-05
-6.42498e-06
-1.30622e-06
1.62649e-05
-9.17941e-06
-7.16059e-07
1.73556e-05
-7.71024e-06
7.50293e-07
1.70872e-05
-4.05642e-06
4.30501e-07
1.78969e-05
-3.34421e-06
-5.81622e-07
1.60735e-05
5.20204e-06
-7.473e-07
1.92302e-05
7.92246e-06
-7.39005e-06
-4.67578e-06
2.80619e-05
1.02357e-05
7.35524e-07
-5.26383e-06
-4.8754e-06
1.35867e-05
-2.65964e-05
-7.90091e-06
1.04444e-05
-1.36383e-05
6.29495e-06
4.17317e-06
-4.74066e-06
8.18596e-06
-1.57896e-06
-6.04009e-06
6.49173e-06
-2.87567e-06
-6.3715e-06
4.13101e-06
-4.51062e-06
-5.17228e-06
4.09348e-06
-5.40887e-06
-4.50087e-06
3.62254e-06
-6.52596e-06
-4.60715e-06
3.69576e-06
-6.6578e-06
-4.63959e-06
3.99938e-06
-6.42163e-06
-3.8639e-06
4.37977e-06
-5.36202e-06
-1.92023e-06
2.24574e-06
-3.63381e-06
8.0923e-07
-1.01456e-06
-1.98656e-06
2.17567e-06
-3.09803e-06
-4.37459e-07
3.79097e-06
-4.33993e-06
-2.04133e-06
6.95981e-06
-2.64503e-06
-7.46239e-06
8.14625e-06
1.99554e-06
-9.91586e-06
5.87882e-06
1.95311e-06
-1.04677e-05
2.48239e-06
9.02639e-07
-9.51315e-06
-1.19023e-06
1.52205e-06
-8.11776e-06
-3.98438e-06
1.87893e-06
-8.16896e-06
-5.43284e-06
3.09156e-06
-8.33189e-06
-5.92624e-06
3.25849e-06
-7.47296e-06
-6.51663e-06
2.37784e-06
-6.0565e-06
-6.61298e-06
1.7632e-06
-4.7514e-06
-5.47722e-06
1.23003e-06
-4.08743e-06
-3.95751e-06
5.76732e-07
-5.08711e-06
-2.77966e-06
1.75793e-06
-7.26729e-06
-1.9643e-06
2.68219e-06
-9.32588e-06
-2.13363e-06
2.80315e-06
-1.03949e-05
-9.52351e-07
1.08966e-06
-1.04637e-05
-4.97429e-07
1.04266e-07
-1.01568e-05
-4.86076e-08
-3.40852e-07
-9.45221e-06
3.53267e-07
-7.46951e-07
-8.05643e-06
9.9113e-07
-1.54769e-06
-5.8302e-06
2.2407e-06
-3.25702e-06
1.43014e-06
-7.99522e-06
-2.19848e-06
-3.82397e-06
-4.82999e-07
-9.74757e-07
-4.2775e-06
-8.04849e-07
-5.70189e-07
-2.26079e-06
7.46052e-08
-3.21157e-07
-1.78386e-06
1.03777e-08
-2.53474e-07
-8.79867e-07
-4.57053e-08
-1.32541e-07
-7.62826e-07
-1.55158e-07
-4.86096e-08
-3.79213e-07
-2.35158e-07
-1.17798e-07
-1.98586e-07
-1.70567e-07
-3.09921e-07
6.48665e-08
-1.10976e-07
-5.26499e-07
1.4776e-07
-7.19168e-08
-6.89638e-07
1.65526e-07
-1.10443e-07
-7.53843e-07
5.97092e-08
-1.76407e-07
-7.49739e-07
-4.26421e-08
-2.37386e-07
-6.89287e-07
-1.53091e-07
-2.79341e-07
-5.92247e-07
-2.23727e-07
-3.01253e-07
-4.76532e-07
-2.78498e-07
-3.11385e-07
-3.683e-07
-2.93398e-07
-3.04618e-07
-2.69404e-07
-3.08449e-07
-2.9616e-07
-1.84875e-07
-3.1208e-07
-2.84942e-07
-1.18977e-07
-3.06847e-07
-2.74078e-07
-7.25887e-08
-2.95187e-07
-2.6529e-07
-4.27873e-08
-2.79194e-07
-2.58963e-07
-2.61951e-08
-2.59769e-07
-2.55008e-07
-1.92901e-08
-2.3791e-07
-2.53392e-07
-1.83108e-08
-2.15082e-07
-2.53835e-07
-1.96051e-08
-1.92223e-07
-2.56068e-07
-2.012e-08
-1.69177e-07
-2.59616e-07
-1.73326e-08
-1.46496e-07
-2.63983e-07
-1.0371e-08
-1.25228e-07
-2.69324e-07
8.1223e-10
-1.06403e-07
-2.74838e-07
1.54774e-08
-8.68664e-08
-2.79954e-07
3.27696e-08
-6.40865e-08
-2.84341e-07
5.30822e-08
-3.97195e-08
-2.87874e-07
7.58863e-08
-1.77416e-08
-2.89312e-07
9.81817e-08
-2.86016e-09
-2.87831e-07
1.13196e-07
4.20397e-09
-2.82132e-07
1.17709e-07
8.19525e-10
-2.72965e-07
1.11705e-07
-1.05907e-08
-2.63951e-07
9.74647e-08
-2.86416e-08
-2.54601e-07
7.80412e-08
-5.53674e-08
-2.4548e-07
5.63247e-08
-8.90718e-08
-2.33706e-07
4.37306e-08
-1.3963e-07
-2.19402e-07
1.03093e-07
-2.56666e-07
-2.27983e-07
3.51013e-07
-5.33334e-07
-3.14599e-07
7.74307e-07
-8.87577e-07
-4.15926e-07
1.24604e-06
-1.29011e-06
-4.44826e-07
1.54099e-06
-1.75916e-06
-2.09138e-07
1.75169e-06
-3.16109e-06
3.00725e-07
3.46625e-06
-6.08358e-06
6.84537e-07
8.36807e-06
-9.60304e-06
5.10082e-07
1.53881e-05
-1.17828e-05
-7.19212e-07
2.06151e-05
-1.13508e-05
-3.0103e-07
2.08242e-05
-9.33586e-06
-5.26483e-08
1.68501e-05
-4.55433e-06
8.18162e-07
1.23898e-05
2.86069e-07
1.17821e-07
1.06943e-05
2.64131e-07
-1.91273e-06
1.42482e-05
7.40034e-06
-5.75213e-06
2.12927e-05
1.09336e-05
-1.00558e-05
-2.74635e-06
4.09584e-05
1.11417e-05
1.26261e-07
-2.90735e-06
-5.22933e-06
8.47474e-06
-2.38819e-05
-1.10628e-05
4.49454e-06
-1.21403e-05
2.4822e-06
2.56777e-06
-5.91963e-06
3.10574e-06
-4.77882e-06
-5.34241e-06
6.64891e-06
-6.20709e-06
-7.23925e-06
2.29603e-06
-6.8419e-06
-5.73922e-06
1.20175e-06
-7.23825e-06
-3.87224e-06
-2.32275e-07
-9.29769e-06
-2.7769e-06
2.29202e-07
-1.19129e-05
-2.80474e-06
7.80376e-07
-1.31211e-05
-2.50704e-06
-1.48706e-07
-1.29945e-05
-5.93296e-07
-1.45346e-06
-1.27698e-05
3.05085e-06
-2.4664e-06
-1.33693e-05
5.64103e-06
-2.86578e-06
-1.4754e-05
7.00138e-06
-1.82574e-06
-1.57568e-05
7.48979e-06
4.72811e-07
-1.66348e-05
6.36029e-06
2.66393e-06
-1.59522e-05
2.62281e-06
2.57349e-06
-1.52293e-05
-2.57963e-07
2.0174e-06
-1.38939e-05
-3.18164e-06
6.55998e-07
-1.23004e-05
-5.68587e-06
1.08017e-07
-1.02802e-05
-6.98078e-06
-4.72235e-07
-7.53399e-06
-7.14187e-06
-1.53061e-06
-4.76426e-06
-6.13993e-06
-3.14642e-06
-2.33375e-06
-4.95704e-06
-4.08644e-06
-5.14237e-08
-3.3518e-06
-4.40775e-06
1.6313e-06
-1.40253e-06
-4.23771e-06
2.52641e-06
-3.06963e-07
-3.3678e-06
2.39427e-06
7.9617e-07
-2.62833e-06
-4.86848e-07
1.10049e-06
-3.53013e-07
-3.86965e-06
1.76811e-06
6.62334e-07
-6.3308e-06
2.07592e-06
-1.12199e-07
-8.01413e-06
1.8887e-06
-2.5397e-07
-7.77532e-06
1.37198e-06
-1.25752e-06
-6.52749e-06
1.86159e-06
-2.1183e-06
-4.7928e-06
4.21161e-06
-3.70559e-06
4.94481e-06
-8.30747e-06
-2.60048e-06
-3.85472e-06
-2.78001e-07
-1.4261e-06
-4.43487e-06
-1.017e-06
-1.06158e-06
-2.6329e-06
7.59732e-09
-7.02516e-07
-2.11163e-06
-3.12746e-08
-5.75177e-07
-9.11645e-07
-9.55437e-08
-4.01505e-07
-7.39499e-07
-1.96984e-07
-2.29534e-07
-2.52214e-07
-2.98957e-07
-1.44758e-07
-2.5743e-08
-2.57609e-07
-1.68493e-07
3.00255e-07
-2.11644e-07
-2.98502e-07
4.33347e-07
-1.5557e-07
-4.57022e-07
4.97235e-07
-1.73179e-07
-5.91241e-07
4.09789e-07
-2.15851e-07
-6.71368e-07
3.02202e-07
-2.64706e-07
-6.72675e-07
1.61157e-07
-3.1293e-07
-6.19732e-07
6.7232e-08
-3.43888e-07
-5.32625e-07
4.99341e-09
-3.70584e-07
-4.43331e-07
1.82794e-10
-3.82859e-07
-3.58215e-07
-1.67849e-09
-3.9187e-07
-2.79455e-07
5.76556e-09
-3.96588e-07
-2.08373e-07
1.92189e-08
-3.97129e-07
-1.50123e-07
3.91775e-08
-3.92594e-07
-1.05232e-07
6.19258e-08
-3.85992e-07
-7.25347e-08
8.67719e-08
-3.79215e-07
-5.07116e-08
1.13679e-07
-3.73389e-07
-3.72653e-08
1.40895e-07
-3.69398e-07
-2.87568e-08
1.66489e-07
-3.67194e-07
-2.27134e-08
1.9091e-07
-3.66102e-07
-1.71418e-08
2.13481e-07
-3.65521e-07
-1.00714e-08
2.33076e-07
-3.65343e-07
-1.14849e-09
2.4996e-07
-3.65255e-07
8.9106e-09
2.67906e-07
-3.64797e-07
1.91475e-08
2.89936e-07
-3.64225e-07
2.9068e-08
3.13027e-07
-3.6263e-07
3.68647e-08
3.33267e-07
-3.58769e-07
3.73933e-08
3.47654e-07
-3.51004e-07
2.72509e-08
3.54351e-07
-3.39966e-07
7.03176e-09
3.49782e-07
-3.28702e-07
-2.0307e-08
3.35507e-07
-3.18718e-07
-5.46549e-08
3.17205e-07
-3.11456e-07
-1.00723e-07
2.94939e-07
-3.04197e-07
-1.53107e-07
2.61341e-07
-2.97983e-07
-1.80208e-07
1.88863e-07
-3.01349e-07
-1.10984e-07
1.18031e-08
-3.37647e-07
1.21474e-07
-3.35382e-07
-4.30366e-07
5.02405e-07
-7.54504e-07
-5.13957e-07
9.37553e-07
-1.23622e-06
-4.88998e-07
1.3505e-06
-1.96964e-06
-2.02426e-07
2.98746e-06
-5.31035e-06
5.12338e-07
8.15285e-06
-1.27784e-05
1.52944e-06
1.54992e-05
-1.93526e-05
2.40318e-06
2.08094e-05
-1.87618e-05
1.66891e-06
2.18082e-05
-1.31324e-05
7.82734e-07
1.87758e-05
-5.62901e-06
-6.74441e-07
1.22381e-05
3.10091e-06
-1.1175e-06
6.2525e-06
8.91224e-06
-2.64055e-06
-1.50338e-06
1.12019e-05
-3.18182e-06
6.65269e-06
9.25025e-06
-1.00057e-05
1.27e-05
1.80592e-05
-1.31731e-05
-1.7016e-06
5.44719e-05
8.86946e-07
1.14832e-06
-2.67339e-06
-3.08405e-06
7.60188e-06
-1.76343e-05
-1.27011e-05
2.54328e-06
-8.05614e-06
9.74419e-07
-1.44835e-06
-3.80121e-06
1.87322e-06
-8.23256e-06
-3.84e-06
5.2818e-06
-1.10847e-05
-6.07461e-06
1.68752e-06
-1.24528e-05
-4.72549e-06
3.54391e-07
-1.38044e-05
-2.1266e-06
-3.94133e-07
-1.65978e-05
-4.98383e-07
5.14922e-07
-1.95983e-05
-1.10598e-06
1.3018e-06
-2.12549e-05
-1.35424e-06
5.03748e-07
-2.20603e-05
3.16377e-07
-1.04206e-07
-2.35846e-05
3.4607e-06
1.11444e-06
-2.47329e-05
5.17421e-06
1.61512e-06
-2.57501e-05
5.5216e-06
2.49701e-06
-2.62599e-05
4.848e-06
3.15154e-06
-2.47841e-05
2.15085e-06
2.73366e-06
-2.25082e-05
-9.15661e-07
1.26255e-06
-1.99713e-05
-2.66708e-06
-1.27786e-07
-1.67558e-05
-3.96284e-06
-2.43424e-06
-1.33438e-05
-4.57815e-06
-4.51979e-06
-9.55645e-06
-4.43967e-06
-6.32842e-06
-6.52276e-06
-2.79058e-06
-7.38497e-06
-3.70959e-06
-2.5967e-07
-8.69343e-06
-1.00812e-06
1.79395e-06
-9.45247e-06
9.6378e-07
3.70277e-06
-9.02647e-06
2.25477e-06
5.03906e-06
-7.73257e-06
2.78156e-06
5.7907e-06
-6.62446e-06
2.25952e-06
6.98107e-06
-5.66286e-06
-2.96611e-07
7.86966e-06
-4.21304e-06
-4.16955e-06
7.09568e-06
-1.45462e-06
-7.39921e-06
5.8741e-06
-5.68517e-07
-9.40536e-06
4.09693e-06
-2.02081e-07
-9.26499e-06
2.60902e-06
-1.3774e-06
-7.3182e-06
2.83603e-06
-2.92122e-06
-4.67657e-06
5.96728e-06
-4.39731e-06
1.02503e-05
-9.98204e-06
-3.05075e-06
-3.90499e-06
6.65463e-08
-1.85906e-06
-4.5842e-06
-1.04234e-06
-1.46471e-06
-3.08091e-06
5.36612e-08
-8.5983e-07
-2.68826e-06
-2.8231e-08
-6.37445e-07
-1.14491e-06
1.08938e-08
-5.58233e-07
-7.07952e-07
-1.10745e-07
-4.52632e-07
-9.70068e-08
-2.60798e-07
-2.73175e-07
7.93941e-08
-2.84585e-07
-1.14316e-07
4.19649e-07
-2.78247e-07
-1.19736e-07
6.52835e-07
-2.14061e-07
-2.32702e-07
7.95906e-07
-1.857e-07
-4.24258e-07
7.80576e-07
-1.79223e-07
-5.76718e-07
6.5612e-07
-2.01449e-07
-6.34228e-07
4.62863e-07
-2.44185e-07
-6.1116e-07
3.23651e-07
-2.79477e-07
-5.40347e-07
2.50087e-07
-3.15894e-07
-4.61435e-07
2.60162e-07
-3.38879e-07
-3.87176e-07
2.8309e-07
-3.59013e-07
-3.17933e-07
3.11061e-07
-3.74523e-07
-2.50036e-07
3.38557e-07
-3.87219e-07
-1.88417e-07
3.70324e-07
-3.92749e-07
-1.35052e-07
4.02167e-07
-3.93587e-07
-9.17689e-08
4.34683e-07
-3.91176e-07
-5.88744e-08
4.67037e-07
-3.8623e-07
-3.53906e-08
4.97359e-07
-3.79926e-07
-1.84296e-08
5.22937e-07
-3.73384e-07
-6.11949e-09
5.45031e-07
-3.66407e-07
3.44758e-09
5.6319e-07
-3.59248e-07
1.09573e-08
5.77501e-07
-3.51908e-07
1.67895e-08
5.88947e-07
-3.44789e-07
2.13177e-08
6.01114e-07
-3.37708e-07
2.35547e-08
6.17625e-07
-3.29895e-07
2.10313e-08
6.36507e-07
-3.20926e-07
1.13271e-08
6.53287e-07
-3.10282e-07
-8.29729e-09
6.65078e-07
-2.97767e-07
-3.78317e-08
6.69008e-07
-2.85086e-07
-7.61846e-08
6.62609e-07
-2.7444e-07
-1.25486e-07
6.51743e-07
-2.66898e-07
-1.8976e-07
6.43522e-07
-2.62008e-07
-2.66393e-07
6.33013e-07
-2.61402e-07
-3.35955e-07
6.02996e-07
-2.72057e-07
-3.51316e-07
5.10822e-07
-3.06558e-07
-2.4978e-07
2.84577e-07
-3.74275e-07
-3.12975e-08
-1.02627e-07
-4.51198e-07
2.39316e-07
-5.22446e-07
-5.02636e-07
5.05553e-07
-1.09797e-06
-4.04453e-07
1.03814e-06
-2.61161e-06
1.09419e-07
3.81389e-06
-9.79781e-06
1.71175e-06
7.83723e-06
-2.14437e-05
4.64196e-06
7.13868e-06
-2.42449e-05
5.59091e-06
3.37236e-06
-1.94784e-05
4.48298e-06
-1.83537e-07
-1.01542e-05
5.77718e-07
-2.32154e-06
2.02484e-06
-5.51581e-06
-4.19299e-06
1.18296e-05
-6.85722e-06
-9.28497e-06
1.87427e-05
-4.73846e-06
-1.37879e-05
2.18061e-05
-6.1012e-06
-1.61778e-05
2.27054e-05
-1.10651e-05
-1.55396e-05
3.07039e-05
-1.3283e-05
-1.30919e-06
5.25668e-05
-1.23264e-05
1.89221e-06
-4.57149e-06
-1.30334e-06
6.84128e-06
-8.02934e-06
-1.45541e-05
3.92115e-06
-5.76532e-06
6.29317e-07
1.91931e-06
-2.56623e-06
7.66859e-07
-6.29291e-06
-1.41749e-06
5.78971e-06
-1.05251e-05
-5.12842e-06
3.28605e-06
-1.41216e-05
-3.70626e-06
2.5772e-06
-1.76525e-05
-9.54621e-07
2.35899e-06
-2.25298e-05
1.33031e-06
3.04861e-06
-2.80367e-05
1.32065e-07
4.26889e-06
-3.14542e-05
-2.59691e-06
4.66009e-06
-3.30608e-05
-2.35036e-06
4.27341e-06
-3.36761e-05
-2.1148e-07
4.28747e-06
-3.36557e-05
1.38813e-06
3.76564e-06
-3.29802e-05
1.66818e-06
3.178e-06
-3.12883e-05
9.11677e-07
2.24435e-06
-2.95523e-05
-8.89215e-08
5.03825e-07
-2.70879e-05
-1.02197e-06
-2.3581e-06
-2.3235e-05
-6.85468e-07
-5.83454e-06
-1.8969e-05
1.89193e-07
-8.418e-06
-1.56478e-05
1.66186e-06
-9.56118e-06
-1.2586e-05
3.08861e-06
-1.05901e-05
-9.33816e-06
4.87475e-06
-1.09132e-05
-6.20706e-06
7.18086e-06
-1.05716e-05
-3.68161e-06
8.22704e-06
-8.95854e-06
-1.70742e-06
9.01899e-06
-7.2904e-06
-2.20722e-07
1.00522e-05
-6.49982e-06
9.95326e-08
1.13236e-05
-5.85314e-06
-1.89499e-07
1.24652e-05
-5.19514e-06
-2.04568e-06
1.33915e-05
-3.66562e-06
-4.98975e-06
1.2776e-05
-2.73625e-06
-7.44899e-06
1.12002e-05
-2.86685e-06
-8.79863e-06
8.83691e-06
-3.39034e-06
-8.72749e-06
6.69276e-06
-4.15488e-06
-7.31618e-06
5.81408e-06
-4.38937e-06
-4.36625e-06
7.62903e-06
-4.61167e-06
1.49313e-05
-9.04724e-06
-3.50697e-06
-3.82701e-06
3.77522e-07
-2.48667e-06
-4.79386e-06
-8.10634e-07
-2.08001e-06
-3.55905e-06
7.1504e-08
-1.04543e-06
-3.41992e-06
-3.02907e-07
-5.39384e-07
-1.76823e-06
1.17285e-07
-5.07782e-07
-7.10996e-07
-2.85504e-08
-5.01329e-07
6.37984e-08
-1.67251e-07
-3.54264e-07
1.57533e-07
-2.25201e-07
-1.35906e-07
4.63831e-07
-2.62537e-07
-3.59248e-08
7.51795e-07
-1.98939e-07
-6.22548e-08
1.004e-06
-1.81759e-07
-2.8265e-07
1.13371e-06
-1.32737e-07
-4.8845e-07
1.00665e-06
-1.4472e-07
-5.67046e-07
7.29538e-07
-1.88073e-07
-5.47306e-07
5.42904e-07
-2.38986e-07
-4.77165e-07
4.65029e-07
-2.85074e-07
-4.04876e-07
4.99697e-07
-3.11815e-07
-3.50914e-07
5.61329e-07
-3.32193e-07
-3.08303e-07
6.17655e-07
-3.49195e-07
-2.66165e-07
6.60277e-07
-3.63848e-07
-2.23065e-07
6.98849e-07
-3.71613e-07
-1.80974e-07
7.33022e-07
-3.72933e-07
-1.41775e-07
7.64953e-07
-3.69454e-07
-1.07514e-07
7.95211e-07
-3.62422e-07
-8.14453e-08
8.24472e-07
-3.53166e-07
-6.32076e-08
8.47205e-07
-3.4249e-07
-5.17259e-08
8.64448e-07
-3.3088e-07
-4.5381e-08
8.75929e-07
-3.19067e-07
-4.22194e-08
8.81262e-07
-3.06902e-07
-4.02635e-08
8.82422e-07
-2.95412e-07
-4.04022e-08
8.85812e-07
-2.84537e-07
-4.59292e-08
8.96605e-07
-2.73432e-07
-6.00829e-08
9.12145e-07
-2.6146e-07
-8.41766e-08
9.26158e-07
-2.48755e-07
-1.17574e-07
9.33776e-07
-2.35275e-07
-1.55824e-07
9.30665e-07
-2.23385e-07
-1.94747e-07
9.16546e-07
-2.14987e-07
-2.40242e-07
9.06525e-07
-2.09265e-07
-3.02561e-07
9.12393e-07
-2.06526e-07
-3.81545e-07
9.22469e-07
-2.10449e-07
-4.48995e-07
8.98351e-07
-2.2788e-07
-4.47334e-07
7.81571e-07
-2.72388e-07
-3.36801e-07
5.27497e-07
-3.53429e-07
-1.98789e-07
2.02401e-07
-4.4302e-07
-2.05356e-07
-3.78484e-08
-4.78009e-07
-6.10519e-07
-4.33472e-07
-2.59312e-07
-1.61185e-06
-2.43342e-06
8.23163e-07
-5.83402e-06
-1.00583e-05
4.48272e-06
-1.72455e-05
-1.96947e-05
9.66259e-06
-2.77583e-05
-2.17245e-05
7.99239e-06
-2.82046e-05
-2.01526e-05
1.12057e-06
-2.40285e-05
-1.16075e-05
-2.7227e-06
-2.41616e-05
5.46842e-06
-3.3104e-06
-2.58502e-05
1.608e-05
-2.56178e-06
-2.86405e-05
2.08674e-05
6.65738e-07
-2.89107e-05
2.39164e-05
-1.84002e-06
-3.08162e-05
2.77483e-05
-3.13715e-06
-2.29164e-05
3.38737e-05
-1.10698e-05
4.26076e-07
4.70184e-05
-1.77951e-05
1.59914e-06
-4.051e-06
-1.69364e-06
9.06251e-06
-2.29273e-07
-1.52634e-05
8.3999e-06
-6.2084e-06
1.10576e-06
5.94453e-06
-7.61517e-07
6.5073e-07
-4.5121e-06
2.96366e-06
6.07555e-06
-1.16701e-05
-1.7724e-06
3.80207e-06
-1.7756e-05
-1.84214e-07
2.5639e-06
-2.11863e-05
1.12297e-06
1.35278e-06
-2.55765e-05
3.87267e-06
1.84791e-06
-3.28828e-05
3.3943e-06
4.04414e-06
-3.96024e-05
8.78946e-08
4.03493e-06
-4.27756e-05
-1.48129e-06
2.30416e-06
-4.33056e-05
-5.13854e-07
8.32456e-07
-4.26492e-05
1.00673e-06
-2.74901e-07
-4.16185e-05
1.82238e-06
-1.18487e-06
-4.00821e-05
2.30729e-06
-2.9319e-06
-3.82885e-05
3.15795e-06
-5.04041e-06
-3.56763e-05
3.70673e-06
-7.34088e-06
-3.21381e-05
4.78657e-06
-9.0102e-06
-2.77876e-05
5.0209e-06
-9.18215e-06
-2.31242e-05
4.41216e-06
-7.41376e-06
-1.92041e-05
4.32788e-06
-5.15935e-06
-1.57967e-05
5.18664e-06
-3.71927e-06
-1.29064e-05
6.33821e-06
-2.04768e-06
-9.78097e-06
6.20787e-06
-1.10624e-06
-7.06084e-06
6.53792e-06
-2.3906e-07
-4.73294e-06
7.52141e-06
2.0286e-07
-3.79356e-06
9.79591e-06
5.88283e-07
-4.74362e-06
1.24941e-05
9.21251e-07
-6.724e-06
1.43838e-05
9.88011e-07
-8.79042e-06
1.5669e-05
-8.26594e-07
-9.90086e-06
1.53495e-05
-3.03893e-06
-9.2625e-06
1.3047e-05
-4.84848e-06
-6.87859e-06
1.08182e-05
-6.50935e-06
-5.25743e-06
1.17742e-05
-7.58131e-06
-3.17443e-06
1.35734e-05
-8.02738e-06
2.08602e-05
-9.10336e-06
-3.97627e-06
-3.67855e-06
8.55763e-07
-3.16962e-06
-4.93551e-06
-6.64983e-07
-2.75296e-06
-3.78301e-06
-1.92696e-07
-1.30532e-06
-3.82402e-06
-1.04352e-06
-4.02849e-07
-2.45014e-06
-2.20551e-07
-2.67986e-07
-7.5917e-07
-8.66848e-08
-3.85637e-07
3.27359e-07
-1.4591e-07
-4.17069e-07
3.49616e-07
-1.60651e-07
-2.54837e-07
5.47633e-07
-2.46037e-07
-1.01269e-07
8.21616e-07
-2.2339e-07
-4.84553e-08
1.15447e-06
-2.03283e-07
-2.05104e-07
1.40239e-06
-1.12027e-07
-3.78205e-07
1.29486e-06
-1.15118e-07
-4.47683e-07
9.68922e-07
-1.69906e-07
-4.39044e-07
7.71426e-07
-2.3716e-07
-3.84362e-07
6.99139e-07
-2.88791e-07
-3.28055e-07
7.54284e-07
-3.10892e-07
-2.93375e-07
8.46309e-07
-3.19657e-07
-2.76462e-07
9.2571e-07
-3.24966e-07
-2.66807e-07
9.80565e-07
-3.29939e-07
-2.58031e-07
1.02269e-06
-3.32618e-07
-2.46558e-07
1.053e-06
-3.31447e-07
-2.31426e-07
1.0762e-06
-3.26371e-07
-2.15219e-07
1.09628e-06
-3.17268e-07
-2.03009e-07
1.11568e-06
-3.03408e-07
-1.93654e-07
1.12801e-06
-2.90157e-07
-1.88967e-07
1.1366e-06
-2.76831e-07
-1.89398e-07
1.14079e-06
-2.64419e-07
-1.92064e-07
1.13778e-06
-2.53842e-07
-1.93942e-07
1.12907e-06
-2.44766e-07
-1.98394e-07
1.12597e-06
-2.35703e-07
-2.12531e-07
1.13606e-06
-2.25309e-07
-2.40126e-07
1.15393e-06
-2.14185e-07
-2.79081e-07
1.16839e-06
-2.03262e-07
-3.23931e-07
1.17238e-06
-1.93744e-07
-3.66171e-07
1.16066e-06
-1.87742e-07
-3.98498e-07
1.13526e-06
-1.86384e-07
-4.24556e-07
1.11935e-06
-1.8676e-07
-4.60224e-07
1.13452e-06
-1.86452e-07
-5.14111e-07
1.16662e-06
-1.90259e-07
-5.58536e-07
1.15034e-06
-2.07559e-07
-5.39528e-07
1.01291e-06
-2.50345e-07
-4.4129e-07
7.615e-07
-3.32243e-07
-3.82851e-07
5.63816e-07
-4.19855e-07
-5.97211e-07
6.16642e-07
-4.40135e-07
-1.62757e-06
7.89729e-07
-1.92842e-07
-6.18636e-06
6.5404e-07
1.47133e-06
-2.07012e-05
-2.28855e-06
6.74506e-06
-3.88148e-05
-1.13013e-05
9.72026e-06
-4.62541e-05
-1.93657e-05
5.08058e-06
-4.62635e-05
-2.24229e-05
2.27976e-06
-4.02245e-05
-1.9179e-05
1.53262e-06
-3.46022e-05
-3.88571e-06
3.73188e-06
-3.35912e-05
1.00456e-05
5.02347e-06
-3.29229e-05
1.65533e-05
3.64587e-06
-3.08599e-05
2.02627e-05
1.59074e-06
-2.81791e-05
2.29415e-05
2.12609e-06
-1.937e-05
2.88317e-05
-3.76715e-06
1.34134e-06
3.77926e-05
-1.14865e-05
6.89518e-07
-1.52e-06
-1.87914e-06
9.21021e-06
4.82516e-06
-1.35749e-05
-1.69489e-06
-1.57443e-06
6.27145e-06
-8.45536e-06
3.07559e-06
2.92368e-06
-2.00622e-05
7.46964e-06
7.10119e-06
-2.68236e-05
1.15061e-06
3.83873e-06
-2.97958e-05
2.65847e-07
2.52251e-06
-3.07214e-05
4.16964e-07
1.63205e-06
-3.27462e-05
3.89893e-06
1.99889e-06
-3.75704e-05
4.66207e-06
3.55693e-06
-4.36646e-05
3.2618e-06
2.92071e-06
-4.75468e-05
1.23843e-06
1.16286e-06
-4.92304e-05
1.15011e-06
2.01068e-08
-4.85732e-05
1.47885e-06
-1.12881e-06
-4.6872e-05
2.52944e-06
-2.4079e-06
-4.46626e-05
3.55497e-06
-3.45666e-06
-4.10777e-05
3.91695e-06
-4.34365e-06
-3.64755e-05
3.43354e-06
-4.32875e-06
-3.06848e-05
2.38692e-06
-3.39082e-06
-2.48148e-05
7.0386e-07
-1.55286e-06
-1.99082e-05
-7.43923e-07
2.49575e-07
-1.63909e-05
-1.73538e-06
2.54603e-06
-1.36834e-05
-1.29135e-06
3.77062e-06
-1.10577e-05
-7.41754e-07
4.45435e-06
-8.51412e-06
-1.2481e-06
4.91241e-06
-6.18133e-06
-6.42358e-07
4.84751e-06
-4.5362e-06
1.05211e-06
4.82421e-06
-4.25785e-06
5.36881e-06
4.14879e-06
-5.3848e-06
1.01347e-05
3.4864e-06
-7.05364e-06
1.29352e-05
3.11755e-06
-9.15195e-06
1.60571e-05
1.71033e-06
-1.13711e-05
1.73134e-05
2.55424e-07
-1.07819e-05
1.49866e-05
-2.52866e-06
-6.06876e-06
1.18224e-05
-5.71723e-06
-1.71267e-06
1.49316e-05
-7.51346e-06
1.1946e-06
2.10933e-05
-1.04271e-05
3.15637e-05
-9.50891e-06
-4.13314e-06
-3.54245e-06
1.52393e-06
-3.66081e-06
-4.83533e-06
-5.72509e-07
-3.50906e-06
-3.78624e-06
-1.48507e-07
-1.9058e-06
-3.85334e-06
-1.57394e-06
-7.25616e-07
-3.04618e-06
-5.8414e-07
-1.43218e-07
-1.29935e-06
-4.2226e-08
-1.17143e-07
3.88741e-07
-8.74611e-08
-2.80807e-07
5.34032e-07
-2.07589e-08
-2.72864e-07
7.58354e-07
-2.1867e-07
-2.09127e-07
9.81505e-07
-2.23633e-07
-1.1321e-07
1.30107e-06
-2.42525e-07
-9.9109e-08
1.55838e-06
-1.70097e-07
-9.30336e-08
1.49547e-06
-2.06686e-07
-1.05128e-07
1.25231e-06
-2.71299e-07
-1.38166e-07
1.14172e-06
-3.37265e-07
-1.86538e-07
1.13871e-06
-3.91208e-07
-2.32228e-07
1.22797e-06
-4.27999e-07
-2.74706e-07
1.33936e-06
-4.50576e-07
-3.16826e-07
1.4348e-06
-4.66977e-07
-3.51091e-07
1.49194e-06
-4.7712e-07
-3.70045e-07
1.52463e-06
-4.8299e-07
-3.77857e-07
1.54631e-06
-4.85499e-07
-3.78119e-07
1.56163e-06
-4.85177e-07
-3.73793e-07
1.5746e-06
-4.82658e-07
-3.67086e-07
1.58681e-06
-4.77849e-07
-3.61668e-07
1.59552e-06
-4.72928e-07
-3.59023e-07
1.60157e-06
-4.67618e-07
-3.59093e-07
1.60343e-06
-4.62576e-07
-3.60815e-07
1.5981e-06
-4.586e-07
-3.62806e-07
1.58727e-06
-4.56207e-07
-3.71981e-07
1.58788e-06
-4.52729e-07
-3.96524e-07
1.60673e-06
-4.46127e-07
-4.35841e-07
1.63226e-06
-4.39014e-07
-4.82262e-07
1.64906e-06
-4.34264e-07
-5.26301e-07
1.64997e-06
-4.33561e-07
-5.5765e-07
1.63141e-06
-4.39409e-07
-5.71196e-07
1.60006e-06
-4.51257e-07
-5.74674e-07
1.58643e-06
-4.63611e-07
-5.8145e-07
1.61577e-06
-4.74491e-07
-6.01082e-07
1.67608e-06
-4.89845e-07
-6.05606e-07
1.67973e-06
-5.24887e-07
-5.48052e-07
1.54914e-06
-5.93809e-07
-4.34464e-07
1.34644e-06
-6.98554e-07
-3.74063e-07
1.30397e-06
-8.00585e-07
-5.68129e-07
1.64765e-06
-8.36973e-07
-1.42864e-06
2.29115e-06
-6.40942e-07
-5.96348e-06
4.35167e-06
8.37202e-07
-2.27826e-05
8.54956e-06
5.98103e-06
-4.84715e-05
4.61409e-06
9.77346e-06
-6.25975e-05
-1.13383e-05
6.09867e-06
-6.83116e-05
-1.8502e-05
1.79331e-06
-6.90545e-05
-1.96834e-05
1.24744e-06
-6.14366e-05
-1.42598e-05
2.75628e-06
-5.3937e-05
-3.23619e-06
5.78232e-06
-4.92526e-05
4.1309e-06
7.73804e-06
-4.48164e-05
8.6043e-06
7.22233e-06
-4.33508e-05
1.08242e-05
1.06517e-05
-3.43069e-05
1.45162e-05
5.27138e-06
3.00074e-06
1.18875e-05
-1.14037e-05
-9.68797e-07
6.11547e-06
-3.66564e-06
-1.45732e-05
2.54101e-05
-6.9791e-06
-3.38267e-05
5.15572e-06
1.25255e-05
-4.59584e-05
9.82297e-06
5.38638e-06
-5.01283e-05
5.45488e-06
6.18712e-06
-5.27306e-05
-6.45112e-07
4.40067e-06
-5.25115e-05
-3.86904e-06
3.91836e-06
-5.11104e-05
-4.71589e-06
3.73458e-06
-4.99521e-05
-1.30494e-06
4.04841e-06
-5.10724e-05
1.50107e-06
4.28422e-06
-5.36871e-05
1.8947e-06
3.98502e-06
-5.68478e-05
1.41056e-06
2.99184e-06
-5.8133e-05
3.47006e-07
2.09173e-06
-5.73435e-05
-5.59913e-07
1.25277e-06
-5.56059e-05
5.1123e-08
7.44353e-07
-5.38206e-05
1.53717e-06
2.36061e-07
-5.07817e-05
2.00328e-06
-1.12158e-06
-4.66441e-05
1.02622e-06
-1.72662e-06
-4.18835e-05
-1.70805e-06
-6.62123e-07
-3.81742e-05
-4.71326e-06
1.71136e-06
-3.6371e-05
-7.12589e-06
4.58215e-06
-3.55856e-05
-8.53318e-06
6.01593e-06
-3.52248e-05
-8.47535e-06
6.8266e-06
-3.41253e-05
-8.4106e-06
6.57284e-06
-3.13836e-05
-9.76896e-06
5.78271e-06
-2.70381e-05
-1.04677e-05
5.48329e-06
-2.20819e-05
-8.46542e-06
4.56487e-06
-1.8532e-05
-2.90775e-06
4.73028e-06
-1.85357e-05
4.39034e-06
5.75212e-06
-2.06778e-05
8.87241e-06
6.20942e-06
-2.51508e-05
1.4894e-05
5.64137e-06
-3.03725e-05
1.85915e-05
3.94949e-06
-3.22745e-05
1.89924e-05
-2.09755e-06
-2.85994e-05
1.614e-05
-7.98634e-06
-2.06303e-05
1.8912e-05
-1.19435e-05
-1.27005e-05
2.63092e-05
-1.31406e-05
3.20021e-05
-1.31367e-05
-3.78883e-06
-2.26545e-06
2.59033e-06
-3.94211e-06
-4.49152e-06
-1.90512e-07
-4.31364e-06
-3.67493e-06
2.60222e-07
-2.85726e-06
-3.9852e-06
-1.32451e-06
-1.58397e-06
-3.58288e-06
-7.36589e-07
-2.58567e-07
-2.37262e-06
-2.52136e-07
1.51625e-07
-2.11094e-07
1.89634e-07
-1.17972e-07
2.94281e-07
5.09338e-07
-1.99717e-07
6.78572e-07
1.61517e-07
-2.17993e-07
8.73018e-07
1.26753e-07
-9.1664e-08
1.16792e-06
6.80708e-09
3.33156e-08
1.34758e-06