/*--------------------------------*- C++ -*----------------------------------*\
| =========                 |                                                 |
| \\      /  F ield         | OpenFOAM: The Open Source CFD Toolbox           |
|  \\    /   O peration     | Version:  2.3.0                                 |
|   \\  /    A nd           | Web:      www.OpenFOAM.org                      |
|    \\/     M anipulation  |                                                 |
\*---------------------------------------------------------------------------*/
FoamFile
{
    version     2.0;
    format      ascii;
    class       surfaceScalarField;
    location    "32";
    object      phi.air;
}
// * * * * * * * * * * * * * * * * * * * * * * * * * * * * * * * * * * * * * //

dimensions      [0 3 -1 0 0 0 0];

internalField   nonuniform List<scalar> 
16448
(
-9.50667e-07
-2.53098e-06
4.24565e-07
1.08851e-06
-2.60062e-06
5.61442e-07
1.00398e-06
-9.6251e-07
1.04704e-06
8.54165e-07
-9.1377e-07
1.06359e-06
4.31078e-07
-5.56245e-07
9.79339e-07
1.81284e-07
-6.32046e-07
8.81848e-07
1.02577e-08
-5.3137e-07
7.02403e-07
-6.15076e-08
-4.99515e-07
5.71286e-07
-1.74444e-07
-3.75543e-07
4.88484e-07
-3.52485e-07
-2.85963e-07
4.64008e-07
-5.19244e-07
-2.35213e-07
4.01976e-07
-5.94804e-07
-2.57205e-07
3.3277e-07
-5.76419e-07
-3.11061e-07
2.92682e-07
-4.68247e-07
-3.65351e-07
2.57185e-07
-3.39776e-07
-3.96386e-07
2.67922e-07
-2.03598e-07
-4.23525e-07
2.87354e-07
-9.31137e-08
-4.35084e-07
3.24607e-07
-7.81833e-09
-4.47533e-07
3.62246e-07
4.63308e-08
-4.56795e-07
4.02654e-07
7.36409e-08
-4.6468e-07
4.3738e-07
8.19943e-08
-4.71562e-07
4.63218e-07
7.78337e-08
-4.73705e-07
4.77876e-07
6.61639e-08
-4.71618e-07
4.83299e-07
5.06806e-08
-4.65972e-07
4.81468e-07
3.40534e-08
-4.57448e-07
4.74089e-07
1.83281e-08
-4.46787e-07
4.62528e-07
4.50062e-09
-4.34013e-07
4.47855e-07
-6.60921e-09
-4.1979e-07
4.30916e-07
-1.24118e-08
-4.07657e-07
4.13477e-07
-1.09369e-08
-3.96686e-07
3.9523e-07
-2.22351e-09
-3.85485e-07
3.7679e-07
1.09958e-08
-3.72555e-07
3.59356e-07
2.61877e-08
-3.57639e-07
3.42467e-07
4.50852e-08
-3.42509e-07
3.23634e-07
7.50565e-08
-3.30758e-07
3.00808e-07
1.24913e-07
-3.25087e-07
2.75255e-07
1.96274e-07
-3.25784e-07
2.54447e-07
2.80577e-07
-3.31608e-07
2.47331e-07
3.6351e-07
-3.40947e-07
2.58038e-07
4.30679e-07
-3.52948e-07
2.85807e-07
4.63858e-07
-3.63934e-07
3.30781e-07
4.41722e-07
-3.74845e-07
3.9701e-07
3.50385e-07
-3.90492e-07
4.81857e-07
2.78856e-07
-4.60692e-07
5.32251e-07
3.69809e-07
-6.28701e-07
5.37777e-07
7.24884e-07
-8.91809e-07
5.36764e-07
1.30879e-06
-1.21241e-06
6.28533e-07
2.13946e-06
-1.82116e-06
9.90513e-07
2.85121e-06
-2.23192e-06
1.52019e-06
3.13739e-06
-2.17503e-06
1.88888e-06
3.37303e-06
-2.36227e-06
2.12664e-06
3.78027e-06
-2.13196e-06
1.72473e-06
7.42647e-06
-5.42069e-06
1.7745e-06
1.11957e-05
-5.86924e-06
2.10006e-06
1.32141e-05
-3.89435e-06
1.87588e-06
1.50089e-05
-3.11616e-06
1.32141e-06
1.05034e-05
2.63131e-06
1.87411e-06
9.55875e-06
3.68923e-06
-2.74481e-06
-1.22435e-05
1.43929e-05
6.92534e-06
-3.27848e-05
-4.88796e-06
-7.12473e-06
-6.36375e-05
-1.71428e-05
1.36904e-06
-1.57739e-05
-2.69291e-06
7.52749e-06
2.78732e-05
-2.5891e-06
5.89852e-06
2.79394e-05
-5.30682e-06
5.68572e-06
2.60305e-05
-3.58178e-06
5.4624e-06
2.30582e-05
-2.75e-06
5.56259e-06
1.96065e-05
-1.80138e-06
5.177e-06
1.77014e-05
-2.0557e-06
3.95851e-06
1.5931e-05
-7.83465e-07
2.52701e-06
1.27592e-05
7.41265e-07
2.32066e-06
9.0186e-06
1.36866e-06
2.33777e-06
6.1657e-06
1.50447e-06
1.35672e-06
5.25299e-06
7.14749e-07
1.53803e-07
4.68045e-06
9.89339e-07
-4.43017e-07
2.58975e-06
2.71034e-06
-5.74849e-07
-2.12116e-06
4.73459e-06
-4.51048e-08
-8.62023e-06
5.37641e-06
1.14436e-06
-1.30894e-05
2.82004e-06
1.6954e-06
-1.61384e-05
1.28257e-06
1.8173e-06
-1.7305e-05
-7.07537e-07
1.84319e-06
-1.72061e-05
-2.40249e-06
2.25243e-06
-1.76594e-05
-2.84862e-06
3.27955e-06
-1.79257e-05
-3.30394e-06
3.54932e-06
-1.7875e-05
-3.45769e-06
3.38883e-06
-1.76303e-05
-2.96122e-06
2.70026e-06
-1.71696e-05
-2.732e-06
2.24213e-06
-1.69175e-05
-2.03379e-06
1.74433e-06
-1.65593e-05
-1.47249e-06
1.1022e-06
-1.5929e-05
-1.39319e-06
7.6764e-07
-1.52223e-05
-9.26287e-07
2.12007e-07
-1.45428e-05
-4.63863e-07
-2.30418e-07
-1.37768e-05
-8.47208e-08
-6.80138e-07
-1.29986e-05
3.05718e-07
-1.01473e-06
-1.10637e-05
8.27136e-07
-2.79042e-06
-8.24697e-06
1.19281e-06
-3.99061e-06
-7.43945e-07
-6.70998e-06
-1.67871e-06
-3.57396e-06
-2.32994e-07
-1.41634e-07
-3.85864e-06
-2.79047e-07
1.1603e-07
-1.78163e-06
5.61465e-07
2.20664e-07
-1.52447e-06
5.0608e-07
1.68724e-07
-8.57905e-07
3.53618e-07
1.30061e-07
-7.97066e-07
2.03699e-07
6.87013e-08
-5.30453e-07
6.04584e-08
-6.16497e-08
-4.38353e-07
6.92022e-08
-2.86042e-07
-2.38242e-07
8.71038e-08
-5.44495e-07
-1.40744e-07
1.13245e-07
-7.27479e-07
-1.08065e-07
5.58461e-08
-7.92564e-07
-1.80914e-07
-1.11934e-08
-7.59999e-07
-2.75936e-07
-6.76763e-08
-6.44681e-07
-3.71993e-07
-1.0866e-07
-5.01505e-07
-4.27953e-07
-1.11593e-07
-3.47717e-07
-4.74183e-07
-1.03115e-07
-2.16486e-07
-4.89798e-07
-7.64998e-08
-1.07984e-07
-5.05731e-07
-5.02861e-08
-3.10063e-08
-5.12509e-07
-2.12448e-08
1.50342e-08
-5.15046e-07
4.34492e-09
3.92943e-08
-5.14107e-07
1.83065e-08
4.73406e-08
-5.08377e-07
2.6649e-08
4.43011e-08
-4.98207e-07
2.96527e-08
3.4473e-08
-4.84421e-07
2.83029e-08
2.12977e-08
-4.67963e-07
2.3717e-08
7.4876e-09
-4.49612e-07
1.66629e-08
-5.25244e-09
-4.29336e-07
8.09352e-09
-1.52318e-08
-4.07722e-07
-2.05692e-09
-1.80766e-08
-3.87621e-07
-1.71583e-08
-1.2569e-08
-3.7009e-07
-3.20687e-08
7.83862e-10
-3.52189e-07
-4.66125e-08
1.95943e-08
-3.31171e-07
-6.01571e-08
4.23733e-08
-3.07317e-07
-7.30618e-08
7.04556e-08
-2.84287e-07
-8.62637e-08
1.07567e-07
-2.68435e-07
-9.93924e-08
1.56333e-07
-2.62955e-07
-1.10855e-07
2.15104e-07
-2.67674e-07
-1.16837e-07
2.78209e-07
-2.80588e-07
-1.1408e-07
3.36209e-07
-2.97526e-07
-1.01375e-07
3.81345e-07
-3.20315e-07
-7.77222e-08
4.01656e-07
-3.44539e-07
-3.96574e-08
3.88105e-07
-3.71673e-07
1.04263e-08
3.74959e-07
-4.25333e-07
4.80374e-08
4.83574e-07
-6.00061e-07
3.08033e-08
8.00083e-07
-8.80255e-07
-6.49044e-08
1.31616e-06
-1.26325e-06
-1.44581e-07
1.76054e-06
-1.6734e-06
1.66595e-08
2.05299e-06
-2.64971e-06
5.36141e-07
2.40135e-06
-3.68453e-06
1.1043e-06
3.24847e-06
-4.19118e-06
1.16906e-06
6.19085e-06
-5.48191e-06
1.77307e-07
1.17901e-05
-6.42497e-06
-1.30622e-06
1.62649e-05
-9.17941e-06
-7.16059e-07
1.73556e-05
-7.71024e-06
7.50293e-07
1.70871e-05
-4.05643e-06
4.305e-07
1.78968e-05
-3.34421e-06
-5.81623e-07
1.60733e-05
5.20204e-06
-7.47297e-07
1.92306e-05
7.92246e-06
-7.39006e-06
-5.15707e-06
2.80619e-05
1.02358e-05
-3.38425e-05
-5.56525e-06
-4.92565e-06
-7.3762e-05
-2.02805e-05
-1.18743e-06
-3.11853e-05
-5.45126e-06
1.31866e-05
2.95529e-06
-4.61435e-06
8.12808e-06
-2.83851e-06
-5.98574e-06
6.53158e-06
-4.02265e-06
-6.30485e-06
4.15771e-06
-5.75239e-06
-5.12032e-06
4.13385e-06
-6.62566e-06
-4.44534e-06
3.65927e-06
-7.76099e-06
-4.5602e-06
3.71805e-06
-7.89525e-06
-4.60712e-06
3.98629e-06
-7.66061e-06
-3.844e-06
4.33497e-06
-6.57403e-06
-1.90779e-06
2.20798e-06
-4.80503e-06
8.19693e-07
-1.03428e-06
-3.20075e-06
2.20051e-06
-3.08318e-06
-1.65107e-06
3.82036e-06
-4.29297e-06
-3.28154e-06
6.95371e-06
-2.61013e-06
-8.72837e-06
8.13496e-06
1.98998e-06
-1.12199e-05
5.90181e-06
1.93529e-06
-1.17394e-05
2.51601e-06
8.92414e-07
-1.08007e-05
-1.16868e-06
1.49904e-06
-9.444e-06
-3.99015e-06
1.84021e-06
-9.51469e-06
-5.45592e-06
3.04857e-06
-9.68387e-06
-5.94817e-06
3.23218e-06
-8.82254e-06
-6.50558e-06
2.37627e-06
-7.3793e-06
-6.5925e-06
1.78109e-06
-6.03304e-06
-5.45997e-06
1.23759e-06
-5.33893e-06
-3.94135e-06
5.70197e-07
-6.281e-06
-2.76122e-06
1.73837e-06
-8.39564e-06
-1.94479e-06
2.65677e-06
-1.0438e-05
-2.11509e-06
2.77344e-06
-1.1494e-05
-9.46294e-07
1.07366e-06
-1.15638e-05
-4.91604e-07
1.04284e-07
-1.12352e-05
-4.69884e-08
-3.43527e-07
-1.04804e-05
3.61135e-07
-7.43529e-07
-9.12823e-06
1.00652e-06
-1.53723e-06
-6.76035e-06
2.26831e-06
-3.29337e-06
1.44485e-06
-8.04789e-06
-2.19848e-06
-3.82397e-06
-4.82999e-07
-9.74757e-07
-4.2775e-06
-8.04849e-07
-5.7019e-07
-2.26079e-06
7.46052e-08
-3.21158e-07
-1.78386e-06
1.03777e-08
-2.53475e-07
-8.79867e-07
-4.57053e-08
-1.32542e-07
-7.62826e-07
-1.55158e-07
-4.86106e-08
-3.79213e-07
-2.35158e-07
-1.17799e-07
-1.98586e-07
-1.70567e-07
-3.09922e-07
6.48665e-08
-1.10976e-07
-5.265e-07
1.4776e-07
-7.19168e-08
-6.89639e-07
1.65526e-07
-1.10443e-07
-7.53844e-07
5.97092e-08
-1.76407e-07
-7.49741e-07
-4.26421e-08
-2.37386e-07
-6.89288e-07
-1.53091e-07
-2.79341e-07
-5.92248e-07
-2.23727e-07
-3.01253e-07
-4.76533e-07
-2.78498e-07
-3.11385e-07
-3.68301e-07
-2.93398e-07
-3.04618e-07
-2.69406e-07
-3.08449e-07
-2.9616e-07
-1.84876e-07
-3.1208e-07
-2.84942e-07
-1.18978e-07
-3.06847e-07
-2.74078e-07
-7.25899e-08
-2.95187e-07
-2.6529e-07
-4.27884e-08
-2.79194e-07
-2.58963e-07
-2.61963e-08
-2.59769e-07
-2.55008e-07
-1.92913e-08
-2.3791e-07
-2.53392e-07
-1.8312e-08
-2.15082e-07
-2.53835e-07
-1.96063e-08
-1.92223e-07
-2.56068e-07
-2.01212e-08
-1.69177e-07
-2.59616e-07
-1.73337e-08
-1.46496e-07
-2.63983e-07
-1.03722e-08
-1.25228e-07
-2.69324e-07
8.11044e-10
-1.06403e-07
-2.74838e-07
1.54763e-08
-8.68664e-08
-2.79954e-07
3.27684e-08
-6.40865e-08
-2.84341e-07
5.3081e-08
-3.97195e-08
-2.87874e-07
7.58851e-08
-1.77415e-08
-2.89312e-07
9.81805e-08
-2.86016e-09
-2.87831e-07
1.13195e-07
4.20397e-09
-2.82132e-07
1.17708e-07
8.19528e-10
-2.72965e-07
1.11704e-07
-1.05907e-08
-2.63951e-07
9.74635e-08
-2.86416e-08
-2.54601e-07
7.804e-08
-5.53674e-08
-2.4548e-07
5.63235e-08
-8.90718e-08
-2.33706e-07
4.37293e-08
-1.3963e-07
-2.19402e-07
1.03091e-07
-2.56666e-07
-2.27983e-07
3.51012e-07
-5.33334e-07
-3.14599e-07
7.74306e-07
-8.87577e-07
-4.15926e-07
1.24604e-06
-1.29011e-06
-4.44826e-07
1.54099e-06
-1.75916e-06
-2.09138e-07
1.75169e-06
-3.16109e-06
3.00725e-07
3.46624e-06
-6.08358e-06
6.84537e-07
8.36804e-06
-9.60303e-06
5.10082e-07
1.53881e-05
-1.17828e-05
-7.19212e-07
2.0615e-05
-1.13508e-05
-3.0103e-07
2.08241e-05
-9.33586e-06
-5.26481e-08
1.685e-05
-4.55433e-06
8.18161e-07
1.23897e-05
2.86067e-07
1.1782e-07
1.06942e-05
2.64125e-07
-1.91273e-06
1.4248e-05
7.40035e-06
-5.75213e-06
2.12929e-05
1.09336e-05
-1.00558e-05
-3.452e-06
4.09586e-05
1.11418e-05
-3.69624e-05
-3.41637e-06
-5.35986e-06
-8.2095e-05
-2.08749e-05
-6.70836e-06
-3.80765e-05
-8.06673e-06
1.68336e-06
1.14046e-06
-5.96212e-06
4.91296e-06
-6.29553e-06
-5.39988e-06
6.58686e-06
-7.55172e-06
-7.28355e-06
2.32902e-06
-8.30043e-06
-5.77213e-06
1.20119e-06
-8.6666e-06
-3.91467e-06
-2.24738e-07
-1.07015e-05
-2.81573e-06
2.36176e-07
-1.32938e-05
-2.839e-06
7.7542e-07
-1.45103e-05
-2.5171e-06
-1.425e-07
-1.4346e-05
-5.9393e-07
-1.4712e-06
-1.4061e-05
3.05579e-06
-2.45905e-06
-1.47347e-05
5.63408e-06
-2.82341e-06
-1.61415e-05
7.01997e-06
-1.78477e-06
-1.7129e-05
7.53642e-06
4.87875e-07
-1.80668e-05
6.39679e-06
2.64511e-06
-1.74445e-05
2.62386e-06
2.5514e-06
-1.67365e-05
-2.4472e-07
1.99976e-06
-1.5493e-05
-3.21419e-06
6.484e-07
-1.3942e-05
-5.73721e-06
1.19457e-07
-1.19576e-05
-7.0115e-06
-4.70376e-07
-9.22111e-06
-7.12224e-06
-1.54234e-06
-6.4422e-06
-6.11259e-06
-3.16916e-06
-3.94536e-06
-4.92259e-06
-4.11622e-06
-1.56906e-06
-3.31591e-06
-4.44151e-06
1.69519e-07
-1.37709e-06
-4.27083e-06
1.10492e-06
-2.92867e-07
-3.39137e-06
1.02504e-06
8.10165e-07
-2.6422e-06
-1.81749e-06
1.11029e-06
-3.5273e-07
-5.18382e-06
1.78607e-06
6.56224e-07
-7.64285e-06
2.08233e-06
-1.09589e-07
-9.30161e-06
1.87188e-06
-2.5545e-07
-8.98019e-06
1.35481e-06
-1.27019e-06
-7.7548e-06
1.84325e-06
-2.13689e-06
-5.84567e-06
4.18679e-06
-3.74593e-06
4.94494e-06
-8.36811e-06
-2.60048e-06
-3.85472e-06
-2.78001e-07
-1.4261e-06
-4.43487e-06
-1.017e-06
-1.06158e-06
-2.6329e-06
7.59732e-09
-7.02516e-07
-2.11163e-06
-3.12746e-08
-5.75178e-07
-9.11645e-07
-9.55437e-08
-4.01506e-07
-7.39499e-07
-1.96984e-07
-2.29535e-07
-2.52214e-07
-2.98957e-07
-1.44759e-07
-2.5743e-08
-2.57609e-07
-1.68494e-07
3.00255e-07
-2.11644e-07
-2.98503e-07
4.33347e-07
-1.5557e-07
-4.57023e-07
4.97235e-07
-1.73179e-07
-5.91242e-07
4.09789e-07
-2.15851e-07
-6.71369e-07
3.02202e-07
-2.64706e-07
-6.72676e-07
1.61157e-07
-3.1293e-07
-6.19733e-07
6.7232e-08
-3.43888e-07
-5.32627e-07
4.99341e-09
-3.70584e-07
-4.43332e-07
1.82797e-10
-3.82859e-07
-3.58216e-07
-1.67849e-09
-3.9187e-07
-2.79456e-07
5.76556e-09
-3.96588e-07
-2.08374e-07
1.92189e-08
-3.97129e-07
-1.50125e-07
3.91775e-08
-3.92594e-07
-1.05233e-07
6.19258e-08
-3.85992e-07
-7.25359e-08
8.67719e-08
-3.79215e-07
-5.07128e-08
1.13679e-07
-3.73389e-07
-3.72665e-08
1.40895e-07
-3.69398e-07
-2.8758e-08
1.66489e-07
-3.67194e-07
-2.27146e-08
1.9091e-07
-3.66102e-07
-1.7143e-08
2.13481e-07
-3.65521e-07
-1.00726e-08
2.33076e-07
-3.65343e-07
-1.14971e-09
2.4996e-07
-3.65255e-07
8.90937e-09
2.67906e-07
-3.64797e-07
1.91463e-08
2.89936e-07
-3.64225e-07
2.90667e-08
3.13027e-07
-3.6263e-07
3.68635e-08
3.33267e-07
-3.58769e-07
3.7392e-08
3.47654e-07
-3.51004e-07
2.72497e-08
3.54351e-07
-3.39966e-07
7.0305e-09
3.49782e-07
-3.28702e-07
-2.03083e-08
3.35507e-07
-3.18718e-07
-5.46562e-08
3.17205e-07
-3.11456e-07
-1.00724e-07
2.94939e-07
-3.04197e-07
-1.53109e-07
2.61341e-07
-2.97983e-07
-1.80209e-07
1.88863e-07
-3.01349e-07
-1.10986e-07
1.18031e-08
-3.37647e-07
1.21473e-07
-3.35382e-07
-4.30366e-07
5.02403e-07
-7.54504e-07
-5.13957e-07
9.37551e-07
-1.23622e-06
-4.88998e-07
1.3505e-06
-1.96964e-06
-2.02426e-07
2.98745e-06
-5.31035e-06
5.12339e-07
8.15281e-06
-1.27784e-05
1.52944e-06
1.54992e-05
-1.93526e-05
2.40318e-06
2.08093e-05
-1.87618e-05
1.66891e-06
2.18081e-05
-1.31324e-05
7.82732e-07
1.87757e-05
-5.62901e-06
-6.74443e-07
1.2238e-05
3.10092e-06
-1.1175e-06
6.25237e-06
8.91224e-06
-2.64055e-06
-1.50346e-06
1.12019e-05
-3.18182e-06
6.6524e-06
9.25024e-06
-1.00058e-05
1.27e-05
1.80592e-05
-1.31731e-05
-2.77807e-06
5.4472e-05
8.86909e-07
-3.9155e-05
-3.3031e-06
-3.18493e-06
-8.74898e-05
-1.56846e-05
-8.21633e-06
-4.07184e-05
-5.48608e-06
3.0487e-06
-3.29301e-06
-3.37973e-06
3.17602e-06
-1.05292e-05
-3.60746e-06
5.14235e-06
-1.30958e-05
-5.18004e-06
1.27588e-06
-1.435e-05
-3.4293e-06
5.62449e-07
-1.54633e-05
-1.48937e-06
1.45375e-07
-1.80722e-05
-1.02853e-06
1.38075e-06
-2.10856e-05
-2.04843e-06
1.28837e-06
-2.27478e-05
-1.6853e-06
5.07714e-07
-2.35837e-05
4.20869e-07
-9.34448e-08
-2.51163e-05
2.80811e-06
2.81512e-06
-2.63088e-05
4.01094e-06
1.55831e-06
-2.7355e-05
3.83329e-06
2.50493e-06
-2.78614e-05
2.8469e-06
3.16245e-06
-2.64663e-05
6.49739e-07
2.72792e-06
-2.42592e-05
-1.46335e-06
1.25267e-06
-2.17695e-05
-2.63749e-06
-1.22902e-07
-1.86048e-05
-3.20394e-06
-2.46317e-06
-1.52273e-05
-3.21332e-06
-4.56691e-06
-1.15304e-05
-4.42051e-06
-6.38468e-06
-8.55035e-06
-2.7453e-06
-7.44682e-06
-5.70797e-06
-2.38258e-07
-8.7662e-06
-2.92056e-06
1.80434e-06
-9.52097e-06
-8.569e-07
3.68531e-06
-9.0783e-06
5.30418e-07
5.01106e-06
-7.77489e-06
1.13266e-06
5.75851e-06
-6.66358e-06
6.95919e-07
6.9522e-06
-5.69421e-06
-1.79216e-06
7.84794e-06
-4.22976e-06
-5.61651e-06
7.08301e-06
-1.45771e-06
-8.81247e-06
5.90719e-06
-5.71105e-07
-1.0765e-05
4.13795e-06
-2.01211e-07
-1.05114e-05
2.64089e-06
-1.38799e-06
-8.62917e-06
2.86046e-06
-2.93483e-06
-5.81332e-06
5.9954e-06
-4.44815e-06
1.0279e-05
-1.00595e-05
-3.05075e-06
-3.90499e-06
6.65463e-08
-1.85906e-06
-4.5842e-06
-1.04234e-06
-1.46471e-06
-3.08091e-06
5.36612e-08
-8.59831e-07
-2.68826e-06
-2.8231e-08
-6.37446e-07
-1.14491e-06
1.08938e-08
-5.58233e-07
-7.07952e-07
-1.10745e-07
-4.52633e-07
-9.70068e-08
-2.60798e-07
-2.73176e-07
7.93941e-08
-2.84585e-07
-1.14317e-07
4.19649e-07
-2.78247e-07
-1.19738e-07
6.52835e-07
-2.14061e-07
-2.32703e-07
7.95906e-07
-1.857e-07
-4.24259e-07
7.80576e-07
-1.79223e-07
-5.76719e-07
6.5612e-07
-2.01449e-07
-6.34229e-07
4.62863e-07
-2.44185e-07
-6.11161e-07
3.23651e-07
-2.79477e-07
-5.40349e-07
2.50087e-07
-3.15894e-07
-4.61436e-07
2.60162e-07
-3.38879e-07
-3.87177e-07
2.8309e-07
-3.59013e-07
-3.17935e-07
3.11061e-07
-3.74523e-07
-2.50037e-07
3.38557e-07
-3.87219e-07
-1.88419e-07
3.70324e-07
-3.92749e-07
-1.35054e-07
4.02167e-07
-3.93587e-07
-9.17701e-08
4.34683e-07
-3.91176e-07
-5.88756e-08
4.67037e-07
-3.8623e-07
-3.53919e-08
4.97359e-07
-3.79926e-07
-1.84309e-08
5.22937e-07
-3.73384e-07
-6.12073e-09
5.45031e-07
-3.66407e-07
3.44634e-09
5.6319e-07
-3.59248e-07
1.09561e-08
5.77501e-07
-3.51908e-07
1.67883e-08
5.88947e-07
-3.44789e-07
2.13164e-08
6.01114e-07
-3.37708e-07
2.35534e-08
6.17625e-07
-3.29895e-07
2.103e-08
6.36507e-07
-3.20926e-07
1.13258e-08
6.53287e-07
-3.10282e-07
-8.29858e-09
6.65078e-07
-2.97767e-07
-3.7833e-08
6.69008e-07
-2.85086e-07
-7.61859e-08
6.62609e-07
-2.7444e-07
-1.25487e-07
6.51743e-07
-2.66898e-07
-1.89761e-07
6.43522e-07
-2.62008e-07
-2.66394e-07
6.33013e-07
-2.61402e-07
-3.35956e-07
6.02996e-07
-2.72057e-07
-3.51318e-07
5.10822e-07
-3.06558e-07
-2.49781e-07
2.84577e-07
-3.74275e-07
-3.1299e-08
-1.02627e-07
-4.51198e-07
2.39314e-07
-5.22446e-07
-5.02636e-07
5.0555e-07
-1.09797e-06
-4.04453e-07
1.03813e-06
-2.61161e-06
1.09419e-07
3.81385e-06
-9.79781e-06
1.71175e-06
7.83714e-06
-2.14437e-05
4.64197e-06
7.13858e-06
-2.42449e-05
5.59091e-06
3.37225e-06
-1.94784e-05
4.48298e-06
-1.83649e-07
-1.01542e-05
5.77714e-07
-2.32166e-06
2.02483e-06
-5.51581e-06
-4.19311e-06
1.18296e-05
-6.85722e-06
-9.2851e-06
1.87427e-05
-4.73846e-06
-1.3788e-05
2.18061e-05
-6.1012e-06
-1.61782e-05
2.27054e-05
-1.10651e-05
-1.55396e-05
3.07039e-05
-1.3283e-05
-2.79413e-06
5.25667e-05
-1.23265e-05
-4.60743e-05
-5.08694e-06
-8.8788e-07
-0.000112722
-8.1037e-06
-1.04826e-05
-0.000110811
-4.57312e-06
3.05305e-06
-0.000115108
-2.46187e-06
2.97422e-06
-0.000121392
-2.30028e-06
6.06459e-06
-0.000125396
-4.00965e-06
4.08899e-06
-0.000130597
-1.17927e-06
3.55472e-06
-0.000134867
9.968e-08
3.80753e-06
-0.000140646
-5.22708e-08
4.51024e-06
-0.000145778
-2.33348e-06
5.21002e-06
-0.000148365
-2.93769e-06
5.07995e-06
-0.000148969
-1.23417e-06
4.85452e-06
-0.000149083
3.21039e-07
4.78436e-06
-0.000149469
1.18054e-06
3.83104e-06
-0.000149393
9.24884e-07
2.60644e-06
-0.0001489
2.47651e-07
7.7996e-07
-0.000147584
-4.4408e-07
-2.08285e-06
-0.000143618
-5.50651e-07
-5.5164e-06
-0.000135017
3.34382e-07
-8.44371e-06
-0.000113166
1.53915e-06
-1.00746e-05
-5.74568e-05
2.92296e-06
-1.13545e-05
-1.48793e-05
5.05293e-06
-1.20679e-05
-1.15117e-05
6.38237e-06
-1.19638e-05
-8.13029e-06
7.98956e-06
-1.09102e-05
-5.54999e-06
8.16176e-06
-9.02002e-06
-3.51575e-06
8.95801e-06
-7.34803e-06
-1.9636e-06
9.9934e-06
-6.54725e-06
-1.66062e-06
1.12739e-05
-5.88759e-06
-1.90015e-06
1.24183e-05
-5.22013e-06
-3.65642e-06
1.33377e-05
-3.68036e-06
-6.53239e-06
1.27262e-05
-2.74925e-06
-8.92852e-06
1.11473e-05
-2.88635e-06
-1.02057e-05
8.76071e-06
-3.41048e-06
-1.00175e-05
8.00284e-06
-4.17049e-06
-8.66489e-06
5.82387e-06
-4.41173e-06
-5.57212e-06
7.69244e-06
-4.65798e-06
1.49931e-05
-9.09714e-06
-3.50697e-06
-3.82701e-06
3.77522e-07
-2.48667e-06
-4.79386e-06
-8.10634e-07
-2.08001e-06
-3.55905e-06
7.1504e-08
-1.04544e-06
-3.41992e-06
-3.02907e-07
-5.39385e-07
-1.76823e-06
1.17285e-07
-5.07782e-07
-7.10996e-07
-2.85504e-08
-5.0133e-07
6.37984e-08
-1.67251e-07
-3.54265e-07
1.57533e-07
-2.25201e-07
-1.35907e-07
4.63831e-07
-2.62537e-07
-3.59259e-08
7.51795e-07
-1.98939e-07
-6.2256e-08
1.004e-06
-1.81759e-07
-2.82652e-07
1.13371e-06
-1.32737e-07
-4.88451e-07
1.00665e-06
-1.4472e-07
-5.67047e-07
7.29538e-07
-1.88073e-07
-5.47307e-07
5.42904e-07
-2.38986e-07
-4.77167e-07
4.65029e-07
-2.85074e-07
-4.04877e-07
4.99697e-07
-3.11815e-07
-3.50915e-07
5.61329e-07
-3.32193e-07
-3.08304e-07
6.17655e-07
-3.49195e-07
-2.66166e-07
6.60277e-07
-3.63848e-07
-2.23066e-07
6.98849e-07
-3.71613e-07
-1.80975e-07
7.33022e-07
-3.72933e-07
-1.41777e-07
7.64953e-07
-3.69454e-07
-1.07515e-07
7.95211e-07
-3.62422e-07
-8.14465e-08
8.24472e-07
-3.53166e-07
-6.32089e-08
8.47205e-07
-3.4249e-07
-5.17272e-08
8.64448e-07
-3.3088e-07
-4.53823e-08
8.75929e-07
-3.19067e-07
-4.22207e-08
8.81262e-07
-3.06902e-07
-4.02648e-08
8.82422e-07
-2.95412e-07
-4.04035e-08
8.85812e-07
-2.84537e-07
-4.59305e-08
8.96605e-07
-2.73432e-07
-6.00842e-08
9.12145e-07
-2.6146e-07
-8.41779e-08
9.26158e-07
-2.48755e-07
-1.17576e-07
9.33776e-07
-2.35275e-07
-1.55825e-07
9.30665e-07
-2.23385e-07
-1.94749e-07
9.16546e-07
-2.14987e-07
-2.40243e-07
9.06525e-07
-2.09265e-07
-3.02562e-07
9.12394e-07
-2.06526e-07
-3.81546e-07
9.22469e-07
-2.10449e-07
-4.48996e-07
8.98351e-07
-2.2788e-07
-4.47336e-07
7.81571e-07
-2.72388e-07
-3.36802e-07
5.27497e-07
-3.53429e-07
-1.98791e-07
2.02401e-07
-4.4302e-07
-2.05358e-07
-3.78484e-08
-4.78009e-07
-6.10522e-07
-4.33472e-07
-2.59312e-07
-1.61188e-06
-2.43342e-06
8.23163e-07
-5.83409e-06
-1.00583e-05
4.48272e-06
-1.72456e-05
-1.96947e-05
9.66259e-06
-2.77584e-05
-2.17245e-05
7.99239e-06
-2.82047e-05
-2.01526e-05
1.12057e-06
-2.40286e-05
-1.16075e-05
-2.7227e-06
-2.41618e-05
5.46842e-06
-3.3104e-06
-2.58503e-05
1.608e-05
-2.56178e-06
-2.86406e-05
2.08674e-05
6.65741e-07
-2.89108e-05
2.39163e-05
-1.84001e-06
-3.08168e-05
2.77483e-05
-3.13715e-06
-2.29166e-05
3.38737e-05
-1.10698e-05
-1.07859e-06
4.70184e-05
-1.77952e-05
-4.90591e-05
-4.41058e-06
-1.13789e-06
-0.000115668
-1.13355e-06
-1.12883e-05
-0.000112077
-3.49129e-06
3.66455e-06
-0.000116855
9.50353e-07
3.15241e-06
-0.000127106
2.23744e-06
6.7143e-06
-0.000134109
-7.91327e-07
4.67727e-06
-0.00014069
1.81335e-06
3.83767e-06
-0.000145149
2.25652e-06
2.80617e-06
-0.000151069
2.5517e-06
3.2641e-06
-0.00015866
2.65125e-07
4.29917e-06
-0.000164455
-1.49812e-06
3.23931e-06
-0.000166735
-1.35773e-06
1.74472e-06
-0.000167244
1.58057e-07
5.4141e-07
-0.000167141
1.33264e-06
-6.36996e-07
-0.000166618
2.22422e-06
-2.26992e-06
-0.000165433
2.93001e-06
-4.46528e-06
-0.000163649
3.79154e-06
-6.69274e-06
-0.000160982
4.57462e-06
-8.29995e-06
-0.000157367
5.66225e-06
-9.14773e-06
-0.000152319
5.74492e-06
-8.72329e-06
-0.000145337
5.76253e-06
-6.76758e-06
-0.000134897
5.99275e-06
-5.01091e-06
-0.000110715
6.752e-06
-3.19405e-06
-5.4153e-05
7.27925e-06
-1.29418e-06
-1.17802e-05
5.98051e-06
3.68315e-07
-8.52202e-06
6.71423e-06
1.36516e-06
-6.09153e-06
8.07353e-06
1.60365e-06
-5.16546e-06
1.05238e-05
1.68788e-06
-6.09402e-06
1.29614e-05
1.37168e-06
-8.11928e-06
1.45346e-05
7.45958e-07
-1.02613e-05
1.56395e-05
-1.46222e-06
-1.17082e-05
1.51523e-05
-3.69439e-06
-4.72059e-05
1.32925e-05
-5.66261e-06
-4.57149e-05
1.2257e-05
-7.02125e-06
-6.66549e-06
1.37448e-05
-8.11574e-06
-4.4112e-06
1.35097e-05
-8.04316e-06
2.09288e-05
-9.10676e-06
-3.97627e-06
-3.67855e-06
8.55763e-07
-3.16962e-06
-4.93551e-06
-6.64983e-07
-2.75296e-06
-3.78301e-06
-1.92696e-07
-1.30532e-06
-3.82402e-06
-1.04352e-06
-4.02849e-07
-2.45014e-06
-2.20551e-07
-2.67987e-07
-7.5917e-07
-8.66848e-08
-3.85638e-07
3.27359e-07
-1.4591e-07
-4.1707e-07
3.49616e-07
-1.60651e-07
-2.54838e-07
5.47633e-07
-2.46037e-07
-1.0127e-07
8.21616e-07
-2.2339e-07
-4.84565e-08
1.15447e-06
-2.03283e-07
-2.05106e-07
1.40239e-06
-1.12027e-07
-3.78206e-07
1.29486e-06
-1.15118e-07
-4.47684e-07
9.68922e-07
-1.69906e-07
-4.39045e-07
7.71426e-07
-2.3716e-07
-3.84363e-07
6.99139e-07
-2.88791e-07
-3.28056e-07
7.54284e-07
-3.10892e-07
-2.93376e-07
8.46309e-07
-3.19657e-07
-2.76463e-07
9.2571e-07
-3.24966e-07
-2.66808e-07
9.80565e-07
-3.29939e-07
-2.58032e-07
1.02269e-06
-3.32618e-07
-2.46559e-07
1.053e-06
-3.31447e-07
-2.31428e-07
1.0762e-06
-3.26371e-07
-2.15221e-07
1.09628e-06
-3.17268e-07
-2.0301e-07
1.11568e-06
-3.03408e-07
-1.93655e-07
1.12801e-06
-2.90157e-07
-1.88968e-07
1.1366e-06
-2.76831e-07
-1.89399e-07
1.14079e-06
-2.64419e-07
-1.92066e-07
1.13778e-06
-2.53842e-07
-1.93943e-07
1.12907e-06
-2.44766e-07
-1.98396e-07
1.12597e-06
-2.35703e-07
-2.12532e-07
1.13606e-06
-2.25309e-07
-2.40128e-07
1.15393e-06
-2.14185e-07
-2.79082e-07
1.16839e-06
-2.03262e-07
-3.23932e-07
1.17238e-06
-1.93744e-07
-3.66172e-07
1.16066e-06
-1.87742e-07
-3.98499e-07
1.13526e-06
-1.86384e-07
-4.24557e-07
1.11935e-06
-1.8676e-07
-4.60226e-07
1.13452e-06
-1.86452e-07
-5.14112e-07
1.16662e-06
-1.90259e-07
-5.58537e-07
1.15034e-06
-2.07559e-07
-5.3953e-07
1.01291e-06
-2.50345e-07
-4.41292e-07
7.615e-07
-3.32243e-07
-3.82852e-07
5.63816e-07
-4.19855e-07
-5.97213e-07
6.16642e-07
-4.40135e-07
-1.62758e-06
7.89729e-07
-1.92842e-07
-6.1864e-06
6.5404e-07
1.47133e-06
-2.07013e-05
-2.28855e-06
6.74507e-06
-3.88148e-05
-1.13013e-05
9.72026e-06
-4.62542e-05
-1.93657e-05
5.08058e-06
-4.62636e-05
-2.24229e-05
2.27976e-06
-4.02246e-05
-1.9179e-05
1.53262e-06
-3.46023e-05
-3.88571e-06
3.73188e-06
-3.35913e-05
1.00456e-05
5.02347e-06
-3.29231e-05
1.65533e-05
3.64588e-06
-3.08601e-05
2.02627e-05
1.59075e-06
-2.81796e-05
2.29414e-05
2.12609e-06
-1.93702e-05
2.88316e-05
-3.76716e-06
-2.75998e-08
3.77926e-05
-1.14865e-05
-5.24e-05
-1.83868e-06
-1.50648e-06
-0.000126642
4.07911e-06
-8.84412e-06
-0.000128563
9.53775e-07
7.18039e-06
-0.00013767
4.86062e-06
4.61578e-06
-0.000148527
6.26683e-06
7.51236e-06
-0.000154263
1.90703e-06
4.82318e-06
-0.00015822
2.04971e-06
4.13171e-06
-0.000159724
2.20965e-06
2.808e-06
-0.00016283
3.54224e-06
2.90408e-06
-0.000169517
2.79811e-06
3.68459e-06
-0.000175475
1.47751e-06
2.64276e-06
-0.000178249
2.92248e-07
1.26567e-06
-0.000179783
1.01368e-06
5.12385e-08
-0.000179455
1.42863e-06
-1.12056e-06
-0.000178115
2.438e-06
-2.49211e-06
-0.00017593
3.311e-06
-3.2758e-06
-0.000172328
3.48784e-06
-3.76123e-06
-0.000167883
3.02567e-06
-3.18552e-06
-0.000162733
1.89115e-06
-1.98305e-06
-0.000157965
4.3608e-07
-1.87168e-07
-0.000154279
-5.69813e-07
1.42276e-06
-0.000151305
-8.96464e-07
3.40872e-06
-0.000148572
-2.65018e-07
4.45104e-06
-0.000145204
2.26186e-07
5.27214e-06
-0.000142163
4.98852e-07
5.64147e-06
-0.000139943
2.10758e-06
5.56856e-06
-0.000138213
5.05276e-06
5.29331e-06
-0.000137883
9.2469e-06
4.53934e-06
-0.000139033
1.28169e-05
3.92629e-06
-0.000141299
1.5172e-05
2.98261e-06
-0.000143824
1.73547e-05
8.37133e-07
-0.00014538
1.71035e-05
-1.38468e-06
-0.000140485
1.55728e-05
-4.60826e-06
-0.00011402
1.60744e-05
-7.42045e-06
-4.80298e-05
2.0206e-05
-9.00185e-06
-8.379e-08
2.46747e-05
-1.05613e-05
3.32244e-05
-9.53974e-06
-4.13314e-06
-3.54245e-06
1.52393e-06
-3.66081e-06
-4.83533e-06
-5.72509e-07
-3.50906e-06
-3.78624e-06
-1.48507e-07
-1.9058e-06
-3.85334e-06
-1.57394e-06
-7.25617e-07
-3.04618e-06
-5.8414e-07
-1.43218e-07
-1.29935e-06
-4.2226e-08
-1.17144e-07
3.88741e-07
-8.74611e-08
-2.80808e-07
5.34032e-07
-2.07589e-08
-2.72865e-07
7.58354e-07
-2.1867e-07
-2.09128e-07
9.81505e-07
-2.23633e-07
-1.13212e-07
1.30107e-06
-2.42525e-07
-9.91102e-08
1.55838e-06
-1.70097e-07
-9.30349e-08
1.49547e-06
-2.06686e-07
-1.05129e-07
1.25231e-06
-2.71299e-07
-1.38167e-07
1.14172e-06
-3.37265e-07
-1.86539e-07
1.13871e-06
-3.91208e-07
-2.32229e-07
1.22797e-06
-4.27999e-07
-2.74708e-07
1.33936e-06
-4.50576e-07
-3.16828e-07
1.4348e-06
-4.66977e-07
-3.51092e-07
1.49194e-06
-4.7712e-07
-3.70047e-07
1.52463e-06
-4.8299e-07
-3.77858e-07
1.54631e-06
-4.85499e-07
-3.7812e-07
1.56163e-06
-4.85177e-07
-3.73794e-07
1.5746e-06
-4.82658e-07
-3.67088e-07
1.58681e-06
-4.77849e-07
-3.61669e-07
1.59552e-06
-4.72928e-07
-3.59025e-07
1.60157e-06
-4.67618e-07
-3.59094e-07
1.60343e-06
-4.62576e-07
-3.60817e-07
1.5981e-06
-4.586e-07
-3.62807e-07
1.58727e-06
-4.56207e-07
-3.71982e-07
1.58788e-06
-4.52729e-07
-3.96526e-07
1.60673e-06
-4.46127e-07
-4.35843e-07
1.63226e-06
-4.39014e-07
-4.82264e-07
1.64906e-06
-4.34264e-07
-5.26303e-07
1.64997e-06
-4.33561e-07
-5.57652e-07
1.63141e-06
-4.39409e-07
-5.71197e-07
1.60006e-06
-4.51257e-07
-5.74676e-07
1.58643e-06
-4.63611e-07
-5.81451e-07
1.61577e-06
-4.74491e-07
-6.01083e-07
1.67608e-06
-4.89845e-07
-6.05608e-07
1.67973e-06
-5.24887e-07
-5.48053e-07
1.54914e-06
-5.93809e-07
-4.34466e-07
1.34644e-06
-6.98554e-07
-3.74064e-07
1.30397e-06
-8.00585e-07
-5.68131e-07
1.64765e-06
-8.36973e-07
-1.42864e-06
2.29115e-06
-6.40942e-07
-5.96353e-06
4.35167e-06
8.37202e-07
-2.27827e-05
8.54956e-06
5.98103e-06
-4.84716e-05
4.61409e-06
9.77347e-06
-6.25976e-05
-1.13383e-05
6.09868e-06
-6.83117e-05
-1.8502e-05
1.79332e-06
-6.90547e-05
-1.96834e-05
1.24745e-06
-6.14368e-05
-1.42598e-05
2.75628e-06
-5.39372e-05
-3.23621e-06
5.78232e-06
-4.92528e-05
4.13089e-06
7.73805e-06
-4.48166e-05
8.60429e-06
7.22233e-06
-4.33513e-05
1.08242e-05
1.06518e-05
-3.43071e-05
1.45162e-05
5.27139e-06
2.73411e-07
1.18877e-05
-1.14037e-05
-6.83193e-05
6.18774e-06
-2.98068e-06
-0.000174673
2.21951e-05
-7.62437e-07
-0.000180639
6.61629e-06
1.11197e-05
-0.000188957
8.89782e-06
6.66807e-06
-0.000196196
3.83839e-06
7.3169e-06
-0.000197914
-9.6504e-07
6.25963e-06
-0.000198599
-2.54324e-06
5.91099e-06
-0.000199088
-2.48342e-06
5.28938e-06
-0.000200491
2.18406e-07
5.10167e-06
-0.000202278
1.32204e-06
4.89692e-06
-0.000206041
1.20582e-06
4.33601e-06
-0.00020991
2.15052e-07
3.8407e-06
-0.000210673
-4.95184e-07
3.01121e-06
-0.000210323
-7.55372e-07
2.27199e-06
-0.000209835
4.72273e-08
1.74072e-06
-0.000208579
1.17102e-06
1.17368e-06
-0.000206143
7.82859e-07
2.76645e-07
-0.000202988
-6.99819e-07
3.57065e-07
-0.000200333
-3.33421e-06
2.05958e-06
-0.000199109
-5.54991e-06
4.48217e-06
-0.000198764
-6.854e-06
6.22355e-06
-0.000198596
-7.3999e-06
7.65965e-06
-0.000198779
-7.77068e-06
7.76473e-06
-0.000197938
-7.7368e-06
7.55405e-06
-0.000195218
-8.06914e-06
6.82068e-06
-0.000191902
-7.06822e-06
6.55446e-06
-0.000188427
-2.70753e-06
5.75962e-06
-0.000187293
2.80589e-06
6.37326e-06
-0.00018945
8.47781e-06
7.08813e-06
-0.000193282
1.24318e-05
6.9664e-06
-0.000198337
1.74399e-05
5.16668e-06
-0.000202674
1.95269e-05
2.17956e-06
-0.000201547
2.03481e-05
-4.97735e-06
-0.000193229
2.15655e-05
-1.00087e-05
-0.000179041
2.67102e-05
-1.21076e-05
-0.000161987
3.15671e-05
-1.2448e-05
3.40108e-05
-1.13347e-05
-3.78883e-06
-2.26545e-06
2.59033e-06
-3.94211e-06
-4.49152e-06
-1.90512e-07
-4.31364e-06
-3.67493e-06
2.60222e-07
-2.85726e-06
-3.9852e-06
-1.32451e-06
-1.58397e-06
-3.58288e-06
-7.36589e-07
-2.58568e-07
-2.37262e-06
-2.52136e-07
1.51624e-07
-2.11094e-07
1.89634e-07
-1.17973e-07
2.94281e-07
5.09338e-07
-1.99718e-07
6.78572e-07
1.61517e-07
-2.17995e-07
8.73018e-07
1.26753e-07
-9.16651e-08
1.16792e-06
6.80708e-09
3.33145e-08
1.34758e-06