/*--------------------------------*- C++ -*----------------------------------*\
| =========                 |                                                 |
| \\      /  F ield         | OpenFOAM: The Open Source CFD Toolbox           |
|  \\    /   O peration     | Version:  2.3.0                                 |
|   \\  /    A nd           | Web:      www.OpenFOAM.org                      |
|    \\/     M anipulation  |                                                 |
\*---------------------------------------------------------------------------*/
FoamFile
{
    version     2.0;
    format      ascii;
    class       volVectorField;
    location    "32";
    object      U;
}
// * * * * * * * * * * * * * * * * * * * * * * * * * * * * * * * * * * * * * //

dimensions      [0 1 -1 0 0 0 0];

internalField   nonuniform List<vector> 
6144
(
(0.0110094 0.0193773 0.00121394)
(0.0112409 -0.00632693 -0.000147239)
(0.00393067 -0.00735378 -0.00216484)
(0.00355381 -0.00597302 -0.00218833)
(0.00221805 -0.00439463 -0.00205361)
(0.00277315 -0.00139336 -0.00195741)
(0.00255557 -0.00070466 -0.0014649)
(0.00247923 0.000532066 -0.000847738)
(0.00192392 0.000338577 -0.000395636)
(0.00152844 0.00178631 8.4834e-05)
(0.00123754 0.00279742 0.000568748)
(0.00125311 0.00370506 0.00107232)
(0.00141455 0.00384245 0.00133596)
(0.00157815 0.00339137 0.00169542)
(0.00169859 0.00255648 0.00165336)
(0.00181519 0.00171105 0.00152308)
(0.0018874 0.000890651 0.00123776)
(0.0019616 0.00027947 0.000964596)
(0.00202753 -0.000174232 0.00067536)
(0.00207872 -0.000405407 0.000420298)
(0.00211686 -0.000515076 0.000241022)
(0.0021344 -0.000515227 0.000147426)
(0.00213383 -0.00046139 0.000111587)
(0.00211796 -0.000370107 0.000121615)
(0.00208926 -0.000266299 0.000168125)
(0.00205132 -0.000161578 0.000245146)
(0.00200347 -6.86641e-05 0.000363977)
(0.00194915 1.23023e-05 0.00050746)
(0.00189901 6.96041e-05 0.000652528)
(0.00184804 8.52045e-05 0.000800216)
(0.0017943 5.09413e-05 0.000947818)
(0.0017331 -2.24534e-05 0.0010854)
(0.0016629 -0.000112292 0.00121746)
(0.00158735 -0.000212097 0.00136529)
(0.00151652 -0.000350579 0.00154954)
(0.00146192 -0.000589556 0.00176656)
(0.00143172 -0.000971257 0.00195821)
(0.00143216 -0.00147284 0.00205034)
(0.00146293 -0.0020077 0.00199867)
(0.00151886 -0.00249756 0.00181135)
(0.00158841 -0.0028272 0.00149062)
(0.00166897 -0.00289967 0.000993885)
(0.00171082 -0.00250916 0.000424461)
(0.00190661 -0.00180146 9.73882e-05)
(0.00247816 -0.00147737 4.10445e-05)
(0.00348287 -0.00333492 0.000205318)
(0.00541354 -0.00578268 -0.000340612)
(0.00820908 -0.0115274 -0.00259777)
(0.00973956 -0.0160139 -0.00380432)
(0.00852996 -0.0191416 -0.0047988)
(0.00836372 -0.0196682 -0.00570648)
(0.00794995 -0.0200322 -0.00323012)
(0.0230747 -0.0289312 -0.00262894)
(0.0321365 -0.0660092 -0.00581036)
(0.0225174 -0.0694863 -0.0055257)
(0.015842 -0.100859 -0.00227086)
(-0.0101949 -0.0610174 -0.00530427)
(0.00134965 -0.105786 0.0209749)
(-0.0309299 0.0152271 -0.0297863)
(0.0288766 0.118911 0.052725)
(0.129109 -0.277728 0.0858594)
(0.0827734 -0.133454 0.0447018)
(0.0480232 -0.191644 0.016726)
(0.0472761 -0.182512 0.00453165)
(0.0325734 -0.178113 -0.00426499)
(0.0231849 -0.159049 -0.00194729)
(0.0121748 -0.133555 0.00211326)
(0.00873356 -0.115348 0.00785508)
(-0.00688089 -0.114622 0.0143624)
(-0.0200603 -0.0954639 0.0155637)
(-0.0194015 -0.0695446 0.0176569)
(-0.0117853 -0.0510481 0.0253181)
(-0.00220894 -0.0403154 0.0386645)
(-0.00184196 -0.0375467 0.0450867)
(-0.00139637 -0.0315751 0.0431602)
(-0.0149985 -0.0167396 0.0227562)
(-0.0232222 0.0280884 0.000976101)
(-0.0103381 0.0645204 -0.00639786)
(-0.00959774 0.0838839 -0.0217339)
(-0.00266869 0.099373 -0.0196525)
(0.00911158 0.0981149 -0.0153734)
(0.0113422 0.0982438 -0.0142704)
(0.0113422 0.101525 -0.0117714)
(0.00941505 0.100124 -0.00745064)
(0.00769445 0.100322 -0.00216782)
(0.00977115 0.0975476 0.00221682)
(0.00857134 0.0967528 0.00670285)
(0.00751827 0.0968776 0.0130184)
(0.0072693 0.0918711 0.0173621)
(0.00414061 0.0875123 0.0229908)
(0.00113825 0.084253 0.0259126)
(0.00148556 0.0805783 0.0270469)
(0.00171628 0.0762937 0.0265177)
(0.000291505 0.0661925 0.0277633)
(0.00269494 0.0559414 0.0320336)
(0.0138444 0.0264131 0.0431071)
(0.0211175 0.0187775 0.00414814)
(0.0226742 0.00313029 0.00359588)
(0.00896422 -0.00133559 -0.000128907)
(0.00855038 -0.000372749 -0.000440252)
(0.00509994 -0.0021439 0.00037113)
(0.00522136 -0.000225459 0.0015068)
(0.00400081 -0.00125523 0.00232311)
(0.0036466 0.000287485 0.00242154)
(0.00264342 0.000583293 0.00248689)
(0.00192316 0.00290537 0.00262108)
(0.00158865 0.00405753 0.00307013)
(0.00185118 0.00496768 0.00367726)
(0.00235696 0.00493973 0.00400365)
(0.00286823 0.00447992 0.00425899)
(0.00313005 0.00356022 0.00428533)
(0.00334851 0.00264535 0.00426039)
(0.00341766 0.00170197 0.00417107)
(0.00349593 0.000975814 0.00408967)
(0.00354146 0.000374967 0.00400729)
(0.00358492 1.48294e-05 0.00391364)
(0.00362532 -0.000197193 0.0038138)
(0.00362787 -0.000283967 0.00377033)
(0.00359623 -0.000295071 0.0037764)
(0.00353645 -0.000248029 0.00382418)
(0.00345475 -0.000173959 0.00390419)
(0.00335668 -8.6946e-05 0.00400962)
(0.00324332 -4.8987e-06 0.00413418)
(0.0031191 6.87242e-05 0.00426961)
(0.00301556 0.000113317 0.00436528)
(0.00292875 0.000105412 0.00445648)
(0.00284301 4.60267e-05 0.00454423)
(0.00274458 -5.50864e-05 0.00462613)
(0.00263162 -0.000180632 0.00470789)
(0.00252318 -0.000329935 0.00479557)
(0.00245349 -0.000518932 0.0048923)
(0.00244377 -0.000774832 0.00499211)
(0.00248808 -0.00109849 0.00507478)
(0.00256153 -0.00147129 0.00513066)
(0.00264397 -0.00183978 0.00515159)
(0.00272981 -0.00215707 0.00515561)
(0.00278524 -0.00236005 0.00512279)
(0.00282312 -0.00239101 0.00495754)
(0.00294891 -0.00214687 0.0045494)
(0.00359737 -0.00231496 0.0044886)
(0.00504186 -0.00329436 0.00476548)
(0.00723262 -0.00648619 0.00524152)
(0.00940691 -0.00935077 0.00440059)
(0.0145501 -0.0121729 0.000783695)
(0.018069 -0.0118195 -0.00165266)
(0.0183014 -0.0162879 -0.0017747)
(0.0193391 -0.0234467 0.00382473)
(0.0191615 -0.0525571 0.0169723)
(0.047242 -0.087924 0.0123067)
(0.042429 -0.104503 2.19433e-05)
(0.027566 -0.0928128 0.00016031)
(0.0244596 -0.117296 0.00616603)
(-0.0155974 -0.0613255 0.00581696)
(-0.0366517 -0.173571 0.0448723)
(-0.159135 0.0295254 -0.0661603)
(0.0308841 0.0405545 0.0371236)
(0.149105 -0.24105 0.128333)
(0.0646361 0.0124626 0.0335798)
(-0.00260666 -0.0899945 0.00129206)
(0.0211496 0.0264943 -0.00718701)
(0.0165762 -0.0017175 0.00173392)
(0.014419 0.0290985 -0.000742742)
(0.013353 0.0252998 -0.0114481)
(0.0191162 0.0347699 -0.0177776)
(0.017874 0.0382311 -0.0227237)
(0.0131922 0.0374607 -0.0243972)
(0.00620438 0.0379493 -0.00626749)
(-0.00215795 0.024248 0.0230215)
(-0.00244673 0.0143194 0.0366379)
(-0.00559008 0.00947064 0.0416419)
(-0.0290505 -0.00558366 0.0105615)
(-0.0417091 0.0265191 -0.0151385)
(-0.0396768 0.0560381 -0.00866797)
(-0.0213371 0.0583876 -0.00301622)
(-0.00572815 0.0595599 -0.0187842)
(0.0103005 0.0476343 -0.0196929)
(0.0195451 0.0445769 -0.0208291)
(0.0234268 0.0469672 -0.0213195)
(0.0296967 0.0447597 -0.0164342)
(0.0337727 0.0364444 -0.0099122)
(0.0291464 0.0286834 -0.00841745)
(0.0238037 0.0224749 -0.00816601)
(0.0163836 0.0234566 -0.0125251)
(0.0105936 0.0329324 -0.0163076)
(0.0093982 0.0452687 -0.0145585)
(0.00703704 0.0571907 0.00526465)
(0.00599028 0.0578016 0.0182894)
(0.00165237 0.0589868 0.0265367)
(-0.00280933 0.0528023 0.0291502)
(-0.0064739 0.0475723 0.0323062)
(-0.011915 0.0447521 0.0377199)
(-0.000910955 0.0118191 0.0523446)
(0.023966 0.0186764 0.00507434)
(0.0260714 0.0092132 0.00558549)
(0.0131457 0.00303511 0.00251971)
(0.0105323 0.00362953 0.00283481)
(0.00555215 0.000800826 0.00371385)
(0.00471771 0.00208631 0.00398417)
(0.00264337 -0.000254789 0.00430728)
(0.00186318 0.000770584 0.00397477)
(0.000433574 0.000818566 0.00380269)
(-5.91377e-05 0.00291687 0.00385279)
(-0.000132736 0.00376152 0.00411873)
(0.000509883 0.00468161 0.00455505)
(0.00113822 0.00463877 0.00480804)
(0.00179619 0.0045296 0.00500585)
(0.00219745 0.0039189 0.00498839)
(0.00252245 0.00329221 0.00495179)
(0.00261746 0.00254158 0.00488783)
(0.00271179 0.00193348 0.00484663)
(0.00272999 0.00134843 0.00482012)
(0.00270245 0.000894979 0.00481941)
(0.00264288 0.000549238 0.0048438)
(0.00256541 0.000327523 0.0048843)
(0.00247055 0.000189003 0.00493451)
(0.00236173 0.000124817 0.0049935)
(0.00224401 0.000105147 0.0050591)
(0.00212127 0.00011117 0.00512823)
(0.00199289 0.000119811 0.00520049)
(0.00186222 0.000115707 0.00527615)
(0.0017324 8.73971e-05 0.00535947)
(0.00161699 3.3797e-05 0.00544634)
(0.00149683 -4.36538e-05 0.00552819)
(0.00135306 -0.000137754 0.00560707)
(0.00119204 -0.000245856 0.00568998)
(0.00103824 -0.000372417 0.00577361)
(0.000931657 -0.000508669 0.00584807)
(0.000888568 -0.000623371 0.00590484)
(0.000907514 -0.000678857 0.00594041)
(0.000991553 -0.000670102 0.0059627)
(0.00110631 -0.000606032 0.00598249)
(0.00128447 -0.000504937 0.00601331)
(0.00151164 -0.000372142 0.00603649)
(0.00179152 -0.000267409 0.00604855)
(0.002301 -0.000189031 0.00611222)
(0.00367443 -0.00104982 0.00639576)
(0.00556087 -0.00292439 0.00689338)
(0.00790704 -0.00616762 0.00722711)
(0.0104089 -0.00808098 0.00616386)
(0.0159787 -0.00940325 0.001954)
(0.0250809 -0.0112496 0.000911112)
(0.0319331 -0.0313593 0.00254367)
(0.0490039 -0.065215 0.0135569)
(0.058624 -0.110507 0.0102113)
(0.0532142 -0.115898 0.00681653)
(0.0417854 -0.117545 -0.00511229)
(0.0155103 -0.0600707 -0.00647382)
(0.0137863 -0.0894875 0.00779055)
(-0.0495852 -0.00332146 0.0361273)
(-0.0471437 -0.190614 0.0842723)
(-0.174126 0.08214 -0.0583952)
(0.0312088 0.00295565 0.0371414)
(0.152441 -0.204063 0.140654)
(0.0802822 0.0578061 0.0426839)
(0.045454 -0.0807874 0.00746013)
(0.0394431 0.0416145 -0.0156625)
(0.047223 0.0203584 -0.0048414)
(0.0375905 0.0399913 -0.00431864)
(0.0299101 0.0340393 -0.0058914)
(0.0252482 0.0414932 -0.0112497)
(0.0281846 0.0581065 -0.00829973)
(0.0260386 0.0704958 -0.00193526)
(0.0135529 0.0716971 0.00441658)
(-0.00632066 0.0658319 0.0104053)
(-0.0215698 0.064121 0.0186081)
(-0.0363857 0.0778709 0.0117002)
(-0.0454683 0.0768613 -0.00335675)
(-0.0464654 0.0825913 -0.00814089)
(-0.0256148 0.0894089 0.00106741)
(-0.00780005 0.0799704 -0.000240006)
(0.0171361 0.079487 0.00667229)
(0.034433 0.0673754 0.0142015)
(0.0424997 0.0597304 0.0202032)
(0.0432547 0.0453102 0.0222469)
(0.0396761 0.0298393 0.0237642)
(0.0358928 0.0175106 0.0270726)
(0.0287714 0.00612703 0.0268799)
(0.0178388 -0.00560838 0.0244627)
(0.0118491 -0.0105935 0.0187649)
(0.00787168 -0.015301 0.00877116)
(0.00944075 -0.00976173 -0.0185331)
(0.00170994 0.0150187 -0.016576)
(-0.000168251 0.0243852 0.00221138)
(0.000896259 0.0404863 0.010207)
(0.0014755 0.0412181 0.0208639)
(-0.00154972 0.0334071 0.0297161)
(-0.00936899 0.0359364 0.0375804)
(-0.00871117 0.00623925 0.0518514)
(0.0246193 0.0185985 0.00511889)
(0.0276973 0.0132949 0.00516464)
(0.015267 0.0055321 0.000982784)
(0.011927 0.00694085 0.00176785)
(0.00563127 0.00249047 0.00375029)
(0.0048685 0.00423197 0.00417483)
(0.00210004 0.00105403 0.004948)
(0.000669578 0.00159483 0.00457525)
(-0.00118431 0.000306631 0.00437318)
(-0.00171989 0.00167279 0.00418549)
(-0.00180661 0.0021138 0.00442391)
(-0.00108129 0.00341062 0.00494646)
(-0.000421948 0.00385775 0.0051648)
(0.000326935 0.00421835 0.00534213)
(0.0008108 0.00390426 0.00528374)
(0.00116094 0.00350794 0.005251)
(0.00124333 0.00288991 0.00520824)
(0.00132427 0.0023942 0.00519746)
(0.00133943 0.00187795 0.00518355)
(0.00129208 0.00143339 0.00517147)
(0.00120004 0.00103637 0.00516957)
(0.00107889 0.000734306 0.00518351)
(0.000938851 0.000503116 0.00521021)
(0.000789338 0.000345846 0.0052499)
(0.000642067 0.000245433 0.00530144)
(0.00050322 0.000185485 0.00536266)
(0.000370157 0.000145447 0.00543017)
(0.000245088 0.000114586 0.00550068)
(0.000135714 7.99697e-05 0.00557281)
(4.20573e-05 3.41587e-05 0.00563948)
(-5.47951e-05 -2.15429e-05 0.00569914)
(-0.000166096 -7.99833e-05 0.00575944)
(-0.000279324 -0.000137115 0.0058244)
(-0.000374124 -0.000190003 0.00588039)
(-0.000439339 -0.000219581 0.00590616)
(-0.00046731 -0.00019425 0.00588809)
(-0.000441835 -0.000105551 0.00583787)
(-0.000364507 2.87942e-05 0.00578439)
(-0.000249343 0.00019903 0.00576935)
(-9.81323e-05 0.000409094 0.00580964)
(7.97998e-05 0.000708588 0.00588037)
(0.00038704 0.000949559 0.00598073)
(0.00120647 0.00102947 0.00622725)
(0.0030108 0.000113426 0.00668336)
(0.00517799 -0.00146216 0.00706426)
(0.00743605 -0.00429094 0.00655121)
(0.0102378 -0.00598689 0.00351053)
(0.0217058 -0.00981142 -0.0024171)
(0.0486011 -0.0265318 -0.00428895)
(0.082926 -0.0660627 -0.0061972)
(0.0845491 -0.0980883 0.00328062)
(0.066354 -0.118157 -0.00202472)
(0.0503148 -0.106616 0.000284061)
(0.00359104 -0.0988613 -0.00498824)
(-0.0205593 -0.0165761 -0.00198387)
(-0.0185327 -0.0658872 0.0208261)
(-0.0118882 0.0950696 0.0850612)
(-0.047462 -0.182934 0.0941558)
(-0.274447 0.185357 -0.0994811)
(0.00369071 -0.0442286 0.0254964)
(0.111944 -0.169142 0.1575)
(0.0530543 0.0426968 0.0493953)
(0.0244967 -0.0505822 0.0100738)
(0.0197379 0.0554719 -0.0200255)
(0.0313553 0.0410023 -0.00757498)
(0.024713 0.0640828 -0.00208388)
(0.0144374 0.0652977 0.00462808)
(0.00612839 0.0720878 -0.00237509)
(0.00268864 0.0902975 0.000168583)
(-4.40967e-05 0.104475 0.00915783)
(-0.00714156 0.10664 0.01817)
(-0.0243264 0.113656 0.0162543)
(-0.0340008 0.118407 0.00581282)
(-0.0358594 0.123241 0.000976102)
(-0.0345356 0.125978 0.00063149)
(-0.0191325 0.126055 0.0108746)
(0.0035172 0.117883 0.0236363)
(0.0141101 0.105496 0.0291985)
(0.0230684 0.0887501 0.035676)
(0.0326907 0.0714238 0.0444169)
(0.0353442 0.0531351 0.0480402)
(0.0308792 0.0381938 0.048618)
(0.0237841 0.024932 0.0509314)
(0.0157484 0.00958602 0.0544633)
(0.00700117 -0.000677984 0.0538427)
(-0.000443999 -0.0080524 0.0501537)
(-0.00481255 -0.0127212 0.0443983)
(-0.0128775 -0.0124058 0.0371372)
(-0.0210736 -0.00959785 0.0184986)
(-0.0232322 0.0119391 -0.0138573)
(-0.0203613 0.0277736 0.00147336)
(-0.0161158 0.0433844 0.00826005)
(-0.00994706 0.0457677 0.0149189)
(-0.0100298 0.0354374 0.0248007)
(-0.0225768 0.0367515 0.0374082)
(-0.0291556 0.000872194 0.0594768)
(0.0248074 0.0194848 0.00407461)
(0.0283955 0.0170095 0.00418328)
(0.0176466 0.00792756 -0.00122913)
(0.0143645 0.0091421 -0.000967438)
(0.00598189 0.00232509 0.00116089)
(0.00462445 0.00507076 0.00240092)
(0.00122847 0.00222628 0.00432862)
(-0.000213176 0.00306185 0.00440263)
(-0.00233981 0.000412932 0.00436717)
(-0.00339614 0.000892486 0.00412931)
(-0.00406572 0.000632046 0.00425776)
(-0.00369281 0.00214964 0.00483303)
(-0.00301454 0.00303351 0.00505009)
(-0.00202302 0.00379938 0.00525156)
(-0.00136673 0.00373879 0.00517726)
(-0.000966085 0.00345404 0.00517823)
(-0.000982761 0.00291416 0.00515893)
(-0.00103146 0.00248641 0.00517924)
(-0.00112679 0.00204362 0.0051715)
(-0.00123478 0.00164538 0.00514501)
(-0.00137322 0.00125227 0.00510946)
(-0.00151098 0.000918459 0.0050818)
(-0.001649 0.00063375 0.00506717)
(-0.00179634 0.00041563 0.0050658)
(-0.00194416 0.000255637 0.00507709)
(-0.00207599 0.000144186 0.00510253)
(-0.00219468 6.34829e-05 0.00513827)
(-0.00229531 4.35105e-06 0.00517783)
(-0.00237173 -4.30036e-05 0.00520994)
(-0.00242907 -7.95721e-05 0.00523132)
(-0.00249124 -0.000107281 0.00524414)
(-0.00257758 -0.000127406 0.00525813)
(-0.00267709 -0.000129092 0.00527434)
(-0.00276746 -9.86097e-05 0.00527136)
(-0.00282845 -2.15517e-05 0.00522367)
(-0.00284575 0.00011186 0.00512582)
(-0.00279705 0.000295802 0.00499468)
(-0.00269348 0.00052397 0.00486732)
(-0.00258647 0.00082452 0.00479211)
(-0.00247442 0.0011992 0.00479838)
(-0.00226698 0.00162859 0.0048899)
(-0.00176628 0.00187764 0.00507824)
(-0.000644262 0.00179321 0.00540259)
(0.00131339 0.000712601 0.00583007)
(0.00365919 -0.00038866 0.00604375)
(0.00640367 -0.00229032 0.00467806)
(0.0117021 -0.00258566 -0.000316753)
(0.0392927 -0.010959 -0.00827382)
(0.0941688 -0.032598 -0.016875)
(0.125326 -0.0456828 -0.0230628)
(0.117384 -0.0210799 -0.0287602)
(0.0771463 -0.0110855 -0.0120689)
(0.0148574 0.0146625 0.00670959)
(-0.0305721 0.00233373 0.012709)
(-0.0665982 0.043485 0.0246898)
(-0.0779158 0.0359199 0.0658591)
(-0.079344 0.133628 0.0710166)
(-0.131381 -0.0210421 0.0460311)
(-0.279348 0.320353 -0.0292757)
(0.027826 -0.0999184 0.0372033)
(0.081204 -0.162346 0.17011)
(0.0374652 0.0521371 0.0590262)
(0.0134542 -0.0694595 0.0385352)
(0.0112773 0.0416006 -0.0100789)
(0.0266646 0.0303581 0.000398803)
(0.0208336 0.0636365 0.00633067)
(0.00550002 0.0738563 0.0113194)
(-0.00207666 0.090343 0.00627319)
(0.00775939 0.119273 0.00209888)
(0.0146521 0.142619 -0.0043523)
(0.00618425 0.154012 -0.00628089)
(-0.00560194 0.154953 -0.00438884)
(-0.012702 0.155125 0.000306396)
(-0.0126991 0.153931 0.00683138)
(-0.00541191 0.147372 0.0167572)
(0.00610262 0.141113 0.0267248)
(0.0137058 0.133153 0.04143)
(0.0183611 0.113191 0.0565297)
(0.0188638 0.0924549 0.0625148)
(0.0146425 0.0760405 0.066287)
(0.0116756 0.063297 0.070212)
(0.00222265 0.0511735 0.0673036)
(-0.011358 0.0337943 0.0617994)
(-0.0211228 0.0206579 0.0553044)
(-0.0274943 0.0122193 0.0499219)
(-0.0318914 0.00331975 0.0470275)
(-0.0347941 -0.00108796 0.0447747)
(-0.0395734 0.000304904 0.0357775)
(-0.0449753 0.00102055 0.00927325)
(-0.0410974 0.0169369 -0.0020972)
(-0.0344569 0.0267812 0.00409921)
(-0.0218652 0.0380991 0.0114687)
(-0.0123948 0.0394015 0.0181061)
(-0.0121605 0.0324807 0.0232548)
(-0.025464 0.0336687 0.0310902)
(-0.0526256 -0.000438519 0.0481032)
(0.0246553 0.0196871 0.00282828)
(0.02975 0.0216809 0.00389648)
(0.0208742 0.01187 -0.000829537)
(0.0191002 0.0123044 -0.000908117)
(0.00833739 0.00140829 -0.00250601)
(0.00425269 0.00470578 -0.000615642)
(0.000116407 0.00201448 0.00243281)
(-0.000589924 0.00378345 0.00340705)
(-0.0025294 0.000688202 0.00362303)
(-0.00423533 0.000832341 0.00340586)
(-0.0052497 -0.000363821 0.00341075)
(-0.00532859 0.00109781 0.00404125)
(-0.00444679 0.00233971 0.00439612)
(-0.00307285 0.00335645 0.0049073)
(-0.00204725 0.00328995 0.00509263)
(-0.00154643 0.00304425 0.00527419)
(-0.00160253 0.00249257 0.00530544)
(-0.00177009 0.00216498 0.00532877)
(-0.00194997 0.00187097 0.00529454)
(-0.00211323 0.00163838 0.00522174)
(-0.00229651 0.00137892 0.00511455)
(-0.00248073 0.00113309 0.00499998)
(-0.00267069 0.000895293 0.00488993)
(-0.00284618 0.000684543 0.00479587)
(-0.00299448 0.000511278 0.00472039)
(-0.00310262 0.000387707 0.00466206)
(-0.00318319 0.000305681 0.00461885)
(-0.00323726 0.000257836 0.00458322)
(-0.00327399 0.000233385 0.00454213)
(-0.00329925 0.000219559 0.00449565)
(-0.00332717 0.000211745 0.00445573)
(-0.00337608 0.000221556 0.00442929)
(-0.00343657 0.000268914 0.00440342)
(-0.0034861 0.000367446 0.00435191)
(-0.00351755 0.000517975 0.00425288)
(-0.00351579 0.000707881 0.00410724)
(-0.00347512 0.000907618 0.00392719)
(-0.00344207 0.00110994 0.00374091)
(-0.00343093 0.00137451 0.00360802)
(-0.00338444 0.00173596 0.00358568)
(-0.00321608 0.00216801 0.00368501)
(-0.00269241 0.00236491 0.00392664)
(-0.00143407 0.00215579 0.00436044)
(0.00064494 0.00114657 0.00501459)
(0.00270888 0.000921095 0.00533397)
(0.00536569 0.00134322 0.00349105)
(0.0146422 0.00604292 -0.00328955)
(0.0550049 0.0065043 -0.0174829)
(0.108221 0.0472848 -0.0368838)
(0.107388 0.129459 -0.0354745)
(0.07306 0.147208 -0.0147506)
(0.0235927 0.126883 4.69071e-06)
(-0.0371116 0.104719 -0.00370519)
(-0.0845702 0.115582 0.00987903)
(-0.104021 0.131575 0.0430966)
(-0.119308 0.131688 0.0498553)
(-0.131107 0.174325 0.0261624)
(-0.163956 0.0606009 -0.0138733)
(-0.242527 0.302018 -0.0163875)
(0.0235718 -0.0919808 0.042248)
(0.0272126 -0.172066 0.180303)
(0.0325657 0.0409551 0.0620518)
(0.0190526 -0.0885781 0.0480466)
(0.00348322 0.0187689 -0.0103259)
(0.0229182 0.0300086 -0.0102807)
(0.0124091 0.0713755 -0.00379822)
(0.00341235 0.0907408 0.00075416)
(-0.0103041 0.101745 -0.00205917)
(-0.0115518 0.122004 -0.0197777)
(0.00391439 0.164933 -0.0265577)
(0.0115281 0.186854 -0.0100382)
(0.0076508 0.191118 0.00766314)
(0.00133317 0.187399 0.0147597)
(0.000377848 0.184588 0.0212755)
(0.00191036 0.178122 0.0332474)
(0.00259016 0.169461 0.0476962)
(0.00382906 0.157276 0.0569085)
(-0.000826089 0.144204 0.0614483)
(-0.00642772 0.128938 0.0589698)
(-0.0129963 0.107132 0.0509403)
(-0.0207545 0.0898334 0.0424633)
(-0.0263069 0.0738533 0.0341914)
(-0.0332727 0.0590536 0.0262999)
(-0.034047 0.0462495 0.0238911)
(-0.0358307 0.0355589 0.0228942)
(-0.0411306 0.0238981 0.0207828)
(-0.0502518 0.0158169 0.0168513)
(-0.0580095 0.016352 -0.000229195)
(-0.0637167 0.0213803 -0.0082672)
(-0.0622232 0.0338418 0.00330627)
(-0.0517435 0.0392338 0.0213907)
(-0.0431182 0.0411085 0.0301419)
(-0.0356442 0.0316053 0.0369385)
(-0.031258 0.0220195 0.0413969)
(-0.033103 0.0206565 0.04178)
(-0.0625692 0.00294265 0.0501802)
(0.0237475 0.0193176 0.00243627)
(0.0312667 0.0268488 0.0056956)
(0.0234923 0.0160109 0.0025679)
(0.0229593 0.0158148 0.00354891)
(0.0130134 0.00109736 -0.00272499)
(0.00448041 0.00328427 -0.00284695)
(-0.00082354 0.000397161 0.000480697)
(-0.00113788 0.00397059 0.00218014)
(-0.00302716 0.00129356 0.00240477)
(-0.00480592 0.00155583 0.00260132)
(-0.00673517 -0.000271301 0.0025366)
(-0.00805403 0.000807702 0.00330353)
(-0.00737768 0.00168141 0.00392237)
(-0.00539478 0.002649 0.00501188)
(-0.00414572 0.00256407 0.00565029)
(-0.00366248 0.00242928 0.0060885)
(-0.00396301 0.00196579 0.00615692)
(-0.00445958 0.00173902 0.00611008)
(-0.00487524 0.00157634 0.00596685)
(-0.00514136 0.00151686 0.00577233)
(-0.00533489 0.00145195 0.0055486)
(-0.00547393 0.00139402 0.00533269)
(-0.00557981 0.00130858 0.00513499)
(-0.00567889 0.00121185 0.00497239)
(-0.00579113 0.0011236 0.00485111)
(-0.0058718 0.00105753 0.00474797)
(-0.00591713 0.00101193 0.00466016)
(-0.00592429 0.000996954 0.00459796)
(-0.00588416 0.001002 0.00456001)
(-0.00581198 0.00100937 0.00453752)
(-0.00576205 0.00101415 0.00452993)
(-0.00576769 0.00104686 0.00453495)
(-0.00580855 0.00114642 0.00453303)
(-0.00584481 0.00131416 0.00450044)
(-0.00583571 0.00152507 0.004436)
(-0.0057523 0.00174638 0.00433312)
(-0.00559796 0.0019343 0.00420919)
(-0.00548984 0.00205536 0.0040711)
(-0.00552683 0.00217609 0.00391107)
(-0.0056293 0.0023885 0.00380481)
(-0.00549334 0.0026813 0.00379327)
(-0.00476413 0.00277566 0.00391163)
(-0.00336169 0.00250021 0.00428606)
(-0.00200473 0.00172388 0.0050479)
(-0.00154987 0.00210597 0.00553074)
(-0.00126059 0.00419277 0.00363033)
(0.00557179 0.0140209 -0.00497913)
(0.0341549 0.043655 -0.0258137)
(0.0742658 0.150183 -0.0345736)
(0.0963082 0.211767 -0.0145545)
(0.107534 0.220105 -0.00565026)
(0.0781345 0.209029 -0.00289839)
(-0.0205065 0.159491 -0.0195147)
(-0.0719803 0.150507 -0.0120985)
(-0.0913202 0.151002 0.0261738)
(-0.102261 0.141876 0.0360209)
(-0.116255 0.169836 0.0216148)
(-0.142896 0.0308727 -0.03242)
(-0.181959 0.281065 -0.0321942)
(0.0226354 -0.0841764 0.0449827)
(0.0154762 -0.189112 0.183498)
(0.026136 0.0579606 0.0170249)
(-0.00673456 -0.0287128 0.0064518)
(-0.0395434 0.0808055 -0.0199694)
(-0.0126521 0.108469 -0.00811869)
(-0.0118675 0.125141 -0.00192058)
(-0.0116731 0.130979 -0.00109061)
(-0.0210096 0.131255 -0.00417503)
(-0.0203056 0.137993 -0.0175451)
(-0.00809362 0.1741 -0.0125851)
(0.00263023 0.195247 0.00531925)
(-0.000161748 0.202535 0.0108919)
(-0.00631771 0.204191 0.011615)
(-0.0118244 0.197078 0.0176729)
(-0.0154657 0.190017 0.0244162)
(-0.0185665 0.175642 0.0329091)
(-0.0210118 0.157647 0.0343613)
(-0.0239191 0.135542 0.0333912)
(-0.022445 0.11012 0.0263646)
(-0.0161401 0.0878682 0.018786)
(-0.0107877 0.0716913 0.0161688)
(-0.0148129 0.0581661 0.0126641)
(-0.0199953 0.0486185 0.00437989)
(-0.0186829 0.0373872 -0.000500204)
(-0.0200757 0.0288884 -0.00404907)
(-0.0236261 0.0200535 -0.00903738)
(-0.0325938 0.016415 -0.0100902)
(-0.0464658 0.017469 -0.0084942)
(-0.0548892 0.0222833 -0.0090547)
(-0.0599833 0.0333451 0.00463501)
(-0.0626179 0.0379993 0.0158901)
(-0.0537062 0.0457491 0.0197254)
(-0.0393965 0.033605 0.0311581)
(-0.0444171 0.0137614 0.0432656)
(-0.0548362 -8.96261e-05 0.0556633)
(-0.0896584 -0.0104145 0.0568182)
(0.0252748 0.0163724 0.00117228)
(0.0315317 0.0300164 0.0071459)
(0.0241732 0.0199033 0.00425777)
(0.024267 0.0203737 0.00576125)
(0.0171151 0.00398607 -0.00142165)
(0.00477062 0.00383776 -0.00514362)
(-0.00309525 -0.00177942 -0.00121618)
(-0.003045 0.00293782 0.000766567)
(-0.00327159 0.000692848 0.00213379)
(-0.00461133 0.00225443 0.00268456)
(-0.00650784 0.000325321 0.00273172)
(-0.00803892 0.000862611 0.00368129)
(-0.00725392 0.000343391 0.00463061)
(-0.00520536 0.000660051 0.00605043)
(-0.00398989 0.000555483 0.00707232)
(-0.00349699 0.000932498 0.00787334)
(-0.00369971 0.00111828 0.00821451)
(-0.00413174 0.00138183 0.0082876)
(-0.0045129 0.00158011 0.00816607)
(-0.00478316 0.00179006 0.00793385)
(-0.00500417 0.00190308 0.00763682)
(-0.00515398 0.0019581 0.00734967)
(-0.00526003 0.00195514 0.00708974)
(-0.00534133 0.00192538 0.00686648)
(-0.00540849 0.00187567 0.00668739)
(-0.005444 0.00182639 0.00654485)
(-0.00545457 0.00179083 0.00643145)
(-0.00543435 0.00176965 0.00634178)
(-0.00537233 0.00175978 0.00627293)
(-0.005274 0.00175517 0.00622421)
(-0.00520475 0.00175825 0.00619257)
(-0.00521495 0.00181477 0.00616555)
(-0.00527624 0.00195644 0.00612094)
(-0.00531733 0.00214989 0.00604672)
(-0.005307 0.00235217 0.00594477)
(-0.00522103 0.00251957 0.00581964)
(-0.00507275 0.00260435 0.00570098)
(-0.00497356 0.0026115 0.0055889)
(-0.00503803 0.00259553 0.0054671)
(-0.00519195 0.00263194 0.00540004)
(-0.00508815 0.00271739 0.00542256)
(-0.0043635 0.00260097 0.00560406)
(-0.0031411 0.00223441 0.00616421)
(-0.00227972 0.00149125 0.00733198)
(-0.00277906 0.0018523 0.00867703)
(-0.00467506 0.00351632 0.00838742)
(-0.0124481 0.0106033 0.00201289)
(-0.0180524 0.0380961 -0.0164412)
(0.0230923 0.159732 -0.0292273)
(0.0743028 0.24422 -0.0165585)
(0.0948088 0.27217 0.00245759)
(0.0958799 0.284177 0.00948137)
(0.0571759 0.274231 0.00508718)
(-0.0122742 0.220023 -0.0124245)
(-0.0497447 0.202383 -0.014322)
(-0.0700558 0.191545 -0.00104354)
(-0.0898442 0.195077 -0.0255949)
(-0.126088 0.0777795 -0.0587361)
(-0.139421 0.383168 -0.060062)
(0.000917925 -0.128062 0.054318)
(-0.0374341 -0.120479 0.110341)
(-0.0152143 0.182272 -0.0373249)
(-0.0242422 0.123507 0.00152444)
(-0.0182894 0.189787 -0.00122568)
(0.00575893 0.191588 0.00348342)
(0.0116949 0.194552 0.000628976)
(0.00916604 0.188753 -0.00234415)
(-0.0136282 0.178962 -0.00526142)
(-0.0210699 0.179271 -0.00556104)
(-0.0206572 0.184615 -0.00224698)
(-0.0140817 0.198253 0.00249518)
(-0.00915335 0.203688 0.000297606)
(-0.00487677 0.202151 -0.00666476)
(-0.00437411 0.196246 -0.00969324)
(-0.00687647 0.190082 -0.00892783)
(-0.00419321 0.180485 -0.00400819)
(0.00299033 0.165796 0.00184465)
(0.0132967 0.14846 0.000149505)
(0.0252133 0.131996 -0.0030741)
(0.0288136 0.122003 -0.00399354)
(0.0302448 0.117581 -0.00419105)
(0.0301879 0.115311 -0.00204254)
(0.0303085 0.115536 -9.15355e-05)
(0.0322263 0.106067 0.0010723)
(0.0293628 0.0938871 -0.003388)
(0.0197466 0.0815235 -0.000395052)
(-0.00390138 0.0605885 0.000107524)
(-0.0312619 0.0550592 -0.00848613)
(-0.0472873 0.0595278 -0.0105205)
(-0.0654192 0.0715791 -0.00940341)
(-0.0722986 0.0847894 -0.0120861)
(-0.0579533 0.102974 0.00132436)
(-0.0346035 0.096244 0.0372093)
(-0.046412 0.0732179 0.0597909)
(-0.0748431 0.0551121 0.0613351)
(-0.108936 0.0146037 0.0519167)
(0.0190876 0.0131552 -0.00126215)
(0.029904 0.0307759 0.00734838)
(0.0235709 0.0237804 0.00251779)
(0.024618 0.026493 0.00377179)
(0.0205662 0.0102509 -0.00153466)
(0.0103924 0.00763764 -0.00669374)
(-0.00183878 -0.00404416 -0.00682217)
(-0.00339727 0.00187909 -0.00471699)
(-0.00547152 -0.00020338 -0.00197759)
(-0.00657617 0.00237001 -0.000566504)
(-0.00829621 0.00042503 -0.000207974)
(-0.00943194 0.000539558 0.000866377)
(-0.00911609 -0.000878237 0.00172377)
(-0.00793689 -0.000689844 0.00277453)
(-0.0075151 -0.000609886 0.00364206)
(-0.0076003 0.000125247 0.00447692)
(-0.00808245 0.000650679 0.00513641)
(-0.0086325 0.00120435 0.00553987)
(-0.00910495 0.00160233 0.00566554)
(-0.00930493 0.00192141 0.00559928)
(-0.00930386 0.00210362 0.0054453)
(-0.00925689 0.00222622 0.0052792)
(-0.00918704 0.0022775 0.00512385)
(-0.00911516 0.00228882 0.00498133)
(-0.00904409 0.00227177 0.00485946)
(-0.00896586 0.00224258 0.00475533)
(-0.00888355 0.00221609 0.00466449)
(-0.00878453 0.00220072 0.00458629)
(-0.00865117 0.0021993 0.0045136)
(-0.00849869 0.00221882 0.00444603)
(-0.00843208 0.0022503 0.00438832)
(-0.00847167 0.00232661 0.00433754)
(-0.00853193 0.00245431 0.00428682)
(-0.00853102 0.00260189 0.00421806)
(-0.0084329 0.00273831 0.00412393)
(-0.00822984 0.00282811 0.00401413)
(-0.00796629 0.00284606 0.00391194)
(-0.00782031 0.00280047 0.0038353)
(-0.00793018 0.00269701 0.00376949)
(-0.00821519 0.00256285 0.00378084)
(-0.00817662 0.00240257 0.00387439)
(-0.00742919 0.00198991 0.00408964)
(-0.006349 0.001396 0.0046116)
(-0.00609791 0.000393753 0.00569293)
(-0.00785842 0.000335731 0.00724246)
(-0.0113141 -0.000236952 0.0075449)
(-0.02199 0.00122148 0.0052459)
(-0.0618324 -0.00515246 -0.0112085)
(-0.0768764 0.0493629 -0.0286929)
(0.0326925 0.201611 0.00794277)
(0.0947187 0.260928 0.0262123)
(0.10395 0.296654 0.0311174)
(0.0820865 0.328675 0.0284183)
(0.0368722 0.32562 0.0329537)
(0.00383203 0.31734 0.0138563)
(-0.00809763 0.304875 0.0116638)
(-0.0253205 0.254971 -0.00107844)
(-0.038451 0.15426 -0.00531223)
(-0.0161909 0.332762 -0.00425294)
(-0.0229551 -0.104213 0.0514482)
(-0.0899474 -0.179608 0.125256)
(-0.0537769 0.170571 -0.03852)
(-0.0538683 0.0865266 0.0019681)
(-0.025013 0.164043 -0.000292453)
(0.00117213 0.157267 -0.00222902)
(0.0182249 0.17554 -0.00962802)
(0.0221319 0.178056 -0.0161702)
(0.0126739 0.186256 -0.0209692)
(-0.00156778 0.182665 -0.0200616)
(-0.00453459 0.179804 -0.0177511)
(-0.00342336 0.180298 -0.0141432)
(0.00227808 0.182214 -0.00937683)
(0.00591462 0.178618 -0.00243014)
(0.00207173 0.172536 0.00367381)
(-0.00568209 0.165179 0.0109166)
(-0.0066067 0.151397 0.0198923)