/*--------------------------------*- C++ -*----------------------------------*\
| =========                 |                                                 |
| \\      /  F ield         | OpenFOAM: The Open Source CFD Toolbox           |
|  \\    /   O peration     | Version:  2.3.0                                 |
|   \\  /    A nd           | Web:      www.OpenFOAM.org                      |
|    \\/     M anipulation  |                                                 |
\*---------------------------------------------------------------------------*/
FoamFile
{
    version     2.0;
    format      ascii;
    class       volVectorField;
    location    "32";
    object      U.airMean;
}
// * * * * * * * * * * * * * * * * * * * * * * * * * * * * * * * * * * * * * //

dimensions      [0 1 -1 0 0 0 0];

internalField   nonuniform List<vector> 
6144
(
(0.00880346 0.0197246 -0.000868495)
(0.00894918 0.00162714 -0.00154704)
(0.00478486 0.000117913 -0.00234838)
(0.0046536 -0.00158568 -0.00229555)
(0.00298842 -0.00245817 -0.00187871)
(0.00293489 -0.00144031 -0.00162391)
(0.00234741 -0.00139953 -0.00126335)
(0.00241499 -0.000231212 -0.00102094)
(0.00227572 0.000267501 -0.00101922)
(0.00224288 0.00144153 -0.000801201)
(0.00218255 0.00219724 -0.000612013)
(0.00230501 0.00275323 -0.00031426)
(0.00243874 0.00266463 -0.000222186)
(0.00257664 0.00232444 -0.000108163)
(0.00264206 0.00175895 -0.000233317)
(0.00270467 0.00130334 -0.000345209)
(0.00273343 0.000873452 -0.000525024)
(0.00276548 0.0006081 -0.000648424)
(0.00278693 0.000385266 -0.00077952)
(0.00280185 0.000268978 -0.000861267)
(0.00280683 0.000180742 -0.000916432)
(0.00280512 0.000150137 -0.00094138)
(0.00279773 0.000133829 -0.0009489)
(0.00278666 0.000140834 -0.000939963)
(0.00277208 0.000153397 -0.00091932)
(0.00275515 0.000171339 -0.000889131)
(0.00273577 0.000190462 -0.000849861)
(0.00271415 0.000208087 -0.00080328)
(0.00269191 0.00023148 -0.000752696)
(0.00266851 0.000238035 -0.000699295)
(0.00264538 0.000264307 -0.000639971)
(0.0026146 0.000222488 -0.000570495)
(0.00258427 0.000257135 -0.0004874)
(0.00254175 0.000114381 -0.000383969)
(0.00250787 0.000148129 -0.000251131)
(0.00246161 -0.0002182 -9.32631e-05)
(0.00243781 -0.000252633 8.01042e-05)
(0.00240306 -0.000984128 0.000226173)
(0.00240263 -0.0010613 0.000307834)
(0.00239429 -0.00209501 0.000264404)
(0.00240809 -0.00192052 4.94288e-05)
(0.00242166 -0.00281536 -0.000405224)
(0.00244329 -0.00166946 -0.000980155)
(0.0025618 -0.001755 -0.00152688)
(0.00282158 0.000601131 -0.00193543)
(0.00339135 2.7598e-05 -0.00217261)
(0.00425418 0.00153318 -0.00275363)
(0.00464078 -0.000144843 -0.00380586)
(0.00290048 0.00501849 -0.00506812)
(0.00317318 0.00945045 -0.00705904)
(0.0124355 0.0165336 -0.0100681)
(0.0231426 0.00275098 -0.0111753)
(0.0320359 -0.00409049 -0.012734)
(0.0348368 -0.0425016 -0.0130386)
(0.032583 -0.0377176 -0.0156001)
(0.0318032 -0.0830513 -0.0113887)
(0.0139362 -0.0422517 -0.019654)
(0.0104321 -0.0968608 0.0159471)
(-0.0324934 0.0219633 -0.0523762)
(0.0317353 0.110097 0.0414623)
(0.108397 0.319529 0.0404622)
(0.0460434 0.39063 -0.00420305)
(0.0460064 -0.0862932 0.00445485)
(0.0490133 -0.167392 0.00637661)
(0.0399955 -0.174138 0.00614422)
(0.0331029 -0.166252 0.00598012)
(0.0269657 -0.166725 0.00497598)
(0.0223203 -0.16097 0.00429755)
(0.0193909 -0.159599 0.00429198)
(0.0174589 -0.153208 0.00456838)
(0.016304 -0.150713 0.00516433)
(0.0150223 -0.145042 0.00562836)
(0.0132793 -0.140401 0.00615912)
(0.0104886 -0.132735 0.00627744)
(0.00669639 -0.123618 0.00595855)
(0.00347663 -0.110305 0.00500939)
(0.00156493 -0.096301 0.00331601)
(-0.000560815 -0.0810514 0.00243695)
(-0.001496 -0.0655667 0.00243619)
(0.000726354 -0.05107 0.00210867)
(0.00359405 -0.0396123 0.00132397)
(0.0053955 -0.0304359 0.000983326)
(0.0059535 -0.0245277 0.00206563)
(0.00455138 -0.0206971 0.00262156)
(0.00334607 -0.0152708 0.00264742)
(0.00336952 -0.00946567 0.00224377)
(0.00322757 -0.00403424 0.00274101)
(0.00245267 0.00202996 0.00226973)
(0.00111071 0.00877182 0.000896179)
(-0.000197758 0.0179239 -0.000350964)
(0.000604033 0.0269298 9.17729e-05)
(0.00135309 0.0337954 0.00205869)
(0.00169935 0.0376924 0.00545062)
(0.00247993 0.0372452 0.00948295)
(0.0043768 0.032442 0.0128539)
(0.00626515 0.0190555 0.0174687)
(0.017787 0.0219494 0.00263154)
(0.0186205 0.00935899 0.0021898)
(0.0105027 0.00660913 -8.40841e-05)
(0.0107228 0.00485069 0.000685018)
(0.00653871 0.00159468 0.00125796)
(0.00617124 0.00151557 0.00174258)
(0.00426574 4.77399e-05 0.00215989)
(0.00415861 0.00120289 0.00200799)
(0.00374394 0.00160732 0.00183497)
(0.00380871 0.00295128 0.00188837)
(0.00386788 0.00349645 0.00199265)
(0.00431134 0.00393334 0.0023465)
(0.00465118 0.00363246 0.00249062)
(0.00501011 0.0032478 0.00261849)
(0.00512309 0.00256716 0.00256334)
(0.00524022 0.00203072 0.0025193)
(0.00524632 0.00148496 0.0024253)
(0.00528383 0.0011374 0.00236884)
(0.00529578 0.000831245 0.00228901)
(0.00530886 0.000659037 0.00224361)
(0.00530172 0.000523032 0.00221162)
(0.00528411 0.000460864 0.00220903)
(0.00525543 0.000420976 0.00222208)
(0.00521997 0.000413733 0.0022522)
(0.00517917 0.000416721 0.0022922)
(0.00513448 0.000429578 0.00234035)
(0.00508608 0.000445545 0.00239382)
(0.00503351 0.000460864 0.00245192)
(0.00497979 0.000480089 0.00251032)
(0.00492775 0.000480114 0.00256162)
(0.00488123 0.000494838 0.00261219)
(0.0048223 0.000430372 0.00266705)
(0.00477403 0.000443978 0.00272832)
(0.00470665 0.000253805 0.0027958)
(0.00468109 0.00026846 0.00287848)
(0.00463779 -0.000162955 0.00296752)
(0.0046716 -0.000173746 0.00306636)
(0.00466749 -0.000964479 0.00314588)
(0.00474447 -0.00093446 0.00319728)
(0.00474043 -0.00203324 0.00317311)
(0.00474878 -0.00167333 0.00304875)
(0.00467228 -0.00269936 0.00267727)
(0.0046385 -0.00135473 0.00198676)
(0.00462048 -0.00182159 0.00125875)
(0.00509967 0.000518703 0.000792823)
(0.00625972 -0.000634944 0.000526598)
(0.00708242 0.00165066 -0.000470128)
(0.00643004 0.00219437 -0.00189597)
(0.00478251 0.00899732 -0.002438)
(0.00813832 0.00701297 -0.00282939)
(0.0254056 0.0049785 -0.00404575)
(0.0414729 -0.0116841 -0.00366668)
(0.0579122 -0.0141309 -0.00211165)
(0.0611919 -0.0428087 -0.000395524)
(0.0553001 -0.0289911 0.00398958)
(0.0575732 -0.0901032 0.0138509)
(0.0163962 -0.0414663 0.0123887)
(0.00836104 -0.161095 0.0415099)
(-0.0861567 0.0397384 -0.0840283)
(0.0213071 0.0453902 0.0240219)
(0.11817 0.350715 0.0828451)
(0.0237185 0.427729 0.00358746)
(0.0213427 -0.0650716 0.00892516)
(0.0246392 -0.0197079 0.0131509)
(0.0137046 -0.039208 0.0136225)
(0.00711569 -0.0247921 0.011151)
(0.00456412 -0.0274428 0.00844126)
(0.00517712 -0.0220217 0.00851569)
(0.0067683 -0.0226082 0.00906326)
(0.00662092 -0.0189023 0.00820779)
(0.00528447 -0.0195819 0.00919025)
(0.00285542 -0.0187254 0.0104019)
(0.000470113 -0.0217274 0.0105476)
(-0.00299361 -0.0234818 0.0089481)
(-0.00622823 -0.0253579 0.00686172)
(-0.00748949 -0.0233405 0.00607112)
(-0.00723198 -0.020302 0.0055532)
(-0.00784382 -0.0164789 0.00629132)
(-0.00751237 -0.0121436 0.00633562)
(-0.00494582 -0.00820223 0.00617526)
(-0.00203625 -0.00403394 0.00547058)
(0.000526855 8.81416e-05 0.00621121)
(0.00195176 0.00011155 0.00808709)
(0.000800262 -0.00193076 0.00833903)
(-0.00147572 -0.00274581 0.0072958)
(-0.00173485 -0.00254354 0.00710491)
(-0.00168801 -0.000268344 0.00685059)
(-0.00277173 0.00319852 0.0062671)
(-0.00361033 0.00718117 0.00522772)
(-0.00378099 0.0113341 0.00307326)
(-0.00302201 0.0160973 0.00256161)
(-0.00184398 0.0212796 0.00249235)
(-0.00137133 0.0270198 0.00530906)
(8.33036e-05 0.0279573 0.0110776)
(0.00231337 0.0256503 0.0165114)
(0.00439839 0.0152097 0.022454)
(0.0212381 0.0221909 0.00378496)
(0.0227722 0.0133091 0.00358215)
(0.0138515 0.00967412 0.00121625)
(0.0141386 0.00914704 0.00206309)
(0.00827405 0.00486583 0.00249417)
(0.00734177 0.00426679 0.00295907)
(0.00397144 0.00157807 0.00344927)
(0.00356668 0.00240994 0.0032972)
(0.00283484 0.00253467 0.00314707)
(0.00317575 0.00367989 0.00325414)
(0.00329394 0.00376498 0.0033194)
(0.0040218 0.00409348 0.00359522)
(0.00442798 0.00371152 0.003717)
(0.00489956 0.00348529 0.00383493)
(0.00504064 0.00290296 0.00380332)
(0.00518597 0.00246581 0.00379685)
(0.00513965 0.00193763 0.00375662)
(0.00514507 0.00158851 0.0037527)
(0.00507983 0.00124651 0.00374717)
(0.00503714 0.00104011 0.00376377)
(0.00496845 0.000862832 0.00378328)
(0.00490686 0.000765263 0.00381504)
(0.00483924 0.000694245 0.00384872)
(0.00477342 0.000662912 0.00388804)
(0.00470729 0.000647289 0.00392913)
(0.00464222 0.000645754 0.0039717)
(0.00457662 0.0006486 0.00401462)
(0.00450987 0.000649395 0.00405839)
(0.00444276 0.00064745 0.00410342)
(0.00437372 0.000622904 0.0041509)
(0.00430952 0.000609119 0.0042006)
(0.00423251 0.000522424 0.00425134)
(0.00416982 0.00050633 0.00430454)
(0.00408362 0.000305144 0.0043582)
(0.00405785 0.00031586 0.00441702)
(0.00401179 -5.77279e-05 0.00447225)
(0.00407049 3.71407e-05 0.00452918)
(0.00407619 -0.000539545 0.00456588)
(0.0041966 -0.000231163 0.00458436)
(0.00420812 -0.000954242 0.00455228)
(0.00429889 -0.000211696 0.00445995)
(0.00419083 -0.000992956 0.00427194)
(0.00411598 0.000360612 0.00396831)
(0.0041303 -0.000553214 0.00354456)
(0.00476307 0.00113845 0.0031445)
(0.00593815 -0.000239354 0.00283542)
(0.00653072 0.00274781 0.00198715)
(0.00622396 0.00217416 0.000723593)
(0.00663342 0.00716367 0.000621424)
(0.015583 -0.00105688 0.000655146)
(0.0383311 -0.00276281 1.25883e-05)
(0.0602278 -0.0148093 0.00186883)
(0.074262 -0.00879898 0.00559778)
(0.0797779 -0.0280405 0.00777862)
(0.0786759 -0.00808238 0.0169172)
(0.0815056 -0.0725163 0.0291286)
(0.0316219 -0.0102183 0.0399122)
(0.0407291 -0.180649 0.073064)
(-0.0956221 0.0841771 -0.0695114)
(0.047664 0.0198937 -0.00166605)
(0.16203 0.377002 0.100354)
(0.070146 0.45789 0.0249503)
(0.0638625 0.0115388 0.021184)
(0.0441614 0.0819802 0.00967087)
(0.0312548 0.050639 0.0105542)
(0.0209696 0.0660397 0.0107308)
(0.0189356 0.0564252 0.0120082)
(0.016367 0.0582533 0.0105067)
(0.0173746 0.0550502 0.00917865)
(0.0169676 0.0497414 0.00992416)
(0.0153578 0.0362394 0.0109203)
(0.0124347 0.0261844 0.0113633)
(0.00996586 0.0183534 0.0103231)
(0.00674722 0.0163706 0.00873045)
(0.00308492 0.0140937 0.00668783)
(-0.000546472 0.0142147 0.00586976)
(-0.00235475 0.0147594 0.0070715)
(-0.00316522 0.0151123 0.00872501)
(-0.00321823 0.0145351 0.00924065)
(-0.00222412 0.0141004 0.00915109)
(-0.000753604 0.0144615 0.00845176)
(0.00165806 0.0143011 0.00986483)
(0.00297968 0.0117753 0.0129549)
(-0.000114324 0.0084502 0.0131045)
(-0.00359039 0.00529823 0.0120554)
(-0.00555214 0.00333362 0.0115904)
(-0.00639906 0.00447574 0.00963275)
(-0.00683737 0.00651346 0.00702716)
(-0.0067057 0.010253 0.00464592)
(-0.00610061 0.0145115 0.00313806)
(-0.00462993 0.0178352 0.00331046)
(-0.00443791 0.0211862 0.00508688)
(-0.00344843 0.0235824 0.00843987)
(-0.001716 0.0227273 0.0133449)
(-0.00142554 0.0206586 0.0186758)
(-0.00238937 0.0113261 0.0240465)
(0.0226198 0.0223138 0.00406009)
(0.0258856 0.0158959 0.00421398)
(0.0154036 0.0107186 0.00106958)
(0.0169701 0.0117432 0.00150409)
(0.0104034 0.00659582 0.0015855)
(0.00975265 0.0066068 0.00220379)
(0.00429357 0.00212901 0.00301313)
(0.00308677 0.00257255 0.00298035)
(0.00169274 0.00195021 0.00308179)
(0.00233461 0.00335734 0.00331442)
(0.00246241 0.00319511 0.00348711)
(0.00317721 0.0037121 0.00390957)
(0.00351273 0.00347901 0.00408141)
(0.00399524 0.0034981 0.0042254)
(0.00413959 0.00302855 0.00418425)
(0.00429515 0.00270744 0.00418582)
(0.00422499 0.00220369 0.00415601)
(0.0042152 0.00188194 0.00416966)
(0.00412074 0.00152897 0.00417404)
(0.00405601 0.00130579 0.00419814)
(0.00396229 0.00109926 0.00422201)
(0.00387693 0.0009753 0.00425673)
(0.00378356 0.000877319 0.00429189)
(0.00369576 0.000823111 0.0043317)
(0.00361123 0.000789057 0.00437291)
(0.00353176 0.000773274 0.00441615)
(0.00345592 0.000764143 0.00446016)
(0.0033832 0.000755729 0.00450466)
(0.00331453 0.000744935 0.00454942)
(0.00325018 0.000714855 0.00459471)
(0.00319519 0.000691905 0.00464053)
(0.00313337 0.000607457 0.00468663)
(0.00309295 0.000591892 0.00473279)
(0.00303387 0.000419079 0.00477535)
(0.00304098 0.000462575 0.00481216)
(0.00301231 0.000171119 0.00483419)
(0.00309149 0.000369693 0.00484181)
(0.00308122 -3.3396e-05 0.0048218)
(0.00319454 0.000484701 0.00477992)
(0.00316169 3.21472e-05 0.00470562)
(0.00327661 0.00107207 0.00460305)
(0.00326991 0.000499209 0.00446759)
(0.00349366 0.00179427 0.00430384)
(0.00363161 0.000424796 0.00414014)
(0.00399936 0.00168224 0.00406058)
(0.00463929 -3.41699e-05 0.00395181)
(0.00560665 0.00280407 0.00333881)
(0.0062795 0.000747972 0.00235471)
(0.00940334 0.00281317 0.00274423)
(0.0195612 -0.00814261 0.0022663)
(0.0423241 -0.00718665 0.00322149)
(0.0642867 -0.0089122 0.00862782)
(0.0785538 0.00669366 0.0145545)
(0.0834664 -0.00106246 0.018973)
(0.0812421 0.0286824 0.0343016)
(0.0807645 -0.0337923 0.0490063)
(0.0355123 0.0623669 0.0914304)
(0.0604072 -0.186985 0.121042)
(-0.116262 0.214232 -0.0431566)
(0.0472954 -0.0439802 0.0246017)
(0.141497 0.455221 0.104156)
(0.0451604 0.576825 0.0168135)
(0.0299043 0.412886 0.0141049)
(0.0092878 0.463522 0.00116062)
(0.00762939 0.411483 0.0095177)
(0.00407102 0.388689 0.00846342)
(0.00585413 0.3568 0.0089819)
(0.00556007 0.329675 0.00780651)
(0.00785289 0.297754 0.00725801)
(0.00826968 0.271971 0.00749397)
(0.00783537 0.239261 0.00767231)
(0.00609896 0.21114 0.00638998)
(0.00384534 0.185147 0.00547242)
(0.00123249 0.161606 0.0050013)
(-0.000462913 0.139772 0.00535849)
(-0.00296693 0.123484 0.00736632)
(-0.00550001 0.110548 0.00936427)
(-0.00744696 0.0943756 0.0114102)
(-0.00862609 0.073602 0.0125192)
(-0.00812032 0.0559752 0.0122609)
(-0.00703401 0.0467912 0.012783)
(-0.0067679 0.0430205 0.0127564)
(-0.00690141 0.0400073 0.0141826)
(-0.00784429 0.0363095 0.0141037)
(-0.0110562 0.0361196 0.0134027)
(-0.0133322 0.0354137 0.0124574)
(-0.0132344 0.0367228 0.00858043)
(-0.0133832 0.0370874 0.00654854)
(-0.0128277 0.035021 0.00460266)
(-0.010361 0.0323943 0.00225276)
(-0.00860292 0.0303176 0.00331061)
(-0.00758517 0.0292035 0.0060178)
(-0.00680501 0.0276618 0.010047)
(-0.00589798 0.0234223 0.0156731)
(-0.00813572 0.0200373 0.020147)
(-0.0112477 0.0103703 0.0245445)
(0.0226673 0.0224027 0.00446531)
(0.0279731 0.0185409 0.00514719)
(0.016455 0.0110885 0.000970981)
(0.0191331 0.0133542 0.00139786)
(0.0121801 0.00673867 0.00065684)
(0.0124628 0.0081513 0.00109981)
(0.0059014 0.00282667 0.00148844)
(0.00370932 0.00328371 0.00204538)
(0.000690683 0.000921487 0.00248337)
(0.000966376 0.0023256 0.0029441)
(0.000919463 0.00196494 0.00322035)
(0.00147673 0.00290715 0.00386588)
(0.00165619 0.00294401 0.00408706)
(0.00215302 0.00327538 0.00427768)
(0.00230649 0.00295057 0.00421157)
(0.0024392 0.00273172 0.00422616)
(0.00229119 0.00226224 0.00419267)
(0.00219384 0.00198514 0.00421557)
(0.00201813 0.00164995 0.00421325)
(0.00189505 0.00144057 0.00422659)
(0.00175056 0.00122375 0.00423027)
(0.00163145 0.00108183 0.00424491)
(0.00151527 0.000961798 0.00426017)
(0.00141238 0.000888069 0.00428166)
(0.00131919 0.000836256 0.00430578)
(0.00123639 0.000805636 0.00433404)
(0.001161 0.000784799 0.00436416)
(0.0010937 0.000767599 0.00439611)
(0.0010349 0.000748693 0.00442892)
(0.000983453 0.000716069 0.00446038)
(0.00094115 0.000692494 0.00448935)
(0.000893036 0.000623174 0.00451527)
(0.00086201 0.000623483 0.00453916)
(0.000810084 0.000498831 0.00455555)
(0.000826653 0.000593385 0.00456168)
(0.0008078 0.000401651 0.00454291)
(0.000901098 0.000699527 0.00450131)
(0.000882846 0.000462804 0.00441834)
(0.000982881 0.00115137 0.0043087)
(0.000895665 0.000915888 0.00417261)
(0.00106693 0.00209111 0.00405604)
(0.00123142 0.0015555 0.00397665)
(0.00181072 0.00272167 0.00392759)
(0.00214543 0.00108574 0.00392921)
(0.00247364 0.00206353 0.00406131)
(0.00287363 -5.06774e-05 0.00412933)
(0.00412875 0.00231602 0.00395645)
(0.00652441 -0.000376054 0.00390645)
(0.0117474 -0.000193393 0.00476582)
(0.0227726 -0.0113038 0.00542954)
(0.0412967 -0.00548721 0.00914751)
(0.0598261 0.00330582 0.0183683)
(0.0711428 0.0301319 0.0243778)
(0.074506 0.0318493 0.0286399)
(0.0683619 0.0658573 0.04816)
(0.0650527 0.0189422 0.0623389)
(0.0444276 0.127665 0.104521)
(0.0692165 -0.128132 0.121315)
(-0.0760094 0.330001 -0.00442775)
(0.0384169 -0.0771448 0.0326455)
(0.129285 0.499064 0.113031)
(0.0391459 0.614262 0.0167924)
(0.0301289 0.539506 0.0155151)
(0.0098459 0.592276 0.000189911)
(0.0110468 0.583891 0.00748578)
(0.00518861 0.599455 0.00653934)
(0.00707477 0.601777 0.00787916)
(0.0068929 0.607865 0.00705246)
(0.00914313 0.605795 0.00688508)
(0.00959755 0.604925 0.00642123)
(0.00951403 0.599074 0.00651438)
(0.00803951 0.595351 0.00655817)
(0.0063173 0.591068 0.00711761)
(0.00381118 0.584684 0.00800428)
(0.00160862 0.568034 0.00917736)
(-0.000877896 0.537615 0.00993234)
(-0.00306622 0.515117 0.0106437)
(-0.00518873 0.493932 0.0109331)
(-0.00628745 0.471583 0.0116463)
(-0.00665225 0.449822 0.0122261)
(-0.00738267 0.426634 0.0130238)
(-0.00821463 0.386757 0.0137547)
(-0.00865205 0.329686 0.0137003)
(-0.00957061 0.277623 0.0111738)
(-0.00955362 0.231739 0.00768885)
(-0.00997975 0.211817 0.00409253)
(-0.00945663 0.189412 0.00230376)
(-0.00891342 0.165005 0.0011243)
(-0.00875982 0.146742 0.000306275)
(-0.00791197 0.12991 0.00218293)
(-0.00816883 0.114819 0.00482963)
(-0.0080765 0.0949903 0.00767829)
(-0.00837618 0.0814471 0.0123532)
(-0.00942505 0.0582818 0.0174551)
(-0.0137533 0.0361137 0.0213776)
(-0.0209481 0.0169138 0.0234085)
(0.0211948 0.0221205 0.00552085)
(0.029384 0.021521 0.00652951)
(0.0166573 0.0112059 0.00161428)
(0.0205772 0.0148557 0.00258476)
(0.0131579 0.00539307 0.000907833)
(0.0140573 0.00834546 0.000927357)
(0.00775212 0.00245801 0.000474282)
(0.00519943 0.00404905 0.00106843)
(0.00102256 0.000387383 0.00178076)
(0.000139965 0.00148415 0.00241604)
(-0.000383145 0.000434914 0.00274191)
(-7.65759e-05 0.00167691 0.00357938)
(0.000184412 0.00200531 0.0039335)
(0.000830602 0.00277472 0.00430559)
(0.00113939 0.00256971 0.00435952)
(0.00132011 0.00249282 0.00447019)
(0.00113941 0.00207732 0.00445019)
(0.000987716 0.00189775 0.0044718)
(0.000763675 0.00163752 0.00443604)
(0.000610578 0.00150886 0.00441095)
(0.000447954 0.0013472 0.00436414)
(0.000319224 0.00124692 0.00432513)
(0.000197514 0.00114841 0.004285)
(9.49474e-05 0.00108318 0.00425379)
(9.56103e-06 0.00103117 0.00422817)
(-5.83293e-05 0.000996842 0.00421103)
(-0.000111748 0.000973484 0.00420122)
(-0.000151726 0.000957388 0.00419811)
(-0.000180192 0.000944554 0.00419948)
(-0.000199407 0.00092558 0.00420394)
(-0.000209306 0.000918338 0.00421089)
(-0.000220883 0.000881094 0.00421872)
(-0.000215385 0.000915356 0.00422942)
(-0.000225759 0.000859816 0.00423162)
(-0.000176575 0.00102633 0.00421931)
(-0.000171814 0.000958186 0.00417355)
(-9.20489e-05 0.00136079 0.00408975)
(-0.000163486 0.00126351 0.00394343)
(-0.00013581 0.00200269 0.00375654)
(-0.00024363 0.00178772 0.00356205)
(-1.04754e-05 0.00282023 0.00343016)
(0.000291805 0.00216163 0.00339469)
(0.0010873 0.00317505 0.00348816)
(0.00148561 0.00138638 0.00369881)
(0.00169319 0.00226273 0.00390044)
(0.0016877 0.000118773 0.0037872)
(0.00299742 0.00263191 0.00370491)
(0.0061605 -0.000630325 0.00484971)
(0.0132725 -0.00084055 0.00598505)
(0.0223473 -0.010521 0.00828727)
(0.0330397 0.00119385 0.0149684)
(0.0419523 0.0146693 0.0273203)
(0.0532213 0.0438337 0.0353438)
(0.0573351 0.049283 0.0398735)
(0.0531374 0.0843334 0.056155)
(0.0493415 0.0334528 0.0607099)
(0.0442341 0.130323 0.0811532)
(0.0591641 -0.105416 0.0790537)
(-0.00183373 0.368901 0.0354284)
(0.0273704 -0.0847044 0.0359365)
(0.0728703 0.53705 0.103888)
(0.0108804 0.638651 0.00610031)
(0.00593775 0.600227 0.00837897)
(-0.00765715 0.657316 -0.000202892)
(-0.00419514 0.65681 0.00887953)
(-0.00475117 0.671295 0.00957551)
(0.000571689 0.670671 0.0111402)
(0.00400604 0.675179 0.0106959)
(0.00810942 0.674613 0.0107407)
(0.0106209 0.675158 0.0104974)
(0.0122906 0.669233 0.0104894)
(0.0119505 0.664912 0.0106851)
(0.0114159 0.662282 0.0110725)
(0.00942834 0.659417 0.0117471)
(0.00741082 0.653445 0.0125268)
(0.00480633 0.649008 0.0129726)
(0.00261995 0.641979 0.0131606)
(0.000119408 0.634287 0.0129367)
(-0.00204323 0.626138 0.0126821)
(-0.00348317 0.615485 0.0123606)
(-0.00484006 0.604932 0.0112138)
(-0.00606594 0.591561 0.00950507)
(-0.00688586 0.57568 0.00628097)
(-0.00787814 0.555404 0.00173487)
(-0.00900278 0.530194 -0.00172837)
(-0.00947843 0.497094 -0.00306222)
(-0.00897234 0.447059 -0.00285482)
(-0.00816659 0.389668 -0.00127046)
(-0.00820603 0.348389 0.00193567)
(-0.0090654 0.320382 0.00559951)
(-0.0102385 0.28497 0.00775467)
(-0.0112544 0.243352 0.0102824)
(-0.0127718 0.215809 0.0146248)
(-0.0155144 0.182027 0.0184112)
(-0.0210137 0.138672 0.020856)
(-0.0265472 0.104032 0.0200695)
(0.0171932 0.0207629 0.00558778)
(0.0291722 0.0251363 0.00840292)
(0.0147972 0.0107821 0.00322916)
(0.0201587 0.0167725 0.00521646)
(0.0121749 0.00373639 0.0026184)
(0.0132651 0.00773565 0.00250235)
(0.007551 0.000956833 0.00145843)
(0.00567144 0.00396546 0.0011593)
(0.00107813 4.88913e-05 0.00157244)
(-0.000652229 0.00141115 0.0023157)
(-0.0020795 -0.000429054 0.00255666)
(-0.00267777 0.000858552 0.00335683)
(-0.0028538 0.00117866 0.00378442)
(-0.00202794 0.00215128 0.00447297)
(-0.00163555 0.00199117 0.00476018)
(-0.00147444 0.00210062 0.00499867)
(-0.00177596 0.00178276 0.00498637)
(-0.00207891 0.00174633 0.00496908)
(-0.00241914 0.00158956 0.00487012)
(-0.00263211 0.0015731 0.00478685)
(-0.00282275 0.00150054 0.00468332)
(-0.00295254 0.00148152 0.0045979)
(-0.00305702 0.00144236 0.00451746)
(-0.00313353 0.0014207 0.00445624)
(-0.00318959 0.00139711 0.0044084)
(-0.00322915 0.00138038 0.00437577)
(-0.0032555 0.00136659 0.00435275)
(-0.00326505 0.00135866 0.00434046)
(-0.00325864 0.0013565 0.00433842)
(-0.00323864 0.00135428 0.00434545)
(-0.00321262 0.00136846 0.00436107)
(-0.00319158 0.00136919 0.00438168)
(-0.00317166 0.00144908 0.00440538)
(-0.00318127 0.00147398 0.0044149)
(-0.00314289 0.00171411 0.00440808)
(-0.00313977 0.00174657 0.00436896)
(-0.00303811 0.00219509 0.00430905)
(-0.00303507 0.00211885 0.00419774)
(-0.0029013 0.00271496 0.00403565)
(-0.00290204 0.00227939 0.00381344)
(-0.00257701 0.00297181 0.00361918)
(-0.002211 0.00204345 0.0034874)
(-0.00129023 0.00290636 0.00357589)
(-0.000872628 0.00118505 0.00380158)
(-0.000776014 0.00222116 0.00396513)
(-0.00109805 0.000371364 0.00352077)
(0.000652365 0.00276483 0.00346437)
(0.0046097 -0.00127209 0.00505279)
(0.0122889 -0.0019831 0.00610656)
(0.0186847 -0.00566134 0.00969492)
(0.0178243 0.011689 0.0185474)
(0.0217838 0.0307311 0.0310801)
(0.0288679 0.0611479 0.0407238)
(0.034915 0.072594 0.0480249)
(0.0421645 0.104264 0.0605114)
(0.0462916 0.0527108 0.0626455)
(0.0596238 0.143292 0.0725238)
(0.0529016 -0.099757 0.0581349)
(0.020684 0.350884 0.059843)
(0.00914916 -0.0667423 0.0355189)
(0.014317 0.563238 0.0888887)
(-0.0135762 0.657117 0.00373656)
(-0.0134441 0.63312 0.00529823)
(-0.0176341 0.686317 8.42053e-05)
(-0.0098132 0.681707 0.010202)
(-0.00570126 0.693679 0.0103232)
(0.000571223 0.691153 0.0120168)
(0.00527853 0.69474 0.0122642)
(0.00909939 0.693283 0.0132726)
(0.0119718 0.692668 0.0136311)
(0.0142745 0.690573 0.0140922)
(0.0153117 0.685443 0.0145993)
(0.0156126 0.683812 0.0150923)
(0.0143692 0.680251 0.0151296)
(0.0127753 0.675634 0.0153007)
(0.0103849 0.667616 0.0145884)
(0.00809343 0.657863 0.0139254)
(0.00554475 0.648126 0.0129537)
(0.00387725 0.642249 0.0123385)
(0.0028939 0.636451 0.0115445)
(0.0029996 0.629913 0.00970867)
(0.0030286 0.625235 0.00643544)
(0.00288244 0.626379 0.00211413)
(0.00160501 0.621413 -0.0027005)
(9.82375e-05 0.612022 -0.00612847)
(-0.00154497 0.597083 -0.00800763)
(-0.00314999 0.583415 -0.00770927)
(-0.0046428 0.565653 -0.00599731)
(-0.00563914 0.533685 -0.00296432)
(-0.00710818 0.515373 0.000387302)
(-0.00955839 0.501567 0.00205912)
(-0.0129406 0.481135 0.00450522)
(-0.015937 0.439195 0.00774023)
(-0.0205303 0.378591 0.011824)
(-0.0274644 0.311932 0.0137297)
(-0.0359834 0.260336 0.011905)
(0.0131375 0.0155793 0.00421207)
(0.0278147 0.028432 0.00896841)
(0.0113314 0.00992896 0.00402296)
(0.0182233 0.0193579 0.0066445)
(0.0105952 0.00311145 0.00387576)
(0.0110067 0.00781951 0.00361859)
(0.00530011 -0.000314762 0.00292585)
(0.00438043 0.00382632 0.00210777)
(0.000317395 -0.000287482 0.002206)
(-0.00147544 0.00172691 0.00284088)
(-0.00307035 -0.000574924 0.0031607)
(-0.00394701 0.000512817 0.00393282)
(-0.00400361 -1.80093e-06 0.0046147)
(-0.00303118 0.000828858 0.00550367)
(-0.00258411 0.000647762 0.00611054)
(-0.00242655 0.00117374 0.0065671)
(-0.00269199 0.00119303 0.0067364)
(-0.00292957 0.00152011 0.00679712)
(-0.0032102 0.00157884 0.00672574)
(-0.00336954 0.00174423 0.0066376)
(-0.00351542 0.00177668 0.00651901)
(-0.00359874 0.00183587 0.00642056)
(-0.00365882 0.00184479 0.00632923)
(-0.00368817 0.00185476 0.00626066)
(-0.00369637 0.00185051 0.00620822)
(-0.00368458 0.00184668 0.00617389)
(-0.00366108 0.00184195 0.00615242)
(-0.00362478 0.00184155 0.00614276)
(-0.00357882 0.00184679 0.00614155)
(-0.00352355 0.0018576 0.00614875)
(-0.0034684 0.00188717 0.00616164)
(-0.00342553 0.00191813 0.00617614)
(-0.00339503 0.0020337 0.00618971)
(-0.00339205 0.00211771 0.00619215)
(-0.00333798 0.00239231 0.00618191)
(-0.00331479 0.0024651 0.00614393)
(-0.00318293 0.00287606 0.00608997)
(-0.00312723 0.00275822 0.00598802)
(-0.00288035 0.00322918 0.00585564)
(-0.00275774 0.00268972 0.00566474)
(-0.00235654 0.00317636 0.00547471)
(-0.00208473 0.00208222 0.00528708)
(-0.0013834 0.00275912 0.00528731)
(-0.00121029 0.00104907 0.00546346)
(-0.00147432 0.00217761 0.00557315)
(-0.00210485 0.000171613 0.00504935)
(-0.000129904 0.00129321 0.00473235)
(0.00441674 -0.00346661 0.00544253)
(0.00963073 -0.00135664 0.0068518)
(0.00639126 0.0065255 0.0144798)
(-0.00463305 0.0266143 0.0255325)
(-0.00704705 0.0478027 0.0354213)
(0.000209666 0.0768942 0.0417567)
(0.0138047 0.0957998 0.0473476)
(0.0315569 0.129676 0.0607004)
(0.0548608 0.108763 0.0680981)
(0.0818167 0.173954 0.0850785)
(0.0746132 -0.0230633 0.0768291)
(0.0667946 0.382468 0.0392773)
(-0.0266929 -0.0799227 0.0284212)
(-0.0662948 0.591208 0.0518997)
(-0.0437971 0.684935 -0.0117823)
(-0.0415957 0.65308 -0.00162587)
(-0.0294812 0.697542 -0.00332296)
(-0.0191116 0.68635 0.00547958)
(-0.00761208 0.69412 0.00459574)
(-0.0019076 0.689174 0.00603471)
(0.0045444 0.689669 0.00615795)
(0.00857408 0.691091 0.00787786)
(0.0126558 0.691137 0.00968092)
(0.0153499 0.690005 0.0110527)
(0.0173992 0.690982 0.0122534)
(0.0189527 0.689468 0.0134974)
(0.019559 0.685251 0.014516)
(0.0195458 0.677862 0.0157925)
(0.0188481 0.672222 0.0165088)
(0.0179926 0.663308 0.0170036)
(0.0168707 0.652868 0.0171236)
(0.0157437 0.640052 0.0165972)
(0.0152272 0.627593 0.0155019)
(0.0151368 0.619317 0.0138664)
(0.0153143 0.610649 0.011484)
(0.0145541 0.603091 0.0084711)
(0.013337 0.595024 0.00506015)
(0.0114157 0.586617 0.00238652)
(0.0083126 0.572826 -0.000391266)
(0.00579451 0.559719 -0.00230382)
(0.00339729 0.547518 -0.00336807)
(0.000972344 0.538742 -0.00233643)
(-0.000879771 0.528611 4.91567e-05)
(-0.00374245 0.515216 0.00301802)
(-0.00764317 0.505648 0.00648264)
(-0.011591 0.495645 0.00901129)
(-0.0175713 0.485223 0.00792147)
(-0.0236376 0.473021 0.000268734)
(-0.0302628 0.453073 -0.016405)
(0.00263428 0.0109036 -0.00460891)
(0.025235 0.0305802 0.00653628)
(0.00598673 0.00963229 0.00143114)
(0.015078 0.0228103 0.00438421)
(0.00806232 0.00434847 0.0022941)
(0.00794434 0.00935253 0.00148811)
(0.00204971 -0.000166315 0.000679519)
(0.00183277 0.00462045 -0.00035982)
(-0.0017753 0.000293909 -0.000727946)
(-0.00344737 0.00239272 -0.000390156)
(-0.00527238 -0.000328298 -1.70793e-05)
(-0.00622515 0.000490964 0.000663128)
(-0.00694002 -0.00080761 0.00134959)
(-0.00648536 -4.12099e-05 0.0021325)
(-0.00661633 -0.000144019 0.00283005)
(-0.00668122 0.0006867 0.00333899)
(-0.00712191 0.000876553 0.00369116)
(-0.00739167 0.0013986 0.00390056)
(-0.00769515 0.00155766 0.00397573)
(-0.00781567 0.00181702 0.0039933)
(-0.00791476 0.00191242 0.00396296)
(-0.00795541 0.00202181 0.00393365)
(-0.00796979 0.00206589 0.00390328)
(-0.00795966 0.00209867 0.00388482)
(-0.00793372 0.00211027 0.00387396)
(-0.00789374 0.00211805 0.00387261)
(-0.00784359 0.00212345 0.00387751)
(-0.00778237 0.00213276 0.00388756)
(-0.00771074 0.00214979 0.00389966)
(-0.00763148 0.00217772 0.00391271)
(-0.00756162 0.00222419 0.003925)
(-0.00751467 0.00227922 0.00393444)
(-0.00749532 0.00240588 0.0039399)
(-0.00750357 0.00249762 0.00393758)
(-0.00744711 0.00274912 0.00392194)
(-0.0073884 0.0028133 0.00389407)
(-0.00719412 0.0031948 0.00384802)
(-0.00705225 0.00310692 0.00377297)
(-0.00676582 0.00357181 0.00364436)
(-0.00661197 0.0030734 0.00346424)
(-0.00618523 0.0035417 0.00324467)
(-0.00587049 0.00243892 0.00303337)
(-0.00510516 0.00289774 0.00297428)
(-0.00494751 0.00103283 0.00318586)
(-0.00512364 0.00181027 0.0032107)
(-0.00490835 -0.000591723 0.00245718)
(-0.00191405 0.000257426 0.00239891)
(0.000635896 -0.00274451 0.00200554)
(-0.00316071 0.00419119 0.00324144)
(-0.0122135 0.0128854 0.0115713)
(-0.0275292 0.0256783 0.0243208)
(-0.0304841 0.0329568 0.0335835)
(-0.0255971 0.0551515 0.0362702)
(-0.0133333 0.0604863 0.034473)
(0.000344794 0.108855 0.0452668)
(0.0301809 0.0667804 0.0469036)
(0.0734239 0.172245 0.0687274)
(0.091114 -0.023562 0.0762672)
(0.157034 0.41396 0.0288305)
(-0.0459028 -0.106361 0.0229242)
(-0.127828 0.55613 0.0374692)
(-0.0598107 0.668053 -0.00920786)
(-0.0531692 0.611871 0.00245006)
(-0.0267671 0.65421 0.00302439)
(-0.0187002 0.626344 0.00936101)
(-0.005653 0.630908 0.00590856)
(-0.00321039 0.620633 0.00483271)
(0.0016809 0.622112 0.00300498)
(0.00382394 0.620966 0.00265658)
(0.0068218 0.621952 0.00275788)
(0.00780619 0.620589 0.00243767)
(0.00887449 0.622376 0.00266749)
(0.00961963 0.623115 0.00288991)
(0.0114351 0.626979 0.00395597)
(0.0134208 0.62994 0.00525174)
(0.0153291 0.631506 0.00709891)
(0.0164341 0.628348 0.00798519)
(0.0171001 0.625674 0.00847727)
(0.0176368 0.619376 0.00859183)