/*--------------------------------*- C++ -*----------------------------------*\
| =========                 |                                                 |
| \\      /  F ield         | OpenFOAM: The Open Source CFD Toolbox           |
|  \\    /   O peration     | Version:  2.3.0                                 |
|   \\  /    A nd           | Web:      www.OpenFOAM.org                      |
|    \\/     M anipulation  |                                                 |
\*---------------------------------------------------------------------------*/
FoamFile
{
    version     2.0;
    format      ascii;
    class       volVectorField;
    location    "32";
    object      Ur;
}
// * * * * * * * * * * * * * * * * * * * * * * * * * * * * * * * * * * * * * //

dimensions      [0 1 -1 0 0 0 0];

internalField   nonuniform List<vector> 
6144
(
(-2.38213e-07 0.000352065 7.59749e-08)
(-2.21738e-07 0.000376132 3.98273e-08)
(-2.19676e-07 0.000400198 -1.18602e-08)
(-1.92562e-07 0.000419798 -5.56398e-08)
(-2.02045e-07 0.000442011 -3.61972e-08)
(-1.81591e-07 0.000467811 -3.97832e-08)
(-1.79827e-07 0.000499669 -4.66189e-08)
(-1.86392e-07 0.000532997 -4.95216e-08)
(-1.80848e-07 0.000553592 -4.5005e-08)
(-1.67867e-07 0.000559661 -4.61815e-08)
(-1.55286e-07 0.000560767 -4.13866e-08)
(-1.43831e-07 0.00056145 -2.18649e-08)
(-1.29665e-07 0.000562054 -1.55112e-08)
(-1.12398e-07 0.000562548 -1.00514e-08)
(-9.29719e-08 0.000562945 -1.16902e-08)
(-7.50344e-08 0.000563274 -1.338e-08)
(-6.1694e-08 0.000563541 -1.96567e-08)
(-4.89297e-08 0.000563765 -2.41964e-08)
(-4.18109e-08 0.000563946 -3.02909e-08)
(-3.24576e-08 0.000564092 -3.50606e-08)
(-2.81238e-08 0.000564203 -3.84185e-08)
(-2.15549e-08 0.000564283 -3.77754e-08)
(-1.9268e-08 0.000564338 -3.71964e-08)
(-1.45908e-08 0.000564368 -3.39197e-08)
(-1.36774e-08 0.000564372 -3.13318e-08)
(-1.03409e-08 0.000564347 -2.66823e-08)
(-1.01605e-08 0.000564308 -2.3753e-08)
(-7.49031e-09 0.000564266 -2.01675e-08)
(-7.43936e-09 0.000564221 -1.72394e-08)
(-4.91867e-09 0.000564164 -1.35851e-08)
(-4.8567e-09 0.000564102 -1.10562e-08)
(-2.50616e-09 0.00056403 -8.33108e-09)
(-1.39765e-09 0.000563952 -7.10623e-09)
(2.10803e-09 0.000563865 -5.31123e-09)
(4.28232e-09 0.000563772 -4.56543e-09)
(8.7385e-09 0.000563672 -3.19867e-09)
(1.39417e-08 0.000563557 -1.24557e-09)
(1.82465e-08 0.000563424 -1.7292e-09)
(2.47584e-08 0.000563244 -8.66887e-10)
(3.71233e-08 0.000563069 7.32076e-10)
(4.21499e-08 0.000562849 -3.45526e-09)
(6.50728e-08 0.000562645 -1.44191e-09)
(7.06909e-08 0.000562404 -7.24491e-09)
(1.02994e-07 0.000562171 -2.18047e-09)
(1.19969e-07 0.000561867 -3.98101e-09)
(1.49528e-07 0.000561682 -2.68977e-08)
(1.5446e-07 0.000561506 -4.33377e-08)
(1.8247e-07 0.000561486 -9.69038e-08)
(1.63008e-07 0.000571583 -9.96131e-08)
(3.73152e-08 0.000647325 -1.30973e-07)
(-4.7747e-07 0.000874081 -7.03153e-08)
(-6.95396e-07 0.0012961 -1.30216e-07)
(-1.57801e-06 0.00181657 -6.02538e-07)
(-2.59266e-06 0.00224298 -2.91477e-06)
(-1.04677e-05 0.00267094 -7.7004e-06)
(-2.4121e-05 0.00312258 -2.07691e-05)
(1.27361e-05 0.00384047 -6.85543e-06)
(4.54146e-05 0.00531426 6.55075e-05)
(0.00157252 0.0204119 0.00170175)
(0.0162543 0.162967 0.0203761)
(-0.0096104 0.581635 -0.00154873)
(-0.0170811 0.415599 -0.0140303)
(-0.000171007 0.0220692 -0.000156054)
(8.63007e-06 0.00714261 1.58491e-05)
(-3.49168e-05 0.00725429 -9.19904e-06)
(-8.1424e-06 0.00722978 -1.04248e-05)
(-1.54583e-05 0.00720102 -2.51633e-06)
(-2.67951e-05 0.00718617 4.36128e-06)
(-4.43627e-05 0.00720005 6.2507e-06)
(-6.12119e-05 0.00724821 2.49453e-06)
(-6.90251e-05 0.00730237 -1.30602e-06)
(-7.41506e-05 0.0073617 -4.58902e-06)
(-6.0961e-05 0.00743946 -5.32612e-06)
(-5.62345e-05 0.00750935 -4.47432e-06)
(-5.71281e-05 0.0075904 -2.99469e-06)
(-5.56212e-05 0.00763905 -7.02208e-08)
(-5.60156e-05 0.00766374 -9.05055e-07)
(-4.87466e-05 0.00768688 1.45932e-06)
(-5.03854e-05 0.00767695 -1.32134e-05)
(-4.27842e-05 0.00766735 -1.63471e-05)
(-4.53363e-05 0.0076358 -3.02695e-05)
(-3.91938e-05 0.00766353 -6.07646e-05)
(-1.89044e-05 0.0077042 -4.43075e-05)
(-9.76461e-06 0.0077207 -1.45693e-05)
(-3.77068e-06 0.0077631 -6.64347e-06)
(-2.78572e-06 0.00775531 -1.54913e-05)
(2.50782e-06 0.00767662 -1.25358e-05)
(3.21503e-06 0.00750841 -8.20212e-06)
(1.61326e-06 0.00722027 -4.55619e-06)
(-1.14788e-06 0.00688933 -5.8357e-06)
(-8.12338e-07 0.00671636 -5.56197e-06)
(1.31905e-06 0.00676826 -3.53522e-06)
(-1.13e-07 0.00694331 -8.37143e-06)
(-2.11711e-06 0.00705075 -7.1901e-06)
(-2.19269e-06 0.00664128 -5.64763e-06)
(-8.27683e-07 0.00583962 -2.44033e-06)
(-2.11587e-07 0.000336773 3.21445e-07)
(-1.75098e-07 0.000370598 2.14454e-07)
(-3.58386e-07 0.00040565 6.85626e-08)
(-3.77251e-07 0.000431753 -2.72345e-08)
(-4.34405e-07 0.000456837 -1.56224e-08)
(-4.6415e-07 0.000482635 5.72297e-09)
(-4.97011e-07 0.000511719 4.7796e-08)
(-5.28568e-07 0.000539353 5.79015e-08)
(-5.39958e-07 0.00055516 5.73004e-08)
(-5.35204e-07 0.000559744 6.72126e-08)
(-4.96447e-07 0.000560721 7.49503e-08)
(-4.52836e-07 0.000561535 1.02021e-07)
(-3.89653e-07 0.000562282 1.15237e-07)
(-3.28505e-07 0.000562842 1.21507e-07)
(-2.6352e-07 0.000563246 1.17244e-07)
(-2.10035e-07 0.000563558 1.10603e-07)
(-1.64067e-07 0.00056381 1.04795e-07)
(-1.2663e-07 0.000564015 9.77117e-08)
(-9.7904e-08 0.000564178 9.52006e-08)
(-7.54847e-08 0.000564307 9.04868e-08)
(-6.07463e-08 0.000564405 9.07983e-08)
(-4.96765e-08 0.000564479 8.9557e-08)
(-4.48501e-08 0.00056453 9.27586e-08)
(-4.11789e-08 0.000564558 9.42698e-08)
(-4.17295e-08 0.000564565 9.93405e-08)
(-4.24136e-08 0.000564554 1.023e-07)
(-4.59484e-08 0.000564534 1.08193e-07)
(-4.87471e-08 0.000564509 1.1199e-07)
(-5.33967e-08 0.000564475 1.17676e-07)
(-5.69493e-08 0.00056443 1.20789e-07)
(-6.16389e-08 0.000564373 1.25808e-07)
(-6.36772e-08 0.000564308 1.28176e-07)
(-6.46484e-08 0.000564239 1.31451e-07)
(-6.24284e-08 0.000564164 1.33213e-07)
(-5.98966e-08 0.000564083 1.35552e-07)
(-5.38612e-08 0.000563993 1.36416e-07)
(-4.46409e-08 0.000563889 1.38875e-07)
(-3.74232e-08 0.000563771 1.39528e-07)
(-2.3308e-08 0.000563619 1.42611e-07)
(-3.62297e-10 0.000563463 1.42089e-07)
(2.18656e-08 0.000563284 1.45687e-07)
(6.82174e-08 0.000563094 1.42529e-07)
(9.89519e-08 0.000562879 1.45235e-07)
(1.76312e-07 0.000562649 1.41476e-07)
(2.0881e-07 0.000562367 1.30262e-07)
(3.02924e-07 0.000562148 1.10409e-07)
(2.85163e-07 0.000562249 5.93033e-08)
(3.98796e-07 0.000563719 1.03398e-08)
(2.58888e-07 0.000567906 -3.59492e-08)
(2.5522e-07 0.000645254 4.52937e-08)
(-4.20058e-07 0.000911944 3.02582e-07)
(4.52441e-07 0.00135984 1.74324e-07)
(-8.01502e-07 0.00184095 -2.35583e-07)
(-5.36014e-06 0.00219668 -3.49714e-06)
(-1.66059e-05 0.0025833 -6.86144e-06)
(-3.19652e-05 0.00311758 -2.28689e-05)
(-3.13286e-05 0.00414314 7.28221e-06)
(-0.000114196 0.00703251 1.21289e-05)
(-0.000848739 0.0296761 0.00180464)
(0.000890431 0.171557 0.0161861)
(-0.0321212 0.571741 -0.00778772)
(-0.0242031 0.391636 -0.0170916)
(-0.000173231 0.0223633 -0.000188963)
(3.22068e-05 0.00734575 4.47279e-05)
(-7.3585e-05 0.00744502 -8.2514e-06)
(-7.22869e-05 0.00790152 -1.1619e-05)
(-3.14682e-05 0.00775148 -3.5228e-06)
(-7.72011e-05 0.00799395 1.04867e-06)
(-0.000118262 0.0080591 -4.49677e-06)
(-0.000149902 0.00787854 -1.52365e-05)
(-0.000169781 0.00766493 -1.93768e-05)
(-0.000163755 0.00753626 -2.08057e-05)
(-0.000143037 0.00748994 -1.52171e-05)
(-0.000134998 0.00748531 -9.49278e-06)
(-0.000130927 0.00750235 -5.57894e-06)
(-0.000139586 0.00751261 -4.33594e-06)
(-0.00014577 0.00754405 -4.78387e-06)
(-0.000135359 0.00760791 -1.83664e-06)
(-0.000132584 0.00764158 -1.62745e-05)
(-0.000118327 0.00765301 -1.40588e-05)
(-9.87197e-05 0.00764969 -2.3672e-05)
(-9.05421e-05 0.0076888 -4.99798e-05)
(-6.5166e-05 0.00770047 -3.91641e-05)
(-3.00966e-05 0.0076727 -1.30261e-05)
(-8.99745e-06 0.00765993 -5.55486e-06)
(5.07664e-06 0.00761556 -6.88297e-06)
(1.08709e-05 0.00749483 -6.56061e-06)
(6.83422e-06 0.00725831 -3.00716e-06)
(-2.04058e-06 0.00692472 -4.92639e-06)
(-4.98979e-06 0.00664692 -6.33787e-06)
(-2.82255e-06 0.00661305 -4.96111e-06)
(8.12459e-07 0.00678636 -7.46871e-06)
(-3.50802e-06 0.00702546 -8.70444e-06)
(-9.3028e-06 0.00714737 -5.01889e-06)
(-1.02755e-05 0.00672853 -3.29131e-06)
(-6.37664e-06 0.00592633 -2.02544e-06)
(-3.44251e-07 0.000318187 8.60231e-07)
(-2.92376e-07 0.000351071 5.01651e-07)
(-5.71675e-07 0.000389117 1.68157e-07)
(-5.62942e-07 0.000420857 5.58997e-08)
(-7.04997e-07 0.000452222 7.85104e-08)
(-8.11564e-07 0.000482836 8.78873e-08)
(-9.11593e-07 0.00051204 1.35822e-07)
(-9.71508e-07 0.000536677 1.26398e-07)
(-9.55653e-07 0.00055111 1.1424e-07)
(-9.27144e-07 0.000556572 1.15078e-07)
(-8.58205e-07 0.00055877 1.15905e-07)
(-7.89405e-07 0.000560621 1.35092e-07)
(-6.98267e-07 0.000562028 1.41991e-07)
(-6.08298e-07 0.000562852 1.43217e-07)
(-5.20385e-07 0.000563323 1.36497e-07)
(-4.46761e-07 0.000563635 1.31879e-07)
(-3.86289e-07 0.000563877 1.28629e-07)
(-3.35736e-07 0.000564073 1.28809e-07)
(-2.96163e-07 0.000564229 1.29544e-07)
(-2.6539e-07 0.000564351 1.3305e-07)
(-2.47094e-07 0.000564444 1.36066e-07)
(-2.34863e-07 0.000564513 1.40437e-07)
(-2.32626e-07 0.000564558 1.44012e-07)
(-2.32622e-07 0.000564582 1.48653e-07)
(-2.39527e-07 0.000564586 1.52173e-07)
(-2.46361e-07 0.000564573 1.56201e-07)
(-2.57668e-07 0.000564553 1.59289e-07)
(-2.6747e-07 0.000564524 1.63063e-07)
(-2.8e-07 0.000564487 1.65895e-07)
(-2.90064e-07 0.000564439 1.6943e-07)
(-3.00823e-07 0.000564383 1.71649e-07)
(-3.07107e-07 0.00056432 1.73919e-07)
(-3.12065e-07 0.000564254 1.75474e-07)
(-3.12023e-07 0.000564182 1.77363e-07)
(-3.1061e-07 0.000564103 1.78464e-07)
(-3.04141e-07 0.000564013 1.79866e-07)
(-2.96028e-07 0.000563902 1.79635e-07)
(-2.79359e-07 0.000563776 1.8087e-07)
(-2.56747e-07 0.000563638 1.82275e-07)
(-2.23787e-07 0.000563489 1.82212e-07)
(-1.81554e-07 0.00056333 1.82964e-07)
(-1.21875e-07 0.000563163 1.81142e-07)
(-5.98887e-08 0.00056297 1.83993e-07)
(4.41034e-08 0.000562744 1.75447e-07)
(1.10394e-07 0.000562549 1.71782e-07)
(2.71198e-07 0.000562261 1.41027e-07)
(3.16636e-07 0.000562606 9.62683e-08)
(4.3419e-07 0.000564963 2.38273e-08)
(3.479e-07 0.000575365 -3.35327e-08)
(2.89695e-07 0.00069527 1.40672e-07)
(6.77734e-07 0.00103749 8.40108e-07)
(3.10817e-06 0.00148547 5.56013e-07)
(-5.21498e-08 0.00187903 -5.64283e-07)
(-2.92913e-06 0.00218984 -4.38494e-06)
(-8.71722e-06 0.00259305 -7.56963e-06)
(-1.31558e-05 0.00312078 -2.27534e-05)
(-1.04333e-05 0.00409911 2.00321e-05)
(-8.85563e-05 0.00495644 0.000273465)
(-0.00244094 0.0249342 0.00164724)
(0.00327349 0.171676 0.0158402)
(-0.0246132 0.580751 -0.00841687)
(-0.0150593 0.412472 -0.0172299)
(-8.00574e-05 0.0243416 -0.000420989)
(-0.000360798 0.00919777 -9.44752e-05)
(-0.000113857 0.031925 -7.16036e-05)
(-0.00245054 0.284671 -0.000461924)
(-0.000282259 0.029965 -7.24012e-05)
(-0.000435944 0.0101505 -1.3617e-05)
(-0.000153958 0.00906512 -1.07313e-05)
(-0.000172164 0.00768562 -2.16892e-05)
(-0.000175424 0.00695397 -2.25445e-05)
(-0.000157511 0.00676614 -1.91249e-05)
(-0.000130237 0.00677382 -8.47457e-06)
(-0.00011545 0.00683202 -6.01217e-07)
(-0.000117763 0.00691481 4.33704e-06)
(-0.000123987 0.00700752 1.57577e-05)
(-0.000135522 0.00713665 1.66473e-05)
(-0.000139303 0.00730207 1.03669e-05)
(-0.000144172 0.00745922 -1.06499e-05)
(-0.000146815 0.00758569 -1.76501e-05)
(-0.000140176 0.00765789 -2.63282e-05)
(-0.000117029 0.00772904 -4.55522e-05)
(-7.49693e-05 0.00774855 -3.94225e-05)
(-3.63611e-05 0.007669 -1.146e-05)
(-1.7803e-06 0.00760238 5.33031e-07)
(2.2995e-05 0.00745473 2.04517e-06)
(1.74302e-05 0.00712883 4.10153e-06)
(-7.36379e-07 0.00668192 -9.40665e-07)
(-1.1686e-05 0.00634416 -7.6103e-06)
(-1.00293e-05 0.00629119 -7.59977e-06)
(-1.28766e-06 0.00649272 -6.6474e-06)
(1.29938e-07 0.00683232 -8.82288e-06)
(-1.08515e-05 0.00716877 -6.42443e-06)
(-1.95695e-05 0.00730808 -3.96615e-06)
(-2.33599e-05 0.00684546 -3.16329e-06)
(-1.73361e-05 0.00597747 -2.02682e-06)
(-5.85174e-07 0.00030219 3.86679e-07)
(-5.64364e-07 0.000331555 4.20603e-07)
(-9.7767e-07 0.000369273 2.45202e-07)
(-8.9933e-07 0.000401637 1.87835e-07)
(-1.13759e-06 0.000432702 1.77599e-07)
(-1.25065e-06 0.000464683 1.54533e-07)
(-1.36191e-06 0.00049876 1.74017e-07)
(-1.37946e-06 0.000530009 1.64465e-07)
(-1.30931e-06 0.00054853 1.46525e-07)
(-1.21778e-06 0.000555278 1.36834e-07)
(-1.10727e-06 0.000557945 1.26647e-07)
(-1.00938e-06 0.000560232 1.4814e-07)
(-9.03383e-07 0.000561903 1.51858e-07)
(-8.06603e-07 0.000562812 1.49853e-07)
(-7.12436e-07 0.000563296 1.41866e-07)
(-6.40561e-07 0.000563597 1.31279e-07)
(-5.82816e-07 0.000563825 1.31295e-07)
(-5.42789e-07 0.000564009 1.28751e-07)
(-5.0892e-07 0.000564157 1.33776e-07)
(-4.86833e-07 0.000564269 1.33123e-07)
(-4.70305e-07 0.000564351 1.3961e-07)
(-4.65297e-07 0.000564408 1.40375e-07)
(-4.63902e-07 0.00056444 1.47019e-07)
(-4.70135e-07 0.000564451 1.47525e-07)
(-4.77405e-07 0.000564444 1.5343e-07)
(-4.89695e-07 0.000564424 1.53505e-07)
(-5.01226e-07 0.000564396 1.58423e-07)
(-5.156e-07 0.000564361 1.58234e-07)
(-5.27604e-07 0.000564319 1.62102e-07)
(-5.40353e-07 0.000564269 1.61409e-07)
(-5.49577e-07 0.000564213 1.63859e-07)
(-5.57333e-07 0.000564152 1.62611e-07)
(-5.60208e-07 0.00056409 1.64905e-07)
(-5.60481e-07 0.000564025 1.64201e-07)
(-5.55795e-07 0.000563952 1.66049e-07)
(-5.47232e-07 0.00056387 1.64966e-07)
(-5.3309e-07 0.000563776 1.65584e-07)
(-5.08825e-07 0.000563666 1.61472e-07)
(-4.76427e-07 0.000563541 1.60131e-07)
(-4.3264e-07 0.000563413 1.57593e-07)
(-3.79107e-07 0.000563272 1.58206e-07)
(-3.04069e-07 0.000563114 1.56595e-07)
(-2.18881e-07 0.00056296 1.60963e-07)
(-8.76887e-08 0.000562742 1.50965e-07)
(4.03928e-08 0.000562589 1.59444e-07)
(2.51392e-07 0.000562311 1.22955e-07)
(4.00361e-07 0.000562703 1.20803e-07)
(5.36143e-07 0.000564699 1.20806e-07)
(5.84633e-07 0.000605419 1.64325e-07)
(9.39326e-07 0.000800281 8.51312e-07)
(3.119e-06 0.00117255 1.25874e-06)
(6.75423e-06 0.001553 4.88188e-07)
(4.38809e-06 0.00186958 -3.94312e-07)
(3.31277e-06 0.002159 -8.43386e-06)
(5.96947e-06 0.00260684 -7.72801e-07)
(2.91354e-06 0.00326996 -1.61297e-05)
(6.43702e-05 0.00434006 5.52809e-05)
(-0.000134238 0.00403329 0.000358542)
(-0.00166601 0.0246004 0.00181841)
(0.00308366 0.190865 0.0181634)
(-0.032007 0.624343 -0.0110085)
(-0.0048501 0.483291 -0.00374939)
(0.000653188 0.522491 0.00540935)
(0.0116363 0.490987 0.00472003)
(0.00311625 0.482227 0.000983389)
(0.00211304 0.470346 -0.00223499)
(0.0045492 0.459413 -0.00209755)
(-0.00396808 0.347163 -0.00261198)
(-0.000468181 0.029286 -0.000140256)
(-0.000451956 0.00841069 -0.000213453)
(-0.000410838 0.00718037 -2.95704e-05)
(-9.49367e-05 0.00666709 -1.42145e-05)
(-7.14809e-05 0.00675967 -8.0741e-06)
(-5.40283e-05 0.00690143 -1.17389e-06)
(-4.85271e-05 0.00708546 4.58839e-06)
(-4.65575e-05 0.00724207 1.04835e-05)
(-5.71646e-05 0.00734357 1.28189e-05)
(-7.68424e-05 0.0074302 5.79711e-06)
(-8.98879e-05 0.00752807 -3.57732e-06)
(-8.701e-05 0.00763343 3.59861e-07)
(-8.85964e-05 0.00776385 -1.25281e-05)
(-0.000101494 0.00787612 -4.68514e-05)
(-7.2712e-05 0.00774966 -3.46943e-05)
(-2.45702e-05 0.00751269 4.86224e-07)
(2.3614e-05 0.00729629 1.04317e-05)
(2.91772e-05 0.0068695 1.26486e-05)
(3.41306e-06 0.00624706 6.75233e-06)
(-1.43885e-05 0.00582579 -5.43625e-06)
(-1.37031e-05 0.00582088 -8.65667e-06)
(-2.8685e-06 0.00613196 -8.6716e-06)
(4.4021e-06 0.00661735 -9.64425e-06)
(-2.52751e-06 0.00705493 -7.43065e-06)
(-1.76335e-05 0.0072777 -3.12171e-06)
(-2.84004e-05 0.00729461 -4.13051e-06)
(-3.47197e-05 0.00681138 -4.92474e-06)
(-2.65194e-05 0.00596383 -3.06934e-06)
(-6.48317e-07 0.000287534 6.10576e-08)
(-7.36409e-07 0.000311554 3.15762e-07)
(-1.44981e-06 0.000347618 1.98844e-07)
(-1.35415e-06 0.000380799 1.7082e-07)
(-1.62495e-06 0.000413173 1.71936e-07)
(-1.66988e-06 0.000447001 1.28778e-07)
(-1.71118e-06 0.000481993 1.51252e-07)
(-1.69373e-06 0.000516592 1.43229e-07)
(-1.58408e-06 0.000542689 1.51377e-07)
(-1.41511e-06 0.000554306 1.403e-07)
(-1.25691e-06 0.000557814 1.16684e-07)
(-1.12801e-06 0.000560373 1.3339e-07)
(-1.00487e-06 0.000562139 1.35116e-07)
(-8.99724e-07 0.000563022 1.41097e-07)
(-8.18708e-07 0.000563482 1.28902e-07)
(-7.59165e-07 0.000563771 1.24529e-07)
(-7.21488e-07 0.000563991 1.17869e-07)
(-6.97584e-07 0.000564173 1.22062e-07)
(-6.8694e-07 0.00056432 1.17687e-07)
(-6.79115e-07 0.000564432 1.20829e-07)
(-6.80911e-07 0.000564514 1.17301e-07)
(-6.82201e-07 0.00056457 1.21442e-07)
(-6.88885e-07 0.000564602 1.18722e-07)
(-6.94152e-07 0.000564613 1.22925e-07)
(-7.03744e-07 0.000564606 1.20521e-07)
(-7.11419e-07 0.000564582 1.24341e-07)
(-7.21634e-07 0.00056455 1.22257e-07)
(-7.28868e-07 0.000564509 1.25379e-07)
(-7.37345e-07 0.00056446 1.22917e-07)
(-7.42331e-07 0.000564402 1.23798e-07)
(-7.47497e-07 0.000564338 1.19451e-07)
(-7.47937e-07 0.000564266 1.19035e-07)
(-7.46588e-07 0.000564192 1.15354e-07)
(-7.39512e-07 0.000564114 1.15006e-07)
(-7.29639e-07 0.000564033 1.11916e-07)
(-7.12757e-07 0.000563946 1.10593e-07)
(-6.89085e-07 0.000563846 1.07606e-07)
(-6.58842e-07 0.000563732 1.04846e-07)
(-6.18911e-07 0.000563606 1.02315e-07)
(-5.67211e-07 0.000563477 1.00697e-07)
(-5.03743e-07 0.000563347 1.01503e-07)
(-4.14278e-07 0.000563201 1.01038e-07)
(-3.06567e-07 0.000563073 1.08209e-07)
(-1.54148e-07 0.000562889 1.0305e-07)
(2.647e-08 0.000562772 1.34657e-07)
(2.53423e-07 0.000562492 1.2884e-07)
(4.50332e-07 0.000562602 2.38227e-07)
(8.06414e-07 0.00057839 4.10783e-07)
(1.12045e-06 0.000679775 9.43751e-07)
(2.50905e-06 0.000931566 1.59531e-06)
(3.23901e-06 0.00126017 9.59354e-07)
(5.69431e-06 0.00153179 -1.39878e-06)
(5.14279e-06 0.00173771 -2.96648e-06)
(6.9575e-06 0.00202468 -4.15834e-06)
(1.35085e-05 0.00273686 1.82574e-05)
(4.56834e-05 0.00362943 7.97072e-05)
(7.23884e-05 0.00436229 0.000152131)
(-0.000267282 0.00327748 0.000344504)
(-0.00136055 0.0237268 0.00250349)
(0.00401616 0.229602 0.0180225)
(-0.0132226 0.580946 0.000178282)
(0.00830719 0.486335 0.00420465)
(0.00416269 0.503388 0.00265049)
(0.0102213 0.491207 0.00271033)
(0.000299203 0.493782 -0.000323934)
(7.59475e-05 0.506629 -0.00217697)
(-0.00159055 0.468021 -0.00290682)
(-0.00733553 0.472457 -0.00568257)
(-0.0125579 0.477537 -0.0068671)
(-0.0183911 0.444324 -0.00657387)
(-0.0170096 0.343907 -0.00362578)
(1.79146e-05 0.0280544 -0.000151105)
(9.37785e-05 0.00713166 -2.04767e-06)
(0.000169376 0.00711291 1.91291e-06)
(1.48604e-05 0.00736387 -6.18213e-07)
(2.13591e-05 0.00766412 3.47517e-06)
(1.32525e-05 0.00775107 4.45866e-06)
(-7.54039e-07 0.00779028 1.31765e-06)
(-1.32762e-05 0.00786117 -2.81228e-06)
(-2.26687e-05 0.00793667 -1.03059e-05)
(-4.26636e-05 0.0079829 -2.49532e-05)
(-5.33646e-05 0.00792367 -2.51365e-05)
(-4.18393e-05 0.00770428 -1.29014e-05)
(1.06589e-05 0.00750376 1.43568e-05)
(3.35804e-05 0.00715654 2.04981e-05)
(1.46699e-05 0.00655574 1.53338e-05)
(-1.14637e-05 0.00600703 -1.7117e-06)
(-1.41649e-05 0.00583776 -8.74875e-06)
(-4.4392e-06 0.00604584 -1.03228e-05)
(3.98229e-06 0.00651242 -1.30539e-05)
(2.64999e-06 0.00693798 -8.95696e-06)
(-7.15336e-06 0.0070517 -1.89203e-06)
(-1.95832e-05 0.00707004 -4.20512e-06)
(-3.41835e-05 0.00710264 -9.98068e-06)
(-4.37195e-05 0.00668039 -1.02037e-05)
(-3.23308e-05 0.00587677 -7.274e-06)
(-8.26176e-07 0.000275475 2.69373e-07)
(-1.0296e-06 0.000293478 2.38556e-07)
(-1.99458e-06 0.000325791 1.06708e-07)
(-1.80601e-06 0.000357942 4.00316e-08)
(-2.08639e-06 0.000390876 5.83428e-08)
(-1.97326e-06 0.000426657 2.99211e-09)
(-1.94515e-06 0.000462879 1.75627e-08)
(-1.88169e-06 0.000499954 4.67606e-08)
(-1.73762e-06 0.000533104 7.42849e-08)
(-1.51911e-06 0.000551547 8.94155e-08)
(-1.32554e-06 0.000557144 6.73815e-08)
(-1.16854e-06 0.000560026 7.72419e-08)
(-1.02576e-06 0.000561994 9.21537e-08)
(-9.22226e-07 0.000562872 1.06704e-07)
(-8.36111e-07 0.000563309 1.11715e-07)
(-7.87629e-07 0.000563573 1.06191e-07)
(-7.649e-07 0.000563768 1.10992e-07)
(-7.6555e-07 0.000563931 1.09783e-07)
(-7.76949e-07 0.000564074 1.15981e-07)
(-7.94356e-07 0.000564191 1.1003e-07)
(-8.08447e-07 0.000564281 1.11652e-07)
(-8.20554e-07 0.000564346 1.03185e-07)
(-8.27799e-07 0.000564387 1.03068e-07)
(-8.34506e-07 0.000564406 9.52207e-08)
(-8.38165e-07 0.000564406 9.54847e-08)
(-8.41755e-07 0.00056439 8.87995e-08)
(-8.42929e-07 0.000564364 8.90632e-08)
(-8.43882e-07 0.000564331 8.28117e-08)
(-8.42672e-07 0.000564289 8.19937e-08)
(-8.40892e-07 0.00056424 7.50534e-08)
(-8.36451e-07 0.000564182 7.35018e-08)
(-8.30348e-07 0.000564117 6.82776e-08)
(-8.20612e-07 0.000564049 6.78701e-08)
(-8.07429e-07 0.00056398 6.39403e-08)
(-7.89871e-07 0.000563906 6.32994e-08)
(-7.67033e-07 0.000563829 5.96047e-08)
(-7.38105e-07 0.000563738 5.85366e-08)
(-7.02774e-07 0.000563632 5.52752e-08)
(-6.58517e-07 0.000563519 5.47579e-08)
(-6.02082e-07 0.000563402 5.45095e-08)
(-5.3177e-07 0.000563295 5.65008e-08)
(-4.3368e-07 0.000563177 6.05028e-08)
(-3.14939e-07 0.000563081 6.7707e-08)
(-1.54804e-07 0.000562946 7.47074e-08)
(4.61444e-08 0.000562887 1.10754e-07)
(2.78363e-07 0.000562581 1.51361e-07)
(5.53851e-07 0.000564285 3.53918e-07)
(1.07741e-06 0.00059044 6.64911e-07)
(1.59208e-06 0.000703389 1.57679e-06)
(3.21823e-06 0.000939251 2.14212e-06)
(1.75805e-06 0.00122943 1.77362e-06)
(1.01516e-06 0.00147815 -2.38299e-06)
(-1.66915e-06 0.00169182 -3.56847e-06)
(1.79917e-06 0.0020519 -3.08166e-06)
(5.89241e-06 0.00292756 3.83416e-05)
(-7.01111e-06 0.00389689 7.72584e-05)
(2.62738e-05 0.00448849 3.15414e-05)
(1.59382e-05 0.00311834 0.000250474)
(0.000379434 0.0238849 0.00289405)
(0.00144 0.269368 0.0190889)
(-0.00352536 0.573052 0.00247465)
(0.00711567 0.491754 0.00166785)
(0.00375599 0.49058 0.001948)
(0.00682156 0.486978 0.00308741)
(0.00517248 0.489933 0.000305065)
(0.00303724 0.475425 -0.000755797)
(0.00408855 0.468275 -0.00188376)
(-0.00392328 0.468011 -0.00527503)
(-0.00907167 0.450219 -0.00586984)
(-0.0159327 0.490524 -0.00760942)
(-0.020634 0.483153 -0.0049639)
(-0.0217753 0.505142 -0.001399)
(-0.0132745 0.450589 0.00138519)
(-0.00986087 0.318001 0.000780632)
(0.000448721 0.0269467 -0.000181303)
(0.000465621 0.00498927 -0.000243508)
(0.000474805 0.00530959 -0.000231836)
(0.000427907 0.00529419 -0.000231711)
(0.000349466 0.00529494 -0.000226587)
(0.000235325 0.00529535 -0.000218799)
(0.000100026 0.00531179 -0.000204989)
(-1.70666e-05 0.00544893 -0.000249019)
(-9.91653e-06 0.00563747 -0.00015738)
(2.73975e-05 0.00539007 1.84418e-05)
(-4.12089e-05 0.00579351 -0.000104753)
(-6.84402e-06 0.00570153 -1.87717e-05)
(-1.10119e-05 0.00571865 -1.41433e-05)
(-3.68876e-06 0.00568254 -2.03363e-05)
(5.50935e-06 0.00578033 -1.3236e-05)
(5.25998e-06 0.00592705 -8.66975e-06)
(-1.76325e-06 0.00605688 1.8205e-06)
(-1.30183e-05 0.00613456 -1.23151e-05)
(-1.76268e-05 0.00615419 -6.42705e-06)
(-2.43002e-05 0.00628829 -8.39414e-06)
(-3.00436e-05 0.00616047 -1.03228e-05)
(-2.30299e-05 0.00557062 -1.25216e-05)
(-1.34331e-06 0.000265095 1.23779e-07)
(-1.58484e-06 0.000278909 2.24045e-07)
(-2.65353e-06 0.000305636 7.13863e-08)
(-2.32679e-06 0.00033485 -3.5469e-08)
(-2.51942e-06 0.000368475 -8.91874e-08)
(-2.25694e-06 0.00040677 -2.08311e-07)
(-2.17016e-06 0.000446239 -1.89135e-07)
(-2.00019e-06 0.000484464 -1.22269e-07)
(-1.84055e-06 0.000519052 -6.73259e-08)
(-1.59243e-06 0.000544328 -1.95288e-08)
(-1.38792e-06 0.000555168 -2.03768e-08)
(-1.16485e-06 0.000559574 2.04301e-08)
(-1.02193e-06 0.000562188 3.46229e-08)
(-9.17714e-07 0.00056319 6.77749e-08)
(-8.66818e-07 0.000563624 8.99369e-08)
(-8.44225e-07 0.000563867 1.14721e-07)
(-8.33425e-07 0.000564028 1.12327e-07)
(-8.35715e-07 0.000564156 1.15467e-07)
(-8.45279e-07 0.000564262 1.06129e-07)
(-8.55562e-07 0.000564339 1.0309e-07)
(-8.67263e-07 0.000564394 9.13564e-08)
(-8.76729e-07 0.000564435 8.76472e-08)
(-8.83662e-07 0.000564464 7.62815e-08)
(-8.86111e-07 0.000564475 7.3035e-08)
(-8.85464e-07 0.000564468 6.40235e-08)
(-8.81349e-07 0.000564448 6.21586e-08)
(-8.7577e-07 0.000564418 5.45986e-08)
(-8.69e-07 0.000564381 5.321e-08)
(-8.62142e-07 0.000564339 4.74311e-08)
(-8.55388e-07 0.000564288 4.72681e-08)
(-8.4853e-07 0.000564232 4.34204e-08)
(-8.39069e-07 0.000564168 4.41925e-08)
(-8.25998e-07 0.000564103 4.16802e-08)
(-8.08471e-07 0.000564037 4.23967e-08)
(-7.86691e-07 0.000563966 4.0845e-08)
(-7.60034e-07 0.000563891 4.26196e-08)
(-7.28254e-07 0.000563801 4.11305e-08)
(-6.89565e-07 0.000563696 4.15322e-08)
(-6.41735e-07 0.000563589 4.10325e-08)
(-5.82486e-07 0.000563478 4.43173e-08)
(-5.08516e-07 0.000563391 4.63241e-08)
(-4.07571e-07 0.000563294 5.3804e-08)
(-2.85506e-07 0.000563228 6.19564e-08)
(-1.24545e-07 0.000563124 7.78809e-08)
(8.2555e-08 0.000563097 1.10762e-07)
(3.12023e-07 0.000562864 1.73423e-07)
(6.30918e-07 0.00056509 3.70219e-07)
(1.14512e-06 0.000587769 6.72098e-07)
(1.73865e-06 0.000675936 1.67223e-06)
(2.58338e-06 0.000869099 1.94456e-06)
(1.05742e-06 0.00113161 2.59039e-06)
(-1.66076e-06 0.00138783 -1.84906e-06)
(-6.95062e-06 0.0016735 -1.20592e-06)
(-1.20913e-06 0.00206112 -3.23932e-06)
(1.00841e-05 0.00277972 -1.09231e-05)
(3.87924e-05 0.00384297 5.7311e-05)
(-6.55083e-05 0.00481356 5.46871e-05)
(-5.19624e-05 0.00357616 0.000340817)
(0.00032106 0.0232973 0.00316689)
(-0.00230081 0.279411 0.0172665)
(0.00391133 0.58702 0.00317836)
(0.00560794 0.490089 0.00272943)
(0.00523666 0.432302 0.0031038)
(0.00450432 0.496893 0.00178935)
(0.00747262 0.498505 0.00226931)
(0.00500474 0.443733 0.000141825)
(0.000556944 0.198311 -0.000757709)
(0.00326426 0.473778 -0.00356355)
(-0.000677428 0.340973 -0.00359353)
(-0.00431784 0.433726 -0.00569911)
(-0.00520801 0.490609 -0.00625249)
(-0.0107516 0.469233 -0.00679704)
(-0.0122448 0.487416 -0.00375239)
(-0.0129665 0.488385 -0.00152633)
(-0.0126291 0.494862 -0.000388859)
(-0.0102844 0.486195 0.000397767)
(-0.00864183 0.477437 0.00211435)
(-0.00589679 0.473942 0.00494032)
(0.000873023 0.45888 0.00658455)
(0.00193975 0.465593 0.0122669)
(0.0050568 0.469668 0.0122594)
(0.00394204 0.471107 0.00460861)
(0.00522365 0.478183 -0.000344579)
(0.00485047 0.430893 -0.00673156)
(0.00405768 0.286752 -0.00644381)
(1.67076e-05 0.027178 -0.000123816)
(-5.66855e-06 0.00541687 -0.000248955)
(-4.11208e-05 0.00570795 -0.00026531)
(-7.8771e-05 0.00571809 -0.000225075)
(-0.000121857 0.00578407 -0.000185924)
(-0.000175078 0.00598905 -0.000203283)
(-0.00021719 0.00599062 -0.000273772)
(-0.000252595 0.00594485 -0.000345993)
(-0.000239435 0.00564652 -0.000321531)
(-0.000220898 0.00530795 -0.000290304)
(-0.000164078 0.0048492 -0.000520703)
(-1.69125e-06 0.000253329 -1.92646e-07)
(-2.47529e-06 0.000267391 1.79263e-07)
(-3.50682e-06 0.000288156 2.85553e-08)
(-2.92404e-06 0.000313331 4.15601e-08)
(-2.89207e-06 0.000347935 -1.89729e-07)
(-2.43959e-06 0.000388468 -2.74055e-07)
(-2.29683e-06 0.000432872 -2.88529e-07)
(-2.01607e-06 0.000475258 -2.10651e-07)
(-1.84835e-06 0.000509125 -1.70055e-07)
(-1.59414e-06 0.000536641 -9.14547e-08)
(-1.43217e-06 0.000552043 -3.90826e-08)
(-1.18907e-06 0.00055858 1.71966e-08)
(-1.05663e-06 0.000561947 7.60819e-08)
(-9.64798e-07 0.000563182 1.20365e-07)
(-9.22765e-07 0.000563634 1.59076e-07)
(-9.19513e-07 0.000563873 1.96469e-07)
(-9.30042e-07 0.00056404 2.2661e-07)
(-9.43576e-07 0.000564166 2.43255e-07)
(-9.58602e-07 0.000564282 2.54022e-07)
(-9.72373e-07 0.000564385 2.47663e-07)
(-9.87676e-07 0.000564465 2.42355e-07)
(-9.97533e-07 0.000564524 2.30493e-07)
(-1.00757e-06 0.000564564 2.23544e-07)
(-1.01163e-06 0.000564586 2.12604e-07)
(-1.01528e-06 0.000564591 2.07248e-07)
(-1.01408e-06 0.000564584 1.9872e-07)
(-1.01372e-06 0.000564566 1.94405e-07)
(-1.01097e-06 0.00056454 1.86909e-07)
(-1.00934e-06 0.000564504 1.83198e-07)
(-1.00514e-06 0.000564458 1.77507e-07)
(-1.00105e-06 0.000564406 1.75904e-07)
(-9.91351e-07 0.000564348 1.7306e-07)
(-9.78165e-07 0.000564288 1.73041e-07)
(-9.59457e-07 0.000564228 1.71217e-07)
(-9.37672e-07 0.000564162 1.70449e-07)
(-9.09949e-07 0.000564092 1.67527e-07)
(-8.78645e-07 0.000564004 1.6358e-07)
(-8.39134e-07 0.000563907 1.58887e-07)
(-7.90972e-07 0.000563813 1.54131e-07)
(-7.28947e-07 0.000563714 1.53104e-07)
(-6.51801e-07 0.000563653 1.50192e-07)
(-5.44655e-07 0.000563576 1.54849e-07)
(-4.18465e-07 0.000563543 1.55519e-07)
(-2.44663e-07 0.000563479 1.74462e-07)
(-3.88885e-08 0.000563481 1.84441e-07)
(2.50162e-07 0.000563314 2.63698e-07)
(6.02603e-07 0.000565259 3.82001e-07)
(1.15577e-06 0.000579944 6.28906e-07)
(1.83127e-06 0.00064021 1.41306e-06)
(2.11623e-06 0.000792795 1.77436e-06)
(2.74434e-07 0.00102641 2.63001e-06)
(-1.73537e-06 0.00129768 5.03641e-07)
(-8.31711e-06 0.00172413 2.65269e-06)
(8.4908e-06 0.00229312 -1.60588e-07)
(1.35135e-05 0.00300292 5.32972e-05)
(6.71122e-05 0.00369608 6.36462e-05)
(-6.5369e-05 0.00417084 0.000101942)
(0.000114763 0.00305054 0.000117179)
(0.00046508 0.0252521 0.00213208)
(-0.00415943 0.252018 0.0150195)
(0.0120168 0.601909 0.00171419)
(0.00966278 0.49752 0.00258088)
(0.0114567 0.503287 0.00541005)
(0.0065696 0.487915 0.00428309)
(0.00949679 0.470102 0.00463332)
(0.00330261 0.435963 0.000348518)
(0.00627392 0.447075 0.000226882)
(0.00225385 0.45471 -0.00152324)
(0.00212609 0.459815 -0.001401)
(0.00154183 0.499836 -0.00192623)
(0.00224109 0.470983 -0.000579241)
(-0.00235346 0.492465 -0.00235031)
(-0.0028773 0.487538 -0.00225261)
(-0.00329879 0.490072 -0.0012206)
(-0.00217953 0.493769 0.000921399)
(-0.00116176 0.498124 0.00296401)
(-0.00150401 0.494984 0.00504901)
(-0.000354443 0.492918 0.00734847)
(0.000493067 0.499026 0.00892751)
(0.00281448 0.495421 0.00695681)
(0.00115291 0.495274 0.00133238)
(4.89592e-05 0.495156 -0.00630352)
(0.000343819 0.498896 -0.01249)
(0.000920353 0.505063 -0.013181)
(0.00131147 0.501472 -0.00429796)
(0.00176713 0.482966 0.00175069)
(0.00116045 0.48081 0.00411218)
(0.00140777 0.487626 0.00673679)
(-0.00107225 0.493314 0.00334802)
(-0.00164533 0.471191 0.0029483)
(-0.0024307 0.473194 0.00186597)
(-0.00483076 0.469646 -0.00371627)
(-0.00767605 0.482137 -0.0106526)
(-0.00835165 0.456682 -0.0186084)
(-0.0105736 0.471108 -0.0299019)
(-0.00954253 0.449212 -0.0308416)
(-3.55487e-06 0.000125071 -2.21467e-06)
(-3.61403e-06 0.000266173 -2.6323e-07)
(-4.50852e-06 0.000274066 -2.58167e-07)
(-3.48235e-06 0.000294267 -1.28458e-07)