/*--------------------------------*- C++ -*----------------------------------*\
| =========                 |                                                 |
| \\      /  F ield         | OpenFOAM: The Open Source CFD Toolbox           |
|  \\    /   O peration     | Version:  2.3.0                                 |
|   \\  /    A nd           | Web:      www.OpenFOAM.org                      |
|    \\/     M anipulation  |                                                 |
\*---------------------------------------------------------------------------*/
FoamFile
{
    version     2.0;
    format      ascii;
    class       volScalarField;
    location    "32";
    object      w1;
}
// * * * * * * * * * * * * * * * * * * * * * * * * * * * * * * * * * * * * * //

dimensions      [0 0 0 0 0 0 0];

internalField   nonuniform List<scalar> 
6144
(
0.518788
0.518788
0.518788
0.518788
0.518788
0.518788
0.518788
0.518788
0.518788
0.518788
0.518788
0.518788
0.518788
0.518788
0.518788
0.518788
0.518788
0.518788
0.518788
0.518788
0.518788
0.518788
0.518788
0.518788
0.518788
0.518788
0.518788
0.518788
0.518788
0.518788
0.518788
0.518788
0.518788
0.518788
0.518788
0.518788
0.518788
0.518788
0.518788
0.518788
0.518788
0.518788
0.518788
0.518788
0.518788
0.518788
0.518788
0.518788
0.518788
0.518788
0.518788
0.518788
0.518788
0.518788
0.518788
0.518788
0.518788
0.518784
0.494731
0.46618
0.918047
0.999867
0.999995
0.99937
0.998126
0.979669
0.991103
0.996584
0.996651
0.993243
0.89844
0.992929
0.98391
0.960264
0.883507
0.988206
0.994196
0.973375
0.982191
0.486605
0.984376
0.998389
0.997032
0.988017
0.967563
0.9469
0.988984
0.797642
0.99584
0.996153
0.99232
0.99281
0.995975
0.976196
0.998854
0.999874
0.518788
0.518788
0.518788
0.518788
0.518788
0.518788
0.518788
0.518788
0.518788
0.518788
0.518788
0.518788
0.518788
0.518788
0.518788
0.518788
0.518788
0.518788
0.518788
0.518788
0.518788
0.518788
0.518788
0.518788
0.518788
0.518788
0.518788
0.518788
0.518788
0.518788
0.518788
0.518788
0.518788
0.518788
0.518788
0.518788
0.518788
0.518788
0.518788
0.518788
0.518788
0.518788
0.518788
0.518788
0.518788
0.518788
0.518788
0.518788
0.518788
0.518788
0.518788
0.518788
0.518788
0.518788
0.518788
0.518788
0.518786
0.518312
0.469711
0.475944
0.864951
0.999696
0.999995
0.998658
0.998885
0.999301
0.993281
0.996422
0.989649
0.98043
0.996065
0.993392
0.976703
0.979185
0.984462
0.975844
0.986684
0.994228
0.995663
0.992675
0.992009
0.998535
0.996224
0.992609
0.992302
0.940332
0.983384
0.989349
0.994879
0.986601
0.984635
0.997256
0.996479
0.963499
0.998832
0.999871
0.518788
0.518788
0.518788
0.518788
0.518788
0.518788
0.518788
0.518788
0.518788
0.518788
0.518788
0.518788
0.518788
0.518788
0.518788
0.518788
0.518788
0.518788
0.518788
0.518788
0.518788
0.518788
0.518788
0.518788
0.518788
0.518788
0.518788
0.518788
0.518788
0.518788
0.518788
0.518788
0.518788
0.518788
0.518788
0.518788
0.518788
0.518788
0.518788
0.518788
0.518788
0.518788
0.518788
0.518788
0.518788
0.518788
0.518788
0.518788
0.518788
0.518788
0.518788
0.518788
0.518788
0.518788
0.518788
0.518788
0.518784
0.519164
0.499414
0.520913
0.0884815
0.999867
0.999993
0.999802
0.999991
0.999645
0.99999
0.999036
0.999168
0.998944
0.998611
0.996761
0.994132
0.968962
0.756875
0.993024
0.992209
0.989877
0.995687
0.996033
0.991134
0.997363
0.993456
0.994695
0.992299
0.95941
0.993609
0.995366
0.98891
0.987689
0.995886
0.998139
0.99585
0.98693
0.998853
0.999873
0.518788
0.518788
0.518788
0.518788
0.518788
0.518788
0.518788
0.518788
0.518788
0.518788
0.518788
0.518788
0.518788
0.518788
0.518788
0.518788
0.518788
0.518788
0.518788
0.518788
0.518788
0.518788
0.518788
0.518788
0.518788
0.518788
0.518788
0.518788
0.518788
0.518788
0.518788
0.518788
0.518788
0.518788
0.518788
0.518788
0.518788
0.518788
0.518788
0.518788
0.518788
0.518788
0.518788
0.518788
0.518788
0.518788
0.518788
0.518788
0.518788
0.518788
0.518788
0.518788
0.518788
0.518788
0.518788
0.518788
0.518787
0.518845
0.516689
0.456987
0.012522
0.993071
0.942732
0.982714
0.996843
0.990538
0.999744
0.999979
0.999992
0.999881
0.999839
0.994897
0.996868
0.996982
0.996045
0.993295
0.992382
0.964131
0.995491
0.997714
0.996454
0.996859
0.993792
0.997073
0.996867
0.996808
0.996993
0.992347
0.992392
0.996698
0.99833
0.998108
0.638925
0.991709
0.998847
0.999872
0.518788
0.518788
0.518788
0.518788
0.518788
0.518788
0.518788
0.518788
0.518788
0.518788
0.518788
0.518788
0.518788
0.518788
0.518788
0.518788
0.518788
0.518788
0.518788
0.518788
0.518788
0.518788
0.518788
0.518788
0.518788
0.518788
0.518788
0.518788
0.518788
0.518788
0.518788
0.518788
0.518788
0.518788
0.518788
0.518788
0.518788
0.518788
0.518788
0.518788
0.518788
0.518788
0.518788
0.518788
0.518788
0.518788
0.518788
0.518788
0.518788
0.518788
0.518788
0.518788
0.518788
0.518788
0.518788
0.518788
0.518788
0.518798
0.518794
0.457381
0.948002
0.39856
0.680565
0.16442
0.765025
0.000824155
0.953469
0.0902529
0.996787
0.999562
0.999987
0.999995
0.999861
0.999852
0.997645
0.987171
0.964914
0.993316
0.997291
0.998183
0.998028
0.996171
0.996036
0.997945
0.997365
0.997034
0.996695
0.967496
0.997389
0.998681
0.997791
0.986512
0.884227
0.936599
0.9987
0.999872
0.518788
0.518788
0.518788
0.518788
0.518788
0.518788
0.518788
0.518788
0.518788
0.518788
0.518788
0.518788
0.518788
0.518788
0.518788
0.518788
0.518788
0.518788
0.518788
0.518788
0.518788
0.518788
0.518788
0.518788
0.518788
0.518788
0.518788
0.518788
0.518788
0.518788
0.518788
0.518788
0.518788
0.518788
0.518788
0.518788
0.518788
0.518788
0.518788
0.518788
0.518788
0.518788
0.518788
0.518788
0.518788
0.518788
0.518788
0.518788
0.518788
0.518788
0.518788
0.518788
0.518788
0.518788
0.518788
0.518788
0.518788
0.518788
0.518773
0.462496
4.85321e-07
0.144725
0.145899
0.130287
0.0137896
0.127087
3.24885e-07
0.140373
0.0116006
0.320294
0.918505
2.11479e-06
0.99973
0.999987
0.999995
0.999842
0.999837
0.999814
0.948659
0.99942
0.999861
0.999711
0.999357
0.998929
0.999409
0.996762
0.994599
0.99393
0.992121
0.971059
0.971503
0.983628
0.989745
0.991481
0.998793
0.999873
0.518788
0.518788
0.518788
0.518788
0.518788
0.518788
0.518788
0.518788
0.518788
0.518788
0.518788
0.518788
0.518788
0.518788
0.518788
0.518788
0.518788
0.518788
0.518788
0.518788
0.518788
0.518788
0.518788
0.518788
0.518788
0.518788
0.518788
0.518788
0.518788
0.518788
0.518788
0.518788
0.518788
0.518788
0.518788
0.518788
0.518788
0.518788
0.518788
0.518788
0.518788
0.518788
0.518788
0.518788
0.518788
0.518788
0.518788
0.518788
0.518788
0.518788
0.518788
0.518788
0.518788
0.518788
0.518788
0.518788
0.518788
0.51877
0.518801
0.443224
0.875962
0.0997607
0.0015147
0.777258
0.133321
0.708347
0.000537751
0.0202674
0.145593
0.990669
0.00226208
0.265929
0.0225894
0.455147
0.913944
0.976805
0.971852
0.977017
0.203633
0.952178
0.934025
0.946539
2.34177e-06
0.00187903
0.0140256
0.999999
0.998129
0.999735
0.998958
4.1758e-07
0.999269
0.999536
0.999857
0.999933
8.73781e-08
0.999923
0.518788
0.518788
0.518788
0.518788
0.518788
0.518788
0.518788
0.518788
0.518788
0.518788
0.518788
0.518788
0.518788
0.518788
0.518788
0.518788
0.518788
0.518788
0.518788
0.518788
0.518788
0.518788
0.518788
0.518788
0.518788
0.518788
0.518788
0.518788
0.518788
0.518788
0.518788
0.518788
0.518788
0.518788
0.518788
0.518788
0.518788
0.518788
0.518788
0.518788
0.518788
0.518788
0.518788
0.518788
0.518788
0.518788
0.518788
0.518788
0.518788
0.518788
0.518788
0.518788
0.518788
0.518788
0.518788
0.518788
0.518787
0.51855
0.523983
0.440811
0.840483
0.12225
0.0109175
0.00799179
0.146417
0.146092
0.399815
0.740515
0.439159
0.000257296
0.309236
0.644716
0.0888262
0.362457
0.640325
0.122083
0.566832
0.435224
0.186498
0.000158052
0.679029
0.00114878
0.000826166
0.00100782
0.000717619
2.5649e-06
0.495151
0.0459202
0.000288405
0.00968754
0.489132
0.151904
0.000344185
0.850169
3.28135e-08
0.00249867
0.518788
0.518788
0.518788
0.518788
0.518788
0.518788
0.518788
0.518788
0.518788
0.518788
0.518788
0.518788
0.518788
0.518788
0.518788
0.518788
0.518788
0.518788
0.518788
0.518788
0.518788
0.518788
0.518788
0.518788
0.518788
0.518788
0.518788
0.518788
0.518788
0.518788
0.518788
0.518788
0.518788
0.518788
0.518788
0.518788
0.518788
0.518788
0.518788
0.518788
0.518788
0.518788
0.518788
0.518788
0.518788
0.518788
0.518788
0.518788
0.518788
0.518788
0.518788
0.518788
0.518788
0.518788
0.518788
0.518788
0.518801
0.519393
0.516652
0.43481
0.00137304
0.146083
0.198429
0.00201306
0.671781
0.0926812
0.622886
0.00106756
0.000124453
1.00445e-08
0.23763
3.03208e-06
7.68294e-05
0.581045
0.0031352
6.54546e-07
0.334631
0.173394
6.00159e-05
0.169887
0.406819
0.0111534
0.010767
0.554807
0.152545
0.0142278
0.00193276
0.688177
0.155412
0.619179
0.814464
0.222021
1.34366e-13
0.985756
0.61674
0.996745
0.518788
0.518788
0.518788
0.518788
0.518788
0.518788
0.518788
0.518788
0.518788
0.518788
0.518788
0.518788
0.518788
0.518788
0.518788
0.518788
0.518788
0.518788
0.518788
0.518788
0.518788
0.518788
0.518788
0.518788
0.518788
0.518788
0.518788
0.518788
0.518788
0.518788
0.518788
0.518788
0.518788
0.518788
0.518788
0.518788
0.518788
0.518788
0.518788
0.518788
0.518788
0.518788
0.518788
0.518788
0.518788
0.518788
0.518788
0.518788
0.518788
0.518788
0.518788
0.518788
0.518788
0.518788
0.518788
0.518788
0.518788
0.518801
0.518677
0.43216
0.932736
0.00613786
0.059715
1.49106e-05
0.00542357
0.00198776
5.94388e-08
0.141974
0.145466
0.0335729
0.630538
3.23231e-05
0.000115734
0.0371767
0.000253386
0.728568
0.0722249
0.608294
0.593131
0.00114152
0.0236411
0.0450212
0.00765662
0.419349
0.736388
0.0532849
0.0011601
0.559549
0.959968
0.950374
0.942614
0.949743
0.988512
0.983279
0.995723
0.99998
0.518788
0.518788
0.518788
0.518788
0.518788
0.518788
0.518788
0.518788
0.518788
0.518788
0.518788
0.518788
0.518788
0.518788
0.518788
0.518788
0.518788
0.518788
0.518788
0.518788
0.518788
0.518788
0.518788
0.518788
0.518788
0.518788
0.518788
0.518788
0.518788
0.518788
0.518788
0.518788
0.518788
0.518788
0.518788
0.518788
0.518788
0.518788
0.518788
0.518788
0.518788
0.518788
0.518788
0.518788
0.518788
0.518788
0.518788
0.518788
0.518788
0.518788
0.518788
0.518788
0.518788
0.518788
0.518788
0.518788
0.518787
0.521624
0.420197
0.486416
0.941425
0.929006
0.352423
0.11783
0.000575641
0.0106514
4.06431e-06
0.0981589
0.646468
0.589642
0.00212073
0.00131063
0.033338
1.27052e-05
0.00730398
0.0055505
0.00229476
0.00087483
0.839327
0.936106
0.137792
2.07472e-08
0.149535
0.986306
0.0394779
0.997734
0.999939
0.999993
0.999991
0.999715
0.999778
0.99959
0.99787
0.999551
0.959296
0.999793
0.518788
0.518788
0.518788
0.518788
0.518788
0.518788
0.518788
0.518788
0.518788
0.518788
0.518788
0.518788
0.518788
0.518788
0.518788
0.518788
0.518788
0.518788
0.518788
0.518788
0.518788
0.518788
0.518788
0.518788
0.518788
0.518788
0.518788
0.518788
0.518788
0.518788
0.518788
0.518788
0.518788
0.518788
0.518788
0.518788
0.518788
0.518788
0.518788
0.518788
0.518788
0.518788
0.518788
0.518788
0.518788
0.518788
0.518788
0.518788
0.518788
0.518788
0.518788
0.518788
0.518788
0.518788
0.518788
0.518788
0.518787
0.518786
0.519208
0.46384
0.952572
0.989596
0.982259
0.968447
0.225533
0.666256
0.530171
0.839987
0.841872
0.836841
0.929422
0.915118
0.928736
0.897656
0.000792769
0.139247
0.000745357
0.000358992
0.986326
0.99265
0.999515
0.999923
0.999991
0.999993
0.999388
0.999688
0.999592
0.99912
0.993469
0.995905
0.998486
0.999036
0.999322
0.997534
0.996364
0.999864
0.518788
0.518788
0.518788
0.518788
0.518788
0.518788
0.518788
0.518788
0.518788
0.518788
0.518788
0.518788
0.518788
0.518788
0.518788
0.518788
0.518788
0.518788
0.518788
0.518788
0.518788
0.518788
0.518788
0.518788
0.518788
0.518788
0.518788
0.518788
0.518788
0.518788
0.518788
0.518788
0.518788
0.518788
0.518788
0.518788
0.518788
0.518788
0.518788
0.518788
0.518788
0.518788
0.518788
0.518788
0.518788
0.518788
0.518788
0.518788
0.518788
0.518788
0.518788
0.518788
0.518788
0.518788
0.518788
0.518788
0.518786
0.518786
0.51877
0.405158
0.963923
0.999425
0.9981
0.992731
0.995425
0.98215
0.994133
0.996562
0.99311
0.986321
0.963077
0.99219
0.96358
0.988436
0.999174
0.999905
0.999988
0.99999
0.991586
0.998482
0.998814
0.998005
0.998739
0.996716
0.715614
0.964731
0.977058
0.996736
0.580573
0.952301
0.995397
0.998124
0.999215
0.999428
0.998344
0.999861
0.518788
0.518788
0.518788
0.518788
0.518788
0.518788
0.518788
0.518788
0.518788
0.518788
0.518788
0.518788
0.518788
0.518788
0.518788
0.518788
0.518788
0.518788
0.518788
0.518788
0.518788
0.518788
0.518788
0.518788
0.518788
0.518788
0.518788
0.518788
0.518788
0.518788
0.518788
0.518788
0.518788
0.518788
0.518788
0.518788
0.518788
0.518788
0.518788
0.518788
0.518788
0.518788
0.518788
0.518788
0.518788
0.518788
0.518788
0.518788
0.518788
0.518788
0.518788
0.518788
0.518788
0.518788
0.518788
0.518788
0.518785
0.518786
0.518716
0.457503
0.852983
0.999718
0.999997
0.999683
0.99999
0.999988
0.999971
0.999993
0.999879
0.99999
0.999051
0.999991
0.999205
0.999193
0.999534
0.999507
0.999377
0.991212
0.868637
0.989611
0.993662
0.99381
0.992152
0.9706
0.981888
0.989561
0.994865
0.991975
0.988113
0.991828
0.993495
0.995544
0.995827
0.999082
0.999557
0.999883
0.518788
0.518788
0.518788
0.518788
0.518788
0.518788
0.518788
0.518788
0.518788
0.518788
0.518788
0.518788
0.518788
0.518788
0.518788
0.518788
0.518788
0.518788
0.518788
0.518788
0.518788
0.518788
0.518788
0.518788
0.518788
0.518788
0.518788
0.518788
0.518788
0.518788
0.518788
0.518788
0.518788
0.518788
0.518788
0.518788
0.518788
0.518788
0.518788
0.518788
0.518788
0.518788
0.518788
0.518788
0.518788
0.518788
0.518788
0.518788
0.518788
0.518788
0.518788
0.518788
0.518788
0.518788
0.518788
0.518789
0.518785
0.518788
0.514621
0.401868
0.881161
0.998769
0.999997
0.999312
0.998587
0.99973
0.999748
0.992236
0.998136
0.99635
0.999609
0.991292
0.995037
0.885227
0.993695
0.99553
0.99615
0.996432
0.994881
0.98896
0.960838
0.991292
0.994958
0.996772
0.995928
0.98562
0.994043
0.994681
0.992693
0.997498
0.992455
0.995692
0.949577
0.99105
0.999371
0.999889
0.518788
0.518788
0.518788
0.518788
0.518788
0.518788
0.518788
0.518788
0.518788
0.518788
0.518788
0.518788
0.518788
0.518788
0.518788
0.518788
0.518788
0.518788
0.518788
0.518788
0.518788
0.518788
0.518788
0.518788
0.518788
0.518788
0.518788
0.518788
0.518788
0.518788
0.518788
0.518788
0.518788
0.518788
0.518788
0.518788
0.518788
0.518788
0.518788
0.518788
0.518788
0.518788
0.518788
0.518788
0.518788
0.518788
0.518788
0.518788
0.518788
0.518788
0.518788
0.518788
0.518788
0.518788
0.518788
0.518789
0.518785
0.518793
0.524896
0.445822
0.818833
0.00671456
0.999997
0.999417
0.999194
0.999322
0.997846
0.999232
0.998742
0.991348
0.970626
0.994152
0.996913
0.997293
0.997548
0.996927
0.996966
0.996679
0.996068
0.996303
0.996751
0.996665
0.995148
0.973529
0.980788
0.988386
0.988869
0.995549
0.987483
0.996931
0.960751
0.995215
0.950745
0.99163
0.999374
0.999893
0.518788
0.518788
0.518788
0.518788
0.518788
0.518788
0.518788
0.518788
0.518788
0.518788
0.518788
0.518788
0.518788
0.518788
0.518788
0.518788
0.518788
0.518788
0.518788
0.518788
0.518788
0.518788
0.518788
0.518788
0.518788
0.518788
0.518788
0.518788
0.518788
0.518788
0.518788
0.518788
0.518788
0.518788
0.518788
0.518788
0.518788
0.518788
0.518788
0.518788
0.518788
0.518788
0.518788
0.518788
0.518788
0.518788
0.518788
0.518788
0.518788
0.518788
0.518788
0.518788
0.518788
0.518788
0.518788
0.518788
0.518787
0.518228
0.482746
0.464709
0.896808
0.999676
0.999995
0.999412
0.998775
0.988893
0.997033
0.996962
0.994422
0.988705
0.884891
0.98146
0.940806
0.988771
0.981306
0.984067
0.9477
0.940798
0.977574
0.991349
0.994699
0.750539
0.994753
0.996454
0.996106
0.98949
0.996021
0.998345
0.999096
0.999036
0.985657
0.998499
0.997554
0.979269
0.999019
0.999876
0.518788
0.518788
0.518788
0.518788
0.518788
0.518788
0.518788
0.518788
0.518788
0.518788
0.518788
0.518788
0.518788
0.518788
0.518788
0.518788
0.518788
0.518788
0.518788
0.518788
0.518788
0.518788
0.518788
0.518788
0.518788
0.518788
0.518788
0.518788
0.518788
0.518788
0.518788
0.518788
0.518788
0.518788
0.518788
0.518788
0.518788
0.518788
0.518788
0.518788
0.518788
0.518788
0.518788
0.518788
0.518788
0.518788
0.518788
0.518788
0.518788
0.518788
0.518788
0.518788
0.518788
0.518788
0.518788
0.518788
0.518787
0.518759
0.518084
0.447497
0.376554
0.999997
0.998894
0.999772
0.99986
0.99954
0.999617
0.998351
0.99693
0.996423
0.996887
0.993682
0.946911
0.975969
0.9836
0.983068
0.976609
0.99321
0.95239
0.990506
0.975357
0.996954
0.994584
0.997791
0.995925
0.996711
0.997991
0.99873
0.99921
0.998337
0.998043
0.998731
0.996678
0.993663
0.998975
0.999874
0.518788
0.518788
0.518788
0.518788
0.518788
0.518788
0.518788
0.518788
0.518788
0.518788
0.518788
0.518788
0.518788
0.518788
0.518788
0.518788
0.518788
0.518788
0.518788
0.518788
0.518788
0.518788
0.518788
0.518788
0.518788
0.518788
0.518788
0.518788
0.518788
0.518788
0.518788
0.518788
0.518788
0.518788
0.518788
0.518788
0.518788
0.518788
0.518788
0.518788
0.518788
0.518788
0.518788
0.518788
0.518788
0.518788
0.518788
0.518788
0.518788
0.518788
0.518788
0.518788
0.518788
0.518788
0.518788
0.518788
0.518787
0.518761
0.498338
0.451659
0.9861
0.999562
0.9855
0.99981
0.999916
0.999944
0.999989
0.999991
0.999531
0.999544
0.99903
0.997546
0.984174
0.995565
0.996566
0.993832
0.994235
0.990567
1.44154e-05
0.246237
0.993946
0.990777
0.99792
0.998377
0.997226
0.997781
0.998605
0.999308
0.999171
0.993416
0.998699
0.998403
0.992757
0.995183
0.998917
0.999875
0.518788
0.518788
0.518788
0.518788
0.518788
0.518788
0.518788
0.518788
0.518788
0.518788
0.518788
0.518788
0.518788
0.518788
0.518788
0.518788
0.518788
0.518788
0.518788
0.518788
0.518788
0.518788
0.518788
0.518788
0.518788
0.518788
0.518788
0.518788
0.518788
0.518788
0.518788
0.518788
0.518788
0.518788
0.518788
0.518788
0.518788
0.518788
0.518788
0.518788
0.518788
0.518788
0.518788
0.518788
0.518788
0.518788
0.518788
0.518788
0.518788
0.518788
0.518788
0.518788
0.518788
0.518788
0.518788
0.518788
0.518787
0.518784
0.517581
0.471355
0.352529
0.987582
0.991944
0.990509
0.00132451
0.956111
0.543882
0.999049
0.999872
0.999988
0.999994
0.999822
0.910616
0.994174
0.994243
0.99571
0.996996
0.997413
0.99429
0.99633
0.997358
0.96938
0.992002
0.997891
0.998284
0.9986
0.999292
0.999289
0.992852
0.998303
0.998243
0.995918
0.990532
0.987094
0.998845
0.999874
0.518788
0.518788
0.518788
0.518788
0.518788
0.518788
0.518788
0.518788
0.518788
0.518788
0.518788
0.518788
0.518788
0.518788
0.518788
0.518788
0.518788
0.518788
0.518788
0.518788
0.518788
0.518788
0.518788
0.518788
0.518788
0.518788
0.518788
0.518788
0.518788
0.518788
0.518788
0.518788
0.518788
0.518788
0.518788
0.518788
0.518788
0.518788
0.518788
0.518788
0.518788
0.518788
0.518788
0.518788
0.518788
0.518788
0.518788
0.518788
0.518788
0.518788
0.518788
0.518788
0.518788
0.518788
0.518788
0.518788
0.518789
0.51878
0.518694
0.459019
0.832188
0.69899
0.132694
0.146188
0.146446
0.146444
0.0132144
1.59437e-06
0.718196
0.951801
0.999371
0.99998
0.999993
0.999886
0.999879
0.999883
0.999881
0.999862
0.999798
0.999457
0.999469
0.999767
0.999762
0.998816
0.997014
0.998943
0.999286
0.996888
0.997959
0.997206
0.992829
0.989166
0.995803
0.993575
0.998995
0.999882
0.518788
0.518788
0.518788
0.518788
0.518788
0.518788
0.518788
0.518788
0.518788
0.518788
0.518788
0.518788
0.518788
0.518788
0.518788
0.518788
0.518788
0.518788
0.518788
0.518788
0.518788
0.518788
0.518788
0.518788
0.518788
0.518788
0.518788
0.518788
0.518788
0.518788
0.518788
0.518788
0.518788
0.518788
0.518788
0.518788
0.518788
0.518788
0.518788
0.518788
0.518788
0.518788
0.518788
0.518788
0.518788
0.518788
0.518788
0.518788
0.518788
0.518788
0.518788
0.518788
0.518788
0.518788
0.518788
0.518788
0.51879
0.51881
0.519144
0.38605
1.00404e-07
0.000354558
0.125813
0.000818344
0.000278028
0.150465
0.128874
0.00666205
0.769879
0.566213
0.922217
0.845361
0.912211
0.776191
0.999108
0.999613
0.999594
0.999464
0.999536
0.999567
0.999608
0.99994
0.999962
0.999966
0.999291
0.999985
0.998643
0.995647
0.999323
0.99902
0.99926
0.999696
0.999914
0.999903
0.999911
0.999964
0.518788
0.518788
0.518788
0.518788
0.518788
0.518788
0.518788
0.518788
0.518788
0.518788
0.518788
0.518788
0.518788
0.518788
0.518788
0.518788
0.518788
0.518788
0.518788
0.518788
0.518788
0.518788
0.518788
0.518788
0.518788
0.518788
0.518788
0.518788
0.518788
0.518788
0.518788
0.518788
0.518788
0.518788
0.518788
0.518788
0.518788
0.518788
0.518788
0.518788
0.518788
0.518788
0.518788
0.518788
0.518788
0.518788
0.518788
0.518788
0.518788
0.518788
0.518788
0.518788
0.518788
0.518788
0.518788
0.518788
0.518788
0.51879
0.521468
0.362299
0.880055
8.99897e-10
0.538468
0.503115
0.0425105
9.56361e-05
0.00783188
0.217883
0.834515
0.626023
0.335327
0.664976
0.642348
0.516653
0.691951
0.00536593
0.939564
0.000129399
0.0372675
0.0437256
0.480513
0.130044
3.17695e-06
0.000102713
2.59586e-08
0.579619
0.440296
0.901247
0.949301
0.946132
0.94062
0.969838
0.976263
0.973763
0.950145
0.997627
0.518788
0.518788
0.518788
0.518788
0.518788
0.518788
0.518788
0.518788
0.518788
0.518788
0.518788
0.518788
0.518788
0.518788
0.518788
0.518788
0.518788
0.518788
0.518788
0.518788
0.518788
0.518788
0.518788
0.518788
0.518788
0.518788
0.518788
0.518788
0.518788
0.518788
0.518788
0.518788
0.518788
0.518788
0.518788
0.518788
0.518788
0.518788
0.518788
0.518788
0.518788
0.518788
0.518788
0.518788
0.518788
0.518788
0.518788
0.518788
0.518788
0.518788
0.518788
0.518788
0.518788
0.518788
0.518788
0.518788
0.518783
0.518783
0.518524
0.33161
0.891583
0.000588914
0.00196356
0.0011769
4.39224e-05
0.576049
0.539213
0.582768
0.54031
0.000435211
0.119622
0.515874
0.453876
0.249518
0.455667
0.502243
0.32347
0.467817
0.549183
0.714568
0.596599
0.463977
0.333517
0.632424
0.687852
0.000252359
0.661941
0.77706
0.227018
0.689878
0.511512
0.607094
0.598971
1.51856e-05
0.127664
0.000223844
0.518788
0.518788
0.518788
0.518788
0.518788
0.518788
0.518788
0.518788
0.518788
0.518788
0.518788
0.518788
0.518788
0.518788
0.518788
0.518788
0.518788
0.518788
0.518788
0.518788
0.518788
0.518788
0.518788
0.518788
0.518788
0.518788
0.518788
0.518788
0.518788
0.518788
0.518788
0.518788
0.518788
0.518788
0.518788
0.518788
0.518788
0.518788
0.518788
0.518788
0.518788
0.518788
0.518788
0.518788
0.518788
0.518788
0.518788
0.518788
0.518788
0.518788
0.518788
0.518788
0.518788
0.518788
0.518788
0.518788
0.518788
0.51876
0.516773
0.439565
0.793508
2.20678e-06
0.114046
0.244553
0.000925892
0.00557159
0.00144175
0.000981647
0.783442
0.0043435
0.00699195
0.782651
0.511051
0.0842385
0.670478
0.583102
3.89427e-07
0.19446
0.737824
0.753045
0.413312
0.306461
0.709645
0.50387
0.635709
0.000227192
0.0566905
0.407782
0.33318
0.488686
0.494999
0.358979
0.484242
0.470807
0.000179603
0.00479884
0.518788
0.518788
0.518788
0.518788
0.518788
0.518788
0.518788
0.518788
0.518788
0.518788
0.518788
0.518788
0.518788
0.518788
0.518788
0.518788
0.518788
0.518788
0.518788
0.518788
0.518788
0.518788
0.518788
0.518788
0.518788
0.518788
0.518788
0.518788
0.518788
0.518788
0.518788
0.518788
0.518788
0.518788
0.518788
0.518788
0.518788
0.518788
0.518788
0.518788
0.518788
0.518788
0.518788
0.518788
0.518788
0.518788
0.518788
0.518788
0.518788
0.518788
0.518788
0.518788
0.518788
0.518788
0.518788
0.518788
0.518788
0.518787
0.518778
0.437727
0.873983
0.208393
4.36113e-07
0.000572677
0.113939
0.00153613
0.000536467
0.154851
0.870547
0.16576
0.0934449
0.00262315
0.00179063
0.00574206
0.000292862
0.51037
0.54987
0.558668
0.00022175
0.0575028
0.246405
0.676983
0.720786
0.875777
0.920313
0.960326
0.938802
0.965487
0.671469
0.865061
0.0290625
0.804007
0.988533
0.930438
0.996367
0.999986
0.518788
0.518788
0.518788
0.518788
0.518788
0.518788
0.518788
0.518788
0.518788
0.518788
0.518788
0.518788
0.518788
0.518788
0.518788
0.518788
0.518788
0.518788
0.518788
0.518788
0.518788
0.518788
0.518788
0.518788
0.518788
0.518788
0.518788
0.518788
0.518788
0.518788
0.518788
0.518788
0.518788
0.518788
0.518788
0.518788
0.518788
0.518788
0.518788
0.518788
0.518788
0.518788
0.518788
0.518788
0.518788
0.518788
0.518788
0.518788
0.518788
0.518788
0.518788
0.518788
0.518788
0.518788
0.518788
0.518788
0.518788
0.518754
0.53474
0.392175
0.920021
0.979595
0.944606
0.00259686
0.000358152
0.935372
0.947011
0.670398
0.940405
0.933968
0.615053
0.010775
0.0173684
0.622665
0.0567316
0.830016
0.845014
0.947729
0.906584
0.956125
0.991182
0.837373
0.998967
0.999888
0.999991
0.999994
0.999764
0.999811
0.999585
0.999134
0.998691
0.999562
0.999739
0.999518
0.9999
0.999921
0.518788
0.518788
0.518788
0.518788
0.518788
0.518788
0.518788
0.518788
0.518788
0.518788
0.518788
0.518788
0.518788
0.518788
0.518788
0.518788
0.518788
0.518788
0.518788
0.518788
0.518788
0.518788
0.518788
0.518788
0.518788
0.518788
0.518788
0.518788
0.518788
0.518788
0.518788
0.518788
0.518788
0.518788
0.518788
0.518788
0.518788
0.518788
0.518788
0.518788
0.518788
0.518788
0.518788
0.518788
0.518788
0.518788
0.518788
0.518788
0.518788
0.518788
0.518788
0.518788
0.518788
0.518788
0.518788
0.518788
0.518786
0.518789
0.536391
0.466768
0.0184232
0.998315
0.996881
0.984646
0.970407
0.971277
0.98177
0.996961
0.996883
0.995668
0.793748
0.982285
0.988319
0.995788
0.997371
0.994295
0.975548
0.998992
0.99985
0.999986
0.999991
0.999206
0.999446
0.999481
0.999356
0.996834
0.998246
0.998831
0.998957
0.998523
0.992504
0.997487
0.999402
0.99966
0.999492
0.999888
0.518788
0.518788
0.518788
0.518788
0.518788
0.518788
0.518788
0.518788
0.518788
0.518788
0.518788
0.518788
0.518788
0.518788
0.518788
0.518788
0.518788
0.518788
0.518788
0.518788
0.518788
0.518788
0.518788
0.518788
0.518788
0.518788
0.518788
0.518788
0.518788
0.518788
0.518788
0.518788
0.518788
0.518788
0.518788
0.518788
0.518788
0.518788
0.518788
0.518788
0.518788
0.518788
0.518788
0.518788
0.518788
0.518788
0.518788
0.518788
0.518788
0.518788
0.518788
0.518788
0.518788
0.518788
0.518788
0.518788
0.518786
0.518783
0.518791
0.452106
0.666283
0.971688
0.999947
0.999286
0.999472
0.999555
0.999908
0.999974
0.99999
0.999973
0.999987
0.999987
0.999993
0.999432
0.999696
0.999776
0.999665
0.994226
0.99875
0.996678
0.997844
0.995634
0.992861
0.992352
0.994509
0.995435
0.997407
0.999012
0.998637
0.998839
0.998756
0.992816
0.998468
0.999324
0.999633
0.999881
0.518788
0.518788
0.518788
0.518788
0.518788
0.518788
0.518788
0.518788
0.518788
0.518788
0.518788
0.518788
0.518788
0.518788
0.518788
0.518788
0.518788
0.518788
0.518788
0.518788
0.518788
0.518788
0.518788
0.518788
0.518788
0.518788
0.518788
0.518788
0.518788
0.518788
0.518788
0.518788
0.518788
0.518788
0.518788
0.518788
0.518788
0.518788
0.518788
0.518788
0.518788
0.518788
0.518788
0.518788
0.518788
0.518788
0.518788
0.518788
0.518788
0.518788
0.518788
0.518788
0.518788
0.518788
0.518788
0.518788
0.518786
0.518775
0.517225
0.473219
0.392675
0.999961
0.999885
0.999778
0.999898
0.999788
0.999848
0.999492
0.999373
0.996323
0.999275
0.999009
0.992616
0.982399
0.952601
0.972613
0.973373
0.990678
0.989585
0.976247
0.989918
0.986286
0.844159
0.993081
0.994624
0.945704
0.993904
0.99842
0.999074
0.998929
0.999267
0.993603
0.978195
0.997124
0.99954
0.99989
0.518788
0.518788
0.518788
0.518788
0.518788
0.518788
0.518788
0.518788
0.518788
0.518788
0.518788
0.518788
0.518788
0.518788
0.518788
0.518788
0.518788
0.518788
0.518788
0.518788
0.518788
0.518788
0.518788
0.518788
0.518788
0.518788
0.518788
0.518788
0.518788
0.518788
0.518788
0.518788
0.518788
0.518788
0.518788
0.518788
0.518788
0.518788
0.518788
0.518788
0.518788
0.518788
0.518788
0.518788
0.518788
0.518788
0.518788
0.518788
0.518788
0.518788
0.518788
0.518788
0.518788
0.518788
0.518788
0.518788
0.518786
0.518248
0.482598
0.522285
0.284121
0.999996
0.999729
0.999828
0.999489
0.999258
0.976843
0.999123
0.998895
0.998531
0.990324
0.99498
0.99293
0.995225
0.996102
0.996752
0.997722
0.997477
0.997021
0.996184
0.993244
0.990981
0.991129
0.995356
0.99724
0.995444
0.993192
0.998671
0.998616
0.998418
0.999169
0.997263
0.970397
0.97596
0.999293
0.999886
0.518788
0.518788
0.518788
0.518788
0.518788
0.518788
0.518788
0.518788
0.518788
0.518788
0.518788
0.518788
0.518788
0.518788
0.518788
0.518788
0.518788
0.518788
0.518788
0.518788
0.518788
0.518788
0.518788
0.518788
0.518788
0.518788
0.518788
0.518788
0.518788
0.518788
0.518788
0.518788
0.518788
0.518788
0.518788
0.518788
0.518788
0.518788
0.518788
0.518788
0.518788
0.518788
0.518788
0.518788
0.518788
0.518788
0.518788
0.518788
0.518788
0.518788
0.518788
0.518788
0.518788
0.518788
0.518788
0.518788
0.518786
0.51868
0.514644
0.40323
0.818287
0.982367
0.999997
0.998862
0.999497
0.999441
0.998934
0.998814
0.999288
0.999009
0.806344
0.995508
0.992727
0.997007
0.9972
0.996978
0.99641
0.994297
0.99508
0.993901
0.994373
0.994242
0.992963
0.981886
0.99506
0.779511
0.98081
0.998582
0.998961
0.998545
0.99924
0.997239
0.978632
0.958794
0.999085
0.999893
0.518788
0.518788
0.518788
0.518788
0.518788
0.518788
0.518788
0.518788
0.518788
0.518788
0.518788
0.518788
0.518788
0.518788
0.518788
0.518788
0.518788
0.518788
0.518788
0.518788
0.518788
0.518788
0.518788
0.518788
0.518788
0.518788
0.518788
0.518788
0.518788
0.518788
0.518788
0.518788
0.518788
0.518788
0.518788
0.518788
0.518788
0.518788
0.518788
0.518788
0.518788
0.518788
0.518788
0.518788
0.518788
0.518788
0.518788
0.518788
0.518788
0.518788
0.518788
0.518788
0.518788
0.518788
0.518788
0.518788
0.518787
0.518784
0.51846
0.405256
0.902639
0.999788
0.999995
0.99941
0.999096
0.994469
0.995482
0.99574
0.99511
0.990465
0.97949
0.992322
0.975833
0.988245
0.977407
0.98568
0.986675
0.987845
0.98915
0.991266
0.996489
0.977532
0.98111
0.996205
0.990315
0.991717
0.992665
0.998391
0.999212
0.997157
0.9988
0.99816
0.990635
0.995138
0.999107
0.99988
0.518788
0.518788
0.518788
0.518788
0.518788
0.518788
0.518788
0.518788
0.518788
0.518788
0.518788
0.518788
0.518788
0.518788
0.518788
0.518788
0.518788
0.518788
0.518788
0.518788
0.518788
0.518788
0.518788
0.518788
0.518788
0.518788
0.518788
0.518788
0.518788
0.518788
0.518788
0.518788
0.518788
0.518788
0.518788
0.518788
0.518788
0.518788
0.518788
0.518788
0.518788
0.518788
0.518788
0.518788
0.518788
0.518788
0.518788
0.518788
0.518788
0.518788
0.518788
0.518788