/*--------------------------------*- C++ -*----------------------------------*\
| =========                 |                                                 |
| \\      /  F ield         | OpenFOAM: The Open Source CFD Toolbox           |
|  \\    /   O peration     | Version:  2.3.0                                 |
|   \\  /    A nd           | Web:      www.OpenFOAM.org                      |
|    \\/     M anipulation  |                                                 |
\*---------------------------------------------------------------------------*/
FoamFile
{
    version     2.0;
    format      ascii;
    class       volScalarField;
    location    "26";
    object      alpha.water;
}
// * * * * * * * * * * * * * * * * * * * * * * * * * * * * * * * * * * * * * //

dimensions      [0 0 0 0 0 0 0];

internalField   nonuniform List<scalar> 
6144
(
5.60073e-06
6.39932e-06
6.90334e-06
7.25911e-06
7.6899e-06
8.15544e-06
8.6172e-06
9.28672e-06
9.88274e-06
9.99397e-06
9.99287e-06
9.9944e-06
9.99617e-06
9.99747e-06
9.99656e-06
9.99767e-06
9.99656e-06
9.99792e-06
9.99751e-06
9.99839e-06
9.99803e-06
9.99804e-06
9.9978e-06
9.99781e-06
9.99748e-06
9.99634e-06
9.99531e-06
9.99512e-06
9.99471e-06
9.99462e-06
9.99423e-06
9.99506e-06
9.9939e-06
9.99546e-06
9.99311e-06
9.99633e-06
9.9923e-06
9.9968e-06
9.98966e-06
9.99457e-06
9.98622e-06
9.99309e-06
9.98502e-06
9.99537e-06
9.98507e-06
9.99687e-06
9.98493e-06
1.00055e-05
1.0005e-05
1.0597e-05
1.30588e-05
2.45026e-05
5.29824e-05
7.72042e-05
9.31552e-05
0.000120942
0.000161474
0.000531293
0.000921757
0.0410144
0.948838
0.999667
0.999999
0.999999
0.999999
0.999999
0.999999
0.999999
0.999999
0.999999
0.999999
0.999999
0.999999
0.999999
0.999999
0.999999
0.999999
0.999999
0.999999
0.999999
0.999999
0.999999
0.999999
0.999999
0.999999
0.999999
0.999999
0.999999
0.999999
0.999999
0.999999
1
0.999999
0.999999
1
1
4.83491e-06
5.96958e-06
6.67146e-06
7.12528e-06
7.82214e-06
8.30255e-06
8.80753e-06
9.48519e-06
9.95537e-06
9.9983e-06
9.99261e-06
9.99601e-06
1.00008e-05
1.00029e-05
1.00026e-05
1.00031e-05
1.00022e-05
1.0003e-05
1.00021e-05
1.00027e-05
1.00021e-05
1.00023e-05
1.00021e-05
1.00022e-05
1.00018e-05
1.00012e-05
1.00009e-05
1.00009e-05
1.00008e-05
1.00009e-05
1.00007e-05
1.00015e-05
1.00001e-05
1.00023e-05
9.99919e-06
1.0004e-05
9.99767e-06
1.00055e-05
9.99433e-06
1.00057e-05
9.99165e-06
1.00057e-05
9.99024e-06
1.00071e-05
9.98944e-06
1.00079e-05
9.98774e-06
1.00325e-05
1.00159e-05
1.02554e-05
1.16118e-05
2.2939e-05
5.36842e-05
7.25583e-05
8.83054e-05
0.000112266
0.000170439
0.00071923
0.00149259
0.037238
0.94126
0.999807
0.999999
0.999999
0.999999
0.999999
0.999999
0.999999
0.999999
0.999999
0.999999
0.999999
0.999999
0.999999
0.999999
0.999999
0.999999
0.999999
0.999999
0.999999
0.999999
0.999999
0.999999
0.999999
0.999999
0.999999
0.999999
0.999999
0.999999
0.999999
0.999999
1
0.999999
0.999999
1
1
4.31774e-06
5.41031e-06
6.2873e-06
6.83326e-06
7.50922e-06
8.12743e-06
8.84916e-06
9.49129e-06
9.80328e-06
9.89565e-06
9.93723e-06
9.97637e-06
9.99609e-06
1.0002e-05
1.00029e-05
1.00031e-05
1.00026e-05
1.00031e-05
1.00025e-05
1.00029e-05
1.00024e-05
1.00026e-05
1.00025e-05
1.00024e-05
1.0002e-05
1.00016e-05
1.00014e-05
1.00014e-05
1.00013e-05
1.00014e-05
1.0001e-05
1.00017e-05
1.00004e-05
1.00025e-05
9.99956e-06
1.00041e-05
9.998e-06
1.00055e-05
9.99485e-06
1.00061e-05
9.99212e-06
1.00072e-05
9.99042e-06
1.00093e-05
9.9881e-06
1.0012e-05
9.98661e-06
1.00464e-05
1.00509e-05
1.02711e-05
1.153e-05
2.26265e-05
3.94343e-05
6.18108e-05
9.30213e-05
0.000133226
0.000125434
0.000471882
0.000725443
0.0372999
0.943791
0.999961
0.999999
0.999999
0.999999
0.999999
0.999999
0.999999
0.999999
0.999999
0.999999
0.999999
0.999999
0.999999
0.999999
0.999999
0.999999
0.999999
0.999999
0.999999
0.999999
0.999999
0.999999
0.999999
0.999999
0.999999
0.999999
0.999999
0.999999
0.999999
0.999999
0.999999
0.999999
0.999999
1
1
3.92034e-06
4.73975e-06
5.75237e-06
6.33909e-06
6.97585e-06
7.65264e-06
8.7092e-06
9.56041e-06
9.78757e-06
9.8509e-06
9.90109e-06
9.96443e-06
9.99245e-06
9.99967e-06
1.00005e-05
1.00006e-05
1.00002e-05
1.00005e-05
9.99997e-06
1.00002e-05
9.99967e-06
9.99969e-06
9.99932e-06
9.99913e-06
9.99856e-06
9.99807e-06
9.99785e-06
9.99777e-06
9.99763e-06
9.99763e-06
9.99723e-06
9.99768e-06
9.99659e-06
9.99841e-06
9.99611e-06
9.99978e-06
9.99508e-06
1.00008e-05
9.99205e-06
1.00023e-05
9.98931e-06
1.00048e-05
9.98769e-06
1.0006e-05
9.98837e-06
1.00101e-05
9.99145e-06
1.00451e-05
1.00873e-05
1.0423e-05
1.19156e-05
2.01359e-05
3.00691e-05
8.3665e-05
0.000121618
0.000151373
0.000125761
0.00032475
0.000216156
0.0512775
0.934584
0.999999
0.999999
0.999999
0.999999
0.999999
0.999999
0.999999
0.999999
0.999999
0.999999
0.999999
0.999999
0.999999
0.999999
0.999999
0.999999
0.999999
0.999999
0.999999
0.999999
0.999999
0.999999
0.999999
0.999999
0.999999
0.999999
0.999999
0.999999
0.999999
0.999999
0.999999
0.999999
0.999999
0.999999
1
3.71513e-06
4.13149e-06
5.16966e-06
5.84485e-06
6.47792e-06
7.11494e-06
8.19237e-06
9.33074e-06
9.8006e-06
9.87316e-06
9.89361e-06
9.96185e-06
9.9938e-06
1.00019e-05
1.00029e-05
1.0003e-05
1.0003e-05
1.00033e-05
1.00032e-05
1.00036e-05
1.00034e-05
1.00035e-05
1.00032e-05
1.00031e-05
1.00027e-05
1.00022e-05
1.00019e-05
1.00018e-05
1.00016e-05
1.00016e-05
1.00012e-05
1.00014e-05
1.00001e-05
1.00018e-05
9.9993e-06
1.00031e-05
9.99811e-06
1.00036e-05
9.99443e-06
1.00046e-05
9.99085e-06
1.00066e-05
9.99261e-06
1.00074e-05
9.99529e-06
1.00127e-05
9.99686e-06
1.00608e-05
1.01479e-05
1.05899e-05
1.17399e-05
1.49882e-05
4.53707e-05
0.000121207
0.000139133
0.000166826
0.000150133
0.000254129
8.74961e-05
0.0982298
0.972691
0.999935
0.999971
0.999983
0.999983
0.999981
0.99998
0.999978
0.999973
0.999966
0.999958
0.999951
0.999948
0.999954
0.999973
0.999986
0.999993
0.999997
0.999999
0.999999
0.999999
0.999999
0.999999
0.999999
0.999999
0.999999
0.999999
0.999999
0.999999
0.999999
0.999999
0.999999
0.999999
0.999999
0.999999
1
3.66822e-06
3.7759e-06
4.5685e-06
5.27823e-06
6.07334e-06
6.701e-06
7.59566e-06
8.60014e-06
9.70708e-06
9.90235e-06
9.89505e-06
9.95753e-06
9.99121e-06
9.99781e-06
9.99819e-06
9.9981e-06
9.99788e-06
9.99784e-06
9.99769e-06
9.99792e-06
9.9979e-06
9.99813e-06
9.99813e-06
9.99815e-06
9.99777e-06
9.99743e-06
9.9973e-06
9.99723e-06
9.99713e-06
9.99716e-06
9.99682e-06
9.99711e-06
9.99601e-06
9.9978e-06
9.99566e-06
9.99916e-06
9.99588e-06
9.99865e-06
9.99245e-06
9.99893e-06
9.98879e-06
1.00022e-05
9.99053e-06
1.00041e-05
9.99208e-06
1.00091e-05
9.99387e-06
1.0067e-05
1.02018e-05
1.08147e-05
1.22363e-05
1.42576e-05
8.22231e-05
0.000146115
0.000133837
0.000120279
0.000116767
0.00018835
1.4284e-05
0.189548
0.992484
0.998709
0.998884
0.999149
0.999209
0.999214
0.999174
0.999093
0.998953
0.998543
0.998222
0.998242
0.998459
0.998536
0.998674
0.998765
0.999151
0.999464
0.999645
0.999797
0.999915
0.999974
0.999993
0.999998
0.999999
0.999999
0.999999
0.999999
0.999999
0.999999
0.999999
1
1
1
1
1
3.85603e-06
3.72845e-06
4.13703e-06
4.71053e-06
5.631e-06
6.41854e-06
7.31305e-06
8.13999e-06
9.19802e-06
9.81193e-06
9.88633e-06
9.95616e-06
9.99198e-06
1.00005e-05
1.00026e-05
1.00027e-05
1.00027e-05
1.00024e-05
1.00022e-05
1.00022e-05
1.00018e-05
1.00016e-05
1.00012e-05
1.00008e-05
1.00001e-05
9.99959e-06
9.99928e-06
9.99912e-06
9.99897e-06
9.99889e-06
9.9985e-06
9.9986e-06
9.99767e-06
9.99907e-06
9.99731e-06
1.00002e-05
9.99702e-06
9.99985e-06
9.99396e-06
9.9995e-06
9.9909e-06
1.00027e-05
9.99193e-06
1.00058e-05
9.99237e-06
1.00128e-05
9.99116e-06
1.00767e-05
1.022e-05
1.08023e-05
1.22054e-05
1.34054e-05
6.96315e-05
0.000154285
0.000159698
0.000162859
0.000185585
0.000203904
9.99555e-06
0.309116
0.989064
0.993328
0.99303
0.993532
0.99378
0.993647
0.993273
0.992848
0.992687
0.991711
0.990115
0.990525
0.991777
0.990877
0.989329
0.989291
0.991627
0.993006
0.993903
0.99497
0.996257
0.997577
0.998461
0.999152
0.999715
0.99996
0.999995
1
1
1
1
1
1
0.999971
0.999946
0.99993
4.15031e-06
4.14303e-06
4.00239e-06
4.41376e-06
5.28015e-06
6.24366e-06
7.20923e-06
8.04992e-06
8.70126e-06
9.54271e-06
9.83227e-06
9.94836e-06
9.98964e-06
1.00001e-05
1.00016e-05
1.0002e-05
1.00019e-05
1.0002e-05
1.00018e-05
1.00021e-05
1.00021e-05
1.00024e-05
1.00026e-05
1.00028e-05
1.00026e-05
1.00024e-05
1.00024e-05
1.00026e-05
1.00027e-05
1.00028e-05
1.00027e-05
1.00028e-05
1.00025e-05
1.00033e-05
1.00024e-05
1.00043e-05
1.00017e-05
1.00045e-05
9.99945e-06
1.00046e-05
9.9981e-06
1.00071e-05
9.99781e-06
1.00115e-05
9.99737e-06
1.00151e-05
9.99276e-06
1.00599e-05
1.01794e-05
1.06422e-05
1.17733e-05
1.26616e-05
4.15634e-05
0.000127689
0.000153769
0.000159966
0.000168058
0.000187935
9.99555e-06
0.375684
0.980398
0.985764
0.985822
0.986124
0.986236
0.986154
0.986083
0.985929
0.985864
0.985804
0.985462
0.983236
0.981999
0.983528
0.984853
0.984532
0.983052
0.983312
0.984756
0.984767
0.984167
0.983744
0.983735
0.983861
0.983758
0.983538
0.983334
0.98253
0.981315
0.979972
0.978791
0.977789
0.977033
0.97679
0.977913
0.98131
4.24922e-06
4.62826e-06
4.80448e-06
4.95236e-06
5.22675e-06
6.36183e-06
7.38755e-06
8.23509e-06
8.75615e-06
9.22179e-06
9.6652e-06
9.90255e-06
9.97694e-06
9.99707e-06
9.99728e-06
9.99753e-06
9.99666e-06
9.99685e-06
9.99668e-06
9.99727e-06
9.99767e-06
9.9982e-06
9.9985e-06
9.99869e-06
9.9986e-06
9.99858e-06
9.99871e-06
9.99892e-06
9.99907e-06
9.99913e-06
9.9991e-06
9.9992e-06
9.99903e-06
9.99979e-06
9.99913e-06
1.00011e-05
9.99942e-06
1.00006e-05
9.99792e-06
1.00004e-05
9.99639e-06
1.00046e-05
9.99636e-06
1.00093e-05
9.99472e-06
1.00122e-05
9.98929e-06
1.00463e-05
1.01672e-05
1.06859e-05
1.17348e-05
1.5083e-05
2.55499e-05
9.25292e-05
0.000136923
0.000147285
0.00014745
0.000155018
9.99555e-06
0.362326
0.982105
0.988319
0.988714
0.988575
0.989095
0.989485
0.990726
0.991867
0.991972
0.991228
0.990215
0.991606
0.992791
0.993407
0.993181
0.990039
0.988708
0.988582
0.987939
0.987557
0.985686
0.982321
0.982031
0.982781
0.982665
0.982614
0.982369
0.982184
0.982431
0.982473
0.983289
0.984335
0.986052
0.988945
0.992738
0.996317
4.13089e-06
4.80923e-06
5.51883e-06
5.81622e-06
6.02543e-06
6.88862e-06
7.68407e-06
8.45634e-06
8.91662e-06
9.18186e-06
9.54689e-06
9.84471e-06
9.96382e-06
9.99958e-06
1.00017e-05
1.00032e-05
1.00022e-05
1.00024e-05
1.00019e-05
1.00021e-05
1.00021e-05
1.00023e-05
1.00022e-05
1.00021e-05
1.00018e-05
1.00016e-05
1.00017e-05
1.00017e-05
1.00016e-05
1.00014e-05
1.00011e-05
1.00009e-05
1.00006e-05
1.00011e-05
1.00005e-05
1.00021e-05
1.00004e-05
1.00013e-05
9.99867e-06
1.00009e-05
9.99719e-06
1.00048e-05
9.9969e-06
1.00097e-05
9.99448e-06
1.00123e-05
9.98715e-06
1.00456e-05
1.01857e-05
1.08646e-05
1.27898e-05
1.7612e-05
2.18045e-05
6.62247e-05
0.000114016
0.00013167
0.000130382
0.000175425
9.99555e-06
0.269338
0.986298
0.993271
0.993824
0.995392
0.996231
0.996844
0.997674
0.998312
0.998611
0.998692
0.998745
0.99899
0.999121
0.999146
0.999151
0.998946
0.99842
0.997885
0.997712
0.997675
0.997411
0.995463
0.993371
0.992864
0.993061
0.993296
0.993491
0.993425
0.993413
0.99443
0.995594
0.996683
0.997814
0.998815
0.999509
0.999813
3.66716e-06
4.2946e-06
5.80059e-06
6.2545e-06
6.81149e-06
7.53041e-06
8.14562e-06
8.74956e-06
9.1176e-06
9.33124e-06
9.63136e-06
9.89233e-06
9.97516e-06
9.99885e-06
9.99902e-06
9.99917e-06
9.99863e-06
9.99929e-06
9.99917e-06
9.99993e-06
1.00002e-05
1.00008e-05
1.0001e-05
1.00011e-05
1.00011e-05
1.00012e-05
1.00015e-05
1.00018e-05
1.00019e-05
1.00019e-05
1.00018e-05
1.00017e-05
1.00016e-05
1.00022e-05
1.00017e-05
1.00032e-05
1.00015e-05
1.00026e-05
9.99978e-06
1.00022e-05
9.99858e-06
1.00053e-05
9.99807e-06
1.00098e-05
9.99587e-06
1.00104e-05
9.98787e-06
1.00551e-05
1.02084e-05
1.10439e-05
1.38714e-05
2.08967e-05
3.0015e-05
4.9181e-05
8.50875e-05
0.000108401
0.000102096
0.000293328
0.000130643
0.152293
0.989085
0.998661
0.999043
0.999585
0.999672
0.999809
0.999908
0.999946
0.999967
0.999978
0.999984
0.999987
0.999986
0.999978
0.999964
0.999946
0.999928
0.99991
0.999885
0.999841
0.999783
0.9997
0.999599
0.999533
0.999507
0.999509
0.999569
0.999605
0.999658
0.999761
0.999851
0.999918
0.999963
0.999987
0.999997
0.999999
3.29628e-06
3.31091e-06
5.32979e-06
5.86454e-06
6.83786e-06
7.69157e-06
8.34192e-06
8.91828e-06
9.36824e-06
9.66796e-06
9.88548e-06
9.99753e-06
1.00032e-05
1.00075e-05
1.00028e-05
1.00034e-05
1.00005e-05
1.00004e-05
9.99988e-06
1.00005e-05
1.00005e-05
1.00011e-05
1.00014e-05
1.00015e-05
1.00015e-05
1.00017e-05
1.00022e-05
1.00026e-05
1.00028e-05
1.00029e-05
1.00029e-05
1.0003e-05
1.0003e-05
1.0004e-05
1.00039e-05
1.00055e-05
1.00041e-05
1.00057e-05
1.0003e-05
1.00062e-05
1.00028e-05
1.00092e-05
1.00029e-05
1.00132e-05
1.0001e-05
1.00109e-05
9.99459e-06
1.00791e-05
1.02432e-05
1.13721e-05
1.58823e-05
2.5351e-05
3.61511e-05
5.33623e-05
8.45149e-05
9.69985e-05
9.49672e-05
0.000435699
0.00025294
0.0893037
0.986464
0.999946
0.999975
0.999995
0.999997
0.999999
0.999999
0.999999
0.999999
0.999999
1
1
1
1
1
1
1
1
1
1
0.999999
0.999998
0.999999
0.999998
0.999997
0.999998
0.999998
0.999998
0.999998
0.999999
0.999999
1
1
1
1
1
2.68348e-06
2.59699e-06
3.36506e-06
4.52691e-06
5.79491e-06
7.45653e-06
8.72134e-06
9.19179e-06
9.63888e-06
9.90782e-06
9.98517e-06
1.00109e-05
1.00109e-05
1.00109e-05
1.00109e-05
1.00109e-05
1.00097e-05
1.00089e-05
1.0007e-05
1.00064e-05
1.00056e-05
1.00055e-05
1.00051e-05
1.00048e-05
1.00045e-05
1.00045e-05
1.00048e-05
1.0005e-05
1.00051e-05
1.00051e-05
1.0005e-05
1.0005e-05
1.0005e-05
1.00058e-05
1.00057e-05
1.00073e-05
1.00057e-05
1.00082e-05
1.00047e-05
1.00084e-05
1.00047e-05
1.00112e-05
1.00053e-05
1.00131e-05
1.00032e-05
1.00102e-05
1.00003e-05
1.0083e-05
1.02369e-05
1.1599e-05
1.73715e-05
2.73272e-05
3.68887e-05
5.033e-05
8.08406e-05
0.000101053
0.000137687
0.000528347
0.000519441
0.0525409
0.976193
0.999999
1
0.999999
0.999999
0.999999
0.999999
0.999999
0.999999
0.999999
0.999999
0.999999
1
1
1
1
1
1
1
1
1
1
1
1
1
1
1
1
1
1
1
1
1
1
1
1
2.13919e-06
2.47451e-06
2.28378e-06
2.50414e-06
2.51877e-06
5.02932e-06
8.3525e-06
9.37581e-06
9.75412e-06
9.93761e-06
9.97433e-06
1.0007e-05
1.00109e-05
1.00109e-05
1.00109e-05
1.00109e-05
1.00109e-05
1.00109e-05
1.00106e-05
1.00106e-05
1.00102e-05
1.00102e-05
1.00097e-05
1.00093e-05
1.00089e-05
1.00086e-05
1.00085e-05
1.00085e-05
1.00084e-05
1.0008e-05
1.00076e-05
1.00075e-05
1.00074e-05
1.00082e-05
1.00084e-05
1.00086e-05
1.00083e-05
1.00086e-05
1.00066e-05
1.00105e-05
1.00067e-05
1.00133e-05
1.00074e-05
1.00132e-05
1.00055e-05
1.00111e-05
1.00081e-05
1.00834e-05
1.02128e-05
1.1521e-05
1.72073e-05
2.76651e-05
3.75727e-05
4.90984e-05
7.30678e-05
9.33679e-05
0.000164142
0.000624378
0.00100946
0.0452604
0.971364
0.999999
1
1
1
1
1
1
1
1
1
1
1
1
1
1
1
1
1
1
1
1
1
1
1
1
1
1
1
1
1
1
1
1
1
1
1.8565e-06
1.93791e-06
1.51151e-06
1.8709e-06
1.62452e-06
2.99199e-06
6.30028e-06
9.62357e-06
9.86619e-06
9.94902e-06
9.96753e-06
9.99942e-06
1.00049e-05
1.0008e-05
1.00078e-05
1.00083e-05
1.0008e-05
1.00083e-05
1.00081e-05
1.00082e-05
1.00082e-05
1.00083e-05
1.00082e-05
1.0008e-05
1.00077e-05
1.00076e-05
1.00076e-05
1.00076e-05
1.00075e-05
1.00072e-05
1.00067e-05
1.00066e-05
1.00066e-05
1.00074e-05
1.00076e-05
1.00081e-05
1.00077e-05
1.00082e-05
1.00064e-05
1.00102e-05
1.00071e-05
1.00132e-05
1.00081e-05
1.00122e-05
1.00054e-05
1.00115e-05
1.00147e-05
1.00737e-05
1.01499e-05
1.13019e-05
1.64166e-05
2.94668e-05
4.52214e-05
5.52378e-05
6.77137e-05
8.12009e-05
0.000215734
0.000788683
0.00167007
0.0623818
0.974267
0.999974
1
1
1
1
1
1
1
1
1
1
1
1
1
1
1
1
1
1
1
1
1
1
1
1
1
1
1
1
1
1
1
1
1
1
1.25864e-06
1.46813e-06
1.4892e-06
1.51497e-06
1.51603e-06
1.51189e-06
2.50281e-06
8.72302e-06
9.89132e-06
9.97917e-06
9.98273e-06
1.00068e-05
1.00114e-05
1.00126e-05
1.00126e-05
1.00126e-05
1.00127e-05
1.00133e-05
1.00133e-05
1.00133e-05
1.00133e-05
1.00133e-05
1.00133e-05
1.00133e-05
1.00132e-05
1.00132e-05
1.00132e-05
1.00132e-05
1.00132e-05
1.00131e-05
1.00128e-05
1.00127e-05
1.00127e-05
1.00136e-05
1.0014e-05
1.00141e-05
1.00141e-05
1.00144e-05
1.00135e-05
1.00169e-05
1.00168e-05
1.0017e-05
1.00159e-05
1.0017e-05
1.00117e-05
1.00159e-05
1.00187e-05
1.00534e-05
1.01195e-05
1.14098e-05
1.64435e-05
2.85643e-05
4.36391e-05
5.4972e-05
6.164e-05
0.000106596
0.000201871
0.000718269
0.00133214
0.0622782
0.970856
0.99989
1
1
1
1
1
1
1
1
1
1
1
1
1
1
1
1
1
1
1
1
1
1
1
1
1
1
1
1
1
1
1
1
1
1
5.06879e-06
6.38986e-06
7.0087e-06
7.39794e-06
7.79755e-06
8.24918e-06
8.81313e-06
9.49552e-06
9.8101e-06
9.87888e-06
9.94537e-06
9.99034e-06
1.00111e-05
1.00131e-05
1.00131e-05
1.00131e-05
1.00131e-05
1.00131e-05
1.00129e-05
1.00129e-05
1.00125e-05
1.00125e-05
1.00122e-05
1.00121e-05
1.00119e-05
1.00115e-05
1.00111e-05
1.00111e-05
1.00111e-05
1.00111e-05
1.0011e-05
1.00114e-05
1.00117e-05
1.00117e-05
1.00117e-05
1.00117e-05
1.00117e-05
1.00117e-05
1.00107e-05
1.00118e-05
1.001e-05
1.00126e-05
1.00122e-05
1.00127e-05
1.00052e-05
1.00147e-05
9.99936e-06
1.00315e-05
1.00445e-05
1.05902e-05
1.31298e-05
2.46523e-05
5.01358e-05
7.45764e-05
8.91756e-05
0.000113196
0.000172143
0.000785862
0.00257602
0.0495236
0.928461
0.999396
0.999999
0.999999
0.999999
0.999999
0.999999
0.999999
0.999999
0.999999
0.999999
0.999999
0.999999
0.999999
0.999999
0.999999
0.999999
0.999999
0.999999
0.999999
0.999999
0.999999
0.999999
0.999999
0.999999
0.999999
0.999999
0.999999
0.999999
0.999999
0.999999
0.999999
0.999999
0.999999
0.999999
1
4.20355e-06
6.02821e-06
7.19168e-06
7.72336e-06
8.20626e-06
8.59738e-06
8.99289e-06
9.30515e-06
9.52212e-06
9.67809e-06
9.82566e-06
9.93911e-06
9.99474e-06
1.00103e-05
1.00116e-05
1.00122e-05
1.00113e-05
1.00119e-05
1.00112e-05
1.00117e-05
1.00112e-05
1.00114e-05
1.00111e-05
1.00108e-05
1.00105e-05
1.00105e-05
1.00105e-05
1.00105e-05
1.00103e-05
1.00102e-05
1.00097e-05
1.001e-05
1.00093e-05
1.00105e-05
1.00088e-05
1.00115e-05
1.00078e-05
1.00117e-05
1.00066e-05
1.00118e-05
1.00055e-05
1.00126e-05
1.00058e-05
1.00127e-05
1.0003e-05
1.00158e-05
9.99799e-06
1.0049e-05
1.005e-05
1.03208e-05
1.16883e-05
2.15765e-05
5.28177e-05
7.23717e-05
8.03775e-05
0.000104943
0.000192761
0.000711127
0.00177397
0.0491613
0.943563
0.999886
0.999999
0.999999
0.999999
0.999999
0.999999
0.999999
0.999999
0.999999
0.999999
0.999999
0.999999
0.999999
0.999999
0.999999
0.999999
0.999999
0.999999
0.999999
0.999999
0.999999
0.999999
0.999999
0.999999
0.999999
0.999999
0.999999
0.999999
0.999999
0.999999
0.999999
0.999999
0.999999
0.999999
1
3.71859e-06
5.25419e-06
6.86167e-06
7.44832e-06
7.69941e-06
7.98483e-06
8.43746e-06
8.87265e-06
9.27643e-06
9.56053e-06
9.74696e-06
9.90067e-06
9.98335e-06
1.00074e-05
1.00088e-05
1.00093e-05
1.00091e-05
1.00094e-05
1.0009e-05
1.00091e-05
1.00088e-05
1.00089e-05
1.00086e-05
1.00085e-05
1.00081e-05
1.0008e-05
1.00079e-05
1.00078e-05
1.00076e-05
1.00074e-05
1.00071e-05
1.00072e-05
1.00069e-05
1.00077e-05
1.00065e-05
1.00082e-05
1.00051e-05
1.00086e-05
1.0003e-05
1.00095e-05
1.00016e-05
1.00119e-05
1.00016e-05
1.00127e-05
9.99846e-06
1.00158e-05
9.99825e-06
1.00379e-05
1.00363e-05
1.04006e-05
1.14792e-05
2.33447e-05
4.52457e-05
5.69592e-05
7.16833e-05
0.000113041
0.000141713
0.0004953
0.000892787
0.0507726
0.965947
0.999999
0.999999
0.999999
0.999999
0.999999
0.999999
0.999999
0.999999
0.999999
0.999999
0.999999
0.999999
0.999999
0.999999
0.999999
0.999999
0.999999
0.999999
0.999999
0.999999
0.999999
0.999999
0.999999
0.999999
0.999999
0.999999
0.999999
0.999999
0.999999
0.999999
0.999999
0.999999
0.999999
0.999999
0.999999
3.3717e-06
4.35664e-06
6.2895e-06
7.19395e-06
7.29301e-06
7.3414e-06
7.81879e-06
8.39937e-06
9.04337e-06
9.49491e-06
9.71419e-06
9.88124e-06
9.97605e-06
1.00052e-05
1.00066e-05
1.00071e-05
1.00067e-05
1.00069e-05
1.00065e-05
1.00065e-05
1.00061e-05
1.00061e-05
1.00059e-05
1.00058e-05
1.00055e-05
1.00054e-05
1.00053e-05
1.00052e-05
1.00051e-05
1.00049e-05
1.00047e-05
1.00047e-05
1.00044e-05
1.00052e-05
1.00041e-05
1.00057e-05
1.00029e-05
1.0006e-05
1.00011e-05
1.00069e-05
1.00001e-05
1.00088e-05
9.99896e-06
1.00111e-05
9.99592e-06
1.00123e-05
9.99502e-06
1.00354e-05
1.00363e-05
1.05529e-05
1.13577e-05
1.88047e-05
2.73212e-05
4.67368e-05
9.94654e-05
0.000141534
0.000117449
0.000401265
0.000387535
0.0642926
0.971005
0.999999
0.999991
0.999999
0.999999
0.999997
0.999996
0.999997
0.999998
0.999997
0.999997
0.999997
0.999997
0.999996
0.999997
0.999998
0.999999
0.999999
0.999999
0.999999
0.999999
0.999999
0.999999
0.999999
0.999999
0.999999
0.999999
0.999999
0.999999
0.999999
0.999999
0.999999
0.999999
0.999999
0.999999
0.999999
3.17446e-06
3.58017e-06
5.45716e-06
6.95482e-06
7.12409e-06
6.99116e-06
7.44387e-06
8.0528e-06
8.85472e-06
9.44927e-06
9.70261e-06
9.874e-06
9.97286e-06
1.00042e-05
1.00056e-05
1.0006e-05
1.00055e-05
1.00056e-05
1.00052e-05
1.00052e-05
1.00049e-05
1.00048e-05
1.00047e-05
1.00045e-05
1.00043e-05
1.00042e-05
1.00041e-05
1.0004e-05
1.00039e-05
1.00038e-05
1.00036e-05
1.00036e-05
1.00034e-05
1.0004e-05
1.00031e-05
1.00045e-05
1.0002e-05
1.00048e-05
1.00003e-05
1.00057e-05
9.99949e-06
1.00076e-05
9.99862e-06
1.00089e-05
9.99577e-06
1.00102e-05
9.99501e-06
1.00348e-05
1.00634e-05
1.06774e-05
1.17822e-05
1.34311e-05
2.69867e-05
9.78613e-05
0.000171626
0.000186465
0.000186589
0.000194584
0.000120489
0.0997653
0.986616
0.99953
0.999584
0.999698
0.999705
0.9997
0.999704
0.999703
0.999664
0.999583
0.999509
0.999423
0.999354
0.999342
0.999461
0.999677
0.999821
0.999907
0.999957
0.999984
0.999995
0.999998
0.999999
0.999999
0.999999
0.999999
0.999999
0.999999
0.999999
0.999999
0.999999
0.999999
0.999999
0.999999
0.999999
0.999999
3.1002e-06
3.06945e-06
4.32935e-06
6.08053e-06
6.93508e-06
6.78357e-06
7.31145e-06
7.90096e-06
8.7713e-06
9.42603e-06
9.70079e-06
9.87274e-06
9.97169e-06
1.00034e-05
1.00049e-05
1.00052e-05
1.00046e-05
1.00046e-05
1.00041e-05
1.0004e-05
1.00037e-05
1.00036e-05
1.00034e-05
1.00033e-05
1.00032e-05
1.00031e-05
1.0003e-05
1.0003e-05
1.00029e-05
1.00028e-05
1.00026e-05
1.00027e-05
1.00025e-05
1.00031e-05
1.00023e-05
1.00037e-05
1.00014e-05
1.00041e-05
9.99998e-06
1.00052e-05
9.99928e-06
1.0007e-05
9.99853e-06
1.00081e-05
9.99611e-06
1.00091e-05
9.99594e-06
1.0043e-05
1.01114e-05
1.09036e-05
1.25551e-05
1.35859e-05
5.50877e-05
0.000174827
0.000177007
0.000144496
9.79021e-05
6.15277e-05
9.99555e-06
0.202408
0.983222
0.993124
0.992916
0.99344
0.993672
0.99385
0.99315
0.992494
0.992284
0.991512
0.990408
0.989435
0.989083
0.989125
0.990772
0.992737
0.99379
0.995221
0.996758
0.998065
0.999039
0.999542
0.999776
0.999894
0.999966
0.999994
0.999999
0.999999
0.999999
0.999999
0.999999
0.999999
0.999999
0.999999
0.999999
1
3.15139e-06
2.90337e-06
3.478e-06
4.46294e-06
5.79868e-06
6.34726e-06
7.2535e-06
7.87086e-06
8.7554e-06
9.41698e-06
9.70418e-06
9.87596e-06
9.97117e-06
1.00029e-05
1.00044e-05
1.00047e-05
1.00042e-05
1.00041e-05
1.00037e-05
1.00035e-05
1.00033e-05
1.00031e-05
1.0003e-05
1.00029e-05
1.00028e-05
1.00027e-05
1.00027e-05
1.00027e-05
1.00026e-05
1.00025e-05
1.00024e-05
1.00025e-05
1.00024e-05
1.0003e-05
1.00022e-05
1.00036e-05
1.00014e-05
1.00041e-05
1.00002e-05
1.00053e-05
9.99968e-06
1.00071e-05
9.99944e-06
1.0008e-05
9.99789e-06
1.0009e-05
1.00007e-05
1.00501e-05
1.01591e-05
1.10827e-05
1.29891e-05
1.60203e-05
5.6309e-05
0.000172706
0.000196018
0.000202553
0.000206335
0.000205397
9.99555e-06
0.390027
0.96991
0.976851
0.974769
0.973906
0.973803
0.973809
0.973755
0.97341
0.972868
0.971907
0.970498
0.969949
0.970026
0.970837
0.971561
0.971286
0.970931
0.972417
0.975535
0.979108
0.983161
0.986508
0.988522
0.990074
0.993494
0.996797
0.998413
0.999255
0.999296
0.999158
0.999076
0.998967
0.998796
0.998544
0.998124
0.997672
3.42937e-06
2.9523e-06
2.99326e-06
3.23992e-06
4.43264e-06
5.63132e-06
6.90123e-06
7.8779e-06
8.83216e-06
9.43212e-06
9.70937e-06
9.87914e-06
9.97187e-06
1.00026e-05
1.0004e-05
1.00042e-05
1.00038e-05
1.00038e-05
1.00035e-05
1.00035e-05
1.00033e-05
1.00033e-05
1.00032e-05
1.00034e-05
1.00034e-05
1.00034e-05
1.00034e-05
1.00034e-05
1.00034e-05
1.00033e-05
1.00032e-05
1.00033e-05
1.00031e-05
1.00037e-05
1.0003e-05
1.00043e-05
1.00022e-05
1.00049e-05
1.00008e-05
1.0006e-05
1.00003e-05
1.00077e-05
1.00004e-05
1.00081e-05
9.9991e-06
1.00089e-05
1.00033e-05
1.00568e-05
1.02054e-05
1.12808e-05
1.34975e-05
1.97285e-05
2.74939e-05
0.000113352
0.000167549
0.000171278
0.000204029
0.000232536
9.99555e-06
0.425525
0.96168
0.968501
0.967602
0.96747
0.967548
0.968491
0.968667
0.96849
0.967878
0.967307
0.967243
0.967414
0.968107
0.968173
0.966871
0.961796
0.957703
0.956367
0.956109
0.955541
0.953373
0.950452
0.948796
0.948236
0.947663
0.947351
0.946069
0.944412
0.942648
0.93967
0.935306
0.928746
0.917825
0.897015
0.846911
0.647606
3.5862e-06
3.06676e-06
3.03451e-06
2.99951e-06
3.69176e-06
4.94483e-06
6.63376e-06
7.97924e-06
8.90301e-06
9.45009e-06
9.71812e-06
9.88717e-06
9.97522e-06
1.00052e-05
1.00058e-05
1.00058e-05
1.00053e-05
1.00052e-05
1.0005e-05
1.00049e-05
1.00048e-05
1.00047e-05
1.00047e-05
1.00046e-05
1.00045e-05
1.00045e-05
1.00044e-05
1.00045e-05
1.00044e-05
1.00044e-05
1.00043e-05
1.00044e-05
1.00043e-05
1.00049e-05
1.00042e-05
1.00056e-05
1.00035e-05
1.00062e-05
1.00022e-05
1.00074e-05
1.00018e-05
1.00092e-05
1.00022e-05
1.00099e-05
1.00015e-05
1.00107e-05
1.00069e-05
1.00638e-05
1.02404e-05
1.14467e-05
1.40033e-05
2.21866e-05
3.49136e-05
5.95929e-05
0.000115657
0.000104782
0.000135951
0.0001436
9.99555e-06
0.33502
0.973593
0.984049
0.985079
0.986526
0.988235
0.989971
0.991478
0.992712
0.993638
0.994185
0.994235
0.993335
0.993268
0.994186
0.994489
0.992272
0.984871
0.979782
0.978311
0.976254
0.972363
0.966178
0.96069
0.956305
0.952215
0.948802
0.946542
0.945109
0.943811
0.942356
0.940686
0.938698
0.936791
0.935635
0.938302
0.944932
3.48851e-06
3.14576e-06
3.44705e-06
3.51884e-06
3.50012e-06
4.65574e-06
6.4932e-06
8.05024e-06
8.98128e-06
9.48419e-06
9.73221e-06
9.89949e-06
9.98083e-06
1.00067e-05
1.00068e-05
1.00069e-05
1.00067e-05
1.00066e-05
1.00065e-05
1.00064e-05
1.00063e-05
1.00063e-05
1.00063e-05
1.00062e-05
1.00061e-05
1.0006e-05
1.0006e-05
1.0006e-05
1.00059e-05
1.00058e-05
1.00056e-05
1.00057e-05
1.00055e-05
1.00061e-05
1.00054e-05
1.00066e-05
1.00047e-05
1.00071e-05
1.00031e-05
1.00081e-05
1.00028e-05
1.001e-05
1.00033e-05
1.00104e-05
1.00027e-05
1.00111e-05
1.00088e-05
1.0065e-05
1.02431e-05
1.14933e-05
1.42415e-05
2.313e-05
3.76443e-05
4.90039e-05
7.03847e-05
0.000123565
0.000181497
9.73162e-05
9.99555e-06
0.20944
0.987805
0.996656
0.997398
0.998279
0.998677
0.999019
0.999257
0.999413
0.999468
0.999474
0.999447
0.999431
0.999409
0.999279
0.999105
0.998958
0.998563
0.997819
0.997113
0.996463
0.995802
0.994647
0.993032
0.991992
0.990965
0.989365
0.988142
0.987483
0.987155
0.986807
0.98661
0.987864
0.989453
0.99294
0.99639
0.998556
2.90129e-06
3.19129e-06
3.64895e-06
4.02841e-06
4.55628e-06
5.58881e-06
6.84287e-06
8.10886e-06
9.03504e-06
9.5218e-06
9.75743e-06
9.91564e-06
9.98557e-06
1.00067e-05
1.00069e-05
1.00069e-05
1.00069e-05
1.00069e-05
1.00069e-05
1.00069e-05
1.00069e-05
1.00069e-05
1.00069e-05
1.00069e-05
1.00067e-05
1.00067e-05
1.00066e-05
1.00066e-05
1.00065e-05
1.00064e-05
1.00063e-05
1.00064e-05
1.00063e-05
1.0007e-05
1.00063e-05
1.00075e-05
1.00057e-05
1.00081e-05
1.00043e-05
1.00095e-05
1.00043e-05
1.0011e-05
1.00047e-05
1.00111e-05
1.00043e-05
1.00115e-05
1.00107e-05
1.00643e-05
1.02153e-05
1.15111e-05
1.4804e-05
2.36024e-05
3.84359e-05
5.28288e-05
6.76767e-05
0.000142021
0.000229072
0.000283955
7.34225e-05
0.11642
0.989082
0.999767
0.999852
0.999934
0.999951
0.999966
0.999974
0.999979
0.999982
0.999983
0.999983
0.99998
0.999975
0.999971
0.999966
0.999957
0.999941
0.999914
0.999876
0.999841
0.999807
0.999775
0.999762
0.999761
0.999776
0.999793
0.999801
0.999806
0.999808
0.999818
0.999833
0.99987
0.999911
0.999948
0.99998
0.999993
2.07821e-06
2.84564e-06
3.3744e-06
4.09293e-06
4.93573e-06
6.35851e-06
7.61879e-06
8.48116e-06
9.19392e-06
9.58372e-06
9.78707e-06
9.93634e-06
9.99363e-06
1.00057e-05
1.0006e-05
1.00069e-05
1.00064e-05
1.00068e-05
1.00066e-05
1.00068e-05
1.00067e-05
1.00067e-05
1.00067e-05
1.00066e-05
1.00066e-05
1.00065e-05
1.00065e-05
1.00065e-05
1.00065e-05
1.00064e-05
1.00063e-05
1.00064e-05
1.00063e-05
1.00071e-05
1.00064e-05
1.00076e-05
1.00057e-05
1.00083e-05
1.00044e-05
1.00097e-05
1.00047e-05
1.00111e-05
1.00052e-05
1.00111e-05
1.00044e-05
1.00115e-05
1.00107e-05
1.00553e-05
1.01854e-05
1.14779e-05
1.52816e-05
2.59119e-05
4.18289e-05
5.36713e-05
7.4355e-05
0.000112791
0.000135192
0.000491841
0.000269731
0.0709365
0.989087
0.999999
0.999993
0.999999
0.999999
0.999999
0.999999
0.999999
0.999999
0.999999
0.999999
0.999999
0.999999
0.999999
1
1
1
1
0.999999
0.999999
0.999998
0.999999
0.999999
0.999999
0.999999
0.999999
0.999999
0.999999
1
1
1
1
1
1
1
1
1.85311e-06
2.31288e-06
2.42228e-06
3.01378e-06
4.1212e-06
6.423e-06
7.87855e-06
8.73179e-06
9.33908e-06
9.65468e-06
9.82525e-06
9.96089e-06
1.0001e-05
1.00063e-05
1.00061e-05
1.00069e-05
1.00064e-05
1.00065e-05
1.00069e-05
1.00069e-05
1.00069e-05
1.00069e-05
1.00069e-05
1.00069e-05
1.00068e-05
1.00068e-05
1.00068e-05
1.00068e-05
1.00067e-05
1.00066e-05
1.00065e-05
1.00065e-05
1.00065e-05
1.00071e-05
1.00065e-05
1.00076e-05
1.00059e-05
1.00083e-05
1.00046e-05
1.00097e-05
1.00049e-05
1.00112e-05
1.00055e-05
1.00096e-05
1.00044e-05
1.001e-05
1.00097e-05
1.00469e-05
1.01673e-05
1.14682e-05
1.57637e-05
2.71111e-05
4.38733e-05
5.49956e-05
7.14452e-05
9.7526e-05
0.000158213
0.000525755
0.000909895
0.0476917
0.976031
1
0.999999
0.999999
0.999999
0.999999
0.999999
0.999999
0.999999
0.999999
0.999999
0.999999
0.999999
0.999999
0.999999
1
1
1
1
1
1
1
1
1
1
1
1
1
1
1
1
1
1
1
1
1
1.81637e-06
1.94329e-06
1.81309e-06
2.06233e-06
2.38633e-06
4.78329e-06
7.96464e-06
9.03318e-06
9.49702e-06
9.74372e-06
9.87077e-06
9.97628e-06
1.00029e-05
1.00055e-05
1.00048e-05
1.0005e-05
1.00049e-05
1.0005e-05
1.0005e-05
1.00052e-05
1.00054e-05
1.00056e-05
1.00056e-05
1.00055e-05
1.00054e-05
1.00052e-05
1.0005e-05
1.00048e-05
1.00047e-05
1.00044e-05
1.00041e-05
1.00039e-05
1.00038e-05
1.00041e-05
1.00038e-05
1.00046e-05
1.00036e-05
1.00047e-05
1.00029e-05
1.0006e-05
1.0003e-05
1.00076e-05
1.00032e-05
1.00063e-05
1.00014e-05
1.00051e-05
1.00071e-05