/*--------------------------------*- C++ -*----------------------------------*\
| =========                 |                                                 |
| \\      /  F ield         | OpenFOAM: The Open Source CFD Toolbox           |
|  \\    /   O peration     | Version:  2.3.0                                 |
|   \\  /    A nd           | Web:      www.OpenFOAM.org                      |
|    \\/     M anipulation  |                                                 |
\*---------------------------------------------------------------------------*/
FoamFile
{
    version     2.0;
    format      ascii;
    class       volScalarField;
    location    "26";
    object      alpha.airMean;
}
// * * * * * * * * * * * * * * * * * * * * * * * * * * * * * * * * * * * * * //

dimensions      [0 0 0 0 0 0 0];

internalField   nonuniform List<scalar> 
6144
(
0.999992
0.999991
0.999991
0.999991
0.999991
0.999991
0.99999
0.99999
0.99999
0.99999
0.99999
0.99999
0.99999
0.99999
0.99999
0.99999
0.99999
0.99999
0.99999
0.99999
0.99999
0.99999
0.99999
0.99999
0.99999
0.99999
0.99999
0.99999
0.99999
0.99999
0.99999
0.99999
0.99999
0.99999
0.99999
0.99999
0.99999
0.99999
0.99999
0.99999
0.99999
0.99999
0.99999
0.99999
0.99999
0.99999
0.99999
0.99999
0.99999
0.99999
0.999989
0.999985
0.999976
0.999958
0.999943
0.999893
0.999807
0.99938
0.998528
0.938789
0.0403097
0.000248514
1.21288e-06
1.01766e-06
1.01665e-06
1.00009e-06
9.99695e-07
9.86257e-07
9.83771e-07
9.73775e-07
9.68533e-07
9.60017e-07
9.53916e-07
9.45908e-07
9.39493e-07
9.31926e-07
9.25475e-07
9.19129e-07
9.12338e-07
9.05977e-07
8.99633e-07
8.92984e-07
8.87141e-07
8.82103e-07
8.77326e-07
8.72783e-07
8.67785e-07
8.58684e-07
8.27913e-07
7.4633e-07
6.56459e-07
5.98893e-07
5.3472e-07
4.74867e-07
4.36936e-07
4.18104e-07
0.999992
0.999992
0.999991
0.999991
0.999991
0.99999
0.99999
0.99999
0.99999
0.99999
0.99999
0.99999
0.99999
0.99999
0.99999
0.99999
0.99999
0.99999
0.99999
0.99999
0.99999
0.99999
0.99999
0.99999
0.99999
0.99999
0.99999
0.99999
0.99999
0.99999
0.99999
0.99999
0.99999
0.99999
0.99999
0.99999
0.99999
0.99999
0.99999
0.99999
0.99999
0.99999
0.99999
0.99999
0.99999
0.99999
0.99999
0.99999
0.99999
0.99999
0.999988
0.999984
0.999977
0.999958
0.999946
0.999906
0.999792
0.999258
0.998378
0.949341
0.0422707
9.1877e-05
1.03117e-06
1.03274e-06
1.0212e-06
1.00294e-06
1.00148e-06
9.8794e-07
9.83479e-07
9.71986e-07
9.66903e-07
9.58596e-07
9.52855e-07
9.4588e-07
9.3939e-07
9.32081e-07
9.24736e-07
9.17904e-07
9.11493e-07
9.05974e-07
9.0097e-07
8.97236e-07
8.93995e-07
8.88673e-07
8.82368e-07
8.75448e-07
8.67167e-07
8.52966e-07
8.18739e-07
7.44671e-07
6.64038e-07
6.08072e-07
5.43152e-07
4.83555e-07
4.50011e-07
4.28332e-07
0.999992
0.999992
0.999991
0.999991
0.999991
0.999991
0.99999
0.99999
0.99999
0.99999
0.99999
0.99999
0.99999
0.99999
0.99999
0.99999
0.99999
0.99999
0.99999
0.99999
0.99999
0.99999
0.99999
0.99999
0.99999
0.99999
0.99999
0.99999
0.99999
0.99999
0.99999
0.99999
0.99999
0.99999
0.99999
0.99999
0.99999
0.99999
0.99999
0.99999
0.99999
0.99999
0.99999
0.99999
0.99999
0.99999
0.99999
0.99999
0.99999
0.99999
0.999988
0.999985
0.999978
0.999964
0.999942
0.999887
0.999847
0.999427
0.999063
0.9536
0.0479188
4.16163e-05
1.0502e-06
1.05266e-06
1.03548e-06
1.02241e-06
1.02267e-06
1.01026e-06
1.00653e-06
9.95115e-07
9.88043e-07
9.7656e-07
9.68229e-07
9.58022e-07
9.49713e-07
9.4077e-07
9.35158e-07
9.29155e-07
9.21451e-07
9.15021e-07
9.08822e-07
9.01925e-07
8.93683e-07
8.84638e-07
8.75389e-07
8.67694e-07
8.57965e-07
8.39619e-07
8.01873e-07
7.3678e-07
6.71983e-07
6.21695e-07
5.56134e-07
4.9064e-07
4.58367e-07
4.34333e-07
0.999993
0.999992
0.999992
0.999992
0.999991
0.999991
0.99999
0.99999
0.99999
0.99999
0.99999
0.99999
0.99999
0.99999
0.99999
0.99999
0.99999
0.99999
0.99999
0.99999
0.99999
0.99999
0.99999
0.99999
0.99999
0.99999
0.99999
0.99999
0.99999
0.99999
0.99999
0.99999
0.99999
0.99999
0.99999
0.99999
0.99999
0.99999
0.99999
0.99999
0.99999
0.99999
0.99999
0.99999
0.99999
0.99999
0.99999
0.99999
0.99999
0.99999
0.999988
0.999985
0.999979
0.999962
0.999926
0.99987
0.999874
0.999551
0.999566
0.944432
0.0506326
2.91964e-05
1.11723e-06
1.10656e-06
1.08928e-06
1.04315e-06
1.03327e-06
1.01367e-06
1.00834e-06
9.9379e-07
9.90458e-07
9.90912e-07
9.93596e-07
9.87027e-07
9.75228e-07
9.64844e-07
9.50075e-07
9.34998e-07
9.22562e-07
9.12724e-07
9.04179e-07
8.95692e-07
8.86234e-07
8.75683e-07
8.64768e-07
8.53652e-07
8.37693e-07
8.12676e-07
7.73503e-07
7.24302e-07
6.819e-07
6.34115e-07
5.65794e-07
4.95458e-07
4.63983e-07
4.36646e-07
0.999993
0.999993
0.999992
0.999992
0.999992
0.999991
0.999991
0.99999
0.99999
0.99999
0.99999
0.99999
0.99999
0.99999
0.99999
0.99999
0.99999
0.99999
0.99999
0.99999
0.99999
0.99999
0.99999
0.99999
0.99999
0.99999
0.99999
0.99999
0.99999
0.99999
0.99999
0.99999
0.99999
0.99999
0.99999
0.99999
0.99999
0.99999
0.99999
0.99999
0.99999
0.99999
0.99999
0.99999
0.99999
0.99999
0.99999
0.99999
0.99999
0.99999
0.999988
0.999984
0.999976
0.999959
0.999922
0.999856
0.999844
0.999658
0.999806
0.880814
0.0196346
5.92253e-05
2.04297e-05
8.39103e-06
5.94712e-06
4.64363e-06
4.75303e-06
4.5388e-06
4.61434e-06
4.62164e-06
4.73511e-06
4.76683e-06
4.65504e-06
4.36124e-06
4.00025e-06
3.59096e-06
3.15012e-06
2.65543e-06
2.12572e-06
1.6447e-06
1.28668e-06
1.05849e-06
9.36395e-07
8.75912e-07
8.39038e-07
8.01587e-07
7.80551e-07
7.62117e-07
7.43045e-07
7.16288e-07
6.83087e-07
6.37444e-07
5.70512e-07
5.01032e-07
4.67012e-07
4.35825e-07
0.999993
0.999993
0.999992
0.999992
0.999992
0.999992
0.999991
0.99999
0.99999
0.99999
0.99999
0.99999
0.99999
0.99999
0.99999
0.99999
0.99999
0.99999
0.99999
0.99999
0.99999
0.99999
0.99999
0.99999
0.99999
0.99999
0.99999
0.99999
0.99999
0.99999
0.99999
0.99999
0.99999
0.99999
0.99999
0.99999
0.99999
0.99999
0.99999
0.99999
0.99999
0.99999
0.99999
0.99999
0.99999
0.99999
0.99999
0.99999
0.99999
0.99999
0.999988
0.999985
0.999973
0.999955
0.999915
0.999851
0.999851
0.999762
0.999939
0.759696
0.0106598
0.00130499
0.00105711
0.000752895
0.000653071
0.000608924
0.000602031
0.000607074
0.000617927
0.000620364
0.000618652
0.000615635
0.000602452
0.000563915
0.000523381
0.000481824
0.000427009
0.000366378
0.000300181
0.000232385
0.000173004
0.000120058
7.81563e-05
4.7818e-05
2.63656e-05
1.2299e-05
4.70993e-06
1.79108e-06
9.15252e-07
6.37584e-07
5.4795e-07
4.88954e-07
4.56146e-07
4.41055e-07
4.23855e-07
4.0756e-07
0.999993
0.999993
0.999993
0.999992
0.999992
0.999992
0.999992
0.999991
0.99999
0.99999
0.99999
0.99999
0.99999
0.99999
0.99999
0.99999
0.99999
0.99999
0.99999
0.99999
0.99999
0.99999
0.99999
0.99999
0.99999
0.99999
0.99999
0.99999
0.99999
0.99999
0.99999
0.99999
0.99999
0.99999
0.99999
0.99999
0.99999
0.99999
0.99999
0.99999
0.99999
0.99999
0.99999
0.99999
0.99999
0.99999
0.99999
0.99999
0.99999
0.99999
0.999988
0.999985
0.999974
0.999956
0.999926
0.999859
0.999826
0.999794
0.99999
0.594737
0.0127059
0.00862224
0.00875337
0.00813478
0.00773984
0.00766522
0.00751682
0.00760066
0.00757476
0.00757195
0.00753569
0.00732713
0.00722867
0.00719109
0.0071329
0.00675105
0.00626878
0.00594201
0.00541716
0.00483389
0.00440373
0.00379803
0.0031954
0.00266732
0.00215463
0.00169498
0.00122136
0.000782676
0.000474184
0.000250995
0.000107179
3.69406e-05
9.07004e-06
8.51755e-06
1.19203e-05
1.34456e-05
0.999993
0.999993
0.999993
0.999993
0.999992
0.999992
0.999992
0.999991
0.999991
0.99999
0.99999
0.99999
0.99999
0.99999
0.99999
0.99999
0.99999
0.99999
0.99999
0.99999
0.99999
0.99999
0.99999
0.99999
0.99999
0.99999
0.99999
0.99999
0.99999
0.99999
0.99999
0.99999
0.99999
0.99999
0.99999
0.99999
0.99999
0.99999
0.99999
0.99999
0.99999
0.99999
0.99999
0.99999
0.99999
0.99999
0.99999
0.99999
0.99999
0.99999
0.999988
0.999985
0.999975
0.999956
0.999933
0.999874
0.999833
0.999796
0.99998
0.520264
0.0235742
0.0200914
0.020631
0.0207611
0.0207196
0.0207895
0.0207043
0.0205203
0.0205986
0.0206308
0.0205192
0.0204308
0.0202982
0.0202017
0.0200948
0.0199604
0.0197966
0.0195281
0.019263
0.0190679
0.0189039
0.0187689
0.0186628
0.0185721
0.0184838
0.0184115
0.0182059
0.0178604
0.0174768
0.016846
0.0162398
0.0155318
0.0144887
0.013316
0.0112597
0.00877437
0.999994
0.999993
0.999993
0.999993
0.999993
0.999992
0.999992
0.999991
0.999991
0.99999
0.99999
0.99999
0.99999
0.99999
0.99999
0.99999
0.99999
0.99999
0.99999
0.99999
0.99999
0.99999
0.99999
0.99999
0.99999
0.99999
0.99999
0.99999
0.99999
0.99999
0.99999
0.99999
0.99999
0.99999
0.99999
0.99999
0.99999
0.99999
0.99999
0.99999
0.99999
0.99999
0.99999
0.99999
0.99999
0.99999
0.99999
0.99999
0.99999
0.99999
0.999988
0.999986
0.999977
0.999954
0.999935
0.99989
0.99986
0.999788
0.999963
0.638811
0.0167311
0.00950125
0.00911149
0.00841139
0.00787782
0.0076505
0.0072796
0.00685214
0.00655268
0.00621062
0.00593499
0.00548771
0.00508668
0.00475183
0.00447086
0.00427168
0.00410444
0.00404822
0.0041307
0.00423688
0.00420101
0.00418504
0.00420211
0.00417686
0.00415183
0.00409707
0.0040312
0.0039213
0.00373319
0.00350279
0.00317053
0.00278629
0.002288
0.00168603
0.00100672
0.000459466
0.999994
0.999993
0.999993
0.999993
0.999993
0.999992
0.999992
0.999991
0.999991
0.99999
0.99999
0.99999
0.99999
0.99999
0.99999
0.99999
0.99999
0.99999
0.99999
0.99999
0.99999
0.99999
0.99999
0.99999
0.99999
0.99999
0.99999
0.99999
0.99999
0.99999
0.99999
0.99999
0.99999
0.99999
0.99999
0.99999
0.99999
0.99999
0.99999
0.99999
0.99999
0.99999
0.99999
0.99999
0.99999
0.99999
0.99999
0.99999
0.99999
0.99999
0.999988
0.999986
0.999978
0.999956
0.999935
0.999894
0.999878
0.99974
0.999898
0.776241
0.011771
0.00164658
0.00132781
0.000938797
0.000750758
0.000643642
0.00055223
0.00047847
0.000422611
0.000371077
0.000329011
0.000291235
0.000267821
0.000246628
0.000229013
0.000223392
0.00022682
0.000236621
0.000252408
0.000275861
0.000297603
0.000312917
0.000335591
0.000351635
0.000349503
0.000350977
0.000345942
0.000330414
0.000297392
0.00024309
0.000190914
0.00013885
8.46477e-05
4.247e-05
1.65058e-05
6.17869e-06
0.999994
0.999994
0.999993
0.999993
0.999993
0.999992
0.999992
0.999991
0.999991
0.99999
0.99999
0.99999
0.99999
0.99999
0.99999
0.99999
0.99999
0.99999
0.99999
0.99999
0.99999
0.99999
0.99999
0.99999
0.99999
0.99999
0.99999
0.99999
0.99999
0.99999
0.99999
0.99999
0.99999
0.99999
0.99999
0.99999
0.99999
0.99999
0.99999
0.99999
0.99999
0.99999
0.99999
0.99999
0.99999
0.99999
0.99999
0.99999
0.99999
0.99999
0.999988
0.999986
0.999978
0.999957
0.999932
0.999898
0.999887
0.999624
0.999757
0.8948
0.024926
8.81472e-05
3.85878e-05
1.584e-05
1.03248e-05
6.85613e-06
5.26705e-06
4.13165e-06
3.48103e-06
2.89492e-06
2.46357e-06
2.16038e-06
2.01072e-06
1.96744e-06
2.06694e-06
2.30318e-06
2.69384e-06
3.26095e-06
4.0105e-06
4.92197e-06
5.856e-06
6.66462e-06
7.40665e-06
8.14223e-06
8.56503e-06
8.84725e-06
8.67912e-06
8.06018e-06
6.62799e-06
4.64544e-06
3.06762e-06
1.81126e-06
9.73073e-07
5.69172e-07
3.98714e-07
3.62983e-07
0.999995
0.999994
0.999993
0.999993
0.999993
0.999992
0.999991
0.999991
0.999991
0.99999
0.99999
0.99999
0.99999
0.99999
0.99999
0.99999
0.99999
0.99999
0.99999
0.99999
0.99999
0.99999
0.99999
0.99999
0.99999
0.99999
0.99999
0.99999
0.99999
0.99999
0.99999
0.99999
0.99999
0.99999
0.99999
0.99999
0.99999
0.99999
0.99999
0.99999
0.99999
0.99999
0.99999
0.99999
0.99999
0.99999
0.99999
0.99999
0.99999
0.99999
0.999988
0.999985
0.99998
0.999962
0.999923
0.999889
0.999883
0.99951
0.999641
0.951585
0.0491486
2.5758e-05
1.24621e-06
9.54822e-07
9.95417e-07
9.7224e-07
9.71531e-07
9.53991e-07
9.47803e-07
9.3903e-07
9.3188e-07
9.17422e-07
8.90368e-07
8.59353e-07
8.29598e-07
8.03678e-07
7.85062e-07
7.68692e-07
7.53645e-07
7.37421e-07
7.20341e-07
7.06186e-07
6.92933e-07
6.78228e-07
6.69005e-07
6.63072e-07
6.44028e-07
6.10106e-07
5.67997e-07
5.19145e-07
4.64573e-07
4.06115e-07
3.61906e-07
3.46211e-07
3.43486e-07
3.39018e-07
0.999996
0.999995
0.999994
0.999994
0.999993
0.999992
0.999992
0.999991
0.999991
0.99999
0.99999
0.99999
0.99999
0.99999
0.99999
0.99999
0.99999
0.99999
0.99999
0.99999
0.99999
0.99999
0.99999
0.99999
0.99999
0.99999
0.99999
0.99999
0.99999
0.99999
0.99999
0.99999
0.99999
0.99999
0.99999
0.99999
0.99999
0.99999
0.99999
0.99999
0.99999
0.99999
0.99999
0.99999
0.99999
0.99999
0.99999
0.99999
0.99999
0.99999
0.999988
0.999985
0.999979
0.999969
0.999939
0.999896
0.999855
0.999399
0.999466
0.968034
0.0569262
3.96923e-05
8.61793e-07
8.52594e-07
8.60076e-07
8.68223e-07
8.68093e-07
8.49428e-07
8.41189e-07
8.23181e-07
8.12111e-07
7.97055e-07
7.88285e-07
7.7739e-07
7.66966e-07
7.54745e-07
7.40908e-07
7.25824e-07
7.08872e-07
6.92264e-07
6.77226e-07
6.62329e-07
6.48447e-07
6.38426e-07
6.30729e-07
6.23164e-07
6.10753e-07
5.89041e-07
5.57116e-07
5.15597e-07
4.70999e-07
4.24696e-07
3.8207e-07
3.58739e-07
3.53336e-07
3.44302e-07
0.999997
0.999995
0.999995
0.999995
0.999994
0.999994
0.999992
0.999991
0.999991
0.999991
0.99999
0.99999
0.99999
0.99999
0.99999
0.99999
0.99999
0.99999
0.99999
0.99999
0.99999
0.99999
0.99999
0.99999
0.99999
0.99999
0.99999
0.99999
0.99999
0.99999
0.99999
0.99999
0.99999
0.99999
0.99999
0.99999
0.99999
0.99999
0.99999
0.99999
0.99999
0.99999
0.99999
0.99999
0.99999
0.99999
0.99999
0.99999
0.99999
0.99999
0.999989
0.999984
0.999978
0.999967
0.999953
0.99992
0.999797
0.999288
0.999306
0.959522
0.0508097
3.12504e-05
7.81311e-07
7.95813e-07
8.00306e-07
7.93605e-07
7.94648e-07
7.81516e-07
7.74029e-07
7.60389e-07
7.49715e-07
7.36976e-07
7.25636e-07
7.1441e-07
7.0384e-07
6.92945e-07
6.82228e-07
6.71166e-07
6.59655e-07
6.49874e-07
6.40273e-07
6.3044e-07
6.22713e-07
6.16809e-07
6.12743e-07
6.09707e-07
6.02843e-07
5.84135e-07
5.52489e-07
5.16953e-07
4.75609e-07
4.32e-07
3.94534e-07
3.78646e-07
3.6978e-07
3.5221e-07
0.999997
0.999996
0.999996
0.999995
0.999995
0.999995
0.999994
0.999991
0.999991
0.999991
0.99999
0.99999
0.99999
0.99999
0.99999
0.99999
0.99999
0.99999
0.99999
0.99999
0.99999
0.99999
0.99999
0.99999
0.99999
0.99999
0.99999
0.99999
0.99999
0.99999
0.99999
0.99999
0.99999
0.99999
0.99999
0.99999
0.99999
0.99999
0.99999
0.99999
0.99999
0.99999
0.99999
0.99999
0.99999
0.99999
0.99999
0.99999
0.99999
0.99999
0.999989
0.999985
0.999976
0.999962
0.999954
0.999926
0.999697
0.999166
0.99877
0.957666
0.0479865
0.000120638
8.14495e-07
7.73238e-07
7.61915e-07
7.37347e-07
7.31515e-07
7.18153e-07
7.10006e-07
7.00229e-07
6.91782e-07
6.82669e-07
6.75946e-07
6.66834e-07
6.60347e-07
6.5289e-07
6.4547e-07
6.39204e-07
6.32981e-07
6.26465e-07
6.20851e-07
6.15713e-07
6.1107e-07
6.08061e-07
6.06757e-07
6.0674e-07
6.01222e-07
5.83806e-07
5.52322e-07
5.16984e-07
4.78933e-07
4.37417e-07
3.99923e-07
3.83488e-07
3.78129e-07
3.58767e-07
0.999998
0.999996
0.999996
0.999996
0.999995
0.999995
0.999995
0.999993
0.999991
0.999991
0.99999
0.99999
0.99999
0.99999
0.99999
0.99999
0.99999
0.99999
0.99999
0.99999
0.99999
0.99999
0.99999
0.99999
0.99999
0.99999
0.99999
0.99999
0.99999
0.99999
0.99999
0.99999
0.99999
0.99999
0.99999
0.99999
0.99999
0.99999
0.99999
0.99999
0.99999
0.99999
0.99999
0.99999
0.99999
0.99999
0.99999
0.99999
0.99999
0.99999
0.999989
0.999985
0.999977
0.999964
0.999953
0.99987
0.999788
0.999265
0.999004
0.952429
0.0540399
0.000397272
1.37983e-06
7.07283e-07
7.05983e-07
6.91287e-07
6.90387e-07
6.81171e-07
6.77063e-07
6.68583e-07
6.64789e-07
6.56565e-07
6.52189e-07
6.45381e-07
6.40657e-07
6.34692e-07
6.29342e-07
6.2478e-07
6.19873e-07
6.15112e-07
6.11697e-07
6.08138e-07
6.04902e-07
6.03041e-07
6.02833e-07
6.04648e-07
6.02699e-07
5.85478e-07
5.50781e-07
5.16445e-07
4.79736e-07
4.40427e-07
4.03225e-07
3.85402e-07
3.78065e-07
3.55818e-07
0.999991
0.999991
0.999991
0.999991
0.999991
0.99999
0.99999
0.99999
0.99999
0.99999
0.99999
0.99999
0.99999
0.99999
0.99999
0.99999
0.99999
0.99999
0.99999
0.99999
0.99999
0.99999
0.99999
0.99999
0.99999
0.99999
0.99999
0.99999
0.99999
0.99999
0.99999
0.99999
0.99999
0.99999
0.99999
0.99999
0.99999
0.99999
0.99999
0.99999
0.99999
0.99999
0.99999
0.99999
0.99999
0.99999
0.99999
0.99999
0.99999
0.99999
0.999989
0.999985
0.999977
0.999958
0.999944
0.999899
0.999815
0.999172
0.996878
0.936407
0.0561391
0.000451018
1.59182e-06
1.01283e-06
1.01186e-06
9.94901e-07
9.95177e-07
9.8104e-07
9.79035e-07
9.67714e-07
9.63425e-07
9.54096e-07
9.48412e-07
9.40147e-07
9.33267e-07
9.26171e-07
9.19471e-07
9.12448e-07
9.05901e-07
8.99347e-07
8.92455e-07
8.86078e-07
8.79907e-07
8.74092e-07
8.68805e-07
8.64045e-07
8.59611e-07
8.54477e-07
8.43678e-07
8.12108e-07
7.34668e-07
6.29442e-07
5.59184e-07
5.30228e-07
5.19184e-07
4.64011e-07
0.999992
0.999992
0.999992
0.999991
0.999991
0.999991
0.99999
0.99999
0.99999
0.99999
0.99999
0.99999
0.99999
0.99999
0.99999
0.99999
0.99999
0.99999
0.99999
0.99999
0.99999
0.99999
0.99999
0.99999
0.99999
0.99999
0.99999
0.99999
0.99999
0.99999
0.99999
0.99999
0.99999
0.99999
0.99999
0.99999
0.99999
0.99999
0.99999
0.99999
0.99999
0.99999
0.99999
0.99999
0.99999
0.99999
0.99999
0.99999
0.99999
0.99999
0.999988
0.999985
0.999977
0.999959
0.999948
0.999908
0.999782
0.999249
0.998104
0.943376
0.0460957
0.000113932
1.04416e-06
1.03166e-06
1.02116e-06
9.98783e-07
9.99379e-07
9.85838e-07
9.83636e-07
9.72822e-07
9.67723e-07
9.58544e-07
9.52621e-07
9.44074e-07
9.36718e-07
9.2963e-07
9.22496e-07
9.14716e-07
9.08558e-07
9.02238e-07
8.95621e-07
8.90877e-07
8.85912e-07
8.80411e-07
8.75256e-07
8.69129e-07
8.6248e-07
8.55962e-07
8.44748e-07
8.18438e-07
7.57778e-07
6.61489e-07
5.75722e-07
5.34186e-07
5.362e-07
4.81748e-07
0.999993
0.999992
0.999992
0.999992
0.999992
0.999991
0.999991
0.999991
0.99999
0.99999
0.99999
0.99999
0.99999
0.99999
0.99999
0.99999
0.99999
0.99999
0.99999
0.99999
0.99999
0.99999
0.99999
0.99999
0.99999
0.99999
0.99999
0.99999
0.99999
0.99999
0.99999
0.99999
0.99999
0.99999
0.99999
0.99999
0.99999
0.99999
0.99999
0.99999
0.99999
0.99999
0.99999
0.99999
0.99999
0.99999
0.99999
0.99999
0.99999
0.99999
0.999988
0.999985
0.999978
0.999962
0.99995
0.99989
0.999839
0.999444
0.999075
0.947548
0.0414658
5.96864e-06
1.21143e-06
1.09233e-06
1.05362e-06
1.03032e-06
1.02976e-06
1.01442e-06
1.01105e-06
9.97178e-07
9.90614e-07
9.77909e-07
9.6891e-07
9.57569e-07
9.49883e-07
9.42555e-07
9.37357e-07
9.33503e-07
9.29827e-07
9.24553e-07
9.18154e-07
9.11125e-07
9.00673e-07
8.88918e-07
8.77671e-07
8.68466e-07
8.61056e-07
8.53518e-07
8.42763e-07
8.2094e-07
7.72582e-07
6.92755e-07
6.05506e-07
5.53426e-07
5.48758e-07
4.92959e-07
0.999993
0.999992
0.999992
0.999992
0.999992
0.999992
0.999991
0.999991
0.99999
0.99999
0.99999
0.99999
0.99999
0.99999
0.99999
0.99999
0.99999
0.99999
0.99999
0.99999
0.99999
0.99999
0.99999
0.99999
0.99999
0.99999
0.99999
0.99999
0.99999
0.99999
0.99999
0.99999
0.99999
0.99999
0.99999
0.99999
0.99999
0.99999
0.99999
0.99999
0.99999
0.99999
0.99999
0.99999
0.99999
0.99999
0.99999
0.99999
0.99999
0.99999
0.999988
0.999984
0.999978
0.999962
0.999933
0.99986
0.99984
0.999522
0.999607
0.942077
0.0387062
2.09125e-06
6.56328e-06
1.76003e-06
1.78058e-06
1.49374e-06
1.45615e-06
1.33955e-06
1.28317e-06
1.22606e-06
1.20494e-06
1.18174e-06
1.17647e-06
1.16045e-06
1.14085e-06
1.11546e-06
1.08828e-06
1.05264e-06
1.01855e-06
9.8841e-07
9.64008e-07
9.40525e-07
9.2102e-07
9.00777e-07
8.82606e-07
8.6864e-07
8.58817e-07
8.48603e-07
8.36244e-07
8.1291e-07
7.71826e-07
7.08322e-07
6.32311e-07
5.79242e-07
5.60998e-07
4.9544e-07
0.999993
0.999993
0.999992
0.999992
0.999992
0.999992
0.999991
0.999991
0.999991
0.99999
0.99999
0.99999
0.99999
0.99999
0.99999
0.99999
0.99999
0.99999
0.99999
0.99999
0.99999
0.99999
0.99999
0.99999
0.99999
0.99999
0.99999
0.99999
0.99999
0.99999
0.99999
0.99999
0.99999
0.99999
0.99999
0.99999
0.99999
0.99999
0.99999
0.99999
0.99999
0.99999
0.99999
0.99999
0.99999
0.99999
0.99999
0.99999
0.99999
0.99999
0.999987
0.999982
0.999972
0.999955
0.999897
0.999821
0.999769
0.999718
0.999841
0.884694
0.0172107
0.000342307
0.00026728
0.000137691
0.000111043
9.6673e-05
9.28364e-05
9.00631e-05
8.70791e-05
8.29627e-05
8.12595e-05
7.7682e-05
7.40288e-05
6.88608e-05
6.29973e-05
5.47704e-05
4.58983e-05
3.62239e-05
2.7419e-05
1.9337e-05
1.27219e-05
7.79362e-06
4.40372e-06
2.45575e-06
1.50667e-06
1.08893e-06
9.23838e-07
8.57032e-07
8.14282e-07
7.76401e-07
7.45092e-07
7.02557e-07
6.51677e-07
6.04238e-07
5.69884e-07
4.94272e-07
0.999994
0.999993
0.999992
0.999992
0.999992
0.999992
0.999992
0.999991
0.999991
0.99999
0.99999
0.99999
0.99999
0.99999
0.99999
0.99999
0.99999
0.99999
0.99999
0.99999
0.99999
0.99999
0.99999
0.99999
0.99999
0.99999
0.99999
0.99999
0.99999
0.99999
0.99999
0.99999
0.99999
0.99999
0.99999
0.99999
0.99999
0.99999
0.99999
0.99999
0.99999
0.99999
0.99999
0.99999
0.99999
0.99999
0.99999
0.99999
0.99999
0.999989
0.999987
0.999981
0.999965
0.999943
0.999871
0.999821
0.999822
0.999863
0.999961
0.748959
0.0160719
0.00664874
0.00625172
0.0052066
0.00488027
0.00454373
0.00430629
0.00424298
0.00420104
0.00425399
0.00431601
0.0043418
0.00422524
0.00403075
0.00384122
0.0035908
0.00339168
0.00294152
0.00248891
0.00208004
0.00163156
0.00126219
0.000921235
0.000621704
0.00039963
0.000238157
0.000130325
6.78257e-05
3.29166e-05
1.46249e-05
5.35079e-06
2.03583e-06
1.01655e-06
7.40402e-07
5.89322e-07
4.6597e-07
0.999994
0.999994
0.999993
0.999993
0.999992
0.999992
0.999992
0.999991
0.999991
0.99999
0.99999
0.99999
0.99999
0.99999
0.99999
0.99999
0.99999
0.99999
0.99999
0.99999
0.99999
0.99999
0.99999
0.99999
0.99999
0.99999
0.99999
0.99999
0.99999
0.99999
0.99999
0.99999
0.99999
0.99999
0.99999
0.99999
0.99999
0.99999
0.99999
0.99999
0.99999
0.99999
0.99999
0.99999
0.99999
0.99999
0.99999
0.99999
0.99999
0.99999
0.999989
0.999984
0.999968
0.999953
0.999903
0.999817
0.999772
0.999812
0.99996
0.565343
0.0340094
0.0282639
0.0291456
0.0287412
0.0286424
0.0286584
0.0287364
0.029085
0.0293917
0.0297506
0.030367
0.0309593
0.0313211
0.0316271
0.0317034
0.0317642
0.0315802
0.0310169
0.0302163
0.0291193
0.0276007
0.0257143
0.0236308
0.0211736
0.0182311
0.0154808
0.0128561
0.0102955
0.00805877
0.00604999
0.00402368
0.00248718
0.00150056
0.000977347
0.000971056
0.00113842
0.999994
0.999994
0.999994
0.999993
0.999993
0.999992
0.999992
0.999991
0.999991
0.99999
0.99999
0.99999
0.99999
0.99999
0.99999
0.99999
0.99999
0.99999
0.99999
0.99999
0.99999
0.99999
0.99999
0.99999
0.99999
0.99999
0.99999
0.99999
0.99999
0.99999
0.99999
0.99999
0.99999
0.99999
0.99999
0.99999
0.99999
0.99999
0.99999
0.99999
0.99999
0.99999
0.99999
0.99999
0.99999
0.99999
0.99999
0.99999
0.99999
0.99999
0.999989
0.999985
0.999972
0.999955
0.999921
0.999838
0.999784
0.999787
0.999834
0.527738
0.0439817
0.0386632
0.0397881
0.0402603
0.0412591
0.042271
0.0431491
0.0441812
0.0452064
0.0462868
0.047543
0.0489871
0.0506011
0.0524048
0.0544511
0.0567715
0.0593624
0.0622412
0.0653467
0.0687014
0.0722989
0.0761034
0.0800818
0.0843859
0.0889567
0.0937675
0.0989341
0.104288
0.109968
0.116241
0.123386
0.132114
0.144177
0.164339
0.210754
0.40176
0.999994
0.999994
0.999994
0.999994
0.999993
0.999993
0.999992
0.999991
0.999991
0.99999
0.99999
0.99999
0.99999
0.99999
0.99999
0.99999
0.99999
0.99999
0.99999
0.99999
0.99999
0.99999
0.99999
0.99999
0.99999
0.99999
0.99999
0.99999
0.99999
0.99999
0.99999
0.99999
0.99999
0.99999
0.99999
0.99999
0.99999
0.99999
0.99999
0.99999
0.99999
0.99999
0.99999
0.99999
0.99999
0.99999
0.99999
0.99999
0.99999
0.99999
0.999989
0.999985
0.999978
0.999956
0.999924
0.999871
0.999812
0.999761
0.999947
0.708147
0.0201798
0.00759076
0.00643878
0.00530631
0.00486844
0.00457739
0.00439022
0.00421891
0.00403027
0.00381414
0.003612
0.00342029
0.0032484
0.00314519
0.00316596
0.00330151
0.00363562
0.00405783
0.00447421
0.00495799
0.00554549
0.00618767
0.00682334
0.00742637
0.00803041
0.00857099
0.00893966
0.00935503
0.00978751
0.0101266
0.0103022
0.0102641
0.00987348
0.00913441
0.00791017
0.00671666
0.999994
0.999995
0.999994
0.999994
0.999994
0.999993
0.999992
0.999991
0.999991
0.999991
0.99999
0.99999
0.99999
0.99999
0.99999
0.99999
0.99999
0.99999
0.99999
0.99999
0.99999
0.99999
0.99999
0.99999
0.99999
0.99999
0.99999
0.99999
0.99999
0.99999
0.99999
0.99999
0.99999
0.99999
0.99999
0.99999
0.99999
0.99999
0.99999
0.99999
0.99999
0.99999
0.99999
0.99999
0.99999
0.99999
0.99999
0.99999
0.99999
0.99999
0.999989
0.999986
0.999979
0.999964
0.999928
0.999871
0.999825
0.999738
0.99992
0.843028
0.0103374
0.000467143
0.000329378
0.000206227
0.000173262
0.000151009
0.000133366
0.000118583
0.000109282
0.000101776
9.81823e-05
9.55335e-05
9.28704e-05
9.5755e-05
0.000100706
0.000107629
0.000120773
0.000137381
0.000158086
0.000182671
0.000205707
0.000228234
0.000252889
0.000278175
0.00030558
0.000336017
0.000361362
0.000378434
0.000383482
0.000388838
0.000390353
0.000371057
0.000318545
0.000224312
0.000116497
4.60867e-05
0.999995
0.999995
0.999994
0.999994
0.999994
0.999993
0.999992
0.999991
0.999991
0.999991
0.99999
0.99999
0.99999
0.99999
0.99999
0.99999
0.99999
0.99999
0.99999
0.99999
0.99999
0.99999
0.99999
0.99999
0.99999
0.99999
0.99999
0.99999
0.99999
0.99999
0.99999
0.99999
0.99999
0.99999
0.99999
0.99999
0.99999
0.99999
0.99999
0.99999
0.99999
0.99999
0.99999
0.99999
0.99999
0.99999
0.99999
0.99999
0.99999
0.99999
0.999989
0.999986
0.999979
0.999965
0.999938
0.999893
0.99982
0.99961
0.999795
0.928231
0.0419928
8.02252e-06
1.19146e-05
4.25504e-06
3.50273e-06
2.69884e-06
2.41002e-06
2.17985e-06
2.11447e-06
2.03176e-06
1.99963e-06
1.96052e-06
1.94672e-06
1.96528e-06
2.0487e-06
2.22034e-06
2.50032e-06
2.92817e-06
3.49547e-06
4.05118e-06
4.38713e-06
4.44733e-06
4.21996e-06
3.92712e-06
3.74813e-06
3.56274e-06
3.37846e-06
3.17184e-06
3.03941e-06
2.95429e-06
2.6843e-06
2.12576e-06
1.54179e-06
1.07999e-06
6.63154e-07
4.57806e-07
0.999996
0.999995
0.999994
0.999994
0.999994
0.999994
0.999992
0.999991
0.999991
0.999991
0.99999
0.99999
0.99999
0.99999
0.99999
0.99999
0.99999
0.99999
0.99999
0.99999
0.99999
0.99999
0.99999
0.99999
0.99999
0.99999
0.99999
0.99999
0.99999
0.99999
0.99999
0.99999
0.99999
0.99999
0.99999
0.99999
0.99999
0.99999
0.99999
0.99999
0.99999
0.99999
0.99999
0.99999
0.99999
0.99999
0.99999
0.99999
0.99999
0.99999
0.999989
0.999986
0.999979
0.999964
0.99994
0.999898
0.99986
0.999477
0.999592
0.956823
0.0464624
2.60514e-06
1.36365e-06
8.90958e-07
1.09055e-06
1.02652e-06
1.03193e-06
1.00759e-06
9.9622e-07
9.76352e-07
9.61378e-07
9.43429e-07
9.17183e-07
8.86576e-07
8.56839e-07
8.28135e-07
8.0496e-07
7.8425e-07
7.66663e-07
7.51374e-07
7.36345e-07
7.19179e-07
6.98697e-07
6.79909e-07
6.63503e-07
6.52675e-07
6.41572e-07
6.20287e-07
5.88078e-07
5.43208e-07
4.87721e-07
4.29732e-07
3.87031e-07
3.70792e-07
3.64417e-07
3.4937e-07
0.999996
0.999995
0.999995
0.999994
0.999994
0.999994
0.999992
0.999991
0.999991
0.999991
0.99999
0.99999
0.99999
0.99999
0.99999
0.99999
0.99999
0.99999
0.99999
0.99999
0.99999
0.99999
0.99999
0.99999
0.99999
0.99999
0.99999
0.99999
0.99999
0.99999
0.99999
0.99999
0.99999
0.99999
0.99999
0.99999
0.99999
0.99999
0.99999
0.99999
0.99999
0.99999
0.99999
0.99999
0.99999
0.99999
0.99999
0.99999
0.99999
0.99999
0.999989
0.999985
0.999977
0.999964
0.999953
0.999911
0.999837
0.999382
0.999169
0.965176
0.0576585
1.09764e-05
1.0657e-06
9.44836e-07
9.66138e-07
9.79679e-07
9.90394e-07
9.79874e-07
9.66703e-07
9.38271e-07
9.08142e-07
8.77584e-07
8.51443e-07
8.27531e-07
8.07038e-07
7.87203e-07
7.68393e-07
7.49651e-07
7.31563e-07
7.15012e-07
6.97558e-07
6.81052e-07
6.66865e-07
6.53942e-07
6.43448e-07
6.3459e-07
6.23922e-07
6.07694e-07
5.80154e-07
5.38356e-07
4.85966e-07
4.33279e-07
3.91271e-07
3.74836e-07
3.70603e-07
3.53251e-07
0.999996
0.999995
0.999995
0.999995
0.999995
0.999994
0.999993
0.999992
0.999991
0.999991
0.99999
0.99999
0.99999
0.99999
0.99999
0.99999
0.99999
0.99999
0.99999
0.99999
0.99999
0.99999
0.99999
0.99999
0.99999
0.99999
0.99999
0.99999
0.99999
0.99999
0.99999
0.99999
0.99999
0.99999
0.99999
0.99999
0.99999
0.99999
0.99999
0.99999
0.99999
0.99999
0.99999
0.99999
0.99999
0.99999
0.99999
0.99999
0.99999
0.99999
0.999989
0.999985
0.999977
0.999963
0.999954
0.999928
0.999777
0.999288
0.998923
0.960163
0.0605192
1.23925e-05
9.1317e-07
9.17423e-07
8.93448e-07
8.81825e-07
8.89238e-07
8.79954e-07
8.7489e-07
8.55516e-07
8.41359e-07
8.20132e-07
8.02535e-07
7.82239e-07
7.64521e-07
7.473e-07
7.31303e-07
7.16509e-07
7.03171e-07
6.90395e-07
6.75995e-07
6.62553e-07
6.50674e-07
6.40562e-07
6.32479e-07
6.25515e-07
6.16691e-07
6.00348e-07
5.73146e-07
5.35472e-07
4.87311e-07
4.37897e-07
3.977e-07
3.81798e-07
3.76575e-07
3.57432e-07
0.999997
0.999996
0.999996
0.999995
0.999995
0.999995
0.999993
0.999992
0.999991
0.999991
0.99999
0.99999
0.99999
0.99999
0.99999
0.99999
0.99999
0.99999
0.99999
0.99999
0.99999
0.99999
0.99999
0.99999
0.99999
0.99999
0.99999
0.99999
0.99999
0.99999
0.99999
0.99999
0.99999
0.99999
0.99999
0.99999
0.99999
0.99999
0.99999
0.99999
0.99999
0.99999
0.99999
0.99999
0.99999
0.99999
0.99999
0.99999
0.99999
0.99999
0.999989
0.999985
0.999976
0.999963
0.999952
0.999923
0.999705
0.999144
0.998109
0.951429
0.0650037
0.000216242
8.98929e-07
7.70997e-07
7.48258e-07
7.26457e-07
7.26516e-07
7.17854e-07
7.22533e-07
7.17927e-07
7.19447e-07
7.13514e-07
7.10033e-07
7.02087e-07
6.94988e-07
6.86047e-07
6.76926e-07
6.69126e-07
6.61905e-07
6.54264e-07
6.46557e-07
6.39677e-07
6.34382e-07
6.29675e-07
6.24779e-07
6.2092e-07
6.13004e-07
5.96716e-07
5.67837e-07
5.2889e-07
4.85003e-07
4.40589e-07
4.02319e-07
3.87306e-07
3.80767e-07
3.59301e-07
0.999998
0.999997
0.999996
0.999996
0.999995
0.999995
0.999994
0.999992
0.999991
0.999991
0.99999
0.99999
0.99999
0.99999
0.99999
0.99999
0.99999
0.99999
0.99999
0.99999
0.99999
0.99999
0.99999
0.99999
0.99999
0.99999
0.99999
0.99999
0.99999
0.99999
0.99999
0.99999
0.99999
0.99999
0.99999
0.99999
0.99999
0.99999
0.99999
0.99999
0.99999
0.99999
0.99999
0.99999
0.99999
0.99999
0.99999
0.99999
0.99999
0.99999
0.999989
0.999985
0.999976
0.999964
0.999956
0.999901
0.999775
0.999075
0.997218
0.944694
0.0730443
0.000759892
2.26837e-06
6.96017e-07
6.96149e-07
6.81321e-07
6.82856e-07
6.72115e-07
6.70416e-07
6.61342e-07
6.58692e-07
6.51675e-07
6.48792e-07
6.43382e-07
6.39299e-07
6.35519e-07
6.32818e-07
6.29686e-07
6.28184e-07
6.27784e-07
6.25834e-07
6.24182e-07
6.24123e-07
6.22746e-07
6.20191e-07
6.1849e-07
6.12218e-07