/*--------------------------------*- C++ -*----------------------------------*\
| =========                 |                                                 |
| \\      /  F ield         | OpenFOAM: The Open Source CFD Toolbox           |
|  \\    /   O peration     | Version:  2.3.0                                 |
|   \\  /    A nd           | Web:      www.OpenFOAM.org                      |
|    \\/     M anipulation  |                                                 |
\*---------------------------------------------------------------------------*/
FoamFile
{
    version     2.0;
    format      ascii;
    class       volScalarField;
    location    "26";
    object      epsilon.water;
}
// * * * * * * * * * * * * * * * * * * * * * * * * * * * * * * * * * * * * * //

dimensions      [0 2 -3 0 0 0 0];

internalField   nonuniform List<scalar> 
6144
(
5.27568e-05
3.55863e-05
2.03886e-05
1.61977e-05
1.0932e-05
9.14493e-06
6.89828e-06
5.34443e-06
4.69553e-06
5.51252e-06
6.69236e-06
8.0752e-06
8.87454e-06
9.16543e-06
8.79116e-06
8.4741e-06
7.90715e-06
7.74467e-06
7.63877e-06
7.6079e-06
7.6081e-06
7.6394e-06
7.67888e-06
7.72589e-06
7.77654e-06
7.8339e-06
7.89489e-06
7.95277e-06
8.00475e-06
8.04497e-06
8.08565e-06
8.09918e-06
8.18826e-06
8.16933e-06
8.34104e-06
8.28727e-06
8.53148e-06
8.48534e-06
8.8141e-06
8.90874e-06
9.23019e-06
9.59489e-06
9.55028e-06
9.96195e-06
9.29512e-06
9.51956e-06
9.06054e-06
9.41947e-06
9.79545e-06
9.54543e-06
1.53484e-05
5.24503e-05
0.000198769
0.000516088
0.00103504
0.00141538
0.00200469
0.00458947
0.0171079
0.0298973
0.0830342
0.0446522
0.0250676
0.0149006
0.010173
0.00777197
0.00622286
0.00506408
0.00414271
0.00341478
0.00284571
0.00239727
0.0020436
0.00175519
0.00152422
0.0013537
0.00123475
0.0011524
0.00108935
0.00105563
0.00102816
0.000998268
0.000964795
0.000934726
0.000889715
0.00084863
0.000799038
0.000736762
0.000658994
0.000477032
0.00011015
4.98048e-05
7.76737e-05
9.22682e-05
9.72477e-05
7.85003e-05
0.000120739
7.11283e-05
4.09296e-05
3.25804e-05
2.31847e-05
2.22813e-05
1.95934e-05
1.69919e-05
1.60839e-05
1.79258e-05
1.94964e-05
2.08991e-05
2.21209e-05
2.25305e-05
2.19587e-05
2.14252e-05
2.07776e-05
2.09382e-05
2.11903e-05
2.15071e-05
2.1826e-05
2.21539e-05
2.24438e-05
2.272e-05
2.29826e-05
2.32451e-05
2.35076e-05
2.37576e-05
2.39937e-05
2.41978e-05
2.43965e-05
2.45379e-05
2.4902e-05
2.49098e-05
2.53823e-05
2.52777e-05
2.58667e-05
2.57377e-05
2.63604e-05
2.64726e-05
2.67627e-05
2.72322e-05
2.68338e-05
2.7268e-05
2.6622e-05
2.84846e-05
2.95659e-05
3.37876e-05
3.71012e-05
3.38916e-05
4.10331e-05
0.000120274
0.000434583
0.00116545
0.00234151
0.00340288
0.0045815
0.0100219
0.0194796
0.0223075
0.0457328
0.0139571
0.00726432
0.00532932
0.00442565
0.00378861
0.0033761
0.00301255
0.00265526
0.00232048
0.0020071
0.00171689
0.00148648
0.00132789
0.00124257
0.00121619
0.00122319
0.0012292
0.00122431
0.00119673
0.00114644
0.00108744
0.0010306
0.000976768
0.000916619
0.000865483
0.0007907
0.000700397
0.000612478
0.000439983
0.000123748
6.35232e-05
0.000104117
0.000129752
0.000132438
0.000107821
0.00016179
0.000109546
6.57842e-05
5.02311e-05
3.70672e-05
3.60391e-05
3.11366e-05
2.63477e-05
2.60958e-05
2.67234e-05
2.7357e-05
2.68294e-05
2.65292e-05
2.63964e-05
2.62301e-05
2.62295e-05
2.67612e-05
2.75909e-05
2.84433e-05
2.92664e-05
3.0015e-05
3.0686e-05
3.12401e-05
3.17215e-05
3.21469e-05
3.25455e-05
3.29272e-05
3.32881e-05
3.36312e-05
3.39464e-05
3.42506e-05
3.4465e-05
3.47249e-05
3.47609e-05
3.50261e-05
3.48867e-05
3.51371e-05
3.48033e-05
3.48946e-05
3.45153e-05
3.44159e-05
3.43726e-05
3.46524e-05
3.55522e-05
3.71604e-05
4.05944e-05
4.41355e-05
5.31453e-05
6.27003e-05
8.3553e-05
0.000104012
0.000220214
0.000632186
0.00208192
0.00367247
0.00527241
0.00494688
0.00818662
0.011056
0.010352
0.0290473
0.00494278
0.0035798
0.00364564
0.00332762
0.00281964
0.00247767
0.00213237
0.00183773
0.00165099
0.0015463
0.00147559
0.00143955
0.00145029
0.00153099
0.00157422
0.0015512
0.00146659
0.0013647
0.00124688
0.00112921
0.00102841
0.000941368
0.000857878
0.000812495
0.000802035
0.000774318
0.000711965
0.000597993
0.000416088
0.000141296
0.000100706
0.0001865
0.000245363
0.000222454
0.000170153
0.000220264
0.00015744
0.000106355
8.47102e-05
5.46122e-05
4.80758e-05
3.22684e-05
2.59463e-05
2.71278e-05
2.84758e-05
2.92644e-05
2.8249e-05
2.76342e-05
2.72421e-05
2.71481e-05
2.73107e-05
2.78771e-05
2.8731e-05
2.96663e-05
3.06071e-05
3.14751e-05
3.22093e-05
3.27921e-05
3.32616e-05
3.36554e-05
3.40084e-05
3.43377e-05
3.4646e-05
3.49379e-05
3.52084e-05
3.5464e-05
3.56495e-05
3.58422e-05
3.58491e-05
3.60039e-05
3.58453e-05
3.59483e-05
3.56017e-05
3.55866e-05
3.51486e-05
3.51098e-05
3.51446e-05
3.58078e-05
3.73292e-05
3.95276e-05
4.26507e-05
4.66282e-05
5.41238e-05
6.77848e-05
0.000130871
0.000216876
0.000376226
0.00123046
0.00433708
0.00697382
0.00900812
0.00661673
0.00889242
0.00526142
0.00504039
0.017478
0.00275124
0.00192522
0.00234406
0.00249562
0.00189761
0.00163633
0.00155887
0.00159361
0.0017187
0.00181616
0.00189464
0.00197368
0.00205034
0.00206067
0.00195399
0.00180623
0.00162378
0.00144821
0.00128923
0.00114971
0.000985821
0.000850716
0.000728852
0.000630055
0.000569421
0.000556482
0.000547464
0.000477663
0.000306579
0.000130161
0.000140235
0.000236822
0.000290868
0.000252671
0.00020714
0.000259167
0.000190858
0.000148508
0.000139642
8.74038e-05
7.32386e-05
3.85625e-05
2.87202e-05
2.94276e-05
2.93419e-05
2.95621e-05
2.78166e-05
2.69714e-05
2.6385e-05
2.63394e-05
2.65426e-05
2.72241e-05
2.81948e-05
2.93424e-05
3.05769e-05
3.16577e-05
3.24877e-05
3.30903e-05
3.35258e-05
3.3851e-05
3.41132e-05
3.43313e-05
3.45241e-05
3.46999e-05
3.48609e-05
3.50052e-05
3.5098e-05
3.51734e-05
3.50854e-05
3.50844e-05
3.48179e-05
3.472e-05
3.42621e-05
3.40034e-05
3.35903e-05
3.34465e-05
3.38088e-05
3.48404e-05
3.66319e-05
3.95398e-05
4.21505e-05
4.61089e-05
5.17631e-05
6.39098e-05
0.000128358
0.000319448
0.000802306
0.00267826
0.00787708
0.0121219
0.012728
0.0128617
0.010805
0.00348098
0.00329385
0.0128207
0.00222883
0.00179434
0.00171317
0.0017437
0.001791
0.00185852
0.00191675
0.0020365
0.00212053
0.00218606
0.00220399
0.00210703
0.00195469
0.00178745
0.00162649
0.00149045
0.0013831
0.0013084
0.00124626
0.00117935
0.00109549
0.000958835
0.000786269
0.000619869
0.000491194
0.000396355
0.000330915
0.000282594
0.000185226
0.000123611
0.000154397
0.000240446
0.000284926
0.000245091
0.000220996
0.00027608
0.000205317
0.000165343
0.000166395
0.000125068
9.85195e-05
6.1987e-05
4.15536e-05
3.44875e-05
3.08385e-05
2.95086e-05
2.69762e-05
2.59387e-05
2.49997e-05
2.48161e-05
2.49649e-05
2.59812e-05
2.72946e-05
2.88442e-05
3.02196e-05
3.13489e-05
3.21573e-05
3.27049e-05
3.30456e-05
3.32492e-05
3.33764e-05
3.34592e-05
3.35119e-05
3.3547e-05
3.35654e-05
3.35663e-05
3.35308e-05
3.34749e-05
3.33001e-05
3.3192e-05
3.28574e-05
3.26192e-05
3.2116e-05
3.17101e-05
3.13241e-05
3.11615e-05
3.15745e-05
3.26983e-05
3.42926e-05
3.72193e-05
3.90568e-05
4.16819e-05
4.33099e-05
5.03127e-05
0.000123381
0.000439814
0.00185649
0.00478779
0.0116442
0.0140691
0.0122027
0.011568
0.0100874
0.00295968
0.00275466
0.00867601
0.00205349
0.00192551
0.00197928
0.00196308
0.00194991
0.00196061
0.00195477
0.00195022
0.00185489
0.00172698
0.00155117
0.00138077
0.00121626
0.00110119
0.00103253
0.00100768
0.00100378
0.00103542
0.00108758
0.00113421
0.00115084
0.00111071
0.00102141
0.000858957
0.000658381
0.000477154
0.000345875
0.000247758
0.000162728
0.000128079
0.000153236
0.000220788
0.000254402
0.000221824
0.000219668
0.000177179
0.000186208
0.000156577
0.000160653
0.000139846
0.000108468
8.11676e-05
5.76847e-05
4.25567e-05
3.35968e-05
2.95506e-05
2.49598e-05
2.27198e-05
2.15947e-05
2.15076e-05
2.15891e-05
2.25908e-05
2.37364e-05
2.52356e-05
2.66079e-05
2.78136e-05
2.86996e-05
2.92893e-05
2.96026e-05
2.97243e-05
2.97153e-05
2.96241e-05
2.9472e-05
2.93125e-05
2.91483e-05
2.89769e-05
2.88068e-05
2.85568e-05
2.82517e-05
2.78593e-05
2.75058e-05
2.69638e-05
2.66314e-05
2.59633e-05
2.58457e-05
2.57036e-05
2.63978e-05
2.77596e-05
2.89607e-05
3.11191e-05
3.16315e-05
3.21677e-05
3.23885e-05
3.55966e-05
9.3157e-05
0.000422225
0.00186856
0.00430793
0.0105483
0.0126523
0.0126937
0.0132691
0.0124842
0.00326621
0.00306034
0.0062874
0.00174511
0.00166134
0.00167157
0.00164668
0.00157734
0.00150981
0.00139864
0.00128325
0.00114552
0.00105263
0.00092985
0.000838241
0.00075906
0.000710779
0.000679971
0.00066732
0.000662981
0.000704
0.000784211
0.000906509
0.000983461
0.00102353
0.00105212
0.00105695
0.000938961
0.000719023
0.000473707
0.000280965
0.000181749
0.000149542
0.000162706
0.000219954
0.000243751
0.00021278
0.000221439
0.000107104
0.000121454
9.61784e-05
0.000102884
0.000114686
0.000103679
8.42084e-05
6.18842e-05
4.65603e-05
3.52576e-05
2.91202e-05
2.27956e-05
2.09983e-05
1.91532e-05
1.87283e-05
1.87953e-05
2.03403e-05
2.19239e-05
2.37605e-05
2.52736e-05
2.6504e-05
2.73811e-05
2.79894e-05
2.83291e-05
2.84869e-05
2.8521e-05
2.8466e-05
2.83392e-05
2.81607e-05
2.79642e-05
2.77444e-05
2.7519e-05
2.71984e-05
2.68464e-05
2.63674e-05
2.60244e-05
2.53639e-05
2.50005e-05
2.42775e-05
2.41306e-05
2.38976e-05
2.44164e-05
2.53979e-05
2.64174e-05
2.79386e-05
2.84201e-05
2.85574e-05
2.7713e-05
2.74226e-05
5.56458e-05
0.000223891
0.00084679
0.00252221
0.00713444
0.00830892
0.0090141
0.0119432
0.0159958
0.00320628
0.00300981
0.00505951
0.00147266
0.00135766
0.00131635
0.00122213
0.00114079
0.00106969
0.000988944
0.000900626
0.000798475
0.00072162
0.000640436
0.000569451
0.000518418
0.000490046
0.000474938
0.000465686
0.000452955
0.00044801
0.000445332
0.000470528
0.000531143
0.00059634
0.000644203
0.000662756
0.000649297
0.000537851
0.000411928
0.000314656
0.000270366
0.000255917
0.000261347
0.000275842
0.000269024
0.000236908
0.000387253
7.94277e-05
8.53194e-05
5.86896e-05
5.80337e-05
6.24764e-05
5.95065e-05
6.02233e-05
5.09966e-05
4.2341e-05
3.33552e-05
2.67842e-05
2.0155e-05
1.67203e-05
1.35968e-05
1.23295e-05
1.22726e-05
1.37204e-05
1.53589e-05
1.71387e-05
1.8562e-05
1.96756e-05
2.05442e-05
2.11923e-05
2.15989e-05
2.18292e-05
2.19356e-05
2.19575e-05
2.19172e-05
2.1824e-05
2.17019e-05
2.15482e-05
2.13844e-05
2.11186e-05
2.08341e-05
2.03846e-05
2.01654e-05
1.95872e-05
1.94413e-05
1.89139e-05
1.89388e-05
1.87347e-05
1.90378e-05
1.95666e-05
2.00247e-05
2.08765e-05
2.07166e-05
2.08834e-05
1.92449e-05
1.97377e-05
3.39873e-05
0.000120254
0.000432845
0.00148382
0.00520132
0.00589709
0.00641219
0.00850688
0.0143135
0.00339574
0.00323184
0.00539403
0.00146994
0.00132246
0.00126559
0.00116325
0.00105162
0.000942658
0.000827762
0.000703111
0.000572987
0.000471838
0.000398706
0.000364145
0.000352206
0.000350584
0.000354444
0.000362557
0.000374748
0.000380339
0.000364258
0.000328094
0.000312986
0.000318327
0.000364927
0.000421652
0.000438914
0.000438593
0.000408018
0.000390869
0.000374451
0.000374092
0.000360152
0.000344978
0.000324809
0.00028355
0.00039738
6.66995e-05
6.7663e-05
4.13415e-05
3.94922e-05
4.33558e-05
4.30927e-05
4.51088e-05
4.01963e-05
3.68191e-05
2.84844e-05
2.2583e-05
1.63547e-05
1.25459e-05
9.3566e-06
7.90131e-06
7.61757e-06
8.42352e-06
9.55651e-06
1.08191e-05
1.1828e-05
1.26382e-05
1.32726e-05
1.37874e-05
1.4138e-05
1.43666e-05
1.44977e-05
1.45701e-05
1.46011e-05
1.46008e-05
1.45784e-05
1.45331e-05
1.44682e-05
1.43512e-05
1.42247e-05
1.40189e-05
1.3936e-05
1.36895e-05
1.36451e-05
1.34589e-05
1.35257e-05
1.34983e-05
1.36594e-05
1.39748e-05
1.41365e-05
1.48031e-05
1.46346e-05
1.52922e-05
1.38778e-05
1.50161e-05
2.57938e-05
9.96319e-05
0.000391815
0.00124203
0.00363967
0.00432625
0.00603174
0.00836326
0.0115373
0.00333898
0.0031601
0.00642289
0.00147862
0.0012765
0.00120173
0.0010246
0.000879694
0.000726543
0.000571616
0.000478364
0.000382103
0.000339719
0.00032547
0.000324848
0.000344609
0.000359197
0.000364724
0.000363746
0.000369855
0.000379988
0.000382166
0.000333295
0.00026131
0.000214615
0.000209556
0.000232853
0.000299342
0.000329965
0.000340277
0.00034311
0.000341234
0.000339271
0.000343087
0.000347855
0.000337985
0.000285996
0.000359441
5.96652e-05
5.25993e-05
2.16929e-05
2.02724e-05
2.50395e-05
2.60875e-05
2.99467e-05
3.0648e-05
3.00964e-05
2.35836e-05
1.76945e-05
1.22294e-05
8.78183e-06
6.218e-06
4.9951e-06
4.64917e-06
5.06888e-06
5.73742e-06
6.53801e-06
7.2181e-06
7.80089e-06
8.25733e-06
8.63674e-06
8.91971e-06
9.12808e-06
9.27657e-06
9.38939e-06
9.48044e-06
9.55662e-06
9.61506e-06
9.65409e-06
9.66959e-06
9.64881e-06
9.60201e-06
9.53365e-06
9.51718e-06
9.4605e-06
9.48688e-06
9.48524e-06
9.55417e-06
9.63284e-06
9.67634e-06
9.93873e-06
1.00606e-05
1.05807e-05
1.05063e-05
1.13361e-05
1.03985e-05
1.23353e-05
2.35784e-05
0.000102344
0.000362278
0.000955501
0.00231834
0.00309087
0.00480057
0.00868676
0.0102949
0.00332035
0.00308941
0.00905906
0.00158118
0.0012085
0.00101861
0.000741267
0.000567379
0.000491796
0.000406946
0.000372953
0.000346364
0.000338549
0.000367252
0.000428233
0.000503419
0.000565962
0.000583112
0.000547006
0.000472752
0.000431992
0.000439765
0.000427228
0.00037541
0.000287622
0.000199224
0.000130952
0.000142875
0.000183217
0.000225809
0.000245948
0.000258473
0.000274119
0.000290657
0.00029674
0.000293615
0.000249737
0.000288867
6.9263e-05
6.32567e-05
1.78576e-05
1.51429e-05
1.44247e-05
1.49913e-05
1.86702e-05
2.03349e-05
2.155e-05
1.83668e-05
1.34129e-05
8.33908e-06
5.67983e-06
3.99947e-06
3.43346e-06
3.26148e-06
3.5076e-06
3.82935e-06
4.25772e-06
4.64978e-06
5.01914e-06
5.33524e-06
5.62111e-06
5.86512e-06
6.07329e-06
6.25181e-06
6.41078e-06
6.55226e-06
6.68649e-06
6.81453e-06
6.92563e-06
7.01879e-06
7.10379e-06
7.16474e-06
7.20999e-06
7.28371e-06
7.31948e-06
7.40443e-06
7.46199e-06
7.53313e-06
7.57104e-06
7.55468e-06
7.71968e-06
7.77668e-06
8.24896e-06
8.41506e-06
9.00702e-06
8.54901e-06
1.07339e-05
2.49629e-05
0.000111887
0.000332182
0.000787477
0.00167149
0.0028924
0.00466475
0.00713031
0.00918463
0.00416894
0.00379793
0.0142436
0.00177277
0.00108395
0.000813114
0.000667822
0.000489752
0.000433289
0.000404221
0.000404323
0.000429031
0.000506653
0.000621823
0.000745126
0.000853777
0.000936808
0.000968725
0.000948591
0.00081038
0.000586692
0.00052451
0.000491408
0.0004301
0.000345078
0.000272095
0.000208121
0.000145191
9.76035e-05
0.000110782
0.000142817
0.000154891
0.000164106
0.000175928
0.00018271
0.000183993
0.000156036
0.000173134
0.000155722
0.000130702
4.79541e-05
1.63347e-05
1.2242e-05
1.15824e-05
1.35107e-05
1.4584e-05
1.47781e-05
1.26667e-05
9.85664e-06
6.48301e-06
4.47605e-06
3.11323e-06
2.75264e-06
2.62207e-06
2.85352e-06
3.04952e-06
3.2657e-06
3.43482e-06
3.60672e-06
3.76355e-06
3.92026e-06
4.06593e-06
4.20123e-06
4.32728e-06
4.45477e-06
4.60356e-06
4.75579e-06
4.90588e-06
5.04801e-06
5.17871e-06
5.28923e-06
5.37628e-06
5.46157e-06
5.55474e-06
5.64452e-06
5.74483e-06
5.86931e-06
5.94632e-06
6.04999e-06
6.05552e-06
6.24566e-06
6.28086e-06
6.6474e-06
6.7424e-06
7.12041e-06
7.03235e-06
9.57264e-06
2.43477e-05
0.000106106
0.000285239
0.000627371
0.00130042
0.0025216
0.00400803
0.00681422
0.00864465
0.00887646
0.00700213
0.0244673
0.00232289
0.00115169
0.000950749
0.000945161
0.000757059
0.000667318
0.000679171
0.000748381
0.000921982
0.00108792
0.00121916
0.00133664
0.00139879
0.00139541
0.00135963
0.00127738
0.00112222
0.000840912
0.000671954
0.000595451
0.000485912
0.000379946
0.000302127
0.00024542
0.000195024
0.000138622
9.26926e-05
7.3256e-05
7.8102e-05
8.90038e-05
9.17742e-05
8.99674e-05
8.0888e-05
6.50097e-05
7.11962e-05
0.000227778
0.000140034
0.000103242
5.10303e-05
2.06157e-05
9.78634e-06
7.54235e-06
1.00946e-05
1.06287e-05
9.34212e-06
8.26849e-06
5.55905e-06
3.89075e-06
2.80208e-06
2.44948e-06
2.32414e-06
2.51102e-06
2.66041e-06
2.82695e-06
2.93701e-06
3.02949e-06
3.09655e-06
3.1579e-06
3.21172e-06
3.26738e-06
3.34022e-06
3.43125e-06
3.52003e-06
3.62019e-06
3.73189e-06
3.84681e-06
3.95783e-06
4.05383e-06
4.12934e-06
4.20974e-06
4.29772e-06
4.41499e-06
4.52112e-06
4.67837e-06
4.76307e-06
4.92032e-06
4.95868e-06
5.15886e-06
5.22164e-06
5.51648e-06
5.57853e-06
5.83412e-06
5.9329e-06
8.1089e-06
2.1406e-05
8.74102e-05
0.000207706
0.00046254
0.00104862
0.00207038
0.00300321
0.00684044
0.0100206
0.013143
0.0129001
0.0318662
0.00319642
0.00220572
0.00233821
0.00233983
0.00220271
0.0020056
0.00194536
0.00195052
0.00197305
0.0020124
0.00201903
0.00200564
0.00196314
0.00187084
0.00169792
0.00152943
0.00132237
0.000988172
0.000760929
0.000653216
0.00051107
0.000390596
0.000308077
0.000256513
0.000217901
0.000178253
0.000135123
9.38887e-05
6.23986e-05
4.81979e-05
4.46814e-05
4.29496e-05
3.75034e-05
2.96617e-05
2.961e-05
0.000428485
0.000232945
0.000222096
8.04265e-05
9.02867e-05
2.51593e-05
7.64756e-06
5.87898e-06
7.04305e-06
6.13624e-06
5.5139e-06
3.58858e-06
2.63082e-06
2.0717e-06
1.82845e-06
1.75495e-06
1.86077e-06
1.94543e-06
2.04482e-06
2.11677e-06
2.18654e-06
2.24572e-06
2.30533e-06
2.36502e-06
2.43068e-06
2.50855e-06
2.59578e-06
2.68582e-06
2.78601e-06
2.89463e-06
3.00673e-06
3.11718e-06
3.21964e-06
3.31084e-06
3.41769e-06
3.52626e-06
3.66455e-06
3.77866e-06
3.95058e-06
4.04318e-06
4.21225e-06
4.26572e-06
4.46239e-06
4.52385e-06
4.74536e-06
4.74951e-06
4.88698e-06
5.0045e-06
6.66046e-06
1.5443e-05
5.59929e-05
0.000134138
0.000355136
0.00083099
0.00172359
0.00259545
0.00659017
0.0108781
0.0188666
0.021178
0.0461398
0.00822407
0.0057009
0.00444592
0.0038793
0.00358932
0.00337152
0.00319908
0.00306816
0.00293839
0.00282486
0.00269337
0.0025672
0.00239456
0.0022384
0.00200436
0.00177068
0.00148095
0.0010825
0.000814527
0.000629602
0.000422505
0.000287862
0.000254451
0.000218332
0.000200384
0.000179378
0.000150721
0.000120327
8.95049e-05
6.23971e-05
4.38798e-05
3.35896e-05
2.78101e-05
2.31955e-05
2.13972e-05
0.000462893
0.000413187
0.000369989
0.000278758
0.000212502
0.000138119
2.43331e-05
3.27983e-06
2.71221e-06
2.49813e-06
2.25292e-06
1.72367e-06
1.41318e-06
1.20377e-06
1.11627e-06
1.09189e-06
1.13642e-06
1.17439e-06
1.22078e-06
1.25562e-06
1.29162e-06
1.3258e-06
1.36193e-06
1.39991e-06
1.44178e-06
1.48908e-06
1.54007e-06
1.59394e-06
1.65343e-06
1.71703e-06
1.78278e-06
1.84863e-06
1.91257e-06
1.9751e-06
2.04942e-06
2.12677e-06
2.22261e-06
2.30148e-06
2.43694e-06
2.52383e-06
2.68441e-06
2.75303e-06
2.90161e-06
2.93081e-06
3.0316e-06
2.96703e-06
3.04888e-06
3.24644e-06
4.69194e-06
1.02453e-05
2.85028e-05
6.49733e-05
0.000167564
0.000369792
0.000891024
0.00108567
0.00251667
0.00487033
0.0148583
0.0256083
0.0828723
0.0389857
0.0236399
0.0144232
0.0100346
0.00777766
0.00641136
0.00547681
0.00479381
0.00426909
0.00386663
0.00352025
0.00323168
0.00293069
0.00266922
0.00233735
0.00203222
0.00167257
0.00120084
0.000853345
0.000553317
0.000340784
0.000233418
0.00019682
0.000177651
0.000159885
0.000143348
0.000124606
0.000103609
8.45828e-05
6.84317e-05
5.42537e-05
4.28143e-05
3.45195e-05
2.91758e-05
2.06775e-05
0.000134286
7.91953e-05
3.56353e-05
2.41435e-05
1.71412e-05
1.62783e-05
1.48271e-05
1.52975e-05
1.9168e-05
2.74129e-05
3.21418e-05
3.85622e-05
4.1283e-05
4.25748e-05
4.08098e-05
3.8847e-05
3.55809e-05
3.34686e-05
3.1428e-05
3.03466e-05
2.97049e-05
2.95478e-05
2.96566e-05
3.00128e-05
3.05683e-05
3.12691e-05
3.20534e-05
3.28656e-05
3.36704e-05
3.44092e-05
3.51364e-05
3.56386e-05
3.6214e-05
3.64034e-05
3.71548e-05
3.72189e-05
3.8377e-05
3.85246e-05
4.02896e-05
4.08962e-05
4.27591e-05
4.36094e-05
4.35106e-05
4.35561e-05
3.96934e-05
3.882e-05
3.43001e-05
3.51527e-05
3.79014e-05
2.79408e-05
3.03336e-05
6.23146e-05
0.000199749
0.000501921
0.00112122
0.00193472
0.00387462
0.00770098
0.0134844
0.0216089
0.0362381
0.0242632
0.0165598
0.0117701
0.00899918
0.00726059
0.00603922
0.0050951
0.00433205
0.00370912
0.00319831
0.00278748
0.00245247
0.00218696
0.00197438
0.00182738
0.00175373
0.00170762
0.00166981
0.00165029
0.00162125
0.00157287
0.00151771
0.00144676
0.00134955
0.00126397
0.00117099
0.00106987
0.000942686
0.000790826
0.000481998
0.000189729
0.000118362
0.000184901
0.000253834
0.000153859
0.000185579
9.45449e-05
5.05001e-05
3.61255e-05
3.15029e-05
3.31913e-05
3.34028e-05
3.66458e-05
4.13993e-05
4.64039e-05
4.77592e-05
4.92774e-05
4.99029e-05
5.03255e-05
4.99818e-05
4.9208e-05
4.79936e-05
4.71764e-05
4.63826e-05
4.61464e-05
4.6078e-05
4.62941e-05
4.67039e-05
4.73211e-05
4.80996e-05
4.90009e-05
4.99711e-05
5.096e-05
5.19451e-05
5.28817e-05
5.37885e-05
5.45167e-05
5.51992e-05
5.56168e-05
5.63214e-05
5.66375e-05
5.75677e-05
5.79157e-05
5.91054e-05
5.96131e-05
6.04603e-05
6.07881e-05
6.05428e-05
6.06952e-05
5.92465e-05
6.13301e-05
6.2218e-05
7.02e-05
8.60754e-05
8.25324e-05
8.81417e-05
0.000146972
0.000408656
0.00103999
0.00231789
0.00419661
0.00588423
0.00962873
0.0169135
0.0218983
0.0369401
0.00929813
0.0106529
0.00839673
0.00591487
0.00455059
0.00381928
0.00336508
0.00304261
0.00280985
0.00264329
0.00254999
0.00250493
0.00248852
0.00250442
0.00256536
0.00262317
0.00260497
0.00253575
0.00239361
0.00222843
0.00205652
0.00189244
0.00173049
0.00156104
0.00140149
0.00121619
0.00107036
0.000949989
0.000835438
0.000744646
0.000540754
0.000415326
0.000412278
0.000394836
0.000221816
0.000275735
0.000144463
8.98907e-05
5.60068e-05
4.80882e-05
4.84362e-05
4.77866e-05
5.2656e-05
5.90484e-05
6.25157e-05
6.26236e-05
5.93247e-05
5.7832e-05
5.70955e-05
5.69667e-05
5.70264e-05
5.73425e-05
5.79038e-05
5.86339e-05
5.94802e-05
6.02579e-05
6.10537e-05
6.18981e-05
6.28208e-05
6.37901e-05
6.4796e-05
6.58112e-05
6.68271e-05
6.784e-05
6.88475e-05
6.98253e-05
7.07344e-05
7.15253e-05
7.21018e-05
7.27725e-05
7.31702e-05
7.38779e-05
7.41566e-05
7.48436e-05
7.51941e-05
7.54959e-05
7.61098e-05
7.66385e-05
7.84774e-05
7.96806e-05
8.48519e-05
8.9419e-05
0.000104956
0.000134754
0.000195319
0.000259237
0.000365184
0.000754075
0.00192749
0.00397631
0.00716623
0.00601314
0.0101064
0.0117732
0.0112455
0.0307195
0.00577535
0.0124644
0.00751329
0.00443085
0.00350395
0.00312244
0.00315455
0.00328875
0.00347015
0.00367086
0.00384539
0.00403554
0.0042327
0.00434253
0.00423388
0.00398387
0.00363839
0.00327027
0.00289551
0.00257768
0.00232098
0.00209988
0.00190372
0.00171865
0.00154631
0.00133702
0.00115071
0.000990883
0.000919905
0.000856225
0.000730662
0.000716861
0.000642008
0.000525946
0.000344001
0.000434725
0.000220309
0.00015441
8.63586e-05
6.9118e-05
6.43476e-05
5.91825e-05
6.24712e-05
6.99459e-05
7.33164e-05
7.35237e-05
6.94777e-05
6.71267e-05
6.54993e-05
6.49417e-05
6.492e-05
6.5483e-05
6.64968e-05
6.79183e-05
6.95711e-05
7.1047e-05
7.23062e-05
7.34906e-05
7.46321e-05
7.57495e-05
7.68753e-05
7.7971e-05
7.90419e-05
8.00989e-05
8.11578e-05
8.22058e-05
8.31779e-05
8.40142e-05
8.46123e-05
8.52366e-05
8.55855e-05
8.6172e-05
8.63215e-05
8.6903e-05
8.72326e-05
8.79614e-05
8.90515e-05
9.11402e-05
9.37527e-05
9.72644e-05
0.000101627
0.000107994
0.00012212
0.000153353
0.000290796
0.000599142
0.000751598
0.00197301
0.00614491
0.00853785
0.0133243
0.00858772
0.0129528
0.0130095
0.00996619
0.0332052
0.00511585
0.0043934
0.00322278
0.0035682
0.00375362
0.00371167
0.00388562
0.00427905
0.00481658
0.00525304
0.00542377
0.00546894
0.00522275
0.0047444
0.00426242
0.00381218
0.00336169
0.00295275
0.00257776
0.00224314
0.00195806
0.00172005
0.00152997
0.001366
0.00122934
0.00109875
0.000997395
0.000910827
0.000853589
0.000782672
0.000703998
0.000715164
0.000635025
0.000516215
0.000375438
0.00066484
0.000299676
0.000219061
0.000126232
0.000100164
9.07244e-05
7.85474e-05
7.9934e-05
8.739e-05
8.92185e-05
8.72634e-05
8.06484e-05
7.54747e-05
7.18515e-05
7.08925e-05
7.07411e-05
7.22576e-05
7.44445e-05
7.7211e-05
7.98695e-05
8.22458e-05
8.43172e-05
8.61321e-05
8.77042e-05
8.90964e-05
9.03487e-05
9.15467e-05
9.26978e-05
9.38204e-05
9.4943e-05
9.60288e-05
9.70237e-05
9.78389e-05
9.8419e-05
9.8851e-05
9.92442e-05
9.94601e-05
9.99401e-05
0.000100145
0.000101092
0.000102044
0.000103705
0.000106424
0.00010891
0.000113473
0.000116945
0.0001214
0.000129693
0.000151149
0.000304538
0.000778148
0.00184444
0.00461717
0.0124644
0.0192924
0.023284
0.020991
0.0261121
0.0102336
0.00867964
0.0405564
0.00456088
0.00363639
0.00324573
0.00387579
0.00404425
0.00475654
0.00504026
0.00520919
0.005241
0.00509868
0.00471531
0.00427611
0.00385073
0.00354821
0.00334049
0.00317272
0.00301055
0.00282301
0.00258859
0.00230129
0.00197053
0.00166542
0.00142905
0.0012129
0.00102992
0.000882012
0.000775532
0.00068823
0.000606322
0.000548625
0.000559351
0.000612
0.000557369
0.000468921
0.000373665
0.000918257
0.000364893
0.000276407
0.00017383
0.000134033
0.000123277
0.000107671
0.000105538
0.000107536
0.000104082
9.83178e-05
8.61988e-05
7.82379e-05
7.33411e-05
7.19461e-05
7.15291e-05
7.3505e-05
7.62766e-05
7.98217e-05
8.31164e-05
8.61066e-05
8.88909e-05
9.12785e-05
9.32179e-05
9.48449e-05
9.62404e-05
9.74841e-05
9.86168e-05
9.96875e-05
0.000100732
0.000101723
0.000102696
0.00010335
0.000103829
0.000103872
0.000104258
0.000103973
0.000104728
0.000104404
0.000105857
0.000106815
0.000109594
0.000113381
0.000116389
0.000120503
0.000122843
0.00012402
0.000128207
0.000123323
0.00024571
0.000800537
0.00285332
0.00772598
0.0228384
0.0248286
0.0230796
0.0217694
0.0239709
0.00709471
0.00702401
0.0470134
0.00494033
0.00413738
0.00446151
0.00462034
0.00459774
0.00459919
0.00443913
0.00410599
0.00365504
0.00320256
0.00285748
0.00266499
0.00253024
0.0024586
0.00241956
0.00239697
0.00242391
0.00254027
0.00271067
0.00278269
0.00271221
0.0024446
0.00212149
0.00175125
0.00141913
0.0011706
0.000932706
0.00073555
0.00058093
0.000479823
0.000471619
0.000494823
0.000453698
0.000404043
0.000353821
0.000724222
0.000394386
0.000306652
0.000208374
0.000160898
0.000146289
0.0001345
0.000124482
0.000119673
0.000112896
0.000103771
8.73959e-05
7.71401e-05
6.82574e-05
6.56809e-05
6.44908e-05
6.76822e-05
7.14655e-05
7.63296e-05
8.07546e-05
8.46062e-05
8.78597e-05
9.06356e-05
9.27986e-05
9.45275e-05
9.59153e-05
9.70736e-05
9.80713e-05
9.89732e-05
9.9816e-05
0.000100582
0.000101379
0.000101749
0.000102001
0.000101565
0.000101816
0.000100907
0.00010181
0.000100848
0.000102602
0.000103404
0.000106747
0.000111106
0.000114207
0.000117862
0.000118923
0.000115646
0.000118019
0.000104461
0.000182896
0.000561752
0.00210956
0.00602064
0.0170245
0.0195338
0.0206348
0.0221989
0.0233213
0.0101778
0.010255
0.0372784
0.00417248
0.00340708
0.00320923
0.00306219
0.00280177
0.00259076
0.00227716
0.00207551
0.00191571
0.00181003
0.00173484
0.00171043
0.00170495
0.00176321
0.00184369
0.00194853
0.00204826
0.00212657
0.00231002
0.00256213
0.00286063
0.00297454
0.0029508
0.00274641
0.00252658
0.00235183
0.00189214
0.00136952
0.000943904
0.000757252
0.000703156
0.000644619
0.000511204
0.000409956
0.000356838
0.000477905
0.000381321
0.000243098
0.000192742
0.000164808
0.000151577
0.00014264
0.00012833
0.000123054
0.000117406
0.000105548
8.38669e-05
6.93275e-05
5.71372e-05
5.38756e-05
5.25154e-05
5.75918e-05
6.28113e-05
6.9103e-05
7.41404e-05
7.81918e-05
8.16122e-05
8.44975e-05
8.66157e-05
8.8214e-05
8.93896e-05
9.02837e-05
9.09269e-05
9.12981e-05
9.15171e-05
9.1586e-05
9.17045e-05
9.1368e-05
9.1022e-05
8.97666e-05
8.96169e-05
8.74501e-05
8.71843e-05
8.47168e-05
8.5307e-05
8.43028e-05
8.65031e-05
8.80826e-05
9.13586e-05
9.29621e-05
9.42039e-05
9.1598e-05
8.71343e-05
7.47076e-05
0.0001271
0.000303516
0.00089919
0.0035304
0.00981531
0.0094447
0.010908
0.0258344
0.0341615
0.010504
0.010379
0.0344491
0.00382602
0.00301452
0.00282655
0.00260464
0.0024046
0.00230222
0.00211449
0.00199461
0.00179556
0.00166334
0.00149838
0.00142198
0.00139396
0.0013999
0.00156984
0.00183434
0.00211575
0.00230941
0.00242141
0.0024508
0.00245695
0.00247106
0.00252144
0.00261295
0.00266877
0.00268266
0.00264186
0.00241852
0.00212507
0.00179562
0.0015598
0.00121579
0.000829336
0.000613789
0.000774248
0.000364573
0.000307059
0.00020694
0.000156856
0.000126814
0.000112117
0.000123613
0.000125338
0.000125812
0.000120907
0.00010742
7.96143e-05
5.8886e-05
3.98847e-05
3.23723e-05
3.01626e-05
3.2281e-05
3.51457e-05
3.91953e-05
4.29773e-05
4.7176e-05
5.08331e-05
5.38076e-05
5.57903e-05
5.70713e-05
5.78565e-05
5.84417e-05
5.88676e-05
5.92171e-05
5.94372e-05
5.95309e-05
5.97442e-05
5.94641e-05
5.908e-05
5.77835e-05
5.77576e-05
5.59853e-05
5.69151e-05
5.51576e-05
5.71357e-05
5.58637e-05
5.78951e-05
5.74384e-05
5.90348e-05
5.82416e-05
5.83096e-05
5.55629e-05
5.35215e-05
5.31671e-05
9.38176e-05
0.000219454
0.000539678
0.00161054
0.00643473
0.00651084
0.00971963
0.0259883
0.0426379
0.00868328
0.00857719
0.0343785
0.0039175
0.00338269
0.00321228
0.00315245
0.00284187
0.00270108
0.002308
0.0020186
0.00157901
0.00123406
0.000936144
0.000767298
0.000698342
0.000671766
0.00066699
0.000702569
0.00076555
0.000969568
0.0016607
0.00254883
0.00307104
0.00330371
0.00305431
0.00273273
0.00260717
0.00258201
0.0024795
0.00244447
0.00237068
0.0023025
0.00218624
0.00197925
0.00155841
0.00107826
0.000839825
0.000317902
0.000214505
0.00015719
0.000132861
0.000121023
9.00608e-05
9.70296e-05
9.73683e-05
0.00010797
0.000106303
9.4541e-05
6.91551e-05
4.61683e-05
2.99836e-05
2.3605e-05
2.14528e-05
2.19297e-05
2.30925e-05
2.51609e-05
2.7172e-05
2.92773e-05
3.11227e-05
3.26603e-05
3.36885e-05
3.4421e-05
3.51341e-05
3.57493e-05
3.63501e-05
3.68816e-05
3.7243e-05
3.75059e-05
3.77713e-05
3.77345e-05
3.76399e-05
3.7111e-05
3.72363e-05
3.64215e-05
3.68831e-05
3.60224e-05
3.67061e-05
3.56826e-05
3.61709e-05
3.54113e-05
3.65447e-05
3.6756e-05
3.81049e-05
3.83189e-05
3.77947e-05
4.23841e-05
7.71496e-05
0.00017288
0.000373856
0.000951156
0.00334871
0.00648033
0.0152222
0.0286837
0.0316724
0.00724047
0.00715575
0.037582
0.0036984
0.00335068
0.00272424
0.00266159
0.00204113
0.00181933
0.00138624
0.00115745
0.000922204
0.000752998
0.000641896
0.000593665
0.000582954
0.000581294
0.000578242
0.000595341
0.000610013
0.000646003
0.00075925
0.000840483
0.000901339
0.00100776
0.0013251
0.00181584
0.00164855
0.00152877
0.00153031
0.00156466
0.00160617
0.00175843
0.00183385
0.00185034
0.00149263
0.000988294
0.000501508
0.000300394
0.000138433
7.28689e-05
5.83197e-05
6.23927e-05
5.30682e-05
6.50454e-05
7.42787e-05
8.4526e-05
8.56683e-05
7.85811e-05
5.7641e-05
3.96086e-05
2.67108e-05
2.09914e-05
1.91285e-05
1.94335e-05
1.99305e-05
2.07405e-05
2.16131e-05
2.25642e-05
2.33513e-05
2.39819e-05