/*--------------------------------*- C++ -*----------------------------------*\
| =========                 |                                                 |
| \\      /  F ield         | OpenFOAM: The Open Source CFD Toolbox           |
|  \\    /   O peration     | Version:  2.3.0                                 |
|   \\  /    A nd           | Web:      www.OpenFOAM.org                      |
|    \\/     M anipulation  |                                                 |
\*---------------------------------------------------------------------------*/
FoamFile
{
    version     2.0;
    format      ascii;
    class       volScalarField;
    location    "26";
    object      nut.water;
}
// * * * * * * * * * * * * * * * * * * * * * * * * * * * * * * * * * * * * * //

dimensions      [0 2 -1 0 0 0 0];

internalField   nonuniform List<scalar> 
6144
(
1.31594e-05
1.15448e-05
9.59337e-06
8.88763e-06
7.7994e-06
7.35225e-06
6.69553e-06
6.15314e-06
5.89748e-06
6.22506e-06
6.64404e-06
7.07708e-06
7.30746e-06
7.39032e-06
7.29259e-06
7.20755e-06
7.04683e-06
7.00189e-06
6.97342e-06
6.96756e-06
6.97116e-06
6.98423e-06
6.99981e-06
7.01768e-06
7.03664e-06
7.05759e-06
7.07958e-06
7.10059e-06
7.11978e-06
7.13545e-06
7.15121e-06
7.159e-06
7.18899e-06
7.18727e-06
7.24092e-06
7.22933e-06
7.3032e-06
7.29428e-06
7.39071e-06
7.4216e-06
7.51297e-06
7.61515e-06
7.60657e-06
7.71784e-06
7.54604e-06
7.61099e-06
7.49217e-06
7.59559e-06
7.70119e-06
7.63256e-06
8.93282e-06
1.34651e-05
2.09873e-05
2.88661e-05
3.64658e-05
4.05285e-05
4.55994e-05
6.00783e-05
9.41942e-05
0.000113678
0.000173662
0.000136181
0.000116501
9.94941e-05
8.82791e-05
8.15383e-05
7.65148e-05
7.19669e-05
6.75815e-05
6.34714e-05
5.97574e-05
5.64434e-05
5.35802e-05
5.10878e-05
4.89481e-05
4.73521e-05
4.62617e-05
4.561e-05
4.51889e-05
4.51175e-05
4.51246e-05
4.5046e-05
4.48706e-05
4.4662e-05
4.40764e-05
4.33706e-05
4.23587e-05
4.06183e-05
3.83952e-05
3.28723e-05
1.93209e-05
1.54739e-05
1.91304e-05
2.04872e-05
2.04449e-05
1.77673e-05
1.7347e-05
1.45745e-05
1.21522e-05
1.12866e-05
1.01019e-05
9.99237e-06
9.59452e-06
9.17278e-06
9.03003e-06
9.38517e-06
9.67375e-06
9.92191e-06
1.01343e-05
1.02197e-05
1.0156e-05
1.00963e-05
1.00167e-05
1.00655e-05
1.0129e-05
1.02024e-05
1.02759e-05
1.03506e-05
1.04192e-05
1.04855e-05
1.05496e-05
1.06137e-05
1.06776e-05
1.07395e-05
1.07993e-05
1.08543e-05
1.09085e-05
1.09544e-05
1.10331e-05
1.10592e-05
1.11533e-05
1.11632e-05
1.12739e-05
1.1281e-05
1.13958e-05
1.14383e-05
1.15046e-05
1.15976e-05
1.15661e-05
1.16539e-05
1.1587e-05
1.18782e-05
1.20556e-05
1.26359e-05
1.30715e-05
1.271e-05
1.35651e-05
1.93614e-05
2.96948e-05
4.13844e-05
5.24802e-05
5.97121e-05
6.63081e-05
8.67105e-05
0.000108052
0.000113261
0.000159421
0.000101785
8.5362e-05
7.58333e-05
7.26408e-05
7.03577e-05
6.82578e-05
6.60365e-05
6.35254e-05
6.08138e-05
5.79808e-05
5.50027e-05
5.22855e-05
5.01942e-05
4.89038e-05
4.85068e-05
4.87186e-05
4.90801e-05
4.93965e-05
4.94876e-05
4.92676e-05
4.89004e-05
4.84717e-05
4.80728e-05
4.74146e-05
4.67458e-05
4.57074e-05
4.38748e-05
4.19119e-05
3.7015e-05
2.39809e-05
1.90855e-05
2.3409e-05
2.54778e-05
2.55417e-05
1.99542e-05
1.91329e-05
1.68636e-05
1.42893e-05
1.31109e-05
1.18957e-05
1.18293e-05
1.13058e-05
1.07365e-05
1.07456e-05
1.08735e-05
1.09998e-05
1.09684e-05
1.09667e-05
1.09886e-05
1.10061e-05
1.1047e-05
1.11624e-05
1.13184e-05
1.1476e-05
1.16283e-05
1.17695e-05
1.19e-05
1.20148e-05
1.21201e-05
1.22182e-05
1.23128e-05
1.24054e-05
1.24953e-05
1.25831e-05
1.26674e-05
1.27506e-05
1.28227e-05
1.29006e-05
1.29508e-05
1.30294e-05
1.3058e-05
1.31349e-05
1.31395e-05
1.31965e-05
1.3195e-05
1.3228e-05
1.32689e-05
1.33511e-05
1.35126e-05
1.37609e-05
1.42204e-05
1.46733e-05
1.56647e-05
1.66164e-05
1.83667e-05
1.98202e-05
2.53904e-05
3.61028e-05
5.39886e-05
6.56156e-05
7.44202e-05
7.30584e-05
8.69886e-05
9.57028e-05
9.4187e-05
0.000148104
8.24259e-05
7.51607e-05
7.16182e-05
7.06134e-05
6.78569e-05
6.53732e-05
6.2401e-05
5.92651e-05
5.68021e-05
5.50647e-05
5.34735e-05
5.21765e-05
5.17712e-05
5.29451e-05
5.40124e-05
5.42114e-05
5.36562e-05
5.28682e-05
5.18338e-05
5.07072e-05
4.96784e-05
4.87686e-05
4.77816e-05
4.73397e-05
4.75068e-05
4.74025e-05
4.65954e-05
4.47788e-05
4.02322e-05
2.84967e-05
2.46252e-05
3.05102e-05
3.38648e-05
3.32738e-05
2.32616e-05
2.12144e-05
1.90722e-05
1.68332e-05
1.56901e-05
1.36288e-05
1.31324e-05
1.15576e-05
1.08034e-05
1.10226e-05
1.12612e-05
1.14225e-05
1.13462e-05
1.13196e-05
1.13229e-05
1.13672e-05
1.14478e-05
1.1585e-05
1.17612e-05
1.19474e-05
1.21328e-05
1.23076e-05
1.24642e-05
1.26011e-05
1.27234e-05
1.28362e-05
1.2944e-05
1.3049e-05
1.31516e-05
1.32523e-05
1.33506e-05
1.34472e-05
1.35353e-05
1.36244e-05
1.36902e-05
1.37748e-05
1.38195e-05
1.38977e-05
1.3918e-05
1.39811e-05
1.39888e-05
1.40487e-05
1.41186e-05
1.4273e-05
1.4538e-05
1.48865e-05
1.53366e-05
1.58726e-05
1.6756e-05
1.81479e-05
2.26885e-05
2.69759e-05
3.23739e-05
4.81506e-05
7.39908e-05
8.72611e-05
9.54829e-05
8.64876e-05
9.59865e-05
8.09235e-05
8.13036e-05
0.000135872
7.4806e-05
6.4549e-05
6.66404e-05
6.76097e-05
6.10624e-05
5.86792e-05
5.78952e-05
5.87863e-05
6.15357e-05
6.38064e-05
6.55413e-05
6.69558e-05
6.8006e-05
6.8098e-05
6.67107e-05
6.48103e-05
6.22925e-05
5.97866e-05
5.73611e-05
5.52e-05
5.25861e-05
5.02287e-05
4.79213e-05
4.58905e-05
4.46717e-05
4.48836e-05
4.5601e-05
4.50825e-05
4.0436e-05
3.07723e-05
3.04065e-05
3.619e-05
3.93601e-05
3.84109e-05
2.51521e-05
2.24084e-05
2.03752e-05
1.88758e-05
1.86202e-05
1.60443e-05
1.52269e-05
1.23851e-05
1.13009e-05
1.14689e-05
1.1533e-05
1.16362e-05
1.14758e-05
1.14307e-05
1.142e-05
1.14864e-05
1.15897e-05
1.17627e-05
1.19765e-05
1.22136e-05
1.24606e-05
1.26848e-05
1.28745e-05
1.3034e-05
1.31718e-05
1.32954e-05
1.34112e-05
1.35215e-05
1.36288e-05
1.37343e-05
1.38381e-05
1.39401e-05
1.40355e-05
1.41287e-05
1.42002e-05
1.42834e-05
1.43304e-05
1.44001e-05
1.44197e-05
1.44664e-05
1.44906e-05
1.4553e-05
1.46885e-05
1.49211e-05
1.52571e-05
1.57382e-05
1.61655e-05
1.67496e-05
1.75024e-05
1.88709e-05
2.39124e-05
3.25435e-05
4.43433e-05
6.65757e-05
9.65106e-05
0.000112143
0.000114618
0.000115631
0.000109705
7.57931e-05
7.64447e-05
0.000132478
7.48361e-05
6.69057e-05
6.63617e-05
6.56291e-05
6.74003e-05
6.97817e-05
7.1576e-05
7.42108e-05
7.58687e-05
7.72743e-05
7.77871e-05
7.69711e-05
7.51623e-05
7.2987e-05
7.06037e-05
6.84677e-05
6.64843e-05
6.50356e-05
6.35837e-05
6.20825e-05
6.03084e-05
5.75477e-05
5.38014e-05
4.95635e-05
4.55617e-05
4.28345e-05
4.1744e-05
4.13582e-05
3.72947e-05
3.25842e-05
3.44497e-05
4.00581e-05
4.30961e-05
4.2183e-05
2.64405e-05
2.28997e-05
2.0919e-05
1.96321e-05
1.98364e-05
1.8189e-05
1.69359e-05
1.46426e-05
1.29237e-05
1.22436e-05
1.18881e-05
1.18056e-05
1.15459e-05
1.14839e-05
1.14311e-05
1.14905e-05
1.16018e-05
1.1847e-05
1.21351e-05
1.24542e-05
1.27444e-05
1.29979e-05
1.32064e-05
1.33793e-05
1.35244e-05
1.36513e-05
1.37681e-05
1.38792e-05
1.39865e-05
1.40915e-05
1.41945e-05
1.42951e-05
1.43908e-05
1.44835e-05
1.4559e-05
1.46439e-05
1.46952e-05
1.476e-05
1.47841e-05
1.48215e-05
1.48611e-05
1.49354e-05
1.51014e-05
1.53803e-05
1.57285e-05
1.62684e-05
1.66386e-05
1.71096e-05
1.74377e-05
1.84372e-05
2.49642e-05
3.82872e-05
6.22552e-05
8.60877e-05
0.000117034
0.000125492
0.000120196
0.000118909
0.000114396
7.63237e-05
7.78466e-05
0.000120898
7.78675e-05
7.46621e-05
7.77746e-05
7.8354e-05
7.94748e-05
8.05838e-05
8.14548e-05
8.22158e-05
8.15589e-05
8.02988e-05
7.79618e-05
7.54439e-05
7.25566e-05
7.04679e-05
6.90927e-05
6.84871e-05
6.81108e-05
6.84802e-05
6.89003e-05
6.90645e-05
6.85237e-05
6.7144e-05
6.47487e-05
6.08707e-05
5.56669e-05
5.03139e-05
4.61458e-05
4.26021e-05
3.80587e-05
3.52804e-05
3.73234e-05
4.25092e-05
4.55168e-05
4.47216e-05
2.66605e-05
1.97545e-05
2.02858e-05
1.93361e-05
1.96946e-05
1.8998e-05
1.76255e-05
1.61617e-05
1.45666e-05
1.32929e-05
1.24008e-05
1.19899e-05
1.14363e-05
1.11816e-05
1.10919e-05
1.11755e-05
1.12895e-05
1.15631e-05
1.18592e-05
1.22099e-05
1.25358e-05
1.28326e-05
1.3079e-05
1.32806e-05
1.3441e-05
1.3573e-05
1.36854e-05
1.37852e-05
1.38755e-05
1.39643e-05
1.40522e-05
1.41386e-05
1.42248e-05
1.42974e-05
1.43599e-05
1.44064e-05
1.44581e-05
1.4475e-05
1.45275e-05
1.45168e-05
1.46066e-05
1.46918e-05
1.49354e-05
1.53021e-05
1.56348e-05
1.613e-05
1.63369e-05
1.65462e-05
1.67049e-05
1.73627e-05
2.40488e-05
3.99051e-05
6.57228e-05
8.77875e-05
0.000120112
0.000128929
0.00012999
0.000132817
0.000130788
8.39512e-05
8.73846e-05
0.000110937
7.96741e-05
7.89111e-05
8.20026e-05
8.28128e-05
8.31029e-05
8.28684e-05
8.17159e-05
8.01746e-05
7.79147e-05
7.61343e-05
7.33815e-05
7.11826e-05
6.90581e-05
6.75606e-05
6.66378e-05
6.62008e-05
6.59785e-05
6.71554e-05
6.93481e-05
7.22939e-05
7.36331e-05
7.36703e-05
7.31907e-05
7.2274e-05
6.89296e-05
6.29497e-05
5.52409e-05
4.73839e-05
4.18018e-05
3.95076e-05
4.0986e-05
4.58486e-05
4.85417e-05
4.79648e-05
2.75734e-05
1.67185e-05
1.76298e-05
1.6492e-05
1.70638e-05
1.78925e-05
1.75066e-05
1.65307e-05
1.50895e-05
1.38827e-05
1.2795e-05
1.2135e-05
1.13026e-05
1.11111e-05
1.08877e-05
1.09183e-05
1.10453e-05
1.14573e-05
1.18683e-05
1.23154e-05
1.2699e-05
1.30318e-05
1.3306e-05
1.35372e-05
1.3726e-05
1.38865e-05
1.40275e-05
1.41542e-05
1.42692e-05
1.43754e-05
1.44781e-05
1.45765e-05
1.46733e-05
1.47524e-05
1.48245e-05
1.48715e-05
1.49421e-05
1.49493e-05
1.5012e-05
1.49997e-05
1.51032e-05
1.51884e-05
1.54322e-05
1.57725e-05
1.61185e-05
1.6561e-05
1.6797e-05
1.69633e-05
1.69341e-05
1.70211e-05
2.17227e-05
3.46746e-05
5.39958e-05
7.84025e-05
0.000113243
0.000120597
0.000124819
0.000138339
0.000153197
9.03557e-05
9.50803e-05
0.000107239
8.22224e-05
8.16227e-05
8.33277e-05
8.27508e-05
8.22446e-05
8.15053e-05
8.01776e-05
7.8233e-05
7.58093e-05
7.37074e-05
7.09483e-05
6.84693e-05
6.66509e-05
6.54078e-05
6.47037e-05
6.42772e-05
6.38994e-05
6.40947e-05
6.44817e-05
6.58901e-05
6.8616e-05
7.13094e-05
7.30113e-05
7.32167e-05
7.21765e-05
6.76983e-05
6.21966e-05
5.72771e-05
5.48359e-05
5.42011e-05
5.51404e-05
5.675e-05
5.69889e-05
5.55002e-05
3.17061e-05
1.51232e-05
1.56378e-05
1.39383e-05
1.40183e-05
1.45006e-05
1.43962e-05
1.45943e-05
1.39417e-05
1.32312e-05
1.2342e-05
1.15796e-05
1.06268e-05
1.00727e-05
9.48306e-06
9.25795e-06
9.32487e-06
9.7626e-06
1.0225e-05
1.06969e-05
1.1079e-05
1.13921e-05
1.16549e-05
1.1875e-05
1.205e-05
1.21928e-05
1.23131e-05
1.2418e-05
1.25113e-05
1.25945e-05
1.26719e-05
1.27428e-05
1.28113e-05
1.28585e-05
1.29008e-05
1.29071e-05
1.29601e-05
1.29339e-05
1.30002e-05
1.29799e-05
1.30835e-05
1.31344e-05
1.33031e-05
1.35234e-05
1.37276e-05
1.40178e-05
1.40826e-05
1.42174e-05
1.39338e-05
1.41606e-05
1.7129e-05
2.62575e-05
4.0391e-05
6.1041e-05
9.38684e-05
9.89143e-05
0.000102487
0.000113348
0.000134292
8.40895e-05
8.87424e-05
0.000105131
7.60129e-05
7.4423e-05
7.51153e-05
7.39639e-05
7.21758e-05
7.01723e-05
6.74862e-05
6.41133e-05
6.01084e-05
5.64268e-05
5.32607e-05
5.1429e-05
5.06372e-05
5.02933e-05
5.02833e-05
5.06883e-05
5.12436e-05
5.14795e-05
5.0901e-05
4.9567e-05
5.06019e-05
5.29503e-05
5.67064e-05
5.94819e-05
6.02703e-05
6.02776e-05
5.8832e-05
5.80446e-05
5.70727e-05
5.69657e-05
5.62175e-05
5.54591e-05
5.44503e-05
5.23329e-05
3.06681e-05
1.42586e-05
1.4444e-05
1.23678e-05
1.22822e-05
1.27702e-05
1.28435e-05
1.31462e-05
1.27547e-05
1.24924e-05
1.15692e-05
1.07969e-05
9.77314e-06
9.0144e-06
8.23643e-06
7.84372e-06
7.80823e-06
8.1363e-06
8.55092e-06
8.97947e-06
9.31971e-06
9.59884e-06
9.82935e-06
1.00283e-05
1.01868e-05
1.03161e-05
1.04225e-05
1.05152e-05
1.05982e-05
1.06738e-05
1.07441e-05
1.08088e-05
1.08685e-05
1.09148e-05
1.09582e-05
1.09805e-05
1.10341e-05
1.10437e-05
1.11067e-05
1.11309e-05
1.12242e-05
1.12916e-05
1.14113e-05
1.15733e-05
1.16937e-05
1.19498e-05
1.19815e-05
1.22317e-05
1.192e-05
1.23298e-05
1.49389e-05
2.3653e-05
3.74113e-05
5.49217e-05
7.91464e-05
8.46175e-05
9.53997e-05
0.000106923
0.000118981
7.96149e-05
8.30015e-05
0.000109172
7.14788e-05
6.77955e-05
6.69502e-05
6.36077e-05
6.08493e-05
5.74313e-05
5.35108e-05
5.06468e-05
4.72074e-05
4.5216e-05
4.43148e-05
4.40378e-05
4.51015e-05
4.61873e-05
4.69253e-05
4.72705e-05
4.76974e-05
4.81328e-05
4.80194e-05
4.54223e-05
4.13227e-05
3.84028e-05
4.01585e-05
4.44403e-05
4.9052e-05
5.09666e-05
5.18233e-05
5.1792e-05
5.15706e-05
5.15754e-05
5.15953e-05
5.17191e-05
5.10603e-05
4.80329e-05
2.86782e-05
1.37201e-05
1.32644e-05
9.94737e-06
9.79139e-06
1.05744e-05
1.07887e-05
1.13777e-05
1.15444e-05
1.15571e-05
1.07327e-05
9.82441e-06
8.74495e-06
7.88158e-06
7.07043e-06
6.61479e-06
6.50064e-06
6.73427e-06
7.06429e-06
7.42653e-06
7.72497e-06
7.97815e-06
8.18258e-06
8.35864e-06
8.50217e-06
8.62156e-06
8.72214e-06
8.81177e-06
8.89485e-06
8.97353e-06
9.04688e-06
9.11433e-06
9.17454e-06
9.22327e-06
9.26368e-06
9.29689e-06
9.34689e-06
9.38358e-06
9.44774e-06
9.50262e-06
9.58133e-06
9.66309e-06
9.73351e-06
9.8763e-06
9.97318e-06
1.01981e-05
1.02325e-05
1.05502e-05
1.0313e-05
1.09939e-05
1.38108e-05
2.26863e-05
3.45765e-05
4.78025e-05
6.45676e-05
7.15129e-05
8.34818e-05
0.000102171
0.000108673
7.46236e-05
7.58355e-05
0.000118341
6.8463e-05
6.16962e-05
5.77659e-05
5.21865e-05
4.81204e-05
4.60627e-05
4.28952e-05
4.1518e-05
3.9845e-05
3.87636e-05
3.89303e-05
4.17794e-05
4.55009e-05
4.85077e-05
5.00577e-05
5.00854e-05
4.85327e-05
4.72749e-05
4.76226e-05
4.71538e-05
4.5124e-05
4.11951e-05
3.58761e-05
3.10125e-05
3.40614e-05
3.80223e-05
4.095e-05
4.2301e-05
4.30626e-05
4.39047e-05
4.46031e-05
4.48977e-05
4.47084e-05
4.22391e-05
2.68102e-05
1.44062e-05
1.40604e-05
9.28109e-06
8.84231e-06
8.75274e-06
8.90935e-06
9.64232e-06
9.97578e-06
1.02302e-05
9.76033e-06
8.84156e-06
7.58692e-06
6.71045e-06
6.0018e-06
5.73448e-06
5.66747e-06
5.83777e-06
6.04366e-06
6.29475e-06
6.51694e-06
6.72054e-06
6.89494e-06
7.05276e-06
7.19073e-06
7.31264e-06
7.42184e-06
7.52286e-06
7.61675e-06
7.70769e-06
7.79615e-06
7.87812e-06
7.95336e-06
8.02567e-06
8.0889e-06
8.14639e-06
8.21472e-06
8.2689e-06
8.34185e-06
8.40444e-06
8.47234e-06
8.52742e-06
8.56255e-06
8.66537e-06
8.72873e-06
8.94354e-06
9.04679e-06
9.29523e-06
9.1824e-06
9.97047e-06
1.33364e-05
2.20657e-05
3.17573e-05
4.24786e-05
5.48253e-05
6.61294e-05
7.80179e-05
9.03227e-05
9.85208e-05
7.56915e-05
7.53679e-05
0.000129599
6.70877e-05
5.59861e-05
5.00406e-05
4.73525e-05
4.13929e-05
3.95447e-05
3.85754e-05
3.88401e-05
4.03063e-05
4.35e-05
4.76623e-05
5.15673e-05
5.43803e-05
5.61662e-05
5.67662e-05
5.64098e-05
5.41015e-05
4.90426e-05
4.73322e-05
4.65008e-05
4.4489e-05
4.12294e-05
3.78003e-05
3.45047e-05
3.01925e-05
2.71684e-05
2.98574e-05
3.26952e-05
3.36575e-05
3.42871e-05
3.49704e-05
3.53438e-05
3.52196e-05
3.32256e-05
2.25688e-05
1.88406e-05
1.78555e-05
1.27916e-05
9.02565e-06
8.23661e-06
8.1211e-06
8.59264e-06
8.85357e-06
8.93203e-06
8.52524e-06
7.87283e-06
6.87369e-06
6.09962e-06
5.42736e-06
5.23072e-06
5.16842e-06
5.33859e-06
5.48126e-06
5.63144e-06
5.75109e-06
5.86992e-06
5.97862e-06
6.0856e-06
6.18549e-06
6.27904e-06
6.36714e-06
6.45526e-06
6.55285e-06
6.65109e-06
6.74742e-06
6.83934e-06
6.92549e-06
7.00222e-06
7.06832e-06
7.13358e-06
7.20221e-06
7.26923e-06
7.34081e-06
7.42216e-06
7.48352e-06
7.55545e-06
7.58706e-06
7.69481e-06
7.73907e-06
7.91604e-06
7.9844e-06
8.16028e-06
8.16105e-06
9.09487e-06
1.25103e-05
2.04811e-05
2.84943e-05
3.71694e-05
4.75637e-05
5.95642e-05
6.98066e-05
8.36063e-05
9.07187e-05
9.12046e-05
8.55047e-05
0.000146888
6.91275e-05
5.52608e-05
4.83308e-05
4.88077e-05
4.53311e-05
4.42547e-05
4.54975e-05
4.77232e-05
5.17618e-05
5.55168e-05
5.82253e-05
6.03257e-05
6.13115e-05
6.11454e-05
6.03244e-05
5.87414e-05
5.62818e-05
5.12872e-05
4.79171e-05
4.62653e-05
4.34246e-05
3.9957e-05
3.67865e-05
3.3978e-05
3.13442e-05
2.78685e-05
2.41837e-05
2.37778e-05
2.5039e-05
2.62462e-05
2.63329e-05
2.59004e-05
2.48428e-05
2.28819e-05
1.65937e-05
2.13931e-05
1.82552e-05
1.6538e-05
1.31377e-05
9.74081e-06
7.62298e-06
7.01802e-06
7.76205e-06
7.91901e-06
7.60958e-06
7.32467e-06
6.43486e-06
5.72928e-06
5.15089e-06
4.93943e-06
4.86825e-06
5.01037e-06
5.12328e-06
5.2437e-06
5.32678e-06
5.39817e-06
5.45393e-06
5.50604e-06
5.55357e-06
5.60198e-06
5.65993e-06
5.72767e-06
5.79356e-06
5.86508e-06
5.94206e-06
6.01988e-06
6.09483e-06
6.1614e-06
6.21711e-06
6.27503e-06
6.33645e-06
6.41177e-06
6.48113e-06
6.57384e-06
6.63199e-06
6.72267e-06
6.75906e-06
6.86745e-06
6.91465e-06
7.06148e-06
7.10781e-06
7.2344e-06
7.2976e-06
8.13487e-06
1.13112e-05
1.81e-05
2.41604e-05
3.16194e-05
4.16175e-05
5.23736e-05
5.9446e-05
7.84288e-05
8.90745e-05
9.75915e-05
9.7462e-05
0.000148987
7.24828e-05
6.47546e-05
6.02347e-05
6.20918e-05
6.26378e-05
6.17276e-05
6.20421e-05
6.29375e-05
6.37613e-05
6.46565e-05
6.50482e-05
6.50572e-05
6.45632e-05
6.34524e-05
6.11823e-05
5.85218e-05
5.55358e-05
5.03399e-05
4.62642e-05
4.40763e-05
4.09054e-05
3.75364e-05
3.45351e-05
3.20403e-05
2.99468e-05
2.78322e-05
2.52652e-05
2.2208e-05
1.98836e-05
1.93064e-05
1.92652e-05
1.90062e-05
1.79222e-05
1.61993e-05
1.23054e-05
2.6427e-05
2.16062e-05
2.13252e-05
1.52411e-05
1.58501e-05
1.0352e-05
6.98069e-06
6.42104e-06
6.82828e-06
6.53276e-06
6.31242e-06
5.47913e-06
4.94855e-06
4.57734e-06
4.39794e-06
4.34567e-06
4.43914e-06
4.51351e-06
4.59723e-06
4.65874e-06
4.71764e-06
4.76815e-06
4.81836e-06
4.86806e-06
4.92124e-06
4.98189e-06
5.04775e-06
5.1143e-06
5.18609e-06
5.26171e-06
5.33797e-06
5.41183e-06
5.47981e-06
5.5404e-06
5.60881e-06
5.67711e-06
5.76005e-06
5.82905e-06
5.92581e-06
5.98174e-06
6.07373e-06
6.1095e-06
6.21185e-06
6.25077e-06
6.36122e-06
6.37395e-06
6.44559e-06
6.50956e-06
7.18087e-06
9.54287e-06
1.46693e-05
1.96076e-05
2.71464e-05
3.61047e-05
4.61507e-05
5.29356e-05
7.2229e-05
8.51422e-05
0.000102975
0.000107462
0.000156315
8.65276e-05
7.79091e-05
6.96967e-05
6.8659e-05
6.9109e-05
6.89616e-05
6.87153e-05
6.85842e-05
6.8226e-05
6.7849e-05
6.71198e-05
6.6236e-05
6.47237e-05
6.30281e-05
6.03744e-05
5.71872e-05
5.33798e-05
4.75853e-05
4.31335e-05
3.97309e-05
3.53151e-05
3.14158e-05
2.99072e-05
2.81149e-05
2.67902e-05
2.53833e-05
2.37186e-05
2.18735e-05
1.97153e-05
1.7499e-05
1.5877e-05
1.493e-05
1.41049e-05
1.30129e-05
1.05028e-05
2.70973e-05
2.60722e-05
2.5125e-05
2.28665e-05
2.0888e-05
1.80812e-05
1.00992e-05
5.1908e-06
4.87508e-06
4.74136e-06
4.57878e-06
4.18571e-06
3.91565e-06
3.70992e-06
3.61593e-06
3.58789e-06
3.63463e-06
3.67333e-06
3.71966e-06
3.75329e-06
3.78737e-06
3.81901e-06
3.8519e-06
3.88586e-06
3.9227e-06
3.96361e-06
4.0068e-06
4.05142e-06
4.09963e-06
4.14992e-06
4.20061e-06
4.25004e-06
4.29676e-06
4.3413e-06
4.39328e-06
4.44604e-06
4.51e-06
4.5609e-06
4.64679e-06
4.69939e-06
4.79466e-06
4.83308e-06
4.91611e-06
4.93068e-06
4.984e-06
4.9466e-06
4.98924e-06
5.09432e-06
5.76248e-06
7.48083e-06
1.05141e-05
1.38127e-05
1.8923e-05
2.46834e-05
3.3046e-05
3.51886e-05
4.65615e-05
5.79435e-05
8.46043e-05
0.000102348
0.000165147
0.00012168
0.000107412
9.27065e-05
8.37077e-05
7.87044e-05
7.53539e-05
7.27255e-05
7.05043e-05
6.84855e-05
6.67315e-05
6.49184e-05
6.3192e-05
6.09767e-05
5.87161e-05
5.55377e-05
5.207e-05
4.80736e-05
4.21299e-05
3.71754e-05
3.24437e-05
2.82938e-05
2.53074e-05
2.37118e-05
2.26068e-05
2.13693e-05
2.00808e-05
1.87446e-05
1.73158e-05
1.60095e-05
1.48797e-05
1.38348e-05
1.28138e-05
1.18831e-05
1.10958e-05
9.82918e-06
1.79737e-05
1.50746e-05
1.15525e-05
1.01461e-05
9.05123e-06
8.89816e-06
8.62713e-06
8.72312e-06
9.41383e-06
1.06119e-05
1.11951e-05
1.18993e-05
1.2177e-05
1.23072e-05
1.21399e-05
1.19466e-05
1.16065e-05
1.13762e-05
1.11442e-05
1.10187e-05
1.09442e-05
1.09286e-05
1.0946e-05
1.09938e-05
1.10655e-05
1.11538e-05
1.12507e-05
1.13495e-05
1.1446e-05
1.15338e-05
1.16191e-05
1.16788e-05
1.17458e-05
1.17709e-05
1.18557e-05
1.18673e-05
1.19936e-05
1.20141e-05
1.21992e-05
1.22656e-05
1.24529e-05
1.25404e-05
1.25344e-05
1.25442e-05
1.21669e-05
1.20859e-05
1.1608e-05
1.17166e-05
1.20254e-05
1.086e-05
1.11414e-05
1.41724e-05
2.0888e-05
2.84187e-05
3.71754e-05
4.45919e-05
5.62331e-05
7.09824e-05
8.58655e-05
0.000100877
0.00013383
0.000110703
0.000101342
9.23441e-05
8.52952e-05
8.03666e-05
7.64168e-05
7.26954e-05
6.90605e-05
6.56133e-05
6.24191e-05
5.95746e-05
5.70636e-05
5.49756e-05
5.32736e-05
5.21177e-05
5.16292e-05
5.14702e-05
5.14254e-05
5.15686e-05
5.16419e-05
5.14862e-05
5.12199e-05
5.07477e-05
4.98257e-05
4.88504e-05
4.75601e-05
4.59913e-05
4.35252e-05
4.06889e-05
3.44998e-05
2.47358e-05
1.98453e-05
2.22799e-05
2.57553e-05
2.23633e-05
6.52705e-05
5.53942e-05
3.87828e-05
3.62726e-05
3.52418e-05
3.62508e-05
3.64352e-05
3.70403e-05
3.85504e-05
4.04069e-05
4.07137e-05
4.01943e-05
3.95544e-05
3.90565e-05
3.86566e-05
3.85578e-05
3.85947e-05
3.87286e-05
3.89047e-05
3.90529e-05
3.93134e-05
3.96356e-05
3.99486e-05
4.02415e-05
4.05117e-05
4.07578e-05
4.09906e-05
4.12112e-05
4.14196e-05
4.16096e-05
4.17921e-05
4.1919e-05
4.20292e-05
4.20691e-05
4.21469e-05
4.21282e-05
4.21969e-05
4.21432e-05
4.22347e-05
4.22577e-05
4.24575e-05
4.27864e-05
4.32102e-05
4.39799e-05
4.44818e-05
4.566e-05
4.64361e-05
4.90643e-05
5.01257e-05
4.43118e-05
4.16574e-05
3.88904e-05
5.62163e-05
8.27648e-05
0.000130489
0.000169066
0.000289805
0.000383138
0.000693203
0.000679609
2.62419e-05
4.10938e-05
0.000106186
0.000109876
0.000109542
0.00010549
0.000100306
9.78472e-05
9.68247e-05
9.62492e-05
9.5913e-05
9.77014e-05
0.000100162
0.000104538
0.000112476
0.000122683
0.000132178
0.000135616
0.000136964
0.000137842
0.000135845
0.000132707
0.000129242
0.000125174
0.000119882
0.000113776
0.000102799
9.14197e-05
7.60146e-05
6.1187e-05
5.06013e-05
3.39627e-05
3.08326e-05
3.44494e-05
3.40152e-05
2.51512e-05
6.84415e-05
5.74412e-05
4.98596e-05
4.6761e-05
4.54966e-05
4.57586e-05
4.54967e-05
4.62204e-05
4.65309e-05
4.65521e-05
4.50108e-05
4.29483e-05
4.11856e-05
3.99607e-05
3.93902e-05
3.92976e-05
3.97008e-05
4.03251e-05
4.10818e-05
4.1718e-05
4.24678e-05
4.31376e-05
4.36579e-05
4.40339e-05
4.4305e-05
4.44991e-05
4.46523e-05
4.47756e-05
4.48777e-05
4.49644e-05
4.50436e-05
4.50886e-05
4.5116e-05
4.5086e-05
4.50437e-05
4.49569e-05
4.48532e-05
4.47478e-05
4.46551e-05
4.46452e-05
4.48708e-05
4.52518e-05
4.60771e-05
4.68779e-05
4.82133e-05
4.88611e-05
5.02705e-05
5.18664e-05
5.53981e-05
6.02677e-05
6.55463e-05
7.20574e-05
8.98269e-05
0.000123092
0.000168296
0.000196372
0.000291032
0.000357667
0.000493608
0.000375668
2.30727e-05
0.000108223
0.000187183
0.000153462
0.000133273
0.000132919
0.000131738
0.000130963
0.000131415
0.000138236
0.000145324
0.000151334
0.000157564
0.000163626
0.000169802
0.000172809
0.000174035
0.000170783
0.000165632
0.000161226
0.000156519
0.000151787
0.000146965
0.000142217
0.00013735
0.000132124
0.000124873
0.000116994
0.000107885
9.26937e-05
7.56841e-05
5.87527e-05
5.76744e-05
5.82637e-05
5.17346e-05
2.89384e-05
7.84017e-05
6.60631e-05
5.96742e-05
5.36026e-05
5.13453e-05
5.11955e-05
4.9992e-05
5.00527e-05
4.93057e-05
4.7724e-05
4.49856e-05
4.12445e-05
3.85371e-05
3.70099e-05
3.64343e-05
3.64886e-05
3.72937e-05
3.83424e-05
3.94979e-05
4.04708e-05
4.15134e-05
4.23865e-05
4.30329e-05
4.34722e-05
4.37608e-05
4.3936e-05
4.4055e-05
4.41343e-05
4.41894e-05
4.42313e-05
4.42575e-05
4.42649e-05
4.42367e-05
4.41705e-05
4.40453e-05
4.3944e-05
4.37206e-05
4.36488e-05
4.34193e-05
4.34617e-05
4.35584e-05
4.39342e-05
4.47968e-05
4.56022e-05
4.69223e-05
4.74847e-05
4.85359e-05
4.98821e-05
5.68061e-05
6.86724e-05
8.89567e-05
9.69993e-05
0.000125074
0.000176326
0.00021878
0.000242485
0.000272343
0.000291484
0.000223303
0.000109151
2.17092e-05
0.000120625
0.000171212
0.000142987
0.000155056
0.000163539
0.000158887
0.000155911
0.000154753
0.000164866
0.000181622
0.000191072
0.000195677
0.000196778
0.000189661
0.000180951
0.000170327
0.000159728
0.000150347
0.000140212
0.000132528
0.000128531
0.000125885
0.000124093
0.000122655
0.000121072
0.00011769
0.00011354
0.000106155
9.11206e-05
7.44551e-05
6.28388e-05
6.56181e-05
6.55302e-05
5.74137e-05
3.03225e-05
8.55827e-05
6.99902e-05
6.74125e-05
5.94688e-05
5.74206e-05
5.69358e-05
5.40768e-05
5.27658e-05
5.22624e-05
4.80761e-05
4.38325e-05
3.92352e-05
3.66647e-05
3.48927e-05
3.4286e-05
3.42581e-05
3.46851e-05
3.5353e-05
3.6139e-05
3.71875e-05
3.81929e-05
3.89274e-05
3.94569e-05
3.98146e-05
4.00577e-05
4.02374e-05
4.03529e-05
4.04238e-05
4.0471e-05
4.05061e-05
4.05304e-05
4.0548e-05
4.05154e-05
4.04499e-05
4.03408e-05
4.0225e-05
4.006e-05
3.99118e-05
3.9751e-05
3.97249e-05
3.98462e-05
4.03653e-05
4.12374e-05
4.20312e-05
4.30594e-05
4.3455e-05
4.48519e-05
4.6547e-05
4.95436e-05
6.87066e-05
9.59952e-05
0.000133201
0.000164052
0.000221337
0.000236227
0.000243777
0.000220378
0.000217915
7.74569e-05
5.74049e-05
1.83612e-05
0.000127647
0.000172478
0.000161311
0.000165237
0.000165994
0.00017469
0.000179957
0.000186704
0.000190009
0.000192159
0.000185571
0.000175652
0.000163513
0.000153483
0.000146528
0.000140699
0.000135826
0.000131025
0.000125003
0.000120071
0.00011465
0.0001096
0.000104867
0.000100551
9.8537e-05
9.87789e-05
9.8985e-05
9.29108e-05
8.05414e-05
6.74593e-05
6.47345e-05
6.78072e-05
6.79488e-05
5.96414e-05
3.0987e-05
9.34818e-05
6.90986e-05
6.56846e-05
6.00097e-05
5.89629e-05
6.0252e-05
5.89228e-05
5.62312e-05
5.31981e-05
4.78417e-05
4.28139e-05
3.81363e-05
3.58934e-05
3.32046e-05
3.16347e-05
3.10752e-05
3.18703e-05
3.31029e-05
3.46064e-05
3.5838e-05
3.67924e-05
3.7379e-05
3.77961e-05
3.80826e-05
3.82771e-05
3.84179e-05
3.85215e-05
3.85965e-05
3.86573e-05
3.87143e-05
3.87633e-05
3.87853e-05
3.87849e-05
3.87322e-05
3.8692e-05
3.8578e-05
3.84908e-05
3.83083e-05
3.82193e-05
3.81379e-05
3.82465e-05
3.85529e-05
3.91297e-05
3.97336e-05
4.06789e-05
4.10805e-05
4.04566e-05
3.82825e-05
3.77137e-05
5.65969e-05
9.37068e-05
0.000155179
0.000188832
0.000245555
0.000223118
0.000186611
0.000172223
0.00016535
2.77231e-05
3.08691e-05
2.18155e-05
0.00014029
0.000180809
0.000180578
0.000183633
0.000182047
0.000182765
0.000181641
0.000176253
0.000165279
0.00015386
0.000140857
0.000133447
0.000127561
0.000123764
0.000121858
0.000120037
0.000117945
0.000118891
0.000119218
0.000118218
0.000111832
0.000105933
9.73519e-05
9.07821e-05
8.66992e-05
8.28243e-05
8.7622e-05
8.90071e-05
8.02873e-05
7.04141e-05
6.88111e-05
7.17347e-05
7.07037e-05
5.92541e-05
3.08258e-05
7.77377e-05
6.81382e-05
6.33919e-05
5.73762e-05
5.60122e-05
5.82016e-05
5.89122e-05
5.66608e-05
5.22036e-05
4.66813e-05
4.17646e-05
3.68943e-05
3.22126e-05
2.86583e-05
2.68258e-05
2.62111e-05
2.66835e-05
2.74951e-05
2.85685e-05
2.96781e-05
3.07452e-05
3.16007e-05
3.22738e-05
3.27252e-05
3.30159e-05
3.31924e-05
3.32887e-05
3.33379e-05
3.33607e-05
3.33649e-05
3.33482e-05
3.33218e-05
3.32103e-05
3.30358e-05
3.27444e-05
3.25762e-05
3.21794e-05
3.21207e-05
3.17452e-05
3.18907e-05
3.1909e-05
3.24672e-05
3.31317e-05
3.36481e-05
3.38895e-05
3.36892e-05
3.27231e-05
3.24567e-05
3.16803e-05
4.54234e-05
7.95986e-05
0.000139019
0.000183749
0.000228024
0.000196691
0.000196105
0.000200237
0.00017159
1.69545e-05
2.29624e-05
2.69827e-05
0.00015304
0.000177973
0.000169674
0.000167677
0.000158639
0.000152784
0.00014216
0.000132686
0.000124478
0.000119596
0.000113974
0.000110929
0.000109358
0.000107015
0.000108132
0.000109257
0.000110833
0.000110675
0.000111834
0.000114386
0.000116881
0.000117167
0.000113089
0.000107745
0.000106555
0.000100649
9.30152e-05
9.14236e-05
8.8737e-05
8.09627e-05
7.89622e-05
7.91135e-05
7.54942e-05
6.0318e-05
3.18672e-05
5.01999e-05
5.91503e-05
4.48953e-05
4.3057e-05
4.61737e-05
5.14574e-05
5.68587e-05
5.57518e-05
5.06156e-05
4.51378e-05
3.97915e-05
3.33285e-05
2.88545e-05
2.4462e-05
2.18229e-05
2.08817e-05
2.18223e-05
2.3043e-05
2.43707e-05
2.54385e-05
2.63275e-05
2.69233e-05
2.73905e-05
2.76781e-05
2.78488e-05
2.7944e-05
2.79872e-05
2.79803e-05
2.79059e-05
2.78038e-05
2.76765e-05
2.75297e-05
2.73289e-05
2.71001e-05
2.68084e-05
2.66233e-05
2.62332e-05
2.60496e-05
2.56731e-05
2.5623e-05
2.54405e-05
2.56033e-05
2.5702e-05
2.60936e-05
2.61729e-05
2.63553e-05
2.56017e-05
2.45277e-05
2.47415e-05
3.58383e-05
6.01361e-05
9.47566e-05
0.000167838
0.000202617
0.000188222
0.000196458
0.00025075
0.000236387
1.91602e-05
2.44335e-05
2.72083e-05
0.000143759
0.000157886
0.000150314
0.000145841
0.000136631
0.000132441
0.000124689
0.000120353
0.000114992
0.00010973
0.00010337
9.86801e-05
9.62721e-05
9.50388e-05
9.75339e-05
0.00010249
0.00010897
0.000112161
0.000112795
0.000112642
0.000112523
0.000114941
0.000118646
0.000120133
0.000121619
0.000122545
0.000124158
0.000124118
0.000121197
0.000115702
0.00011048
0.000103319
8.97559e-05
8.81225e-05
8.06971e-05
4.14908e-05
5.65257e-05
3.678e-05
3.2105e-05
3.34715e-05
3.59836e-05
4.33427e-05
4.71706e-05
4.66359e-05
4.27778e-05
3.70925e-05
2.99737e-05
2.39735e-05
1.92244e-05
1.68941e-05
1.61448e-05
1.64454e-05
1.69754e-05
1.76388e-05
1.81128e-05
1.83659e-05
1.89311e-05
1.93945e-05
1.96615e-05
1.98028e-05
1.98656e-05
1.98963e-05
1.99068e-05
1.99192e-05
1.99357e-05
1.99328e-05
1.99253e-05
1.98392e-05
1.96885e-05
1.9438e-05
1.93105e-05
1.90168e-05
1.90355e-05
1.88042e-05
1.89368e-05
1.88027e-05
1.89688e-05
1.89225e-05
1.90757e-05
1.89536e-05
1.90534e-05
1.92647e-05
1.91546e-05
2.13522e-05
3.11206e-05
5.2056e-05
8.1317e-05
0.000124737
0.000182721
0.000193085
0.000228573
0.000308181
0.000276952
1.93709e-05
2.35712e-05
2.59546e-05
0.000132206
0.000152028
0.000141115
0.000138734
0.000131726
0.000128424
0.000122351
0.000115914
0.000109297
9.97931e-05
9.06149e-05
8.10402e-05
7.63679e-05
7.38945e-05
7.31406e-05
7.36234e-05
7.4336e-05
7.55844e-05
8.23191e-05
9.31808e-05
0.000100929
0.000106032
0.0001109
0.000109459
0.000108619
0.000108062
0.000107223
0.000106875
0.000105876
0.000103395
9.86162e-05
9.24716e-05
8.07419e-05
6.1218e-05
3.91932e-05
3.95782e-05
5.15975e-05
3.37156e-05
2.86506e-05
2.94508e-05
2.92557e-05
3.45046e-05
3.75933e-05
3.89788e-05
3.65104e-05
3.28251e-05
2.71262e-05
2.16806e-05
1.69221e-05
1.48382e-05
1.4305e-05
1.45545e-05
1.48801e-05
1.52467e-05
1.55636e-05
1.58854e-05
1.63048e-05
1.67099e-05
1.69515e-05
1.70845e-05
1.70673e-05
1.70607e-05
1.70594e-05
1.70488e-05
1.70663e-05
1.70676e-05
1.70494e-05
1.69872e-05
1.68818e-05
1.67627e-05
1.66971e-05
1.65802e-05
1.65723e-05
1.65372e-05
1.64863e-05
1.64268e-05
1.63407e-05
1.62558e-05
1.63445e-05
1.64889e-05
1.68481e-05
1.69369e-05
1.70681e-05
1.99036e-05
2.88197e-05