/*--------------------------------*- C++ -*----------------------------------*\
| =========                 |                                                 |
| \\      /  F ield         | OpenFOAM: The Open Source CFD Toolbox           |
|  \\    /   O peration     | Version:  2.3.0                                 |
|   \\  /    A nd           | Web:      www.OpenFOAM.org                      |
|    \\/     M anipulation  |                                                 |
\*---------------------------------------------------------------------------*/
FoamFile
{
    version     2.0;
    format      ascii;
    class       surfaceScalarField;
    location    "26";
    object      phi;
}
// * * * * * * * * * * * * * * * * * * * * * * * * * * * * * * * * * * * * * //

dimensions      [0 3 -1 0 0 0 0];

internalField   nonuniform List<scalar> 
16448
(
-8.92456e-07
-2.45965e-06
7.79708e-07
5.97457e-07
-2.44211e-06
9.52198e-07
7.34866e-07
-1.29622e-06
1.15881e-06
8.88683e-07
-1.22141e-06
1.06759e-06
7.21801e-07
-6.88146e-07
8.55026e-07
5.9816e-07
-6.44706e-07
7.68346e-07
3.21092e-07
-3.36873e-07
6.1394e-07
7.33195e-08
-2.95753e-07
5.43523e-07
-1.80397e-07
-2.49869e-07
5.03582e-07
-4.08417e-07
-2.395e-07
4.67516e-07
-5.70016e-07
-2.62389e-07
4.23983e-07
-6.03394e-07
-3.17641e-07
3.51014e-07
-5.38142e-07
-3.84252e-07
3.18996e-07
-4.0943e-07
-4.3244e-07
3.03723e-07
-2.87062e-07
-4.54744e-07
3.32371e-07
-1.73765e-07
-4.71926e-07
3.58624e-07
-9.97873e-08
-4.75785e-07
4.01801e-07
-4.31277e-08
-4.87826e-07
4.3116e-07
-8.15422e-09
-4.95406e-07
4.60427e-07
1.43675e-08
-4.98686e-07
4.76158e-07
2.55638e-08
-4.98223e-07
4.87021e-07
2.99862e-08
-4.94872e-07
4.90444e-07
2.92076e-08
-4.89317e-07
4.90091e-07
2.59995e-08
-4.82783e-07
4.85986e-07
2.17805e-08
-4.75219e-07
4.79434e-07
1.82179e-08
-4.6751e-07
4.71068e-07
1.63932e-08
-4.59868e-07
4.6169e-07
1.6471e-08
-4.52128e-07
4.52047e-07
1.85187e-08
-4.44438e-07
4.42388e-07
2.1716e-08
-4.36565e-07
4.33365e-07
2.69056e-08
-4.29524e-07
4.24333e-07
3.09945e-08
-4.21466e-07
4.17375e-07
3.76644e-08
-4.1662e-07
4.0995e-07
4.03867e-08
-4.07674e-07
4.04951e-07
4.88419e-08
-4.04992e-07
3.96537e-07
5.31919e-08
-3.95439e-07
3.91089e-07
6.61245e-08
-3.92867e-07
3.79936e-07
7.90292e-08
-3.83714e-07
3.7081e-07
1.04699e-07
-3.82011e-07
3.56343e-07
1.4137e-07
-3.78693e-07
3.42023e-07
1.92523e-07
-3.79107e-07
3.27957e-07
2.67547e-07
-3.93131e-07
3.1811e-07
3.36752e-07
-3.93324e-07
3.24122e-07
4.31077e-07
-4.36113e-07
3.41791e-07
4.67516e-07
-4.33906e-07
3.9747e-07
5.21098e-07
-5.02439e-07
4.4886e-07
5.07023e-07
-5.11113e-07
5.25192e-07
4.93009e-07
-5.32017e-07
5.46035e-07
5.35492e-07
-5.78602e-07
5.36123e-07
2.94539e-07
-3.24522e-07
5.6548e-07
1.97072e-07
-4.55798e-07
5.53269e-07
-3.4907e-07
-2.08874e-07
7.55021e-07
-1.84629e-06
2.81945e-08
1.46903e-06
-2.81802e-06
-1.27761e-06
2.24935e-06
-2.87715e-06
-4.2041e-06
4.26324e-06
-3.21296e-06
-4.63043e-06
4.96624e-06
-1.05966e-06
-2.72973e-06
5.76443e-07
-1.18805e-06
-9.72492e-07
1.10088e-06
-5.3521e-06
5.18368e-07
3.64571e-06
-4.48252e-07
-1.71105e-05
1.22067e-05
1.88373e-05
-2.28387e-05
3.55317e-06
2.62868e-05
-1.0826e-05
3.37652e-06
2.45861e-05
-5.15568e-07
2.21623e-06
2.56901e-05
-1.87917e-06
7.75192e-07
2.6754e-05
-1.01555e-06
-4.8371e-08
2.71502e-05
8.14977e-08
-4.77773e-07
2.67044e-05
9.84107e-07
-5.38294e-07
2.57993e-05
1.27147e-06
-3.66381e-07
2.46267e-05
1.30137e-06
-1.28798e-07
2.3357e-05
1.17085e-06
9.88651e-08
2.20933e-05
9.48781e-07
3.14904e-07
2.10053e-05
5.89744e-07
4.9824e-07
2.02401e-05
7.76571e-08
6.8753e-07
1.97756e-05
-4.02005e-07
8.66501e-07
1.96518e-05
-9.01414e-07
1.02521e-06
1.98643e-05
-1.34497e-06
1.13253e-06
2.03566e-05
-1.67804e-06
1.18573e-06
2.10551e-05
-1.90575e-06
1.2072e-06
2.18593e-05
-2.01258e-06
1.20839e-06
2.26919e-05
-2.04331e-06
1.21066e-06
2.34724e-05
-1.97916e-06
1.19868e-06
2.4125e-05
-1.84092e-06
1.18835e-06
2.46257e-05
-1.67175e-06
1.17106e-06
2.4778e-05
-1.25132e-06
1.09899e-06
2.45019e-05
-7.73001e-07
1.04908e-06
2.37419e-05
-2.02237e-07
9.62241e-07
2.18244e-05
9.03504e-07
1.01403e-06
1.89011e-05
1.88776e-06
1.03557e-06
1.36642e-05
3.68649e-06
1.55045e-06
6.13314e-06
4.51452e-06
3.0165e-06
-1.23187e-06
3.61603e-06
3.74899e-06
-6.67489e-06
2.43825e-06
3.00477e-06
-9.63152e-06
2.37893e-06
5.77703e-07
-9.1476e-06
2.54377e-06
-3.02769e-06
-5.6128e-06
2.31154e-06
-5.84633e-06
1.81373e-06
-7.42654e-06
-2.35572e-06
-3.75041e-06
1.55255e-07
-1.27017e-06
-3.69872e-06
1.71059e-07
-9.69192e-07
-2.29445e-06
6.97262e-07
-3.75513e-07
-2.12247e-06
3.07386e-07
1.55047e-08
-1.22238e-06
1.43222e-07
2.57271e-07
-9.81446e-07
9.49767e-08
2.67556e-07
-3.56283e-07
9.12539e-09
5.49549e-08
-1.54425e-07
7.12725e-08
-2.89143e-07
-1.89251e-08
1.13151e-07
-5.87412e-07
-5.04449e-08
1.0921e-07
-7.6246e-07
-1.46574e-07
5.9229e-08
-7.89619e-07
-2.8483e-07
-5.6566e-09
-7.21991e-07
-4.06694e-07
-4.51913e-08
-5.88045e-07
-5.00465e-07
-6.59268e-08
-4.44239e-07
-5.45537e-07
-5.30193e-08
-3.05752e-07
-5.7356e-07
-3.68615e-08
-2.0678e-07
-5.71313e-07
-3.4499e-09
-1.27136e-07
-5.79448e-07
1.19702e-08
-7.49585e-08
-5.76504e-07
2.89125e-08
-3.80449e-08
-5.73541e-07
3.7934e-08
-1.67893e-08
-5.64106e-07
4.46209e-08
-5.97417e-09
-5.52547e-07
4.6853e-08
-2.66679e-09
-5.38913e-07
4.62826e-08
-3.96699e-09
-5.2471e-07
4.32223e-08
-7.18801e-09
-5.10447e-07
3.84441e-08
-1.02722e-08
-4.96917e-07
3.24871e-08
-1.17436e-08
-4.84214e-07
2.58135e-08
-1.14195e-08
-4.71615e-07
1.91602e-08
-8.57997e-09
-4.59735e-07
1.24548e-08
-5.41437e-09
-4.4663e-07
6.89791e-09
1.42419e-09
-4.36639e-07
2.75586e-10
3.98059e-09
-4.20327e-07
-3.69582e-09
1.40969e-08
-4.13414e-07
-1.3323e-08
1.53715e-08
-3.93607e-07
-1.53406e-08
2.91868e-08
-3.92774e-07
-2.60322e-08
3.22683e-08
-3.70476e-07
-2.80426e-08
5.39598e-08
-3.73721e-07
-4.08347e-08
6.75015e-08
-3.50836e-07
-4.64162e-08
1.0576e-07
-3.61785e-07
-5.84809e-08
1.45587e-07
-3.47023e-07
-7.14926e-08
2.03273e-07
-3.67192e-07
-6.95959e-08
2.6522e-07
-3.73918e-07
-8.11553e-08
3.21924e-07
-3.95294e-07
-5.4728e-08
3.65933e-07
-4.35593e-07
-4.45222e-08
3.84319e-07
-4.62139e-07
9.85367e-09
4.08374e-07
-5.52013e-07
2.55286e-08
4.42952e-07
-6.03721e-07
5.80376e-08
5.67248e-07
-6.90648e-07
3.43443e-08
7.31693e-07
-7.61968e-07
1.89295e-08
8.03182e-07
-4.21959e-07
2.59564e-08
9.11544e-07
-5.68938e-07
4.78605e-09
4.16903e-08
3.73684e-07
2.87304e-07
-1.3689e-06
9.57052e-07
4.81741e-07
-1.15278e-06
-2.64308e-06
1.14936e-06
1.79605e-06
-8.54735e-06
1.39443e-06
3.72856e-06
-9.40195e-06
2.83901e-06
-2.68581e-06
3.03685e-06
6.47803e-07
-1.12133e-05
5.88981e-06
1.66522e-06
-9.93641e-06
2.60777e-06
-3.36621e-06
5.70186e-07
-3.27658e-05
5.1487e-06
8.16784e-06
-3.29329e-05
2.49653e-06
9.28469e-06
-1.34894e-05
1.54663e-06
1.43039e-05
-3.94127e-06
-1.59352e-06
1.77287e-05
-2.38574e-06
-2.91824e-06
1.9145e-05
6.32027e-07
-3.06386e-06
2.01908e-05
1.92488e-06
-2.88926e-06
2.06075e-05
2.90257e-06
-2.33515e-06
2.03311e-05
3.33387e-06
-1.78604e-06
1.96569e-05
3.16789e-06
-1.19225e-06
1.87426e-05
2.77952e-06
-6.94463e-07
1.76306e-05
2.33744e-06
-2.76694e-07
1.64e-05
1.7133e-06
1.07055e-07
1.51208e-05
9.65717e-07
3.9116e-07
1.39849e-05
1.20902e-07
6.1294e-07
1.32633e-05
-9.78729e-07
7.98988e-07
1.29965e-05
-1.95299e-06
8.74815e-07
1.32099e-05
-2.75854e-06
8.67097e-07
1.38089e-05
-3.30707e-06
8.02279e-07
1.46838e-05
-3.6367e-06
7.49235e-07
1.5663e-05
-3.7328e-06
7.10283e-07
1.66638e-05
-3.64864e-06
6.68626e-07
1.76115e-05
-3.42617e-06
6.37597e-07
1.84373e-05
-3.0308e-06
5.33258e-07
1.91162e-05
-2.35011e-06
4.199e-07
1.94501e-05
-1.44377e-06
3.36881e-07
1.94277e-05
-3.02073e-07
1.22182e-07
1.86746e-05
1.51652e-06
1.40084e-07
1.67824e-05
3.73815e-06
4.18506e-08
1.31752e-05
6.53546e-06
7.58207e-07
6.67243e-06
8.69374e-06
2.32354e-06
-8.12024e-07
7.91592e-06
3.18457e-06
-6.34979e-06
5.19797e-06
2.77805e-06
-9.2647e-06
4.54217e-06
7.51673e-07
-8.8621e-06
5.17668e-06
-3.03551e-06
-5.66795e-06
5.42784e-06
-6.31045e-06
4.78602e-06
-8.64023e-06
-3.30627e-06
-4.43871e-06
-3.0947e-08
-2.25288e-06
-4.51709e-06
-2.35011e-07
-2.08654e-06
-2.98276e-06
5.21973e-07
-1.44947e-06
-2.80945e-06
4.99124e-08
-9.11254e-07
-1.74898e-06
-1.16095e-08
-3.42459e-07
-1.38244e-06
-1.67793e-07
-1.17476e-07
-3.13573e-07
-2.67691e-07
-2.51826e-07
9.80245e-08
-1.181e-07
-5.12869e-07
3.37113e-07
-9.49976e-08
-7.05302e-07
2.3343e-07
-9.14468e-08
-8.0108e-07
9.20439e-08
-1.42846e-07
-8.12469e-07
-7.39488e-08
-1.99498e-07
-7.69263e-07
-2.11461e-07
-2.38445e-07
-6.80595e-07
-3.2821e-07
-2.60929e-07
-5.62732e-07
-3.94813e-07
-2.68594e-07
-4.37934e-07
-4.30533e-07
-2.67833e-07
-3.3054e-07
-4.22579e-07
-2.56137e-07
-2.38849e-07
-4.2247e-07
-2.48677e-07
-1.72298e-07
-4.04503e-07
-2.3856e-07
-1.21474e-07
-3.91511e-07
-2.32861e-07
-8.90462e-08
-3.7034e-07
-2.26201e-07
-6.94267e-08
-3.49287e-07
-2.22886e-07
-6.03496e-08
-3.26625e-07
-2.21372e-07
-5.81986e-08
-3.04787e-07
-2.2208e-07
-6.01258e-08
-2.84361e-07
-2.24164e-07
-6.32677e-08
-2.66281e-07
-2.27499e-07
-6.58576e-08
-2.50133e-07
-2.31494e-07
-6.68474e-08
-2.34924e-07
-2.35705e-07
-6.5735e-08
-2.20888e-07
-2.39961e-07
-6.21557e-08
-2.06329e-07
-2.43883e-07
-5.60188e-08
-1.94701e-07
-2.48075e-07
-4.92801e-08
-1.76332e-07
-2.50735e-07
-3.82108e-08
-1.68658e-07
-2.55824e-07
-3.17216e-08
-1.43636e-07
-2.56459e-07
-1.32537e-08
-1.46804e-07
-2.64436e-07
-6.93532e-09
-1.1444e-07
-2.62353e-07
2.19305e-08
-1.29841e-07
-2.72743e-07
3.53515e-08
-9.52075e-08
-2.69047e-07
7.25918e-08
-1.22888e-07
-2.76133e-07
9.11e-08
-9.4999e-08
-2.70528e-07
1.23012e-07
-1.31519e-07
-2.6758e-07
1.21625e-07
-1.1934e-07
-2.53185e-07
1.22335e-07
-1.55724e-07
-2.40273e-07
9.15944e-08
-1.84017e-07
-2.2083e-07
8.38009e-08
-2.3685e-07
-2.17488e-07
1.18658e-07
-3.48952e-07
-2.37911e-07
2.30999e-07
-4.62848e-07
-2.53205e-07
5.33326e-07
-6.31895e-07
-3.61071e-07
8.74205e-07
-7.31399e-07
-3.7144e-07
1.29156e-06
-4.69134e-07
-3.70176e-07
1.15662e-06
-2.04208e-07
-2.29781e-07
-6.05579e-07
2.05398e-06
8.1907e-08
1.35096e-06
-4.30621e-07
-5.6886e-07
6.8745e-06
-7.17349e-06
-9.93134e-07
8.07319e-06
-1.05642e-05
8.18191e-07
6.19603e-06
-9.12071e-06
1.59593e-06
6.73176e-06
3.36236e-06
-8.61239e-07
-1.20162e-06
1.29958e-05
8.27416e-07
-4.54034e-06
8.25409e-06
-2.30756e-06
-5.28714e-07
-3.63053e-05
-4.72095e-07
5.05857e-07
-3.65416e-05
2.5742e-06
1.33179e-06
-1.56507e-05
1.33534e-06
1.30642e-05
-1.37764e-05
-1.89727e-06
1.42089e-05
-5.27775e-07
-3.00267e-06
1.5191e-05
2.3715e-06
-2.72154e-06
1.60693e-05
2.86607e-06
-1.81956e-06
1.58289e-05
4.10648e-06
-9.63469e-07
1.46269e-05
4.66543e-06
-1.2961e-07
1.2929e-05
4.19619e-06
6.6954e-07
1.07444e-05
3.71873e-06
1.24541e-06
7.93349e-06
3.45745e-06
1.69091e-06
4.69354e-06
2.85371e-06
2.09953e-06
1.69714e-06
1.76505e-06
2.19706e-06
-2.82692e-07
2.44184e-07
1.85655e-06
-1.17345e-06
-1.27603e-06
1.18806e-06
-9.78445e-07
-2.74788e-06
5.99881e-07
9.01052e-08
-3.98614e-06
1.59049e-07
1.65848e-06
-4.74331e-06
-1.32139e-07
3.39561e-06
-5.13354e-06
-2.40299e-07
5.0763e-06
-5.15578e-06
-2.57697e-07
6.64641e-06
-4.96019e-06
-2.58566e-07
8.10733e-06
-4.623e-06
-2.64085e-07
9.45404e-06
-4.08517e-06
-2.92329e-07
1.07066e-05
-3.26706e-06
-3.3564e-07
1.18009e-05
-2.10999e-06
-4.27999e-07
1.25996e-05
-4.81622e-07
-6.19203e-07
1.29908e-05
1.89094e-06
-7.65621e-07
1.27191e-05
5.03178e-06
-1.02195e-06
1.04598e-05
9.12354e-06
-3.28707e-07
5.41402e-06
1.22323e-05
1.50725e-06
-3.96158e-07
1.11379e-05
2.58824e-06
-5.24205e-06
7.68559e-06
2.35828e-06
-8.12362e-06
6.81968e-06
6.04064e-07
-8.07988e-06
7.98494e-06
-2.85199e-06
-5.3391e-06
9.01305e-06
-6.326e-06
8.71768e-06
-9.27076e-06
-4.07256e-06
-4.87744e-06
6.52056e-08
-2.8861e-06
-5.17283e-06
-5.30706e-07
-2.796e-06
-3.59216e-06
5.19301e-07
-2.10411e-06
-3.46094e-06
-4.03868e-08
-1.51408e-06
-2.41761e-06
7.86053e-08
-6.46812e-07
-2.08166e-06
-1.6804e-07
-4.53205e-08
-6.89178e-07
-2.25884e-07
-5.94593e-08
1.55909e-07
-4.37492e-08
-3.32796e-07
6.73107e-07
-6.26617e-08
-5.71005e-07
5.68594e-07
-9.69632e-08
-6.84465e-07
3.94099e-07
-1.88602e-07
-7.48075e-07
2.42395e-07
-2.52742e-07
-7.52381e-07
8.77694e-08
-2.94932e-07
-7.04232e-07
-5.18429e-08
-3.24524e-07
-6.09064e-07
-1.4731e-07
-3.4268e-07
-4.98624e-07
-1.86594e-07
-3.54388e-07
-3.93492e-07
-1.6924e-07
-3.5848e-07
-3.01688e-07
-1.52222e-07
-3.6206e-07
-2.26502e-07
-1.18549e-07
-3.61148e-07
-1.67281e-07
-9.1953e-08
-3.58788e-07
-1.25933e-07
-5.80113e-08
-3.53684e-07
-9.92675e-08
-2.68538e-08
-3.49106e-07
-8.51659e-08
4.61695e-09
-3.4535e-07
-7.79891e-08
3.07388e-08
-3.42709e-07
-7.58131e-08
5.48209e-08
-3.41364e-07
-7.65075e-08
7.57846e-08
-3.41375e-07
-7.84123e-08
9.41581e-08
-3.42391e-07
-8.02102e-08
1.10912e-07
-3.44041e-07
-8.11149e-08
1.26152e-07
-3.46138e-07
-8.02727e-08
1.40975e-07
-3.48147e-07
-7.76949e-08
1.5358e-07
-3.50861e-07
-7.28731e-08
1.70759e-07
-3.51912e-07
-6.3565e-08
1.78141e-07
-3.56108e-07
-5.56061e-08
2.03131e-07
-3.54724e-07
-3.81797e-08
1.96794e-07
-3.61024e-07
-3.02013e-08
2.33132e-07
-3.55548e-07
-3.0871e-09
2.06743e-07
-3.63696e-07
-2.49044e-09
2.55672e-07
-3.51472e-07
2.47273e-08
2.07945e-07
-3.58048e-07
1.62362e-08
2.54509e-07
-3.41012e-07
2.04798e-08
2.02581e-07
-3.3834e-07
-1.35718e-08
2.35278e-07
-3.20561e-07
-3.92423e-08
1.87802e-07
-3.1785e-07
-6.8542e-08
1.62399e-07
-3.17109e-07
-6.34543e-08
9.82129e-08
-3.40143e-07
-2.26147e-09
-4.11402e-08
-3.68996e-07
1.52369e-07
-1.74264e-07
-4.43206e-07
4.95565e-07
-4.27868e-07
-5.47214e-07
8.57232e-07
-5.14972e-07
-5.78087e-07
1.66904e-06
-5.50525e-07
-7.30413e-07
1.84013e-06
8.2316e-08
-4.57608e-07
1.65208e-06
2.68647e-06
-4.44427e-07
4.73487e-06
-2.69603e-06
-8.17384e-07
9.76331e-06
-1.15361e-05
-6.65822e-07
1.10047e-05
-1.14658e-05
-3.39794e-07
9.68986e-06
-6.46365e-06
-1.34223e-06
9.13174e-06
5.80559e-06
-1.88512e-06
2.2377e-06
2.37991e-05
-3.90925e-06
3.30541e-06
4.59608e-06
2.59032e-06
6.77256e-07
-3.23238e-05
-1.35334e-06
-3.29078e-06
-3.60758e-05
3.5023e-06
-5.27899e-06
-1.61039e-05
2.44143e-06
-3.01001e-06
-1.66011e-05
5.55659e-07
-5.26313e-07
4.27309e-07
-3.43878e-06
4.97913e-06
3.09316e-07
-3.44327e-06
4.63431e-06
3.50327e-06
-2.92382e-07
3.13051e-06
4.27672e-06
1.33355e-06
-6.32854e-07
5.95944e-06
2.46934e-06
-5.98396e-06
6.28098e-06
3.2663e-06
-1.10416e-05
5.86638e-06
2.91001e-06
-1.44464e-05
4.8144e-06
2.04778e-06
-1.63077e-05
3.50417e-06
1.21092e-06
-1.67446e-05
1.84841e-06
3.53496e-07
-1.62289e-05
1.96227e-07
-4.67794e-07
-1.46264e-05
-1.74357e-06
-1.13492e-06
-1.2489e-05
-3.32142e-06
-1.56388e-06
-1.00811e-05
-4.62909e-06
-1.76495e-06
-7.61055e-06
-5.47e-06
-1.74385e-06
-5.18344e-06
-5.94486e-06
-1.6158e-06
-2.95575e-06
-5.86213e-06
-1.52133e-06
-1.00918e-06
-5.45103e-06
-1.45573e-06
6.82946e-07
-4.95317e-06
-1.36197e-06
2.14227e-06
-4.30867e-06
-1.23582e-06
3.41159e-06
-3.43358e-06
-1.1028e-06
4.54964e-06
-2.25075e-06
-9.9729e-07
5.47895e-06
-4.61009e-07
-9.49924e-07
6.09461e-06
2.21076e-06
-9.35476e-07
6.01176e-06
6.04639e-06
-9.31765e-07
4.46379e-06
1.07864e-05
-1.14908e-07
1.36083e-06
1.38265e-05
1.50876e-06
-1.96485e-06
1.22353e-05
2.22822e-06
-5.30043e-06
9.23761e-06
1.78355e-06
-7.42678e-06
8.97079e-06
-2.47591e-08
-7.34542e-06
1.08915e-05
-2.98793e-06
-4.94888e-06
1.29956e-05
-6.37907e-06
1.34951e-05
-9.72627e-06
-4.69785e-06
-4.87405e-06
-1.55928e-08
-3.37725e-06
-5.50493e-06
-9.88493e-07
-3.17271e-06
-4.00463e-06
2.07936e-07
-2.29383e-06
-3.83066e-06
-5.09152e-07
-1.81767e-06
-2.84037e-06
-5.33877e-08
-1.02465e-06
-2.55557e-06
-3.19108e-07
-2.91312e-07
-1.33432e-06
-8.8199e-08
7.09078e-08
-2.2276e-07
1.6446e-08
4.61223e-08
7.2555e-07
-2.76666e-08
-2.39632e-07
8.94428e-07
-4.00878e-08
-4.71186e-07
7.60723e-07
-1.3508e-07
-6.50837e-07
6.20914e-07
-1.98877e-07
-7.27779e-07
4.19771e-07
-2.55069e-07
-7.18597e-07
2.35212e-07
-2.96246e-07
-6.32062e-07
9.12915e-08
-3.25146e-07
-5.19963e-07
4.36206e-08
-3.42322e-07
-4.14746e-07
7.85766e-08
-3.53042e-07
-3.27709e-07
1.23061e-07
-3.6233e-07
-2.55117e-07
1.78837e-07
-3.69987e-07
-1.96829e-07
2.23522e-07
-3.73772e-07
-1.51526e-07
2.70758e-07
-3.74081e-07
-1.16818e-07
3.10821e-07
-3.72391e-07
-9.19163e-08
3.48004e-07
-3.68294e-07
-7.75456e-08
3.80487e-07
-3.64126e-07
-7.07066e-08
4.08028e-07
-3.60051e-07
-6.87019e-08
4.30244e-07
-3.5647e-07
-6.94336e-08
4.48362e-07
-3.53475e-07
-7.12046e-08
4.63715e-07
-3.51036e-07
-7.28455e-08
4.76761e-07
-3.4897e-07
-7.33836e-08
4.88593e-07
-3.47083e-07
-7.20959e-08
4.97937e-07
-3.45645e-07
-6.92512e-08
5.11e-07
-3.43088e-07
-6.18477e-08
5.14031e-07
-3.43292e-07
-5.60822e-08
5.35431e-07
-3.38066e-07
-4.04675e-08
5.21118e-07
-3.39936e-07
-3.50981e-08
5.57515e-07
-3.29751e-07
-1.56353e-08
5.18868e-07
-3.31584e-07
-2.04767e-08
5.74891e-07
-3.14375e-07
-1.45338e-08
5.14628e-07
-3.12621e-07
-3.89319e-08
5.72837e-07
-2.93927e-07
-6.92987e-08
5.20635e-07
-2.8768e-07
-1.10052e-07
5.53737e-07
-2.77701e-07
-1.64468e-07
5.25235e-07
-2.8301e-07
-1.80795e-07
4.69639e-07
-2.90906e-07
-1.68436e-07
4.20196e-07
-3.34334e-07
-6.68259e-08
2.16303e-07
-3.59046e-07
1.23389e-07
6.92684e-08
-4.33739e-07
4.76665e-07
-2.75226e-07
-5.0591e-07
7.80795e-07
-3.41725e-07
-4.77368e-07
1.6115e-06
-6.54623e-07
-7.26606e-07
2.44121e-06
-9.64033e-08
-6.50982e-07
4.2583e-06
1.90611e-06
-1.03674e-06
5.88022e-06
-3.75805e-06
-5.59909e-07
3.38033e-06
-8.82555e-06
-2.10677e-07
2.97803e-06
-7.42795e-06
-3.6356e-06
1.00588e-06
3.34985e-07
-4.82647e-06
6.77575e-06
8.53762e-06
-8.50188e-06
1.15372e-05
2.78844e-05
-8.84677e-06
1.23715e-05
-8.48434e-06
1.2246e-05
2.21797e-06
-2.22434e-05
7.31829e-08
-3.76609e-06
-3.36868e-05
3.595e-06
-1.26432e-05
-1.21712e-05
4.94442e-06
-1.63588e-05
-1.42433e-05
1.3578e-06
-1.41484e-05
-2.11333e-06
3.30305e-07
-1.49098e-05
7.53021e-08
9.9537e-07
-1.82161e-05
5.02371e-06
1.78593e-06
-2.18907e-05
5.96933e-06
1.9819e-06
-2.52214e-05
7.3917e-06
1.89848e-06
-2.75498e-05
7.12955e-06
1.47985e-06
-2.91334e-05
6.82158e-06
6.28402e-07
-2.99885e-05
5.90904e-06
-2.39524e-07
-3.01544e-05
4.74322e-06
-1.07315e-06
-2.95095e-05
2.86712e-06
-1.66361e-06
-2.80263e-05
6.89095e-07
-1.97606e-06
-2.6109e-05
-1.62777e-06
-2.03314e-06
-2.37259e-05
-3.82187e-06
-1.88261e-06
-2.09636e-05
-5.78763e-06
-1.60377e-06
-1.80013e-05
-7.07108e-06
-1.36116e-06
-1.48403e-05
-7.79474e-06
-1.3112e-06
-1.16623e-05
-7.47231e-06
-1.56778e-06
-8.75916e-06
-6.44217e-06
-1.91199e-06
-6.13556e-06
-5.42012e-06
-2.15665e-06
-3.83985e-06
-4.32579e-06
-2.2786e-06
-2.0179e-06
-2.95829e-06
-2.29723e-06
-7.9707e-07
-1.34956e-06
-2.12202e-06
-1.02846e-07
5.70779e-07
-1.72601e-06
1.42478e-08
3.14589e-06
-1.05222e-06
-3.85795e-07
6.66286e-06
-2.16422e-07
-1.25445e-06
1.08111e-05
8.44004e-07
-2.29766e-06
1.29919e-05
1.87774e-06
-3.72497e-06
1.15983e-05
2.06433e-06
-6.0071e-06
9.91934e-06
1.6004e-06
-7.58583e-06
1.07712e-05
-2.21674e-07
-7.30768e-06
1.3681e-05
-3.06763e-06
-4.76886e-06
1.67879e-05
-6.33115e-06
1.83646e-05
-9.63843e-06
-5.04161e-06
-4.28534e-06
-4.20578e-07
-3.52162e-06
-5.26639e-06
-1.75852e-06
-3.33051e-06
-3.77058e-06
-4.25144e-07
-2.14884e-06
-3.72311e-06
-1.28921e-06
-1.61856e-06
-2.70756e-06
-6.63082e-07
-1.07955e-06
-2.46089e-06
-6.33694e-07
-5.78822e-07
-1.62098e-06
-2.14064e-07
-5.45269e-08
-6.77808e-07
-6.92554e-08
3.03763e-07
4.62041e-07
-9.47889e-08
1.8577e-07
1.04664e-06
-3.42357e-08
-1.10177e-07
1.15073e-06
-9.40672e-08
-4.43504e-07
1.09722e-06
-1.42994e-07
-6.33354e-07
8.25016e-07
-2.15404e-07
-6.66122e-07
5.47675e-07
-2.79706e-07
-5.84795e-07
3.45137e-07
-3.35182e-07
-4.72898e-07
2.95584e-07
-3.63871e-07
-3.73425e-07
3.52525e-07
-3.73431e-07
-3.04678e-07
4.33444e-07
-3.79139e-07
-2.55695e-07
5.12018e-07
-3.82175e-07
-2.18853e-07
5.71057e-07
-3.84385e-07
-1.87088e-07
6.23257e-07
-3.84273e-07
-1.59947e-07
6.64374e-07
-3.80701e-07
-1.38604e-07
7.0029e-07
-3.73639e-07
-1.23461e-07
7.2968e-07
-3.64341e-07
-1.13859e-07
7.52466e-07
-3.54049e-07
-1.08595e-07
7.69022e-07
-3.44046e-07
-1.06458e-07
7.8106e-07
-3.34841e-07
-1.07395e-07
7.91187e-07
-3.26537e-07
-1.09606e-07
7.97809e-07
-3.18842e-07
-1.11588e-07
8.02331e-07
-3.11757e-07
-1.12738e-07
8.04434e-07
-3.0535e-07
-1.11877e-07
8.08279e-07
-2.98139e-07
-1.08931e-07
8.04657e-07
-2.93574e-07
-1.06796e-07
8.18161e-07
-2.84864e-07
-1.00938e-07
7.99135e-07
-2.83875e-07
-9.99306e-08
8.27648e-07
-2.71137e-07
-1.00325e-07
7.89013e-07
-2.6975e-07
-1.09126e-07
8.35003e-07
-2.51307e-07
-1.31353e-07
7.83146e-07
-2.46289e-07
-1.53639e-07
8.23911e-07
-2.28782e-07
-1.96316e-07
7.86099e-07
-2.22784e-07
-2.14895e-07
7.88061e-07
-2.15739e-07
-2.35344e-07
7.69082e-07
-2.23394e-07
-2.06068e-07
6.69484e-07
-2.29113e-07
-1.53594e-07
6.32937e-07
-2.65209e-07
-2.90305e-08
3.78489e-07
-2.86743e-07
1.39253e-07
2.34154e-07
-3.33163e-07
4.20053e-07
-1.88194e-07
-3.67824e-07
5.68489e-07
-2.20712e-07
-2.69446e-07
9.90261e-07
-6.86563e-07
-3.89825e-07
1.58301e-06
-3.08628e-07
-3.80526e-07
3.60907e-06
9.16522e-07
-1.03647e-06
-2.43865e-06
2.23083e-06
5.8846e-08
-1.31165e-05
4.5144e-06
-2.66211e-06
-1.87661e-05
7.31069e-06
-9.08902e-06
-1.58692e-05
7.95286e-06
-1.05147e-05
4.50734e-06
-1.26887e-06
-1.057e-05
2.64214e-05
1.06971e-05
-4.72669e-06
9.95232e-06
-1.36529e-05
2.16375e-05
3.33808e-08
-1.27914e-05
4.67063e-07
-1.24114e-05
-2.53181e-05
4.07636e-06
-2.20058e-05
-7.41803e-06
4.84144e-06
-3.02047e-05
-7.66957e-06
1.62538e-06
-3.27323e-05
7.04664e-07
-2.9032e-07
-3.66074e-05
3.75033e-06
2.00307e-07
-3.83472e-05
6.32647e-06
4.37162e-07
-4.06269e-05
7.94454e-06
3.04606e-07
-4.22675e-05
8.97372e-06
5.8717e-08
-4.3771e-05
9.05365e-06
-4.20308e-07
-4.44725e-05
8.37219e-06
-8.48915e-07
-4.46623e-05
7.36798e-06
-1.26876e-06
-4.4006e-05
5.50838e-06
-1.42117e-06
-4.29738e-05
3.06287e-06
-1.22762e-06
-4.15142e-05
1.5351e-07
-9.23704e-07
-3.97087e-05
-2.85739e-06
-5.75657e-07
-3.74865e-05
-5.83769e-06
-2.06126e-07
-3.48793e-05
-8.5762e-06
1.81506e-07
-3.1925e-05
-1.06093e-05
5.84045e-07
-2.85658e-05
-1.19405e-05
7.86552e-07
-2.45964e-05
-1.17845e-05
3.42872e-07
-2.03288e-05
-1.01177e-05
-5.92054e-07
-1.60656e-05
-8.03514e-06
-1.64815e-06
-1.20761e-05
-5.77557e-06
-2.53975e-06
-8.53602e-06
-3.20271e-06
-3.29563e-06
-5.72175e-06
-4.84237e-07
-3.67959e-06
-3.79597e-06
2.22352e-06
-3.57851e-06
-2.89985e-06
5.03904e-06
-2.78927e-06
-2.82123e-06
8.04461e-06
-1.46037e-06
-2.90218e-06
1.10384e-05
-1.46323e-07
-2.93008e-06
1.21515e-05
8.68286e-07
-3.90391e-06
1.12421e-05
1.33008e-06
-5.72282e-06
1.07001e-05
1.03812e-06
-6.93418e-06
1.25004e-05
-5.17876e-07
-6.74456e-06
1.63921e-05
-2.90072e-06
-4.50706e-06
2.05822e-05
-6.03177e-06
2.29589e-05
-9.10135e-06
-5.47009e-06
-3.37785e-06
-2.38661e-07
-3.85878e-06
-4.91065e-06
-1.96704e-06
-3.541e-06
-3.05637e-06
-1.03197e-06
-2.08705e-06
-3.26228e-06
-1.91476e-06
-1.2268e-06
-2.11714e-06
-1.45067e-06
-7.10853e-07
-1.87931e-06
-1.09752e-06
-3.842e-07
-1.24205e-06
-7.05595e-07
-5.91533e-08
-6.50439e-07
-3.52424e-07
3.21207e-07
3.31635e-07
-2.49967e-07
3.70254e-07
1.1151e-06
-1.17516e-07
1.55166e-07
1.45943e-06
-9.3632e-08
-2.59719e-07
1.58797e-06
-7.58736e-08
-5.2817e-07
1.25255e-06
-1.59096e-07
-5.8381e-07
8.68174e-07
-2.64869e-07
-5.13181e-07
6.28294e-07
-3.53797e-07
-4.23708e-07
5.95307e-07
-3.89207e-07
-3.39778e-07
6.63068e-07
-3.94484e-07
-2.93126e-07
7.71018e-07
-3.84237e-07
-2.66197e-07
8.60934e-07
-3.75854e-07
-2.50466e-07
9.25833e-07
-3.70517e-07
-2.39678e-07
9.77178e-07
-3.64717e-07
-2.31771e-07
1.014e-06
-3.57543e-07
-2.265e-07
1.04296e-06
-3.47949e-07
-2.23471e-07
1.0637e-06
-3.37062e-07
-2.21422e-07
1.07606e-06
-3.25644e-07
-2.20135e-07
1.08173e-06
-3.14e-07
-2.19759e-07
1.08297e-06
-3.02287e-07
-2.21218e-07
1.08238e-06
-2.8974e-07
-2.23605e-07
1.07959e-06
-2.79397e-07
-2.25915e-07
1.07423e-06
-2.69595e-07
-2.28254e-07
1.06726e-06
-2.6049e-07
-2.2726e-07
1.05972e-06
-2.52436e-07
-2.28183e-07
1.05029e-06
-2.44713e-07
-2.27752e-07
1.054e-06
-2.36272e-07
-2.35613e-07
1.03705e-06
-2.30055e-07
-2.39535e-07
1.05188e-06
-2.20314e-07
-2.61769e-07
1.02376e-06
-2.12509e-07
-2.74509e-07
1.04847e-06
-2.0073e-07
-3.13806e-07
1.01254e-06
-1.9009e-07
-3.29963e-07
1.02041e-06
-1.80343e-07
-3.57808e-07
9.8732e-07
-1.7337e-07
-3.4424e-07
9.4383e-07
-1.69334e-07
-2.99018e-07
9.01459e-07
-1.77593e-07
-2.26594e-07
7.68746e-07
-1.71683e-07
-1.42734e-07
7.3208e-07
-1.82996e-07
-2.64308e-08
4.44735e-07
-1.82546e-07
7.52645e-08
3.12724e-07
-1.8026e-07
2.81178e-07
-2.04857e-07
-1.89249e-07
3.41476e-07
-1.90081e-07
-9.0923e-08
6.39864e-07
-8.68332e-07
-1.1662e-07
1.1711e-06
-6.1552e-07
-2.24346e-07
4.17167e-06
-1.25136e-06
-8.327e-07
1.59698e-06
6.4691e-06
-1.66358e-06
-5.87367e-06
1.71083e-05
-5.1233e-06
-6.47953e-06
1.75841e-05
-9.66756e-06
-1.77433e-06
1.38739e-05
-1.06263e-05
1.0682e-05
-2.04962e-06
-1.16756e-05
3.34772e-05
-3.68319e-06
-8.41493e-06
7.00224e-06
-1.09896e-05
2.38117e-05
-2.30131e-06
-4.20829e-06
7.20313e-07
-2.22609e-05
-9.37582e-06
4.01814e-06
-3.48201e-05
2.23987e-07
4.91836e-06
-4.5144e-05
1.82461e-06
8.3087e-07
-4.97083e-05
5.34535e-06
-7.51179e-08
-5.322e-05
7.6621e-06
-3.9881e-07
-5.52512e-05
8.78722e-06
-4.28277e-07
-5.64593e-05
9.75431e-06
-6.00308e-07
-5.70494e-05
1.02458e-05
-6.8059e-07
-5.7199e-05
1.00508e-05
-8.45985e-07
-5.71039e-05
9.19403e-06
-9.15418e-07
-5.59657e-05
7.31083e-06
-1.0796e-06
-5.44505e-05
4.91256e-06
-9.17758e-07
-5.26626e-05
1.94864e-06
-6.72006e-07
-5.08484e-05
-1.27932e-06
-3.79503e-07
-4.83086e-05
-5.145e-06
-2.50064e-07
-4.56403e-05
-8.69869e-06
1.94752e-07
-4.30089e-05
-1.19079e-05
7.02042e-07
-4.08285e-05
-1.4151e-05
1.36271e-06
-3.92201e-05
-1.55625e-05
2.01488e-06
-3.7612e-05
-1.56578e-05
2.26604e-06
-3.53193e-05
-1.46936e-05
2.28389e-06
-3.13864e-05
-1.32126e-05
1.24504e-06
-2.60051e-05
-1.11469e-05
-9.65532e-09
-1.99961e-05
-7.78139e-06
-1.43022e-06
-1.48881e-05
-3.08884e-06
-2.50333e-06
-1.0753e-05
1.00044e-06
-2.91198e-06
-7.8434e-06
4.6886e-06
-2.55917e-06
-6.02461e-06
7.80951e-06
-1.58371e-06
-4.74846e-06
1.01748e-05
-4.12546e-07
-3.7963e-06
1.09265e-05
2.72876e-07
-3.91318e-06
1.10201e-05
3.38891e-07
-5.01663e-06
1.17643e-05
3.92641e-08
-5.86015e-06
1.43063e-05
-9.62375e-07
-5.40879e-06
1.87789e-05
-2.83815e-06
-3.10911e-06
2.40642e-05
-5.78169e-06
2.85958e-05
-8.74596e-06
-5.33989e-06
-2.73474e-06
9.87226e-07
-4.02444e-06
-4.5306e-06
-1.69549e-06
-3.92528e-06
-1.96627e-06
-1.18926e-06
-2.49719e-06
-2.60071e-06
-2.08965e-06
-1.44022e-06
-1.44991e-06
-1.7242e-06
-6.01654e-07
-1.31513e-06
-1.40275e-06
-2.24053e-07
-6.1791e-07
-1.00174e-06
-1.059e-07
-2.82734e-07
-4.85871e-07
1.13586e-07
4.01218e-07
-2.89081e-07
2.27575e-07
1.13514e-06
-1.34046e-07
2.44855e-07
1.52912e-06
-8.69757e-08
1.11065e-07
1.76007e-06
-3.83255e-08
-1.16179e-08
1.56872e-06
-1.93501e-07
-9.7267e-08
1.27491e-06
-3.21103e-07
-1.49353e-07
1.10785e-06
-4.27481e-07
-2.06798e-07
1.13456e-06
-4.81823e-07
-2.55608e-07
1.22905e-06
-5.17186e-07
-3.0263e-07
1.3446e-06
-5.26572e-07
-3.4246e-07
1.43458e-06
-5.33829e-07
-3.67018e-07
1.48579e-06
-5.35405e-07
-3.78676e-07
1.52256e-06
-5.33736e-07
-3.83737e-07
1.54931e-06
-5.30257e-07
-3.84205e-07
1.56942e-06
-5.26005e-07
-3.82825e-07
1.58331e-06
-5.20993e-07
-3.79843e-07
1.58973e-06
-5.16666e-07
-3.76637e-07
1.59115e-06
-5.12638e-07
-3.75215e-07
1.58965e-06
-5.08109e-07
-3.75919e-07
1.58636e-06
-5.03276e-07
-3.78833e-07
1.58111e-06
-4.98615e-07
-3.82263e-07
1.57245e-06
-4.94792e-07
-3.85417e-07
1.56165e-06
-4.91241e-07
-3.84773e-07
1.54785e-06
-4.88774e-07
-3.87132e-07
1.53772e-06
-4.85067e-07
-3.90937e-07
1.53883e-06
-4.81027e-07
-4.11313e-07
1.53289e-06
-4.75467e-07
-4.24911e-07
1.53673e-06
-4.71248e-07
-4.64482e-07
1.52648e-06
-4.63146e-07
-4.82082e-07
1.52495e-06
-4.58872e-07
-5.26921e-07
1.50711e-06
-4.49738e-07
-5.30229e-07
1.47345e-06
-4.49729e-07
-5.35482e-07
1.4411e-06
-4.48523e-07
-4.97681e-07
1.35851e-06
-4.52475e-07
-4.09795e-07
1.28442e-06
-4.70843e-07
-3.16786e-07
1.14902e-06
-4.73282e-07
-2.02539e-07
1.09436e-06
-4.76525e-07
-1.11692e-07
8.38755e-07
-4.84864e-07
-3.86607e-08
6.97668e-07
-4.57974e-07
7.02122e-08
1.59082e-07
-4.72809e-07
5.49246e-08
1.30987e-07
-3.05781e-07
2.59462e-07
-7.4381e-07
-3.29058e-07
1.04595e-06
-9.7e-07
-4.32009e-07
5.13999e-06
-3.99067e-06
-1.35473e-06
1.00179e-05
2.80865e-06
-1.21744e-06
1.01165e-05
1.92009e-05
-2.19124e-06
1.1314e-05
2.03966e-05
-4.00995e-06
1.81963e-05
1.59028e-05
-8.9111e-06
1.96562e-05
9.58051e-06
-1.309e-05
3.61635e-05
-7.55546e-06
-1.26351e-05
5.89133e-06
-7.34179e-06
2.66243e-05
-6.43918e-06
7.01461e-06
1.10817e-06
-3.30094e-05
1.20506e-05
5.146e-06
-4.83232e-05
1.01122e-05
5.42867e-06
-5.9068e-05
1.18425e-05
7.30044e-07
-6.42436e-05
1.07422e-05
-2.17945e-07
-6.70594e-05
1.11544e-05
-6.73197e-07
-6.87412e-05
1.11226e-05
-6.50314e-07
-6.93006e-05
1.12488e-05
-9.31775e-07
-6.89995e-05
1.10723e-05
-1.12432e-06
-6.81068e-05
1.04699e-05
-1.30832e-06
-6.65923e-05
9.17481e-06
-1.49177e-06
-6.46706e-05
7.15558e-06
-1.76281e-06
-6.24193e-05
4.57745e-06
-1.91221e-06
-5.98724e-05
1.40344e-06
-1.99737e-06
-5.69328e-05
-2.1826e-06
-2.03225e-06
-5.34011e-05
-6.51351e-06
-2.15943e-06
-5.01911e-05
-9.96428e-06
-1.94078e-06
-4.78925e-05
-1.27849e-05
-1.41794e-06
-4.67728e-05
-1.49953e-05
-2.71718e-07
-4.71487e-05
-1.65952e-05
1.41224e-06
-4.86386e-05
-1.72736e-05
3.10942e-06
-5.02563e-05
-1.69536e-05
3.88151e-06
-5.12045e-05
-1.60077e-05
3.74731e-06
-5.07303e-05
-1.45484e-05
2.93118e-06
-4.81682e-05
-1.18629e-05
1.52329e-06
-4.42646e-05
-7.11541e-06
1.26809e-07
-3.95599e-05
-2.96184e-06
-7.38617e-07
-3.53869e-05
1.34582e-06
-8.26345e-07
-3.17677e-05
4.54678e-06
-3.52595e-07
-2.9081e-05
7.43232e-06
5.98275e-08
-2.7406e-05
9.32582e-06
-6.99862e-08
-2.67629e-05
1.10413e-05
-6.59761e-07
-2.6796e-05
1.33539e-05
-1.55172e-06
-2.57796e-05
1.63871e-05
-3.09215e-06
-2.20112e-05
2.04744e-05
-5.45897e-06
-1.4211e-05
2.51869e-05
-8.91846e-06
2.48047e-05
-1.04182e-05
-4.69551e-06
-7.96626e-07
2.8557e-06
-3.52121e-06
-4.3489e-06
-1.356e-06
-3.82135e-06
-8.69685e-07
-7.96434e-07
-2.75785e-06
-2.12721e-06
-1.537e-06
-1.88932e-06
-9.53929e-07
-1.3645e-06
-8.78013e-07
-1.16224e-06
-1.1642e-06
-4.38826e-07
-3.59926e-07
-6.9718e-07
-3.26672e-07
-1.28249e-07
-2.66651e-07
-1.93479e-07
3.17983e-07
-4.99715e-08
-4.47603e-08
9.559e-07
3.05122e-08
1.90252e-07
1.25136e-06
4.27318e-08
3.68329e-07
1.37127e-06
2.10716e-07
3.94006e-07