/*--------------------------------*- C++ -*----------------------------------*\
| =========                 |                                                 |
| \\      /  F ield         | OpenFOAM: The Open Source CFD Toolbox           |
|  \\    /   O peration     | Version:  2.3.0                                 |
|   \\  /    A nd           | Web:      www.OpenFOAM.org                      |
|    \\/     M anipulation  |                                                 |
\*---------------------------------------------------------------------------*/
FoamFile
{
    version     2.0;
    format      ascii;
    class       surfaceScalarField;
    location    "26";
    object      phi.air;
}
// * * * * * * * * * * * * * * * * * * * * * * * * * * * * * * * * * * * * * //

dimensions      [0 3 -1 0 0 0 0];

internalField   nonuniform List<scalar> 
16448
(
-8.92457e-07
-2.45965e-06
7.79708e-07
5.97457e-07
-2.44211e-06
9.52198e-07
7.34865e-07
-1.29622e-06
1.15881e-06
8.88682e-07
-1.22141e-06
1.06759e-06
7.21801e-07
-6.88146e-07
8.55026e-07
5.98159e-07
-6.44706e-07
7.68346e-07
3.21091e-07
-3.36873e-07
6.1394e-07
7.33187e-08
-2.95753e-07
5.43523e-07
-1.80398e-07
-2.49869e-07
5.03582e-07
-4.08418e-07
-2.395e-07
4.67516e-07
-5.70017e-07
-2.62389e-07
4.23983e-07
-6.03394e-07
-3.17641e-07
3.51014e-07
-5.38143e-07
-3.84252e-07
3.18996e-07
-4.09431e-07
-4.3244e-07
3.03723e-07
-2.87063e-07
-4.54744e-07
3.32371e-07
-1.73766e-07
-4.71926e-07
3.58624e-07
-9.97882e-08
-4.75785e-07
4.01801e-07
-4.31286e-08
-4.87826e-07
4.3116e-07
-8.15512e-09
-4.95406e-07
4.60427e-07
1.43666e-08
-4.98686e-07
4.76158e-07
2.55629e-08
-4.98223e-07
4.87021e-07
2.99853e-08
-4.94872e-07
4.90444e-07
2.92067e-08
-4.89317e-07
4.90091e-07
2.59986e-08
-4.82783e-07
4.85986e-07
2.17796e-08
-4.75219e-07
4.79434e-07
1.8217e-08
-4.6751e-07
4.71068e-07
1.63923e-08
-4.59868e-07
4.6169e-07
1.64701e-08
-4.52128e-07
4.52047e-07
1.85178e-08
-4.44438e-07
4.42388e-07
2.17151e-08
-4.36565e-07
4.33365e-07
2.69047e-08
-4.29524e-07
4.24333e-07
3.09936e-08
-4.21466e-07
4.17375e-07
3.76635e-08
-4.1662e-07
4.0995e-07
4.03858e-08
-4.07674e-07
4.04951e-07
4.8841e-08
-4.04992e-07
3.96537e-07
5.3191e-08
-3.95439e-07
3.91089e-07
6.61236e-08
-3.92867e-07
3.79936e-07
7.90283e-08
-3.83714e-07
3.7081e-07
1.04698e-07
-3.82011e-07
3.56343e-07
1.4137e-07
-3.78693e-07
3.42023e-07
1.92523e-07
-3.79107e-07
3.27957e-07
2.67546e-07
-3.93131e-07
3.1811e-07
3.36751e-07
-3.93324e-07
3.24122e-07
4.31076e-07
-4.36113e-07
3.41791e-07
4.67515e-07
-4.33906e-07
3.9747e-07
5.21097e-07
-5.02439e-07
4.4886e-07
5.07022e-07
-5.11113e-07
5.25192e-07
4.93008e-07
-5.32017e-07
5.46035e-07
5.35491e-07
-5.78602e-07
5.36123e-07
2.94537e-07
-3.24522e-07
5.6548e-07
1.9707e-07
-4.55798e-07
5.53269e-07
-3.49078e-07
-2.08874e-07
7.55021e-07
-1.84632e-06
2.81945e-08
1.46903e-06
-2.81805e-06
-1.27761e-06
2.24935e-06
-2.87721e-06
-4.2041e-06
4.26325e-06
-3.21302e-06
-4.63043e-06
4.96624e-06
-1.06029e-06
-2.72973e-06
5.76442e-07
-1.1888e-06
-9.72523e-07
1.1009e-06
-5.5593e-06
5.18412e-07
3.64565e-06
-2.75378e-05
-1.71474e-05
1.21075e-05
-5.9991e-05
-1.48872e-05
2.42289e-06
-2.22841e-05
-3.76143e-06
2.78132e-06
1.55804e-05
-1.54681e-06
-3.52621e-07
2.44179e-05
-1.86987e-06
7.67075e-07
2.53768e-05
-1.0249e-06
-4.91761e-08
2.57936e-05
9.62503e-08
-4.8126e-07
2.53859e-05
9.78865e-07
-5.40384e-07
2.44855e-05
1.2643e-06
-3.65902e-07
2.3302e-05
1.29225e-06
-1.26058e-07
2.20212e-05
1.16231e-06
1.01469e-07
2.07529e-05
9.40733e-07
3.16244e-07
1.96619e-05
5.82035e-07
4.9846e-07
1.88904e-05
7.37377e-08
6.86669e-07
1.84185e-05
-4.08208e-07
8.65172e-07
1.82895e-05
-8.99175e-07
1.02371e-06
1.85007e-05
-1.33857e-06
1.13139e-06
1.8992e-05
-1.67138e-06
1.18458e-06
1.9691e-05
-1.90117e-06
1.2051e-06
2.04952e-05
-2.01461e-06
1.20555e-06
2.13275e-05
-2.04883e-06
1.20738e-06
2.21059e-05
-1.98641e-06
1.19522e-06
2.27562e-05
-1.84887e-06
1.18507e-06
2.32541e-05
-1.68044e-06
1.16804e-06
2.34043e-05
-1.25854e-06
1.09674e-06
2.31251e-05
-7.77061e-07
1.04764e-06
2.23648e-05
-2.00888e-07
9.59772e-07
2.04668e-05
8.99891e-07
1.01101e-06
1.75551e-05
1.88157e-06
1.03045e-06
1.23293e-05
3.6834e-06
1.54325e-06
4.90735e-06
4.51434e-06
3.00365e-06
-2.30938e-06
3.62428e-06
3.73103e-06
-7.75072e-06
2.44911e-06
2.98208e-06
-1.06844e-05
2.37382e-06
5.64298e-07
-1.01184e-05
2.53385e-06
-3.07099e-06
-6.47209e-06
2.30887e-06
-5.90093e-06
1.80929e-06
-7.48322e-06
-2.35572e-06
-3.75041e-06
1.55255e-07
-1.27017e-06
-3.69872e-06
1.71059e-07
-9.69193e-07
-2.29445e-06
6.97262e-07
-3.75513e-07
-2.12247e-06
3.07386e-07
1.55041e-08
-1.22238e-06
1.43222e-07
2.5727e-07
-9.81446e-07
9.49767e-08
2.67555e-07
-3.56283e-07
9.12539e-09
5.49541e-08
-1.54425e-07
7.12725e-08
-2.89144e-07
-1.89251e-08
1.13151e-07
-5.87413e-07
-5.04449e-08
1.0921e-07
-7.62461e-07
-1.46574e-07
5.9229e-08
-7.8962e-07
-2.8483e-07
-5.6566e-09
-7.21992e-07
-4.06694e-07
-4.51913e-08
-5.88046e-07
-5.00465e-07
-6.59268e-08
-4.4424e-07
-5.45537e-07
-5.30193e-08
-3.05753e-07
-5.7356e-07
-3.68615e-08
-2.06781e-07
-5.71313e-07
-3.4499e-09
-1.27137e-07
-5.79448e-07
1.19702e-08
-7.49594e-08
-5.76504e-07
2.89125e-08
-3.80458e-08
-5.73541e-07
3.7934e-08
-1.67903e-08
-5.64106e-07
4.46209e-08
-5.97509e-09
-5.52547e-07
4.6853e-08
-2.66771e-09
-5.38913e-07
4.62826e-08
-3.96791e-09
-5.2471e-07
4.32223e-08
-7.18893e-09
-5.10447e-07
3.84441e-08
-1.02731e-08
-4.96917e-07
3.24871e-08
-1.17446e-08
-4.84214e-07
2.58135e-08
-1.14204e-08
-4.71615e-07
1.91602e-08
-8.58089e-09
-4.59735e-07
1.24548e-08
-5.4153e-09
-4.4663e-07
6.89791e-09
1.42325e-09
-4.36639e-07
2.75587e-10
3.97965e-09
-4.20327e-07
-3.69582e-09
1.40959e-08
-4.13414e-07
-1.3323e-08
1.53706e-08
-3.93607e-07
-1.53406e-08
2.91858e-08
-3.92774e-07
-2.60322e-08
3.22674e-08
-3.70476e-07
-2.80426e-08
5.39589e-08
-3.73721e-07
-4.08347e-08
6.75005e-08
-3.50836e-07
-4.64162e-08
1.05759e-07
-3.61785e-07
-5.84809e-08
1.45586e-07
-3.47023e-07
-7.14926e-08
2.03272e-07
-3.67192e-07
-6.95959e-08
2.65219e-07
-3.73918e-07
-8.11553e-08
3.21923e-07
-3.95294e-07
-5.4728e-08
3.65932e-07
-4.35593e-07
-4.45222e-08
3.84318e-07
-4.62139e-07
9.85367e-09
4.08373e-07
-5.52013e-07
2.55286e-08
4.42951e-07
-6.03721e-07
5.80376e-08
5.67247e-07
-6.90648e-07
3.43443e-08
7.31692e-07
-7.61968e-07
1.89295e-08
8.03181e-07
-4.21959e-07
2.59564e-08
9.11542e-07
-5.68938e-07
4.78605e-09
4.16822e-08
3.73684e-07
2.87304e-07
-1.36892e-06
9.57052e-07
4.81741e-07
-1.15281e-06
-2.64308e-06
1.14936e-06
1.79599e-06
-8.54735e-06
1.39443e-06
3.7285e-06
-9.40195e-06
2.83902e-06
-2.68653e-06
3.03686e-06
6.47804e-07
-1.12146e-05
5.88993e-06
1.66524e-06
-1.01535e-05
2.60852e-06
-3.36667e-06
-2.65539e-05
-3.27454e-05
5.0786e-06
-7.15534e-05
-2.14364e-05
1.45654e-06
-3.03268e-05
-6.52671e-06
4.27795e-07
1.31062e-05
-3.84197e-06
-1.62299e-06
1.61266e-05
-2.34601e-06
-2.89675e-06
1.77e-05
6.67584e-07
-3.06025e-06
1.88012e-05
1.96327e-06
-2.89841e-06
1.91862e-05
2.94231e-06
-2.3376e-06
1.89004e-05
3.362e-06
-1.78499e-06
1.82223e-05
3.1854e-06
-1.18882e-06
1.73038e-05
2.79555e-06
-6.8733e-07
1.61917e-05
2.35586e-06
-2.69639e-07
1.49572e-05
1.73203e-06
1.12822e-07
1.36801e-05
9.78863e-07
3.98229e-07
1.25413e-05
1.21458e-07
6.20319e-07
1.18029e-05
-9.6815e-07
8.05782e-07
1.15288e-05
-1.9422e-06
8.79773e-07
1.17379e-05
-2.74906e-06
8.67757e-07
1.23352e-05
-3.29946e-06
8.01295e-07
1.32089e-05
-3.63033e-06
7.47838e-07
1.4189e-05
-3.72647e-06
7.08908e-07
1.51874e-05
-3.64218e-06
6.67659e-07
1.6126e-05
-3.42055e-06
6.37166e-07
1.69471e-05
-3.02489e-06
5.33792e-07
1.76146e-05
-2.34819e-06
4.21198e-07
1.79344e-05
-1.44478e-06
3.37524e-07
1.79192e-05
-2.99032e-07
1.23439e-07
1.71772e-05
1.51422e-06
1.41045e-07
1.53099e-05
3.72938e-06
4.37825e-08
1.17096e-05
6.51662e-06
7.56412e-07
5.30961e-06
8.67059e-06
2.31589e-06
-2.01499e-06
7.89287e-06
3.16991e-06
-7.55752e-06
5.17977e-06
2.75631e-06
-1.04706e-05
4.52933e-06
7.34914e-07
-9.97362e-06
5.1653e-06
-3.07998e-06
-6.66575e-06
5.41906e-06
-6.36443e-06
4.7964e-06
-8.69532e-06
-3.30627e-06
-4.43871e-06
-3.0947e-08
-2.25288e-06
-4.51709e-06
-2.35011e-07
-2.08654e-06
-2.98276e-06
5.21973e-07
-1.44947e-06
-2.80945e-06
4.99124e-08
-9.11254e-07
-1.74898e-06
-1.16095e-08
-3.4246e-07
-1.38244e-06
-1.67793e-07
-1.17477e-07
-3.13573e-07
-2.67691e-07
-2.51827e-07
9.80245e-08
-1.181e-07
-5.1287e-07
3.37113e-07
-9.49976e-08
-7.05303e-07
2.3343e-07
-9.14468e-08
-8.01081e-07
9.20439e-08
-1.42846e-07
-8.1247e-07
-7.39488e-08
-1.99498e-07
-7.69264e-07
-2.11461e-07
-2.38445e-07
-6.80596e-07
-3.2821e-07
-2.60929e-07
-5.62733e-07
-3.94813e-07
-2.68594e-07
-4.37935e-07
-4.30533e-07
-2.67833e-07
-3.30541e-07
-4.22579e-07
-2.56137e-07
-2.3885e-07
-4.2247e-07
-2.48677e-07
-1.72299e-07
-4.04503e-07
-2.3856e-07
-1.21475e-07
-3.91511e-07
-2.32861e-07
-8.90472e-08
-3.7034e-07
-2.26201e-07
-6.94277e-08
-3.49287e-07
-2.22886e-07
-6.03506e-08
-3.26625e-07
-2.21372e-07
-5.81996e-08
-3.04787e-07
-2.2208e-07
-6.01267e-08
-2.84361e-07
-2.24164e-07
-6.32687e-08
-2.66281e-07
-2.27499e-07
-6.58586e-08
-2.50133e-07
-2.31494e-07
-6.68484e-08
-2.34924e-07
-2.35705e-07
-6.5736e-08
-2.20888e-07
-2.39961e-07
-6.21567e-08
-2.06329e-07
-2.43883e-07
-5.60198e-08
-1.94701e-07
-2.48075e-07
-4.9281e-08
-1.76332e-07
-2.50735e-07
-3.82118e-08
-1.68658e-07
-2.55824e-07
-3.17226e-08
-1.43636e-07
-2.56459e-07
-1.32547e-08
-1.46804e-07
-2.64436e-07
-6.9363e-09
-1.1444e-07
-2.62353e-07
2.19295e-08
-1.29841e-07
-2.72743e-07
3.53505e-08
-9.52075e-08
-2.69047e-07
7.25909e-08
-1.22888e-07
-2.76133e-07
9.1099e-08
-9.4999e-08
-2.70528e-07
1.23011e-07
-1.31519e-07
-2.6758e-07
1.21624e-07
-1.1934e-07
-2.53185e-07
1.22334e-07
-1.55724e-07
-2.40273e-07
9.15934e-08
-1.84017e-07
-2.2083e-07
8.37999e-08
-2.3685e-07
-2.17488e-07
1.18657e-07
-3.48952e-07
-2.37911e-07
2.30998e-07
-4.62848e-07
-2.53205e-07
5.33325e-07
-6.31895e-07
-3.61071e-07
8.74204e-07
-7.31399e-07
-3.7144e-07
1.29156e-06
-4.69134e-07
-3.70176e-07
1.15662e-06
-2.04208e-07
-2.29781e-07
-6.05585e-07
2.05398e-06
8.1907e-08
1.35094e-06
-4.30622e-07
-5.6886e-07
6.87447e-06
-7.17349e-06
-9.93134e-07
8.07311e-06
-1.05642e-05
8.18193e-07
6.19595e-06
-9.12071e-06
1.59593e-06
6.73113e-06
3.36236e-06
-8.61239e-07
-1.20198e-06
1.29958e-05
8.27445e-07
-4.76869e-06
8.25423e-06
-2.30756e-06
-2.81608e-05
-3.63426e-05
-5.0018e-07
-8.10775e-05
-2.89618e-05
2.98987e-06
-3.8824e-05
-1.46905e-05
1.01776e-06
1.16828e-05
-1.38081e-05
-1.88442e-06
1.24498e-05
-5.22144e-07
-2.97477e-06
1.36727e-05
2.34184e-06
-2.71053e-06
1.45474e-05
2.83642e-06
-1.82205e-06
1.42777e-05
4.0697e-06
-9.60987e-07
1.30784e-05
4.64428e-06
-1.20117e-07
1.13695e-05
4.21649e-06
6.77428e-07
9.17703e-06
3.7417e-06
1.25524e-06
6.36432e-06
3.45946e-06
1.70317e-06
3.1004e-06
2.84376e-06
2.11083e-06
8.43285e-08
1.75642e-06
2.2077e-06
-1.89844e-06
2.49546e-07
1.86557e-06
-2.77223e-06
-1.27857e-06
1.19671e-06
-2.55568e-06
-2.7458e-06
6.05675e-07
-1.46769e-06
-3.97126e-06
1.62332e-07
1.13274e-07
-4.72538e-06
-1.29713e-07
1.85767e-06
-5.11627e-06
-2.38561e-07
3.54338e-06
-5.14152e-06
-2.561e-07
5.10857e-06
-4.94796e-06
-2.56762e-07
6.55019e-06
-4.61239e-06
-2.61968e-07
7.86553e-06
-4.07604e-06
-2.89374e-07
9.08845e-06
-3.25786e-06
-3.31135e-07
1.0165e-05
-2.10091e-06
-4.22813e-07
1.09659e-05
-4.7679e-07
-6.13251e-07
1.13629e-05
1.89879e-06
-7.59349e-07
1.11172e-05
5.03697e-06
-1.0175e-06
8.8781e-06
9.12216e-06
-3.25527e-07
3.93995e-06
1.22255e-05
1.50389e-06
-1.71556e-06
1.11289e-05
2.57801e-06
-6.58432e-06
7.67968e-06
2.3406e-06
-9.49731e-06
6.81464e-06
5.91651e-07
-9.34642e-06
7.99435e-06
-2.8921e-06
-6.48623e-06
9.01661e-06
-6.37859e-06
8.72166e-06
-9.3182e-06
-4.07256e-06
-4.87744e-06
6.52056e-08
-2.88611e-06
-5.17283e-06
-5.30706e-07
-2.796e-06
-3.59216e-06
5.19301e-07
-2.10411e-06
-3.46094e-06
-4.03868e-08
-1.51408e-06
-2.41761e-06
7.86053e-08
-6.46812e-07
-2.08166e-06
-1.6804e-07
-4.53213e-08
-6.89178e-07
-2.25884e-07
-5.94602e-08
1.55909e-07
-4.37492e-08
-3.32797e-07
6.73107e-07
-6.26617e-08
-5.71006e-07
5.68594e-07
-9.69632e-08
-6.84466e-07
3.94099e-07
-1.88602e-07
-7.48075e-07
2.42395e-07
-2.52742e-07
-7.52382e-07
8.77694e-08
-2.94932e-07
-7.04233e-07
-5.18429e-08
-3.24524e-07
-6.09065e-07
-1.4731e-07
-3.4268e-07
-4.98625e-07
-1.86594e-07
-3.54388e-07
-3.93493e-07
-1.6924e-07
-3.5848e-07
-3.01689e-07
-1.52222e-07
-3.6206e-07
-2.26503e-07
-1.18549e-07
-3.61148e-07
-1.67281e-07
-9.1953e-08
-3.58788e-07
-1.25934e-07
-5.80113e-08
-3.53684e-07
-9.92684e-08
-2.68538e-08
-3.49106e-07
-8.51669e-08
4.61695e-09
-3.4535e-07
-7.79901e-08
3.07388e-08
-3.42709e-07
-7.5814e-08
5.48209e-08
-3.41364e-07
-7.65084e-08
7.57846e-08
-3.41375e-07
-7.84133e-08
9.41581e-08
-3.42391e-07
-8.02112e-08
1.10912e-07
-3.44041e-07
-8.11158e-08
1.26152e-07
-3.46138e-07
-8.02737e-08
1.40975e-07
-3.48147e-07
-7.76959e-08
1.5358e-07
-3.50861e-07
-7.28741e-08
1.70759e-07
-3.51912e-07
-6.3566e-08
1.78141e-07
-3.56108e-07
-5.56071e-08
2.03131e-07
-3.54724e-07
-3.81807e-08
1.96794e-07
-3.61024e-07
-3.02023e-08
2.33132e-07
-3.55548e-07
-3.08812e-09
2.06743e-07
-3.63696e-07
-2.49146e-09
2.55672e-07
-3.51472e-07
2.47263e-08
2.07945e-07
-3.58048e-07
1.62351e-08
2.54509e-07
-3.41012e-07
2.04788e-08
2.02581e-07
-3.3834e-07
-1.35729e-08
2.35278e-07
-3.20561e-07
-3.92433e-08
1.87802e-07
-3.1785e-07
-6.8543e-08
1.62399e-07
-3.17109e-07
-6.34554e-08
9.82129e-08
-3.40143e-07
-2.26252e-09
-4.11402e-08
-3.68996e-07
1.52368e-07
-1.74264e-07
-4.43206e-07
4.95564e-07
-4.27868e-07
-5.47214e-07
8.57231e-07
-5.14972e-07
-5.78087e-07
1.66904e-06
-5.50525e-07
-7.30413e-07
1.84013e-06
8.23159e-08
-4.57608e-07
1.65207e-06
2.68647e-06
-4.44427e-07
4.73484e-06
-2.69603e-06
-8.17384e-07
9.76326e-06
-1.15361e-05
-6.6582e-07
1.10046e-05
-1.14658e-05
-3.39791e-07
9.68977e-06
-6.46365e-06
-1.34223e-06
9.13132e-06
5.80559e-06
-1.88511e-06
2.23728e-06
2.37992e-05
-3.90925e-06
2.9009e-06
4.59615e-06
2.59037e-06
-2.92151e-05
-3.24781e-05
-1.36065e-06
-8.82093e-05
-3.1368e-05
5.3492e-06
-4.43169e-05
-1.57534e-05
4.37894e-06
-4.93433e-06
-1.40775e-05
5.19072e-08
-2.29466e-06
-4.39493e-07
-3.43743e-06
3.48782e-06
2.78131e-07
-3.56158e-06
3.00774e-06
4.37568e-06
7.19929e-07
1.5587e-06
4.82117e-06
2.20446e-06
-2.22148e-06
6.17288e-06
3.25909e-06
-7.58245e-06
6.26515e-06
3.66587e-06
-1.26301e-05
5.85167e-06
2.93529e-06
-1.60331e-05
4.79565e-06
2.0775e-06
-1.79323e-05
3.51991e-06
1.177e-06
-1.84697e-05
1.77651e-06
2.72508e-07
-1.80241e-05
6.64787e-08
-5.36757e-07
-1.64223e-05
-1.76914e-06
-1.14792e-06
-1.42336e-05
-3.30584e-06
-1.5786e-06
-1.17925e-05
-4.55066e-06
-1.7596e-06
-9.28649e-06
-5.33177e-06
-1.74496e-06
-6.8189e-06
-5.82099e-06
-1.61869e-06
-4.56423e-06
-5.84379e-06
-1.52452e-06
-2.59392e-06
-5.44328e-06
-1.45833e-06
-8.98082e-07
-4.95369e-06
-1.36327e-06
5.2595e-07
-4.31133e-06
-1.23575e-06
1.74066e-06
-3.43664e-06
-1.10031e-06
2.8307e-06
-2.24851e-06
-9.91602e-07
3.74402e-06
-4.57975e-07
-9.42356e-07
4.34692e-06
2.22564e-06
-9.27158e-07
4.27798e-06
6.07139e-06
-9.23001e-07
2.76008e-06
1.08149e-05
-1.07904e-07
-1.92521e-07
1.38346e-05
1.51042e-06
-3.39731e-06
1.22289e-05
2.22159e-06
-6.78761e-06
9.2324e-06
1.76974e-06
-8.95206e-06
8.96741e-06
-2.14524e-08
-8.76576e-06
1.08867e-05
-3.02456e-06
-6.22822e-06
1.29974e-05
-6.42619e-06
1.35098e-05
-9.76265e-06
-4.69785e-06
-4.87405e-06
-1.55928e-08
-3.37725e-06
-5.50493e-06
-9.88493e-07
-3.17271e-06
-4.00463e-06
2.07936e-07
-2.29383e-06
-3.83066e-06
-5.09152e-07
-1.81767e-06
-2.84037e-06
-5.33877e-08
-1.02465e-06
-2.55557e-06
-3.19108e-07
-2.91313e-07
-1.33432e-06
-8.8199e-08
7.09069e-08
-2.2276e-07
1.6446e-08
4.61214e-08
7.2555e-07
-2.76666e-08
-2.39633e-07
8.94428e-07
-4.00878e-08
-4.71187e-07
7.60723e-07
-1.3508e-07
-6.50838e-07
6.20914e-07
-1.98877e-07
-7.2778e-07
4.19771e-07
-2.55069e-07
-7.18598e-07
2.35212e-07
-2.96246e-07
-6.32063e-07
9.12915e-08
-3.25146e-07
-5.19964e-07
4.36206e-08
-3.42322e-07
-4.14747e-07
7.85766e-08
-3.53042e-07
-3.2771e-07
1.23061e-07
-3.6233e-07
-2.55118e-07
1.78837e-07
-3.69987e-07
-1.9683e-07
2.23522e-07
-3.73772e-07
-1.51527e-07
2.70758e-07
-3.74081e-07
-1.16819e-07
3.10821e-07
-3.72391e-07
-9.19173e-08
3.48004e-07
-3.68294e-07
-7.75466e-08
3.80487e-07
-3.64126e-07
-7.07076e-08
4.08028e-07
-3.60051e-07
-6.87029e-08
4.30244e-07
-3.5647e-07
-6.94346e-08
4.48362e-07
-3.53475e-07
-7.12057e-08
4.63715e-07
-3.51036e-07
-7.28465e-08
4.76761e-07
-3.4897e-07
-7.33846e-08
4.88593e-07
-3.47083e-07
-7.20969e-08
4.97937e-07
-3.45645e-07
-6.92522e-08
5.11e-07
-3.43088e-07
-6.18488e-08
5.14031e-07
-3.43292e-07
-5.60833e-08
5.35431e-07
-3.38066e-07
-4.04685e-08
5.21118e-07
-3.39936e-07
-3.50991e-08
5.57515e-07
-3.2975e-07
-1.56363e-08
5.18868e-07
-3.31584e-07
-2.04778e-08
5.74891e-07
-3.14375e-07
-1.45349e-08
5.14628e-07
-3.12621e-07
-3.8933e-08
5.72837e-07
-2.93927e-07
-6.92998e-08
5.20635e-07
-2.8768e-07
-1.10053e-07
5.53737e-07
-2.77701e-07
-1.64469e-07
5.25235e-07
-2.8301e-07
-1.80796e-07
4.69639e-07
-2.90906e-07
-1.68437e-07
4.20196e-07
-3.34334e-07
-6.6827e-08
2.16303e-07
-3.59046e-07
1.23388e-07
6.92684e-08
-4.33739e-07
4.76664e-07
-2.75226e-07
-5.0591e-07
7.80794e-07
-3.41725e-07
-4.77368e-07
1.6115e-06
-6.54623e-07
-7.26606e-07
2.44121e-06
-9.64033e-08
-6.50982e-07
4.25829e-06
1.90611e-06
-1.03674e-06
5.88017e-06
-3.75805e-06
-5.59909e-07
3.38025e-06
-8.82556e-06
-2.10673e-07
2.9779e-06
-7.42796e-06
-3.63561e-06
1.00576e-06
3.34989e-07
-4.82648e-06
6.77542e-06
8.53762e-06
-8.5019e-06
1.15369e-05
2.78844e-05
-8.84679e-06
1.1363e-05
-8.48432e-06
1.2246e-05
-3.71126e-05
-2.25728e-05
1.31646e-08
-0.000114688
-3.05075e-05
4.76819e-06
-0.000116204
-1.16806e-05
4.19378e-06
-0.000118076
-1.08695e-05
1.80605e-06
-0.000118396
-9.42074e-07
1.19036e-06
-0.000118663
1.90217e-06
1.67237e-06
-0.000119228
6.05579e-06
2.27911e-06
-9.80402e-05
6.57895e-06
2.21462e-06
-0.000106195
7.82648e-06
2.07787e-06
-0.000133849
7.48627e-06
1.46191e-06
-0.000134924
7.08584e-06
5.645e-07
-0.000135789
6.02927e-06
-4.10261e-07
-0.000136648
4.78072e-06
-9.29103e-07
-0.000136697
2.44103e-06
-1.41298e-06
-0.000135168
3.50507e-07
-1.66841e-06
-0.000132153
-2.02042e-06
-1.66167e-06
-0.000130715
-3.88432e-06
-1.54667e-06
-0.000125185
-5.61419e-06
-1.38223e-06
-0.000104583
-6.64311e-06
-1.22459e-06
-5.37558e-05
-7.01776e-06
-1.32941e-06
-1.41238e-05
-7.15863e-06
-1.77974e-06
-1.08438e-05
-5.82449e-06
-2.0506e-06
-7.8543e-06
-4.75149e-06
-2.27297e-06
-5.52008e-06
-3.32743e-06
-2.27699e-06
-3.75295e-06
-1.81455e-06
-2.2988e-06
-2.6092e-06
-1.35141e-06
-2.12283e-06
-1.93175e-06
5.79722e-07
-1.72451e-06
-1.8341e-06
3.16506e-06
-1.04689e-06
-2.23727e-06
6.69267e-06
-2.08182e-07
-3.02407e-06
1.08477e-05
8.58424e-07
-3.9114e-06
1.3023e-05
1.8879e-06
-5.28734e-06
1.16163e-05
2.06091e-06
-7.63614e-06
9.93016e-06
1.58863e-06
-9.24752e-06
1.07796e-05
-2.23433e-07
-8.8556e-06
1.36881e-05
-3.09896e-06
-6.15139e-06
1.68005e-05
-6.37143e-06
1.8365e-05
-9.66529e-06
-5.04161e-06
-4.28534e-06
-4.20578e-07
-3.52162e-06
-5.26639e-06
-1.75852e-06
-3.33051e-06
-3.77058e-06
-4.25144e-07
-2.14884e-06
-3.72311e-06
-1.28921e-06
-1.61856e-06
-2.70756e-06
-6.63082e-07
-1.07955e-06
-2.46089e-06
-6.33694e-07
-5.78823e-07
-1.62098e-06
-2.14064e-07
-5.45278e-08
-6.77808e-07
-6.92554e-08
3.03762e-07
4.62041e-07
-9.47889e-08
1.8577e-07
1.04664e-06
-3.42357e-08
-1.10177e-07
1.15073e-06
-9.40672e-08
-4.43505e-07
1.09722e-06
-1.42994e-07
-6.33355e-07
8.25016e-07
-2.15404e-07
-6.66123e-07
5.47675e-07
-2.79706e-07
-5.84796e-07
3.45137e-07
-3.35182e-07
-4.72899e-07
2.95584e-07
-3.63871e-07
-3.73426e-07
3.52525e-07
-3.73431e-07
-3.04679e-07
4.33443e-07
-3.79139e-07
-2.55696e-07
5.12018e-07
-3.82175e-07
-2.18854e-07
5.71057e-07
-3.84385e-07
-1.87089e-07
6.23257e-07
-3.84273e-07
-1.59948e-07
6.64374e-07
-3.80701e-07
-1.38605e-07
7.0029e-07
-3.73639e-07
-1.23462e-07
7.2968e-07
-3.64341e-07
-1.1386e-07
7.52466e-07
-3.54049e-07
-1.08596e-07
7.69022e-07
-3.44046e-07
-1.06459e-07
7.8106e-07
-3.34841e-07
-1.07397e-07
7.91187e-07
-3.26537e-07
-1.09607e-07
7.97809e-07
-3.18842e-07
-1.11589e-07
8.02331e-07
-3.11757e-07
-1.12739e-07
8.04434e-07
-3.0535e-07
-1.11878e-07
8.08279e-07
-2.98139e-07
-1.08932e-07
8.04657e-07
-2.93574e-07
-1.06797e-07
8.18161e-07
-2.84864e-07
-1.00939e-07
7.99135e-07
-2.83875e-07
-9.99317e-08
8.27648e-07
-2.71137e-07
-1.00326e-07
7.89013e-07
-2.6975e-07
-1.09127e-07
8.35003e-07
-2.51307e-07
-1.31354e-07
7.83146e-07
-2.46289e-07
-1.5364e-07
8.23911e-07
-2.28782e-07
-1.96317e-07
7.86099e-07
-2.22784e-07
-2.14896e-07
7.88061e-07
-2.15739e-07
-2.35345e-07
7.69082e-07
-2.23394e-07
-2.06069e-07
6.69484e-07
-2.29113e-07
-1.53596e-07
6.32937e-07
-2.65209e-07
-2.90316e-08
3.78489e-07
-2.86743e-07
1.39252e-07
2.34154e-07
-3.33163e-07
4.20051e-07
-1.88194e-07
-3.67824e-07
5.68488e-07
-2.20712e-07
-2.69446e-07
9.9026e-07
-6.86563e-07
-3.89825e-07
1.58301e-06
-3.08628e-07
-3.80526e-07
3.60906e-06
9.16522e-07
-1.03647e-06
-2.43871e-06
2.23083e-06
5.88475e-08
-1.31166e-05
4.5144e-06
-2.66211e-06
-1.87662e-05
7.31069e-06
-9.08903e-06
-1.58693e-05
7.95286e-06
-1.05147e-05
4.5071e-06
-1.26887e-06
-1.05701e-05
2.64213e-05
1.0697e-05
-4.72665e-06
7.41183e-06
-1.36529e-05
2.16375e-05
-4.97131e-05
-1.32154e-05
1.98266e-07
-0.000126303
-2.43552e-05
5.7332e-06
-0.000132273
-6.74341e-06
4.71445e-06
-0.000137302
-6.41851e-06
2.02028e-06
-0.000142881
1.69124e-06
1.94172e-07
-0.000146835
4.65029e-06
4.1095e-07
-0.00015149
7.30923e-06
6.30626e-07
-0.00015469
8.87135e-06
5.79944e-07
-0.000155379
9.50225e-06
3.50217e-07
-0.000151842
9.68288e-06
5.04216e-08
-0.000150486
8.9748e-06
-4.53768e-07
-0.00015551
7.63045e-06
-7.06128e-07
-0.000157259
6.01277e-06
-7.67185e-07
-0.000155293
3.21027e-06
-5.51772e-07
-0.00015528
2.55381e-07
-3.17785e-07
-0.000154553
-2.62496e-06
2.99037e-08
-0.000152751
-6.32286e-06
2.92318e-07
-0.000151256
-8.3299e-06
4.7763e-07
-0.000146984
-1.00536e-05
6.54456e-07
-0.00014258
-1.08249e-05
5.32366e-07
-0.000138811
-1.02265e-05
-2.16124e-07
-0.000132152
-8.58451e-06
-1.21572e-06
-0.000124517
-6.7388e-06
-1.93519e-06
-0.000106201
-3.90059e-06
-2.6382e-06
-5.09938e-05
-1.08208e-06
-3.20108e-06
-8.05608e-06
5.11999e-07
-3.68824e-06
-5.87839e-06
3.16097e-06
-3.43605e-06
-4.7774e-06
5.74332e-06
-2.76699e-06
-4.7653e-06
8.01015e-06
-1.45358e-06
-4.77484e-06
1.09953e-05
-1.37513e-07
-4.66469e-06
1.21224e-05
8.82592e-07
-5.49458e-06
1.12321e-05
1.33424e-06
-7.19765e-06
1.069e-05
1.03038e-06
-8.20105e-06
1.25105e-05
-5.26388e-07
-7.8206e-06
1.76186e-05
-2.93267e-06
-5.57559e-06
2.23107e-05
-6.07376e-06
2.43595e-05
-9.1289e-06
-5.47009e-06
-3.37785e-06
-2.38661e-07
-3.85878e-06
-4.91065e-06
-1.96704e-06
-3.541e-06
-3.05637e-06
-1.03197e-06
-2.08705e-06
-3.26228e-06
-1.91476e-06
-1.2268e-06
-2.11714e-06
-1.45067e-06
-7.10853e-07
-1.87931e-06
-1.09752e-06
-3.842e-07
-1.24205e-06
-7.05595e-07
-5.9154e-08
-6.50439e-07
-3.52424e-07
3.21206e-07
3.31635e-07
-2.49967e-07
3.70253e-07
1.1151e-06
-1.17516e-07
1.55165e-07
1.45943e-06
-9.3632e-08
-2.5972e-07
1.58797e-06
-7.58736e-08
-5.28171e-07
1.25255e-06
-1.59096e-07
-5.83811e-07
8.68174e-07
-2.64869e-07
-5.13182e-07
6.28294e-07
-3.53797e-07
-4.23709e-07
5.95307e-07
-3.89207e-07
-3.39779e-07
6.63068e-07
-3.94484e-07
-2.93127e-07
7.71018e-07
-3.84237e-07
-2.66198e-07
8.60934e-07
-3.75854e-07
-2.50467e-07
9.25833e-07
-3.70517e-07
-2.39679e-07
9.77178e-07
-3.64717e-07
-2.31772e-07
1.014e-06
-3.57543e-07
-2.26501e-07
1.04296e-06
-3.47949e-07
-2.23472e-07
1.0637e-06
-3.37062e-07
-2.21423e-07
1.07606e-06
-3.25644e-07
-2.20136e-07
1.08173e-06
-3.14e-07
-2.1976e-07
1.08297e-06
-3.02287e-07
-2.21219e-07
1.08238e-06
-2.8974e-07
-2.23606e-07
1.07959e-06
-2.79397e-07
-2.25916e-07
1.07423e-06
-2.69595e-07
-2.28255e-07
1.06726e-06
-2.6049e-07
-2.27261e-07
1.05972e-06
-2.52436e-07
-2.28184e-07
1.05029e-06
-2.44713e-07
-2.27753e-07
1.054e-06
-2.36272e-07
-2.35614e-07
1.03705e-06
-2.30055e-07
-2.39536e-07
1.05188e-06
-2.20314e-07
-2.61771e-07
1.02376e-06
-2.12509e-07
-2.7451e-07
1.04847e-06
-2.0073e-07
-3.13807e-07
1.01254e-06
-1.9009e-07
-3.29964e-07
1.02041e-06
-1.80343e-07
-3.57809e-07
9.8732e-07
-1.7337e-07
-3.44242e-07
9.4383e-07
-1.69334e-07
-2.99019e-07
9.01459e-07
-1.77593e-07
-2.26595e-07
7.68746e-07
-1.71683e-07
-1.42735e-07
7.3208e-07
-1.82996e-07
-2.6432e-08
4.44735e-07
-1.82546e-07
7.52633e-08
3.12724e-07
-1.8026e-07
2.81177e-07
-2.04857e-07
-1.89249e-07
3.41475e-07
-1.90081e-07
-9.0923e-08
6.39863e-07
-8.68332e-07
-1.1662e-07
1.1711e-06
-6.1552e-07
-2.24346e-07
4.17166e-06
-1.25136e-06
-8.327e-07
1.59692e-06
6.4691e-06
-1.66358e-06
-5.8738e-06
1.71084e-05
-5.1233e-06
-6.47968e-06
1.75841e-05
-9.66757e-06
-1.77446e-06
1.38739e-05
-1.06263e-05
1.06818e-05
-2.04961e-06
-1.16756e-05
3.34771e-05
-3.68316e-06
-8.41493e-06
2.11923e-06
-1.09896e-05
2.38117e-05
-6.44417e-05
-4.21868e-06
-1.49856e-08
-0.000133426
-8.9263e-06
5.76666e-06
-0.00013866
1.04296e-06
5.15175e-06
-0.000148194
2.25702e-06
1.38523e-06
-0.000147269
5.83137e-06
4.01196e-07
-0.000151419
8.06194e-06
8.36771e-08
-0.00016463
9.29685e-06
7.15514e-08
-0.000157787
1.06207e-05
4.78324e-09
-0.000158897
1.07113e-05
-3.1093e-08
-0.000151218
1.06255e-05
-1.58153e-07
-0.000130529
9.53042e-06
-2.41612e-07
-0.000146441
7.46605e-06
-4.44812e-07
-0.000167091
5.42181e-06
-2.51784e-07
-0.000166452
2.26131e-06
-9.92675e-09
-0.000164444
-1.26733e-06
2.71333e-07
-0.000161564
-5.18738e-06
4.58875e-07
-0.000164691
-1.00853e-05
9.6529e-07
-0.000164851
-1.15618e-05
1.49281e-06
-0.000161195
-1.37798e-05
2.10243e-06
-0.000161907
-1.50637e-05
2.52626e-06
-0.000161568
-1.5093e-05
2.54842e-06
-0.000151617
-1.39875e-05
2.02669e-06
-0.000147298
-1.2094e-05
7.9932e-07
-0.000148799
-8.49962e-06
-4.09655e-07
-0.00014175
-4.55118e-06
-1.49991e-06
-0.000132798
-3.47754e-07
-2.19355e-06
-0.000110244
3.19209e-06
-2.1897e-06
-5.14545e-05
6.25201e-06
-1.36038e-06
-7.52593e-06
8.115e-06
-7.18503e-07
-6.20121e-06
1.02132e-05
2.66142e-07
-5.27596e-06
1.10644e-05
5.52179e-07
-5.42042e-06
1.19162e-05
3.64495e-07
-7.07661e-06
1.32854e-05
-2.53281e-07
-6.23676e-05
1.63444e-05
-1.78403e-06
-0.000114255
2.08815e-05
-4.45828e-06
-0.000116976
2.64966e-05
-7.46918e-06
2.7997e-05
-9.41183e-06
-5.33989e-06
-2.73474e-06
9.87226e-07
-4.02444e-06
-4.5306e-06
-1.69549e-06
-3.92528e-06
-1.96627e-06
-1.18926e-06
-2.49719e-06
-2.60071e-06
-2.08965e-06
-1.44022e-06
-1.44991e-06
-1.7242e-06
-6.01654e-07
-1.31513e-06
-1.40275e-06
-2.24054e-07
-6.1791e-07
-1.00174e-06
-1.059e-07
-2.82734e-07
-4.85871e-07
1.13585e-07
4.01218e-07
-2.89081e-07
2.27574e-07
1.13514e-06
-1.34046e-07
2.44854e-07
1.52912e-06
-8.69757e-08
1.11064e-07
1.76007e-06
-3.83255e-08
-1.16189e-08
1.56872e-06
-1.93501e-07
-9.7268e-08
1.27491e-06
-3.21103e-07
-1.49354e-07
1.10785e-06
-4.27481e-07
-2.06799e-07
1.13456e-06
-4.81823e-07
-2.55609e-07
1.22905e-06
-5.17186e-07
-3.02631e-07
1.3446e-06
-5.26572e-07
-3.42462e-07
1.43458e-06
-5.33829e-07
-3.67019e-07
1.48579e-06
-5.35405e-07
-3.78677e-07
1.52256e-06
-5.33736e-07
-3.83738e-07
1.54931e-06
-5.30257e-07
-3.84206e-07
1.56942e-06
-5.26005e-07
-3.82827e-07
1.58331e-06
-5.20993e-07
-3.79844e-07
1.58973e-06
-5.16666e-07
-3.76638e-07
1.59115e-06
-5.12638e-07
-3.75216e-07
1.58965e-06
-5.08109e-07
-3.75921e-07
1.58636e-06
-5.03276e-07
-3.78834e-07
1.58111e-06
-4.98615e-07
-3.82265e-07
1.57245e-06
-4.94792e-07
-3.85418e-07
1.56165e-06
-4.91241e-07
-3.84774e-07
1.54785e-06
-4.88774e-07
-3.87133e-07
1.53772e-06
-4.85067e-07
-3.90938e-07
1.53883e-06
-4.81027e-07
-4.11314e-07
1.53289e-06
-4.75467e-07
-4.24912e-07
1.53673e-06
-4.71248e-07
-4.64483e-07
1.52648e-06
-4.63146e-07
-4.82083e-07
1.52495e-06
-4.58872e-07
-5.26922e-07
1.50711e-06
-4.49738e-07
-5.3023e-07
1.47345e-06
-4.49729e-07
-5.35484e-07
1.4411e-06
-4.48523e-07
-4.97682e-07
1.35851e-06
-4.52475e-07
-4.09796e-07
1.28442e-06
-4.70843e-07
-3.16788e-07
1.14902e-06
-4.73282e-07
-2.0254e-07
1.09436e-06
-4.76525e-07
-1.11693e-07
8.38755e-07
-4.84864e-07
-3.86621e-08
6.97668e-07
-4.57974e-07
7.02108e-08
1.59082e-07
-4.72809e-07
5.49232e-08
1.30987e-07
-3.05781e-07
2.5946e-07
-7.4381e-07
-3.29058e-07
1.04594e-06
-9.7e-07
-4.32009e-07
5.13998e-06
-3.99067e-06
-1.35473e-06
1.00178e-05
2.80865e-06
-1.21744e-06
1.01164e-05
1.92009e-05
-2.19124e-06
1.13139e-05
2.03966e-05
-4.00994e-06
1.81961e-05
1.59028e-05
-8.9111e-06
1.96559e-05
9.58051e-06
-1.309e-05
3.61634e-05
-7.55546e-06
-1.26351e-05
-1.18598e-06
-7.34179e-06
2.66243e-05
-8.68968e-05
8.27801e-06
3.98307e-07
-0.000169119
1.40775e-05
7.4021e-06
-0.000181899
1.13249e-05
5.9899e-06
-0.000189625
1.26835e-05
1.38497e-06
-0.000194624
1.13026e-05
4.18199e-07
-0.000197234
1.15711e-05
4.11182e-08
-0.000197006
1.15872e-05
1.05806e-07
-0.000184614
1.17074e-05
-2.05524e-07
-0.000188274
1.13218e-05
-3.72449e-07
-0.000200976
1.07931e-05
-4.60303e-07
-0.000199154
9.57407e-06
-7.46067e-07
-0.000198294
7.18497e-06
-1.10417e-06
-0.000197921
4.79374e-06
-1.24309e-06
-0.000200338
1.16715e-06
-1.44364e-06
-0.000202973
-2.53042e-06
-1.53893e-06
-0.000196292
-6.74447e-06
-1.63132e-06
-0.00017892
-1.0341e-05
-6.4393e-07
-0.000179763
-1.27532e-05
1.24521e-07
-0.000192321
-1.47828e-05
1.61545e-06
-0.000194478
-1.59301e-05
3.40153e-06
-0.000197234
-1.63744e-05
4.4074e-06
-0.000200253
-1.61372e-05
4.96109e-06
-0.000200529
-1.50626e-05
4.53174e-06
-0.000199649
-1.2982e-05
3.57709e-06
-0.000197669
-9.26625e-06
1.92527e-06
-0.000194251
-4.18757e-06
6.21638e-07
-0.000190503
-1.21442e-06
-1.46806e-09
-0.000186189
2.72385e-06
-8.38786e-08
-0.000181373
6.6701e-06
3.14316e-07
-0.000178192
8.85945e-06
4.524e-07
-0.000178186
1.08009e-05
-4.07689e-08
-0.000179261
1.32522e-05
-1.00092e-06
-0.000179708
1.60615e-05
-2.23868e-06
-0.00018214
1.96425e-05
-4.10276e-06
-0.000178899
2.25288e-05
-6.17458e-06
-0.000168679
2.55033e-05
-8.84874e-06
2.29188e-05
-8.99591e-06
-4.69551e-06
-7.96626e-07
2.8557e-06
-3.52121e-06
-4.3489e-06
-1.356e-06
-3.82135e-06
-8.69685e-07
-7.96434e-07
-2.75785e-06
-2.12721e-06
-1.537e-06
-1.88932e-06
-9.53929e-07
-1.3645e-06
-8.78013e-07
-1.16224e-06
-1.1642e-06
-4.38827e-07
-3.59926e-07
-6.9718e-07
-3.26673e-07
-1.28249e-07
-2.66651e-07
-1.9348e-07
3.17983e-07
-4.99715e-08
-4.47612e-08
9.559e-07
3.05122e-08
1.90251e-07
1.25136e-06
4.27318e-08
3.68328e-07
1.37127e-06
2.10716e-07
3.94005e-07
1.32282e-06
2.2021e-07