/*--------------------------------*- C++ -*----------------------------------*\
| =========                 |                                                 |
| \\      /  F ield         | OpenFOAM: The Open Source CFD Toolbox           |
|  \\    /   O peration     | Version:  2.3.0                                 |
|   \\  /    A nd           | Web:      www.OpenFOAM.org                      |
|    \\/     M anipulation  |                                                 |
\*---------------------------------------------------------------------------*/
FoamFile
{
    version     2.0;
    format      ascii;
    class       surfaceScalarField;
    location    "26";
    object      phi.water;
}
// * * * * * * * * * * * * * * * * * * * * * * * * * * * * * * * * * * * * * //

dimensions      [0 3 -1 0 0 0 0];

internalField   nonuniform List<scalar> 
16448
(
-8.31445e-07
-2.45887e-06
7.79406e-07
6.63277e-07
-2.44169e-06
9.51876e-07
8.0381e-07
-1.29624e-06
1.15859e-06
9.60214e-07
-1.22143e-06
1.06738e-06
7.96896e-07
-6.88235e-07
8.54906e-07
6.76219e-07
-6.44663e-07
7.68254e-07
4.03281e-07
-3.36765e-07
6.13972e-07
1.5991e-07
-2.95592e-07
5.43605e-07
-9.1317e-08
-2.49699e-07
5.03614e-07
-3.19161e-07
-2.39339e-07
4.67543e-07
-4.80739e-07
-2.62242e-07
4.24049e-07
-5.14137e-07
-3.17503e-07
3.51119e-07
-4.48873e-07
-3.84121e-07
3.19118e-07
-3.20202e-07
-4.32315e-07
3.03854e-07
-1.97797e-07
-4.54626e-07
3.32507e-07
-8.45199e-08
-4.71814e-07
3.58758e-07
-1.04893e-08
-4.75678e-07
4.0193e-07
4.61824e-08
-4.87724e-07
4.31282e-07
8.12039e-08
-4.95307e-07
4.6054e-07
1.0376e-07
-4.98591e-07
4.76266e-07
1.15007e-07
-4.9813e-07
4.87124e-07
1.19471e-07
-4.94784e-07
4.90544e-07
1.1875e-07
-4.89229e-07
4.90189e-07
1.15595e-07
-4.82698e-07
4.86084e-07
1.11435e-07
-4.75135e-07
4.79535e-07
1.07926e-07
-4.67428e-07
4.71172e-07
1.06167e-07
-4.59786e-07
4.61798e-07
1.06307e-07
-4.52049e-07
4.52157e-07
1.0843e-07
-4.44358e-07
4.42502e-07
1.11691e-07
-4.36487e-07
4.33482e-07
1.16968e-07
-4.29446e-07
4.24453e-07
1.21118e-07
-4.21389e-07
4.17496e-07
1.27885e-07
-4.16543e-07
4.10074e-07
1.30661e-07
-4.07598e-07
4.05077e-07
1.39227e-07
-4.04914e-07
3.96666e-07
1.43621e-07
-3.95363e-07
3.91219e-07
1.56677e-07
-3.92789e-07
3.80069e-07
1.69605e-07
-3.83636e-07
3.70945e-07
1.95407e-07
-3.81932e-07
3.56482e-07
2.32075e-07
-3.78612e-07
3.42163e-07
2.83391e-07
-3.79027e-07
3.281e-07
3.58378e-07
-3.93048e-07
3.1825e-07
4.27804e-07
-3.93238e-07
3.24263e-07
5.22032e-07
-4.36022e-07
3.41927e-07
5.58756e-07
-4.338e-07
3.97604e-07
6.12138e-07
-5.02312e-07
4.48998e-07
5.98466e-07
-5.10949e-07
5.25328e-07
5.84032e-07
-5.31812e-07
5.46185e-07
6.29032e-07
-5.78306e-07
5.36297e-07
3.94376e-07
-3.24161e-07
5.65565e-07
3.44266e-07
-4.55385e-07
5.53412e-07
-1.3904e-07
-2.08785e-07
7.54943e-07
-1.47388e-06
2.75985e-08
1.46757e-06
-2.4408e-06
-1.27437e-06
2.24678e-06
-2.30004e-06
-4.20608e-06
4.25075e-06
-2.79118e-06
-4.64003e-06
4.9425e-06
7.3456e-07
-2.7015e-06
5.78407e-07
-1.50858e-07
-9.23859e-07
1.0729e-06
4.32381e-06
4.8169e-07
3.68087e-06
2.7203e-05
-1.62051e-05
1.42952e-05
2.09209e-05
-2.33007e-05
3.62739e-06
2.62949e-05
-1.08278e-05
3.3768e-06
2.45861e-05
-5.15567e-07
2.21623e-06
2.56901e-05
-1.87917e-06
7.75192e-07
2.6754e-05
-1.01555e-06
-4.8371e-08
2.71502e-05
8.14977e-08
-4.77773e-07
2.67044e-05
9.84107e-07
-5.38294e-07
2.57993e-05
1.27147e-06
-3.66381e-07
2.46267e-05
1.30137e-06
-1.28798e-07
2.3357e-05
1.17085e-06
9.88651e-08
2.20933e-05
9.48781e-07
3.14904e-07
2.10053e-05
5.89744e-07
4.9824e-07
2.02401e-05
7.76571e-08
6.8753e-07
1.97756e-05
-4.02005e-07
8.66501e-07
1.96518e-05
-9.01414e-07
1.02521e-06
1.98643e-05
-1.34497e-06
1.13253e-06
2.03566e-05
-1.67804e-06
1.18573e-06
2.10551e-05
-1.90575e-06
1.2072e-06
2.18593e-05
-2.01258e-06
1.20839e-06
2.26919e-05
-2.04331e-06
1.21066e-06
2.34724e-05
-1.97916e-06
1.19868e-06
2.4125e-05
-1.84092e-06
1.18835e-06
2.46257e-05
-1.67175e-06
1.17106e-06
2.4778e-05
-1.25132e-06
1.09899e-06
2.45019e-05
-7.73001e-07
1.04908e-06
2.37419e-05
-2.02237e-07
9.62241e-07
2.18244e-05
9.03504e-07
1.01403e-06
1.89011e-05
1.88776e-06
1.03557e-06
1.36642e-05
3.68649e-06
1.55045e-06
6.13314e-06
4.51452e-06
3.0165e-06
-1.23187e-06
3.61603e-06
3.74899e-06
-6.67489e-06
2.43825e-06
3.00477e-06
-9.63152e-06
2.37893e-06
5.77703e-07
-9.1476e-06
2.54377e-06
-3.02769e-06
-5.6128e-06
2.31154e-06
-5.84633e-06
1.81373e-06
-7.42654e-06
-2.29936e-06
-3.75006e-06
1.5491e-07
-1.20665e-06
-3.69825e-06
1.70889e-07
-9.01242e-07
-2.29402e-06
6.97259e-07
-3.03417e-07
-2.12213e-06
3.07379e-07
9.20036e-08
-1.22206e-06
1.43256e-07
3.37152e-07
-9.81227e-07
9.49811e-08
3.5182e-07
-3.56098e-07
9.0961e-09
1.43266e-07
-1.5431e-07
7.1131e-08
-1.98924e-07
-1.88341e-08
1.12938e-07
-4.9717e-07
-5.03774e-08
1.09041e-07
-6.72078e-07
-1.46517e-07
5.91147e-08
-6.99149e-07
-2.8476e-07
-5.75733e-09
-6.3139e-07
-4.0662e-07
-4.52272e-08
-4.97379e-07
-5.00394e-07
-6.59387e-08
-3.53444e-07
-5.45466e-07
-5.30392e-08
-2.14879e-07
-5.73488e-07
-3.68943e-08
-1.15756e-07
-5.7124e-07
-3.52738e-09
-3.60075e-08
-5.79377e-07
1.1907e-08
1.63205e-08
-5.76436e-07
2.88627e-08
5.3362e-08
-5.73477e-07
3.78898e-08
7.47671e-08
-5.64048e-07
4.45786e-08
8.57275e-08
-5.52493e-07
4.68125e-08
8.91893e-08
-5.38864e-07
4.62409e-08
8.80437e-08
-5.24666e-07
4.31805e-08
8.49803e-08
-5.10408e-07
3.83996e-08
8.20553e-08
-4.96883e-07
3.24412e-08
8.07501e-08
-4.84185e-07
2.57633e-08
8.12402e-08
-4.7159e-07
1.91065e-08
8.42539e-08
-4.59713e-07
1.23945e-08
8.75877e-08
-4.46613e-07
6.83165e-09
9.46067e-08
-4.36625e-07
2.0131e-10
9.73326e-08
-4.20318e-07
-3.76824e-09
1.0764e-07
-4.1341e-07
-1.33778e-08
1.09075e-07
-3.93605e-07
-1.53916e-08
1.23098e-07
-3.92778e-07
-2.60708e-08
1.26326e-07
-3.70479e-07
-2.80783e-08
1.48242e-07
-3.73731e-07
-4.08582e-08
1.61905e-07
-3.50849e-07
-4.64348e-08
2.00408e-07
-3.61797e-07
-5.84877e-08
2.40326e-07
-3.47041e-07
-7.14901e-08
2.98291e-07
-3.67202e-07
-6.95907e-08
3.60292e-07
-3.73923e-07
-8.11411e-08
4.17322e-07
-3.95283e-07
-5.4734e-08
4.61333e-07
-4.35552e-07
-4.4535e-08
4.80099e-07
-4.62072e-07
9.79886e-09
5.04064e-07
-5.51896e-07
2.54956e-08
5.39198e-07
-6.03551e-07
5.80226e-08
6.63292e-07
-6.90387e-07
3.43196e-08
8.2927e-07
-7.61589e-07
1.88992e-08
9.02819e-07
-4.21445e-07
2.59097e-08
1.06017e-06
-5.68055e-07
4.7336e-09
2.55116e-07
3.74961e-07
2.87036e-07
-9.77155e-07
9.52734e-07
4.82352e-07
-7.64545e-07
-2.64834e-06
1.14522e-06
2.37415e-06
-8.5491e-06
1.38552e-06
4.17119e-06
-9.39093e-06
2.82383e-06
-1.07043e-06
2.98052e-06
6.39552e-07
-1.00616e-05
5.689e-06
1.63116e-06
1.05847e-06
1.932e-06
-3.08968e-06
2.89012e-05
-3.32939e-05
6.68344e-06
1.0589e-05
-3.36341e-05
2.55997e-06
9.28852e-06
-1.34903e-05
1.5468e-06
1.43039e-05
-3.94127e-06
-1.59352e-06
1.77287e-05
-2.38574e-06
-2.91824e-06
1.9145e-05
6.32027e-07
-3.06386e-06
2.01908e-05
1.92488e-06
-2.88926e-06
2.06075e-05
2.90257e-06
-2.33515e-06
2.03311e-05
3.33387e-06
-1.78604e-06
1.96569e-05
3.16789e-06
-1.19225e-06
1.87426e-05
2.77952e-06
-6.94463e-07
1.76306e-05
2.33744e-06
-2.76694e-07
1.64e-05
1.7133e-06
1.07055e-07
1.51208e-05
9.65717e-07
3.9116e-07
1.39849e-05
1.20902e-07
6.1294e-07
1.32633e-05
-9.78729e-07
7.98988e-07
1.29965e-05
-1.95299e-06
8.74815e-07
1.32099e-05
-2.75854e-06
8.67097e-07
1.38089e-05
-3.30707e-06
8.02279e-07
1.46838e-05
-3.6367e-06
7.49235e-07
1.5663e-05
-3.7328e-06
7.10283e-07
1.66638e-05
-3.64864e-06
6.68626e-07
1.76115e-05
-3.42617e-06
6.37597e-07
1.84373e-05
-3.0308e-06
5.33258e-07
1.91162e-05
-2.35011e-06
4.199e-07
1.94501e-05
-1.44377e-06
3.36881e-07
1.94277e-05
-3.02073e-07
1.22182e-07
1.86746e-05
1.51652e-06
1.40084e-07
1.67824e-05
3.73815e-06
4.18506e-08
1.31752e-05
6.53546e-06
7.58207e-07
6.67243e-06
8.69374e-06
2.32354e-06
-8.12024e-07
7.91592e-06
3.18457e-06
-6.34978e-06
5.19797e-06
2.77805e-06
-9.2647e-06
4.54217e-06
7.51673e-07
-8.8621e-06
5.17668e-06
-3.03551e-06
-5.66795e-06
5.42784e-06
-6.31045e-06
4.78602e-06
-8.64023e-06
-3.25395e-06
-4.4385e-06
-3.11974e-08
-2.19309e-06
-4.5165e-06
-2.35077e-07
-2.02075e-06
-2.98234e-06
5.22022e-07
-1.37927e-06
-2.80901e-06
4.98697e-08
-8.35867e-07
-1.74853e-06
-1.17146e-08
-2.62374e-07
-1.38205e-06
-1.67937e-07
-3.23036e-08
-3.13418e-07
-2.67892e-07
-1.6327e-07
9.82021e-08
-1.18461e-07
-4.22673e-07
3.37274e-07
-9.53222e-08
-6.14604e-07
2.33532e-07
-9.16899e-08
-7.09869e-07
9.21208e-08
-1.43001e-07
-7.20893e-07
-7.3901e-08
-1.9958e-07
-6.77397e-07
-2.11449e-07
-2.38486e-07
-5.88528e-07
-3.28228e-07
-2.60951e-07
-4.70452e-07
-3.94852e-07
-2.68611e-07
-3.45464e-07
-4.30587e-07
-2.67851e-07
-2.37831e-07
-4.22641e-07
-2.56159e-07
-1.45931e-07
-4.22537e-07
-2.48702e-07
-7.91303e-08
-4.04571e-07
-2.38588e-07
-2.80815e-08
-3.91585e-07
-2.32891e-07
4.59922e-09
-3.70417e-07
-2.26233e-07
2.446e-08
-3.49372e-07
-2.22919e-07
3.3793e-08
-3.26714e-07
-2.21404e-07
3.61964e-08
-3.04884e-07
-2.2211e-07
3.45277e-08
-2.84462e-07
-2.24191e-07
3.16447e-08
-2.66389e-07
-2.27523e-07
2.93216e-08
-2.50246e-07
-2.31515e-07
2.85973e-08
-2.35044e-07
-2.35723e-07
2.99849e-08
-2.21013e-07
-2.39975e-07
3.38267e-08
-2.0646e-07
-2.43894e-07
4.02534e-08
-1.94836e-07
-2.48082e-07
4.72458e-08
-1.76471e-07
-2.50739e-07
5.86207e-08
-1.68799e-07
-2.55824e-07
6.53575e-08
-1.43781e-07
-2.5646e-07
8.41386e-08
-1.4695e-07
-2.6443e-07
9.07112e-08
-1.14588e-07
-2.62348e-07
1.1989e-07
-1.29992e-07
-2.72732e-07
1.33543e-07
-9.53516e-08
-2.69036e-07
1.71123e-07
-1.23039e-07
-2.76118e-07
1.89832e-07
-9.51373e-08
-2.70512e-07
2.22118e-07
-1.31661e-07
-2.67566e-07
2.20905e-07
-1.19459e-07
-2.53175e-07
2.22019e-07
-1.5584e-07
-2.40268e-07
1.91427e-07
-1.84093e-07
-2.20831e-07
1.84049e-07
-2.36905e-07
-2.17488e-07
2.19015e-07
-3.48945e-07
-2.37898e-07
3.31983e-07
-4.62768e-07
-2.53183e-07
6.34433e-07
-6.3175e-07
-3.61002e-07
9.77027e-07
-7.31096e-07
-3.71388e-07
1.39647e-06
-4.68666e-07
-3.70079e-07
1.30998e-06
-2.03132e-07
-2.29834e-07
-4.04634e-07
2.05248e-06
8.16892e-08
1.73996e-06
-4.19983e-07
-5.68357e-07
7.26448e-06
-7.2074e-06
-9.95343e-07
8.77092e-06
-1.05627e-05
7.97705e-07
6.75226e-06
-9.12012e-06
1.56555e-06
8.82402e-06
3.35514e-06
-8.59303e-07
-6.02881e-07
1.29289e-05
7.68013e-07
7.24666e-06
7.9644e-06
-2.30758e-06
2.81911e-05
-3.55012e-05
1.24712e-07
2.86776e-06
-3.70321e-05
2.55524e-06
1.33259e-06
-1.56507e-05
1.33534e-06
1.30642e-05
-1.37764e-05
-1.89727e-06
1.42089e-05
-5.27775e-07
-3.00267e-06
1.5191e-05
2.3715e-06
-2.72154e-06
1.60693e-05
2.86607e-06
-1.81956e-06
1.58289e-05
4.10648e-06
-9.63469e-07
1.46269e-05
4.66543e-06
-1.2961e-07
1.2929e-05
4.19619e-06
6.6954e-07
1.07444e-05
3.71873e-06
1.24541e-06
7.93349e-06
3.45745e-06
1.69091e-06
4.69354e-06
2.85371e-06
2.09953e-06
1.69715e-06
1.76505e-06
2.19706e-06
-2.82691e-07
2.44184e-07
1.85655e-06
-1.17345e-06
-1.27603e-06
1.18806e-06
-9.78444e-07
-2.74788e-06
5.99881e-07
9.01062e-08
-3.98614e-06
1.59049e-07
1.65848e-06
-4.74331e-06
-1.32139e-07
3.39562e-06
-5.13354e-06
-2.40299e-07
5.0763e-06
-5.15578e-06
-2.57697e-07
6.64641e-06
-4.96019e-06
-2.58566e-07
8.10733e-06
-4.623e-06
-2.64085e-07
9.45404e-06
-4.08517e-06
-2.92329e-07
1.07066e-05
-3.26706e-06
-3.3564e-07
1.18009e-05
-2.10999e-06
-4.27999e-07
1.25996e-05
-4.81622e-07
-6.19203e-07
1.29908e-05
1.89094e-06
-7.65621e-07
1.27191e-05
5.03178e-06
-1.02195e-06
1.04598e-05
9.12354e-06
-3.28707e-07
5.41402e-06
1.22323e-05
1.50725e-06
-3.96157e-07
1.11379e-05
2.58824e-06
-5.24205e-06
7.68559e-06
2.35828e-06
-8.12362e-06
6.81968e-06
6.04064e-07
-8.07988e-06
7.98494e-06
-2.85199e-06
-5.3391e-06
9.01305e-06
-6.326e-06
8.71768e-06
-9.27076e-06
-4.02446e-06
-4.87733e-06
6.48662e-08
-2.83114e-06
-5.17231e-06
-5.30748e-07
-2.73373e-06
-3.59176e-06
5.19232e-07
-2.03752e-06
-3.4604e-06
-4.07094e-08
-1.44194e-06
-2.41706e-06
7.84441e-08
-5.68091e-07
-2.08107e-06
-1.68274e-07
4.03628e-08
-6.88728e-07
-2.26292e-07
3.01173e-08
1.56148e-07
-4.44312e-08
-2.41957e-07
6.73239e-07
-6.32226e-08
-4.79632e-07
5.6872e-07
-9.73358e-08
-5.92361e-07
3.9417e-07
-1.88852e-07
-6.55365e-07
2.42445e-07
-2.52917e-07
-6.59258e-07
8.7803e-08
-2.95065e-07
-6.10791e-07
-5.18232e-08
-3.24638e-07
-5.15319e-07
-1.47295e-07
-3.42792e-07
-4.04578e-07
-1.86586e-07
-3.54496e-07
-2.9912e-07
-1.69245e-07
-3.58587e-07
-2.06997e-07
-1.52236e-07
-3.62163e-07
-1.31472e-07
-1.18576e-07
-3.61249e-07
-7.19206e-08
-9.19887e-08
-3.58886e-07
-3.02274e-08
-5.80616e-08
-3.53784e-07
-3.22047e-09
-2.69165e-08
-3.49203e-07
1.12348e-08
4.53513e-09
-3.45448e-07
1.87635e-08
3.06612e-08
-3.42803e-07
2.12938e-08
5.47376e-08
-3.41459e-07
2.09605e-08
7.56982e-08
-3.41467e-07
1.94187e-08
9.40631e-08
-3.42482e-07
1.79886e-08
1.10813e-07
-3.44128e-07
1.74553e-08
1.26043e-07
-3.46226e-07
1.86622e-08
1.40861e-07
-3.48231e-07
2.16273e-08
1.53456e-07
-3.50944e-07
2.68017e-08
1.70629e-07
-3.51992e-07
3.65191e-08
1.78001e-07
-3.56186e-07
4.48191e-08
2.02985e-07
-3.54802e-07
6.26713e-08
1.96639e-07
-3.61099e-07
7.09874e-08
2.32971e-07
-3.55625e-07
9.85155e-08
2.06573e-07
-3.6377e-07
9.9469e-08
2.55492e-07
-3.51549e-07
1.27108e-07
2.07767e-07
-3.58123e-07
1.18946e-07
2.54331e-07
-3.41092e-07
1.23631e-07
2.02417e-07
-3.38421e-07
8.99128e-08
2.35115e-07
-3.20649e-07
6.46954e-08
1.87679e-07
-3.17935e-07
3.56648e-08
1.62276e-07
-3.17192e-07
4.13066e-08
9.81527e-08
-3.40212e-07
1.02806e-07
-4.11747e-08
-3.69057e-07
2.58079e-07
-1.74228e-07
-4.43234e-07
6.01685e-07
-4.27787e-07
-5.47213e-07
9.65756e-07
-5.14788e-07
-5.78097e-07
1.78282e-06
-5.50141e-07
-7.30161e-07
1.99217e-06
8.30579e-08
-4.57657e-07
1.84941e-06
2.68747e-06
-4.43826e-07
5.22584e-06
-2.70197e-06
-8.15723e-07
1.02642e-05
-1.15396e-05
-6.88752e-07
1.17933e-05
-1.14966e-05
-3.65594e-07
1.03208e-05
-6.45661e-06
-1.35722e-06
1.09915e-05
5.83395e-06
-1.9134e-06
3.80588e-06
2.35597e-05
-3.93504e-06
1.86204e-05
4.08424e-06
2.4305e-06
3.14576e-05
-3.04085e-05
-1.23682e-06
-4.17613e-07
-3.63056e-05
3.41782e-06
-5.27896e-06
-1.61039e-05
2.44143e-06
-3.01001e-06
-1.66011e-05
5.55662e-07
-5.26311e-07
4.27317e-07
-3.43878e-06
4.97913e-06
3.09316e-07
-3.44327e-06
4.63431e-06
3.50326e-06
-2.92385e-07
3.13051e-06
4.27672e-06
1.33355e-06
-6.32853e-07
5.95944e-06
2.46934e-06
-5.98396e-06
6.28098e-06
3.2663e-06
-1.10416e-05
5.86638e-06
2.91001e-06
-1.44464e-05
4.8144e-06
2.04778e-06
-1.63077e-05
3.50417e-06
1.21092e-06
-1.67446e-05
1.84841e-06
3.53497e-07
-1.62289e-05
1.9623e-07
-4.67794e-07
-1.46264e-05
-1.74357e-06
-1.13492e-06
-1.2489e-05
-3.32142e-06
-1.56388e-06
-1.00811e-05
-4.62909e-06
-1.76495e-06
-7.61055e-06
-5.47e-06
-1.74385e-06
-5.18343e-06
-5.94486e-06
-1.6158e-06
-2.95575e-06
-5.86213e-06
-1.52133e-06
-1.00918e-06
-5.45103e-06
-1.45573e-06
6.82947e-07
-4.95317e-06
-1.36197e-06
2.14227e-06
-4.30867e-06
-1.23582e-06
3.41159e-06
-3.43358e-06
-1.1028e-06
4.54964e-06
-2.25075e-06
-9.9729e-07
5.47895e-06
-4.61009e-07
-9.49924e-07
6.09461e-06
2.21076e-06
-9.35476e-07
6.01176e-06
6.04639e-06
-9.31765e-07
4.46379e-06
1.07864e-05
-1.14908e-07
1.36083e-06
1.38265e-05
1.50876e-06
-1.96485e-06
1.22353e-05
2.22822e-06
-5.30043e-06
9.23761e-06
1.78355e-06
-7.42678e-06
8.97079e-06
-2.47591e-08
-7.34541e-06
1.08915e-05
-2.98793e-06
-4.94888e-06
1.29956e-05
-6.37907e-06
1.34951e-05
-9.72627e-06
-4.65307e-06
-4.87384e-06
-1.6119e-08
-3.32711e-06
-5.50433e-06
-9.88569e-07
-3.1142e-06
-4.00399e-06
2.07707e-07
-2.23087e-06
-3.82992e-06
-5.10012e-07
-1.74908e-06
-2.8398e-06
-5.37415e-08
-9.49298e-07
-2.55499e-06
-3.19343e-07
-2.07511e-07
-1.33363e-06
-8.84813e-08
1.60608e-07
-2.22204e-07
1.58451e-08
1.37968e-07
7.25849e-07
-2.82944e-08
-1.4728e-07
8.9468e-07
-4.06154e-08
-3.78055e-07
7.60885e-07
-1.35463e-07
-5.56969e-07
6.20974e-07
-1.99175e-07
-6.33362e-07
4.1977e-07
-2.55318e-07
-6.23753e-07
2.35183e-07
-2.96477e-07
-5.36815e-07
9.1245e-08
-3.25379e-07
-4.24317e-07
4.35571e-08
-3.42558e-07
-3.18674e-07
7.84853e-08
-3.53275e-07
-2.31214e-07
1.22938e-07
-3.6256e-07
-1.5818e-07
1.78689e-07
-3.7021e-07
-9.94618e-08
2.23348e-07
-3.73995e-07
-5.3709e-08
2.70568e-07
-3.74301e-07
-1.85616e-08
3.10611e-07
-3.72612e-07
6.79217e-09
3.47782e-07
-3.68513e-07
2.16133e-08
3.8025e-07
-3.64346e-07
2.89109e-08
4.07783e-07
-3.60269e-07
3.13719e-08
4.29986e-07
-3.5669e-07
3.1107e-08
4.48097e-07
-3.53693e-07
2.97993e-08
4.63438e-07
-3.51256e-07
2.86331e-08
4.76479e-07
-3.49189e-07
2.85567e-08
4.88301e-07
-3.47303e-07
3.03331e-08
4.97641e-07
-3.45863e-07
3.36263e-08
5.10696e-07
-3.43309e-07
4.1542e-08
5.13724e-07
-3.4351e-07
4.77434e-08
5.35117e-07
-3.3829e-07
6.38907e-08
5.20804e-07
-3.40158e-07
6.96893e-08
5.57197e-07
-3.29982e-07
8.96824e-08
5.18556e-07
-3.31811e-07
8.52699e-08
5.74579e-07
-3.14614e-07
9.17461e-08
5.14331e-07
-3.12856e-07
6.77645e-08
5.72542e-07
-2.94175e-07
3.79867e-08
5.20357e-07
-2.87927e-07
-2.48386e-09
5.53465e-07
-2.77956e-07
-5.61453e-08
5.24975e-07
-2.83262e-07
-7.22003e-08
4.69399e-07
-2.91158e-07
-5.90635e-08
4.1997e-07
-3.34569e-07
4.28108e-08
2.16143e-07
-3.59286e-07
2.33911e-07
6.91965e-08
-4.33958e-07
5.87958e-07
-2.75297e-07
-5.06151e-07
8.95343e-07
-3.41731e-07
-4.77658e-07
1.73236e-06
-6.54599e-07
-7.26635e-07
2.5795e-06
-9.62728e-08
-6.50887e-07
4.5039e-06
1.90647e-06
-1.03557e-06
6.43289e-06
-3.74874e-06
-5.58422e-07
3.99268e-06
-8.74616e-06
-2.43903e-07
3.84734e-06
-7.35947e-06
-3.57573e-06
1.75056e-06
3.02198e-07
-4.80708e-06
8.38055e-06
8.53758e-06
-8.40004e-06
1.31738e-05
2.7783e-05
-8.76662e-06
3.18929e-05
-8.82839e-06
1.22493e-05
3.63799e-05
-2.02776e-05
6.18303e-07
-2.2258e-06
-3.37434e-05
3.57269e-06
-1.26383e-05
-1.21716e-05
4.94466e-06
-1.63564e-05
-1.42452e-05
1.35768e-06
-1.41466e-05
-2.11383e-06
3.30137e-07
-1.49079e-05
7.45702e-08
9.9524e-07
-1.82142e-05
5.02329e-06
1.78583e-06
-2.18891e-05
5.96908e-06
1.98186e-06
-2.52194e-05
7.3915e-06
1.89844e-06
-2.75465e-05
7.12936e-06
1.47986e-06
-2.91294e-05
6.82139e-06
6.2842e-07
-2.99837e-05
5.90893e-06
-2.39468e-07
-3.0149e-05
4.74318e-06
-1.0732e-06
-2.95043e-05
2.86746e-06
-1.66372e-06
-2.80224e-05
6.89348e-07
-1.9762e-06
-2.61068e-05
-1.62751e-06
-2.03327e-06
-2.37247e-05
-3.82183e-06
-1.88268e-06
-2.0963e-05
-5.78771e-06
-1.6038e-06
-1.80011e-05
-7.0712e-06
-1.36117e-06
-1.48402e-05
-7.79488e-06
-1.3112e-06
-1.16623e-05
-7.47234e-06
-1.56778e-06
-8.75916e-06
-6.4422e-06
-1.91199e-06
-6.13556e-06
-5.42013e-06
-2.15665e-06
-3.83985e-06
-4.32579e-06
-2.2786e-06
-2.0179e-06
-2.9583e-06
-2.29723e-06
-7.97069e-07
-1.34956e-06
-2.12202e-06
-1.02845e-07
5.70779e-07
-1.72601e-06
1.4249e-08
3.14589e-06
-1.05222e-06
-3.85794e-07
6.66286e-06
-2.16422e-07
-1.25445e-06
1.08111e-05
8.44004e-07
-2.29766e-06
1.29919e-05
1.87774e-06
-3.72497e-06
1.15983e-05
2.06433e-06
-6.0071e-06
9.91934e-06
1.6004e-06
-7.58583e-06
1.07712e-05
-2.21674e-07
-7.30768e-06
1.3681e-05
-3.06763e-06
-4.76886e-06
1.67879e-05
-6.33115e-06
1.83646e-05
-9.63843e-06
-4.99805e-06
-4.28482e-06
-4.21022e-07
-3.47563e-06
-5.26585e-06
-1.75837e-06
-3.27653e-06
-3.7699e-06
-4.25459e-07
-2.08925e-06
-3.72235e-06
-1.29042e-06
-1.5528e-06
-2.70685e-06
-6.6394e-07
-1.00781e-06
-2.4602e-06
-6.34161e-07
-4.99498e-07
-1.62031e-06
-2.14373e-07
3.31966e-08
-6.77275e-07
-6.96168e-08
3.96446e-07
4.62468e-07
-9.53053e-08
2.79184e-07
1.04687e-06
-3.48211e-08
-1.60195e-08
1.1509e-06
-9.45588e-08
-3.48522e-07
1.09733e-06
-1.43408e-07
-5.37678e-07
8.25126e-07
-2.15764e-07
-5.69933e-07
5.47772e-07
-2.80033e-07
-4.88107e-07
3.45216e-07
-3.35505e-07
-3.75706e-07
2.95643e-07
-3.6419e-07
-2.75722e-07
3.52573e-07
-3.73754e-07
-2.06443e-07
4.33486e-07
-3.79459e-07
-1.56921e-07
5.12048e-07
-3.82499e-07
-1.19542e-07
5.71077e-07
-3.84711e-07
-8.72356e-08
6.2326e-07
-3.84605e-07
-5.95478e-08
6.64367e-07
-3.81035e-07
-3.7655e-08
7.00269e-07
-3.73979e-07
-2.19577e-08
7.29655e-07
-3.64684e-07
-1.18031e-08
7.52432e-07
-3.54399e-07
-5.97687e-09
7.68986e-07
-3.44398e-07
-3.28076e-09
7.81015e-07
-3.352e-07
-3.647e-09
7.91142e-07
-3.26898e-07
-5.28814e-09
7.97757e-07
-3.19208e-07
-6.70356e-09
8.02279e-07
-3.12125e-07
-7.2651e-09
8.04376e-07
-3.05725e-07
-5.86461e-09
8.08222e-07
-2.98517e-07
-2.26309e-09
8.04596e-07
-2.93958e-07
3.29722e-10
8.18102e-07
-2.85253e-07
6.91847e-09
7.99074e-07
-2.84268e-07
8.3523e-09
8.2759e-07
-2.7154e-07
8.72573e-09
7.88956e-07
-2.70154e-07
2.71112e-10
8.34952e-07
-2.51723e-07
-2.11486e-08
7.83099e-07
-2.46707e-07
-4.30367e-08
8.23875e-07
-2.29212e-07
-8.49369e-08
7.86071e-07
-2.23219e-07
-1.03106e-07
7.88052e-07
-2.16183e-07
-1.22736e-07
7.69089e-07
-2.23839e-07
-9.3122e-08
6.69519e-07
-2.29566e-07
-3.9704e-08
6.32998e-07
-2.65653e-07
8.52283e-08
3.7858e-07
-2.87205e-07
2.54534e-07
2.34282e-07
-3.3364e-07
5.36457e-07
-1.88012e-07
-3.68425e-07
6.89211e-07
-2.20425e-07
-2.70134e-07
1.11986e-06
-6.86322e-07
-3.90507e-07
1.72104e-06
-3.08329e-07
-3.81108e-07
3.95997e-06
9.16172e-07
-1.03563e-06
-1.9096e-06
2.19513e-06
3.65018e-08
-1.23849e-05
4.50507e-06
-2.63894e-06
-1.79961e-05
7.30667e-06
-9.04589e-06
-1.53516e-05
7.9435e-06
-1.0472e-05
6.06912e-06
-1.32618e-06
-1.05104e-05
2.77982e-05
1.07478e-05
-5.10129e-06
3.42368e-05
-1.36251e-05
2.16496e-05
3.45028e-05
-1.15115e-05
1.5569e-06
-1.19074e-05
-2.53271e-05
4.05367e-06
-2.18729e-05
-7.42071e-06
4.84207e-06
-3.00993e-05
-7.67462e-06
1.62339e-06
-3.26417e-05
7.01064e-07
-2.92552e-07
-3.65205e-05
3.74718e-06
1.99371e-07
-3.8256e-05
6.32298e-06
4.36323e-07
-4.05279e-05
7.94105e-06
3.03276e-07
-4.21568e-05
8.9716e-06
5.71687e-08
-4.36355e-05
9.05103e-06
-4.22904e-07
-4.43007e-05
8.36926e-06
-8.51361e-07
-4.4466e-05
7.36645e-06
-1.27273e-06
-4.38188e-05
5.50554e-06
-1.42623e-06
-4.28047e-05
3.06215e-06
-1.23298e-06
-4.13553e-05
1.52972e-07
-9.28487e-07
-3.95614e-05
-2.85878e-06
-5.79736e-07
-3.73663e-05
-5.83479e-06
-2.08803e-07
-3.47986e-05
-8.57733e-06
1.80163e-07
-3.18737e-05
-1.06114e-05
5.83802e-07
-2.85339e-05
-1.19441e-05
7.87148e-07
-2.45799e-05
-1.17886e-05
3.43655e-07
-2.03226e-05
-1.01206e-05
-5.91623e-07
-1.60638e-05
-8.03672e-06
-1.64806e-06
-1.20757e-05
-5.77701e-06
-2.53974e-06
-8.53596e-06
-3.20361e-06
-3.29564e-06
-5.72175e-06
-4.84378e-07
-3.67959e-06
-3.79597e-06
2.2235e-06
-3.57852e-06
-2.89985e-06
5.03904e-06
-2.78927e-06
-2.82123e-06
8.04461e-06
-1.46037e-06
-2.90218e-06
1.10384e-05
-1.46323e-07
-2.93008e-06
1.21515e-05
8.68286e-07
-3.90391e-06
1.12421e-05
1.33008e-06
-5.72282e-06
1.07001e-05
1.03812e-06
-6.93418e-06
1.25004e-05
-5.17876e-07
-6.74456e-06
1.63921e-05
-2.90072e-06
-4.50706e-06
2.05822e-05
-6.03177e-06
2.29589e-05
-9.10135e-06
-5.42501e-06
-3.37812e-06
-2.39108e-07
-3.81495e-06
-4.90974e-06
-1.96664e-06
-3.49112e-06
-3.05546e-06
-1.0323e-06
-2.03108e-06
-3.26147e-06
-1.91532e-06
-1.16365e-06
-2.11645e-06
-1.45144e-06
-6.40855e-07
-1.87868e-06
-1.09812e-06
-3.0729e-07
-1.24163e-06
-7.06173e-07
2.55408e-08
-6.50109e-07
-3.52773e-07
4.12542e-07
3.31803e-07
-2.50407e-07
4.64318e-07
1.11515e-06
-1.181e-07
2.50338e-07
1.45941e-06
-9.4219e-08
-1.63588e-07
1.58795e-06
-7.64235e-08
-4.31226e-07
1.25249e-06
-1.59593e-07
-4.8621e-07
8.68031e-07
-2.65307e-07
-4.14997e-07
6.28097e-07
-3.54206e-07
-3.24901e-07
5.95074e-07
-3.89605e-07
-2.40362e-07
6.62807e-07
-3.94889e-07
-1.9308e-07
7.70731e-07
-3.84657e-07
-1.65509e-07
8.6064e-07
-3.76294e-07
-1.49151e-07
9.25535e-07
-3.7098e-07
-1.37716e-07
9.76889e-07
-3.65196e-07
-1.2917e-07
1.01372e-06
-3.58042e-07
-1.23246e-07
1.04269e-06
-3.48465e-07
-1.19571e-07
1.06344e-06
-3.37597e-07
-1.16866e-07
1.07581e-06
-3.26193e-07
-1.14927e-07
1.08149e-06
-3.14566e-07
-1.13886e-07
1.08276e-06
-3.0287e-07
-1.14682e-07
1.08219e-06
-2.90353e-07
-1.16395e-07
1.07942e-06
-2.80023e-07
-1.18043e-07
1.07408e-06
-2.70234e-07
-1.19692e-07
1.06712e-06
-2.61134e-07
-1.18054e-07
1.05958e-06
-2.53089e-07
-1.18253e-07
1.05017e-06
-2.45369e-07
-1.17205e-07
1.05388e-06
-2.36937e-07
-1.24294e-07
1.03693e-06
-2.3072e-07
-1.27635e-07
1.05177e-06
-2.20988e-07
-1.4906e-07
1.02365e-06
-2.13181e-07
-1.61266e-07
1.04838e-06
-2.01408e-07
-1.99715e-07
1.01246e-06
-1.90763e-07
-2.15372e-07
1.02035e-06
-1.81023e-07
-2.42312e-07
9.87269e-07
-1.74047e-07
-2.28272e-07
9.43786e-07
-1.70023e-07
-1.82081e-07
9.01436e-07
-1.78283e-07
-1.09251e-07
7.68727e-07
-1.7239e-07
-2.42646e-08
7.32115e-07
-1.83705e-07
9.24558e-08
4.44755e-07
-1.83274e-07
1.9528e-07
3.12792e-07
-1.80995e-07
4.0267e-07
-2.04751e-07
-1.90015e-07
4.67166e-07
-1.89971e-07
-9.17068e-08
7.75373e-07
-8.67996e-07
-1.174e-07
1.31189e-06
-6.15644e-07
-2.25271e-07
4.55196e-06
-1.24944e-06
-8.33105e-07
2.12801e-06
6.48226e-06
-1.67168e-06
-5.07837e-06
1.70193e-05
-5.11652e-06
-5.57767e-06
1.75231e-05
-9.63745e-06
-1.02342e-06
1.38071e-05
-1.06684e-05
1.20319e-05
-2.06263e-06
-1.16989e-05
3.45636e-05
-3.78781e-06
-8.43358e-06
3.37395e-05
-1.0785e-05
2.37172e-05
3.1337e-05
-4.18812e-06
2.00883e-06
-2.12733e-05
-9.38265e-06
3.97548e-06
-3.4107e-05
2.1555e-07
4.91413e-06
-4.44469e-05
1.8201e-06
8.19931e-07
-4.90854e-05
5.34048e-06
-8.47517e-08
-5.25988e-05
7.65818e-06
-4.0859e-07
-5.45312e-05
8.78216e-06
-4.38456e-07
-5.57512e-05
9.74551e-06
-6.1276e-07
-5.63074e-05
1.02409e-05
-6.94241e-07
-5.64599e-05
1.00447e-05
-8.60783e-07
-5.64306e-05
9.19028e-06
-9.30631e-07
-5.50813e-05
7.30894e-06
-1.09494e-06
-5.34448e-05
4.90594e-06
-9.34071e-07
-5.1667e-05
1.94461e-06
-6.87965e-07
-4.97129e-05
-1.27947e-06
-3.95019e-07
-4.70847e-05
-5.14446e-06
-2.66956e-07
-4.44933e-05
-8.68058e-06
1.76188e-07
-4.20653e-05
-1.19123e-05
6.83295e-07
-4.00354e-05
-1.41553e-05
1.34626e-06
-3.85337e-05
-1.55677e-05
2.00481e-06
-3.70658e-05
-1.56633e-05
2.26131e-06
-3.49596e-05
-1.47002e-05
2.28734e-06
-3.11562e-05
-1.32225e-05
1.24975e-06
-2.58583e-05
-1.11689e-05
-6.10746e-09
-1.9927e-05
-7.80677e-06
-1.4297e-06
-1.48689e-05
-3.10963e-06
-2.50484e-06
-1.07508e-05
9.83911e-07
-2.9137e-06
-7.84329e-06
4.67671e-06
-2.56058e-06
-6.02461e-06
7.80708e-06
-1.58419e-06
-4.74846e-06
1.01744e-05
-4.12902e-07
-3.7963e-06
1.09252e-05
2.727e-07
-3.91318e-06
1.10114e-05
3.38873e-07
-5.01663e-06
1.17489e-05
3.94917e-08
-5.85933e-06
1.42851e-05
-9.61627e-07
-5.40428e-06
1.87567e-05
-2.83635e-06
-3.10207e-06
2.40398e-05
-5.77926e-06
2.86008e-05
-8.74476e-06
-5.29012e-06
-2.73373e-06
9.86897e-07
-3.97995e-06
-4.52958e-06
-1.69484e-06
-3.87695e-06
-1.96474e-06
-1.18929e-06
-2.44366e-06
-2.5998e-06
-2.08946e-06
-1.37833e-06
-1.44939e-06
-1.72424e-06
-5.31657e-07
-1.31483e-06
-1.40288e-06
-1.46514e-07
-6.17748e-07
-1.00214e-06
-2.20736e-08
-2.82649e-07
-4.86253e-07
2.03961e-07
4.01186e-07
-2.89549e-07
3.22958e-07
1.13501e-06
-1.34587e-07
3.42586e-07
1.52894e-06
-8.75674e-08
2.10136e-07
1.75986e-06
-3.89481e-08
8.85469e-08
1.56838e-06
-1.94032e-07
3.84747e-09
1.27452e-06
-3.21564e-07
-4.73225e-08
1.10741e-06
-4.27893e-07
-1.03872e-07
1.13406e-06
-4.82209e-07
-1.51772e-07
1.22849e-06
-5.17563e-07
-1.9788e-07
1.34399e-06
-5.26945e-07
-2.36774e-07
1.43393e-06
-5.34211e-07
-2.60404e-07
1.4851e-06
-5.358e-07
-2.71121e-07
1.52185e-06
-5.3415e-07
-2.75229e-07
1.54858e-06
-5.30688e-07
-2.74745e-07
1.56867e-06
-5.26456e-07
-2.72401e-07
1.58255e-06
-5.21459e-07
-2.68456e-07
1.58895e-06
-5.17146e-07
-2.64274e-07
1.59037e-06
-5.13126e-07
-2.61871e-07
1.58885e-06
-5.0861e-07
-2.61584e-07
1.58555e-06
-5.03787e-07
-2.63504e-07
1.58029e-06
-4.99138e-07
-2.65933e-07
1.57163e-06
-4.95324e-07
-2.68074e-07
1.56081e-06
-4.91785e-07
-2.66438e-07
1.547e-06
-4.89327e-07
-2.67745e-07
1.53687e-06
-4.85631e-07
-2.70585e-07
1.53798e-06
-4.816e-07
-2.89842e-07
1.53204e-06
-4.76048e-07
-3.02517e-07
1.53587e-06
-4.71841e-07
-3.4091e-07
1.52562e-06
-4.63746e-07
-3.57633e-07
1.52409e-06
-4.59485e-07
-4.01239e-07
1.50627e-06
-4.50357e-07
-4.03704e-07
1.47262e-06
-4.50365e-07
-4.07658e-07
1.44028e-06
-4.49163e-07
-3.69048e-07
1.35773e-06
-4.53133e-07
-2.79787e-07
1.28366e-06
-4.715e-07
-1.85994e-07
1.14829e-06
-4.73966e-07
-7.03287e-08
1.09366e-06
-4.77205e-07
2.12733e-08
8.3809e-07
-4.8558e-07
9.58592e-08
6.9707e-07
-4.58728e-07
2.06584e-07
1.58608e-07
-4.73653e-07
1.95544e-07
1.30592e-07
-3.06775e-07
4.09118e-07
-7.44364e-07
-3.29901e-07
1.20401e-06
-9.70584e-07
-4.32938e-07
5.45929e-06
-3.99267e-06
-1.35712e-06
1.06845e-05
2.82845e-06
-1.22599e-06
1.09567e-05
1.9228e-05
-2.21648e-06
1.23188e-05
2.04166e-05
-4.02191e-06
1.90709e-05
1.59325e-05
-8.9208e-06
2.09446e-05
9.56171e-06
-1.30365e-05
3.74839e-05
-7.56786e-06
-1.25772e-05
3.65374e-05
-7.47982e-06
2.64608e-05
3.18314e-05
4.84929e-06
2.13238e-06
-3.06665e-05
1.20121e-05
5.07069e-06
-4.63981e-05
1.00964e-05
5.41369e-06
-5.72106e-05
1.18317e-05
7.12118e-07
-6.24166e-05
1.07351e-05
-2.35389e-07
-6.52372e-05
1.11492e-05
-6.92757e-07
-6.69356e-05
1.1117e-05
-6.70559e-07
-6.7664e-05
1.12435e-05
-9.5118e-07
-6.72932e-05
1.10696e-05
-1.14459e-06
-6.61975e-05
1.04663e-05
-1.33162e-06
-6.466e-05
9.17027e-06
-1.51263e-06
-6.25462e-05
7.15523e-06
-1.78137e-06
-6.00224e-05
4.57478e-06
-1.93147e-06
-5.74087e-05
1.40633e-06
-2.01326e-06
-5.45868e-05
-2.17871e-06
-2.04617e-06
-5.11799e-05
-6.51104e-06
-2.17466e-06
-4.80704e-05
-9.95953e-06
-1.98342e-06
-4.56367e-05
-1.27854e-05
-1.47432e-06
-4.44111e-05
-1.49983e-05
-3.42667e-07
-4.48689e-05
-1.66043e-05
1.33773e-06
-4.62941e-05
-1.72861e-05
3.06012e-06
-4.78104e-05
-1.6966e-05
3.83838e-06
-4.87363e-05
-1.60241e-05
3.71398e-06
-4.82778e-05
-1.45759e-05
2.9028e-06
-4.57079e-05
-1.19071e-05
1.50542e-06
-4.17713e-05
-7.16559e-06
1.04517e-07
-3.70175e-05
-2.99201e-06
-7.72137e-07
-3.27684e-05
1.3217e-06
-8.61008e-07
-2.90136e-05
4.5086e-06
-3.84862e-07
-2.61379e-05
7.40606e-06
4.00854e-08
-2.42319e-05
9.29781e-06
-7.15423e-08
-2.33788e-05
1.09992e-05
-6.40182e-07
-2.3262e-05
1.33027e-05
-1.50816e-06
-2.20841e-05
1.63276e-05
-3.01805e-06
-1.83754e-05
2.04402e-05
-5.39291e-06
-1.09958e-05
2.51825e-05
-8.92824e-06
2.48243e-05
-1.09628e-05
-4.63941e-06
-7.96075e-07
2.85524e-06
-3.47166e-06
-4.34699e-06
-1.355e-06
-3.76721e-06
-8.68132e-07
-7.96225e-07
-2.70424e-06
-2.12581e-06
-1.53619e-06
-1.82832e-06
-9.52779e-07
-1.36395e-06
-8.08289e-07
-1.16138e-06
-1.16385e-06
-3.61614e-07
-3.59353e-07
-6.97449e-07
-2.44111e-07
-1.27893e-07
-2.67097e-07
-1.06663e-07
3.18262e-07
-5.06786e-08
4.5811e-08
9.56128e-07
2.9831e-08
2.8391e-07
1.25149e-06
4.20669e-08
4.63433e-07
1.37135e-06
2.09983e-07
4.90109e-07
1.32296e-06
2.19457e-07
3.73372e-07
1.17994e-06
2.11709e-07
2.11999e-07