/*--------------------------------*- C++ -*----------------------------------*\
| =========                 |                                                 |
| \\      /  F ield         | OpenFOAM: The Open Source CFD Toolbox           |
|  \\    /   O peration     | Version:  2.3.0                                 |
|   \\  /    A nd           | Web:      www.OpenFOAM.org                      |
|    \\/     M anipulation  |                                                 |
\*---------------------------------------------------------------------------*/
FoamFile
{
    version     2.0;
    format      ascii;
    class       volScalarField;
    location    "26";
    object      rho;
}
// * * * * * * * * * * * * * * * * * * * * * * * * * * * * * * * * * * * * * //

dimensions      [1 -3 0 0 0 0 0];

internalField   nonuniform List<scalar> 
6144
(
1.16405
1.16493
1.16546
1.16587
1.16629
1.1668
1.16732
1.16801
1.16862
1.16884
1.16888
1.16888
1.16889
1.16889
1.16889
1.1689
1.1689
1.1689
1.1689
1.1689
1.1689
1.16891
1.16891
1.16891
1.16891
1.16891
1.16891
1.16892
1.16892
1.16892
1.16892
1.16892
1.16892
1.16892
1.16892
1.16893
1.16893
1.16893
1.16893
1.16893
1.16893
1.16894
1.16894
1.16894
1.16927
1.17124
1.17578
1.18426
1.19646
1.21103
1.23072
1.26224
1.27746
1.28167
1.28059
1.28284
1.28158
1.29306
2.59805
72.321
993.543
1026.94
1027.09
1027.1
1027.1
1027.1
1027.1
1027.1
1027.1
1027.1
1027.1
1027.1
1027.1
1027.1
1027.1
1027.1
1027.1
1027.1
1027.1
1027.1
1027.1
1027.1
1027.1
1027.1
1027.1
1027.1
1027.1
1027.1
1027.1
1027.1
1027.1
1027.1
1027.1
1027.1
1027.1
1027.1
1.16374
1.16491
1.16564
1.16606
1.16656
1.16705
1.1676
1.16821
1.16871
1.16885
1.16887
1.16889
1.16889
1.1689
1.1689
1.1689
1.16891
1.16891
1.16891
1.16891
1.16891
1.16891
1.16891
1.16892
1.16892
1.16892
1.16892
1.16892
1.16892
1.16893
1.16893
1.16893
1.16893
1.16893
1.16893
1.16894
1.16894
1.16894
1.16894
1.16894
1.16894
1.16894
1.16894
1.16894
1.16912
1.17059
1.17521
1.18241
1.18947
1.19564
1.23478
1.28063
1.28973
1.28921
1.283
1.29086
1.28343
1.30078
1.97873
55.824
1000.04
1027.02
1027.09
1027.1
1027.1
1027.1
1027.1
1027.1
1027.1
1027.1
1027.1
1027.1
1027.1
1027.1
1027.1
1027.1
1027.1
1027.1
1027.1
1027.1
1027.1
1027.1
1027.1
1027.1
1027.1
1027.1
1027.1
1027.1
1027.1
1027.1
1027.1
1027.1
1027.1
1027.1
1027.1
1027.1
1.16346
1.16454
1.16541
1.16588
1.16642
1.16701
1.16768
1.16822
1.16855
1.1687
1.16879
1.16885
1.16888
1.1689
1.1689
1.16891
1.16891
1.16891
1.16891
1.16891
1.16891
1.16891
1.16892
1.16892
1.16892
1.16892
1.16892
1.16892
1.16892
1.16893
1.16893
1.16893
1.16893
1.16893
1.16893
1.16893
1.16894
1.16894
1.16894
1.16894
1.16894
1.16894
1.16894
1.16895
1.16913
1.16989
1.17254
1.17724
1.18298
1.1946
1.2693
1.29236
1.2925
1.29256
1.29146
1.29545
1.29015
1.30726
1.79638
54.1894
1001.37
1027.03
1027.09
1027.1
1027.1
1027.1
1027.1
1027.1
1027.1
1027.1
1027.1
1027.1
1027.1
1027.1
1027.1
1027.1
1027.1
1027.1
1027.1
1027.1
1027.1
1027.1
1027.1
1027.1
1027.1
1027.1
1027.1
1027.1
1027.1
1027.1
1027.1
1027.1
1027.1
1027.1
1027.1
1027.1
1.16324
1.16407
1.16505
1.16554
1.16601
1.16651
1.1674
1.16816
1.16847
1.16863
1.16874
1.16883
1.16888
1.1689
1.1689
1.1689
1.1689
1.1689
1.16891
1.16891
1.16891
1.16891
1.16891
1.16891
1.16891
1.16892
1.16892
1.16892
1.16892
1.16892
1.16892
1.16892
1.16893
1.16893
1.16893
1.16893
1.16893
1.16893
1.16893
1.16893
1.16894
1.16894
1.16894
1.16899
1.1692
1.16977
1.17129
1.17486
1.18021
1.20711
1.28625
1.29314
1.29344
1.29554
1.29766
1.30207
1.30347
1.31614
1.59819
71.1012
1005.36
1027.04
1027.08
1027.09
1027.09
1027.1
1027.1
1027.1
1027.1
1027.1
1027.1
1027.1
1027.1
1027.1
1027.1
1027.1
1027.1
1027.1
1027.1
1027.1
1027.1
1027.1
1027.1
1027.1
1027.1
1027.1
1027.1
1027.1
1027.1
1027.1
1027.1
1027.1
1027.1
1027.1
1027.1
1027.1
1.16308
1.16356
1.16459
1.16515
1.16569
1.16613
1.16696
1.16795
1.16841
1.1686
1.16871
1.16882
1.16888
1.1689
1.1689
1.16891
1.16891
1.16891
1.16891
1.16891
1.16891
1.16892
1.16892
1.16892
1.16892
1.16892
1.16892
1.16892
1.16892
1.16893
1.16893
1.16893
1.16893
1.16893
1.16893
1.16893
1.16893
1.16894
1.16894
1.16894
1.16894
1.16894
1.16896
1.16902
1.16925
1.16986
1.17134
1.17453
1.17948
1.21682
1.28887
1.29293
1.29348
1.29705
1.30161
1.30885
1.31501
1.31757
1.54929
92.854
997.962
1026.49
1026.67
1026.87
1026.94
1026.99
1027.01
1027.02
1027.03
1027.05
1027.06
1027.07
1027.08
1027.09
1027.09
1027.09
1027.1
1027.1
1027.1
1027.1
1027.1
1027.1
1027.1
1027.1
1027.1
1027.1
1027.1
1027.1
1027.1
1027.1
1027.1
1027.1
1027.1
1027.1
1027.1
1027.1
1.16305
1.1632
1.16412
1.16471
1.16544
1.16592
1.16657
1.1674
1.16827
1.16857
1.16868
1.1688
1.16887
1.16889
1.1689
1.1689
1.1689
1.1689
1.1689
1.1689
1.16891
1.16891
1.16891
1.16891
1.16891
1.16891
1.16892
1.16892
1.16892
1.16892
1.16892
1.16892
1.16892
1.16893
1.16893
1.16893
1.16893
1.16893
1.16893
1.16893
1.16894
1.16894
1.16895
1.16902
1.16924
1.16996
1.17156
1.17493
1.18011
1.21567
1.28609
1.29175
1.29247
1.29567
1.29811
1.29958
1.29927
1.30178
1.82478
117.523
986.544
1023.8
1024.17
1024.9
1025.13
1025.37
1025.43
1025.56
1025.68
1025.84
1026.01
1026.15
1026.23
1026.27
1026.3
1026.36
1026.41
1026.47
1026.53
1026.62
1026.71
1026.79
1026.85
1026.91
1026.95
1027
1027.05
1027.08
1027.09
1027.1
1027.1
1027.1
1027.1
1027.1
1027.1
1027.1
1.16315
1.16312
1.16385
1.16436
1.16522
1.16582
1.1664
1.16707
1.168
1.16851
1.16865
1.1688
1.16887
1.1689
1.1689
1.1689
1.16891
1.16891
1.16891
1.16891
1.16891
1.16891
1.16891
1.16891
1.16892
1.16892
1.16892
1.16892
1.16892
1.16892
1.16892
1.16893
1.16893
1.16893
1.16893
1.16893
1.16893
1.16893
1.16893
1.16893
1.16894
1.16894
1.16896
1.16901
1.16924
1.17003
1.17182
1.17542
1.18129
1.20098
1.2742
1.29112
1.29135
1.2934
1.29546
1.29646
1.29308
1.28706
1.29636
158.72
980.766
1019.33
1019.26
1020.04
1020.27
1020.45
1020.58
1020.72
1020.81
1020.99
1021.17
1021.33
1021.51
1021.69
1021.86
1021.98
1022.05
1022.14
1022.16
1022.08
1021.96
1021.85
1021.85
1022.11
1022.28
1022.9
1023.48
1024.25
1025.16
1025.84
1026.34
1026.8
1026.97
1027.05
1027.06
1027.06
1.16319
1.16336
1.16379
1.16424
1.1651
1.16577
1.16637
1.16702
1.1677
1.16842
1.16863
1.16878
1.16887
1.16889
1.1689
1.1689
1.16891
1.16891
1.16891
1.16891
1.16891
1.16891
1.16892
1.16892
1.16892
1.16892
1.16892
1.16892
1.16893
1.16893
1.16893
1.16893
1.16893
1.16893
1.16893
1.16893
1.16894
1.16894
1.16894
1.16894
1.16894
1.16895
1.16896
1.16899
1.16922
1.17014
1.17222
1.17615
1.18258
1.19812
1.26367
1.29043
1.29045
1.29109
1.29478
1.29788
1.30195
1.30739
1.27627
186.281
994.871
1016.04
1015.42
1015.38
1015.46
1014.99
1014.7
1014.54
1014.51
1014.5
1014.52
1014.59
1014.58
1014.38
1014.11
1013.79
1013.44
1013.08
1012.67
1012.09
1011.32
1010.44
1009.59
1008.72
1007.58
1006.48
1005.79
1005.33
1004.64
1003.89
1003.29
1002.78
1002.45
1003.77
1006.93
1011
1.16305
1.1635
1.16391
1.16425
1.1651
1.16597
1.16661
1.1672
1.16771
1.16828
1.16857
1.16875
1.16885
1.16889
1.16889
1.1689
1.1689
1.1689
1.1689
1.1689
1.16891
1.16891
1.16891
1.16891
1.16891
1.16892
1.16892
1.16892
1.16892
1.16892
1.16892
1.16893
1.16893
1.16893
1.16893
1.16893
1.16893
1.16893
1.16894
1.16894
1.16894
1.16895
1.16895
1.16898
1.16922
1.17021
1.17244
1.1766
1.18324
1.19689
1.2522
1.29101
1.28963
1.28758
1.28726
1.28982
1.2866
1.33138
1.6427
133.103
995.374
1020.88
1020.78
1021.08
1021.1
1020.96
1020.94
1021.04
1021.13
1021.26
1021.46
1021.65
1021.8
1021.95
1022.09
1022.22
1022.48
1022.86
1023.37
1023.99
1024.65
1025.12
1025.27
1025.23
1025.5
1025.77
1025.97
1026.03
1025.95
1025.92
1025.9
1026.23
1026.6
1026.79
1026.9
1026.98
1.16301
1.16352
1.16388
1.16414
1.16515
1.16627
1.16696
1.16748
1.16778
1.16815
1.16845
1.16867
1.16881
1.16888
1.1689
1.1689
1.1689
1.16891
1.16891
1.16891
1.16891
1.16891
1.16891
1.16892
1.16892
1.16892
1.16892
1.16892
1.16892
1.16892
1.16893
1.16893
1.16893
1.16893
1.16893
1.16893
1.16893
1.16894
1.16894
1.16894
1.16894
1.16895
1.16895
1.16898
1.16927
1.17038
1.17268
1.17686
1.18372
1.19427
1.23708
1.2861
1.29145
1.2933
1.29004
1.29365
1.28653
1.29277
1.37657
76.4864
1003.13
1025.36
1025.61
1025.97
1026.09
1026.18
1026.22
1026.29
1026.36
1026.43
1026.51
1026.6
1026.68
1026.76
1026.83
1026.89
1026.94
1026.99
1027.03
1027.07
1027.09
1027.09
1027.1
1027.1
1027.1
1027.1
1027.1
1027.1
1027.1
1027.1
1027.1
1027.1
1027.1
1027.1
1027.1
1027.1
1.16274
1.16326
1.1635
1.16358
1.16509
1.16634
1.16726
1.16769
1.16795
1.16817
1.16842
1.16865
1.16878
1.16886
1.16889
1.1689
1.1689
1.1689
1.1689
1.16891
1.16891
1.16891
1.16891
1.16891
1.16892
1.16892
1.16892
1.16892
1.16892
1.16892
1.16893
1.16893
1.16893
1.16893
1.16893
1.16893
1.16893
1.16894
1.16894
1.16894
1.16894
1.16895
1.16895
1.16901
1.16942
1.17072
1.17337
1.17796
1.18512
1.19511
1.22497
1.27473
1.28944
1.29419
1.29377
1.29376
1.28667
1.29363
1.32488
37.0039
994.574
1026.87
1026.97
1027.01
1027.03
1027.05
1027.06
1027.07
1027.08
1027.08
1027.09
1027.09
1027.09
1027.09
1027.1
1027.1
1027.1
1027.1
1027.1
1027.1
1027.1
1027.1
1027.1
1027.1
1027.1
1027.1
1027.1
1027.1
1027.1
1027.1
1027.1
1027.1
1027.1
1027.1
1027.1
1027.1
1.16238
1.16262
1.16283
1.16277
1.16438
1.1659
1.16737
1.16783
1.16814
1.16837
1.16857
1.16879
1.16886
1.1689
1.1689
1.1689
1.1689
1.1689
1.1689
1.16891
1.16891
1.16891
1.16891
1.16891
1.16892
1.16892
1.16892
1.16892
1.16892
1.16893
1.16893
1.16893
1.16893
1.16893
1.16893
1.16894
1.16894
1.16894
1.16894
1.16894
1.16895
1.16895
1.16896
1.16908
1.16967
1.17137
1.17492
1.18086
1.189
1.19991
1.22023
1.25982
1.28121
1.29109
1.28933
1.29053
1.28442
1.28983
1.34011
18.686
981.445
1026.96
1027.09
1027.09
1027.09
1027.09
1027.1
1027.1
1027.1
1027.1
1027.1
1027.1
1027.1
1027.1
1027.1
1027.1
1027.1
1027.1
1027.1
1027.1
1027.1
1027.1
1027.1
1027.1
1027.1
1027.1
1027.1
1027.1
1027.1
1027.1
1027.1
1027.1
1027.1
1027.1
1027.1
1027.1
1.16196
1.162
1.16204
1.162
1.16345
1.16508
1.1672
1.168
1.16833
1.16862
1.16876
1.16886
1.16891
1.16892
1.16892
1.16892
1.16892
1.16892
1.16891
1.16891
1.16891
1.16892
1.16892
1.16892
1.16892
1.16892
1.16892
1.16893
1.16893
1.16893
1.16893
1.16893
1.16893
1.16894
1.16894
1.16894
1.16894
1.16894
1.16894
1.16895
1.16895
1.16895
1.16898
1.16915
1.16994
1.17214
1.17673
1.18418
1.19317
1.20431
1.22125
1.24605
1.26733
1.28018
1.28062
1.28288
1.28198
1.29018
1.43783
16.2459
966.251
1026.75
1027.09
1027.09
1027.1
1027.1
1027.1
1027.1
1027.1
1027.1
1027.1
1027.1
1027.1
1027.1
1027.1
1027.1
1027.1
1027.1
1027.1
1027.1
1027.1
1027.1
1027.1
1027.1
1027.1
1027.1
1027.1
1027.1
1027.1
1027.1
1027.1
1027.1
1027.1
1027.1
1027.1
1027.1
1.16154
1.16155
1.16145
1.1615
1.16248
1.164
1.16659
1.16807
1.16848
1.16869
1.16876
1.16884
1.16889
1.16892
1.16892
1.16892
1.16892
1.16892
1.16892
1.16892
1.16892
1.16892
1.16892
1.16893
1.16893
1.16893
1.16893
1.16893
1.16893
1.16893
1.16893
1.16893
1.16894
1.16894
1.16894
1.16894
1.16894
1.16894
1.16895
1.16895
1.16895
1.16896
1.169
1.16925
1.17017
1.17256
1.17764
1.18577
1.19533
1.20668
1.22547
1.24811
1.26186
1.27501
1.27772
1.28031
1.28263
1.30757
1.56157
22.164
926.562
1025.86
1027.09
1027.09
1027.1
1027.1
1027.1
1027.1
1027.1
1027.1
1027.1
1027.1
1027.1
1027.1
1027.1
1027.1
1027.1
1027.1
1027.1
1027.1
1027.1
1027.1
1027.1
1027.1
1027.1
1027.1
1027.1
1027.1
1027.1
1027.1
1027.1
1027.1
1027.1
1027.1
1027.1
1027.1
1.16123
1.16139
1.16135
1.16142
1.16205
1.16312
1.16567
1.16791
1.16855
1.1687
1.16875
1.1688
1.16886
1.1689
1.16891
1.16892
1.16892
1.16892
1.16892
1.16892
1.16892
1.16892
1.16892
1.16892
1.16893
1.16893
1.16893
1.16893
1.16893
1.16893
1.16893
1.16893
1.16893
1.16894
1.16894
1.16894
1.16894
1.16894
1.16894
1.16895
1.16895
1.16896
1.16903
1.16936
1.17038
1.17299
1.17843
1.18683
1.197
1.21019
1.23029
1.2532
1.26301
1.27434
1.28724
1.2932
1.30855
1.33444
1.38488
45.9283
930.27
1026.23
1027.09
1027.09
1027.1
1027.1
1027.1
1027.1
1027.1
1027.1
1027.1
1027.1
1027.1
1027.1
1027.1
1027.1
1027.1
1027.1
1027.1
1027.1
1027.1
1027.1
1027.1
1027.1
1027.1
1027.1
1027.1
1027.1
1027.1
1027.1
1027.1
1027.1
1027.1
1027.1
1027.1
1027.1
1.16053
1.16108
1.16119
1.16129
1.16163
1.16256
1.16495
1.16793
1.16865
1.16877
1.16878
1.16882
1.16887
1.16891
1.16892
1.16892
1.16892
1.16892
1.16893
1.16893
1.16893
1.16893
1.16893
1.16893
1.16893
1.16893
1.16894
1.16894
1.16894
1.16894
1.16894
1.16894
1.16894
1.16894
1.16895
1.16895
1.16895
1.16895
1.16895
1.16895
1.16896
1.16897
1.16903
1.16934
1.1705
1.17394
1.18139
1.19232
1.20436
1.21824
1.23501
1.25155
1.25934
1.2711
1.27031
1.28996
1.28548
1.3058
1.46314
52.7085
959.141
1026.64
1027.09
1027.09
1027.1
1027.1
1027.1
1027.1
1027.1
1027.1
1027.1
1027.1
1027.1
1027.1
1027.1
1027.1
1027.1
1027.1
1027.1
1027.1
1027.1
1027.1
1027.1
1027.1
1027.1
1027.1
1027.1
1027.1
1027.1
1027.1
1027.1
1027.1
1027.1
1027.1
1027.1
1027.1
1.16323
1.16464
1.16541
1.16591
1.1663
1.16683
1.16751
1.16825
1.1686
1.16871
1.1688
1.16886
1.1689
1.16891
1.16892
1.16892
1.16892
1.16892
1.16892
1.16892
1.16892
1.16893
1.16893
1.16893
1.16893
1.16893
1.16893
1.16894
1.16894
1.16894
1.16894
1.16894
1.16895
1.16895
1.16895
1.16895
1.16895
1.16895
1.16895
1.16896
1.16896
1.16895
1.16895
1.16896
1.16925
1.17121
1.17549
1.1835
1.19687
1.2144
1.23112
1.26054
1.27558
1.28123
1.28042
1.28128
1.27951
1.33107
2.3304
68.1541
984.767
1026.99
1027.09
1027.1
1027.1
1027.1
1027.1
1027.1
1027.1
1027.1
1027.1
1027.1
1027.1
1027.1
1027.1
1027.1
1027.1
1027.1
1027.1
1027.1
1027.1
1027.1
1027.1
1027.1
1027.1
1027.1
1027.1
1027.1
1027.1
1027.1
1027.1
1027.1
1027.1
1027.1
1027.1
1027.1
1.1625
1.16434
1.16591
1.16648
1.16707
1.16755
1.16789
1.16811
1.16831
1.16849
1.16864
1.16878
1.16887
1.16891
1.16891
1.16892
1.16892
1.16892
1.16892
1.16892
1.16892
1.16893
1.16893
1.16893
1.16893
1.16893
1.16893
1.16894
1.16894
1.16894
1.16894
1.16894
1.16894
1.16894
1.16894
1.16895
1.16895
1.16895
1.16895
1.16895
1.16895
1.16895
1.16897
1.16903
1.16925
1.17023
1.17419
1.18203
1.19042
1.19767
1.22946
1.27683
1.28835
1.28765
1.28314
1.28366
1.27816
1.338
1.73827
91.1825
1014.01
1027.09
1027.09
1027.1
1027.1
1027.1
1027.1
1027.1
1027.1
1027.1
1027.1
1027.1
1027.1
1027.1
1027.1
1027.1
1027.1
1027.1
1027.1
1027.1
1027.1
1027.1
1027.1
1027.1
1027.1
1027.1
1027.1
1027.1
1027.1
1027.1
1027.1
1027.1
1027.1
1027.1
1027.1
1027.1
1.16213
1.16369
1.16594
1.16651
1.16671
1.16692
1.16728
1.16763
1.16806
1.16836
1.16856
1.16873
1.16884
1.1689
1.16891
1.16891
1.16892
1.16892
1.16892
1.16892
1.16892
1.16892
1.16892
1.16893
1.16893
1.16893
1.16893
1.16893
1.16893
1.16893
1.16894
1.16894
1.16894
1.16894
1.16894
1.16894
1.16894
1.16894
1.16894
1.16895
1.16895
1.16895
1.16897
1.16904
1.16934
1.17004
1.17165
1.177
1.18495
1.19281
1.2612
1.29173
1.29085
1.2875
1.28162
1.28762
1.30376
1.38798
1.55759
95.4508
1009.33
1027.09
1027.09
1027.1
1027.1
1027.1
1027.1
1027.1
1027.1
1027.1
1027.1
1027.1
1027.1
1027.1
1027.1
1027.1
1027.1
1027.1
1027.1
1027.1
1027.1
1027.1
1027.1
1027.1
1027.1
1027.1
1027.1
1027.1
1027.1
1027.1
1027.1
1027.1
1027.1
1027.1
1027.1
1027.1
1.16189
1.16283
1.16528
1.16606
1.1662
1.16616
1.16668
1.16725
1.16786
1.16828
1.16852
1.16871
1.16883
1.1689
1.16891
1.16891
1.16891
1.16891
1.16892
1.16892
1.16892
1.16892
1.16892
1.16892
1.16892
1.16893
1.16893
1.16893
1.16893
1.16893
1.16893
1.16893
1.16893
1.16894
1.16894
1.16894
1.16894
1.16894
1.16894
1.16894
1.16895
1.16895
1.16896
1.16902
1.16936
1.17027
1.17177
1.1752
1.18141
1.19413
1.27757
1.29357
1.29029
1.28642
1.28163
1.28807
1.36415
1.42077
1.42498
145.583
1022.98
1026.95
1026.99
1027.05
1027.07
1027.08
1027.09
1027.09
1027.09
1027.09
1027.09
1027.1
1027.1
1027.1
1027.1
1027.1
1027.1
1027.1
1027.1
1027.1
1027.1
1027.1
1027.1
1027.1
1027.1
1027.1
1027.1
1027.1
1027.1
1027.1
1027.1
1027.1
1027.1
1027.1
1027.1
1027.1
1.16173
1.16206
1.16429
1.16537
1.16578
1.16587
1.16644
1.16712
1.16778
1.16824
1.1685
1.1687
1.16883
1.16889
1.16891
1.16891
1.16891
1.16891
1.16891
1.16892
1.16892
1.16892
1.16892
1.16892
1.16892
1.16892
1.16893
1.16893
1.16893
1.16893
1.16893
1.16893
1.16893
1.16893
1.16894
1.16894
1.16894
1.16894
1.16894
1.16894
1.16894
1.16895
1.16896
1.16903
1.16941
1.17044
1.17242
1.17618
1.17998
1.20078
1.28072
1.29444
1.2928
1.28877
1.28465
1.30432
1.37321
1.39635
1.35797
218.964
1015.63
1023.63
1024.09
1024.82
1025.44
1025.98
1026.38
1026.64
1026.78
1026.86
1026.92
1026.96
1026.99
1027.01
1027.02
1027.02
1027.02
1027.02
1027.03
1027.05
1027.05
1027.06
1027.07
1027.08
1027.09
1027.09
1027.1
1027.1
1027.1
1027.1
1027.1
1027.1
1027.1
1027.1
1027.1
1027.1
1.16164
1.1615
1.16325
1.16447
1.16529
1.16585
1.16641
1.16711
1.16777
1.16823
1.1685
1.1687
1.16882
1.16889
1.16891
1.16891
1.16891
1.16891
1.16891
1.16891
1.16892
1.16892
1.16892
1.16892
1.16892
1.16892
1.16892
1.16893
1.16893
1.16893
1.16893
1.16893
1.16893
1.16893
1.16894
1.16894
1.16894
1.16894
1.16894
1.16894
1.16894
1.16895
1.16897
1.16905
1.16944
1.17049
1.1726
1.17677
1.18147
1.20152
1.27205
1.2971
1.2997
1.30101
1.31402
1.3469
1.37574
1.38301
1.36946
266.56
1002.19
1012.4
1012.52
1013.12
1014.52
1015.94
1017.48
1018.81
1019.79
1020.5
1021
1021.35
1021.65
1022.02
1022.41
1022.67
1022.75
1022.73
1022.74
1022.7
1022.77
1023.23
1023.84
1024.51
1025.1
1025.59
1026.07
1026.46
1026.71
1026.83
1026.94
1027.04
1027.08
1027.1
1027.1
1027.1
1.16163
1.16128
1.16249
1.16364
1.16489
1.16586
1.16651
1.16724
1.16784
1.16824
1.1685
1.1687
1.16882
1.16889
1.1689
1.16891
1.16891
1.16891
1.16891
1.16891
1.16891
1.16892
1.16892
1.16892
1.16892
1.16892
1.16892
1.16892
1.16893
1.16893
1.16893
1.16893
1.16893
1.16893
1.16894
1.16894
1.16894
1.16894
1.16894
1.16894
1.16894
1.16895
1.16896
1.16905
1.16945
1.17069
1.17309
1.17772
1.18326
1.20362
1.2674
1.29931
1.30617
1.31669
1.33761
1.35789
1.36432
1.3663
1.27627
421.21
999.894
1005.38
1004.39
1003.64
1003.09
1002.57
1001.82
1000.99
1000.13
999.64
999.411
999.342
999.32
999.243
999.137
999.014
998.853
998.595
998.301
998.219
998.67
999.049
999.558
1000.22
1000.92
1001.73
1003.05
1004.82
1007.51
1010.45
1013.46
1017.04
1020.69
1024.47
1025.64
1025.28
1.1617
1.16118
1.162
1.16294
1.16443
1.16567
1.16659
1.16732
1.16788
1.16826
1.16851
1.1687
1.16882
1.16889
1.1689
1.16891
1.16891
1.16891
1.16891
1.16891
1.16892
1.16892
1.16892
1.16892
1.16892
1.16892
1.16892
1.16893
1.16893
1.16893
1.16893
1.16893
1.16893
1.16893
1.16894
1.16894
1.16894
1.16894
1.16894
1.16894
1.16894
1.16895
1.16896
1.16904
1.16956
1.17111
1.1741
1.1797
1.18665
1.21328
1.28027
1.29693
1.29611
1.29892
1.30562
1.30963
1.30506
1.3134
1.27627
420.035
1005.59
1011.22
1011.26
1010.65
1009.6
1008.7
1007.84
1007.04
1006.2
1005.28
1004.32
1003.37
1002.37
1001.12
999.62
997.921
996.039
994.055
991.977
989.613
986.779
983.265
978.994
974.293
969.217
963.447
957.041
950.435
944.289
938.093
930.985
922.453
910.898
888.949
836.971
644.703
1.16172
1.16111
1.16168
1.16238
1.16389
1.16543
1.16663
1.16738
1.1679
1.16827
1.16851
1.16871
1.16883
1.16889
1.16891
1.16891
1.16891
1.16891
1.16891
1.16892
1.16892
1.16892
1.16892
1.16892
1.16892
1.16892
1.16893
1.16893
1.16893
1.16893
1.16893
1.16893
1.16893
1.16894
1.16894
1.16894
1.16894
1.16894
1.16894
1.16894
1.16894
1.16895
1.16896
1.16907
1.16968
1.17151
1.17507
1.18195
1.19166
1.21588
1.28262
1.29876
1.29587
1.29393
1.29339
1.29043
1.2876
1.28661
1.27627
201.736
1006.47
1024.05
1024.45
1025.01
1025.16
1025.32
1025.48
1025.55
1025.61
1025.63
1025.64
1025.6
1025.48
1025.39
1025.23
1025.08
1024.89
1024.63
1024.29
1023.83
1023.21
1022.43
1021.77
1021.38
1021.31
1021.41
1022.11
1022.9
1023.43
1023.82
1023.49
1022.88
1022.22
1021.76
1024.56
1027.05
1.16161
1.16107
1.16144
1.16195
1.16325
1.16502
1.16662
1.16741
1.16793
1.16828
1.16851
1.16872
1.16884
1.1689
1.16891
1.16891
1.16891
1.16891
1.16892
1.16892
1.16892
1.16892
1.16892
1.16892
1.16892
1.16893
1.16893
1.16893
1.16893
1.16893
1.16893
1.16893
1.16894
1.16894
1.16894
1.16894
1.16894
1.16894
1.16894
1.16894
1.16895
1.16895
1.16897
1.1691
1.16982
1.17194
1.17603
1.18389
1.19656
1.21215
1.27672
1.29891
1.29886
1.29659
1.29204
1.28966
1.28738
1.29747
1.27627
113.464
1015.92
1026.83
1026.93
1026.99
1026.99
1026.99
1027.04
1027.07
1027.08
1027.08
1027.07
1027.07
1027.07
1027.07
1027.06
1027.06
1027.05
1027.05
1027.05
1027.05
1027.04
1027.04
1027.03
1027.02
1027.03
1027.04
1027.06
1027.08
1027.09
1027.1
1027.1
1027.1
1027.1
1027.1
1027.1
1027.1
1.16149
1.16106
1.16125
1.16165
1.16278
1.16452
1.16636
1.16735
1.16795
1.16831
1.16854
1.16874
1.16885
1.1689
1.16891
1.16891
1.16891
1.16892
1.16892
1.16892
1.16892
1.16892
1.16892
1.16892
1.16893
1.16893
1.16893
1.16893
1.16893
1.16893
1.16893
1.16894
1.16894
1.16894
1.16894
1.16894
1.16894
1.16894
1.16894
1.16895
1.16895
1.16895
1.16897
1.16913
1.16997
1.17251
1.17749
1.18635
1.20036
1.21772
1.26545
1.29758
1.29825
1.29765
1.29253
1.29175
1.28811
1.31942
1.27627
62.8766
1016.12
1027.08
1027.08
1027.09
1027.09
1027.1
1027.09
1027.09
1027.1
1027.1
1027.1
1027.1
1027.1
1027.1
1027.1
1027.1
1027.1
1027.1
1027.1
1027.1
1027.1
1027.1
1027.1
1027.1
1027.1
1027.1
1027.1
1027.1
1027.1
1027.1
1027.1
1027.1
1027.1
1027.1
1027.1
1027.1
1.1613
1.16104
1.161
1.1612
1.16213
1.1638
1.16606
1.16729
1.16797
1.16834
1.16857
1.16876
1.16886
1.1689
1.16891
1.16891
1.16891
1.16892
1.16892
1.16892
1.16892
1.16892
1.16892
1.16892
1.16893
1.16893
1.16893
1.16893
1.16893
1.16893
1.16893
1.16894
1.16894
1.16894
1.16894
1.16894
1.16894
1.16894
1.16895
1.16895
1.16895
1.16895
1.16898
1.16917
1.17018
1.1733
1.17964
1.19
1.20466
1.22428
1.25397
1.28792
1.2962
1.29564
1.29055
1.29903
1.31391
1.35786
1.31625
23.315
1000.82
1027.09
1027.09
1027.09
1027.09
1027.1
1027.1
1027.1
1027.1
1027.1
1027.1
1027.1
1027.1
1027.1
1027.1
1027.1
1027.1
1027.1
1027.1
1027.1
1027.1
1027.1
1027.1
1027.1
1027.1
1027.1
1027.1
1027.1
1027.1
1027.1
1027.1
1027.1
1027.1
1027.1
1027.1
1027.1
1.16112
1.16091
1.16072
1.16076
1.16121
1.16249
1.16552
1.16726
1.16801
1.16838
1.1686
1.16878
1.16886
1.1689
1.16891
1.16891
1.16891
1.16892
1.16892
1.16892
1.16892
1.16892
1.16892
1.16892
1.16893
1.16893
1.16893
1.16893
1.16893
1.16893
1.16893
1.16894
1.16894
1.16894
1.16894
1.16894
1.16894
1.16894
1.16894
1.16895
1.16895
1.16895
1.16899
1.16923
1.17043
1.17422
1.18193
1.19343
1.20754
1.22331
1.24009
1.26272
1.28459
1.27836
1.29589
1.34348
1.35699
1.40053
1.35228
23.9598
986.587
1027.09
1027.09
1027.09
1027.09
1027.1
1027.1
1027.1
1027.1
1027.1
1027.1
1027.1
1027.1
1027.1
1027.1
1027.1
1027.1
1027.1
1027.1
1027.1
1027.1
1027.1
1027.1
1027.1
1027.1
1027.1
1027.1
1027.1
1027.1
1027.1
1027.1
1027.1
1027.1
1027.1
1027.1
1027.1
1.16099
1.16091
1.16056
1.1606
1.16074
1.16116
1.16412
1.16728
1.1681
1.16845
1.16864
1.16879
1.16886
1.1689
1.16891
1.16891
1.16891
1.16891
1.16892
1.16892
1.16892
1.16892
1.16892
1.16892
1.16892
1.16893
1.16893
1.16893
1.16893
1.16893
1.16893
1.16893
1.16893
1.16893
1.16893
1.16893
1.16894
1.16894
1.16894
1.16894
1.16895
1.16895
1.169
1.16929
1.17063
1.17471
1.18312
1.19534
1.20861
1.22073
1.23395
1.25373
1.26335
1.27238
1.3497
1.37805
1.38722
1.48189
1.53675
23.5728
956.476
1026.77
1027.09
1027.09
1027.1
1027.1
1027.1
1027.1
1027.1
1027.1
1027.1
1027.1
1027.1
1027.1
1027.1
1027.1
1027.1
1027.1
1027.1
1027.1
1027.1
1027.1
1027.1
1027.1
1027.1
1027.1
1027.1
1027.1
1027.1
1027.1
1027.1
1027.1
1027.1
1027.1
1027.1
1027.1
1.16097
1.16109
1.16074
1.1607
1.16067
1.16064
1.16223
1.16686
1.16822
1.16853
1.16867
1.16878
1.16884
1.1689
1.16891
1.16891
1.16891
1.16891
1.16892
1.16892
1.16892
1.16892
1.16892
1.16892
1.16892
1.16892
1.16893
1.16893
1.16893
1.16893
1.16893
1.16893
1.16893
1.16893
1.16893
1.16893
1.16893
1.16894
1.16894
1.16894
1.16894
1.16896
1.16902
1.16934
1.17066
1.17455
1.18261
1.19425
1.20621
1.21776
1.23408
1.25199
1.25924
1.30029
1.37353
1.37444
1.37116
1.37065
1.35251
75.4223
999.877
1027.03
1027.09
1027.09
1027.1
1027.1
1027.1
1027.1
1027.1
1027.1
1027.1
1027.1
1027.1
1027.1
1027.1
1027.1
1027.1
1027.1
1027.1
1027.1
1027.1
1027.1
1027.1
1027.1
1027.1
1027.1
1027.1
1027.1
1027.1
1027.1
1027.1
1027.1
1027.1
1027.1
1027.1
1027.1
1.16043
1.16105
1.16109
1.16119
1.1611
1.16071
1.16112
1.16577
1.16827
1.16859
1.16869
1.16878
1.16885
1.1689
1.16891
1.16892
1.16892
1.16892
1.16892
1.16892
1.16892
1.16893
1.16893
1.16893
1.16893
1.16893
1.16893
1.16893
1.16893
1.16894
1.16894
1.16894
1.16894
1.16894
1.16894
1.16894
1.16895
1.16895
1.16895
1.16895
1.16895
1.16897
1.16902
1.16932
1.17061
1.17453
1.1832
1.19609
1.20985
1.22328
1.2368
1.24928
1.25496
1.26969
1.29281
1.32181
1.32117
1.41091
1.3444
48.0294
997.452
1027.07
1027.09
1027.09
1027.1
1027.1
1027.1
1027.1
1027.1
1027.1
1027.1
1027.1
1027.1
1027.1
1027.1
1027.1
1027.1
1027.1
1027.1
1027.1
1027.1
1027.1
1027.1
1027.1
1027.1
1027.1
1027.1
1027.1
1027.1
1027.1
1027.1
1027.1
1027.1
1027.1
1027.1
1027.1
1.16229
1.16346
1.16485
1.16571
1.16624
1.16678
1.16745
1.16825
1.1686
1.16872
1.16881
1.16887
1.1689
1.16891
1.16891
1.16891
1.16891
1.16891
1.16891
1.16892
1.16892
1.16892
1.16892
1.16892
1.16892
1.16893
1.16893
1.16893
1.16893
1.16893
1.16893
1.16894
1.16894
1.16894
1.16894
1.16894
1.16894
1.16894
1.16895
1.16895
1.16895
1.16895
1.16895
1.16895
1.16916
1.1709
1.17454
1.18155
1.19667
1.21834
1.23492
1.25277
1.2663
1.27578
1.27685
1.27936
1.2776
1.30332
2.47746
58.0578
983.258
1026.86
1027.09
1027.1
1027.1
1027.1
1027.1
1027.1
1027.1
1027.1
1027.1
1027.1
1027.1
1027.1
1027.1
1027.1
1027.1
1027.1
1027.1
1027.1
1027.1
1027.1
1027.1
1027.1
1027.1
1027.1
1027.1
1027.1
1027.1
1027.1
1027.1
1027.1
1027.1
1027.1
1027.1
1027.1
1.16145
1.16219
1.16534
1.16612
1.16661
1.16722
1.16787
1.16828
1.16848
1.16861
1.16873
1.16882
1.16888
1.1689
1.16891
1.16891
1.16891
1.16891
1.16892
1.16892
1.16892
1.16892
1.16892
1.16892
1.16893
1.16893
1.16893
1.16893
1.16893
1.16893
1.16893
1.16894
1.16894
1.16894
1.16894
1.16894
1.16894
1.16894
1.16894
1.16894
1.16894
1.16894
1.16895
1.16898
1.16914
1.17051
1.17454
1.18191
1.19212
1.20462
1.21535
1.25607
1.27675
1.28437
1.28292
1.28392
1.27823
1.2915
1.71993
69.2716
1012.64
1027.08
1027.09
1027.1
1027.1
1027.1
1027.1
1027.1
1027.1
1027.1
1027.1
1027.1
1027.1
1027.1
1027.1
1027.1
1027.1
1027.1
1027.1
1027.1
1027.1
1027.1
1027.1
1027.1
1027.1
1027.1
1027.1
1027.1
1027.1
1027.1
1027.1
1027.1
1027.1
1027.1
1027.1
1027.1
1.16136
1.16152
1.16561
1.16641
1.16687
1.16743
1.16786
1.16814
1.16832
1.16851
1.16866
1.16879
1.16886
1.16889
1.1689
1.1689
1.1689
1.16891
1.16891
1.16891
1.16891
1.16891
1.16891
1.16892
1.16892
1.16892
1.16892
1.16892
1.16892
1.16892
1.16893
1.16893
1.16893
1.16893
1.16893
1.16893
1.16893
1.16893
1.16893
1.16893
1.16893
1.16894
1.16895
1.16901
1.16917
1.17
1.17303
1.17978
1.19078
1.20502
1.22702
1.2733
1.28712
1.28853
1.28591
1.28697
1.27761
1.31368
1.45094
83.1107
1021.66
1027.09
1027.09
1027.1
1027.1
1027.1
1027.1
1027.1
1027.1
1027.1
1027.1
1027.1
1027.1
1027.1
1027.1
1027.1
1027.1
1027.1
1027.1
1027.1
1027.1
1027.1
1027.1
1027.1
1027.1
1027.1
1027.1
1027.1
1027.1
1027.1
1027.1
1027.1
1027.1
1027.1
1027.1
1027.1
1.16144
1.16125
1.16507
1.16648
1.16696
1.1674
1.16774
1.16795
1.16825
1.16848
1.16864
1.16878
1.16886
1.16889
1.1689
1.1689
1.1689
1.16891
1.16891
1.16891
1.16891
1.16891
1.16891
1.16891
1.16891
1.16891
1.16892
1.16892
1.16892
1.16892
1.16892
1.16892
1.16893
1.16893
1.16893
1.16893
1.16893
1.16893
1.16893
1.16893
1.16893
1.16894
1.16895
1.16902
1.16922
1.16992
1.17203
1.1781
1.19047
1.20394
1.24355
1.2816
1.29163
1.29228
1.28756
1.28794
1.27983
1.36022
1.38152
115.156
1023.72
1027.09
1027.09
1027.09
1027.09
1027.09
1027.1
1027.1
1027.1
1027.1
1027.1
1027.1
1027.1
1027.1
1027.1
1027.1
1027.1
1027.1
1027.1
1027.1
1027.1
1027.1
1027.1
1027.1
1027.1
1027.1
1027.1
1027.1
1027.1
1027.1
1027.1
1027.1
1027.1
1027.1
1027.1
1027.1
1.16136
1.16116
1.16398
1.16638
1.16699
1.16732
1.16761
1.16785
1.16821
1.16845
1.16862
1.16875
1.16884
1.16889
1.1689
1.1689
1.1689
1.16891
1.16891
1.16891
1.16891
1.16891
1.16891
1.16891
1.16892
1.16892
1.16892
1.16892
1.16892
1.16892
1.16892
1.16893
1.16893
1.16893
1.16893
1.16893
1.16893
1.16893
1.16893
1.16893
1.16893
1.16894
1.16896
1.16906
1.16934
1.17006
1.17182
1.1774
1.18949
1.19571
1.24762
1.28578
1.29705
1.29768
1.29465
1.29014
1.33553
1.36793
1.35828
181.296
1024.54
1026.89
1026.95
1027.01
1027.04
1027.06
1027.07
1027.08
1027.08
1027.08
1027.09
1027.09
1027.09
1027.09
1027.09
1027.09
1027.09
1027.09
1027.09
1027.09
1027.09
1027.09
1027.1
1027.1
1027.1
1027.1
1027.1
1027.1
1027.1
1027.1
1027.1
1027.1
1027.1
1027.1
1027.1
1027.1
1.16125
1.16086
1.1633
1.16592
1.16699
1.16732
1.16746
1.16782
1.16821
1.16844
1.1686
1.16872
1.16881
1.16887
1.16889
1.1689
1.1689
1.1689
1.1689
1.16891
1.16891
1.16891
1.16891
1.16891
1.16891
1.16892
1.16892
1.16892
1.16892
1.16892
1.16892
1.16892
1.16893
1.16893
1.16893
1.16893
1.16893
1.16893
1.16893
1.16893
1.16895
1.169
1.16914
1.1694
1.16962
1.17002
1.17141
1.17599
1.18566
1.19469
1.24551
1.29016
1.30275
1.30315
1.30279
1.32082
1.33953
1.34063
1.28872
254.421
1017.75
1023.68
1023.98
1024.29
1024.65
1025
1025.41
1025.69
1025.89
1026.04
1026.18
1026.28
1026.36
1026.39
1026.39
1026.31
1026.26
1026.23
1026.22
1026.26
1026.29
1026.37
1026.52
1026.71
1026.88
1027.01
1027.08
1027.09
1027.09
1027.1
1027.1
1027.1
1027.1
1027.1
1027.1
1027.1
1.16117
1.16074
1.16247
1.1649
1.16684
1.16731
1.16749
1.1679
1.16826
1.16842
1.16857
1.16867
1.16877
1.16885
1.16889
1.16889
1.1689
1.1689
1.1689
1.1689
1.16891
1.16891
1.16891
1.16892
1.16892
1.16892
1.16892
1.16892
1.16892
1.16893
1.16893
1.16893
1.16893
1.16893
1.16893
1.16893
1.16893
1.16893
1.16894
1.16894
1.169
1.16915
1.16925
1.16926
1.16927
1.16983
1.1714
1.17573
1.18116
1.20151
1.25918
1.29741
1.30482
1.31404
1.32444
1.33497
1.33642
1.31402
1.27627
475.128
1008.48
1012.44
1012.56
1012.54
1013.56
1014.38
1015.62
1016.71
1017.61
1018
1018.15
1018.16
1017.99
1017.73
1017.46
1017.17
1016.86
1016.47
1016.21
1016.13
1016.32
1016.96
1018.17
1019.74
1021.48
1023.31
1024.96
1026.03
1026.43
1026.8
1027.01
1027.08
1027.06
1027.09
1027.1
1027.1
1.16115
1.16078
1.1617
1.16355
1.1663
1.16717
1.16744
1.16772
1.16806
1.16831
1.16854
1.16865
1.16874
1.16884
1.16888
1.16889
1.16889
1.1689
1.1689
1.1689
1.1689
1.1689
1.16891
1.16891
1.16891
1.16891
1.16891
1.16891
1.16892
1.16892
1.16892
1.16892
1.16892
1.16892
1.16892
1.16892
1.16892
1.16893