/*--------------------------------*- C++ -*----------------------------------*\
| =========                 |                                                 |
| \\      /  F ield         | OpenFOAM: The Open Source CFD Toolbox           |
|  \\    /   O peration     | Version:  2.3.0                                 |
|   \\  /    A nd           | Web:      www.OpenFOAM.org                      |
|    \\/     M anipulation  |                                                 |
\*---------------------------------------------------------------------------*/
FoamFile
{
    version     2.0;
    format      ascii;
    class       volVectorField;
    location    "26";
    object      U.air;
}
// * * * * * * * * * * * * * * * * * * * * * * * * * * * * * * * * * * * * * //

dimensions      [0 1 -1 0 0 0 0];

internalField   nonuniform List<vector> 
6144
(
(0.00947195 0.0162922 -0.00176109)
(0.0100022 -0.00377868 -0.00289405)
(0.00495784 -0.00426039 -0.00327359)
(0.00458362 -0.00541251 -0.00321958)
(0.00264659 -0.00551458 -0.00265062)
(0.00259203 -0.00408463 -0.0023654)
(0.00162109 -0.00317763 -0.00156362)
(0.0017041 -0.0010735 -0.00103423)
(0.00164045 0.000237691 -0.000618013)
(0.00147059 0.001992 -9.58938e-06)
(0.00136805 0.00326571 0.000404661)
(0.00148387 0.00390408 0.000905278)
(0.00169024 0.00372153 0.00114891)
(0.00184312 0.003046 0.0013418)
(0.00193996 0.00217278 0.0011506)
(0.00202637 0.00142992 0.000967621)
(0.00207454 0.000805412 0.000663182)
(0.00213803 0.000437655 0.000447259)
(0.00218086 0.000123283 0.000231873)
(0.00219917 -2.52611e-05 0.000132665)
(0.0022029 -0.000148499 6.36622e-05)
(0.00219441 -0.000178049 4.11547e-05)
(0.00217556 -0.000194227 4.19618e-05)
(0.00215436 -0.000174684 6.81931e-05)
(0.00212724 -0.000150814 0.000112265)
(0.00209953 -0.000124007 0.000169937)
(0.00207159 -0.000104978 0.000237414)
(0.00204261 -0.000102838 0.000320246)
(0.00201204 -0.000101297 0.000407364)
(0.00198373 -0.000135633 0.000487873)
(0.00195255 -0.000129307 0.000573505)
(0.00192972 -0.000217388 0.000635819)
(0.00190186 -0.000156109 0.000707375)
(0.00188037 -0.000332399 0.00074952)
(0.00185436 -0.000148 0.000825737)
(0.00183185 -0.000490738 0.000871592)
(0.00180223 -0.000136036 0.000966269)
(0.00177764 -0.000730636 0.0010468)
(0.00173962 -0.000200928 0.001156)
(0.00173235 -0.00116424 0.00128769)
(0.00168515 -0.000513612 0.00137871)
(0.0017452 -0.00197275 0.0014909)
(0.00170691 -0.00122236 0.00140192)
(0.0019131 -0.00309769 0.00133533)
(0.00185973 -0.00204845 0.000844062)
(0.00217934 -0.00396454 0.000636218)
(0.00216161 -0.00219627 5.05676e-05)
(0.00219912 -0.00441509 5.92349e-05)
(0.00241055 -0.00123207 1.85062e-05)
(0.00146187 -0.00615093 -0.000127159)
(0.00204915 0.00366242 -0.000540577)
(0.00138106 -0.00741023 -0.00213021)
(0.00110083 0.0142247 -0.00610535)
(0.00337117 0.00304908 -0.00947628)
(0.00629807 0.0410691 -0.0152955)
(0.010684 -0.0177127 -0.0147849)
(0.0257805 0.0783043 0.00114426)
(0.013535 -0.0694418 -0.0211705)
(-0.0395953 0.125385 -0.0983506)
(0.0146417 0.0247378 -0.134166)
(0.0879262 0.317285 0.00076443)
(0.0428297 0.369308 -0.0109451)
(0.0259439 -0.0806507 -0.00835676)
(0.030527 -0.133256 -0.00230153)
(0.0251537 -0.15137 0.00113538)
(0.0179755 -0.154706 0.00263068)
(0.011617 -0.156815 0.00269277)
(0.0075507 -0.153702 0.00187653)
(0.00530405 -0.146796 0.000887099)
(0.00420782 -0.138486 0.000117872)
(0.00376871 -0.130229 -0.000520915)
(0.0036785 -0.122636 -0.00094481)
(0.00423476 -0.116698 -0.00156523)
(0.004834 -0.112841 -0.0021636)
(0.00584109 -0.110487 -0.00267011)
(0.00732134 -0.110674 -0.00301738)
(0.00827998 -0.112533 -0.00317096)
(0.00889579 -0.116077 -0.00325477)
(0.00925594 -0.120626 -0.00331044)
(0.00936888 -0.125528 -0.00343657)
(0.00906708 -0.130516 -0.0034857)
(0.00836266 -0.134675 -0.00363948)
(0.00831784 -0.13816 -0.00361856)
(0.00624522 -0.140536 -0.00343434)
(0.00427523 -0.139941 -0.00359824)
(0.00249313 -0.137097 -0.00270223)
(-0.00168608 -0.130988 -0.00436389)
(-0.00279555 -0.11657 -0.00246176)
(-0.0130764 -0.0976573 -0.00730339)
(-0.0159844 -0.0542138 -0.0155428)
(-0.0114855 -0.00541909 -0.0126848)
(-0.00989215 0.0354449 -0.00580145)
(-0.00899551 0.0614372 0.00421544)
(-0.00856309 0.0641787 0.0229118)
(-0.00687024 0.0512489 0.0333629)
(-0.00344286 0.0221316 0.0403643)
(0.0210698 0.0222218 0.00138855)
(0.0206234 0.00902066 0.000585539)
(0.0118646 0.00695551 -0.00172709)
(0.0112467 0.00478199 0.000454421)
(0.00638289 0.000225007 0.00159031)
(0.00559449 -0.000516425 0.00216622)
(0.00254151 -0.00248607 0.00296009)
(0.00186393 -0.00109404 0.00263238)
(0.0013396 0.000495723 0.00237047)
(0.00138254 0.00305598 0.00258849)
(0.00178391 0.00440416 0.00300532)
(0.00236479 0.00507314 0.00357002)
(0.0029936 0.00478387 0.00385162)
(0.0034429 0.00417476 0.00402869)
(0.00362107 0.00317816 0.00401114)
(0.00374676 0.00232104 0.0039672)
(0.00374433 0.00151929 0.00388187)
(0.00382594 0.00102217 0.00376424)
(0.00387202 0.000575125 0.00363039)
(0.00388914 0.000339247 0.0035724)
(0.00387431 0.000140359 0.00353764)
(0.00383581 6.22267e-05 0.0035448)
(0.00378077 1.40588e-05 0.00357702)
(0.0037151 1.7385e-05 0.00363498)
(0.00364322 3.19628e-05 0.00371021)
(0.00357066 5.44171e-05 0.00379846)
(0.00349979 7.03071e-05 0.00389571)
(0.00342909 7.02464e-05 0.00399502)
(0.0033615 7.08224e-05 0.00409652)
(0.00328876 2.91577e-05 0.00418935)
(0.00323087 4.04851e-05 0.00429184)
(0.00314955 -6.07985e-05 0.00435384)
(0.00311481 1.89923e-05 0.00442405)
(0.00302297 -0.000201562 0.00446311)
(0.00301231 3.26735e-05 0.0045317)
(0.00291669 -0.000407807 0.00457243)
(0.00291054 5.06488e-05 0.00464368)
(0.00282162 -0.000737884 0.00470711)
(0.00283979 -1.72315e-05 0.00476276)
(0.00280377 -0.00131262 0.00487111)
(0.00286232 -0.000333919 0.00485298)
(0.00297427 -0.00218427 0.00498767)
(0.00301455 -0.000832886 0.00482286)
(0.00333193 -0.00312228 0.00491972)
(0.00333884 -0.00102078 0.00458275)
(0.00383919 -0.00371904 0.00463608)
(0.00392429 -0.00084251 0.00422625)
(0.00412862 -0.00466915 0.00445763)
(0.00442153 -0.00155295 0.00444174)
(0.0023323 -0.00780487 0.00378094)
(0.00364095 7.01388e-05 0.0030002)
(0.001366 -0.0137386 -0.000361748)
(-0.00147515 0.015231 -0.00199537)
(0.0102743 -0.004684 -0.00238655)
(0.045909 0.0242504 0.00250083)
(0.0494422 -0.054318 -0.00665431)
(0.00127372 0.0313251 -0.00428993)
(-0.00494863 -0.0108896 -0.0208917)
(0.0227189 0.206299 -0.0176034)
(0.180789 -0.000604925 -0.0831449)
(0.0955417 0.325666 0.0131862)
(0.00800165 0.42042 0.000880427)
(-0.0250231 -0.0929191 -0.00252419)
(-0.00895156 -0.0759295 0.00748754)
(-0.0107989 -0.0920394 0.0103356)
(-0.0183449 -0.107496 0.0119101)
(-0.0210921 -0.110411 0.00951804)
(-0.0209201 -0.109239 0.00805084)
(-0.0194911 -0.106088 0.00580948)
(-0.0171666 -0.100998 0.00380531)
(-0.0142753 -0.0951786 0.00244361)
(-0.0100654 -0.0882676 0.00121249)
(-0.00504197 -0.0806908 0.000310457)
(0.000214153 -0.0739091 -0.000336135)
(0.00411901 -0.0675926 -0.00115955)
(0.00742173 -0.064206 -0.00161312)
(0.0104568 -0.0639493 -0.00167256)
(0.0128488 -0.0662356 -0.00159096)
(0.0145299 -0.0704177 -0.00158858)
(0.015206 -0.0755935 -0.00164032)
(0.0149793 -0.0811776 -0.00168848)
(0.0141462 -0.0864703 -0.00177873)
(0.0123198 -0.0909583 -0.00136942)
(0.00940858 -0.0955879 -0.00114901)
(0.0054827 -0.0979367 -0.0011017)
(0.000159682 -0.0981973 -5.35236e-05)
(-0.00804436 -0.0985676 -0.00165875)
(-0.0179024 -0.0910492 1.04206e-05)
(-0.0292267 -0.0806784 -0.0068333)
(-0.0370064 -0.0515 -0.0143512)
(-0.0321018 -0.0071359 -0.013261)
(-0.0199104 0.0308165 -0.0062682)
(-0.0176694 0.0557075 0.00563526)
(-0.017996 0.0578889 0.0263808)
(-0.016957 0.0452023 0.0385672)
(-0.0139312 0.023568 0.047135)
(0.0260912 0.0257023 0.00190251)
(0.02582 0.0158807 0.00184096)
(0.0165813 0.0133845 -0.00108538)
(0.0152248 0.0121576 0.00127932)
(0.00871877 0.00650555 0.002186)
(0.00665567 0.00434829 0.00334091)
(0.00188547 0.000194687 0.00431442)
(0.000168375 0.00115762 0.00384532)
(-0.00103725 0.00213603 0.0036083)
(-0.00065288 0.00413104 0.003785)
(0.000153347 0.0046985 0.00405189)
(0.00124705 0.00515428 0.0043759)
(0.00209645 0.00486351 0.00457345)
(0.00278564 0.00456311 0.00467767)
(0.00313523 0.00378348 0.00462786)
(0.00332924 0.00308711 0.0045842)
(0.00327609 0.00228489 0.00453858)
(0.00327711 0.00172707 0.00453158)
(0.00317915 0.00119527 0.00453753)
(0.00311434 0.00087905 0.0045646)
(0.00300415 0.000600583 0.00459358)
(0.00289426 0.000465712 0.00463739)
(0.00277675 0.00037267 0.00468722)
(0.0026668 0.000347221 0.0047475)
(0.0025632 0.000347388 0.00481163)
(0.00247047 0.000365414 0.00487869)
(0.00238679 0.000383204 0.00494745)
(0.00230533 0.000392498 0.00501657)
(0.0022296 0.000395625 0.00508585)
(0.00214658 0.000370251 0.00515308)
(0.0020855 0.000367472 0.00522388)
(0.00197552 0.000271905 0.00528214)
(0.00193169 0.000322808 0.00535478)
(0.00178794 9.79184e-05 0.00539753)
(0.00179723 0.00029682 0.00548232)
(0.00162429 -0.000163746 0.00551478)
(0.00168157 0.000259335 0.00560616)
(0.00150982 -0.000542114 0.00564958)
(0.00162023 0.000175667 0.00571868)
(0.0015042 -0.0010648 0.00579936)
(0.00166948 9.47922e-05 0.00577534)
(0.00164835 -0.00158191 0.00585861)
(0.00183515 0.000299247 0.00571932)
(0.00196607 -0.00179365 0.00579596)
(0.00224407 0.000868228 0.00564121)
(0.00276221 -0.00192645 0.00590383)
(0.00324608 0.000739836 0.0058791)
(0.00402588 -0.00354643 0.00642451)
(0.00451797 -0.00202786 0.00620165)
(0.00267893 -0.00844129 0.00603251)
(0.00285054 -0.00425258 0.00510268)
(-0.0059613 -0.0110314 0.00170249)
(-0.00893561 0.0210923 0.00250642)
(0.0229057 -0.0418498 0.0106103)
(0.0518885 -0.0226554 0.0107087)
(0.0534129 -0.0803274 0.00898437)
(-0.0308372 0.0434292 0.0109122)
(-0.0606153 -0.117067 -0.0136766)
(-0.0593135 0.228414 -0.0474384)
(0.189823 -0.0421256 -0.0381228)
(0.147932 0.349838 0.0116066)
(0.0652933 0.450704 0.00230731)
(0.0612127 -0.10023 0.00906416)
(0.0330899 -0.0462139 0.016827)
(0.00191136 -0.0691111 0.015936)
(-0.00578521 -0.0797569 0.0121062)
(-0.0143395 -0.0790043 0.00784372)
(-0.018318 -0.0744876 0.00433936)
(-0.0171396 -0.0661281 0.00088923)
(-0.0153095 -0.0550196 -0.00262163)
(-0.0139069 -0.0423864 -0.00631221)
(-0.0116778 -0.0260933 -0.00856716)
(-0.00815775 -0.00743586 -0.0094732)
(-0.00265782 0.006293 -0.00770374)
(0.0049658 0.0136611 -0.00402612)
(0.0126733 0.0151764 -0.00059236)
(0.0187508 0.0114328 0.00185474)
(0.0226065 0.00399443 0.00314407)
(0.0246043 -0.00475873 0.00337692)
(0.0248976 -0.0137908 0.00307527)
(0.0241026 -0.0221779 0.00280627)
(0.0225328 -0.02974 0.00268697)
(0.0200206 -0.0367447 0.00261966)
(0.0159735 -0.0430972 0.00240067)
(0.0105261 -0.0488782 0.00246455)
(0.00343189 -0.0534355 0.00304846)
(-0.0071686 -0.0572374 0.00311071)
(-0.0197508 -0.0576539 0.00571368)
(-0.0378005 -0.0572655 -0.0022309)
(-0.053807 -0.0363793 -0.0140208)
(-0.0508505 -0.00410071 -0.0141913)
(-0.0340208 0.0224982 -0.00666447)
(-0.0282832 0.0467889 0.00585348)
(-0.032011 0.0495367 0.0269381)
(-0.034027 0.0392647 0.0413122)
(-0.0308803 0.021537 0.0507782)
(0.0301326 0.028476 0.00139642)
(0.0309055 0.0212172 0.00239684)
(0.0208406 0.0169526 -0.00157514)
(0.0200384 0.0169215 -0.000142237)
(0.0130619 0.0102222 0.000266765)
(0.0105925 0.00782709 0.0025598)
(0.00222823 0.000314362 0.00350824)
(-0.00127576 0.000152184 0.00305194)
(-0.0030837 0.000677971 0.00314879)
(-0.00209687 0.00329665 0.00367503)
(-0.00114103 0.00378965 0.00428316)
(-0.000163824 0.00453937 0.00476181)
(0.000712056 0.00454929 0.00488119)
(0.00147355 0.00454564 0.00490011)
(0.00194213 0.00394351 0.00474694)
(0.00217887 0.00337764 0.00468631)
(0.00212238 0.00261708 0.00464982)
(0.00210471 0.00208235 0.00466307)
(0.00196848 0.00152392 0.00467879)
(0.00186636 0.00115751 0.00471183)
(0.00171461 0.000830293 0.00474084)
(0.00156979 0.000648488 0.00478501)
(0.00141745 0.000522347 0.00483527)
(0.00126681 0.000468527 0.00489134)
(0.00113015 0.000439618 0.00495115)
(0.00101324 0.000437096 0.00501459)
(0.000912436 0.00044468 0.0050796)
(0.000822036 0.000454278 0.00514544)
(0.000741153 0.000463903 0.0052123)
(0.00066168 0.000455313 0.00527809)
(0.000595935 0.000465615 0.00534635)
(0.000499332 0.000398 0.00540233)
(0.000462808 0.000446455 0.00547184)
(0.000324655 0.000239429 0.00550652)
(0.000363791 0.00041862 0.0055876)
(0.000171864 -2.82326e-05 0.00560558)
(0.000310626 0.000400735 0.00569847)
(8.16671e-05 -0.000377861 0.00570212)
(0.000317351 0.000416813 0.00579389)
(0.000111972 -0.00073141 0.00579171)
(0.000382299 0.000592133 0.00580175)
(0.000252414 -0.000861835 0.00577441)
(0.00049348 0.00104627 0.00567124)
(0.000656724 -0.00068798 0.00575899)
(0.000981944 0.00152742 0.0057037)
(0.00169869 -0.000943653 0.00603134)
(0.00245964 0.00099134 0.00633551)
(0.00362789 -0.00279186 0.00697125)
(0.00416364 -0.00215729 0.00730826)
(0.0031975 -0.00757888 0.00836291)
(-0.000193091 -0.00935952 0.00727476)
(-0.0148305 -0.0113572 0.00257156)
(0.0142096 -0.00286197 0.00509185)
(0.0592362 -0.056147 0.0198433)
(0.0617651 -0.0347476 0.0248153)
(0.0478571 -0.0929293 0.0219511)
(-0.0046488 0.0279695 0.00943801)
(-0.0858427 -0.133256 -0.0025046)
(-0.0505984 0.301824 -0.119361)
(0.192871 -0.0890944 -0.0115259)
(0.162674 0.385988 -0.00485942)
(0.087549 0.440528 -0.0370062)
(0.0892724 -0.0143803 0.00523153)
(-0.0232942 0.0598974 0.0183906)
(-0.0165784 -0.0325243 0.017599)
(-0.0187332 -0.0106444 0.00567858)
(-0.023468 -0.015003 -0.00423075)
(-0.0280686 -0.002409 -0.0117933)
(-0.0293229 0.0236578 -0.0159207)
(-0.026511 0.0526884 -0.0151962)
(-0.0226717 0.0730962 -0.0087833)
(-0.0168386 0.0853425 -0.00324661)
(-0.00864843 0.0907311 0.00214563)
(0.000605698 0.0901663 0.00676723)
(0.00951178 0.0848902 0.00990613)
(0.0164658 0.0748368 0.0116578)
(0.0218063 0.0639225 0.0122915)
(0.0252013 0.0511737 0.0117224)
(0.0269648 0.0392298 0.01042)
(0.0268921 0.0272011 0.00927745)
(0.0256637 0.0169689 0.00856623)
(0.0237675 0.00811181 0.00786651)
(0.02079 0.000684255 0.00689239)
(0.0164379 -0.00541001 0.00565256)
(0.010223 -0.0107777 0.00421164)
(0.00152981 -0.0153322 0.00295338)
(-0.0115201 -0.0192385 0.00209711)
(-0.0291863 -0.0207305 0.00188484)
(-0.051729 -0.0207803 -0.0057133)
(-0.0671808 -0.00764359 -0.015415)
(-0.0591522 0.00886172 -0.0138469)
(-0.0411768 0.0243641 -0.00535526)
(-0.0361833 0.0412994 0.00887656)
(-0.0412639 0.0428219 0.0278888)
(-0.0456591 0.0345497 0.0434554)
(-0.0439114 0.0191129 0.0541633)
(0.0319401 0.0302487 0.00321501)
(0.0343706 0.0262277 0.00470766)
(0.0246187 0.0189268 0.000114346)
(0.0232291 0.0187477 0.00139069)
(0.0169589 0.0111695 0.000146017)
(0.0150743 0.0103991 0.00210652)
(0.0063005 0.00229561 0.000626439)
(-0.000537322 0.000942087 0.00132261)
(-0.00498321 -0.00168787 0.00200853)
(-0.00469429 0.00105112 0.00321332)
(-0.00343994 0.00197448 0.00428441)
(-0.00254896 0.00364737 0.0050034)
(-0.00155282 0.0041671 0.00505238)
(-0.00063529 0.00449486 0.00496992)
(1.02996e-05 0.00402146 0.00467695)
(0.000226011 0.00345107 0.00457151)
(7.00197e-05 0.00269249 0.00451196)
(-0.000114147 0.00218226 0.00454483)
(-0.000368779 0.00165763 0.00456085)
(-0.000569043 0.00130661 0.00458014)
(-0.000798288 0.00097876 0.0045753)
(-0.000992601 0.000763213 0.00458316)
(-0.0011738 0.000579891 0.00459612)
(-0.00132996 0.000471556 0.00462467)
(-0.00146178 0.000410712 0.00466261)
(-0.0015702 0.000387574 0.00470746)
(-0.00166039 0.000384231 0.00475538)
(-0.00173916 0.000390678 0.00480527)
(-0.00180693 0.000401456 0.00485732)
(-0.0018686 0.000400841 0.00491024)
(-0.00191614 0.000415647 0.00496245)
(-0.00198264 0.000361414 0.00499618)
(-0.00199455 0.000417277 0.00504828)
(-0.00210429 0.00022791 0.00504803)
(-0.00203556 0.000414853 0.00510787)
(-0.00221141 -1.50547e-05 0.00507665)
(-0.00201745 0.000432358 0.00515612)
(-0.0022789 -0.000294409 0.00509809)
(-0.00196429 0.000548827 0.00517921)
(-0.00223569 -0.000426236 0.00511187)
(-0.00192992 0.000892249 0.00509812)
(-0.00211618 -0.000239211 0.00503739)
(-0.00188399 0.00148876 0.00491146)
(-0.00170238 9.09237e-05 0.00503023)
(-0.00138281 0.0019424 0.00506138)
(-0.000540549 -0.00036544 0.00536666)
(0.000157214 0.00115843 0.00593135)
(0.0017945 -0.00256576 0.00634711)
(0.0022624 -0.00197414 0.0069502)
(0.00367065 -0.00648327 0.0079672)
(0.000199458 -0.00916951 0.00636379)
(-0.0120926 -0.0183148 0.00347725)
(0.0166512 -0.0259154 0.00402457)
(0.0653467 -0.0404161 0.0352557)
(0.072726 0.0179478 0.0697186)
(0.0242326 -0.0567266 0.0369945)
(-0.0504481 0.0596729 0.0595164)
(-0.141333 -0.121059 0.0481741)
(0.00527436 0.207971 -0.174985)
(0.137764 -0.0926407 0.0121422)
(0.153094 0.450199 0.00391996)
(0.0650854 0.609721 -0.00921694)
(0.0562419 0.542522 -0.000897602)
(0.0124323 0.578445 -0.00349297)
(0.00116107 0.557606 -0.00594222)
(-0.026535 0.568077 -0.00829782)
(-0.0268687 0.553037 -0.00711407)
(-0.0338577 0.387258 -0.00619845)
(-0.0303477 0.616656 -0.000367032)
(-0.0279343 0.627512 0.00515414)
(-0.0222185 0.631851 0.00913043)
(-0.0159444 0.631143 0.012381)
(-0.00693803 0.634791 0.0141644)
(0.00150298 0.626718 0.0148576)
(0.00970713 0.615808 0.0143921)
(0.0168567 0.595522 0.0134326)
(0.0226215 0.597669 0.0119932)
(0.025994 0.540377 0.0106493)
(0.0282917 0.387704 0.00976355)
(0.0293284 0.0908542 0.0103395)
(0.0272501 0.055826 0.0116456)
(0.0248884 0.0415433 0.0127127)
(0.0217077 0.0295945 0.0130884)
(0.0175781 0.0200535 0.0124958)
(0.0119026 0.0135977 0.0101955)
(0.00335103 0.00958301 0.00581499)
(-0.00991561 0.00743866 -0.000304244)
(-0.0285911 0.00867379 -0.00552079)
(-0.0506654 0.0103219 -0.0115697)
(-0.0620941 0.0146798 -0.0149729)
(-0.0535868 0.0192311 -0.0116033)
(-0.0427275 0.0278002 -0.00516712)
(-0.0422705 0.0401013 0.00872992)
(-0.0499684 0.0407474 0.0272912)
(-0.0611444 0.0323355 0.0420553)
(-0.0655371 0.0169976 0.0528583)
(0.029682 0.0313821 0.00900673)
(0.0347282 0.0282796 0.00848838)
(0.025323 0.0194657 0.0032829)
(0.0243082 0.0194527 0.00515329)
(0.0183163 0.00867701 0.00266813)
(0.016418 0.0102946 0.00264604)
(0.00972985 0.00339232 -0.000354518)
(0.00312517 0.00318873 -0.00022501)
(-0.00395467 -0.00247184 0.00102928)
(-0.00620596 -0.00139318 0.00237177)
(-0.00565793 -0.000705218 0.00379643)
(-0.00463522 0.00197535 0.00498355)
(-0.00311901 0.00331493 0.0051279)
(-0.00180499 0.00408321 0.00518582)
(-0.000744866 0.00368695 0.00502557)
(-0.000396582 0.00311098 0.00501508)
(-0.000615077 0.00237798 0.00491794)
(-0.000904104 0.00194745 0.00492586)
(-0.00124999 0.00155998 0.0048699)
(-0.00152359 0.00135175 0.00480979)
(-0.00179665 0.00113212 0.00471228)
(-0.00202005 0.00097396 0.00462809)
(-0.00222126 0.00082246 0.00455032)
(-0.00239252 0.000721031 0.00448691)
(-0.0025293 0.000647916 0.00443466)
(-0.00262687 0.000605993 0.00439902)
(-0.00269468 0.000583227 0.00437722)
(-0.00274122 0.000577407 0.00436744)
(-0.00277262 0.000585882 0.0043658)
(-0.00279618 0.000590648 0.00436763)
(-0.00280599 0.000612892 0.00437174)
(-0.00283875 0.000572649 0.00436227)
(-0.00281442 0.000639709 0.00438047)
(-0.00289545 0.000476804 0.0043456)
(-0.00276447 0.000688086 0.00439719)
(-0.00294214 0.000313373 0.00430899)
(-0.00268204 0.000787577 0.00439033)
(-0.00298376 0.000180043 0.00425124)
(-0.00262542 0.00101997 0.00433458)
(-0.00293526 0.000232686 0.00418144)
(-0.00266838 0.00143452 0.00415249)
(-0.00279563 0.00042904 0.00402107)
(-0.00270357 0.00187667 0.00387604)
(-0.00226215 0.000314102 0.00398871)
(-0.0020036 0.00192307 0.00414454)
(-0.000738673 -0.000568822 0.0045331)
(0.000130887 0.000932809 0.00546222)
(0.00217227 -0.00246368 0.00589411)
(0.00253619 -0.00134659 0.00668622)
(0.00438546 -0.00464356 0.00624722)
(0.00170535 -0.00399914 0.00264365)
(-0.0054417 -0.0143321 0.00523583)
(0.0181897 -0.0205712 0.0180883)
(0.0194985 0.0460437 0.0525325)
(0.00267963 0.0868818 0.078717)
(-0.0171416 0.073382 0.101601)
(-0.0094714 0.106992 0.136766)
(-0.105469 -0.136529 0.0989048)
(0.042162 0.0947278 -0.153943)
(0.0832184 -0.0250344 0.0214267)
(0.136416 0.486947 0.00221919)
(0.0461831 0.634903 -0.00858395)
(0.0439875 0.599457 0.000319904)
(-0.00200966 0.645034 0.0032622)
(-0.0175484 0.650983 0.00314266)
(-0.0288745 0.672037 0.00392095)
(-0.0333306 0.687108 0.00502739)
(-0.0373925 0.694581 0.00650314)
(-0.037089 0.692949 0.0078036)
(-0.0348674 0.654357 0.00906053)
(-0.0298555 0.671306 0.0104104)
(-0.0238782 0.697219 0.0105008)
(-0.0112426 0.679425 0.00943027)
(-0.000629675 0.671428 0.00865455)
(0.0123111 0.674913 0.00743036)
(0.0216677 0.659175 0.00689594)
(0.0311818 0.654748 0.00561083)
(0.0363071 0.63989 0.00459174)
(0.0373856 0.612695 0.00444771)
(0.0332592 0.598551 0.00670962)
(0.0256645 0.574841 0.0113051)
(0.0200285 0.537897 0.0139728)
(0.011816 0.506716 0.0166565)
(0.00416945 0.359201 0.0183579)
(0.00185883 0.0590285 0.0185057)
(-0.00658802 0.0279125 0.0160439)
(-0.017574 0.0208094 0.0100567)
(-0.0314702 0.0186366 0.0011716)
(-0.0466257 0.0190529 -0.00633727)
(-0.053534 0.0186074 -0.0094767)
(-0.0482728 0.0195495 -0.0090716)
(-0.0427314 0.0254946 -0.00465989)
(-0.0464375 0.0337286 0.00832415)
(-0.0576955 0.0335678 0.0272292)
(-0.0681688 0.0272124 0.0425058)
(-0.0724575 0.014683 0.0522148)
(0.023758 0.0310605 0.00929477)
(0.0323703 0.0326571 0.00940063)
(0.021648 0.0199998 0.00664791)
(0.0218716 0.0209638 0.00996116)
(0.0148585 0.00623279 0.00707582)
(0.0135419 0.00784694 0.00562519)
(0.00962207 0.00129072 0.00211553)
(0.00482443 0.00302643 0.000248327)
(-0.00183273 -0.00226664 0.000764661)
(-0.00638045 -0.00181829 0.00217777)
(-0.00800765 -0.00238586 0.00353491)
(-0.00817112 0.000497269 0.00484806)
(-0.00644739 0.00258206 0.00528154)
(-0.00443735 0.00350939 0.0058928)
(-0.00309309 0.00316336 0.00609397)
(-0.00282092 0.00273219 0.00621829)
(-0.0032505 0.0020919 0.00604539)
(-0.00386746 0.00178133 0.00589373)
(-0.00438803 0.0015292 0.0056751)
(-0.00473883 0.00144485 0.00547078)
(-0.00500508 0.00134578 0.00525809)
(-0.00518854 0.0012986 0.00508626)
(-0.00533239 0.00124572 0.00493812)
(-0.00543025 0.00122016 0.00482123)
(-0.00548811 0.00119599 0.0047305)
(-0.0055122 0.00118232 0.00466556)
(-0.00551447 0.00117069 0.00462741)
(-0.00551677 0.00116478 0.00461454)
(-0.00549423 0.00117053 0.00460642)
(-0.00545658 0.00117336 0.00459261)
(-0.00540742 0.00118861 0.00458153)
(-0.00535542 0.00116049 0.00457327)
(-0.00528009 0.00120771 0.00458415)
(-0.00528376 0.0010887 0.00456688)
(-0.00515046 0.00128648 0.00461078)
(-0.00522005 0.00102713 0.00454146)
(-0.00500901 0.00146821 0.00461663)
(-0.00513791 0.00105021 0.00450881)
(-0.00489411 0.00179018 0.00458121)
(-0.0049624 0.0011844 0.00443804)
(-0.00479208 0.00219593 0.00441288)
(-0.00465826 0.00114034 0.00424134)
(-0.00452302 0.002378 0.00414864)
(-0.00393232 0.000317168 0.0040784)
(-0.00374467 0.00205262 0.00426)
(-0.00241021 -0.000853119 0.00441206)
(-0.00164888 0.0011759 0.00526074)
(0.000517181 -0.00199671 0.00570478)
(0.000588194 -0.000459503 0.00653594)
(0.00312474 -0.00299233 0.00502193)
(0.00146719 -0.00253353 0.00184796)
(-0.00112806 -0.0104107 0.00719576)
(-0.0338085 -0.033045 0.0170864)
(-0.0493178 0.0184103 0.0528505)
(-0.0506138 0.0429875 0.0764728)
(-0.0365137 0.00508863 0.0750644)
(0.0412849 0.0213721 0.0875965)
(0.0145008 -0.124401 0.0757162)
(0.0410824 -0.00934952 -0.146609)
(0.0442787 0.0405833 0.0293241)
(0.0804572 0.519484 0.00255751)
(0.0142646 0.61931 -0.0115765)
(0.0133329 0.60071 0.000474983)
(-0.0129215 0.676862 0.0051926)
(-0.0251596 0.599518 0.00672241)
(-0.0344736 0.702244 0.00648939)
(-0.0427199 0.696963 0.00672158)
(-0.0437766 0.646768 0.00644831)
(-0.0447132 0.69639 0.00649209)
(-0.0405561 0.572937 0.00680562)
(-0.0329977 0.518541 0.00758649)
(-0.024704 0.699758 0.00724352)
(-0.0133567 0.686487 0.00688659)
(0.00117262 0.686511 0.0066404)
(0.0132747 0.661831 0.00724582)
(0.0355714 0.655276 0.00656941)
(0.0420192 0.685956 0.00528682)
(0.0504795 0.647515 0.00301678)
(0.0548724 0.649328 0.000163498)
(0.0538307 0.651054 -0.000942161)
(0.0485112 0.634518 0.000240788)
(0.0408452 0.56837 0.00292208)
(0.0258964 0.59935 0.00756338)
(0.0110751 0.568971 0.0117394)
(-0.00281708 0.541364 0.0109364)
(-0.0145623 0.494461 0.00741058)
(-0.0252462 0.339403 0.00190742)
(-0.0298571 0.0527053 0.000280078)
(-0.040377 0.0249759 -0.00513503)
(-0.0436078 0.0211878 -0.00669674)
(-0.0423016 0.0191702 -0.00650682)
(-0.0420215 0.0223798 -0.00421052)
(-0.0485408 0.050651 0.00536217)
(-0.0698245 0.417765 0.0277225)
(-0.0881434 0.420382 0.0449309)
(-0.0951791 0.451996 0.0490563)
(0.0215932 0.0244339 0.00308271)
(0.0300733 0.0351766 0.00738675)
(0.0163852 0.0205269 0.00723187)
(0.0190816 0.0241402 0.0103849)
(0.0113757 0.00821778 0.00848573)
(0.00954824 0.00790509 0.00664386)
(0.00563742 -0.00015782 0.00402963)
(0.00310368 0.00253371 0.00140874)
(-0.00195994 -0.00112242 0.000865605)
(-0.00653998 -0.000389217 0.00218769)
(-0.00878078 -0.00208954 0.00331966)
(-0.00997465 -0.00084257 0.00458411)
(-0.00757372 -0.00035826 0.00588731)
(-0.00487321 0.000492134 0.00703287)
(-0.00329663 0.000581174 0.00784834)
(-0.00307936 0.00103438 0.00843287)
(-0.00332449 0.00121945 0.00862331)
(-0.00383963 0.00154285 0.00859094)
(-0.00426234 0.00171543 0.00835268)
(-0.00458365 0.00191318 0.00806652)
(-0.00484114 0.00195929 0.00776481)
(-0.00501657 0.00199466 0.00751384)
(-0.00514197 0.00197936 0.00729609)
(-0.00521941 0.00196205 0.00712576)
(-0.0052447 0.0019318 0.00698839)
(-0.00523178 0.00190016 0.00688494)
(-0.00519647 0.00186932 0.00680104)
(-0.00515068 0.00185106 0.00672986)
(-0.00509432 0.00184539 0.00667)
(-0.00501892 0.00184498 0.00662161)
(-0.00493249 0.00185301 0.00657871)
(-0.00483923 0.00182807 0.00653861)
(-0.00474421 0.00185196 0.00651063)
(-0.00470348 0.00176234 0.00646945)
(-0.00458054 0.00195259 0.00646543)
(-0.00459841 0.00178821 0.00636678)
(-0.00444488 0.00221473 0.00635717)
(-0.00452023 0.00191197 0.00618131)
(-0.00432874 0.00257586 0.00615361)
(-0.00430536 0.00201012 0.00590379)
(-0.00407856 0.00286377 0.00583204)
(-0.00374163 0.00169394 0.00557011)
(-0.00339952 0.00285095 0.00555855)
(-0.00265142 0.000519008 0.00543281)
(-0.00241481 0.00239833 0.00564151)
(-0.000879389 -0.000821606 0.00585965)
(-0.000217013 0.0018836 0.00632791)
(0.0026329 -0.00163394 0.00705457)
(0.00260415 0.00116983 0.00717059)
(0.00577072 -0.00178482 0.00553837)
(0.00524303 0.000117056 0.00424647)
(0.012899 -0.0106857 0.00500092)
(-0.0190016 -0.0376123 0.0149015)
(-0.089897 -0.0479878 0.0252696)
(-0.0898599 -0.0250923 0.0351041)
(-0.0675724 -0.0722703 0.0478936)
(-0.00533516 -0.05477 0.0767679)
(0.045601 -0.110883 0.0685402)
(0.0133561 -0.0488927 -0.137167)
(-0.00280589 0.0720087 0.0296736)
(-0.010429 0.578174 0.00087779)
(-0.029882 0.680426 -0.0116077)
(-0.0342214 0.693231 0.0051326)
(-0.0355659 0.72116 0.00434814)
(-0.0393776 0.72401 0.00639592)
(-0.0418373 0.726856 0.00525472)
(-0.043785 0.704607 0.00576135)
(-0.0429062 0.635885 0.00559031)
(-0.0402727 0.726377 0.00577833)
(-0.0346749 0.707741 0.00626483)
(-0.0237597 0.704302 0.00750876)
(-0.014793 0.694335 0.00830334)
(0.000590355 0.6903 0.0101282)
(0.0150405 0.700747 0.0111486)
(0.0349898 0.69803 0.0124401)
(0.0502137 0.643418 0.0122637)
(0.0553982 0.576945 0.0112608)
(0.0629849 0.640369 0.00809568)
(0.0668205 0.649944 0.00257699)
(0.06691 0.649154 -0.00238922)
(0.0630396 0.656025 -0.00643802)
(0.0546717 0.659581 -0.00575961)
(0.0420641 0.650506 -0.00511524)
(0.0269668 0.645234 -0.00360058)
(0.00903388 0.629834 -0.00127346)
(-0.00679069 0.614426 -0.0023558)
(-0.0202186 0.59723 -0.00305725)
(-0.0312756 0.578118 -0.00447614)
(-0.037584 0.560701 -0.00242466)
(-0.0408108 0.552205 0.000849871)
(-0.0469647 0.551635 0.00703513)
(-0.0544457 0.5492 0.0138307)
(-0.0660735 0.550389 0.0246327)
(-0.073919 0.560531 0.0311973)
(-0.0909708 0.520086 0.0410877)
(-0.0923637 0.488006 0.0296007)
(0.0127308 0.0191993 -0.00914145)
(0.0282632 0.0334803 0.00499616)
(0.00821241 0.0169871 0.00450419)
(0.0146211 0.0260104 0.00659566)
(0.00764265 0.0109543 0.00514367)
(0.00774829 0.010504 0.00392412)
(0.002634 0.00104125 0.0013285)
(0.000682608 0.00380078 -0.000683143)
(-0.00270632 0.000505705 -0.00277613)
(-0.00663902 0.00157621 -0.00169171)
(-0.00884036 -0.000978228 -0.000223612)
(-0.0100046 -0.00144229 0.000928888)
(-0.0095956 -0.00271529 0.00194541)
(-0.00845458 -0.00196424 0.00308394)
(-0.0077194 -0.00122576 0.00423016)
(-0.00785691 -0.000136576 0.00510868)
(-0.00835849 0.000506856 0.00564365)
(-0.00888279 0.00116344 0.00590287)
(-0.00926213 0.00153256 0.00593535)
(-0.00934278 0.0019038 0.00585531)
(-0.00934676 0.00210313 0.00570163)
(-0.00931939 0.00223554 0.00555939)
(-0.00927048 0.00228148 0.00543397)
(-0.0091976 0.00229357 0.00533902)
(-0.00909674 0.00227951 0.00526389)
(-0.0089768 0.00226092 0.00520422)
(-0.00884527 0.00224387 0.00515111)
(-0.00870688 0.00223427 0.00510317)
(-0.00855976 0.00223152 0.00505661)
(-0.00839735 0.00223417 0.00501236)
(-0.00822782 0.00224916 0.00496701)
(-0.00804113 0.00225041 0.00491614)
(-0.00789568 0.00229295 0.00486425)
(-0.00781896 0.00225289 0.00480309)
(-0.00774424 0.00243121 0.00475597)
(-0.00766587 0.00233415 0.00464925)
(-0.00758903 0.00272275 0.00458128)
(-0.00744451 0.00250933 0.00440203)
(-0.00735088 0.00314084 0.00429545)
(-0.00705566 0.00268906 0.00403005)
(-0.00689475 0.00354593 0.00391921)
(-0.006497 0.00235831 0.00360611)
(-0.00603611 0.00330119 0.00360537)
(-0.0054995 0.00097306 0.00336074)
(-0.00501573 0.0027006 0.00358828)
(-0.00402573 -0.00022915 0.00359307)
(-0.00315944 0.00261912 0.00378581)
(-0.000891586 -8.36228e-05 0.00391185)
(-0.000710963 0.00388911 0.00340683)
(0.00327696 0.00127655 0.00117374)
(0.00485532 0.00688275 -0.000531964)
(0.0243041 -0.00460689 0.00490408)
(-0.00180188 -0.0100387 0.0153999)
(-0.0739658 -0.0575028 0.0243372)
(-0.082606 -0.0538453 0.0249406)
(-0.0575862 -0.0928585 0.0373827)
(-0.0397673 -0.0745005 0.051953)
(0.0563945 -0.126095 0.0562024)
(-0.0280767 -0.011274 -0.161389)
(-0.0503515 0.058901 0.0201825)
(-0.105286 0.54879 -0.0145082)
(-0.0661417 0.69006 -0.00988139)
(-0.0665079 0.66324 -0.00154896)
(-0.0530909 0.644666 0.00210765)
(-0.0504248 0.690074 0.00366794)
(-0.04792 0.65423 0.00490248)
(-0.0466481 0.659576 0.00514393)
(-0.0439618 0.577204 0.00557868)
(-0.0416871 0.595811 0.00528348)
(-0.0366388 0.559435 0.00520563)
(-0.0267505 0.548318 0.00531545)