/*--------------------------------*- C++ -*----------------------------------*\
| =========                 |                                                 |
| \\      /  F ield         | OpenFOAM: The Open Source CFD Toolbox           |
|  \\    /   O peration     | Version:  2.3.0                                 |
|   \\  /    A nd           | Web:      www.OpenFOAM.org                      |
|    \\/     M anipulation  |                                                 |
\*---------------------------------------------------------------------------*/
FoamFile
{
    version     2.0;
    format      ascii;
    class       volVectorField;
    location    "26";
    object      Ur;
}
// * * * * * * * * * * * * * * * * * * * * * * * * * * * * * * * * * * * * * //

dimensions      [0 1 -1 0 0 0 0];

internalField   nonuniform List<vector> 
6144
(
(-2.37195e-07 0.000464671 -1.78144e-07)
(-1.50936e-07 0.000500555 -3.25919e-07)
(4.141e-08 0.00053535 -2.88568e-07)
(2.51259e-07 0.000559321 -2.12379e-07)
(4.03498e-07 0.000582605 -1.01777e-07)
(5.21096e-07 0.000607622 -4.61157e-08)
(5.82089e-07 0.000635484 5.51437e-10)
(5.63933e-07 0.000666883 2.34605e-08)
(5.05022e-07 0.000693035 4.90265e-08)
(4.43116e-07 0.000704732 4.50933e-08)
(3.77581e-07 0.000706226 3.22214e-08)
(3.14221e-07 0.000705251 2.98625e-08)
(2.50588e-07 0.000704227 2.5298e-08)
(1.96909e-07 0.000703281 1.65148e-08)
(1.53351e-07 0.000702414 1.1382e-08)
(1.15993e-07 0.000701655 2.06366e-09)
(9.11942e-08 0.000701026 -5.52159e-09)
(6.56898e-08 0.000700514 -1.65488e-08)
(4.88824e-08 0.000700086 -2.34827e-08)
(3.00935e-08 0.000699733 -3.37787e-08)
(2.01539e-08 0.000699448 -4.08206e-08)
(6.06891e-09 0.000699218 -4.77445e-08)
(7.62395e-10 0.00069904 -5.04157e-08)
(-1.08281e-08 0.000698907 -5.52105e-08)
(-1.30642e-08 0.000698818 -5.63043e-08)
(-2.31833e-08 0.000698773 -6.21291e-08)
(-2.29801e-08 0.000698774 -6.54994e-08)
(-3.26836e-08 0.000698821 -7.26718e-08)
(-3.0421e-08 0.000698921 -7.57079e-08)
(-3.98327e-08 0.000699072 -8.49396e-08)
(-3.57352e-08 0.000699283 -8.92013e-08)
(-4.56069e-08 0.000699561 -1.01485e-07)
(-3.91165e-08 0.000699927 -1.09452e-07)
(-4.8819e-08 0.000700388 -1.27518e-07)
(-3.8785e-08 0.000700962 -1.40636e-07)
(-4.54544e-08 0.000701662 -1.65261e-07)
(-2.81097e-08 0.000702511 -1.85526e-07)
(-2.77767e-08 0.000703515 -2.22859e-07)
(5.78442e-09 0.00070469 -2.59034e-07)
(2.69327e-08 0.00070604 -3.16344e-07)
(9.41269e-08 0.00070758 -3.6464e-07)
(1.58652e-07 0.000709309 -4.18778e-07)
(2.90919e-07 0.000711017 -4.65673e-07)
(4.46945e-07 0.00071546 -5.09644e-07)
(7.16231e-07 0.000746048 -5.69226e-07)
(1.09289e-06 0.000847026 -7.34714e-07)
(1.583e-06 0.00105529 -1.04592e-06)
(1.23347e-06 0.00138094 -1.61037e-06)
(-8.5946e-07 0.00178831 -2.10775e-06)
(-7.53979e-06 0.00224929 -1.64203e-06)
(-1.6365e-05 0.00283003 -9.98682e-06)
(-6.05532e-05 0.00345201 1.28909e-06)
(-5.90754e-05 0.00377734 5.00272e-06)
(-1.10134e-05 0.00392042 -1.58526e-06)
(-5.56675e-05 0.00407018 9.81174e-06)
(-2.99623e-05 0.0041155 5.74343e-06)
(-0.000156987 0.00454391 -2.74358e-06)
(3.96689e-05 0.00641395 5.72315e-05)
(-0.000747547 0.0213787 -0.000995268)
(0.0083006 0.151581 0.00228599)
(-0.0184527 0.613624 -0.0391822)
(-0.0363067 0.495739 -0.0476433)
(-0.000440487 0.0213775 -0.000507697)
(-5.90949e-05 0.00623733 -5.60805e-05)
(-6.89961e-05 0.00662568 -3.55443e-05)
(-7.56767e-05 0.0066356 -3.70256e-05)
(-5.92253e-05 0.00667794 -2.29649e-05)
(-3.60928e-05 0.00675964 -2.60516e-05)
(-2.507e-05 0.00681027 -3.45775e-05)
(-3.05536e-05 0.00682513 -4.96898e-05)
(-3.63618e-05 0.00683479 -5.88866e-05)
(-2.76139e-05 0.00684084 -4.66998e-05)
(-2.15893e-05 0.0068663 -3.24984e-05)
(-3.16426e-05 0.00691015 -2.30922e-05)
(-4.09762e-05 0.00695612 -9.6557e-06)
(-3.98974e-05 0.00703349 7.86515e-06)
(-5.08494e-05 0.0071265 1.68526e-05)
(-4.32387e-05 0.0072085 1.40428e-05)
(-3.1933e-05 0.0072797 1.87432e-05)
(-4.99725e-05 0.00736074 8.17119e-06)
(-3.09378e-05 0.00745885 -8.91274e-06)
(6.73047e-06 0.00750237 -2.08156e-06)
(2.10303e-05 0.00746479 1.0768e-05)
(1.07015e-05 0.00738883 9.64672e-06)
(2.00856e-06 0.00730291 2.48002e-06)
(6.06761e-06 0.00724781 -3.79581e-06)
(9.76467e-06 0.00724526 -2.89313e-06)
(2.98652e-06 0.00725551 1.71441e-06)
(1.37654e-06 0.00727975 3.55236e-06)
(-1.3825e-05 0.00730996 -6.35278e-06)
(-3.06302e-05 0.00731588 -2.51442e-05)
(-3.11801e-05 0.00709889 -3.04015e-05)
(-1.463e-05 0.0063502 -1.83484e-05)
(-3.63262e-06 0.00544423 -1.4738e-05)
(-5.29736e-06 0.00514301 -1.83631e-05)
(3.25527e-07 0.00517939 -2.28681e-05)
(-1.04371e-07 0.000449094 -2.22219e-07)
(3.34624e-07 0.000497999 -3.6432e-07)
(7.68548e-07 0.000543434 -2.65915e-07)
(1.08909e-06 0.000570844 -1.90743e-07)
(1.40071e-06 0.000595965 -1.17625e-07)
(1.54684e-06 0.000621754 -6.27362e-08)
(1.61688e-06 0.000648989 -1.03295e-08)
(1.54264e-06 0.000677071 3.55558e-08)
(1.38576e-06 0.000697883 5.65294e-08)
(1.19986e-06 0.000705778 5.51336e-08)
(1.00148e-06 0.00070613 5.30608e-08)
(8.21879e-07 0.000705238 5.34189e-08)
(6.53272e-07 0.000704399 5.08153e-08)
(5.1314e-07 0.000703565 5.32972e-08)
(4.0558e-07 0.000702752 4.55531e-08)
(3.19521e-07 0.000702017 3.92339e-08)
(2.57935e-07 0.00070139 2.49268e-08)
(2.02115e-07 0.000700869 1.6375e-08)
(1.56495e-07 0.00070043 7.02477e-09)
(1.15261e-07 0.000700069 2.32746e-09)
(8.50139e-08 0.000699776 -7.10133e-09)
(5.68418e-08 0.000699543 -8.6201e-09)
(3.79439e-08 0.000699363 -1.6564e-08)
(1.89445e-08 0.000699232 -1.6065e-08)
(8.39298e-09 0.000699149 -2.40826e-08)
(-4.03287e-09 0.000699112 -2.25728e-08)
(-7.99232e-09 0.000699122 -3.15983e-08)
(-1.52115e-08 0.000699182 -2.97776e-08)
(-1.28722e-08 0.000699294 -4.11818e-08)
(-1.59237e-08 0.00069946 -3.935e-08)
(-9.0946e-09 0.000699685 -5.10965e-08)
(-7.40186e-09 0.000699982 -4.83194e-08)
(7.44893e-09 0.000700362 -6.37339e-08)
(1.74434e-08 0.000700838 -6.25997e-08)
(4.57932e-08 0.000701424 -8.25564e-08)
(7.18975e-08 0.000702137 -8.43613e-08)
(1.27325e-07 0.000702993 -1.11508e-07)
(1.93639e-07 0.000704001 -1.22433e-07)
(3.07898e-07 0.000705173 -1.67719e-07)
(4.52685e-07 0.000706517 -1.98596e-07)
(6.81534e-07 0.000708048 -2.69091e-07)
(9.65278e-07 0.000709741 -3.0895e-07)
(1.37385e-06 0.000711498 -3.35038e-07)
(1.94011e-06 0.000714619 -3.27416e-07)
(2.77059e-06 0.000735641 -3.97152e-07)
(3.80305e-06 0.000824708 -5.24683e-07)
(5.06409e-06 0.00102377 -8.75292e-07)
(5.0146e-06 0.00129598 -1.61765e-06)
(1.11575e-06 0.00153954 -2.29673e-06)
(-3.36489e-06 0.00194772 -3.82613e-06)
(-2.28653e-05 0.00285839 -9.44757e-06)
(-4.17941e-05 0.00372104 -1.84059e-06)
(-6.02735e-05 0.00404937 -1.60103e-05)
(1.28473e-06 0.00401931 -2.98512e-05)
(-5.47383e-06 0.00407018 1.18224e-05)
(-3.65677e-05 0.00407707 9.36102e-06)
(-0.000349947 0.00490699 -5.56991e-05)
(8.76655e-05 0.00655838 1.43896e-05)
(-0.000439562 0.0169181 -0.000379624)
(0.0204787 0.133121 0.0142561)
(-0.0403065 0.619388 -0.0345256)
(-0.0522063 0.437009 -0.0531399)
(-0.000521557 0.0217903 -0.000550932)
(-7.61084e-05 0.00642811 6.00109e-05)
(-0.000131281 0.00653278 -2.27805e-05)
(-0.000121597 0.00658199 -5.7082e-05)
(-8.47846e-05 0.00667667 -4.10334e-05)
(-3.72831e-05 0.00673493 -3.87923e-05)
(-2.53594e-05 0.00675978 -4.27993e-05)
(-3.87652e-05 0.00680547 -4.36376e-05)
(-4.63313e-05 0.00689159 -4.12669e-05)
(-3.05049e-05 0.00703592 -3.75901e-05)
(-2.73296e-05 0.0071654 -2.98487e-05)
(-3.79973e-05 0.0072107 -1.49167e-05)
(-4.75407e-05 0.00727622 2.84527e-06)
(-5.11002e-05 0.00746706 1.86741e-05)
(-4.71581e-05 0.0076691 2.68823e-05)
(-4.84959e-05 0.00769515 2.67631e-05)
(-4.60371e-05 0.00756834 4.00203e-05)
(-3.91682e-05 0.00749541 4.64633e-05)
(-3.36695e-05 0.00748947 1.32405e-05)
(-2.12269e-05 0.00742494 -5.66617e-06)
(1.32819e-05 0.00728619 -8.12547e-07)
(3.23568e-05 0.00715807 1.00897e-05)
(3.4635e-05 0.00715255 1.17111e-05)
(3.51676e-05 0.00726875 8.36525e-06)
(2.52947e-06 0.00740327 3.86866e-06)
(-4.39754e-05 0.00749763 3.75005e-06)
(-5.79736e-05 0.0075585 -8.46484e-07)
(-4.3031e-05 0.00757563 -5.4279e-06)
(-1.50452e-05 0.00750163 -2.05248e-05)
(-1.35032e-05 0.00705139 -3.28502e-05)
(-2.76975e-05 0.00611134 -1.89608e-05)
(-2.63687e-05 0.00533015 -5.70886e-06)
(-9.51908e-06 0.00515031 -2.49436e-05)
(-3.35906e-06 0.00518505 -2.5319e-05)
(2.48348e-07 0.000431222 -4.46381e-08)
(1.21798e-06 0.000479789 -1.0986e-07)
(1.58342e-06 0.00052948 -2.11848e-07)
(2.02778e-06 0.000561089 -6.50799e-08)
(2.35076e-06 0.000588878 4.18909e-08)
(2.50054e-06 0.00061963 6.94476e-08)
(2.44952e-06 0.000650928 1.0298e-07)
(2.29461e-06 0.000676185 9.37846e-08)
(2.02105e-06 0.000691311 6.92751e-08)
(1.70638e-06 0.000698359 7.94154e-08)
(1.37876e-06 0.000701351 8.97764e-08)
(1.06384e-06 0.000702894 9.96307e-08)
(7.97956e-07 0.000703489 9.74459e-08)
(5.77095e-07 0.000703253 9.37041e-08)
(4.11914e-07 0.000702622 9.05946e-08)
(2.81931e-07 0.000701937 8.55666e-08)
(1.91415e-07 0.000701339 8.07169e-08)
(1.11769e-07 0.000700835 7.4484e-08)
(5.70547e-08 0.000700415 6.88537e-08)
(4.37486e-09 0.000700067 6.23888e-08)
(-3.14893e-08 0.000699783 5.84154e-08)
(-6.66704e-08 0.000699556 5.40969e-08)
(-8.94874e-08 0.00069938 5.17634e-08)
(-1.1371e-07 0.000699251 4.83865e-08)
(-1.26031e-07 0.000699171 4.63762e-08)
(-1.41126e-07 0.000699135 4.27923e-08)
(-1.43495e-07 0.000699147 4.04459e-08)
(-1.498e-07 0.000699206 3.60541e-08)
(-1.41714e-07 0.000699319 3.28612e-08)
(-1.38127e-07 0.000699489 2.71144e-08)
(-1.16664e-07 0.000699725 2.2155e-08)
(-9.90339e-08 0.000700033 1.36003e-08)
(-5.83734e-08 0.000700424 5.37864e-09)
(-1.76749e-08 0.000700908 -7.62839e-09)
(5.43483e-08 0.000701498 -2.0849e-08)
(1.3741e-07 0.000702209 -3.762e-08)
(2.68648e-07 0.000703065 -5.63622e-08)
(4.25731e-07 0.000704076 -8.281e-08)
(6.59262e-07 0.000705269 -1.11323e-07)
(9.46547e-07 0.00070666 -1.46508e-07)
(1.34609e-06 0.000708263 -1.78062e-07)
(1.85594e-06 0.000710092 -2.07957e-07)
(2.56031e-06 0.000712174 -2.33445e-07)
(3.41342e-06 0.000716335 -2.67147e-07)
(4.56305e-06 0.000730781 -3.61007e-07)
(5.89735e-06 0.000783032 -4.7107e-07)
(7.13227e-06 0.000909239 -7.5528e-07)
(7.25878e-06 0.00110492 -1.59758e-06)
(4.31257e-06 0.00134528 -1.74975e-06)
(1.02993e-05 0.00204332 -3.86993e-06)
(1.31588e-05 0.00335343 -6.57311e-06)
(2.059e-05 0.00399546 -3.94937e-06)
(3.77382e-05 0.00408384 -1.56701e-05)
(2.11071e-05 0.00408784 -3.6434e-05)
(7.8165e-05 0.00412974 9.13719e-06)
(4.66147e-05 0.00393326 6.78752e-05)
(-0.00049093 0.00527117 0.000175085)
(1.00589e-05 0.00767947 -9.94318e-05)
(-0.000334498 0.0166093 -0.000656732)
(0.0220268 0.126669 0.0236846)
(-0.0301581 0.62088 -0.0176634)
(-0.0380315 0.42325 -0.0329486)
(-0.000707739 0.0235895 -0.00228692)
(-0.00040654 0.00778169 -2.18554e-05)
(-0.000323912 0.00682912 -8.09681e-05)
(-2.86512e-05 0.00660354 -2.91845e-05)
(-8.89956e-06 0.00669194 1.08082e-05)
(-7.03249e-06 0.00676847 -3.8717e-06)
(-1.87745e-05 0.00691409 -1.68881e-05)
(-1.36536e-05 0.00724697 -1.89105e-06)
(-1.16689e-05 0.00758948 1.5372e-05)
(-2.53763e-07 0.00766261 7.32764e-06)
(1.95113e-06 0.00743037 7.66354e-06)
(-1.31862e-05 0.00712028 1.25443e-05)
(-3.16419e-05 0.00702509 1.84762e-05)
(-5.0439e-05 0.0071789 1.81963e-05)
(-3.7027e-05 0.00744192 1.52168e-05)
(-2.3196e-05 0.00763045 2.65386e-05)
(-2.07031e-05 0.00766009 4.00865e-05)
(-4.96704e-05 0.00759788 2.61034e-05)
(-7.55643e-05 0.00749084 1.47082e-05)
(-1.85278e-05 0.0073254 1.89676e-05)
(3.87346e-05 0.00719184 3.51487e-05)
(1.6229e-05 0.00720536 1.76667e-05)
(1.26775e-05 0.00732689 4.28286e-06)
(2.74373e-05 0.00732473 -1.09606e-05)
(-4.42353e-06 0.0070568 -6.50827e-06)
(-2.38418e-05 0.00686932 9.89313e-06)
(-3.54602e-05 0.00707138 1.92744e-05)
(-3.29254e-05 0.0073807 -6.23194e-06)
(-1.63487e-05 0.00722888 -3.32191e-05)
(-1.45133e-05 0.0063704 -3.17697e-05)
(-2.73426e-05 0.0054583 -1.89204e-05)
(-2.81128e-05 0.00513895 -1.37481e-05)
(-7.48138e-06 0.00516994 -3.68066e-05)
(-3.17461e-06 0.00518442 -2.60879e-05)
(5.3577e-07 0.000414854 1.24051e-07)
(1.96808e-06 0.000457237 1.12154e-07)
(2.2977e-06 0.000507571 -8.25842e-08)
(2.93188e-06 0.000541374 4.80645e-08)
(3.12614e-06 0.000566127 1.55642e-07)
(3.26324e-06 0.000596161 1.59356e-07)
(3.19523e-06 0.000635691 1.68994e-07)
(2.99163e-06 0.000670105 1.11646e-07)
(2.57908e-06 0.000687458 7.22684e-08)
(2.14272e-06 0.00069447 7.85995e-08)
(1.67384e-06 0.000698599 9.32155e-08)
(1.263e-06 0.000701448 1.1569e-07)
(9.03956e-07 0.000702791 1.11605e-07)
(6.15114e-07 0.000702834 1.12761e-07)
(3.86365e-07 0.000702291 1.02968e-07)
(2.10315e-07 0.000701648 1.0193e-07)
(7.05183e-08 0.000701079 9.35492e-08)
(-4.01417e-08 0.000700594 9.46953e-08)
(-1.28319e-07 0.00070019 8.60499e-08)
(-1.95591e-07 0.00069985 8.69907e-08)
(-2.51105e-07 0.000699569 7.80859e-08)
(-2.91562e-07 0.000699341 8.01391e-08)
(-3.27666e-07 0.000699159 7.0459e-08)
(-3.51362e-07 0.000699026 7.33282e-08)
(-3.74514e-07 0.000698942 6.24516e-08)
(-3.85151e-07 0.000698906 6.61831e-08)
(-3.96483e-07 0.000698915 5.35972e-08)
(-3.93793e-07 0.000698974 5.785e-08)
(-3.91949e-07 0.000699088 4.28206e-08)
(-3.72778e-07 0.000699264 4.70744e-08)
(-3.53055e-07 0.000699508 2.81178e-08)
(-3.10372e-07 0.000699831 3.08406e-08)
(-2.62831e-07 0.000700241 6.26184e-09)
(-1.83056e-07 0.000700753 6.26669e-09)
(-8.92525e-08 0.000701383 -2.49413e-08)
(5.5355e-08 0.000702151 -3.16479e-08)
(2.28435e-07 0.000703073 -7.55453e-08)
(4.71125e-07 0.000704169 -8.67338e-08)
(7.6301e-07 0.00070545 -1.3781e-07)
(1.15129e-06 0.000706954 -1.4635e-07)
(1.62213e-06 0.000708697 -1.86124e-07)
(2.24676e-06 0.000710643 -1.80532e-07)
(3.01014e-06 0.000713258 -2.34889e-07)
(3.98477e-06 0.000719142 -2.90959e-07)
(5.14811e-06 0.000733936 -4.46828e-07)
(6.49343e-06 0.000769844 -6.10769e-07)
(7.57622e-06 0.000855856 -8.08681e-07)
(7.88161e-06 0.00100467 -1.25913e-06)
(6.25504e-06 0.00134365 -6.99151e-07)
(7.74454e-06 0.00230918 -6.13818e-06)
(1.56865e-05 0.0036323 -5.93779e-06)
(4.33922e-05 0.00405463 -3.38193e-06)
(5.06353e-05 0.00407399 -3.97826e-05)
(1.36643e-05 0.00411782 -3.57223e-05)
(0.000100955 0.00417312 2.18903e-05)
(0.000115232 0.00381021 9.28718e-05)
(-0.000698402 0.00577274 0.000751305)
(-6.09733e-05 0.00947431 3.98121e-05)
(-3.36664e-05 0.0166199 -0.000782392)
(0.023868 0.152943 0.019781)
(-0.0288367 0.658339 -0.0251447)
(-0.0348494 0.52168 -0.0209153)
(-0.0241268 0.544324 -0.0152834)
(-0.016757 0.511514 -0.00033329)
(-0.0173268 0.363229 0.00444467)
(-2.11637e-05 0.0292879 -0.000140634)
(3.01354e-05 0.00729571 -0.000257794)
(1.86929e-05 0.00780941 -0.000387744)
(7.83405e-05 0.00931977 -0.000246979)
(0.000102937 0.0107949 -0.000209369)
(0.000119284 0.0110256 -0.000207017)
(9.55111e-05 0.0101543 -0.00022712)
(0.000197457 0.00874552 1.00109e-05)
(0.000211297 0.00769112 2.76583e-05)
(0.000162037 0.00716499 3.09739e-05)
(0.000227081 0.00677941 2.65838e-05)
(0.000132908 0.00683126 2.69624e-05)
(3.43768e-05 0.00683939 3.14688e-05)
(9.7758e-05 0.00678941 5.92203e-05)
(0.0002461 0.0068608 0.000377795)
(0.000149672 0.00711189 0.000105319)
(-0.000205799 0.00739997 8.09799e-05)
(-0.000423488 0.00774231 4.10523e-05)
(-3.54391e-05 0.00836408 1.67779e-05)
(-1.89493e-05 0.00859286 -1.4907e-05)
(-1.9068e-05 0.00773038 -2.39876e-05)
(-2.00706e-05 0.00667309 4.19823e-06)
(5.15714e-06 0.00645082 1.14944e-05)
(1.94246e-05 0.00665446 1.66728e-05)
(1.25232e-05 0.0065673 2.97031e-06)
(-8.57704e-06 0.0061095 -1.65443e-05)
(-2.43422e-05 0.00554699 -1.61169e-05)
(-2.43864e-05 0.00522566 -2.06346e-05)
(-1.7971e-05 0.00515135 -2.39718e-05)
(-1.79065e-06 0.0051769 -2.94265e-05)
(2.14055e-08 0.00518506 -1.98829e-05)
(7.51703e-07 0.000401556 7.40038e-08)
(2.71699e-06 0.000432709 2.49693e-07)
(3.08084e-06 0.000481008 -3.94753e-08)
(3.88327e-06 0.00051989 -4.24695e-09)
(3.84382e-06 0.000547019 1.70078e-07)
(3.98679e-06 0.000575262 1.93482e-07)
(3.79417e-06 0.0006153 2.6359e-07)
(3.53225e-06 0.000657923 1.60884e-07)
(3.03023e-06 0.000682779 1.13638e-07)
(2.49035e-06 0.000692105 8.63315e-08)
(1.9317e-06 0.000696849 8.87866e-08)
(1.45838e-06 0.000700492 1.02195e-07)
(1.02815e-06 0.00070243 1.08719e-07)
(6.70827e-07 0.000702684 1.06003e-07)
(3.85593e-07 0.000702224 1.05079e-07)
(1.57123e-07 0.000701635 9.34181e-08)
(-2.15031e-08 0.000701115 9.40853e-08)
(-1.72415e-07 0.000700676 8.55351e-08)
(-2.88841e-07 0.000700314 8.75722e-08)
(-3.86742e-07 0.000700009 7.71458e-08)
(-4.56972e-07 0.000699756 7.87203e-08)
(-5.16279e-07 0.000699552 6.685e-08)
(-5.55459e-07 0.000699393 6.86712e-08)
(-5.89317e-07 0.000699274 5.54596e-08)
(-6.07332e-07 0.000699199 5.78764e-08)
(-6.23423e-07 0.000699166 4.32255e-08)
(-6.23838e-07 0.00069918 4.64796e-08)
(-6.22379e-07 0.000699241 2.96272e-08)
(-6.02429e-07 0.000699358 3.29835e-08)
(-5.79276e-07 0.000699535 1.17259e-08)
(-5.32647e-07 0.000699783 1.30987e-08)
(-4.79315e-07 0.000700108 -1.42023e-08)
(-3.94829e-07 0.000700527 -1.57314e-08)
(-2.96255e-07 0.00070105 -5.04066e-08)
(-1.52163e-07 0.000701705 -5.61286e-08)
(1.5508e-08 0.000702506 -1.02307e-07)
(2.46801e-07 0.000703475 -1.16645e-07)
(5.18872e-07 0.000704616 -1.73297e-07)
(8.71359e-07 0.000705948 -1.89663e-07)
(1.28654e-06 0.000707498 -2.42546e-07)
(1.81044e-06 0.000709319 -2.42232e-07)
(2.43007e-06 0.00071157 -2.91736e-07)
(3.18104e-06 0.000714981 -3.39615e-07)
(4.08654e-06 0.000721869 -4.99583e-07)
(5.17381e-06 0.000737818 -6.90453e-07)
(6.47328e-06 0.000774576 -8.90379e-07)
(7.60896e-06 0.000856226 -9.32732e-07)
(8.07511e-06 0.000985886 -1.22514e-06)
(7.62145e-06 0.00138188 -1.80255e-07)
(-7.01676e-06 0.00246542 -2.40196e-06)
(2.26374e-06 0.00371467 -1.44389e-05)
(2.44356e-05 0.00405379 -4.08186e-05)
(4.33436e-05 0.00404108 -6.87429e-05)
(4.58394e-05 0.00413811 -6.799e-05)
(0.000114904 0.0041961 -5.34871e-05)
(0.000158613 0.0035283 6.45308e-05)
(0.000159667 0.00658541 0.00122342)
(9.23286e-05 0.0124628 0.000606053)
(-0.00061345 0.0170826 -0.000928378)
(0.0180526 0.177868 0.0108287)
(-0.00683411 0.650124 -0.0162123)
(-0.0225418 0.529708 -0.0138593)
(-0.0267397 0.551999 -0.00666547)
(-0.0212708 0.534983 0.00301733)
(-0.0132429 0.543221 -0.00804734)
(-0.0148251 0.537961 -0.0127137)
(-0.000702886 0.543851 -0.011533)
(0.0103995 0.538911 -0.00574903)
(0.014446 0.539091 -0.00715449)
(0.012057 0.543162 -0.0106632)
(0.0059514 0.55059 -0.00811557)
(0.00218598 0.56079 0.00300473)
(-0.0015457 0.562055 0.0138712)
(-0.00976395 0.552967 0.0151453)
(-0.0168108 0.542567 0.0116622)
(-0.0184777 0.536059 0.00661975)
(-0.0148957 0.526258 0.00676328)
(-0.00793509 0.517944 0.00762049)
(-0.00492495 0.511569 0.00986815)
(-0.00270616 0.493922 0.00597788)
(-0.00164431 0.467254 -0.002405)
(0.00169301 0.44788 -0.00600358)
(0.00698666 0.363108 -0.00739953)
(-0.000123897 0.0280476 -1.18905e-05)
(-0.000123773 0.00720532 -0.000259355)
(-9.5977e-05 0.0078472 -0.000276917)
(-1.25601e-05 0.00682718 -0.000241587)
(-9.18981e-06 0.00586603 3.00705e-06)
(-2.10416e-05 0.00563514 9.34692e-06)
(-1.47282e-05 0.00565694 -1.5277e-05)
(6.67768e-06 0.00562059 -0.000129232)
(-5.79267e-06 0.00557573 -2.09049e-05)
(-1.13678e-05 0.00545445 -2.56144e-05)
(-3.52217e-06 0.00527383 -3.0572e-05)
(7.87322e-06 0.00519031 -2.46879e-05)
(2.28985e-06 0.00518198 -8.54699e-06)
(8.83405e-07 0.000396872 -8.54445e-09)
(3.57353e-06 0.000414927 4.9359e-07)
(3.93506e-06 0.000454747 1.02614e-07)
(4.76988e-06 0.000496374 -1.84249e-08)
(4.58276e-06 0.000530934 1.27908e-07)
(4.57932e-06 0.000561203 1.68734e-07)
(4.20231e-06 0.000593951 2.60225e-07)
(3.79892e-06 0.000634931 2.24482e-07)
(3.25443e-06 0.00067143 1.57383e-07)
(2.68057e-06 0.000689243 1.29498e-07)
(2.07983e-06 0.000695013 8.92315e-08)
(1.58689e-06 0.000699173 8.54039e-08)
(1.10166e-06 0.000701673 8.3789e-08)
(7.05266e-07 0.00070207 1.07314e-07)
(3.60858e-07 0.000701629 1.03868e-07)
(9.15543e-08 0.000701078 1.06186e-07)
(-1.20745e-07 0.000700585 9.42438e-08)
(-2.92848e-07 0.000700166 9.46414e-08)
(-4.34057e-07 0.000699828 8.16291e-08)
(-5.46718e-07 0.000699551 8.22098e-08)
(-6.35228e-07 0.000699332 6.73847e-08)
(-6.98506e-07 0.000699161 6.70685e-08)
(-7.44004e-07 0.000699029 5.00977e-08)
(-7.70396e-07 0.000698937 5.08204e-08)
(-7.86924e-07 0.000698884 3.29554e-08)
(-7.88751e-07 0.000698873 3.50663e-08)
(-7.83944e-07 0.000698905 1.56998e-08)
(-7.64047e-07 0.000698988 1.80977e-08)
(-7.36367e-07 0.000699124 -5.18929e-09)
(-6.90292e-07 0.000699326 -4.33213e-09)
(-6.32728e-07 0.000699597 -3.37383e-08)
(-5.51099e-07 0.000699954 -3.53834e-08)
(-4.5377e-07 0.000700404 -7.171e-08)
(-3.23246e-07 0.000700971 -7.72449e-08)
(-1.65013e-07 0.000701668 -1.24483e-07)
(4.16998e-08 0.000702524 -1.38405e-07)
(2.95115e-07 0.000703549 -1.94825e-07)
(6.19664e-07 0.00070477 -2.09304e-07)
(1.00467e-06 0.000706202 -2.65832e-07)
(1.46324e-06 0.000707872 -2.76299e-07)
(1.9862e-06 0.000709799 -3.42373e-07)
(2.60421e-06 0.000712143 -3.8585e-07)
(3.31499e-06 0.000715641 -5.06352e-07)
(4.18623e-06 0.000722485 -6.14058e-07)
(5.15473e-06 0.000739634 -8.14852e-07)
(6.35392e-06 0.000780498 -1.00347e-06)
(7.50749e-06 0.000867716 -1.1933e-06)
(8.55574e-06 0.00100413 -1.41184e-06)
(9.13944e-06 0.00139153 2.71881e-07)
(-7.4815e-07 0.00243843 -2.70517e-06)
(-1.55542e-05 0.00366853 -2.41728e-05)
(2.62414e-06 0.00404763 -5.69994e-05)
(3.09172e-05 0.00404425 -6.45685e-05)
(4.33704e-05 0.00413287 -6.66746e-05)
(2.98625e-05 0.00421275 -6.28018e-05)
(5.87847e-05 0.00371727 2.74005e-05)
(0.00145559 0.00601463 0.00098935)
(0.0004205 0.00986612 0.00071586)
(-0.00173102 0.0187238 -0.000582767)
(0.0200168 0.202146 0.0120509)
(0.00158046 0.647656 -0.0233123)
(-0.0200408 0.532002 -0.0200926)
(-0.0176481 0.548314 -0.0086669)
(-0.00628708 0.53244 0.00864222)
(-0.00828465 0.540791 -0.00760611)
(0.00386959 0.539595 -0.0114816)
(0.0125804 0.539275 -0.0104027)
(0.0160697 0.546963 -0.00602109)
(0.00910425 0.547974 -0.00230842)
(-5.85019e-05 0.548511 0.00323946)
(-0.0100269 0.554166 0.00935289)
(-0.0129364 0.554047 0.0112682)
(-0.00939308 0.558952 0.00921816)
(-0.00623125 0.55912 0.00721562)
(-0.00747276 0.551926 0.00640978)
(-0.00845174 0.548233 0.00820644)
(-0.00775686 0.544935 0.00948793)
(-0.00712873 0.540554 0.00669734)
(-0.00423103 0.537431 0.00129598)
(-0.00129871 0.531478 -0.00614043)
(0.00663005 0.529973 -0.0124542)
(0.0179838 0.535285 -0.014862)
(0.0217312 0.539761 -0.0158478)
(0.0173398 0.539344 -0.016988)
(0.0110641 0.554878 -0.017799)
(-0.00249403 0.563431 0.00245355)
(-0.0085862 0.545144 0.0174603)
(-0.0162947 0.525567 0.015596)
(-0.0126333 0.517228 -0.00309052)
(-0.000243083 0.496931 -0.00242292)
(0.000658008 0.371916 0.00318269)
(-0.000290719 0.0299043 -0.000289243)
(-0.000262959 0.00683477 -0.000516004)
(-3.93181e-05 0.00540341 -1.48475e-05)
(2.63798e-05 0.00516645 -1.59839e-05)
(4.57867e-05 0.00515052 -4.19072e-06)
(1.1192e-06 0.000403239 1.50911e-07)
(4.67474e-06 0.000411409 9.59682e-07)
(4.76472e-06 0.000439706 2.47886e-07)
(5.47563e-06 0.000478325 2.10749e-07)
(5.12792e-06 0.000517826 1.54459e-07)
(4.8895e-06 0.000553101 1.20591e-07)
(4.21123e-06 0.000583315 2.05348e-07)
(3.79524e-06 0.000619209 2.48394e-07)
(3.17131e-06 0.00065814 1.86912e-07)
(2.65118e-06 0.000683516 1.56637e-07)
(2.12389e-06 0.000693185 9.54431e-08)
(1.68976e-06 0.000698218 6.72608e-08)
(1.20395e-06 0.000701215 8.51087e-08)
(7.20198e-07 0.000701903 1.03193e-07)
(3.14276e-07 0.000701596 1.30477e-07)
(6.05682e-09 0.000701131 1.34732e-07)
(-2.24101e-07 0.000700695 1.3861e-07)
(-3.93818e-07 0.000700303 1.21187e-07)
(-5.26499e-07 0.000699977 1.12221e-07)
(-6.30701e-07 0.000699703 9.13962e-08)
(-7.08301e-07 0.00069947 8.52928e-08)
(-7.64415e-07 0.000699278 6.55748e-08)
(-8.0162e-07 0.000699136 6.0251e-08)
(-8.22242e-07 0.00069904 4.04299e-08)
(-8.29874e-07 0.000698992 3.71882e-08)
(-8.2439e-07 0.000698986 1.69304e-08)
(-8.06371e-07 0.00069903 1.49031e-08)
(-7.75369e-07 0.000699121 -6.64724e-09)
(-7.32557e-07 0.000699271 -8.11242e-09)
(-6.7364e-07 0.000699484 -3.28229e-08)
(-5.98963e-07 0.000699775 -3.62927e-08)
(-5.02884e-07 0.000700151 -6.70514e-08)
(-3.85386e-07 0.000700628 -7.46128e-08)
(-2.3364e-07 0.000701217 -1.13914e-07)
(-4.50783e-08 0.000701949 -1.27615e-07)
(1.92766e-07 0.000702842 -1.74537e-07)
(4.83571e-07 0.000703919 -1.88437e-07)
(8.38707e-07 0.000705196 -2.37416e-07)
(1.25435e-06 0.000706709 -2.49325e-07)
(1.73997e-06 0.000708474 -3.05307e-07)
(2.29227e-06 0.000710532 -3.44676e-07)
(2.93268e-06 0.000713094 -4.36114e-07)
(3.65177e-06 0.000716686 -5.34275e-07)
(4.52421e-06 0.000723359 -6.70655e-07)
(5.45582e-06 0.000741337 -8.04443e-07)
(6.4799e-06 0.000786255 -1.09179e-06)
(7.58575e-06 0.00087998 -1.41795e-06)
(8.8331e-06 0.00103789 -1.88496e-06)
(9.98093e-06 0.00133107 -9.7425e-07)
(7.69288e-06 0.0021605 -1.94301e-06)
(-1.2993e-05 0.00344667 -1.46716e-05)
(-1.78764e-05 0.00401797 -2.93873e-05)
(5.91658e-08 0.00405392 -2.38746e-05)
(-3.79982e-06 0.00411197 -4.24936e-05)
(-5.93646e-05 0.00422101 -8.09805e-06)
(-0.000109895 0.00439026 0.000137282)
(0.000611221 0.0059733 0.000335667)
(0.000236305 0.00417026 0.000541657)
(0.000158763 0.0101255 0.000321117)
(0.010476 0.215091 0.00560353)
(-0.000674875 0.656969 -0.0487289)
(0.00208949 0.527005 -0.0165979)
(-0.00468874 0.556936 -0.0048856)
(-0.000485911 0.540396 0.0111823)
(-0.00231407 0.538981 0.00533172)
(-0.00197643 0.541877 0.00447663)
(0.00219173 0.55606 0.0084386)
(-0.00248775 0.559229 0.0121239)
(-0.00328963 0.559879 0.00796846)
(-0.00208031 0.554194 0.00515581)
(-0.00245796 0.553267 0.00547056)
(-0.00344983 0.548455 0.00573551)
(-0.00326442 0.543332 0.00242125)
(-0.00340548 0.542119 0.00163914)
(-0.00490538 0.542052 0.00413833)
(-0.00449469 0.540828 0.00372294)
(-0.00402706 0.538784 0.00343971)
(-0.00347791 0.536037 -0.00033055)
(0.00141701 0.535418 -0.00655805)
(0.0072236 0.536179 -0.0112486)
(0.0137771 0.537395 -0.0130661)
(0.0204807 0.540303 -0.00972454)
(0.0178434 0.541777 -0.006665)
(0.00898883 0.544839 -0.0100326)
(0.00668319 0.552225 -0.0154029)
(0.00510848 0.570203 -0.00471516)
(-0.00331196 0.552635 0.00625866)
(-0.0102349 0.540234 0.00799627)
(-0.0132652 0.533315 0.00270195)
(-0.00908616 0.530777 -0.0019779)
(-0.00907969 0.529761 0.00327532)
(-0.0112231 0.527081 0.00261889)
(-0.00960656 0.525313 0.00745147)
(-0.00944402 0.524781 0.0162998)
(-0.00737211 0.522495 0.0110308)
(-0.00252445 0.504355 0.00505025)
(1.87978e-06 0.000412458 5.49337e-07)
(6.11127e-06 0.000422222 1.5954e-06)
(5.63121e-06 0.000440367 7.00125e-07)
(6.25687e-06 0.000471614 5.15468e-07)
(5.54539e-06 0.000511284 2.59791e-07)
(5.06438e-06 0.00054908 1.6814e-07)
(4.33142e-06 0.000580838 2.03531e-07)
(3.99535e-06 0.000613185 2.35555e-07)
(3.30132e-06 0.000647352 2.05715e-07)
(2.77313e-06 0.000676568 1.60437e-07)
(2.23762e-06 0.000690985 1.10161e-07)
(1.81031e-06 0.000696978 8.43038e-08)
(1.22304e-06 0.000700429 9.1892e-08)
(6.90012e-07 0.00070138 1.47102e-07)
(2.32714e-07 0.000701209 1.84837e-07)
(-1.16005e-07 0.00070083 2.08267e-07)
(-3.85877e-07 0.000700453 2.17175e-07)
(-5.79297e-07 0.000700115 2.28123e-07)
(-7.23532e-07 0.000699836 2.23543e-07)
(-8.33906e-07 0.000699612 2.18186e-07)
(-9.10604e-07 0.000699439 2.00908e-07)
(-9.69004e-07 0.00069931 1.91106e-07)
(-1.00345e-06 0.000699216 1.72065e-07)
(-1.02679e-06 0.000699159 1.63904e-07)
(-1.03103e-06 0.00069914 1.46094e-07)
(-1.02843e-06 0.000699167 1.39061e-07)
(-1.00711e-06 0.00069924 1.1936e-07)
(-9.78768e-07 0.000699367 1.11043e-07)
(-9.29749e-07 0.000699549 8.79726e-08)
(-8.71186e-07 0.000699799 7.69974e-08)
(-7.85835e-07 0.000700123 4.84655e-08)
(-6.84813e-07 0.000700538 3.25984e-08)
(-5.46954e-07 0.000701052 -4.26986e-09)
(-3.8204e-07 0.000701693 -2.95664e-08)
(-1.69758e-07 0.000702485 -7.99239e-08)
(8.12976e-08 0.000703462 -1.11473e-07)
(4.0445e-07 0.000704631 -1.61653e-07)
(7.86242e-07 0.000706006 -1.88719e-07)
(1.24506e-06 0.000707612 -2.4009e-07)
(1.74506e-06 0.0007095 -2.83918e-07)
(2.33644e-06 0.00071174 -3.64091e-07)
(2.99475e-06 0.000714403 -4.29008e-07)
(3.74305e-06 0.000717666 -5.37291e-07)
(4.55967e-06 0.00072374 -6.58707e-07)
(5.49331e-06 0.000743043 -8.82418e-07)
(6.3175e-06 0.000794583 -1.23552e-06)
(7.42663e-06 0.000899532 -1.84208e-06)
(8.55567e-06 0.00107386 -2.7957e-06)
(1.0327e-05 0.00135079 -3.13777e-06)
(1.10685e-05 0.00207501 -5.38055e-06)
(-6.25126e-06 0.00329223 -6.72609e-06)
(-1.68083e-05 0.00394986 2.22411e-06)
(-3.14221e-05 0.00403237 -1.8433e-05)
(-4.15251e-05 0.00406877 -5.20754e-05)
(-0.000106879 0.00411612 -1.02022e-05)
(-0.000113209 0.00415623 0.000175502)
(-0.000898536 0.00669879 5.30562e-05)
(-0.000161756 0.00949189 0.000853218)
(6.67e-06 0.0119763 0.000619777)
(-0.0212762 0.227612 0.00925173)
(-0.000382939 0.665061 -0.0576956)
(0.000681997 0.546029 -0.00094767)
(0.00219589 0.560998 0.00727076)
(0.00318068 0.547376 0.0163201)
(-6.82922e-05 0.541322 0.0103058)
(-0.0055027 0.546019 0.00557424)
(-0.0055485 0.545074 -0.00066751)
(-0.00638181 0.544044 -0.00590556)
(-0.00343123 0.545197 -0.00655665)
(-0.00155373 0.545113 -0.00509462)
(-0.00193096 0.545786 -0.000741025)
(-0.00226734 0.545689 0.00228784)
(-7.74322e-05 0.543666 0.000350753)
(-0.000254659 0.54134 -0.00244231)
(-0.00173475 0.541015 -0.00248065)
(0.000316618 0.540455 -0.00220648)
(0.00329502 0.540169 -0.00487917)
(0.00332033 0.538542 -0.00766577)
(0.00613348 0.539097 -0.00553953)
(0.0106237 0.538114 0.000300013)
(0.0128663 0.533963 0.00659339)
(0.0130586 0.532348 0.0126011)
(0.00287874 0.542555 0.0100598)
(-0.00790089 0.548963 0.000825972)
(-0.0133134 0.54687 -0.0101693)
(-0.0100013 0.558444 -0.021856)
(0.0151636 0.565624 -0.00959521)
(0.00756588 0.560388 0.00613994)
(-0.00447212 0.556805 0.000271899)
(-0.00399288 0.546135 0.0023617)
(-0.00931393 0.53311 0.00591258)
(-0.00833776 0.534448 0.00271047)
(-0.00402731 0.529106 0.0037055)
(-0.00411082 0.525418 0.0010588)
(-0.00417933 0.52011 -0.00950169)
(0.00108618 0.509778 -0.0160283)
(2.20939e-06 0.000241321 7.90635e-07)
(8.03541e-06 0.000443225 2.24192e-06)
(6.60216e-06 0.000445652 1.0129e-06)
(7.01424e-06 0.000473239 6.20307e-07)
(6.02756e-06 0.000513218 1.82733e-07)
(5.43974e-06 0.000557751 2.50938e-08)
(4.91787e-06 0.000592598 7.4039e-08)
(4.40989e-06 0.000621129 3.2918e-08)
(3.80058e-06 0.000647314 5.58779e-09)
(3.20289e-06 0.000671201 -1.02204e-07)
(2.59273e-06 0.000686631 -1.87537e-07)
(2.09962e-06 0.000694726 -2.22934e-07)
(1.58686e-06 0.000699029 -1.97107e-07)