/*--------------------------------*- C++ -*----------------------------------*\
| =========                 |                                                 |
| \\      /  F ield         | OpenFOAM: The Open Source CFD Toolbox           |
|  \\    /   O peration     | Version:  2.3.0                                 |
|   \\  /    A nd           | Web:      www.OpenFOAM.org                      |
|    \\/     M anipulation  |                                                 |
\*---------------------------------------------------------------------------*/
FoamFile
{
    version     2.0;
    format      ascii;
    class       volScalarField;
    location    "16";
    object      alpha.airMean;
}
// * * * * * * * * * * * * * * * * * * * * * * * * * * * * * * * * * * * * * //

dimensions      [0 0 0 0 0 0 0];

internalField   nonuniform List<scalar> 
6144
(
0.99999
0.99999
0.99999
0.99999
0.99999
0.99999
0.99999
0.99999
0.99999
0.99999
0.99999
0.99999
0.99999
0.99999
0.99999
0.99999
0.99999
0.99999
0.99999
0.99999
0.99999
0.99999
0.99999
0.99999
0.99999
0.99999
0.99999
0.99999
0.99999
0.99999
0.99999
0.99999
0.99999
0.99999
0.99999
0.99999
0.99999
0.99999
0.99999
0.99999
0.99999
0.99999
0.99999
0.99999
0.99999
0.99999
0.99999
0.99999
0.99999
0.99999
0.99999
0.999987
0.99998
0.999962
0.999947
0.999908
0.999839
0.999469
0.998612
0.935292
0.0375941
0.000225032
1.3957e-06
1.22669e-06
1.22337e-06
1.19614e-06
1.19544e-06
1.17333e-06
1.16886e-06
1.1522e-06
1.14328e-06
1.12907e-06
1.11881e-06
1.10549e-06
1.0948e-06
1.08223e-06
1.07141e-06
1.06061e-06
1.04901e-06
1.03822e-06
1.02749e-06
1.01606e-06
1.00544e-06
9.95739e-07
9.86404e-07
9.77622e-07
9.68244e-07
9.5238e-07
9.02319e-07
7.79743e-07
6.58965e-07
5.87196e-07
5.07727e-07
4.50297e-07
4.50397e-07
4.46911e-07
0.999991
0.999991
0.99999
0.99999
0.99999
0.99999
0.99999
0.99999
0.99999
0.99999
0.99999
0.99999
0.99999
0.99999
0.99999
0.99999
0.99999
0.99999
0.99999
0.99999
0.99999
0.99999
0.99999
0.99999
0.99999
0.99999
0.99999
0.99999
0.99999
0.99999
0.99999
0.99999
0.99999
0.99999
0.99999
0.99999
0.99999
0.99999
0.99999
0.99999
0.99999
0.99999
0.99999
0.99999
0.99999
0.99999
0.99999
0.99999
0.99999
0.99999
0.999989
0.999986
0.99998
0.999965
0.99995
0.999915
0.999829
0.99935
0.998501
0.947466
0.0411757
8.76933e-05
1.24641e-06
1.241e-06
1.22715e-06
1.19941e-06
1.19706e-06
1.17515e-06
1.16797e-06
1.14928e-06
1.14081e-06
1.12698e-06
1.11724e-06
1.10534e-06
1.09423e-06
1.08202e-06
1.06967e-06
1.05793e-06
1.04677e-06
1.0368e-06
1.02704e-06
1.01821e-06
1.00991e-06
1.0004e-06
9.90976e-07
9.81413e-07
9.69106e-07
9.46761e-07
8.91956e-07
7.80051e-07
6.70219e-07
5.97381e-07
5.15709e-07
4.58989e-07
4.61299e-07
4.57762e-07
0.999991
0.999991
0.99999
0.99999
0.99999
0.99999
0.99999
0.99999
0.99999
0.99999
0.99999
0.99999
0.99999
0.99999
0.99999
0.99999
0.99999
0.99999
0.99999
0.99999
0.99999
0.99999
0.99999
0.99999
0.99999
0.99999
0.99999
0.99999
0.99999
0.99999
0.99999
0.99999
0.99999
0.99999
0.99999
0.99999
0.99999
0.99999
0.99999
0.99999
0.99999
0.99999
0.99999
0.99999
0.99999
0.99999
0.99999
0.99999
0.99999
0.99999
0.999989
0.999987
0.999981
0.999968
0.999944
0.9999
0.999876
0.999507
0.999131
0.951548
0.0477673
4.43001e-05
1.26081e-06
1.25758e-06
1.24108e-06
1.21941e-06
1.21824e-06
1.19733e-06
1.19138e-06
1.17343e-06
1.16257e-06
1.14431e-06
1.13098e-06
1.11425e-06
1.10052e-06
1.08581e-06
1.07601e-06
1.06544e-06
1.05353e-06
1.04203e-06
1.03049e-06
1.01863e-06
1.00751e-06
9.97137e-07
9.86643e-07
9.76603e-07
9.60695e-07
9.29132e-07
8.67039e-07
7.69427e-07
6.82542e-07
6.17617e-07
5.34078e-07
4.69953e-07
4.69096e-07
4.63617e-07
0.999991
0.999991
0.999991
0.999991
0.99999
0.99999
0.99999
0.99999
0.99999
0.99999
0.99999
0.99999
0.99999
0.99999
0.99999
0.99999
0.99999
0.99999
0.99999
0.99999
0.99999
0.99999
0.99999
0.99999
0.99999
0.99999
0.99999
0.99999
0.99999
0.99999
0.99999
0.99999
0.99999
0.99999
0.99999
0.99999
0.99999
0.99999
0.99999
0.99999
0.99999
0.99999
0.99999
0.99999
0.99999
0.99999
0.99999
0.99999
0.99999
0.99999
0.999989
0.999988
0.999982
0.999966
0.999932
0.999889
0.999893
0.999616
0.999605
0.941448
0.0505566
3.29696e-05
1.33347e-06
1.32293e-06
1.30607e-06
1.23805e-06
1.22986e-06
1.20325e-06
1.19517e-06
1.17062e-06
1.16491e-06
1.16384e-06
1.16531e-06
1.15555e-06
1.14312e-06
1.12637e-06
1.10347e-06
1.08137e-06
1.06331e-06
1.04823e-06
1.03454e-06
1.02217e-06
1.0084e-06
9.93586e-07
9.78274e-07
9.60129e-07
9.3156e-07
8.86682e-07
8.22847e-07
7.54167e-07
7.01232e-07
6.40166e-07
5.55022e-07
4.83721e-07
4.75369e-07
4.66027e-07
0.999991
0.999991
0.999991
0.999991
0.999991
0.99999
0.99999
0.99999
0.99999
0.99999
0.99999
0.99999
0.99999
0.99999
0.99999
0.99999
0.99999
0.99999
0.99999
0.99999
0.99999
0.99999
0.99999
0.99999
0.99999
0.99999
0.99999
0.99999
0.99999
0.99999
0.99999
0.99999
0.99999
0.99999
0.99999
0.99999
0.99999
0.99999
0.99999
0.99999
0.99999
0.99999
0.99999
0.99999
0.99999
0.99999
0.99999
0.99999
0.99999
0.99999
0.999989
0.999986
0.999981
0.999968
0.999931
0.999871
0.999859
0.999716
0.999818
0.872253
0.0176707
6.49349e-05
2.16287e-05
1.00596e-05
7.05073e-06
5.25863e-06
5.21878e-06
4.63481e-06
4.42096e-06
4.07838e-06
3.88966e-06
3.63378e-06
3.35951e-06
2.99234e-06
2.61681e-06
2.2728e-06
1.95793e-06
1.66846e-06
1.43725e-06
1.25116e-06
1.12772e-06
1.05559e-06
1.00364e-06
9.59467e-07
9.20176e-07
8.82316e-07
8.51135e-07
8.18656e-07
7.84797e-07
7.5216e-07
7.12472e-07
6.55086e-07
5.7164e-07
4.95838e-07
4.80871e-07
4.67024e-07
0.999991
0.999991
0.999991
0.999991
0.999991
0.999991
0.99999
0.99999
0.99999
0.99999
0.99999
0.99999
0.99999
0.99999
0.99999
0.99999
0.99999
0.99999
0.99999
0.99999
0.99999
0.99999
0.99999
0.99999
0.99999
0.99999
0.99999
0.99999
0.99999
0.99999
0.99999
0.99999
0.99999
0.99999
0.99999
0.99999
0.99999
0.99999
0.99999
0.99999
0.99999
0.99999
0.99999
0.99999
0.99999
0.99999
0.99999
0.99999
0.99999
0.99999
0.999988
0.999986
0.99998
0.999967
0.999915
0.999861
0.999866
0.999807
0.999955
0.748032
0.00975662
0.00138729
0.00113471
0.000827039
0.000717971
0.000661637
0.000636207
0.000622775
0.000617515
0.000599093
0.000578506
0.000557764
0.000529515
0.000479657
0.00042937
0.000380329
0.000322473
0.000266273
0.000212725
0.000163044
0.000120973
8.40678e-05
5.53013e-05
3.48121e-05
2.04797e-05
1.0715e-05
4.90441e-06
2.21599e-06
1.15314e-06
7.32767e-07
5.49691e-07
4.82975e-07
4.67945e-07
4.72483e-07
4.66144e-07
4.50491e-07
0.999991
0.999992
0.999991
0.999991
0.999991
0.999991
0.999991
0.99999
0.99999
0.99999
0.99999
0.99999
0.99999
0.99999
0.99999
0.99999
0.99999
0.99999
0.99999
0.99999
0.99999
0.99999
0.99999
0.99999
0.99999
0.99999
0.99999
0.99999
0.99999
0.99999
0.99999
0.99999
0.99999
0.99999
0.99999
0.99999
0.99999
0.99999
0.99999
0.99999
0.99999
0.99999
0.99999
0.99999
0.99999
0.99999
0.99999
0.99999
0.99999
0.99999
0.999989
0.999987
0.999981
0.999971
0.999931
0.999864
0.999833
0.999818
0.99999
0.591493
0.0130855
0.00890531
0.00909166
0.00851631
0.00807914
0.00797561
0.00775426
0.00774474
0.0076127
0.00749657
0.00735995
0.00705841
0.00685441
0.00670825
0.00656993
0.00608909
0.0055487
0.0051816
0.00463326
0.00410748
0.00375707
0.00323639
0.00272029
0.00230431
0.00191737
0.00157285
0.00120457
0.000849635
0.000578691
0.000349364
0.000164839
5.61834e-05
1.01909e-05
4.07026e-06
2.81542e-06
3.94062e-06
0.999991
0.999992
0.999992
0.999992
0.999991
0.999991
0.999991
0.999991
0.999991
0.99999
0.99999
0.99999
0.99999
0.99999
0.99999
0.99999
0.99999
0.99999
0.99999
0.99999
0.99999
0.99999
0.99999
0.99999
0.99999
0.99999
0.99999
0.99999
0.99999
0.99999
0.99999
0.99999
0.99999
0.99999
0.99999
0.99999
0.99999
0.99999
0.99999
0.99999
0.99999
0.99999
0.99999
0.99999
0.99999
0.99999
0.99999
0.99999
0.99999
0.99999
0.999989
0.999987
0.999982
0.999972
0.999947
0.999875
0.999838
0.999814
0.999973
0.521911
0.0242725
0.020636
0.0212353
0.0213776
0.0212908
0.0213435
0.0212274
0.0210261
0.0210952
0.0211065
0.0209397
0.0207632
0.020525
0.0203196
0.0201072
0.0198915
0.0196736
0.0193135
0.0189128
0.0185783
0.0182626
0.017929
0.0175962
0.0172611
0.0169178
0.0165997
0.0161333
0.0155044
0.0148461
0.0140113
0.0132053
0.0122872
0.0111155
0.00995296
0.00816776
0.0063842
0.999992
0.999992
0.999992
0.999992
0.999992
0.999991
0.999991
0.999991
0.999991
0.99999
0.99999
0.99999
0.99999
0.99999
0.99999
0.99999
0.99999
0.99999
0.99999
0.99999
0.99999
0.99999
0.99999
0.99999
0.99999
0.99999
0.99999
0.99999
0.99999
0.99999
0.99999
0.99999
0.99999
0.99999
0.99999
0.99999
0.99999
0.99999
0.99999
0.99999
0.99999
0.99999
0.99999
0.99999
0.99999
0.99999
0.99999
0.99999
0.99999
0.99999
0.999989
0.999987
0.999981
0.999966
0.99995
0.999902
0.999868
0.999805
0.999946
0.657775
0.0166557
0.00830018
0.00780776
0.00697273
0.00646752
0.00626557
0.00594392
0.00558764
0.00533546
0.00504787
0.00483032
0.00448088
0.00415956
0.00390271
0.00368609
0.00351219
0.00334715
0.00324002
0.00320431
0.00319457
0.00308438
0.00295542
0.00282375
0.00270422
0.00259752
0.00247149
0.00234274
0.00220617
0.00203968
0.00185841
0.00164737
0.00141434
0.00114254
0.000838234
0.000511729
0.000232099
0.999993
0.999992
0.999992
0.999992
0.999992
0.999991
0.999991
0.999991
0.999991
0.99999
0.99999
0.99999
0.99999
0.99999
0.99999
0.99999
0.99999
0.99999
0.99999
0.99999
0.99999
0.99999
0.99999
0.99999
0.99999
0.99999
0.99999
0.99999
0.99999
0.99999
0.99999
0.99999
0.99999
0.99999
0.99999
0.99999
0.99999
0.99999
0.99999
0.99999
0.99999
0.99999
0.99999
0.99999
0.99999
0.99999
0.99999
0.99999
0.99999
0.99999
0.999989
0.999987
0.99998
0.999964
0.999947
0.999915
0.999896
0.999749
0.999864
0.799037
0.0115455
0.00106018
0.000827296
0.000573297
0.000463397
0.000400179
0.000347786
0.000305984
0.000270358
0.000238432
0.00021456
0.000192154
0.000180218
0.000166577
0.000150203
0.000139967
0.000134036
0.00012965
0.000126277
0.000123736
0.00011954
0.000114406
0.000108924
0.000101777
9.20586e-05
8.31871e-05
7.43447e-05
6.51631e-05
5.45358e-05
4.41258e-05
3.51254e-05
2.62513e-05
1.67173e-05
8.78322e-06
3.71604e-06
1.58145e-06
0.999993
0.999992
0.999991
0.999992
0.999992
0.999991
0.999991
0.999991
0.999991
0.99999
0.99999
0.99999
0.99999
0.99999
0.99999
0.99999
0.99999
0.99999
0.99999
0.99999
0.99999
0.99999
0.99999
0.99999
0.99999
0.99999
0.99999
0.99999
0.99999
0.99999
0.99999
0.99999
0.99999
0.99999
0.99999
0.99999
0.99999
0.99999
0.99999
0.99999
0.99999
0.99999
0.99999
0.99999
0.99999
0.99999
0.99999
0.99999
0.99999
0.99999
0.999989
0.999987
0.99998
0.999961
0.999934
0.999914
0.999907
0.999644
0.999742
0.906202
0.025356
5.7578e-05
1.80396e-05
9.68873e-06
7.20216e-06
5.55982e-06
4.61029e-06
3.91046e-06
3.39867e-06
2.87775e-06
2.45349e-06
2.12478e-06
1.90817e-06
1.71762e-06
1.58463e-06
1.49652e-06
1.43557e-06
1.38809e-06
1.35108e-06
1.31957e-06
1.29797e-06
1.27022e-06
1.22632e-06
1.17065e-06
1.09949e-06
1.01901e-06
9.25846e-07
8.4031e-07
7.55652e-07
6.73406e-07
6.03535e-07
5.43818e-07
4.95415e-07
4.55624e-07
4.35818e-07
4.26957e-07
0.999994
0.999993
0.999992
0.999992
0.999992
0.999991
0.999991
0.999991
0.999991
0.99999
0.99999
0.99999
0.99999
0.99999
0.99999
0.99999
0.99999
0.99999
0.99999
0.99999
0.99999
0.99999
0.99999
0.99999
0.99999
0.99999
0.99999
0.99999
0.99999
0.99999
0.99999
0.99999
0.99999
0.99999
0.99999
0.99999
0.99999
0.99999
0.99999
0.99999
0.99999
0.99999
0.99999
0.99999
0.99999
0.99999
0.99999
0.99999
0.99999
0.99999
0.999989
0.999987
0.999982
0.999965
0.999928
0.999907
0.999897
0.999549
0.999636
0.956013
0.0519691
3.20351e-05
1.3605e-06
1.16336e-06
1.20584e-06
1.18885e-06
1.18964e-06
1.17183e-06
1.16637e-06
1.14721e-06
1.1186e-06
1.09165e-06
1.07132e-06
1.04674e-06
1.02472e-06
1.00436e-06
9.85928e-07
9.67679e-07
9.50531e-07
9.32041e-07
9.12766e-07
8.94645e-07
8.75494e-07
8.58632e-07
8.45153e-07
8.26549e-07
7.98645e-07
7.64037e-07
7.18852e-07
6.61269e-07
5.93407e-07
5.18098e-07
4.51247e-07
4.27202e-07
4.26862e-07
4.27357e-07
0.999995
0.999994
0.999993
0.999993
0.999993
0.999992
0.999992
0.999991
0.999991
0.99999
0.99999
0.99999
0.99999
0.99999
0.99999
0.99999
0.99999
0.99999
0.99999
0.99999
0.99999
0.99999
0.99999
0.99999
0.99999
0.99999
0.99999
0.99999
0.99999
0.99999
0.99999
0.99999
0.99999
0.99999
0.99999
0.99999
0.99999
0.99999
0.99999
0.99999
0.99999
0.99999
0.99999
0.99999
0.99999
0.99999
0.99999
0.99999
0.99999
0.99999
0.999989
0.999987
0.999982
0.999972
0.999944
0.999915
0.999866
0.999451
0.999485
0.967636
0.0576397
4.84538e-05
1.14439e-06
1.10143e-06
1.09011e-06
1.08584e-06
1.08493e-06
1.06018e-06
1.05465e-06
1.03452e-06
1.02544e-06
1.008e-06
9.9862e-07
9.84866e-07
9.72538e-07
9.58401e-07
9.42909e-07
9.26502e-07
9.07565e-07
8.88611e-07
8.71674e-07
8.54423e-07
8.37726e-07
8.25715e-07
8.1619e-07
8.06744e-07
7.89132e-07
7.56128e-07
7.11948e-07
6.59177e-07
5.95782e-07
5.26299e-07
4.62947e-07
4.29015e-07
4.26862e-07
4.27133e-07
0.999996
0.999994
0.999994
0.999994
0.999993
0.999993
0.999992
0.999992
0.999991
0.999991
0.99999
0.99999
0.99999
0.99999
0.99999
0.99999
0.99999
0.99999
0.99999
0.99999
0.99999
0.99999
0.99999
0.99999
0.99999
0.99999
0.99999
0.99999
0.99999
0.99999
0.99999
0.99999
0.99999
0.99999
0.99999
0.99999
0.99999
0.99999
0.99999
0.99999
0.99999
0.99999
0.99999
0.99999
0.99999
0.99999
0.99999
0.99999
0.99999
0.99999
0.999989
0.999986
0.999982
0.999972
0.999958
0.999935
0.999808
0.999348
0.999391
0.958354
0.0497823
2.52857e-05
1.05303e-06
1.05097e-06
1.05196e-06
1.03518e-06
1.03415e-06
1.01313e-06
1.00362e-06
9.85102e-07
9.71814e-07
9.55537e-07
9.41609e-07
9.27839e-07
9.15169e-07
9.02197e-07
8.89607e-07
8.76281e-07
8.616e-07
8.48438e-07
8.3515e-07
8.21299e-07
8.1021e-07
8.01237e-07
7.94792e-07
7.90212e-07
7.80243e-07
7.51549e-07
7.02443e-07
6.48789e-07
5.87746e-07
5.22281e-07
4.62991e-07
4.37269e-07
4.30604e-07
4.27164e-07
0.999996
0.999995
0.999995
0.999994
0.999993
0.999993
0.999993
0.999992
0.999992
0.999991
0.99999
0.99999
0.99999
0.99999
0.99999
0.99999
0.99999
0.99999
0.99999
0.99999
0.99999
0.99999
0.99999
0.99999
0.99999
0.99999
0.99999
0.99999
0.99999
0.99999
0.99999
0.99999
0.99999
0.99999
0.99999
0.99999
0.99999
0.99999
0.99999
0.99999
0.99999
0.99999
0.99999
0.99999
0.99999
0.99999
0.99999
0.99999
0.99999
0.99999
0.999989
0.999986
0.99998
0.999969
0.999959
0.999935
0.999711
0.999235
0.998872
0.956441
0.0459346
0.000101292
1.0537e-06
1.03768e-06
1.02572e-06
9.91909e-07
9.85574e-07
9.65549e-07
9.53443e-07
9.38112e-07
9.24532e-07
9.09793e-07
8.99096e-07
8.84841e-07
8.7513e-07
8.64093e-07
8.53197e-07
8.44172e-07
8.34836e-07
8.245e-07
8.15512e-07
8.07028e-07
7.98891e-07
7.92379e-07
7.88463e-07
7.87131e-07
7.78485e-07
7.51747e-07
7.02245e-07
6.45945e-07
5.8555e-07
5.20892e-07
4.62638e-07
4.38103e-07
4.32921e-07
4.27692e-07
0.999997
0.999995
0.999995
0.999995
0.999994
0.999993
0.999993
0.999992
0.999991
0.999991
0.99999
0.99999
0.99999
0.99999
0.99999
0.99999
0.99999
0.99999
0.99999
0.99999
0.99999
0.99999
0.99999
0.99999
0.99999
0.99999
0.99999
0.99999
0.99999
0.99999
0.99999
0.99999
0.99999
0.99999
0.99999
0.99999
0.99999
0.99999
0.99999
0.99999
0.99999
0.99999
0.99999
0.99999
0.99999
0.99999
0.99999
0.99999
0.99999
0.99999
0.999989
0.999986
0.999981
0.99997
0.999959
0.999886
0.999798
0.999315
0.999142
0.951293
0.0516192
0.000379485
1.5803e-06
9.63907e-07
9.63504e-07
9.40193e-07
9.39004e-07
9.24038e-07
9.17276e-07
9.03399e-07
8.97135e-07
8.83658e-07
8.76411e-07
8.65179e-07
8.57273e-07
8.47296e-07
8.38224e-07
8.30392e-07
8.21882e-07
8.13207e-07
8.06831e-07
8.00098e-07
7.93418e-07
7.88185e-07
7.85361e-07
7.8642e-07
7.83084e-07
7.5671e-07
7.02219e-07
6.47114e-07
5.868e-07
5.22483e-07
4.62956e-07
4.35468e-07
4.30815e-07
4.27446e-07
0.99999
0.99999
0.99999
0.99999
0.99999
0.99999
0.99999
0.99999
0.99999
0.99999
0.99999
0.99999
0.99999
0.99999
0.99999
0.99999
0.99999
0.99999
0.99999
0.99999
0.99999
0.99999
0.99999
0.99999
0.99999
0.99999
0.99999
0.99999
0.99999
0.99999
0.99999
0.99999
0.99999
0.99999
0.99999
0.99999
0.99999
0.99999
0.99999
0.99999
0.99999
0.99999
0.99999
0.99999
0.99999
0.99999
0.99999
0.99999
0.99999
0.99999
0.99999
0.999987
0.999981
0.999962
0.999948
0.999913
0.999844
0.999266
0.997045
0.936611
0.053842
0.000412607
1.69911e-06
1.21969e-06
1.21647e-06
1.18874e-06
1.18934e-06
1.16632e-06
1.16286e-06
1.14419e-06
1.13691e-06
1.12144e-06
1.1119e-06
1.09817e-06
1.0867e-06
1.07491e-06
1.06375e-06
1.052e-06
1.04096e-06
1.02994e-06
1.01837e-06
1.0076e-06
9.97015e-07
9.86698e-07
9.76896e-07
9.67771e-07
9.59144e-07
9.49522e-07
9.30918e-07
8.81175e-07
7.6583e-07
6.12298e-07
5.08444e-07
4.69361e-07
4.78699e-07
4.68496e-07
0.999991
0.999991
0.999991
0.99999
0.99999
0.99999
0.99999
0.99999
0.99999
0.99999
0.99999
0.99999
0.99999
0.99999
0.99999
0.99999
0.99999
0.99999
0.99999
0.99999
0.99999
0.99999
0.99999
0.99999
0.99999
0.99999
0.99999
0.99999
0.99999
0.99999
0.99999
0.99999
0.99999
0.99999
0.99999
0.99999
0.99999
0.99999
0.99999
0.99999
0.99999
0.99999
0.99999
0.99999
0.99999
0.99999
0.99999
0.99999
0.99999
0.99999
0.999989
0.999987
0.99998
0.999964
0.999952
0.999917
0.999819
0.999333
0.998144
0.943835
0.0462268
0.000134156
1.26646e-06
1.23969e-06
1.22627e-06
1.19159e-06
1.19237e-06
1.16986e-06
1.16586e-06
1.148e-06
1.13945e-06
1.12439e-06
1.11467e-06
1.10072e-06
1.08866e-06
1.07703e-06
1.06535e-06
1.05238e-06
1.04168e-06
1.0304e-06
1.01821e-06
1.00833e-06
9.97654e-07
9.86554e-07
9.77424e-07
9.6776e-07
9.57689e-07
9.47751e-07
9.2995e-07
8.89287e-07
7.99582e-07
6.58879e-07
5.3331e-07
4.72323e-07
4.95149e-07
4.84386e-07
0.999991
0.999991
0.999991
0.999991
0.999991
0.999991
0.99999
0.99999
0.99999
0.99999
0.99999
0.99999
0.99999
0.99999
0.99999
0.99999
0.99999
0.99999
0.99999
0.99999
0.99999
0.99999
0.99999
0.99999
0.99999
0.99999
0.99999
0.99999
0.99999
0.99999
0.99999
0.99999
0.99999
0.99999
0.99999
0.99999
0.99999
0.99999
0.99999
0.99999
0.99999
0.99999
0.99999
0.99999
0.99999
0.99999
0.99999
0.99999
0.99999
0.99999
0.999989
0.999987
0.999981
0.999966
0.999954
0.999898
0.999869
0.999522
0.999105
0.945709
0.0397042
9.18942e-06
1.41499e-06
1.29959e-06
1.26126e-06
1.22317e-06
1.22084e-06
1.1959e-06
1.191e-06
1.16926e-06
1.15922e-06
1.13949e-06
1.12749e-06
1.11176e-06
1.09944e-06
1.08689e-06
1.07556e-06
1.06391e-06
1.05215e-06
1.03951e-06
1.02683e-06
1.01522e-06
1.00324e-06
9.91241e-07
9.80038e-07
9.69501e-07
9.59407e-07
9.47264e-07
9.28499e-07
8.94654e-07
8.24448e-07
7.09463e-07
5.81977e-07
5.04121e-07
5.11186e-07
4.96184e-07
0.999991
0.999991
0.999991
0.999991
0.999991
0.999991
0.999991
0.999991
0.99999
0.99999
0.99999
0.99999
0.99999
0.99999
0.99999
0.99999
0.99999
0.99999
0.99999
0.99999
0.99999
0.99999
0.99999
0.99999
0.99999
0.99999
0.99999
0.99999
0.99999
0.99999
0.99999
0.99999
0.99999
0.99999
0.99999
0.99999
0.99999
0.99999
0.99999
0.99999
0.99999
0.99999
0.99999
0.99999
0.99999
0.99999
0.99999
0.99999
0.99999
0.99999
0.999988
0.999986
0.999981
0.999966
0.999939
0.99987
0.999858
0.999601
0.999627
0.938584
0.0364613
2.68815e-06
6.38854e-06
2.2579e-06
2.18096e-06
1.82922e-06
1.73086e-06
1.54097e-06
1.43885e-06
1.34038e-06
1.29937e-06
1.25367e-06
1.23824e-06
1.21385e-06
1.19782e-06
1.17901e-06
1.15715e-06
1.12573e-06
1.09673e-06
1.07588e-06
1.05512e-06
1.03585e-06
1.02227e-06
1.00886e-06
9.94896e-07
9.79711e-07
9.64186e-07
9.45381e-07
9.21617e-07
8.84647e-07
8.27798e-07
7.38619e-07
6.28182e-07
5.46314e-07
5.30407e-07
5.00134e-07
0.999991
0.999991
0.999991
0.999991
0.999991
0.999991
0.999991
0.999991
0.999991
0.99999
0.99999
0.99999
0.99999
0.99999
0.99999
0.99999
0.99999
0.99999
0.99999
0.99999
0.99999
0.99999
0.99999
0.99999
0.99999
0.99999
0.99999
0.99999
0.99999
0.99999
0.99999
0.99999
0.99999
0.99999
0.99999
0.99999
0.99999
0.99999
0.99999
0.99999
0.99999
0.99999
0.99999
0.99999
0.99999
0.99999
0.99999
0.99999
0.99999
0.99999
0.999986
0.999981
0.999976
0.999965
0.999899
0.99983
0.999795
0.999783
0.999844
0.879853
0.0160233
0.000348466
0.000282197
0.00015636
0.000127384
0.000110551
0.000102396
9.47359e-05
8.56093e-05
7.38189e-05
6.6191e-05
5.70759e-05
4.9526e-05
4.15589e-05
3.47082e-05
2.72385e-05
2.04214e-05
1.39857e-05
9.51337e-06
6.25847e-06
4.13076e-06
2.76912e-06
1.95608e-06
1.49319e-06
1.25993e-06
1.11142e-06
1.01412e-06
9.50998e-07
8.87137e-07
8.3621e-07
7.92497e-07
7.36514e-07
6.59928e-07
5.83006e-07
5.45804e-07
5.02785e-07
0.999992
0.999992
0.999991
0.999991
0.999991
0.999991
0.999991
0.999991
0.999991
0.99999
0.99999
0.99999
0.99999
0.99999
0.99999
0.99999
0.99999
0.99999
0.99999
0.99999
0.99999
0.99999
0.99999
0.99999
0.99999
0.99999
0.99999
0.99999
0.99999
0.99999
0.99999
0.99999
0.99999
0.99999
0.99999
0.99999
0.99999
0.99999
0.99999
0.99999
0.99999
0.99999
0.99999
0.99999
0.99999
0.99999
0.99999
0.99999
0.99999
0.999989
0.999986
0.999981
0.999974
0.999957
0.999863
0.999836
0.999846
0.999888
0.999958
0.739664
0.0153688
0.00716994
0.00688502
0.00590083
0.00560211
0.00522646
0.0049061
0.00476483
0.00463597
0.00459699
0.00454825
0.00445615
0.00423257
0.00394038
0.00366527
0.00333804
0.00307469
0.00258154
0.00213124
0.00172657
0.00132658
0.00102314
0.00075904
0.000533858
0.000368397
0.00024013
0.00014653
8.68213e-05
4.74681e-05
2.27987e-05
8.18745e-06
2.83795e-06
1.29801e-06
8.36877e-07
6.01753e-07
4.99632e-07
0.999992
0.999992
0.999992
0.999992
0.999991
0.999991
0.999991
0.999991
0.999991
0.99999
0.99999
0.99999
0.99999
0.99999
0.99999
0.99999
0.99999
0.99999
0.99999
0.99999
0.99999
0.99999
0.99999
0.99999
0.99999
0.99999
0.99999
0.99999
0.99999
0.99999
0.99999
0.99999
0.99999
0.99999
0.99999
0.99999
0.99999
0.99999
0.99999
0.99999
0.99999
0.99999
0.99999
0.99999
0.99999
0.99999
0.99999
0.99999
0.99999
0.99999
0.999989
0.999985
0.99998
0.99997
0.9999
0.999816
0.999782
0.99981
0.999941
0.56401
0.0357781
0.0302486
0.0315613
0.031513
0.0317043
0.0318783
0.0320346
0.0324135
0.0326882
0.0329409
0.0334002
0.033794
0.033948
0.0340553
0.0339435
0.0338483
0.033519
0.0328066
0.0318472
0.0306044
0.0289853
0.0270168
0.0248817
0.0224249
0.0195194
0.0168558
0.0143642
0.0119376
0.00979011
0.00775267
0.00539138
0.00324205
0.00166967
0.000784263
0.000608482
0.000717395
0.999992
0.999992
0.999992
0.999992
0.999992
0.999991
0.999991
0.999991
0.999991
0.99999
0.99999
0.99999
0.99999
0.99999
0.99999
0.99999
0.99999
0.99999
0.99999
0.99999
0.99999
0.99999
0.99999
0.99999
0.99999
0.99999
0.99999
0.99999
0.99999
0.99999
0.99999
0.99999
0.99999
0.99999
0.99999
0.99999
0.99999
0.99999
0.99999
0.99999
0.99999
0.99999
0.99999
0.99999
0.99999
0.99999
0.99999
0.99999
0.99999
0.99999
0.999989
0.999987
0.999983
0.999971
0.99993
0.999826
0.999793
0.999796
0.999739
0.539163
0.0449005
0.039667
0.0410165
0.0415687
0.0426983
0.0437874
0.0447438
0.045918
0.0471383
0.0484705
0.0499866
0.0517375
0.0536826
0.0558217
0.0582593
0.0610325
0.0640619
0.0673922
0.0709907
0.0748417
0.078924
0.0831893
0.0875678
0.0920973
0.0967609
0.101528
0.106583
0.111941
0.117754
0.12415
0.131474
0.140489
0.152817
0.173003
0.218757
0.407784
0.999993
0.999992
0.999992
0.999992
0.999992
0.999992
0.999991
0.999991
0.999991
0.99999
0.99999
0.99999
0.99999
0.99999
0.99999
0.99999
0.99999
0.99999
0.99999
0.99999
0.99999
0.99999
0.99999
0.99999
0.99999
0.99999
0.99999
0.99999
0.99999
0.99999
0.99999
0.99999
0.99999
0.99999
0.99999
0.99999
0.99999
0.99999
0.99999
0.99999
0.99999
0.99999
0.99999
0.99999
0.99999
0.99999
0.99999
0.99999
0.99999
0.99999
0.999989
0.999987
0.999983
0.999967
0.99994
0.999884
0.999822
0.999774
0.99992
0.731702
0.0198153
0.00659565
0.00542078
0.00413821
0.00366824
0.00337412
0.00322771
0.00310386
0.00296763
0.00283359
0.00274134
0.00268962
0.00268691
0.00275276
0.00290731
0.00310634
0.00341446
0.00371473
0.00393362
0.00419778
0.00455566
0.00493218
0.00526943
0.00556028
0.00589181
0.00621199
0.00639932
0.00663429
0.00692456
0.00715603
0.00720805
0.00704614
0.00651195
0.00560811
0.00443049
0.00352186
0.999993
0.999993
0.999993
0.999993
0.999993
0.999992
0.999992
0.999991
0.999991
0.999991
0.99999
0.99999
0.99999
0.99999
0.99999
0.99999
0.99999
0.99999
0.99999
0.99999
0.99999
0.99999
0.99999
0.99999
0.99999
0.99999
0.99999
0.99999
0.99999
0.99999
0.99999
0.99999
0.99999
0.99999
0.99999
0.99999
0.99999
0.99999
0.99999
0.99999
0.99999
0.99999
0.99999
0.99999
0.99999
0.99999
0.99999
0.99999
0.99999
0.99999
0.999989
0.999987
0.999982
0.999968
0.999941
0.999893
0.999847
0.999722
0.999895
0.862115
0.0111525
0.000280585
0.000205298
0.00012273
0.000106934
9.62321e-05
8.61619e-05
7.78268e-05
7.4389e-05
7.16847e-05
7.27104e-05
7.25485e-05
6.95229e-05
7.04694e-05
6.99092e-05
6.69677e-05
6.67619e-05
6.63567e-05
6.50695e-05
6.57467e-05
6.78831e-05
6.97988e-05
6.92894e-05
6.52128e-05
6.14454e-05
5.7121e-05
5.21178e-05
4.79745e-05
4.47069e-05
4.27693e-05
4.09572e-05
3.88189e-05
3.58711e-05
2.80368e-05
1.27563e-05
2.8763e-06
0.999994
0.999993
0.999993
0.999993
0.999993
0.999992
0.999992
0.999991
0.999991
0.999991
0.99999
0.99999
0.99999
0.99999
0.99999
0.99999
0.99999
0.99999
0.99999
0.99999
0.99999
0.99999
0.99999
0.99999
0.99999
0.99999
0.99999
0.99999
0.99999
0.99999
0.99999
0.99999
0.99999
0.99999
0.99999
0.99999
0.99999
0.99999
0.99999
0.99999
0.99999
0.99999
0.99999
0.99999
0.99999
0.99999
0.99999
0.99999
0.99999
0.99999
0.999989
0.999987
0.999982
0.99997
0.999941
0.999907
0.999858
0.999611
0.999778
0.935291
0.0444419
4.66686e-06
7.07267e-06
2.97816e-06
2.78171e-06
2.46669e-06
2.3787e-06
2.20677e-06
2.12259e-06
2.0026e-06
1.92244e-06
1.83253e-06
1.75343e-06
1.65359e-06
1.55277e-06
1.46549e-06
1.37526e-06
1.3013e-06
1.23418e-06
1.1817e-06
1.13703e-06
1.08332e-06
1.01129e-06
9.70606e-07
9.39204e-07
9.09286e-07
8.8278e-07
8.44607e-07
7.87732e-07
7.17839e-07
6.40725e-07
5.64592e-07
5.08714e-07
4.99571e-07
4.74757e-07
4.36526e-07
0.999994
0.999993
0.999993
0.999993
0.999993
0.999993
0.999992
0.999991
0.999991
0.999991
0.99999
0.99999
0.99999
0.99999
0.99999
0.99999
0.99999
0.99999
0.99999
0.99999
0.99999
0.99999
0.99999
0.99999
0.99999
0.99999
0.99999
0.99999
0.99999
0.99999
0.99999
0.99999
0.99999
0.99999
0.99999
0.99999
0.99999
0.99999
0.99999
0.99999
0.99999
0.99999
0.99999
0.99999
0.99999
0.99999
0.99999
0.99999
0.99999
0.99999
0.999989
0.999987
0.999982
0.99997
0.999944
0.999912
0.999881
0.999516
0.999597
0.957822
0.0456801
4.01869e-06
1.37803e-06
1.08987e-06
1.22219e-06
1.22103e-06
1.21493e-06
1.19058e-06
1.18486e-06
1.1613e-06
1.1347e-06
1.10082e-06
1.07459e-06
1.04784e-06
1.02702e-06
1.00638e-06
9.87882e-07
9.67919e-07
9.44283e-07
9.18602e-07
8.95918e-07
8.72529e-07
8.50941e-07
8.34222e-07
8.22623e-07
8.13565e-07
8.03582e-07
7.85925e-07
7.51912e-07
6.94459e-07
6.15769e-07
5.28919e-07
4.58233e-07
4.31669e-07
4.27405e-07
4.27482e-07
0.999995
0.999994
0.999994
0.999993
0.999993
0.999993
0.999992
0.999991
0.999991
0.999991
0.99999
0.99999
0.99999
0.99999
0.99999
0.99999
0.99999
0.99999
0.99999
0.99999
0.99999
0.99999
0.99999
0.99999
0.99999
0.99999
0.99999
0.99999
0.99999
0.99999
0.99999
0.99999
0.99999
0.99999
0.99999
0.99999
0.99999
0.99999
0.99999
0.99999
0.99999
0.99999
0.99999
0.99999
0.99999
0.99999
0.99999
0.99999
0.99999
0.99999
0.999989
0.999986
0.999981
0.99997
0.999959
0.999928
0.999845
0.999432
0.999187
0.964572
0.0573634
1.76078e-05
1.23708e-06
1.12769e-06
1.13481e-06
1.15604e-06
1.17183e-06
1.15646e-06
1.14359e-06
1.11109e-06
1.0806e-06
1.05004e-06
1.02478e-06
1.00142e-06
9.81299e-07
9.60889e-07
9.41011e-07
9.20593e-07
8.9967e-07
8.79621e-07
8.60332e-07
8.42235e-07
8.26997e-07
8.14182e-07
8.06541e-07
8.01661e-07
7.93301e-07
7.75555e-07
7.41199e-07
6.8692e-07
6.10791e-07
5.28537e-07
4.62319e-07
4.3507e-07
4.29272e-07
4.27278e-07
0.999995
0.999994
0.999994
0.999994
0.999993
0.999993
0.999992
0.999992
0.999991
0.999991
0.99999
0.99999
0.99999
0.99999
0.99999
0.99999
0.99999
0.99999
0.99999
0.99999
0.99999
0.99999
0.99999
0.99999
0.99999
0.99999
0.99999
0.99999
0.99999
0.99999
0.99999
0.99999
0.99999
0.99999
0.99999
0.99999
0.99999
0.99999
0.99999
0.99999
0.99999
0.99999
0.99999
0.99999
0.99999
0.99999
0.99999
0.99999
0.99999
0.99999
0.999989
0.999986
0.999981
0.999969
0.999959
0.999941
0.999787
0.999337
0.998978
0.958523
0.0590866
1.91054e-05
1.14306e-06
1.13253e-06
1.10913e-06
1.08503e-06
1.08797e-06
1.06746e-06
1.06146e-06
1.03579e-06
1.01957e-06
9.93466e-07
9.74803e-07
9.52405e-07
9.33901e-07
9.15724e-07
8.98963e-07
8.83233e-07
8.67799e-07
8.52866e-07
8.38604e-07
8.25656e-07
8.1383e-07
8.04333e-07
7.98721e-07
7.94979e-07
7.88329e-07
7.70147e-07
7.32332e-07
6.74795e-07
6.00723e-07
5.25604e-07
4.63686e-07
4.38238e-07
4.31486e-07
4.27603e-07
0.999996
0.999995
0.999995
0.999994
0.999994
0.999993
0.999992
0.999992
0.999992
0.999991
0.99999
0.99999
0.99999
0.99999
0.99999
0.99999
0.99999
0.99999
0.99999
0.99999
0.99999
0.99999
0.99999
0.99999
0.99999
0.99999
0.99999
0.99999
0.99999
0.99999
0.99999
0.99999
0.99999
0.99999
0.99999
0.99999
0.99999
0.99999
0.99999
0.99999
0.99999
0.99999
0.99999
0.99999
0.99999
0.99999
0.99999
0.99999
0.99999
0.99999
0.999989
0.999986
0.99998
0.999969
0.999957
0.999932
0.999718
0.999202
0.998239
0.949994
0.0627083
0.000215927
1.14205e-06
1.02152e-06
9.98838e-07
9.65264e-07
9.6268e-07
9.43013e-07
9.43634e-07
9.28712e-07
9.24983e-07
9.11778e-07
9.04863e-07
8.92419e-07
8.82432e-07
8.70468e-07
8.58941e-07
8.49566e-07
8.39786e-07
8.29065e-07
8.20503e-07
8.11769e-07
8.03664e-07
7.97245e-07
7.93376e-07
7.92322e-07
7.86433e-07
7.67754e-07
7.25572e-07
6.63192e-07
5.92221e-07
5.21638e-07
4.61439e-07
4.378e-07
4.31892e-07
4.27619e-07
0.999997
0.999996
0.999995
0.999995
0.999994
0.999993
0.999993
0.999992
0.999992
0.999991
0.99999
0.99999
0.99999
0.99999
0.99999
0.99999
0.99999
0.99999
0.99999
0.99999
0.99999
0.99999
0.99999
0.99999
0.99999
0.99999
0.99999
0.99999
0.99999
0.99999
0.99999
0.99999
0.99999
0.99999
0.99999
0.99999
0.99999
0.99999
0.99999
0.99999
0.99999
0.99999
0.99999
0.99999
0.99999
0.99999
0.99999
0.99999
0.99999
0.99999
0.999989
0.999986
0.99998
0.99997
0.999962
0.999914
0.999784
0.999137
0.997423
0.944155
0.0701801
0.000742614
2.45678e-06
9.55851e-07
9.55286e-07
9.30738e-07
9.32906e-07
9.15009e-07
9.11604e-07
8.95925e-07
8.9031e-07
8.77214e-07
8.70477e-07
8.59384e-07
8.50271e-07
8.41496e-07
8.3426e-07
8.25917e-07
8.18524e-07
8.12445e-07
8.06161e-07
7.99731e-07
7.95598e-07
7.92177e-07
7.90703e-07
7.92172e-07
7.88696e-07
7.69707e-07