/*--------------------------------*- C++ -*----------------------------------*\
| =========                 |                                                 |
| \\      /  F ield         | OpenFOAM: The Open Source CFD Toolbox           |
|  \\    /   O peration     | Version:  2.3.0                                 |
|   \\  /    A nd           | Web:      www.OpenFOAM.org                      |
|    \\/     M anipulation  |                                                 |
\*---------------------------------------------------------------------------*/
FoamFile
{
    version     2.0;
    format      ascii;
    class       volScalarField;
    location    "16";
    object      alpha.air;
}
// * * * * * * * * * * * * * * * * * * * * * * * * * * * * * * * * * * * * * //

dimensions      [0 0 0 0 0 0 0];

internalField   nonuniform List<scalar> 
6144
(
0.999994
0.999993
0.999992
0.999991
0.999991
0.99999
0.99999
0.99999
0.99999
0.99999
0.99999
0.99999
0.99999
0.99999
0.99999
0.99999
0.99999
0.99999
0.99999
0.99999
0.99999
0.99999
0.99999
0.99999
0.99999
0.99999
0.99999
0.99999
0.99999
0.99999
0.99999
0.99999
0.99999
0.99999
0.99999
0.99999
0.99999
0.99999
0.99999
0.99999
0.99999
0.99999
0.99999
0.99999
0.99999
0.99999
0.99999
0.99999
0.99999
0.999989
0.999987
0.999983
0.999977
0.999951
0.999915
0.999839
0.99976
0.999271
0.998521
0.9554
0.0430897
0.000256231
9.81223e-07
6.98229e-07
6.98544e-07
6.97791e-07
6.97992e-07
6.98882e-07
7.0014e-07
7.01665e-07
7.03928e-07
7.07647e-07
7.13513e-07
7.21531e-07
7.29668e-07
7.34809e-07
7.36715e-07
7.37211e-07
7.37614e-07
7.38253e-07
7.39551e-07
7.41746e-07
7.43506e-07
7.44171e-07
7.44496e-07
7.4501e-07
7.46892e-07
7.46472e-07
6.85952e-07
4.11735e-07
3.61554e-07
3.88405e-07
3.94773e-07
3.97407e-07
3.71012e-07
3.36448e-07
0.999995
0.999994
0.999993
0.999993
0.999992
0.999991
0.99999
0.99999
0.99999
0.99999
0.99999
0.99999
0.99999
0.99999
0.99999
0.99999
0.99999
0.99999
0.99999
0.99999
0.99999
0.99999
0.99999
0.99999
0.99999
0.99999
0.99999
0.99999
0.99999
0.99999
0.99999
0.99999
0.99999
0.99999
0.99999
0.99999
0.99999
0.99999
0.99999
0.99999
0.99999
0.99999
0.99999
0.99999
0.99999
0.99999
0.99999
0.99999
0.99999
0.999989
0.999987
0.999983
0.99997
0.999942
0.999926
0.999857
0.999752
0.999157
0.998534
0.9581
0.0399772
4.68041e-05
7.33575e-07
7.53614e-07
7.40075e-07
7.30894e-07
7.28605e-07
7.26693e-07
7.25176e-07
7.25292e-07
7.26029e-07
7.27863e-07
7.3116e-07
7.3555e-07
7.39618e-07
7.42031e-07
7.42614e-07
7.42622e-07
7.42457e-07
7.41951e-07
7.4108e-07
7.3987e-07
7.38603e-07
7.38481e-07
7.39244e-07
7.42383e-07
7.49655e-07
7.50089e-07
6.90977e-07
4.34998e-07
3.75171e-07
4.11602e-07
4.1996e-07
4.23818e-07
4.22195e-07
3.65548e-07
0.999996
0.999995
0.999995
0.999994
0.999992
0.999992
0.99999
0.99999
0.99999
0.99999
0.99999
0.99999
0.99999
0.99999
0.99999
0.99999
0.99999
0.99999
0.99999
0.99999
0.99999
0.99999
0.99999
0.99999
0.99999
0.99999
0.99999
0.99999
0.99999
0.99999
0.99999
0.99999
0.99999
0.99999
0.99999
0.99999
0.99999
0.99999
0.99999
0.99999
0.99999
0.99999
0.99999
0.99999
0.99999
0.99999
0.99999
0.99999
0.99999
0.999989
0.999987
0.999983
0.999967
0.999941
0.999928
0.999833
0.999818
0.999334
0.999099
0.964835
0.055367
7.71822e-07
8.01599e-07
7.89778e-07
7.60729e-07
7.66231e-07
7.6652e-07
7.65369e-07
7.6334e-07
7.61587e-07
7.61127e-07
7.6145e-07
7.61984e-07
7.62161e-07
7.61628e-07
7.60064e-07
7.57882e-07
7.55402e-07
7.53098e-07
7.50987e-07
7.49301e-07
7.48183e-07
7.47188e-07
7.46295e-07
7.4591e-07
7.46484e-07
7.49078e-07
7.4542e-07
6.59279e-07
3.85197e-07
3.83924e-07
4.18681e-07
4.32243e-07
4.3991e-07
4.42368e-07
3.87178e-07
0.999996
0.999996
0.999995
0.999994
0.999993
0.999993
0.999991
0.99999
0.99999
0.99999
0.99999
0.99999
0.99999
0.99999
0.99999
0.99999
0.99999
0.99999
0.99999
0.99999
0.99999
0.99999
0.99999
0.99999
0.99999
0.99999
0.99999
0.99999
0.99999
0.99999
0.99999
0.99999
0.99999
0.99999
0.99999
0.99999
0.99999
0.99999
0.99999
0.99999
0.99999
0.99999
0.99999
0.99999
0.99999
0.99999
0.99999
0.99999
0.99999
0.999989
0.999987
0.999983
0.999977
0.999949
0.999916
0.999819
0.999815
0.999481
0.99958
0.943104
0.0646724
7.34311e-07
7.908e-07
9.23378e-07
8.92173e-07
8.45927e-07
8.24171e-07
8.09679e-07
8.02461e-07
7.93636e-07
7.89982e-07
7.86574e-07
7.82838e-07
7.72401e-07
7.58344e-07
7.49583e-07
7.43294e-07
7.40146e-07
7.42301e-07
7.47373e-07
7.51785e-07
7.52377e-07
7.52516e-07
7.53057e-07
7.53194e-07
7.51358e-07
7.37676e-07
6.6507e-07
4.67002e-07
3.30344e-07
3.95498e-07
4.30377e-07
4.50119e-07
4.59085e-07
4.56257e-07
3.93157e-07
0.999996
0.999996
0.999996
0.999995
0.999994
0.999994
0.999992
0.999991
0.99999
0.99999
0.99999
0.99999
0.99999
0.99999
0.99999
0.99999
0.99999
0.99999
0.99999
0.99999
0.99999
0.99999
0.99999
0.99999
0.99999
0.99999
0.99999
0.99999
0.99999
0.99999
0.99999
0.99999
0.99999
0.99999
0.99999
0.99999
0.99999
0.99999
0.99999
0.99999
0.99999
0.99999
0.99999
0.99999
0.99999
0.99999
0.99999
0.99999
0.99999
0.999989
0.999987
0.999983
0.999975
0.999962
0.999899
0.999788
0.9998
0.999618
0.999842
0.853334
0.011023
2.67892e-05
8.61516e-06
2.45186e-06
1.51898e-06
1.43136e-06
2.24693e-06
1.06808e-06
8.00882e-07
1.11727e-06
2.30854e-06
2.17959e-06
1.09704e-06
8.33153e-07
9.30392e-07
9.81843e-07
7.49317e-07
6.83373e-07
6.83373e-07
6.89552e-07
6.94179e-07
6.8607e-07
6.72057e-07
6.54396e-07
6.30402e-07
5.87741e-07
5.19999e-07
4.35621e-07
3.78262e-07
3.83267e-07
4.44344e-07
4.79305e-07
5.04294e-07
5.09388e-07
4.68057e-07
3.97425e-07
0.999996
0.999996
0.999996
0.999995
0.999995
0.999994
0.999992
0.999991
0.999991
0.99999
0.99999
0.99999
0.99999
0.99999
0.99999
0.99999
0.99999
0.99999
0.99999
0.99999
0.99999
0.99999
0.99999
0.99999
0.99999
0.99999
0.99999
0.99999
0.99999
0.99999
0.99999
0.99999
0.99999
0.99999
0.99999
0.99999
0.99999
0.99999
0.99999
0.99999
0.99999
0.99999
0.99999
0.99999
0.99999
0.99999
0.99999
0.99999
0.99999
0.999989
0.999988
0.999983
0.999974
0.99996
0.999916
0.999795
0.999814
0.999742
0.99999
0.686603
0.00437933
0.00152622
0.00108351
0.00070397
0.000594189
0.000576419
0.000605652
0.000629333
0.000633373
0.000624461
0.000644992
0.000688364
0.000667801
0.000475367
0.000283819
0.000178503
0.000109917
6.12081e-05
3.00775e-05
1.18937e-05
4.18803e-06
1.3372e-06
5.2581e-07
2.40485e-07
2.40485e-07
2.40485e-07
2.40485e-07
2.40485e-07
2.40485e-07
2.40485e-07
2.40485e-07
2.40485e-07
3.91234e-07
5.11043e-07
4.39984e-07
3.29908e-07
0.999995
0.999995
0.999995
0.999995
0.999995
0.999994
0.999993
0.999992
0.999991
0.999991
0.99999
0.99999
0.99999
0.99999
0.99999
0.99999
0.99999
0.99999
0.99999
0.99999
0.99999
0.99999
0.99999
0.99999
0.99999
0.99999
0.99999
0.99999
0.99999
0.99999
0.99999
0.99999
0.99999
0.99999
0.99999
0.99999
0.99999
0.99999
0.99999
0.99999
0.99999
0.99999
0.99999
0.99999
0.99999
0.99999
0.99999
0.99999
0.99999
0.999989
0.999988
0.999984
0.999975
0.999953
0.999928
0.999843
0.999785
0.999694
0.99999
0.481503
0.0157245
0.0123494
0.0118913
0.0102058
0.010336
0.0126684
0.0137159
0.0129513
0.0127307
0.0124664
0.0122523
0.0126342
0.0128619
0.0126866
0.00970438
0.00799587
0.00694858
0.00584583
0.00478915
0.0037318
0.0028812
0.00210623
0.00154077
0.00119981
0.0010596
0.00103357
0.000829143
0.000618163
0.000518397
0.000386199
0.000189948
6.21742e-05
7.56491e-06
2.916e-07
2.91601e-07
5.72378e-06
0.999995
0.999995
0.999995
0.999995
0.999995
0.999994
0.999993
0.999992
0.999992
0.999991
0.99999
0.99999
0.99999
0.99999
0.99999
0.99999
0.99999
0.99999
0.99999
0.99999
0.99999
0.99999
0.99999
0.99999
0.99999
0.99999
0.99999
0.99999
0.99999
0.99999
0.99999
0.99999
0.99999
0.99999
0.99999
0.99999
0.99999
0.99999
0.99999
0.99999
0.99999
0.99999
0.99999
0.99999
0.99999
0.99999
0.99999
0.99999
0.99999
0.999989
0.999988
0.999985
0.999972
0.999949
0.999939
0.999854
0.999764
0.99966
0.99999
0.408685
0.0246761
0.0216501
0.0234375
0.0308961
0.0351425
0.0357895
0.03582
0.03582
0.0357278
0.0344591
0.0331582
0.0323655
0.0319475
0.0318253
0.0317535
0.031765
0.0318546
0.0319638
0.0322849
0.0326418
0.0328779
0.03297
0.032877
0.0323941
0.0320027
0.0318246
0.0317415
0.0316228
0.0312808
0.030481
0.0298254
0.0291257
0.0277753
0.0264422
0.0231487
0.0183773
0.999995
0.999995
0.999994
0.999994
0.999994
0.999993
0.999993
0.999992
0.999992
0.999991
0.99999
0.99999
0.99999
0.99999
0.99999
0.99999
0.99999
0.99999
0.99999
0.99999
0.99999
0.99999
0.99999
0.99999
0.99999
0.99999
0.99999
0.99999
0.99999
0.99999
0.99999
0.99999
0.99999
0.99999
0.99999
0.99999
0.99999
0.99999
0.99999
0.99999
0.99999
0.99999
0.99999
0.99999
0.99999
0.99999
0.99999
0.99999
0.99999
0.999989
0.999988
0.999986
0.999969
0.999942
0.999932
0.999882
0.999829
0.999635
0.99999
0.497149
0.0204187
0.0162522
0.0153918
0.0163895
0.017631
0.017316
0.0151394
0.0145126
0.0147422
0.0147249
0.0149969
0.0148144
0.0152561
0.0163962
0.0163743
0.0155336
0.0149819
0.0156662
0.0175224
0.0182761
0.0176078
0.0169232
0.017259
0.017324
0.0167086
0.016393
0.0158021
0.0151208
0.0142873
0.0132045
0.0118869
0.0103203
0.00843929
0.00620431
0.0037537
0.00176727
0.999995
0.999995
0.999994
0.999994
0.999993
0.999993
0.999992
0.999991
0.999991
0.999991
0.99999
0.99999
0.99999
0.99999
0.99999
0.99999
0.99999
0.99999
0.99999
0.99999
0.99999
0.99999
0.99999
0.99999
0.99999
0.99999
0.99999
0.99999
0.99999
0.99999
0.99999
0.99999
0.99999
0.99999
0.99999
0.99999
0.99999
0.99999
0.99999
0.99999
0.99999
0.99999
0.99999
0.99999
0.99999
0.99999
0.99999
0.99999
0.99999
0.99999
0.999988
0.999986
0.999973
0.999948
0.99992
0.99986
0.999854
0.999604
0.999888
0.674804
0.0217068
0.00515091
0.00397553
0.00296011
0.00205089
0.0015533
0.0013792
0.00133386
0.00136641
0.00147462
0.00151765
0.00158763
0.00169051
0.00166139
0.00154618
0.00153859
0.00160464
0.00170245
0.00172711
0.00172007
0.00181474
0.00193592
0.00196028
0.00187176
0.00178001
0.00171339
0.00161819
0.00150352
0.00119648
0.000889855
0.000647925
0.000429383
0.000259242
0.000127869
4.74249e-05
1.62978e-05
0.999996
0.999995
0.999994
0.999994
0.999993
0.999992
0.999991
0.999991
0.99999
0.99999
0.99999
0.99999
0.99999
0.99999
0.99999
0.99999
0.99999
0.99999
0.99999
0.99999
0.99999
0.99999
0.99999
0.99999
0.99999
0.99999
0.99999
0.99999
0.99999
0.99999
0.99999
0.99999
0.99999
0.99999
0.99999
0.99999
0.99999
0.99999
0.99999
0.99999
0.99999
0.99999
0.99999
0.99999
0.99999
0.99999
0.99999
0.99999
0.99999
0.99999
0.999989
0.999987
0.99998
0.999958
0.999873
0.999833
0.999821
0.999446
0.999707
0.84415
0.0297002
0.000283969
0.000138423
4.3622e-05
1.57365e-05
4.25455e-06
2.73866e-06
2.39453e-06
3.5131e-06
4.61622e-06
5.54746e-06
5.79667e-06
5.62996e-06
5.47473e-06
5.58695e-06
5.60061e-06
6.5669e-06
8.13556e-06
9.66984e-06
1.07353e-05
1.14979e-05
1.21101e-05
1.26467e-05
1.25298e-05
1.14923e-05
9.54159e-06
8.05292e-06
6.5043e-06
4.4102e-06
2.68261e-06
1.52649e-06
9.78444e-07
7.87817e-07
5.76924e-07
2.46363e-07
1.96145e-07
0.999996
0.999996
0.999994
0.999993
0.999993
0.999991
0.999991
0.99999
0.99999
0.99999
0.99999
0.99999
0.99999
0.99999
0.99999
0.99999
0.99999
0.99999
0.99999
0.99999
0.99999
0.99999
0.99999
0.99999
0.99999
0.99999
0.99999
0.99999
0.99999
0.99999
0.99999
0.99999
0.99999
0.99999
0.99999
0.99999
0.99999
0.99999
0.99999
0.99999
0.99999
0.99999
0.99999
0.99999
0.99999
0.99999
0.99999
0.99999
0.99999
0.99999
0.999989
0.999987
0.999982
0.999967
0.999895
0.999836
0.999827
0.999292
0.999577
0.932685
0.0308221
1.79595e-06
7.69618e-07
5.74702e-07
5.99593e-07
5.92643e-07
5.73945e-07
5.4933e-07
5.14701e-07
4.73219e-07
4.3164e-07
3.93986e-07
3.62001e-07
3.35418e-07
3.35417e-07
3.3542e-07
3.35426e-07
3.3545e-07
3.35431e-07
3.35408e-07
3.53873e-07
3.89445e-07
4.25637e-07
4.59566e-07
4.86729e-07
4.92211e-07
4.80419e-07
4.56345e-07
4.19238e-07
3.81838e-07
3.22576e-07
2.17733e-07
1.96158e-07
1.96153e-07
1.96145e-07
1.96137e-07
0.999997
0.999997
0.999995
0.999993
0.999993
0.999991
0.99999
0.99999
0.99999
0.99999
0.99999
0.99999
0.99999
0.99999
0.99999
0.99999
0.99999
0.99999
0.99999
0.99999
0.99999
0.99999
0.99999
0.99999
0.99999
0.99999
0.99999
0.99999
0.99999
0.99999
0.99999
0.99999
0.99999
0.99999
0.99999
0.99999
0.99999
0.99999
0.99999
0.99999
0.99999
0.99999
0.99999
0.99999
0.99999
0.99999
0.99999
0.99999
0.99999
0.99999
0.999989
0.999986
0.999981
0.999968
0.999931
0.99986
0.999803
0.99914
0.99933
0.973688
0.0660447
3.6334e-07
3.63341e-07
4.35303e-07
4.49738e-07
4.72178e-07
4.71193e-07
4.62047e-07
4.46257e-07
4.27557e-07
4.08717e-07
3.93583e-07
3.8088e-07
3.69617e-07
3.5902e-07
3.4936e-07
3.42253e-07
3.38791e-07
3.37148e-07
3.35385e-07
3.32643e-07
3.30946e-07
3.31174e-07
3.3292e-07
3.37922e-07
3.46e-07
3.53815e-07
3.60329e-07
3.66469e-07
3.73156e-07
3.70917e-07
3.68603e-07
3.56119e-07
2.6648e-07
1.96274e-07
1.96145e-07
0.999997
0.999997
0.999997
0.999994
0.999993
0.999991
0.999991
0.99999
0.99999
0.99999
0.99999
0.99999
0.99999
0.99999
0.99999
0.99999
0.99999
0.99999
0.99999
0.99999
0.99999
0.99999
0.99999
0.99999
0.99999
0.99999
0.99999
0.99999
0.99999
0.99999
0.99999
0.99999
0.99999
0.99999
0.99999
0.99999
0.99999
0.99999
0.99999
0.99999
0.99999
0.99999
0.99999
0.99999
0.99999
0.99999
0.99999
0.99999
0.99999
0.99999
0.999989
0.999985
0.999977
0.999959
0.99995
0.999903
0.999714
0.998989
0.998969
0.962988
0.0595804
3.63073e-06
3.63341e-07
4.06742e-07
4.21116e-07
4.20699e-07
4.15005e-07
4.017e-07
3.86248e-07
3.72719e-07
3.61395e-07
3.51525e-07
3.43122e-07
3.36629e-07
3.31818e-07
3.28309e-07
3.25737e-07
3.23951e-07
3.22849e-07
3.22255e-07
3.22236e-07
3.22401e-07
3.22731e-07
3.22774e-07
3.22631e-07
3.22723e-07
3.23157e-07
3.24042e-07
3.25759e-07
3.30445e-07
3.38342e-07
3.48488e-07
3.52663e-07
3.46774e-07
2.98522e-07
1.9852e-07
0.999997
0.999998
0.999998
0.999996
0.999994
0.999992
0.99999
0.99999
0.99999
0.99999
0.99999
0.99999
0.99999
0.99999
0.99999
0.99999
0.99999
0.99999
0.99999
0.99999
0.99999
0.99999
0.99999
0.99999
0.99999
0.99999
0.99999
0.99999
0.99999
0.99999
0.99999
0.99999
0.99999
0.99999
0.99999
0.99999
0.99999
0.99999
0.99999
0.99999
0.99999
0.99999
0.99999
0.99999
0.99999
0.99999
0.99999
0.99999
0.99999
0.99999
0.99999
0.999986
0.999976
0.999956
0.99995
0.999902
0.999589
0.99888
0.998357
0.965173
0.0604394
0.000176402
3.63342e-07
3.87655e-07
3.77068e-07
3.57931e-07
3.42327e-07
3.32683e-07
3.27005e-07
3.23662e-07
3.21658e-07
3.20371e-07
3.19567e-07
3.19117e-07
3.18788e-07
3.18447e-07
3.18062e-07
3.17676e-07
3.17541e-07
3.17621e-07
3.17808e-07
3.18164e-07
3.18606e-07
3.19016e-07
3.19476e-07
3.2009e-07
3.21028e-07
3.22176e-07
3.23178e-07
3.24646e-07
3.27118e-07
3.31162e-07
3.37621e-07
3.38611e-07
3.19244e-07
2.24564e-07
0.999999
0.999997
0.999997
0.999997
0.999995
0.999992
0.999991
0.99999
0.99999
0.99999
0.99999
0.99999
0.99999
0.99999
0.99999
0.99999
0.99999
0.99999
0.99999
0.99999
0.99999
0.99999
0.99999
0.99999
0.99999
0.99999
0.99999
0.99999
0.99999
0.99999
0.99999
0.99999
0.99999
0.99999
0.99999
0.99999
0.99999
0.99999
0.99999
0.99999
0.99999
0.99999
0.99999
0.99999
0.99999
0.99999
0.99999
0.99999
0.99999
0.99999
0.99999
0.999987
0.999978
0.999961
0.999955
0.99981
0.999697
0.999029
0.998287
0.958962
0.067361
0.000608697
1.46711e-06
3.10988e-07
3.11455e-07
3.11404e-07
3.11565e-07
3.11965e-07
3.12409e-07
3.12789e-07
3.13076e-07
3.13309e-07
3.13499e-07
3.13659e-07
3.13772e-07
3.13867e-07
3.1394e-07
3.14029e-07
3.14128e-07
3.14246e-07
3.14377e-07
3.14579e-07
3.14851e-07
3.1523e-07
3.15661e-07
3.16324e-07
3.16995e-07
3.17917e-07
3.18666e-07
3.19575e-07
3.21195e-07
3.23653e-07
3.29024e-07
3.28624e-07
2.9933e-07
2.03298e-07
0.999993
0.999992
0.999991
0.999991
0.999991
0.99999
0.99999
0.99999
0.99999
0.99999
0.99999
0.99999
0.99999
0.99999
0.99999
0.99999
0.99999
0.99999
0.99999
0.99999
0.99999
0.99999
0.99999
0.99999
0.99999
0.99999
0.99999
0.99999
0.99999
0.99999
0.99999
0.99999
0.99999
0.99999
0.99999
0.99999
0.99999
0.99999
0.99999
0.99999
0.99999
0.99999
0.99999
0.99999
0.99999
0.99999
0.99999
0.99999
0.99999
0.999989
0.999987
0.999983
0.999977
0.999952
0.999919
0.999846
0.999777
0.998997
0.996674
0.943705
0.0602092
0.000502188
1.27811e-06
6.95659e-07
6.97462e-07
6.9744e-07
6.97448e-07
6.97458e-07
6.97473e-07
6.97555e-07
6.97772e-07
6.98314e-07
6.99785e-07
7.03398e-07
7.10391e-07
7.19958e-07
7.28175e-07
7.31671e-07
7.32594e-07
7.32804e-07
7.32932e-07
7.33065e-07
7.33133e-07
7.33288e-07
7.33434e-07
7.33832e-07
7.33793e-07
7.35763e-07
7.2644e-07
6.50962e-07
4.93188e-07
3.91822e-07
4.66877e-07
5.27203e-07
5.15444e-07
4.29877e-07
0.999995
0.999994
0.999993
0.999993
0.999991
0.999991
0.999991
0.999991
0.999991
0.99999
0.99999
0.99999
0.99999
0.99999
0.99999
0.99999
0.99999
0.99999
0.99999
0.99999
0.99999
0.99999
0.99999
0.99999
0.99999
0.99999
0.99999
0.99999
0.99999
0.99999
0.99999
0.99999
0.99999
0.99999
0.99999
0.99999
0.99999
0.99999
0.99999
0.99999
0.99999
0.99999
0.99999
0.99999
0.99999
0.99999
0.99999
0.99999
0.99999
0.99999
0.999988
0.999985
0.999976
0.999945
0.999923
0.999862
0.999741
0.999119
0.998133
0.95114
0.0473706
7.99142e-05
7.33568e-07
7.33564e-07
7.19905e-07
7.14582e-07
7.16405e-07
7.19019e-07
7.21895e-07
7.24778e-07
7.27347e-07
7.29684e-07
7.32514e-07
7.36733e-07
7.42444e-07
7.47865e-07
7.49832e-07
7.49774e-07
7.48951e-07
7.46327e-07
7.4071e-07
7.33722e-07
7.32267e-07
7.32273e-07
7.32317e-07
7.33376e-07
7.3557e-07
7.41749e-07
7.33282e-07
6.6941e-07
5.42469e-07
4.21321e-07
4.15019e-07
5.07179e-07
5.59794e-07
4.60536e-07
0.999995
0.999995
0.999994
0.999993
0.999993
0.999993
0.999992
0.999992
0.999991
0.99999
0.99999
0.99999
0.99999
0.99999
0.99999
0.99999
0.99999
0.99999
0.99999
0.99999
0.99999
0.99999
0.99999
0.99999
0.99999
0.99999
0.99999
0.99999
0.99999
0.99999
0.99999
0.99999
0.99999
0.99999
0.99999
0.99999
0.99999
0.99999
0.99999
0.99999
0.99999
0.99999
0.99999
0.99999
0.99999
0.99999
0.99999
0.99999
0.99999
0.999989
0.999988
0.999984
0.999975
0.999945
0.999928
0.999844
0.999814
0.999312
0.99903
0.957924
0.0584814
7.3431e-07
9.63966e-07
7.69043e-07
7.81462e-07
8.01632e-07
8.00934e-07
7.96088e-07
7.84999e-07
7.73004e-07
7.65589e-07
7.61558e-07
7.59225e-07
7.57347e-07
7.55079e-07
7.52394e-07
7.49476e-07
7.46691e-07
7.44654e-07
7.43244e-07
7.42334e-07
7.4141e-07
7.40367e-07
7.39084e-07
7.37256e-07
7.35611e-07
7.36083e-07
7.38583e-07
7.23337e-07
6.44314e-07
5.30378e-07
4.30999e-07
4.14905e-07
4.91887e-07
5.77208e-07
4.89084e-07
0.999995
0.999995
0.999995
0.999993
0.999993
0.999993
0.999992
0.999992
0.999992
0.999991
0.99999
0.99999
0.99999
0.99999
0.99999
0.99999
0.99999
0.99999
0.99999
0.99999
0.99999
0.99999
0.99999
0.99999
0.99999
0.99999
0.99999
0.99999
0.99999
0.99999
0.99999
0.99999
0.99999
0.99999
0.99999
0.99999
0.99999
0.99999
0.99999
0.99999
0.99999
0.99999
0.99999
0.99999
0.99999
0.99999
0.99999
0.99999
0.99999
0.999989
0.999988
0.999983
0.999977
0.999955
0.999903
0.99983
0.999689
0.99948
0.999656
0.950039
0.0670327
7.34311e-07
5.72678e-06
7.67469e-07
9.49815e-07
8.62501e-07
9.24511e-07
7.84796e-07
8.63901e-07
8.69711e-07
8.76174e-07
8.82955e-07
8.77278e-07
8.59063e-07
8.2974e-07
8.00837e-07
7.76955e-07
7.63585e-07
7.56517e-07
7.50512e-07
7.47908e-07
7.46974e-07
7.46973e-07
7.47932e-07
7.47924e-07
7.4575e-07
7.34981e-07
6.97588e-07
6.05734e-07
5.18695e-07
4.88865e-07
4.58947e-07
4.77778e-07
5.61329e-07
6.07259e-07
4.98178e-07
0.999995
0.999995
0.999995
0.999993
0.999993
0.999993
0.999993
0.999993
0.999992
0.999991
0.99999
0.99999
0.99999
0.99999
0.99999
0.99999
0.99999
0.99999
0.99999
0.99999
0.99999
0.99999
0.99999
0.99999
0.99999
0.99999
0.99999
0.99999
0.99999
0.99999
0.99999
0.99999
0.99999
0.99999
0.99999
0.99999
0.99999
0.99999
0.99999
0.99999
0.99999
0.99999
0.99999
0.99999
0.99999
0.99999
0.99999
0.99999
0.99999
0.99999
0.999988
0.999983
0.999974
0.999966
0.999824
0.999755
0.999754
0.999765
0.999879
0.882808
0.0207652
0.000191582
0.000168442
9.50424e-05
7.72524e-05
6.50143e-05
5.6802e-05
5.02757e-05
4.58526e-05
3.77935e-05
3.22805e-05
2.82443e-05
2.37239e-05
1.88954e-05
1.40166e-05
9.05306e-06
4.66315e-06
2.29701e-06
1.30575e-06
9.65672e-07
9.07152e-07
7.13128e-07
7.27061e-07
7.32865e-07
7.27097e-07
7.16935e-07
6.86638e-07
6.49192e-07
6.09835e-07
5.78453e-07
5.76704e-07
5.84654e-07
6.37979e-07
6.74598e-07
6.48377e-07
5.04268e-07
0.999995
0.999995
0.999995
0.999994
0.999993
0.999993
0.999993
0.999993
0.999992
0.999991
0.99999
0.99999
0.99999
0.99999
0.99999
0.99999
0.99999
0.99999
0.99999
0.99999
0.99999
0.99999
0.99999
0.99999
0.99999
0.99999
0.99999
0.99999
0.99999
0.99999
0.99999
0.99999
0.99999
0.99999
0.99999
0.99999
0.99999
0.99999
0.99999
0.99999
0.99999
0.99999
0.99999
0.99999
0.99999
0.99999
0.99999
0.99999
0.99999
0.99999
0.999988
0.999983
0.999974
0.999968
0.999848
0.999763
0.999764
0.999804
0.999987
0.750581
0.00819513
0.00411176
0.0041619
0.00382916
0.00378598
0.00366481
0.00360252
0.00366736
0.00325314
0.00281364
0.00269038
0.00271208
0.00256758
0.00226674
0.0020054
0.00166896
0.00118895
0.00084997
0.000648296
0.000398127
0.000167491
7.20329e-05
3.11194e-05
1.1764e-05
8.18288e-06
9.44798e-06
9.59423e-06
9.60843e-06
4.68576e-06
1.46181e-06
1.23038e-06
8.37486e-07
3.97477e-07
6.49212e-07
6.453e-07
4.43335e-07
0.999995
0.999995
0.999994
0.999994
0.999994
0.999993
0.999993
0.999992
0.999991
0.999991
0.99999
0.99999
0.99999
0.99999
0.99999
0.99999
0.99999
0.99999
0.99999
0.99999
0.99999
0.99999
0.99999
0.99999
0.99999
0.99999
0.99999
0.99999
0.99999
0.99999
0.99999
0.99999
0.99999
0.99999
0.99999
0.99999
0.99999
0.99999
0.99999
0.99999
0.99999
0.99999
0.99999
0.99999
0.99999
0.99999
0.99999
0.99999
0.99999
0.99999
0.999988
0.999984
0.999974
0.999959
0.999907
0.999854
0.999631
0.999601
0.99999
0.580095
0.0192744
0.0156091
0.0166961
0.0169834
0.0175613
0.0179718
0.0181512
0.0183228
0.0176851
0.0162806
0.016061
0.0162517
0.0163737
0.0164898
0.0163725
0.0163164
0.0153442
0.0137403
0.0129593
0.0123431
0.0107127
0.00981787
0.00972337
0.0100923
0.0088715
0.00750211
0.00711879
0.00688313
0.00667409
0.00706037
0.00561992
0.00374713
0.00197615
0.000902618
0.00118178
0.00106032
0.999995
0.999995
0.999994
0.999994
0.999994
0.999993
0.999993
0.999992
0.999991
0.99999
0.99999
0.99999
0.99999
0.99999
0.99999
0.99999
0.99999
0.99999
0.99999
0.99999
0.99999
0.99999
0.99999
0.99999
0.99999
0.99999
0.99999
0.99999
0.99999
0.99999
0.99999
0.99999
0.99999
0.99999
0.99999
0.99999
0.99999
0.99999
0.99999
0.99999
0.99999
0.99999
0.99999
0.99999
0.99999
0.99999
0.99999
0.99999
0.99999
0.99999
0.999989
0.999984
0.999974
0.999952
0.999946
0.999796
0.999613
0.99961
0.99999
0.536311
0.02256
0.0170951
0.0171191
0.0174604
0.017422
0.0166733
0.0171614
0.0273372
0.0297732
0.0223009
0.0209288
0.0212587
0.0226568
0.0238625
0.0254538
0.0267532
0.0281371
0.0297956
0.0318546
0.0346272
0.0379771
0.040913
0.0429492
0.0452663
0.048574
0.0527642
0.0576551
0.0622772
0.067072
0.0733744
0.0818596
0.0922018
0.106676
0.130062
0.181688
0.374688
0.999995
0.999996
0.999994
0.999993
0.999993
0.999992
0.999993
0.999991
0.999991
0.99999
0.99999
0.99999
0.99999
0.99999
0.99999
0.99999
0.99999
0.99999
0.99999
0.99999
0.99999
0.99999
0.99999
0.99999
0.99999
0.99999
0.99999
0.99999
0.99999
0.99999
0.99999
0.99999
0.99999
0.99999
0.99999
0.99999
0.99999
0.99999
0.99999
0.99999
0.99999
0.99999
0.99999
0.99999
0.99999
0.99999
0.99999
0.99999
0.99999
0.99999
0.999989
0.999985
0.999976
0.999949
0.999924
0.99988
0.999797
0.99948
0.99999
0.629558
0.0142337
0.00617896
0.00431249
0.00304262
0.00249022
0.00217955
0.0020837
0.00210068
0.00226108
0.00235331
0.00243
0.00250019
0.00257681
0.00277593
0.00313088
0.00340454
0.00378921
0.00474643
0.0053672
0.00579555
0.00672644
0.00759123
0.00845904
0.00940199
0.010601
0.0118497
0.0129319
0.0143046
0.0158857
0.0177371
0.0197468
0.0217668
0.0234618
0.0243793
0.023283
0.0213211
0.999996
0.999996
0.999994
0.999992
0.999992
0.999991
0.999991
0.999991
0.999991
0.99999
0.99999
0.99999
0.99999
0.99999
0.99999
0.99999
0.99999
0.99999
0.99999
0.99999
0.99999
0.99999
0.99999
0.99999
0.99999
0.99999
0.99999
0.99999
0.99999
0.99999
0.99999
0.99999
0.99999
0.99999
0.99999
0.99999
0.99999
0.99999
0.99999
0.99999
0.99999
0.99999
0.99999
0.99999
0.99999
0.99999
0.99999
0.99999
0.99999
0.99999
0.999989
0.999986
0.99998
0.999957
0.999919
0.999858
0.999732
0.99951
0.999969
0.766924
0.00808365
0.000762899
0.000478044
0.000424789
0.000424657
0.000361871
0.000327204
0.000322446
0.000319097
0.000331083
0.000334277
0.000327118
0.000320586
0.000306382
0.000296925
0.000294852
0.000309536
0.000318305
0.00031003
0.000308407
0.000323164
0.000327458
0.000338257
0.000346638
0.000352217
0.000336923
0.00030605
0.00028276
0.000265299
0.000258507
0.000267226
0.000278342
0.000288018
0.000244259
0.000114832
2.66559e-05
0.999996
0.999996
0.999994
0.999992
0.999992
0.999991
0.999991
0.999991
0.999991
0.99999
0.99999
0.99999
0.99999
0.99999
0.99999
0.99999
0.99999
0.99999
0.99999
0.99999
0.99999
0.99999
0.99999
0.99999
0.99999
0.99999
0.99999
0.99999
0.99999
0.99999
0.99999
0.99999
0.99999
0.99999
0.99999
0.99999
0.99999
0.99999
0.99999
0.99999
0.99999
0.99999
0.99999
0.99999
0.99999
0.99999
0.99999
0.99999
0.99999
0.99999
0.99999
0.999987
0.999981
0.999966
0.999916
0.999851
0.999661
0.999547
0.999858
0.898139
0.0329331
1.04808e-05
2.79841e-05
9.08436e-06
6.81296e-06
2.46283e-06
1.36067e-06
2.43579e-06
3.92267e-06
3.46542e-06
3.12883e-06
2.81033e-06
2.18273e-06
1.36396e-06
8.80266e-07
8.26085e-07
1.79497e-06
3.03167e-06
2.86831e-06
2.31857e-06
1.78365e-06
1.14097e-06
8.7022e-07
8.79068e-07
1.30879e-06
1.68319e-06
1.26978e-06
8.69866e-07
8.36763e-07
9.38703e-07
7.31116e-07
5.8258e-07
4.73677e-07
4.10051e-07
4.31555e-07
2.65363e-07
0.999998
0.999996
0.999994
0.999993
0.999992
0.999991
0.999991
0.99999
0.99999
0.99999
0.99999
0.99999
0.99999
0.99999
0.99999
0.99999
0.99999
0.99999
0.99999
0.99999
0.99999
0.99999
0.99999
0.99999
0.99999
0.99999
0.99999
0.99999
0.99999
0.99999
0.99999
0.99999
0.99999
0.99999
0.99999
0.99999
0.99999
0.99999
0.99999
0.99999
0.99999
0.99999
0.99999
0.99999
0.99999
0.99999
0.99999
0.99999
0.99999
0.99999
0.99999
0.999987
0.999981
0.99996
0.999925
0.999852
0.99973
0.999293
0.999676
0.954958
0.0553287
3.63339e-07
1.73623e-06
5.62437e-07
8.64991e-07
7.37966e-07
7.14144e-07
6.98759e-07
6.76988e-07
6.44757e-07
6.04941e-07
5.61646e-07
5.21092e-07
4.83454e-07
4.44624e-07
4.16842e-07
3.98381e-07
3.85444e-07
3.76504e-07
3.71551e-07
3.69453e-07
3.72054e-07
3.73968e-07
3.72991e-07
3.71286e-07
3.7255e-07
3.79374e-07
3.93437e-07
4.08861e-07
4.19022e-07
4.09141e-07
3.43704e-07
2.88498e-07
2.58442e-07
2.16337e-07
1.96129e-07
0.999996
0.999995
0.999994
0.999994
0.999992
0.999991
0.999991
0.99999
0.99999
0.99999
0.99999
0.99999
0.99999
0.99999
0.99999
0.99999
0.99999
0.99999
0.99999
0.99999
0.99999
0.99999
0.99999
0.99999
0.99999
0.99999
0.99999
0.99999
0.99999
0.99999
0.99999
0.99999
0.99999
0.99999
0.99999
0.99999
0.99999
0.99999
0.99999
0.99999
0.99999
0.99999
0.99999
0.99999
0.99999
0.99999
0.99999
0.99999
0.99999
0.99999
0.99999
0.999987
0.999978
0.999955
0.99995
0.999879
0.999772
0.999116
0.999143
0.971766
0.0794967
3.63339e-07
7.46184e-07
5.62781e-07
5.63958e-07
6.11955e-07
6.62933e-07
6.69037e-07
6.62957e-07
6.48143e-07
6.18844e-07
5.75878e-07
5.31293e-07
4.90313e-07
4.54279e-07
4.26184e-07
4.08434e-07
3.95959e-07
3.86307e-07
3.77123e-07
3.6741e-07
3.59507e-07
3.53561e-07
3.50559e-07
3.51274e-07
3.55105e-07
3.63215e-07
3.74984e-07
3.86356e-07
3.94196e-07
3.93779e-07
3.90512e-07
3.75961e-07
3.35482e-07
2.78986e-07
1.96634e-07
0.999997
0.999997
0.999996
0.999996
0.999993
0.999991
0.999991
0.99999
0.99999
0.99999
0.99999
0.99999
0.99999
0.99999
0.99999
0.99999
0.99999
0.99999
0.99999
0.99999
0.99999
0.99999
0.99999
0.99999
0.99999
0.99999
0.99999
0.99999
0.99999
0.99999
0.99999
0.99999
0.99999
0.99999
0.99999
0.99999
0.99999
0.99999
0.99999
0.99999
0.99999
0.99999
0.99999
0.99999
0.99999
0.99999
0.99999
0.99999
0.99999
0.99999
0.99999
0.999987
0.999976
0.999955
0.999945
0.999915
0.999673
0.99905
0.998788
0.970724
0.0848822
3.6334e-07
5.65757e-07
5.66104e-07
5.31759e-07
5.07321e-07
5.07594e-07
5.06806e-07
5.0748e-07
5.04671e-07
4.92806e-07
4.72504e-07
4.53405e-07
4.39872e-07
4.31461e-07
4.23724e-07
4.11117e-07
3.95706e-07
3.79571e-07
3.6722e-07
3.59955e-07
3.56573e-07
3.53359e-07
3.51375e-07
3.52511e-07
3.57018e-07
3.65479e-07
3.7414e-07
3.79772e-07
3.78651e-07
3.7585e-07
3.73392e-07
3.69739e-07
3.57782e-07
3.12249e-07
2.08478e-07
0.999997
0.999998
0.999998
0.999997
0.999994
0.999992
0.999991
0.99999
0.99999
0.99999
0.99999
0.99999
0.99999
0.99999
0.99999
0.99999
0.99999
0.99999
0.99999
0.99999
0.99999
0.99999
0.99999
0.99999
0.99999
0.99999
0.99999
0.99999
0.99999
0.99999
0.99999
0.99999
0.99999
0.99999
0.99999
0.99999
0.99999
0.99999
0.99999
0.99999
0.99999
0.99999
0.99999
0.99999
0.99999
0.99999
0.99999
0.99999
0.99999
0.99999
0.99999
0.999987
0.999978
0.999959
0.999947
0.999902
0.999602
0.998882
0.997733
0.958619
0.0781135
0.000349513
7.60712e-07
3.38405e-07
3.17647e-07
3.18222e-07
3.22437e-07
3.27317e-07
3.33179e-07
3.39586e-07
3.44992e-07
3.48569e-07
3.51606e-07
3.51548e-07
3.49965e-07
3.46523e-07
3.41945e-07
3.37539e-07
3.33851e-07
3.33826e-07
3.35274e-07
3.39873e-07
3.46979e-07
3.54179e-07
3.60733e-07
3.67663e-07
3.73743e-07
3.79118e-07
3.7905e-07
3.75728e-07
3.69477e-07
3.62755e-07
3.59582e-07
3.52535e-07
3.16043e-07
2.13799e-07
0.999999
0.999998
0.999998
0.999997
0.999994
0.999992
0.999991
0.99999
0.99999
0.99999
0.99999
0.99999
0.99999
0.99999
0.99999
0.99999
0.99999
0.99999
0.99999
0.99999
0.99999
0.99999
0.99999
0.99999
0.99999
0.99999
0.99999
0.99999
0.99999
0.99999
0.99999
0.99999
0.99999
0.99999
0.99999
0.99999
0.99999
0.99999
0.99999
0.99999
0.99999
0.99999
0.99999
0.99999
0.99999
0.99999
0.99999
0.99999
0.99999
0.99999
0.99999
0.999987
0.999978
0.99996
0.999959
0.999862
0.999698
0.998775
0.995952
0.944493
0.0812473
0.00102981
3.15169e-06
3.10985e-07
3.10981e-07
3.10985e-07
3.10989e-07
3.10992e-07
3.1102e-07
3.1113e-07
3.11307e-07
3.11567e-07
3.11977e-07
3.12516e-07
3.13227e-07
3.14103e-07
3.15154e-07
3.16354e-07
3.17871e-07
3.19997e-07
3.23281e-07
3.28655e-07
3.38574e-07
3.4881e-07
3.5761e-07
3.6405e-07
3.67249e-07
3.69904e-07
3.68857e-07
3.64797e-07
3.58856e-07
3.52494e-07
3.49928e-07
3.43431e-07
2.97705e-07