/*--------------------------------*- C++ -*----------------------------------*\
| =========                 |                                                 |
| \\      /  F ield         | OpenFOAM: The Open Source CFD Toolbox           |
|  \\    /   O peration     | Version:  2.3.0                                 |
|   \\  /    A nd           | Web:      www.OpenFOAM.org                      |
|    \\/     M anipulation  |                                                 |
\*---------------------------------------------------------------------------*/
FoamFile
{
    version     2.0;
    format      ascii;
    class       volScalarField;
    location    "16";
    object      alpha.air;
}
// * * * * * * * * * * * * * * * * * * * * * * * * * * * * * * * * * * * * * //

dimensions      [0 0 0 0 0 0 0];

internalField   nonuniform List<scalar> 
6144
(
0.999995
0.999994
0.999993
0.999992
0.999992
0.999991
0.99999
0.99999
0.99999
0.99999
0.99999
0.99999
0.99999
0.99999
0.99999
0.99999
0.99999
0.99999
0.99999
0.99999
0.99999
0.99999
0.99999
0.99999
0.99999
0.99999
0.99999
0.99999
0.99999
0.99999
0.99999
0.99999
0.99999
0.99999
0.99999
0.99999
0.99999
0.99999
0.99999
0.99999
0.99999
0.99999
0.99999
0.99999
0.99999
0.99999
0.999984
0.999967
0.999953
0.999947
0.999942
0.999937
0.999933
0.999925
0.999919
0.999907
0.9999
0.999887
0.998985
0.946014
0.0362861
0.000189717
6.35305e-07
6.43886e-07
6.51876e-07
6.56741e-07
6.58032e-07
6.58395e-07
6.57633e-07
6.52805e-07
6.49694e-07
6.47335e-07
6.49038e-07
6.52447e-07
6.55606e-07
6.54932e-07
6.5177e-07
6.50528e-07
6.50168e-07
6.93115e-07
6.94421e-07
6.34284e-07
6.21102e-07
6.1588e-07
6.15565e-07
6.13382e-07
6.21365e-07
6.31221e-07
6.39331e-07
6.44538e-07
6.60098e-07
6.62603e-07
6.11236e-07
4.28483e-07
2.55494e-07
2.43023e-07
0.999995
0.999995
0.999994
0.999993
0.999992
0.999991
0.99999
0.99999
0.99999
0.99999
0.99999
0.99999
0.99999
0.99999
0.99999
0.99999
0.99999
0.99999
0.99999
0.99999
0.99999
0.99999
0.99999
0.99999
0.99999
0.99999
0.99999
0.99999
0.99999
0.99999
0.99999
0.99999
0.99999
0.99999
0.99999
0.99999
0.99999
0.99999
0.99999
0.99999
0.99999
0.99999
0.99999
0.99999
0.99999
0.999989
0.999982
0.999967
0.999956
0.999948
0.999939
0.99993
0.999923
0.999911
0.999899
0.999878
0.999869
0.999859
0.99965
0.945302
0.0194422
3.54724e-05
6.35304e-07
7.13324e-07
6.9784e-07
7.49528e-07
6.99583e-07
6.41364e-07
6.35844e-07
6.35844e-07
6.38255e-07
6.38544e-07
6.45929e-07
6.61636e-07
6.54488e-07
6.40592e-07
6.59622e-07
7.07013e-07
6.93031e-07
7.11886e-07
6.94891e-07
6.57776e-07
6.44763e-07
6.30751e-07
6.18972e-07
6.02559e-07
6.05727e-07
6.21656e-07
6.34781e-07
6.46241e-07
6.67972e-07
6.64856e-07
6.03259e-07
4.27954e-07
2.43023e-07
2.43023e-07
0.999995
0.999995
0.999994
0.999994
0.999993
0.999992
0.999991
0.99999
0.99999
0.99999
0.99999
0.99999
0.99999
0.99999
0.99999
0.99999
0.99999
0.99999
0.99999
0.99999
0.99999
0.99999
0.99999
0.99999
0.99999
0.99999
0.99999
0.99999
0.99999
0.99999
0.99999
0.99999
0.99999
0.99999
0.99999
0.99999
0.99999
0.99999
0.99999
0.99999
0.99999
0.99999
0.99999
0.99999
0.99999
0.999989
0.999983
0.999971
0.99996
0.99995
0.999936
0.999919
0.999906
0.999887
0.999872
0.999849
0.999849
0.999845
0.999797
0.927416
0.0286168
4.6433e-05
9.68398e-07
2.26799e-06
1.32572e-06
6.8375e-07
7.03598e-07
7.48504e-07
8.44643e-07
8.87988e-07
7.84921e-07
6.68022e-07
6.8821e-07
7.20635e-07
7.45487e-07
7.18907e-07
7.78333e-07
7.57901e-07
7.40041e-07
7.29857e-07
7.14435e-07
7.01185e-07
6.88467e-07
6.76582e-07
6.45201e-07
6.01609e-07
5.81914e-07
5.89914e-07
6.12759e-07
6.4232e-07
6.62709e-07
6.28802e-07
4.76995e-07
2.54774e-07
2.43022e-07
2.43023e-07
0.999995
0.999995
0.999995
0.999994
0.999994
0.999992
0.999991
0.99999
0.99999
0.99999
0.99999
0.99999
0.99999
0.99999
0.99999
0.99999
0.99999
0.99999
0.99999
0.99999
0.99999
0.99999
0.99999
0.99999
0.99999
0.99999
0.99999
0.99999
0.99999
0.99999
0.99999
0.99999
0.99999
0.99999
0.99999
0.99999
0.99999
0.99999
0.99999
0.99999
0.99999
0.99999
0.99999
0.99999
0.99999
0.999988
0.999983
0.999975
0.999966
0.999954
0.999932
0.999904
0.999884
0.99986
0.999848
0.999835
0.999845
0.999839
0.999783
0.911554
0.0210293
0.000115122
7.69539e-05
7.30281e-05
6.69131e-05
6.05488e-05
5.55934e-05
3.88055e-05
2.70436e-05
1.54382e-05
7.7574e-06
2.90163e-06
1.02254e-06
6.99858e-07
7.82032e-07
6.55464e-07
6.55476e-07
6.55511e-07
6.55546e-07
6.55583e-07
6.58661e-07
6.68734e-07
6.51953e-07
6.30362e-07
6.09131e-07
6.03476e-07
5.71112e-07
5.75498e-07
6.11479e-07
6.43646e-07
6.17281e-07
4.69741e-07
3.23052e-07
2.59716e-07
2.65534e-07
2.89892e-07
0.999995
0.999995
0.999995
0.999994
0.999994
0.999993
0.999992
0.999991
0.99999
0.99999
0.99999
0.99999
0.99999
0.99999
0.99999
0.99999
0.99999
0.99999
0.99999
0.99999
0.99999
0.99999
0.99999
0.99999
0.99999
0.99999
0.99999
0.99999
0.99999
0.99999
0.99999
0.99999
0.99999
0.99999
0.99999
0.99999
0.99999
0.99999
0.99999
0.99999
0.99999
0.99999
0.99999
0.99999
0.99999
0.999988
0.999984
0.999977
0.99997
0.999957
0.999928
0.999888
0.999862
0.999838
0.999834
0.99983
0.999849
0.999836
0.999715
0.904244
0.0254762
0.00122256
0.00127095
0.00135009
0.00140675
0.00141949
0.0013899
0.001173
0.000981502
0.000744985
0.000525767
0.000344394
0.00020003
0.000103782
6.01399e-05
4.23128e-05
3.70222e-05
4.08366e-05
4.56503e-05
4.66626e-05
4.07797e-05
3.11931e-05
1.89233e-05
9.39808e-06
3.84051e-06
1.61734e-06
1.20296e-06
6.57173e-07
5.52366e-07
4.45775e-07
4.45661e-07
4.13654e-07
3.5306e-07
3.66144e-07
4.31521e-07
4.10864e-07
0.999995
0.999994
0.999994
0.999994
0.999994
0.999993
0.999992
0.999991
0.99999
0.99999
0.99999
0.99999
0.99999
0.99999
0.99999
0.99999
0.99999
0.99999
0.99999
0.99999
0.99999
0.99999
0.99999
0.99999
0.99999
0.99999
0.99999
0.99999
0.99999
0.99999
0.99999
0.99999
0.99999
0.99999
0.99999
0.99999
0.99999
0.99999
0.99999
0.99999
0.99999
0.99999
0.99999
0.99999
0.99999
0.999988
0.999985
0.99998
0.999975
0.999958
0.999924
0.999875
0.999844
0.999828
0.999829
0.99983
0.99985
0.999847
0.999863
0.86866
0.0211812
0.00531488
0.00598421
0.00631894
0.00650635
0.00656007
0.00596255
0.00558808
0.00510372
0.00469177
0.00428272
0.00393026
0.00355511
0.0031568
0.002842
0.00262008
0.00245565
0.00239804
0.00245345
0.00248213
0.00220896
0.00185229
0.00137033
0.00087534
0.000447451
0.000185307
5.38541e-05
2.50098e-05
2.84583e-05
1.59573e-05
1.32613e-05
8.17213e-06
5.45064e-06
2.74322e-06
1.17062e-06
2.49064e-07
0.999995
0.999994
0.999994
0.999994
0.999994
0.999993
0.999993
0.999992
0.999991
0.99999
0.99999
0.99999
0.99999
0.99999
0.99999
0.99999
0.99999
0.99999
0.99999
0.99999
0.99999
0.99999
0.99999
0.99999
0.99999
0.99999
0.99999
0.99999
0.99999
0.99999
0.99999
0.99999
0.99999
0.99999
0.99999
0.99999
0.99999
0.99999
0.99999
0.99999
0.99999
0.99999
0.99999
0.99999
0.99999
0.999989
0.999986
0.999983
0.999975
0.999944
0.999901
0.999859
0.999834
0.999826
0.99983
0.999837
0.999854
0.999814
0.999768
0.877822
0.0289862
0.00955966
0.0105379
0.0107629
0.0104806
0.00987832
0.00924562
0.00920551
0.00947434
0.00969214
0.00982442
0.00993302
0.0100121
0.010087
0.0101829
0.0102718
0.010345
0.0102502
0.00995756
0.00931306
0.00828588
0.00684957
0.00501134
0.00312495
0.00149595
0.000375584
2.50736e-07
2.49064e-07
2.49064e-07
2.49064e-07
2.49064e-07
7.07294e-06
2.82042e-05
2.49064e-07
2.49064e-07
2.49064e-07
0.999995
0.999994
0.999994
0.999993
0.999993
0.999992
0.999992
0.999992
0.999991
0.999991
0.99999
0.99999
0.99999
0.99999
0.99999
0.99999
0.99999
0.99999
0.99999
0.99999
0.99999
0.99999
0.99999
0.99999
0.99999
0.99999
0.99999
0.99999
0.99999
0.99999
0.99999
0.99999
0.99999
0.99999
0.99999
0.99999
0.99999
0.99999
0.99999
0.99999
0.99999
0.99999
0.99999
0.99999
0.99999
0.999989
0.999986
0.999984
0.999965
0.999913
0.999867
0.999856
0.99984
0.999842
0.999857
0.99986
0.999856
0.999733
0.999596
0.871852
0.0276252
0.00849408
0.00915629
0.0092155
0.00869407
0.0082853
0.00805355
0.00849425
0.00881351
0.00916866
0.00949369
0.00974536
0.00987224
0.00996977
0.0100825
0.00994369
0.00970138
0.00936319
0.00864671
0.00765769
0.00634481
0.00483117
0.00328957
0.00202967
0.00121885
0.000712292
0.000229287
2.49064e-07
2.49064e-07
2.49064e-07
2.49064e-07
2.49064e-07
2.49064e-07
2.49064e-07
2.49064e-07
0.00134843
0.999995
0.999994
0.999994
0.999993
0.999993
0.999992
0.999992
0.999991
0.999991
0.999991
0.99999
0.99999
0.99999
0.99999
0.99999
0.99999
0.99999
0.99999
0.99999
0.99999
0.99999
0.99999
0.99999
0.99999
0.99999
0.99999
0.99999
0.99999
0.99999
0.99999
0.99999
0.99999
0.99999
0.99999
0.99999
0.99999
0.99999
0.99999
0.99999
0.99999
0.99999
0.99999
0.99999
0.99999
0.99999
0.999989
0.999987
0.999983
0.999975
0.999924
0.999875
0.999858
0.999843
0.999852
0.999865
0.999866
0.999872
0.999759
0.999596
0.892328
0.0191096
0.00372849
0.00363149
0.00296039
0.00251278
0.00198662
0.00169711
0.00152999
0.00140783
0.00131252
0.00133727
0.00128655
0.00125709
0.00124995
0.00119725
0.0011099
0.000980728
0.000755473
0.000530546
0.000310906
0.000149883
5.86102e-05
1.52007e-05
2.66277e-06
2.50807e-07
3.5516e-07
2.5081e-07
3.53671e-07
4.14011e-07
9.66992e-07
1.52892e-06
7.9958e-07
2.49064e-07
5.28887e-07
2.53528e-07
2.50908e-07
0.999995
0.999994
0.999993
0.999993
0.999992
0.999992
0.999992
0.999991
0.999991
0.999991
0.99999
0.99999
0.99999
0.99999
0.99999
0.99999
0.99999
0.99999
0.99999
0.99999
0.99999
0.99999
0.99999
0.99999
0.99999
0.99999
0.99999
0.99999
0.99999
0.99999
0.99999
0.99999
0.99999
0.99999
0.99999
0.99999
0.99999
0.99999
0.99999
0.99999
0.99999
0.99999
0.99999
0.99999
0.99999
0.999989
0.999986
0.999981
0.999978
0.999953
0.999907
0.999871
0.999847
0.99985
0.999863
0.999869
0.999872
0.999826
0.999846
0.91084
0.00959824
0.000493262
0.000396171
0.000237016
0.000163603
7.89363e-05
4.88295e-05
3.45629e-05
2.52857e-05
2.00178e-05
1.95998e-05
1.93214e-05
1.79214e-05
1.71e-05
1.46331e-05
1.11588e-05
7.14932e-06
3.7812e-06
1.94437e-06
9.96254e-07
6.80199e-07
5.75047e-07
6.00383e-07
6.80739e-07
6.9517e-07
7.43031e-07
7.08539e-07
7.56373e-07
7.40221e-07
8.20315e-07
7.80275e-07
7.06239e-07
6.98455e-07
6.94389e-07
6.70909e-07
5.56868e-07
0.999996
0.999995
0.999994
0.999993
0.999992
0.999991
0.999991
0.999991
0.99999
0.99999
0.99999
0.99999
0.99999
0.99999
0.99999
0.99999
0.99999
0.99999
0.99999
0.99999
0.99999
0.99999
0.99999
0.99999
0.99999
0.99999
0.99999
0.99999
0.99999
0.99999
0.99999
0.99999
0.99999
0.99999
0.99999
0.99999
0.99999
0.99999
0.99999
0.99999
0.99999
0.99999
0.99999
0.99999
0.99999
0.999989
0.999986
0.999979
0.999971
0.999967
0.999945
0.999904
0.999862
0.99985
0.999857
0.999867
0.999871
0.999863
0.999739
0.942836
0.0102048
1.96786e-05
6.0207e-06
2.8152e-06
1.74332e-06
9.29591e-07
1.57366e-06
1.14549e-06
7.15309e-07
7.15309e-07
7.15309e-07
7.15309e-07
7.92957e-07
9.09496e-07
8.77467e-07
7.77753e-07
7.51262e-07
7.49493e-07
7.48168e-07
7.32028e-07
7.26557e-07
7.32167e-07
7.32261e-07
7.28202e-07
7.27001e-07
7.26524e-07
7.29324e-07
7.27082e-07
6.97092e-07
6.32071e-07
5.82331e-07
6.08506e-07
6.56865e-07
6.90703e-07
6.54371e-07
5.11423e-07
0.999997
0.999995
0.999994
0.999993
0.999992
0.999991
0.999991
0.99999
0.99999
0.99999
0.99999
0.99999
0.99999
0.99999
0.99999
0.99999
0.99999
0.99999
0.99999
0.99999
0.99999
0.99999
0.99999
0.99999
0.99999
0.99999
0.99999
0.99999
0.99999
0.99999
0.99999
0.99999
0.99999
0.99999
0.99999
0.99999
0.99999
0.99999
0.99999
0.99999
0.99999
0.99999
0.99999
0.99999
0.99999
0.999989
0.999985
0.999977
0.999968
0.99996
0.999956
0.999938
0.999896
0.999859
0.999859
0.999864
0.99987
0.999868
0.999651
0.960374
0.0220383
3.68995e-05
6.94791e-07
7.24891e-07
8.26768e-07
7.72919e-07
7.22232e-07
7.20049e-07
7.17702e-07
7.16634e-07
7.15309e-07
7.15309e-07
7.3118e-07
7.42066e-07
7.52985e-07
7.59511e-07
7.63743e-07
7.61968e-07
7.58847e-07
7.58398e-07
7.46636e-07
7.3013e-07
7.2929e-07
7.31057e-07
7.25514e-07
7.24664e-07
7.29726e-07
7.29958e-07
7.19273e-07
6.7139e-07
5.76491e-07
5.86397e-07
6.4847e-07
6.91981e-07
6.24608e-07
4.61212e-07
0.999997
0.999995
0.999994
0.999993
0.999993
0.999991
0.99999
0.99999
0.99999
0.99999
0.99999
0.99999
0.99999
0.99999
0.99999
0.99999
0.99999
0.99999
0.99999
0.99999
0.99999
0.99999
0.99999
0.99999
0.99999
0.99999
0.99999
0.99999
0.99999
0.99999
0.99999
0.99999
0.99999
0.99999
0.99999
0.99999
0.99999
0.99999
0.99999
0.99999
0.99999
0.99999
0.99999
0.99999
0.99999
0.999989
0.999986
0.999977
0.999965
0.999955
0.999949
0.999946
0.999927
0.999889
0.999869
0.999866
0.99987
0.999868
0.999675
0.963661
0.0384889
0.00011912
6.94792e-07
6.99478e-07
7.07109e-07
7.41508e-07
7.22487e-07
7.18552e-07
7.1449e-07
7.20892e-07
7.29268e-07
7.29986e-07
7.38748e-07
7.45509e-07
7.42154e-07
7.38071e-07
7.41597e-07
7.45141e-07
7.44047e-07
7.40375e-07
7.40363e-07
7.40353e-07
7.40344e-07
7.40333e-07
7.305e-07
7.23055e-07
7.29204e-07
7.33068e-07
7.27935e-07
7.0126e-07
6.02734e-07
5.58917e-07
5.95767e-07
6.6019e-07
5.90491e-07
4.08029e-07
0.999997
0.999996
0.999995
0.999994
0.999995
0.999992
0.999991
0.99999
0.99999
0.99999
0.99999
0.99999
0.99999
0.99999
0.99999
0.99999
0.99999
0.99999
0.99999
0.99999
0.99999
0.99999
0.99999
0.99999
0.99999
0.99999
0.99999
0.99999
0.99999
0.99999
0.99999
0.99999
0.99999
0.99999
0.99999
0.99999
0.99999
0.99999
0.99999
0.99999
0.99999
0.99999
0.99999
0.99999
0.99999
0.99999
0.999986
0.999976
0.999962
0.999952
0.999945
0.999942
0.999936
0.999916
0.999892
0.999874
0.999875
0.999872
0.9997
0.962669
0.0440715
0.000178741
6.94791e-07
7.06176e-07
7.00959e-07
7.12485e-07
7.12813e-07
7.15637e-07
7.19155e-07
7.29623e-07
7.43774e-07
7.47029e-07
7.46462e-07
7.46214e-07
7.43568e-07
7.43995e-07
7.45082e-07
7.45112e-07
7.45082e-07
7.42513e-07
7.38637e-07
7.35451e-07
7.33555e-07
7.33335e-07
7.26328e-07
7.22966e-07
7.30786e-07
7.34015e-07
7.29952e-07
7.10494e-07
6.31166e-07
5.42689e-07
5.47429e-07
6.0197e-07
5.78397e-07
3.74162e-07
0.999998
0.999997
0.999997
0.999997
0.999997
0.999995
0.999992
0.99999
0.99999
0.99999
0.99999
0.99999
0.99999
0.99999
0.99999
0.99999
0.99999
0.99999
0.99999
0.99999
0.99999
0.99999
0.99999
0.99999
0.99999
0.99999
0.99999
0.99999
0.99999
0.99999
0.99999
0.99999
0.99999
0.99999
0.99999
0.99999
0.99999
0.99999
0.99999
0.99999
0.99999
0.99999
0.99999
0.99999
0.99999
0.99999
0.999987
0.999978
0.999964
0.999954
0.999949
0.999945
0.999943
0.999934
0.999918
0.999897
0.999888
0.999881
0.99969
0.956263
0.0366223
0.000117761
6.94792e-07
7.07808e-07
7.01137e-07
6.99761e-07
7.02099e-07
7.0634e-07
7.12521e-07
7.20025e-07
7.30375e-07
7.42338e-07
7.51304e-07
7.47968e-07
7.41768e-07
7.39145e-07
7.39403e-07
7.37872e-07
7.3505e-07
7.30631e-07
7.2438e-07
7.1966e-07
7.15697e-07
7.15518e-07
7.15599e-07
7.19567e-07
7.32278e-07
7.34765e-07
7.31518e-07
7.14596e-07
6.46839e-07
5.48245e-07
5.34597e-07
5.57891e-07
5.47757e-07
3.92663e-07
0.999999
0.999998
0.999998
0.999998
0.999998
0.999997
0.999995
0.999991
0.99999
0.99999
0.99999
0.99999
0.99999
0.99999
0.99999
0.99999
0.99999
0.99999
0.99999
0.99999
0.99999
0.99999
0.99999
0.99999
0.99999
0.99999
0.99999
0.99999
0.99999
0.99999
0.99999
0.99999
0.99999
0.99999
0.99999
0.99999
0.99999
0.99999
0.99999
0.99999
0.99999
0.99999
0.99999
0.99999
0.99999
0.99999
0.999988
0.999982
0.999968
0.999949
0.999946
0.999946
0.999943
0.999935
0.999929
0.999914
0.999904
0.999889
0.999273
0.946864
0.0367178
0.000150172
6.94792e-07
7.0422e-07
7.09857e-07
7.08064e-07
7.07892e-07
7.08947e-07
7.11379e-07
7.13981e-07
7.17347e-07
7.21107e-07
7.26482e-07
7.31685e-07
7.34768e-07
7.38732e-07
7.43943e-07
7.44368e-07
7.44368e-07
7.44013e-07
7.42636e-07
7.40359e-07
7.34619e-07
7.26586e-07
7.22785e-07
7.2411e-07
7.30639e-07
7.31943e-07
7.25283e-07
6.99848e-07
6.29706e-07
5.41888e-07
5.34011e-07
5.53272e-07
5.30139e-07
3.35811e-07
0.999994
0.999994
0.999993
0.999992
0.999991
0.999991
0.99999
0.99999
0.99999
0.99999
0.99999
0.99999
0.99999
0.99999
0.99999
0.99999
0.99999
0.99999
0.99999
0.99999
0.99999
0.99999
0.99999
0.99999
0.99999
0.99999
0.99999
0.99999
0.99999
0.99999
0.99999
0.99999
0.99999
0.99999
0.99999
0.99999
0.99999
0.99999
0.99999
0.99999
0.99999
0.99999
0.99999
0.99999
0.99999
0.99999
0.999986
0.999969
0.999953
0.999944
0.999939
0.999933
0.999929
0.999923
0.999919
0.99991
0.999906
0.999877
0.999269
0.943705
0.0342016
5.04483e-05
6.35304e-07
6.40296e-07
6.35562e-07
6.37385e-07
6.4212e-07
6.50614e-07
6.63419e-07
6.66972e-07
6.73022e-07
6.6814e-07
6.64755e-07
6.61174e-07
6.60543e-07
6.61033e-07
6.59367e-07
6.53259e-07
6.54931e-07
6.78427e-07
7.20359e-07
6.91677e-07
6.09318e-07
5.87557e-07
5.85185e-07
5.84841e-07
6.09145e-07
6.2826e-07
6.50316e-07
6.66932e-07
6.71309e-07
6.64799e-07
5.93472e-07
4.06059e-07
2.47695e-07
2.43023e-07
0.999995
0.999994
0.999993
0.999993
0.999992
0.999992
0.999991
0.999991
0.999991
0.99999
0.99999
0.99999
0.99999
0.99999
0.99999
0.99999
0.99999
0.99999
0.99999
0.99999
0.99999
0.99999
0.99999
0.99999
0.99999
0.99999
0.99999
0.99999
0.99999
0.99999
0.99999
0.99999
0.99999
0.99999
0.99999
0.99999
0.99999
0.99999
0.99999
0.99999
0.99999
0.99999
0.99999
0.99999
0.99999
0.99999
0.999984
0.999969
0.999954
0.999943
0.999933
0.999924
0.999917
0.999911
0.999902
0.999882
0.999877
0.999866
0.999689
0.885748
0.00687726
2.94645e-06
6.35303e-07
7.93971e-07
8.39007e-07
9.83508e-07
1.0223e-06
1.01368e-06
1.03486e-06
9.87798e-07
9.06589e-07
7.52945e-07
7.03854e-07
6.69558e-07
6.61857e-07
6.49454e-07
6.42038e-07
6.3813e-07
6.61013e-07
7.21576e-07
7.2839e-07
6.99544e-07
6.31093e-07
6.07671e-07
5.96978e-07
5.57712e-07
5.49284e-07
5.94562e-07
6.39052e-07
6.57104e-07
6.6387e-07
6.56109e-07
5.80554e-07
4.05389e-07
2.43022e-07
2.43022e-07
0.999995
0.999994
0.999994
0.999993
0.999993
0.999993
0.999992
0.999992
0.999991
0.99999
0.99999
0.99999
0.99999
0.99999
0.99999
0.99999
0.99999
0.99999
0.99999
0.99999
0.99999
0.99999
0.99999
0.99999
0.99999
0.99999
0.99999
0.99999
0.99999
0.99999
0.99999
0.99999
0.99999
0.99999
0.99999
0.99999
0.99999
0.99999
0.99999
0.99999
0.99999
0.99999
0.99999
0.99999
0.99999
0.999989
0.999985
0.999973
0.999958
0.999945
0.99993
0.999911
0.999896
0.999892
0.999876
0.999856
0.999861
0.999853
0.999857
0.840631
0.00204954
6.38193e-05
6.54432e-05
6.02668e-05
5.09139e-05
3.78003e-05
2.70833e-05
1.52091e-05
7.82283e-06
3.56658e-06
1.74293e-06
9.90596e-07
7.84733e-07
7.94564e-07
6.28614e-07
6.2795e-07
6.2865e-07
6.28066e-07
6.28763e-07
6.68017e-07
7.75887e-07
8.00807e-07
7.95513e-07
7.81975e-07
7.14039e-07
5.78368e-07
5.03904e-07
4.98727e-07
5.66832e-07
6.2275e-07
6.26103e-07
6.07599e-07
4.73559e-07
2.70945e-07
2.43021e-07
2.43022e-07
0.999995
0.999994
0.999993
0.999993
0.999993
0.999993
0.999992
0.999992
0.999991
0.99999
0.99999
0.99999
0.99999
0.99999
0.99999
0.99999
0.99999
0.99999
0.99999
0.99999
0.99999
0.99999
0.99999
0.99999
0.99999
0.99999
0.99999
0.99999
0.99999
0.99999
0.99999
0.99999
0.99999
0.99999
0.99999
0.99999
0.99999
0.99999
0.99999
0.99999
0.99999
0.99999
0.99999
0.99999
0.999989
0.999988
0.999986
0.999978
0.999965
0.999947
0.99991
0.999879
0.999863
0.99986
0.99985
0.999849
0.999857
0.999855
0.999863
0.788064
0.00463814
0.00162448
0.00162783
0.00159915
0.00160407
0.00129996
0.00106725
0.000776772
0.000523998
0.000311721
0.000166996
7.65833e-05
2.76396e-05
7.2791e-06
1.75243e-06
1.23559e-06
1.45646e-06
1.8686e-06
2.73099e-06
3.60242e-06
3.78064e-06
2.35452e-06
1.21453e-06
9.01477e-07
9.43989e-07
7.3513e-07
5.23515e-07
4.82416e-07
5.35067e-07
5.93444e-07
5.6144e-07
4.97204e-07
4.0379e-07
2.86057e-07
2.44298e-07
2.43099e-07
0.999995
0.999994
0.999993
0.999993
0.999993
0.999993
0.999993
0.999992
0.999991
0.999991
0.99999
0.99999
0.99999
0.99999
0.99999
0.99999
0.99999
0.99999
0.99999
0.99999
0.99999
0.99999
0.99999
0.99999
0.99999
0.99999
0.99999
0.99999
0.99999
0.99999
0.99999
0.99999
0.99999
0.99999
0.99999
0.99999
0.99999
0.99999
0.99999
0.99999
0.99999
0.99999
0.99999
0.99999
0.99999
0.999988
0.999985
0.999982
0.999971
0.999941
0.999891
0.999849
0.999839
0.999839
0.999839
0.999836
0.999836
0.999841
0.999863
0.769124
0.0174359
0.00916232
0.00978187
0.0100561
0.0102796
0.00965948
0.00883304
0.00795458
0.00690408
0.00559779
0.00420828
0.00289903
0.00180962
0.00100445
0.000482803
0.000256472
0.000209748
0.000289004
0.000368529
0.000441395
0.000460583
0.000380909
0.000295742
0.000195499
0.000103114
4.36647e-05
1.48348e-05
4.99198e-06
2.61766e-06
1.23562e-06
7.39492e-07
4.33442e-07
6.84687e-07
9.65466e-07
1.16788e-06
9.00514e-07
0.999995
0.999994
0.999993
0.999993
0.999993
0.999992
0.999992
0.999992
0.999991
0.999991
0.99999
0.99999
0.99999
0.99999
0.99999
0.99999
0.99999
0.99999
0.99999
0.99999
0.99999
0.99999
0.99999
0.99999
0.99999
0.99999
0.99999
0.99999
0.99999
0.99999
0.99999
0.99999
0.99999
0.99999
0.99999
0.99999
0.99999
0.99999
0.99999
0.99999
0.99999
0.99999
0.99999
0.99999
0.99999
0.999989
0.999986
0.999983
0.999975
0.999953
0.999888
0.999833
0.999823
0.999823
0.999824
0.999825
0.999838
0.999815
0.999863
0.689307
0.0285723
0.0192518
0.0215169
0.0222537
0.0226343
0.0230742
0.0235012
0.0237561
0.023922
0.0238991
0.0223524
0.0204911
0.0180482
0.0153888
0.0125648
0.0102194
0.00858637
0.00799126
0.00865693
0.00965885
0.0101211
0.0102382
0.00980741
0.00886948
0.00746937
0.00563049
0.00370427
0.00222112
0.0013686
0.000923251
0.000615403
0.000378639
0.000285739
0.000201073
0.000100412
5.38351e-05
0.999995
0.999995
0.999994
0.999993
0.999992
0.999992
0.999992
0.999991
0.999991
0.999991
0.99999
0.99999
0.99999
0.99999
0.99999
0.99999
0.99999
0.99999
0.99999
0.99999
0.99999
0.99999
0.99999
0.99999
0.99999
0.99999
0.99999
0.99999
0.99999
0.99999
0.99999
0.99999
0.99999
0.99999
0.99999
0.99999
0.99999
0.99999
0.99999
0.99999
0.99999
0.99999
0.99999
0.99999
0.99999
0.999989
0.999986
0.999984
0.999972
0.999935
0.99986
0.999824
0.999824
0.999825
0.999822
0.999818
0.999825
0.999837
0.999863
0.73418
0.0401025
0.0251596
0.0283896
0.0288822
0.0289927
0.031563
0.0339173
0.0355402
0.0363878
0.0370789
0.0377134
0.0381188
0.0382589
0.038432
0.0387639
0.0390781
0.0394905
0.0399066
0.0403841
0.0413192
0.0433362
0.0455132
0.0479699
0.0503015
0.0517909
0.0523852
0.0502611
0.0470817
0.0436897
0.0399744
0.0362804
0.0326814
0.02941
0.0263796
0.0222725
0.0183199
0.999996
0.999996
0.999994
0.999993
0.999992
0.999992
0.999991
0.999991
0.999991
0.999991
0.99999
0.99999
0.99999
0.99999
0.99999
0.99999
0.99999
0.99999
0.99999
0.99999
0.99999
0.99999
0.99999
0.99999
0.99999
0.99999
0.99999
0.99999
0.99999
0.99999
0.99999
0.99999
0.99999
0.99999
0.99999
0.99999
0.99999
0.99999
0.99999
0.99999
0.99999
0.99999
0.99999
0.99999
0.99999
0.999989
0.999987
0.999984
0.999955
0.999868
0.99984
0.999838
0.999849
0.999854
0.999857
0.999849
0.999847
0.99985
0.999863
0.792893
0.036788
0.0189053
0.0203322
0.0203468
0.0199877
0.0202173
0.0205329
0.0210207
0.021748
0.0232179
0.025034
0.0274908
0.0302549
0.0334102
0.0368641
0.040203
0.0427832
0.0454505
0.0482575
0.0516255
0.0553665
0.0595069
0.0643759
0.0698915
0.075989
0.0826302
0.0893841
0.0965173
0.103597
0.111778
0.122422
0.135502
0.151112
0.172888
0.21803
0.410239
0.999996
0.999996
0.999995
0.999993
0.999992
0.999991
0.999991
0.999991
0.999991
0.999991
0.99999
0.99999
0.99999
0.99999
0.99999
0.99999
0.99999
0.99999
0.99999
0.99999
0.99999
0.99999
0.99999
0.99999
0.99999
0.99999
0.99999
0.99999
0.99999
0.99999
0.99999
0.99999
0.99999
0.99999
0.99999
0.99999
0.99999
0.99999
0.99999
0.99999
0.99999
0.99999
0.99999
0.99999
0.99999
0.999989
0.999987
0.999982
0.999971
0.999887
0.999845
0.999848
0.999848
0.999858
0.999875
0.999866
0.99985
0.999848
0.999863
0.85417
0.0205446
0.00579856
0.00559222
0.00455984
0.00361459
0.00241075
0.00156219
0.00126278
0.00103321
0.000867279
0.000838842
0.000918052
0.00102808
0.00120311
0.00131134
0.0012726
0.00165255
0.00189558
0.00202384
0.00205993
0.00207077
0.00204843
0.00246453
0.0028443
0.00349952
0.00436078
0.00524345
0.00554331
0.00483014
0.00423771
0.00369732
0.00343207
0.00409704
0.00472307
0.00468963
0.00431525
0.999996
0.999996
0.999995
0.999993
0.999992
0.999991
0.999991
0.999991
0.999991
0.999991
0.99999
0.99999
0.99999
0.99999
0.99999
0.99999
0.99999
0.99999
0.99999
0.99999
0.99999
0.99999
0.99999
0.99999
0.99999
0.99999
0.99999
0.99999
0.99999
0.99999
0.99999
0.99999
0.99999
0.99999
0.99999
0.99999
0.99999
0.99999
0.99999
0.99999
0.99999
0.99999
0.99999
0.99999
0.99999
0.999989
0.999987
0.999981
0.999973
0.999949
0.999891
0.999862
0.999857
0.999861
0.999872
0.999886
0.999847
0.999855
0.999863
0.873429
0.00561777
0.000535961
0.000429082
0.000254041
0.000139793
4.10048e-05
1.78203e-05
1.38068e-05
1.08893e-05
8.9558e-06
8.20242e-06
8.72667e-06
9.02059e-06
9.78702e-06
9.72741e-06
9.25856e-06
9.98875e-06
9.31734e-06
7.94498e-06
7.51058e-06
8.35615e-06
8.91504e-06
1.01064e-05
1.15479e-05
1.41097e-05
1.76124e-05
2.10676e-05
2.14022e-05
1.23378e-05
7.24944e-06
3.52634e-06
1.02069e-06
1.04979e-06
9.48246e-07
3.85669e-07
3.85237e-07
0.999998
0.999996
0.999994
0.999994
0.999993
0.999991
0.999991
0.999991
0.999991
0.99999
0.99999
0.99999
0.99999
0.99999
0.99999
0.99999
0.99999
0.99999
0.99999
0.99999
0.99999
0.99999
0.99999
0.99999
0.99999
0.99999
0.99999
0.99999
0.99999
0.99999
0.99999
0.99999
0.99999
0.99999
0.99999
0.99999
0.99999
0.99999
0.99999
0.99999
0.99999
0.99999
0.99999
0.99999
0.99999
0.999989
0.999987
0.999981
0.999969
0.999957
0.99994
0.999907
0.99988
0.999881
0.999888
0.999898
0.999836
0.999841
0.999861
0.881126
0.00130516
9.57732e-06
6.99544e-06
2.84148e-06
1.52495e-06
7.8115e-07
8.40748e-07
7.77559e-07
7.3498e-07
7.2143e-07
7.52621e-07
7.26001e-07
7.26442e-07
7.36043e-07
7.65005e-07
7.68262e-07
7.53202e-07
7.1204e-07
6.84184e-07
6.83113e-07
6.84183e-07
6.83221e-07
6.84337e-07
6.83375e-07
6.84487e-07
6.8986e-07
7.38442e-07
7.95371e-07
7.62484e-07
6.45536e-07
5.72241e-07
5.71921e-07
6.01742e-07
6.43071e-07
5.79989e-07
4.63647e-07
0.999996
0.999994
0.999995
0.999995
0.999994
0.999992
0.999991
0.99999
0.999991
0.99999
0.99999
0.99999
0.99999
0.99999
0.99999
0.99999
0.99999
0.99999
0.99999
0.99999
0.99999
0.99999
0.99999
0.99999
0.99999
0.99999
0.99999
0.99999
0.99999
0.99999
0.99999
0.99999
0.99999
0.99999
0.99999
0.99999
0.99999
0.99999
0.99999
0.99999
0.99999
0.99999
0.99999
0.99999
0.99999
0.999989
0.999987
0.999981
0.999969
0.999952
0.999939
0.999934
0.999919
0.99991
0.999907
0.999904
0.999822
0.999814
0.999813
0.904896
0.00322002
9.43954e-07
7.0091e-07
8.78482e-07
8.88492e-07
7.81593e-07
7.56256e-07
7.27868e-07
7.14495e-07
7.14496e-07
7.17968e-07
7.27032e-07
7.35332e-07
7.34247e-07
7.27581e-07
7.24789e-07
7.21897e-07
7.23589e-07
7.35482e-07
7.48823e-07
7.46527e-07
7.40245e-07
7.37444e-07
7.34082e-07
7.25743e-07
7.24391e-07
7.29984e-07
7.39729e-07
7.21671e-07
5.95514e-07
4.78455e-07
5.38832e-07
6.25053e-07
6.48246e-07
5.58233e-07
4.30013e-07
0.999997
0.999996
0.999996
0.999996
0.999996
0.999992
0.999991
0.99999
0.999991
0.99999
0.99999
0.99999
0.99999
0.99999
0.99999
0.99999
0.99999
0.99999
0.99999
0.99999
0.99999
0.99999
0.99999
0.99999
0.99999
0.99999
0.99999
0.99999
0.99999
0.99999
0.99999
0.99999
0.99999
0.99999
0.99999
0.99999
0.99999
0.99999
0.99999
0.99999
0.99999
0.99999
0.99999
0.99999
0.99999
0.99999
0.999988
0.999982
0.99997
0.999953
0.999935
0.999925
0.999925
0.999918
0.999912
0.999902
0.999811
0.999809
0.999812
0.921282
0.00673028
3.3542e-06
6.9479e-07
6.98498e-07
7.28196e-07
7.5908e-07
7.54374e-07
7.54258e-07
7.48249e-07
7.34719e-07
7.34916e-07
7.33684e-07
7.32408e-07
7.30605e-07
7.24417e-07
7.21897e-07
7.21875e-07
7.21897e-07
7.2408e-07
7.27801e-07
7.28151e-07
7.27616e-07
7.24474e-07
7.20129e-07
7.17654e-07
7.18995e-07
7.26795e-07
7.38411e-07
7.26097e-07
6.01637e-07
4.30558e-07
5.01854e-07
6.29526e-07
6.48912e-07
5.5269e-07
3.82523e-07
0.999997
0.999997
0.999997
0.999997
0.999997
0.999994
0.999991
0.99999
0.99999
0.99999
0.99999
0.99999
0.99999
0.99999
0.99999
0.99999
0.99999
0.99999
0.99999
0.99999
0.99999
0.99999
0.99999
0.99999
0.99999
0.99999
0.99999
0.99999
0.99999
0.99999
0.99999
0.99999
0.99999
0.99999
0.99999
0.99999
0.99999
0.99999
0.99999
0.99999
0.99999
0.99999
0.99999
0.99999
0.99999
0.99999
0.999988
0.999983
0.999972
0.999954
0.999937
0.999925
0.99992
0.999914
0.999913
0.999898
0.999804
0.999801
0.999812
0.927117
0.0146666
4.5379e-06
6.9479e-07
6.9867e-07
6.98694e-07
7.03133e-07
7.03778e-07
7.11681e-07
7.24086e-07
7.33036e-07
7.419e-07
7.43958e-07
7.42931e-07
7.38901e-07
7.32375e-07
7.31675e-07
7.34249e-07
7.33766e-07
7.32942e-07
7.3043e-07
7.26325e-07
7.22908e-07
7.19706e-07
7.17376e-07
7.1692e-07
7.18108e-07
7.25538e-07
7.35469e-07
7.17745e-07
5.86253e-07
3.96076e-07
4.34623e-07
5.63883e-07
6.20231e-07
5.57695e-07
3.40963e-07
0.999998
0.999997
0.999998
0.999998
0.999998
0.999996
0.999992
0.99999
0.99999
0.99999
0.99999
0.99999
0.99999
0.99999
0.99999
0.99999
0.99999
0.99999
0.99999
0.99999
0.99999
0.99999
0.99999
0.99999
0.99999
0.99999
0.99999
0.99999
0.99999
0.99999
0.99999
0.99999
0.99999
0.99999
0.99999
0.99999
0.99999
0.99999
0.99999
0.99999
0.99999
0.99999
0.99999
0.99999
0.99999
0.99999
0.999988
0.999983
0.999973
0.999957
0.999944
0.999937
0.999929
0.999921
0.999917
0.999905
0.999854
0.99979
0.999757
0.917343
0.0123438
6.96813e-06
6.9479e-07
7.07808e-07
7.0065e-07
6.99058e-07
6.99871e-07
7.0142e-07
7.04518e-07
7.07303e-07
7.11425e-07
7.1589e-07
7.19849e-07
7.23566e-07
7.22479e-07
7.2196e-07
7.21786e-07
7.20744e-07
7.1861e-07
7.18194e-07
7.18952e-07
7.19708e-07
7.18998e-07
7.15814e-07
7.15452e-07
7.18506e-07
7.28778e-07
7.34647e-07
6.96277e-07
5.36817e-07
3.74228e-07
3.97481e-07
4.93351e-07
5.73327e-07
5.3357e-07
3.53835e-07
0.999999
0.999998
0.999998
0.999998
0.999998
0.999997
0.999993
0.999991
0.99999
0.99999
0.99999
0.99999
0.99999
0.99999
0.99999
0.99999
0.99999
0.99999
0.99999
0.99999
0.99999
0.99999
0.99999
0.99999
0.99999
0.99999
0.99999
0.99999
0.99999
0.99999
0.99999
0.99999
0.99999
0.99999
0.99999
0.99999
0.99999
0.99999
0.99999
0.99999
0.99999
0.99999
0.99999
0.99999
0.99999
0.99999
0.999988
0.999984
0.999973
0.999952
0.999945
0.999944
0.999939
0.999932
0.999926
0.999914
0.999902
0.99989
0.999592
0.936905
0.0195386
3.0147e-05
6.94791e-07
7.07649e-07
7.0547e-07
7.02525e-07
7.03293e-07
7.04975e-07
7.07192e-07
7.08688e-07
7.10463e-07
7.11736e-07
7.12792e-07
7.14562e-07
7.16692e-07
7.19481e-07
7.23153e-07