/*--------------------------------*- C++ -*----------------------------------*\
| =========                 |                                                 |
| \\      /  F ield         | OpenFOAM: The Open Source CFD Toolbox           |
|  \\    /   O peration     | Version:  2.3.0                                 |
|   \\  /    A nd           | Web:      www.OpenFOAM.org                      |
|    \\/     M anipulation  |                                                 |
\*---------------------------------------------------------------------------*/
FoamFile
{
    version     2.0;
    format      ascii;
    class       volScalarField;
    location    "16";
    object      dsauterMean;
}
// * * * * * * * * * * * * * * * * * * * * * * * * * * * * * * * * * * * * * //

dimensions      [0 0 0 0 0 0 0];

internalField   nonuniform List<scalar> 
6144
(
0.00833335
0.00833335
0.00833335
0.00833335
0.00833335
0.00833335
0.00833335
0.00833335
0.00833335
0.00833335
0.00833335
0.00833335
0.00833335
0.00833335
0.00833335
0.00833335
0.00833335
0.00833335
0.00833335
0.00833335
0.00833335
0.00833335
0.00833335
0.00833335
0.00833335
0.00833335
0.00833335
0.00833335
0.00833335
0.00833335
0.00833335
0.00833335
0.00833335
0.00833335
0.00833335
0.00833335
0.00833335
0.00833335
0.00833335
0.00833335
0.00833335
0.00833335
0.00833335
0.00833335
0.00833335
0.00833335
0.00833335
0.00833335
0.00833335
0.00833335
0.00833335
0.00833335
0.00833335
0.00833335
0.00833335
0.00833335
0.00833335
0.00833326
0.00832368
0.00834587
0.00833481
0.00833314
0.00265733
0.000511831
0.000498798
0.000488513
0.000478219
0.000462786
0.000452488
0.000439639
0.000429337
0.000416469
0.00040618
0.000395886
0.000385598
0.000372727
0.000362442
0.000352142
0.000341854
0.000331698
0.000320517
0.000312674
0.000298782
0.000293747
0.000281979
0.000274957
0.000264543
0.000257199
0.000249073
0.000244083
0.000238937
0.000233792
0.000231222
0.000228645
0.000231201
0.000228689
0.00833335
0.00833335
0.00833335
0.00833335
0.00833335
0.00833335
0.00833335
0.00833335
0.00833335
0.00833335
0.00833335
0.00833335
0.00833335
0.00833335
0.00833335
0.00833335
0.00833335
0.00833335
0.00833335
0.00833335
0.00833335
0.00833335
0.00833335
0.00833335
0.00833335
0.00833335
0.00833335
0.00833335
0.00833335
0.00833335
0.00833335
0.00833335
0.00833335
0.00833335
0.00833335
0.00833335
0.00833335
0.00833335
0.00833335
0.00833335
0.00833335
0.00833335
0.00833335
0.00833335
0.00833335
0.00833335
0.00833335
0.00833335
0.00833335
0.00833335
0.00833335
0.00833335
0.00833335
0.00833335
0.00833335
0.00833335
0.00833335
0.00833314
0.00832483
0.00834347
0.00839854
0.00832912
0.000648032
0.000514254
0.000501196
0.000490614
0.000478156
0.000465355
0.000455121
0.000442869
0.000432103
0.000418685
0.000408675
0.000395835
0.000383831
0.000372407
0.00036285
0.000353379
0.000340751
0.000331452
0.000321911
0.00031078
0.00030143
0.000293
0.000282718
0.000275154
0.00026724
0.000259521
0.000251807
0.000244083
0.000238939
0.000236365
0.000230587
0.000231461
0.000231243
0.000231269
0.00833335
0.00833335
0.00833335
0.00833335
0.00833335
0.00833335
0.00833335
0.00833335
0.00833335
0.00833335
0.00833335
0.00833335
0.00833335
0.00833335
0.00833335
0.00833335
0.00833335
0.00833335
0.00833335
0.00833335
0.00833335
0.00833335
0.00833335
0.00833335
0.00833335
0.00833335
0.00833335
0.00833335
0.00833335
0.00833335
0.00833335
0.00833335
0.00833335
0.00833335
0.00833335
0.00833335
0.00833335
0.00833335
0.00833335
0.00833335
0.00833335
0.00833335
0.00833335
0.00833335
0.00833335
0.00833335
0.00833335
0.00833335
0.00833335
0.00833335
0.00833335
0.00833335
0.00833335
0.00833335
0.00833335
0.00833335
0.00833335
0.00833335
0.00833369
0.00835864
0.00771233
0.00556216
0.000722642
0.000515117
0.000498427
0.000488514
0.000475352
0.000463254
0.000452496
0.000435551
0.000428536
0.00041394
0.00040648
0.000393962
0.000387467
0.00037331
0.000362642
0.000352792
0.000340177
0.000332767
0.000322159
0.000310979
0.000303262
0.000292959
0.000282503
0.000274965
0.00026724
0.000259523
0.000251804
0.000244083
0.000239255
0.000236109
0.000231265
0.000230004
0.000234468
0.00023145
0.00833335
0.00833335
0.00833335
0.00833335
0.00833335
0.00833335
0.00833335
0.00833335
0.00833335
0.00833335
0.00833335
0.00833335
0.00833335
0.00833335
0.00833335
0.00833335
0.00833335
0.00833335
0.00833335
0.00833335
0.00833335
0.00833335
0.00833335
0.00833335
0.00833335
0.00833335
0.00833335
0.00833335
0.00833335
0.00833335
0.00833335
0.00833335
0.00833335
0.00833335
0.00833335
0.00833335
0.00833335
0.00833335
0.00833335
0.00833335
0.00833335
0.00833335
0.00833335
0.00833335
0.00833335
0.00833335
0.00833335
0.00833335
0.00833335
0.00833335
0.00833335
0.00833335
0.00833335
0.00833335
0.00833335
0.00833335
0.00833335
0.00833335
0.00832943
0.00833744
0.00835206
0.00250844
0.0012218
0.000789616
0.000776661
0.000604866
0.000608822
0.000578566
0.000567769
0.000543347
0.000529682
0.000521942
0.00049623
0.000457639
0.000413896
0.000380454
0.000362435
0.000352126
0.000340645
0.000331914
0.000321302
0.000309741
0.000301408
0.000293653
0.000282107
0.000274947
0.000267242
0.00025991
0.000250713
0.000244083
0.00023895
0.000235492
0.000232218
0.000231212
0.000231218
0.000233792
0.00833335
0.00833335
0.00833335
0.00833335
0.00833335
0.00833335
0.00833335
0.00833335
0.00833335
0.00833335
0.00833335
0.00833335
0.00833335
0.00833335
0.00833335
0.00833335
0.00833335
0.00833335
0.00833335
0.00833335
0.00833335
0.00833335
0.00833335
0.00833335
0.00833335
0.00833335
0.00833335
0.00833335
0.00833335
0.00833335
0.00833335
0.00833335
0.00833335
0.00833335
0.00833335
0.00833335
0.00833335
0.00833335
0.00833335
0.00833335
0.00833335
0.00833335
0.00833335
0.00833335
0.00833335
0.00833335
0.00833335
0.00833335
0.00833335
0.00833335
0.00833335
0.00833335
0.00833335
0.00833335
0.00833335
0.00833335
0.00833335
0.00833335
0.00833329
0.00835123
0.00735407
0.0083249
0.00825491
0.00826372
0.00797675
0.00585029
0.00607504
0.00583271
0.00586204
0.00583403
0.00590145
0.00588802
0.00577505
0.00566527
0.00555169
0.00534695
0.00494172
0.00417932
0.00339224
0.00260514
0.00181157
0.00116739
0.000696353
0.000413895
0.00028525
0.000273092
0.000265404
0.000257617
0.000249452
0.000243722
0.000238937
0.000233792
0.000228637
0.000228633
0.000231232
0.000231219
0.00833335
0.00833335
0.00833335
0.00833335
0.00833335
0.00833335
0.00833335
0.00833335
0.00833335
0.00833335
0.00833335
0.00833335
0.00833335
0.00833335
0.00833335
0.00833335
0.00833335
0.00833335
0.00833335
0.00833335
0.00833335
0.00833335
0.00833335
0.00833335
0.00833335
0.00833335
0.00833335
0.00833335
0.00833335
0.00833335
0.00833335
0.00833335
0.00833335
0.00833335
0.00833335
0.00833335
0.00833335
0.00833335
0.00833335
0.00833335
0.00833335
0.00833335
0.00833335
0.00833335
0.00833335
0.00833335
0.00833335
0.00833335
0.00833335
0.00833335
0.00833335
0.00833335
0.00833335
0.00833335
0.00833335
0.00833335
0.00833335
0.00833335
0.00833335
0.00834485
0.00725949
0.00765054
0.00793019
0.00832635
0.00814611
0.00823097
0.00833623
0.00816079
0.00823107
0.00795125
0.00835972
0.00800166
0.00823346
0.00825209
0.00831642
0.00810807
0.00822655
0.00819482
0.00792544
0.00806612
0.00779266
0.00754213
0.00740995
0.00728647
0.00702994
0.00565461
0.00511517
0.00397331
0.00245762
0.000992453
0.000241978
0.000233118
0.000231332
0.000226355
0.000225999
0.000231422
0.00833335
0.00833335
0.00833335
0.00833335
0.00833335
0.00833335
0.00833335
0.00833335
0.00833335
0.00833335
0.00833335
0.00833335
0.00833335
0.00833335
0.00833335
0.00833335
0.00833335
0.00833335
0.00833335
0.00833335
0.00833335
0.00833335
0.00833335
0.00833335
0.00833335
0.00833335
0.00833335
0.00833335
0.00833335
0.00833335
0.00833335
0.00833335
0.00833335
0.00833335
0.00833335
0.00833335
0.00833335
0.00833335
0.00833335
0.00833335
0.00833335
0.00833335
0.00833335
0.00833335
0.00833335
0.00833335
0.00833335
0.00833335
0.00833335
0.00833335
0.00833335
0.00833335
0.00833335
0.00833335
0.00833335
0.00833335
0.00833335
0.00833333
0.00833357
0.00833332
0.00833023
0.00922456
0.00597174
0.00833377
0.00814653
0.00788016
0.00826098
0.00715237
0.00793674
0.00767365
0.00801532
0.00775605
0.00817711
0.00780451
0.00813587
0.00788987
0.00878903
0.00706437
0.00821813
0.00839367
0.00783392
0.00842963
0.00827609
0.00827163
0.00823519
0.00783251
0.00801837
0.00832407
0.0081645
0.0079623
0.00811248
0.00823308
0.00738034
0.00502801
0.00364098
0.00499668
0.00833335
0.00833335
0.00833335
0.00833335
0.00833335
0.00833335
0.00833335
0.00833335
0.00833335
0.00833335
0.00833335
0.00833335
0.00833335
0.00833335
0.00833335
0.00833335
0.00833335
0.00833335
0.00833335
0.00833335
0.00833335
0.00833335
0.00833335
0.00833335
0.00833335
0.00833335
0.00833335
0.00833335
0.00833335
0.00833335
0.00833335
0.00833335
0.00833335
0.00833335
0.00833335
0.00833335
0.00833335
0.00833335
0.00833335
0.00833335
0.00833335
0.00833335
0.00833335
0.00833335
0.00833335
0.00833335
0.00833335
0.00833335
0.00833335
0.00833335
0.00833335
0.00833335
0.00833335
0.00833335
0.00833335
0.00833335
0.00833335
0.00833338
0.00833313
0.00833352
0.00831209
0.00839909
0.00833194
0.00830004
0.0083357
0.00821138
0.00801296
0.00884068
0.00813061
0.00839481
0.008191
0.00832039
0.0083265
0.00833267
0.00839565
0.00841137
0.0080556
0.00829054
0.00833066
0.00830825
0.00831795
0.00830908
0.00828728
0.0082694
0.00828906
0.00821494
0.00827137
0.00810916
0.00804103
0.00810208
0.00770226
0.00718595
0.00743875
0.00662635
0.00717767
0.00810004
0.00833335
0.00833335
0.00833335
0.00833335
0.00833335
0.00833335
0.00833335
0.00833335
0.00833335
0.00833335
0.00833335
0.00833335
0.00833335
0.00833335
0.00833335
0.00833335
0.00833335
0.00833335
0.00833335
0.00833335
0.00833335
0.00833335
0.00833335
0.00833335
0.00833335
0.00833335
0.00833335
0.00833335
0.00833335
0.00833335
0.00833335
0.00833335
0.00833335
0.00833335
0.00833335
0.00833335
0.00833335
0.00833335
0.00833335
0.00833335
0.00833335
0.00833335
0.00833335
0.00833335
0.00833335
0.00833335
0.00833335
0.00833335
0.00833335
0.00833335
0.00833335
0.00833335
0.00833335
0.00833335
0.00833335
0.00833335
0.00833336
0.00833331
0.00833384
0.00833539
0.00803509
0.00778349
0.00769753
0.00778209
0.00821518
0.00720428
0.00768796
0.00810451
0.0080792
0.00796421
0.007782
0.00837389
0.00768957
0.00853831
0.00772778
0.00828869
0.00831899
0.00833026
0.00816535
0.00803472
0.00833263
0.00795539
0.00803939
0.00825315
0.00811824
0.00839857
0.00816249
0.00840266
0.00802821
0.00833302
0.00818072
0.00810195
0.00825476
0.00829082
0.00686246
0.00594707
0.00833335
0.00833335
0.00833335
0.00833335
0.00833335
0.00833335
0.00833335
0.00833335
0.00833335
0.00833335
0.00833335
0.00833335
0.00833335
0.00833335
0.00833335
0.00833335
0.00833335
0.00833335
0.00833335
0.00833335
0.00833335
0.00833335
0.00833335
0.00833335
0.00833335
0.00833335
0.00833335
0.00833335
0.00833335
0.00833335
0.00833335
0.00833335
0.00833335
0.00833335
0.00833335
0.00833335
0.00833335
0.00833335
0.00833335
0.00833335
0.00833335
0.00833335
0.00833335
0.00833335
0.00833335
0.00833335
0.00833335
0.00833335
0.00833335
0.00833335
0.00833335
0.00833335
0.00833335
0.00833335
0.00833335
0.00833335
0.00833335
0.00833336
0.00833315
0.00833484
0.00829864
0.00823597
0.00755042
0.00820831
0.00819589
0.00724966
0.00693957
0.00672117
0.0064462
0.00631899
0.00609966
0.00598937
0.00550205
0.00543088
0.0050189
0.00447492
0.00410263
0.00381264
0.00356612
0.00327508
0.00294725
0.00261987
0.0024133
0.00239187
0.00241287
0.00266899
0.00271273
0.00261807
0.00270891
0.00268734
0.00254498
0.00231683
0.00238421
0.00241562
0.00239555
0.00190598
0.00833335
0.00833335
0.00833335
0.00833335
0.00833335
0.00833335
0.00833335
0.00833335
0.00833335
0.00833335
0.00833335
0.00833335
0.00833335
0.00833335
0.00833335
0.00833335
0.00833335
0.00833335
0.00833335
0.00833335
0.00833335
0.00833335
0.00833335
0.00833335
0.00833335
0.00833335
0.00833335
0.00833335
0.00833335
0.00833335
0.00833335
0.00833335
0.00833335
0.00833335
0.00833335
0.00833335
0.00833335
0.00833335
0.00833335
0.00833335
0.00833335
0.00833335
0.00833335
0.00833335
0.00833335
0.00833335
0.00833335
0.00833335
0.00833335
0.00833335
0.00833335
0.00833335
0.00833335
0.00833335
0.00833335
0.00833335
0.00833335
0.00833389
0.00831325
0.00833626
0.00833525
0.00765756
0.00655125
0.00487616
0.00487593
0.00406393
0.00415146
0.00374248
0.00307216
0.00269997
0.00236291
0.00214818
0.00191942
0.00177582
0.00166948
0.00159055
0.00148954
0.00141169
0.00131318
0.00121805
0.0011001
0.00101202
0.000924385
0.000849594
0.000767105
0.000728138
0.000694303
0.000637048
0.00055701
0.000469656
0.000449764
0.000344909
0.000237121
0.000228818
0.000230045
0.000231219
0.00833335
0.00833335
0.00833335
0.00833335
0.00833335
0.00833335
0.00833335
0.00833335
0.00833335
0.00833335
0.00833335
0.00833335
0.00833335
0.00833335
0.00833335
0.00833335
0.00833335
0.00833335
0.00833335
0.00833335
0.00833335
0.00833335
0.00833335
0.00833335
0.00833335
0.00833335
0.00833335
0.00833335
0.00833335
0.00833335
0.00833335
0.00833335
0.00833335
0.00833335
0.00833335
0.00833335
0.00833335
0.00833335
0.00833335
0.00833335
0.00833335
0.00833335
0.00833335
0.00833335
0.00833335
0.00833335
0.00833335
0.00833335
0.00833335
0.00833335
0.00833335
0.00833335
0.00833335
0.00833335
0.00833335
0.00833335
0.00833335
0.00833334
0.00833392
0.00835007
0.00833128
0.00166947
0.00125736
0.000722981
0.000701214
0.000653464
0.000611423
0.000563396
0.000525503
0.000480298
0.000449917
0.000421403
0.000411074
0.000398466
0.000385594
0.000375302
0.000364999
0.00035215
0.000341847
0.000331483
0.000321258
0.000309824
0.000304466
0.00029296
0.000282677
0.000274959
0.000267248
0.000256955
0.000251802
0.000244802
0.000238091
0.000233792
0.000228679
0.000231203
0.000231223
0.000233792
0.00833335
0.00833335
0.00833335
0.00833335
0.00833335
0.00833335
0.00833335
0.00833335
0.00833335
0.00833335
0.00833335
0.00833335
0.00833335
0.00833335
0.00833335
0.00833335
0.00833335
0.00833335
0.00833335
0.00833335
0.00833335
0.00833335
0.00833335
0.00833335
0.00833335
0.00833335
0.00833335
0.00833335
0.00833335
0.00833335
0.00833335
0.00833335
0.00833335
0.00833335
0.00833335
0.00833335
0.00833335
0.00833335
0.00833335
0.00833335
0.00833335
0.00833335
0.00833335
0.00833335
0.00833335
0.00833335
0.00833335
0.00833335
0.00833335
0.00833335
0.00833335
0.00833335
0.00833335
0.00833335
0.00833335
0.00833335
0.00833335
0.00833335
0.00833333
0.00833997
0.00833543
0.0030459
0.00102365
0.000514223
0.00050137
0.000488511
0.000478219
0.000465342
0.000455062
0.000438518
0.000433331
0.000416469
0.000408751
0.000395886
0.000385574
0.000372762
0.000362526
0.00035024
0.000342102
0.000331562
0.000321254
0.00031094
0.00030335
0.000292025
0.000283021
0.000275712
0.000267241
0.000257957
0.000251844
0.000244127
0.000238932
0.000236365
0.000231219
0.000231219
0.000233792
0.000233792
0.00833335
0.00833335
0.00833335
0.00833335
0.00833335
0.00833335
0.00833335
0.00833335
0.00833335
0.00833335
0.00833335
0.00833335
0.00833335
0.00833335
0.00833335
0.00833335
0.00833335
0.00833335
0.00833335
0.00833335
0.00833335
0.00833335
0.00833335
0.00833335
0.00833335
0.00833335
0.00833335
0.00833335
0.00833335
0.00833335
0.00833335
0.00833335
0.00833335
0.00833335
0.00833335
0.00833335
0.00833335
0.00833335
0.00833335
0.00833335
0.00833335
0.00833335
0.00833335
0.00833335
0.00833335
0.00833335
0.00833335
0.00833335
0.00833335
0.00833335
0.00833335
0.00833335
0.00833335
0.00833335
0.00833335
0.00833335
0.00833335
0.00833335
0.00833335
0.00832842
0.00833345
0.0069524
0.000694366
0.00051424
0.000501376
0.000488446
0.000478325
0.000465332
0.000452496
0.00043962
0.000429339
0.000416469
0.000406246
0.000395886
0.000384754
0.000375136
0.000361653
0.000350789
0.000340513
0.000331562
0.000321267
0.000311297
0.0003018
0.000294919
0.000282632
0.000274892
0.000267161
0.000259519
0.000251803
0.000244047
0.000238815
0.000236068
0.000231794
0.000231219
0.000233792
0.000233792
0.00833335
0.00833335
0.00833335
0.00833335
0.00833335
0.00833335
0.00833335
0.00833335
0.00833335
0.00833335
0.00833335
0.00833335
0.00833335
0.00833335
0.00833335
0.00833335
0.00833335
0.00833335
0.00833335
0.00833335
0.00833335
0.00833335
0.00833335
0.00833335
0.00833335
0.00833335
0.00833335
0.00833335
0.00833335
0.00833335
0.00833335
0.00833335
0.00833335
0.00833335
0.00833335
0.00833335
0.00833335
0.00833335
0.00833335
0.00833335
0.00833335
0.00833335
0.00833335
0.00833335
0.00833335
0.00833335
0.00833335
0.00833335
0.00833335
0.00833335
0.00833335
0.00833335
0.00833335
0.00833335
0.00833335
0.00833335
0.00833335
0.00833335
0.00833282
0.00830191
0.00911336
0.00759143
0.000645437
0.000511642
0.000501625
0.000488281
0.000478188
0.000465356
0.000452482
0.000438642
0.000432517
0.000419042
0.000408621
0.000395887
0.000385594
0.000375302
0.000365539
0.000354742
0.000338953
0.000333348
0.000321252
0.000310201
0.000303786
0.000293016
0.000282902
0.00027152
0.00026856
0.000258426
0.000251114
0.000244295
0.000238217
0.000237203
0.000231092
0.000231219
0.000233793
0.000233792
0.00833335
0.00833335
0.00833335
0.00833335
0.00833335
0.00833335
0.00833335
0.00833335
0.00833335
0.00833335
0.00833335
0.00833335
0.00833335
0.00833335
0.00833335
0.00833335
0.00833335
0.00833335
0.00833335
0.00833335
0.00833335
0.00833335
0.00833335
0.00833335
0.00833335
0.00833335
0.00833335
0.00833335
0.00833335
0.00833335
0.00833335
0.00833335
0.00833335
0.00833335
0.00833335
0.00833335
0.00833335
0.00833335
0.00833335
0.00833335
0.00833335
0.00833335
0.00833335
0.00833335
0.00833335
0.00833335
0.00833335
0.00833335
0.00833335
0.00833335
0.00833335
0.00833335
0.00833335
0.00833335
0.00833335
0.00833335
0.00833335
0.00833334
0.00832987
0.008337
0.00833618
0.00780851
0.00497757
0.000512011
0.000501025
0.000488506
0.000478654
0.000462347
0.000452583
0.000442198
0.00042937
0.000419065
0.000410236
0.000395524
0.000386295
0.000375672
0.000362161
0.000352143
0.000341854
0.000332562
0.000320466
0.000310979
0.000303174
0.000292569
0.000282681
0.000274966
0.000266092
0.000260728
0.000251877
0.000244084
0.000238938
0.000236484
0.000231231
0.000231218
0.000233743
0.000233837
0.00833335
0.00833335
0.00833335
0.00833335
0.00833335
0.00833335
0.00833335
0.00833335
0.00833335
0.00833335
0.00833335
0.00833335
0.00833335
0.00833335
0.00833335
0.00833335
0.00833335
0.00833335
0.00833335
0.00833335
0.00833335
0.00833335
0.00833335
0.00833335
0.00833335
0.00833335
0.00833335
0.00833335
0.00833335
0.00833335
0.00833335
0.00833335
0.00833335
0.00833335
0.00833335
0.00833335
0.00833335
0.00833335
0.00833335
0.00833335
0.00833335
0.00833335
0.00833335
0.00833335
0.00833335
0.00833335
0.00833335
0.00833335
0.00833335
0.00833335
0.00833335
0.00833335
0.00833335
0.00833335
0.00833335
0.00833335
0.00833335
0.00833297
0.00833358
0.00833179
0.00833326
0.0083334
0.00723214
0.000511661
0.000498807
0.000489311
0.000474
0.00046404
0.000452306
0.000439599
0.000429097
0.000416516
0.000406182
0.000395883
0.000386388
0.000372926
0.000362438
0.000352168
0.000341852
0.000331562
0.000321002
0.000311369
0.000303261
0.000293655
0.000281422
0.000276046
0.00026724
0.000259553
0.000252276
0.000243888
0.000238706
0.000236472
0.00023122
0.000231219
0.000231219
0.000231219
0.00833335
0.00833335
0.00833335
0.00833335
0.00833335
0.00833335
0.00833335
0.00833335
0.00833335
0.00833335
0.00833335
0.00833335
0.00833335
0.00833335
0.00833335
0.00833335
0.00833335
0.00833335
0.00833335
0.00833335
0.00833335
0.00833335
0.00833335
0.00833335
0.00833335
0.00833335
0.00833335
0.00833335
0.00833335
0.00833335
0.00833335
0.00833335
0.00833335
0.00833335
0.00833335
0.00833335
0.00833335
0.00833335
0.00833335
0.00833335
0.00833335
0.00833335
0.00833335
0.00833335
0.00833335
0.00833335
0.00833335
0.00833335
0.00833335
0.00833335
0.00833335
0.00833335
0.00833335
0.00833335
0.00833335
0.00833335
0.00833335
0.00833334
0.00833345
0.00833345
0.00841921
0.00832316
0.000930421
0.000514247
0.000499967
0.000488387
0.000477038
0.000463105
0.000454882
0.000439677
0.000429688
0.000419042
0.000406178
0.000395886
0.000386772
0.000374203
0.000365011
0.000352145
0.000341809
0.000331584
0.000321271
0.00031356
0.000303262
0.000293908
0.000283848
0.000274959
0.00026724
0.00025952
0.000251803
0.000244083
0.000238937
0.000236365
0.000231741
0.000231632
0.00023405
0.000231179
0.00833335
0.00833335
0.00833335
0.00833335
0.00833335
0.00833335
0.00833335
0.00833335
0.00833335
0.00833335
0.00833335
0.00833335
0.00833335
0.00833335
0.00833335
0.00833335
0.00833335
0.00833335
0.00833335
0.00833335
0.00833335
0.00833335
0.00833335
0.00833335
0.00833335
0.00833335
0.00833335
0.00833335
0.00833335
0.00833335
0.00833335
0.00833335
0.00833335
0.00833335
0.00833335
0.00833335
0.00833335
0.00833335
0.00833335
0.00833335
0.00833335
0.00833335
0.00833335
0.00833335
0.00833335
0.00833335
0.00833335
0.00833335
0.00833335
0.00833335
0.00833335
0.00833335
0.00833335
0.00833335
0.00833335
0.00833335
0.00833335
0.00833335
0.00833783
0.00832856
0.00827129
0.00140481
0.00158997
0.000545127
0.000519202
0.000498803
0.000491081
0.000465355
0.000454335
0.000442066
0.000432788
0.000419043
0.000408751
0.000395725
0.00038739
0.000373238
0.00036501
0.000355906
0.000340805
0.000332645
0.000322588
0.000312751
0.000301788
0.00029382
0.000285557
0.000274701
0.00026724
0.000259515
0.000251999
0.000243403
0.000238764
0.000236357
0.00023088
0.00023154
0.000233791
0.000233792
0.00833335
0.00833335
0.00833335
0.00833335
0.00833335
0.00833335
0.00833335
0.00833335
0.00833335
0.00833335
0.00833335
0.00833335
0.00833335
0.00833335
0.00833335
0.00833335
0.00833335
0.00833335
0.00833335
0.00833335
0.00833335
0.00833335
0.00833335
0.00833335
0.00833335
0.00833335
0.00833335
0.00833335
0.00833335
0.00833335
0.00833335
0.00833335
0.00833335
0.00833335
0.00833335
0.00833335
0.00833335
0.00833335
0.00833335
0.00833335
0.00833335
0.00833335
0.00833335
0.00833335
0.00833335
0.00833335
0.00833335
0.00833335
0.00833335
0.00833335
0.00833335
0.00833335
0.00833335
0.00833335
0.00833335
0.00833335
0.00833335
0.00833335
0.00833333
0.00834734
0.00780238
0.0017784
0.00791404
0.00188101
0.00287611
0.00156955
0.00158924
0.00151557
0.00145573
0.001379
0.00127587
0.0011527
0.000997862
0.000899134
0.000790905
0.000622869
0.000503934
0.000449912
0.000390885
0.000357325
0.000334013
0.000315937
0.000305826
0.000293232
0.000280825
0.000275982
0.000267216
0.000261187
0.000250424
0.000243458
0.00023926
0.000234178
0.000228702
0.000231227
0.000231165
0.000233849
0.00833335
0.00833335
0.00833335
0.00833335
0.00833335
0.00833335
0.00833335
0.00833335
0.00833335
0.00833335
0.00833335
0.00833335
0.00833335
0.00833335
0.00833335
0.00833335
0.00833335
0.00833335
0.00833335
0.00833335
0.00833335
0.00833335
0.00833335
0.00833335
0.00833335
0.00833335
0.00833335
0.00833335
0.00833335
0.00833335
0.00833335
0.00833335
0.00833335
0.00833335
0.00833335
0.00833335
0.00833335
0.00833335
0.00833335
0.00833335
0.00833335
0.00833335
0.00833335
0.00833335
0.00833335
0.00833335
0.00833335
0.00833335
0.00833335
0.00833335
0.00833335
0.00833335
0.00833335
0.00833335
0.00833335
0.00833335
0.00833335
0.00833335
0.00833334
0.00834043
0.00732057
0.00774881
0.00828623
0.00819943
0.00824834
0.00828458
0.00836906
0.00829091
0.00826409
0.00799873
0.00795951
0.00788445
0.00794134
0.00797857
0.00780294
0.00761921
0.00761887
0.00749261
0.00720584
0.00631866
0.00559522
0.00455877
0.00380793
0.00290217
0.00189982
0.00120534
0.000576011
0.000326514
0.000272462
0.000252498
0.000238956
0.000236369
0.00023117
0.000228673
0.000231231
0.000231219
0.00833335
0.00833335
0.00833335
0.00833335
0.00833335
0.00833335
0.00833335
0.00833335
0.00833335
0.00833335
0.00833335
0.00833335
0.00833335
0.00833335
0.00833335
0.00833335
0.00833335
0.00833335
0.00833335
0.00833335
0.00833335
0.00833335
0.00833335
0.00833335
0.00833335
0.00833335
0.00833335
0.00833335
0.00833335
0.00833335
0.00833335
0.00833335
0.00833335
0.00833335
0.00833335
0.00833335
0.00833335
0.00833335
0.00833335
0.00833335
0.00833335
0.00833335
0.00833335
0.00833335
0.00833335
0.00833335
0.00833335
0.00833335
0.00833335
0.00833335
0.00833335
0.00833335
0.00833335
0.00833335
0.00833335
0.00833335
0.00833335
0.00833335
0.00833335
0.00832073
0.00958442
0.00830249
0.00833434
0.00886376
0.00698006
0.00831406
0.0078542
0.00853499
0.00835704
0.00822849
0.00829754
0.00778468
0.00859118
0.0083358
0.00833677
0.00922739
0.00685697
0.00918499
0.00722346
0.00857044
0.00902597
0.00833304
0.0078123
0.0084916
0.00716881
0.00818511
0.00751079
0.00744352
0.00607839
0.00516395
0.00438386
0.00233406
0.000234953
0.000225238
0.000231047
0.000231365
0.00833335
0.00833335
0.00833335
0.00833335
0.00833335
0.00833335
0.00833335
0.00833335
0.00833335
0.00833335
0.00833335
0.00833335
0.00833335
0.00833335
0.00833335
0.00833335
0.00833335
0.00833335
0.00833335
0.00833335
0.00833335
0.00833335
0.00833335
0.00833335
0.00833335
0.00833335
0.00833335
0.00833335
0.00833335
0.00833335
0.00833335
0.00833335
0.00833335
0.00833335
0.00833335
0.00833335
0.00833335
0.00833335
0.00833335
0.00833335
0.00833335
0.00833335
0.00833335
0.00833335
0.00833335
0.00833335
0.00833335
0.00833335
0.00833335
0.00833335
0.00833335
0.00833335
0.00833335
0.00833335
0.00833335
0.00833335
0.00833335
0.00833336
0.00833335
0.00828988
0.00910713
0.00827658
0.00830112
0.0083151
0.00831961
0.00832513
0.00833083
0.00828267
0.0082002
0.00853
0.00822458
0.00831692
0.00830159
0.00817211
0.00848563
0.00834142
0.00832108
0.00831634
0.00835411
0.0082612
0.00827923
0.00833445
0.00824845
0.00777899
0.0086414
0.00833024
0.00832444
0.00831186
0.00820922
0.0072375
0.00811787
0.00846688
0.00833363
0.00837219
0.00831897
0.00816746
0.00833335
0.00833335
0.00833335
0.00833335
0.00833335
0.00833335
0.00833335
0.00833335
0.00833335
0.00833335
0.00833335
0.00833335
0.00833335
0.00833335
0.00833335
0.00833335
0.00833335
0.00833335
0.00833335
0.00833335
0.00833335
0.00833335
0.00833335
0.00833335
0.00833335
0.00833335
0.00833335
0.00833335
0.00833335
0.00833335
0.00833335
0.00833335
0.00833335
0.00833335
0.00833335
0.00833335
0.00833335
0.00833335
0.00833335
0.00833335
0.00833335
0.00833335
0.00833335
0.00833335
0.00833335
0.00833335
0.00833335
0.00833335
0.00833335
0.00833335
0.00833335
0.00833335
0.00833335
0.00833335
0.00833335
0.00833335
0.00833335
0.00833303
0.00833364
0.00829644
0.0087441
0.0084198
0.00808835
0.00838336
0.00820216
0.00833658
0.00832156
0.0083012
0.00830161
0.00826356
0.00835985
0.00829999
0.00833557
0.00833354
0.00833723
0.00832999
0.00833588
0.00832946
0.00833352
0.00833558
0.00831878
0.0083091
0.0083305
0.00830792
0.00831696
0.00833191
0.00832757
0.0083246
0.00835209
0.00832701
0.00833561
0.00835098
0.00839031
0.00821471
0.00835896
0.00833333
0.00833335
0.00833335
0.00833335
0.00833335
0.00833335
0.00833335
0.00833335
0.00833335
0.00833335
0.00833335
0.00833335
0.00833335
0.00833335
0.00833335
0.00833335
0.00833335
0.00833335
0.00833335
0.00833335
0.00833335
0.00833335
0.00833335
0.00833335
0.00833335
0.00833335
0.00833335
0.00833335
0.00833335
0.00833335
0.00833335
0.00833335
0.00833335
0.00833335
0.00833335
0.00833335
0.00833335
0.00833335
0.00833335
0.00833335
0.00833335
0.00833335
0.00833335
0.00833335
0.00833335
0.00833335
0.00833335
0.00833335
0.00833335
0.00833335
0.00833335
0.00833335
0.00833335
0.00833335
0.00833335
0.00833335
0.00833335
0.00833335
0.00833334
0.00833286
0.00832949
0.00764274
0.00879302
0.00797105
0.00807019
0.00825012
0.00833213
0.00833909
0.00828986
0.00832077
0.00838217
0.00836626
0.00820066
0.00829279
0.00833047
0.00827778
0.00833423
0.00809563
0.00813045
0.00813179
0.00833129
0.00832586
0.0083291
0.00830751
0.00832173
0.00830475
0.00798199
0.00827639
0.00848978
0.00788317
0.00839186
0.00826455
0.00841557
0.00832586
0.00833334
0.00833141
0.00833385
0.00833335
0.00833335
0.00833335
0.00833335
0.00833335
0.00833335
0.00833335
0.00833335
0.00833335
0.00833335
0.00833335
0.00833335
0.00833335
0.00833335
0.00833335
0.00833335
0.00833335
0.00833335
0.00833335
0.00833335
0.00833335
0.00833335
0.00833335
0.00833335
0.00833335
0.00833335
0.00833335
0.00833335
0.00833335
0.00833335
0.00833335
0.00833335
0.00833335
0.00833335
0.00833335
0.00833335
0.00833335
0.00833335
0.00833335
0.00833335
0.00833335
0.00833335
0.00833335
0.00833335
0.00833335
0.00833335
0.00833335
0.00833335
0.00833335
0.00833335
0.00833335
0.00833335
0.00833335
0.00833335
0.00833335
0.00833335
0.00833335
0.00833335
0.00833333
0.00833065
0.00864365
0.00862402
0.0083023
0.00846024
0.00829358
0.00831751
0.00836082
0.00815231
0.00836971
0.00825336
0.00825896
0.00820549
0.0082861
0.00828598
0.00830361
0.00830367
0.00826923
0.00829721
0.00844614
0.00839562
0.00829368
0.0081477
0.0083912
0.00820839
0.00814127
0.00815013
0.00801189
0.00769079
0.00709727
0.00524592
0.00481566
0.00450851
0.00454372
0.00445774
0.00397836
0.00101407
0.00833335
0.00833335
0.00833335
0.00833335
0.00833335
0.00833335
0.00833335
0.00833335
0.00833335
0.00833335
0.00833335
0.00833335
0.00833335
0.00833335
0.00833335
0.00833335
0.00833335
0.00833335
0.00833335
0.00833335
0.00833335
0.00833335
0.00833335
0.00833335
0.00833335
0.00833335
0.00833335
0.00833335
0.00833335
0.00833335
0.00833335
0.00833335
0.00833335
0.00833335
0.00833335
0.00833335
0.00833335
0.00833335
0.00833335
0.00833335
0.00833335
0.00833335
0.00833335
0.00833335
0.00833335
0.00833335
0.00833335
0.00833335
0.00833335
0.00833335
0.00833335
0.00833335
0.00833335
0.00833335
0.00833335
0.00833335
0.00833335
0.00833335
0.00833316
0.00833316
0.00825825
0.0010459
0.00739529
0.00192721
0.00267371
0.00150096
0.00151135
0.00112672
0.0010397
0.000828263
0.000758019
0.000721087
0.000694326
0.000663563
0.000648224
0.000626749
0.000614516
0.000596504
0.000582965
0.000551594
0.000538751
0.000514612
0.000492005
0.000465334
0.000442167
0.000382136
0.000347778
0.000294144
0.000254886
0.000248178
0.000238942
0.000236512
0.000231158
0.000231232
0.000231236
0.000233792
0.00833335
0.00833335
0.00833335
0.00833335
0.00833335
0.00833335
0.00833335
0.00833335
0.00833335
0.00833335
0.00833335
0.00833335
0.00833335
0.00833335
0.00833335
0.00833335
0.00833335
0.00833335
0.00833335
0.00833335