/*--------------------------------*- C++ -*----------------------------------*\
| =========                 |                                                 |
| \\      /  F ield         | OpenFOAM: The Open Source CFD Toolbox           |
|  \\    /   O peration     | Version:  2.3.0                                 |
|   \\  /    A nd           | Web:      www.OpenFOAM.org                      |
|    \\/     M anipulation  |                                                 |
\*---------------------------------------------------------------------------*/
FoamFile
{
    version     2.0;
    format      ascii;
    class       volScalarField;
    location    "16";
    object      epsilon.water;
}
// * * * * * * * * * * * * * * * * * * * * * * * * * * * * * * * * * * * * * //

dimensions      [0 2 -3 0 0 0 0];

internalField   nonuniform List<scalar> 
6144
(
5.9219e-05
4.06444e-05
1.81716e-05
1.44384e-05
8.47733e-06
6.06878e-06
4.97823e-06
4.70293e-06
3.86294e-06
2.85786e-06
2.69597e-06
3.41375e-06
4.02684e-06
4.31179e-06
4.29262e-06
4.1809e-06
4.01519e-06
3.90961e-06
3.82481e-06
3.7805e-06
3.75011e-06
3.74639e-06
3.75294e-06
3.77261e-06
3.79849e-06
3.83063e-06
3.86512e-06
3.90292e-06
3.94143e-06
3.97894e-06
4.01908e-06
4.05148e-06
4.09977e-06
4.11769e-06
4.19222e-06
4.17117e-06
4.28846e-06
4.18817e-06
4.36459e-06
4.18076e-06
4.48469e-06
4.2825e-06
4.79861e-06
4.67593e-06
5.28223e-06
5.33676e-06
5.29169e-06
5.5319e-06
6.16302e-06
1.26385e-05
2.61277e-05
4.44229e-05
8.87622e-05
0.000155945
0.000336633
0.000863748
0.00142872
0.00351551
0.00866839
0.0160791
0.0499776
0.027092
0.017053
0.0110479
0.00799116
0.00620176
0.00504519
0.00425066
0.00367979
0.00324378
0.00289807
0.00261514
0.00237821
0.0021791
0.00200553
0.00185769
0.00172817
0.00161244
0.00151242
0.00141459
0.00132922
0.00123963
0.00115261
0.00106426
0.000962798
0.000862783
0.000724883
0.000601466
0.000373172
7.62865e-05
2.31219e-05
3.17021e-05
3.63049e-05
3.90043e-05
4.02707e-05
4.17152e-05
0.000169714
7.96756e-05
3.93768e-05
3.61477e-05
1.83378e-05
1.26503e-05
1.10277e-05
1.09751e-05
1.18175e-05
1.22273e-05
1.29166e-05
1.50667e-05
1.61429e-05
1.63604e-05
1.62129e-05
1.61233e-05
1.61054e-05
1.61134e-05
1.60681e-05
1.60583e-05
1.60779e-05
1.61419e-05
1.62355e-05
1.63569e-05
1.64895e-05
1.6637e-05
1.67877e-05
1.695e-05
1.71082e-05
1.72616e-05
1.74158e-05
1.75434e-05
1.76924e-05
1.77708e-05
1.79719e-05
1.79179e-05
1.82146e-05
1.7883e-05
1.83291e-05
1.76808e-05
1.84926e-05
1.77205e-05
1.89046e-05
1.8303e-05
1.96872e-05
2.03234e-05
2.0696e-05
2.03413e-05
1.7431e-05
2.45261e-05
4.31944e-05
8.72606e-05
0.000201902
0.000487365
0.00121031
0.00229698
0.00462387
0.00918052
0.0144585
0.0122033
0.0228985
0.00547268
0.00516004
0.00430236
0.00382471
0.00360254
0.00336659
0.00311798
0.00288909
0.00267285
0.00246714
0.00228399
0.0021246
0.00198756
0.00186573
0.00175884
0.00166145
0.00157071
0.00148456
0.00139845
0.00131347
0.00122012
0.00112649
0.00102475
0.000915049
0.000800874
0.00066046
0.000546756
0.000347806
9.44894e-05
3.33086e-05
4.47959e-05
5.99091e-05
6.62259e-05
5.44343e-05
5.34329e-05
0.000252035
0.000127875
7.99983e-05
6.0737e-05
2.2806e-05
1.76144e-05
1.28902e-05
1.23334e-05
1.56057e-05
1.75701e-05
1.92554e-05
2.21529e-05
2.31435e-05
2.28886e-05
2.27006e-05
2.29408e-05
2.34803e-05
2.40563e-05
2.45541e-05
2.49752e-05
2.5351e-05
2.56843e-05
2.59913e-05
2.62818e-05
2.65428e-05
2.67875e-05
2.7019e-05
2.72613e-05
2.74907e-05
2.77111e-05
2.79206e-05
2.8104e-05
2.82611e-05
2.83869e-05
2.85247e-05
2.85121e-05
2.86583e-05
2.83513e-05
2.85088e-05
2.77641e-05
2.81575e-05
2.70317e-05
2.78241e-05
2.67065e-05
2.82482e-05
2.97662e-05
3.21157e-05
3.55016e-05
3.55777e-05
5.10181e-05
6.91871e-05
0.000144649
0.000307212
0.000810186
0.00244185
0.00402331
0.00502682
0.00947912
0.00899477
0.00595966
0.0145201
0.00284946
0.00305444
0.00279268
0.00276959
0.00262578
0.0023926
0.00224693
0.00214269
0.00204058
0.00193972
0.00184438
0.00174823
0.00166445
0.00158849
0.00151591
0.00144282
0.0013729
0.00130507
0.00123807
0.00117504
0.00110488
0.0010275
0.000936245
0.000835865
0.000723444
0.000593476
0.000478364
0.000287729
8.10227e-05
4.62113e-05
6.7053e-05
9.29182e-05
0.000105271
8.76639e-05
7.59468e-05
0.000297089
0.00016177
0.000115511
0.000101162
4.79485e-05
3.47723e-05
1.62498e-05
1.31443e-05
1.66037e-05
1.95013e-05
2.181e-05
2.39234e-05
2.4366e-05
2.37186e-05
2.34866e-05
2.3874e-05
2.4577e-05
2.53258e-05
2.59931e-05
2.65476e-05
2.70346e-05
2.74371e-05
2.77872e-05
2.80926e-05
2.83511e-05
2.85673e-05
2.87575e-05
2.89488e-05
2.91308e-05
2.93083e-05
2.94774e-05
2.96398e-05
2.97814e-05
2.9901e-05
2.99722e-05
2.99872e-05
2.99991e-05
2.97931e-05
2.96822e-05
2.90976e-05
2.90557e-05
2.81062e-05
2.85259e-05
2.74674e-05
2.91518e-05
3.08348e-05
3.56066e-05
4.23291e-05
4.87444e-05
6.32475e-05
9.17768e-05
0.000186426
0.000379374
0.000894456
0.00438695
0.00692391
0.00854393
0.0139231
0.00505997
0.00395922
0.0111285
0.00228809
0.00192439
0.00225727
0.00228932
0.00195135
0.00173042
0.00159921
0.00150313
0.00144086
0.00138642
0.00132293
0.00125368
0.00117787
0.00110727
0.0010417
0.000978674
0.000921048
0.000869607
0.000830948
0.000803546
0.000776164
0.000749676
0.000714218
0.000652253
0.000553638
0.00042372
0.000282956
0.000136092
6.91796e-05
6.48483e-05
8.46667e-05
0.000110635
0.000124692
0.000104347
9.14413e-05
0.000311803
0.000164708
0.000128382
0.000125637
8.96211e-05
5.98754e-05
2.76044e-05
2.01747e-05
1.99917e-05
2.27748e-05
2.65844e-05
2.73037e-05
2.59895e-05
2.40694e-05
2.36419e-05
2.41335e-05
2.4972e-05
2.58458e-05
2.66328e-05
2.72806e-05
2.78033e-05
2.82174e-05
2.85587e-05
2.88286e-05
2.90428e-05
2.92131e-05
2.93517e-05
2.94763e-05
2.95974e-05
2.97148e-05
2.98257e-05
2.99379e-05
3.00197e-05
3.00938e-05
3.01076e-05
3.01019e-05
2.99952e-05
2.98061e-05
2.94693e-05
2.8938e-05
2.84989e-05
2.77027e-05
2.74441e-05
2.69748e-05
2.77797e-05
3.14212e-05
3.69979e-05
4.68252e-05
5.61919e-05
6.82422e-05
9.87753e-05
0.00021938
0.000531851
0.00162357
0.00737651
0.0112454
0.0126368
0.012446
0.00370966
0.00336534
0.00724365
0.00211546
0.0018396
0.00175339
0.00158877
0.00131211
0.00126457
0.00120678
0.00117051
0.00112095
0.00107735
0.00103363
0.000995073
0.000959485
0.00091161
0.000853215
0.000772
0.000680009
0.000589591
0.000508558
0.000444907
0.000398232
0.000362151
0.000328961
0.00029134
0.000242464
0.000193253
0.000145415
0.000108615
9.26072e-05
0.000106682
0.000115567
0.000125945
0.000131355
0.000109786
0.0001031
0.000297829
0.000146122
0.000119615
0.000128838
0.000113176
8.13125e-05
4.73606e-05
2.91061e-05
2.49523e-05
2.67269e-05
3.24051e-05
3.05386e-05
2.73302e-05
2.40882e-05
2.33025e-05
2.37933e-05
2.477e-05
2.57635e-05
2.65777e-05
2.71884e-05
2.76384e-05
2.79634e-05
2.81995e-05
2.83625e-05
2.84589e-05
2.84993e-05
2.85163e-05
2.8516e-05
2.85131e-05
2.85134e-05
2.85141e-05
2.85221e-05
2.85071e-05
2.84946e-05
2.84178e-05
2.83447e-05
2.81745e-05
2.79451e-05
2.76025e-05
2.70359e-05
2.65994e-05
2.58189e-05
2.53684e-05
2.52623e-05
2.55935e-05
3.06607e-05
3.68072e-05
5.0045e-05
6.51338e-05
7.3616e-05
9.3873e-05
0.000176576
0.00036658
0.00122367
0.00583315
0.0100819
0.0120427
0.0118952
0.00440381
0.00419891
0.005415
0.00235167
0.00217849
0.00198477
0.00182847
0.00169305
0.00165021
0.00158137
0.00155153
0.00150276
0.00147609
0.00143621
0.00138987
0.00133228
0.00125593
0.00115431
0.00102754
0.000887869
0.000743665
0.00060775
0.00048661
0.000395434
0.000335596
0.000292762
0.000259618
0.000231751
0.000205996
0.000193311
0.000194941
0.000215161
0.000218557
0.000188166
0.000150705
0.000127013
0.000108984
0.000107044
0.000276956
0.000140267
9.17474e-05
0.000104264
0.00011531
8.73725e-05
6.648e-05
4.01041e-05
3.23534e-05
3.47406e-05
4.00609e-05
3.51493e-05
2.87508e-05
2.26376e-05
2.04552e-05
2.0499e-05
2.15423e-05
2.27749e-05
2.3834e-05
2.45809e-05
2.5084e-05
2.53998e-05
2.55841e-05
2.56728e-05
2.57003e-05
2.56857e-05
2.56403e-05
2.55675e-05
2.54842e-05
2.54032e-05
2.53292e-05
2.52745e-05
2.52042e-05
2.51507e-05
2.50097e-05
2.49281e-05
2.45811e-05
2.44301e-05
2.36733e-05
2.32959e-05
2.20754e-05
2.18085e-05
2.02038e-05
2.13783e-05
2.05805e-05
2.8576e-05
3.50472e-05
5.02074e-05
6.91208e-05
7.5699e-05
8.84981e-05
0.000145863
0.000263117
0.000765725
0.00281844
0.00637423
0.0101285
0.0106823
0.00509469
0.00496142
0.00452994
0.00278028
0.00271402
0.0025857
0.00238371
0.00224311
0.00218056
0.00210925
0.00208209
0.00204576
0.00201355
0.00196349
0.00190595
0.00185744
0.00179146
0.00170329
0.00160801
0.00150479
0.00137874
0.00123952
0.00108965
0.000942056
0.000793976
0.000669757
0.00058634
0.000532834
0.000487958
0.000460448
0.00041727
0.00036567
0.000295539
0.000220286
0.000163119
0.000125855
0.000110167
0.000112772
0.000276214
0.00020983
7.7557e-05
6.71953e-05
7.46429e-05
6.96454e-05
7.15654e-05
4.71394e-05
3.84484e-05
3.64871e-05
4.16978e-05
3.50592e-05
2.80675e-05
2.10173e-05
1.84346e-05
1.80557e-05
1.89073e-05
2.00641e-05
2.1132e-05
2.19684e-05
2.26005e-05
2.3049e-05
2.33641e-05
2.35789e-05
2.37207e-05
2.38023e-05
2.38344e-05
2.38375e-05
2.38177e-05
2.37929e-05
2.37724e-05
2.37615e-05
2.372e-05
2.3665e-05
2.3507e-05
2.33803e-05
2.29779e-05
2.28009e-05
2.19269e-05
2.16128e-05
2.02952e-05
2.02336e-05
1.86972e-05
1.98459e-05
1.94671e-05
2.63848e-05
3.38524e-05
4.6346e-05
6.51935e-05
6.58118e-05
8.71374e-05
0.000163155
0.000318739
0.00088508
0.00239379
0.00463954
0.0109777
0.0132213
0.00549539
0.00534442
0.00419914
0.00315746
0.0032146
0.00312776
0.00278601
0.00265423
0.00250791
0.0024444
0.00234076
0.00227354
0.00217792
0.00210355
0.00202871
0.00197766
0.00191274
0.00185959
0.00179653
0.001743
0.00166108
0.00157141
0.00146243
0.00133988
0.00119727
0.00104936
0.000897827
0.000759257
0.000639346
0.000541063
0.000455696
0.000383985
0.000328695
0.000281754
0.000238116
0.000204178
0.000179043
0.000271859
0.000278411
0.000309821
6.92167e-05
5.01796e-05
5.58248e-05
5.30015e-05
5.675e-05
3.78986e-05
3.07236e-05
2.84828e-05
3.24818e-05
2.66091e-05
2.02607e-05
1.39657e-05
1.13624e-05
1.08766e-05
1.14316e-05
1.22671e-05
1.30962e-05
1.3809e-05
1.43773e-05
1.48025e-05
1.51164e-05
1.5342e-05
1.55005e-05
1.56106e-05
1.57021e-05
1.57984e-05
1.5886e-05
1.59696e-05
1.60561e-05
1.6141e-05
1.62041e-05
1.62459e-05
1.62226e-05
1.61954e-05
1.59442e-05
1.58793e-05
1.51684e-05
1.50649e-05
1.40041e-05
1.42449e-05
1.3218e-05
1.44042e-05
1.48828e-05
2.01025e-05
2.78101e-05
3.54868e-05
4.97215e-05
4.73427e-05
6.86866e-05
0.000135409
0.000315379
0.00084281
0.00181414
0.00334127
0.00796918
0.0174813
0.00502498
0.00471427
0.00462236
0.00277817
0.00261552
0.00232285
0.00192282
0.00165131
0.00145811
0.00131245
0.0011857
0.00110692
0.00103846
0.000987993
0.00094119
0.000913435
0.000896753
0.000895012
0.000906383
0.000923345
0.000933107
0.00093982
0.000943193
0.000931199
0.000886928
0.000823139
0.000739544
0.000637239
0.000534193
0.000437792
0.000359643
0.000299384
0.00025593
0.00022961
0.000207969
0.000189857
0.000170166
0.000234881
0.00031126
0.000360194
6.46279e-05
3.70246e-05
3.84448e-05
3.35536e-05
3.54972e-05
2.37038e-05
1.95924e-05
1.83685e-05
1.84352e-05
1.53934e-05
1.16699e-05
7.85335e-06
6.224e-06
5.87825e-06
6.1509e-06
6.58253e-06
7.03025e-06
7.41055e-06
7.72348e-06
7.96477e-06
8.15431e-06
8.30122e-06
8.41642e-06
8.50748e-06
8.58316e-06
8.65291e-06
8.72513e-06
8.80173e-06
8.88359e-06
8.9685e-06
9.04863e-06
9.11606e-06
9.16096e-06
9.18494e-06
9.14073e-06
9.11409e-06
8.81751e-06
8.70405e-06
8.3937e-06
8.44456e-06
8.32458e-06
8.88851e-06
1.00483e-05
1.27991e-05
1.84765e-05
2.1909e-05
2.92329e-05
2.99673e-05
4.88555e-05
9.8654e-05
0.00026216
0.00068596
0.00165473
0.00486102
0.00940457
0.0178725
0.00484875
0.00431983
0.00487253
0.00189172
0.00156976
0.00123164
0.000873112
0.000675034
0.000598751
0.000528502
0.000498498
0.000472117
0.000446984
0.000425564
0.000405914
0.00038757
0.000373392
0.000360994
0.000351127
0.000342861
0.000335742
0.000333802
0.000336446
0.000338221
0.000337029
0.000329889
0.000308039
0.000274178
0.00023412
0.000193903
0.000166835
0.000154017
0.000148085
0.000145139
0.00014263
0.000136348
0.000116817
0.000146032
0.000422298
0.000548326
6.80578e-05
2.92498e-05
2.38266e-05
1.92116e-05
1.96511e-05
1.4541e-05
1.38304e-05
1.37291e-05
1.22371e-05
9.66609e-06
6.93993e-06
4.68082e-06
3.6601e-06
3.39374e-06
3.46082e-06
3.60746e-06
3.78131e-06
3.93214e-06
4.06306e-06
4.17015e-06
4.26074e-06
4.33702e-06
4.40263e-06
4.45996e-06
4.51213e-06
4.56268e-06
4.61526e-06
4.67281e-06
4.73868e-06
4.8126e-06
4.89081e-06
4.97097e-06
5.05204e-06
5.1258e-06
5.18284e-06
5.22204e-06
5.20036e-06
5.21169e-06
5.24997e-06
5.29637e-06
5.54061e-06
5.76364e-06
6.92447e-06
8.02164e-06
1.15794e-05
1.30291e-05
1.75187e-05
1.98543e-05
3.61062e-05
8.43995e-05
0.000252087
0.000692756
0.00260206
0.00734538
0.014391
0.0163089
0.00434855
0.00356654
0.00672578
0.00151432
0.00106138
0.000872285
0.000619338
0.000423395
0.000411078
0.000414414
0.000422623
0.000417643
0.000402194
0.000383673
0.000364207
0.000341358
0.000320402
0.000301918
0.00028396
0.000264746
0.000245885
0.000228641
0.000214629
0.000205358
0.000199066
0.000193169
0.000182399
0.00016714
0.000148562
0.000120933
8.62311e-05
7.00781e-05
6.5401e-05
6.42237e-05
6.64393e-05
6.76685e-05
5.62433e-05
6.55553e-05
0.000481253
0.000729543
9.94462e-05
2.75781e-05
1.70498e-05
1.1901e-05
1.18689e-05
1.08901e-05
1.20645e-05
1.38928e-05
1.10443e-05
8.7461e-06
5.11283e-06
3.30785e-06
2.71227e-06
2.51331e-06
2.48117e-06
2.50218e-06
2.55786e-06
2.61323e-06
2.67553e-06
2.73267e-06
2.79146e-06
2.84977e-06
2.90867e-06
2.96455e-06
3.0152e-06
3.0643e-06
3.11635e-06
3.17106e-06
3.2261e-06
3.27954e-06
3.33582e-06
3.40218e-06
3.47416e-06
3.54156e-06
3.58098e-06
3.62578e-06
3.60416e-06
3.64962e-06
3.63825e-06
3.77776e-06
3.90064e-06
4.18962e-06
4.93345e-06
5.73151e-06
8.30985e-06
9.3775e-06
1.30848e-05
1.46246e-05
2.65898e-05
7.57169e-05
0.000239046
0.000607402
0.00196403
0.00491479
0.0100381
0.0156174
0.00601984
0.00381703
0.0090318
0.00143751
0.00101124
0.00103573
0.000976825
0.000851465
0.000847161
0.000855616
0.000858582
0.000850878
0.000828468
0.000788298
0.000755783
0.000702804
0.00062443
0.000549948
0.000490222
0.000437607
0.000386083
0.000334629
0.000282215
0.000236341
0.00020067
0.000180395
0.000172239
0.000168317
0.000163854
0.000155046
0.000137086
0.000113015
8.92365e-05
6.14942e-05
3.34788e-05
2.50806e-05
1.94336e-05
2.23049e-05
0.00134184
0.000593941
9.2088e-05
2.57609e-05
1.94432e-05
9.59456e-06
9.048e-06
9.40195e-06
1.16803e-05
1.35324e-05
1.05702e-05
8.37604e-06
4.88677e-06
3.37404e-06
2.74745e-06
2.53432e-06
2.45113e-06
2.42733e-06
2.43623e-06
2.44946e-06
2.47451e-06
2.49712e-06
2.52309e-06
2.54671e-06
2.57072e-06
2.59307e-06
2.61547e-06
2.63308e-06
2.64899e-06
2.67688e-06
2.70754e-06
2.74122e-06
2.77747e-06
2.81856e-06
2.86378e-06
2.92112e-06
2.98062e-06
3.04287e-06
3.08293e-06
3.12804e-06
3.19429e-06
3.26392e-06
3.4412e-06
3.55801e-06
4.12319e-06
4.30851e-06
5.93102e-06
6.76645e-06
9.3939e-06
1.13678e-05
2.56764e-05
7.8798e-05
0.000248928
0.000685754
0.00118567
0.00320015
0.00773467
0.0131545
0.0142272
0.00576601
0.0132685
0.00171167
0.00112332
0.00150106
0.00196557
0.00181761
0.00164555
0.00154926
0.00147997
0.00141049
0.00133372
0.00125903
0.00118547
0.00111477
0.00104577
0.000974319
0.000898302
0.000822217
0.00074381
0.000665759
0.000589585
0.000517392
0.000444237
0.000371273
0.000309528
0.000263345
0.000234798
0.000216497
0.000203098
0.000186725
0.000164511
0.000143792
0.000116184
7.07634e-05
2.11246e-05
1.03217e-05
0.00180166
0.00103237
0.000220247
2.98257e-05
1.87678e-05
8.80223e-06
7.50687e-06
7.34352e-06
9.56688e-06
1.007e-05
8.20383e-06
5.55943e-06
3.65637e-06
2.91387e-06
2.47572e-06
2.27955e-06
2.20608e-06
2.16418e-06
2.14095e-06
2.11112e-06
2.09131e-06
2.07114e-06
2.05787e-06
2.0456e-06
2.04054e-06
2.04073e-06
2.04867e-06
2.06728e-06
2.0985e-06
2.13459e-06
2.18006e-06
2.22162e-06
2.26017e-06
2.30119e-06
2.33932e-06
2.37848e-06
2.4136e-06
2.45085e-06
2.48163e-06
2.51593e-06
2.59604e-06
2.64813e-06
2.81946e-06
2.88252e-06
3.30876e-06
3.40925e-06
4.42185e-06
5.16445e-06
6.80771e-06
8.94586e-06
2.10733e-05
6.59442e-05
0.000196404
0.000589914
0.00116963
0.00281578
0.00751742
0.0128469
0.0186008
0.0107613
0.018843
0.00260918
0.00365355
0.00363799
0.00341458
0.00304426
0.00267262
0.00239614
0.00218668
0.00202273
0.00189676
0.00177154
0.00165268
0.00154151
0.00143209
0.00131584
0.00119522
0.00107511
0.000959553
0.00085261
0.000753484
0.000660728
0.00057456
0.000496946
0.000430878
0.000375603
0.000333821
0.00030083
0.00027599
0.000252259
0.000227157
0.000202003
0.000170534
0.00014101
8.94458e-05
2.73876e-05
0.00298761
0.0019634
0.000533353
6.8459e-05
2.03118e-05
6.83343e-06
4.7686e-06
3.88314e-06
4.69602e-06
4.42914e-06
3.79479e-06
2.59324e-06
2.10712e-06
1.85044e-06
1.71355e-06
1.63489e-06
1.61031e-06
1.59773e-06
1.60197e-06
1.60968e-06
1.62088e-06
1.63106e-06
1.64521e-06
1.66065e-06
1.67918e-06
1.69995e-06
1.723e-06
1.74679e-06
1.77143e-06
1.80074e-06
1.84615e-06
1.89695e-06
1.94656e-06
1.9962e-06
2.04251e-06
2.08726e-06
2.13024e-06
2.17041e-06
2.20523e-06
2.23726e-06
2.31391e-06
2.36435e-06
2.51979e-06
2.5717e-06
2.93556e-06
3.04242e-06
3.86025e-06
4.57532e-06
5.81552e-06
7.7631e-06
1.5011e-05
3.73014e-05
0.000124485
0.000397308
0.00122497
0.0027988
0.00798646
0.0148294
0.0252216
0.0191228
0.0291336
0.00728161
0.00621423
0.00461408
0.00403574
0.00390484
0.00364296
0.00334792
0.00305179
0.00278562
0.0025399
0.00231431
0.00211438
0.00193256
0.00176032
0.0015892
0.00142307
0.00126256
0.00111227
0.000974176
0.000848054
0.000737591
0.000638439
0.000552353
0.000479002
0.000418016
0.000369517
0.000330797
0.00030017
0.000273131
0.000248057
0.000222607
0.000192121
0.000163198
0.000117566
4.08466e-05
0.00202364
0.000293678
0.00023365
8.90789e-05
2.50366e-05
6.22342e-06
3.13677e-06
2.20939e-06
2.1661e-06
2.00598e-06
1.68528e-06
1.33058e-06
1.18867e-06
1.10441e-06
1.06282e-06
1.04425e-06
1.04158e-06
1.04698e-06
1.0595e-06
1.07414e-06
1.09183e-06
1.10958e-06
1.12935e-06
1.15029e-06
1.17272e-06
1.19643e-06
1.22112e-06
1.24575e-06
1.26938e-06
1.29333e-06
1.3241e-06
1.3609e-06
1.39971e-06
1.44002e-06
1.47906e-06
1.51608e-06
1.55289e-06
1.58773e-06
1.62261e-06
1.64614e-06
1.70232e-06
1.74112e-06
1.8514e-06
1.88003e-06
2.10945e-06
2.21693e-06
2.73747e-06
3.43388e-06
4.46256e-06
5.99688e-06
9.15632e-06
1.74007e-05
4.12039e-05
0.00011552
0.000568913
0.00128156
0.00345756
0.00577798
0.0105397
0.0190468
0.0572501
0.0323232
0.0198328
0.0129212
0.00936126
0.0072967
0.00595004
0.00499616
0.00428599
0.00373202
0.00328805
0.00291778
0.00260243
0.00232386
0.00207564
0.00184699
0.001637
0.00144089
0.00126077
0.00109623
0.000948888
0.000819543
0.000706217
0.00060992
0.00052659
0.000456667
0.000399643
0.000351661
0.00031587
0.000282081
0.000256143
0.000226974
0.000196621
0.000166213
0.00010856
2.67319e-05
0.000139335
8.14969e-05
2.98398e-05
2.5045e-05
1.6293e-05
1.73795e-05
1.81339e-05
1.96072e-05
1.65758e-05
1.46371e-05
1.58163e-05
2.16639e-05
2.51989e-05
2.65383e-05
2.51425e-05
2.34031e-05
2.16243e-05
2.04038e-05
1.93942e-05
1.87679e-05
1.83472e-05
1.81502e-05
1.80728e-05
1.81144e-05
1.82135e-05
1.83742e-05
1.85567e-05
1.8752e-05
1.89552e-05
1.91506e-05
1.93439e-05
1.9491e-05
1.97041e-05
1.97526e-05
2.00857e-05
1.99251e-05
2.05327e-05
1.99203e-05
2.10228e-05
1.99526e-05
2.21346e-05
2.08975e-05
2.46146e-05
2.34342e-05
2.75453e-05
2.53853e-05
2.40803e-05
1.92918e-05
1.31526e-05
2.25559e-05
4.9136e-05
7.27337e-05
0.000148252
0.000225596
0.000536493
0.00143085
0.00377279
0.00691769
0.0108589
0.0188161
0.0321874
0.0211393
0.0146159
0.0106474
0.00832311
0.00681943
0.00578677
0.00502179
0.00444726
0.0039805
0.00359783
0.00327802
0.00300862
0.00278034
0.00258255
0.00241114
0.00226025
0.00212364
0.0019988
0.00188034
0.00176502
0.00164902
0.00153173
0.00140217
0.0012649
0.00112324
0.000956828
0.000807452
0.000611276
0.000375077
0.000120842
4.19468e-05
3.61297e-05
5.46223e-05
6.57676e-05
6.18126e-05
0.000246367
0.00010726
5.23662e-05
4.58971e-05
2.59898e-05
2.69809e-05
2.83061e-05
3.14753e-05
3.47069e-05
3.62812e-05
3.81041e-05
4.29222e-05
4.47508e-05
4.47927e-05
4.32956e-05
4.19496e-05
4.0907e-05
4.03489e-05
4.00149e-05
3.99365e-05
4.0011e-05
4.02133e-05
4.04889e-05
4.08326e-05
4.11965e-05
4.15819e-05
4.19824e-05
4.24019e-05
4.28187e-05
4.32187e-05
4.35955e-05
4.39275e-05
4.42588e-05
4.448e-05
4.48262e-05
4.48584e-05
4.53293e-05
4.49616e-05
4.57313e-05
4.49384e-05
4.65079e-05
4.55847e-05
4.83513e-05
4.72529e-05
5.056e-05
4.79326e-05
4.75583e-05
4.07424e-05
3.50707e-05
4.37882e-05
7.32062e-05
0.000125901
0.000232305
0.000530444
0.00124282
0.00291204
0.00513669
0.00894463
0.0152979
0.0198939
0.0421474
0.0082923
0.00861784
0.0074115
0.00589492
0.00487787
0.00415796
0.00366242
0.00331852
0.00307954
0.00292554
0.00281059
0.00270921
0.00260765
0.00249758
0.00238038
0.00225388
0.00211879
0.00197847
0.00182983
0.00167497
0.00151931
0.00135834
0.00119303
0.00104727
0.000907711
0.00076635
0.000650386
0.000526569
0.000422528
0.000356765
0.000210206
0.000161493
0.000158447
0.000110644
7.98723e-05
0.000383118
0.000175464
0.000100847
6.85548e-05
3.48547e-05
3.13833e-05
3.12836e-05
3.59696e-05
4.75202e-05
5.31839e-05
5.57372e-05
5.70294e-05
5.69326e-05
5.52608e-05
5.41528e-05
5.39571e-05
5.44003e-05
5.50618e-05
5.58508e-05
5.66516e-05
5.74611e-05
5.82309e-05
5.89823e-05
5.96929e-05
6.03531e-05
6.09652e-05
6.15581e-05
6.21706e-05
6.2767e-05
6.33473e-05
6.38975e-05
6.43996e-05
6.48457e-05
6.52435e-05
6.55943e-05
6.58621e-05
6.61047e-05
6.6079e-05
6.62262e-05
6.58238e-05
6.61209e-05
6.54691e-05
6.6205e-05
6.5572e-05
6.69565e-05
6.75953e-05
6.84424e-05
6.70388e-05
6.83375e-05
8.48304e-05
0.000122116
0.000226988
0.000407684
0.000874201
0.00224118
0.00451644
0.00570562
0.0103079
0.0130612
0.0126051
0.0354488
0.00602885
0.00882876
0.00526608
0.00396026
0.0031598
0.00271165
0.00263602
0.0026864
0.00281131
0.00294069
0.00300091
0.0029854
0.00292841
0.0028165
0.00268079
0.00252946
0.00237184
0.00220941
0.00204202
0.00186806
0.00167776
0.00146735
0.00124911
0.00105445
0.000886431
0.000735623
0.000610104
0.00049689
0.000434865
0.000372741
0.000275362
0.000265507
0.00023628
0.000162309
0.000116106
0.00059657
0.000269941
0.000172136
0.000105951
6.15729e-05
4.99941e-05
3.95929e-05
4.18021e-05
5.47705e-05
6.2737e-05
6.75339e-05
6.89907e-05
6.73963e-05
6.40329e-05
6.24651e-05
6.27381e-05
6.38689e-05
6.5117e-05
6.63819e-05
6.77513e-05
6.90298e-05
7.01827e-05
7.12456e-05
7.22208e-05
7.30948e-05
7.3872e-05
7.45678e-05
7.52828e-05
7.59885e-05
7.66773e-05
7.73455e-05
7.79885e-05
7.85655e-05
7.91199e-05
7.95463e-05
7.99944e-05
8.02148e-05
8.0366e-05
8.02296e-05
7.99656e-05
7.95999e-05
7.90034e-05
7.88388e-05
7.87948e-05
7.98335e-05
8.44971e-05
8.80211e-05
9.39735e-05
9.46832e-05
0.000122499
0.000169928
0.000318711
0.000671071
0.00124969
0.0048951
0.00973809
0.0103656
0.0201337
0.0128435
0.00989539
0.039049
0.00592028
0.00393306
0.00318887
0.00311543
0.00250142
0.00266978
0.00294378
0.00311069
0.00314016
0.00313476
0.00308595
0.00299748
0.00289415
0.00278385
0.0026616
0.00251311
0.00234796
0.00217098
0.00199202
0.00181665
0.00162907
0.00142638
0.00121379
0.00101117
0.000818758
0.000649571
0.000506983
0.000413842
0.000370011
0.000321235
0.000282982
0.000277798
0.00024103
0.000182776
0.000143625
0.000935343
0.000321289
0.000212217
0.000155657
0.00010604
8.39389e-05
6.1233e-05
6.17636e-05
7.18128e-05
8.18008e-05
8.8108e-05
8.77766e-05
8.37063e-05
7.69116e-05
7.36949e-05
7.34152e-05
7.49122e-05
7.69554e-05
7.89152e-05
8.05568e-05
8.20271e-05
8.33425e-05
8.45382e-05
8.56437e-05
8.66461e-05
8.75533e-05
8.83332e-05
8.90764e-05
8.98155e-05
9.05423e-05
9.12594e-05
9.19838e-05
9.26566e-05
9.33489e-05
9.38456e-05
9.44293e-05
9.45828e-05
9.49024e-05
9.45044e-05
9.44561e-05
9.36732e-05
9.35329e-05
9.26766e-05
9.41912e-05
9.42078e-05
0.000103516
0.000108537
0.000123981
0.000129107
0.000154957
0.000198
0.000366337
0.0010276
0.00370874
0.0117049
0.018546
0.0173526
0.0184375
0.00840555
0.00742327
0.0445688
0.00517873
0.00362473
0.00318381
0.00336389
0.0033515
0.00351493
0.00352124
0.0035512
0.00350134
0.00343095
0.00333606
0.00325876
0.00318207
0.00307623
0.00292109
0.00269583
0.00241543
0.00209778
0.00176609
0.0014585
0.00119708
0.000988987
0.000818411
0.000668244
0.000539882
0.000443621
0.000388223
0.000361036
0.000347081
0.000333621
0.00030512
0.000266505
0.000225436
0.000184845
0.000153288
0.00134559
0.000334153
0.000207129
0.000177828
0.000147899
0.00011287
9.0786e-05
8.28938e-05
8.50532e-05
9.20808e-05
0.000102845
9.8774e-05
9.25414e-05
8.21811e-05
7.77132e-05
7.69731e-05
7.87612e-05
8.16206e-05
8.44748e-05
8.69408e-05
8.90688e-05
9.08767e-05
9.24411e-05
9.38258e-05
9.50568e-05
9.61479e-05
9.70772e-05
9.79284e-05
9.87275e-05
9.95026e-05
0.000100287
0.000101176
0.000102034
0.000102945
0.000103447
0.000104218
0.000104097
0.000104767
0.000103547
0.000104004
0.000101317
0.00010271
9.85265e-05
0.000104176
0.000100623
0.000117469
0.000125343
0.000145353
0.000163943
0.000183856
0.000206979
0.000332575
0.000764055
0.00317631
0.00915925
0.0165371
0.0204528
0.0240217
0.00791767
0.00787122
0.0470457
0.00565648
0.00480353
0.00443407
0.00424404
0.00412098
0.00404611
0.00397548
0.00385712
0.00373888
0.00362487
0.00349672
0.00333552
0.00313604
0.00293534
0.0027671
0.0025724
0.00237397
0.00215606
0.00190042
0.00162249
0.00134715
0.00109287
0.000879806
0.000737412
0.000649895
0.000590478
0.000564549
0.000546804
0.000529093
0.000496725
0.000436048
0.000336675
0.000231356
0.000180228
0.000158165
0.00135375
0.000374638
0.00017645
0.000145339
0.000156191
0.000117645
0.000109322
9.83407e-05
9.19625e-05
9.46544e-05
0.000107914
0.000102034
9.50649e-05
8.25016e-05
7.69494e-05
7.52941e-05
7.7324e-05
8.07668e-05
8.4301e-05
8.71766e-05
8.95937e-05
9.16048e-05
9.32962e-05
9.47492e-05
9.6014e-05
9.71073e-05
9.80239e-05
9.88447e-05
9.95796e-05
0.000100287
0.000101017
0.000101945
0.000102815
0.000103752
0.00010414
0.000104934
0.000104514
0.000105342
0.000103414
0.000104212
9.98146e-05
0.000102543
9.5467e-05
0.000104388
9.80885e-05
0.000119648
0.00013008
0.000150982
0.000178058
0.000194702
0.000205009
0.000316055
0.000529346
0.00145568
0.00443792
0.00840744
0.0165456
0.0182442
0.0127023
0.0127514
0.038577
0.00612065
0.00613414
0.0055387
0.00491677
0.00465879
0.00434139
0.00421277
0.0040704
0.00402687
0.00392399
0.00386897
0.00372734
0.00363728
0.00357249
0.00350203
0.00341031
0.0033147
0.0032128
0.00306105
0.00288703
0.00267043
0.00238323
0.00207677
0.00182348
0.00164559
0.00151705
0.00142728
0.00132375
0.00121815
0.00106263
0.000835691
0.000613282
0.000379638
0.000222735
0.000171681
0.00124583
0.000535559
0.000172785
7.95359e-05
0.000106357
8.72605e-05
0.000106561
0.000101954
9.28897e-05
8.96611e-05
0.000104586
9.74406e-05
9.24114e-05
7.4558e-05
6.76867e-05
6.42906e-05
6.60875e-05
6.97862e-05
7.38893e-05
7.73585e-05
8.02286e-05
8.25611e-05
8.44277e-05
8.59437e-05
8.71723e-05
8.81559e-05
8.89242e-05
8.95662e-05
9.0049e-05
9.04756e-05
9.08541e-05
9.11931e-05
9.13629e-05
9.15275e-05
9.11334e-05
9.10285e-05
8.95915e-05
8.98217e-05
8.63591e-05
8.70387e-05
8.09083e-05
8.38349e-05
7.5988e-05
8.38398e-05
8.11695e-05
9.95855e-05
0.000123651
0.000135359
0.000167742
0.000161101
0.000160902
0.000307423
0.000514258
0.00111992
0.0030199
0.00809053
0.020738
0.02069
0.0149322
0.0149969
0.0368252
0.00692518
0.00761388
0.0075032
0.00706133
0.006637
0.00597255
0.00560694
0.00533405
0.00530857
0.00515533
0.00505272
0.00487932
0.00481377
0.0047243
0.00467909
0.00461856
0.00456126
0.00450836
0.00445161
0.00436869
0.0042707
0.00408587
0.00385302
0.00357168
0.0032277
0.00283109
0.00243627
0.00205575
0.00165248
0.00125091
0.000896544
0.000702732
0.000597156
0.000536422
0.000579093
0.000950444
0.000880989
0.000220413
5.23684e-05
6.28575e-05
5.20114e-05
8.13947e-05
7.56777e-05
8.09687e-05
8.61006e-05
0.000101429
9.09457e-05
8.24851e-05
5.74107e-05
4.42446e-05
3.92343e-05
3.95963e-05
4.14907e-05
4.38763e-05
4.65514e-05
4.87735e-05
5.04931e-05
5.17783e-05
5.27123e-05
5.33845e-05
5.38408e-05
5.41844e-05
5.4237e-05
5.41954e-05
5.41581e-05
5.41068e-05
5.40731e-05
5.39893e-05
5.41075e-05
5.39653e-05
5.42031e-05
5.29803e-05
5.3739e-05
5.0464e-05
5.20961e-05
4.61598e-05
5.04795e-05
4.36858e-05
5.17267e-05
5.16443e-05
6.62831e-05
9.1857e-05
0.000100102
0.00012608
0.000104378
9.42153e-05
0.000250287
0.000554145
0.00117192
0.00225397
0.00573225
0.0147359
0.02612
0.0116888
0.0114093
0.0355921
0.00596518
0.00662862
0.00544098
0.00487458
0.00428575
0.00359251
0.0033443
0.00304037
0.00289773
0.00263928
0.00252698
0.0024181
0.00237197
0.00234845
0.00232505
0.00229505
0.00227679
0.00227889
0.00238659
0.00257402
0.00285535
0.00308234
0.0031681
0.00309646
0.00278511
0.00235769
0.00179391
0.0012541
0.000834257
0.000540768
0.000406245
0.000363194
0.000400228
0.000447216
0.000227703
0.000980865
0.00105008
0.000283525
4.78728e-05
4.40221e-05
2.78014e-05
4.35061e-05
5.16454e-05
6.59574e-05
6.99877e-05
8.21672e-05
6.96118e-05
5.93205e-05
4.06559e-05
3.15679e-05
2.79716e-05
2.76835e-05
2.83617e-05
2.94028e-05
3.04111e-05
3.12293e-05
3.18294e-05
3.22596e-05
3.25397e-05
3.27046e-05
3.27301e-05
3.26616e-05
3.25096e-05
3.23288e-05
3.21639e-05
3.20003e-05
3.18259e-05
3.16134e-05
3.14965e-05
3.12974e-05
3.13439e-05
3.07263e-05
3.10954e-05
2.95284e-05
3.03386e-05
2.76417e-05
2.97841e-05
2.66846e-05
3.0806e-05
2.98533e-05
3.7042e-05
5.26755e-05
5.77697e-05
7.59651e-05
5.77058e-05
5.21701e-05
0.000156229
0.000493681
0.00120454
0.00269853
0.00745612
0.0177055
0.022976
0.00783539
0.0074703
0.0398135
0.00447668
0.00458381
0.00289716
0.00242153
0.00182168
0.00152703
0.00134987
0.00126852
0.00120401
0.00112496
0.00106605
0.00102227
0.000988772
0.000973006
0.000959072
0.000932484
0.000895546
0.000851876
0.000828941
0.000826297
0.000851692
0.000908861
0.000989349
0.00104752
0.00106029
0.000999962
0.000835539
0.00057861
0.000360374
0.000234069
0.000154781
0.000117398
9.51841e-05
5.4646e-05
2.31179e-05
0.0016935
0.00111696
0.000202869
4.95811e-05
4.30211e-05
2.40465e-05
2.72415e-05
3.57988e-05
5.03562e-05
5.87515e-05
6.57302e-05
6.03554e-05
4.94173e-05
3.44342e-05
2.70013e-05
2.43814e-05
2.39891e-05
2.41464e-05