/*--------------------------------*- C++ -*----------------------------------*\
| =========                 |                                                 |
| \\      /  F ield         | OpenFOAM: The Open Source CFD Toolbox           |
|  \\    /   O peration     | Version:  2.3.0                                 |
|   \\  /    A nd           | Web:      www.OpenFOAM.org                      |
|    \\/     M anipulation  |                                                 |
\*---------------------------------------------------------------------------*/
FoamFile
{
    version     2.0;
    format      ascii;
    class       surfaceScalarField;
    location    "16";
    object      phi.air;
}
// * * * * * * * * * * * * * * * * * * * * * * * * * * * * * * * * * * * * * //

dimensions      [0 3 -1 0 0 0 0];

internalField   nonuniform List<scalar> 
16448
(
-2.21494e-06
-3.01587e-06
9.70276e-07
-1.08585e-07
-3.07078e-06
9.64416e-07
5.6388e-07
-1.80515e-06
1.13267e-06
1.2683e-06
-1.65177e-06
9.47334e-07
1.28463e-06
-5.73779e-07
5.57423e-07
1.24412e-06
-4.24006e-07
4.64496e-07
9.32776e-07
-1.19765e-07
4.31088e-07
6.11992e-07
-2.19331e-07
5.40098e-07
1.66074e-07
-2.23745e-07
6.69646e-07
-2.29843e-07
-2.89221e-07
6.85122e-07
-5.44435e-07
-3.22155e-07
6.3673e-07
-6.64074e-07
-4.08167e-07
5.2779e-07
-6.30173e-07
-4.88579e-07
4.54661e-07
-5.07206e-07
-5.41566e-07
4.18582e-07
-3.84441e-07
-5.55521e-07
4.32738e-07
-2.77936e-07
-5.6056e-07
4.54036e-07
-1.99626e-07
-5.58441e-07
4.80113e-07
-1.42046e-07
-5.5597e-07
4.98371e-07
-1.02239e-07
-5.52323e-07
5.12499e-07
-7.46697e-08
-5.4822e-07
5.20631e-07
-5.63287e-08
-5.43658e-07
5.25301e-07
-4.44621e-08
-5.38515e-07
5.2663e-07
-3.74761e-08
-5.32977e-07
5.25976e-07
-3.399e-08
-5.26959e-07
5.23455e-07
-3.33495e-08
-5.20579e-07
5.19925e-07
-3.51586e-08
-5.1376e-07
5.15552e-07
-3.92192e-08
-5.06523e-07
5.10571e-07
-4.55218e-08
-4.98681e-07
5.04967e-07
-5.39723e-08
-4.90122e-07
4.98561e-07
-6.46218e-08
-4.80553e-07
4.91188e-07
-7.7162e-08
-4.69706e-07
4.82235e-07
-9.13532e-08
-4.57257e-07
4.71435e-07
-1.05554e-07
-4.4331e-07
4.57499e-07
-1.17789e-07
-4.28137e-07
4.40359e-07
-1.23468e-07
-4.11768e-07
4.17435e-07
-1.18773e-07
-3.94249e-07
3.89543e-07
-9.7154e-08
-3.77368e-07
3.55736e-07
-5.7151e-08
-3.61944e-07
3.21929e-07
-3.89e-09
-3.49217e-07
2.95942e-07
4.13669e-08
-3.38005e-07
2.92735e-07
4.19749e-08
-3.23325e-07
3.227e-07
-5.12976e-08
-3.06708e-07
3.99968e-07
-2.91848e-07
-2.83543e-07
5.24075e-07
-6.92478e-07
-2.51679e-07
6.52299e-07
-1.20398e-06
-2.32944e-07
7.44424e-07
-1.77041e-06
-2.80607e-07
8.47034e-07
-2.46358e-06
-4.62704e-07
1.15585e-06
-3.94869e-06
-2.44436e-07
1.72955e-06
-6.18631e-06
6.72923e-08
2.17032e-06
-7.40069e-06
-1.21911e-06
2.4335e-06
-6.27525e-06
-3.84733e-06
2.72189e-06
-4.33029e-06
-4.63043e-06
2.6855e-06
-2.30786e-06
-5.0371e-06
3.01466e-06
2.18097e-07
-5.3007e-06
2.77476e-06
3.12259e-06
-8.34432e-06
5.43981e-06
7.98407e-06
-8.43097e-06
3.5695e-06
7.58542e-06
-8.30027e-06
8.69884e-06
1.03132e-05
-9.62878e-06
6.90087e-06
-1.06775e-05
1.24294e-06
1.94613e-05
-3.06002e-05
-6.56332e-06
-4.19055e-06
-6.38619e-05
-1.41796e-05
1.10548e-06
-1.70606e-05
-2.97061e-06
8.37515e-06
2.17609e-05
-1.64973e-06
6.03311e-06
2.10108e-05
-2.63886e-06
3.23619e-06
1.94044e-05
-1.53441e-06
3.06481e-06
1.76103e-05
-1.90527e-06
3.63774e-06
1.61842e-05
-1.79926e-06
3.24545e-06
1.4771e-05
-1.46858e-06
2.90807e-06
1.37987e-05
-2.13457e-06
3.10378e-06
1.32294e-05
-2.41352e-06
3.03486e-06
1.3937e-05
-3.56004e-06
2.84019e-06
1.50207e-05
-3.85676e-06
2.78666e-06
1.60312e-05
-3.57716e-06
2.53341e-06
1.55376e-05
-2.22748e-06
2.71716e-06
1.39617e-05
-1.35645e-06
2.91723e-06
1.21145e-05
-1.47563e-06
3.25953e-06
1.01295e-05
-1.8522e-06
3.77817e-06
7.14443e-06
-5.25016e-07
3.51129e-06
1.22285e-06
3.07775e-06
2.8203e-06
-7.54031e-06
5.62459e-06
3.0008e-06
-1.39504e-05
3.81223e-06
2.58734e-06
-1.5053e-05
1.34273e-06
-1.35441e-07
-1.31902e-05
4.8153e-07
-2.32665e-06
-1.0177e-05
1.79785e-08
-3.04373e-06
-5.22985e-06
-2.21745e-06
-2.77335e-06
9.92224e-07
-3.97715e-06
-2.30944e-06
5.5724e-06
-2.70282e-06
-1.91735e-06
8.45091e-06
-1.45847e-06
-1.46398e-06
9.92959e-06
9.42916e-08
-1.5985e-06
9.83442e-06
6.01297e-07
-4.82791e-07
9.19682e-06
-9.13802e-07
1.49156e-06
6.42306e-06
-1.16027e-06
3.94e-06
1.80844e-06
9.51444e-07
3.88236e-06
-6.07487e-07
4.21132e-08
2.69571e-06
-3.46957e-07
-2.27985e-06
2.18836e-06
-2.05847e-06
2.24896e-06
-4.63552e-06
-4.28032e-06
2.07207e-07
-3.41644e-06
-4.41944e-06
1.29582e-07
-2.4928e-06
-3.26406e-06
5.35255e-07
-1.03582e-06
-3.18613e-06
7.73447e-08
-1.18255e-07
-1.42779e-06
-6.35757e-08
3.83912e-07
-8.90898e-07
-3.53015e-08
4.01721e-07
-1.24424e-07
-1.31731e-08
1.04735e-07
-1.1835e-07
1.95982e-07
-2.96925e-07
-1.08099e-07
2.85991e-07
-6.4131e-07
-2.27833e-07
2.82974e-07
-8.8024e-07
-2.94443e-07
2.11194e-07
-9.07881e-07
-4.72719e-07
9.21696e-08
-8.13358e-07
-6.13129e-07
3.00019e-08
-6.55727e-07
-6.94528e-07
-4.69624e-09
-5.08269e-07
-7.04068e-07
1.06095e-09
-3.81455e-07
-6.98762e-07
1.13603e-08
-2.86829e-07
-6.79292e-07
2.61955e-08
-2.16757e-07
-6.62575e-07
3.65042e-08
-1.67545e-07
-6.45704e-07
4.41394e-08
-1.33216e-07
-6.30464e-07
4.78878e-08
-1.10146e-07
-6.16087e-07
4.93299e-08
-9.52801e-08
-6.02225e-07
4.8818e-08
-8.64859e-08
-5.88895e-07
4.7097e-08
-8.19612e-08
-5.75816e-07
4.43073e-08
-8.08052e-08
-5.627e-07
4.09388e-08
-8.2394e-08
-5.49352e-07
3.71573e-08
-8.63311e-08
-5.35713e-07
3.3103e-08
-9.24121e-08
-5.21336e-07
2.87142e-08
-1.00335e-07
-5.0607e-07
2.38484e-08
-1.0995e-07
-4.89384e-07
1.84256e-08
-1.20703e-07
-4.71147e-07
1.2172e-08
-1.3277e-07
-4.50459e-07
5.24789e-09
-1.43579e-07
-4.27331e-07
-5.19207e-09
-1.49384e-07
-4.01718e-07
-2.06342e-08
-1.46178e-07
-3.76267e-07
-3.87286e-08
-1.30738e-07
-3.50172e-07
-5.95401e-08
-9.85328e-08
-3.27301e-07
-8.22955e-08
-5.22238e-08
-3.0789e-07
-1.00388e-07
-1.60505e-10
-2.93669e-07
-1.07637e-07
3.86088e-08
-2.80617e-07
-9.61846e-08
3.30728e-08
-2.63097e-07
-5.47192e-08
-6.156e-08
-2.31765e-07
1.9659e-08
-2.97716e-07
-1.61054e-07
1.13638e-07
-7.01187e-07
-4.7899e-08
1.99659e-07
-1.23673e-06
3.78418e-08
2.64733e-07
-1.95921e-06
3.90013e-08
4.02844e-07
-3.54855e-06
1.4064e-07
9.85978e-07
-5.92525e-06
4.80967e-07
1.65127e-06
-7.6462e-06
3.03102e-07
1.48515e-06
-7.14717e-06
-2.06109e-06
3.42943e-07
-3.9816e-06
-5.61935e-06
-1.39355e-06
-2.94745e-07
-7.32974e-06
-9.87545e-07
4.33097e-06
-8.66838e-06
-9.94429e-07
1.11049e-05
-1.16405e-05
-4.34124e-07
1.5065e-05
-1.45866e-05
2.2821e-06
2.34056e-05
-1.71241e-05
3.52449e-07
2.35607e-05
-1.41925e-05
5.73699e-06
2.55406e-05
-1.59024e-05
4.29361e-06
-3.8332e-06
1.34874e-06
2.89457e-05
-3.27865e-05
-7.5255e-06
-3.25016e-06
-7.67862e-05
-1.66753e-05
-2.62904e-06
-3.28048e-05
-3.3312e-06
9.98691e-06
3.72178e-06
-5.5473e-07
3.08954e-06
-2.79539e-06
1.00008e-06
2.40303e-06
-6.76893e-06
-2.7206e-07
2.45655e-06
-9.00345e-06
-1.13433e-06
1.43216e-06
-9.52478e-06
-2.80162e-06
2.40134e-06
-9.64447e-06
-3.70111e-06
2.45376e-06
-8.1718e-06
-5.55161e-06
3.11095e-06
-5.63132e-06
-6.00328e-06
1.87931e-06
-2.25855e-06
-7.01244e-06
2.88755e-08
1.10615e-06
-6.8255e-06
-4.27637e-07
4.1565e-06
-5.73435e-06
-9.53052e-07
5.92288e-06
-3.43866e-06
-5.34989e-07
5.63851e-06
-1.17795e-06
1.27707e-07
3.14433e-06
-1.52118e-07
1.17158e-06
-2.25059e-06
1.63419e-06
1.87356e-06
-7.30811e-06
4.58229e-06
-7.79785e-08
-1.22379e-05
7.65603e-06
5.12472e-07
-1.63856e-05
7.77181e-06
1.98318e-06
-1.74414e-05
3.79838e-06
1.10212e-06
-1.59575e-05
6.85437e-07
-7.11171e-07
-1.39175e-05
-4.27517e-07
-1.10717e-06
-1.05934e-05
-1.41579e-06
-1.88043e-06
-5.65892e-06
-4.20171e-06
-2.94848e-06
7.6017e-08
-5.49792e-06
-4.2338e-06
5.32264e-06
-3.96243e-06
-4.02603e-06
8.72387e-06
-1.75475e-06
-3.14479e-06
9.81784e-06
5.70032e-07
-1.55997e-06
9.61352e-06
2.93161e-07
4.98105e-07
8.34696e-06
-2.26823e-06
2.51441e-06
4.95016e-06
-1.8477e-06
4.13714e-06
1.60285e-06
1.10548e-06
3.46512e-06
-3.46074e-07
-2.22234e-07
2.58033e-06
-4.86327e-07
-2.69953e-06
7.97712e-07
-3.14012e-06
1.22168e-06
-5.51329e-06
-4.6716e-06
6.92492e-08
-4.56404e-06
-5.08225e-06
-2.86447e-07
-3.94818e-06
-4.04629e-06
1.66352e-07
-2.72038e-06
-4.03546e-06
-3.78493e-07
-1.65995e-06
-2.31001e-06
-1.78233e-07
-6.19474e-07
-1.73286e-06
-1.98537e-07
-1.81258e-07
-3.20713e-07
-2.41946e-07
-3.20905e-07
-2.53866e-08
4.66654e-08
-6.28148e-07
1.05482e-07
9.36405e-08
-8.51159e-07
-9.51146e-08
9.02692e-08
-9.75979e-07
-1.88329e-07
1.86808e-08
-9.38797e-07
-4.19209e-07
-9.07175e-08
-8.37706e-07
-5.4992e-07
-1.64328e-07
-7.03896e-07
-6.18493e-07
-2.09873e-07
-5.77155e-07
-6.01889e-07
-2.28948e-07
-4.62563e-07
-5.77432e-07
-2.35951e-07
-3.72731e-07
-5.37836e-07
-2.31317e-07
-3.03614e-07
-5.04467e-07
-2.27254e-07
-2.52948e-07
-4.72374e-07
-2.24024e-07
-2.1684e-07
-4.43834e-07
-2.22767e-07
-1.9201e-07
-4.17979e-07
-2.22964e-07
-1.75557e-07
-3.94275e-07
-2.2443e-07
-1.65295e-07
-3.72653e-07
-2.26527e-07
-1.59479e-07
-3.52618e-07
-2.29039e-07
-1.57057e-07
-3.33334e-07
-2.31809e-07
-1.57187e-07
-3.14427e-07
-2.34819e-07
-1.59742e-07
-2.95241e-07
-2.37936e-07
-1.64452e-07
-2.75552e-07
-2.41095e-07
-1.70935e-07
-2.55162e-07
-2.44443e-07
-1.78602e-07
-2.33621e-07
-2.48115e-07
-1.86572e-07
-2.10938e-07
-2.52255e-07
-1.93398e-07
-1.86638e-07
-2.57013e-07
-1.97061e-07
-1.61169e-07
-2.62516e-07
-1.95937e-07
-1.33842e-07
-2.69016e-07
-1.89241e-07
-1.0718e-07
-2.75799e-07
-1.78074e-07
-8.0006e-08
-2.8135e-07
-1.68418e-07
-5.4388e-08
-2.82587e-07
-1.70049e-07
-2.77583e-08
-2.78519e-07
-1.97059e-07
-2.53561e-09
-2.64145e-07
-2.64942e-07
2.69403e-08
-2.39694e-07
-3.79775e-07
5.43782e-08
-2.02667e-07
-5.469e-07
9.47186e-08
-1.59381e-07
-7.92839e-07
2.01482e-07
-1.16624e-07
-1.16393e-06
4.08969e-07
-8.57959e-08
-1.69626e-06
6.28703e-07
-5.85618e-08
-2.45949e-06
7.4121e-07
6.10073e-08
-3.91492e-06
9.80703e-07
6.15347e-07
-5.69479e-06
1.18132e-06
1.07951e-06
-6.30076e-06
4.85815e-07
4.23251e-07
-4.61177e-06
-1.94011e-06
-1.80997e-06
1.83442e-07
-6.27067e-06
-4.14389e-06
5.63722e-06
-9.43203e-06
-3.35149e-06
1.14439e-05
-1.19218e-05
-2.55324e-06
1.92384e-05
-1.79476e-05
-1.4875e-06
2.37326e-05
-1.96518e-05
5.70995e-07
3.0367e-05
-2.50554e-05
1.29686e-06
3.08182e-05
-1.81254e-05
3.48155e-06
3.08493e-05
-2.36685e-05
7.73487e-06
-1.3364e-06
3.81459e-06
2.91207e-05
-3.49142e-05
-4.92191e-06
-5.2568e-06
-8.41434e-05
-1.68443e-05
-5.89413e-06
-3.87517e-05
-4.08343e-06
3.42029e-06
-3.91979e-05
1.1201e-06
3.49267e-06
-8.08014e-05
3.60167e-06
4.20606e-06
-4.44502e-05
-2.37239e-07
3.86893e-06
-1.3482e-05
-3.16735e-07
4.05632e-06
-1.5897e-05
-3.51823e-06
3.00573e-06
-1.6809e-05
-4.91742e-06
2.27973e-06
-1.63497e-05
-6.86232e-06
1.10868e-06
-1.39029e-05
-7.8671e-06
1.74931e-08
-1.02129e-05
-9.12543e-06
-3.76586e-07
-5.90417e-06
-8.62671e-06
-9.78166e-07
-2.13955e-06
-6.83028e-06
-1.81586e-06
-5.1324e-08
-3.92475e-06
-1.6831e-06
-6.702e-07
1.40185e-07
-6.93234e-07
-6.58724e-06
4.36293e-06
1.28955e-06
-1.44655e-05
8.20093e-06
1.14486e-06
-1.88111e-05
9.43328e-06
-4.97495e-07
-2.05273e-05
9.19016e-06
1.65156e-07
-2.02558e-05
6.79411e-06
7.3614e-07
-1.79792e-05
1.55005e-06
-2.85863e-08
-1.57718e-05
-9.15802e-07
-5.86856e-07
-1.29481e-05
-3.15791e-06
-8.03148e-08
-9.13223e-06
-4.32946e-06
-8.64353e-07
-4.82289e-06
-4.79722e-06
-3.60582e-06
6.36582e-08
-3.61165e-06
-6.77557e-06
4.96539e-06
-1.83276e-06
-7.05666e-06
8.56641e-06
-1.4061e-07
-5.29456e-06
9.67624e-06
1.25647e-06
-1.81816e-06
9.39439e-06
-9.21729e-07
1.41661e-06
5.83116e-06
-2.81242e-06
4.03357e-06
7.18133e-07
-9.56187e-07
4.43096e-06
-2.46634e-06
1.47973e-06
3.19089e-06
-3.17067e-06
-7.07936e-07
1.41337e-06
-2.20374e-06
-2.57932e-06
-1.08648e-06
-3.5365e-06
-1.18209e-06
-5.85233e-06
-4.71266e-06
2.12096e-07
-4.89457e-06
-5.37433e-06
-6.65685e-07
-4.61407e-06
-4.33631e-06
9.50305e-09
-3.63933e-06
-4.47111e-06
-5.39098e-07
-2.854e-06
-2.88837e-06
-2.06976e-07
-1.53971e-06
-2.69669e-06
-3.50473e-07
-6.19944e-07
-9.8265e-07
-2.57842e-07
-4.22745e-07
-2.91896e-07
6.92894e-08
-6.21391e-07
2.02287e-07
1.01818e-07
-7.94371e-07
1.19884e-08
6.58475e-08
-8.3636e-07
-1.30886e-07
-1.54812e-08
-7.75779e-07
-3.58204e-07
-1.21617e-07
-7.2044e-07
-4.09361e-07
-1.95929e-07
-6.48717e-07
-4.4372e-07
-2.46526e-07
-5.71279e-07
-3.9674e-07
-2.82619e-07
-4.82322e-07
-3.58465e-07
-3.07955e-07
-4.0273e-07
-3.00659e-07
-3.16801e-07
-3.35914e-07
-2.51469e-07
-3.19843e-07
-2.83648e-07
-2.05115e-07
-3.19556e-07
-2.45144e-07
-1.63588e-07
-3.18776e-07
-2.18129e-07
-1.26401e-07
-3.18623e-07
-2.0014e-07
-9.31554e-08
-3.19133e-07
-1.89004e-07
-6.35526e-08
-3.20263e-07
-1.82857e-07
-3.67536e-08
-3.22033e-07
-1.80963e-07
-1.12386e-08
-3.24014e-07
-1.81727e-07
1.21959e-08
-3.25876e-07
-1.8381e-07
3.461e-08
-3.27789e-07
-1.86938e-07
5.76139e-08
-3.30054e-07
-1.90986e-07
8.11674e-08
-3.323e-07
-1.95221e-07
1.05348e-07
-3.34748e-07
-1.98734e-07
1.30369e-07
-3.3781e-07
-1.99912e-07
1.56274e-07
-3.41746e-07
-1.98169e-07
1.83045e-07
-3.4597e-07
-1.92931e-07
2.10763e-07
-3.49855e-07
-1.8771e-07
2.38788e-07
-3.51201e-07
-1.88528e-07
2.68851e-07
-3.48052e-07
-2.06629e-07
3.01399e-07
-3.37698e-07
-2.59087e-07
3.43417e-07
-3.18732e-07
-3.62687e-07
3.94394e-07
-2.93342e-07
-5.20412e-07
4.52068e-07
-2.67423e-07
-7.24436e-07
5.07523e-07
-2.49133e-07
-9.43127e-07
5.61342e-07
-2.47956e-07
-1.18033e-06
6.92674e-07
-2.54e-07
-1.53069e-06
1.0028e-06
-2.435e-07
-2.08299e-06
1.39972e-06
-2.18728e-07
-2.75425e-06
1.56608e-06
-1.53649e-07
-3.66846e-06
1.72916e-06
1.65757e-07
-4.9032e-06
1.88412e-06
5.31922e-07
-5.18609e-06
1.13005e-06
-3.61339e-07
-2.87393e-06
-1.56439e-06
-2.68789e-06
2.34808e-06
-7.06369e-06
-4.42898e-06
8.557e-06
-1.0883e-05
-4.75795e-06
1.4624e-05
-1.40821e-05
-3.90669e-06
2.04004e-05
-2.08775e-05
-2.84651e-06
2.29301e-05
-2.15031e-05
-6.78515e-07
2.42542e-05
-2.92853e-05
2.90568e-06
2.40027e-05
-1.84792e-05
6.05108e-07
2.49189e-05
-2.98625e-05
5.27754e-06
-2.30614e-06
1.05682e-05
1.95404e-05
-4.21126e-05
-1.72646e-06
-5.48526e-06
-0.000106791
-1.42523e-05
-7.38029e-06
-0.000104535
-1.56624e-06
3.41498e-06
-0.000110545
4.47878e-06
2.61994e-06
-0.000121051
7.09735e-06
6.72196e-06
-0.00012544
-2.3081e-07
5.04703e-06
-0.000127784
-1.32987e-06
3.91366e-06
-0.000128484
-4.80954e-06
2.88956e-06
-0.000128669
-6.14247e-06
2.1877e-06
-0.000127612
-7.91375e-06
1.52271e-06
-0.000124628
-9.37706e-06
9.25816e-07
-0.000116977
-1.02629e-05
5.36485e-07
-9.57838e-05
-1.00043e-05
7.6014e-07
-4.50191e-05
-7.89005e-06
1.76133e-06
-9.65586e-06
-5.79699e-06
3.80593e-06
-1.33583e-05
-9.87923e-07
5.9512e-06
-1.78325e-05
2.67832e-06
6.06012e-06
-2.17947e-05
5.20447e-06
6.29894e-06
-2.36502e-05
6.17595e-06
4.16713e-06
-2.24065e-05
4.50769e-06
2.75497e-06
-2.03514e-05
2.38122e-06
1.83688e-06
-1.8718e-05
-1.79896e-07
5.99508e-07
-1.69834e-05
-1.24541e-06
-1.01575e-06
-1.40487e-05
-2.05514e-06
-2.77444e-06
-8.60548e-06
-1.68567e-06
-5.57347e-06
-3.44703e-06
7.66656e-07
-8.04176e-06
8.5032e-07
3.22262e-06
-8.93129e-06
4.30672e-06
4.27047e-06
-8.63357e-06
6.63977e-06
3.94438e-06
-6.52697e-06
7.86125e-06
1.39754e-06
-1.38594e-06
5.26066e-06
-1.33959e-06
2.89226e-06
-5.58996e-07
-8.41837e-07
4.02434e-06
-4.11959e-06
3.92649e-07
2.57855e-06
-5.16282e-06
1.41693e-06
1.36148e-06
-4.9604e-06
-4.92311e-07
-2.97101e-07
-3.45749e-06
-1.85459e-06
-2.25387e-06
-3.43477e-06
-2.75016e-06
-6.01986e-06
-4.53035e-06
3.44398e-07
-4.87957e-06
-5.56523e-06
-9.49394e-07
-4.77508e-06
-4.39984e-06
-4.09666e-08
-3.67915e-06
-4.67212e-06
-8.94925e-07
-3.16591e-06
-3.04796e-06
-3.53645e-07
-2.00264e-06
-3.27785e-06
-5.82107e-07
-1.19926e-06
-1.56172e-06
-2.24326e-07
-6.52268e-07
-8.49931e-07
1.10245e-08
-5.62926e-07
6.14982e-08
5.14188e-08
-5.99968e-07
3.16578e-08
1.73456e-08
-5.37939e-07
-1.02417e-07
-9.05322e-08
-4.83907e-07
-2.57771e-07
-1.54496e-07
-4.979e-07
-2.01492e-07
-1.93909e-07
-4.99141e-07
-2.18064e-07
-2.24448e-07
-4.85336e-07
-1.49869e-07
-2.60707e-07
-4.40273e-07
-1.08952e-07
-2.9461e-07
-3.87719e-07
-4.013e-08
-3.13112e-07
-3.32811e-07
1.76986e-08
-3.24107e-07
-2.87125e-07
7.75162e-08
-3.28343e-07
-2.51261e-07
1.29508e-07
-3.28991e-07
-2.25076e-07
1.75106e-07
-3.27715e-07
-2.07198e-07
2.1446e-07
-3.25522e-07
-1.96269e-07
2.48502e-07
-3.23002e-07
-1.90079e-07
2.77811e-07
-3.20779e-07
-1.86483e-07
3.03716e-07
-3.18566e-07
-1.85193e-07
3.27386e-07
-3.16501e-07
-1.85983e-07
3.50028e-07
-3.1464e-07
-1.87708e-07
3.72304e-07
-3.12982e-07
-1.90148e-07
3.95003e-07
-3.11404e-07
-1.9257e-07
4.1774e-07
-3.09983e-07
-1.94345e-07
4.40498e-07
-3.08362e-07
-1.94495e-07
4.62629e-07
-3.06215e-07
-1.93564e-07
4.84866e-07
-3.02758e-07
-1.93536e-07
5.0778e-07
-2.97052e-07
-2.00083e-07
5.32217e-07
-2.86888e-07
-2.21036e-07
5.60714e-07
-2.70913e-07
-2.65555e-07
5.94933e-07
-2.49021e-07
-3.43383e-07
6.44445e-07
-2.23203e-07
-4.61999e-07
7.11547e-07
-1.98548e-07
-6.20516e-07
7.93664e-07
-1.83081e-07
-8.1097e-07
8.84001e-07
-1.86041e-07
-1.02567e-06
9.89856e-07
-2.13815e-07
-1.29621e-06
1.20943e-06
-2.46246e-07
-1.72462e-06
1.66943e-06
-2.38228e-07
-2.23736e-06
2.13229e-06
-2.19849e-07
-2.55093e-06
2.16537e-06
-2.85719e-07
-2.69128e-06
2.07998e-06
-2.10486e-07
-3.51685e-06
2.69731e-06
1.23848e-08
-3.8363e-06
2.45684e-06
-1.00735e-06
-1.11069e-06
-1.33261e-06
-2.95736e-06
3.49664e-06
-6.81839e-06
-4.85267e-06
8.53306e-06
-9.81183e-06
-6.10763e-06
1.24245e-05
-1.27187e-05
-5.25489e-06
1.21864e-05
-1.66595e-05
-3.98005e-06
1.16105e-05
-1.58025e-05
-5.12482e-06
6.19643e-06
-2.05803e-05
-3.29084e-06
4.45265e-06
-7.68777e-06
-9.04792e-06
7.01089e-07
-1.98107e-05
-6.30022e-06
-2.60244e-06
1.20319e-05
7.49045e-07
-4.55626e-05
-5.51936e-07
-3.61369e-06
-0.000118251
-9.79708e-06
-4.85012e-06
-0.000121063
8.01584e-07
6.28492e-06
-0.000128356
5.71784e-06
5.44658e-06
-0.000135834
7.28318e-06
7.75719e-06
-0.00013921
1.88216e-06
4.14482e-06
-0.000141307
1.02249e-06
1.13868e-06
-0.000142311
-2.15025e-06
-1.16644e-07
-0.00014297
-3.67001e-06
-8.28954e-07
-0.000143911
-5.04188e-06
-1.52468e-06
-0.000145274
-6.95923e-06
-1.92815e-06
-0.00014531
-8.09962e-06
-2.24265e-06
-0.000144679
-9.15917e-06
-2.33919e-06
-0.00014389
-8.80618e-06
-9.71457e-07
-0.000142826
-6.601e-06
2.53721e-06
-0.000142566
-3.73707e-06
5.74971e-06
-0.00014287
-1.47501e-06
6.9741e-06
-0.000143721
8.32456e-07
6.94199e-06
-0.000145409
2.28877e-06
5.38698e-06
-0.000146448
1.5107e-06
2.48449e-06
-0.000146577
6.88166e-07
-6.97018e-07
-0.000144949
1.00045e-07
-4.5389e-06
-0.000141134
6.7511e-07
-8.17376e-06
-0.000136035
2.83213e-06
-1.07279e-05
-0.000128148
4.7551e-06
-1.13854e-05
-0.000112271
6.499e-06
-1.03305e-05
-7.66487e-05
6.31379e-06
-7.48922e-06
-2.57993e-05
4.84956e-06
-5.52928e-06
3.90977e-06
2.8941e-06
-1.26079e-06
3.99968e-06
1.53069e-06
7.86646e-07
-4.97488e-07
2.33723e-06
3.67273e-07
-2.31662e-06
2.71421e-06
-1.35015e-06
-2.66923e-06
2.6797e-06
-1.41382e-06
-2.58403e-06
3.09114e-06
-1.28955e-06
-2.07733e-06
2.28656e-06
-2.82931e-06
-2.41017e-06
2.93227e-06
-3.21219e-06
-2.4332e-06
-2.18815e-06
-6.25211e-06
-3.7659e-06
1.4709e-07
-4.78785e-06
-5.62791e-06
-1.40158e-06
-4.66601e-06
-4.1412e-06
-3.8048e-07
-3.31217e-06
-4.61183e-06
-1.41413e-06
-2.97692e-06
-2.81998e-06
-5.63235e-07
-1.93111e-06
-3.30003e-06
-1.02364e-06
-1.43323e-06
-1.60449e-06
-4.55127e-07
-8.5233e-07
-1.3082e-06
-1.22655e-07
-5.87238e-07
-1.42642e-07
-6.09755e-08
-4.38232e-07
-6.69378e-08
-5.04421e-08
-2.09386e-07
-1.10737e-07
-2.20553e-07
-1.26249e-07
-1.08405e-07
-2.32535e-07
-1.95978e-07
1.03513e-07
-2.35307e-07
-2.85438e-07
1.12903e-07
-2.41537e-07
-3.38107e-07
1.78746e-07
-2.75977e-07
-3.46519e-07
2.02639e-07
-3.03205e-07
-3.36138e-07
2.74793e-07
-3.25335e-07
-3.12711e-07
3.33332e-07
-3.39083e-07
-2.86826e-07
3.95315e-07
-3.43712e-07
-2.6375e-07
4.50073e-07
-3.43661e-07
-2.46754e-07
4.98535e-07
-3.4045e-07
-2.36268e-07
5.40096e-07
-3.36137e-07
-2.31038e-07
5.75068e-07
-3.31818e-07
-2.29542e-07
6.03679e-07
-3.27375e-07
-2.30599e-07
6.27872e-07
-3.23118e-07
-2.33282e-07
6.49051e-07
-3.1899e-07
-2.3677e-07
6.68252e-07
-3.14751e-07
-2.40549e-07
6.86152e-07
-3.10072e-07
-2.44484e-07
7.03701e-07
-3.04773e-07
-2.48187e-07
7.20623e-07
-2.99181e-07
-2.52189e-07
7.37506e-07
-2.9301e-07
-2.56642e-07
7.53559e-07
-2.86474e-07
-2.64097e-07
7.70274e-07
-2.77953e-07
-2.78633e-07
7.88457e-07
-2.66138e-07
-3.06352e-07
8.101e-07
-2.50157e-07
-3.51798e-07
8.36288e-07
-2.30125e-07
-4.17628e-07
8.67405e-07
-2.06632e-07
-5.0044e-07
9.10427e-07
-1.83168e-07
-5.95645e-07
9.71306e-07
-1.64543e-07
-7.01536e-07
1.05614e-06
-1.56592e-07
-8.3624e-07
1.18008e-06
-1.61367e-07
-1.03955e-06
1.37023e-06
-1.77078e-07
-1.36979e-06
1.71831e-06
-1.78624e-07
-1.88273e-06
2.29798e-06
-1.15633e-07
-2.42567e-06
2.71803e-06
-4.27798e-08
-2.70091e-06
2.60976e-06
-1.69163e-07
-2.32354e-06
2.04056e-06
-3.37927e-07
-2.26341e-06
3.13782e-06
-5.00647e-07
-7.84102e-07
2.65074e-06
-1.67318e-06
2.44186e-06
-2.40497e-06
-2.15363e-06
5.42143e-06
-5.53275e-06
-4.26521e-06
6.67555e-06
-4.86467e-06
-6.20134e-06
5.96428e-06
-5.331e-06
-6.6765e-06
3.10703e-07
-4.83306e-06
-6.17284e-06
2.1569e-06
-7.13336e-06
-1.05153e-05
6.94487e-07
-7.47986e-06
-1.16381e-05
-5.57229e-06
4.88533e-06
-6.30626e-06
-1.67714e-05
-5.89554e-06
-2.71618e-06
-1.19932e-06
8.21692e-06
-1.36829e-05
-5.33767e-05
7.70947e-07
-3.27952e-07
-0.000141221
1.76714e-06
-3.72073e-07
-0.000144208
4.94358e-06
7.99128e-06
-0.000148267
8.08389e-06
4.54349e-06
-0.000151985
8.49948e-06
2.9123e-06
-0.000152648
7.31328e-06
-2.33751e-06
-0.000153575
6.25737e-06
-4.04465e-06
-0.000154094
2.94623e-06
-3.50315e-06
-0.000154216
4.26803e-07
-3.62988e-06
-0.000155069
-4.95223e-07
-2.89228e-06
-0.000157909
-1.7624e-06
-2.11164e-06
-0.000161984
-3.61119e-06
-1.097e-06
-0.000165569
-5.28602e-06
-7.80978e-07
-0.000167906
-6.74607e-06
-3.6472e-07
-0.000169157
-6.77784e-06
6.18826e-07
-0.000169642
-5.45872e-06
1.73658e-06
-0.000169719
-4.427e-06
2.59864e-06
-0.00016994
-2.00524e-06
2.99772e-06
-0.000170265
7.81875e-07
1.81483e-06
-0.000170468
2.29169e-06
-1.00679e-06
-0.000169472
3.50135e-06
-4.74868e-06
-0.000166668
4.54303e-06
-7.99063e-06
-0.000161571
5.51395e-06
-1.0105e-05
-0.000154645
6.41395e-06
-1.07719e-05
-0.000147402
6.3305e-06
-9.28985e-06
-0.000140903
5.24022e-06
-6.28005e-06
-0.000135381
2.7414e-06
-3.68011e-06
-0.000132544
2.63587e-06
-4.01904e-07
-0.000134266
1.44739e-06
1.06247e-06
-0.000137745
2.38069e-06
4.51277e-07
-0.000138386
4.41742e-06
-1.42346e-06
-0.000137038
3.89436e-06
-2.4806e-06
-0.000133097
3.63569e-06
-2.9752e-06
-0.000119007
4.52177e-06
-2.74897e-06
-7.75902e-05
4.2441e-06
-2.01527e-06
-2.48345e-05
4.64773e-06
-2.85805e-07
-6.55046e-06
4.78923e-06
-6.55841e-06
-2.63827e-06
5.03266e-07
-4.66418e-06
-5.27649e-06
-2.24565e-06
-4.45441e-06
-3.35402e-06
-9.96958e-07
-3.03861e-06
-4.10182e-06
-1.9258e-06
-2.643e-06
-2.23327e-06
-9.82317e-07
-1.48959e-06
-2.89922e-06
-1.55423e-06
-1.12284e-06
-1.04664e-06
-9.24605e-07
-7.78236e-07
-1.19137e-06
-4.61447e-07
-5.68855e-07
-3.92388e-08
-3.12811e-07
-3.58838e-07
-7.19347e-08
-2.05044e-07
-4.02338e-08
-2.59789e-08
-4.03392e-07
7.03919e-08
1.02642e-07
-3.21699e-07
1.74674e-08
4.40684e-07
-2.84274e-07
-1.04103e-07
4.80612e-07
-2.46166e-07
-1.84268e-07
5.50302e-07
-2.91414e-07
-2.38734e-07
5.63546e-07
-3.06465e-07
-2.77885e-07
6.42746e-07
-3.28821e-07
-2.95451e-07
6.89344e-07
-3.3847e-07
-3.03239e-07
7.46759e-07
-3.43671e-07
-3.04568e-07
7.96923e-07
-3.45542e-07
-3.04482e-07
8.41377e-07
-3.4294e-07
-3.0534e-07
8.77355e-07
-3.3642e-07
-3.08788e-07
9.05491e-07
-3.26982e-07
-3.13231e-07
9.26862e-07
-3.18754e-07
-3.18027e-07
9.43902e-07
-3.11236e-07
-3.23017e-07
9.58389e-07
-3.04358e-07
-3.28154e-07
9.71274e-07
-2.97884e-07
-3.33894e-07
9.82642e-07
-2.90755e-07
-3.39736e-07
9.93789e-07
-2.84241e-07
-3.45945e-07
1.00474e-06
-2.77909e-07
-3.54261e-07
1.0166e-06
-2.70774e-07
-3.66632e-07
1.02833e-06
-2.62394e-07
-3.85895e-07
1.04146e-06
-2.51905e-07
-4.14954e-07
1.05673e-06
-2.39199e-07
-4.57196e-07
1.07636e-06
-2.24004e-07
-5.11231e-07
1.09824e-06
-2.07897e-07
-5.70388e-07
1.12024e-06
-1.93665e-07
-6.21824e-07
1.14627e-06
-1.84384e-07
-6.52177e-07
1.18411e-06
-1.82435e-07
-6.6224e-07
1.25493e-06
-1.88693e-07
-6.83085e-07
1.39544e-06
-1.94504e-07
-7.91837e-07
1.66485e-06
-1.85848e-07
-1.06291e-06
2.12797e-06
-1.38599e-07
-1.53761e-06
2.80966e-06
-3.69511e-08
-1.96124e-06
3.08136e-06
6.02969e-08
-1.93449e-06
2.69578e-06
-1.1273e-07
-7.56885e-07
1.25085e-06
-3.87896e-07
1.69934e-06
1.65606e-06
-9.74419e-07
5.6472e-06
5.60312e-07
-1.85744e-06
8.54893e-06
-2.62568e-06
-2.681e-06
8.28468e-06
-1.1204e-07
-5.15652e-06
4.01381e-06
5.72742e-06
-6.32121e-06
-2.73493e-06
6.57814e-06
-5.16043e-06
-8.57651e-06
6.08124e-06
-5.07265e-06
-1.1479e-05
2.62971e-06
-6.86059e-06
-1.63727e-05
3.05465e-06
-5.64071e-06
2.87849e-06
-1.17706e-06
-1.31889e-05
9.36549e-07
2.37724e-06
-6.33089e-06
-2.78501e-06
1.92446e-05
-9.01902e-06
-5.60062e-05
1.64958e-06
-1.34966e-06
-0.000147697
1.33822e-05
9.27202e-08
-0.000150741
1.26707e-05
7.54269e-06
-0.000154301
1.27843e-05
1.35308e-06
-0.000157018
1.18706e-05
-1.92828e-06
-0.000155862
1.21759e-05
-5.07963e-06
-0.000155221
9.33236e-06
-5.46474e-06
-0.00015675
6.04056e-06
-1.47138e-06
-0.000160875
3.19666e-06
1.23575e-07
-0.000164978
2.94994e-06
6.02794e-07
-0.000168347
1.37521e-06
4.81741e-07
-0.000173229
-1.57339e-07
1.34773e-06
-0.000179051
-1.152e-06
1.16124e-06
-0.000183475
-3.47134e-06
6.96746e-07
-0.000186826
-4.14841e-06
4.83291e-07
-0.000189605
-3.68594e-06
4.01257e-07
-0.000191081
-3.28481e-06
-1.30177e-07
-0.000191521
-7.28431e-07
-7.54786e-07
-0.000191021
2.12975e-06
-1.59425e-06
-0.000189523
4.03167e-06
-3.51208e-06
-0.000186565
5.35355e-06
-5.33113e-06
-0.000181583
5.97133e-06
-7.01542e-06
-0.000174473
5.33722e-06
-7.8249e-06
-0.000164703
3.83702e-06
-7.2332e-06
-0.00015041
2.10243e-06
-5.76326e-06
-0.000120301
-9.52985e-08
-3.61895e-06
-5.4664e-05
-1.39612e-06
-6.07398e-07
-6.96057e-06
-1.13157e-06
7.04626e-07
-7.50564e-06
7.77948e-07
1.46707e-06
-9.63686e-06
3.39262e-06
1.31373e-06
-9.18862e-06
3.26331e-06
1.27094e-06
-4.51094e-05
1.30547e-06
1.00365e-06
-9.15887e-05
2.53401e-06
7.91747e-07
-5.16206e-05
3.95124e-06
1.01501e-06
-2.51261e-06
3.53575e-06
2.16882e-06
3.23709e-08
1.09534e-07
4.09254e-06
-1.16808e-05
8.09867e-06
-6.6146e-06
-1.25365e-06
1.53887e-06
-4.43816e-06
-4.71863e-06
-2.73429e-06
-4.02889e-06
-2.1216e-06
-1.64168e-06
-2.83579e-06
-3.23498e-06
-2.05993e-06
-2.48687e-06
-1.20048e-06
-1.38171e-06
-1.28787e-06
-2.0214e-06
-2.07683e-06
-8.73387e-07
-2.28514e-07
-1.23262e-06
-5.60787e-07
-5.82799e-07
-9.21195e-07
-3.87946e-07
4.27388e-07
-6.39487e-07
-2.60739e-07
2.28999e-07
-4.28167e-07
1.99255e-08
2.98635e-07
-6.05301e-07
5.10787e-08
5.21027e-07
-4.49563e-07
3.39503e-08
9.09112e-07
-4.51322e-07
-3.11985e-08
9.32023e-07
-3.86283e-07
-8.7736e-08
1.04165e-06
-4.34837e-07
-1.55616e-07
1.04289e-06
-4.11475e-07
-2.26096e-07
1.14247e-06
-4.29261e-07
-2.81103e-07
1.18321e-06
-4.38874e-07
-3.23061e-07
1.24198e-06
-4.53275e-07
-3.51327e-07
1.28913e-06
-4.63952e-07
-3.70391e-07
1.33102e-06
-4.70595e-07
-3.83343e-07
1.36599e-06
-4.75685e-07
-3.93349e-07
1.3956e-06
-4.80114e-07
-4.02358e-07
1.41988e-06
-4.84007e-07
-4.11409e-07
1.44091e-06
-4.87966e-07
-4.22135e-07
1.4605e-06
-4.91383e-07
-4.36081e-07
1.47941e-06
-4.94188e-07
-4.51499e-07
1.49561e-06
-4.97539e-07
-4.64976e-07
1.50725e-06
-4.99974e-07
-4.77595e-07
1.51796e-06
-5.00586e-07
-4.92026e-07
1.53055e-06
-4.99499e-07
-5.11559e-07
1.54471e-06
-4.96824e-07
-5.39991e-07
1.56201e-06
-4.92101e-07
-5.79996e-07
1.58262e-06
-4.8586e-07
-6.31938e-07
1.60763e-06
-4.7929e-07
-6.90555e-07
1.63262e-06
-4.75731e-07
-7.44238e-07
1.65156e-06
-4.77596e-07
-7.77891e-07
1.66623e-06
-4.86277e-07
-7.8329e-07
1.69045e-06
-5.00901e-07
-7.72305e-07
1.75742e-06
-5.13454e-07
-7.89782e-07
1.91733e-06
-5.04379e-07
-8.95194e-07
2.21232e-06
-4.42049e-07
-1.07512e-06
2.59684e-06
-2.88917e-07
-1.30525e-06
3.10605e-06
-6.6256e-08
-1.36941e-06
3.08571e-06
5.98566e-08
-4.77242e-07
1.96917e-06
-1.65536e-07
1.76875e-06
-2.90463e-07
-7.0462e-07
6.61151e-06
-2.21518e-06
-9.71494e-07
1.17964e-05
-1.3154e-06
-3.30911e-06
1.19001e-05
3.73164e-06
-6.46114e-06
1.02488e-05
6.9976e-06
-5.45832e-06
3.72233e-06
1.20376e-05
2.16277e-07
-9.91817e-06
1.65475e-05
3.67121e-06
-2.43038e-05
1.88306e-05
1.63632e-06
-3.68716e-05
1.80255e-05
-2.82788e-06
-3.35545e-05
4.80408e-06
-5.06641e-06
-2.10901e-05
-5.96946e-06
-7.67264e-06
-2.84844e-05
1.2513e-05
-2.74098e-06
-4.15945e-06
-2.04114e-06
-5.15686e-06
-6.36932e-05
5.07889e-06
-5.00151e-06
-0.000172373
2.63069e-05
3.21524e-06
-0.000171599
1.58954e-05
7.95898e-06
-0.000173828
1.63386e-05
7.47105e-07
-0.000173505
1.34697e-05
-2.64664e-06
-0.00016935
1.53297e-05
-5.76428e-06
-0.000167296
9.03355e-06
-3.00805e-06
-0.00017042
5.83017e-06
2.8482e-06
-0.000177535
3.60145e-06
5.27624e-06
-0.000184314
2.8804e-06
5.94759e-06
-0.000188444
-4.16155e-07
5.89402e-06
-0.000192787
-6.0437e-07
4.70054e-06
-0.000198375
6.27915e-07
3.20846e-06
-0.000203412
2.66685e-07
1.46305e-06
-0.000207369
6.8049e-07
-5.83814e-08
-0.000211486
1.73868e-06
-1.11594e-06
-0.000215689
2.40773e-06
-2.17753e-06
-0.000218526
4.55368e-06
-2.36995e-06
-0.000219748
5.79823e-06
-3.03211e-06
-0.000218627
6.85813e-06
-4.33957e-06
-0.000215016
6.26401e-06
-4.9467e-06
-0.000209595
4.97457e-06
-5.25934e-06
-0.000203597
3.58157e-06
-4.91296e-06
-0.000197904
1.69281e-06
-3.94757e-06
-0.000191847
6.62699e-07
-2.31011e-06
-0.000180332
-1.25368e-06
-1.61837e-06
-0.000148585
-2.50113e-06
-1.18039e-06
-7.21216e-05
-2.263e-06
-2.73862e-07
-1.56854e-05
-2.27286e-06
1.63194e-06
-1.17631e-05
-1.47977e-06
2.86404e-06
-7.06546e-06
-3.73338e-06
3.73578e-06
-3.14103e-06
-6.45456e-06
4.05737e-06
-8.20111e-07
-4.39177e-06
3.65679e-06
1.64246e-06
-1.16669e-06
2.65246e-06
4.74851e-06
-1.70394e-06
2.69679e-06
-2.0758e-05
-5.28707e-06
3.72277e-06
-1.17274e-05
6.95812e-06
-6.2966e-06
9.52599e-07
4.35228e-06
-3.93321e-06
-4.36414e-06
-2.71789e-06
-3.30492e-06
-8.38704e-07
-1.91118e-06
-2.47875e-06
-2.45292e-06
-1.60822e-06
-2.29732e-06
-2.76255e-07
-1.10566e-06
-1.63683e-06
-1.23277e-06
-1.44912e-06
-1.42634e-06
2.32111e-07
-6.71127e-07
-8.69646e-07
-2.7117e-07
-8.68336e-07