/*--------------------------------*- C++ -*----------------------------------*\
| =========                 |                                                 |
| \\      /  F ield         | OpenFOAM: The Open Source CFD Toolbox           |
|  \\    /   O peration     | Version:  2.3.0                                 |
|   \\  /    A nd           | Web:      www.OpenFOAM.org                      |
|    \\/     M anipulation  |                                                 |
\*---------------------------------------------------------------------------*/
FoamFile
{
    version     2.0;
    format      ascii;
    class       surfaceScalarField;
    location    "16";
    object      phi.water;
}
// * * * * * * * * * * * * * * * * * * * * * * * * * * * * * * * * * * * * * //

dimensions      [0 3 -1 0 0 0 0];

internalField   nonuniform List<scalar> 
16448
(
-1.12523e-06
-2.87342e-06
8.0612e-07
9.07073e-07
-2.7317e-06
7.08851e-07
1.36929e-06
-1.23519e-06
7.78381e-07
1.85071e-06
-1.15174e-06
6.72475e-07
1.71219e-06
-3.5368e-07
4.97401e-07
1.62383e-06
-3.64989e-07
4.56058e-07
1.2489e-06
-1.29959e-07
5.06083e-07
9.17087e-07
-2.30605e-07
5.62015e-07
4.40893e-07
-2.04186e-07
6.80603e-07
3.12095e-08
-2.6238e-07
6.72059e-07
-2.77351e-07
-3.18777e-07
6.27596e-07
-4.01636e-07
-4.18778e-07
5.43228e-07
-3.87563e-07
-5.05887e-07
4.92127e-07
-2.96668e-07
-5.62365e-07
4.71715e-07
-1.98961e-07
-5.85217e-07
4.87805e-07
-1.11342e-07
-5.95203e-07
5.07842e-07
-4.56196e-08
-5.97614e-07
5.32166e-07
3.90206e-09
-5.98612e-07
5.49342e-07
3.83744e-08
-5.98296e-07
5.64096e-07
6.27254e-08
-5.97289e-07
5.73183e-07
7.95151e-08
-5.96117e-07
5.79575e-07
9.09269e-08
-5.93989e-07
5.8282e-07
9.91498e-08
-5.92378e-07
5.84404e-07
1.05301e-07
-5.90202e-07
5.84296e-07
1.09511e-07
-5.8774e-07
5.83778e-07
1.12551e-07
-5.85319e-07
5.8252e-07
1.14304e-07
-5.82576e-07
5.81073e-07
1.15792e-07
-5.80554e-07
5.79322e-07
1.17366e-07
-5.7861e-07
5.77294e-07
1.1841e-07
-5.76292e-07
5.75504e-07
1.19598e-07
-5.74704e-07
5.73785e-07
1.19849e-07
-5.72443e-07
5.72446e-07
1.21734e-07
-5.72344e-07
5.70738e-07
1.20499e-07
-5.6876e-07
5.70241e-07
1.25401e-07
-5.71815e-07
5.67218e-07
1.21965e-07
-5.64864e-07
5.68528e-07
1.33198e-07
-5.72986e-07
5.62093e-07
1.28311e-07
-5.61231e-07
5.66306e-07
1.46849e-07
-5.72831e-07
5.54691e-07
1.46748e-07
-5.60156e-07
5.60366e-07
1.7587e-07
-5.69562e-07
5.40968e-07
2.03637e-07
-5.6818e-07
5.40361e-07
2.51805e-07
-5.66582e-07
5.19231e-07
3.33054e-07
-5.92302e-07
5.10636e-07
3.96159e-07
-5.63464e-07
5.01706e-07
4.94542e-07
-6.04401e-07
5.049e-07
4.51292e-07
-5.01811e-07
5.47148e-07
3.60032e-07
-4.95729e-07
5.85012e-07
1.37618e-07
-3.6051e-07
5.89134e-07
-1.51091e-07
-4.11491e-07
7.03842e-07
3.15767e-07
-1.20014e-06
7.62792e-07
-1.23779e-07
-5.75852e-07
1.01911e-06
3.74311e-07
-1.47408e-06
1.12278e-06
1.13313e-07
-1.24173e-06
1.48656e-06
-8.34465e-07
-6.05927e-07
1.98471e-06
-2.06225e-06
-2.58027e-06
3.59147e-06
-4.41013e-07
2.06875e-07
-3.22494e-07
-3.17047e-06
2.03202e-06
5.19477e-09
2.05472e-06
2.88178e-06
7.12514e-07
2.75091e-05
-2.00401e-05
1.44046e-05
2.05931e-05
-2.51345e-05
6.02216e-06
2.41151e-05
-8.50384e-06
3.26868e-06
2.25536e-05
1.05654e-06
4.99776e-07
2.43347e-05
-1.40748e-06
-3.73691e-07
2.5527e-05
-3.18302e-07
-8.73933e-07
2.64063e-05
6.21193e-07
-1.50049e-06
2.71384e-05
1.02087e-06
-1.75302e-06
2.77704e-05
1.17226e-06
-1.80425e-06
2.82199e-05
1.24991e-06
-1.69941e-06
2.84663e-05
1.27125e-06
-1.51762e-06
2.85677e-05
1.22632e-06
-1.32775e-06
2.85871e-05
1.1337e-06
-1.15316e-06
2.85775e-05
1.00463e-06
-9.95e-07
2.85714e-05
8.78019e-07
-8.71953e-07
2.85613e-05
7.51978e-07
-7.41791e-07
2.85381e-05
6.6289e-07
-6.39786e-07
2.84795e-05
5.94865e-07
-5.36203e-07
2.83551e-05
5.71297e-07
-4.46907e-07
2.81156e-05
6.02444e-07
-3.6294e-07
2.77163e-05
6.69663e-07
-2.70379e-07
2.70749e-05
8.26936e-07
-1.85539e-07
2.61155e-05
1.00902e-06
-4.95943e-08
2.48222e-05
1.25452e-06
3.87118e-08
2.29857e-05
1.54649e-06
2.89988e-07
2.07473e-05
1.86698e-06
3.7149e-07
1.7872e-05
2.11532e-06
7.59995e-07
1.4504e-05
2.37242e-06
9.95479e-07
1.00295e-05
2.83465e-06
1.63991e-06
4.20409e-06
3.0865e-06
2.7389e-06
-7.86658e-07
2.67174e-06
2.319e-06
-3.9728e-06
1.24765e-06
1.9385e-06
-5.96427e-06
8.33781e-08
1.9081e-06
-7.16078e-06
-1.96185e-08
1.21612e-06
-6.49508e-06
3.48889e-07
-1.01458e-06
-4.19847e-06
4.85599e-07
-2.78221e-06
2.01822e-07
-4.40029e-06
-3.21128e-06
-4.52499e-06
3.78879e-08
-1.41761e-06
-4.36069e-06
-1.56543e-07
-5.61488e-07
-2.52551e-06
4.38668e-07
4.22887e-07
-2.35411e-06
2.22616e-07
8.4022e-07
-7.76311e-07
1.44963e-08
1.03275e-06
-6.15667e-07
6.33121e-08
8.11786e-07
4.73687e-09
8.7851e-08
4.71515e-07
-1.30216e-07
2.38737e-07
5.05952e-08
-7.31893e-08
2.89495e-07
-3.26334e-07
-1.85173e-07
2.9939e-07
-5.78131e-07
-2.69954e-07
2.03117e-07
-6.31934e-07
-4.66478e-07
1.01404e-07
-5.6141e-07
-6.2049e-07
4.41421e-08
-4.31921e-07
-7.10956e-07
1.90778e-08
-3.05829e-07
-7.36164e-07
2.4908e-08
-1.98378e-07
-7.39197e-07
3.65888e-08
-1.18328e-07
-7.29195e-07
5.16221e-08
-5.86618e-08
-7.19682e-07
6.1494e-08
-1.71221e-08
-7.08877e-07
6.91389e-08
1.19898e-08
-6.99887e-07
7.3572e-08
3.15736e-08
-6.9173e-07
7.61223e-08
4.49463e-08
-6.8409e-07
7.6817e-08
5.38042e-08
-6.77627e-07
7.64868e-08
5.99481e-08
-6.71477e-07
7.52243e-08
6.36925e-08
-6.6544e-07
7.40399e-08
6.58241e-08
-6.59737e-07
7.23735e-08
6.69779e-08
-6.53987e-07
7.03533e-08
6.78349e-08
-6.49544e-07
6.82308e-08
6.82957e-08
-6.451e-07
6.6118e-08
6.83656e-08
-6.40678e-07
6.4407e-08
6.86601e-08
-6.37511e-07
6.26148e-08
6.79603e-08
-6.32811e-07
6.11522e-08
6.89022e-08
-6.3221e-07
5.90264e-08
6.60349e-08
-6.2479e-07
5.89607e-08
7.12618e-08
-6.31722e-07
5.48052e-08
6.44465e-08
-6.15942e-07
5.7927e-08
8.03228e-08
-6.37327e-07
4.86076e-08
6.60796e-08
-6.05101e-07
5.80921e-08
1.00163e-07
-6.46563e-07
3.97969e-08
7.81264e-08
-5.96253e-07
5.81034e-08
1.35678e-07
-6.55753e-07
2.88974e-08
1.3459e-07
-6.13219e-07
4.59776e-08
2.23465e-07
-6.75482e-07
2.05207e-08
2.83857e-07
-6.67556e-07
1.4231e-08
3.94153e-07
-6.99111e-07
2.64482e-08
5.16185e-07
-7.28692e-07
8.70277e-10
5.51617e-07
-6.08889e-07
7.3651e-08
6.82886e-07
-6.44087e-07
1.46359e-08
6.03341e-07
-3.87453e-07
1.11893e-07
9.79548e-07
-7.36264e-07
-4.85796e-08
8.64598e-07
-1.37475e-06
3.21009e-07
1.1266e-06
-1.0986e-06
2.76497e-07
-1.65291e-07
-7.52885e-07
7.39321e-07
-2.67857e-06
-1.72861e-07
1.42511e-06
4.74395e-07
-2.8581e-06
-4.60866e-07
3.08973e-06
-7.11067e-06
1.65289e-06
-9.22668e-07
7.50593e-06
-1.85891e-06
-8.94896e-06
1.02213e-05
-1.12469e-06
3.90732e-06
6.32322e-06
-6.50034e-06
2.70061e-05
-3.26581e-05
5.83804e-06
4.38757e-06
-3.52089e-05
7.11696e-06
2.96884e-06
-9.98278e-06
1.33197e-06
1.25533e-05
-4.25475e-06
-4.27403e-06
1.48063e-05
-1.83523e-07
-3.47701e-06
1.63926e-05
1.84497e-06
-3.7495e-06
1.8977e-05
2.13625e-06
-4.09947e-06
2.12732e-05
2.58091e-06
-3.85631e-06
2.29265e-05
2.89405e-06
-3.37504e-06
2.40566e-05
2.96652e-06
-2.8468e-06
2.48187e-05
2.86377e-06
-2.35453e-06
2.53485e-05
2.63449e-06
-1.93803e-06
2.57341e-05
2.342e-06
-1.59393e-06
2.60383e-05
2.01605e-06
-1.31562e-06
2.63004e-05
1.69367e-06
-1.0777e-06
2.65266e-05
1.40581e-06
-8.80049e-07
2.67224e-05
1.17977e-06
-7.12704e-07
2.68679e-05
1.01971e-06
-5.70305e-07
2.69519e-05
9.39185e-07
-4.51934e-07
2.69085e-05
9.7756e-07
-3.31684e-07
2.67303e-05
1.09032e-06
-2.42429e-07
2.63191e-05
1.36456e-06
-1.2642e-07
2.55716e-05
1.75644e-06
1.2091e-11
2.4432e-05
2.23076e-06
1.63334e-07
2.27149e-05
2.85463e-06
4.08995e-07
2.05405e-05
3.56837e-06
4.73045e-07
1.77423e-05
4.08588e-06
8.27605e-07
1.45803e-05
4.53412e-06
1.00028e-06
1.07938e-05
5.1031e-06
1.51805e-06
5.49384e-06
5.98369e-06
2.40279e-06
4.93084e-07
5.6917e-06
1.9808e-06
-2.8256e-06
3.05572e-06
1.51061e-06
-5.12267e-06
7.67011e-07
1.61343e-06
-6.48735e-06
2.85624e-07
1.05944e-06
-5.91855e-06
1.00481e-06
-1.22472e-06
-3.88612e-06
1.74469e-06
-3.29153e-06
1.73233e-06
-5.41663e-06
-4.73395e-06
-5.20475e-06
-2.8392e-07
-3.44641e-06
-5.22378e-06
-4.21014e-07
-2.61182e-06
-3.63269e-06
2.78972e-07
-1.16926e-06
-3.68921e-06
-9.4566e-08
-2.08429e-07
-1.76841e-06
3.92481e-08
3.62869e-07
-1.28505e-06
1.02848e-07
4.30693e-07
1.78389e-08
-7.57956e-08
1.07082e-07
7.62009e-08
1.17216e-07
-2.49227e-07
1.96984e-07
8.56736e-08
-5.3906e-07
-1.56061e-08
1.1987e-07
-7.14059e-07
-1.2023e-07
2.55427e-08
-7.17436e-07
-3.7384e-07
-8.92977e-08
-6.30551e-07
-5.37805e-07
-1.69399e-07
-5.06172e-07
-6.23257e-07
-2.12039e-07
-3.85242e-07
-6.28271e-07
-2.28734e-07
-2.81787e-07
-6.13163e-07
-2.29426e-07
-2.01559e-07
-5.85844e-07
-2.23488e-07
-1.41283e-07
-5.61787e-07
-2.18094e-07
-9.81197e-08
-5.37964e-07
-2.13998e-07
-6.75307e-08
-5.18213e-07
-2.12198e-07
-4.61468e-08
-5.00959e-07
-2.12087e-07
-3.11919e-08
-4.857e-07
-2.13286e-07
-2.10646e-08
-4.72677e-07
-2.15009e-07
-1.38817e-08
-4.61399e-07
-2.17199e-07
-9.26841e-09
-4.50888e-07
-2.19112e-07
-6.87799e-09
-4.40836e-07
-2.21245e-07
-5.72929e-09
-4.31673e-07
-2.23399e-07
-5.13858e-09
-4.24245e-07
-2.25824e-07
-5.28303e-09
-4.16752e-07
-2.28143e-07
-5.44402e-09
-4.10168e-07
-2.30279e-07
-5.83971e-09
-4.04635e-07
-2.32398e-07
-6.09519e-09
-3.98488e-07
-2.34009e-07
-7.13235e-09
-3.9611e-07
-2.34965e-07
-7.49566e-09
-3.88232e-07
-2.36166e-07
-6.93011e-09
-3.93572e-07
-2.38556e-07
-7.70799e-09
-3.77573e-07
-2.37651e-07
-3.99012e-10
-4.01007e-07
-2.43304e-07
-2.53008e-09
-3.65673e-07
-2.37602e-07
1.89673e-08
-4.18183e-07
-2.49352e-07
1.38294e-08
-3.55947e-07
-2.35659e-07
6.83177e-08
-4.50093e-07
-2.59629e-07
5.58209e-08
-3.68402e-07
-2.32574e-07
1.57738e-07
-5.07082e-07
-2.6983e-07
1.55769e-07
-4.32035e-07
-2.3389e-07
2.85572e-07
-5.7141e-07
-2.5665e-07
3.19931e-07
-5.22349e-07
-2.41788e-07
3.89919e-07
-4.74535e-07
-2.0262e-07
4.79846e-07
-4.86829e-07
-2.49264e-07
5.06465e-07
-2.24405e-07
-1.83871e-07
9.80574e-07
-8.18333e-07
-3.88032e-07
5.67975e-07
-9.25699e-07
-4.5822e-09
6.10207e-07
-1.13322e-06
2.26527e-08
-2.42768e-07
4.12529e-08
2.23879e-07
-2.85643e-06
2.09819e-06
3.11517e-07
1.67669e-06
-5.01059e-06
-1.75408e-06
3.98981e-07
-7.95476e-06
1.82196e-06
6.66153e-06
5.68598e-06
-2.36115e-06
3.51436e-06
1.46503e-05
-2.75257e-06
7.22687e-06
1.5326e-05
-3.19356e-06
2.38436e-05
-3.521e-05
2.32745e-06
-2.7447e-06
-3.94765e-05
8.12089e-06
-2.55352e-06
-1.24245e-05
1.39283e-06
6.73019e-06
-1.14095e-05
-2.129e-06
7.58794e-06
1.3783e-06
-2.41958e-06
1.1412e-05
1.3104e-06
-3.28954e-06
1.45636e-05
2.03692e-06
-3.05225e-06
1.66701e-05
2.94178e-06
-2.46733e-06
1.80719e-05
3.4521e-06
-1.95988e-06
1.8978e-05
3.48407e-06
-1.42363e-06
1.95513e-05
3.19721e-06
-9.06807e-07
1.99408e-05
2.71374e-06
-4.68687e-07
2.02807e-05
2.12728e-06
-1.25243e-07
2.06134e-05
1.51652e-06
1.66872e-07
2.09248e-05
9.7688e-07
4.05361e-07
2.12118e-05
5.79667e-07
5.39181e-07
2.14794e-05
3.01448e-07
6.10676e-07
2.17257e-05
1.52169e-07
6.21259e-07
2.19504e-05
1.34155e-07
5.80269e-07
2.21326e-05
2.63012e-07
5.32361e-07
2.22154e-05
5.48849e-07
4.58733e-07
2.2109e-05
1.06724e-06
4.03716e-07
2.17054e-05
1.77371e-06
3.86313e-07
2.0928e-05
2.59545e-06
4.12694e-07
1.9649e-05
3.595e-06
5.38642e-07
1.78637e-05
4.68584e-06
6.6781e-07
1.5508e-05
5.53836e-06
9.0317e-07
1.27629e-05
6.18533e-06
1.09398e-06
8.74639e-06
7.34317e-06
1.7764e-06
3.62195e-06
8.56407e-06
2.54406e-06
-2.6166e-07
7.47165e-06
2.10365e-06
-2.70638e-06
3.95572e-06
1.54471e-06
-4.73682e-06
1.44469e-06
1.35276e-06
-5.86909e-06
7.95013e-07
6.22883e-07
-5.39831e-06
1.84761e-06
-1.31357e-06
-3.6049e-06
3.28933e-06
-3.33805e-06
3.95478e-06
-5.82735e-06
-5.3552e-06
-5.41818e-06
-2.86291e-07
-4.03596e-06
-5.6644e-06
-8.77808e-07
-3.60393e-06
-4.15441e-06
9.57294e-08
-2.47085e-06
-4.44994e-06
-3.65053e-07
-1.69982e-06
-2.65863e-06
1.24799e-07
-6.7507e-07
-2.38759e-06
8.66165e-08
9.66784e-09
-6.16988e-07
-4.06753e-08
-9.7869e-09
-5.58192e-08
1.54631e-07
-2.60383e-07
3.66613e-07
8.09815e-08
-5.33243e-07
1.52295e-07
1.04541e-07
-6.56001e-07
-8.27948e-09
1.11401e-08
-6.39875e-07
-2.75884e-07
-1.14017e-07
-5.78904e-07
-3.92116e-07
-2.06253e-07
-4.9692e-07
-4.42985e-07
-2.61996e-07
-4.09193e-07
-4.19195e-07
-2.96471e-07
-3.23876e-07
-3.8346e-07
-3.14731e-07
-2.50587e-07
-3.38058e-07
-3.20772e-07
-1.92803e-07
-2.97739e-07
-3.21526e-07
-1.48717e-07
-2.61043e-07
-3.20702e-07
-1.16981e-07
-2.29946e-07
-3.19704e-07
-9.43431e-08
-2.03478e-07
-3.1982e-07
-7.8907e-08
-1.80848e-07
-3.19985e-07
-6.84673e-08
-1.62256e-07
-3.20554e-07
-6.12573e-08
-1.46426e-07
-3.21875e-07
-5.66052e-08
-1.32284e-07
-3.2296e-07
-5.41546e-08
-1.1923e-07
-3.23752e-07
-5.32376e-08
-1.08233e-07
-3.24043e-07
-5.32794e-08
-9.90401e-08
-3.24844e-07
-5.40884e-08
-9.01603e-08
-3.25473e-07
-5.51539e-08
-8.26841e-08
-3.26101e-07
-5.6726e-08
-7.60348e-08
-3.26713e-07
-5.78762e-08
-6.96727e-08
-3.27361e-07
-6.00677e-08
-6.54528e-08
-3.28143e-07
-6.00093e-08
-5.90267e-08
-3.28982e-07
-6.15243e-08
-6.2062e-08
-3.29628e-07
-5.94782e-08
-5.02372e-08
-3.29169e-07
-5.58031e-08
-7.06599e-08
-3.33564e-07
-5.15847e-08
-4.0702e-08
-3.29128e-07
-3.48461e-08
-9.45162e-08
-3.39742e-07
-3.07266e-08
-3.3271e-08
-3.27038e-07
1.47723e-08
-1.43528e-07
-3.50992e-07
5.02002e-09
-4.04876e-08
-3.18791e-07
9.83831e-08
-2.3322e-07
-3.66199e-07
4.07415e-08
-7.61146e-08
-2.98684e-07
1.58222e-07
-3.27075e-07
-3.60492e-07
5.34449e-08
-1.40385e-07
-2.77931e-07
1.62977e-07
-2.45261e-07
-3.37117e-07
6.03712e-08
-1.24974e-07
-2.60672e-07
1.99273e-07
5.90031e-10
-3.57004e-07
1.02647e-07
-4.12024e-07
-3.04447e-07
-7.31986e-08
-4.52434e-07
-2.62399e-07
-4.28144e-07
-6.56865e-07
-1.14606e-07
5.77674e-07
-6.52907e-07
-1.3343e-07
4.41412e-07
1.42111e-06
8.32487e-07
2.61188e-06
-3.56316e-06
-2.99343e-06
-1.1692e-06
-4.08517e-06
-3.06545e-07
8.46978e-06
1.17148e-06
-3.17276e-06
1.0494e-05
1.98472e-05
-8.52987e-06
2.78017e-05
1.0368e-05
1.679e-06
3.11151e-05
-2.90608e-05
4.78756e-06
-3.30516e-06
-4.12604e-05
9.97735e-06
-8.76131e-06
-1.12197e-05
3.01559e-06
-7.96162e-06
-1.27865e-05
5.773e-07
-3.24083e-06
1.46868e-07
-3.48937e-06
3.16542e-06
-9.49454e-07
-4.1464e-06
6.3855e-06
1.30049e-06
-2.48365e-06
8.67583e-06
1.69361e-06
-1.04215e-06
1.01806e-05
2.15385e-06
-2.0648e-07
1.09879e-05
2.09386e-06
5.82812e-07
1.12663e-05
1.70754e-06
1.21127e-06
1.12088e-05
1.11644e-06
1.65483e-06
1.09609e-05
4.13071e-07
1.96216e-06
1.06565e-05
-3.2069e-07
2.14155e-06
1.03867e-05
-9.07217e-07
2.15389e-06
1.01576e-05
-1.19882e-06
2.00762e-06
1.01076e-05
-1.44183e-06
1.79331e-06
1.02506e-05
-1.4976e-06
1.50668e-06
1.05618e-05
-1.38654e-06
1.20957e-06
1.10504e-05
-1.1485e-06
9.22888e-07
1.16397e-05
-7.00751e-07
6.60292e-07
1.22611e-05
-6.72618e-09
4.52535e-07
1.27484e-05
1.00008e-06
2.86308e-07
1.29184e-05
2.21027e-06
2.15179e-07
1.2564e-05
3.60467e-06
3.44744e-07
1.15157e-05
5.03405e-06
7.0011e-07
9.29937e-06
6.428e-06
1.32669e-06
5.71857e-06
7.70638e-06
2.05974e-06
1.58772e-06
8.81853e-06
2.65549e-06
-1.21545e-06
8.77498e-06
2.59225e-06
-2.14361e-06
6.35068e-06
2.04914e-06
-3.00515e-06
3.43275e-06
1.38451e-06
-4.3114e-06
1.84337e-06
9.07577e-07
-5.01793e-06
1.60258e-06
-1.01033e-07
-4.64636e-06
3.06852e-06
-1.59249e-06
-3.25724e-06
5.3519e-06
-3.45168e-06
6.70667e-06
-6.00913e-06
-5.60837e-06
-5.26108e-06
-2.5397e-07
-4.26582e-06
-5.75491e-06
-1.25329e-06
-4.03228e-06
-4.28314e-06
-9.91799e-08
-2.84346e-06
-4.73618e-06
-8.99122e-07
-2.3242e-06
-2.8833e-06
-2.90077e-07
-1.42941e-06
-3.02692e-06
-2.46429e-07
-7.43091e-07
-1.30737e-06
1.37268e-08
-3.41902e-07
-5.69919e-07
1.19628e-07
-2.59034e-07
2.21306e-07
6.56159e-08
-3.89019e-07
2.40542e-07
4.12589e-08
-4.16435e-07
8.19753e-08
-6.25597e-08
-4.04377e-07
-1.40779e-07
-1.47274e-07
-3.99458e-07
-1.88754e-07
-2.08086e-07
-3.83968e-07
-2.13784e-07
-2.44683e-07
-3.55541e-07
-1.65078e-07
-2.82422e-07
-3.08154e-07
-1.19815e-07
-3.10966e-07
-2.56004e-07
-6.36534e-08
-3.26442e-07
-2.06137e-07
-1.44364e-08
-3.33067e-07
-1.65204e-07
3.38027e-08
-3.3567e-07
-1.34703e-07
7.5724e-08
-3.36087e-07
-1.13539e-07
1.10301e-07
-3.34867e-07
-9.91996e-08
1.38069e-07
-3.33196e-07
-8.90223e-08
1.59639e-07
-3.32005e-07
-8.21222e-08
1.77277e-07
-3.30548e-07
-7.80947e-08
1.92404e-07
-3.28669e-07
-7.6287e-08
2.05647e-07
-3.26643e-07
-7.56753e-08
2.15928e-07
-3.24714e-07
-7.67341e-08
2.24747e-07
-3.22677e-07
-7.86238e-08
2.32462e-07
-3.2067e-07
-8.09725e-08
2.38477e-07
-3.18755e-07
-8.38547e-08
2.43611e-07
-3.16703e-07
-8.63232e-08
2.47887e-07
-3.15044e-07
-9.00606e-08
2.51516e-07
-3.13154e-07
-9.17136e-08
2.54502e-07
-3.11841e-07
-9.45252e-08
2.51745e-07
-3.10867e-07
-9.32182e-08
2.57755e-07
-3.09319e-07
-9.28475e-08
2.39336e-07
-3.10149e-07
-8.88226e-08
2.60437e-07
-3.05328e-07
-7.82878e-08
2.06316e-07
-3.1098e-07
-7.25603e-08
2.57806e-07
-2.97189e-07
-4.27043e-08
1.40461e-07
-3.13064e-07
-4.88272e-08
2.45537e-07
-2.80748e-07
-1.14803e-08
4.07594e-08
-3.0995e-07
-4.61204e-08
2.16937e-07
-2.59897e-07
-6.79064e-08
-1.01277e-08
-2.93034e-07
-1.24554e-07
1.8115e-07
-2.66952e-07
-1.79771e-07
1.15634e-07
-3.02874e-07
-1.67205e-07
1.56475e-07
-2.97072e-07
7.01299e-08
1.80383e-07
-4.08916e-07
3.22866e-08
-2.05362e-08
-3.48096e-07
-2.78093e-07
9.6818e-08
-2.00354e-07
-8.1866e-07
1.12071e-07
-2.18566e-07
-8.09326e-07
-5.88328e-07
4.38153e-08
1.61548e-06
-8.4835e-07
-1.24261e-07
9.15992e-07
6.48742e-07
-2.88575e-06
-3.98656e-06
4.72747e-06
-4.04883e-06
6.51235e-06
-1.27448e-06
-6.62285e-06
1.54801e-05
1.96056e-05
-8.95886e-06
4.1392e-05
-9.02106e-06
1.47431e-05
3.34957e-05
-1.74847e-05
6.01173e-06
-1.11957e-05
-3.8836e-05
1.06909e-05
-1.56157e-05
-1.10462e-05
3.6601e-06
-1.78329e-05
-1.1957e-05
1.38594e-06
-1.23618e-05
-4.16142e-06
-1.16388e-06
-9.31899e-06
-2.62009e-06
-1.37246e-06
-7.37355e-06
-8.05922e-07
1.60848e-07
-6.42145e-06
-3.41006e-07
1.08241e-06
-6.27839e-06
1.80337e-07
1.83028e-06
-6.95958e-06
2.85587e-07
2.48946e-06
-8.31137e-06
9.93536e-08
2.9601e-06
-1.0038e-05
-3.49366e-07
3.19267e-06
-1.1698e-05
-1.08489e-06
3.1579e-06
-1.28823e-05
-1.8987e-06
2.76217e-06
-1.34867e-05
-2.41344e-06
2.11062e-06
-1.35427e-05
-2.58871e-06
1.44598e-06
-1.27723e-05
-3.15235e-06
9.4013e-07
-1.15862e-05
-3.19759e-06
5.13883e-07
-1.02458e-05
-3.00802e-06
2.81046e-07
-8.85168e-06
-2.70933e-06
1.66716e-07
-7.55562e-06
-2.15554e-06
1.58728e-07
-6.42838e-06
-1.37912e-06
2.45155e-07
-5.62716e-06
-2.38686e-07
4.37541e-07
-5.08109e-06
9.25997e-07
7.38207e-07
-4.86911e-06
2.26322e-06
1.12947e-06
-5.08318e-06
3.66103e-06
1.58709e-06
-5.5564e-06
4.88595e-06
2.01526e-06
-5.86985e-06
5.72502e-06
2.29482e-06
-5.48095e-06
6.13917e-06
2.29046e-06
-4.25622e-06
5.63948e-06
1.91077e-06
-3.1896e-06
4.09501e-06
1.18905e-06
-2.9729e-06
2.91845e-06
2.97597e-07
-3.49563e-06
2.67059e-06
-3.04485e-07
-4.15223e-06
3.33746e-06
-1.07829e-06
-3.9195e-06
4.97957e-06
-2.1438e-06
-2.81509e-06
7.79008e-06
-3.54259e-06
9.94544e-06
-6.05386e-06
-6.07889e-06
-4.78557e-06
-8.05343e-08
-4.71125e-06
-5.83845e-06
-1.28662e-06
-4.45111e-06
-4.22722e-06
-3.10645e-07
-2.84575e-06
-4.84259e-06
-1.4981e-06
-2.31022e-06
-2.55987e-06
-8.55157e-07
-1.4944e-06
-2.96349e-06
-8.70169e-07
-1.01689e-06
-1.42435e-06
-3.49835e-07
-6.57536e-07
-9.69342e-07
4.60177e-08
-4.74293e-07
2.01289e-08
2.25403e-08
-3.10955e-07
1.55924e-07
-7.6224e-08
-1.08359e-07
1.06252e-07
-2.26413e-07
-5.89594e-08
5.15814e-08
-2.4169e-07
-1.0978e-07
1.21081e-07
-2.58603e-07
-1.77041e-07
1.16251e-07
-2.62598e-07
-2.19983e-07
1.69603e-07
-2.91381e-07
-2.25766e-07
2.02528e-07
-3.16306e-07
-2.11633e-07
2.57395e-07
-3.3489e-07
-1.90516e-07
3.10213e-07
-3.45499e-07
-1.6882e-07
3.61229e-07
-3.48835e-07
-1.50941e-07
4.05887e-07
-3.47728e-07
-1.38428e-07
4.42304e-07
-3.4419e-07
-1.30579e-07
4.70549e-07
-3.39989e-07
-1.26708e-07
4.9142e-07
-3.35308e-07
-1.2554e-07
5.06926e-07
-3.3046e-07
-1.26433e-07
5.18993e-07
-3.25343e-07
-1.28677e-07
5.28116e-07
-3.19845e-07
-1.31455e-07
5.33772e-07
-3.14681e-07
-1.34862e-07
5.37573e-07
-3.09026e-07
-1.38439e-07
5.39842e-07
-3.03413e-07
-1.42213e-07
5.40739e-07
-2.9809e-07
-1.4613e-07
5.40896e-07
-2.92987e-07
-1.49568e-07
5.40014e-07
-2.88302e-07
-1.5359e-07
5.39381e-07
-2.83448e-07
-1.55825e-07
5.36982e-07
-2.79873e-07
-1.60463e-07
5.33231e-07
-2.76415e-07
-1.60317e-07
5.3121e-07
-2.73288e-07
-1.64258e-07
5.16448e-07
-2.72652e-07
-1.58977e-07
5.21651e-07
-2.66338e-07
-1.57984e-07
4.78443e-07
-2.72437e-07
-1.48017e-07
5.04329e-07
-2.56574e-07
-1.48186e-07
4.13477e-07
-2.71849e-07
-1.44875e-07
4.84739e-07
-2.42973e-07
-1.96824e-07
3.51118e-07
-2.56967e-07
-2.06194e-07
4.63713e-07
-2.38434e-07
-3.76778e-07
3.86871e-07
-2.24264e-07
-3.84071e-07
4.58401e-07
-2.7186e-07
-4.66612e-07
4.82844e-07
-2.81373e-07
-3.42367e-07
3.67864e-07
-3.38903e-07
2.14671e-07
1.97622e-07
-5.6716e-07
7.55909e-07
-1.93219e-08
-5.39017e-07
8.40113e-07
3.95295e-07
-3.41989e-07
1.14891e-06
3.07967e-07
-4.86189e-07
7.46972e-07
-3.21806e-07
2.58159e-07
1.99889e-06
-1.92805e-06
-1.33567e-07
2.20381e-06
3.42303e-06
-2.27617e-06
-4.55146e-07
1.1667e-05
-4.36718e-06
6.63929e-06
-1.38212e-07
-7.41927e-06
2.91192e-05
7.95078e-06
-1.11687e-05
4.02776e-05
-1.44721e-05
2.05424e-05
2.87394e-05
-9.98842e-06
5.74947e-06
-2.44545e-05
-2.87697e-05
1.36519e-05
-3.192e-05
-8.75424e-06
5.00683e-06
-3.8744e-05
-6.37068e-06
1.19373e-06
-3.85882e-05
-3.44287e-06
-9.02485e-07
-3.89914e-05
-1.34741e-06
-8.79621e-07
-3.91867e-05
-1.1166e-06
5.04819e-07
-3.96781e-05
-7.79945e-07
9.32627e-07
-4.025e-05
-5.66606e-07
1.31741e-06
-4.05797e-05
-8.00803e-07
1.40988e-06
-4.066e-05
-1.22605e-06
1.40112e-06
-4.03118e-05
-1.78128e-06
1.07935e-06
-3.95119e-05
-2.58395e-06
6.97593e-07
-3.81551e-05
-3.47941e-06
2.18399e-07
-3.62934e-05
-4.05606e-06
-2.40577e-07
-3.43629e-05
-3.9876e-06
-5.49655e-07
-3.24539e-05
-4.33428e-06
-7.38223e-07
-3.02859e-05
-4.45686e-06
-9.16847e-07
-2.80153e-05
-4.31357e-06
-9.70878e-07
-2.57817e-05
-4.02173e-06
-9.24863e-07
-2.36461e-05
-3.48704e-06
-8.06411e-07
-2.1685e-05
-2.75695e-06
-5.8439e-07
-1.98583e-05
-1.76331e-06
-3.0263e-07
-1.8195e-05
-7.46241e-07
8.92124e-09
-1.6589e-05
3.56751e-07
3.0054e-07
-1.49931e-05
1.48862e-06
5.76511e-07
-1.31342e-05
2.31554e-06
7.11545e-07
-1.1035e-05
2.96301e-06
6.62909e-07
-8.54694e-06
3.30007e-06
3.50991e-07
-6.03846e-06
3.3891e-06
-2.58196e-07
-4.03513e-06
3.28193e-06
-1.19037e-06
-2.48238e-06
3.55229e-06
-2.18667e-06
-1.31288e-06
4.40401e-06
-2.90296e-06
-9.47545e-07
6.16714e-06
-3.19502e-06
-1.12019e-06
8.44551e-06
-3.29329e-06
-1.00374e-06
1.16911e-05
-4.01746e-06
1.47032e-05
-5.76153e-06
-6.57711e-06
-4.08963e-06
3.17089e-07
-5.00824e-06
-5.60401e-06
-1.80762e-06
-4.72784e-06
-3.75167e-06
-7.52145e-07
-2.83688e-06
-4.43767e-06
-2.29934e-06
-2.21027e-06
-1.86445e-06
-1.31732e-06
-1.24849e-06
-2.44361e-06
-1.47327e-06
-8.7395e-07
-8.17921e-07
-9.72943e-07
-7.41564e-07
-7.83556e-07
-3.11121e-07
-6.35375e-07
1.50279e-07
-2.32041e-07
-3.82949e-07
1.67851e-07
-2.60967e-07
2.01402e-08
1.54879e-07
-4.48826e-07
1.6649e-07
2.77589e-07
-3.72577e-07
1.2001e-07
4.8214e-07
-3.14558e-07
7.40427e-09
4.96227e-07
-2.67583e-07
-8.00435e-08
5.42227e-07
-2.85075e-07
-1.35513e-07
5.5779e-07
-2.99903e-07
-1.69173e-07
6.05272e-07
-3.14252e-07
-1.86317e-07
6.49428e-07
-3.22165e-07
-1.93347e-07
6.9364e-07
-3.25483e-07
-1.96592e-07
7.3086e-07
-3.21879e-07
-2.00271e-07
7.59162e-07
-3.13355e-07
-2.04331e-07
7.79533e-07
-3.05131e-07
-2.08999e-07
7.93292e-07
-2.97416e-07
-2.1406e-07
8.01714e-07
-2.89967e-07
-2.19112e-07
8.06629e-07
-2.82834e-07
-2.23092e-07
8.08219e-07
-2.76385e-07
-2.26572e-07
8.07509e-07
-2.70513e-07
-2.2982e-07
8.04749e-07
-2.64194e-07
-2.32879e-07
8.0058e-07
-2.57931e-07
-2.35999e-07
7.95482e-07
-2.51882e-07
-2.39286e-07
7.90156e-07
-2.4622e-07
-2.41983e-07
7.83582e-07
-2.41114e-07
-2.44598e-07
7.77371e-07
-2.35573e-07
-2.45278e-07
7.68571e-07
-2.31121e-07
-2.48077e-07
7.6194e-07
-2.26026e-07
-2.4515e-07
7.52237e-07
-2.24192e-07
-2.50419e-07
7.41538e-07
-2.1981e-07
-2.42091e-07
7.30654e-07
-2.17688e-07
-2.53956e-07
7.05937e-07
-2.15422e-07
-2.42022e-07
7.01555e-07
-2.09721e-07
-2.7967e-07
6.56388e-07
-2.04693e-07
-2.70551e-07
6.7714e-07
-2.02418e-07
-3.80098e-07
6.3335e-07
-1.71551e-07
-3.69596e-07
6.62146e-07
-2.10398e-07
-5.64075e-07
7.17208e-07
-1.33882e-07
-5.22413e-07
6.58925e-07
-2.44518e-07
-5.6045e-07
7.53829e-07
-2.29797e-07
-3.44989e-07
4.77349e-07
-3.28355e-07
2.32196e-07
2.65235e-07
-6.38171e-07
1.06785e-06
-2.07638e-07
-6.44349e-07
1.27705e-06
6.01447e-07
-3.79744e-07
2.65302e-06
-3.0905e-07
-7.38719e-07
1.74694e-06
1.47369e-07
5.99479e-07
1.29166e-06
-1.63119e-06
1.89051e-07
2.39544e-06
3.78632e-06
-9.57514e-07
8.64259e-06
9.87045e-06
-4.45242e-06
1.39126e-05
4.55693e-06
-8.98773e-06
3.57846e-05
-1.02055e-06
-1.39048e-05
3.43225e-05
-9.58103e-06
2.44695e-05
1.78518e-05
-2.70853e-06
6.09865e-06
-4.35728e-05
-8.06755e-06
1.59551e-05
-5.85808e-05
-5.18594e-07
6.687e-06
-6.53771e-05
-3.94459e-07
9.8225e-07
-6.88107e-05
7.227e-07
-1.15274e-06
-6.8167e-05
-5.12674e-08
-1.96939e-06
-6.85007e-05
4.47914e-07
-6.90789e-07
-6.84342e-05
-1.08764e-07
-4.30593e-07
-6.85094e-05
-3.98052e-07
-1.5209e-07
-6.83457e-05
-8.49172e-07
-1.23111e-07
-6.77217e-05
-1.55869e-06
-2.61316e-07
-6.66542e-05
-2.30883e-06
-5.02663e-07
-6.54134e-05
-3.21146e-06
-6.62525e-07
-6.42194e-05
-3.93889e-06
-8.82104e-07
-6.25299e-05
-4.6476e-06
-1.21941e-06
-5.99683e-05
-5.17824e-06
-1.54269e-06
-5.71361e-05
-5.6929e-06
-1.64844e-06
-5.40479e-05
-5.86451e-06
-1.8554e-06
-5.08187e-05
-5.6779e-06
-2.0052e-06
-4.73213e-05
-5.45464e-06
-2.1687e-06
-4.3648e-05
-5.02123e-06
-2.26897e-06
-3.98441e-05
-4.34106e-06
-2.32044e-06
-3.5925e-05
-3.39139e-06
-2.38582e-06
-3.21711e-05
-2.25385e-06
-2.32239e-06
-2.8707e-05
-9.79763e-07
-2.16992e-06
-2.54756e-05
2.85481e-07
-2.0467e-06
-2.24728e-05
1.3576e-06
-2.07344e-06
-1.94953e-05
2.21842e-06
-2.26767e-06
-1.63856e-05
2.87765e-06
-2.71395e-06
-1.3184e-05
3.51552e-06
-3.35845e-06
-1.00714e-05
4.31781e-06
-4.18467e-06
-6.98278e-06
5.34342e-06
-4.9192e-06
-4.06563e-06
6.79244e-06
-5.34545e-06
-1.654e-06
9.23779e-06
-5.50994e-06
-4.09869e-07
1.26422e-05
-5.45314e-06
-1.58009e-08
1.68826e-05
-5.59529e-06
2.11624e-05
-6.47369e-06
-6.70305e-06
-3.19125e-06
9.239e-07
-4.80002e-06
-5.03136e-06
-2.47996e-06
-4.5034e-06
-2.55827e-06
-1.48571e-06
-2.91429e-06
-3.31509e-06
-2.71858e-06
-2.48096e-06
-7.11656e-07
-1.58141e-06
-1.22003e-06
-1.47221e-06
-2.22561e-06
-7.28939e-07
1.96089e-07
-1.49728e-06
-6.58938e-07
-1.60145e-07
-6.8683e-07
-5.90235e-07
6.01871e-07
-5.14768e-07
-3.70823e-07
3.90892e-07
-4.3563e-07
3.45936e-08
4.07699e-07
-6.55186e-07
1.76109e-07
6.41627e-07
-5.05572e-07
1.67656e-07
9.54446e-07
-4.63499e-07
1.01281e-07
9.42183e-07
-3.7952e-07
3.81012e-08
9.98103e-07
-3.92497e-07
-3.8007e-08
1.01901e-06
-3.85103e-07
-1.09068e-07
1.07517e-06
-3.98693e-07
-1.6644e-07
1.11956e-06
-4.12694e-07
-2.09116e-07
1.16067e-06
-4.2427e-07
-2.38975e-07
1.19527e-06
-4.34475e-07
-2.59962e-07
1.22382e-06
-4.43613e-07
-2.75665e-07
1.24634e-06
-4.51059e-07
-2.89109e-07
1.26416e-06
-4.57394e-07
-3.02209e-07
1.2782e-06
-4.63362e-07
-3.15537e-07
1.28934e-06
-4.69371e-07
-3.29753e-07
1.29768e-06
-4.75217e-07
-3.43446e-07
1.30096e-06
-4.79734e-07
-3.5154e-07
1.29666e-06
-4.83804e-07
-3.56639e-07
1.29218e-06
-4.86509e-07
-3.60433e-07
1.28783e-06
-4.88578e-07
-3.63371e-07
1.28342e-06
-4.90385e-07
-3.65023e-07
1.27785e-06
-4.92685e-07
-3.66573e-07
1.27338e-06
-4.94554e-07
-3.668e-07
1.26669e-06
-4.98026e-07
-3.68855e-07
1.2624e-06
-4.98515e-07
-3.65781e-07
1.25226e-06
-5.03344e-07
-3.74421e-07
1.25126e-06
-5.01105e-07
-3.66088e-07
1.2318e-06
-5.09946e-07
-3.9714e-07
1.23924e-06
-5.02096e-07
-3.87395e-07
1.2067e-06
-5.15643e-07
-4.72236e-07
1.23241e-06
-4.90634e-07
-4.63178e-07
1.18924e-06
-5.22366e-07
-6.36984e-07
1.26159e-06
-4.53306e-07
-6.04101e-07
1.16622e-06
-5.38887e-07
-7.80643e-07
1.30447e-06
-4.0878e-07
-6.8783e-07
1.10869e-06
-5.45524e-07
-6.05343e-07
1.19721e-06
-5.2275e-07
-5.07069e-07
9.11041e-07
-5.36454e-07
1.49424e-08
6.86813e-07
-9.33876e-07
1.48561e-08
5.61272e-07
-7.67624e-07
3.2594e-07
1.1318e-06
-8.10957e-07
1.362e-06
-1.35108e-07
-1.18097e-06
-4.14963e-07
1.77822e-06
3.58965e-07
-2.86018e-06
7.48514e-07
6.76523e-08
2.22294e-07
3.79175e-06
-2.44733e-06
1.24176e-05
5.92908e-06
-8.37544e-06
1.74588e-05
1.26654e-05
-1.21574e-05
3.8026e-05
-6.73749e-06
-1.58426e-05
3.70955e-05
-7.74639e-06
3.03759e-05
1.40806e-05
6.30189e-06
7.00365e-06
-5.75707e-05
1.6421e-05
2.20018e-05
-7.87079e-05
1.08605e-05
9.62674e-06
-8.77993e-05
8.20518e-06
1.03659e-06
-9.08486e-05
6.54744e-06
-2.01323e-06
-9.31173e-05
4.80255e-06
-2.24199e-06
-9.43279e-05
3.77752e-06
-1.99353e-06
-9.4797e-05
2.58838e-06
-2.14897e-06
-9.44896e-05
1.25247e-06
-1.96537e-06
-9.37822e-05
1.15669e-07
-1.75393e-06
-9.28412e-05
-8.9668e-07
-1.7536e-06
-9.18963e-05
-1.43169e-06
-1.93134e-06
-9.12071e-05
-2.02584e-06
-1.93545e-06
-9.04284e-05
-2.74301e-06
-2.01553e-06
-8.95711e-05
-3.36864e-06
-2.12886e-06
-8.86758e-05
-3.80679e-06
-2.24222e-06
-8.80233e-05
-3.92448e-06
-2.39914e-06
-8.72001e-05
-4.0777e-06
-2.57461e-06
-8.60445e-05
-3.98136e-06
-2.80555e-06
-8.47323e-05
-3.63604e-06
-3.07431e-06
-8.32162e-05
-3.13957e-06
-3.33345e-06
-8.14761e-05
-2.46009e-06
-3.58049e-06
-7.94029e-05
-1.5739e-06
-3.8746e-06
-7.69168e-05
-5.80651e-07
-4.19214e-06
-7.40299e-05
6.31407e-07
-4.55331e-06
-7.06417e-05
1.79737e-06
-4.94086e-06
-6.69219e-05
2.90641e-06
-5.28601e-06
-6.29591e-05
3.86871e-06
-5.63642e-06
-5.86869e-05
4.64116e-06
-6.09671e-06
-5.39927e-05
5.28911e-06
-6.56612e-06
-4.90109e-05
6.10934e-06
-6.91394e-06
-4.35429e-05
6.94097e-06
-7.22077e-06
-3.74219e-05
7.89894e-06
-7.36178e-06
-3.03151e-05
9.42549e-06
-7.59532e-06
-2.18404e-05
1.17547e-05
-8.00465e-06
-1.17568e-05
1.49011e-05
-8.77422e-06
1.55418e-05
-9.99965e-06
-6.32482e-06
-3.66313e-07
3.70021e-06
-4.3047e-06
-4.42827e-06
-2.62925e-06
-4.17905e-06
-9.53234e-07
-1.72556e-06
-3.09216e-06
-2.48999e-06
-1.9169e-06
-2.89582e-06
2.6132e-07
-1.16301e-06
-1.6238e-06
-7.93493e-07
-1.94644e-06
-1.2338e-06
8.12602e-07
-9.99478e-07
-8.75205e-07
1.84093e-07
-6.98117e-07
-7.05535e-07
7.40386e-07
-3.02644e-07
-4.07671e-07
2.52153e-07
-1.52729e-07
-8.74988e-08
3.944e-07
-3.0331e-07
7.61818e-08
5.61882e-07
-8.3831e-08
1.77893e-07
8.69789e-07
-1.62711e-08
1.77363e-07
8.06757e-07
1.36294e-07