/*--------------------------------*- C++ -*----------------------------------*\
| =========                 |                                                 |
| \\      /  F ield         | OpenFOAM: The Open Source CFD Toolbox           |
|  \\    /   O peration     | Version:  2.3.0                                 |
|   \\  /    A nd           | Web:      www.OpenFOAM.org                      |
|    \\/     M anipulation  |                                                 |
\*---------------------------------------------------------------------------*/
FoamFile
{
    version     2.0;
    format      ascii;
    class       volVectorField;
    location    "16";
    object      U;
}
// * * * * * * * * * * * * * * * * * * * * * * * * * * * * * * * * * * * * * //

dimensions      [0 1 -1 0 0 0 0];

internalField   nonuniform List<vector> 
6144
(
(0.00986972 0.0206603 -0.00153977)
(0.0100772 -0.00419123 -0.00164457)
(0.00405914 -0.0070462 -0.00224816)
(0.00376117 -0.0100013 -0.00133693)
(0.00129147 -0.0117307 -0.00064157)
(0.00135917 -0.00982935 -0.00014731)
(0.000721417 -0.00903414 -0.000335002)
(0.00113858 -0.00620203 -0.00038357)
(0.00113833 -0.00400444 -0.00120215)
(0.00136933 -0.000667833 -0.00122401)
(0.0015787 0.00144684 -0.000729504)
(0.0019147 0.0030766 -9.14984e-05)
(0.00222623 0.0031827 0.00022548)
(0.00245114 0.002805 0.000369959)
(0.00254935 0.00211064 0.000265084)
(0.00259637 0.00153418 0.000141764)
(0.0026136 0.00102827 -7.27584e-06)
(0.00262411 0.000682912 -0.000108798)
(0.00262946 0.000410991 -0.00019379)
(0.00262992 0.000239272 -0.000244944)
(0.00262866 0.000108335 -0.000278906)
(0.00262211 2.22914e-05 -0.000294041)
(0.00261685 -3.21206e-05 -0.000298407)
(0.00260891 -8.14651e-05 -0.000293091)
(0.00259918 -0.000107643 -0.000284234)
(0.00258962 -0.000133384 -0.000271346)
(0.00257837 -0.000142336 -0.000257489)
(0.00256999 -0.000153647 -0.000241943)
(0.00256206 -0.000162883 -0.000224719)
(0.00255221 -0.000172799 -0.000209252)
(0.00254478 -0.000169026 -0.000194183)
(0.00253573 -0.000195994 -0.000182462)
(0.00253321 -0.000154079 -0.000167035)
(0.00252037 -0.000245423 -0.000162767)
(0.00252741 -9.51674e-05 -0.000138185)
(0.00250561 -0.000368973 -0.000148929)
(0.00252433 3.85367e-05 -9.86449e-05)
(0.00249619 -0.00063514 -0.000135458)
(0.00250909 0.000271362 -4.35591e-05)
(0.00250267 -0.00109847 -0.000100821)
(0.00247739 0.000588966 5.64025e-05)
(0.00253494 -0.00188694 2.12171e-05)
(0.0024319 0.000848748 0.0002092)
(0.00260594 -0.00330745 0.00019761)
(0.00236462 0.0010091 0.00031261)
(0.00260339 -0.00565804 0.000265396)
(0.00203889 0.00189451 -0.000115254)
(0.00203937 -0.00765878 -9.76201e-05)
(0.00154734 0.00573264 -0.000614896)
(0.00189214 -0.00703784 -0.001153)
(0.00585219 0.0120734 -0.0013502)
(0.00210159 -0.016263 -0.00315241)
(0.00813362 0.0225266 -0.00153142)
(0.00722259 -0.0277939 -0.00400615)
(-0.00144702 0.0361048 -0.00827925)
(0.00190003 -0.0276324 -0.0128555)
(0.0238 0.0788197 -0.00821077)
(0.00987544 -0.0534637 -0.0263079)
(-0.0388938 0.144577 -0.0694876)
(0.0548648 0.0296253 -0.128113)
(0.128995 -0.234027 -0.0262245)
(0.0775269 -0.0819773 -0.00956721)
(0.0283352 -0.151107 0.00068636)
(0.0298705 -0.149114 0.00380189)
(0.0252061 -0.150368 0.00489655)
(0.0172052 -0.15699 0.00679247)
(0.0119852 -0.163061 0.00803164)
(0.00863629 -0.167646 0.00830147)
(0.0060492 -0.17098 0.00784832)
(0.00408556 -0.172897 0.00697815)
(0.00267725 -0.173732 0.00610026)
(0.00174012 -0.173797 0.00532388)
(0.0011919 -0.173468 0.00462363)
(0.000808827 -0.173183 0.00412049)
(0.000687732 -0.172772 0.00353491)
(0.000454884 -0.172516 0.00309839)
(0.000367652 -0.172055 0.00262054)
(5.10624e-05 -0.171311 0.00225247)
(-0.000311369 -0.170284 0.00179864)
(-0.000764474 -0.168143 0.00138789)
(-0.00163842 -0.165549 0.000958551)
(-0.0023862 -0.160606 0.000118838)
(-0.00358411 -0.154007 -0.000113679)
(-0.00468127 -0.145329 -0.00172386)
(-0.00611134 -0.132271 -0.00133516)
(-0.00795573 -0.118161 -0.00429552)
(-0.00849244 -0.0972742 -0.00386654)
(-0.0112797 -0.0795272 -0.00890864)
(-0.0106936 -0.0422998 -0.0141549)
(-0.00743905 -0.00696053 -0.0048453)
(-0.00245497 0.0173737 -0.00336711)
(0.000910142 0.0311976 -0.00961323)
(0.000523844 0.0426374 -0.00578952)
(-0.000357708 0.0432284 0.00668193)
(0.00019993 0.0315201 0.0140305)
(0.00214579 0.0159056 0.0223484)
(0.0250264 0.0310894 0.00258704)
(0.0234049 0.011478 0.00181298)
(0.010981 0.00648943 -0.000659081)
(0.0102963 0.00112559 0.00106257)
(0.00327352 -0.00540874 0.0020364)
(0.00323153 -0.00482654 0.00269145)
(0.000880606 -0.00646316 0.00288777)
(0.00167325 -0.00308889 0.00225198)
(0.00131741 -0.00145552 0.00192603)
(0.00181079 0.00188477 0.00174905)
(0.00230025 0.00347777 0.00221129)
(0.0032087 0.00472734 0.00303423)
(0.00398107 0.00435902 0.00356117)
(0.00446107 0.0037266 0.00382888)
(0.00464834 0.00281537 0.00378903)
(0.00472449 0.00211632 0.00368743)
(0.00473334 0.00150347 0.00355181)
(0.00472989 0.00109788 0.00345619)
(0.00471358 0.000772579 0.00338138)
(0.00469345 0.000573548 0.0033447)
(0.00467291 0.000417682 0.00333058)
(0.00464633 0.000324546 0.00333851)
(0.00462421 0.000262296 0.00335845)
(0.00459857 0.000211972 0.00338849)
(0.00457123 0.00018856 0.0034212)
(0.00454435 0.000166044 0.00345814)
(0.00451507 0.000167127 0.00349716)
(0.00449185 0.000154751 0.00353842)
(0.00446899 0.000153829 0.00357954)
(0.00444372 0.00015116 0.00361716)
(0.00442576 0.000160229 0.0036541)
(0.0044002 0.000139002 0.00368621)
(0.00439651 0.000188737 0.00372187)
(0.00435625 0.000101014 0.00373997)
(0.00438558 0.000268783 0.00379335)
(0.00430767 -2.10249e-05 0.00378226)
(0.00439593 0.000439634 0.00388176)
(0.00425399 -0.000311934 0.00381171)
(0.00440739 0.000749657 0.00399755)
(0.00421433 -0.000843216 0.00384568)
(0.00439032 0.00115825 0.00415712)
(0.0042842 -0.00180783 0.00398351)
(0.00438651 0.00155839 0.00432144)
(0.00450614 -0.00349434 0.00426904)
(0.0044003 0.00188879 0.00423697)
(0.00466702 -0.00627074 0.00434746)
(0.0039471 0.00255017 0.00351351)
(0.0039632 -0.00934159 0.00375899)
(0.00265142 0.00440143 0.00216737)
(0.0033925 -0.0123823 0.00347783)
(0.00878101 0.00543302 0.00137806)
(0.00555631 -0.0175758 0.00135505)
(0.00948302 0.0115998 -7.29533e-05)
(0.00642419 -0.00998954 -0.00273453)
(0.00892636 0.0588395 0.00474986)
(0.0318 -0.0618859 -0.00267821)
(-0.0282547 0.0508847 0.00775108)
(-0.0356838 -0.0238991 -0.00343767)
(-0.000401984 0.20939 0.00671235)
(0.179843 -0.0273414 -0.0696951)
(0.184468 -0.184114 -0.0269242)
(0.0390232 0.113639 0.00565737)
(-0.0333089 -0.121209 0.0145178)
(-0.0155252 -0.0601073 0.0132399)
(-0.0200697 -0.0858349 0.0144601)
(-0.0222224 -0.105712 0.0168498)
(-0.0218138 -0.115813 0.0164382)
(-0.0206645 -0.125373 0.015175)
(-0.0191729 -0.133369 0.0136188)
(-0.0175887 -0.138847 0.0118519)
(-0.0158273 -0.142298 0.0101936)
(-0.0140031 -0.144467 0.00874146)
(-0.0121474 -0.145884 0.00754632)
(-0.0104506 -0.147036 0.00647336)
(-0.00896807 -0.147948 0.00557999)
(-0.00776486 -0.148858 0.00474539)
(-0.00691249 -0.149458 0.00406635)
(-0.00632988 -0.14994 0.00345712)
(-0.00634337 -0.149827 0.00260183)
(-0.00661897 -0.149021 0.00215984)
(-0.00753144 -0.147519 0.00142449)
(-0.00891446 -0.144201 0.000654556)
(-0.0105569 -0.138974 -0.000177544)
(-0.0129111 -0.131592 -0.00190849)
(-0.0152772 -0.120334 -0.00182311)
(-0.0171066 -0.107258 -0.0048496)
(-0.0199618 -0.0887168 -0.00448269)
(-0.0227598 -0.0738759 -0.00848376)
(-0.0257429 -0.0452925 -0.0138941)
(-0.0233369 -0.0136592 -0.00439716)
(-0.0125042 0.00877572 -0.00125143)
(-0.00246502 0.0231222 -0.00634215)
(-0.000568621 0.0347183 -0.00394268)
(-0.00271877 0.036418 0.0111973)
(-0.00421749 0.0257731 0.0214722)
(-0.00258568 0.0137869 0.0292464)
(0.0317125 0.0367274 0.00332406)
(0.0304505 0.0239827 0.00187544)
(0.0196917 0.0198854 -0.000273925)
(0.0188946 0.0126494 0.00180686)
(0.00649061 0.00227498 0.000921932)
(0.00437358 0.000964666 0.00180789)
(-0.000896171 -0.00411599 0.00323663)
(-1.02734e-06 -0.000497614 0.00253896)
(-0.000328335 0.000370313 0.00272906)
(0.000601674 0.00362941 0.00265188)
(0.00117458 0.00439412 0.00317593)
(0.00271 0.00537281 0.00394078)
(0.00378509 0.00470282 0.00440318)
(0.00437318 0.00412094 0.00467074)
(0.00445222 0.00324533 0.00476832)
(0.00438299 0.00259768 0.00481375)
(0.00422601 0.00199613 0.00483218)
(0.00409234 0.00159495 0.0048521)
(0.00395876 0.00126451 0.00488003)
(0.00385344 0.00105881 0.00491716)
(0.0037598 0.000893829 0.00496288)
(0.00367964 0.000792343 0.00501364)
(0.00361082 0.000721718 0.00506476)
(0.00354999 0.00066445 0.00511514)
(0.00349296 0.000633967 0.00516298)
(0.00344026 0.000606462 0.00521005)
(0.00339119 0.000612704 0.00525389)
(0.00335251 0.00059274 0.00530131)
(0.00331405 0.000598033 0.0053466)
(0.00327905 0.000597229 0.00539037)
(0.00325114 0.000602517 0.00543238)
(0.00321436 0.00059362 0.00546605)
(0.00320303 0.000626583 0.00549745)
(0.00315072 0.000569995 0.00552152)
(0.00319218 0.00069018 0.00556413)
(0.0030839 0.000471782 0.0055701)
(0.00323132 0.000834484 0.00563273)
(0.00300168 0.000202175 0.00560275)
(0.00330951 0.00110704 0.00570329)
(0.00292813 -0.000349965 0.00561987)
(0.00343177 0.00153972 0.00578875)
(0.0030157 -0.00134083 0.00562891)
(0.00366264 0.00207297 0.00586308)
(0.00342264 -0.00301283 0.00565333)
(0.00391487 0.0027309 0.0057899)
(0.00395051 -0.00551031 0.00563457)
(0.0032765 0.00394711 0.00538488)
(0.00364649 -0.00833077 0.00556965)
(0.00192294 0.00564382 0.00436202)
(0.00522486 -0.0119339 0.00598989)
(0.00671838 0.00540957 0.00385912)
(0.00689697 -0.0127265 0.00351851)
(-0.00177221 0.0111626 0.00202345)
(-0.0050087 -0.00877014 0.000240207)
(0.0261425 0.058227 0.0135053)
(0.0463845 -0.072134 -0.00027381)
(-0.0516089 0.0954268 0.0156281)
(-0.0763701 -0.119633 -0.00527602)
(-0.0842978 0.161465 -0.0172399)
(0.185511 -0.03071 -0.0527941)
(0.20297 -0.127267 -0.0302049)
(0.0655848 0.144113 0.00881246)
(0.0730849 -0.0936973 0.0208048)
(0.0180694 -0.00544564 0.0197641)
(-0.00182567 -0.0581669 0.020172)
(-0.00353188 -0.0724311 0.0190357)
(-0.00845186 -0.0837435 0.0163185)
(-0.0124644 -0.0926904 0.0135842)
(-0.0143866 -0.0989292 0.0109917)
(-0.0146947 -0.102711 0.00851648)
(-0.0138645 -0.10487 0.00628109)
(-0.0123832 -0.106207 0.00428105)
(-0.0104903 -0.107538 0.002644)
(-0.0085567 -0.108719 0.00119774)
(-0.00684574 -0.109835 0.000197901)
(-0.00555209 -0.111 -0.000587012)
(-0.0046717 -0.111905 -0.00106559)
(-0.00437257 -0.112852 -0.00126423)
(-0.00480044 -0.113732 -0.00145691)
(-0.00576255 -0.114023 -0.00141576)
(-0.00778346 -0.114197 -0.00145355)
(-0.0105544 -0.112706 -0.00156744)
(-0.013752 -0.109839 -0.00188772)
(-0.0179382 -0.104857 -0.00294394)
(-0.0227868 -0.0967933 -0.00375337)
(-0.0260945 -0.0861201 -0.00513358)
(-0.0273049 -0.0718946 -0.00604089)
(-0.0306335 -0.0588633 -0.0125508)
(-0.0377838 -0.0310253 -0.0142449)
(-0.0370434 -0.0053423 -0.0051844)
(-0.0195647 0.00851113 -0.00197073)
(-0.00601928 0.0196367 -0.00469276)
(-0.00261956 0.0291641 -0.00157101)
(-0.0063562 0.0297743 0.0123768)
(-0.0112679 0.0228119 0.0238659)
(-0.0121499 0.0105355 0.0323367)
(0.0342097 0.0377983 0.00385415)
(0.0349477 0.0289724 0.00486703)
(0.0253836 0.0244095 0.00119856)
(0.0264096 0.0201331 0.00187185)
(0.0147174 0.0114614 -0.000683085)
(0.0112266 0.00972237 0.000972468)
(0.000754347 -0.000452724 0.00193542)
(-0.000817313 0.00126765 0.00162854)
(-0.00201742 0.000169951 0.00178227)
(-0.000336979 0.00390271 0.00181203)
(0.000450344 0.0040278 0.00240883)
(0.00210556 0.00489991 0.00352124)
(0.00307231 0.0041693 0.00417017)
(0.00353242 0.0039043 0.00455673)
(0.00349355 0.00326045 0.00467862)
(0.00335105 0.0027804 0.00474861)
(0.00315088 0.00225432 0.00479267)
(0.00297693 0.00188071 0.00484114)
(0.0028104 0.00155735 0.00489636)
(0.00266997 0.00134459 0.00495607)
(0.00255178 0.00117497 0.0050215)
(0.00244705 0.00106829 0.00508108)
(0.00235912 0.000995735 0.00513568)
(0.00228557 0.000938991 0.00519266)
(0.00221782 0.000904774 0.00524422)
(0.00215167 0.00088089 0.0052872)
(0.0020919 0.000882531 0.00532259)
(0.00204239 0.000866065 0.00536273)
(0.00199191 0.000873454 0.00539946)
(0.0019484 0.000876045 0.00543486)
(0.0019109 0.0008853 0.00546832)
(0.00187435 0.000886589 0.00550018)
(0.00185692 0.000911422 0.0055333)
(0.00181753 0.00088015 0.00555494)
(0.00183777 0.000964663 0.0055822)
(0.00175857 0.000799532 0.005588)
(0.00188361 0.00108972 0.00563683)
(0.00170075 0.000539777 0.0056158)
(0.00200737 0.00133777 0.00569503)
(0.00165855 -2.4251e-05 0.00562617)
(0.00225489 0.00175677 0.00577287)
(0.00171503 -0.00103858 0.00559892)
(0.00269956 0.00245068 0.00591569)
(0.00197199 -0.00252812 0.00550472)
(0.00318121 0.0035966 0.00605734)
(0.00233664 -0.00454353 0.00538073)
(0.0027298 0.00555579 0.00610528)
(0.00213395 -0.00667651 0.00542737)
(0.00124516 0.00777541 0.00598739)
(0.00403873 -0.00955937 0.00620232)
(0.00422476 0.0108583 0.00432037)
(0.00536198 -0.0103517 0.00336404)
(0.00193193 0.0204098 0.00394386)
(-0.0157313 -0.0262889 -0.00842042)
(0.0295313 0.0310463 0.0303639)
(0.0386773 -0.0576257 0.00949233)
(-0.00845881 0.0971391 0.0308936)
(-0.0847553 -0.136578 0.0413632)
(-0.0945099 0.168888 -0.0921901)
(0.199168 -0.117945 -0.0387491)
(0.222631 -0.0964379 -0.0376008)
(0.0588064 0.124618 5.88809e-05)
(0.0541355 0.00232002 0.0139166)
(-0.025146 0.0554344 0.0214839)
(-0.00597884 -0.0148549 0.0241272)
(-0.0127226 -0.0210929 0.0168416)
(-0.0173357 -0.0393663 0.00864568)
(-0.0193298 -0.0487226 0.00389101)
(-0.0186068 -0.0538826 0.000202573)
(-0.0160369 -0.0561104 -0.00290416)
(-0.0124194 -0.0563976 -0.0052797)
(-0.00846185 -0.0551284 -0.00710187)
(-0.00488888 -0.053531 -0.0084347)
(-0.00203302 -0.0512551 -0.00914518)
(-1.27424e-05 -0.0498722 -0.0090567)
(0.00163529 -0.0489042 -0.0085985)
(0.00254914 -0.0488015 -0.00752248)
(0.00262267 -0.0499363 -0.00641637)
(0.00198171 -0.0516148 -0.00523192)
(0.000393553 -0.0540329 -0.00412194)
(-0.00245054 -0.0570727 -0.0032745)
(-0.00633029 -0.0597314 -0.00243501)
(-0.0109414 -0.0618586 -0.00185478)
(-0.0165006 -0.06167 -0.00236991)
(-0.0225951 -0.0586671 -0.00441866)
(-0.0289835 -0.0514432 -0.00808621)
(-0.036242 -0.0372647 -0.0117822)
(-0.0449095 -0.0170987 -0.0153582)
(-0.0482372 0.00176671 -0.0131029)
(-0.0357299 0.00989173 -0.00574162)
(-0.0184067 0.0112613 -0.00211808)
(-0.00822103 0.0172974 -0.00222544)
(-0.00492265 0.0233322 0.00157473)
(-0.00906487 0.0233257 0.0131405)
(-0.0164051 0.0192681 0.0250579)
(-0.0199295 0.00852297 0.0338826)
(0.0346082 0.0369302 0.00491539)
(0.0367251 0.0316487 0.00670603)
(0.0272062 0.0256763 0.00311847)
(0.0290536 0.0232841 0.00397219)
(0.0180438 0.0142502 0.000301597)
(0.0176587 0.0141471 0.00149432)
(0.00649035 0.00448644 5.09939e-05)
(0.00153413 0.00509725 0.000883766)
(-0.00234917 0.000558084 0.000563958)
(-0.00153656 0.00346535 0.000805611)
(-0.000304208 0.00262568 0.00123147)
(0.00127345 0.00334647 0.00277796)
(0.00171752 0.0028124 0.0035929)
(0.00189838 0.00301035 0.00407479)
(0.00164818 0.00274182 0.0042433)
(0.00136604 0.0025671 0.00433329)
(0.00102025 0.00221074 0.00436078)
(0.000709695 0.00192147 0.00438029)
(0.000441598 0.00162848 0.00440884)
(0.00021917 0.00142918 0.00444498)
(3.3638e-05 0.00126936 0.00447903)
(-0.000117013 0.00117253 0.00451529)
(-0.000235101 0.00110237 0.00455095)
(-0.000333804 0.00104934 0.0045793)
(-0.000417262 0.00101454 0.00460129)
(-0.000488456 0.00100113 0.0046167)
(-0.000541548 0.000993925 0.00462879)
(-0.000582771 0.000987754 0.00463768)
(-0.000618225 0.000997977 0.00464558)
(-0.000644127 0.0010069 0.00465369)
(-0.000666414 0.00102154 0.00466051)
(-0.000685736 0.00103243 0.00466913)
(-0.0007012 0.0010544 0.00467504)
(-0.000718401 0.00104587 0.0046795)
(-0.000690956 0.00111467 0.00469529)
(-0.000727112 0.000988677 0.00468876)
(-0.000616645 0.00123692 0.00472415)
(-0.000744902 0.000767987 0.00469289)
(-0.000460231 0.00149014 0.00475571)
(-0.000754724 0.000253324 0.00468804)
(-0.00016118 0.00193547 0.00481969)
(-0.000712921 -0.000669703 0.00465757)
(0.000365121 0.00271798 0.00498706)
(-0.000559864 -0.00187232 0.00459595)
(0.000891443 0.00403525 0.0052987)
(-0.000241128 -0.00286728 0.00466707)
(0.000471703 0.00617791 0.00572716)
(-0.000165655 -0.00432695 0.00505835)
(-0.000460447 0.00843677 0.00636684)
(0.00102259 -0.00874662 0.00581918)
(0.000670161 0.0107726 0.00429789)
(0.00157412 -0.0088343 0.00406523)
(0.00458386 0.023457 0.00680624)
(-0.0012024 -0.0186035 -0.000341604)
(0.0109406 0.0133625 0.0456844)
(0.0051718 -0.0189923 0.0478987)
(0.00214 0.0904484 0.0712325)
(-0.107281 -0.118916 0.0626516)
(0.00132903 0.16748 -0.18903)
(0.125967 -0.130464 -0.0230078)
(0.190611 -0.0619428 -0.0409)
(0.0604672 0.122719 -0.00409887)
(0.0714462 0.0663459 0.00697631)
(0.0256373 0.0811246 0.00871395)
(0.0160561 0.0461081 0.00606641)
(0.000785345 0.0395781 -0.000267563)
(-0.000367866 0.0314797 -0.00454875)
(-0.00384124 0.0285791 -0.00701483)
(-0.00459281 0.0298602 -0.010006)
(-0.00384826 0.0345772 -0.0122229)
(-0.0018014 0.0418678 -0.0135628)
(0.001622 0.0504965 -0.0134449)
(0.00554342 0.0574974 -0.0114482)
(0.00843673 0.0622001 -0.00830067)
(0.00985406 0.0625671 -0.00511985)
(0.0108561 0.0613082 -0.00278241)
(0.01094 0.056037 -0.000831151)
(0.0101568 0.0497555 -0.000218352)
(0.00861894 0.0434667 -0.000214972)
(0.00592404 0.0370089 -0.000897042)
(0.00207987 0.0314517 -0.00205206)
(-0.00315942 0.0266224 -0.00373607)
(-0.00983756 0.0234264 -0.00582102)
(-0.0175978 0.0212746 -0.008214)
(-0.0252902 0.0209126 -0.010741)
(-0.0318684 0.0230442 -0.0126485)
(-0.0359495 0.025193 -0.0132221)
(-0.0375943 0.0253745 -0.0119958)
(-0.0330601 0.0219072 -0.00792218)
(-0.0218693 0.0159421 -0.0023459)
(-0.0122899 0.0127724 0.00169347)
(-0.00806639 0.013368 0.00284983)
(-0.00876817 0.017006 0.00548511)
(-0.0162075 0.0181158 0.0147264)
(-0.027142 0.0160293 0.0263711)
(-0.0336528 0.00637044 0.0352454)
(0.0322089 0.0369515 0.00706155)
(0.0371716 0.0359801 0.00650882)
(0.0269744 0.0279044 0.00439297)
(0.0301263 0.0251041 0.00702007)
(0.0177513 0.0131159 0.00397397)
(0.0195605 0.0144926 0.00445939)
(0.00937423 0.00534401 7.02892e-05)
(0.0052283 0.00732719 0.000405045)
(-0.000408078 0.00227823 -3.89848e-06)
(-0.00127033 0.00410847 0.000784981)
(-0.000647397 0.00101847 0.000792842)
(0.000560002 0.00124372 0.00229432)
(0.000763368 0.000727147 0.00310121)
(0.000934376 0.00159084 0.00368193)
(0.000620478 0.00170574 0.00389162)
(0.000375587 0.00193452 0.00402278)
(5.44056e-05 0.00182813 0.00405192)
(-0.000229812 0.00173672 0.00404828)
(-0.0004858 0.00158432 0.00401754)
(-0.000701244 0.00147464 0.00398082)
(-0.000874389 0.00137445 0.00394618)
(-0.00100559 0.00131899 0.00391975)
(-0.0010991 0.00128248 0.00389491)
(-0.00116739 0.0012659 0.00387202)
(-0.00122255 0.00125712 0.00384737)
(-0.00126891 0.00127381 0.0038201)
(-0.00130113 0.00127468 0.00379332)
(-0.00133025 0.0012893 0.00376148)
(-0.00135343 0.00130504 0.00373041)
(-0.00136796 0.00131964 0.00370198)
(-0.0013764 0.00133868 0.00367673)
(-0.00137818 0.00135659 0.00365741)
(-0.0013768 0.00137374 0.00364173)
(-0.0013669 0.00137132 0.00363168)
(-0.00134073 0.0014274 0.0036288)
(-0.00134467 0.00133351 0.00361518)
(-0.00123696 0.00155721 0.0036461)
(-0.00130805 0.00114583 0.00361243)
(-0.00100338 0.00181551 0.00371447)
(-0.00122713 0.000684666 0.00363207)
(-0.000581448 0.00228686 0.00387147)
(-0.00110455 -5.62796e-05 0.00366981)
(-6.74356e-05 0.00315169 0.00412635)
(-0.000937693 -0.000684082 0.00372501)
(-3.72388e-05 0.00464833 0.00434925)
(-0.000860284 -0.000858894 0.00387972)
(-0.000746126 0.00705534 0.00477262)
(-0.000659752 -0.00289194 0.00434478)
(-0.000205755 0.00896295 0.00659412)
(-2.42046e-06 -0.010722 0.00517164)
(-0.000654175 0.00714866 0.00543824)
(-0.00190725 -0.0167954 0.00457074)
(0.00297923 0.0120609 0.00721836)
(0.0101591 -0.0198576 0.00175346)
(-0.00948245 0.0125304 0.0354098)
(-0.0431707 -0.0317922 0.0464434)
(0.0229653 0.0558636 0.0761887)
(-0.0641264 -0.0983282 0.0799156)
(0.0424741 -0.00769428 -0.2031)
(0.0701408 -0.0884002 -0.0173057)
(0.15348 0.00991941 -0.0512737)
(0.0487346 0.161533 -0.0101306)
(0.0378305 0.162763 0.00608248)
(0.0180643 0.174678 0.0041666)
(0.00835873 0.174136 0.00243881)
(0.00619629 0.175477 -0.00161503)
(0.00298179 0.177124 -0.00243998)
(0.0014992 0.178059 -0.00374147)
(0.00124402 0.179693 -0.00331537)
(0.00200857 0.179831 -0.00209937)
(0.00457263 0.178692 0.00017506)
(0.00869602 0.175559 0.00283269)
(0.0128529 0.170237 0.00558109)
(0.0149248 0.162493 0.00782919)
(0.014342 0.152543 0.00887573)
(0.017326 0.145078 0.00955578)
(0.0177338 0.135049 0.00984388)
(0.0167424 0.124606 0.00932276)
(0.0153411 0.114744 0.00835797)
(0.0128183 0.1046 0.00711027)
(0.00949494 0.0955804 0.0053894)
(0.00488822 0.08661 0.0035216)
(0.000223545 0.0793783 0.00185102)
(-0.00469133 0.0718914 0.000218944)
(-0.00950853 0.0650644 -0.000948547)
(-0.0132695 0.0580521 -0.000944163)
(-0.0158299 0.0494917 -0.000115021)
(-0.01637 0.0401576 0.00210008)
(-0.0150322 0.0295408 0.00562913)
(-0.0120929 0.0204001 0.0103898)
(-0.0111485 0.0129819 0.0140195)
(-0.0133105 0.00727714 0.015573)
(-0.0184391 0.00342986 0.0136269)
(-0.0235915 0.00376198 0.0140987)
(-0.0327933 0.00586072 0.0230536)
(-0.0398534 0.00130909 0.0346641)
(0.0276891 0.0364416 0.00424698)
(0.0363277 0.0404634 0.00757695)
(0.0256371 0.0283693 0.00551165)
(0.0296197 0.0270204 0.0113544)
(0.0137435 0.0116116 0.0075046)
(0.0165602 0.0141665 0.00871147)
(0.00763741 0.00287659 0.00378615)
(0.00616983 0.00783493 0.00126926)
(8.92347e-05 0.00283792 0.000423864)
(-0.000714026 0.00525389 0.00215582)
(-0.000676217 0.00069369 0.00208745)
(-0.00113365 6.60602e-05 0.00289003)
(-0.00214714 -0.000756635 0.00317144)
(-0.00219515 0.000430866 0.00364281)
(-0.00247834 0.000698214 0.00392431)
(-0.00257389 0.0012799 0.00409025)
(-0.00286338 0.00143455 0.00409424)
(-0.00316264 0.00159681 0.00403993)
(-0.00346654 0.00162914 0.00397326)
(-0.00373383 0.00166156 0.00387561)
(-0.00394607 0.00166161 0.0037571)
(-0.00410255 0.00168146 0.0036519)
(-0.00421135 0.00169487 0.00355927)
(-0.00428347 0.00171584 0.00348218)
(-0.00432933 0.00173538 0.00341688)
(-0.00434732 0.00175849 0.0033648)
(-0.00433884 0.00176371 0.0033206)
(-0.00431343 0.00177609 0.00327316)
(-0.00427553 0.00178491 0.00323179)
(-0.00423024 0.00179322 0.00319661)
(-0.00418307 0.00180266 0.00316879)
(-0.00413156 0.00181663 0.00315247)
(-0.00408533 0.00181864 0.0031454)
(-0.00402769 0.00181257 0.00315034)
(-0.00397107 0.00184299 0.00316403)
(-0.00390314 0.00175477 0.00319156)
(-0.00380827 0.00193576 0.0032441)
(-0.00374966 0.00157216 0.00327277)
(-0.00355024 0.00216654 0.0034163)
(-0.00355581 0.00121278 0.00340555)
(-0.00319879 0.00265484 0.00367732)
(-0.00337579 0.000751521 0.00359494)
(-0.00296581 0.00358331 0.00392621)
(-0.00321801 0.000461618 0.00381944)
(-0.00325142 0.0051234 0.00396092)
(-0.00310547 0.000177033 0.00391996)
(-0.00333251 0.00730138 0.00396051)
(-0.00209572 -0.00249724 0.00417656)
(-0.000655296 0.00840147 0.00631633)
(0.00125678 -0.0102439 0.00574979)
(-0.00242168 0.00435087 0.00534831)
(0.000223766 -0.0183376 0.00617115)
(0.000875869 0.00224571 0.00353672)
(0.00759887 -0.0206823 -0.00243316)
(-0.0182816 0.0184141 0.0211823)
(-0.0527593 -0.0395747 0.0337114)
(-0.0059994 -0.014102 0.0730959)
(0.00159655 -0.106785 0.0984534)
(0.0396254 -0.145895 -0.207081)
(0.036737 -0.0898866 -0.0279657)
(0.0736179 0.109271 -0.0560101)
(0.0212587 0.244917 -0.00894997)
(0.0168996 0.274632 0.00515566)
(0.00832754 0.283104 0.00968008)
(0.00724766 0.287897 0.011729)
(0.00348858 0.29097 0.00872931)
(0.00366912 0.296891 0.00829034)
(0.00356736 0.295646 0.00811217)
(0.00551692 0.292954 0.00882752)
(0.00866429 0.291279 0.0104843)
(0.0117962 0.286054 0.0124788)
(0.0156445 0.280562 0.0139798)
(0.0189634 0.272672 0.0159043)
(0.0217242 0.263098 0.0183388)
(0.0235638 0.249864 0.0200887)
(0.0248468 0.239816 0.0201843)
(0.0255867 0.228992 0.0216184)
(0.0249299 0.213215 0.0219662)
(0.0236341 0.199804 0.0219801)
(0.0214253 0.183592 0.0215985)
(0.0183616 0.167656 0.0208268)
(0.0143217 0.150822 0.0200321)
(0.00977875 0.134658 0.018597)
(0.00500373 0.118775 0.0172893)
(0.000586398 0.10571 0.0166926)
(-0.00298813 0.0934582 0.017571)
(-0.00598096 0.0810818 0.0183179)
(-0.00780783 0.0691698 0.0205282)
(-0.00938489 0.0568181 0.0230065)
(-0.010628 0.0445851 0.0263936)
(-0.0130619 0.0324784 0.0282742)
(-0.0173447 0.0211499 0.0274732)
(-0.0263199 0.0101672 0.0237164)
(-0.0383546 0.00192575 0.0225991)
(-0.0523031 0.00156097 0.026521)
(-0.0678537 -0.00159953 0.0326728)
(0.0272603 0.0325806 -0.000649872)
(0.0341007 0.0427541 0.00901673)
(0.020951 0.0242938 0.00818836)
(0.0253903 0.0274553 0.014915)
(0.00890186 0.012303 0.00988422)
(0.0130433 0.0159195 0.0125097)
(0.00220526 0.000759435 0.00790783)
(0.00353142 0.00785296 0.00443159)
(-0.00169258 0.00175997 0.0025606)
(-0.000930486 0.00547579 0.00431402)
(-0.000847624 0.000338754 0.00436522)
(-0.00167803 0.00023562 0.00466459)
(-0.00297555 -0.000944539 0.00476689)
(-0.0030292 5.12615e-05 0.00506991)
(-0.00319049 -3.17833e-05 0.00543089)
(-0.00321671 0.00066811 0.00560056)
(-0.00339638 0.000942603 0.00566208)
(-0.00352486 0.00134584 0.00563165)
(-0.00364376 0.00157968 0.00552766)
(-0.0037204 0.00176906 0.00543458)
(-0.00375583 0.00187848 0.0053645)
(-0.00375825 0.00196661 0.00530849)
(-0.00373238 0.00202307 0.00526658)
(-0.00368031 0.00207732 0.00524055)
(-0.00361333 0.00213584 0.00522562)
(-0.00353702 0.00218854 0.00521917)
(-0.00346759 0.00224604 0.00520866)
(-0.00340687 0.00228639 0.0051841)
(-0.00335004 0.0023016 0.00515923)
(-0.00329533 0.0023077 0.00513684)
(-0.0032433 0.00231122 0.00511922)
(-0.00318794 0.00230691 0.00511015)
(-0.00314209 0.00230133 0.00510499)
(-0.00308684 0.00228409 0.00511008)
(-0.00304058 0.00229931 0.00512248)
(-0.00296947 0.00221184 0.00515237)
(-0.00290607 0.00237683 0.00519037)
(-0.0028207 0.00203872 0.00521923)
(-0.00269141 0.00261609 0.00532939)
(-0.00262879 0.00180009 0.00531815)
(-0.0024248 0.00316594 0.00550203)
(-0.00246333 0.00163092 0.00543717)
(-0.00233198 0.00419799 0.00551961)
(-0.00237108 0.00162058 0.00547487)
(-0.00284117 0.00572935 0.00498191)
(-0.00238629 0.000781556 0.00512924)
(-0.00308352 0.00765222 0.00429196)
(-0.00159741 -0.00302422 0.00483299)
(-0.000342445 0.0101397 0.00671867)
(0.00160679 -0.00999909 0.00595308)
(-0.00127403 0.0121708 0.00836941)
(0.00398267 -0.0149561 0.00877094)
(-0.00155642 0.0101622 0.00490084)
(0.00704364 -0.0073859 0.00215265)
(-0.00791342 0.0449612 0.0234729)
(-0.0281906 -0.0442616 0.0464483)
(-0.0203035 -0.0297105 0.0805679)
(0.0349044 -0.101507 0.0972835)
(-0.00136859 -0.156336 -0.193305)
(-0.0215101 -0.0907683 -0.0359199)
(-0.0302785 0.150866 -0.0672092)
(-0.0241229 0.287794 -0.0116878)
(-0.0149956 0.324651 0.00690121)
(-0.0112258 0.34441 0.0121041)
(-0.00485543 0.355501 0.0110351)
(-0.00496663 0.359019 0.0125541)
(0.000186568 0.357892 0.0133465)
(0.00258436 0.354963 0.0128524)
(0.00619834 0.352413 0.0117252)
(0.0100393 0.349353 0.0128594)
(0.0130719 0.342345 0.0140641)
(0.0166496 0.33785 0.0151816)
(0.0196797 0.332036 0.016425)
(0.0232765 0.327426 0.0180982)
(0.0254621 0.322175 0.0192806)
(0.0262478 0.317528 0.0206914)
(0.0271221 0.313157 0.0223206)
(0.0266063 0.307443 0.0241155)
(0.0256503 0.301795 0.02561)
(0.0241405 0.295227 0.0270752)
(0.0216931 0.288111 0.0284232)
(0.0182513 0.280337 0.0297534)
(0.0141785 0.271086 0.0307199)
(0.00962501 0.260283 0.0316004)
(0.00503161 0.248378 0.0325076)
(0.00112287 0.235096 0.033521)
(-0.00202185 0.221511 0.034606)
(-0.00450087 0.207111 0.0359393)
(-0.0067357 0.191615 0.0367873)
(-0.0101492 0.174941 0.0377763)
(-0.0141406 0.157748 0.0379703)
(-0.0199554 0.139141 0.036839)
(-0.0288625 0.117575 0.0343578)
(-0.0409364 0.0925106 0.0318257)
(-0.0568037 0.0617328 0.0291375)
(-0.0684309 0.02216 0.0239827)
(0.0121483 0.0297289 -0.0172137)
(0.0305879 0.0420941 0.00740274)
(0.0107142 0.0195891 0.00667132)
(0.017739 0.0283515 0.0118899)
(0.000960174 0.0145197 0.0085287)
(0.00688808 0.0189383 0.0119364)
(-0.00348958 0.0036916 0.00680543)
(-0.000866946 0.0105426 0.00389528)
(-0.00488077 0.00230585 0.000589105)
(-0.00298097 0.0061968 0.00149661)
(-0.00311445 0.000475901 0.00160062)
(-0.00491143 0.00130654 0.00140413)
(-0.00706666 -0.000962129 0.00120458)
(-0.00672022 -0.000185711 0.00136662)
(-0.00700908 -0.000596968 0.00170614)
(-0.00702996 0.000207119 0.00194024)
(-0.00730471 0.000564255 0.00215716)
(-0.00750971 0.00111569 0.00227127)
(-0.00770466 0.00146568 0.00232467)
(-0.00787061 0.00175655 0.0023487)
(-0.00800476 0.00195075 0.00235352)
(-0.00810932 0.00210211 0.0023527)
(-0.00819072 0.0022041 0.00235023)
(-0.00825252 0.00229154 0.00235288)
(-0.00829792 0.00236672 0.00236023)
(-0.00831956 0.00243023 0.00237369)
(-0.00828472 0.00247364 0.00239048)
(-0.00816696 0.00249564 0.00242249)
(-0.00804476 0.00250761 0.0024591)
(-0.00792393 0.00251375 0.00249571)
(-0.00780146 0.00251454 0.00253493)
(-0.00766989 0.00250656 0.00257964)
(-0.00754129 0.00250603 0.00262312)
(-0.00739902 0.00248939 0.00266936)
(-0.00727265 0.00249803 0.00271525)
(-0.00710878 0.00243189 0.00278048)
(-0.00702392 0.00257177 0.0028417)
(-0.00678454 0.00231423 0.00293062)
(-0.00682955 0.00282795 0.00298953)
(-0.00645631 0.00220783 0.00308711)
(-0.00673427 0.00343312 0.00311974)
(-0.00617407 0.00228057 0.00324697)
(-0.00688858 0.00459746 0.00305283)
(-0.00583691 0.00254788 0.00326007)
(-0.00688576 0.00641781 0.00241815)
(-0.00538753 0.00157416 0.00266541)
(-0.0059157 0.00829297 0.00153813)
(-0.00455761 -0.00310005 0.00180966)
(-0.00274577 0.010332 0.00341939)
(-0.00352271 -0.0115555 0.00332021)
(-0.00417724 0.0124082 0.00690805)
(0.00216419 -0.0135641 0.00760565)
(-0.0129193 0.00862383 0.000566608)
(-0.0121087 -0.00417781 0.0022249)
(-0.0177937 0.0547115 0.0101292)
(-0.00492419 -0.0478791 0.0272542)
(-0.0445639 -0.0122136 0.0571167)
(0.0666811 -0.120131 0.0740417)
(-0.0421316 -0.140632 -0.198944)
(-0.0713475 -0.0860307 -0.0350127)
(-0.135793 0.106068 -0.0668823)
(-0.063018 0.243399 -0.0104058)
(-0.042042 0.263013 0.00570291)
(-0.0296818 0.265456 0.0106237)
(-0.0217922 0.265443 0.00844169)
(-0.015069 0.260726 0.00816588)
(-0.010402 0.253125 0.00671799)
(-0.00380673 0.247662 0.00524074)