/*--------------------------------*- C++ -*----------------------------------*\
| =========                 |                                                 |
| \\      /  F ield         | OpenFOAM: The Open Source CFD Toolbox           |
|  \\    /   O peration     | Version:  2.3.0                                 |
|   \\  /    A nd           | Web:      www.OpenFOAM.org                      |
|    \\/     M anipulation  |                                                 |
\*---------------------------------------------------------------------------*/
FoamFile
{
    version     2.0;
    format      ascii;
    class       volVectorField;
    location    "16";
    object      U.air;
}
// * * * * * * * * * * * * * * * * * * * * * * * * * * * * * * * * * * * * * //

dimensions      [0 1 -1 0 0 0 0];

internalField   nonuniform List<vector> 
6144
(
(0.00986972 0.0206603 -0.00153977)
(0.0100772 -0.00419123 -0.00164457)
(0.00405914 -0.0070462 -0.00224816)
(0.00376117 -0.0100013 -0.00133693)
(0.00129147 -0.0117307 -0.00064157)
(0.00135917 -0.00982935 -0.00014731)
(0.000721417 -0.00903413 -0.000335002)
(0.00113858 -0.00620203 -0.00038357)
(0.00113833 -0.00400444 -0.00120215)
(0.00136933 -0.000667828 -0.00122401)
(0.0015787 0.00144685 -0.000729504)
(0.0019147 0.00307661 -9.14984e-05)
(0.00222623 0.00318271 0.00022548)
(0.00245114 0.002805 0.000369959)
(0.00254935 0.00211065 0.000265084)
(0.00259637 0.00153418 0.000141764)
(0.0026136 0.00102828 -7.27584e-06)
(0.00262411 0.000682917 -0.000108798)
(0.00262946 0.000410997 -0.00019379)
(0.00262992 0.000239278 -0.000244944)
(0.00262866 0.000108341 -0.000278906)
(0.00262211 2.22971e-05 -0.000294041)
(0.00261685 -3.2115e-05 -0.000298407)
(0.00260891 -8.14595e-05 -0.000293091)
(0.00259918 -0.000107638 -0.000284234)
(0.00258962 -0.000133379 -0.000271346)
(0.00257837 -0.000142331 -0.000257489)
(0.00256999 -0.000153642 -0.000241943)
(0.00256206 -0.000162877 -0.000224719)
(0.00255221 -0.000172793 -0.000209252)
(0.00254478 -0.00016902 -0.000194183)
(0.00253573 -0.000195988 -0.000182462)
(0.00253321 -0.000154073 -0.000167035)
(0.00252037 -0.000245417 -0.000162767)
(0.00252741 -9.51617e-05 -0.000138185)
(0.00250561 -0.000368967 -0.000148929)
(0.00252433 3.85424e-05 -9.86449e-05)
(0.00249619 -0.000635135 -0.000135458)
(0.00250909 0.000271367 -4.35591e-05)
(0.00250267 -0.00109847 -0.000100821)
(0.00247739 0.000588972 5.64025e-05)
(0.00253494 -0.00188693 2.12171e-05)
(0.0024319 0.000848754 0.0002092)
(0.00260594 -0.00330744 0.00019761)
(0.00236462 0.0010091 0.00031261)
(0.00260339 -0.00565803 0.000265396)
(0.00203889 0.00189452 -0.000115254)
(0.00203937 -0.00765878 -9.76201e-05)
(0.00154734 0.00573264 -0.000614896)
(0.00189214 -0.00703783 -0.001153)
(0.00585219 0.0120734 -0.0013502)
(0.00210159 -0.0162629 -0.00315241)
(0.00813362 0.0225266 -0.00153142)
(0.00722259 -0.0277938 -0.00400615)
(-0.00144702 0.036105 -0.00827925)
(0.00190002 -0.0276318 -0.0128555)
(0.0238 0.0788211 -0.00821077)
(0.00987551 -0.0534567 -0.0263079)
(-0.0388934 0.144609 -0.0694855)
(0.0551553 0.0351397 -0.127412)
(0.0931601 0.309603 -0.0048458)
(0.0404037 0.347227 -0.00245964)
(0.0274698 -0.126606 0.001496)
(0.0299399 -0.140386 0.00382569)
(0.0251279 -0.142033 0.00490939)
(0.0171317 -0.148652 0.00680327)
(0.0119419 -0.154699 0.00803165)
(0.0086089 -0.159253 0.00829141)
(0.006029 -0.162557 0.00783274)
(0.00407101 -0.164444 0.00696117)
(0.00266836 -0.165245 0.00608446)
(0.00173582 -0.165265 0.00530975)
(0.00119088 -0.164874 0.00461142)
(0.000809702 -0.164512 0.00410998)
(0.00068942 -0.164024 0.00352554)
(0.000456601 -0.163718 0.00308999)
(0.000368766 -0.163232 0.00261293)
(5.09159e-05 -0.16248 0.00224538)
(-0.000312831 -0.161444 0.00179215)
(-0.000768084 -0.159288 0.00138149)
(-0.0016444 -0.156671 0.000951237)
(-0.00239374 -0.151694 0.000111172)
(-0.0035933 -0.145063 -0.00012203)
(-0.00469156 -0.13636 -0.00173224)
(-0.00612279 -0.123283 -0.00134499)
(-0.00796705 -0.109155 -0.00430781)
(-0.00850377 -0.088253 -0.00388202)
(-0.0112913 -0.070649 -0.00893014)
(-0.0107045 -0.0345238 -0.0141724)
(-0.0074451 -0.00108745 -0.00485117)
(-0.00245711 0.022257 -0.00336315)
(0.000908382 0.0361288 -0.00961363)
(0.000523701 0.0477045 -0.00580352)
(-0.000357726 0.0482714 0.00666306)
(0.000198744 0.036324 0.0140129)
(0.00214584 0.0204042 0.0223403)
(0.0250264 0.0310894 0.00258704)
(0.0234049 0.011478 0.00181298)
(0.010981 0.00648943 -0.000659081)
(0.0102963 0.00112559 0.00106257)
(0.00327352 -0.00540874 0.0020364)
(0.00323153 -0.00482653 0.00269145)
(0.000880606 -0.00646315 0.00288777)
(0.00167325 -0.00308888 0.00225198)
(0.00131741 -0.00145551 0.00192603)
(0.00181079 0.00188477 0.00174905)
(0.00230025 0.00347778 0.00221129)
(0.0032087 0.00472734 0.00303423)
(0.00398107 0.00435903 0.00356117)
(0.00446107 0.0037266 0.00382888)
(0.00464834 0.00281537 0.00378903)
(0.00472449 0.00211632 0.00368743)
(0.00473334 0.00150348 0.00355181)
(0.00472989 0.00109789 0.00345619)
(0.00471358 0.000772585 0.00338138)
(0.00469345 0.000573554 0.0033447)
(0.00467291 0.000417687 0.00333058)
(0.00464633 0.000324551 0.00333851)
(0.00462421 0.000262302 0.00335845)
(0.00459857 0.000211978 0.00338849)
(0.00457123 0.000188565 0.0034212)
(0.00454435 0.00016605 0.00345814)
(0.00451507 0.000167133 0.00349716)
(0.00449185 0.000154756 0.00353842)
(0.00446899 0.000153835 0.00357954)
(0.00444372 0.000151166 0.00361716)
(0.00442576 0.000160235 0.0036541)
(0.0044002 0.000139008 0.00368621)
(0.00439651 0.000188742 0.00372187)
(0.00435625 0.000101019 0.00373997)
(0.00438558 0.000268789 0.00379335)
(0.00430767 -2.10192e-05 0.00378226)
(0.00439593 0.000439639 0.00388176)
(0.00425399 -0.000311928 0.00381171)
(0.00440739 0.000749663 0.00399755)
(0.00421433 -0.000843211 0.00384568)
(0.00439032 0.00115826 0.00415712)
(0.0042842 -0.00180783 0.00398351)
(0.00438651 0.0015584 0.00432144)
(0.00450614 -0.00349434 0.00426904)
(0.0044003 0.00188879 0.00423697)
(0.00466702 -0.00627073 0.00434746)
(0.0039471 0.00255018 0.00351351)
(0.0039632 -0.00934158 0.00375899)
(0.00265142 0.00440143 0.00216737)
(0.0033925 -0.0123823 0.00347783)
(0.00878101 0.00543303 0.00137806)
(0.00555631 -0.0175758 0.00135505)
(0.00948302 0.0115999 -7.29533e-05)
(0.00642419 -0.00998943 -0.00273453)
(0.00892636 0.0588397 0.00474986)
(0.0318 -0.0618854 -0.00267821)
(-0.0282547 0.0508862 0.00775108)
(-0.035684 -0.0238909 -0.00343775)
(-0.000404099 0.209424 0.00671461)
(0.179697 -0.0226911 -0.0693151)
(0.0987883 0.34874 -0.00653521)
(-0.0126975 0.431063 0.0101957)
(-0.0337531 -0.0980908 0.014532)
(-0.0154576 -0.0511491 0.0132145)
(-0.0201519 -0.0771621 0.0144659)
(-0.022286 -0.0969982 0.0168465)
(-0.0218629 -0.107097 0.0164224)
(-0.0207026 -0.116673 0.0151544)
(-0.0191999 -0.124672 0.0135974)
(-0.0176042 -0.130139 0.0118315)
(-0.0158318 -0.133574 0.0101757)
(-0.0139992 -0.13572 0.00872653)
(-0.0121389 -0.137105 0.007534)
(-0.0104401 -0.138217 0.00646334)
(-0.00895748 -0.139094 0.00557188)
(-0.00775531 -0.139982 0.00473872)
(-0.00690509 -0.140574 0.00406096)
(-0.00632551 -0.141057 0.00345214)
(-0.00634291 -0.140941 0.0025971)
(-0.00662336 -0.140132 0.00215517)
(-0.00754128 -0.138632 0.00141872)
(-0.00892957 -0.135312 0.000647997)
(-0.0105762 -0.13008 -0.000185789)
(-0.0129344 -0.122682 -0.0019171)
(-0.0153034 -0.111396 -0.00183269)
(-0.0171348 -0.0982733 -0.00486116)
(-0.0199946 -0.0796799 -0.00449588)
(-0.0227983 -0.0649623 -0.00850201)
(-0.0257751 -0.0374202 -0.0139095)
(-0.0233507 -0.00759617 -0.00440332)
(-0.0125107 0.0138761 -0.0012498)
(-0.00246942 0.0283023 -0.00634282)
(-0.000569376 0.0400745 -0.00395392)
(-0.00271906 0.0418339 0.0111813)
(-0.00422056 0.0310384 0.0214593)
(-0.00258826 0.0186952 0.0292403)
(0.0317125 0.0367274 0.00332406)
(0.0304505 0.0239827 0.00187544)
(0.0196917 0.0198854 -0.000273925)
(0.0188946 0.0126495 0.00180686)
(0.00649061 0.00227499 0.000921932)
(0.00437358 0.00096467 0.00180789)
(-0.000896171 -0.00411598 0.00323663)
(-1.02734e-06 -0.000497608 0.00253896)
(-0.000328335 0.000370319 0.00272906)
(0.000601674 0.00362941 0.00265188)
(0.00117458 0.00439412 0.00317593)
(0.00271 0.00537281 0.00394078)
(0.00378509 0.00470282 0.00440318)
(0.00437318 0.00412095 0.00467074)
(0.00445222 0.00324533 0.00476832)
(0.00438299 0.00259769 0.00481375)
(0.00422601 0.00199613 0.00483218)
(0.00409234 0.00159495 0.0048521)
(0.00395876 0.00126451 0.00488003)
(0.00385344 0.00105881 0.00491716)
(0.0037598 0.000893834 0.00496288)
(0.00367964 0.000792348 0.00501364)
(0.00361082 0.000721724 0.00506476)
(0.00354999 0.000664456 0.00511514)
(0.00349296 0.000633973 0.00516298)
(0.00344026 0.000606468 0.00521005)
(0.00339119 0.00061271 0.00525389)
(0.00335251 0.000592746 0.00530131)
(0.00331405 0.000598039 0.0053466)
(0.00327905 0.000597234 0.00539037)
(0.00325114 0.000602523 0.00543238)
(0.00321436 0.000593626 0.00546605)
(0.00320303 0.000626589 0.00549745)
(0.00315072 0.000570001 0.00552152)
(0.00319218 0.000690185 0.00556413)
(0.0030839 0.000471788 0.0055701)
(0.00323132 0.00083449 0.00563273)
(0.00300168 0.000202181 0.00560275)
(0.00330951 0.00110704 0.00570329)
(0.00292813 -0.000349959 0.00561987)
(0.00343177 0.00153973 0.00578875)
(0.0030157 -0.00134083 0.00562891)
(0.00366264 0.00207298 0.00586308)
(0.00342264 -0.00301282 0.00565333)
(0.00391487 0.0027309 0.0057899)
(0.00395051 -0.00551031 0.00563457)
(0.0032765 0.00394712 0.00538488)
(0.00364649 -0.00833077 0.00556965)
(0.00192294 0.00564383 0.00436202)
(0.00522486 -0.0119338 0.00598989)
(0.00671838 0.00540958 0.00385912)
(0.00689697 -0.0127265 0.00351851)
(-0.00177221 0.0111627 0.00202345)
(-0.00500871 -0.00877003 0.000240207)
(0.0261425 0.0582272 0.0135053)
(0.0463845 -0.0721335 -0.000273812)
(-0.0516089 0.0954278 0.0156281)
(-0.0763705 -0.119628 -0.00527607)
(-0.0843 0.161481 -0.0172392)
(0.185622 -0.0271836 -0.0525154)
(0.190717 0.255347 -0.0204487)
(0.0652905 0.179581 0.0082792)
(0.0732005 -0.0851011 0.0208495)
(0.0178648 0.00423608 0.0197744)
(-0.00194393 -0.0492387 0.0201757)
(-0.00359378 -0.0633605 0.0190277)
(-0.00852432 -0.0746473 0.0163017)
(-0.0125216 -0.0835904 0.0135627)
(-0.0144206 -0.0898309 0.0109675)
(-0.0147082 -0.0936146 0.00849196)
(-0.0138628 -0.095773 0.00625806)
(-0.0123714 -0.0971091 0.00426007)
(-0.0104728 -0.0984399 0.00262661)
(-0.00853857 -0.0996252 0.00118375)
(-0.00682854 -0.100752 0.000187725)
(-0.00553717 -0.101936 -0.000594014)
(-0.00466067 -0.102865 -0.00107011)
(-0.0043661 -0.103837 -0.00126699)
(-0.00479865 -0.104739 -0.00145861)
(-0.00576627 -0.105046 -0.00141675)
(-0.00779399 -0.105228 -0.00145456)
(-0.0105724 -0.103736 -0.0015692)
(-0.0137761 -0.100863 -0.00189133)
(-0.0179676 -0.0958704 -0.00294908)
(-0.0228207 -0.087795 -0.0037607)
(-0.0261299 -0.0771049 -0.00514279)
(-0.0273394 -0.06287 -0.00605438)
(-0.0306717 -0.0500619 -0.0125703)
(-0.0378208 -0.0234706 -0.0142622)
(-0.0370597 0.000376019 -0.00519325)
(-0.019574 0.0135461 -0.00197112)
(-0.00602461 0.024926 -0.004694)
(-0.00261962 0.0346608 -0.0015808)
(-0.00635583 0.0353751 0.0123646)
(-0.0112726 0.0282996 0.023857)
(-0.0121571 0.0156925 0.0323336)
(0.0342097 0.0377983 0.00385415)
(0.0349477 0.0289724 0.00486703)
(0.0253836 0.0244095 0.00119856)
(0.0264096 0.0201331 0.00187185)
(0.0147174 0.0114614 -0.000683085)
(0.0112266 0.00972238 0.000972468)
(0.000754347 -0.000452719 0.00193542)
(-0.000817313 0.00126765 0.00162854)
(-0.00201742 0.000169957 0.00178227)
(-0.000336979 0.00390271 0.00181203)
(0.000450344 0.0040278 0.00240883)
(0.00210556 0.00489991 0.00352124)
(0.00307231 0.00416931 0.00417017)
(0.00353242 0.00390431 0.00455673)
(0.00349355 0.00326046 0.00467862)
(0.00335105 0.0027804 0.00474861)
(0.00315088 0.00225432 0.00479267)
(0.00297693 0.00188072 0.00484114)
(0.0028104 0.00155735 0.00489636)
(0.00266997 0.00134459 0.00495607)
(0.00255178 0.00117497 0.0050215)
(0.00244705 0.00106829 0.00508108)
(0.00235912 0.000995741 0.00513568)
(0.00228557 0.000938997 0.00519266)
(0.00221782 0.000904779 0.00524422)
(0.00215167 0.000880896 0.0052872)
(0.0020919 0.000882536 0.00532259)
(0.00204239 0.000866071 0.00536273)
(0.00199191 0.00087346 0.00539946)
(0.0019484 0.000876051 0.00543486)
(0.0019109 0.000885306 0.00546832)
(0.00187435 0.000886595 0.00550018)
(0.00185692 0.000911428 0.0055333)
(0.00181753 0.000880156 0.00555494)
(0.00183777 0.000964669 0.0055822)
(0.00175857 0.000799538 0.005588)
(0.00188361 0.00108973 0.00563683)
(0.00170075 0.000539783 0.0056158)
(0.00200737 0.00133777 0.00569503)
(0.00165855 -2.42454e-05 0.00562617)
(0.00225489 0.00175677 0.00577287)
(0.00171503 -0.00103857 0.00559892)
(0.00269956 0.00245068 0.00591569)
(0.00197199 -0.00252811 0.00550472)
(0.00318121 0.00359661 0.00605734)
(0.00233664 -0.00454353 0.00538073)
(0.0027298 0.00555579 0.00610528)
(0.00213395 -0.0066765 0.00542737)
(0.00124516 0.00777541 0.00598739)
(0.00403873 -0.00955936 0.00620232)
(0.00422476 0.0108583 0.00432037)
(0.00536198 -0.0103517 0.00336404)
(0.00193192 0.0204098 0.00394386)
(-0.0157313 -0.0262888 -0.00842042)
(0.0295313 0.0310465 0.0303639)
(0.0386773 -0.057625 0.00949232)
(-0.00845882 0.0971401 0.0308936)
(-0.0847555 -0.136575 0.0413634)
(-0.0945112 0.168895 -0.0921896)
(0.200072 -0.111056 -0.0384247)
(0.225142 0.312934 -0.0281802)
(0.058091 0.160538 -0.000656628)
(0.0550186 0.0120407 0.0139613)
(-0.0253083 0.0658857 0.0214924)
(-0.00598442 -0.00447596 0.0241321)
(-0.012878 -0.011104 0.0168255)
(-0.0174275 -0.0296464 0.00861639)
(-0.0193643 -0.0391203 0.00386488)
(-0.0186314 -0.0443664 0.000173032)
(-0.0160357 -0.0466593 -0.00293281)
(-0.0123245 -0.0469902 -0.00530332)
(-0.0083648 -0.0457549 -0.00712109)
(-0.00482141 -0.044197 -0.00845023)
(-0.00201945 -0.0420633 -0.00915614)
(-8.25046e-07 -0.0408106 -0.00906342)
(0.00164674 -0.0399462 -0.00860196)
(0.00255754 -0.0399109 -0.00752299)
(0.00262927 -0.0410735 -0.00641451)
(0.00198674 -0.0427337 -0.00522848)
(0.000396241 -0.0451025 -0.0041173)
(-0.00245117 -0.0480954 -0.0032692)
(-0.0063343 -0.0507263 -0.00242952)
(-0.0109495 -0.0528326 -0.00185062)
(-0.0165125 -0.052621 -0.00236806)
(-0.0226101 -0.0496022 -0.0044201)
(-0.0290012 -0.0424074 -0.0080916)
(-0.0362634 -0.0284793 -0.0117927)
(-0.0449334 -0.00928406 -0.0153702)
(-0.0482571 0.00784777 -0.0131121)
(-0.0357413 0.0147832 -0.00574868)
(-0.0184157 0.0162523 -0.00212154)
(-0.00822418 0.022748 -0.00222841)
(-0.0049209 0.0290237 0.0015665)
(-0.00906379 0.029126 0.0131319)
(-0.0164126 0.0249018 0.0250531)
(-0.0199436 0.0137675 0.0338832)
(0.0346082 0.0369302 0.00491539)
(0.0367251 0.0316487 0.00670603)
(0.0272062 0.0256763 0.00311847)
(0.0290536 0.0232841 0.00397219)
(0.0180438 0.0142502 0.000301597)
(0.0176587 0.0141471 0.00149432)
(0.00649035 0.00448645 5.09939e-05)
(0.00153413 0.00509725 0.000883766)
(-0.00234917 0.00055809 0.000563958)
(-0.00153656 0.00346536 0.000805611)
(-0.000304208 0.00262569 0.00123147)
(0.00127345 0.00334648 0.00277796)
(0.00171752 0.0028124 0.0035929)
(0.00189838 0.00301036 0.00407479)
(0.00164818 0.00274183 0.0042433)
(0.00136604 0.00256711 0.00433329)
(0.00102025 0.00221074 0.00436078)
(0.000709695 0.00192148 0.00438029)
(0.000441598 0.00162848 0.00440884)
(0.00021917 0.00142918 0.00444498)
(3.3638e-05 0.00126937 0.00447903)
(-0.000117013 0.00117253 0.00451529)
(-0.000235101 0.00110238 0.00455095)
(-0.000333804 0.00104935 0.0045793)
(-0.000417262 0.00101455 0.00460129)
(-0.000488456 0.00100114 0.0046167)
(-0.000541548 0.000993931 0.00462879)
(-0.000582771 0.00098776 0.00463768)
(-0.000618225 0.000997982 0.00464558)
(-0.000644127 0.00100691 0.00465369)
(-0.000666414 0.00102154 0.00466051)
(-0.000685736 0.00103243 0.00466913)
(-0.0007012 0.00105441 0.00467504)
(-0.000718401 0.00104588 0.0046795)
(-0.000690956 0.00111468 0.00469529)
(-0.000727112 0.000988682 0.00468876)
(-0.000616645 0.00123693 0.00472415)
(-0.000744902 0.000767993 0.00469289)
(-0.000460231 0.00149015 0.00475571)
(-0.000754724 0.00025333 0.00468804)
(-0.00016118 0.00193547 0.00481969)
(-0.000712921 -0.000669697 0.00465757)
(0.000365121 0.00271798 0.00498706)
(-0.000559864 -0.00187232 0.00459595)
(0.000891443 0.00403525 0.0052987)
(-0.000241128 -0.00286728 0.00466707)
(0.000471703 0.00617792 0.00572716)
(-0.000165655 -0.00432694 0.00505835)
(-0.000460447 0.00843677 0.00636684)
(0.00102259 -0.00874661 0.00581918)
(0.000670161 0.0107726 0.00429789)
(0.00157412 -0.00883429 0.00406523)
(0.00458386 0.023457 0.00680624)
(-0.0012024 -0.0186034 -0.000341604)
(0.0109406 0.0133628 0.0456845)
(0.00517179 -0.0189915 0.0478987)
(0.00213999 0.0904494 0.0712325)
(-0.107281 -0.118914 0.0626517)
(0.00132867 0.167484 -0.18903)
(0.128928 -0.10278 -0.0207284)
(0.179817 0.490852 -0.0244271)
(0.0590971 0.607364 0.000295486)
(0.0625734 0.546592 0.00783755)
(0.00410621 0.533905 0.0064858)
(0.0141244 0.407031 0.00228002)
(0.000281987 0.305143 -0.00116578)
(-0.00190698 0.473904 -0.00649952)
(-0.00432132 0.395482 -0.00884024)
(-0.00464675 0.0589919 -0.0101417)
(-0.00391377 0.0643812 -0.012425)
(-0.000241129 0.445708 -0.0142572)
(0.00271269 0.512337 -0.0133308)
(0.00654982 0.383232 -0.0107501)
(0.00836854 0.0923726 -0.00843814)
(0.00980923 0.0730468 -0.00530367)
(0.010839 0.0721928 -0.00294389)
(0.0109418 0.0656262 -0.000970707)
(0.0101847 0.0583986 -0.000344462)
(0.00867219 0.0519434 -0.00033118)
(0.00601064 0.0454975 -0.000889114)
(0.0021921 0.0398885 -0.00204342)
(-0.00302336 0.0349283 -0.00372366)
(-0.00981382 0.0315927 -0.00581229)
(-0.0175783 0.0292673 -0.00820665)
(-0.0252755 0.0286305 -0.0107371)
(-0.031861 0.0302873 -0.0126494)
(-0.035948 0.0317002 -0.0132266)
(-0.0376 0.0310332 -0.0120024)
(-0.0330652 0.0269848 -0.00793003)
(-0.0218727 0.0210487 -0.0023527)
(-0.0122905 0.0183506 0.00169101)
(-0.00806402 0.0193938 0.00284745)
(-0.00876488 0.0232887 0.00547906)
(-0.0162088 0.0243841 0.0147189)
(-0.0271582 0.0218704 0.0263676)
(-0.0336788 0.0116766 0.0352482)
(0.0322089 0.0369515 0.00706155)
(0.0371716 0.0359801 0.00650882)
(0.0269744 0.0279044 0.00439297)
(0.0301263 0.0251041 0.00702007)
(0.0177513 0.0131159 0.00397397)
(0.0195605 0.0144926 0.00445939)
(0.00937423 0.00534402 7.02892e-05)
(0.0052283 0.00732719 0.000405045)
(-0.000408078 0.00227823 -3.89848e-06)
(-0.00127033 0.00410847 0.000784981)
(-0.000647397 0.00101848 0.000792842)
(0.000560002 0.00124372 0.00229432)
(0.000763368 0.000727152 0.00310121)
(0.000934376 0.00159085 0.00368193)
(0.000620478 0.00170574 0.00389162)
(0.000375587 0.00193453 0.00402278)
(5.44056e-05 0.00182813 0.00405192)
(-0.000229812 0.00173673 0.00404828)
(-0.0004858 0.00158432 0.00401754)
(-0.000701244 0.00147464 0.00398082)
(-0.000874389 0.00137446 0.00394618)
(-0.00100559 0.00131899 0.00391975)
(-0.0010991 0.00128248 0.00389491)
(-0.00116739 0.00126591 0.00387202)
(-0.00122255 0.00125713 0.00384737)
(-0.00126891 0.00127382 0.0038201)
(-0.00130113 0.00127468 0.00379332)
(-0.00133025 0.0012893 0.00376148)
(-0.00135343 0.00130505 0.00373041)
(-0.00136796 0.00131964 0.00370198)
(-0.0013764 0.00133869 0.00367673)
(-0.00137818 0.0013566 0.00365741)
(-0.0013768 0.00137375 0.00364173)
(-0.0013669 0.00137132 0.00363168)
(-0.00134073 0.0014274 0.0036288)
(-0.00134467 0.00133352 0.00361518)
(-0.00123696 0.00155722 0.0036461)
(-0.00130805 0.00114583 0.00361243)
(-0.00100338 0.00181552 0.00371447)
(-0.00122713 0.000684672 0.00363207)
(-0.000581448 0.00228687 0.00387147)
(-0.00110455 -5.62739e-05 0.00366981)
(-6.74356e-05 0.00315169 0.00412635)
(-0.000937693 -0.000684077 0.00372501)
(-3.72388e-05 0.00464833 0.00434925)
(-0.000860284 -0.000858888 0.00387972)
(-0.000746126 0.00705534 0.00477262)
(-0.000659752 -0.00289193 0.00434478)
(-0.000205755 0.00896296 0.00659412)
(-2.42046e-06 -0.010722 0.00517164)
(-0.000654175 0.00714866 0.00543824)
(-0.00190725 -0.0167954 0.00457074)
(0.00297923 0.0120609 0.00721836)
(0.0101591 -0.0198576 0.00175346)
(-0.00948245 0.0125306 0.0354098)
(-0.0431707 -0.0317914 0.0464434)
(0.0229653 0.0558645 0.0761888)
(-0.0641266 -0.0983272 0.0799157)
(0.0424741 -0.00769402 -0.2031)
(0.0770744 0.00437758 -0.0106998)
(0.17124 0.519589 -0.0427075)
(0.0362866 0.620367 -0.00317319)
(0.0406216 0.648436 0.00319543)
(0.021288 0.661994 0.00286408)
(0.00652066 0.641525 0.00179865)
(0.00364606 0.643384 -0.00143511)
(0.00280991 0.679065 -0.00263115)
(0.00149898 0.681232 -0.00338462)
(0.00121109 0.671844 -0.00284431)
(0.00242398 0.644668 -0.00140499)
(0.00561792 0.628832 0.00171531)
(0.00770052 0.569456 0.002917)
(0.0129088 0.603889 0.00652853)
(0.0140046 0.655328 0.00766684)
(0.0148369 0.652621 0.00852988)
(0.0167495 0.64408 0.00912114)
(0.0164759 0.631517 0.00905189)
(0.0153683 0.616717 0.00828384)
(0.014207 0.594252 0.00756323)
(0.0112373 0.587259 0.00607821)
(0.0074538 0.541575 0.00432613)
(0.00336036 0.390947 0.00268707)
(0.000318366 0.106619 0.00181797)
(-0.0046225 0.0756196 9.05935e-05)
(-0.00944303 0.0683298 -0.00109936)
(-0.0132166 0.0613305 -0.00111464)
(-0.0158088 0.0527673 -0.000305255)
(-0.0163746 0.0434338 0.0018818)
(-0.0150527 0.0328489 0.00539782)
(-0.0121084 0.0237752 0.0101821)
(-0.0111603 0.0163609 0.0138375)
(-0.0133341 0.0109708 0.0155709)
(-0.0185185 0.00837833 0.0136338)
(-0.0236126 0.00964889 0.0141048)
(-0.0328386 0.0113344 0.0230588)
(-0.0400438 0.00590416 0.0346573)
(0.0276891 0.0364416 0.00424698)
(0.0363277 0.0404634 0.00757695)
(0.0256371 0.0283693 0.00551165)
(0.0296197 0.0270204 0.0113544)
(0.0137435 0.0116116 0.0075046)
(0.0165602 0.0141665 0.00871147)
(0.00763741 0.00287659 0.00378615)
(0.00616983 0.00783493 0.00126926)
(8.92347e-05 0.00283792 0.000423864)
(-0.000714026 0.00525389 0.00215582)
(-0.000676217 0.000693695 0.00208745)
(-0.00113365 6.60659e-05 0.00289003)
(-0.00214714 -0.00075663 0.00317144)
(-0.00219515 0.000430871 0.00364281)
(-0.00247834 0.000698219 0.00392431)
(-0.00257389 0.0012799 0.00409025)
(-0.00286338 0.00143456 0.00409424)
(-0.00316264 0.00159682 0.00403993)
(-0.00346654 0.00162915 0.00397326)
(-0.00373383 0.00166157 0.00387561)
(-0.00394607 0.00166162 0.0037571)
(-0.00410255 0.00168146 0.0036519)
(-0.00421135 0.00169487 0.00355927)
(-0.00428347 0.00171585 0.00348218)
(-0.00432933 0.00173538 0.00341688)
(-0.00434732 0.0017585 0.0033648)
(-0.00433884 0.00176372 0.0033206)
(-0.00431343 0.0017761 0.00327316)
(-0.00427553 0.00178492 0.00323179)
(-0.00423024 0.00179322 0.00319661)
(-0.00418307 0.00180266 0.00316879)
(-0.00413156 0.00181664 0.00315247)
(-0.00408533 0.00181865 0.0031454)
(-0.00402769 0.00181257 0.00315034)
(-0.00397107 0.00184299 0.00316403)
(-0.00390314 0.00175478 0.00319156)
(-0.00380827 0.00193577 0.0032441)
(-0.00374966 0.00157217 0.00327277)
(-0.00355024 0.00216655 0.0034163)
(-0.00355581 0.00121278 0.00340555)
(-0.00319879 0.00265485 0.00367732)
(-0.00337579 0.000751527 0.00359494)
(-0.00296581 0.00358331 0.00392621)
(-0.00321801 0.000461623 0.00381944)
(-0.00325142 0.00512341 0.00396092)
(-0.00310547 0.000177039 0.00391996)
(-0.00333251 0.00730138 0.00396051)
(-0.00209572 -0.00249723 0.00417656)
(-0.000655296 0.00840147 0.00631633)
(0.00125678 -0.0102439 0.00574979)
(-0.00242168 0.00435088 0.00534831)
(0.000223766 -0.0183376 0.00617115)
(0.000875869 0.00224574 0.00353672)
(0.00759887 -0.0206822 -0.00243317)
(-0.0182816 0.0184143 0.0211823)
(-0.0527594 -0.0395741 0.0337114)
(-0.00599939 -0.014101 0.0730959)
(0.00159655 -0.106785 0.0984535)
(0.0396254 -0.145895 -0.207081)
(0.0434408 0.124886 -0.0161539)
(0.0835343 0.583262 -0.0518367)
(0.0251636 0.428769 -0.0116632)
(0.0202559 0.720274 0.000964363)
(0.00977129 0.658605 0.0078037)
(0.00798079 0.481905 0.0133474)
(0.00309567 0.560978 0.0113738)
(0.00286726 0.780905 0.00866268)
(0.00282707 0.75871 0.0082205)
(0.00362163 0.773578 0.00855242)
(0.00801289 0.771138 0.0111873)
(0.00976296 0.812505 0.0122655)
(0.0160575 0.772413 0.0153544)
(0.0184955 0.736855 0.0171529)
(0.0204856 0.667895 0.0183965)
(0.0221261 0.753273 0.0197193)
(0.0235778 0.726337 0.0204381)
(0.0242436 0.730015 0.0213995)
(0.0240729 0.653617 0.0218472)
(0.022247 0.686446 0.021852)
(0.0196546 0.671081 0.0212753)
(0.0173425 0.657147 0.0206831)
(0.0135366 0.667481 0.0199428)
(0.00761644 0.620808 0.0186797)
(0.00243355 0.607567 0.0177834)
(-0.00120536 0.599381 0.0177937)
(-0.00438377 0.594182 0.0185938)
(-0.0070698 0.531488 0.0195405)
(-0.0096782 0.552594 0.0220953)
(-0.0125262 0.533746 0.0251779)
(-0.0140755 0.504807 0.0266174)
(-0.0176392 0.517339 0.0272737)
(-0.0253172 0.471062 0.0251226)
(-0.0323868 0.302839 0.0221595)
(-0.0385693 0.029439 0.0223991)
(-0.0526864 0.0310876 0.0263763)
(-0.0692701 0.400413 0.0334133)
(0.0272603 0.0325806 -0.000649872)
(0.0341007 0.0427541 0.00901673)
(0.020951 0.0242938 0.00818836)
(0.0253903 0.0274553 0.014915)
(0.00890186 0.012303 0.00988422)
(0.0130433 0.0159195 0.0125097)
(0.00220526 0.000759438 0.00790783)
(0.00353142 0.00785296 0.00443159)
(-0.00169258 0.00175997 0.0025606)
(-0.000930486 0.00547579 0.00431402)
(-0.000847624 0.00033876 0.00436522)
(-0.00167803 0.000235626 0.00466459)
(-0.00297555 -0.000944533 0.00476689)
(-0.0030292 5.12672e-05 0.00506991)
(-0.00319049 -3.17776e-05 0.00543089)
(-0.00321671 0.000668115 0.00560056)
(-0.00339638 0.000942609 0.00566208)
(-0.00352486 0.00134585 0.00563165)
(-0.00364376 0.00157969 0.00552766)
(-0.0037204 0.00176907 0.00543458)
(-0.00375583 0.00187849 0.0053645)
(-0.00375825 0.00196661 0.00530849)
(-0.00373238 0.00202308 0.00526658)
(-0.00368031 0.00207733 0.00524055)
(-0.00361333 0.00213585 0.00522562)
(-0.00353702 0.00218855 0.00521917)
(-0.00346759 0.00224604 0.00520866)
(-0.00340687 0.0022864 0.0051841)
(-0.00335004 0.0023016 0.00515923)
(-0.00329533 0.0023077 0.00513684)
(-0.0032433 0.00231123 0.00511922)
(-0.00318794 0.00230692 0.00511015)
(-0.00314209 0.00230134 0.00510499)
(-0.00308684 0.00228409 0.00511008)
(-0.00304058 0.00229931 0.00512248)
(-0.00296947 0.00221185 0.00515237)
(-0.00290607 0.00237684 0.00519037)
(-0.0028207 0.00203873 0.00521923)
(-0.00269141 0.0026161 0.00532939)
(-0.00262879 0.0018001 0.00531815)
(-0.0024248 0.00316594 0.00550203)
(-0.00246333 0.00163092 0.00543717)
(-0.00233198 0.004198 0.00551961)
(-0.00237108 0.00162059 0.00547487)
(-0.00284117 0.00572936 0.00498191)
(-0.00238629 0.000781561 0.00512924)
(-0.00308352 0.00765223 0.00429196)
(-0.00159741 -0.00302421 0.00483299)
(-0.000342445 0.0101397 0.00671867)
(0.00160679 -0.00999908 0.00595308)
(-0.00127403 0.0121708 0.00836941)
(0.00398267 -0.0149561 0.00877094)
(-0.00155642 0.0101622 0.00490084)
(0.00704365 -0.00738581 0.00215265)
(-0.00791342 0.0449614 0.0234729)
(-0.0281906 -0.0442611 0.0464483)
(-0.0203034 -0.0297093 0.080568)
(0.0349046 -0.101506 0.0972837)
(-0.00136857 -0.156336 -0.193305)
(-0.0250302 0.172307 -0.0262746)
(-0.0343337 0.67763 -0.0706066)
(-0.0261514 0.766668 -0.00768915)
(-0.0191127 0.803371 0.00147701)
(-0.0155436 0.817583 0.0117954)
(-0.00318356 0.825611 0.0129541)
(-0.00491999 0.828405 0.0151122)
(-0.000540359 0.840506 0.0148513)
(0.000818926 0.842917 0.0125343)
(0.0036856 0.827281 0.0111565)
(0.00904657 0.826206 0.013599)
(0.012051 0.823552 0.015017)
(0.0156663 0.817607 0.0162816)
(0.0195598 0.813781 0.0177541)
(0.0223234 0.808836 0.0191533)
(0.0242061 0.799781 0.0206342)
(0.0255043 0.800349 0.0222342)
(0.0265327 0.794947 0.0236891)
(0.0264651 0.785997 0.0257002)
(0.0254692 0.781375 0.0273471)
(0.0239426 0.773868 0.0289421)
(0.021177 0.764769 0.0304963)
(0.0175935 0.757867 0.0318129)
(0.0133779 0.748359 0.0326762)
(0.00853382 0.737081 0.0337283)
(0.00381689 0.724924 0.0347835)
(-0.000264664 0.711465 0.0358457)
(-0.0039184 0.697586 0.0367908)
(-0.00733664 0.682176 0.037864)
(-0.0109688 0.663094 0.0386558)
(-0.0157505 0.649687 0.0395761)
(-0.0213589 0.625465 0.0394018)
(-0.0295164 0.60352 0.0374017)
(-0.0405852 0.590966 0.0337445)
(-0.0491401 0.53978 0.0303168)
(-0.0652115 0.525161 0.0219138)
(-0.073439 0.477639 0.0106987)
(0.0121483 0.0297289 -0.0172137)
(0.0305879 0.0420941 0.00740274)
(0.0107142 0.0195891 0.00667132)
(0.017739 0.0283515 0.0118899)
(0.000960174 0.0145197 0.0085287)
(0.00688808 0.0189383 0.0119364)
(-0.00348958 0.0036916 0.00680543)
(-0.000866946 0.0105426 0.00389528)
(-0.00488077 0.00230586 0.000589105)
(-0.00298097 0.00619681 0.00149661)
(-0.00311445 0.000475907 0.00160062)
(-0.00491143 0.00130655 0.00140413)
(-0.00706666 -0.000962124 0.00120458)
(-0.00672022 -0.000185706 0.00136662)
(-0.00700908 -0.000596962 0.00170614)
(-0.00702996 0.000207125 0.00194024)
(-0.00730471 0.00056426 0.00215716)
(-0.00750971 0.00111569 0.00227127)
(-0.00770466 0.00146569 0.00232467)
(-0.00787061 0.00175656 0.0023487)
(-0.00800476 0.00195076 0.00235352)
(-0.00810932 0.00210211 0.0023527)
(-0.00819072 0.00220411 0.00235023)
(-0.00825252 0.00229154 0.00235288)
(-0.00829792 0.00236673 0.00236023)
(-0.00831956 0.00243024 0.00237369)
(-0.00828472 0.00247365 0.00239048)
(-0.00816696 0.00249564 0.00242249)
(-0.00804476 0.00250762 0.0024591)
(-0.00792393 0.00251376 0.00249571)
(-0.00780146 0.00251455 0.00253493)
(-0.00766989 0.00250657 0.00257964)
(-0.00754129 0.00250604 0.00262312)
(-0.00739902 0.00248939 0.00266936)
(-0.00727265 0.00249803 0.00271525)
(-0.00710878 0.00243189 0.00278048)
(-0.00702392 0.00257177 0.0028417)
(-0.00678454 0.00231424 0.00293062)
(-0.00682955 0.00282796 0.00298953)
(-0.00645631 0.00220784 0.00308711)
(-0.00673427 0.00343312 0.00311974)
(-0.00617407 0.00228058 0.00324697)
(-0.00688858 0.00459747 0.00305283)
(-0.00583691 0.00254789 0.00326007)
(-0.00688576 0.00641781 0.00241815)
(-0.00538753 0.00157417 0.00266541)
(-0.0059157 0.00829298 0.00153813)
(-0.00455761 -0.00310004 0.00180966)
(-0.00274577 0.010332 0.00341939)
(-0.00352271 -0.0115555 0.00332021)
(-0.00417724 0.0124082 0.00690805)
(0.00216419 -0.0135641 0.00760565)
(-0.0129193 0.00862387 0.000566607)
(-0.0121087 -0.0041777 0.0022249)
(-0.0177937 0.0547117 0.0101292)
(-0.00492418 -0.0478788 0.0272542)
(-0.0445639 -0.0122128 0.0571167)
(0.0666813 -0.120129 0.0740418)
(-0.0421315 -0.140632 -0.198944)
(-0.0820448 0.099856 -0.0254291)
(-0.155054 0.588215 -0.0671395)
(-0.0678025 0.698328 -0.00726548)
(-0.0507157 0.68351 0.00200782)
(-0.0350871 0.620036 0.00872966)
(-0.0240048 0.677682 0.00827532)
(-0.0169829 0.680694 0.00816642)
(-0.0116043 0.716855 0.00661571)
(-0.00637799 0.712598 0.00514086)
(0.000765149 0.72103 0.00353451)