/*--------------------------------*- C++ -*----------------------------------*\
| =========                 |                                                 |
| \\      /  F ield         | OpenFOAM: The Open Source CFD Toolbox           |
|  \\    /   O peration     | Version:  2.3.0                                 |
|   \\  /    A nd           | Web:      www.OpenFOAM.org                      |
|    \\/     M anipulation  |                                                 |
\*---------------------------------------------------------------------------*/
FoamFile
{
    version     2.0;
    format      ascii;
    class       volVectorField;
    location    "16";
    object      U.airMean;
}
// * * * * * * * * * * * * * * * * * * * * * * * * * * * * * * * * * * * * * //

dimensions      [0 1 -1 0 0 0 0];

internalField   nonuniform List<vector> 
6144
(
(0.00737432 0.0201635 -0.000621174)
(0.00747956 0.00483177 -0.000681698)
(0.00401241 0.00253685 -0.001397)
(0.0041104 0.000514159 -0.00147133)
(0.00288882 -0.000911981 -0.00127922)
(0.0030442 -0.000382587 -0.00121156)
(0.00273505 -0.000690549 -0.00134064)
(0.00293131 -1.71482e-05 -0.0014062)
(0.00288709 0.000207193 -0.00172622)
(0.00302781 0.000938701 -0.00182768)
(0.00304621 0.0013233 -0.00184151)
(0.00318745 0.00171208 -0.00173536)
(0.0032653 0.00162951 -0.00171566)
(0.00336163 0.00150183 -0.00170143)
(0.0033911 0.00121594 -0.00176993)
(0.00342374 0.00101875 -0.00181965)
(0.00343201 0.000804222 -0.00188933)
(0.0034422 0.000678179 -0.0019318)
(0.00344477 0.000554771 -0.00197501)
(0.00344826 0.000488274 -0.002)
(0.00344768 0.000425935 -0.00202196)
(0.00344797 0.000393037 -0.00203364)
(0.00344583 0.000363731 -0.00204243)
(0.00344395 0.000347763 -0.00204597)
(0.00344097 0.000334848 -0.00204721)
(0.00343776 0.000326387 -0.00204585)
(0.00343407 0.000321391 -0.00204292)
(0.00342999 0.000313426 -0.00203807)
(0.00342661 0.00031633 -0.00203184)
(0.00342047 0.000290873 -0.00202323)
(0.00341837 0.000320185 -0.00201305)
(0.003409 0.000235988 -0.00199908)
(0.00341043 0.000331082 -0.00198119)
(0.00339648 0.000115656 -0.00195771)
(0.00340467 0.000328381 -0.00192438)
(0.00338617 -0.000127267 -0.00188435)
(0.00340405 0.000252507 -0.00183003)
(0.00338431 -0.000575789 -0.00177802)
(0.00341159 1.55692e-05 -0.00172526)
(0.00340183 -0.00127556 -0.00171454)
(0.00341721 -0.000351154 -0.00175292)
(0.00341911 -0.00197983 -0.00188287)
(0.00342966 -0.000329962 -0.00212013)
(0.00347671 -0.00201645 -0.00239847)
(0.00350999 0.000766714 -0.00264596)
(0.00359168 -0.00131661 -0.00279716)
(0.00375595 0.00232427 -0.00314886)
(0.00335808 0.000169129 -0.00384858)
(0.0016706 0.00976195 -0.00474067)
(0.00332523 0.0104053 -0.00592419)
(0.00774728 0.0180559 -0.00686077)
(0.013025 0.00439385 -0.00655819)
(0.0195141 0.00550047 -0.00774994)
(0.0234253 -0.0292735 -0.00742587)
(0.0239946 -0.0192776 -0.0104961)
(0.0240924 -0.0653728 -0.00715538)
(0.0153536 -0.0206604 -0.0203107)
(0.0180027 -0.083998 0.0133883)
(-0.026986 0.0422501 -0.0544358)
(0.0268887 0.0965835 0.0383917)
(0.0979632 0.330026 0.0446927)
(0.0437104 0.396448 0.000406785)
(0.0472609 -0.0866779 0.0104167)
(0.0434488 -0.140989 0.00829433)
(0.0347088 -0.149724 0.00684239)
(0.0283923 -0.13697 0.0056561)
(0.0225778 -0.139932 0.00383301)
(0.0180325 -0.129523 0.00213677)
(0.015112 -0.130044 0.00165182)
(0.0136388 -0.120437 0.00198963)
(0.0128688 -0.120197 0.00278469)
(0.0119992 -0.113207 0.00321333)
(0.0102938 -0.109268 0.00371961)
(0.00688927 -0.0998284 0.00370485)
(0.00233809 -0.0897161 0.00360857)
(-0.000103354 -0.0758906 0.00299647)
(0.00020948 -0.064895 0.00100479)
(-0.000121814 -0.054539 -0.000186384)
(-0.000907987 -0.0445229 -0.000211036)
(0.000538613 -0.034756 -0.000694833)
(0.00315265 -0.0256632 -0.00127074)
(0.00522879 -0.017783 -0.00066688)
(0.00654982 -0.0137491 0.00117348)
(0.00653566 -0.0134482 0.00206293)
(0.00572056 -0.0126643 0.00113438)
(0.00547037 -0.0117077 -0.000536435)
(0.00477933 -0.00881976 -0.00175047)
(0.00375874 -0.00461991 -0.00223301)
(0.00134777 0.000646124 -0.00303197)
(-0.000637297 0.0104531 -0.00373781)
(0.00111575 0.0197803 -0.00362146)
(0.00306894 0.0274708 -0.0031057)
(0.00413698 0.0333624 0.00104392)
(0.00525997 0.0329179 0.00540454)
(0.00676179 0.0289108 0.00719311)
(0.00851717 0.0195485 0.00891962)
(0.0155241 0.0225624 0.00286612)
(0.0163682 0.0100447 0.00281838)
(0.00898825 0.00677484 0.00105954)
(0.00977791 0.00459278 0.00109481)
(0.00607456 0.00174926 0.00130345)
(0.00650831 0.00223519 0.00126935)
(0.00544446 0.00111429 0.00133614)
(0.00588872 0.00191032 0.0011925)
(0.00563917 0.00173202 0.000996139)
(0.0059636 0.00236135 0.000864281)
(0.0059697 0.00248472 0.00077527)
(0.00636061 0.00275367 0.000926053)
(0.00652916 0.0024775 0.000975445)
(0.00677365 0.00223808 0.00103274)
(0.00681063 0.0018277 0.000954384)
(0.00688582 0.00156364 0.000908275)
(0.00687605 0.00127814 0.000821558)
(0.00689225 0.00111441 0.000778324)
(0.00687901 0.00095275 0.000727712)
(0.0068773 0.000865306 0.000705701)
(0.00686555 0.000782948 0.000685683)
(0.00685825 0.000739127 0.000680923)
(0.0068474 0.000699487 0.000679491)
(0.00683755 0.000677769 0.000685617)
(0.00682653 0.000659551 0.000694631)
(0.00681537 0.000647703 0.000707231)
(0.00680388 0.000639436 0.000721763)
(0.00679174 0.000629028 0.000738775)
(0.00678102 0.000628182 0.000757887)
(0.00676551 0.000599858 0.000779484)
(0.00675908 0.000626136 0.000804215)
(0.00673552 0.000530173 0.000832247)
(0.00674052 0.000629884 0.000867842)
(0.00670474 0.000379829 0.000905613)
(0.00673186 0.000616301 0.00095849)
(0.00668568 8.21321e-05 0.00100997)
(0.00674771 0.000522185 0.00108036)
(0.00670215 -0.000456583 0.00113503)
(0.00680668 0.000267471 0.00118904)
(0.00677439 -0.00127969 0.00117417)
(0.00686883 -0.000109017 0.00108619)
(0.00681728 -0.00213585 0.000834178)
(0.00679269 -0.000112306 0.000432355)
(0.006665 -0.00224192 -4.48577e-05)
(0.0066555 0.00120727 -0.000504579)
(0.00672298 -0.00111182 -0.000869754)
(0.00608427 0.0038223 -0.00166533)
(0.00347709 0.00376333 -0.0025804)
(0.00226443 0.0133165 -0.00238019)
(0.00761258 0.00731603 -0.00274236)
(0.0188575 0.00996063 -0.00240086)
(0.0270627 -0.0121463 -0.00059226)
(0.0406196 -0.0119829 0.00322729)
(0.0484382 -0.0504195 0.00842966)
(0.0458893 -0.0401821 0.00905547)
(0.0502545 -0.0990527 0.0142235)
(0.0242537 -0.0578987 0.00728596)
(0.0178528 -0.162729 0.0358028)
(-0.0593184 0.0480553 -0.0956892)
(0.0211694 0.0433092 0.0198856)
(0.104206 0.354391 0.0843328)
(0.019392 0.431304 -0.00051241)
(0.0159043 -0.0455697 0.0061031)
(0.01748 -0.000709034 0.0109506)
(0.00834321 -0.0210291 0.0100265)
(0.00332358 -0.0013958 0.00631893)
(0.00261739 -0.00562793 0.00327684)
(0.00587425 0.00396296 0.00393644)
(0.00946325 0.000642341 0.00625466)
(0.0102435 0.00501191 0.0046771)
(0.00876046 -0.000107553 0.00565756)
(0.00584226 0.000541938 0.0070322)
(0.00212254 -0.00522796 0.00689296)
(-0.00148444 -0.00643648 0.0047395)
(-0.00339142 -0.00950801 0.00287861)
(-0.00211471 -0.00812201 0.00108927)
(0.000381964 -0.00802599 -0.000337729)
(0.00116727 -0.00479503 0.00130227)
(0.000886234 -0.00334188 0.00251956)
(0.00152758 -0.0019135 0.00331017)
(0.00247046 0.000354978 0.00316529)
(0.00497984 0.00397091 0.0049103)
(0.0073935 0.00286462 0.00756312)
(0.00634496 -0.000137597 0.00875542)
(0.00396435 -0.00256915 0.0083293)
(0.0023266 -0.00438864 0.00797545)
(0.00102423 -0.00428378 0.00748771)
(-0.000198965 -0.00363924 0.00639828)
(-0.000661275 -0.00266503 0.00513303)
(-0.00130519 -0.00107619 0.00304307)
(-0.00153198 0.00123888 0.000948082)
(-0.000616887 0.00611067 -0.00217859)
(0.00116952 0.015713 -0.000198305)
(0.00374316 0.0199283 0.00612459)
(0.0058895 0.0201718 0.010931)
(0.00777896 0.0147689 0.0129914)
(0.018657 0.0221377 0.00404323)
(0.0207976 0.0123749 0.00391819)
(0.0114777 0.00838651 0.00163534)
(0.0132237 0.00748025 0.00189863)
(0.00737515 0.00329772 0.00207178)
(0.00775385 0.0038972 0.00222647)
(0.00564745 0.00195681 0.00265981)
(0.00624875 0.0029274 0.00265379)
(0.00579708 0.00247449 0.00264249)
(0.00624738 0.00309388 0.00264676)
(0.00616346 0.00289879 0.00257115)
(0.00674995 0.00313205 0.00272183)
(0.00696437 0.00270802 0.00278081)
(0.00729569 0.00246923 0.00286096)
(0.00728314 0.00200723 0.0028347)
(0.00734453 0.0017485 0.00283882)
(0.00727284 0.00144066 0.00280641)
(0.00726123 0.00127802 0.00280546)
(0.00720489 0.00110628 0.0027949)
(0.0071776 0.00101865 0.00280413)
(0.00713773 0.00093205 0.00281131)
(0.00710975 0.00088703 0.00282856)
(0.00707899 0.000845907 0.00284558)
(0.00705251 0.000823265 0.00286719)
(0.00702611 0.00080427 0.00288949)
(0.00700123 0.000792228 0.00291356)
(0.00697718 0.000783072 0.00293793)
(0.00695368 0.000772528 0.00296307)
(0.0069322 0.0007702 0.00298876)
(0.00690794 0.000744271 0.00301481)
(0.00689445 0.000765751 0.00304171)
(0.00686295 0.000677226 0.00306881)
(0.00686947 0.000767377 0.00309899)
(0.00682721 0.000531956 0.00312757)
(0.006873 0.000756599 0.00316467)
(0.00682545 0.000252353 0.00319569)
(0.00693205 0.000693988 0.00323919)
(0.00689202 -0.000218266 0.00326576)
(0.00706816 0.000560846 0.00329434)
(0.0070342 -0.000854418 0.00327424)
(0.00720253 0.000449609 0.00320775)
(0.00708011 -0.00146225 0.00303649)
(0.00700306 0.000674292 0.00276321)
(0.00670597 -0.00151577 0.0024184)
(0.0066645 0.00205081 0.00197703)
(0.00659848 3.29012e-05 0.00141936)
(0.00552522 0.0055063 0.000516069)
(0.00360468 0.00341994 -0.000159283)
(0.005097 0.0091844 -0.00015906)
(0.0150451 -0.00219696 -0.000571985)
(0.0313024 -0.00106368 0.00104942)
(0.0442844 -0.0228883 0.00262089)
(0.0565289 -0.0190306 0.00970625)
(0.0640245 -0.0535723 0.0155111)
(0.0630194 -0.0377706 0.0214949)
(0.0713993 -0.102493 0.0273896)
(0.0346746 -0.0475946 0.0325958)
(0.0497976 -0.191851 0.0773827)
(-0.0623584 0.0843158 -0.0730841)
(0.0441048 0.0205953 0.00150645)
(0.1449 0.384835 0.108551)
(0.0606263 0.47553 0.0266893)
(0.0504804 0.0609031 0.0228424)
(0.0359686 0.137321 0.00720519)
(0.0222264 0.101381 0.00890664)
(0.0174806 0.125365 0.00932108)
(0.0169693 0.10972 0.0121662)
(0.0148207 0.112331 0.0103331)
(0.0174179 0.102797 0.00876874)
(0.0180417 0.0914878 0.00789753)
(0.0162595 0.0664011 0.00748174)
(0.0120537 0.050229 0.00783059)
(0.0083803 0.037437 0.0074532)
(0.00469966 0.0337768 0.00614223)
(0.00181621 0.0286261 0.00496139)
(0.00207722 0.0264807 0.00300218)
(0.00192242 0.023807 0.0022517)
(0.00134859 0.0235551 0.00384048)
(0.000375617 0.0208516 0.00480321)
(-0.000290841 0.0184644 0.00538342)
(0.000967427 0.0167263 0.00606105)
(0.0032532 0.0153343 0.00858523)
(0.00466442 0.0112833 0.0128993)
(0.00234353 0.00663932 0.0149357)
(-0.00190179 0.00179605 0.0148178)
(-0.00524472 -0.00131325 0.0139631)
(-0.00634316 -0.00136035 0.0118076)
(-0.00701557 -0.000682745 0.00990462)
(-0.00682048 0.000315497 0.00849955)
(-0.00587712 0.00157175 0.00692951)
(-0.00516433 0.0031079 0.00595678)
(-0.00580308 0.00385989 0.00423083)
(-0.0041773 0.0081803 0.00400209)
(-0.000673557 0.0120552 0.00776156)
(0.00197771 0.0133928 0.013038)
(0.000818025 0.0102799 0.0148842)
(0.0197026 0.0216976 0.00461075)
(0.024051 0.014135 0.00468002)
(0.0125548 0.00872521 0.00133055)
(0.0161602 0.00993888 0.00148759)
(0.00896245 0.00447877 0.00121454)
(0.00954363 0.00586083 0.00150466)
(0.00580164 0.00222854 0.00231797)
(0.00614636 0.00344277 0.00249142)
(0.00521562 0.00252009 0.00272528)
(0.00588245 0.00347939 0.0028804)
(0.00567271 0.00304059 0.00289916)
(0.00634165 0.00335982 0.00317893)
(0.00648831 0.00283727 0.00334098)
(0.00682791 0.00269395 0.00348202)
(0.00674747 0.00220535 0.00349727)
(0.00679338 0.00199217 0.00352637)
(0.00667682 0.00165991 0.00351999)
(0.00664766 0.00150779 0.00353793)
(0.00656082 0.00131977 0.00354619)
(0.00651692 0.0012325 0.00356969)
(0.00645658 0.00113764 0.00358896)
(0.0064151 0.00109114 0.00361569)
(0.00637079 0.0010462 0.00364052)
(0.00633358 0.00102202 0.00366815)
(0.00629695 0.0010009 0.00369444)
(0.00626276 0.000987906 0.00372095)
(0.00623005 0.000977374 0.00374677)
(0.00619853 0.000967077 0.00377198)
(0.00616934 0.000962155 0.0037965)
(0.00613992 0.000938652 0.00382032)
(0.00612164 0.000953884 0.00384348)
(0.00608802 0.000873559 0.00386618)
(0.0060964 0.000952495 0.00388952)
(0.00605509 0.000734535 0.0039106)
(0.00611458 0.000948685 0.00393447)
(0.00606536 0.000480693 0.0039512)
(0.00619733 0.000934994 0.00397153)
(0.0061396 0.000104952 0.00397225)
(0.00634376 0.000970473 0.00396559)
(0.00627714 -0.000289129 0.00392422)
(0.00650785 0.00119841 0.00385628)
(0.00636064 -0.000585336 0.00375008)
(0.00636126 0.00164439 0.00359456)
(0.00580077 -0.000804157 0.00343282)
(0.00528718 0.00265121 0.00326816)
(0.00494425 0.000455036 0.00305656)
(0.00484544 0.00555526 0.00265383)
(0.00416849 0.00161864 0.00248882)
(0.00915385 0.00426801 0.00261032)
(0.0209846 -0.00947215 0.0017956)
(0.0384923 -0.00871559 0.00464198)
(0.0531516 -0.0244615 0.00896557)
(0.0624834 -0.0140626 0.0213883)
(0.0692576 -0.0433862 0.031279)
(0.0672917 -0.0140226 0.0451632)
(0.078377 -0.0878993 0.0523708)
(0.0416756 0.0139995 0.0894234)
(0.0756895 -0.216539 0.131514)
(-0.0822907 0.202705 -0.0392875)
(0.040955 -0.0363588 0.0279843)
(0.121307 0.451665 0.116268)
(0.0347006 0.571887 0.019307)
(0.0168742 0.405048 0.0152492)
(-0.00155091 0.461287 -0.00111615)
(0.000172 0.416915 0.00815157)
(-0.00380881 0.408053 0.00564107)
(-0.000414372 0.377007 0.00635492)
(0.00149995 0.356269 0.00565899)
(0.00537631 0.337315 0.00488579)
(0.00768531 0.326931 0.0044741)
(0.00812376 0.303523 0.00475113)
(0.00696087 0.286615 0.00363356)
(0.00567793 0.257556 0.00357278)
(0.00456915 0.219916 0.00318824)
(0.00500349 0.179992 0.00323847)
(0.0049441 0.155133 0.00244297)
(0.00414242 0.141256 0.00237376)
(0.00330915 0.122665 0.00378687)
(0.00246673 0.0944513 0.00539312)
(0.000937864 0.0639607 0.0070881)
(-0.000318257 0.0456078 0.00904132)
(-0.00109678 0.0365647 0.0117235)
(-0.00150241 0.0292983 0.0155329)
(-0.00406722 0.0224981 0.0158815)
(-0.00927533 0.0174775 0.0147164)
(-0.0139761 0.0133412 0.0145373)
(-0.0157088 0.0122886 0.0122874)
(-0.0154637 0.0113027 0.00977893)
(-0.0144504 0.0105779 0.00796025)
(-0.0126623 0.011563 0.00662208)
(-0.0112852 0.012528 0.006603)
(-0.0107944 0.0116146 0.00572379)
(-0.0101937 0.0129067 0.00640854)
(-0.00752028 0.0130222 0.0106257)
(-0.0074034 0.0125283 0.0142367)
(-0.0102196 0.0104188 0.0150708)
(0.0190118 0.0212769 0.00537829)
(0.0261369 0.0161681 0.00588521)
(0.0127204 0.00838977 0.00118449)
(0.0182537 0.0118469 0.00173553)
(0.0103375 0.00448708 0.000287258)
(0.0118564 0.00723353 0.000461938)
(0.00673476 0.0023667 0.00108141)
(0.00630177 0.00387934 0.00159314)
(0.00426734 0.00190012 0.00204935)
(0.00475896 0.00306296 0.00242798)
(0.00441477 0.00242625 0.00262804)
(0.00509349 0.00303123 0.00315882)
(0.00505837 0.00256316 0.00346759)
(0.00533313 0.00262155 0.00370975)
(0.00512527 0.00217883 0.00376604)
(0.00510809 0.00207349 0.00382572)
(0.00490406 0.00175159 0.00382463)
(0.00482255 0.00163717 0.00384711)
(0.00468178 0.00144386 0.00385359)
(0.00460102 0.0013683 0.00387509)
(0.00450846 0.00126958 0.00388995)
(0.00444316 0.00122567 0.00391232)
(0.00437906 0.00117902 0.00393017)
(0.00432662 0.00115528 0.00395004)
(0.00427862 0.00113373 0.00396759)
(0.00423615 0.00112015 0.00398515)
(0.00419715 0.00110926 0.00400103)
(0.00416209 0.00110007 0.00401597)
(0.00413083 0.00109449 0.00402995)
(0.00410185 0.00107621 0.00404163)
(0.0040843 0.0010895 0.00405121)
(0.00405629 0.00102271 0.00405841)
(0.0040686 0.00109507 0.00406484)
(0.00403576 0.000903281 0.0040654)
(0.00410909 0.00111099 0.00406862)
(0.00407274 0.000695054 0.00405903)
(0.00423136 0.00116299 0.00405065)
(0.00417329 0.000430524 0.00401045)
(0.0044102 0.0013472 0.00396873)
(0.00432022 0.000228766 0.00389522)
(0.00461669 0.00180784 0.00383561)
(0.00449099 0.000171752 0.00378533)
(0.00468296 0.00243813 0.00371528)
(0.00410811 -0.000186062 0.00358414)
(0.00348056 0.00290272 0.00343851)
(0.00285234 -3.38921e-05 0.0034748)
(0.00293187 0.00424866 0.00372254)
(0.00390195 -0.000869369 0.00424733)
(0.0113763 -0.000615108 0.0043104)
(0.0251674 -0.0134608 0.00465084)
(0.0418077 -0.00845268 0.0084957)
(0.0540335 -0.0152431 0.015506)
(0.0604033 0.000845841 0.0281375)
(0.063158 -0.0239812 0.0380359)
(0.0587532 0.0146499 0.0607576)
(0.0638954 -0.0519748 0.0686326)
(0.0451125 0.0856844 0.111013)
(0.0696547 -0.157598 0.133676)
(-0.0554721 0.334588 0.00428687)
(0.0328692 -0.0747736 0.0362579)
(0.101348 0.491189 0.126087)
(0.0243462 0.608079 0.018815)
(0.013148 0.532441 0.0151715)
(-0.000742301 0.597957 -0.0019692)
(0.00383017 0.586866 0.00676437)
(0.000113587 0.606346 0.00786044)
(0.00455604 0.601426 0.00857091)
(0.00676465 0.607559 0.0067969)
(0.0113577 0.599426 0.00563088)
(0.0144278 0.594579 0.00426779)
(0.0165468 0.579937 0.0040281)
(0.0168207 0.568899 0.00327594)
(0.0168766 0.555574 0.00338179)
(0.0153843 0.53926 0.00299691)
(0.0142827 0.517249 0.00301087)
(0.0119267 0.48602 0.00336014)
(0.0105393 0.458177 0.00476503)
(0.00800455 0.431168 0.00676388)
(0.00560061 0.400059 0.0099992)
(0.00305238 0.369925 0.0126007)
(-0.000181874 0.348198 0.0146688)
(-0.00364428 0.310306 0.016806)
(-0.00610523 0.245954 0.0169938)
(-0.0102406 0.190198 0.0147181)
(-0.0135822 0.144779 0.0113369)
(-0.0173666 0.122774 0.00760385)
(-0.0175377 0.098616 0.00582781)
(-0.0171009 0.0782814 0.00377313)
(-0.0166109 0.0540645 0.00204304)
(-0.0162912 0.0400521 0.00301916)
(-0.0161078 0.0272067 0.00538183)
(-0.0159123 0.0211623 0.00670944)
(-0.0152666 0.0194389 0.008953)
(-0.0134399 0.0151059 0.0127815)
(-0.0150413 0.0146109 0.0156682)
(-0.0218338 0.0106114 0.0150425)
(0.0167409 0.0205188 0.00598409)
(0.0273773 0.0189374 0.00714052)
(0.0117186 0.00766599 0.00173168)
(0.0189852 0.0134692 0.00305182)
(0.0110097 0.00338041 0.000809839)
(0.0133259 0.0078404 0.000383367)
(0.0079465 0.00206753 7.95802e-05)
(0.00696739 0.00443601 0.000618862)
(0.00405637 0.00137105 0.00123429)
(0.00383413 0.00258639 0.00179236)
(0.00299818 0.00136488 0.00214823)
(0.00351466 0.00214595 0.00291854)
(0.00345507 0.00176526 0.00344873)
(0.00376513 0.00218277 0.00385501)
(0.0035109 0.00185224 0.0040003)
(0.00347818 0.00194312 0.00411999)
(0.00324595 0.00168591 0.00414639)
(0.00315402 0.00166623 0.00417712)
(0.00300215 0.00150313 0.00417705)
(0.00291905 0.00147034 0.00418434)
(0.00282935 0.00138817 0.00418073)
(0.00277121 0.00136447 0.00418252)
(0.00271746 0.00132861 0.00417816)
(0.00267705 0.00131535 0.00417598)
(0.00264291 0.0013016 0.00417183)
(0.00261421 0.00129486 0.00416783)
(0.00258952 0.00129019 0.00416264)
(0.0025693 0.00128681 0.00415713)
(0.00255222 0.00128657 0.00415034)
(0.00253973 0.00127731 0.00414361)
(0.00253949 0.00129355 0.0041378)
(0.0025365 0.00124595 0.00413009)
(0.00257281 0.00132071 0.00412669)
(0.00257511 0.00117191 0.00411694)
(0.00267484 0.00139305 0.00411053)
(0.00267577 0.00105893 0.00409021)
(0.00285512 0.00155524 0.0040693)
(0.00281825 0.000943025 0.00401484)
(0.00304728 0.00188754 0.00394727)
(0.00292412 0.000891299 0.00383427)
(0.00316398 0.00246005 0.00371185)
(0.00297852 0.000897889 0.00358216)
(0.0032733 0.00309054 0.00346751)
(0.00274778 0.000297485 0.00329736)
(0.00215529 0.00295453 0.00307245)
(0.00134822 -0.000746819 0.0031026)
(0.0019152 0.00286267 0.00377935)
(0.00382439 -0.00406446 0.00525129)
(0.0122054 -0.00466556 0.00579317)
(0.0243165 -0.0137073 0.00835955)
(0.037929 -0.002572 0.0146785)
(0.0457873 -0.000993448 0.0225028)
(0.0524903 0.0192615 0.0358531)
(0.0533977 0.00394917 0.0479749)
(0.0423988 0.0403071 0.0700661)
(0.0390367 -0.0304571 0.0745286)
(0.0343343 0.086107 0.0952194)
(0.045921 -0.140824 0.0901918)
(0.0212165 0.360122 0.0491586)
(0.0204761 -0.0806879 0.0374792)
(0.0436486 0.523391 0.117551)
(-0.00109724 0.634423 0.00801397)
(-0.0074178 0.583536 0.0107617)
(-0.0179202 0.644847 -0.000758501)
(-0.0119719 0.639016 0.00904025)
(-0.00890408 0.656707 0.00891086)
(-0.00127277 0.652269 0.010009)
(0.00548982 0.659475 0.00823315)
(0.0124448 0.655636 0.00809167)
(0.0182192 0.6556 0.00669284)
(0.0225808 0.642841 0.00621644)
(0.0245338 0.63467 0.00574578)
(0.0257747 0.62945 0.00555951)
(0.0245404 0.625442 0.0060343)
(0.0231793 0.617274 0.00718688)
(0.0203865 0.613723 0.00833426)
(0.0175118 0.605464 0.00988926)
(0.0132392 0.596737 0.0115366)
(0.00828826 0.585424 0.0139794)
(0.00298727 0.570098 0.0154294)
(-0.00240187 0.556958 0.0150957)
(-0.00759272 0.53919 0.0132577)
(-0.0114221 0.517962 0.00998301)
(-0.0145516 0.491461 0.00422965)
(-0.0170299 0.456304 0.000675591)
(-0.017658 0.415913 -0.0012223)
(-0.0167742 0.364877 -0.000982197)
(-0.0158732 0.305951 -0.000404978)
(-0.0161753 0.259015 0.00149803)
(-0.0170836 0.228587 0.00421923)
(-0.0180253 0.200264 0.006954)
(-0.0187595 0.181649 0.00978003)
(-0.0200826 0.162184 0.0135249)
(-0.0213227 0.131281 0.0156712)
(-0.0255914 0.0855485 0.0153855)
(-0.0301178 0.0496138 0.0117908)
(0.0121386 0.0185103 0.00550403)
(0.0273783 0.0225749 0.00840985)
(0.00841437 0.00629459 0.00283714)
(0.0177225 0.0154213 0.0052688)
(0.00918056 0.00224803 0.00261563)
(0.0123345 0.00802773 0.00196544)
(0.00741593 0.0011791 0.000905909)
(0.00687876 0.00459457 0.000771192)
(0.00338123 0.000908921 0.00123723)
(0.00258401 0.00231509 0.00192329)
(0.00108377 0.000509626 0.00217403)
(0.00105754 0.00132308 0.00289659)
(0.000503837 0.000884724 0.00340769)
(0.000713866 0.00160992 0.00389895)
(0.000333481 0.00137041 0.00409879)
(0.000264244 0.00167992 0.0042588)
(-5.08073e-05 0.00151396 0.00429004)
(-0.00018583 0.00163224 0.00432091)
(-0.000397885 0.00153316 0.00430581)
(-0.000514416 0.00157643 0.00429954)
(-0.000631588 0.00153138 0.00427523)
(-0.000703573 0.00154551 0.00425821)
(-0.000762303 0.00153101 0.00423596)
(-0.000800042 0.00153514 0.0042199)
(-0.00082654 0.00153276 0.00420349)
(-0.000842369 0.001535 0.00418985)
(-0.000850456 0.00153663 0.00417658)
(-0.000850342 0.00153883 0.00416477)
(-0.000843837 0.00154352 0.00415401)
(-0.00082955 0.00154166 0.00414575)
(-0.00080726 0.00156304 0.0041411)
(-0.000783065 0.00153577 0.00413761)
(-0.000730431 0.00161747 0.00414094)
(-0.000706976 0.0015114 0.00414171)
(-0.000597293 0.00174071 0.00415607)
(-0.000580467 0.00147318 0.00416162)
(-0.00039099 0.00197276 0.0041845)
(-0.000405327 0.00143236 0.00417357)
(-0.000141247 0.00233809 0.00415657)
(-0.000222802 0.00136026 0.00404569)
(0.000127398 0.00278819 0.00389896)
(6.04374e-05 0.00111664 0.00362875)
(0.000663028 0.00314178 0.00343465)
(0.000444412 0.000254073 0.0031633)
(0.000201261 0.0026167 0.00296835)
(-0.000693451 -0.00142367 0.00298311)
(0.000364567 0.001601 0.00392774)
(0.00308011 -0.00680468 0.00589901)
(0.00960317 -0.00728037 0.0071829)
(0.0191583 -0.0103493 0.011383)
(0.0257538 0.0101452 0.0197905)
(0.0283378 0.0200377 0.028495)
(0.0283367 0.0475913 0.0407504)
(0.0259755 0.0419944 0.0534146)
(0.027314 0.0740896 0.0707717)
(0.0230517 -0.0088848 0.0715421)
(0.0277783 0.0990074 0.0862464)
(0.0185218 -0.150729 0.07588)
(0.00589646 0.330628 0.0568573)
(0.00551551 -0.0673318 0.0399004)
(-0.00463753 0.531836 0.104872)
(-0.0250006 0.640598 0.00382804)
(-0.0272773 0.599114 0.0047601)
(-0.0271862 0.65778 -0.00116448)
(-0.018471 0.641441 0.0100921)
(-0.00917865 0.655203 0.00845338)
(-0.000740704 0.648109 0.00953939)
(0.00782265 0.65264 0.00808666)
(0.013783 0.648356 0.00925529)
(0.0194431 0.647173 0.0091347)
(0.0237462 0.644019 0.00970498)
(0.0270605 0.635201 0.0103482)
(0.0287759 0.635324 0.0118341)
(0.0283863 0.632622 0.012696)
(0.0269446 0.628448 0.0146867)
(0.0239593 0.618007 0.0155264)
(0.020525 0.604592 0.0170446)
(0.0158168 0.59128 0.0179218)
(0.0113639 0.586029 0.0187709)
(0.00678316 0.582236 0.0188406)
(0.00291458 0.577003 0.0163523)
(-0.00113364 0.576034 0.01132)
(-0.00405836 0.587306 0.00435105)
(-0.00721964 0.587053 -0.00291967)
(-0.00968817 0.57997 -0.00796555)
(-0.0118494 0.565897 -0.0111538)
(-0.0137444 0.549692 -0.0116424)
(-0.0155772 0.524704 -0.0106495)
(-0.0169634 0.484977 -0.00788023)
(-0.0189384 0.467778 -0.00455039)
(-0.0208707 0.4554 -0.00234216)
(-0.0227608 0.441529 0.000450248)
(-0.0248396 0.416859 0.00322414)
(-0.027983 0.365252 0.00570154)
(-0.033253 0.262406 0.0066063)
(-0.0389206 0.177106 0.00310612)
(0.00625709 0.0124194 0.00367727)
(0.0261014 0.0262737 0.0087295)
(0.00373381 0.00473124 0.00348626)
(0.0144309 0.018122 0.0071179)
(0.0060739 0.00176048 0.00456696)
(0.00988156 0.00899326 0.00407607)
(0.0049882 0.000182617 0.00285702)
(0.00550037 0.00464768 0.00203036)
(0.00219993 0.000314886 0.00214553)
(0.00111686 0.00216486 0.00281956)
(-0.000798971 -0.000132924 0.00312214)
(-0.000930465 0.000786977 0.00375495)
(-0.00156148 7.76424e-05 0.00425086)
(-0.00122307 0.000937081 0.00480642)
(-0.00156829 0.00072049 0.00509369)
(-0.00158595 0.00125543 0.00531507)
(-0.00188732 0.00120648 0.0053877)
(-0.00195568 0.00150612 0.00545626)
(-0.00211658 0.00150635 0.00546617)
(-0.00216493 0.00165339 0.00548933)
(-0.00222315 0.00166817 0.00549525)
(-0.00223375 0.00173645 0.0055144)
(-0.00223711 0.00175711 0.00552822)
(-0.00221973 0.00179046 0.0055505)
(-0.0021945 0.00181139 0.00557252)
(-0.0021611 0.00183361 0.00559771)
(-0.00212308 0.00185253 0.00562313)
(-0.00208117 0.00186979 0.00564909)
(-0.00203801 0.00188646 0.00567439)
(-0.00198911 0.00189606 0.00570218)
(-0.00193476 0.00192296 0.00573273)
(-0.00187715 0.00191229 0.00576687)
(-0.00179098 0.00199665 0.00581033)
(-0.00172816 0.0019275 0.00585508)
(-0.00157791 0.00216251 0.00591691)
(-0.00151645 0.0019696 0.00597049)
(-0.00127915 0.0024912 0.00603662)
(-0.00124893 0.0020678 0.00605495)
(-0.000916635 0.00298698 0.00604667)
(-0.000939985 0.00211527 0.0058992)
(-0.000523895 0.00347461 0.00564865)
(-0.000635945 0.00178149 0.0051729)
(-9.34431e-05 0.00353962 0.00471482)
(-0.000362203 0.000515369 0.00427061)
(-0.000782628 0.00248912 0.00412715)
(-0.00184088 -0.00228847 0.00433271)
(-8.53895e-05 -0.000924054 0.00531417)
(0.00310288 -0.0103964 0.00670983)
(0.00557015 -0.00523466 0.00957985)
(0.0024711 0.00326001 0.0193696)
(-0.00123976 0.032273 0.0282094)
(-0.00228666 0.0487326 0.0337034)
(0.00264393 0.0772587 0.0426616)
(0.0107099 0.0792708 0.05376)
(0.0234286 0.103963 0.0732737)
(0.0321329 0.0563272 0.0825033)
(0.0668581 0.13857 0.112612)
(0.0376193 -0.122762 0.101762)
(0.0158802 0.337747 0.0255101)
(-0.0162105 -0.0637806 0.0309446)
(-0.0679015 0.562151 0.0673133)
(-0.0517187 0.667772 -0.0104456)
(-0.0479616 0.608645 0.00207079)
(-0.0347272 0.655204 -0.00169885)
(-0.0227436 0.631894 0.00869459)
(-0.00618243 0.641437 0.00596905)
(0.000196361 0.632244 0.0072659)
(0.00897549 0.632704 0.00623985)
(0.0146548 0.635125 0.00829395)
(0.0207596 0.635634 0.0104063)
(0.0248585 0.634236 0.0117566)
(0.0282579 0.637107 0.0132253)
(0.031126 0.636573 0.0150275)
(0.0327297 0.630515 0.0167882)
(0.0332032 0.6196 0.0196075)
(0.0319329 0.612811 0.0216633)
(0.0295918 0.60106 0.0231755)
(0.026007 0.586476 0.0239167)
(0.021521 0.569504 0.0234585)
(0.0168269 0.554705 0.0217697)
(0.0124284 0.548962 0.0179505)
(0.00838708 0.544056 0.0128334)
(0.00501739 0.540726 0.00775282)
(0.00284134 0.537472 0.00361169)
(0.00107635 0.52831 0.00126667)
(-0.00222344 0.5083 -0.00132076)
(-0.00515609 0.49268 -0.00292509)
(-0.00834177 0.479097 -0.00307593)
(-0.0110997 0.468586 -0.001449)
(-0.0128931 0.454347 0.000730109)
(-0.0156445 0.435125 0.00208139)
(-0.0190959 0.425833 0.00332734)
(-0.0242941 0.425644 0.00138607)
(-0.0315149 0.431993 -0.00496226)
(-0.0386328 0.426987 -0.017685)
(-0.0437256 0.411732 -0.0362277)
(-0.00455575 0.0087458 -0.00566309)
(0.0239332 0.0295899 0.00641937)
(-0.00280535 0.0040663 0.000436454)
(0.00983258 0.0215697 0.00494362)
(0.00126656 0.00238127 0.00306176)
(0.0056911 0.011148 0.00287772)
(0.00137081 0.000526373 0.00161974)
(0.00275408 0.00581576 0.000295076)
(1.78656e-05 0.000461773 -2.64289e-05)
(-0.00128355 0.00249563 8.98645e-05)
(-0.00367234 -0.000325547 0.000286616)
(-0.004213 0.000755224 0.000708934)
(-0.00528035 -0.000286854 0.00108812)
(-0.00517398 0.000602911 0.00159943)
(-0.00567674 0.000400443 0.00194331)
(-0.00574332 0.0010896 0.00220707)
(-0.00609641 0.0011114 0.00234714)
(-0.00619931 0.00151242 0.00246416)
(-0.0063956 0.00156168 0.0025255)
(-0.00647431 0.00175803 0.00258709)
(-0.00656425 0.00179947 0.00262832)
(-0.00660706 0.00188966 0.00267476)
(-0.00663963 0.00192426 0.00271363)
(-0.0066528 0.00196672 0.00275822)
(-0.00665485 0.00199339 0.00280208)
(-0.00664486 0.0020189 0.0028485)
(-0.00662422 0.0020398 0.00289562)
(-0.00659186 0.00205808 0.00294427)
(-0.00654829 0.0020765 0.00299395)
(-0.00649616 0.00208975 0.0030445)
(-0.00644357 0.00211647 0.00309477)
(-0.00638734 0.00211355 0.0031474)
(-0.00631706 0.00219183 0.00320265)
(-0.00627316 0.00214324 0.00326188)
(-0.00617314 0.00237272 0.00332594)
(-0.00616979 0.00223621 0.00339263)
(-0.00600237 0.00277766 0.00344522)
(-0.00600966 0.00247566 0.00346719)
(-0.00572029 0.00347153 0.00340479)
(-0.00572095 0.00281209 0.00321435)
(-0.00520924 0.00424405 0.0028441)
(-0.00502334 0.00268005 0.00232635)
(-0.00400638 0.00408067 0.00187399)
(-0.00378362 0.000742078 0.00169466)
(-0.0034069 0.0018034 0.00154506)
(-0.00299245 -0.00349387 0.00157144)
(-0.000142915 -0.00205189 0.0027982)
(-0.000629494 -0.0073517 0.00194723)
(-0.0103229 0.00641311 0.00469409)
(-0.0228577 0.0153171 0.0161414)
(-0.0312896 0.0352935 0.0257194)
(-0.0307219 0.0425604 0.0324484)
(-0.0258186 0.0651868 0.034964)
(-0.015455 0.0614407 0.0375503)
(-0.00634697 0.0998581 0.0538991)
(0.0127358 0.0338483 0.0566143)
(0.0771454 0.128222 0.0804897)
(0.0557989 -0.0764678 0.0945366)
(0.0707917 0.344694 0.0189875)
(-0.0403152 -0.0842119 0.0224339)
(-0.115189 0.531327 0.0541118)
(-0.0599429 0.657835 -0.00467111)
(-0.0519712 0.581757 0.00718096)
(-0.0269599 0.630802 0.00561254)
(-0.0189513 0.58962 0.0137373)
(-0.00490257 0.600972 0.00959743)
(-0.00148419 0.5874 0.00916061)
(0.00439512 0.592234 0.00673801)
(0.00818319 0.589494 0.0057542)
(0.0129706 0.590328 0.00520299)
(0.015059 0.587192 0.00365674)
(0.0170696 0.591458 0.00307099)
(0.0182417 0.594987 0.00328467)
(0.0213458 0.60609 0.00492553)
(0.0245981 0.61328 0.00666829)
(0.0267438 0.617417 0.00893496)
(0.0260958 0.615287 0.00887624)
(0.0245615 0.615123 0.00836204)
(0.0225049 0.60944 0.0080047)
(0.0198969 0.603333 0.00631581)