/*--------------------------------*- C++ -*----------------------------------*\
| =========                 |                                                 |
| \\      /  F ield         | OpenFOAM: The Open Source CFD Toolbox           |
|  \\    /   O peration     | Version:  2.3.0                                 |
|   \\  /    A nd           | Web:      www.OpenFOAM.org                      |
|    \\/     M anipulation  |                                                 |
\*---------------------------------------------------------------------------*/
FoamFile
{
    version     2.0;
    format      ascii;
    class       volVectorField;
    location    "16";
    object      U.air;
}
// * * * * * * * * * * * * * * * * * * * * * * * * * * * * * * * * * * * * * //

dimensions      [0 1 -1 0 0 0 0];

internalField   nonuniform List<vector> 
6144
(
(0.012844 0.0270739 -0.00281155)
(0.0131477 0.00260745 -0.00322591)
(0.00591619 -0.00134788 -0.00337827)
(0.00496199 -0.00637473 -0.00293049)
(0.00162921 -0.00919486 -0.00133675)
(0.00137194 -0.00789542 -0.000666224)
(0.000495941 -0.00736614 -0.000376806)
(0.00106447 -0.00486791 -0.000647572)
(0.00123028 -0.00265413 -0.00136799)
(0.00150358 0.000433586 -0.00128725)
(0.00159139 0.0025717 -0.000650589)
(0.00183331 0.00421373 0.000152271)
(0.00211782 0.00424029 0.000526752)
(0.00234645 0.00368358 0.000730016)
(0.00242209 0.00278566 0.000593852)
(0.00245271 0.00207349 0.00044558)
(0.00245407 0.00146814 0.000271889)
(0.00245187 0.00105849 0.000155596)
(0.00244397 0.000746421 6.72322e-05)
(0.00243298 0.000546313 1.74071e-05)
(0.0024187 0.000399948 -9.39016e-06)
(0.00240131 0.000311134 -1.54642e-05)
(0.00238155 0.000251006 -8.23922e-06)
(0.00235974 0.000221088 1.0568e-05)
(0.00233619 0.000207457 3.61461e-05)
(0.00231106 0.000212015 6.68062e-05)
(0.00228454 0.000230292 0.000101253)
(0.00225618 0.000262406 0.000139581)
(0.00222529 0.000309197 0.000183108)
(0.00219086 0.000367674 0.000232985)
(0.00215139 0.000442115 0.000293343)
(0.0021064 0.000523669 0.000366783)
(0.00205587 0.000618142 0.000466453)
(0.00200074 0.000699138 0.000595427)
(0.00193552 0.000767899 0.000773078)
(0.00186102 0.000767797 0.000994324)
(0.0017795 0.000704379 0.00126438)
(0.00169785 0.000495571 0.00153891)
(0.00162406 0.000211938 0.00176704)
(0.00156907 -0.000165784 0.00181946)
(0.0015102 -0.000344947 0.00159601)
(0.00144774 -0.000171465 0.000987794)
(0.00138522 0.000831199 7.98518e-07)
(0.0013979 0.00279753 -0.00100377)
(0.00148833 0.00580288 -0.00182826)
(0.00192546 0.00960848 -0.00261675)
(0.00342966 0.0136142 -0.00435343)
(0.00307782 0.0188177 -0.00725268)
(0.000304027 0.0330396 -0.00938521)
(0.00360359 0.0456293 -0.0106168)
(0.0158696 0.0451254 -0.0113404)
(0.0196344 0.0284957 -0.00988736)
(0.0194307 0.0294496 -0.008857)
(0.0195033 -0.00672015 -0.00590974)
(0.0307307 0.00717809 -0.0142612)
(0.0279831 -0.0573042 -0.00712373)
(0.0300033 -0.0178418 -0.0295764)
(0.0357949 -0.110271 0.0024139)
(-0.00741692 0.0334306 -0.104558)
(0.0342258 0.105054 0.0312144)
(0.0920541 0.317563 0.0659852)
(0.0403037 0.384605 0.00547968)
(0.0419733 -0.136855 0.0102843)
(0.0437066 -0.13675 0.0129345)
(0.0301279 -0.125469 0.0146834)
(0.0204452 -0.110066 0.00552504)
(0.0128613 -0.100506 0.00409295)
(0.00560938 -0.09598 0.000681271)
(0.00245045 -0.0853662 -0.00353941)
(0.00184524 -0.0816561 -0.000527)
(0.00677731 -0.080414 0.000946754)
(0.0113321 -0.0855815 0.000679866)
(0.013429 -0.0943686 -0.000602357)
(0.0106123 -0.0967606 -0.00287521)
(0.00923566 -0.0918666 -0.00291275)
(0.0105713 -0.0796284 -0.00664653)
(0.0120626 -0.0662371 -0.0168777)
(0.0150402 -0.0525107 -0.0184988)
(0.00613383 -0.0321394 -0.014942)
(-0.0182633 0.0139121 -0.0125088)
(-0.0131177 0.0791207 -0.00707009)
(-0.00390353 0.0940359 0.0091937)
(-0.000329733 0.0868541 0.0208407)
(-0.00160994 0.0690794 0.0196047)
(0.00526392 0.0500426 0.0224315)
(0.0168337 0.0110262 0.0201474)
(0.0116136 -0.0211631 0.0136209)
(0.00941952 -0.0432356 0.00827272)
(0.00214042 -0.0550114 0.012543)
(-0.0022798 -0.061373 0.00706084)
(0.00257134 -0.0599499 0.000280692)
(0.00248299 -0.0520248 -0.0175172)
(-0.00393273 -0.0256983 -0.0189734)
(0.00124917 0.00270075 -0.00755584)
(0.0138369 0.00542473 -0.0059164)
(0.0113028 -0.00113135 -0.00615255)
(0.0249969 0.0363431 0.000926735)
(0.0249261 0.0237547 0.000979836)
(0.0162253 0.0193936 -0.000892594)
(0.0154374 0.0109687 0.00151685)
(0.00578822 0.00177459 0.00218825)
(0.00393684 -0.00051821 0.00273193)
(0.00105224 -0.00398343 0.00303177)
(0.00156319 -0.00140616 0.00206409)
(0.0014706 0.000239645 0.00164503)
(0.00199792 0.00334213 0.00172588)
(0.0023281 0.00487399 0.00223851)
(0.00315746 0.00600235 0.00315087)
(0.00387519 0.00542251 0.00372108)
(0.00430441 0.00466021 0.00407936)
(0.00440294 0.003568 0.00404685)
(0.00443434 0.00274243 0.00395278)
(0.00440076 0.00202242 0.00381949)
(0.00436572 0.00153702 0.0037335)
(0.00432163 0.00115815 0.00367439)
(0.00427525 0.000914442 0.00365129)
(0.00422663 0.000733415 0.00365259)
(0.0041741 0.000623763 0.00367498)
(0.00411931 0.000549434 0.00371239)
(0.00406097 0.000511693 0.00376263)
(0.00400015 0.00049294 0.00381996)
(0.0039356 0.000494807 0.00388172)
(0.00386733 0.000510965 0.00394596)
(0.00379368 0.00054054 0.00401332)
(0.00371419 0.000583503 0.00408527)
(0.00362633 0.000634198 0.00416341)
(0.00352852 0.000698358 0.00425142)
(0.00341689 0.000762494 0.00435139)
(0.00329113 0.000839133 0.00446308)
(0.00315646 0.000884007 0.00457038)
(0.00301984 0.000908669 0.00469213)
(0.00288074 0.000840566 0.00482958)
(0.00275948 0.000719022 0.00497575)
(0.00265935 0.000450945 0.00511123)
(0.00258664 0.000172226 0.00519459)
(0.00251085 -0.000172558 0.00517011)
(0.0023944 -0.00028341 0.00494927)
(0.00224819 -0.000107383 0.00433347)
(0.00200986 0.000854027 0.0032194)
(0.00159567 0.00266195 0.00200026)
(0.00130723 0.0056614 0.000809411)
(0.00150733 0.00947729 -0.000712262)
(0.00180872 0.0151736 -0.0041299)
(-0.000539455 0.0302377 -0.00756002)
(-0.00125897 0.0427927 -0.00725096)
(0.0122088 0.0480268 -0.00258141)
(0.033759 0.0343998 0.00589307)
(0.039363 0.00751086 0.00476312)
(0.0449018 -0.00273102 0.00819837)
(0.0499229 -0.0536017 0.0121285)
(0.0736675 -0.0646703 0.00960844)
(0.0778892 -0.125808 0.0270656)
(0.068759 -0.116216 0.0155331)
(0.0692502 -0.193591 0.0353679)
(-0.00828362 0.0322523 -0.0796741)
(0.0469418 0.0372015 0.0228764)
(0.085429 0.367464 0.0950245)
(0.00233412 0.439552 0.00796755)
(-0.0146739 -0.0659844 0.0173855)
(-0.0136154 0.0188121 0.00809938)
(-0.00753163 0.0183796 0.00273946)
(0.00636906 0.0531072 0.00413289)
(0.0120833 0.052391 0.00297509)
(0.0146047 0.0563946 0.00322096)
(0.0256887 0.0531139 0.00229339)
(0.0291531 0.0378972 0.00456532)
(0.0368329 0.0238584 0.00692756)
(0.0351077 0.0026967 0.00457409)
(0.0300081 -0.0134888 0.00555741)
(0.0167304 -0.0309259 -0.00466685)
(0.00744402 -0.0372315 -0.017575)
(0.00792883 -0.0271619 -0.0333188)
(0.0110388 -0.00766056 -0.0312394)
(-0.0081667 0.0326507 0.00605819)
(-0.0395963 0.0514307 0.00290876)
(-0.0445871 0.0789409 -0.0124423)
(-0.0290925 0.10363 0.00242199)
(-0.00986126 0.0943764 0.0158935)
(-0.00383579 0.081303 0.0133261)
(0.00278316 0.0712378 0.0164081)
(0.0240026 0.0429298 0.0285151)
(0.032921 0.0168018 0.0357897)
(0.0221322 -0.0161327 0.033993)
(0.00974537 -0.0391894 0.0296891)
(-0.00164288 -0.0528395 0.0250208)
(-0.00320488 -0.0560247 0.0156084)
(0.00854688 -0.0533347 0.00243987)
(0.0104143 -0.0369826 -0.0166614)
(-0.00745037 -0.0172224 -0.0173229)
(-0.00214893 -0.00140434 -0.00767687)
(0.0135848 0.00627908 0.00252315)
(0.0133283 -0.000683035 -0.00180806)
(0.0291665 0.0373468 0.00169381)
(0.0309761 0.0317188 0.00326523)
(0.0242419 0.0270707 0.00109154)
(0.0239875 0.0214888 0.00339294)
(0.0116772 0.0124235 0.0024642)
(0.00715736 0.0074291 0.00331397)
(0.000537302 0.000424817 0.00403418)
(6.36085e-05 0.00172837 0.00289953)
(-4.02854e-05 0.00245929 0.00252324)
(0.000966045 0.0051621 0.00277877)
(0.00146692 0.00560462 0.00334425)
(0.00285707 0.00630287 0.00404101)
(0.00382846 0.00540001 0.00439726)
(0.00435147 0.00482402 0.00465486)
(0.00431403 0.00386398 0.00470645)
(0.0041823 0.00317493 0.00478053)
(0.00395298 0.00250137 0.00481082)
(0.0037655 0.0020385 0.00484968)
(0.00358751 0.00165882 0.00489285)
(0.00343385 0.00140591 0.00494244)
(0.0032945 0.00121604 0.00499681)
(0.00316693 0.00109598 0.00505411)
(0.00304923 0.00101236 0.00511018)
(0.0029395 0.00096508 0.00516502)
(0.00283336 0.000937775 0.00522029)
(0.00273051 0.000929617 0.00527484)
(0.00262963 0.000935048 0.00532688)
(0.0025267 0.000954129 0.00537634)
(0.00242019 0.00098592 0.00542456)
(0.00230618 0.00102393 0.00547242)
(0.00218498 0.001071 0.00552038)
(0.00205061 0.001109 0.00556914)
(0.00190637 0.00114452 0.00561852)
(0.00174399 0.00114266 0.00567146)
(0.00158795 0.0011276 0.00572754)
(0.00143058 0.00105558 0.00578853)
(0.00129737 0.00100024 0.00584338)
(0.00118369 0.000937343 0.00588288)
(0.00109751 0.00102028 0.00588337)
(0.00103059 0.00124844 0.00582075)
(0.000933182 0.00179094 0.00565769)
(0.000686579 0.00254234 0.00541424)
(5.65858e-05 0.00370186 0.0050228)
(-0.000888337 0.00529011 0.00437844)
(-0.00169266 0.00796299 0.00341843)
(-0.00201413 0.0117622 0.00171553)
(-0.00348377 0.0174309 -0.00178834)
(-0.00497052 0.0297042 -0.00377123)
(-0.00220804 0.0370619 -0.00111638)
(0.0120167 0.0313815 0.00833629)
(0.0320588 0.0180064 0.0209017)
(0.0472183 -0.021264 0.0189206)
(0.0583665 -0.0376581 0.0189792)
(0.0881068 -0.09569 0.019684)
(0.0980341 -0.106283 0.0209778)
(0.125361 -0.165792 0.0452798)
(0.0980702 -0.138126 0.0499981)
(0.117522 -0.228877 0.0998159)
(-0.0171284 0.0836553 -0.0385858)
(0.0390769 -0.000757005 0.0173371)
(0.108052 0.389297 0.115013)
(0.0355607 0.452635 0.0357486)
(0.0193966 -0.0440517 0.0417558)
(-0.00290598 0.427798 -0.000596657)
(0.00432584 0.405221 -0.00103077)
(0.00307724 0.0843196 0.00388936)
(0.0152511 0.08247 0.0057483)
(0.0240899 0.0890489 0.0127033)
(0.0349481 0.089393 0.0186126)
(0.0390478 0.0798898 0.0234306)
(0.0459085 0.0646579 0.0257834)
(0.0454673 0.0444183 0.0280112)
(0.038047 0.0209135 0.0241652)
(0.0233153 0.00215804 0.0096534)
(0.00448364 -0.000940943 -0.0109557)
(-0.0115997 0.00645869 -0.0456203)
(-0.0346591 0.062159 -0.0254273)
(-0.0442616 0.091292 0.00214965)
(-0.047587 0.10229 0.00434901)
(-0.0417423 0.106756 0.00343442)
(-0.0111993 0.100821 0.01752)
(0.00461783 0.0861832 0.0269561)
(0.0109843 0.0763799 0.0253776)
(0.0165401 0.055295 0.0267882)
(0.0272257 0.0350727 0.038671)
(0.0298644 0.0115554 0.0503039)
(0.0245285 -0.0104193 0.0509084)
(0.0127502 -0.0364191 0.0439551)
(-0.00106106 -0.0466716 0.0313363)
(0.00200212 -0.0545893 0.0134284)
(0.0155469 -0.0433322 -0.0116634)
(0.00673869 -0.013359 -0.0212733)
(-0.00711296 0.00464309 -0.0110762)
(0.00366497 0.0195779 0.00209576)
(0.0146206 0.0139472 0.0127661)
(0.0192396 0.0074458 0.00982652)
(0.0303376 0.0364821 0.00178848)
(0.033387 0.0349616 0.00422669)
(0.026992 0.029486 0.00185546)
(0.0270096 0.0268172 0.00385613)
(0.0167035 0.0196178 0.00238331)
(0.014035 0.0146112 0.00390706)
(0.00355906 0.00414237 0.00346953)
(0.000316553 0.00317254 0.00235077)
(-0.00119514 0.0023145 0.00157833)
(0.000309702 0.00512426 0.00208012)
(0.000989921 0.00481677 0.00264063)
(0.00250592 0.0052397 0.00358653)
(0.00316935 0.00436694 0.0041036)
(0.00350054 0.00427428 0.00446688)
(0.00332458 0.00362839 0.00454941)
(0.00313735 0.00319797 0.00463245)
(0.00286136 0.00261753 0.00466136)
(0.00262707 0.00219343 0.00471523)
(0.00240507 0.00181717 0.00477347)
(0.00220931 0.0015517 0.00483924)
(0.0020368 0.00135033 0.0049072)
(0.00188189 0.00121964 0.00497495)
(0.00174466 0.00112939 0.00504053)
(0.00162034 0.00107812 0.00510385)
(0.00150221 0.00105078 0.00516347)
(0.00138394 0.00104547 0.0052199)
(0.00126113 0.0010504 0.00527219)
(0.00113523 0.00106148 0.00532089)
(0.00100581 0.00107934 0.00536485)
(0.000871943 0.00109851 0.0054071)
(0.000733548 0.00112029 0.00545054)
(0.000590821 0.00112695 0.00549655)
(0.000445165 0.00112734 0.00554437)
(0.000297119 0.00109553 0.00559231)
(0.000151668 0.001067 0.00563396)
(1.03086e-06 0.00102998 0.00566147)
(-0.000158847 0.00107536 0.00565552)
(-0.000356725 0.00122635 0.00559357)
(-0.000585743 0.0016554 0.00545344)
(-0.000815583 0.00234259 0.005263)
(-0.00102603 0.00337638 0.00508924)
(-0.00124681 0.00452326 0.00502241)
(-0.00186581 0.00574152 0.00501871)
(-0.00328799 0.00709118 0.00489579)
(-0.00505042 0.009684 0.0045085)
(-0.00626139 0.013461 0.00368783)
(-0.00759244 0.0173558 0.00193647)
(-0.00825368 0.0241181 -1.43317e-05)
(-0.00321071 0.0311745 0.00272934)
(0.0105805 0.0212223 0.0123182)
(0.0392377 0.00658118 0.0249118)
(0.060327 -0.035623 0.0331871)
(0.0756044 -0.0517548 0.02974)
(0.110826 -0.105137 0.0326335)
(0.119634 -0.0983146 0.0480644)
(0.155336 -0.158114 0.0613782)
(0.116035 -0.0542558 0.110762)
(0.160862 -0.221278 0.133101)
(-0.00675667 0.176644 0.0436449)
(0.0156053 -0.0310556 0.0292317)
(0.0868887 0.456099 0.129152)
(0.0133069 0.590692 0.0308837)
(-0.0169069 0.501912 0.0243986)
(-0.035459 0.606553 -0.0183115)
(-0.00116573 0.619695 -0.0068887)
(0.00602891 0.644781 -0.001782)
(0.0247766 0.639951 0.00517121)
(0.0315169 0.644593 0.0111945)
(0.0408807 0.63765 0.013645)
(0.0459436 0.630515 0.0156465)
(0.0506741 0.604443 0.0177065)
(0.0453147 0.551993 0.0132532)
(0.0330548 0.371442 0.00626874)
(0.0208713 0.0646779 0.000717047)
(-0.00735105 0.050433 -0.0164897)
(-0.0353434 0.0751575 -0.0395859)
(-0.0481057 0.0987837 -0.0328258)
(-0.047994 0.116137 -0.00932258)
(-0.0418646 0.109087 0.0114313)
(-0.027226 0.103305 0.0273413)
(-0.000619258 0.0953137 0.0440287)
(0.0115721 0.0854109 0.0500053)
(0.0305314 0.0777265 0.0533211)
(0.0362148 0.0519717 0.0558539)
(0.0261978 0.0261544 0.0601378)
(0.0134209 0.00710247 0.0626829)
(0.00111463 -0.0135791 0.0613788)
(-0.00342494 -0.0230942 0.0523188)
(-0.00454832 -0.0389006 0.0330687)
(0.00743228 -0.039649 -0.00243571)
(0.0081659 -0.00891346 -0.0227616)
(0.000260964 0.0145856 -0.00885062)
(-0.00687715 0.0229441 0.000781245)
(0.00556117 0.0261552 0.0112478)
(0.0142315 0.0187391 0.0156138)
(0.0181988 0.0124219 0.0205154)
(0.0298055 0.0354415 0.00194527)
(0.0349877 0.0360607 0.0048339)
(0.0279241 0.0294454 0.00215627)
(0.0288211 0.0276178 0.00465114)
(0.0192519 0.0203372 0.00252396)
(0.0193474 0.0172631 0.00420913)
(0.00834583 0.00778211 0.00183601)
(0.00323366 0.00624284 0.00155387)
(-0.00119669 0.00216664 0.000688411)
(-0.000416783 0.00442174 0.00135882)
(0.000614214 0.00305888 0.00150191)
(0.00186844 0.00327808 0.00282103)
(0.00182045 0.00270638 0.00339877)
(0.00191341 0.00313709 0.00389625)
(0.00152558 0.00288596 0.00399275)
(0.00126795 0.00280291 0.00412663)
(0.000857034 0.00241939 0.00414288)
(0.000510951 0.00211236 0.0041788)
(0.000192406 0.0017883 0.00420767)
(-9.05915e-05 0.0015522 0.00424008)
(-0.000340872 0.00136125 0.0042712)
(-0.000557571 0.00123396 0.00430485)
(-0.000744912 0.00114502 0.00433673)
(-0.000907609 0.00109472 0.00436553)
(-0.00105304 0.00106237 0.00439007)
(-0.00118888 0.0010447 0.00441215)
(-0.00131994 0.00103896 0.0044329)
(-0.00144704 0.00104152 0.00445271)
(-0.00157195 0.00104892 0.00447034)
(-0.0016953 0.0010574 0.00448776)
(-0.00181947 0.0010672 0.00450504)
(-0.00194462 0.00106515 0.00452162)
(-0.00207145 0.00106226 0.00454037)
(-0.00220134 0.00104476 0.00455838)
(-0.00233537 0.0010584 0.00456443)
(-0.00248866 0.0011068 0.00453878)
(-0.00266692 0.00127827 0.0044579)
(-0.00292175 0.0015706 0.00429612)
(-0.00324752 0.00209481 0.00406327)
(-0.00361703 0.00280136 0.00383247)
(-0.00393639 0.00374477 0.003729)
(-0.00420163 0.00476934 0.00387743)
(-0.00489285 0.00597325 0.00412868)
(-0.00670689 0.00753173 0.00416516)
(-0.00910988 0.0105738 0.00398114)
(-0.00959762 0.0132232 0.00422179)
(-0.00993272 0.013276 0.0044274)
(-0.0110338 0.0154498 0.00361098)
(-0.00772551 0.0233043 0.00795296)
(0.0073517 0.0128475 0.0170496)
(0.0383964 -0.00364609 0.0296826)
(0.0566253 -0.0367704 0.0458421)
(0.0760207 -0.0447796 0.0509418)
(0.111119 -0.0851137 0.0471003)
(0.107455 -0.0219618 0.0693179)
(0.144001 -0.117487 0.0668004)
(0.0845463 0.088754 0.0930636)
(0.132491 -0.151397 0.0674775)
(-0.103431 0.324562 -0.0550666)
(0.00827 -0.0763886 0.041164)
(0.0757812 0.487653 0.107076)
(0.00510251 0.619807 0.000670576)
(-0.0270452 0.573298 -0.00787585)
(-0.0380527 0.64798 -0.0278142)
(0.00142321 0.653104 -0.0142475)
(0.00719148 0.671511 0.00539963)
(0.0236477 0.668778 0.0148785)
(0.0309976 0.676322 0.0196585)
(0.0394566 0.669177 0.0232738)
(0.0490207 0.677565 0.0288464)
(0.0527381 0.681299 0.0293561)
(0.0546379 0.67257 0.0293288)
(0.0453344 0.666679 0.0209048)
(0.024724 0.661069 0.00424303)
(0.00499512 0.652184 -0.00722303)
(-0.00836878 0.652966 -0.010754)
(-0.0178457 0.651412 -0.000390714)
(-0.0176525 0.655729 0.022073)
(-0.00299424 0.660526 0.048023)
(0.00639695 0.661233 0.0592078)
(0.0131491 0.657691 0.072772)
(0.0149512 0.640241 0.0760274)
(0.00772546 0.617404 0.0803313)
(-0.000494397 0.591155 0.0793826)
(-0.0129585 0.545377 0.0731029)
(-0.0218237 0.447897 0.0626818)
(-0.0193885 0.203618 0.0575351)
(-0.0209233 0.0129891 0.0395351)
(-0.00629741 -0.0289927 0.000216154)
(0.00194881 -0.00649983 -0.0243089)
(-0.00372026 0.0113837 -0.00665108)
(-0.00443462 0.00897271 0.00647131)
(-0.0058135 0.0143221 0.00787648)
(0.00160646 0.00775368 0.0206301)
(0.0053412 0.0103195 0.024589)
(0.0162154 0.00959407 0.0215026)
(0.0272012 0.034664 0.00621158)
(0.0361835 0.037806 0.00614007)
(0.0274715 0.0276618 0.00271403)
(0.0293854 0.0266427 0.00673562)
(0.0189294 0.0175598 0.00406716)
(0.0211065 0.0169479 0.0055222)
(0.0107177 0.00804801 0.00153822)
(0.0069922 0.00842255 0.00112676)
(0.000404982 0.0025097 0.000429727)
(0.000114029 0.00421908 0.00170799)
(0.000688344 0.00126305 0.00144988)
(0.00139679 0.00108968 0.00269455)
(0.000823895 0.000523395 0.00299773)
(0.000985247 0.00168012 0.00360949)
(0.000561539 0.00176187 0.00370619)
(0.00034199 0.00210372 0.0039103)
(-7.6606e-05 0.00196245 0.00392517)
(-0.00040823 0.00188596 0.00393096)
(-0.000728698 0.00170644 0.00388408)
(-0.00100424 0.00156198 0.00383412)
(-0.00123866 0.00143325 0.0037857)
(-0.00143289 0.00135281 0.00374905)
(-0.00159464 0.00129956 0.00371842)
(-0.00172592 0.0012768 0.00369163)
(-0.00183463 0.00126871 0.00366853)
(-0.00192769 0.00127297 0.00364969)
(-0.00201236 0.00128386 0.00363359)
(-0.0020953 0.00129692 0.00361849)
(-0.0021838 0.00131115 0.00359872)
(-0.00227288 0.00132378 0.00358071)
(-0.00235976 0.00133846 0.00357022)
(-0.00243795 0.00135039 0.00356831)
(-0.00251497 0.00137534 0.0035713)
(-0.00259604 0.00141526 0.00357173)
(-0.00269034 0.0015184 0.00355821)
(-0.00281258 0.00168642 0.00350706)
(-0.0029766 0.00197623 0.00339513)
(-0.00323313 0.0023373 0.00320801)
(-0.00360797 0.00280074 0.00295669)
(-0.00409211 0.00327553 0.00270004)
(-0.00468851 0.00385949 0.0025428)
(-0.00546858 0.00461222 0.00260223)
(-0.00699307 0.00588276 0.0026718)
(-0.00994764 0.00777888 0.00234149)
(-0.0122947 0.0112011 0.00160404)
(-0.0119206 0.0136409 0.00209824)
(-0.010703 0.0125527 0.0033258)
(-0.0152974 0.010415 0.00669653)
(-0.0146105 0.0137738 0.0122758)
(0.00869367 -0.00807529 0.0154289)
(0.0330976 -0.0188902 0.0282764)
(0.0466148 -0.0377166 0.0468107)
(0.053752 -0.0211386 0.0569734)
(0.0489783 -0.044331 0.0493265)
(0.0545185 0.0473433 0.0973438)
(0.0747116 -0.0821682 0.110311)
(-0.00930906 0.0897316 0.0300525)
(0.0499267 -0.0914512 0.0430603)
(-0.0122955 0.390801 0.0559095)
(0.00463158 -0.108152 0.0404297)
(0.0301211 0.563246 0.0638096)
(-0.0136769 0.69944 -0.024275)
(-0.0291282 0.647478 -0.0106017)
(-0.0325164 0.694393 -0.0114729)
(-0.0169862 0.685547 0.0149136)
(-0.0115922 0.691915 0.0266521)
(0.00217865 0.68918 0.0269217)
(0.00900208 0.688139 0.0251233)
(0.0134751 0.685147 0.0261695)
(0.0221845 0.689728 0.0253331)
(0.0288266 0.703815 0.0270551)
(0.0367125 0.719694 0.0291011)
(0.0411251 0.730263 0.0269989)
(0.038448 0.73303 0.022367)
(0.0308574 0.733421 0.0175653)
(0.0243536 0.731147 0.0167728)
(0.015526 0.729331 0.0235709)
(0.00701283 0.72652 0.0377556)
(0.00430917 0.725406 0.0555458)
(0.00362238 0.721924 0.0642471)
(0.00299896 0.709571 0.073819)
(-0.00384889 0.691269 0.079482)
(-0.0139854 0.662476 0.0795743)
(-0.021422 0.628821 0.068673)
(-0.0256839 0.597354 0.0512555)
(-0.0193011 0.56756 0.0267202)
(-0.0134118 0.549202 -0.000317752)
(-0.00818169 0.540432 -0.0142239)
(-0.00928489 0.556963 -0.00724166)
(-0.0149072 0.565754 0.0095309)
(-0.0122149 0.556633 0.0169825)
(-0.0115062 0.548876 0.0195894)
(-0.0130427 0.522244 0.0225203)
(-0.0105399 0.432716 0.0229645)
(-0.015108 0.162638 0.0209207)
(0.00563983 0.026251 -0.0153393)
(0.0196524 0.0323601 0.00344295)
(0.0344584 0.0413662 0.0088636)
(0.0239532 0.0236461 0.00443823)
(0.0277251 0.0269617 0.0100045)
(0.0155638 0.0142765 0.00702101)
(0.0188453 0.0154785 0.00937741)
(0.00840926 0.00433366 0.00521865)
(0.00845317 0.00814697 0.00295087)
(0.00120328 0.00197814 0.00142879)
(0.000718077 0.00431757 0.00299683)
(0.000639038 0.000241983 0.00270287)
(-5.00681e-05 0.00013673 0.00349328)
(-0.00198147 -0.00085382 0.00325476)
(-0.00220396 0.000603615 0.00380858)
(-0.00254408 0.000683915 0.00404445)
(-0.00255452 0.00135051 0.0043406)
(-0.00295481 0.00144352 0.00435795)
(-0.00326929 0.00166007 0.00430765)
(-0.00363496 0.00167899 0.00420526)
(-0.00395478 0.00170018 0.00412579)
(-0.00423789 0.0016835 0.00404531)
(-0.00447562 0.00167904 0.00396731)
(-0.00466607 0.00167612 0.00388165)
(-0.00481181 0.00168916 0.00380833)
(-0.00492795 0.00170249 0.00374748)
(-0.00502299 0.00171851 0.00370077)
(-0.0051019 0.00173447 0.00366625)
(-0.00516503 0.00175247 0.00363991)
(-0.00521738 0.00177258 0.00361614)
(-0.00526002 0.00179131 0.00359999)
(-0.00530163 0.00181741 0.00359408)
(-0.00533973 0.00185586 0.0035968)
(-0.00538353 0.00192581 0.00360729)
(-0.00543768 0.00202874 0.0036211)
(-0.0055148 0.00220056 0.00363263)
(-0.00561319 0.00242467 0.00363177)
(-0.0057249 0.00271268 0.00360871)
(-0.0058715 0.00297656 0.00354558)
(-0.00608707 0.00318212 0.00341475)
(-0.00643411 0.00323385 0.00321863)
(-0.00704691 0.00325354 0.00294836)
(-0.00809365 0.00342163 0.00261114)
(-0.00991842 0.00427517 0.00200687)
(-0.0126349 0.00595811 0.000958819)
(-0.0143286 0.0088768 -0.000374564)
(-0.0134467 0.0105945 -0.000228538)
(-0.00921715 0.00678439 0.000723198)
(-0.0144972 -0.000453001 0.00522462)
(-0.00833131 -0.0179102 0.0115988)
(0.0197515 -0.0391839 0.0197903)
(0.0224991 -0.0441379 0.0367035)
(0.00475502 -0.0339462 0.0474963)
(0.00630248 0.000547178 0.0573655)
(0.0111458 0.020369 0.0618863)
(0.0271698 0.0736018 0.0806874)
(-0.0015839 -0.00260284 0.0773827)
(-0.00262157 0.206666 0.135888)
(0.0299928 -0.26747 0.104833)
(-0.0738756 0.457755 -0.00616493)
(-0.00391954 -0.0996646 0.0406513)
(-0.0307815 0.553088 0.0629832)
(-0.0386873 0.702793 -0.0272885)
(-0.0437846 0.640653 0.00226805)
(-0.0431551 0.687835 0.00858486)
(-0.0420624 0.669771 0.0280855)
(-0.0357618 0.666593 0.0329066)
(-0.0214457 0.659234 0.0184165)
(-0.00750519 0.670469 0.010176)
(-0.00350204 0.689256 0.0137781)
(-0.0015709 0.698413 0.0159851)
(0.00847459 0.710353 0.0207738)
(0.0159253 0.73267 0.0268612)
(0.0236211 0.751961 0.0271128)
(0.0259837 0.761803 0.0282657)
(0.021806 0.77152 0.0305124)
(0.0188689 0.777265 0.0298945)
(0.00790296 0.776657 0.0336171)
(-0.00460295 0.773218 0.0370987)
(-0.0112775 0.765177 0.0458656)
(-0.0178523 0.753903 0.0553145)
(-0.0221188 0.733664 0.0635813)
(-0.0199855 0.706698 0.0678256)
(-0.0172341 0.671838 0.0654405)
(-0.0126358 0.624339 0.0542908)
(-0.00466716 0.554921 0.0376029)
(0.00185159 0.361376 0.00990335)
(-4.33762e-06 0.0514304 0.00264348)
(-0.00640594 0.0234589 -0.00487723)
(-0.0157098 0.0354691 0.00599741)
(-0.0166046 0.0375447 0.0116601)
(-0.012995 0.0518622 0.0080221)
(-0.0126021 0.293784 0.00626247)
(-0.0172373 0.357258 0.00532622)
(-0.0198096 0.0255695 0.00257804)
(-0.0156347 0.0149936 -0.00486247)
(0.0388537 -0.0171173 -0.0439007)
(0.0161934 0.0251112 -0.00242935)
(0.0320683 0.0458817 0.0093737)
(0.0180166 0.0172869 0.00645126)
(0.0237718 0.0270772 0.0115369)
(0.0116233 0.0115789 0.00953316)
(0.0167025 0.0156727 0.0130456)
(0.0045152 0.0016284 0.00895864)
(0.00588185 0.00750912 0.00671905)
(-0.000606346 -7.2591e-05 0.00420338)
(0.000337288 0.00405227 0.00502766)
(-0.000107931 -0.000677502 0.00467409)
(-0.000777574 0.000373831 0.00522633)
(-0.00268872 -0.000851258 0.00512777)
(-0.00280132 0.000387787 0.00562554)
(-0.00316592 2.7673e-05 0.00605308)
(-0.00321488 0.000853065 0.00628437)
(-0.00362446 0.000941894 0.00639208)
(-0.0037541 0.00143829 0.00639806)
(-0.00395401 0.00161878 0.00631509)
(-0.00411191 0.0018045 0.00619418)
(-0.00424055 0.00189971 0.00606959)
(-0.00432057 0.00196555 0.00597147)
(-0.00436229 0.00200249 0.00591018)
(-0.00437225 0.00203504 0.00586981)
(-0.00436106 0.00206069 0.00584431)
(-0.00433859 0.00209152 0.0058323)
(-0.0043141 0.00213493 0.00582803)
(-0.00429405 0.00219067 0.00582089)
(-0.00428321 0.00224453 0.0058055)
(-0.00428107 0.00228578 0.00578834)
(-0.00429108 0.00232997 0.00577356)
(-0.00430462 0.00238571 0.00576356)
(-0.00432807 0.00247834 0.00576061)
(-0.0043662 0.0026116 0.00576371)
(-0.00443314 0.00281038 0.00577079)
(-0.00451342 0.00304145 0.00577867)
(-0.00458583 0.00329457 0.00578087)
(-0.00464633 0.00347078 0.00575605)
(-0.0047235 0.00354404 0.00567549)
(-0.00494713 0.0034629 0.00547703)
(-0.00559577 0.00341597 0.00505414)
(-0.00711881 0.00358687 0.00421811)
(-0.00987985 0.00415363 0.00276853)
(-0.0137578 0.00515078 0.0010091)
(-0.0145687 0.00590681 -0.00015603)
(-0.0109768 0.00640941 4.56226e-06)
(-0.000989547 -0.00312273 0.00220878)
(0.00308968 -0.0134531 0.00509069)
(0.00855597 -0.0497502 0.0190463)
(0.00813109 -0.048647 0.0434358)
(-0.0140622 -0.0453781 0.0495258)
(-0.0452036 -0.0371451 0.0543089)
(-0.0550211 0.0046568 0.0513167)
(-0.0537884 0.0725182 0.0589304)
(-0.0325062 0.136569 0.104714)
(0.0105626 0.123717 0.156644)
(0.0439122 0.193035 0.192995)
(-0.0281149 -0.0676928 0.0899644)
(-0.0739157 0.50966 -0.0199303)
(-0.00013861 -0.137444 0.0414364)
(-0.0762462 0.575787 0.0460672)
(-0.0732078 0.69186 -0.01982)
(-0.0639924 0.626293 0.00818106)
(-0.0544967 0.660732 0.0114847)
(-0.0543594 0.628595 0.0238976)
(-0.0354518 0.615466 0.0115573)
(-0.0263706 0.606974 -0.00437274)
(-0.0200002 0.626478 -0.0215494)
(-0.021174 0.651354 -0.0194654)
(-0.00814983 0.666934 -0.0155061)
(-0.00441958 0.67021 -0.00689145)
(-0.00150607 0.687917 0.00522057)
(0.0127292 0.701426 0.0209646)
(0.0191856 0.712724 0.0453438)
(0.0208678 0.717578 0.0549842)
(0.0207732 0.73058 0.0571426)
(0.0119999 0.738068 0.0537957)
(0.00220492 0.74017 0.0507147)
(-0.00384894 0.735669 0.0537316)
(-0.00546444 0.7217 0.0544053)
(-0.00392085 0.70163 0.0524635)
(0.000227556 0.67682 0.0504439)
(0.00860044 0.653429 0.0444943)
(0.0148318 0.63111 0.0388763)
(0.0195085 0.605849 0.035952)
(0.017844 0.549472 0.0386154)
(0.0126034 0.373341 0.0413406)
(0.00805948 0.0752452 0.038825)
(-0.00210737 0.0447583 0.0280297)
(-0.00231415 0.0290729 0.0181672)
(0.00645003 0.0138743 0.00800009)
(0.00207372 0.00539475 0.00660427)
(-0.00665312 0.00026093 0.0032041)
(-0.00673053 -0.00904907 -0.000200699)
(0.0158906 0.00517476 -0.00630706)
(0.0302692 0.120891 -0.05555)
(0.000313602 0.0193157 -0.0192797)
(0.0293436 0.0490742 0.00895007)
(0.00847113 0.00882096 0.00506585)
(0.0179092 0.0266719 0.0085467)
(0.00422517 0.00836547 0.00676472)
(0.0100705 0.016866 0.0109101)
(-0.000595834 0.00543066 0.00721617)
(0.00242835 0.0101901 0.00589791)
(-0.00361527 0.00148971 0.00244637)
(-0.00217027 0.00550702 0.00258465)
(-0.00251282 0.000229113 0.00201279)
(-0.00428804 0.00188937 0.0020173)
(-0.00668663 -0.000491124 0.00187809)
(-0.00669659 0.000376699 0.00208355)
(-0.00732301 -0.000453762 0.00258743)
(-0.00713251 0.000563901 0.00274059)
(-0.00764233 0.00052573 0.00300737)
(-0.00779102 0.00121046 0.00314272)
(-0.0080772 0.00144772 0.00321408)
(-0.00828547 0.00175001 0.00324042)
(-0.00846892 0.00193111 0.00323898)
(-0.00862036 0.00206801 0.00323548)
(-0.00874377 0.00215673 0.00323221)
(-0.00884184 0.00222655 0.00323383)
(-0.00892405 0.00228237 0.003239)
(-0.00899613 0.00233558 0.00324823)
(-0.00905926 0.00238172 0.00326082)
(-0.00908096 0.00243912 0.00328248)
(-0.00905014 0.00249459 0.00330354)
(-0.00900991 0.00253948 0.00332329)
(-0.00898302 0.00258243 0.00334234)
(-0.00896757 0.00263443 0.00336351)
(-0.0089682 0.00271627 0.00339003)
(-0.00898158 0.00282695 0.0034287)
(-0.00900075 0.00299099 0.0034889)
(-0.00899589 0.00318332 0.00357286)
(-0.00893683 0.00341426 0.00366673)
(-0.00886285 0.00362333 0.00372652)
(-0.00890389 0.00384495 0.00368354)
(-0.00928895 0.00403939 0.00344937)
(-0.0102847 0.00431168 0.00288867)
(-0.011955 0.00458031 0.0018108)
(-0.0135958 0.0049511 9.36005e-05)
(-0.0155284 0.00524306 -0.00186421)
(-0.0150395 0.00540296 -0.00271312)
(-0.0089009 0.00488048 -0.00284091)
(0.00409194 0.000256066 0.00159065)
(0.0167075 -0.0061044 0.00369634)
(0.0110688 -0.0224631 0.0140284)
(-0.0175012 -0.0416519 0.0396139)
(-0.0289425 -0.0517955 0.0405089)
(-0.0447045 -0.0454629 0.039353)
(-0.077025 -0.01977 0.0296285)
(-0.0853693 0.0425267 0.054279)
(-0.0595596 0.0874902 0.105699)
(0.0261486 0.0262173 0.139457)
(0.144173 0.210257 0.214752)
(-0.016333 -0.199132 0.166395)
(0.0864019 0.507907 0.00808093)
(-0.0231799 -0.135142 0.0293813)
(-0.11748 0.562546 0.0388754)
(-0.0687167 0.675407 -0.00686045)
(-0.064519 0.583057 0.0146901)
(-0.049489 0.619065 0.0130204)
(-0.0581691 0.572116 0.0195282)
(-0.0350659 0.558296 -0.0012097)
(-0.0276532 0.55348 -0.0189861)
(-0.0239101 0.576246 -0.0310983)
(-0.0176981 0.600862 -0.0327777)
(-0.00185008 0.625573 -0.031026)
(0.00134468 0.644808 -0.0235102)
(-0.00210124 0.6515 -0.00763361)
(-0.00299466 0.651319 0.00312015)
(0.000232734 0.666561 0.0142394)
(-0.00298025 0.67373 0.0207311)
(-0.00562882 0.668315 0.0249731)
(-0.0129851 0.682239 0.0304094)
(-0.0145842 0.685972 0.0288957)
(-0.0181769 0.67559 0.0234509)
(-0.0152468 0.669325 0.0165235)
(-0.0105368 0.647285 0.0100571)
(-0.00647524 0.612245 0.00680734)
(-0.00197367 0.541043 0.00626084)
(-0.000466159 0.357289 0.00858734)
(0.0065756 0.106163 0.00701639)
(0.0220143 0.0681416 0.00685141)