/*--------------------------------*- C++ -*----------------------------------*\
| =========                 |                                                 |
| \\      /  F ield         | OpenFOAM: The Open Source CFD Toolbox           |
|  \\    /   O peration     | Version:  2.3.0                                 |
|   \\  /    A nd           | Web:      www.OpenFOAM.org                      |
|    \\/     M anipulation  |                                                 |
\*---------------------------------------------------------------------------*/
FoamFile
{
    version     2.0;
    format      ascii;
    class       volVectorField;
    location    "16";
    object      Ur;
}
// * * * * * * * * * * * * * * * * * * * * * * * * * * * * * * * * * * * * * //

dimensions      [0 1 -1 0 0 0 0];

internalField   nonuniform List<vector> 
6144
(
(-3.52546e-07 0.000490537 -4.57254e-07)
(1.64878e-07 0.000528208 -4.26966e-07)
(7.69746e-07 0.000575537 -2.485e-07)
(9.96355e-07 0.000611243 -1.13855e-07)
(1.30531e-06 0.000648219 9.99484e-08)
(1.36407e-06 0.000684329 1.42354e-07)
(1.30352e-06 0.000705975 1.86617e-07)
(1.23574e-06 0.000713915 1.19666e-07)
(1.07603e-06 0.000713847 1.19685e-07)
(9.18339e-07 0.00071093 1.52842e-07)
(7.47752e-07 0.000707546 1.1456e-07)
(6.00233e-07 0.000704258 1.08064e-07)
(4.59263e-07 0.000701252 8.98361e-08)
(3.4282e-07 0.00069861 7.99292e-08)
(2.46134e-07 0.000696351 5.62917e-08)
(1.68935e-07 0.000694481 3.40489e-08)
(1.19703e-07 0.00069298 1.7122e-08)
(7.31315e-08 0.000691777 3.44515e-10)
(4.44277e-08 0.000690814 -9.23585e-09)
(1.29336e-08 0.000690046 -2.121e-08)
(-2.60644e-09 0.00068944 -2.6123e-08)
(-2.26771e-08 0.000688969 -3.53568e-08)
(-2.70833e-08 0.000688612 -3.88911e-08)
(-3.83774e-08 0.000688348 -4.70337e-08)
(-3.36069e-08 0.000688165 -5.00657e-08)
(-3.8091e-08 0.000688046 -5.91931e-08)
(-2.51886e-08 0.000687986 -6.32083e-08)
(-2.42146e-08 0.000687977 -7.48961e-08)
(-3.37302e-09 0.000688019 -8.10833e-08)
(2.61822e-09 0.00068811 -9.64657e-08)
(3.20654e-08 0.000688257 -1.06156e-07)
(4.40561e-08 0.00068846 -1.28448e-07)
(8.52118e-08 0.000688731 -1.41707e-07)
(1.05035e-07 0.000689071 -1.68613e-07)
(1.59832e-07 0.000689494 -1.86952e-07)
(1.93006e-07 0.000689998 -2.22231e-07)
(2.71331e-07 0.000690594 -2.48842e-07)
(3.30162e-07 0.000691274 -2.97087e-07)
(4.4966e-07 0.000692036 -3.38502e-07)
(5.57798e-07 0.000692857 -4.08708e-07)
(7.49229e-07 0.000693711 -4.72931e-07)
(9.42143e-07 0.000694545 -5.68103e-07)
(1.24293e-06 0.000695286 -6.43517e-07)
(1.54352e-06 0.000695942 -7.10181e-07)
(1.96085e-06 0.000696661 -7.17065e-07)
(2.39403e-06 0.000756496 -7.70928e-07)
(2.83655e-06 0.00104685 -9.92021e-07)
(2.25085e-06 0.00157347 -2.06126e-06)
(2.64948e-08 0.00202773 -2.88402e-06)
(-1.75659e-06 0.00227107 -3.76271e-06)
(-7.31756e-06 0.00243931 -6.82076e-06)
(-3.50335e-06 0.00258238 -8.3247e-06)
(1.10545e-06 0.00275386 -1.07612e-05)
(-7.88032e-06 0.00293074 -9.44926e-06)
(7.80824e-06 0.00325905 -1.22472e-05)
(-4.60393e-05 0.00360812 -2.45268e-05)
(-8.91547e-05 0.00455437 -0.000201674)
(-5.34769e-05 0.00665679 -3.26411e-05)
(-0.0002597 0.0188419 -0.000461923)
(0.00655349 0.131494 0.00659372)
(-0.0182729 0.611975 -0.0227053)
(-0.0315815 0.485885 -0.0384635)
(-0.000414523 0.023087 -0.000496528)
(-1.9906e-05 0.00763276 3.48002e-05)
(-3.23057e-05 0.00787018 -1.10473e-05)
(-6.64646e-05 0.00791849 -2.73548e-05)
(-5.62321e-05 0.0079309 -6.20499e-06)
(-4.92685e-05 0.00793371 -1.01876e-06)
(-4.15052e-05 0.00790471 9.27407e-07)
(-2.80642e-05 0.00785018 3.27559e-06)
(-1.60037e-05 0.00778705 -2.99485e-07)
(-1.0207e-05 0.00774064 -9.74007e-06)
(-1.84294e-05 0.00775523 -2.24312e-05)
(-2.14583e-05 0.00784717 -2.46542e-05)
(-2.49257e-05 0.00794836 -2.04449e-05)
(-3.21325e-05 0.00797853 -2.00091e-05)
(-3.11793e-05 0.00796965 -1.36393e-05)
(-3.49627e-05 0.00798041 -6.81558e-06)
(-5.21688e-05 0.00813888 -5.11938e-06)
(-5.2732e-05 0.00835652 -3.24771e-05)
(-3.49577e-05 0.00825881 -3.13513e-05)
(-1.40344e-05 0.00789517 -1.28406e-05)
(-7.38972e-06 0.00767582 -1.41723e-05)
(-1.28002e-05 0.00762519 -2.39591e-05)
(-9.04022e-06 0.00759039 -3.13542e-05)
(-2.0161e-07 0.007551 -3.44112e-05)
(-2.97409e-06 0.00757745 -2.77103e-05)
(-9.1009e-06 0.00766776 -2.28654e-05)
(-1.31517e-05 0.00776432 -1.95829e-05)
(-3.37313e-06 0.00789467 -2.15092e-05)
(7.95673e-06 0.00803578 -3.29975e-05)
(-1.98524e-07 0.00796964 -2.50305e-05)
(-8.58924e-06 0.00719777 -5.93793e-06)
(-1.77115e-06 0.00548147 -2.29559e-06)
(-1.52872e-06 0.00387529 -2.66251e-06)
(-2.42937e-06 0.00329274 -2.61454e-06)
(-3.49204e-07 0.000453874 -4.4232e-07)
(1.48515e-06 0.000483548 -2.74557e-07)
(2.62894e-06 0.000522375 -9.51561e-08)
(3.15567e-06 0.000569481 1.44617e-09)
(3.844e-06 0.00062535 2.58411e-07)
(3.85083e-06 0.000671374 2.91156e-07)
(3.6488e-06 0.000700429 2.83397e-07)
(3.2708e-06 0.000711326 1.38609e-07)
(2.89626e-06 0.000710248 1.07144e-07)
(2.4351e-06 0.000707672 1.36751e-07)
(1.99036e-06 0.00070594 1.24624e-07)
(1.59412e-06 0.000703832 1.25258e-07)
(1.21816e-06 0.000701211 9.74468e-08)
(9.15051e-07 0.000698667 8.28801e-08)
(6.72496e-07 0.000696441 6.06849e-08)
(4.88048e-07 0.00069461 5.39379e-08)
(3.50283e-07 0.000693131 3.54088e-08)
(2.3808e-07 0.000691943 2.94308e-08)
(1.54615e-07 0.000690991 1.58273e-08)
(8.50767e-08 0.000690234 1.33322e-08)
(3.85028e-08 0.000689639 2.05887e-09)
(1.53084e-09 0.000689178 1.97114e-09)
(-1.50292e-08 0.00068883 -8.76866e-09)
(-2.54324e-08 0.000688575 -7.45039e-09)
(-1.69543e-08 0.000688398 -1.9e-08)
(-4.94822e-09 0.000688288 -1.73253e-08)
(2.61044e-08 0.000688236 -3.15156e-08)
(5.91764e-08 0.000688237 -3.03755e-08)
(1.13445e-07 0.000688289 -4.83893e-08)
(1.69057e-07 0.000688392 -4.82943e-08)
(2.49492e-07 0.000688549 -7.13808e-08)
(3.31951e-07 0.000688768 -7.33895e-08)
(4.45544e-07 0.000689052 -1.05482e-07)
(5.63783e-07 0.000689409 -1.09451e-07)
(7.23028e-07 0.000689847 -1.44915e-07)
(8.95541e-07 0.000690379 -1.50472e-07)
(1.12771e-06 0.000691002 -1.94801e-07)
(1.39203e-06 0.000691728 -2.07112e-07)
(1.74908e-06 0.00069254 -2.67479e-07)
(2.17588e-06 0.000693429 -2.96868e-07)
(2.74521e-06 0.000694355 -3.8557e-07)
(3.4245e-06 0.000695278 -4.38612e-07)
(4.30235e-06 0.000696147 -5.28034e-07)
(5.36911e-06 0.000696741 -5.44271e-07)
(6.73835e-06 0.000702277 -5.6861e-07)
(8.33889e-06 0.000798915 -4.84366e-07)
(9.83005e-06 0.00112047 -7.83873e-07)
(9.02534e-06 0.00158194 -2.00881e-06)
(5.77209e-06 0.00195629 -2.61921e-06)
(3.23923e-06 0.00223051 -2.76931e-06)
(-8.36725e-07 0.00250628 -6.09599e-06)
(8.63059e-06 0.00274936 -1.12139e-05)
(2.33874e-05 0.00298423 -9.92768e-06)
(2.47833e-05 0.00323277 -1.37973e-05)
(3.87167e-05 0.00360823 -1.52605e-05)
(-8.41879e-05 0.0039951 -2.82845e-05)
(-0.000346096 0.00533721 -0.000318849)
(-0.000473604 0.00736349 -0.000190773)
(-0.000467485 0.0142508 -0.000464479)
(0.00890567 0.133774 0.0151313)
(-0.04253 0.622508 -0.0274344)
(-0.0544173 0.41174 -0.0395502)
(-0.000334406 0.0236437 -0.000111649)
(-8.78999e-06 0.00825218 -2.61557e-05)
(0.000141645 0.00859037 1.5504e-06)
(-3.35391e-05 0.00868969 1.12678e-05)
(-4.38452e-05 0.00834859 4.18211e-05)
(-5.91191e-05 0.00788061 -3.92288e-06)
(-7.2624e-05 0.00762275 -0.000135928)
(-6.9555e-05 0.00763478 -0.000222269)
(-6.22986e-05 0.00766216 -3.2859e-05)
(-5.25943e-05 0.00765469 -2.95188e-05)
(-5.89978e-05 0.00774228 -3.00291e-05)
(-5.72192e-05 0.00787316 -2.75586e-05)
(-5.14791e-05 0.00790068 -2.14434e-05)
(-3.41599e-05 0.00789772 -1.06397e-05)
(-4.15293e-05 0.00812307 1.57661e-06)
(-5.98803e-05 0.00841184 -1.11947e-05)
(-6.7959e-05 0.00854824 7.828e-08)
(-9.65783e-05 0.00857912 -2.61978e-05)
(-6.84285e-05 0.00839031 -3.50832e-05)
(-2.83445e-05 0.00810237 -2.2248e-05)
(-2.38652e-05 0.00791515 -3.271e-05)
(-2.31173e-05 0.00778074 -4.00662e-05)
(-9.24082e-06 0.00762508 -3.66982e-05)
(1.52937e-06 0.00746702 -3.46982e-05)
(-6.73829e-06 0.00743071 -2.4147e-05)
(-1.78259e-05 0.00755126 -2.10475e-05)
(-1.70336e-05 0.00772372 -2.7195e-05)
(7.72934e-06 0.00792976 -3.63434e-05)
(1.96898e-05 0.00809387 -4.70839e-05)
(3.45241e-09 0.00797458 -2.56599e-05)
(-7.08328e-06 0.00714671 -3.14662e-06)
(-8.65951e-07 0.00541908 -3.25215e-07)
(-1.21407e-07 0.00379794 -2.64988e-06)
(-1.57217e-06 0.00325547 -2.22432e-06)
(1.91248e-07 0.000453305 -6.53739e-07)
(3.0469e-06 0.000476378 -1.73143e-07)
(4.31701e-06 0.000506091 2.54013e-08)
(5.35242e-06 0.000543891 2.6778e-07)
(6.12251e-06 0.000588719 5.47666e-07)
(6.12213e-06 0.000635598 5.28297e-07)
(5.77792e-06 0.000681214 4.34658e-07)
(5.0481e-06 0.000705241 3.32291e-07)
(4.35714e-06 0.000706801 1.82198e-07)
(3.6049e-06 0.000704613 2.09612e-07)
(2.90361e-06 0.000704028 1.73639e-07)
(2.23464e-06 0.000702683 1.6204e-07)
(1.64066e-06 0.00070055 1.42718e-07)
(1.16547e-06 0.000698229 1.29282e-07)
(8.17403e-07 0.000696138 1.13554e-07)
(5.54429e-07 0.000694393 9.90167e-08)
(3.5816e-07 0.000692975 8.56032e-08)
(1.97247e-07 0.000691833 7.45207e-08)
(7.90659e-08 0.000690918 6.70055e-08)
(-1.94187e-08 0.000690192 5.89165e-08)
(-8.4017e-08 0.000689625 5.38088e-08)
(-1.34374e-07 0.000689189 4.75364e-08)
(-1.55383e-07 0.000688865 4.41451e-08)
(-1.66248e-07 0.000688632 3.91894e-08)
(-1.48886e-07 0.000688477 3.57458e-08)
(-1.22899e-07 0.000688386 3.04887e-08)
(-6.84439e-08 0.000688354 2.65137e-08)
(-6.63951e-09 0.000688374 1.97145e-08)
(8.72585e-08 0.000688446 1.33643e-08)
(1.89322e-07 0.00068857 3.76195e-09)
(3.29188e-07 0.000688752 -5.57163e-09)
(4.80053e-07 0.000688994 -1.88074e-08)
(6.77206e-07 0.000689308 -3.20131e-08)
(8.93528e-07 0.0006897 -4.93759e-08)
(1.17348e-06 0.000690182 -6.70787e-08)
(1.48803e-06 0.000690764 -9.07007e-08)
(1.89656e-06 0.000691454 -1.15357e-07)
(2.37248e-06 0.000692261 -1.49518e-07)
(2.99272e-06 0.000693183 -1.86469e-07)
(3.73023e-06 0.000694203 -2.34892e-07)
(4.68883e-06 0.000695294 -2.83092e-07)
(5.84759e-06 0.000696427 -3.38911e-07)
(7.32196e-06 0.000697629 -3.89825e-07)
(9.1135e-06 0.000699022 -4.28607e-07)
(1.14191e-05 0.00071014 -4.08411e-07)
(1.42488e-05 0.000799975 -3.07965e-07)
(1.70385e-05 0.00106887 -5.7436e-07)
(1.75724e-05 0.0014689 -1.92829e-06)
(1.54624e-05 0.00184477 -2.75179e-06)
(1.53528e-05 0.00218975 -4.15567e-06)
(2.31803e-05 0.00259309 -8.90765e-06)
(4.06541e-05 0.00299481 -1.59971e-05)
(7.70856e-05 0.00335753 -1.71552e-05)
(0.00011444 0.0036968 -1.39017e-05)
(0.000163138 0.00402425 -1.63433e-05)
(9.62635e-05 0.00417595 2.49039e-05)
(-0.000568519 0.00572174 -0.000328462)
(-0.000372306 0.00901459 0.000118312)
(-0.000925048 0.0134646 -0.000313945)
(0.015836 0.156985 0.0195323)
(-0.0219502 0.621582 -0.0171591)
(-0.0344787 0.392314 -0.0246558)
(-0.000852823 0.0475387 -0.000518096)
(-0.000223928 0.418656 -0.00836928)
(-0.00123372 0.393032 0.00143219)
(-0.000276183 0.0269726 -0.000368024)
(-0.000304201 0.00838984 -0.000409179)
(-0.000268876 0.00946199 -0.000373222)
(-0.00022574 0.0104132 -0.000358516)
(-0.000207483 0.010691 -0.000380491)
(-0.000178222 0.0100249 -0.000404969)
(-0.000185994 0.00900355 -0.000382298)
(-0.000185518 0.00842285 -5.17608e-05)
(-6.11547e-05 0.00854151 -6.81786e-05)
(-6.9157e-05 0.00876339 -7.92901e-05)
(-4.76475e-05 0.00888816 -3.56462e-05)
(-5.49877e-05 0.0090919 -3.52713e-05)
(-5.25449e-05 0.00910954 -2.88246e-05)
(-4.39466e-05 0.00895228 1.22607e-05)
(-6.75873e-05 0.00880622 1.7731e-06)
(-5.33576e-05 0.00866233 -3.08033e-05)
(-3.85377e-05 0.00852048 -3.62247e-05)
(-3.9892e-05 0.00839224 -5.62691e-05)
(-4.54229e-07 0.00822463 -4.97372e-05)
(1.39361e-05 0.00789905 -3.72831e-05)
(-1.18241e-05 0.00746973 -2.99924e-05)
(-1.84181e-05 0.00720652 -1.64905e-05)
(-2.10115e-05 0.00725298 -1.97531e-05)
(-7.37993e-06 0.00752296 -3.97945e-05)
(2.89692e-05 0.00784683 -6.15883e-05)
(2.19448e-05 0.00796466 -4.76956e-05)
(5.95972e-07 0.00742664 -1.82669e-05)
(-3.96296e-06 0.00582328 -3.71543e-06)
(-3.48936e-06 0.00401873 -1.52817e-06)
(-1.46372e-06 0.0032888 -3.45656e-06)
(-1.17051e-06 0.00326468 -2.98078e-06)
(7.03552e-07 0.000465778 -8.52207e-07)
(4.64082e-06 0.000478733 -1.43251e-07)
(6.08613e-06 0.000494045 7.91218e-09)
(7.75325e-06 0.000515002 3.48617e-07)
(8.24083e-06 0.000551226 6.09509e-07)
(8.21761e-06 0.000607597 5.84585e-07)
(7.62227e-06 0.000666885 5.18367e-07)
(6.74743e-06 0.000699842 3.76758e-07)
(5.63066e-06 0.000705763 2.36344e-07)
(4.61822e-06 0.000703691 2.51817e-07)
(3.66626e-06 0.000702571 1.77479e-07)
(2.79087e-06 0.00070145 1.70342e-07)
(2.00906e-06 0.000699657 1.31794e-07)
(1.41032e-06 0.00069754 1.38332e-07)
(9.30664e-07 0.000695577 1.10358e-07)
(5.77165e-07 0.000693929 1.11316e-07)
(2.93192e-07 0.000692583 8.87416e-08)
(8.075e-08 0.000691499 8.90925e-08)
(-9.19473e-08 0.000690629 7.23377e-08)
(-2.17618e-07 0.000689938 7.41038e-08)
(-3.16341e-07 0.000689399 6.01655e-08)
(-3.78206e-07 0.000688988 6.41752e-08)
(-4.20099e-07 0.000688684 5.1405e-08)
(-4.29491e-07 0.000688473 5.63802e-08)
(-4.21866e-07 0.000688338 4.25334e-08)
(-3.83061e-07 0.00068827 4.75407e-08)
(-3.28182e-07 0.000688258 3.15574e-08)
(-2.39593e-07 0.000688303 3.8045e-08)
(-1.34292e-07 0.000688399 1.85893e-08)
(1.02379e-08 0.000688553 2.35309e-08)
(1.75581e-07 0.000688763 -2.17096e-09)
(3.89356e-07 0.000689044 1.5304e-09)
(6.31729e-07 0.000689398 -3.08728e-08)
(9.38828e-07 0.000689846 -2.91648e-08)
(1.29176e-06 0.000690395 -7.05068e-08)
(1.7383e-06 0.000691067 -7.31867e-08)
(2.26301e-06 0.000691867 -1.26438e-07)
(2.92655e-06 0.000692814 -1.35199e-07)
(3.71625e-06 0.000693897 -1.99339e-07)
(4.70066e-06 0.000695127 -2.07642e-07)
(5.88129e-06 0.000696479 -2.73762e-07)
(7.34747e-06 0.000697943 -2.73294e-07)
(9.12821e-06 0.000699682 -3.23258e-07)
(1.13711e-05 0.000703194 -2.78745e-07)
(1.41703e-05 0.000724694 -2.3233e-07)
(1.77049e-05 0.000818167 -6.12249e-08)
(2.14273e-05 0.0010375 -3.35063e-07)
(2.34859e-05 0.00135149 -1.88277e-06)
(2.27474e-05 0.00169184 -3.52927e-06)
(2.49576e-05 0.00211143 -7.24372e-06)
(3.94988e-05 0.00270682 -1.13042e-05)
(7.54857e-05 0.00332672 -1.9068e-05)
(0.0001452 0.00381955 -2.93726e-05)
(0.000239724 0.00421535 -3.06199e-05)
(0.000382756 0.00445212 -8.6849e-07)
(0.000591102 0.00401971 3.06117e-05)
(-0.000150942 0.0062352 0.000441233)
(0.00104765 0.0105779 0.000421964)
(-0.0014339 0.0143453 -0.000520147)
(0.0079446 0.175738 0.00964141)
(-0.0177019 0.671268 -0.0132386)
(-0.0449903 0.525892 -0.025297)
(-0.0239205 0.589426 -0.039619)
(0.011954 0.556974 -0.00538633)
(0.0213241 0.559194 0.00526138)
(0.012612 0.547752 0.000676988)
(0.00815143 0.540481 0.0026424)
(0.00717098 0.539691 0.00257776)
(0.00596421 0.539037 0.000398127)
(0.00369834 0.53341 0.000304905)
(-0.00173468 0.52041 -0.00321544)
(-0.00921039 0.479231 -0.00761245)
(-0.0140822 0.320834 -0.0105612)
(0.000138464 0.0297179 -0.000265555)
(0.000168084 0.00836444 -0.000365355)
(0.000102267 0.00815635 -0.000227044)
(-5.09712e-05 0.00772471 -0.000563907)
(-0.000141302 0.00781935 -0.000870363)
(-0.000237715 0.00793985 -0.000596079)
(-0.000337717 0.00798512 -0.000403745)
(-0.000350711 0.00808009 -0.000366356)
(-0.00019502 0.00833306 -0.000341104)
(0.000176565 0.00840012 -0.000304922)
(0.000305448 0.00797809 -3.6388e-05)
(5.18556e-05 0.00757132 -6.74817e-05)
(-0.000248309 0.00732284 -4.27492e-05)
(-0.000343135 0.00709812 -2.3162e-05)
(-3.92832e-05 0.00713375 -1.49028e-05)
(2.01077e-05 0.0075102 -4.20411e-05)
(3.22065e-05 0.0077572 -5.48647e-05)
(1.78701e-05 0.00728232 -2.21101e-05)
(6.67452e-06 0.00593986 -8.75303e-06)
(-1.40022e-07 0.00446696 -4.40319e-06)
(-5.20834e-08 0.00367181 -2.2513e-06)
(-1.78337e-06 0.00359746 -6.28893e-09)
(-1.71228e-06 0.00377002 4.73563e-07)
(1.41108e-06 0.000485401 -9.58333e-07)
(6.58819e-06 0.00049299 6.96629e-08)
(8.13399e-06 0.00049874 -2.35568e-07)
(1.01959e-05 0.000510297 1.3014e-07)
(1.00962e-05 0.000536 4.29017e-07)
(1.0082e-05 0.000583115 5.21116e-07)
(9.07457e-06 0.000636604 4.85351e-07)
(8.04122e-06 0.000678087 3.48771e-07)
(6.63407e-06 0.000699693 2.8786e-07)
(5.39854e-06 0.000703754 2.66608e-07)
(4.19544e-06 0.000701629 2.10463e-07)
(3.15869e-06 0.000700075 1.69492e-07)
(2.27339e-06 0.000698745 1.25831e-07)
(1.57259e-06 0.000696926 1.10347e-07)
(1.01125e-06 0.000695124 9.39892e-08)
(5.65439e-07 0.00069361 7.94776e-08)
(2.17908e-07 0.000692368 7.46899e-08)
(-5.6803e-08 0.000691369 5.81367e-08)
(-2.65248e-07 0.00069057 5.76395e-08)
(-4.29281e-07 0.000689941 4.05429e-08)
(-5.44199e-07 0.000689456 4.26508e-08)
(-6.29603e-07 0.000689092 2.63219e-08)
(-6.75504e-07 0.000688832 2.88586e-08)
(-6.97574e-07 0.000688657 1.33562e-08)
(-6.8418e-07 0.000688556 1.84818e-08)
(-6.50023e-07 0.000688519 2.67307e-09)
(-5.7972e-07 0.000688542 8.63977e-09)
(-4.8732e-07 0.000688618 -1.0623e-08)
(-3.54751e-07 0.000688751 -5.21244e-09)
(-1.95466e-07 0.00068894 -2.87108e-08)
(1.30097e-08 0.000689195 -2.31107e-08)
(2.56939e-07 0.000689521 -5.25239e-08)
(5.64494e-07 0.000689932 -4.88691e-08)
(9.23242e-07 0.00069044 -8.64693e-08)
(1.36995e-06 0.000691068 -8.65482e-08)
(1.89589e-06 0.000691831 -1.35619e-07)
(2.54661e-06 0.000692749 -1.42143e-07)
(3.31631e-06 0.00069383 -2.02082e-07)
(4.25679e-06 0.000695085 -2.09523e-07)
(5.36863e-06 0.000696513 -2.70833e-07)
(6.70954e-06 0.000698126 -2.70233e-07)
(8.30096e-06 0.000699948 -3.16992e-07)
(1.02609e-05 0.000702155 -2.78723e-07)
(1.26917e-05 0.000707129 -2.38711e-07)
(1.57578e-05 0.000734521 -4.67996e-08)
(1.92691e-05 0.00082946 -2.33913e-08)
(2.31354e-05 0.00101762 -2.68345e-07)
(2.58684e-05 0.00127162 -1.71316e-06)
(2.58484e-05 0.00158164 -4.83981e-06)
(2.78529e-05 0.00206454 -8.32901e-06)
(4.6011e-05 0.00284263 -2.68129e-06)
(9.8036e-05 0.00366444 5.93665e-07)
(0.000195317 0.00428484 -1.77064e-05)
(0.000355532 0.00468047 -5.72522e-05)
(0.000472483 0.00491214 -8.22546e-05)
(0.000794677 0.00404309 -0.000223364)
(0.000534065 0.00644574 0.000513825)
(0.00113426 0.00968416 0.000623741)
(-0.00186115 0.0133762 -0.00048242)
(0.0120219 0.177074 0.0131067)
(-0.0105361 0.690333 -0.0269321)
(-0.0355725 0.545243 -0.0255123)
(-0.00317209 0.579654 -0.0124119)
(0.0252291 0.555838 0.00389465)
(0.0139927 0.548219 0.010405)
(0.00869489 0.543746 0.0064845)
(0.00737525 0.541613 0.00206506)
(0.00653598 0.543823 0.000850142)
(0.00310636 0.539163 0.000846218)
(0.00613691 0.546122 0.00123457)
(-0.00207309 0.547767 -0.002269)
(-0.00549876 0.536807 -0.00516973)
(-0.0156514 0.531254 -0.0130976)
(-0.0215646 0.537866 -0.0155225)
(-0.013019 0.542322 -0.0076717)
(-0.00957803 0.537542 0.00276602)
(-0.0052499 0.531754 0.0148694)
(0.00646548 0.533382 0.017608)
(0.00925707 0.53672 0.0110606)
(0.00491259 0.539514 0.00836988)
(0.00380937 0.541214 0.00720599)
(0.000404571 0.537915 0.00448708)
(-0.00450631 0.538437 0.00197963)
(-0.0113058 0.529346 -0.00462111)
(-0.0167259 0.501779 -0.0102069)
(-0.0117142 0.429767 -0.00968145)
(-0.0024024 0.201409 -0.0023497)
(-7.12069e-06 0.030451 -0.000373975)
(2.73453e-05 0.00650441 -0.000541521)
(1.5848e-05 0.00598052 -0.000276814)
(3.17232e-05 0.005581 6.21328e-07)
(5.35421e-05 0.00522369 7.68632e-07)
(4.29143e-05 0.00480214 2.04413e-06)
(2.17014e-05 0.00490673 -2.64631e-06)
(-0.000105966 0.00537415 -0.000188157)
(-7.43818e-06 0.00534451 -2.02049e-05)
(2.4215e-06 0.000499412 2.77729e-08)
(9.39077e-06 0.000512084 4.90171e-07)
(1.04454e-05 0.000519849 -3.58877e-07)
(1.22434e-05 0.000522763 -1.88669e-07)
(1.18144e-05 0.00053502 6.61243e-08)
(1.1668e-05 0.000569683 2.73397e-07)
(1.01338e-05 0.000609168 2.97108e-07)
(8.94262e-06 0.00065069 3.24412e-07)
(7.28177e-06 0.000683845 2.75358e-07)
(5.89463e-06 0.000696715 3.21563e-07)
(4.46015e-06 0.000698491 2.13614e-07)
(3.35942e-06 0.000698394 2.12162e-07)
(2.39844e-06 0.00069745 1.19056e-07)
(1.65664e-06 0.000695877 1.20774e-07)
(1.02312e-06 0.000694251 7.63854e-08)
(5.30346e-07 0.000692821 8.87312e-08)
(1.18488e-07 0.000691666 6.21796e-08)
(-1.94375e-07 0.000690741 6.64658e-08)
(-4.43292e-07 0.000690002 4.26523e-08)
(-6.27321e-07 0.000689427 4.26395e-08)
(-7.6473e-07 0.000688988 2.13075e-08)
(-8.56497e-07 0.000688665 2.20161e-08)
(-9.13877e-07 0.000688441 3.40499e-09)
(-9.34307e-07 0.000688302 6.67834e-09)
(-9.24939e-07 0.000688235 -1.17231e-08)
(-8.803e-07 0.000688235 -7.13223e-09)
(-8.06159e-07 0.000688294 -2.69298e-08)
(-6.94309e-07 0.000688415 -2.23866e-08)
(-5.48688e-07 0.000688593 -4.64121e-08)
(-3.5844e-07 0.000688837 -4.20873e-08)
(-1.25206e-07 0.000689148 -7.11481e-08)
(1.64847e-07 0.000689544 -6.78333e-08)
(5.12339e-07 0.000690031 -1.03276e-07)
(9.36403e-07 0.000690633 -1.03964e-07)
(1.44169e-06 0.000691364 -1.51467e-07)
(2.05352e-06 0.000692257 -1.60194e-07)
(2.78093e-06 0.00069332 -2.21109e-07)
(3.65262e-06 0.000694578 -2.36676e-07)
(4.68088e-06 0.000696033 -3.03998e-07)
(5.89692e-06 0.000697703 -3.17719e-07)
(7.32353e-06 0.000699603 -3.78906e-07)
(9.01186e-06 0.000701826 -3.75017e-07)
(1.10514e-05 0.000704639 -3.91661e-07)
(1.35955e-05 0.000710795 -2.55918e-07)
(1.66792e-05 0.000738438 -4.13794e-08)
(1.99768e-05 0.000821843 1.19781e-07)
(2.34045e-05 0.000971188 -5.98345e-07)
(2.6225e-05 0.00115862 -2.0236e-06)
(2.54256e-05 0.00144322 -5.78256e-06)
(2.17131e-05 0.00202515 -8.92587e-06)
(4.14119e-05 0.00296654 -7.11265e-06)
(8.00892e-05 0.00394643 4.38401e-06)
(0.000153528 0.00466095 -8.78768e-06)
(0.00023103 0.00493684 -0.000100394)
(0.000393737 0.00513082 -8.56031e-05)
(0.000745449 0.0042066 -0.000193642)
(0.000699094 0.00475571 -0.000418748)
(7.08468e-05 0.00198037 6.76897e-05)
(-0.00173055 0.00862624 0.000981406)
(0.0048531 0.197561 0.00348449)
(-0.0147984 0.716197 -0.0363111)
(-0.00364407 0.531096 0.00429319)
(0.00394775 0.560561 0.00275553)
(0.00873422 0.545899 0.00983129)
(0.000106799 0.540534 0.00433929)
(0.00167009 0.542771 -0.000498124)
(0.000963323 0.539292 -0.00269982)
(0.00010364 0.542456 -0.000813926)
(0.00209378 0.543563 0.000430988)
(0.00514877 0.546082 0.00199137)
(0.00552774 0.55052 0.00361358)
(0.00576852 0.550406 0.00038699)
(0.00230193 0.546044 -0.00282478)
(-0.00125928 0.541987 -0.00340748)
(-0.0023336 0.542305 -0.00131954)
(-0.0037707 0.541196 0.00304617)
(-0.00533924 0.541509 0.00806664)
(-0.00293299 0.543225 0.0122052)
(-0.000334442 0.54461 0.00795534)
(0.000184474 0.543463 0.00434558)
(-0.00190417 0.542189 0.00357227)
(-0.00707461 0.537002 -0.000382308)
(-0.0114244 0.528939 -0.00644648)
(-0.0117542 0.525702 -0.0131715)
(-0.00592673 0.524633 -0.020063)
(0.00121712 0.521483 -0.0299314)
(0.0070811 0.535163 -0.0343565)
(0.000395142 0.546451 0.00114447)
(-0.00597143 0.551246 0.0219629)
(0.00173726 0.543705 0.00692507)
(0.00275713 0.530131 0.00497258)
(0.000589986 0.529975 0.00253483)
(0.00120464 0.508652 0.00164539)
(1.38788e-05 0.426243 -0.00204489)
(-0.000246899 0.152393 -0.000833085)
(3.18417e-05 0.0276548 -8.60703e-05)
(3.84683e-06 0.000509123 1.2553e-06)
(1.34298e-05 0.000524313 1.49134e-06)
(1.28497e-05 0.000540025 -3.19054e-07)
(1.37466e-05 0.000547682 -1.37243e-07)
(1.29455e-05 0.000553849 7.9513e-08)
(1.23202e-05 0.000574208 1.0553e-07)
(1.06323e-05 0.000595477 2.26453e-07)
(9.16501e-06 0.000626699 2.70298e-07)
(7.41411e-06 0.000660259 2.79607e-07)
(6.01956e-06 0.00068132 2.10634e-07)
(4.46301e-06 0.000691768 1.92445e-07)
(3.38435e-06 0.000696064 1.74827e-07)
(2.44721e-06 0.000696566 1.33148e-07)
(1.7132e-06 0.000695388 1.2405e-07)
(1.02829e-06 0.000693876 1.20984e-07)
(5.12632e-07 0.000692568 1.18521e-07)
(6.56436e-08 0.000691498 1.20912e-07)
(-2.64303e-07 0.000690653 1.0662e-07)
(-5.30024e-07 0.000689987 9.94401e-08)
(-7.2532e-07 0.000689479 7.43967e-08)
(-8.674e-07 0.0006891 6.69278e-08)
(-9.5912e-07 0.00068883 4.58963e-08)
(-1.01144e-06 0.000688654 4.58062e-08)
(-1.02388e-06 0.000688558 2.95949e-08)
(-1.00474e-06 0.000688535 3.05648e-08)
(-9.47631e-07 0.000688578 1.34645e-08)
(-8.58707e-07 0.000688685 1.42401e-08)
(-7.26247e-07 0.000688849 -6.29365e-09)
(-5.58306e-07 0.000689077 -6.24712e-09)
(-3.38716e-07 0.000689369 -2.92968e-08)
(-7.30069e-08 0.000689742 -3.09323e-08)
(2.60333e-07 0.000690202 -6.04622e-08)
(6.55462e-07 0.000690773 -6.69678e-08)
(1.14056e-06 0.000691472 -1.06976e-07)
(1.71087e-06 0.000692328 -1.22685e-07)
(2.40203e-06 0.000693367 -1.77031e-07)
(3.20843e-06 0.000694613 -2.04301e-07)
(4.1721e-06 0.000696072 -2.68762e-07)
(5.2821e-06 0.000697751 -2.97903e-07)
(6.58686e-06 0.000699657 -3.60149e-07)
(8.0785e-06 0.000701815 -3.86782e-07)
(9.83989e-06 0.000704297 -4.43358e-07)
(1.18965e-05 0.000707399 -4.52195e-07)
(1.4371e-05 0.000713379 -4.10917e-07)
(1.72555e-05 0.000734897 -1.93638e-07)
(2.00863e-05 0.000794761 -1.99144e-07)
(2.24347e-05 0.000897007 -1.1142e-06)
(2.40041e-05 0.0010651 -1.8899e-06)
(1.71607e-05 0.00150409 -4.83386e-06)
(6.71587e-06 0.00238994 -1.09939e-05)
(7.68095e-06 0.00343834 -1.65036e-05)
(1.88357e-05 0.00425958 -1.34483e-05)
(5.73745e-05 0.00479662 -4.47463e-05)
(-2.29785e-05 0.00501723 -0.00012482)
(-4.5844e-05 0.00517771 -0.000184276)
(-9.7598e-05 0.00501918 -0.000399943)
(0.000119306 0.00558571 -9.04916e-05)
(0.000592063 0.0087972 0.000168871)
(0.000373805 0.0110679 0.00106587)
(0.00297449 0.190991 0.00755468)
(-0.00993121 0.729244 -0.0390227)
(-0.00553068 0.525958 0.015884)
(-0.00137719 0.553183 0.0072655)
(-0.00080829 0.539998 0.00725773)
(-0.00247035 0.536522 -0.00367996)
(0.00465461 0.534262 -0.00658102)
(0.00733792 0.543259 -0.00806397)
(0.00425262 0.552369 -0.000455466)
(-0.00210357 0.551786 0.0040221)
(0.00233312 0.548992 0.00379265)
(0.00668309 0.552724 0.00588449)
(0.0054096 0.554466 0.00183135)
(0.0038171 0.551009 -0.00158955)
(-0.000334719 0.5486 0.00172354)
(-0.000903207 0.547842 0.00186007)
(-0.00276181 0.545066 0.00269739)
(-0.00685845 0.541862 0.00296623)
(-0.00466553 0.540297 0.0029037)
(-0.00295513 0.539288 0.0032155)
(-0.00325504 0.537282 0.00233663)
(-0.0013723 0.534344 0.000811657)
(-0.00173126 0.529884 -0.00189126)
(-0.00242839 0.521901 -0.00619746)
(0.000923097 0.511298 -0.010973)
(0.00545431 0.473966 -0.0181172)
(0.00496746 0.319019 -0.0188424)
(0.0002902 0.0285037 4.85215e-05)
(0.000233745 0.00546026 -7.03638e-05)
(0.000135166 0.0055172 -0.000128542)
(7.02336e-05 0.0053289 -0.000312498)
(5.33169e-05 0.0272613 -0.000368183)
(-0.000544624 0.277624 -0.00162657)
(0.000111069 0.346187 -0.00351702)
(-4.44936e-05 0.0255389 -0.000475626)
(-0.000119165 0.00394549 -0.00044736)
(0.000163924 0.00428681 0.000281356)
(8.58017e-06 0.000519905 3.69908e-06)
(1.84513e-05 0.00053173 2.84698e-06)
(1.5341e-05 0.000548669 2.25636e-07)
(1.4927e-05 0.000569778 3.09628e-07)
(1.31627e-05 0.000584338 1.94368e-07)
(1.16426e-05 0.000594498 3.88509e-07)
(1.03487e-05 0.000598923 4.52061e-07)
(8.80092e-06 0.000620522 4.5135e-07)
(7.21899e-06 0.000648877 3.10471e-07)
(5.87473e-06 0.000670727 1.89203e-07)
(4.33383e-06 0.000686102 1.36033e-07)
(3.36036e-06 0.000693753 1.73764e-07)
(2.37101e-06 0.000695362 1.56844e-07)
(1.67596e-06 0.000694491 1.85999e-07)
(9.45746e-07 0.000693194 1.97992e-07)
(4.50094e-07 0.000692067 2.10112e-07)
(-6.51792e-09 0.000691129 2.04022e-07)
(-3.42727e-07 0.00069042 2.09233e-07)
(-6.20374e-07 0.000689855 1.98047e-07)
(-8.29506e-07 0.000689435 2.01181e-07)
(-9.75e-07 0.000689133 1.90464e-07)
(-1.07662e-06 0.000688933 1.88833e-07)
(-1.12502e-06 0.000688819 1.74642e-07)
(-1.13928e-06 0.000688784 1.71045e-07)
(-1.10791e-06 0.000688818 1.57475e-07)
(-1.04611e-06 0.000688914 1.5259e-07)
(-9.38464e-07 0.000689073 1.34938e-07)
(-7.9771e-07 0.000689298 1.25836e-07)
(-6.02e-07 0.000689592 1.03516e-07)
(-3.63121e-07 0.000689966 9.17344e-08)
(-5.59921e-08 0.000690428 6.41142e-08)
(3.08612e-07 0.00069099 4.58575e-08)
(7.62014e-07 0.000691668 6.90717e-09)
(1.29339e-06 0.000692493 -2.32547e-08)
(1.94096e-06 0.000693483 -7.69656e-08)
(2.69296e-06 0.00069466 -1.20084e-07)
(3.59393e-06 0.000696045 -1.84559e-07)
(4.63442e-06 0.00069766 -2.30996e-07)
(5.86214e-06 0.000699517 -2.92117e-07)
(7.26286e-06 0.000701626 -3.33512e-07)
(8.90456e-06 0.000704027 -3.90492e-07)
(1.07773e-05 0.000706837 -4.40924e-07)
(1.29434e-05 0.000710337 -5.234e-07)
(1.54012e-05 0.000715983 -6.24849e-07)
(1.80379e-05 0.000734163 -5.65105e-07)
(2.04894e-05 0.000793646 -5.28808e-07)
(2.20077e-05 0.000886042 -1.66001e-06)
(2.43933e-05 0.0011115 -1.82922e-06)
(1.67218e-05 0.00185628 -1.20584e-05)
(1.86372e-05 0.00303047 -1.27478e-05)
(1.24742e-05 0.00396134 1.19585e-05)
(2.77292e-06 0.0044054 -1.1609e-05)
(-3.73037e-06 0.00466468 -0.000110272)
(-9.94147e-05 0.0046221 -0.000183846)
(-0.000252733 0.00438899 -0.000219435)
(-0.000550207 0.00390689 -0.000410089)
(-0.000258938 0.00709825 0.000112219)
(0.00105518 0.0107918 0.000239014)
(0.00112674 0.0132823 4.93466e-05)
(-0.00309925 0.197484 0.00579549)
(-0.0239249 0.709148 -0.0309587)
(0.00102813 0.523642 0.0151954)
(0.00243463 0.548257 0.0037684)
(0.000808967 0.534056 0.00196799)
(0.00636501 0.529342 -0.0111028)
(0.013266 0.529831 -0.0191803)
(0.00258206 0.550091 -0.0118215)
(-0.00216984 0.554612 -0.00621919)
(0.00314714 0.557836 0.0057592)
(0.00344136 0.549588 0.00679473)
(-0.00087871 0.548035 0.00993403)
(0.00715769 0.551853 0.0116394)
(0.0103029 0.550683 0.0187099)
(0.00328889 0.550121 0.0148253)
(0.000466301 0.550975 0.00485258)
(-0.00269998 0.550657 0.00114485)
(-0.00692916 0.547414 -0.000446717)
(-0.00539741 0.543403 0.00219793)
(-0.00281292 0.53784 0.0022959)
(0.000288758 0.535344 -0.00195634)
(0.00223959 0.533054 -0.00338556)
(0.00510324 0.532494 -0.00409874)
(0.00613399 0.53372 -0.00392555)
(0.00454343 0.532803 -0.00117872)
(0.00139665 0.521463 0.00271064)
(-0.00163438 0.478519 0.00519495)
(-0.00326546 0.314561 0.00477877)
(0.000484471 0.0312552 -0.000213547)
(0.00039013 0.00804251 -0.000472976)
(0.000384616 0.00873233 -0.000502901)
(0.000326746 0.00969187 -0.000513838)
(0.000478364 0.0102741 -0.00060564)
(0.000562297 0.0107671 -0.000664883)
(0.000450696 0.011048 -0.000470175)
(9.39016e-05 0.0351334 5.17882e-05)
(-0.00161696 0.157744 -0.00869165)
(1.32959e-05 0.000335527 4.0888e-06)
(2.43245e-05 0.000552743 4.0118e-06)
(1.70333e-05 0.000550674 1.0811e-06)
(1.56967e-05 0.000580103 6.86225e-07)
(1.28489e-05 0.000599007 9.42302e-08)
(1.11845e-05 0.000610786 5.73936e-07)
(1.01901e-05 0.000615966 3.8907e-07)
(8.53615e-06 0.000632344 4.55955e-07)
(7.38827e-06 0.000648643 2.69891e-07)
(6.11267e-06 0.000663272 9.82264e-08)
(4.71166e-06 0.000679614 -5.11128e-09)
(3.90208e-06 0.000690078 -4.35102e-08)
(2.95557e-06 0.000693381 -4.18397e-08)