/*--------------------------------*- C++ -*----------------------------------*\
| =========                 |                                                 |
| \\      /  F ield         | OpenFOAM: The Open Source CFD Toolbox           |
|  \\    /   O peration     | Version:  2.3.0                                 |
|   \\  /    A nd           | Web:      www.OpenFOAM.org                      |
|    \\/     M anipulation  |                                                 |
\*---------------------------------------------------------------------------*/
FoamFile
{
    version     2.0;
    format      ascii;
    class       volScalarField;
    location    "40";
    object      alpha.airMean;
}
// * * * * * * * * * * * * * * * * * * * * * * * * * * * * * * * * * * * * * //

dimensions      [0 0 0 0 0 0 0];

internalField   nonuniform List<scalar> 
6144
(
0.999993
0.999992
0.999992
0.999992
0.999991
0.999991
0.999991
0.99999
0.99999
0.99999
0.99999
0.99999
0.99999
0.99999
0.99999
0.99999
0.99999
0.99999
0.99999
0.99999
0.99999
0.99999
0.99999
0.99999
0.99999
0.99999
0.99999
0.99999
0.99999
0.99999
0.99999
0.99999
0.99999
0.99999
0.99999
0.99999
0.99999
0.99999
0.99999
0.99999
0.99999
0.99999
0.99999
0.99999
0.99999
0.99999
0.99999
0.99999
0.99999
0.999989
0.999987
0.999981
0.999968
0.999946
0.999932
0.999888
0.999813
0.999451
0.998667
0.93688
0.0366042
0.000200971
1.00986e-06
8.70201e-07
8.7011e-07
8.61912e-07
8.69787e-07
8.6596e-07
8.66238e-07
8.62812e-07
8.64728e-07
8.60993e-07
8.57475e-07
8.52485e-07
8.48405e-07
8.43233e-07
8.38849e-07
8.34608e-07
8.30108e-07
8.25934e-07
8.21778e-07
8.17498e-07
8.13728e-07
8.10276e-07
8.06756e-07
8.03165e-07
7.98965e-07
7.91089e-07
7.68719e-07
7.12706e-07
6.50059e-07
6.07714e-07
5.61506e-07
5.1742e-07
4.76088e-07
4.21788e-07
0.999993
0.999993
0.999992
0.999992
0.999991
0.999991
0.999991
0.99999
0.99999
0.99999
0.99999
0.99999
0.99999
0.99999
0.99999
0.99999
0.99999
0.99999
0.99999
0.99999
0.99999
0.99999
0.99999
0.99999
0.99999
0.99999
0.99999
0.99999
0.99999
0.99999
0.99999
0.99999
0.99999
0.99999
0.99999
0.99999
0.99999
0.99999
0.99999
0.99999
0.99999
0.99999
0.99999
0.99999
0.99999
0.99999
0.99999
0.99999
0.99999
0.999989
0.999987
0.99998
0.999968
0.999949
0.999937
0.999901
0.999799
0.999317
0.998391
0.940792
0.0384059
8.28804e-05
8.77925e-07
8.95999e-07
8.86588e-07
8.80806e-07
8.88171e-07
8.85327e-07
8.85642e-07
8.82212e-07
8.78942e-07
8.69304e-07
8.62046e-07
8.55006e-07
8.49241e-07
8.43198e-07
8.37616e-07
8.32782e-07
8.2807e-07
8.23357e-07
8.17992e-07
8.13426e-07
8.09941e-07
8.0572e-07
8.01252e-07
7.96094e-07
7.90649e-07
7.79559e-07
7.55216e-07
7.0482e-07
6.49343e-07
6.09147e-07
5.63604e-07
5.20267e-07
4.81395e-07
4.29427e-07
0.999994
0.999993
0.999992
0.999992
0.999991
0.999991
0.999991
0.99999
0.99999
0.99999
0.99999
0.99999
0.99999
0.99999
0.99999
0.99999
0.99999
0.99999
0.99999
0.99999
0.99999
0.99999
0.99999
0.99999
0.99999
0.99999
0.99999
0.99999
0.99999
0.99999
0.99999
0.99999
0.99999
0.99999
0.99999
0.99999
0.99999
0.99999
0.99999
0.99999
0.99999
0.99999
0.99999
0.99999
0.99999
0.99999
0.99999
0.99999
0.99999
0.999989
0.999986
0.999979
0.99997
0.999955
0.999933
0.999884
0.99985
0.99948
0.999146
0.939057
0.0398104
4.38625e-05
3.29258e-06
2.94707e-06
3.00614e-06
2.92629e-06
2.80707e-06
2.62246e-06
2.42458e-06
2.1538e-06
1.85686e-06
1.57465e-06
1.32238e-06
1.12538e-06
9.97646e-07
9.17256e-07
8.7313e-07
8.50211e-07
8.35411e-07
8.24722e-07
8.14609e-07
8.07971e-07
8.02128e-07
7.96296e-07
7.90377e-07
7.85204e-07
7.81612e-07
7.68383e-07
7.41619e-07
6.97931e-07
6.54492e-07
6.18995e-07
5.7385e-07
5.27451e-07
4.89228e-07
4.33453e-07
0.999994
0.999993
0.999993
0.999993
0.999992
0.999991
0.999991
0.99999
0.99999
0.99999
0.99999
0.99999
0.99999
0.99999
0.99999
0.99999
0.99999
0.99999
0.99999
0.99999
0.99999
0.99999
0.99999
0.99999
0.99999
0.99999
0.99999
0.99999
0.99999
0.99999
0.99999
0.99999
0.99999
0.99999
0.99999
0.99999
0.99999
0.99999
0.99999
0.99999
0.99999
0.99999
0.99999
0.99999
0.99999
0.99999
0.99999
0.99999
0.99999
0.999989
0.999986
0.99998
0.999972
0.999952
0.999918
0.999869
0.999869
0.999591
0.999576
0.922828
0.0410576
0.000121962
9.3345e-05
8.64672e-05
8.50932e-05
8.15053e-05
7.59691e-05
6.80921e-05
6.12483e-05
5.42271e-05
4.51414e-05
3.6983e-05
2.93805e-05
2.16519e-05
1.52332e-05
1.0302e-05
6.43523e-06
3.90317e-06
2.3677e-06
1.53187e-06
1.10305e-06
9.1846e-07
8.45906e-07
8.16689e-07
7.97895e-07
7.81412e-07
7.72798e-07
7.5227e-07
7.20753e-07
6.85007e-07
6.55449e-07
6.22763e-07
5.77839e-07
5.30663e-07
4.95315e-07
4.33954e-07
0.999994
0.999994
0.999993
0.999993
0.999992
0.999992
0.999991
0.999991
0.99999
0.99999
0.99999
0.99999
0.99999
0.99999
0.99999
0.99999
0.99999
0.99999
0.99999
0.99999
0.99999
0.99999
0.99999
0.99999
0.99999
0.99999
0.99999
0.99999
0.99999
0.99999
0.99999
0.99999
0.99999
0.99999
0.99999
0.99999
0.99999
0.99999
0.99999
0.99999
0.99999
0.99999
0.99999
0.99999
0.99999
0.99999
0.99999
0.99999
0.99999
0.999989
0.999986
0.999981
0.99997
0.999945
0.999911
0.999858
0.999849
0.999689
0.999829
0.86883
0.0203262
0.000681289
0.000653039
0.000622082
0.000598455
0.000574245
0.000545085
0.000506556
0.000462503
0.000420111
0.00037905
0.000337493
0.000299623
0.000251782
0.000202183
0.000160842
0.00012027
8.52635e-05
5.55081e-05
3.48462e-05
2.03574e-05
1.09148e-05
5.40989e-06
2.60433e-06
1.46043e-06
1.02826e-06
8.56107e-07
7.68482e-07
7.09263e-07
6.73268e-07
6.40205e-07
6.11221e-07
5.7224e-07
5.30146e-07
4.96665e-07
4.3371e-07
0.999994
0.999994
0.999993
0.999993
0.999993
0.999992
0.999991
0.999991
0.99999
0.99999
0.99999
0.99999
0.99999
0.99999
0.99999
0.99999
0.99999
0.99999
0.99999
0.99999
0.99999
0.99999
0.99999
0.99999
0.99999
0.99999
0.99999
0.99999
0.99999
0.99999
0.99999
0.99999
0.99999
0.99999
0.99999
0.99999
0.99999
0.99999
0.99999
0.99999
0.99999
0.99999
0.99999
0.99999
0.99999
0.99999
0.99999
0.99999
0.99999
0.999989
0.999986
0.99998
0.999965
0.999942
0.999904
0.999853
0.999852
0.999773
0.999944
0.77609
0.0144105
0.00255705
0.00242476
0.00217551
0.00205572
0.00198832
0.00193556
0.00191293
0.00185905
0.00176625
0.00166702
0.00157461
0.00148424
0.00135794
0.0012307
0.00109081
0.000936443
0.000779299
0.000612743
0.000460681
0.000337812
0.000230107
0.000146176
8.52964e-05
4.39667e-05
1.96113e-05
7.39022e-06
3.27899e-06
1.96147e-06
1.28579e-06
7.64299e-07
4.92601e-07
4.4005e-07
4.28659e-07
4.18187e-07
3.97368e-07
0.999994
0.999994
0.999994
0.999993
0.999993
0.999992
0.999992
0.999991
0.999991
0.99999
0.99999
0.99999
0.99999
0.99999
0.99999
0.99999
0.99999
0.99999
0.99999
0.99999
0.99999
0.99999
0.99999
0.99999
0.99999
0.99999
0.99999
0.99999
0.99999
0.99999
0.99999
0.99999
0.99999
0.99999
0.99999
0.99999
0.99999
0.99999
0.99999
0.99999
0.99999
0.99999
0.99999
0.99999
0.99999
0.99999
0.99999
0.99999
0.99999
0.999989
0.999986
0.99998
0.999966
0.999943
0.99991
0.999857
0.999833
0.9998
0.999988
0.650664
0.0144177
0.00858252
0.00890948
0.00834356
0.00790792
0.00786744
0.00770667
0.00777222
0.00766919
0.00759203
0.0074955
0.00724255
0.00709743
0.00701968
0.00693734
0.00653549
0.00604481
0.00569237
0.00513666
0.00452406
0.00404447
0.00342043
0.0027935
0.00225549
0.00175754
0.00133533
0.000938062
0.000598373
0.000373709
0.000217277
0.000114871
5.47226e-05
2.69201e-05
2.27542e-05
2.0482e-05
1.45419e-05
0.999994
0.999994
0.999994
0.999994
0.999993
0.999993
0.999992
0.999991
0.999991
0.99999
0.99999
0.99999
0.99999
0.99999
0.99999
0.99999
0.99999
0.99999
0.99999
0.99999
0.99999
0.99999
0.99999
0.99999
0.99999
0.99999
0.99999
0.99999
0.99999
0.99999
0.99999
0.99999
0.99999
0.99999
0.99999
0.99999
0.99999
0.99999
0.99999
0.99999
0.99999
0.99999
0.99999
0.99999
0.99999
0.99999
0.99999
0.99999
0.99999
0.999989
0.999986
0.999981
0.999969
0.999946
0.999917
0.999863
0.999833
0.999804
0.999983
0.59113
0.0224612
0.0171846
0.0177022
0.0176866
0.0175386
0.0176005
0.0175126
0.0173675
0.017444
0.0174773
0.017417
0.0173861
0.0173431
0.0173643
0.0174106
0.0174395
0.0174087
0.0172857
0.0171933
0.0171424
0.0170936
0.0170598
0.0170247
0.0169977
0.0169654
0.016917
0.0167374
0.0164514
0.016161
0.0157401
0.0153444
0.0147792
0.0138305
0.0127237
0.0108012
0.0083382
0.999995
0.999994
0.999994
0.999994
0.999994
0.999993
0.999992
0.999991
0.999991
0.99999
0.99999
0.99999
0.99999
0.99999
0.99999
0.99999
0.99999
0.99999
0.99999
0.99999
0.99999
0.99999
0.99999
0.99999
0.99999
0.99999
0.99999
0.99999
0.99999
0.99999
0.99999
0.99999
0.99999
0.99999
0.99999
0.99999
0.99999
0.99999
0.99999
0.99999
0.99999
0.99999
0.99999
0.99999
0.99999
0.99999
0.99999
0.99999
0.99999
0.999989
0.999986
0.99998
0.999969
0.999946
0.999924
0.999879
0.999856
0.999795
0.999962
0.684281
0.0179235
0.00954077
0.00950103
0.00893109
0.00848938
0.00837532
0.00808139
0.00773754
0.0075798
0.00742318
0.00732957
0.00705283
0.00681052
0.006617
0.00648481
0.00644615
0.00641556
0.00654866
0.00690333
0.00726486
0.00732773
0.00739364
0.00749418
0.00746319
0.0073937
0.00725294
0.00702112
0.00664712
0.0061798
0.00572565
0.00515966
0.00457927
0.00386346
0.00294393
0.00183734
0.000904722
0.999995
0.999994
0.999994
0.999994
0.999994
0.999993
0.999992
0.999991
0.999991
0.99999
0.99999
0.99999
0.99999
0.99999
0.99999
0.99999
0.99999
0.99999
0.99999
0.99999
0.99999
0.99999
0.99999
0.99999
0.99999
0.99999
0.99999
0.99999
0.99999
0.99999
0.99999
0.99999
0.99999
0.99999
0.99999
0.99999
0.99999
0.99999
0.99999
0.99999
0.99999
0.99999
0.99999
0.99999
0.99999
0.99999
0.99999
0.99999
0.99999
0.999989
0.999986
0.99998
0.999968
0.999945
0.999925
0.999886
0.999872
0.999755
0.999899
0.787176
0.0139738
0.00316946
0.00309965
0.00278264
0.00261455
0.0025172
0.00238378
0.00227584
0.0021862
0.00211735
0.00204219
0.00196044
0.00189162
0.0018007
0.00169708
0.00162518
0.00157496
0.00154613
0.00155081
0.00159935
0.00163247
0.00165071
0.0017275
0.00180309
0.00182496
0.00187332
0.00188262
0.00181275
0.00164377
0.00138135
0.00110102
0.000829
0.000550518
0.000308059
0.000133043
5.6109e-05
0.999995
0.999995
0.999994
0.999994
0.999994
0.999993
0.999992
0.999991
0.999991
0.99999
0.99999
0.99999
0.99999
0.99999
0.99999
0.99999
0.99999
0.99999
0.99999
0.99999
0.99999
0.99999
0.99999
0.99999
0.99999
0.99999
0.99999
0.99999
0.99999
0.99999
0.99999
0.99999
0.99999
0.99999
0.99999
0.99999
0.99999
0.99999
0.99999
0.99999
0.99999
0.99999
0.99999
0.99999
0.99999
0.99999
0.99999
0.99999
0.99999
0.999989
0.999986
0.99998
0.999969
0.999947
0.999924
0.999891
0.99988
0.999665
0.999796
0.879522
0.0223098
0.000977332
0.000985552
0.000976362
0.000998436
0.000961813
0.000918175
0.000892915
0.000852308
0.000794611
0.000721748
0.000639337
0.000566035
0.00048424
0.0004043
0.000335074
0.000270355
0.000214942
0.000170905
0.000142721
0.000130993
0.000131376
0.000143914
0.00016562
0.00018649
0.000200083
0.000208278
0.000208588
0.000186872
0.000146779
9.94966e-05
5.7187e-05
2.83738e-05
1.31659e-05
5.24728e-06
2.39333e-06
0.999996
0.999995
0.999994
0.999994
0.999994
0.999993
0.999992
0.999991
0.999991
0.99999
0.99999
0.99999
0.99999
0.99999
0.99999
0.99999
0.99999
0.99999
0.99999
0.99999
0.99999
0.99999
0.99999
0.99999
0.99999
0.99999
0.99999
0.99999
0.99999
0.99999
0.99999
0.99999
0.99999
0.99999
0.99999
0.99999
0.99999
0.99999
0.99999
0.99999
0.99999
0.99999
0.99999
0.99999
0.99999
0.99999
0.99999
0.99999
0.99999
0.999989
0.999986
0.99998
0.999971
0.999952
0.99992
0.999888
0.99988
0.999573
0.999689
0.931021
0.0382535
0.000240194
0.000231392
0.000226881
0.000239275
0.000242175
0.000233055
0.000217923
0.000198295
0.000166465
0.000132206
0.000104084
7.98874e-05
5.54362e-05
3.69698e-05
2.34697e-05
1.3756e-05
7.55443e-06
4.13464e-06
2.65233e-06
2.34319e-06
2.6987e-06
3.41453e-06
4.15804e-06
4.74087e-06
5.11895e-06
5.34659e-06
5.3408e-06
4.87144e-06
4.13397e-06
3.27923e-06
2.15861e-06
1.38458e-06
9.41442e-07
5.71911e-07
4.66189e-07
0.999997
0.999996
0.999995
0.999995
0.999994
0.999993
0.999992
0.999991
0.999991
0.99999
0.99999
0.99999
0.99999
0.99999
0.99999
0.99999
0.99999
0.99999
0.99999
0.99999
0.99999
0.99999
0.99999
0.99999
0.99999
0.99999
0.99999
0.99999
0.99999
0.99999
0.99999
0.99999
0.99999
0.99999
0.99999
0.99999
0.99999
0.99999
0.99999
0.99999
0.99999
0.99999
0.99999
0.99999
0.99999
0.99999
0.99999
0.99999
0.99999
0.999989
0.999986
0.999979
0.999971
0.999958
0.999932
0.999894
0.999858
0.999471
0.999518
0.95317
0.0441761
5.17326e-05
1.97488e-05
1.81177e-05
1.95737e-05
1.95346e-05
1.88204e-05
1.64768e-05
1.36343e-05
1.01156e-05
7.21158e-06
4.85282e-06
3.12556e-06
1.92247e-06
1.2588e-06
9.13003e-07
7.50471e-07
6.83897e-07
6.51926e-07
6.2797e-07
6.08096e-07
5.90892e-07
5.78134e-07
5.68916e-07
5.61577e-07
5.55404e-07
5.50926e-07
5.44975e-07
5.45804e-07
5.40441e-07
5.2532e-07
5.03207e-07
4.67791e-07
4.27019e-07
4.02211e-07
3.83431e-07
0.999997
0.999996
0.999996
0.999996
0.999995
0.999994
0.999992
0.999991
0.999991
0.99999
0.99999
0.99999
0.99999
0.99999
0.99999
0.99999
0.99999
0.99999
0.99999
0.99999
0.99999
0.99999
0.99999
0.99999
0.99999
0.99999
0.99999
0.99999
0.99999
0.99999
0.99999
0.99999
0.99999
0.99999
0.99999
0.99999
0.99999
0.99999
0.99999
0.99999
0.99999
0.99999
0.99999
0.99999
0.99999
0.99999
0.99999
0.99999
0.99999
0.999989
0.999986
0.999979
0.99997
0.999957
0.999943
0.999913
0.999812
0.999366
0.99936
0.953592
0.0414315
3.06672e-05
8.83034e-07
8.63651e-07
9.05041e-07
9.0409e-07
8.95222e-07
8.46068e-07
8.09004e-07
7.56966e-07
7.27847e-07
7.03527e-07
6.88056e-07
6.68753e-07
6.53373e-07
6.4034e-07
6.30829e-07
6.21595e-07
6.11564e-07
6.02023e-07
5.91799e-07
5.80668e-07
5.72013e-07
5.646e-07
5.5708e-07
5.49464e-07
5.39682e-07
5.20793e-07
4.93885e-07
4.84638e-07
4.72744e-07
4.539e-07
4.29965e-07
4.1044e-07
3.89306e-07
3.60754e-07
0.999997
0.999997
0.999997
0.999996
0.999996
0.999995
0.999994
0.999991
0.999991
0.99999
0.99999
0.99999
0.99999
0.99999
0.99999
0.99999
0.99999
0.99999
0.99999
0.99999
0.99999
0.99999
0.99999
0.99999
0.99999
0.99999
0.99999
0.99999
0.99999
0.99999
0.99999
0.99999
0.99999
0.99999
0.99999
0.99999
0.99999
0.99999
0.99999
0.99999
0.99999
0.99999
0.99999
0.99999
0.99999
0.99999
0.99999
0.99999
0.99999
0.999989
0.999987
0.999979
0.999968
0.999953
0.999944
0.999919
0.999725
0.999245
0.998798
0.953652
0.0426804
0.000103096
6.42524e-07
6.32884e-07
6.30906e-07
6.20247e-07
6.27222e-07
6.25636e-07
6.25412e-07
6.22666e-07
6.20105e-07
6.14512e-07
6.10237e-07
6.04073e-07
5.9974e-07
5.94803e-07
5.89948e-07
5.8578e-07
5.80958e-07
5.75212e-07
5.69261e-07
5.62141e-07
5.55309e-07
5.50882e-07
5.46903e-07
5.42448e-07
5.34663e-07
5.18195e-07
4.93821e-07
4.74142e-07
4.59076e-07
4.40618e-07
4.17091e-07
4.00056e-07
3.83962e-07
3.50727e-07
0.999998
0.999997
0.999997
0.999997
0.999996
0.999995
0.999995
0.999992
0.999991
0.99999
0.99999
0.99999
0.99999
0.99999
0.99999
0.99999
0.99999
0.99999
0.99999
0.99999
0.99999
0.99999
0.99999
0.99999
0.99999
0.99999
0.99999
0.99999
0.99999
0.99999
0.99999
0.99999
0.99999
0.99999
0.99999
0.99999
0.99999
0.99999
0.99999
0.99999
0.99999
0.99999
0.99999
0.99999
0.99999
0.99999
0.99999
0.99999
0.99999
0.999989
0.999987
0.99998
0.999968
0.999953
0.999941
0.999873
0.999809
0.99934
0.999104
0.951879
0.0469447
0.000293101
1.01212e-06
5.74209e-07
5.73677e-07
5.66055e-07
5.6783e-07
5.65106e-07
5.69289e-07
5.72913e-07
5.76639e-07
5.75594e-07
5.74632e-07
5.72077e-07
5.70713e-07
5.6842e-07
5.66551e-07
5.65067e-07
5.63142e-07
5.60424e-07
5.5696e-07
5.52323e-07
5.47167e-07
5.43523e-07
5.41213e-07
5.38847e-07
5.32828e-07
5.17303e-07
4.9566e-07
4.73648e-07
4.46477e-07
4.27751e-07
4.05459e-07
3.86585e-07
3.67786e-07
3.31421e-07
0.999993
0.999992
0.999992
0.999992
0.999991
0.999991
0.999991
0.99999
0.99999
0.99999
0.99999
0.99999
0.99999
0.99999
0.99999
0.99999
0.99999
0.99999
0.99999
0.99999
0.99999
0.99999
0.99999
0.99999
0.99999
0.99999
0.99999
0.99999
0.99999
0.99999
0.99999
0.99999
0.99999
0.99999
0.99999
0.99999
0.99999
0.99999
0.99999
0.99999
0.99999
0.99999
0.99999
0.99999
0.99999
0.99999
0.99999
0.99999
0.99999
0.999989
0.999987
0.999981
0.999969
0.999947
0.999933
0.999893
0.999817
0.999251
0.997054
0.932325
0.0521184
0.000367396
1.27813e-06
8.67596e-07
8.66752e-07
8.56082e-07
8.57706e-07
8.55277e-07
8.6295e-07
8.58571e-07
8.61462e-07
8.58522e-07
8.55933e-07
8.5089e-07
8.46235e-07
8.40774e-07
8.35564e-07
8.30488e-07
8.25931e-07
8.21513e-07
8.16847e-07
8.12328e-07
8.07489e-07
8.02201e-07
7.96053e-07
7.89618e-07
7.83682e-07
7.77206e-07
7.67371e-07
7.44802e-07
6.93242e-07
6.23035e-07
5.75018e-07
5.54044e-07
5.32565e-07
4.54007e-07
0.999994
0.999993
0.999992
0.999992
0.999991
0.999991
0.999991
0.99999
0.99999
0.99999
0.99999
0.99999
0.99999
0.99999
0.99999
0.99999
0.99999
0.99999
0.99999
0.99999
0.99999
0.99999
0.99999
0.99999
0.99999
0.99999
0.99999
0.99999
0.99999
0.99999
0.99999
0.99999
0.99999
0.99999
0.99999
0.99999
0.99999
0.99999
0.99999
0.99999
0.99999
0.99999
0.99999
0.99999
0.99999
0.99999
0.99999
0.99999
0.99999
0.999989
0.999987
0.999981
0.999969
0.999949
0.999937
0.999903
0.999781
0.999302
0.998107
0.932425
0.0427498
8.05725e-05
8.99457e-07
9.03693e-07
8.96715e-07
8.81904e-07
8.85044e-07
8.84084e-07
8.88352e-07
8.8523e-07
8.87627e-07
8.82385e-07
8.78287e-07
8.70614e-07
8.62614e-07
8.53761e-07
8.46807e-07
8.3867e-07
8.29135e-07
8.18599e-07
8.07388e-07
7.99828e-07
7.94508e-07
7.90704e-07
7.85992e-07
7.80116e-07
7.75493e-07
7.71369e-07
7.64903e-07
7.50145e-07
7.12789e-07
6.49189e-07
5.90857e-07
5.59718e-07
5.44577e-07
4.67929e-07
0.999994
0.999993
0.999992
0.999992
0.999992
0.999992
0.999991
0.999991
0.999991
0.99999
0.99999
0.99999
0.99999
0.99999
0.99999
0.99999
0.99999
0.99999
0.99999
0.99999
0.99999
0.99999
0.99999
0.99999
0.99999
0.99999
0.99999
0.99999
0.99999
0.99999
0.99999
0.99999
0.99999
0.99999
0.99999
0.99999
0.99999
0.99999
0.99999
0.99999
0.99999
0.99999
0.99999
0.99999
0.99999
0.99999
0.99999
0.99999
0.99999
0.999989
0.999987
0.99998
0.99997
0.999952
0.999937
0.99989
0.999827
0.999478
0.999136
0.929969
0.0330344
6.0296e-06
3.04898e-06
2.6968e-06
2.83441e-06
2.90161e-06
2.96341e-06
2.96404e-06
2.95028e-06
2.88137e-06
2.78502e-06
2.64057e-06
2.46193e-06
2.19182e-06
1.84906e-06
1.5008e-06
1.22638e-06
1.03564e-06
9.22373e-07
8.62956e-07
8.3263e-07
8.16822e-07
8.04078e-07
7.96995e-07
7.89187e-07
7.82711e-07
7.78541e-07
7.72646e-07
7.6602e-07
7.53681e-07
7.22465e-07
6.68508e-07
6.10263e-07
5.74346e-07
5.56372e-07
4.76312e-07
0.999994
0.999994
0.999993
0.999992
0.999992
0.999992
0.999992
0.999991
0.999991
0.99999
0.99999
0.99999
0.99999
0.99999
0.99999
0.99999
0.99999
0.99999
0.99999
0.99999
0.99999
0.99999
0.99999
0.99999
0.99999
0.99999
0.99999
0.99999
0.99999
0.99999
0.99999
0.99999
0.99999
0.99999
0.99999
0.99999
0.99999
0.99999
0.99999
0.99999
0.99999
0.99999
0.99999
0.99999
0.99999
0.99999
0.99999
0.99999
0.99999
0.999989
0.999986
0.99998
0.999971
0.99995
0.999921
0.999862
0.999835
0.999568
0.999631
0.921606
0.0299901
8.78102e-05
9.33123e-05
8.52037e-05
9.05713e-05
9.51729e-05
9.99911e-05
0.000102216
0.000103548
0.000103677
0.000102631
0.000100709
9.68884e-05
8.84108e-05
7.23513e-05
5.39888e-05
3.8305e-05
2.51937e-05
1.50937e-05
8.39549e-06
4.36791e-06
2.29682e-06
1.33307e-06
9.50786e-07
8.4122e-07
7.97296e-07
7.87952e-07
7.7501e-07
7.62229e-07
7.46546e-07
7.1813e-07
6.71799e-07
6.22355e-07
5.89613e-07
5.65598e-07
4.77862e-07
0.999994
0.999994
0.999993
0.999993
0.999992
0.999992
0.999992
0.999991
0.999991
0.99999
0.99999
0.99999
0.99999
0.99999
0.99999
0.99999
0.99999
0.99999
0.99999
0.99999
0.99999
0.99999
0.99999
0.99999
0.99999
0.99999
0.99999
0.99999
0.99999
0.99999
0.99999
0.99999
0.99999
0.99999
0.99999
0.99999
0.99999
0.99999
0.99999
0.99999
0.99999
0.99999
0.99999
0.99999
0.99999
0.99999
0.99999
0.99999
0.99999
0.999989
0.999985
0.999978
0.999964
0.999937
0.999888
0.999829
0.999789
0.999727
0.999854
0.869269
0.0151811
0.00111594
0.00112934
0.001046
0.00106211
0.00109015
0.00111505
0.00115807
0.00122168
0.00122595
0.00118586
0.00115555
0.00112017
0.001066
0.000982228
0.000859579
0.00070831
0.000550816
0.000408717
0.000276733
0.000172267
0.000100811
5.30126e-05
2.32996e-05
8.81696e-06
3.13565e-06
1.30648e-06
8.6564e-07
7.74604e-07
7.3245e-07
6.99814e-07
6.59718e-07
6.29036e-07
6.02784e-07
5.71655e-07
4.76439e-07
0.999995
0.999995
0.999994
0.999993
0.999993
0.999992
0.999992
0.999992
0.999991
0.99999
0.99999
0.99999
0.99999
0.99999
0.99999
0.99999
0.99999
0.99999
0.99999
0.99999
0.99999
0.99999
0.99999
0.99999
0.99999
0.99999
0.99999
0.99999
0.99999
0.99999
0.99999
0.99999
0.99999
0.99999
0.99999
0.99999
0.99999
0.99999
0.99999
0.99999
0.99999
0.99999
0.99999
0.99999
0.99999
0.99999
0.99999
0.99999
0.99999
0.999988
0.999985
0.999977
0.999956
0.999928
0.999864
0.999826
0.999829
0.999846
0.999953
0.76136
0.0178712
0.00784009
0.00788704
0.00720305
0.0071047
0.00692522
0.00680185
0.00685223
0.00687283
0.00694189
0.00699325
0.00702053
0.00691493
0.00671271
0.00648746
0.00620761
0.00589537
0.00524424
0.00452944
0.00381901
0.00303793
0.00232681
0.00168031
0.00110694
0.000669779
0.000363336
0.000177767
8.38347e-05
3.97347e-05
1.86455e-05
7.27511e-06
2.56641e-06
9.64247e-07
6.5966e-07
5.62791e-07
4.41062e-07
0.999995
0.999995
0.999994
0.999994
0.999993
0.999992
0.999992
0.999992
0.999991
0.99999
0.99999
0.99999
0.99999
0.99999
0.99999
0.99999
0.99999
0.99999
0.99999
0.99999
0.99999
0.99999
0.99999
0.99999
0.99999
0.99999
0.99999
0.99999
0.99999
0.99999
0.99999
0.99999
0.99999
0.99999
0.99999
0.99999
0.99999
0.99999
0.99999
0.99999
0.99999
0.99999
0.99999
0.99999
0.99999
0.99999
0.99999
0.99999
0.99999
0.999989
0.999986
0.999979
0.999961
0.999936
0.999886
0.99982
0.99979
0.999831
0.999967
0.618737
0.0332013
0.0253701
0.0264242
0.0261191
0.0260186
0.026104
0.0262618
0.0266551
0.0269593
0.0272924
0.0278398
0.028327
0.0286408
0.0289348
0.0290235
0.029112
0.0290189
0.0286112
0.0279958
0.0271152
0.025819
0.0241014
0.0221251
0.0197148
0.0168262
0.0140586
0.011428
0.0089343
0.00684621
0.00512935
0.00351725
0.00237888
0.00165046
0.00135101
0.00157757
0.00194108
0.999995
0.999995
0.999995
0.999994
0.999994
0.999993
0.999992
0.999992
0.999991
0.99999
0.99999
0.99999
0.99999
0.99999
0.99999
0.99999
0.99999
0.99999
0.99999
0.99999
0.99999
0.99999
0.99999
0.99999
0.99999
0.99999
0.99999
0.99999
0.99999
0.99999
0.99999
0.99999
0.99999
0.99999
0.99999
0.99999
0.99999
0.99999
0.99999
0.99999
0.99999
0.99999
0.99999
0.99999
0.99999
0.99999
0.99999
0.99999
0.99999
0.999989
0.999986
0.999979
0.999964
0.999942
0.999899
0.99983
0.999792
0.999815
0.999887
0.586573
0.0413365
0.0335611
0.0347603
0.0351358
0.0358096
0.0366513
0.037388
0.0383139
0.039191
0.0401083
0.041189
0.0424312
0.0438434
0.0454392
0.047293
0.0493905
0.0517087
0.0542671
0.0570096
0.0599889
0.063216
0.0665496
0.0699133
0.0735054
0.0772621
0.0811532
0.0853042
0.0896403
0.0943995
0.100125
0.107137
0.116346
0.129589
0.151569
0.200188
0.394261
0.999995
0.999995
0.999995
0.999995
0.999994
0.999994
0.999992
0.999992
0.999991
0.99999
0.99999
0.99999
0.99999
0.99999
0.99999
0.99999
0.99999
0.99999
0.99999
0.99999
0.99999
0.99999
0.99999
0.99999
0.99999
0.99999
0.99999
0.99999
0.99999
0.99999
0.99999
0.99999
0.99999
0.99999
0.99999
0.99999
0.99999
0.99999
0.99999
0.99999
0.99999
0.99999
0.99999
0.99999
0.99999
0.99999
0.99999
0.99999
0.99999
0.999989
0.999986
0.999978
0.999964
0.99994
0.99991
0.999863
0.99982
0.999788
0.999955
0.726736
0.023346
0.00996105
0.00929147
0.00847125
0.00809469
0.00784602
0.0077189
0.00762573
0.00754361
0.00743493
0.00736943
0.00733906
0.00732677
0.00741129
0.00768342
0.00813943
0.00889049
0.00980078
0.0107591
0.0119053
0.01332
0.0148791
0.0165277
0.0182046
0.0199076
0.0215557
0.0230513
0.0245591
0.0260671
0.0274616
0.0286986
0.0297944
0.0304551
0.0304872
0.0291841
0.0258668
0.999995
0.999996
0.999995
0.999995
0.999995
0.999994
0.999993
0.999992
0.999991
0.999991
0.99999
0.99999
0.99999
0.99999
0.99999
0.99999
0.99999
0.99999
0.99999
0.99999
0.99999
0.99999
0.99999
0.99999
0.99999
0.99999
0.99999
0.99999
0.99999
0.99999
0.99999
0.99999
0.99999
0.99999
0.99999
0.99999
0.99999
0.99999
0.99999
0.99999
0.99999
0.99999
0.99999
0.99999
0.99999
0.99999
0.99999
0.99999
0.99999
0.999989
0.999986
0.999977
0.999964
0.999946
0.999916
0.999871
0.999836
0.999772
0.999931
0.833554
0.0123469
0.00196557
0.0019026
0.00170735
0.00169317
0.00165227
0.00161987
0.00158611
0.00159034
0.00158421
0.00156222
0.0015366
0.00148152
0.00145253
0.00143751
0.00142757
0.00143891
0.00145859
0.00150858
0.0016456
0.00188648
0.00222818
0.00270741
0.00330119
0.00406571
0.00499463
0.00598026
0.00687564
0.00757569
0.00800881
0.0081367
0.00747941
0.00623383
0.00437832
0.002378
0.0010125
0.999996
0.999996
0.999995
0.999995
0.999995
0.999994
0.999993
0.999992
0.999991
0.999991
0.99999
0.99999
0.99999
0.99999
0.99999
0.99999
0.99999
0.99999
0.99999
0.99999
0.99999
0.99999
0.99999
0.99999
0.99999
0.99999
0.99999
0.99999
0.99999
0.99999
0.99999
0.99999
0.99999
0.99999
0.99999
0.99999
0.99999
0.99999
0.99999
0.99999
0.99999
0.99999
0.99999
0.99999
0.99999
0.99999
0.99999
0.99999
0.99999
0.999989
0.999986
0.999979
0.999968
0.999953
0.999928
0.999886
0.999827
0.999658
0.999835
0.907826
0.0313545
0.000321069
0.00031866
0.000286843
0.000300019
0.000295979
0.000300648
0.000302452
0.00029199
0.000272429
0.000245037
0.000216182
0.000186581
0.000158282
0.000135943
0.000117772
0.000105828
0.000101482
0.000107488
0.000123766
0.00015051
0.000190474
0.000246683
0.000318398
0.000406823
0.000522028
0.00065397
0.00076783
0.000855076
0.000877911
0.00080741
0.000626936
0.000376024
0.000168225
5.18195e-05
1.73336e-05
0.999996
0.999996
0.999996
0.999995
0.999995
0.999994
0.999993
0.999992
0.999991
0.999991
0.99999
0.99999
0.99999
0.99999
0.99999
0.99999
0.99999
0.99999
0.99999
0.99999
0.99999
0.99999
0.99999
0.99999
0.99999
0.99999
0.99999
0.99999
0.99999
0.99999
0.99999
0.99999
0.99999
0.99999
0.99999
0.99999
0.99999
0.99999
0.99999
0.99999
0.99999
0.99999
0.99999
0.99999
0.99999
0.99999
0.99999
0.99999
0.99999
0.999989
0.999987
0.99998
0.999969
0.999953
0.999933
0.999893
0.999852
0.999539
0.999635
0.937368
0.036073
4.37457e-05
4.11601e-05
3.38487e-05
3.50155e-05
3.40888e-05
3.22595e-05
2.99153e-05
2.61581e-05
2.0805e-05
1.64854e-05
1.26786e-05
9.50916e-06
7.09513e-06
5.51947e-06
4.58126e-06
4.2019e-06
4.28113e-06
4.71882e-06
5.4917e-06
6.63768e-06
8.19547e-06
1.0119e-05
1.25434e-05
1.54465e-05
1.83747e-05
2.09136e-05
2.25235e-05
2.30227e-05
2.06921e-05
1.52829e-05
1.06902e-05
5.04048e-06
1.95764e-06
8.05913e-07
5.41153e-07
0.999997
0.999996
0.999996
0.999996
0.999995
0.999994
0.999993
0.999991
0.999991
0.999991
0.99999
0.99999
0.99999
0.99999
0.99999
0.99999
0.99999
0.99999
0.99999
0.99999
0.99999
0.99999
0.99999
0.99999
0.99999
0.99999
0.99999
0.99999
0.99999
0.99999
0.99999
0.99999
0.99999
0.99999
0.99999
0.99999
0.99999
0.99999
0.99999
0.99999
0.99999
0.99999
0.99999
0.99999
0.99999
0.99999
0.99999
0.99999
0.99999
0.999989
0.999987
0.99998
0.999969
0.999954
0.999943
0.999905
0.999835
0.999452
0.999207
0.952379
0.048882
9.65921e-06
4.16279e-06
3.25732e-06
3.30423e-06
2.96668e-06
2.42047e-06
1.83516e-06
1.48579e-06
1.24804e-06
1.08976e-06
9.63502e-07
8.81078e-07
8.28412e-07
7.96561e-07
7.70688e-07
7.47627e-07
7.26757e-07
7.09324e-07
6.96944e-07
6.86726e-07
6.77135e-07
6.73676e-07
6.76775e-07
6.79751e-07
6.75303e-07
6.62523e-07
6.46667e-07
6.18569e-07
5.74289e-07
5.22911e-07
4.76844e-07
4.27995e-07
3.92865e-07
3.743e-07
3.53157e-07
0.999997
0.999996
0.999996
0.999996
0.999996
0.999995
0.999993
0.999992
0.999991
0.999991
0.99999
0.99999
0.99999
0.99999
0.99999
0.99999
0.99999
0.99999
0.99999
0.99999
0.99999
0.99999
0.99999
0.99999
0.99999
0.99999
0.99999
0.99999
0.99999
0.99999
0.99999
0.99999
0.99999
0.99999
0.99999
0.99999
0.99999
0.99999
0.99999
0.99999
0.99999
0.99999
0.99999
0.99999
0.99999
0.99999
0.99999
0.99999
0.99999
0.999989
0.999987
0.99998
0.999969
0.999953
0.999944
0.99992
0.999794
0.999365
0.998885
0.951778
0.0508202
8.17148e-06
8.82692e-07
8.069e-07
8.1173e-07
7.99688e-07
8.08831e-07
8.03736e-07
8.02787e-07
7.93383e-07
7.90252e-07
7.79099e-07
7.67308e-07
7.48259e-07
7.3148e-07
7.14569e-07
6.98489e-07
6.83573e-07
6.70193e-07
6.57799e-07
6.427e-07
6.26478e-07
6.10367e-07
5.95763e-07
5.81858e-07
5.67812e-07
5.52315e-07
5.33059e-07
5.11055e-07
4.9202e-07
4.66512e-07
4.38403e-07
4.05918e-07
3.82361e-07
3.65336e-07
3.39255e-07
0.999997
0.999997
0.999997
0.999996
0.999996
0.999995
0.999994
0.999992
0.999991
0.99999
0.99999
0.99999
0.99999
0.99999
0.99999
0.99999
0.99999
0.99999
0.99999
0.99999
0.99999
0.99999
0.99999
0.99999
0.99999
0.99999
0.99999
0.99999
0.99999
0.99999
0.99999
0.99999
0.99999
0.99999
0.99999
0.99999
0.99999
0.99999
0.99999
0.99999
0.99999
0.99999
0.99999
0.99999
0.99999
0.99999
0.99999
0.99999
0.99999
0.999989
0.999987
0.99998
0.999968
0.999953
0.999943
0.999917
0.999734
0.999221
0.998006
0.946218
0.0619961
0.000142183
7.16815e-07
6.43004e-07
6.26415e-07
6.15128e-07
6.21236e-07
6.28572e-07
6.44394e-07
6.51666e-07
6.59446e-07
6.59323e-07
6.60184e-07
6.56609e-07
6.52591e-07
6.46613e-07
6.39576e-07
6.32208e-07
6.24736e-07
6.1619e-07
6.05977e-07
5.95404e-07
5.86766e-07
5.79056e-07
5.70235e-07
5.59317e-07
5.46315e-07
5.29717e-07
5.08566e-07
4.81132e-07
4.55833e-07
4.33534e-07
4.09726e-07
3.94399e-07
3.77417e-07
3.41761e-07
0.999998
0.999997
0.999997
0.999997
0.999997
0.999996
0.999995
0.999992
0.999991
0.99999
0.99999
0.99999
0.99999
0.99999
0.99999
0.99999
0.99999
0.99999
0.99999
0.99999
0.99999
0.99999
0.99999
0.99999
0.99999
0.99999
0.99999
0.99999
0.99999
0.99999
0.99999
0.99999
0.99999
0.99999
0.99999
0.99999
0.99999
0.99999
0.99999
0.99999
0.99999
0.99999
0.99999
0.99999
0.99999
0.99999
0.99999
0.99999
0.99999
0.999989
0.999987
0.99998
0.999968
0.999953
0.999945
0.999899
0.999792
0.999161
0.997471
0.943923
0.0657095
0.000567882
1.62088e-06
5.74187e-07
5.73851e-07
5.65364e-07
5.67915e-07
5.63394e-07
5.66655e-07
5.69736e-07
5.76387e-07
5.77792e-07
5.80197e-07
5.8011e-07
5.8027e-07
5.80006e-07
5.80024e-07
5.79439e-07
5.79753e-07
5.80096e-07
5.77642e-07
5.74501e-07
5.72083e-07
5.68576e-07
5.6319e-07
5.54994e-07
5.43985e-07
5.29656e-07
5.09612e-07
4.79421e-07
4.48813e-07
4.27011e-07
4.03932e-07
3.86693e-07
3.67259e-07
3.29249e-07