/*--------------------------------*- C++ -*----------------------------------*\
| =========                 |                                                 |
| \\      /  F ield         | OpenFOAM: The Open Source CFD Toolbox           |
|  \\    /   O peration     | Version:  2.3.0                                 |
|   \\  /    A nd           | Web:      www.OpenFOAM.org                      |
|    \\/     M anipulation  |                                                 |
\*---------------------------------------------------------------------------*/
FoamFile
{
    version     2.0;
    format      ascii;
    class       volScalarField;
    location    "40";
    object      alpha.water;
}
// * * * * * * * * * * * * * * * * * * * * * * * * * * * * * * * * * * * * * //

dimensions      [0 0 0 0 0 0 0];

internalField   nonuniform List<scalar> 
6144
(
4.44734e-06
5.27526e-06
5.78918e-06
6.2404e-06
6.63803e-06
7.2296e-06
7.96645e-06
9.05532e-06
9.86622e-06
9.98355e-06
9.98827e-06
9.991e-06
9.9934e-06
9.99571e-06
9.99645e-06
9.9971e-06
9.99622e-06
9.99682e-06
9.99645e-06
9.99657e-06
9.99631e-06
9.99623e-06
9.99609e-06
9.99589e-06
9.99565e-06
9.9953e-06
9.99494e-06
9.99482e-06
9.99464e-06
9.99456e-06
9.99423e-06
9.99432e-06
9.99381e-06
9.99435e-06
9.99352e-06
9.99458e-06
9.99306e-06
9.99496e-06
9.99198e-06
9.99482e-06
9.99037e-06
9.99486e-06
9.9888e-06
9.99642e-06
9.98789e-06
9.99737e-06
9.988e-06
1.00233e-05
1.05414e-05
1.29637e-05
1.85536e-05
3.05579e-05
4.9342e-05
6.8747e-05
8.56175e-05
0.000121319
0.000172024
0.000474493
0.000595339
0.0567548
0.960876
0.999841
0.999999
0.999999
0.999999
0.999999
0.999999
0.999999
0.999999
0.999999
0.999999
0.999999
0.999999
0.999999
0.999999
0.999999
0.999999
0.999999
0.999999
0.999999
0.999999
0.999999
0.999999
0.999999
0.999999
0.999999
0.999999
0.999999
0.999999
0.999999
0.999999
0.999999
0.999999
0.999999
0.999999
1
3.86097e-06
5.04914e-06
6.02903e-06
6.56173e-06
7.17347e-06
7.698e-06
8.23993e-06
9.06301e-06
9.88846e-06
9.98494e-06
9.98225e-06
9.98193e-06
9.99308e-06
1.00006e-05
1.00033e-05
1.00039e-05
1.00033e-05
1.00034e-05
1.0003e-05
1.00029e-05
1.00024e-05
1.00022e-05
1.00019e-05
1.00017e-05
1.00015e-05
1.00013e-05
1.00013e-05
1.00015e-05
1.00014e-05
1.00015e-05
1.00015e-05
1.00017e-05
1.00016e-05
1.00021e-05
1.00019e-05
1.00028e-05
1.00018e-05
1.00036e-05
1.00013e-05
1.00043e-05
1.00007e-05
1.00056e-05
1.00001e-05
1.00079e-05
9.9983e-06
1.00104e-05
9.9931e-06
1.00737e-05
1.07633e-05
1.32004e-05
1.85567e-05
3.41336e-05
5.52884e-05
6.82054e-05
7.45791e-05
8.51065e-05
0.000178441
0.000742705
0.00162056
0.0480416
0.953964
0.999803
0.999999
0.999999
0.999999
0.999999
0.999999
0.999999
0.999999
0.999999
0.999999
0.999999
0.999999
0.999999
0.999999
0.999999
0.999999
0.999999
0.999999
0.999999
0.999999
0.999999
0.999999
0.999999
0.999999
0.999999
0.999999
0.999999
0.999999
0.999999
0.999999
0.999999
0.999999
0.999999
0.999999
1
3.53311e-06
4.68297e-06
5.81717e-06
6.54813e-06
7.35511e-06
7.82509e-06
8.36044e-06
9.04805e-06
9.72252e-06
9.90423e-06
9.92106e-06
9.95222e-06
9.97946e-06
9.99557e-06
1.0002e-05
1.00036e-05
1.00036e-05
1.00038e-05
1.00035e-05
1.00036e-05
1.00032e-05
1.0003e-05
1.00027e-05
1.00025e-05
1.00022e-05
1.00021e-05
1.0002e-05
1.0002e-05
1.00019e-05
1.0002e-05
1.0002e-05
1.00022e-05
1.00021e-05
1.00025e-05
1.00023e-05
1.00028e-05
1.00021e-05
1.00029e-05
1.00012e-05
1.00036e-05
1.00002e-05
1.00053e-05
9.99889e-06
1.0008e-05
9.99789e-06
1.00135e-05
1.00092e-05
1.02284e-05
1.10071e-05
1.3182e-05
1.79246e-05
3.10913e-05
4.95229e-05
7.24532e-05
8.24204e-05
9.38454e-05
0.000112073
0.000521307
0.000824536
0.0451504
0.953234
0.999838
0.999999
0.999999
0.999999
0.999999
0.999999
0.999999
0.999999
0.999999
0.999999
0.999999
0.999999
0.999999
0.999999
0.999999
0.999999
0.999999
0.999999
0.999999
0.999999
0.999999
0.999999
0.999999
0.999999
0.999999
0.999999
0.999999
0.999999
0.999999
0.999999
0.999999
0.999999
0.999999
0.999999
1
3.25125e-06
4.17415e-06
5.25139e-06
6.01735e-06
7.0564e-06
7.65451e-06
8.21472e-06
8.86776e-06
9.57619e-06
9.83595e-06
9.88202e-06
9.93531e-06
9.97303e-06
9.99218e-06
9.99906e-06
1.00006e-05
1.00006e-05
1.00007e-05
1.00005e-05
1.00006e-05
1.00003e-05
1e-05
9.99966e-06
9.99929e-06
9.99885e-06
9.99849e-06
9.99822e-06
9.99807e-06
9.99799e-06
9.998e-06
9.99809e-06
9.99833e-06
9.99855e-06
9.99897e-06
9.99902e-06
9.99955e-06
9.99915e-06
1.00002e-05
9.99854e-06
1.00015e-05
9.99745e-06
1.00036e-05
9.99684e-06
1.00053e-05
9.99754e-06
1.00138e-05
1.00144e-05
1.02658e-05
1.09539e-05
1.2943e-05
1.66266e-05
2.49577e-05
4.41802e-05
8.0553e-05
9.28386e-05
0.00010504
0.000102171
0.000357709
0.00059427
0.0490673
0.955597
0.999868
0.999999
0.999999
0.999999
0.999999
0.999999
0.999999
0.999999
0.999998
0.999998
0.999999
0.999999
0.999999
0.999997
0.999998
0.999999
0.999999
0.999999
0.999998
0.999998
0.999999
0.999999
0.999999
0.999998
0.999999
0.999999
0.999999
0.999999
0.999999
0.999999
0.999999
0.999999
0.999999
0.999999
1
2.95911e-06
3.59138e-06
4.63947e-06
5.3399e-06
6.37765e-06
7.21921e-06
8.10606e-06
8.6743e-06
9.41075e-06
9.77709e-06
9.8628e-06
9.9344e-06
9.97571e-06
9.99491e-06
1.00015e-05
1.0003e-05
1.00032e-05
1.00035e-05
1.00035e-05
1.00036e-05
1.00036e-05
1.00035e-05
1.00033e-05
1.00029e-05
1.00025e-05
1.00021e-05
1.00017e-05
1.00014e-05
1.00011e-05
1.00008e-05
1.00005e-05
1.00004e-05
1.00002e-05
1.00003e-05
1.00001e-05
1.00004e-05
9.99979e-06
1.00007e-05
9.99887e-06
1.00015e-05
9.99804e-06
1.00031e-05
9.99791e-06
1.00051e-05
9.99868e-06
1.00116e-05
1.00077e-05
1.02418e-05
1.08686e-05
1.30791e-05
1.63981e-05
2.37642e-05
6.17133e-05
9.77827e-05
0.000105334
0.00011608
0.000107169
0.000218195
0.000313928
0.0678341
0.960037
0.999764
0.999889
0.999934
0.999938
0.999922
0.999891
0.999866
0.999852
0.999842
0.999833
0.999819
0.999793
0.999778
0.999789
0.999842
0.999868
0.999889
0.999924
0.999958
0.999979
0.999989
0.999993
0.999994
0.999993
0.999993
0.999995
0.999996
0.999998
0.999999
0.999999
0.999999
0.999999
0.999999
0.999999
1
2.74862e-06
3.01572e-06
3.94694e-06
4.58616e-06
5.57272e-06
6.51901e-06
7.88437e-06
8.52326e-06
9.22772e-06
9.72241e-06
9.84954e-06
9.93182e-06
9.97271e-06
9.99073e-06
9.99624e-06
9.99754e-06
9.99768e-06
9.99784e-06
9.99789e-06
9.99818e-06
9.99837e-06
9.99851e-06
9.99852e-06
9.99844e-06
9.99819e-06
9.99797e-06
9.99774e-06
9.9976e-06
9.99742e-06
9.99725e-06
9.99706e-06
9.997e-06
9.99684e-06
9.99699e-06
9.99681e-06
9.99719e-06
9.99667e-06
9.99748e-06
9.99601e-06
9.99816e-06
9.99548e-06
9.99962e-06
9.99579e-06
1.00025e-05
9.99696e-06
1.00086e-05
1.00064e-05
1.02566e-05
1.09687e-05
1.36775e-05
1.82311e-05
3.83722e-05
7.96786e-05
0.000108369
0.000112879
0.000127729
0.000126411
0.000180095
5.19983e-05
0.0983067
0.959458
0.99849
0.998664
0.998903
0.998959
0.99895
0.99876
0.998517
0.998323
0.998239
0.998177
0.997959
0.997857
0.997853
0.997917
0.998156
0.998486
0.998892
0.999266
0.99957
0.999793
0.999927
0.999985
0.999994
0.999987
0.999985
0.999983
0.999982
0.999982
0.999987
0.999993
0.999998
1
1
1
1
2.66406e-06
2.66942e-06
3.30292e-06
3.85038e-06
4.80529e-06
5.69768e-06
7.14078e-06
8.19923e-06
8.97896e-06
9.6218e-06
9.82828e-06
9.92842e-06
9.97445e-06
9.994e-06
1.00001e-05
1.00016e-05
1.00017e-05
1.00018e-05
1.00016e-05
1.00015e-05
1.00011e-05
1.00008e-05
1.00005e-05
1.00003e-05
9.99986e-06
9.99942e-06
9.99903e-06
9.99881e-06
9.99859e-06
9.99844e-06
9.99826e-06
9.9982e-06
9.99803e-06
9.99811e-06
9.99789e-06
9.99817e-06
9.99764e-06
9.99822e-06
9.99689e-06
9.99864e-06
9.99629e-06
1e-05
9.99669e-06
1.0003e-05
9.99811e-06
1.00094e-05
1.00088e-05
1.02634e-05
1.10664e-05
1.40332e-05
2.36136e-05
5.05002e-05
8.64455e-05
0.00011176
0.000116005
0.000111998
0.000111352
0.000147515
9.99163e-06
0.169914
0.97893
0.996206
0.996202
0.996709
0.996245
0.995869
0.996454
0.996545
0.996505
0.995946
0.995301
0.994914
0.994721
0.994615
0.995203
0.995905
0.996672
0.997732
0.998551
0.999067
0.999554
0.999884
0.999991
0.999979
1
0.999996
0.999979
0.999978
0.999967
0.999956
0.999946
0.999938
0.999952
0.999966
0.999973
0.999999
2.63619e-06
2.58702e-06
2.84785e-06
3.17739e-06
4.10001e-06
4.9658e-06
6.47973e-06
7.99376e-06
8.79733e-06
9.5167e-06
9.8015e-06
9.92025e-06
9.97034e-06
9.99229e-06
9.99907e-06
1.00014e-05
1.00015e-05
1.00016e-05
1.00014e-05
1.00014e-05
1.00016e-05
1.00019e-05
1.0002e-05
1.00022e-05
1.00022e-05
1.00022e-05
1.00022e-05
1.00022e-05
1.00021e-05
1.00021e-05
1.0002e-05
1.0002e-05
1.00019e-05
1.0002e-05
1.00019e-05
1.00021e-05
1.00018e-05
1.00022e-05
1.00015e-05
1.00028e-05
1.00011e-05
1.00043e-05
1.00016e-05
1.00078e-05
1.00037e-05
1.00178e-05
1.00229e-05
1.03464e-05
1.1691e-05
1.64397e-05
2.74708e-05
4.66285e-05
7.3734e-05
0.000108626
0.000121843
0.000116674
9.97172e-05
0.000109607
9.99163e-06
0.250779
0.98547
0.993025
0.992977
0.993373
0.99329
0.993005
0.993002
0.99333
0.993229
0.992143
0.99104
0.990319
0.98983
0.989542
0.989591
0.991054
0.992248
0.992737
0.992906
0.993041
0.9938
0.995403
0.997173
0.998507
0.999455
0.999869
0.999884
1
1
1
1
1
1
1
1
0.999895
2.64096e-06
2.657e-06
2.67097e-06
2.74637e-06
3.42237e-06
4.28178e-06
5.90561e-06
7.6453e-06
8.73727e-06
9.47198e-06
9.7785e-06
9.90617e-06
9.95979e-06
9.98653e-06
9.99351e-06
9.9968e-06
9.99645e-06
9.99656e-06
9.99633e-06
9.9965e-06
9.99718e-06
9.99766e-06
9.99799e-06
9.99824e-06
9.99842e-06
9.99852e-06
9.99857e-06
9.99863e-06
9.99865e-06
9.99865e-06
9.99868e-06
9.99874e-06
9.99878e-06
9.99893e-06
9.99898e-06
9.99918e-06
9.99907e-06
9.99944e-06
9.99903e-06
1.00004e-05
9.99929e-06
1.00029e-05
1.00004e-05
1.0007e-05
1.00023e-05
1.00173e-05
1.00198e-05
1.03393e-05
1.15678e-05
1.51967e-05
2.1689e-05
4.22448e-05
7.0231e-05
9.86709e-05
0.000111247
0.000110733
9.81919e-05
9.27054e-05
9.99163e-06
0.235121
0.986945
0.993639
0.993216
0.993259
0.993162
0.992834
0.993325
0.99402
0.994185
0.993925
0.992741
0.99195
0.992249
0.99246
0.992628
0.994468
0.995095
0.995239
0.995298
0.995704
0.996317
0.996454
0.996646
0.997386
0.99788
0.998264
0.998624
0.999049
0.999433
0.999661
0.999774
0.999714
0.999663
0.999621
0.999805
0.999762
2.78892e-06
2.94674e-06
2.75686e-06
2.70904e-06
3.03462e-06
3.78871e-06
5.36311e-06
7.32589e-06
8.69961e-06
9.46326e-06
9.74922e-06
9.8783e-06
9.9406e-06
9.97834e-06
9.99227e-06
9.99986e-06
1.00011e-05
1.00012e-05
1.00008e-05
1.0001e-05
1.00012e-05
1.00013e-05
1.00013e-05
1.00011e-05
1.0001e-05
1.00008e-05
1.00007e-05
1.00006e-05
1.00004e-05
1.00003e-05
1.00002e-05
1.00002e-05
1e-05
1e-05
9.9999e-06
9.99994e-06
9.99974e-06
9.99992e-06
9.99954e-06
1.00007e-05
9.99974e-06
1.00033e-05
1.00009e-05
1.00074e-05
1.00025e-05
1.00161e-05
1.0015e-05
1.03274e-05
1.14273e-05
1.41535e-05
2.0731e-05
4.29519e-05
7.35515e-05
8.82683e-05
0.00010184
0.000101272
9.17224e-05
9.1883e-05
9.99163e-06
0.194954
0.990128
0.995541
0.994895
0.994974
0.995795
0.996254
0.99676
0.997101
0.997223
0.997209
0.996983
0.996913
0.997354
0.998072
0.99852
0.998867
0.999045
0.999178
0.999355
0.999517
0.999589
0.999581
0.999578
0.9996
0.999594
0.999578
0.999566
0.99955
0.999643
0.999719
0.999789
0.999871
0.999882
0.999901
0.999953
0.999966
2.76006e-06
3.27935e-06
3.77043e-06
3.7303e-06
3.12549e-06
3.7519e-06
5.07168e-06
7.33247e-06
8.77625e-06
9.45787e-06
9.68941e-06
9.8111e-06
9.88459e-06
9.94014e-06
9.97344e-06
9.99119e-06
9.99572e-06
9.99722e-06
9.9976e-06
9.99845e-06
9.99901e-06
9.99951e-06
9.99979e-06
1e-05
1.00002e-05
1.00003e-05
1.00003e-05
1.00003e-05
1.00003e-05
1.00003e-05
1.00002e-05
1.00002e-05
1.00001e-05
1.00002e-05
1.00002e-05
1.00002e-05
9.99998e-06
1.00001e-05
9.99964e-06
1.0001e-05
9.99984e-06
1.00035e-05
1.00007e-05
1.00077e-05
1.00023e-05
1.00157e-05
1.00099e-05
1.0321e-05
1.15504e-05
1.51414e-05
2.17039e-05
3.05068e-05
6.28945e-05
8.20472e-05
9.59629e-05
0.000102444
9.98851e-05
0.000104031
2.14833e-05
0.12987
0.983877
0.998958
0.998936
0.999251
0.999352
0.999488
0.999568
0.99964
0.999697
0.99974
0.999761
0.999788
0.999848
0.999915
0.999951
0.999966
0.999974
0.99998
0.999983
0.999984
0.999983
0.999983
0.999982
0.999981
0.999978
0.999975
0.999973
0.99997
0.999965
0.999962
0.999967
0.999972
0.999977
0.999987
0.999997
0.999999
2.55985e-06
2.09509e-06
4.1537e-06
4.88271e-06
4.88195e-06
5.49342e-06
5.86819e-06
7.9796e-06
9.01739e-06
9.52254e-06
9.72085e-06
9.83054e-06
9.88812e-06
9.93329e-06
9.96618e-06
9.99097e-06
9.99652e-06
9.99781e-06
9.99816e-06
9.99896e-06
9.99947e-06
9.99992e-06
1.00002e-05
1.00004e-05
1.00006e-05
1.00008e-05
1.00009e-05
1.00009e-05
1.00008e-05
1.00012e-05
1.00015e-05
1.00017e-05
1.0002e-05
1.00022e-05
1.00024e-05
1.00026e-05
1.00025e-05
1.00027e-05
1.00021e-05
1.00036e-05
1.00021e-05
1.00061e-05
1.00028e-05
1.0011e-05
1.00044e-05
1.00193e-05
1.00092e-05
1.02733e-05
1.14395e-05
1.48779e-05
2.10537e-05
3.33981e-05
5.05614e-05
6.17588e-05
7.95878e-05
9.44491e-05
9.51171e-05
0.000117185
0.000101092
0.0889811
0.97451
0.999943
0.999978
0.999991
0.999991
0.999995
0.999996
0.999997
0.999998
0.999998
0.999998
0.999999
0.999999
0.999999
0.999999
0.999999
0.999999
0.999999
0.999999
0.999999
0.999999
0.999999
0.999999
0.999999
1
1
1
0.999999
0.999999
0.999998
0.999998
0.999999
0.999999
0.999999
0.999999
0.999999
1.89433e-06
1.69612e-06
2.73089e-06
4.95028e-06
5.55922e-06
6.73048e-06
6.94109e-06
8.11869e-06
9.18077e-06
9.62647e-06
9.79596e-06
9.89006e-06
9.92598e-06
9.95614e-06
9.98019e-06
1.00016e-05
1.00026e-05
1.00023e-05
1.00019e-05
1.00024e-05
1.00028e-05
1.0003e-05
1.00031e-05
1.00032e-05
1.00032e-05
1.00032e-05
1.00032e-05
1.0003e-05
1.00029e-05
1.00031e-05
1.00034e-05
1.00035e-05
1.00037e-05
1.00038e-05
1.00039e-05
1.0004e-05
1.00037e-05
1.00039e-05
1.00031e-05
1.0005e-05
1.0003e-05
1.00081e-05
1.00043e-05
1.0013e-05
1.00069e-05
1.00252e-05
1.00116e-05
1.02396e-05
1.11081e-05
1.39501e-05
1.915e-05
3.09405e-05
4.20849e-05
5.55628e-05
6.80508e-05
8.5607e-05
8.63772e-05
0.000183185
0.00055207
0.0637597
0.967456
0.999945
1
1
1
0.999999
0.999999
0.999999
0.999999
0.999999
0.999999
0.999999
0.999999
0.999999
0.999999
0.999999
0.999999
0.999999
0.999999
0.999999
0.999999
0.999999
0.999999
1
1
1
1
1
1
0.999999
0.999999
0.999999
0.999999
0.999999
0.999999
0.999999
1.60432e-06
3.98658e-06
3.89472e-06
5.05957e-06
5.7958e-06
7.14077e-06
7.60003e-06
8.28007e-06
9.30684e-06
9.71962e-06
9.845e-06
9.91744e-06
9.94096e-06
9.97174e-06
1.00007e-05
1.00065e-05
1.00065e-05
1.00065e-05
1.00065e-05
1.00065e-05
1.00065e-05
1.00065e-05
1.00065e-05
1.00064e-05
1.00062e-05
1.0006e-05
1.00057e-05
1.00054e-05
1.00053e-05
1.00053e-05
1.00053e-05
1.00053e-05
1.00053e-05
1.00052e-05
1.0005e-05
1.00049e-05
1.00048e-05
1.00048e-05
1.00047e-05
1.0005e-05
1.00048e-05
1.00081e-05
1.00062e-05
1.0013e-05
1.00072e-05
1.00318e-05
1.00182e-05
1.02336e-05
1.08197e-05
1.3133e-05
1.77358e-05
2.7994e-05
4.10469e-05
5.65056e-05
6.18824e-05
8.30905e-05
8.47788e-05
0.00028187
0.000582155
0.0532585
0.976656
0.999958
1
1
1
1
0.999999
0.999999
0.999999
0.999999
0.999999
0.999999
0.999999
0.999999
0.999999
0.999999
0.999999
0.999999
0.999999
1
1
1
1
1
1
1
1
1
1
0.999999
0.999999
0.999999
0.999999
0.999999
0.999999
1
1.72033e-06
4.68844e-06
5.02274e-06
5.81443e-06
6.18564e-06
7.29983e-06
8.15978e-06
8.60056e-06
9.39754e-06
9.72455e-06
9.83649e-06
9.90591e-06
9.93165e-06
9.96804e-06
9.99943e-06
1.00057e-05
1.00055e-05
1.00057e-05
1.00053e-05
1.00054e-05
1.00053e-05
1.00053e-05
1.00052e-05
1.0005e-05
1.00049e-05
1.00047e-05
1.00044e-05
1.00041e-05
1.0004e-05
1.00041e-05
1.00041e-05
1.00041e-05
1.00042e-05
1.00042e-05
1.00041e-05
1.00041e-05
1.00038e-05
1.00041e-05
1.00038e-05
1.00047e-05
1.0004e-05
1.00077e-05
1.00052e-05
1.00127e-05
1.00054e-05
1.00333e-05
1.00237e-05
1.02304e-05
1.07478e-05
1.25851e-05
1.67687e-05
2.5083e-05
4.07385e-05
5.78414e-05
5.96729e-05
7.70235e-05
0.000113312
0.000472219
0.00128358
0.056728
0.968533
0.999921
1
1
1
1
1
1
1
1
1
1
1
1
1
1
1
1
1
1
1
1
1
1
1
1
1
1
1
0.999999
0.999999
0.999999
0.999999
0.999999
0.999999
1
1.58187e-06
2.2863e-06
2.17815e-06
3.02338e-06
5.97002e-06
7.07855e-06
8.16133e-06
8.82667e-06
9.38793e-06
9.68058e-06
9.79782e-06
9.88154e-06
9.92507e-06
9.97399e-06
1.00096e-05
1.00113e-05
1.00113e-05
1.00113e-05
1.00113e-05
1.00112e-05
1.00111e-05
1.0011e-05
1.00108e-05
1.00106e-05
1.00105e-05
1.00104e-05
1.00101e-05
1.00099e-05
1.00099e-05
1.00099e-05
1.00099e-05
1.00099e-05
1.00099e-05
1.00099e-05
1.00099e-05
1.00098e-05
1.00097e-05
1.00097e-05
1.00093e-05
1.00115e-05
1.00134e-05
1.00134e-05
1.00134e-05
1.00134e-05
1.00113e-05
1.00358e-05
1.0034e-05
1.02308e-05
1.0797e-05
1.26281e-05
1.66616e-05
2.46986e-05
3.77657e-05
5.50026e-05
6.8423e-05
9.15032e-05
9.41197e-05
0.000317267
0.0002955
0.0542336
0.97728
0.999953
1
1
1
1
1
1
1
1
1
1
1
1
1
1
1
1
1
1
1
1
1
1
1
1
1
1
1
0.999999
0.999999
0.999999
0.999999
0.999999
0.999999
1
3.73634e-06
5.09136e-06
5.78253e-06
6.23464e-06
6.57109e-06
7.16439e-06
8.19548e-06
9.37113e-06
9.84847e-06
9.88558e-06
9.90891e-06
9.9474e-06
9.98461e-06
1.00076e-05
1.00146e-05
1.00146e-05
1.00146e-05
1.00146e-05
1.00143e-05
1.00137e-05
1.00127e-05
1.00122e-05
1.00119e-05
1.00117e-05
1.00116e-05
1.00116e-05
1.00116e-05
1.00118e-05
1.00122e-05
1.00125e-05
1.00127e-05
1.0013e-05
1.00133e-05
1.00134e-05
1.00136e-05
1.00138e-05
1.00138e-05
1.00138e-05
1.00138e-05
1.00163e-05
1.00163e-05
1.00163e-05
1.00163e-05
1.00163e-05
1.00126e-05
1.00328e-05
1.0046e-05
1.02187e-05
1.0589e-05
1.28493e-05
1.86026e-05
2.98638e-05
4.64996e-05
6.54938e-05
7.93284e-05
0.000102727
0.000178392
0.000705374
0.00167449
0.051781
0.95045
0.999784
0.999999
0.999999
0.999999
0.999999
0.999999
0.999999
0.999999
0.999999
0.999999
0.999999
0.999999
0.999999
0.999999
0.999999
0.999999
0.999999
0.999999
0.999999
0.999999
0.999999
0.999999
0.999999
0.999999
0.999999
0.999999
0.999999
0.999999
0.999999
0.999999
0.999999
0.999999
0.999999
0.999999
1
2.87724e-06
4.68651e-06
6.15134e-06
6.67048e-06
7.18123e-06
7.8774e-06
8.87191e-06
9.27447e-06
9.49869e-06
9.59624e-06
9.73713e-06
9.85753e-06
9.9418e-06
9.98951e-06
1.00083e-05
1.00123e-05
1.00123e-05
1.00126e-05
1.00124e-05
1.00129e-05
1.00129e-05
1.00129e-05
1.00128e-05
1.00126e-05
1.00124e-05
1.00122e-05
1.0012e-05
1.00118e-05
1.00116e-05
1.00114e-05
1.00114e-05
1.00114e-05
1.00114e-05
1.00115e-05
1.00115e-05
1.00117e-05
1.00115e-05
1.0012e-05
1.00114e-05
1.00128e-05
1.00115e-05
1.0015e-05
1.00134e-05
1.00163e-05
1.00134e-05
1.00444e-05
1.01019e-05
1.05145e-05
1.11701e-05
1.27937e-05
1.68306e-05
3.02466e-05
5.00904e-05
6.93504e-05
7.73523e-05
8.73503e-05
0.000209094
0.00067733
0.00150027
0.0563426
0.965493
0.999984
0.999999
0.999999
0.999999
0.999999
0.999999
0.999999
0.999999
0.999999
0.999999
0.999999
0.999999
0.999999
0.999999
0.999999
0.999999
0.999999
0.999999
0.999999
0.999999
0.999999
0.999999
0.999999
0.999999
0.999999
0.999999
0.999999
0.999999
0.999999
0.999999
0.999999
0.999999
0.999999
0.999999
1
2.48522e-06
3.99377e-06
5.74927e-06
6.50294e-06
7.22292e-06
7.73597e-06
8.2479e-06
8.67828e-06
9.0885e-06
9.36409e-06
9.62674e-06
9.81446e-06
9.92222e-06
9.98208e-06
1.00057e-05
1.00098e-05
1.00098e-05
1.001e-05
1.00098e-05
1.001e-05
1.00099e-05
1.00099e-05
1.00098e-05
1.00096e-05
1.00093e-05
1.00091e-05
1.00089e-05
1.00087e-05
1.00085e-05
1.00085e-05
1.00085e-05
1.00085e-05
1.00085e-05
1.00085e-05
1.00085e-05
1.00085e-05
1.00084e-05
1.00086e-05
1.00084e-05
1.00097e-05
1.00088e-05
1.00115e-05
1.0009e-05
1.00146e-05
1.00087e-05
1.00378e-05
1.00757e-05
1.0468e-05
1.1117e-05
1.2655e-05
1.5237e-05
2.36184e-05
4.02407e-05
6.95739e-05
8.16561e-05
9.19348e-05
0.000141355
0.000506399
0.000760122
0.0575873
0.980894
0.999999
0.999999
0.999999
0.999999
0.999999
0.999999
0.999999
0.999999
0.999999
0.999999
0.999999
0.999999
0.999999
0.999999
0.999999
0.999999
0.999999
0.999999
0.999999
0.999999
0.999999
0.999999
0.999999
0.999999
0.999999
0.999999
0.999999
0.999999
0.999999
0.999999
0.999999
0.999999
0.999999
0.999999
1
2.25202e-06
3.27166e-06
5.06991e-06
5.83744e-06
6.44769e-06
6.99726e-06
7.57782e-06
8.15709e-06
8.81792e-06
9.25169e-06
9.58419e-06
9.80247e-06
9.91629e-06
9.97907e-06
1.00038e-05
1.00079e-05
1.00077e-05
1.00077e-05
1.00074e-05
1.00073e-05
1.00071e-05
1.00071e-05
1.0007e-05
1.00068e-05
1.00065e-05
1.00063e-05
1.00061e-05
1.0006e-05
1.00058e-05
1.00058e-05
1.00058e-05
1.00058e-05
1.00058e-05
1.00058e-05
1.00058e-05
1.00058e-05
1.00058e-05
1.0006e-05
1.00059e-05
1.00071e-05
1.00063e-05
1.00091e-05
1.00065e-05
1.00119e-05
1.00052e-05
1.00313e-05
1.00625e-05
1.04238e-05
1.10052e-05
1.25611e-05
1.465e-05
1.96436e-05
3.86297e-05
7.56295e-05
0.000100887
0.000119326
0.00011297
0.000305142
0.000375626
0.0746847
0.988807
0.999985
0.999983
0.99999
0.99999
0.999987
0.999984
0.999981
0.999978
0.999976
0.999975
0.999975
0.999974
0.999975
0.999981
0.999985
0.999983
0.999981
0.999988
0.999992
0.999996
0.999998
0.999999
0.999999
0.999999
0.999999
0.999999
0.999999
0.999999
0.999999
0.999999
0.999999
0.999999
0.999999
0.999999
1
2.09563e-06
2.62583e-06
4.3511e-06
5.31755e-06
5.94143e-06
6.54211e-06
7.17079e-06
7.80377e-06
8.65023e-06
9.19273e-06
9.56874e-06
9.80027e-06
9.91525e-06
9.97836e-06
1.00028e-05
1.00069e-05
1.00067e-05
1.00066e-05
1.00063e-05
1.00062e-05
1.00059e-05
1.00058e-05
1.00057e-05
1.00054e-05
1.00051e-05
1.00049e-05
1.00048e-05
1.00047e-05
1.00046e-05
1.00045e-05
1.00045e-05
1.00045e-05
1.00046e-05
1.00046e-05
1.00046e-05
1.00046e-05
1.00045e-05
1.00049e-05
1.00047e-05
1.00058e-05
1.00051e-05
1.00079e-05
1.00052e-05
1.00107e-05
1.00047e-05
1.00292e-05
1.00565e-05
1.04128e-05
1.09493e-05
1.24508e-05
1.50884e-05
2.21732e-05
5.75265e-05
0.000109615
0.000136379
0.000138198
0.000122336
0.000274385
0.000211337
0.115018
0.987717
0.999443
0.999508
0.999649
0.999659
0.999616
0.999417
0.999223
0.999063
0.998869
0.998698
0.998498
0.998235
0.998179
0.99834
0.998373
0.998265
0.998207
0.998498
0.998929
0.99924
0.999482
0.999686
0.999858
0.999951
0.999987
0.999997
0.999999
0.999999
0.999999
0.999999
0.999999
0.999999
0.999999
0.999999
1
2.0088e-06
2.1406e-06
3.52395e-06
4.75176e-06
5.42537e-06
6.17313e-06
6.91e-06
7.57544e-06
8.56191e-06
9.16556e-06
9.56566e-06
9.80851e-06
9.91933e-06
9.97904e-06
1.00021e-05
1.00061e-05
1.00059e-05
1.00057e-05
1.00053e-05
1.00052e-05
1.00049e-05
1.00047e-05
1.00046e-05
1.00043e-05
1.0004e-05
1.00038e-05
1.00037e-05
1.00036e-05
1.00035e-05
1.00035e-05
1.00035e-05
1.00036e-05
1.00037e-05
1.00037e-05
1.00038e-05
1.00038e-05
1.00038e-05
1.00042e-05
1.00041e-05
1.0005e-05
1.00044e-05
1.00073e-05
1.00045e-05
1.00102e-05
1.00044e-05
1.00277e-05
1.00417e-05
1.03481e-05
1.09125e-05
1.22504e-05
1.58012e-05
2.7396e-05
8.26421e-05
0.000134315
0.000151684
0.000157159
0.000160979
0.000166504
8.62081e-05
0.164422
0.977432
0.993828
0.993662
0.994523
0.994165
0.993861
0.99353
0.992928
0.990226
0.986339
0.984424
0.982856
0.982079
0.98148
0.980691
0.979784
0.979258
0.979074
0.980177
0.981902
0.984373
0.986564
0.989066
0.992333
0.995375
0.997783
0.998983
0.99958
0.999894
0.999985
0.999998
1
1
0.999999
0.999999
1
1.98379e-06
1.90479e-06
2.79442e-06
3.99481e-06
4.86616e-06
5.79631e-06
6.69194e-06
7.43892e-06
8.53574e-06
9.15835e-06
9.57909e-06
9.81621e-06
9.92288e-06
9.97994e-06
1.00016e-05
1.00057e-05
1.00055e-05
1.00053e-05
1.00049e-05
1.00047e-05
1.00045e-05
1.00043e-05
1.00042e-05
1.00039e-05
1.00037e-05
1.00035e-05
1.00034e-05
1.00033e-05
1.00032e-05
1.00032e-05
1.00033e-05
1.00034e-05
1.00035e-05
1.00035e-05
1.00036e-05
1.00037e-05
1.00037e-05
1.00041e-05
1.00039e-05
1.00048e-05
1.00041e-05
1.00072e-05
1.00042e-05
1.00101e-05
1.00044e-05
1.00261e-05
1.00315e-05
1.02956e-05
1.09002e-05
1.21375e-05
1.60946e-05
3.12472e-05
9.35322e-05
0.000131738
0.000132235
0.000126143
9.99634e-05
6.02197e-05
1.24543e-05
0.311562
0.962979
0.976137
0.973703
0.973266
0.973012
0.972363
0.970643
0.968023
0.965312
0.962436
0.959811
0.956382
0.952998
0.951709
0.951386
0.950953
0.950389
0.949813
0.949113
0.947812
0.945338
0.943904
0.94442
0.951195
0.959539
0.965513
0.971586
0.979311
0.987309
0.993865
0.99659
0.997049
0.996786
0.996288
0.995449
0.994603
2.02685e-06
1.83931e-06
2.26559e-06
3.02258e-06
4.07136e-06
5.15224e-06
6.36576e-06
7.31463e-06
8.53136e-06
9.17693e-06
9.59442e-06
9.8258e-06
9.92789e-06
9.98182e-06
1.00013e-05
1.00052e-05
1.00051e-05
1.0005e-05
1.00048e-05
1.00047e-05
1.00047e-05
1.00047e-05
1.00046e-05
1.00044e-05
1.00043e-05
1.00041e-05
1.0004e-05
1.00039e-05
1.00038e-05
1.00038e-05
1.00037e-05
1.00038e-05
1.00038e-05
1.00038e-05
1.00037e-05
1.00038e-05
1.00038e-05
1.00043e-05
1.0004e-05
1.00047e-05
1.0004e-05
1.00073e-05
1.00041e-05
1.00101e-05
1.00039e-05
1.0025e-05
1.00261e-05
1.02588e-05
1.09519e-05
1.25158e-05
1.70715e-05
3.77992e-05
8.08156e-05
0.000132707
0.000144693
0.000135674
9.74554e-05
4.73055e-05
9.99163e-06
0.435865
0.951565
0.960258
0.958138
0.957714
0.957797
0.958939
0.959914
0.96047
0.960599
0.958998
0.953114
0.947086
0.944885
0.944871
0.945285
0.946602
0.947133
0.947092
0.946289
0.940029
0.925602
0.920456
0.920695
0.919383
0.913076
0.905541
0.901698
0.899933
0.896557
0.8902
0.883631
0.875504
0.862709
0.840016
0.794113
0.598467
2.11757e-06
1.82528e-06
1.9834e-06
2.23433e-06
3.03052e-06
4.01925e-06
5.66354e-06
7.09699e-06
8.503e-06
9.1956e-06
9.61385e-06
9.83721e-06
9.9352e-06
9.98556e-06
1.0003e-05
1.00067e-05
1.00065e-05
1.00063e-05
1.0006e-05
1.00058e-05
1.00058e-05
1.00057e-05
1.00056e-05
1.00054e-05
1.00053e-05
1.00051e-05
1.0005e-05
1.00049e-05
1.00049e-05
1.00049e-05
1.00049e-05
1.00049e-05
1.0005e-05
1.00051e-05
1.00051e-05
1.00053e-05
1.00054e-05
1.00056e-05
1.00054e-05
1.00059e-05
1.00052e-05
1.00086e-05
1.00054e-05
1.00115e-05
1.00045e-05
1.00255e-05
1.00248e-05
1.02364e-05
1.09959e-05
1.31512e-05
2.184e-05
6.17492e-05
0.00010282
0.000108175
0.000110634
0.000118719
0.000120248
7.5608e-05
9.99163e-06
0.378557
0.964397
0.97354
0.971743
0.971052
0.971832
0.973119
0.974667
0.976299
0.977616
0.978133
0.978051
0.977816
0.978534
0.980916
0.98369
0.986126
0.987664
0.98809
0.986392
0.98489
0.982446
0.97921
0.974259
0.967055
0.958449
0.949147
0.940099
0.931819
0.924099
0.917399
0.912954
0.911813
0.916765
0.923501
0.934261
0.946458
2.14853e-06
1.8552e-06
1.8917e-06
1.83299e-06
2.13322e-06
2.70796e-06
4.48969e-06
6.71503e-06
8.43835e-06
9.20216e-06
9.6308e-06
9.84772e-06
9.94316e-06
9.98877e-06
1.00041e-05
1.00076e-05
1.00076e-05
1.00075e-05
1.00074e-05
1.00072e-05
1.00072e-05
1.00072e-05
1.00071e-05
1.00069e-05
1.00067e-05
1.00065e-05
1.00064e-05
1.00062e-05
1.00061e-05
1.00061e-05
1.0006e-05
1.0006e-05
1.0006e-05
1.00061e-05
1.0006e-05
1.00062e-05
1.00063e-05
1.00063e-05
1.00061e-05
1.00062e-05
1.00058e-05
1.00089e-05
1.00059e-05
1.00118e-05
1.0004e-05
1.00255e-05
1.00232e-05
1.02137e-05
1.08982e-05
1.35075e-05
2.94377e-05
7.37246e-05
6.96171e-05
5.86227e-05
5.3543e-05
5.07132e-05
3.48611e-05
2.47467e-05
9.99163e-06
0.274624
0.984228
0.992055
0.99249
0.993358
0.99338
0.993653
0.993941
0.995103
0.995399
0.995583
0.996096
0.996576
0.996851
0.997351
0.997957
0.998174
0.998218
0.99811
0.998021
0.997814
0.997369
0.996896
0.996372
0.995578
0.993755
0.990526
0.987737
0.985842
0.984518
0.984002
0.984241
0.984415
0.988894
0.993938
0.997455
0.99907
2.14556e-06
1.95222e-06
2.00037e-06
2.00256e-06
1.99796e-06
2.05493e-06
3.18e-06
6.21666e-06
8.36774e-06
9.19702e-06
9.65158e-06
9.86117e-06
9.95157e-06
9.9908e-06
1.00041e-05
1.00076e-05
1.00077e-05
1.00076e-05
1.00076e-05
1.00076e-05
1.00076e-05
1.00076e-05
1.00075e-05
1.00073e-05
1.00072e-05
1.0007e-05
1.00069e-05
1.00067e-05
1.00066e-05
1.00066e-05
1.00065e-05
1.00065e-05
1.00065e-05
1.00066e-05
1.00066e-05
1.00069e-05
1.0007e-05
1.0007e-05
1.0007e-05
1.0007e-05
1.00069e-05
1.00098e-05
1.00071e-05
1.00125e-05
1.00046e-05
1.00255e-05
1.00222e-05
1.01887e-05
1.08237e-05
1.36553e-05
2.07394e-05
4.02539e-05
7.02106e-05
8.96833e-05
0.000110919
9.91287e-05
9.29562e-05
8.25375e-05
3.30012e-05
0.171799
0.996268
0.9994
0.999468
0.999623
0.999657
0.999691
0.999705
0.999768
0.999806
0.999792
0.999744
0.999791
0.999833
0.999856
0.999879
0.999891
0.999895
0.999895
0.999879
0.999857
0.999832
0.999818
0.999806
0.99976
0.999633
0.999478
0.99942
0.999412
0.999452
0.999567
0.999705
0.999783
0.999868
0.999957
0.99999
0.999997
1.94668e-06
2.09064e-06
2.14108e-06
2.54314e-06
3.10583e-06
3.79491e-06
4.25396e-06
6.67364e-06
8.52117e-06
9.27756e-06
9.68879e-06
9.88471e-06
9.96318e-06
9.99326e-06
1.00044e-05
1.00075e-05
1.00075e-05
1.00076e-05
1.00076e-05
1.00076e-05
1.00076e-05
1.00075e-05
1.00074e-05
1.00072e-05
1.00071e-05
1.0007e-05
1.00068e-05
1.00067e-05
1.00066e-05
1.00064e-05
1.00064e-05
1.00063e-05
1.00063e-05
1.00062e-05
1.00061e-05
1.00061e-05
1.00057e-05
1.00063e-05
1.00063e-05
1.0007e-05
1.00059e-05
1.00098e-05
1.00069e-05
1.00125e-05
1.00039e-05
1.00251e-05
1.00206e-05
1.01711e-05
1.07081e-05
1.29293e-05
1.85001e-05
2.98459e-05
4.44282e-05
5.60171e-05
8.23838e-05
8.64871e-05
0.000115769
0.00017109
0.000164103
0.114215
0.998145
0.999989
0.999989
0.999994
0.999994
0.999995
0.999995
0.999995
0.999995
0.999996
0.999996
0.999996
0.999996
0.999997
0.999997
0.999997
0.999997
0.999997
0.999997
0.999997
0.999997
0.999997
0.999997
0.999997
0.999997
0.999997
0.999997
0.999997
0.999998
0.999998
0.999999
0.999999
0.999999
0.999999
0.999999
0.999999
2.01703e-06
2.29232e-06
2.23045e-06
2.66618e-06
3.61563e-06
5.60749e-06
7.25777e-06
8.73308e-06
9.1716e-06
9.46032e-06
9.75019e-06
9.90873e-06
9.96772e-06
9.98975e-06
1.00043e-05
1.00077e-05
1.00077e-05
1.00076e-05
1.00076e-05
1.00076e-05
1.00076e-05
1.00076e-05
1.00074e-05
1.00073e-05
1.00072e-05
1.0007e-05
1.00069e-05
1.00067e-05
1.00065e-05
1.00062e-05
1.00061e-05
1.0006e-05
1.00058e-05
1.00056e-05
1.00054e-05
1.00052e-05
1.0005e-05
1.00054e-05
1.00044e-05
1.00059e-05
1.00042e-05
1.00088e-05
1.00066e-05
1.00098e-05
1.0004e-05
1.00236e-05
1.00195e-05
1.01669e-05
1.0675e-05
1.26738e-05
1.69984e-05
2.6911e-05
4.37905e-05
5.81452e-05
6.20051e-05
7.62623e-05
9.86358e-05
0.000164849
0.000433502
0.0816859
0.983806
1
0.999999
1
0.999999
0.999999
0.999999
0.999999
0.999999
0.999999
0.999999
0.999999
0.999999
0.999999
0.999999
0.999999
0.999999
0.999999
0.999999
0.999999
0.999999
0.999999
0.999999
0.999999
0.999999
0.999999
1
1
1
0.999999
0.999999
0.999999
0.999999
0.999999
0.999999
0.999999
2.57642e-06