/*--------------------------------*- C++ -*----------------------------------*\
| =========                 |                                                 |
| \\      /  F ield         | OpenFOAM: The Open Source CFD Toolbox           |
|  \\    /   O peration     | Version:  2.3.0                                 |
|   \\  /    A nd           | Web:      www.OpenFOAM.org                      |
|    \\/     M anipulation  |                                                 |
\*---------------------------------------------------------------------------*/
FoamFile
{
    version     2.0;
    format      ascii;
    class       volScalarField;
    location    "40";
    object      alpha.water;
}
// * * * * * * * * * * * * * * * * * * * * * * * * * * * * * * * * * * * * * //

dimensions      [0 0 0 0 0 0 0];

internalField   nonuniform List<scalar> 
6144
(
3.84816e-06
4.49393e-06
5.01107e-06
5.58957e-06
6.31072e-06
7.44871e-06
8.29456e-06
9.05447e-06
9.67092e-06
9.93193e-06
9.9731e-06
9.98055e-06
9.98363e-06
9.9873e-06
9.98863e-06
9.98973e-06
9.98897e-06
9.98931e-06
9.98878e-06
9.9889e-06
9.98856e-06
9.98821e-06
9.98773e-06
9.98733e-06
9.98688e-06
9.98657e-06
9.98631e-06
9.986e-06
9.9856e-06
9.98521e-06
9.98468e-06
9.98414e-06
9.98346e-06
9.98278e-06
9.98197e-06
9.98133e-06
9.98063e-06
9.98007e-06
9.97922e-06
9.97847e-06
9.97813e-06
9.97813e-06
9.98645e-06
1.03842e-05
1.25429e-05
1.6677e-05
2.22457e-05
3.10845e-05
5.38477e-05
7.64508e-05
9.97566e-05
0.000112438
0.000116957
0.000119949
0.000121249
0.000122856
0.000123228
0.000129369
0.0012626
0.0565555
0.951619
0.999615
0.999999
1
1
1
1
0.999999
0.999999
0.999999
0.999999
0.999999
0.999999
0.999999
0.999999
0.999999
0.999999
0.999999
0.999999
0.999999
0.999999
0.999999
0.999999
1
0.999999
0.999999
0.999999
0.999999
0.999999
0.999999
0.999999
0.999999
0.999999
0.999999
0.999999
1
3.59938e-06
4.43908e-06
5.35527e-06
5.96509e-06
6.89936e-06
7.73702e-06
8.41412e-06
9.09825e-06
9.67317e-06
9.91737e-06
9.96881e-06
9.98036e-06
9.98581e-06
9.99274e-06
9.99635e-06
9.99796e-06
9.99732e-06
9.99743e-06
9.99684e-06
9.99679e-06
9.99627e-06
9.99569e-06
9.99513e-06
9.99474e-06
9.99443e-06
9.99431e-06
9.99423e-06
9.99403e-06
9.99385e-06
9.99368e-06
9.99351e-06
9.99333e-06
9.99314e-06
9.99285e-06
9.99246e-06
9.99198e-06
9.99138e-06
9.9907e-06
9.98973e-06
9.98902e-06
9.98779e-06
9.98739e-06
1.00103e-05
1.04353e-05
1.22989e-05
1.59441e-05
2.14907e-05
2.96765e-05
4.40139e-05
7.65328e-05
0.00011173
0.000119896
0.000121909
0.0001243
0.000124169
0.00012521
0.000123993
0.000128593
0.000640347
0.0375214
0.955634
0.999811
1
1
0.999999
0.999999
0.999999
0.999999
0.999999
0.999999
0.999999
0.999999
0.999999
0.999999
0.999999
0.999999
0.999999
0.999999
0.999999
0.999999
0.999999
0.999999
0.999999
0.999999
0.999999
0.999999
0.999999
0.999999
0.999999
0.999999
0.999999
0.999999
0.999999
0.999999
0.999999
1
3.44147e-06
4.0736e-06
5.20976e-06
6.00785e-06
7.11996e-06
7.84818e-06
8.46913e-06
9.06574e-06
9.50656e-06
9.77192e-06
9.88667e-06
9.93951e-06
9.96868e-06
9.98513e-06
9.99294e-06
9.99672e-06
9.99728e-06
9.99757e-06
9.99721e-06
9.99714e-06
9.99663e-06
9.99618e-06
9.99572e-06
9.99533e-06
9.99497e-06
9.99472e-06
9.99451e-06
9.9943e-06
9.99408e-06
9.99386e-06
9.99358e-06
9.99325e-06
9.99266e-06
9.99194e-06
9.991e-06
9.99003e-06
9.98891e-06
9.98778e-06
9.98659e-06
9.98671e-06
9.98797e-06
9.99296e-06
1.00312e-05
1.03741e-05
1.16822e-05
1.4225e-05
1.81314e-05
2.43241e-05
3.91497e-05
0.000106301
0.000120571
0.000122635
0.00012484
0.000127025
0.000127009
0.000129541
0.000125366
0.000129924
0.000376792
0.0551462
0.979706
0.999979
0.999999
0.999999
0.999999
0.999999
0.999999
0.999999
0.999999
0.999999
0.999999
0.999999
0.999999
0.999999
0.999999
0.999999
0.999999
0.999999
0.999999
0.999999
0.999999
0.999999
0.999999
0.999999
0.999999
0.999999
0.999999
0.999999
0.999999
0.999999
0.999999
0.999999
0.999999
0.999999
0.999999
1
3.37472e-06
3.69516e-06
4.85665e-06
5.59972e-06
6.84778e-06
7.75112e-06
8.3891e-06
8.95052e-06
9.39834e-06
9.68254e-06
9.83226e-06
9.91686e-06
9.95938e-06
9.98005e-06
9.98876e-06
9.9928e-06
9.99316e-06
9.99336e-06
9.99301e-06
9.99285e-06
9.99236e-06
9.99186e-06
9.9913e-06
9.99071e-06
9.99017e-06
9.98963e-06
9.98925e-06
9.98887e-06
9.9887e-06
9.98853e-06
9.98855e-06
9.98849e-06
9.98834e-06
9.98795e-06
9.98744e-06
9.98677e-06
9.98603e-06
9.98512e-06
9.98456e-06
9.98457e-06
9.98666e-06
9.99712e-06
1.00509e-05
1.03266e-05
1.11717e-05
1.28004e-05
1.5837e-05
2.55003e-05
6.57291e-05
0.000118241
0.000121899
0.000123665
0.000125845
0.000126934
0.000127209
0.000128937
0.000121459
0.000130689
0.000113881
0.104328
0.994279
0.999945
0.999957
0.999969
0.999976
0.999982
0.999987
0.999991
0.999995
0.999997
0.999998
0.999999
0.999999
0.999999
0.999999
0.999999
0.999999
0.999999
0.999999
0.999999
0.999999
0.999999
0.999999
0.999999
0.999999
0.999999
0.999999
0.999999
0.999999
0.999999
0.999999
0.999999
0.999999
0.999999
0.999999
1
3.34512e-06
3.40711e-06
4.5279e-06
5.19595e-06
6.32339e-06
7.21834e-06
8.24329e-06
8.8365e-06
9.28947e-06
9.60128e-06
9.78851e-06
9.9033e-06
9.95844e-06
9.98296e-06
9.99222e-06
9.99611e-06
9.99662e-06
9.99694e-06
9.99683e-06
9.99687e-06
9.99658e-06
9.99625e-06
9.9957e-06
9.99518e-06
9.99452e-06
9.99396e-06
9.99334e-06
9.9928e-06
9.99219e-06
9.99166e-06
9.99105e-06
9.99048e-06
9.98981e-06
9.98914e-06
9.98834e-06
9.98755e-06
9.98667e-06
9.98579e-06
9.98524e-06
9.98598e-06
9.98772e-06
9.99921e-06
1.00551e-05
1.03281e-05
1.10422e-05
1.23084e-05
1.49405e-05
2.88799e-05
9.06331e-05
0.000120198
0.000121203
0.000121248
0.000122091
0.000122795
0.000122721
0.000121841
0.000118044
0.000126905
0.00011388
0.129868
0.987722
0.999168
0.999198
0.999311
0.9994
0.999492
0.999592
0.99968
0.999757
0.999816
0.999862
0.9999
0.99993
0.999953
0.999969
0.999976
0.999977
0.999974
0.999972
0.999972
0.999976
0.99998
0.999986
0.99999
0.999994
0.999996
0.999998
0.999999
0.999999
1
1
1
0.999999
0.999999
0.999999
1
3.32264e-06
3.26878e-06
4.22325e-06
4.81554e-06
5.92115e-06
6.70621e-06
7.94567e-06
8.69524e-06
9.1647e-06
9.51675e-06
9.73945e-06
9.88409e-06
9.95067e-06
9.97718e-06
9.98577e-06
9.98977e-06
9.99015e-06
9.99036e-06
9.99029e-06
9.99029e-06
9.99029e-06
9.9902e-06
9.99e-06
9.98974e-06
9.98933e-06
9.98898e-06
9.98861e-06
9.9882e-06
9.9878e-06
9.98733e-06
9.98686e-06
9.98634e-06
9.9858e-06
9.9852e-06
9.98458e-06
9.98391e-06
9.9832e-06
9.98256e-06
9.98247e-06
9.98279e-06
9.98419e-06
9.99601e-06
1.00606e-05
1.03319e-05
1.10334e-05
1.24643e-05
1.5458e-05
3.31228e-05
9.67894e-05
0.000119989
0.000120406
0.000119409
0.00011889
0.000118722
0.000118486
0.000118992
0.000118094
0.000121359
0.00011388
0.143821
0.983356
0.996476
0.996215
0.996194
0.996412
0.996612
0.996924
0.997193
0.99744
0.997652
0.997833
0.998024
0.998258
0.998521
0.998778
0.998946
0.999012
0.999007
0.998999
0.999066
0.999139
0.999177
0.999144
0.999129
0.999264
0.999385
0.999619
0.999806
0.999935
0.999989
1
1
1
1
1
1
3.37179e-06
3.24013e-06
4.00785e-06
4.48052e-06
5.67555e-06
6.39548e-06
7.43049e-06
8.50325e-06
9.07127e-06
9.45111e-06
9.69548e-06
9.87172e-06
9.95063e-06
9.98055e-06
9.99005e-06
9.99464e-06
9.99479e-06
9.995e-06
9.99474e-06
9.99469e-06
9.99418e-06
9.99348e-06
9.99284e-06
9.99235e-06
9.9917e-06
9.99111e-06
9.99046e-06
9.98995e-06
9.98949e-06
9.98903e-06
9.98851e-06
9.98794e-06
9.98725e-06
9.98654e-06
9.98572e-06
9.98486e-06
9.98391e-06
9.98317e-06
9.98303e-06
9.98358e-06
9.98516e-06
9.99631e-06
1.00659e-05
1.03084e-05
1.09938e-05
1.28543e-05
1.83137e-05
3.92161e-05
9.23288e-05
0.000120444
0.000121691
0.00012207
0.000121607
0.000119474
0.000118072
0.000117904
0.000117737
0.000119504
0.00011388
0.166783
0.978818
0.992718
0.991801
0.99158
0.991477
0.991706
0.992021
0.992288
0.992572
0.992741
0.992917
0.993107
0.993491
0.994015
0.994772
0.995448
0.995732
0.995677
0.995498
0.994931
0.994119
0.993316
0.992602
0.992133
0.991936
0.992161
0.993078
0.994424
0.996058
0.997782
0.999218
0.999814
0.999809
0.999865
0.999908
0.999942
3.43952e-06
3.43238e-06
3.94128e-06
4.23732e-06
5.52299e-06
6.29377e-06
7.04243e-06
8.28614e-06
8.9871e-06
9.41598e-06
9.67639e-06
9.86211e-06
9.94642e-06
9.97877e-06
9.98848e-06
9.99447e-06
9.99446e-06
9.99485e-06
9.99458e-06
9.99452e-06
9.99432e-06
9.99447e-06
9.99448e-06
9.99448e-06
9.99449e-06
9.99436e-06
9.99417e-06
9.99393e-06
9.99368e-06
9.9933e-06
9.9928e-06
9.99221e-06
9.9915e-06
9.99082e-06
9.9901e-06
9.98938e-06
9.98865e-06
9.98815e-06
9.98791e-06
9.98887e-06
9.99146e-06
1.00023e-05
1.00579e-05
1.02871e-05
1.10092e-05
1.28542e-05
1.8202e-05
2.90101e-05
5.67846e-05
0.000117179
0.000122588
0.000125007
0.000126802
0.000124172
0.000120696
0.000118894
0.00011773
0.000118506
0.00011388
0.333075
0.981687
0.987238
0.986284
0.985963
0.985821
0.985809
0.986027
0.986143
0.986355
0.986441
0.986482
0.986504
0.986674
0.987049
0.987567
0.98807
0.988425
0.988514
0.988129
0.987494
0.9868
0.98605
0.985237
0.984392
0.983529
0.98262
0.981717
0.980899
0.98023
0.979647
0.979182
0.979541
0.982825
0.985602
0.989082
0.992083
3.1954e-06
3.53465e-06
3.95675e-06
4.06447e-06
5.36136e-06
6.26911e-06
6.9203e-06
7.99677e-06
8.90043e-06
9.36596e-06
9.64417e-06
9.84375e-06
9.93585e-06
9.97035e-06
9.98087e-06
9.98839e-06
9.98836e-06
9.98884e-06
9.9885e-06
9.98846e-06
9.98866e-06
9.98905e-06
9.98929e-06
9.98948e-06
9.98962e-06
9.98965e-06
9.98956e-06
9.98939e-06
9.98922e-06
9.98895e-06
9.98861e-06
9.98821e-06
9.98766e-06
9.98711e-06
9.98652e-06
9.98616e-06
9.98616e-06
9.98616e-06
9.98616e-06
9.98616e-06
9.98809e-06
9.99844e-06
1.00419e-05
1.02682e-05
1.09998e-05
1.28456e-05
1.82812e-05
2.85663e-05
4.42579e-05
9.93384e-05
0.000120179
0.00012269
0.000126722
0.000127745
0.000124534
0.000121852
0.000117739
0.000118723
0.00011388
0.312746
0.982001
0.988202
0.988176
0.988167
0.988206
0.988163
0.988174
0.988175
0.988461
0.988673
0.988934
0.989248
0.989646
0.990126
0.990606
0.991036
0.991467
0.99196
0.992551
0.993319
0.994256
0.995203
0.995926
0.996282
0.996272
0.995673
0.995186
0.994691
0.994393
0.994224
0.994369
0.995208
0.99612
0.997499
0.998878
0.999577
2.98027e-06
3.20614e-06
3.60954e-06
3.8593e-06
5.0753e-06
6.26932e-06
7.38371e-06
7.85879e-06
8.80207e-06
9.36835e-06
9.64524e-06
9.83253e-06
9.92928e-06
9.97191e-06
9.98461e-06
9.99376e-06
9.99429e-06
9.99479e-06
9.99408e-06
9.9939e-06
9.99387e-06
9.99392e-06
9.99383e-06
9.99368e-06
9.99345e-06
9.99312e-06
9.99269e-06
9.99227e-06
9.99187e-06
9.99138e-06
9.99082e-06
9.99018e-06
9.98939e-06
9.98856e-06
9.98767e-06
9.9869e-06
9.98657e-06
9.98629e-06
9.98631e-06
9.98644e-06
9.98803e-06
9.99702e-06
1.00367e-05
1.02597e-05
1.0999e-05
1.2774e-05
1.80219e-05
2.85838e-05
4.10576e-05
6.44195e-05
0.000108042
0.000120622
0.000121676
0.00012509
0.000127047
0.000124974
0.000117326
0.000122082
0.00011388
0.179657
0.983708
0.993813
0.993984
0.994105
0.994038
0.994032
0.993827
0.993681
0.993561
0.993706
0.994028
0.994409
0.994864
0.995388
0.995977
0.996625
0.997301
0.997988
0.998628
0.999176
0.999559
0.999772
0.999848
0.999859
0.999831
0.999811
0.999798
0.999797
0.999799
0.999797
0.999824
0.999869
0.999915
0.999961
0.999989
0.999997
2.63216e-06
2.93107e-06
3.16974e-06
3.49293e-06
4.72413e-06
6.03412e-06
7.44848e-06
7.89697e-06
8.81124e-06
9.40721e-06
9.66631e-06
9.82645e-06
9.91006e-06
9.95952e-06
9.97492e-06
9.98603e-06
9.9883e-06
9.99012e-06
9.99005e-06
9.99055e-06
9.99097e-06
9.99137e-06
9.99165e-06
9.99185e-06
9.99197e-06
9.99198e-06
9.99185e-06
9.9916e-06
9.99128e-06
9.99095e-06
9.99051e-06
9.98992e-06
9.98918e-06
9.98849e-06
9.98785e-06
9.98741e-06
9.98713e-06
9.98687e-06
9.98665e-06
9.98681e-06
9.98857e-06
9.9979e-06
1.00428e-05
1.03228e-05
1.11684e-05
1.2734e-05
1.67189e-05
2.813e-05
4.1637e-05
4.90488e-05
8.42527e-05
0.000112047
0.000119146
0.000122542
0.000120875
0.000124451
0.000116485
0.000126929
0.00011388
0.11481
0.988931
0.999025
0.999137
0.999208
0.999093
0.99903
0.998864
0.998781
0.998736
0.998732
0.998829
0.99897
0.999132
0.999311
0.999501
0.999679
0.999818
0.999912
0.999965
0.99999
0.999998
0.999999
0.999999
0.999999
0.999999
0.999999
0.999999
1
1
1
0.999999
0.999999
0.999999
0.999999
0.999999
0.999999
2.41857e-06
2.73752e-06
2.75989e-06
2.96469e-06
4.03329e-06
5.45795e-06
7.20792e-06
8.22023e-06
8.89327e-06
9.5046e-06
9.72633e-06
9.83087e-06
9.87937e-06
9.92434e-06
9.95458e-06
9.98106e-06
9.98845e-06
9.99072e-06
9.99061e-06
9.99121e-06
9.99161e-06
9.99199e-06
9.99225e-06
9.99248e-06
9.99262e-06
9.99268e-06
9.9926e-06
9.9924e-06
9.99214e-06
9.9922e-06
9.99221e-06
9.99197e-06
9.99151e-06
9.99122e-06
9.99109e-06
9.99124e-06
9.99111e-06
9.99119e-06
9.99113e-06
9.99153e-06
9.99356e-06
1.00026e-05
1.00642e-05
1.04719e-05
1.16595e-05
1.34258e-05
1.64163e-05
2.54377e-05
4.01807e-05
5.31597e-05
6.38948e-05
8.94968e-05
0.000109296
0.000120114
0.000118672
0.000122331
0.000116483
0.000130044
0.000122243
0.0664565
0.989115
0.999967
0.999977
0.99998
0.999977
0.999977
0.999967
0.999965
0.999967
0.999968
0.999971
0.999977
0.999982
0.999987
0.999992
0.999996
0.999998
0.999999
0.999999
0.999999
0.999999
0.999999
0.999999
0.999999
0.999999
0.999999
0.999999
0.999999
0.999999
1
1
1
1
1
1
1
2.20842e-06
2.66998e-06
2.62911e-06
2.6609e-06
3.32822e-06
4.62524e-06
6.6456e-06
8.49454e-06
8.98751e-06
9.55565e-06
9.76175e-06
9.85593e-06
9.89548e-06
9.93191e-06
9.9677e-06
9.99574e-06
9.99697e-06
9.99645e-06
9.99544e-06
9.99561e-06
9.99576e-06
9.99592e-06
9.99601e-06
9.99605e-06
9.99604e-06
9.99588e-06
9.99559e-06
9.99521e-06
9.99489e-06
9.99481e-06
9.99467e-06
9.99422e-06
9.99353e-06
9.9931e-06
9.99278e-06
9.99264e-06
9.99253e-06
9.99256e-06
9.99261e-06
9.99326e-06
9.99566e-06
1.00064e-05
1.00925e-05
1.06401e-05
1.228e-05
1.49357e-05
1.79428e-05
2.47004e-05
3.71671e-05
5.33109e-05
6.22253e-05
7.13343e-05
9.09388e-05
0.000111444
0.000115017
0.000121143
0.00011676
0.000129901
0.000309962
0.0476488
0.983064
0.999999
0.999999
0.999999
0.999999
0.999999
0.999999
0.999999
0.999999
0.999999
0.999999
0.999999
0.999999
0.999999
0.999999
0.999999
0.999999
0.999999
0.999999
0.999999
0.999999
0.999999
0.999999
0.999999
0.999999
0.999999
0.999999
0.999999
0.999999
1
1
1
1
1
1
1
2.23281e-06
2.76902e-06
2.69954e-06
2.67859e-06
2.97221e-06
4.04988e-06
5.81277e-06
7.91061e-06
9.10434e-06
9.58282e-06
9.7518e-06
9.84818e-06
9.88282e-06
9.9213e-06
9.96255e-06
1.00004e-05
1.0004e-05
1.00027e-05
1.0001e-05
1.00006e-05
1.00005e-05
1.00005e-05
1.00003e-05
1.00002e-05
9.99992e-06
9.9995e-06
9.9989e-06
9.99828e-06
9.99777e-06
9.99737e-06
9.99694e-06
9.99622e-06
9.99516e-06
9.99436e-06
9.99377e-06
9.99326e-06
9.99287e-06
9.99253e-06
9.9924e-06
9.99287e-06
9.99519e-06
1.00076e-05
1.01092e-05
1.06824e-05
1.25684e-05
1.61392e-05
2.03369e-05
2.62567e-05
3.64544e-05
5.00828e-05
6.37196e-05
7.18441e-05
8.03376e-05
9.84765e-05
0.000107686
0.000119211
0.000116156
0.000140024
0.000507898
0.0418081
0.977544
0.999993
0.999999
0.999999
0.999999
0.999999
0.999999
0.999999
0.999999
0.999999
0.999999
0.999999
0.999999
0.999999
0.999999
0.999999
0.999999
0.999999
0.999999
0.999999
0.999999
0.999999
0.999999
0.999999
0.999999
0.999999
0.999999
0.999999
0.999999
0.999999
1
1
1
1
0.999999
1
2.38788e-06
3.33937e-06
3.31868e-06
3.37389e-06
3.20957e-06
3.88919e-06
5.08233e-06
7.18676e-06
9.18631e-06
9.59271e-06
9.73651e-06
9.81895e-06
9.85381e-06
9.89666e-06
9.94723e-06
9.99611e-06
1.00024e-05
1.00012e-05
9.99942e-06
9.99905e-06
9.99891e-06
9.99882e-06
9.99867e-06
9.99844e-06
9.99816e-06
9.99775e-06
9.9972e-06
9.99664e-06
9.99618e-06
9.9958e-06
9.99543e-06
9.99478e-06
9.99403e-06
9.99335e-06
9.9928e-06
9.99235e-06
9.992e-06
9.99175e-06
9.99159e-06
9.99214e-06
9.9945e-06
1.00075e-05
1.01091e-05
1.0706e-05
1.28418e-05
1.71354e-05
2.22674e-05
2.82543e-05
3.65765e-05
4.70844e-05
5.97429e-05
7.46191e-05
8.11178e-05
9.23952e-05
9.99584e-05
0.000114572
0.000114649
0.000133626
0.000831829
0.0321008
0.953633
0.99981
0.999999
0.999999
0.999999
0.999999
0.999999
0.999999
0.999999
0.999999
0.999999
0.999999
0.999999
0.999999
0.999999
0.999999
0.999999
0.999999
0.999999
0.999999
0.999999
0.999999
0.999999
0.999999
0.999999
0.999999
0.999999
0.999999
0.999999
0.999999
0.999999
0.999999
1
0.999999
0.999999
1
1.9781e-06
2.17945e-06
2.15039e-06
3.79681e-06
4.13449e-06
4.20905e-06
5.08081e-06
7.0163e-06
9.30094e-06
9.62445e-06
9.7147e-06
9.77876e-06
9.81772e-06
9.87136e-06
9.94755e-06
1.00063e-05
1.0008e-05
1.0008e-05
1.00071e-05
1.00064e-05
1.0006e-05
1.00058e-05
1.00056e-05
1.00054e-05
1.00051e-05
1.00047e-05
1.00042e-05
1.00037e-05
1.00033e-05
1.00029e-05
1.00025e-05
1.0002e-05
1.00013e-05
1.00007e-05
1.00001e-05
9.99967e-06
9.9993e-06
9.99911e-06
9.99905e-06
9.99974e-06
1.0002e-05
1.00137e-05
1.01034e-05
1.08173e-05
1.39655e-05
2.02604e-05
2.67731e-05
3.25905e-05
3.90312e-05
4.5639e-05
5.93496e-05
8.87162e-05
9.13119e-05
0.00010188
0.000105716
0.00012297
0.000119782
0.000143304
0.00145271
0.0507568
0.922256
0.998902
0.999995
0.999999
0.999999
0.999999
0.999999
0.999999
0.999999
0.999999
0.999999
0.999999
0.999999
0.999999
0.999999
0.999999
0.999999
0.999999
0.999999
0.999999
0.999999
0.999999
0.999999
0.999999
0.999999
0.999999
0.999999
0.999999
0.999999
0.999999
0.999999
0.999999
0.999999
0.999999
0.999999
0.999999
3.43868e-06
4.44958e-06
5.03955e-06
5.60028e-06
6.29397e-06
7.55988e-06
8.52681e-06
9.24387e-06
9.71558e-06
9.86416e-06
9.91282e-06
9.95001e-06
9.98051e-06
1.00004e-05
1.00104e-05
1.00104e-05
1.00104e-05
1.00104e-05
1.00104e-05
1.001e-05
1.00088e-05
1.00077e-05
1.00069e-05
1.00065e-05
1.00065e-05
1.00065e-05
1.00065e-05
1.00065e-05
1.00065e-05
1.00065e-05
1.00064e-05
1.00064e-05
1.00062e-05
1.00059e-05
1.00055e-05
1.00052e-05
1.00048e-05
1.00044e-05
1.0004e-05
1.00053e-05
1.00079e-05
1.00138e-05
1.00317e-05
1.03326e-05
1.23987e-05
1.66369e-05
2.22776e-05
3.04232e-05
5.1579e-05
7.31588e-05
9.64601e-05
0.000112514
0.00011936
0.000122718
0.000123523
0.000124693
0.000123499
0.000138066
0.000741375
0.0435679
0.962266
0.999843
1
1
1
1
1
1
1
0.999999
0.999999
0.999999
0.999999
0.999999
0.999999
0.999999
0.999999
0.999999
0.999999
0.999999
0.999999
1
1
1
1
1
1
0.999999
0.999999
0.999999
0.999999
0.999999
0.999999
0.999999
1
1
2.8285e-06
4.46647e-06
5.73422e-06
6.36991e-06
7.11955e-06
7.96741e-06
8.67542e-06
9.14698e-06
9.44366e-06
9.62393e-06
9.76958e-06
9.88011e-06
9.94673e-06
9.98061e-06
9.99753e-06
1.00066e-05
1.00074e-05
1.00078e-05
1.00074e-05
1.00074e-05
1.00072e-05
1.00074e-05
1.00072e-05
1.00068e-05
1.00063e-05
1.00056e-05
1.00051e-05
1.00047e-05
1.00043e-05
1.00039e-05
1.00035e-05
1.0003e-05
1.00023e-05
1.00014e-05
1.00004e-05
9.99952e-06
9.99874e-06
9.99824e-06
9.99806e-06
1.00009e-05
1.00087e-05
1.00254e-05
1.00838e-05
1.03603e-05
1.14761e-05
1.44867e-05
1.98923e-05
2.88525e-05
4.28078e-05
6.7085e-05
0.000107848
0.000121267
0.000124798
0.000126935
0.000127228
0.000128146
0.00012586
0.000135812
0.000385448
0.0581774
0.988166
0.999984
1
1
1
1
0.999999
0.999999
0.999999
0.999999
0.999999
0.999999
0.999999
0.999999
0.999999
0.999999
0.999999
0.999999
0.999999
0.999999
0.999999
0.999999
0.999999
0.999999
0.999999
0.999999
0.999999
0.999999
0.999999
0.999999
0.999999
0.999999
0.999999
1
1
1
2.46869e-06
3.75462e-06
5.69026e-06
6.41419e-06
7.05929e-06
7.61106e-06
8.27337e-06
8.78335e-06
9.19899e-06
9.48169e-06
9.69015e-06
9.84938e-06
9.93324e-06
9.97295e-06
9.99233e-06
1.00035e-05
1.00041e-05
1.00046e-05
1.00043e-05
1.00043e-05
1.0004e-05
1.00037e-05
1.00033e-05
1.00029e-05
1.00024e-05
1.0002e-05
1.00016e-05
1.00012e-05
1.00008e-05
1.00004e-05
1e-05
9.99947e-06
9.99873e-06
9.99786e-06
9.99699e-06
9.99623e-06
9.99558e-06
9.99513e-06
9.99497e-06
9.99732e-06
1.00031e-05
1.00203e-05
1.00847e-05
1.03782e-05
1.1139e-05
1.2785e-05
1.62023e-05
2.11843e-05
3.52927e-05
9.48821e-05
0.000120766
0.000124017
0.000125291
0.000126542
0.000127865
0.000130091
0.000125168
0.000133438
0.000252386
0.0918473
0.996124
0.999995
0.999996
0.999998
0.999999
0.999999
0.999999
0.999999
0.999999
0.999999
0.999999
0.999999
0.999999
0.999999
0.999999
0.999999
0.999999
0.999999
0.999999
0.999999
0.999999
0.999999
0.999999
0.999999
0.999999
0.999999
0.999999
0.999999
0.999999
0.999999
0.999999
0.999999
0.999999
0.999999
1
1
2.26322e-06
2.94528e-06
4.77448e-06
5.63249e-06
6.38713e-06
7.10804e-06
7.89996e-06
8.53136e-06
9.06616e-06
9.42662e-06
9.66267e-06
9.83934e-06
9.92808e-06
9.96892e-06
9.98883e-06
1.00009e-05
1.00013e-05
1.00016e-05
1.00012e-05
1.00011e-05
1.00008e-05
1.00004e-05
9.99992e-06
9.99948e-06
9.99902e-06
9.99863e-06
9.99824e-06
9.99787e-06
9.99753e-06
9.99719e-06
9.9968e-06
9.99627e-06
9.99559e-06
9.99483e-06
9.99411e-06
9.99349e-06
9.99295e-06
9.99256e-06
9.99236e-06
9.99452e-06
9.99932e-06
1.0015e-05
1.00814e-05
1.04446e-05
1.14119e-05
1.29359e-05
1.57891e-05
1.86085e-05
5.09405e-05
0.000114796
0.000123323
0.000125503
0.0001288
0.000127326
0.000126469
0.000126486
0.000127226
0.000140724
0.000128353
0.11015
0.992173
0.999648
0.999679
0.999734
0.999756
0.999815
0.999862
0.999902
0.999935
0.999958
0.999972
0.999983
0.999991
0.999995
0.999998
0.999999
0.999999
0.999999
0.999999
0.999999
0.999999
0.999998
0.999998
0.999999
0.999999
0.999999
0.999999
0.999999
0.999999
0.999999
0.999999
0.999999
0.999999
0.999999
0.999999
1
2.13973e-06
2.34343e-06
4.04879e-06
5.0945e-06
5.90189e-06
6.7545e-06
7.67129e-06
8.38453e-06
8.99347e-06
9.40119e-06
9.65049e-06
9.83529e-06
9.92572e-06
9.96669e-06
9.98692e-06
9.99966e-06
9.99988e-06
1.00002e-05
9.99972e-06
9.99952e-06
9.99925e-06
9.99885e-06
9.99835e-06
9.99788e-06
9.99742e-06
9.99703e-06
9.99668e-06
9.99634e-06
9.99604e-06
9.9957e-06
9.99533e-06
9.99482e-06
9.99418e-06
9.99348e-06
9.99282e-06
9.99225e-06
9.99177e-06
9.99142e-06
9.99118e-06
9.99313e-06
9.9976e-06
1.00131e-05
1.00826e-05
1.04965e-05
1.16609e-05
1.36415e-05
1.68537e-05
2.14962e-05
7.93601e-05
0.000122218
0.000124729
0.000134649
0.000139541
0.000132115
0.000131173
0.000131137
0.000132492
0.000132317
0.000113881
0.127405
0.980685
0.996456
0.996317
0.996586
0.996806
0.997224
0.997606
0.998
0.998358
0.99867
0.998911
0.999117
0.999305
0.999488
0.99965
0.999771
0.999825
0.999826
0.999803
0.999786
0.999775
0.999801
0.999836
0.999869
0.999906
0.999948
0.999978
0.999994
0.999998
0.999999
0.999999
0.999999
0.999999
0.999999
0.999999
1
2.0665e-06
1.95533e-06
3.33009e-06
4.60853e-06
5.52132e-06
6.52186e-06
7.54827e-06
8.30871e-06
8.96079e-06
9.39186e-06
9.64648e-06
9.83426e-06
9.92465e-06
9.96515e-06
9.98534e-06
9.99866e-06
9.9988e-06
9.999e-06
9.99849e-06
9.99824e-06
9.99795e-06
9.99755e-06
9.99703e-06
9.99655e-06
9.9961e-06
9.99574e-06
9.99542e-06
9.99512e-06
9.99488e-06
9.99461e-06
9.9943e-06
9.99386e-06
9.99328e-06
9.99265e-06
9.99206e-06
9.99153e-06
9.99112e-06
9.99088e-06
9.9907e-06
9.99249e-06
9.99724e-06
1.00138e-05
1.0093e-05
1.05368e-05
1.18054e-05
1.40653e-05
1.76734e-05
2.48969e-05
9.59452e-05
0.000123396
0.000132167
0.00014838
0.000153582
0.000147891
0.000146569
0.000148322
0.000148683
0.000138457
0.00011388
0.165732
0.977467
0.9901
0.989062
0.988959
0.989313
0.989385
0.989384
0.98976
0.990096
0.990457
0.990827
0.991231
0.991638
0.992146
0.992826
0.993606
0.994176
0.994295
0.99365
0.993272
0.992936
0.992799
0.99317
0.994173
0.995232
0.996376
0.997584
0.998853
0.999546
0.999874
0.999987
1
1
1
0.999999
1
2.03785e-06
1.72821e-06
2.65049e-06
3.91332e-06
5.18655e-06
6.34485e-06
7.47913e-06
8.27009e-06
8.94723e-06
9.38867e-06
9.64509e-06
9.83394e-06
9.92427e-06
9.96432e-06
9.98445e-06
9.99817e-06
9.99831e-06
9.99847e-06
9.99797e-06
9.99773e-06
9.99749e-06
9.99711e-06
9.99658e-06
9.99613e-06
9.99571e-06
9.99536e-06
9.99507e-06
9.99479e-06
9.99458e-06
9.99434e-06
9.99405e-06
9.99364e-06
9.99308e-06
9.99246e-06
9.99188e-06
9.99137e-06
9.99103e-06
9.99083e-06
9.99071e-06
9.99241e-06
9.99759e-06
1.00148e-05
1.00948e-05
1.0548e-05
1.18693e-05
1.43239e-05
1.82541e-05
2.62464e-05
8.27474e-05
0.000124133
0.000138475
0.000158382
0.000162656
0.000161424
0.000155462
0.000152157
0.000148431
0.00015334
0.000119891
0.270521
0.973525
0.983527
0.981911
0.981625
0.981946
0.980715
0.979644
0.978804
0.978079
0.977311
0.976307
0.975302
0.974379
0.973614
0.972921
0.971921
0.970865
0.970135
0.969486
0.968872
0.968443
0.967796
0.967098
0.966393
0.966046
0.967781
0.971003
0.976066
0.981989
0.988456
0.994157
0.997114
0.996105
0.995242
0.994176
0.993258
2.07165e-06
1.59997e-06
2.1138e-06
3.13982e-06
4.70473e-06
6.11036e-06
7.42467e-06
8.24708e-06
8.94115e-06
9.3876e-06
9.64753e-06
9.836e-06
9.92582e-06
9.9641e-06
9.98395e-06
9.99767e-06
9.99786e-06
9.99813e-06
9.99781e-06
9.99769e-06
9.99762e-06
9.99765e-06
9.99727e-06
9.99691e-06
9.99659e-06
9.9963e-06
9.99599e-06
9.99567e-06
9.99538e-06
9.9951e-06
9.99472e-06
9.99418e-06
9.99347e-06
9.99272e-06
9.99198e-06
9.99145e-06
9.99118e-06
9.99095e-06
9.99073e-06
9.99215e-06
9.99739e-06
1.00137e-05
1.00896e-05
1.05379e-05
1.19224e-05
1.45702e-05
1.86406e-05
2.52817e-05
3.99115e-05
0.0001059
0.000136839
0.000157862
0.00016288
0.000157099
0.000144488
0.000133365
0.000122827
0.000139482
0.00011388
0.371462
0.972557
0.979083
0.978018
0.977444
0.977312
0.975807
0.974619
0.973994
0.973292
0.972396
0.971169
0.969721
0.968364
0.967222
0.965966
0.964312
0.96229
0.960239
0.958533
0.957046
0.955641
0.953993
0.951786
0.948039
0.94327
0.937295
0.930325
0.923833
0.918019
0.911529
0.903085
0.891539
0.876647
0.853517
0.8017
0.601938
2.07485e-06
1.52953e-06
1.74216e-06
2.444e-06
3.96127e-06
5.70339e-06
7.3258e-06
8.23382e-06
8.93909e-06
9.39685e-06
9.65551e-06
9.84167e-06
9.92973e-06
9.9661e-06
9.98543e-06
9.99958e-06
9.99962e-06
9.99967e-06
9.99931e-06
9.99911e-06
9.99894e-06
9.99884e-06
9.99853e-06
9.99821e-06
9.99789e-06
9.99761e-06
9.99734e-06
9.99705e-06
9.99681e-06
9.99659e-06
9.99626e-06
9.99579e-06
9.99517e-06
9.99449e-06
9.99379e-06
9.99322e-06
9.99284e-06
9.99257e-06
9.99245e-06
9.99406e-06
9.9998e-06
1.00158e-05
1.00894e-05
1.05379e-05
1.19853e-05
1.47763e-05
1.91016e-05
2.54907e-05
3.65725e-05
5.24492e-05
0.000122151
0.000148465
0.000159471
0.000158849
0.000138535
0.000127533
0.00011899
0.000132315
0.000117442
0.291716
0.983401
0.991517
0.992159
0.992615
0.992972
0.993085
0.993456
0.99382
0.994137
0.994407
0.994761
0.995069
0.99541
0.995929
0.996364
0.9967
0.996845
0.996879
0.996608
0.996417
0.996177
0.995931
0.995523
0.994875
0.993546
0.991458
0.989016
0.98613
0.982934
0.980446
0.979276
0.979073
0.980723
0.981812
0.984184
0.988731
1.9781e-06
1.50002e-06
1.52703e-06
1.92649e-06
3.07018e-06
5.08099e-06
7.20766e-06
8.23619e-06
8.97157e-06
9.41304e-06
9.66497e-06
9.85134e-06
9.9354e-06
9.96742e-06
9.98658e-06
1.00012e-05
1.00011e-05
1.00012e-05
1.0001e-05
1.00009e-05
1.00008e-05
1.00007e-05
1.00005e-05
1.00002e-05
9.99986e-06
9.99955e-06
9.99923e-06
9.99892e-06
9.99861e-06
9.99835e-06
9.99798e-06
9.99746e-06
9.99674e-06
9.99595e-06
9.99514e-06
9.99442e-06
9.99385e-06
9.9933e-06
9.99314e-06
9.99484e-06
1.00006e-05
1.0016e-05
1.00901e-05
1.0559e-05
1.20563e-05
1.50787e-05
1.97079e-05
2.66344e-05
3.6032e-05
5.01031e-05
8.01084e-05
0.000117478
0.000140942
0.000153463
0.000152155
0.000149976
0.000128841
0.000129045
0.00011388
0.160223
0.986317
0.99579
0.995863
0.996091
0.996299
0.996718
0.99722
0.997707
0.998132
0.998487
0.998829
0.999123
0.999375
0.999592
0.999732
0.99977
0.999767
0.999771
0.999776
0.99977
0.999763
0.999759
0.999748
0.99972
0.999662
0.999591
0.999547
0.999543
0.999627
0.999735
0.999833
0.999916
0.999976
0.999998
0.999998
1
1.90111e-06
1.49111e-06
1.43425e-06
1.64795e-06
2.43538e-06
4.29522e-06
6.84321e-06
8.23301e-06
9.00668e-06
9.43323e-06
9.68031e-06
9.86115e-06
9.9391e-06
9.96589e-06
9.98539e-06
1.00013e-05
1.00013e-05
1.00013e-05
1.00013e-05
1.00013e-05
1.00013e-05
1.00013e-05
1.00011e-05
1.00009e-05
1.00006e-05
1.00003e-05
9.99997e-06
9.99967e-06
9.99936e-06
9.99913e-06
9.9988e-06
9.99828e-06
9.99753e-06
9.99677e-06
9.99603e-06
9.9954e-06
9.99488e-06
9.99457e-06
9.99413e-06
9.99568e-06
1.00014e-05
1.00166e-05
1.00941e-05
1.05837e-05
1.22037e-05
1.55307e-05
2.07751e-05
2.80413e-05
3.73026e-05
5.10991e-05
6.28605e-05
8.02867e-05
0.000108674
0.000126924
0.000134434
0.000132945
0.000121014
0.000127907
0.00011388
0.0985454
0.990755
0.998994
0.999033
0.999189
0.999254
0.99935
0.999369
0.999453
0.999555
0.999648
0.999724
0.999794
0.999861
0.999918
0.999956
0.99998
0.999991
0.999996
0.999997
0.999998
0.999998
0.999998
0.999998
0.999998
0.999997
0.999997
0.999997
0.999999
0.999999
0.999999
0.999999
0.999999
1
1
1
1
1.82483e-06
1.4902e-06
1.40074e-06
1.49867e-06
2.0462e-06
3.71248e-06
6.20921e-06
8.15882e-06
9.05615e-06
9.46567e-06
9.70164e-06
9.87147e-06
9.94108e-06
9.96304e-06
9.97968e-06
1.00013e-05
1.00013e-05
1.00013e-05
1.00013e-05
1.00013e-05
1.00013e-05
1.00013e-05
1.0001e-05
1.00008e-05
1.00005e-05
1.00002e-05
9.99997e-06
9.99969e-06
9.9994e-06
9.99912e-06
9.99878e-06
9.99818e-06
9.99732e-06
9.99635e-06
9.99552e-06
9.99485e-06
9.9945e-06
9.99452e-06
9.99406e-06
9.99566e-06
1.00012e-05
1.00165e-05
1.01015e-05
1.06648e-05
1.25466e-05
1.63692e-05
2.24275e-05
2.98631e-05
3.88586e-05
5.15577e-05
6.61922e-05
7.24034e-05
8.77344e-05
0.000106313
0.000111665
0.000117303
0.00011607
0.000129718
0.000148052
0.0736334
0.991102
0.999936
0.999933
0.99996
0.999967
0.999984
0.999986
0.999986
0.999988
0.999991
0.999993
0.999995
0.999997
0.999998
0.999999
0.999999
0.999999
0.999999
0.999999
0.999999
0.999999
0.999999
0.999999
0.999999
0.999999
0.999999
0.999999
0.999999
0.999999
0.999999
0.999999
0.999999
1
1
1
1
1.83322e-06
1.61811e-06
1.43318e-06
1.45019e-06
1.56764e-06
2.56895e-06
4.79984e-06
7.53371e-06
9.08003e-06
9.5049e-06
9.72088e-06
9.87546e-06
9.93426e-06
9.9509e-06
9.97361e-06
1.00013e-05
1.00013e-05
1.00013e-05
1.00013e-05
1.00013e-05
1.00013e-05
1.00013e-05
1.00011e-05
1.00009e-05
1.00007e-05
1.00004e-05
1.00001e-05
9.99984e-06
9.99952e-06
9.99917e-06
9.99881e-06
9.99798e-06
9.99686e-06
9.99561e-06
9.99466e-06
9.99388e-06
9.99315e-06
9.99256e-06
9.99287e-06
9.9944e-06
9.99962e-06
1.00171e-05
1.01184e-05
1.08244e-05
1.31676e-05
1.76473e-05
2.4096e-05
3.17187e-05
4.02769e-05
5.19826e-05
6.36541e-05
7.56526e-05
8.40001e-05
0.000100489
0.000106074
0.000111724
0.000116109
0.000172858
0.000332236
0.0380472
0.977911
0.999999
0.999997
0.999999
0.999999
0.999999
0.999999
0.999999
0.999999
0.999999