/*--------------------------------*- C++ -*----------------------------------*\
| =========                 |                                                 |
| \\      /  F ield         | OpenFOAM: The Open Source CFD Toolbox           |
|  \\    /   O peration     | Version:  2.3.0                                 |
|   \\  /    A nd           | Web:      www.OpenFOAM.org                      |
|    \\/     M anipulation  |                                                 |
\*---------------------------------------------------------------------------*/
FoamFile
{
    version     2.0;
    format      ascii;
    class       volScalarField;
    location    "40";
    object      alpha.airMean;
}
// * * * * * * * * * * * * * * * * * * * * * * * * * * * * * * * * * * * * * //

dimensions      [0 0 0 0 0 0 0];

internalField   nonuniform List<scalar> 
6144
(
0.999993
0.999993
0.999992
0.999992
0.999992
0.999991
0.999991
0.99999
0.99999
0.99999
0.99999
0.99999
0.99999
0.99999
0.99999
0.99999
0.99999
0.99999
0.99999
0.99999
0.99999
0.99999
0.99999
0.99999
0.99999
0.99999
0.99999
0.99999
0.99999
0.99999
0.99999
0.99999
0.99999
0.99999
0.99999
0.99999
0.99999
0.99999
0.99999
0.99999
0.99999
0.99999
0.99999
0.99999
0.99999
0.999989
0.999986
0.999979
0.999967
0.999952
0.999938
0.999925
0.999919
0.999913
0.999909
0.999903
0.999901
0.999894
0.998719
0.935816
0.0369787
0.000242393
1.10482e-06
7.84979e-07
7.83397e-07
7.77041e-07
7.77529e-07
7.72391e-07
7.73503e-07
7.70366e-07
7.70347e-07
7.67729e-07
7.65284e-07
7.62187e-07
7.5929e-07
7.56204e-07
7.54632e-07
7.5286e-07
7.50225e-07
7.44593e-07
7.36539e-07
7.28436e-07
7.21464e-07
7.13496e-07
7.01588e-07
6.82676e-07
6.64832e-07
6.50006e-07
6.30679e-07
6.0215e-07
5.7132e-07
5.45045e-07
5.09125e-07
4.69247e-07
4.28912e-07
4.08986e-07
0.999994
0.999993
0.999992
0.999992
0.999991
0.999991
0.999991
0.99999
0.99999
0.99999
0.99999
0.99999
0.99999
0.99999
0.99999
0.99999
0.99999
0.99999
0.99999
0.99999
0.99999
0.99999
0.99999
0.99999
0.99999
0.99999
0.99999
0.99999
0.99999
0.99999
0.99999
0.99999
0.99999
0.99999
0.99999
0.99999
0.99999
0.99999
0.99999
0.99999
0.99999
0.99999
0.99999
0.99999
0.99999
0.999989
0.999985
0.999979
0.99997
0.999959
0.99994
0.999923
0.999915
0.999907
0.999903
0.999896
0.999895
0.999886
0.999384
0.950375
0.0313291
0.000130281
8.52373e-07
8.19327e-07
8.12127e-07
8.0972e-07
8.09755e-07
8.07918e-07
8.08176e-07
7.99357e-07
7.96021e-07
7.88583e-07
7.85559e-07
7.81645e-07
7.7862e-07
7.75497e-07
7.73844e-07
7.71223e-07
7.65716e-07
7.57219e-07
7.46752e-07
7.35999e-07
7.24067e-07
7.12384e-07
6.98069e-07
6.8143e-07
6.67369e-07
6.57435e-07
6.46641e-07
6.28657e-07
6.05463e-07
5.73155e-07
5.35815e-07
5.03265e-07
4.65105e-07
4.2496e-07
0.999994
0.999993
0.999993
0.999992
0.999992
0.999991
0.999991
0.99999
0.99999
0.99999
0.99999
0.99999
0.99999
0.99999
0.99999
0.99999
0.99999
0.99999
0.99999
0.99999
0.99999
0.99999
0.99999
0.99999
0.99999
0.99999
0.99999
0.99999
0.99999
0.99999
0.99999
0.99999
0.99999
0.99999
0.99999
0.99999
0.99999
0.99999
0.99999
0.99999
0.99999
0.99999
0.99999
0.99999
0.99999
0.999989
0.999985
0.99998
0.999972
0.999958
0.999934
0.999916
0.999907
0.999898
0.999894
0.999888
0.99989
0.99988
0.99958
0.941662
0.0271268
8.43197e-05
1.59995e-06
1.62393e-06
1.59421e-06
1.55208e-06
1.38668e-06
1.20196e-06
1.02889e-06
9.0826e-07
8.56488e-07
8.32346e-07
8.20258e-07
8.0951e-07
8.07226e-07
8.02659e-07
7.98369e-07
7.91287e-07
7.80464e-07
7.69092e-07
7.57998e-07
7.44227e-07
7.28929e-07
7.12002e-07
6.96881e-07
6.84078e-07
6.7527e-07
6.7172e-07
6.64858e-07
6.50169e-07
6.3155e-07
5.99645e-07
5.5581e-07
5.19145e-07
4.8599e-07
4.37185e-07
0.999994
0.999994
0.999993
0.999992
0.999992
0.999991
0.999991
0.99999
0.99999
0.99999
0.99999
0.99999
0.99999
0.99999
0.99999
0.99999
0.99999
0.99999
0.99999
0.99999
0.99999
0.99999
0.99999
0.99999
0.99999
0.99999
0.99999
0.99999
0.99999
0.99999
0.99999
0.99999
0.99999
0.99999
0.99999
0.99999
0.99999
0.99999
0.99999
0.99999
0.99999
0.99999
0.99999
0.99999
0.99999
0.999988
0.999985
0.99998
0.999971
0.999953
0.999927
0.999909
0.999899
0.999891
0.999888
0.999883
0.999885
0.999872
0.999688
0.917681
0.0219745
7.15225e-05
2.94439e-05
2.65992e-05
2.56229e-05
2.40503e-05
2.13371e-05
1.73345e-05
1.28178e-05
8.5245e-06
5.23283e-06
3.03754e-06
1.84858e-06
1.33153e-06
1.14172e-06
1.03626e-06
9.42224e-07
8.6551e-07
8.12993e-07
7.83103e-07
7.73308e-07
7.63694e-07
7.52457e-07
7.39579e-07
7.35986e-07
7.40155e-07
7.36681e-07
7.32886e-07
7.18207e-07
6.8872e-07
6.64344e-07
6.32138e-07
5.81736e-07
5.37739e-07
5.02548e-07
4.48783e-07
0.999994
0.999994
0.999993
0.999993
0.999992
0.999992
0.999991
0.999991
0.99999
0.99999
0.99999
0.99999
0.99999
0.99999
0.99999
0.99999
0.99999
0.99999
0.99999
0.99999
0.99999
0.99999
0.99999
0.99999
0.99999
0.99999
0.99999
0.99999
0.99999
0.99999
0.99999
0.99999
0.99999
0.99999
0.99999
0.99999
0.99999
0.99999
0.99999
0.99999
0.99999
0.99999
0.99999
0.99999
0.999989
0.999988
0.999985
0.999979
0.999968
0.999947
0.999921
0.999902
0.999893
0.999887
0.999883
0.999879
0.99988
0.999866
0.999726
0.886465
0.0231083
0.000492694
0.000444065
0.000391295
0.000374638
0.000348536
0.000315924
0.000274254
0.000232676
0.000190494
0.000150485
0.000115736
8.73723e-05
6.655e-05
5.2998e-05
4.41077e-05
3.77167e-05
3.27685e-05
2.88735e-05
2.58605e-05
2.38072e-05
2.24438e-05
2.14102e-05
1.97923e-05
1.88337e-05
1.77533e-05
1.61614e-05
1.39231e-05
1.14421e-05
8.33814e-06
5.01766e-06
2.6997e-06
1.37951e-06
7.68791e-07
5.66347e-07
4.86157e-07
0.999994
0.999994
0.999993
0.999993
0.999993
0.999992
0.999991
0.999991
0.99999
0.99999
0.99999
0.99999
0.99999
0.99999
0.99999
0.99999
0.99999
0.99999
0.99999
0.99999
0.99999
0.99999
0.99999
0.99999
0.99999
0.99999
0.99999
0.99999
0.99999
0.99999
0.99999
0.99999
0.99999
0.99999
0.99999
0.99999
0.99999
0.99999
0.99999
0.99999
0.99999
0.99999
0.99999
0.99999
0.999989
0.999987
0.999984
0.999978
0.999966
0.999944
0.999916
0.999898
0.99989
0.999884
0.999882
0.999881
0.999884
0.999866
0.999765
0.843639
0.023209
0.00261945
0.00268286
0.00254927
0.00252577
0.00242154
0.00230845
0.00216929
0.00202983
0.0018847
0.0017327
0.00158141
0.00143192
0.00129007
0.00116275
0.00105327
0.00096341
0.000889378
0.000826503
0.000768687
0.000708491
0.000648412
0.000588012
0.000535911
0.000498399
0.000475198
0.00045258
0.000420856
0.000373812
0.000307375
0.000231112
0.000156816
9.35039e-05
4.61475e-05
1.75617e-05
6.83425e-06
0.999994
0.999994
0.999994
0.999993
0.999993
0.999992
0.999992
0.999991
0.999991
0.99999
0.99999
0.99999
0.99999
0.99999
0.99999
0.99999
0.99999
0.99999
0.99999
0.99999
0.99999
0.99999
0.99999
0.99999
0.99999
0.99999
0.99999
0.99999
0.99999
0.99999
0.99999
0.99999
0.99999
0.99999
0.99999
0.99999
0.99999
0.99999
0.99999
0.99999
0.99999
0.99999
0.99999
0.99999
0.999989
0.999987
0.999984
0.999977
0.999965
0.999941
0.999913
0.999896
0.999888
0.999885
0.999884
0.999883
0.999886
0.999877
0.99983
0.795271
0.0255115
0.00695571
0.00732077
0.00722812
0.00717714
0.00705312
0.00691827
0.00678645
0.00665112
0.00650017
0.00634756
0.00616371
0.00598072
0.00577757
0.00556744
0.00534281
0.00513166
0.00491559
0.00470819
0.00449265
0.00427632
0.00405771
0.00384743
0.00364883
0.00346018
0.00327218
0.00308127
0.00286256
0.00259728
0.0023098
0.00199414
0.00167094
0.00134131
0.000987339
0.000607389
0.000319373
0.999994
0.999994
0.999994
0.999994
0.999993
0.999992
0.999992
0.999991
0.999991
0.99999
0.99999
0.99999
0.99999
0.99999
0.99999
0.99999
0.99999
0.99999
0.99999
0.99999
0.99999
0.99999
0.99999
0.99999
0.99999
0.99999
0.99999
0.99999
0.99999
0.99999
0.99999
0.99999
0.99999
0.99999
0.99999
0.99999
0.99999
0.99999
0.99999
0.99999
0.99999
0.99999
0.99999
0.99999
0.999989
0.999988
0.999984
0.999976
0.999962
0.999939
0.999911
0.999895
0.999889
0.999887
0.999889
0.999889
0.999891
0.99988
0.999813
0.778488
0.0281009
0.010778
0.0114083
0.0114327
0.0113625
0.0113088
0.011262
0.0112703
0.0112864
0.0113144
0.0113584
0.0113916
0.0114076
0.0114036
0.0113862
0.0113552
0.0113093
0.0112405
0.0111617
0.0111017
0.0110815
0.0111298
0.0112666
0.0114979
0.0117858
0.0121088
0.0124288
0.0127396
0.0130375
0.0133238
0.0135113
0.0135542
0.0133227
0.0126634
0.0112419
0.00918724
0.999995
0.999994
0.999994
0.999994
0.999993
0.999993
0.999992
0.999991
0.999991
0.999991
0.99999
0.99999
0.99999
0.99999
0.99999
0.99999
0.99999
0.99999
0.99999
0.99999
0.99999
0.99999
0.99999
0.99999
0.99999
0.99999
0.99999
0.99999
0.99999
0.99999
0.99999
0.99999
0.99999
0.99999
0.99999
0.99999
0.99999
0.99999
0.99999
0.99999
0.99999
0.99999
0.99999
0.99999
0.999989
0.999988
0.999983
0.999975
0.999961
0.999941
0.999915
0.999898
0.999892
0.99989
0.999891
0.999891
0.999894
0.999884
0.999803
0.840853
0.0264491
0.00630498
0.00615813
0.00556139
0.00523259
0.00499628
0.00487634
0.00479903
0.00476725
0.00475759
0.00477743
0.00479875
0.0048242
0.0048459
0.00486791
0.00488731
0.00490339
0.0049066
0.00488968
0.0048556
0.00481589
0.00475997
0.004697
0.00462113
0.00453634
0.00446503
0.00440586
0.00435324
0.00428252
0.00418121
0.00403344
0.00373855
0.00325995
0.00257748
0.00164018
0.000849053
0.999995
0.999994
0.999994
0.999994
0.999993
0.999993
0.999992
0.999991
0.999991
0.999991
0.99999
0.99999
0.99999
0.99999
0.99999
0.99999
0.99999
0.99999
0.99999
0.99999
0.99999
0.99999
0.99999
0.99999
0.99999
0.99999
0.99999
0.99999
0.99999
0.99999
0.99999
0.99999
0.99999
0.99999
0.99999
0.99999
0.99999
0.99999
0.99999
0.99999
0.99999
0.99999
0.99999
0.99999
0.999989
0.999987
0.999983
0.999976
0.999964
0.999948
0.999923
0.999904
0.999896
0.999891
0.999892
0.99989
0.999896
0.999887
0.999862
0.9033
0.0218198
0.00173419
0.00149967
0.00116859
0.00104804
0.000972843
0.000955868
0.000940051
0.000941501
0.000941369
0.000943385
0.000939674
0.000935742
0.000929294
0.000922356
0.000913293
0.000905659
0.00090107
0.0009132
0.000937872
0.000973299
0.00101848
0.00105996
0.00108688
0.00110045
0.00110874
0.00110875
0.00109726
0.00106775
0.00100068
0.000886644
0.000719351
0.000516902
0.00030355
0.000135452
5.90282e-05
0.999996
0.999995
0.999994
0.999994
0.999993
0.999993
0.999992
0.999991
0.999991
0.99999
0.99999
0.99999
0.99999
0.99999
0.99999
0.99999
0.99999
0.99999
0.99999
0.99999
0.99999
0.99999
0.99999
0.99999
0.99999
0.99999
0.99999
0.99999
0.99999
0.99999
0.99999
0.99999
0.99999
0.99999
0.99999
0.99999
0.99999
0.99999
0.99999
0.99999
0.99999
0.99999
0.99999
0.99999
0.999989
0.999987
0.999983
0.999976
0.999966
0.999953
0.999933
0.999913
0.999903
0.999895
0.999894
0.999891
0.999897
0.999886
0.999869
0.943466
0.0233341
0.000218589
0.000131178
8.77509e-05
8.04763e-05
7.69459e-05
8.0421e-05
8.20417e-05
8.29048e-05
8.29475e-05
8.24928e-05
8.0677e-05
7.80399e-05
7.42723e-05
7.01154e-05
6.54885e-05
6.1671e-05
5.96196e-05
6.10048e-05
6.52677e-05
7.17844e-05
7.89791e-05
8.546e-05
9.06662e-05
9.5211e-05
9.94893e-05
0.000103528
0.000104443
9.94352e-05
8.84993e-05
7.08186e-05
4.84944e-05
2.75825e-05
1.20467e-05
4.51535e-06
2.14611e-06
0.999996
0.999995
0.999995
0.999994
0.999994
0.999993
0.999992
0.999991
0.999991
0.99999
0.99999
0.99999
0.99999
0.99999
0.99999
0.99999
0.99999
0.99999
0.99999
0.99999
0.99999
0.99999
0.99999
0.99999
0.99999
0.99999
0.99999
0.99999
0.99999
0.99999
0.99999
0.99999
0.99999
0.99999
0.99999
0.99999
0.99999
0.99999
0.99999
0.99999
0.99999
0.99999
0.99999
0.99999
0.999989
0.999987
0.999984
0.999977
0.999968
0.999955
0.999939
0.999923
0.999911
0.999901
0.999899
0.999894
0.999899
0.999885
0.999822
0.966601
0.0352145
9.18363e-05
3.29952e-06
2.14615e-06
2.19135e-06
2.30726e-06
2.55846e-06
2.67996e-06
2.61998e-06
2.64844e-06
2.66791e-06
2.58862e-06
2.42139e-06
2.20979e-06
1.98424e-06
1.77791e-06
1.64485e-06
1.57109e-06
1.60808e-06
1.71196e-06
1.88447e-06
2.12172e-06
2.39884e-06
2.67787e-06
2.94525e-06
3.19747e-06
3.39268e-06
3.36315e-06
3.04608e-06
2.59041e-06
2.03973e-06
1.44503e-06
9.67061e-07
6.86365e-07
5.64282e-07
4.75694e-07
0.999996
0.999996
0.999995
0.999995
0.999994
0.999993
0.999992
0.999991
0.999991
0.99999
0.99999
0.99999
0.99999
0.99999
0.99999
0.99999
0.99999
0.99999
0.99999
0.99999
0.99999
0.99999
0.99999
0.99999
0.99999
0.99999
0.99999
0.99999
0.99999
0.99999
0.99999
0.99999
0.99999
0.99999
0.99999
0.99999
0.99999
0.99999
0.99999
0.99999
0.99999
0.99999
0.99999
0.99999
0.999989
0.999988
0.999984
0.999978
0.999968
0.999956
0.999941
0.999929
0.999919
0.999908
0.999904
0.999898
0.999901
0.999882
0.999735
0.974247
0.0494037
0.000172689
9.7722e-07
8.99388e-07
8.90291e-07
8.89117e-07
8.84327e-07
8.79371e-07
8.73181e-07
8.6706e-07
8.62656e-07
8.56632e-07
8.51952e-07
8.44847e-07
8.34631e-07
8.24381e-07
8.20396e-07
8.1786e-07
8.12652e-07
8.07587e-07
8.04727e-07
8.03974e-07
7.98431e-07
7.88826e-07
7.76085e-07
7.60292e-07
7.44914e-07
7.28682e-07
7.04914e-07
6.79107e-07
6.57181e-07
6.27601e-07
5.8755e-07
5.58223e-07
5.14321e-07
4.43669e-07
0.999997
0.999996
0.999996
0.999996
0.999995
0.999994
0.999993
0.999991
0.999991
0.99999
0.99999
0.99999
0.99999
0.99999
0.99999
0.99999
0.99999
0.99999
0.99999
0.99999
0.99999
0.99999
0.99999
0.99999
0.99999
0.99999
0.99999
0.99999
0.99999
0.99999
0.99999
0.99999
0.99999
0.99999
0.99999
0.99999
0.99999
0.99999
0.99999
0.99999
0.99999
0.99999
0.99999
0.99999
0.999989
0.999988
0.999985
0.999979
0.999969
0.999956
0.999942
0.99993
0.999922
0.999912
0.999907
0.999901
0.9999
0.999872
0.999656
0.971103
0.0592325
0.000319438
1.21887e-06
8.78506e-07
8.68555e-07
8.68446e-07
8.70176e-07
8.65629e-07
8.61424e-07
8.55673e-07
8.51075e-07
8.43793e-07
8.38061e-07
8.31378e-07
8.24797e-07
8.1839e-07
8.12654e-07
8.08893e-07
8.04626e-07
8.00323e-07
7.96569e-07
7.95042e-07
7.93128e-07
7.88374e-07
7.79803e-07
7.66332e-07
7.46596e-07
7.24214e-07
6.93094e-07
6.56965e-07
6.29124e-07
6.09227e-07
5.82352e-07
5.59223e-07
5.19181e-07
4.44605e-07
0.999997
0.999996
0.999996
0.999996
0.999996
0.999995
0.999994
0.999992
0.999991
0.99999
0.99999
0.99999
0.99999
0.99999
0.99999
0.99999
0.99999
0.99999
0.99999
0.99999
0.99999
0.99999
0.99999
0.99999
0.99999
0.99999
0.99999
0.99999
0.99999
0.99999
0.99999
0.99999
0.99999
0.99999
0.99999
0.99999
0.99999
0.99999
0.99999
0.99999
0.99999
0.99999
0.99999
0.99999
0.999989
0.999988
0.999985
0.999979
0.99997
0.999956
0.999942
0.99993
0.999923
0.999915
0.999909
0.999902
0.999897
0.999871
0.999593
0.965203
0.0590317
0.000306322
1.15595e-06
8.66929e-07
8.58802e-07
8.52349e-07
8.50478e-07
8.46494e-07
8.44875e-07
8.39503e-07
8.37445e-07
8.32601e-07
8.27653e-07
8.22507e-07
8.17198e-07
8.11267e-07
8.05683e-07
8.0297e-07
8.00305e-07
7.96998e-07
7.93076e-07
7.88806e-07
7.85418e-07
7.82362e-07
7.77876e-07
7.69525e-07
7.55122e-07
7.33464e-07
7.01311e-07
6.60809e-07
6.27269e-07
6.01651e-07
5.78181e-07
5.50094e-07
5.05852e-07
4.41739e-07
0.999998
0.999997
0.999997
0.999996
0.999996
0.999995
0.999995
0.999993
0.999991
0.99999
0.99999
0.99999
0.99999
0.99999
0.99999
0.99999
0.99999
0.99999
0.99999
0.99999
0.99999
0.99999
0.99999
0.99999
0.99999
0.99999
0.99999
0.99999
0.99999
0.99999
0.99999
0.99999
0.99999
0.99999
0.99999
0.99999
0.99999
0.99999
0.99999
0.99999
0.99999
0.99999
0.99999
0.99999
0.999989
0.999988
0.999985
0.99998
0.99997
0.999956
0.999941
0.999929
0.999923
0.999917
0.999913
0.999902
0.9999
0.999877
0.999269
0.955922
0.0641319
0.000578039
1.8981e-06
8.63329e-07
8.59604e-07
8.51976e-07
8.4765e-07
8.41486e-07
8.4028e-07
8.35289e-07
8.32406e-07
8.28144e-07
8.24273e-07
8.20532e-07
8.16792e-07
8.12886e-07
8.0887e-07
8.04984e-07
8.01373e-07
7.98573e-07
7.94631e-07
7.89152e-07
7.84948e-07
7.81256e-07
7.76994e-07
7.72154e-07
7.6344e-07
7.46673e-07
7.18844e-07
6.8079e-07
6.3734e-07
5.96886e-07
5.64221e-07
5.221e-07
4.80607e-07
4.29206e-07
0.999993
0.999993
0.999992
0.999992
0.999992
0.999991
0.999991
0.99999
0.99999
0.99999
0.99999
0.99999
0.99999
0.99999
0.99999
0.99999
0.99999
0.99999
0.99999
0.99999
0.99999
0.99999
0.99999
0.99999
0.99999
0.99999
0.99999
0.99999
0.99999
0.99999
0.99999
0.99999
0.99999
0.99999
0.99999
0.99999
0.99999
0.99999
0.99999
0.99999
0.99999
0.99999
0.99999
0.99999
0.99999
0.999989
0.999986
0.999979
0.999968
0.999952
0.999939
0.999927
0.99992
0.999915
0.999912
0.999907
0.999905
0.999881
0.999212
0.94682
0.035886
0.000135446
8.45207e-07
7.86662e-07
7.8257e-07
7.74204e-07
7.73819e-07
7.67941e-07
7.67915e-07
7.64087e-07
7.63823e-07
7.60573e-07
7.58789e-07
7.55613e-07
7.5292e-07
7.50595e-07
7.4887e-07
7.47411e-07
7.45264e-07
7.40386e-07
7.34803e-07
7.27641e-07
7.17268e-07
7.02866e-07
6.90689e-07
6.80165e-07
6.70453e-07
6.6079e-07
6.48364e-07
6.29222e-07
6.05512e-07
5.78535e-07
5.42678e-07
5.01838e-07
4.58185e-07
4.21815e-07
0.999994
0.999993
0.999992
0.999992
0.999991
0.999991
0.999991
0.999991
0.99999
0.99999
0.99999
0.99999
0.99999
0.99999
0.99999
0.99999
0.99999
0.99999
0.99999
0.99999
0.99999
0.99999
0.99999
0.99999
0.99999
0.99999
0.99999
0.99999
0.99999
0.99999
0.99999
0.99999
0.99999
0.99999
0.99999
0.99999
0.99999
0.99999
0.99999
0.99999
0.99999
0.99999
0.99999
0.99999
0.99999
0.999989
0.999986
0.999979
0.99997
0.999957
0.999942
0.999926
0.999917
0.99991
0.999907
0.999902
0.9999
0.999874
0.999577
0.920317
0.0166014
1.36183e-05
7.96484e-07
8.48327e-07
8.27946e-07
8.24508e-07
8.22459e-07
8.12557e-07
8.1224e-07
8.03883e-07
7.98983e-07
7.8756e-07
7.81012e-07
7.74517e-07
7.69865e-07
7.65905e-07
7.62974e-07
7.59755e-07
7.55058e-07
7.49662e-07
7.43099e-07
7.35231e-07
7.21886e-07
7.05745e-07
6.90823e-07
6.76853e-07
6.65266e-07
6.56693e-07
6.48119e-07
6.35645e-07
6.20589e-07
5.98155e-07
5.629e-07
5.32194e-07
5.02338e-07
4.51203e-07
0.999994
0.999994
0.999992
0.999992
0.999992
0.999991
0.999991
0.999991
0.999991
0.99999
0.99999
0.99999
0.99999
0.99999
0.99999
0.99999
0.99999
0.99999
0.99999
0.99999
0.99999
0.99999
0.99999
0.99999
0.99999
0.99999
0.99999
0.99999
0.99999
0.99999
0.99999
0.99999
0.99999
0.99999
0.99999
0.99999
0.99999
0.99999
0.99999
0.99999
0.99999
0.99999
0.99999
0.99999
0.999989
0.999989
0.999986
0.99998
0.999971
0.999958
0.999938
0.999919
0.999907
0.9999
0.999899
0.999897
0.999898
0.999868
0.999698
0.898599
0.0155981
4.79691e-06
4.25909e-06
3.80325e-06
3.65965e-06
3.01917e-06
2.46785e-06
1.84215e-06
1.42774e-06
1.13336e-06
9.85848e-07
8.93931e-07
8.51151e-07
8.32703e-07
8.23778e-07
8.14759e-07
8.0603e-07
7.96478e-07
7.87435e-07
7.77552e-07
7.66114e-07
7.5406e-07
7.39556e-07
7.20749e-07
7.03987e-07
6.90062e-07
6.77943e-07
6.67718e-07
6.59286e-07
6.48589e-07
6.37447e-07
6.16245e-07
5.79205e-07
5.46319e-07
5.19894e-07
4.69168e-07
0.999995
0.999994
0.999993
0.999992
0.999992
0.999992
0.999991
0.999991
0.999991
0.999991
0.99999
0.99999
0.99999
0.99999
0.99999
0.99999
0.99999
0.99999
0.99999
0.99999
0.99999
0.99999
0.99999
0.99999
0.99999
0.99999
0.99999
0.99999
0.99999
0.99999
0.99999
0.99999
0.99999
0.99999
0.99999
0.99999
0.99999
0.99999
0.99999
0.99999
0.99999
0.99999
0.99999
0.99999
0.999989
0.999988
0.999985
0.99998
0.99997
0.999955
0.99993
0.999908
0.999896
0.999892
0.99989
0.999884
0.999876
0.999849
0.999767
0.845481
0.00808146
0.000193132
0.000172355
0.000144834
0.00013391
0.000110552
8.74447e-05
6.43504e-05
4.50638e-05
2.98834e-05
1.93841e-05
1.24742e-05
8.35848e-06
6.06625e-06
4.94287e-06
4.35717e-06
4.05664e-06
3.87952e-06
3.73145e-06
3.56547e-06
3.40606e-06
3.25422e-06
3.07937e-06
2.85733e-06
2.62649e-06
2.36437e-06
2.06636e-06
1.76892e-06
1.33871e-06
9.93821e-07
7.95339e-07
7.04422e-07
6.52691e-07
6.00688e-07
5.52523e-07
4.89958e-07
0.999995
0.999995
0.999993
0.999993
0.999992
0.999992
0.999992
0.999991
0.999991
0.999991
0.99999
0.99999
0.99999
0.99999
0.99999
0.99999
0.99999
0.99999
0.99999
0.99999
0.99999
0.99999
0.99999
0.99999
0.99999
0.99999
0.99999
0.99999
0.99999
0.99999
0.99999
0.99999
0.99999
0.99999
0.99999
0.99999
0.99999
0.99999
0.99999
0.99999
0.99999
0.99999
0.99999
0.99999
0.999989
0.999988
0.999984
0.999979
0.999968
0.999948
0.999918
0.999898
0.999887
0.999882
0.999876
0.999865
0.999855
0.999841
0.999837
0.766632
0.00951656
0.00276558
0.00262995
0.00237504
0.00221509
0.00196314
0.0017149
0.00145814
0.00121298
0.000986247
0.000793084
0.000632996
0.000509167
0.000419187
0.00035551
0.000313373
0.0002876
0.000273029
0.000267232
0.000266476
0.000268536
0.000266861
0.000261131
0.000251827
0.000237671
0.000221591
0.000202963
0.000171523
0.000130064
8.6617e-05
4.93368e-05
2.34838e-05
9.53734e-06
3.52884e-06
1.35229e-06
7.33764e-07
0.999995
0.999995
0.999994
0.999993
0.999993
0.999992
0.999992
0.999991
0.999991
0.999991
0.99999
0.99999
0.99999
0.99999
0.99999
0.99999
0.99999
0.99999
0.99999
0.99999
0.99999
0.99999
0.99999
0.99999
0.99999
0.99999
0.99999
0.99999
0.99999
0.99999
0.99999
0.99999
0.99999
0.99999
0.99999
0.99999
0.99999
0.99999
0.99999
0.99999
0.99999
0.99999
0.99999
0.99999
0.999989
0.999988
0.999984
0.999977
0.999966
0.999943
0.999909
0.999892
0.999882
0.999873
0.999865
0.999859
0.999856
0.999854
0.999831
0.646733
0.0190779
0.0121861
0.0124592
0.0122957
0.0121395
0.011844
0.0114988
0.0110839
0.0105614
0.00997149
0.00931123
0.00862013
0.00793065
0.00726594
0.00665224
0.00611951
0.00566994
0.00530555
0.00503108
0.00483179
0.004671
0.00452668
0.00435973
0.00420226
0.00400743
0.00376108
0.00350019
0.00319264
0.00283447
0.00239487
0.00191643
0.00140878
0.000918857
0.000505196
0.000214536
7.60797e-05
0.999995
0.999995
0.999995
0.999994
0.999993
0.999992
0.999992
0.999991
0.999991
0.999991
0.99999
0.99999
0.99999
0.99999
0.99999
0.99999
0.99999
0.99999
0.99999
0.99999
0.99999
0.99999
0.99999
0.99999
0.99999
0.99999
0.99999
0.99999
0.99999
0.99999
0.99999
0.99999
0.99999
0.99999
0.99999
0.99999
0.99999
0.99999
0.99999
0.99999
0.99999
0.99999
0.99999
0.99999
0.999989
0.999988
0.999984
0.999976
0.999965
0.999941
0.999906
0.999888
0.999879
0.999874
0.999869
0.999866
0.999867
0.999862
0.999566
0.573147
0.0290722
0.0232437
0.0242734
0.0247577
0.0251541
0.0255933
0.0259873
0.0263885
0.0267248
0.027053
0.0273353
0.0275933
0.0277619
0.0278374
0.0277839
0.0276396
0.0274182
0.0271636
0.0268683
0.0265306
0.0261222
0.0256393
0.0251276
0.0245746
0.0239349
0.0232153
0.0223445
0.0213631
0.020399
0.0194357
0.0183548
0.0170605
0.0154922
0.0134271
0.0109192
0.00871614
0.999995
0.999996
0.999995
0.999994
0.999993
0.999993
0.999992
0.999991
0.999991
0.999991
0.99999
0.99999
0.99999
0.99999
0.99999
0.99999
0.99999
0.99999
0.99999
0.99999
0.99999
0.99999
0.99999
0.99999
0.99999
0.99999
0.99999
0.99999
0.99999
0.99999
0.99999
0.99999
0.99999
0.99999
0.99999
0.99999
0.99999
0.99999
0.99999
0.99999
0.99999
0.99999
0.99999
0.99999
0.999989
0.999988
0.999984
0.999975
0.999962
0.999939
0.999907
0.999889
0.999883
0.999881
0.99988
0.99988
0.999883
0.99988
0.999262
0.674294
0.0319538
0.0211602
0.0220107
0.0222871
0.0226982
0.0234369
0.0243812
0.025487
0.0267002
0.0280267
0.029455
0.031039
0.0327405
0.034496
0.0363156
0.0381924
0.040174
0.0422726
0.0444748
0.0467907
0.0492572
0.0519197
0.0548328
0.0580228
0.0616112
0.06552
0.0697055
0.0743143
0.0796207
0.0857735
0.0932758
0.102767
0.115707
0.136818
0.185555
0.380992
0.999996
0.999996
0.999995
0.999995
0.999994
0.999993
0.999992
0.999991
0.999991
0.999991
0.99999
0.99999
0.99999
0.99999
0.99999
0.99999
0.99999
0.99999
0.99999
0.99999
0.99999
0.99999
0.99999
0.99999
0.99999
0.99999
0.99999
0.99999
0.99999
0.99999
0.99999
0.99999
0.99999
0.99999
0.99999
0.99999
0.99999
0.99999
0.99999
0.99999
0.99999
0.99999
0.99999
0.99999
0.999989
0.999988
0.999984
0.999977
0.999964
0.999943
0.999915
0.999898
0.999889
0.999885
0.999884
0.999883
0.999884
0.999881
0.999836
0.823497
0.0217991
0.00635749
0.00588031
0.0049249
0.0045216
0.00416483
0.00395561
0.00384541
0.00384587
0.00389717
0.00401106
0.0041281
0.00428337
0.00448569
0.00474682
0.00504483
0.00538346
0.00576026
0.00616926
0.00662457
0.00711819
0.00766739
0.00824453
0.00881474
0.00934368
0.00987197
0.0103995
0.0109717
0.0116448
0.0123851
0.0132035
0.0140731
0.0150337
0.0158508
0.0160632
0.0146029
0.999996
0.999996
0.999996
0.999995
0.999995
0.999993
0.999992
0.999991
0.999991
0.999991
0.99999
0.99999
0.99999
0.99999
0.99999
0.99999
0.99999
0.99999
0.99999
0.99999
0.99999
0.99999
0.99999
0.99999
0.99999
0.99999
0.99999
0.99999
0.99999
0.99999
0.99999
0.99999
0.99999
0.99999
0.99999
0.99999
0.99999
0.99999
0.99999
0.99999
0.99999
0.99999
0.99999
0.99999
0.999989
0.999987
0.999984
0.999977
0.999968
0.999952
0.999927
0.999907
0.999897
0.99989
0.999887
0.999885
0.999887
0.999878
0.999892
0.888648
0.0127618
0.000978061
0.000819811
0.000595887
0.000523156
0.000458757
0.000427454
0.000404698
0.000396359
0.000391621
0.000393852
0.000400812
0.000411917
0.000425866
0.000440094
0.000455201
0.000475169
0.000502817
0.00054008
0.000583984
0.000633797
0.000695779
0.000769296
0.000849329
0.000933036
0.00100893
0.00109045
0.00117064
0.0012643
0.00137215
0.00149371
0.00158614
0.00159014
0.0013302
0.000818423
0.000365456
0.999996
0.999996
0.999996
0.999996
0.999995
0.999994
0.999992
0.999992
0.999991
0.999991
0.99999
0.99999
0.99999
0.99999
0.99999
0.99999
0.99999
0.99999
0.99999
0.99999
0.99999
0.99999
0.99999
0.99999
0.99999
0.99999
0.99999
0.99999
0.99999
0.99999
0.99999
0.99999
0.99999
0.99999
0.99999
0.99999
0.99999
0.99999
0.99999
0.99999
0.99999
0.99999
0.99999
0.99999
0.999989
0.999988
0.999984
0.999978
0.999969
0.999956
0.999938
0.999918
0.999907
0.999899
0.999896
0.999891
0.99989
0.999872
0.999879
0.929998
0.0144327
8.13739e-05
7.38087e-05
5.27756e-05
4.97751e-05
4.53605e-05
4.31885e-05
3.94701e-05
3.55294e-05
3.1675e-05
2.85698e-05
2.63816e-05
2.54381e-05
2.55566e-05
2.53157e-05
2.47781e-05
2.41358e-05
2.4348e-05
2.68107e-05
3.04465e-05
3.42531e-05
3.80099e-05
4.09662e-05
4.39664e-05
4.60361e-05
4.5219e-05
4.26017e-05
3.86086e-05
3.51136e-05
3.31275e-05
3.19209e-05
2.95959e-05
2.3242e-05
1.49844e-05
7.22521e-06
3.13355e-06
0.999996
0.999996
0.999996
0.999996
0.999995
0.999994
0.999993
0.999992
0.999991
0.999991
0.99999
0.99999
0.99999
0.99999
0.99999
0.99999
0.99999
0.99999
0.99999
0.99999
0.99999
0.99999
0.99999
0.99999
0.99999
0.99999
0.99999
0.99999
0.99999
0.99999
0.99999
0.99999
0.99999
0.99999
0.99999
0.99999
0.99999
0.99999
0.99999
0.99999
0.99999
0.99999
0.99999
0.99999
0.999989
0.999988
0.999985
0.999979
0.99997
0.999957
0.999943
0.999926
0.999915
0.999905
0.999902
0.999897
0.999891
0.999866
0.999829
0.955695
0.0228109
3.13517e-06
4.77635e-06
2.74121e-06
2.83537e-06
2.62546e-06
2.4834e-06
2.27855e-06
2.08064e-06
1.90198e-06
1.75721e-06
1.59668e-06
1.43951e-06
1.31561e-06
1.24288e-06
1.21633e-06
1.20478e-06
1.23249e-06
1.30462e-06
1.39787e-06
1.50282e-06
1.58896e-06
1.63932e-06
1.63881e-06
1.57376e-06
1.43875e-06
1.25741e-06
1.06928e-06
9.17001e-07
8.01559e-07
7.35933e-07
6.86926e-07
6.33503e-07
5.87675e-07
5.40954e-07
4.67556e-07
0.999997
0.999996
0.999996
0.999996
0.999996
0.999995
0.999993
0.999992
0.999991
0.999991
0.99999
0.99999
0.99999
0.99999
0.99999
0.99999
0.99999
0.99999
0.99999
0.99999
0.99999
0.99999
0.99999
0.99999
0.99999
0.99999
0.99999
0.99999
0.99999
0.99999
0.99999
0.99999
0.99999
0.99999
0.99999
0.99999
0.99999
0.99999
0.99999
0.99999
0.99999
0.99999
0.99999
0.99999
0.999989
0.999988
0.999985
0.99998
0.999971
0.999958
0.999944
0.999929
0.999919
0.999908
0.999902
0.999894
0.999885
0.999858
0.999745
0.963301
0.0333594
1.08023e-05
1.01033e-06
9.12006e-07
9.3567e-07
9.22171e-07
9.10991e-07
8.98221e-07
8.92434e-07
8.79926e-07
8.71506e-07
8.6197e-07
8.5511e-07
8.47207e-07
8.37574e-07
8.28656e-07
8.22708e-07
8.16175e-07
8.09654e-07
8.07538e-07
8.07336e-07
8.06861e-07
8.05186e-07
7.97459e-07
7.83423e-07
7.65958e-07
7.46225e-07
7.24306e-07
6.98691e-07
6.68205e-07
6.35533e-07
6.15547e-07
5.8778e-07
5.56219e-07
5.06818e-07
4.30194e-07
0.999997
0.999996
0.999997
0.999996
0.999996
0.999996
0.999994
0.999992
0.999991
0.999991
0.99999
0.99999
0.99999
0.99999
0.99999
0.99999
0.99999
0.99999
0.99999
0.99999
0.99999
0.99999
0.99999
0.99999
0.99999
0.99999
0.99999
0.99999
0.99999
0.99999
0.99999
0.99999
0.99999
0.99999
0.99999
0.99999
0.99999
0.99999
0.99999
0.99999
0.99999
0.99999
0.99999
0.99999
0.999989
0.999988
0.999985
0.99998
0.99997
0.999958
0.999943
0.99993
0.99992
0.999908
0.999898
0.999888
0.999876
0.999836
0.999624
0.957183
0.0378846
2.68539e-05
9.20853e-07
8.94214e-07
8.75228e-07
8.73586e-07
8.75532e-07
8.69563e-07
8.65607e-07
8.5721e-07
8.5167e-07
8.43609e-07
8.38178e-07
8.31246e-07
8.24559e-07
8.17995e-07
8.12519e-07
8.07519e-07
8.02751e-07
7.98886e-07
7.95288e-07
7.92734e-07
7.90476e-07
7.86199e-07
7.77917e-07
7.64865e-07
7.46643e-07
7.24548e-07
6.9625e-07
6.57827e-07
6.21595e-07
5.9846e-07
5.82139e-07
5.63751e-07
5.24437e-07
4.38359e-07
0.999997
0.999997
0.999997
0.999996
0.999996
0.999996
0.999995
0.999993
0.999991
0.999991
0.99999
0.99999
0.99999
0.99999
0.99999
0.99999
0.99999
0.99999
0.99999
0.99999
0.99999
0.99999
0.99999
0.99999
0.99999
0.99999
0.99999
0.99999
0.99999
0.99999
0.99999
0.99999
0.99999
0.99999
0.99999
0.99999
0.99999
0.99999
0.99999
0.99999
0.99999
0.99999
0.99999
0.99999
0.999989
0.999988
0.999985
0.99998
0.99997
0.999957
0.999943
0.99993
0.999919
0.999907
0.999895
0.999879
0.999865
0.999825
0.999599
0.938445
0.0350198
5.99822e-05
9.43519e-07
8.69397e-07
8.58219e-07
8.48588e-07
8.48233e-07
8.43604e-07
8.4287e-07
8.38342e-07
8.35941e-07
8.30015e-07
8.25446e-07
8.19636e-07
8.15043e-07
8.10188e-07
8.05953e-07
8.02921e-07
7.99735e-07
7.9665e-07
7.93355e-07
7.90031e-07
7.87015e-07
7.82957e-07
7.76237e-07
7.65996e-07
7.5009e-07
7.28046e-07
6.96648e-07
6.536e-07
6.12783e-07
5.85815e-07
5.71738e-07
5.51108e-07
5.10193e-07
4.37333e-07
0.999998
0.999997
0.999997
0.999997
0.999997
0.999996
0.999996
0.999994
0.999991
0.99999
0.99999
0.99999
0.99999
0.99999
0.99999
0.99999
0.99999
0.99999
0.99999
0.99999
0.99999
0.99999
0.99999
0.99999
0.99999
0.99999
0.99999
0.99999
0.99999
0.99999
0.99999
0.99999
0.99999
0.99999
0.99999
0.99999
0.99999
0.99999
0.99999
0.99999
0.99999
0.99999
0.99999
0.99999
0.999989
0.999988
0.999985
0.99998
0.99997
0.999956
0.999941
0.999929
0.999923
0.999915
0.999904
0.999888
0.999877
0.999829
0.999407
0.954915
0.055842
0.000408246
1.46605e-06
8.63441e-07
8.57474e-07
8.46884e-07
8.44931e-07
8.38502e-07
8.36346e-07
8.30578e-07
8.27726e-07
8.22804e-07
8.19865e-07
8.15837e-07
8.12634e-07
8.09324e-07
8.06748e-07
8.0386e-07