/*--------------------------------*- C++ -*----------------------------------*\
| =========                 |                                                 |
| \\      /  F ield         | OpenFOAM: The Open Source CFD Toolbox           |
|  \\    /   O peration     | Version:  2.3.0                                 |
|   \\  /    A nd           | Web:      www.OpenFOAM.org                      |
|    \\/     M anipulation  |                                                 |
\*---------------------------------------------------------------------------*/
FoamFile
{
    version     2.0;
    format      ascii;
    class       volScalarField;
    location    "40";
    object      epsilon.water;
}
// * * * * * * * * * * * * * * * * * * * * * * * * * * * * * * * * * * * * * //

dimensions      [0 2 -3 0 0 0 0];

internalField   nonuniform List<scalar> 
6144
(
5.67466e-05
4.21491e-05
2.44846e-05
1.8129e-05
1.17658e-05
8.11772e-06
6.20807e-06
5.33993e-06
4.78818e-06
6.04125e-06
7.97283e-06
9.73447e-06
1.05298e-05
1.06721e-05
1.00063e-05
9.46721e-06
8.88783e-06
8.52347e-06
8.13525e-06
7.83167e-06
7.73705e-06
7.70394e-06
7.71868e-06
7.75541e-06
7.80858e-06
7.87768e-06
7.96206e-06
8.09496e-06
8.31337e-06
8.49143e-06
8.60205e-06
8.67071e-06
8.7265e-06
8.77072e-06
8.81052e-06
8.85008e-06
8.95527e-06
9.05098e-06
9.29902e-06
9.40753e-06
9.78959e-06
9.82057e-06
1.03086e-05
1.00961e-05
1.0002e-05
9.01014e-06
8.23617e-06
8.3255e-06
9.67279e-06
1.44462e-05
3.26644e-05
9.66142e-05
0.000228637
0.000284021
0.000381689
0.00077973
0.0017532
0.0045857
0.0296035
0.0404178
0.103523
0.0526779
0.0270465
0.0153255
0.00979798
0.00677952
0.00472716
0.00310518
0.00185108
0.000766206
0.000196435
0.000131964
0.000157953
0.000175211
0.000187329
0.000196674
0.000206202
0.000215219
0.000219316
0.000221124
0.00022078
0.000222176
0.000225517
0.00022656
0.00022473
0.000218774
0.000222608
0.000227314
0.000226573
0.00022072
0.00020481
0.000183077
0.000156475
0.000129491
9.64108e-05
5.07109e-05
0.00011315
6.53733e-05
3.77523e-05
3.14156e-05
2.25981e-05
1.96279e-05
1.81895e-05
1.70488e-05
1.56343e-05
1.89589e-05
2.24719e-05
2.55697e-05
2.70772e-05
2.65749e-05
2.46534e-05
2.32843e-05
2.22669e-05
2.19662e-05
2.19988e-05
2.22162e-05
2.27475e-05
2.32416e-05
2.36894e-05
2.4065e-05
2.43777e-05
2.46472e-05
2.48913e-05
2.52144e-05
2.56662e-05
2.59788e-05
2.6173e-05
2.63175e-05
2.64583e-05
2.65907e-05
2.6746e-05
2.68939e-05
2.71753e-05
2.73158e-05
2.78524e-05
2.79122e-05
2.87488e-05
2.8553e-05
2.9401e-05
2.851e-05
2.79772e-05
2.54598e-05
2.38156e-05
2.52872e-05
2.96079e-05
3.59768e-05
8.88854e-05
0.000305319
0.000720071
0.00101752
0.0012826
0.00159762
0.00349899
0.00914745
0.0202178
0.031023
0.0704427
0.0356748
0.0175563
0.00904886
0.0059005
0.00429546
0.00322498
0.00225588
0.00139474
0.000527351
0.000168216
0.000203663
0.000269337
0.000315932
0.000357609
0.000379105
0.000402637
0.00044576
0.000476134
0.000500195
0.000505749
0.00048682
0.000437175
0.0003725
0.000317394
0.00029949
0.000311591
0.000323171
0.00031776
0.000300792
0.000277766
0.000243817
0.000203354
0.000152838
9.61424e-05
5.02672e-05
0.000138264
7.33769e-05
4.78425e-05
4.14739e-05
3.38665e-05
3.29114e-05
3.40804e-05
3.18832e-05
2.70631e-05
2.67979e-05
2.94604e-05
3.06562e-05
3.01628e-05
2.83784e-05
2.65277e-05
2.57857e-05
2.58077e-05
2.67359e-05
2.8462e-05
3.0224e-05
3.16246e-05
3.28022e-05
3.37376e-05
3.44451e-05
3.49679e-05
3.53528e-05
3.56431e-05
3.58442e-05
3.59342e-05
3.59182e-05
3.58589e-05
3.57908e-05
3.57274e-05
3.56724e-05
3.56529e-05
3.5634e-05
3.56183e-05
3.54741e-05
3.54511e-05
3.50759e-05
3.51429e-05
3.46656e-05
3.50537e-05
3.46825e-05
3.48183e-05
3.41056e-05
3.53472e-05
4.12143e-05
5.19296e-05
6.30317e-05
0.000155003
0.000565014
0.00131601
0.00192069
0.00224837
0.00247882
0.00356835
0.0072094
0.01678
0.0238517
0.0584832
0.0259337
0.00972732
0.00426927
0.00327251
0.00277248
0.00219184
0.00159875
0.000938767
0.000295482
0.000202533
0.000321052
0.0003955
0.000466341
0.000512673
0.000532993
0.000568414
0.000632863
0.000677421
0.000694799
0.000686482
0.000609378
0.000473873
0.000354809
0.000317236
0.00035022
0.000382353
0.000397723
0.000386193
0.000346428
0.000311528
0.000264048
0.000232339
0.000200122
0.000123255
5.69794e-05
0.000161743
8.97131e-05
6.15673e-05
5.2566e-05
4.16986e-05
4.14224e-05
4.34494e-05
4.17078e-05
3.56987e-05
3.1296e-05
3.21721e-05
3.23477e-05
3.06916e-05
2.82841e-05
2.64617e-05
2.59492e-05
2.64961e-05
2.79033e-05
2.96434e-05
3.13506e-05
3.27586e-05
3.39846e-05
3.49415e-05
3.56475e-05
3.61493e-05
3.65089e-05
3.67774e-05
3.69587e-05
3.70219e-05
3.69633e-05
3.68423e-05
3.67037e-05
3.65635e-05
3.64251e-05
3.63004e-05
3.61854e-05
3.60727e-05
3.58878e-05
3.57541e-05
3.535e-05
3.52347e-05
3.48595e-05
3.51229e-05
3.53225e-05
3.56885e-05
3.55224e-05
3.61748e-05
4.00241e-05
5.14985e-05
7.73553e-05
0.000200426
0.000718811
0.00199826
0.00337214
0.00337527
0.00342685
0.00381311
0.00689326
0.013752
0.0177263
0.0505224
0.0176705
0.0031795
0.00120549
0.00119293
0.00134539
0.00136848
0.00101141
0.000438517
0.000264341
0.000313109
0.000434082
0.000524623
0.000596052
0.000638073
0.000660269
0.000717293
0.000816399
0.000862761
0.000871079
0.000790445
0.000635921
0.000475858
0.000400271
0.000396184
0.000445873
0.00046959
0.00048047
0.000474118
0.000439943
0.000358514
0.000283796
0.000240542
0.000218016
0.000165462
7.47906e-05
0.00018434
0.000102068
8.13151e-05
7.4378e-05
5.23079e-05
4.70946e-05
4.21437e-05
4.16493e-05
4.00786e-05
3.48617e-05
3.42598e-05
3.26164e-05
3.00515e-05
2.69533e-05
2.50265e-05
2.45362e-05
2.53022e-05
2.68881e-05
2.87927e-05
3.066e-05
3.2388e-05
3.38946e-05
3.49714e-05
3.56988e-05
3.61516e-05
3.64215e-05
3.65728e-05
3.66262e-05
3.6559e-05
3.63562e-05
3.6073e-05
3.57631e-05
3.54579e-05
3.51774e-05
3.4942e-05
3.47189e-05
3.44824e-05
3.4195e-05
3.38887e-05
3.34236e-05
3.30989e-05
3.29119e-05
3.31074e-05
3.37077e-05
3.39181e-05
3.34635e-05
3.3694e-05
3.68154e-05
4.66099e-05
8.34326e-05
0.000280774
0.000995809
0.00283969
0.00504017
0.00526136
0.00577843
0.00600032
0.0115908
0.00945459
0.0103746
0.0380033
0.00680422
0.000881179
0.00055154
0.000745035
0.000825135
0.000750028
0.000463714
0.000327924
0.000304466
0.000460863
0.000580084
0.000707606
0.000795568
0.000839042
0.000857055
0.000929492
0.000968282
0.000975916
0.000931683
0.00081917
0.000677825
0.000566849
0.000502856
0.000475278
0.000496864
0.000510965
0.0005157
0.000507177
0.000499183
0.000448515
0.000327181
0.00025139
0.000226568
0.000183926
0.000109574
0.000204836
0.000112411
9.74641e-05
0.000101048
7.30364e-05
6.49461e-05
4.31752e-05
4.02108e-05
4.16267e-05
3.59744e-05
3.44639e-05
3.18801e-05
2.91907e-05
2.55174e-05
2.24042e-05
2.14044e-05
2.22435e-05
2.42341e-05
2.67899e-05
2.92913e-05
3.1442e-05
3.30373e-05
3.41031e-05
3.47839e-05
3.5164e-05
3.53435e-05
3.53945e-05
3.53442e-05
3.51757e-05
3.48557e-05
3.44658e-05
3.40639e-05
3.36774e-05
3.33239e-05
3.30154e-05
3.272e-05
3.24037e-05
3.20413e-05
3.16251e-05
3.11175e-05
3.06556e-05
3.05207e-05
3.06332e-05
3.1136e-05
3.11562e-05
3.07943e-05
3.17516e-05
3.64403e-05
5.05966e-05
0.000108427
0.000426061
0.00138018
0.00412906
0.00769662
0.00879108
0.012028
0.0162291
0.0159373
0.00659869
0.00639095
0.0292711
0.00294209
0.000583105
0.0004631
0.000499317
0.000521817
0.000464207
0.000420334
0.000411341
0.000601937
0.000828373
0.000940103
0.000996068
0.000995757
0.000966465
0.000935183
0.000928408
0.000925843
0.000877063
0.000797392
0.000665889
0.000547288
0.000493906
0.000483213
0.000509629
0.000526661
0.000533771
0.000531602
0.00051526
0.000511281
0.00046525
0.000355885
0.000263371
0.000228911
0.000191854
0.000133485
0.000194676
0.000117525
0.000103342
0.000112219
8.77427e-05
8.25792e-05
5.69905e-05
4.46331e-05
4.5066e-05
3.75876e-05
3.47629e-05
3.12871e-05
2.68663e-05
2.19789e-05
1.91111e-05
1.82064e-05
1.90125e-05
2.06954e-05
2.27618e-05
2.49683e-05
2.70176e-05
2.86454e-05
2.98108e-05
3.05332e-05
3.08739e-05
3.09882e-05
3.09557e-05
3.08281e-05
3.05705e-05
3.01533e-05
2.96299e-05
2.90798e-05
2.85393e-05
2.80295e-05
2.75782e-05
2.71715e-05
2.6708e-05
2.62052e-05
2.56215e-05
2.50987e-05
2.45936e-05
2.47761e-05
2.50803e-05
2.61493e-05
2.66664e-05
2.74146e-05
3.04958e-05
3.79576e-05
6.14887e-05
0.000161911
0.000613456
0.00166039
0.00484033
0.00964418
0.0117083
0.0131491
0.015989
0.0144662
0.00462616
0.00442611
0.0199521
0.00150343
0.000660046
0.000576357
0.000557098
0.000566624
0.000583128
0.000679319
0.000848877
0.000949193
0.00098131
0.000989543
0.000964624
0.000925393
0.000882789
0.000819031
0.000788017
0.000752614
0.000705654
0.000643689
0.000564053
0.000534241
0.000541898
0.000548888
0.000523582
0.000523286
0.000532214
0.000524241
0.000497804
0.000503849
0.000462271
0.000326557
0.000263457
0.000230507
0.000197113
0.000152552
0.000152042
0.000112682
0.000101441
0.000109303
9.03344e-05
8.55116e-05
6.52508e-05
4.58987e-05
4.68251e-05
3.73113e-05
3.40428e-05
2.93442e-05
2.57734e-05
2.06028e-05
1.68484e-05
1.53927e-05
1.63396e-05
1.84329e-05
2.09037e-05
2.32771e-05
2.53289e-05
2.69201e-05
2.80501e-05
2.87699e-05
2.91488e-05
2.93119e-05
2.93349e-05
2.92244e-05
2.89254e-05
2.84305e-05
2.78347e-05
2.7239e-05
2.66806e-05
2.61491e-05
2.56493e-05
2.51607e-05
2.46353e-05
2.41015e-05
2.35161e-05
2.30348e-05
2.25906e-05
2.28006e-05
2.31923e-05
2.43926e-05
2.53153e-05
2.63804e-05
2.99802e-05
4.02455e-05
8.92385e-05
0.00026794
0.000726581
0.00161366
0.00404101
0.0098492
0.0126513
0.0140977
0.0149075
0.0125705
0.00461697
0.00452183
0.0148118
0.00132083
0.000905666
0.000865015
0.000850864
0.0008804
0.000923555
0.00096112
0.00097733
0.000977551
0.000953135
0.000928263
0.000904043
0.000883598
0.00085583
0.000815121
0.000806883
0.000848323
0.000868978
0.000889386
0.000899829
0.000869137
0.00076991
0.000685529
0.000586735
0.000507045
0.000497708
0.000480009
0.000439257
0.000442591
0.000424728
0.000280689
0.00024009
0.000236693
0.000215531
0.000197195
0.000123941
9.84145e-05
8.90721e-05
9.43885e-05
7.57048e-05
6.99158e-05
6.10343e-05
4.3155e-05
4.23211e-05
3.46134e-05
3.13468e-05
2.62374e-05
2.19178e-05
1.59832e-05
1.16886e-05
9.98917e-06
1.07584e-05
1.27362e-05
1.49604e-05
1.69376e-05
1.85644e-05
1.98972e-05
2.09259e-05
2.16638e-05
2.21361e-05
2.24094e-05
2.25328e-05
2.25233e-05
2.23236e-05
2.19259e-05
2.14449e-05
2.09719e-05
2.05399e-05
2.01382e-05
1.97597e-05
1.93781e-05
1.89792e-05
1.86115e-05
1.82292e-05
1.80271e-05
1.78175e-05
1.81059e-05
1.85651e-05
1.96745e-05
2.06812e-05
2.16192e-05
2.42375e-05
3.31522e-05
8.39901e-05
0.000265145
0.000695428
0.00213574
0.00531704
0.00823215
0.00957472
0.011226
0.0105066
0.00940535
0.00577632
0.00571998
0.0213085
0.00166642
0.0011161
0.0011152
0.00111138
0.00111262
0.00111052
0.00110257
0.00107465
0.00103677
0.00098669
0.000941816
0.000905297
0.000890627
0.000854353
0.000809376
0.000794588
0.000799882
0.000795825
0.000790017
0.000728005
0.000671446
0.000632978
0.000606574
0.000553974
0.00046958
0.000457403
0.000458443
0.000412703
0.000427415
0.000491551
0.000330755
0.00026598
0.00026505
0.000241761
0.000217356
0.000105266
7.78817e-05
7.27178e-05
7.71427e-05
7.1127e-05
6.45602e-05
5.60963e-05
4.21853e-05
3.4108e-05
2.95901e-05
2.72203e-05
2.24305e-05
1.7604e-05
1.21262e-05
8.20484e-06
6.54579e-06
6.82019e-06
8.14772e-06
9.72748e-06
1.11006e-05
1.22389e-05
1.31528e-05
1.3852e-05
1.43804e-05
1.47478e-05
1.49844e-05
1.51149e-05
1.51524e-05
1.5084e-05
1.49054e-05
1.46829e-05
1.44669e-05
1.4285e-05
1.41267e-05
1.3962e-05
1.37848e-05
1.36129e-05
1.34748e-05
1.33561e-05
1.33113e-05
1.32951e-05
1.35432e-05
1.38995e-05
1.448e-05
1.50221e-05
1.53599e-05
1.67892e-05
2.43988e-05
6.86346e-05
0.000210758
0.000777703
0.00376535
0.00715796
0.00665027
0.00666214
0.00734475
0.00692084
0.0063105
0.00647741
0.00646239
0.0257004
0.00186696
0.00118487
0.00119345
0.00120639
0.00120324
0.00119407
0.00115932
0.00112682
0.00108464
0.00103483
0.000998048
0.00097823
0.00094429
0.000874029
0.000763779
0.000643361
0.000586516
0.000549853
0.00050329
0.000447081
0.000456238
0.000479155
0.000479148
0.00046431
0.000415724
0.000364096
0.000334929
0.000289054
0.000321162
0.000498316
0.000373126
0.000282001
0.000285745
0.000255697
0.000226224
9.50295e-05
5.38314e-05
3.95007e-05
4.49218e-05
5.2291e-05
4.53799e-05
4.33438e-05
3.26414e-05
2.44954e-05
2.23229e-05
2.09293e-05
1.71601e-05
1.30422e-05
8.74208e-06
5.96921e-06
4.56893e-06
4.53365e-06
5.26729e-06
6.28153e-06
7.16668e-06
7.8926e-06
8.49135e-06
8.96422e-06
9.33867e-06
9.61704e-06
9.8251e-06
9.97064e-06
1.00433e-05
1.00519e-05
9.99185e-06
9.908e-06
9.83015e-06
9.78537e-06
9.75882e-06
9.72999e-06
9.69573e-06
9.66211e-06
9.65745e-06
9.69983e-06
9.79334e-06
9.94336e-06
1.01191e-05
1.037e-05
1.04442e-05
1.06457e-05
1.06156e-05
1.17347e-05
1.8067e-05
5.60726e-05
0.000144336
0.00033649
0.00120766
0.00458543
0.00592153
0.00680145
0.0073745
0.00697825
0.0071293
0.00845196
0.00849049
0.0385354
0.00284454
0.00113111
0.00104396
0.00103849
0.000962759
0.000967729
0.000921186
0.000903776
0.000867478
0.000834983
0.000815391
0.000808028
0.000808141
0.000812115
0.00077921
0.000686932
0.000602414
0.000541313
0.00050204
0.000473403
0.000470971
0.00048084
0.000480597
0.000466626
0.000426185
0.000369571
0.000323957
0.00023214
0.000172119
0.000247499
0.000353712
0.000271205
0.000287742
0.000261093
0.000225984
0.000103808
7.46895e-05
2.27359e-05
1.99307e-05
2.38547e-05
2.42722e-05
2.66144e-05
1.99427e-05
1.76622e-05
1.83547e-05
1.78892e-05
1.37702e-05
9.44544e-06
6.0051e-06
4.1016e-06
3.22031e-06
3.27349e-06
3.79062e-06
4.46988e-06
5.04372e-06
5.52836e-06
5.93957e-06
6.29605e-06
6.59486e-06
6.84123e-06
7.05465e-06
7.23907e-06
7.3691e-06
7.43175e-06
7.44945e-06
7.44073e-06
7.44697e-06
7.49051e-06
7.54981e-06
7.58658e-06
7.61084e-06
7.63372e-06
7.677e-06
7.72524e-06
7.79661e-06
7.85123e-06
7.89505e-06
7.99757e-06
7.97732e-06
8.16741e-06
8.19816e-06
9.04299e-06
1.20414e-05
2.95775e-05
5.60961e-05
0.000105325
0.000235073
0.00132635
0.00238501
0.00482055
0.00525013
0.00623284
0.00859781
0.0135941
0.0140536
0.058958
0.00908356
0.00155002
0.0010683
0.00119307
0.000914968
0.000831808
0.000746518
0.000682954
0.000641647
0.000610055
0.00058821
0.000578139
0.000582068
0.000596905
0.000633126
0.000629045
0.000609977
0.000573133
0.000548455
0.000524712
0.000518223
0.000524588
0.00052185
0.000504167
0.000457994
0.000395889
0.0003437
0.000239113
0.000136473
0.000158836
0.000230428
0.000245932
0.000283556
0.000266148
0.000222692
0.000132886
0.00010073
3.18942e-05
1.68075e-05
1.81324e-05
1.54432e-05
1.60021e-05
1.184e-05
1.26447e-05
1.45281e-05
1.50895e-05
1.12698e-05
7.20044e-06
4.22413e-06
3.11529e-06
2.65806e-06
2.68445e-06
3.03026e-06
3.4301e-06
3.79895e-06
4.10264e-06
4.35014e-06
4.56575e-06
4.77988e-06
4.98243e-06
5.17471e-06
5.35998e-06
5.5211e-06
5.62863e-06
5.67435e-06
5.69479e-06
5.73253e-06
5.80907e-06
5.905e-06
5.97838e-06
6.03814e-06
6.09383e-06
6.15243e-06
6.21539e-06
6.28168e-06
6.40526e-06
6.51352e-06
6.57974e-06
6.40911e-06
6.42777e-06
6.34302e-06
6.98478e-06
8.34807e-06
1.54528e-05
2.40284e-05
3.81137e-05
7.11121e-05
0.000330317
0.000470283
0.00227759
0.00288075
0.00530695
0.00691948
0.0179817
0.022093
0.0701112
0.0215558
0.00446757
0.00181853
0.00158597
0.00130354
0.00110675
0.000983815
0.000892031
0.0008219
0.000758587
0.000705739
0.000662283
0.00063342
0.000609699
0.000607859
0.000607916
0.000603812
0.000590497
0.000575459
0.000560792
0.000549838
0.000547983
0.000538966
0.000514055
0.000462151
0.000406612
0.000354479
0.000241768
0.000122752
0.000130144
0.0001821
0.000227453
0.000271682
0.000261709
0.000214529
0.000100543
2.35154e-05
2.01853e-05
1.62039e-05
1.65575e-05
1.37991e-05
1.31142e-05
9.54436e-06
1.07735e-05
1.2232e-05
1.23214e-05
8.45799e-06
4.88638e-06
3.26369e-06
2.60671e-06
2.21742e-06
2.24644e-06
2.51979e-06
2.82753e-06
3.08671e-06
3.31149e-06
3.5071e-06
3.67379e-06
3.81388e-06
3.94041e-06
4.06846e-06
4.20521e-06
4.33869e-06
4.43339e-06
4.46703e-06
4.47309e-06
4.49684e-06
4.56798e-06
4.67866e-06
4.78398e-06
4.86622e-06
4.94445e-06
5.01606e-06
5.09354e-06
5.16089e-06
5.26349e-06
5.30457e-06
5.37774e-06
5.20696e-06
5.17874e-06
5.05372e-06
5.42257e-06
6.3912e-06
1.00225e-05
1.47936e-05
2.11014e-05
3.58608e-05
0.000103904
0.000282119
0.00119709
0.00170848
0.00356087
0.00688893
0.0212972
0.0274696
0.0749563
0.0308405
0.0113811
0.00490095
0.00324495
0.00233185
0.00181304
0.00149412
0.0012734
0.00111528
0.000994746
0.000898705
0.000823492
0.000763054
0.000710576
0.000676874
0.0006531
0.000637395
0.000619353
0.000604501
0.000585324
0.000567249
0.000549338
0.000530836
0.000505926
0.000459054
0.000414003
0.000356295
0.00021941
0.000109102
0.000121921
0.000166087
0.000219296
0.000250109
0.000244784
0.00019842
5.31819e-05
1.44287e-05
1.01779e-05
9.16474e-06
8.26442e-06
7.12487e-06
7.48112e-06
6.93189e-06
8.09142e-06
8.22643e-06
7.55388e-06
4.81757e-06
3.17507e-06
2.34297e-06
1.93618e-06
1.71276e-06
1.75662e-06
1.95847e-06
2.17349e-06
2.35532e-06
2.51295e-06
2.65325e-06
2.78437e-06
2.90722e-06
3.03087e-06
3.16508e-06
3.31381e-06
3.46337e-06
3.58322e-06
3.64517e-06
3.68337e-06
3.73805e-06
3.83305e-06
3.95861e-06
4.06973e-06
4.15817e-06
4.24294e-06
4.31858e-06
4.40025e-06
4.47045e-06
4.5796e-06
4.62704e-06
4.70962e-06
4.56823e-06
4.52211e-06
4.38499e-06
4.57942e-06
5.31902e-06
7.57586e-06
1.10951e-05
1.57933e-05
2.37197e-05
5.38009e-05
0.000179209
0.000541333
0.000821459
0.00279176
0.00882409
0.0205118
0.0300379
0.0808096
0.0393082
0.018319
0.00910627
0.00566865
0.00387015
0.0028198
0.00217706
0.00175221
0.00145599
0.00124141
0.00107968
0.000958191
0.000866128
0.000791359
0.000734143
0.000689258
0.000657135
0.000628267
0.000605277
0.000578779
0.000555414
0.000530506
0.000506268
0.000481383
0.00044473
0.000408608
0.000340193
0.000172773
9.73044e-05
0.000126422
0.000172709
0.000210502
0.000226506
0.000211581
0.000172249
3.30715e-05
2.38354e-05
1.82664e-05
7.39145e-06
4.30904e-06
4.06485e-06
3.37047e-06
3.60634e-06
4.07641e-06
3.79259e-06
3.19996e-06
2.29421e-06
1.7495e-06
1.38524e-06
1.16412e-06
1.05453e-06
1.0869e-06
1.1995e-06
1.31578e-06
1.41518e-06
1.50216e-06
1.58255e-06
1.66222e-06
1.74225e-06
1.82596e-06
1.91752e-06
2.01987e-06
2.1253e-06
2.21672e-06
2.27572e-06
2.31584e-06
2.36282e-06
2.43433e-06
2.52784e-06
2.62219e-06
2.70171e-06
2.77852e-06
2.84469e-06
2.91394e-06
2.97297e-06
3.0688e-06
3.115e-06
3.20284e-06
3.13559e-06
3.08786e-06
2.98714e-06
3.05874e-06
3.57111e-06
4.84651e-06
7.10893e-06
1.02874e-05
1.51928e-05
2.54985e-05
6.36119e-05
0.000157056
0.000450917
0.00132841
0.00394207
0.0317111
0.0394595
0.109514
0.0504278
0.0239962
0.0128314
0.00797165
0.00543716
0.00393356
0.00298657
0.00235469
0.0019164
0.00159901
0.00136725
0.00119178
0.00105778
0.000953589
0.000869493
0.000802665
0.000749938
0.000704147
0.000670259
0.000634152
0.000606191
0.000576668
0.000546274
0.000517005
0.000483919
0.000441288
0.000347004
0.000132999
0.000102897
0.000134344
0.000154021
0.000162636
0.00016058
0.000134128
0.000118885
0.000143001
0.00010237
4.98333e-05
3.27973e-05
1.82892e-05
1.2476e-05
1.1656e-05
1.29395e-05
1.63507e-05
2.71146e-05
3.86047e-05
4.8626e-05
5.22105e-05
5.25e-05
4.84448e-05
4.47363e-05
4.1275e-05
3.88626e-05
3.63111e-05
3.37767e-05
3.1641e-05
3.04276e-05
3.01196e-05
3.03958e-05
3.11642e-05
3.23356e-05
3.38138e-05
3.5369e-05
3.66866e-05
3.76267e-05
3.82127e-05
3.86525e-05
3.90602e-05
3.9429e-05
3.97829e-05
4.02112e-05
4.09305e-05
4.1722e-05
4.30753e-05
4.39919e-05
4.57591e-05
4.60611e-05
4.76953e-05
4.60042e-05
4.47755e-05
4.13211e-05
3.71623e-05
3.38734e-05
2.66011e-05
2.78623e-05
5.28342e-05
0.000140062
0.000300062
0.000354021
0.000440689
0.000864113
0.00300248
0.00797441
0.0164225
0.0235138
0.0427234
0.0281365
0.0182219
0.0117595
0.00807262
0.00575179
0.00412215
0.00282043
0.00182434
0.000882351
0.000256812
0.000147672
0.000184141
0.000217547
0.000245333
0.000276084
0.000299093
0.000330189
0.00035545
0.000373913
0.000379284
0.000371831
0.000351278
0.00033688
0.000332848
0.000343471
0.000342882
0.000334371
0.000311248
0.000278012
0.00023815
0.000205886
0.000177182
0.000146467
0.000105601
5.34896e-05
0.000154283
8.37805e-05
5.10209e-05
4.14045e-05
3.05288e-05
2.69236e-05
2.75611e-05
3.01999e-05
3.30012e-05
4.25142e-05
4.89604e-05
5.52116e-05
5.76251e-05
5.72345e-05
5.44283e-05
5.18863e-05
5.03181e-05
4.98025e-05
4.95521e-05
4.91786e-05
4.86385e-05
4.84925e-05
4.8788e-05
4.94472e-05
5.04164e-05
5.1632e-05
5.30017e-05
5.43062e-05
5.5283e-05
5.59231e-05
5.63729e-05
5.67862e-05
5.71967e-05
5.75951e-05
5.7999e-05
5.84336e-05
5.89529e-05
5.94576e-05
6.01987e-05
6.06751e-05
6.13348e-05
6.11488e-05
6.11671e-05
5.99092e-05
5.90665e-05
5.86125e-05
5.86028e-05
5.90209e-05
5.69387e-05
6.47162e-05
0.000132324
0.000327504
0.000703135
0.000944715
0.00119452
0.00217222
0.00448002
0.00860551
0.0148422
0.0181554
0.0267133
0.0136314
0.0188089
0.0122842
0.00736202
0.00480716
0.00335482
0.00242063
0.00165388
0.0008661
0.000333721
0.000252381
0.000273898
0.000299743
0.000351357
0.00039804
0.000434949
0.000484388
0.000538931
0.000577574
0.000591801
0.000581211
0.000548466
0.000510209
0.00048031
0.000455819
0.000437942
0.000414076
0.000373886
0.00031071
0.000232209
0.000195986
0.000192627
0.00017527
0.000121505
5.80789e-05
0.000245477
0.000111271
6.91888e-05
5.83463e-05
5.5172e-05
5.37502e-05
5.24015e-05
5.3162e-05
5.25354e-05
5.8616e-05
6.10995e-05
6.35563e-05
6.44238e-05
6.26421e-05
5.92766e-05
5.74443e-05
5.71716e-05
5.83493e-05
6.01027e-05
6.18384e-05
6.32034e-05
6.44773e-05
6.55956e-05
6.66942e-05
6.78021e-05
6.89182e-05
7.00161e-05
7.09949e-05
7.17112e-05
7.2178e-05
7.25532e-05
7.28928e-05
7.32056e-05
7.35172e-05
7.38542e-05
7.41837e-05
7.44835e-05
7.47153e-05
7.49921e-05
7.50875e-05
7.5322e-05
7.52963e-05
7.55939e-05
7.58029e-05
7.62699e-05
7.71706e-05
7.94059e-05
8.11573e-05
8.98317e-05
0.00011988
0.000251261
0.000594323
0.00152595
0.00203004
0.0022887
0.00308213
0.00418387
0.00761146
0.00829125
0.00804412
0.0219103
0.0093216
0.0160512
0.00984532
0.00594576
0.00394598
0.00281082
0.00204738
0.00149159
0.000853115
0.000433794
0.000407596
0.000441019
0.000493024
0.0005919
0.000646629
0.00068998
0.000764459
0.000841603
0.000909221
0.000962906
0.000983754
0.000938654
0.000804534
0.000656488
0.000572376
0.000546915
0.000536991
0.000510155
0.000445015
0.000349645
0.000234626
0.000200834
0.000212983
0.000180114
8.14744e-05
0.000416121
0.000168038
9.76482e-05
7.75469e-05
7.48404e-05
7.74513e-05
7.77273e-05
7.8837e-05
7.46e-05
7.38944e-05
7.49101e-05
7.61332e-05
7.53204e-05
7.19338e-05
6.7102e-05
6.45227e-05
6.44474e-05
6.6108e-05
6.85557e-05
7.10701e-05
7.36115e-05
7.58298e-05
7.74513e-05
7.88519e-05
8.01663e-05
8.14205e-05
8.25821e-05
8.35812e-05
8.42786e-05
8.46683e-05
8.49188e-05
8.51078e-05
8.52717e-05
8.54397e-05
8.56409e-05
8.58462e-05
8.60161e-05
8.61515e-05
8.63483e-05
8.64124e-05
8.67799e-05
8.73648e-05
8.8414e-05
8.98567e-05
9.09943e-05
9.09111e-05
9.18196e-05
9.44493e-05
0.000110172
0.000173526
0.000367038
0.000912795
0.00251612
0.00391117
0.00384654
0.0044504
0.00485646
0.0099493
0.0102195
0.00900805
0.0239585
0.00547087
0.00410408
0.00249186
0.00242825
0.00228032
0.00201376
0.00166855
0.00120676
0.000673137
0.000506011
0.000589525
0.000693176
0.000801744
0.000923991
0.000979806
0.00102435
0.00113609
0.00127318
0.001457
0.0015889
0.0016403
0.00159938
0.00139695
0.00108285
0.000877689
0.000753183
0.00069116
0.000621468
0.000534953
0.000450987
0.000345111
0.000230827
0.000223906
0.000216981
0.000139521
0.000677057
0.000225569
0.000134139
0.000101085
9.09331e-05
8.94341e-05
8.98643e-05
9.30792e-05
9.24504e-05
8.92065e-05
8.9839e-05
8.91251e-05
8.59289e-05
7.89777e-05
7.16825e-05
6.75353e-05
6.7931e-05
7.10236e-05
7.53271e-05
7.97487e-05
8.36542e-05
8.69223e-05
8.95384e-05
9.16919e-05
9.34281e-05
9.49084e-05
9.62647e-05
9.74361e-05
9.82604e-05
9.86209e-05
9.87884e-05
9.89083e-05
9.9027e-05
9.91644e-05
9.93642e-05
9.96197e-05
9.97806e-05
9.99042e-05
9.99916e-05
0.000100264
0.000100419
0.000101858
0.000102797
0.000104556
0.000105101
0.000106702
0.000111701
0.000118629
0.000140016
0.00022306
0.000513197
0.00144292
0.00413052
0.00646675
0.00581792
0.00721598
0.0101471
0.0323843
0.0101038
0.00896705
0.0257554
0.00295
0.00147354
0.000982464
0.00136633
0.0012621
0.00116588
0.00101067
0.000794649
0.000687373
0.000783589
0.00102177
0.00123606
0.00144399
0.00156104
0.00158713
0.00158892
0.00168313
0.00182908
0.00201504
0.00217348
0.00229093
0.00235064
0.002354
0.0021576
0.00177467
0.00140905
0.00122138
0.001012
0.000786483
0.000586619
0.000437909
0.000296328
0.000247945
0.000241615
0.000188259
0.000968777
0.000257734
0.000161739
0.000130206
0.000120374
0.00011344
0.000105835
0.0001089
0.000108799
0.000102567
0.000101401
9.61126e-05
9.0444e-05
8.09283e-05
7.21283e-05
6.6766e-05
6.73491e-05
7.12169e-05
7.64306e-05
8.18853e-05
8.67094e-05
9.06782e-05
9.41936e-05
9.70348e-05
9.92958e-05
0.000101175
0.00010277
0.000104057
0.000104832
0.000104991
0.000104885
0.000104731
0.000104589
0.000104465
0.000104481
0.000104663
0.000104686
0.000104657
0.000104443
0.000104703
0.000104467
0.000106584
0.000107496
0.000111203
0.000113671
0.000120176
0.000134958
0.000150284
0.000182922
0.000277152
0.000642612
0.00213492
0.00760657
0.0121724
0.011308
0.0240884
0.038253
0.0453229
0.00989375
0.00936488
0.0278586
0.00206469
0.0011576
0.000862348
0.00103515
0.000977792
0.00105413
0.00104154
0.00105834
0.00135833
0.00205896
0.00243335
0.00258167
0.00260678
0.00243505
0.00219937
0.00208823
0.00205615
0.00210108
0.00223045
0.00234452
0.00245006
0.00255456
0.00266749
0.00273971
0.00277001
0.00255566
0.00235133
0.00208899
0.00161804
0.00110589
0.000586555
0.000363141
0.000270743
0.000258846
0.00022368
0.000936478
0.000268685
0.000182144
0.000148645
0.000142387
0.00013698
0.00013017
0.000130808
0.000129108
0.000112136
0.000107345
9.80596e-05
9.08319e-05
7.73483e-05
6.53864e-05
5.85397e-05
5.95533e-05
6.44251e-05
7.08855e-05
7.75494e-05
8.35477e-05
8.88028e-05
9.29817e-05
9.62986e-05
9.88574e-05
0.000100893
0.000102529
0.000103773
0.000104376
0.000104245
0.000103784
0.00010328
0.000102799
0.000102327
0.000102067
0.000102037
0.000101779
0.000101449
0.00010077
0.000100845
0.000100075
0.00010271
0.000103511
0.000108653
0.000112659
0.000122135
0.000143369
0.000164245
0.000213151
0.000351728
0.000726977
0.00245834
0.0105206
0.0196253
0.0206
0.0289087
0.0381277
0.0417264
0.00706428
0.00708244
0.0286577
0.00184968
0.00140171
0.00124267
0.00135338
0.00138975
0.00167693
0.00193025
0.00244318
0.00287347
0.00306341
0.00308824
0.00290827
0.00275899
0.0024702
0.00207452
0.00188458
0.00183194
0.00190569
0.00205259
0.00221026
0.00236046
0.00252535
0.00273519
0.00293784
0.00314425
0.00324314
0.00329329
0.003311
0.00325361
0.00222935
0.00108017
0.000619513
0.000430473
0.000357477
0.000296096
0.000768672
0.000275163
0.000189259
0.000155962
0.000146821
0.000142572
0.000138711
0.000139185
0.000137998
0.000115956
0.000108835
9.51438e-05
8.55878e-05
6.83624e-05
5.35636e-05
4.50704e-05
4.69322e-05
5.35854e-05
6.17731e-05
6.94892e-05
7.58677e-05
8.1224e-05
8.54908e-05
8.87962e-05
9.1274e-05
9.31685e-05
9.45578e-05
9.53176e-05
9.52206e-05
9.42639e-05
9.29977e-05
9.17909e-05
9.06732e-05
8.95479e-05
8.83803e-05
8.71154e-05
8.58129e-05
8.45664e-05
8.30549e-05
8.22997e-05
8.08151e-05
8.2515e-05
8.34918e-05
8.9159e-05
9.50734e-05
0.000104907
0.000127235
0.000151703
0.000215533
0.000385224
0.000858605
0.00241006
0.00757309
0.017475
0.0200894
0.0249934
0.0279157
0.0215113
0.00774634
0.00791754
0.0270152
0.00231792
0.00184646
0.00174018
0.00182924
0.00202715
0.00229563
0.0025835
0.00290749
0.00309531
0.00317591
0.00321004
0.00318977
0.00304874
0.00272066
0.00221398
0.00188722
0.0017679
0.00185015
0.00198803
0.00218077
0.00235708
0.00264978
0.00297069
0.00309643
0.00327424
0.00334305
0.00328743
0.00287004
0.00225922
0.00197151
0.00113868
0.000850454
0.000804578
0.000964779
0.00157088
0.000594677
0.000317904
0.000208266
0.000164149
0.000138407
0.000119507
0.000130274
0.000140711
0.000140204
0.000118095
0.000109729
9.12008e-05
7.69507e-05
5.31664e-05
3.6139e-05
2.84464e-05
2.85342e-05
3.17365e-05
3.63314e-05
4.11867e-05
4.67978e-05
5.18581e-05
5.59538e-05
5.92188e-05
6.15998e-05
6.32927e-05
6.44054e-05
6.50814e-05
6.50049e-05
6.39834e-05
6.26552e-05
6.14247e-05
6.03506e-05
5.94084e-05
5.86536e-05
5.80658e-05
5.74608e-05
5.71508e-05
5.64686e-05
5.68933e-05
5.59411e-05
5.75467e-05
5.78138e-05
6.25292e-05
6.69937e-05
7.30684e-05
8.66188e-05
9.92339e-05
0.000156342
0.000372949
0.00165802
0.00578821
0.0142782
0.0171519
0.0150923
0.014822
0.0106588
0.00674321
0.00791363
0.0080998
0.0289656
0.00316083
0.00283657
0.00276543
0.00287265
0.00304607
0.00321491
0.00344785
0.0035906
0.00376238
0.00390297
0.00400513
0.00403396
0.00372448
0.00322866
0.00239886
0.00174294
0.00133675
0.00123314
0.00122632
0.0012098
0.00127797
0.00137957
0.00152175
0.00169778
0.00233764
0.00372903
0.00491968
0.00540426
0.0037906
0.00235602
0.00178507
0.00160535
0.00187435
0.00194526
0.00112958
0.000575942
0.000360114
0.000266338
0.000226112
0.000134426
0.000101399
9.56089e-05
0.000105861
0.000112834
0.000108563
9.99557e-05
8.066e-05
6.12666e-05
3.9982e-05
2.68513e-05
2.18772e-05
2.141e-05
2.27081e-05
2.4909e-05
2.73866e-05
3.00617e-05
3.2569e-05
3.46505e-05
3.63439e-05
3.75915e-05
3.85103e-05
3.93233e-05
3.99461e-05
4.00012e-05
3.94997e-05
3.88617e-05
3.82591e-05
3.78332e-05
3.75247e-05
3.72047e-05
3.67851e-05
3.63988e-05
3.6255e-05
3.5996e-05
3.63287e-05
3.59306e-05
3.66993e-05
3.67637e-05
3.9021e-05
4.21358e-05
4.52084e-05
5.1817e-05
5.18828e-05
7.33344e-05
0.000276876
0.00281941
0.0105822
0.018177
0.0183238
0.0190087
0.0201854
0.014972
0.0125071
0.00813725
0.00832472
0.0317704
0.00338829
0.00332751
0.00323398
0.00375384
0.00388784
0.00412294
0.00420007
0.0042258
0.00423657
0.00415743
0.00406389
0.00383119
0.00343842
0.00289609
0.00216402
0.00151961
0.00106494
0.000835216
0.000727974
0.000727683
0.000809099
0.000937066
0.000950919
0.000941694
0.000917642
0.00099012
0.00125568
0.0027517
0.00473838
0.00443148
0.00242103
0.00193288
0.0018277
0.00146428
0.000534027
0.000671814
0.000325388
0.000294933
0.000243649
0.00016879
0.000121296
7.92241e-05
6.97304e-05
7.21507e-05
8.12911e-05