/*--------------------------------*- C++ -*----------------------------------*\
| =========                 |                                                 |
| \\      /  F ield         | OpenFOAM: The Open Source CFD Toolbox           |
|  \\    /   O peration     | Version:  2.3.0                                 |
|   \\  /    A nd           | Web:      www.OpenFOAM.org                      |
|    \\/     M anipulation  |                                                 |
\*---------------------------------------------------------------------------*/
FoamFile
{
    version     2.0;
    format      ascii;
    class       surfaceScalarField;
    location    "40";
    object      phi.air;
}
// * * * * * * * * * * * * * * * * * * * * * * * * * * * * * * * * * * * * * //

dimensions      [0 3 -1 0 0 0 0];

internalField   nonuniform List<scalar> 
16448
(
-1.37636e-06
-2.61711e-06
5.56012e-07
6.10518e-07
-2.72995e-06
7.43072e-07
5.71401e-07
-1.1736e-06
1.21271e-06
4.25122e-07
-9.701e-07
1.11637e-06
1.9927e-09
-5.07593e-07
9.30712e-07
-1.58389e-07
-7.06652e-07
8.67024e-07
-2.18556e-07
-6.81092e-07
7.41248e-07
-2.24203e-07
-6.39858e-07
6.45495e-07
-2.9974e-07
-4.80221e-07
5.55748e-07
-4.63151e-07
-3.42522e-07
5.05924e-07
-6.47135e-07
-2.62183e-07
4.46159e-07
-7.21017e-07
-2.77829e-07
3.51701e-07
-6.86398e-07
-3.2089e-07
2.86262e-07
-5.59512e-07
-3.66363e-07
2.39468e-07
-4.16417e-07
-3.84525e-07
2.4142e-07
-2.6813e-07
-4.05896e-07
2.57599e-07
-1.41929e-07
-4.17297e-07
2.91086e-07
-3.82358e-08
-4.29934e-07
3.26229e-07
3.56443e-08
-4.39406e-07
3.65514e-07
7.9009e-08
-4.44749e-07
4.01372e-07
9.36781e-08
-4.4719e-07
4.32509e-07
8.99033e-08
-4.50049e-07
4.53811e-07
7.53131e-08
-4.48255e-07
4.62833e-07
5.51147e-08
-4.4175e-07
4.61936e-07
3.29696e-08
-4.30736e-07
4.52869e-07
1.18871e-08
-4.1646e-07
4.3753e-07
-4.81122e-09
-4.02477e-07
4.19163e-07
-1.5206e-08
-3.8953e-07
3.99912e-07
-1.99358e-08
-3.76334e-07
3.81051e-07
-2.30521e-08
-3.61606e-07
3.64709e-07
-2.81704e-08
-3.45287e-07
3.50393e-07
-3.58715e-08
-3.28156e-07
3.35844e-07
-4.39334e-08
-3.11192e-07
3.19241e-07
-4.86819e-08
-2.95001e-07
2.99736e-07
-4.62488e-08
-2.80279e-07
2.77833e-07
-3.46631e-08
-2.67369e-07
2.5577e-07
-1.65961e-08
-2.55686e-07
2.37606e-07
-8.28592e-10
-2.4455e-07
2.2877e-07
-2.44941e-09
-2.33451e-07
2.35059e-07
-4.81466e-08
-2.20005e-07
2.65688e-07
-1.87074e-07
-1.96289e-07
3.35204e-07
-4.74052e-07
-1.77436e-07
4.64401e-07
-9.06108e-07
-2.01417e-07
6.3346e-07
-1.28027e-06
-4.32066e-07
8.0622e-07
-1.30693e-06
-9.35855e-07
9.625e-07
-8.76497e-07
-1.51586e-06
1.08542e-06
-3.43031e-07
-1.62254e-06
1.08906e-06
-7.47668e-07
-9.02132e-07
1.30675e-06
-3.19648e-06
3.63105e-07
2.08569e-06
-3.31752e-06
-3.07006e-06
3.19107e-06
3.478e-06
-1.0403e-05
3.6075e-06
1.09638e-05
-1.14909e-05
4.00508e-06
1.69872e-05
-1.04149e-05
4.39145e-06
2.18676e-05
-9.02788e-06
4.14748e-06
2.41819e-05
-6.43082e-06
4.11641e-06
2.36628e-05
-2.70961e-06
3.22867e-06
1.731e-05
2.09425e-06
4.2585e-06
1.21445e-05
5.08709e-06
7.84894e-08
-1.1089e-05
1.28524e-05
1.00741e-05
-3.13704e-05
-3.70495e-06
-6.84252e-06
-6.43745e-05
-2.05063e-05
4.6464e-06
-4.3172e-05
-5.76778e-06
8.9463e-06
3.59371e-06
-8.10353e-07
6.8518e-06
3.34573e-05
-6.0748e-06
5.91218e-06
3.24018e-05
-3.09688e-06
4.12571e-06
3.0083e-05
-1.26409e-06
3.55096e-06
2.74494e-05
-1.38611e-06
3.97123e-06
2.5218e-05
-2.57443e-06
4.60623e-06
2.28751e-05
-2.89945e-06
5.14387e-06
2.07907e-05
-2.85822e-06
4.91756e-06
1.89475e-05
-2.98923e-06
4.75877e-06
1.64065e-05
-2.24369e-06
4.76731e-06
1.30517e-05
-2.31295e-06
5.5166e-06
1.0322e-05
-2.94766e-06
5.58522e-06
7.47545e-06
-1.77e-06
4.62882e-06
2.67876e-06
1.79206e-06
2.97675e-06
-1.05853e-06
1.5979e-06
2.17002e-06
-5.35555e-06
1.3871e-06
2.94613e-06
-1.18207e-05
2.37311e-06
4.04757e-06
-1.52556e-05
7.50873e-07
2.61224e-06
-1.53008e-05
-1.05635e-06
1.07274e-06
-1.33186e-05
-1.48798e-07
-1.74052e-06
-8.26252e-06
1.59964e-06
-6.71557e-06
-1.99158e-06
1.33348e-06
-7.74448e-06
2.31243e-06
9.3055e-07
-5.26584e-06
4.70887e-06
1.3903e-06
-3.83594e-06
6.28496e-06
1.72704e-06
-3.34387e-06
7.81295e-06
1.66341e-06
-3.21609e-06
9.26703e-06
1.07838e-06
-2.52394e-06
1.12758e-05
3.63775e-07
-2.41859e-06
1.26297e-05
3.85894e-07
-1.73565e-06
1.30451e-05
1.20795e-06
-1.67625e-06
1.24483e-05
1.72036e-06
-1.14187e-06
1.02768e-05
1.16667e-06
1.03276e-06
4.70492e-06
2.2473e-06
3.47915e-06
1.32593e-06
4.30368e-06
-2.06954e-06
-3.73992e-06
-1.74765e-07
-5.93782e-07
-4.03012e-06
-1.75592e-07
-2.56513e-07
-2.22832e-06
7.17438e-07
1.39917e-07
-1.85146e-06
4.84912e-07
1.43736e-07
-8.17782e-07
3.06356e-07
-3.67097e-08
-8.11421e-07
2.85198e-07
-2.25135e-07
-6.5366e-07
1.6098e-07
-3.4676e-07
-6.1716e-07
9.89127e-08
-4.86058e-07
-4.16851e-07
7.59165e-08
-6.73973e-07
-2.60778e-07
1.06158e-07
-8.43723e-07
-1.76724e-07
8.42791e-08
-8.91067e-07
-2.39174e-07
8.67724e-09
-8.46848e-07
-3.08272e-07
-5.68497e-08
-7.22726e-07
-3.84308e-07
-1.06192e-07
-5.74355e-07
-4.15169e-07
-1.17742e-07
-4.14663e-07
-4.49266e-07
-1.16338e-07
-2.71989e-07
-4.63855e-07
-9.61335e-08
-1.50347e-07
-4.78557e-07
-7.30358e-08
-5.62907e-08
-4.87459e-07
-4.60204e-08
8.57059e-09
-4.88767e-07
-2.08615e-08
4.28734e-08
-4.8377e-07
2.25801e-09
5.54479e-08
-4.75466e-07
1.28239e-08
5.36861e-08
-4.63504e-07
1.69904e-08
4.29685e-08
-4.46942e-07
1.58891e-08
2.73311e-08
-4.25942e-07
1.08232e-08
9.90193e-09
-4.02237e-07
3.18478e-09
-4.65353e-09
-3.7841e-07
-9.53333e-09
-1.45592e-08
-3.558e-07
-2.38467e-08
-2.09614e-08
-3.32555e-07
-3.73988e-08
-2.70589e-08
-3.06134e-07
-4.93966e-08
-3.42834e-08
-2.77443e-07
-6.06424e-08
-4.16013e-08
-2.48548e-07
-7.23134e-08
-4.73374e-08
-2.20772e-07
-8.47077e-08
-4.97236e-08
-1.94902e-07
-9.77362e-08
-4.71969e-08
-1.71957e-07
-1.10873e-07
-3.96667e-08
-1.52524e-07
-1.22399e-07
-3.03413e-08
-1.35948e-07
-1.29088e-07
-2.78748e-08
-1.2e-07
-1.27042e-07
-4.83526e-08
-1.03239e-07
-1.0976e-07
-1.2085e-07
-7.96274e-08
-6.79061e-08
-2.95203e-07
-3.24336e-08
1.04715e-08
-6.25612e-07
3.47087e-08
1.18238e-07
-1.13747e-06
5.30183e-08
2.57394e-07
-1.73662e-06
-2.04196e-07
3.71259e-07
-2.30489e-06
-8.57418e-07
4.89808e-07
-2.91779e-06
-1.58275e-06
6.79769e-07
-3.66481e-06
-1.57278e-06
6.97242e-07
-4.04357e-06
-1.09873e-06
5.75342e-07
-2.33948e-06
-1.88903e-06
5.48015e-07
3.87692e-06
-9.5027e-06
2.16193e-07
9.53226e-06
-1.83567e-05
2.29826e-06
1.39892e-05
-1.95761e-05
3.62825e-06
1.76822e-05
-1.75217e-05
3.41373e-06
2.08855e-05
-1.49187e-05
2.68747e-06
2.24381e-05
-9.36573e-06
1.38225e-06
2.53896e-05
-5.21767e-06
-4.43459e-07
2.14983e-05
5.1709e-06
8.14529e-07
2.24465e-05
6.19667e-06
-2.05775e-06
-5.85186e-06
2.48335e-05
1.61322e-05
-2.96878e-05
-6.21059e-06
-3.425e-06
-7.31484e-05
-2.72046e-05
9.80383e-08
-3.02962e-05
-1.00878e-05
9.44229e-06
2.1976e-06
-7.03837e-06
9.78229e-06
-5.53139e-06
-4.9809e-06
6.4445e-06
-9.28512e-06
-2.88327e-06
3.66453e-06
-1.27301e-05
-1.01305e-06
3.11134e-06
-1.47584e-05
-2.7284e-06
3.44792e-06
-1.5253e-05
-6.22884e-06
4.31162e-06
-1.42943e-05
-7.92304e-06
4.23269e-06
-1.28358e-05
-8.47224e-06
4.19588e-06
-1.09057e-05
-8.92041e-06
4.02245e-06
-8.31639e-06
-8.57126e-06
3.74309e-06
-5.3453e-06
-8.34753e-06
3.03686e-06
-2.95227e-06
-7.81008e-06
2.49141e-06
-1.82261e-06
-5.87784e-06
3.02287e-06
-9.08619e-07
-2.63949e-06
3.56423e-06
-2.07389e-06
-9.63901e-07
3.78264e-06
-6.83578e-06
1.15061e-06
5.03984e-06
-1.16776e-05
2.46829e-06
4.73264e-06
-1.38912e-05
1.55236e-06
1.45423e-06
-1.34722e-05
-7.62501e-07
-6.90919e-07
-1.09099e-05
-7.5765e-07
-1.96989e-06
-6.05871e-06
1.87605e-06
-5.16568e-06
-6.20959e-07
3.95323e-06
-8.1469e-06
2.97927e-06
4.31759e-06
-7.09735e-06
4.98505e-06
4.13086e-06
-4.79199e-06
6.50756e-06
3.36062e-06
-3.23288e-06
7.68552e-06
2.79567e-06
-2.37611e-06
8.99138e-06
2.0476e-06
-2.36189e-06
1.06127e-05
1.46463e-06
-2.7515e-06
1.18467e-05
2.01144e-06
-2.80674e-06
1.16821e-05
3.67981e-06
-2.29297e-06
1.04416e-05
5.05366e-06
-2.10964e-06
8.15986e-06
4.15304e-06
-6.36379e-07
3.40857e-06
4.07657e-06
3.1849e-06
1.65415e-06
4.11449e-06
-2.62342e-06
-4.10694e-06
-3.87582e-07
-1.51527e-06
-4.58843e-06
-5.49835e-07
-1.06853e-06
-2.86081e-06
1.85743e-07
-3.43808e-07
-2.50693e-06
-6.9255e-08
-5.78151e-08
-1.00892e-06
-9.48695e-08
-1.48967e-07
-7.05933e-07
-1.435e-08
-3.45193e-07
-3.45392e-07
-1.12056e-07
-4.7423e-07
-3.49645e-07
-1.3849e-07
-5.72242e-07
-1.56643e-07
-1.62207e-07
-6.43278e-07
-5.37431e-08
-1.36011e-07
-7.27154e-07
3.22014e-08
-1.25062e-07
-7.56463e-07
-3.98232e-08
-1.70055e-07
-7.52342e-07
-9.3403e-08
-2.19003e-07
-7.01712e-07
-1.72685e-07
-2.62268e-07
-6.21817e-07
-2.10389e-07
-2.84689e-07
-5.16817e-07
-2.51381e-07
-3.02901e-07
-4.10579e-07
-2.66461e-07
-3.03648e-07
-3.12367e-07
-2.78162e-07
-2.98624e-07
-2.27933e-07
-2.82335e-07
-2.89576e-07
-1.57288e-07
-2.79363e-07
-2.80068e-07
-1.02766e-07
-2.6646e-07
-2.71851e-07
-6.52729e-08
-2.47298e-07
-2.65681e-07
-4.21513e-08
-2.25018e-07
-2.61627e-07
-2.98069e-08
-1.99488e-07
-2.59818e-07
-2.46782e-08
-1.71629e-07
-2.59462e-07
-2.36168e-08
-1.43005e-07
-2.60313e-07
-2.51743e-08
-1.14628e-07
-2.62246e-07
-2.91201e-08
-8.69064e-08
-2.64969e-07
-3.48934e-08
-5.8479e-08
-2.68324e-07
-4.14509e-08
-2.72313e-08
-2.72367e-07
-4.67071e-08
5.1748e-09
-2.77384e-07
-5.16949e-08
3.95799e-08
-2.83162e-07
-5.63462e-08
7.19069e-08
-2.8805e-07
-6.23785e-08
1.02302e-07
-2.91195e-07
-7.20585e-08
1.29922e-07
-2.92222e-07
-8.80425e-08
1.54313e-07
-2.90877e-07
-1.14467e-07
1.76295e-07
-2.85843e-07
-1.59617e-07
1.98409e-07
-2.73284e-07
-2.36251e-07
2.21395e-07
-2.48024e-07
-3.57136e-07
2.45921e-07
-2.04689e-07
-5.30307e-07
2.79532e-07
-1.3882e-07
-7.86914e-07
3.34245e-07
-4.2954e-08
-1.18633e-06
3.81878e-07
7.05303e-08
-1.81911e-06
2.28208e-07
2.00353e-07
-2.83505e-06
-2.04195e-07
3.62692e-07
-4.10208e-06
-7.9261e-07
4.76864e-07
-5.09987e-06
-9.08427e-07
3.33422e-07
-4.75582e-06
-1.28401e-06
-1.58803e-07
-4.11485e-08
-5.70383e-06
-8.9992e-07
5.62592e-06
-1.51852e-05
1.53901e-08
5.16113e-06
-2.25252e-05
4.63329e-06
2.38389e-06
-2.30954e-05
6.2965e-06
8.01637e-07
-2.10678e-05
5.12832e-06
1.10823e-06
-1.82882e-05
3.06291e-06
7.90663e-06
-1.5264e-05
-9.00166e-07
1.94062e-05
-1.24685e-05
-4.24876e-06
2.0076e-05
8.60688e-06
-4.10593e-06
2.56885e-05
3.76379e-06
-3.17953e-06
-3.34674e-06
3.33419e-05
2.00943e-05
-3.39894e-05
-1.01543e-05
5.16319e-07
-9.26167e-05
-2.85034e-05
1.10228e-06
-5.14277e-05
-1.11167e-05
7.18206e-06
-3.71958e-05
-9.05095e-06
7.50405e-06
-3.96798e-05
-5.92905e-06
5.66136e-06
-2.19498e-05
-7.52448e-06
6.71406e-06
-2.10914e-05
-6.93607e-06
4.63398e-06
-1.92537e-05
-8.15534e-06
4.94783e-06
-1.90029e-05
-8.60101e-06
3.40554e-06
-1.83902e-05
-9.29833e-06
1.39054e-06
-1.73208e-05
-9.07137e-06
-1.29898e-07
-1.54087e-05
-9.45312e-06
-9.78804e-07
-1.22687e-05
-9.0415e-06
-1.97174e-06
-8.28196e-06
-9.55155e-06
-2.85605e-06
-4.30663e-06
-8.93827e-06
-2.90707e-06
-6.05632e-07
-6.83174e-06
-2.75289e-06
1.90521e-06
-3.24493e-06
-1.90451e-06
1.85993e-06
-4.3552e-07
-4.01351e-07
-1.14726e-06
3.14337e-06
1.03126e-06
-6.44576e-06
5.15972e-06
2.58444e-06
-9.5143e-06
4.14548e-06
3.98988e-07
-9.93301e-06
1.40348e-06
-1.79927e-06
-7.64213e-06
1.01391e-06
-4.04416e-06
-3.5512e-06
4.9435e-06
-7.15605e-06
1.21119e-06
9.65976e-06
-1.06365e-05
4.87516e-06
9.61848e-06
-9.08468e-06
6.78679e-06
6.48856e-06
-4.23166e-06
8.83651e-06
3.01394e-06
-1.65339e-06
1.12268e-05
-1.21263e-06
1.62761e-06
1.30106e-05
-2.68227e-06
2.93244e-06
1.45485e-05
-1.73594e-06
1.63538e-06
1.62004e-05
4.51435e-07
-1.31021e-07
1.58599e-05
4.12045e-06
-7.8355e-08
1.35516e-05
7.39884e-06
4.01154e-10
9.55457e-06
8.86488e-06
-7.56632e-07
3.85621e-06
8.75442e-06
1.24379e-06
3.3358e-06
3.35008e-06
-3.10175e-06
-4.19407e-06
-1.84341e-07
-2.00199e-06
-4.93137e-06
-7.56822e-07
-1.66406e-06
-3.25035e-06
5.15919e-08
-8.99699e-07
-3.15799e-06
-1.13316e-07
-4.55599e-07
-1.40072e-06
-5.23095e-08
-3.0583e-07
-8.24046e-07
-3.16711e-08
-3.80206e-07
-1.29896e-07
-1.41133e-07
-4.49954e-07
-1.29504e-07
-1.50405e-07
-4.81338e-07
6.08923e-08
-1.86164e-07
-4.90406e-07
1.37856e-07
-1.82543e-07
-5.2615e-07
2.68417e-07
-2.00484e-07
-5.68134e-07
2.33561e-07
-2.31413e-07
-6.20294e-07
2.17856e-07
-2.59114e-07
-6.29876e-07
1.33117e-07
-2.96235e-07
-6.04247e-07
8.41935e-08
-3.20227e-07
-5.42164e-07
3.62161e-08
-3.49696e-07
-4.62679e-07
2.20101e-08
-3.67973e-07
-3.82698e-07
2.25521e-08
-3.80712e-07
-3.09134e-07
3.12641e-08
-3.87181e-07
-2.42567e-07
4.43165e-08
-3.90264e-07
-1.8353e-07
6.43592e-08
-3.89876e-07
-1.3348e-07
8.91076e-08
-3.86475e-07
-9.43639e-08
1.16711e-07
-3.80864e-07
-6.65918e-08
1.47452e-07
-3.74732e-07
-4.96646e-08
1.80501e-07
-3.69078e-07
-4.14775e-08
2.12779e-07
-3.63993e-07
-3.95752e-08
2.43175e-07
-3.59727e-07
-4.17108e-08
2.72006e-07
-3.56798e-07
-4.6031e-08
3.01526e-07
-3.55707e-07
-5.1381e-08
3.34336e-07
-3.5624e-07
-5.83614e-08
3.69466e-07
-3.57334e-07
-6.57431e-08
4.04331e-07
-3.57392e-07
-7.54006e-08
4.37815e-07
-3.56274e-07
-8.92058e-08
4.69561e-07
-3.53477e-07
-1.10048e-07
4.9939e-07
-3.4865e-07
-1.4339e-07
5.28358e-07
-3.40727e-07
-1.97845e-07
5.5848e-07
-3.27754e-07
-2.83228e-07
5.90897e-07
-3.0713e-07
-4.1038e-07
6.24477e-07
-2.75956e-07
-5.84254e-07
6.51881e-07
-2.3211e-07
-7.93251e-07
6.61464e-07
-1.7296e-07
-1.00785e-06
6.44848e-07
-9.60324e-08
-1.24932e-06
6.08961e-07
1.43607e-08
-1.64894e-06
4.96852e-07
1.30951e-07
-2.35666e-06
2.21412e-07
2.82088e-07
-3.31758e-06
-1.71166e-07
3.39455e-07
-3.80784e-06
-5.7505e-07
1.56861e-07
-2.84074e-06
-1.93696e-06
-3.14171e-07
-7.09756e-07
-7.735e-06
-9.98691e-08
-4.33064e-06
-1.54753e-05
3.91091e-06
-1.55309e-05
-2.05769e-05
9.25197e-06
-2.42163e-05
-2.27642e-05
8.3542e-06
-2.69829e-05
-2.29276e-05
4.62646e-06
-2.29028e-05
-2.29093e-05
5.41087e-07
-1.36517e-05
-2.1969e-05
-2.54608e-06
-3.09938e-06
-1.6786e-05
-6.23464e-06
1.28575e-05
6.74118e-07
-8.02414e-06
1.67992e-05
-4.75173e-06
4.57377e-06
1.41599e-06
2.32386e-05
2.41975e-05
-4.47456e-05
-8.09895e-06
3.20567e-07
-0.000127614
-2.5322e-05
4.33791e-06
-0.000126908
-9.99359e-06
7.55364e-06
-0.000130123
-9.2411e-06
5.42904e-06
-0.000134513
-7.02819e-06
3.47455e-06
-0.00013425
-7.97764e-06
7.63626e-07
-0.000133252
-7.46379e-06
-8.7449e-07
-0.000132
-7.84839e-06
-1.55084e-06
-0.000131049
-7.05724e-06
-2.96578e-06
-0.000128963
-6.9314e-06
-3.91228e-06
-0.000122899
-6.13384e-06
-4.65004e-06
-0.000103835
-6.06444e-06
-5.93504e-06
-5.34653e-05
-5.36458e-06
-6.65736e-06
-1.43136e-05
-4.045e-06
-8.0758e-06
-9.54472e-06
-3.13633e-06
-8.32061e-06
-4.09866e-06
-9.39254e-07
-8.1816e-06
-2.20048e-07
2.6214e-06
-6.9777e-06
1.97409e-07
5.72096e-06
-5.08645e-06
-3.04289e-06
7.67681e-06
-1.71581e-06
-6.85703e-06
8.14882e-06
2.63505e-07
-7.23928e-06
7.21158e-06
-5.09035e-07
-6.01457e-06
9.35458e-06
-5.75016e-06
-4.3826e-06
1.33363e-05
-1.24048e-05
-2.28941e-06
1.56183e-05
-1.26242e-05
1.71863e-06
1.35555e-05
-1.08904e-05
3.90581e-06
8.0924e-06
-5.83738e-06
5.55847e-06
-6.36127e-07
-4.95279e-07
8.27931e-06
-7.09077e-06
2.93063e-06
9.68282e-06
-8.79183e-06
6.38693e-06
1.11009e-05
-8.05919e-06
4.16718e-06
1.39071e-05
-5.54441e-06
1.01387e-06
1.61184e-05
-1.49599e-06
-2.22161e-07
1.70643e-05
2.70009e-06
4.07626e-07
1.54009e-05
7.83955e-06
1.16086e-06
1.17017e-05
1.17495e-05
8.31136e-07
6.35158e-06
1.32784e-05
1.06931e-06
9.14189e-06
1.90775e-06
-3.43392e-06
-4.11456e-06
3.93132e-09
-2.29381e-06
-5.22435e-06
-8.47124e-07
-2.07621e-06
-3.49574e-06
2.77859e-08
-1.32406e-06
-3.69785e-06
-2.12301e-07
-9.06245e-07
-1.94493e-06
1.26381e-07
-4.84722e-07
-1.27614e-06
3.0556e-08
-3.47763e-07
-1.17092e-07
-1.49775e-07
-3.8897e-07
6.80447e-08
-1.56353e-07
-3.55752e-07
2.36724e-07
-2.09062e-07
-3.36556e-07
3.24448e-07
-2.058e-07
-3.51319e-07
4.97179e-07
-2.14011e-07
-4.08787e-07
5.09489e-07
-2.18475e-07
-4.99708e-07
5.31901e-07
-2.23137e-07
-5.50744e-07
4.28968e-07
-2.44829e-07
-5.55724e-07
3.5339e-07
-2.64231e-07
-5.17975e-07
2.94062e-07
-2.95611e-07
-4.57701e-07
2.83505e-07
-3.21785e-07
-3.96327e-07
3.05193e-07
-3.44031e-07
-3.36353e-07
3.3269e-07
-3.61416e-07
-2.78187e-07
3.60464e-07
-3.7433e-07
-2.20334e-07
3.89759e-07
-3.8327e-07
-1.65632e-07
4.21613e-07
-3.87226e-07
-1.18526e-07
4.55958e-07
-3.86372e-07
-8.14601e-08
4.91697e-07
-3.81331e-07
-5.54289e-08
5.27779e-07
-3.73329e-07
-3.90312e-08
5.60688e-07
-3.64327e-07
-2.9843e-08
5.89328e-07
-3.55361e-07
-2.62083e-08
6.15552e-07
-3.47201e-07
-2.74149e-08
6.42674e-07
-3.39962e-07
-3.22763e-08
6.72721e-07
-3.33544e-07
-4.04319e-08
7.05043e-07
-3.27442e-07
-5.25626e-08
7.37622e-07
-3.21182e-07
-6.97984e-08
7.69389e-07
-3.1436e-07
-9.3808e-08
7.99929e-07
-3.06381e-07
-1.2942e-07
8.31016e-07
-2.96035e-07
-1.85545e-07
8.65738e-07
-2.81277e-07
-2.7391e-07
9.07748e-07
-2.60925e-07
-4.04047e-07
9.56208e-07
-2.35196e-07
-5.7921e-07
1.0017e-06
-2.02086e-07
-7.87475e-07
1.02315e-06
-1.63028e-07
-9.90209e-07
9.86267e-07
-1.22091e-07
-1.12874e-06
8.63851e-07
-8.04917e-08
-1.20136e-06
7.07062e-07
-2.55036e-08
-1.34421e-06
5.71211e-07
6.84671e-08
-1.74672e-06
3.9612e-07
2.27775e-07
-2.56376e-06
2.35274e-07
4.10584e-07
-3.01107e-06
-3.97065e-07
2.69305e-07
-2.53441e-06
-2.33386e-06
-7.98059e-08
-6.67713e-06
-4.37126e-06
7.78936e-07
-2.01244e-05
-8.95229e-06
6.92423e-06
-3.51466e-05
-1.57626e-05
1.02081e-05
-4.38604e-05
-2.05448e-05
6.49443e-06
-4.62482e-05
-2.18469e-05
1.30715e-06
-4.12452e-05
-2.36076e-05
-4.30462e-06
-3.7484e-05
-2.31638e-05
-2.56623e-06
-3.08517e-05
-2.02667e-05
-3.15137e-06
5.33468e-06
-2.76658e-05
-7.84673e-06
2.10293e-05
-2.06942e-05
2.47586e-07
2.59542e-06
2.06663e-05
1.91725e-05
-4.97219e-05
-4.13846e-06
-1.88669e-07
-0.00013497
-2.10383e-05
7.33742e-06
-0.000135815
-6.68478e-06
8.10192e-06
-0.000141395
-7.08456e-06
5.34326e-06
-0.000147555
-5.39329e-06
2.5247e-06
-0.000147993
-5.47993e-06
-1.91615e-06
-0.000147837
-4.81061e-06
-3.37617e-06
-0.000147571
-4.19463e-06
-3.9178e-06
-0.000147321
-2.95088e-06
-4.90654e-06
-0.00014678
-2.04737e-06
-5.55126e-06
-0.000145803
-7.13323e-07
-6.59296e-06
-0.000144301
-2.53402e-07
-7.25909e-06
-0.000141294
1.72257e-07
-8.2093e-06
-0.000136933
1.84277e-07
-8.55276e-06
-0.000131901
1.01048e-06
-7.77096e-06
-0.000127039
2.9406e-06
-6.08896e-06
-0.000124025
6.2925e-06
-3.72087e-06
-0.000122945
9.23865e-06
-2.35301e-06
-0.000123253
1.1467e-05
-2.97631e-06
-0.000124697
1.36352e-05
-7.35627e-06
-0.000123796
1.49621e-05
-9.76831e-06
-0.000121533
1.8065e-05
-1.06864e-05
-0.000119658
1.91462e-05
-7.90326e-06
-0.000118175
1.56239e-05
-3.08171e-06
-0.000116773
8.72746e-06
1.25206e-06
-0.000114312
1.55618e-06
5.06833e-06
-9.97536e-05
-6.35202e-06
6.72158e-06
-4.52327e-05
-1.05531e-05
6.93698e-06
-3.98185e-06
-9.9759e-06
1.62524e-07
1.19015e-06
-6.9457e-06
-5.08529e-06
7.60827e-06
-1.35417e-06
-6.35151e-06
1.03241e-05
1.90561e-06
-6.10131e-06
1.11808e-05
5.06435e-06
-3.24682e-06
1.12454e-05
7.8236e-06
-1.81443e-07
9.81647e-06
1.26042e-05
4.33114e-07
5.61106e-06
1.74331e-05
1.56886e-07
1.56437e-05
5.22294e-07
-3.77366e-06
-3.76741e-06
1.95158e-07
-2.55672e-06
-5.40844e-06
-1.03285e-06
-2.3311e-06
-3.57604e-06
-1.45336e-07
-1.4687e-06
-3.99956e-06
-5.60696e-07
-1.07612e-06
-2.46968e-06
1.32159e-07
-5.18966e-07
-1.81499e-06
-1.83061e-08
-2.47556e-07
-2.37904e-07
-1.50608e-07
-2.86759e-07
2.39087e-07
-1.31849e-07
-2.12901e-07
3.89007e-07
-2.26152e-07
-1.98739e-07
4.99052e-07
-1.88776e-07
-2.04651e-07
7.0511e-07
-2.02031e-07
-2.9011e-07
7.84241e-07
-1.89304e-07
-4.13417e-07
8.40625e-07
-1.8543e-07
-4.82785e-07
7.00912e-07
-2.02588e-07
-4.85906e-07
5.88485e-07
-2.31986e-07
-4.43697e-07
5.20054e-07
-2.68213e-07
-3.87406e-07
5.25723e-07
-2.98521e-07
-3.43745e-07
5.80899e-07
-3.19381e-07
-3.09267e-07
6.3511e-07
-3.36912e-07
-2.77244e-07
6.79083e-07
-3.50656e-07
-2.41876e-07
7.14693e-07
-3.60316e-07
-2.02877e-07
7.47017e-07
-3.64418e-07
-1.65377e-07
7.80845e-07
-3.62403e-07
-1.33096e-07
8.15149e-07
-3.55748e-07
-1.10711e-07
8.51278e-07
-3.459e-07
-9.53989e-08
8.79379e-07
-3.34018e-07
-8.51001e-08
9.00382e-07
-3.21368e-07
-7.75916e-08
9.1706e-07
-3.09032e-07
-7.33749e-08
9.3572e-07
-2.97278e-07
-7.44763e-08
9.60062e-07
-2.86255e-07
-8.256e-08
9.88983e-07
-2.75872e-07
-9.83474e-08
1.01932e-06
-2.65925e-07
-1.22641e-07
1.04982e-06
-2.56157e-07
-1.55707e-07
1.07872e-06
-2.45743e-07
-2.0227e-07
1.1103e-06
-2.3274e-07
-2.70066e-07
1.14874e-06
-2.15222e-07
-3.68885e-07
1.19796e-06
-1.91412e-07
-5.04338e-07
1.25413e-06
-1.62484e-07
-6.65914e-07
1.29576e-06
-1.32489e-07
-8.25714e-07
1.28781e-06
-1.0487e-07
-9.44555e-07
1.18764e-06
-8.25503e-08
-9.60222e-07
9.61283e-07
-8.17784e-08
-8.73002e-07
6.9074e-07
-7.091e-08
-8.14654e-07
5.19531e-07
-6.68065e-09
-1.13676e-06
5.58804e-07
1.59411e-07
-1.87707e-06
6.53722e-07
3.21851e-07
-2.3925e-06
-8.31746e-08
2.01532e-07
-2.74889e-06
-1.77608e-06
-2.01415e-07
-9.64451e-06
1.13134e-06
1.39299e-06
-2.5769e-05
1.01507e-06
6.15714e-06
-4.06106e-05
-9.11348e-06
8.19258e-06
-4.98619e-05
-1.59701e-05
4.6767e-06
-5.36372e-05
-1.86013e-05
5.29809e-07
-5.19059e-05
-2.49277e-05
-4.11108e-07
-4.63686e-05
-2.88547e-05
1.53788e-07
-3.41763e-05
-3.04949e-05
-1.964e-06
-2.27795e-05
-3.43518e-05
-4.71101e-06
-1.71513e-05
-2.34546e-05
-2.86779e-06
4.09558e-08
1.31458e-06
-3.65309e-08
-5.49385e-05
-3.20572e-07
-1.77653e-06
-0.000142326
-1.80597e-05
9.31219e-06
-0.000146822
2.37629e-07
9.55894e-06
-0.000152917
-3.22121e-06
5.92281e-06
-0.000158542
-2.25095e-06
1.16359e-06
-0.000158288
-1.59112e-06
-3.71795e-06
-0.000157324
-4.28929e-07
-5.37316e-06
-0.000156791
7.83928e-07
-5.30992e-06
-0.000156569
2.03266e-06
-5.24889e-06
-0.00015632
3.15034e-06
-5.39163e-06
-0.0001558
4.64409e-06
-5.68454e-06
-0.000154967
5.23545e-06
-6.05738e-06
-0.000153081
5.4921e-06
-6.99035e-06
-0.000150089
5.1236e-06
-7.42574e-06
-0.000146828
5.21686e-06
-7.40844e-06
-0.000144543
6.4714e-06
-6.36963e-06
-0.000143863
9.59382e-06
-4.91666e-06
-0.000144387
1.28083e-05
-3.98947e-06
-0.000145693
1.62304e-05
-4.62549e-06
-0.000146685
1.82751e-05
-5.21533e-06
-0.000146042
1.92948e-05
-4.53839e-06
-0.000144405
1.93749e-05
-1.96094e-06
-0.000142834
1.7014e-05
1.6949e-06
-0.000141741
1.08335e-05
4.89337e-06
-0.000142224
4.14673e-06
7.31283e-06
-0.000145023
-1.59161e-06
7.75683e-06
-0.000147362
-6.49403e-06
4.76737e-06
-0.000144788
-9.69576e-06
6.13113e-07
-0.000135313
-1.08856e-05
-1.48803e-06
-0.000108957
-8.05503e-06
-2.55101e-06
-4.5495e-05
-1.52099e-06
-2.69265e-06
1.75819e-06
1.28841e-06
-1.00705e-06
1.12779e-06
7.03853e-06
-4.54324e-07
1.55989e-06
8.92856e-06
8.6665e-07
3.18344e-06
1.35278e-05
4.93082e-07
2.59587e-06
1.9907e-05
1.38031e-07
2.09132e-05
-7.19635e-07
-3.95325e-06
-3.05038e-06
3.94365e-07
-2.72228e-06
-5.24774e-06
-1.39168e-06
-2.52884e-06
-3.31722e-06
-4.52265e-07
-1.46097e-06
-4.02711e-06
-1.04033e-06
-8.89187e-07
-2.79048e-06
-2.50983e-07
-3.76677e-07
-2.0444e-06
-2.83109e-07
-1.52964e-07
-2.23984e-07
-2.3764e-07
-2.51904e-07
4.97745e-07
-1.59726e-07
-1.44346e-07
5.73527e-07
-2.92086e-07
-1.29858e-07
6.9797e-07
-2.13414e-07
-1.22599e-07
9.10572e-07
-2.1273e-07
-2.00896e-07
1.02669e-06
-1.64166e-07
-3.08734e-07
1.10282e-06
-1.54361e-07
-3.64497e-07
9.37525e-07
-1.80858e-07
-3.66326e-07
8.20817e-07
-2.30512e-07
-3.35301e-07
7.59996e-07
-2.70977e-07
-3.00184e-07
7.89848e-07
-2.9925e-07
-2.80421e-07
8.70863e-07
-3.09736e-07
-2.74669e-07
9.45772e-07
-3.16423e-07
-2.75039e-07
1.00126e-06
-3.21817e-07
-2.74821e-07
1.04043e-06
-3.25964e-07
-2.69548e-07
1.06913e-06
-3.27394e-07
-2.60379e-07
1.09502e-06
-3.23351e-07
-2.50552e-07
1.12033e-06
-3.15016e-07
-2.46157e-07
1.14792e-06
-3.01043e-07
-2.43872e-07
1.16532e-06
-2.88236e-07
-2.39707e-07
1.17278e-06
-2.76567e-07
-2.32763e-07
1.17631e-06
-2.66206e-07
-2.25285e-07
1.18449e-06
-2.56253e-07
-2.23024e-07
1.20409e-06
-2.46292e-07
-2.30404e-07
1.23266e-06
-2.36303e-07
-2.48837e-07
1.2644e-06
-2.26651e-07
-2.78657e-07
1.29669e-06
-2.17057e-07
-3.16652e-07
1.32375e-06
-2.07036e-07
-3.64196e-07
1.35273e-06
-1.94884e-07
-4.24238e-07
1.38812e-06
-1.79347e-07
-4.98438e-07
1.43217e-06
-1.60012e-07
-5.81757e-07
1.47743e-06
-1.39979e-07
-6.57958e-07
1.49848e-06
-1.26526e-07
-7.0286e-07
1.45574e-06
-1.23035e-07
-6.98829e-07
1.31582e-06
-1.32208e-07
-6.30998e-07
1.04468e-06
-1.51229e-07
-5.32414e-07
7.31351e-07
-1.39194e-07
-5.65939e-07
5.90376e-07
-3.73157e-08
-1.12353e-06
9.22943e-07
1.9346e-07
-2.28545e-06
1.4238e-06
3.91846e-07
-3.41861e-06
8.52111e-07
1.97883e-07
-4.35236e-06
-5.4487e-07
-2.97472e-07
-8.14354e-06
4.33867e-06
5.83824e-07
-2.38316e-05
1.11059e-05
5.59731e-06
-4.0583e-05
5.8615e-07
7.05183e-06
-4.80469e-05
-1.07541e-05
2.2479e-06
-5.19482e-05
-1.38533e-05
-8.46544e-07
-5.36994e-05
-2.23085e-05
-8.67929e-07
-5.22766e-05
-3.08832e-05
6.0578e-07
-4.62184e-05
-3.57955e-05
-7.57352e-07
-4.74733e-05
-3.54007e-05
2.30384e-06
-3.05616e-05
-3.41989e-05
-6.16744e-06
2.90098e-06
-2.04568e-05
-1.43834e-05
-6.00825e-05
4.55042e-06
2.42883e-06
-0.000150275
-8.9748e-06
8.63063e-06
-0.00015921
9.77399e-06
1.08311e-05
-0.000166103
2.26514e-06
5.39563e-06
-0.000171735
2.39164e-06
1.3025e-06
-0.000171113
1.55971e-06
-3.89849e-06
-0.000169576
2.52388e-06
-5.40263e-06
-0.000168398
3.78365e-06
-4.47766e-06
-0.000167732
5.35281e-06
-4.55695e-06
-0.000167568
6.92169e-06
-4.25028e-06
-0.0001672
8.38967e-06
-4.63962e-06
-0.000166806
9.64201e-06
-5.10106e-06
-0.000165892
1.0218e-05
-6.01271e-06
-0.000164348
1.01331e-05
-6.43207e-06
-0.000162197
9.67499e-06
-6.77534e-06
-0.000160419
9.78078e-06
-5.61423e-06
-0.000159272
1.12095e-05
-3.43338e-06
-0.000159116
1.36663e-05
-1.69452e-06
-0.000159713
1.64837e-05
-1.34274e-06
-0.000159346
1.74752e-05
3.75147e-07
-0.0001588
1.74687e-05
1.85904e-06
-0.000159362
1.63244e-05
3.82303e-06
-0.00016084
1.29046e-05
6.29967e-06
-0.000163854
7.73175e-06
7.71107e-06
-0.000166967
1.91061e-06
6.89963e-06
-0.000167277
-4.62511e-06
5.0226e-06
-0.000167982
-9.23642e-06
4.53373e-06
-0.000168956
-1.2746e-05
3.21645e-06
-0.000168005
-1.39057e-05
1.366e-06
-0.000164387
-1.28406e-05
-7.06073e-07
-0.000156381
-8.38185e-06
-1.63734e-06
-0.000147286
-9.13464e-07
-1.23108e-06
-0.000141974
5.87402e-06
-1.69197e-06
-0.000137789
1.09859e-05
-2.68005e-06
-0.000133938
1.67426e-05
-2.24835e-06
-0.000132035
2.26954e-05
-1.7876e-06
2.30828e-05
-2.42475e-06
-3.80465e-06
-2.01208e-06
9.30168e-07
-2.86598e-06
-5.06708e-06
-1.11934e-06
-2.82964e-06
-2.94844e-06
-4.05117e-07
-1.69598e-06
-4.03565e-06
-1.12512e-06
-8.42824e-07
-3.13561e-06
-5.08038e-07
-2.28595e-07
-2.20536e-06
-4.53274e-07
-7.24352e-08
-6.46942e-08
-3.15455e-07
-1.86327e-07
7.24187e-07
-1.12557e-07
-1.0907e-07
9.01031e-07
-4.04767e-07
-1.67238e-07
1.02116e-06
-2.65026e-07
-1.28445e-07
1.15832e-06
-2.86545e-07
-1.30704e-07
1.27621e-06
-2.47264e-07
-1.18701e-07
1.3517e-06
-2.60888e-07
-1.07188e-07
1.2312e-06
-3.05191e-07
-1.0907e-07
1.17892e-06
-3.56228e-07
-1.42021e-07
1.18489e-06
-3.9195e-07
-1.88889e-07
1.25807e-06
-4.21358e-07
-2.36482e-07
1.3562e-06
-4.37743e-07
-2.83436e-07
1.44421e-06
-4.51484e-07
-3.30948e-07
1.51188e-06
-4.63114e-07
-3.71639e-07
1.55217e-06
-4.71053e-07
-3.97859e-07
1.57186e-06
-4.76517e-07
-4.12874e-07
1.58837e-06
-4.78336e-07
-4.198e-07
1.60444e-06
-4.77188e-07
-4.19002e-07
1.62087e-06
-4.73753e-07
-4.15345e-07
1.63078e-06
-4.69115e-07
-4.09155e-07
1.63227e-06
-4.65681e-07
-3.99278e-07
1.62962e-06
-4.63179e-07
-3.88739e-07
1.63295e-06
-4.59003e-07
-3.86417e-07
1.65449e-06
-4.52723e-07
-3.97583e-07
1.68849e-06
-4.44663e-07
-4.21753e-07
1.72451e-06
-4.35941e-07
-4.58129e-07
1.75961e-06
-4.26539e-07
-5.014e-07
1.7848e-06
-4.17778e-07
-5.50432e-07
1.80969e-06
-4.07924e-07
-6.03511e-07
1.83746e-06
-3.96254e-07
-6.51722e-07
1.86476e-06
-3.8437e-07
-6.80534e-07
1.88226e-06
-3.7601e-07
-6.82567e-07
1.87296e-06
-3.72431e-07
-6.34974e-07
1.79473e-06
-3.86569e-07
-5.25326e-07
1.6267e-06
-4.20512e-07
-3.57746e-07
1.34054e-06
-4.63424e-07
-1.85262e-07
1.04604e-06
-4.87157e-07
-1.78554e-07
9.34196e-07
-3.50507e-07
-5.57618e-07
1.38362e-06
-8.15865e-08
-1.60386e-06
2.25835e-06
2.11719e-07
-3.20275e-06
2.29329e-06
1.57743e-07
-4.26035e-06
8.96846e-07
-3.84097e-07
-1.39033e-06
2.43645e-06
-9.67827e-07
-6.33239e-06
1.42133e-05
1.83469e-06
-2.77689e-05
1.77392e-05
4.2835e-06
-4.1407e-05
3.90503e-06
-1.021e-06
-4.36547e-05
-6.47402e-06
-5.13153e-06
-4.73302e-05
-1.50692e-05
-3.56376e-06
-5.43657e-05
-2.37632e-05
-8.43082e-08
-5.51404e-05
-3.3212e-05
-1.80863e-06
-6.39295e-05
-3.64951e-05
9.8834e-06
-4.96367e-05
-4.15579e-05
-6.93378e-06
3.38795e-06
-4.21511e-05
-3.96358e-05
-8.46682e-05
1.41066e-05
1.08345e-05
-0.000190661
1.87621e-05
1.49308e-05
-0.000200968
1.29422e-05
1.18001e-05
-0.000210825
6.69109e-06
8.69816e-06
-0.000214337
5.08322e-06
1.65299e-06
-0.000213317
3.20835e-06
-2.66159e-06
-0.000211545
3.0635e-06
-3.545e-06
-0.000210685
4.7324e-06
-2.49662e-06
-0.000210188
6.46468e-06
-2.42221e-06
-0.00021001
8.5759e-06
-2.58102e-06
-0.0002104
1.12054e-05
-3.26858e-06
-0.000210883
1.32889e-05
-3.75426e-06
-0.000210973
1.4035e-05
-4.49952e-06
-0.000210825
1.43968e-05
-5.62191e-06
-0.000209907
1.4134e-05
-6.36027e-06
-0.000208519
1.39072e-05
-6.29163e-06
-0.000206412
1.4372e-05
-5.41021e-06
-0.000204526
1.5936e-05
-3.49645e-06
-0.000204417
1.70286e-05
-8.5312e-07
-0.000206377
1.79269e-05
1.35994e-06
-0.000210004
1.73177e-05
3.46492e-06
-0.000212196
1.49545e-05
4.03663e-06
-0.000212078
1.00707e-05
3.65681e-06
-0.000209745
4.52887e-06
2.92356e-06
-0.000205935
-2.15953e-06
3.18159e-06
-0.000204137
-6.59418e-06
3.62234e-06
-0.000206109
-9.1948e-06
3.82974e-06
-0.000211591
-1.03016e-05
3.68545e-06
-0.000217738
-1.03576e-05
2.15431e-06
-0.000221521
-1.09093e-05
1.56801e-07
-0.000221321
-8.53119e-06
-1.37688e-06
-0.000216592
-3.00814e-06
-3.17333e-06
-0.0002088
3.49119e-06
-5.66262e-06
-0.000201052
8.19128e-06
-6.0093e-06
-0.000193158
1.29469e-05
-5.69112e-06
-0.000183823
1.74523e-05
-3.9618e-06
1.6399e-05
-2.97604e-06
-3.35506e-06
-3.91159e-07
1.84687e-06
-2.94606e-06
-4.9238e-06
-5.52277e-07
-3.18803e-06
-2.6564e-06
-5.00699e-08
-2.17436e-06
-4.15175e-06
-8.97581e-07
-1.11052e-06
-3.61057e-06
-5.88877e-07
-1.56898e-07
-2.61049e-06
-5.48497e-07
3.26037e-08
-4.15469e-07
1.61269e-07
-1.29126e-07
4.90641e-07
3.95271e-07
-1.05845e-07
9.29244e-07
-5.14984e-08
-2.04523e-07
1.03305e-06
8.6782e-08