/*--------------------------------*- C++ -*----------------------------------*\
| =========                 |                                                 |
| \\      /  F ield         | OpenFOAM: The Open Source CFD Toolbox           |
|  \\    /   O peration     | Version:  2.3.0                                 |
|   \\  /    A nd           | Web:      www.OpenFOAM.org                      |
|    \\/     M anipulation  |                                                 |
\*---------------------------------------------------------------------------*/
FoamFile
{
    version     2.0;
    format      ascii;
    class       surfaceScalarField;
    location    "40";
    object      phi.air;
}
// * * * * * * * * * * * * * * * * * * * * * * * * * * * * * * * * * * * * * //

dimensions      [0 3 -1 0 0 0 0];

internalField   nonuniform List<scalar> 
16448
(
-8.26539e-07
-2.61468e-06
3.78479e-07
1.21245e-06
-2.62351e-06
5.84518e-07
1.29489e-06
-1.10521e-06
1.02277e-06
1.13963e-06
-9.28878e-07
1.08415e-06
6.53269e-07
-5.58824e-07
1.04519e-06
2.99314e-07
-6.29465e-07
9.83426e-07
6.17779e-08
-5.84107e-07
8.21648e-07
-5.26422e-08
-5.1379e-07
6.28216e-07
-2.66861e-07
-3.14991e-07
5.29219e-07
-5.5528e-07
-1.98257e-07
4.86689e-07
-7.78359e-07
-1.78512e-07
4.01608e-07
-8.38632e-07
-2.322e-07
2.92492e-07
-7.57574e-07
-3.07871e-07
2.26833e-07
-5.89163e-07
-3.61506e-07
1.93113e-07
-4.12219e-07
-3.92064e-07
2.15141e-07
-2.44514e-07
-4.17141e-07
2.49457e-07
-1.13126e-07
-4.30738e-07
2.99374e-07
-1.21898e-08
-4.46586e-07
3.45675e-07
5.29696e-08
-4.58041e-07
3.92907e-07
8.51734e-08
-4.66282e-07
4.34102e-07
9.44362e-08
-4.74918e-07
4.6568e-07
8.90459e-08
-4.78224e-07
4.83638e-07
7.57168e-08
-4.76492e-07
4.89844e-07
5.85931e-08
-4.70111e-07
4.87257e-07
4.12297e-08
-4.59903e-07
4.77287e-07
2.65551e-08
-4.47121e-07
4.61817e-07
1.63675e-08
-4.32427e-07
4.42634e-07
1.19193e-08
-4.18116e-07
4.22584e-07
1.34633e-08
-4.06412e-07
4.04886e-07
1.80231e-08
-3.94664e-07
3.90122e-07
2.21014e-08
-3.82768e-07
3.78705e-07
2.42903e-08
-3.71485e-07
3.69313e-07
2.47086e-08
-3.61204e-07
3.608e-07
2.30161e-08
-3.51253e-07
3.5296e-07
1.93707e-08
-3.41137e-07
3.44795e-07
1.27348e-08
-3.30173e-07
3.36822e-07
9.97808e-09
-3.21174e-07
3.23942e-07
4.07683e-09
-3.07453e-07
3.13366e-07
1.26865e-08
-3.02196e-07
2.93597e-07
1.33952e-08
-2.82679e-07
2.81982e-07
3.46084e-08
-2.80353e-07
2.59149e-07
3.89104e-08
-2.50894e-07
2.46602e-07
5.93529e-08
-2.52465e-07
2.32032e-07
3.0211e-08
-2.03999e-07
2.3315e-07
-5.39164e-08
-1.76237e-07
2.60373e-07
-2.66391e-07
-8.10252e-08
2.93509e-07
-6.78033e-07
3.44634e-08
3.77187e-07
-1.15854e-06
8.1736e-08
3.98785e-07
-1.77249e-06
1.35873e-07
4.78088e-07
-2.28802e-06
-1.87248e-07
7.02787e-07
-2.49032e-06
-7.60891e-07
9.63194e-07
-2.42104e-06
-1.32959e-06
1.26032e-06
-2.20347e-06
-2.48575e-06
2.26818e-06
-1.60533e-06
-2.71318e-06
2.11505e-06
-1.93134e-06
-2.17836e-06
2.50435e-06
-4.02488e-06
-1.76124e-06
3.85479e-06
-9.59212e-07
-1.11611e-06
-1.95006e-06
8.09084e-07
2.04915e-07
-1.97325e-06
-2.58145e-06
-1.82033e-06
4.88824e-06
-2.96621e-05
-1.04821e-05
8.93827e-06
-6.58708e-05
-1.2204e-05
2.95758e-06
-1.97492e-05
-6.83117e-06
5.74461e-06
1.94221e-05
-5.08817e-06
4.97459e-06
2.06081e-05
-4.67378e-06
3.2641e-06
2.07485e-05
-2.36062e-06
2.13867e-06
1.90151e-05
9.74218e-08
1.71214e-06
1.58619e-05
1.73216e-06
1.43337e-06
1.18516e-05
2.67882e-06
1.29143e-06
7.44163e-06
3.13584e-06
1.20413e-06
2.95495e-06
2.99509e-06
1.29362e-06
-7.66978e-07
2.20187e-06
1.3293e-06
-3.45731e-06
1.17985e-06
1.46869e-06
-5.47883e-06
4.64219e-07
1.58319e-06
-6.67202e-06
-1.19306e-07
1.35815e-06
-7.01966e-06
-5.44378e-07
9.08358e-07
-7.03045e-06
-8.15701e-07
8.25889e-07
-7.03794e-06
-9.25689e-07
9.41765e-07
-6.91123e-06
-9.73378e-07
8.52746e-07
-6.6622e-06
-9.50208e-07
7.1533e-07
-6.19112e-06
-8.98704e-07
4.38967e-07
-5.62408e-06
-7.43158e-07
1.86548e-07
-5.04488e-06
-5.80751e-07
1.04647e-08
-4.38036e-06
-5.9271e-07
-6.36103e-08
-3.49411e-06
-9.05046e-07
2.7536e-08
-2.13913e-06
-1.66989e-06
3.26348e-07
-3.41399e-07
-2.64156e-06
8.59896e-07
1.80901e-06
-3.5394e-06
1.39184e-06
3.96989e-06
-3.79635e-06
1.63104e-06
5.729e-06
-3.41027e-06
1.63776e-06
6.59451e-06
-2.33217e-06
1.45742e-06
6.45508e-06
-1.2308e-06
1.37709e-06
5.58503e-06
-4.92503e-07
1.37833e-06
4.32759e-06
-6.64294e-09
1.30008e-06
2.95398e-06
3.80928e-07
1.11244e-06
1.38936e-06
9.5945e-07
9.35925e-07
1.90547e-06
4.78273e-07
-1.46159e-06
-3.78472e-06
-3.09613e-07
7.62211e-08
-3.91428e-06
-2.47023e-07
4.74918e-07
-2.12399e-06
6.20087e-07
7.54542e-07
-1.80325e-06
5.94757e-07
6.66433e-07
-9.83254e-07
5.12541e-07
4.60252e-07
-8.43915e-07
4.2063e-07
1.79458e-07
-4.97039e-07
1.93727e-07
-5.18931e-08
-3.50179e-07
6.77437e-08
-4.01958e-07
-6.58164e-08
1.00904e-07
-7.90042e-07
4.43808e-08
1.45464e-07
-1.02683e-06
-2.06235e-08
7.89222e-08
-1.06768e-06
-1.69594e-07
-2.17265e-08
-9.77238e-07
-2.98513e-07
-9.9774e-08
-8.03325e-07
-3.92077e-07
-1.43314e-07
-6.04223e-07
-4.45618e-07
-1.45517e-07
-4.12876e-07
-4.80863e-07
-1.27589e-07
-2.5625e-07
-4.95003e-07
-9.23234e-08
-1.29384e-07
-5.13316e-07
-6.00985e-08
-3.85413e-08
-5.22854e-07
-2.59917e-08
1.69523e-08
-5.25278e-07
3.53942e-09
4.59284e-08
-5.24282e-07
2.04239e-08
5.58457e-08
-5.18245e-07
3.01381e-08
5.38184e-08
-5.07512e-07
3.30814e-08
4.49483e-08
-4.9231e-07
3.11013e-08
3.33504e-08
-4.73503e-07
2.52287e-08
2.22277e-08
-4.52518e-07
1.65485e-08
1.37029e-08
-4.30436e-07
6.5612e-09
9.41085e-09
-4.08662e-07
-5.13673e-09
9.59702e-09
-3.88361e-07
-1.82129e-08
1.08058e-08
-3.67307e-07
-2.85429e-08
1.05104e-08
-3.45523e-07
-3.69278e-08
8.65674e-09
-3.25128e-07
-4.44841e-08
6.25084e-09
-3.06937e-07
-5.18414e-08
2.81022e-09
-2.89174e-07
-5.86205e-08
3.85324e-12
-2.72456e-07
-6.58579e-08
-5.6906e-09
-2.52862e-07
-7.1601e-08
-4.85127e-09
-2.3963e-07
-8.23677e-08
-9.88871e-09
-2.15465e-07
-8.69365e-08
3.8661e-09
-2.12148e-07
-1.0379e-07
5.47645e-09
-1.7756e-07
-1.06717e-07
3.71294e-08
-1.84348e-07
-1.27646e-07
4.31144e-08
-1.31396e-07
-1.25472e-07
6.86528e-08
-1.42367e-07
-1.35626e-07
2.35862e-08
-4.58192e-08
-1.13103e-07
-6.30351e-08
-1.06833e-09
-8.85379e-08
-2.79238e-07
1.75983e-07
-4.07969e-08
-6.39108e-07
3.67508e-07
2.68343e-08
-9.41298e-07
3.90506e-07
-6.57002e-09
-1.19841e-06
4.51039e-07
-5.80436e-08
-1.53196e-06
8.20028e-08
6.4308e-08
-1.96827e-06
-7.16788e-07
3.92215e-07
-2.96265e-06
-1.31813e-06
9.82926e-07
-5.04478e-06
-2.11207e-06
1.70845e-06
-5.17384e-06
-3.57463e-06
9.90521e-07
-1.84129e-06
-5.44746e-06
-6.34518e-08
1.78602e-06
-5.54833e-06
1.59749e-07
-2.72613e-06
3.51096e-06
-1.15602e-07
-1.17698e-05
5.20956e-06
4.03832e-06
-1.04615e-05
-4.21031e-06
7.78417e-07
-2.90816e-05
-2.3268e-05
2.90996e-06
-7.05177e-05
-1.89492e-05
-6.78684e-07
-2.41483e-05
-1.10581e-05
4.05872e-06
1.47265e-05
-9.7502e-06
6.31099e-06
1.61604e-05
-7.21403e-06
8.24137e-07
1.62982e-05
-2.05221e-06
-3.31394e-07
1.48323e-05
2.06246e-06
-3.85214e-07
1.22812e-05
4.46187e-06
-1.44459e-07
8.74463e-06
5.92943e-06
2.71381e-07
4.87183e-06
6.28211e-06
6.12265e-07
5.00392e-07
6.15469e-06
9.35039e-07
-3.47311e-06
4.87195e-06
1.13267e-06
-6.43169e-06
3.10089e-06
1.0488e-06
-8.57133e-06
1.75029e-06
8.72332e-07
-9.81927e-06
8.12844e-07
3.52826e-07
-1.00474e-05
1.86019e-07
-4.95863e-07
-1.00399e-05
-2.0285e-07
-6.15879e-07
-1.00624e-05
-3.32879e-07
-5.49301e-07
-9.81895e-06
-3.32002e-07
-8.66633e-07
-9.34233e-06
-1.48588e-07
-1.25962e-06
-8.57994e-06
1.52779e-07
-1.8025e-06
-7.59549e-06
5.51189e-07
-2.26906e-06
-6.63002e-06
1.00226e-06
-2.54977e-06
-5.81936e-06
1.08105e-06
-2.50081e-06
-5.07523e-06
2.75865e-07
-1.94468e-06
-3.94021e-06
-1.75788e-06
-1.03977e-06
-2.15231e-06
-4.28026e-06
-1.12424e-07
4.47769e-08
-6.13042e-06
4.42735e-07
2.48711e-06
-6.83994e-06
6.5233e-07
4.87826e-06
-6.28521e-06
5.21092e-07
6.43107e-06
-3.94486e-06
9.06138e-08
6.95119e-06
-1.22692e-06
-5.25178e-07
6.15051e-06
9.44801e-07
-6.10484e-07
4.48203e-06
1.98364e-06
-2.49603e-07
2.49243e-06
2.30975e-06
2.79141e-07
7.08991e-07
2.6749e-06
4.3747e-07
3.77099e-06
-1.38842e-07
-2.09294e-06
-4.21546e-06
-5.97416e-07
-9.93984e-07
-4.35691e-06
-6.56321e-07
-5.38106e-07
-2.76029e-06
1.80428e-07
-6.50284e-08
-2.33852e-06
6.21892e-08
1.31871e-07
-1.19613e-06
1.59733e-08
1.20275e-07
-8.14246e-07
-1.8081e-08
3.48218e-08
-2.63945e-07
-1.47646e-07
-1.04897e-07
-3.37885e-08
-1.76671e-07
-3.66289e-07
3.15316e-07
-1.19727e-07
-6.95188e-07
4.11891e-07
-3.8591e-08
-9.111e-07
2.71932e-07
-7.66169e-08
-9.73572e-07
5.22124e-08
-1.59307e-07
-9.46759e-07
-9.82333e-08
-2.27062e-07
-8.54902e-07
-2.08972e-07
-2.7493e-07
-7.20231e-07
-2.72833e-07
-3.0742e-07
-5.71373e-07
-3.10656e-07
-3.1903e-07
-4.35431e-07
-3.19676e-07
-3.11231e-07
-3.17692e-07
-3.315e-07
-2.99518e-07
-2.19906e-07
-3.34392e-07
-2.86211e-07
-1.41888e-07
-3.28798e-07
-2.74462e-07
-8.66857e-08
-3.14358e-07
-2.65091e-07
-5.03137e-08
-2.9599e-07
-2.58593e-07
-2.83419e-08
-2.74754e-07
-2.54698e-07
-1.66439e-08
-2.50868e-07
-2.53108e-07
-1.15249e-08
-2.25383e-07
-2.53209e-07
-1.00395e-08
-1.99716e-07
-2.5426e-07
-9.642e-09
-1.74998e-07
-2.55808e-07
-9.79362e-09
-1.50939e-07
-2.57545e-07
-1.24419e-08
-1.26278e-07
-2.59411e-07
-1.81503e-08
-1.00035e-07
-2.61541e-07
-2.55254e-08
-7.37831e-08
-2.64344e-07
-3.26591e-08
-5.01956e-08
-2.67778e-07
-3.83009e-08
-2.9696e-08
-2.71581e-07
-4.2134e-08
-1.02114e-08
-2.75112e-07
-4.45314e-08
8.81333e-09
-2.78856e-07
-4.58475e-08
3.04543e-08
-2.81984e-07
-4.48538e-08
4.5822e-08
-2.86432e-07
-4.40774e-08
7.06099e-08
-2.86837e-07
-3.30708e-08
7.22344e-08
-2.95376e-07
-3.14837e-08
1.1071e-07
-2.89844e-07
-1.22423e-08
9.73636e-08
-3.00941e-07
-3.00018e-08
1.69188e-07
-2.82813e-07
-4.24454e-08
1.56695e-07
-2.86608e-07
-1.20065e-07
2.86943e-07
-2.55133e-07
-2.3692e-07
3.55646e-07
-2.3985e-07
-3.85383e-07
5.45437e-07
-2.2098e-07
-5.68098e-07
7.42313e-07
-1.9208e-07
-6.37745e-07
7.18624e-07
-2.58461e-07
-5.76788e-07
7.39664e-07
-3.49572e-07
-6.8534e-07
4.94245e-07
-3.03679e-07
-1.57841e-06
-4.65653e-08
2.2286e-07
-3.03178e-06
-5.94485e-07
7.2973e-07
-2.46691e-06
-3.45591e-06
7.78968e-07
-2.4709e-07
-5.77063e-06
-2.38202e-08
2.27399e-06
-7.18216e-06
-7.864e-07
2.16702e-06
-4.73687e-06
-7.04506e-07
3.95576e-06
4.51591e-06
-2.7943e-06
-4.09653e-06
1.12366e-05
2.02504e-06
-7.56427e-06
-2.36963e-06
1.33845e-06
-3.00391e-05
-2.83612e-05
-1.87556e-06
-7.6679e-05
-2.4434e-05
-2.92909e-06
-3.05975e-05
-1.42535e-05
3.63851e-09
1.06757e-05
-1.0402e-05
4.32581e-06
1.16416e-05
-7.83127e-06
-7.465e-07
1.14653e-05
-5.98723e-07
-1.07749e-06
1.06508e-05
3.61699e-06
-7.87203e-07
8.1028e-06
7.32241e-06
-3.88966e-07
4.82314e-06
8.95836e-06
8.62628e-07
7.17914e-07
9.67016e-06
4.94724e-07
-3.68053e-06
9.08302e-06
1.14121e-06
-6.82741e-06
6.62323e-06
1.20299e-06
-9.27085e-06
4.68237e-06
8.67829e-07
-1.1251e-05
3.36928e-06
3.56691e-07
-1.24643e-05
2.98707e-06
-5.05402e-07
-1.27436e-05
2.52813e-06
-1.58642e-06
-1.28497e-05
2.27219e-06
-1.8171e-06
-1.29115e-05
1.60882e-06
-1.92992e-06
-1.25586e-05
1.70701e-06
-2.41474e-06
-1.18334e-05
2.62177e-06
-2.89003e-06
-1.07889e-05
3.27927e-06
-3.40682e-06
-9.77188e-06
3.62253e-06
-3.56013e-06
-8.98939e-06
3.20229e-06
-3.14219e-06
-8.34829e-06
2.63531e-06
-2.28699e-06
-7.53432e-06
6.25619e-07
-1.16865e-06
-6.36717e-06
-4.04435e-06
8.71957e-08
-4.67172e-06
-7.7257e-06
9.91295e-07
-2.52874e-06
-9.6202e-06
1.45954e-06
-2.27867e-08
-1.09977e-05
1.71056e-06
2.70436e-06
-1.07249e-05
1.75854e-06
5.21157e-06
-7.53946e-06
1.08053e-06
6.76463e-06
-2.44193e-06
-3.77854e-07
6.92403e-06
2.47711e-06
-1.73073e-06
5.80782e-06
5.07689e-06
-1.95381e-06
3.67597e-06
5.79939e-06
-1.16581e-06
1.03423e-06
5.70092e-06
2.86566e-08
6.23452e-06
-3.30964e-07
-2.91792e-06
-4.46871e-06
-3.87352e-07
-1.91086e-06
-4.63924e-06
-7.24721e-07
-1.56877e-06
-3.26249e-06
1.60111e-07
-9.22145e-07
-2.99008e-06
4.9231e-09
-5.09904e-07
-1.61248e-06
4.09649e-09
-2.301e-07
-1.04849e-06
-4.55755e-08
-1.28991e-07
-1.84296e-07
-1.8077e-07
-1.05702e-07
1.22414e-07
-1.79485e-07
-2.09667e-07
5.76389e-07
-1.57097e-07
-4.61152e-07
7.3866e-07
-7.52574e-08
-6.62425e-07
5.96267e-07
-1.23036e-07
-7.82633e-07
3.61197e-07
-1.88741e-07
-8.39733e-07
1.99947e-07
-2.41047e-07
-8.20025e-07
6.28337e-08
-2.91475e-07
-7.46552e-07
-1.77731e-08
-3.28496e-07
-6.35114e-07
-6.06234e-08
-3.61431e-07
-5.17034e-07
-5.81073e-08
-3.79609e-07
-4.10471e-07
-4.91066e-08
-3.88916e-07
-3.17876e-07
-3.36983e-08
-3.93251e-07
-2.37003e-07
-1.4948e-08
-3.94684e-07
-1.7008e-07
1.02259e-08
-3.9147e-07
-1.1702e-07
3.6553e-08
-3.85568e-07
-7.75599e-08
6.4594e-08
-3.78774e-07
-5.02563e-08
9.4326e-08
-3.72466e-07
-3.36049e-08
1.25087e-07
-3.6709e-07
-2.55447e-08
1.54614e-07
-3.62362e-07
-2.37274e-08
1.81501e-07
-3.58289e-07
-2.61264e-08
2.06297e-07
-3.54813e-07
-3.14489e-08
2.31425e-07
-3.52356e-07
-3.85663e-08
2.58422e-07
-3.51318e-07
-4.60387e-08
2.85265e-07
-3.51553e-07
-5.35154e-08
3.09876e-07
-3.52575e-07
-6.08735e-08
3.31434e-07
-3.53752e-07
-6.78696e-08
3.51544e-07
-3.54742e-07
-7.33566e-08
3.69827e-07
-3.55509e-07
-7.54689e-08
3.88205e-07
-3.55624e-07
-7.47981e-08
4.01766e-07
-3.56599e-07
-7.13897e-08
4.21976e-07
-3.54761e-07
-6.3472e-08
4.22798e-07
-3.58467e-07
-6.46206e-08
4.59918e-07
-3.48048e-07
-6.48278e-08
4.49177e-07
-3.51593e-07
-9.21141e-08
5.29221e-07
-3.32735e-07
-1.30495e-07
5.2868e-07
-3.33593e-07
-1.90911e-07
6.66216e-07
-3.18847e-07
-2.64608e-07
7.31645e-07
-3.0229e-07
-3.3639e-07
8.97816e-07
-2.80587e-07
-3.93194e-07
1.0066e-06
-2.07469e-07
-4.26351e-07
9.54541e-07
-2.0275e-07
-3.06598e-07
8.53376e-07
-2.33453e-07
-2.30596e-07
6.37994e-07
-2.19739e-07
-7.05258e-07
2.61014e-07
1.67098e-07
-9.1658e-07
-8.38857e-07
4.55705e-07
2.03835e-06
-6.20233e-06
-2.08511e-07
6.3648e-06
-9.73992e-06
-3.5716e-07
7.31143e-06
-7.8899e-06
-2.38911e-07
5.26957e-06
-1.5413e-06
-1.15373e-06
7.42868e-06
5.59678e-06
-3.24043e-06
-4.38792e-07
1.98813e-05
-7.77084e-07
-6.23198e-06
-4.97521e-06
8.0393e-06
-3.3251e-05
-3.00562e-05
-4.44414e-06
-9.26323e-05
-2.81226e-05
-1.33949e-06
-6.88864e-05
-1.47372e-05
2.25076e-06
-2.1802e-05
-8.35545e-06
4.89653e-06
5.82012e-06
-3.04212e-06
-2.15875e-07
4.53133e-06
2.93287e-06
4.91051e-07
2.9818e-06
6.82211e-06
7.12611e-07
6.24855e-07
1.02418e-05
1.05809e-06
-2.42507e-06
1.15932e-05
1.33031e-06
-3.68491e-05
1.14635e-05
1.71698e-06
-8.0227e-05
8.95327e-06
1.59546e-06
-5.2034e-05
7.09035e-06
8.65747e-07
-1.28864e-05
6.36757e-06
6.68107e-07
-2.94446e-05
5.73877e-06
-3.1427e-07
-7.42926e-05
5.03912e-06
-1.49954e-06
-0.000104051
5.03214e-06
-2.25182e-06
-6.04743e-05
4.98338e-06
-2.52949e-06
-1.60844e-05
5.31246e-06
-2.6908e-06
-2.98608e-05
5.23843e-06
-3.00829e-06
-7.29695e-05
4.8693e-06
-3.12177e-06
-0.000101669
5.33073e-06
-2.78865e-06
-5.73535e-05
4.89682e-06
-2.16498e-06
-1.13475e-05
3.65094e-06
-1.53304e-06
-1.0141e-05
1.4159e-06
-9.78595e-07
-4.50338e-05
-2.15269e-06
-6.00554e-07
-8.44615e-05
-6.94295e-06
3.701e-07
-4.67451e-05
-1.08521e-05
1.10621e-06
-3.91246e-06
-1.3855e-05
1.6369e-06
-1.69006e-06
-1.56668e-05
2.21032e-06
7.71062e-07
-1.57449e-05
2.85666e-06
3.441e-06
-1.31017e-05
3.05062e-06
5.94825e-06
-7.18194e-06
2.21471e-06
6.76941e-06
1.99337e-06
-3.78453e-07
6.14884e-06
7.85965e-06
-2.17902e-06
4.52878e-06
9.70047e-06
-2.11952e-06
1.68159e-06
9.804e-06
-8.2572e-07
9.54634e-06
-3.52134e-07
-3.6968e-06
-4.6438e-06
-1.29218e-07
-2.76956e-06
-4.91882e-06
-6.47659e-07
-2.54711e-06
-3.68607e-06
2.01123e-07
-1.74006e-06
-3.74523e-06
-5.19115e-08
-1.07849e-06
-2.44568e-06
1.71601e-07
-4.18021e-07
-1.78875e-06
7.97698e-08
-1.51801e-07
-3.52087e-07
-9.84307e-08
-7.11497e-08
1.6449e-07
-1.22726e-07
-5.62682e-08
7.23635e-07
-1.62103e-07
-2.67788e-07
1.03283e-06
-8.26232e-08
-4.74988e-07
9.20875e-07
-1.1737e-07
-6.40134e-07
6.85387e-07
-1.59011e-07
-7.43578e-07
4.95544e-07
-1.9211e-07
-7.65198e-07
3.21436e-07
-2.36945e-07
-7.22855e-07
2.11355e-07
-2.71428e-07
-6.34761e-07
1.6024e-07
-3.08917e-07
-5.33985e-07
1.79329e-07
-3.38169e-07
-4.42647e-07
2.18005e-07
-3.5841e-07
-3.60296e-07
2.58329e-07
-3.74338e-07
-2.83829e-07
2.94553e-07
-3.85929e-07
-2.12971e-07
3.32005e-07
-3.92599e-07
-1.51564e-07
3.69183e-07
-3.94e-07
-1.02293e-07
4.0644e-07
-3.91083e-07
-6.53765e-08
4.42438e-07
-3.84994e-07
-4.07574e-08
4.77139e-07
-3.7664e-07
-2.67211e-08
5.0786e-07
-3.67251e-07
-2.08277e-08
5.33756e-07
-3.5812e-07
-2.05999e-08
5.55983e-07
-3.49886e-07
-2.44899e-08
5.7844e-07
-3.43101e-07
-3.18122e-08
6.03373e-07
-3.37604e-07
-4.0635e-08
6.27286e-07
-3.33177e-07
-4.97492e-08
6.48312e-07
-3.293e-07
-5.88528e-08
6.66333e-07
-3.25777e-07
-6.77213e-08
6.82898e-07
-3.22466e-07
-7.48596e-08
6.96872e-07
-3.19891e-07
-7.92812e-08
7.09941e-07
-3.17296e-07
-8.13324e-08
7.18825e-07
-3.14993e-07
-8.26629e-08
7.33672e-07
-3.10349e-07
-8.57554e-08
7.33343e-07
-3.07439e-07
-9.90005e-08
7.69139e-07
-2.9596e-07
-1.2478e-07
7.68854e-07
-2.93885e-07
-1.66731e-07
8.51236e-07
-2.80051e-07
-2.32251e-07
8.6986e-07
-2.75648e-07
-2.81319e-07
9.74177e-07
-2.5888e-07
-3.25485e-07
9.94635e-07
-2.18813e-07
-3.43189e-07
1.06621e-06
-1.50672e-07
-2.71064e-07
9.86057e-07
-5.15737e-08
-1.52246e-07
8.76015e-07
-4.02783e-08
1.19686e-07
6.26235e-07
-4.47783e-08
2.29701e-07
5.27854e-07
1.41761e-10
5.52345e-07
-2.3158e-07
1.69964e-07
1.9687e-06
-2.34174e-06
8.65341e-08
4.47631e-06
-8.72179e-06
1.18306e-08
7.97917e-06
-1.32236e-05
-1.92205e-08
1.06437e-05
-1.04291e-05
-1.25362e-07
1.33618e-05
-1.22177e-06
-3.03769e-06
1.58312e-05
8.53995e-06
-5.41281e-06
1.37733e-05
2.94506e-05
-7.51152e-06
-2.76891e-06
-4.4574e-06
1.54604e-05
-3.62237e-05
-2.78071e-05
-5.21693e-06
-0.000102647
-2.9617e-05
-1.36911e-06
-0.000100012
-1.46786e-05
2.91006e-06
-0.000101873
-9.61755e-06
8.38608e-07
-0.000104221
8.9794e-07
5.33431e-07
-0.00010366
4.40085e-06
3.93326e-07
-0.000105081
9.27418e-06
1.45007e-06
-0.000106123
1.07734e-05
1.58579e-06
-0.000109445
1.14923e-05
1.8959e-06
-0.000112824
1.04053e-05
1.92361e-06
-0.000116199
8.83858e-06
1.34489e-06
-0.000118927
8.35353e-06
6.18549e-07
-0.000117398
8.10202e-06
-1.33143e-08
-0.000118875
8.06819e-06
-6.82701e-07
-0.00012422
8.19455e-06
-1.72613e-06
-0.00012567
8.34825e-06
-2.38553e-06
-0.000123948
8.26142e-06
-2.70328e-06
-0.00012224
8.11054e-06
-2.77675e-06
-0.000123579
7.72176e-06
-2.8459e-06
-0.000125686
7.05167e-06
-2.55179e-06
-0.000124809
6.26589e-06
-2.20039e-06
-0.000122219
4.75663e-06
-1.54974e-06
-0.000120527
2.4002e-06
-1.11803e-06
-0.000119383
-1.09921e-06
-5.05064e-07
-0.000118168
-4.9175e-06
2.29111e-08
-0.00011684
-9.77996e-06
7.87485e-07
-0.000115894
-1.39766e-05
1.37449e-06
-0.000112103
-1.64409e-05
1.92084e-06
-9.72085e-05
-1.81742e-05
2.22785e-06
-4.33398e-05
-1.74634e-05
2.62936e-06
1.29378e-06
-1.55257e-05
2.94583e-06
4.74823e-06
-8.91646e-06
2.90475e-06
6.62562e-06
2.52969e-06
2.15749e-06
5.85864e-06
9.66117e-06
-1.16926e-06
4.3679e-06
1.35989e-05
-2.35123e-06
2.11965e-06
1.37127e-05
-1.20575e-06
1.35386e-05
-4.75948e-07
-4.257e-06
-4.46085e-06
-2.04826e-07
-3.40208e-06
-4.99057e-06
-7.83165e-07
-3.32067e-06
-3.85495e-06
8.74499e-08
-2.41531e-06
-4.14953e-06
-5.01077e-07
-1.77066e-06
-3.22108e-06
1.30712e-07
-7.6138e-07
-2.77763e-06
-2.04105e-08
-1.63561e-07
-9.57502e-07
7.58876e-09
1.11479e-08
3.05507e-08
-4.07498e-08
1.50492e-07
7.01796e-07
-1.17488e-07
-1.6758e-08
1.22786e-06
-2.77491e-08
-2.30432e-07
1.20151e-06
-6.69301e-08
-4.46643e-07
1.01042e-06
-1.08777e-07
-6.04695e-07
8.09023e-07
-1.55389e-07
-6.59411e-07
5.8254e-07
-2.06342e-07
-6.31664e-07
4.34267e-07
-2.50617e-07
-5.52124e-07
3.74649e-07
-2.93904e-07
-4.62144e-07
4.13081e-07
-3.23689e-07
-3.94156e-07
4.91373e-07
-3.41312e-07
-3.40968e-07
5.62288e-07
-3.57105e-07
-2.93513e-07
6.16578e-07
-3.69439e-07
-2.44318e-07
6.60542e-07
-3.77693e-07
-1.97164e-07
7.00906e-07
-3.78837e-07
-1.54965e-07
7.38646e-07
-3.74366e-07
-1.20978e-07
7.74273e-07
-3.65788e-07
-9.85136e-08
8.09168e-07
-3.54458e-07
-8.53574e-08
8.36431e-07
-3.41696e-07
-7.89903e-08
8.56243e-07
-3.28823e-07
-7.6031e-08
8.6968e-07
-3.16629e-07
-7.52477e-08
8.83579e-07
-3.05893e-07
-7.78576e-08
9.02314e-07
-2.96307e-07
-8.36919e-08
9.21269e-07
-2.88123e-07
-9.19505e-08
9.37728e-07
-2.81137e-07
-1.0204e-07
9.51581e-07
-2.75136e-07
-1.134e-07
9.64316e-07
-2.70039e-07
-1.24196e-07
9.7357e-07
-2.65881e-07
-1.32852e-07
9.80644e-07
-2.6203e-07
-1.41691e-07
9.85745e-07
-2.58062e-07
-1.50749e-07
9.95906e-07
-2.5316e-07
-1.68291e-07
9.99461e-07
-2.48558e-07
-1.93154e-07
1.03285e-06
-2.38838e-07
-2.45996e-07
1.05331e-06
-2.31598e-07
-2.9783e-07
1.12075e-06
-2.17665e-07
-3.77889e-07
1.15182e-06
-2.01889e-07
-4.12442e-07
1.18732e-06
-1.78579e-07
-4.4782e-07
1.16209e-06
-1.32062e-07
-4.26766e-07
1.13567e-06
-9.05042e-08
-3.17198e-07
9.07254e-07
-3.07479e-08
-8.62898e-08
7.16194e-07
-7.10731e-08
3.69591e-07
3.19239e-07
-1.48867e-07
6.58467e-07
2.11414e-07
2.758e-08
1.40804e-06
-9.95713e-07
1.45795e-08
2.51912e-06
-3.5191e-06
6.62875e-08
1.80002e-06
-7.8212e-06
-1.8149e-07
1.28648e-06
-1.25952e-05
-1.14831e-07
4.55133e-06
-1.24775e-05
-1.21644e-06
9.08712e-06
-4.38548e-07
-5.31904e-06
1.18253e-05
1.42469e-05
-8.44539e-06
1.43496e-05
3.73681e-05
-1.0442e-05
1.26928e-06
-6.71375e-06
1.43256e-05
-4.04203e-05
-2.26884e-05
-4.54515e-06
-0.000112724
-2.82156e-05
-7.12896e-07
-0.000115582
-1.41593e-05
5.34729e-06
-0.000118273
-1.078e-05
1.73301e-06
-0.000120425
-1.14081e-06
1.64116e-06
-0.000121151
2.70669e-06
1.81496e-06
-0.000122898
7.98709e-06
2.29582e-06
-0.0001205
9.50006e-06
2.27554e-06
-0.000121351
1.03497e-05
2.15532e-06
-0.000122708
1.0212e-05
1.6715e-06
-0.000122831
1.01574e-05
9.61569e-07
-0.000127362
1.02514e-05
5.1005e-07
-0.000132245
1.04981e-05
-1.11055e-07
-0.000135412
1.07155e-05
-7.65964e-07
-0.000135287
1.09073e-05
-1.53726e-06
-0.000135247
1.10077e-05
-2.28356e-06
-0.00013609
1.05954e-05
-2.39137e-06
-0.00013658
9.95501e-06
-2.37532e-06
-0.000135504
9.23745e-06
-2.21022e-06
-0.000133898
7.92294e-06
-1.81034e-06
-0.000132486
6.06197e-06
-1.36255e-06
-0.000130284
3.84253e-06
-8.22278e-07
-0.00012771
9.37868e-07
-1.8033e-07
-0.000124616
-3.16856e-06
3.82033e-07
-0.000121142
-6.74275e-06
9.08091e-07
-0.000120633
-1.04696e-05
1.38388e-06
-0.000122846
-1.59292e-05
1.91073e-06
-0.000122957
-1.92581e-05
2.25892e-06
-0.000121201
-2.15873e-05
2.39354e-06
-0.000119202
-2.11536e-05
2.70822e-06
-0.000114103
-1.63594e-05
2.71112e-06
-9.47935e-05
-7.72714e-06
2.56341e-06
-3.63933e-05
4.94702e-06
2.95838e-06
6.2384e-06
1.22171e-05
7.59068e-07
4.89534e-06
1.77187e-05
-1.65337e-06
2.07538e-06
1.83582e-05
-1.37423e-06
1.68546e-05
-2.1304e-07
-4.73079e-06
-3.90808e-06
-2.63651e-07
-3.82317e-06
-4.55813e-06
-1.34006e-06
-3.81319e-06
-3.5298e-06
-3.35153e-07
-2.73317e-06
-4.01279e-06
-1.21679e-06
-2.20458e-06
-3.3271e-06
-4.22581e-07
-1.13962e-06
-3.25325e-06
-5.89361e-07
-2.81033e-07
-1.57899e-06
-2.37088e-07
3.13497e-08
-1.23838e-07
-1.57984e-07
2.6575e-07
6.79697e-07
-2.1227e-07
1.90839e-07
1.36109e-06
-5.82929e-08
-2.53663e-08
1.4871e-06
-6.93434e-08
-3.04572e-07
1.37197e-06
-8.23031e-08
-4.65697e-07
1.09221e-06
-1.22019e-07
-5.14594e-07
8.13123e-07
-1.81644e-07
-4.95945e-07
6.57991e-07
-2.42326e-07
-4.40812e-07
6.13401e-07
-2.93841e-07
-3.73957e-07
6.68557e-07
-3.22286e-07
-3.29857e-07
7.75479e-07
-3.28163e-07
-3.06504e-07
8.70703e-07
-3.31723e-07
-2.93654e-07
9.39133e-07
-3.35362e-07
-2.81056e-07
9.86649e-07
-3.38664e-07
-2.67683e-07
1.02484e-06
-3.37267e-07
-2.53539e-07
1.05561e-06
-3.31065e-07
-2.4196e-07
1.08342e-06
-3.20687e-07
-2.3678e-07
1.11007e-06
-3.06049e-07
-2.33599e-07
1.12559e-06
-2.92303e-07
-2.31065e-07
1.13363e-06
-2.79886e-07
-2.26744e-07
1.135e-06
-2.69611e-07
-2.22418e-07
1.13945e-06
-2.60166e-07
-2.20647e-07
1.15192e-06
-2.51353e-07
-2.22765e-07
1.16669e-06
-2.43277e-07
-2.28264e-07
1.17923e-06
-2.35978e-07
-2.37163e-07
1.1901e-06
-2.29603e-07
-2.4991e-07
1.20096e-06
-2.23874e-07
-2.64694e-07
1.20746e-06
-2.19085e-07
-2.79484e-07
1.21008e-06
-2.14622e-07
-2.98379e-07
1.21332e-06
-2.08665e-07
-3.19548e-07
1.21941e-06
-2.02316e-07
-3.54487e-07
1.22794e-06
-1.93519e-07
-3.91132e-07
1.2545e-06
-1.84986e-07
-4.57215e-07
1.29161e-06
-1.72196e-07
-4.94808e-07
1.32272e-06
-1.64359e-07
-5.50055e-07
1.35343e-06
-1.46347e-07
-5.41011e-07
1.31156e-06
-1.33266e-07
-5.4698e-07
1.2723e-06
-1.04223e-07
-4.88423e-07
1.17567e-06
-9.85385e-08
-3.69245e-07
9.17026e-07
-1.28934e-07
-6.45374e-08
6.58287e-07
-2.4678e-07
3.98806e-07
3.28698e-07
-4.72784e-07
9.16442e-07
8.0191e-08
-3.8639e-07
7.51148e-07
-7.33598e-07
-9.68068e-08
7.03895e-08
-2.9686e-06
1.3028e-07
-1.71578e-06
-4.87466e-06
-1.16038e-06
-3.74787e-06
-7.76425e-06
-2.79884e-06
-4.05876e-06
-7.99436e-06
-4.17228e-06
-1.70201e-06
3.81313e-06
-6.60843e-06
1.21682e-05
1.22568e-05
-1.18802e-05
2.42286e-05
3.05648e-05
-5.25706e-06
3.7245e-06
-9.6722e-06
2.11693e-05
-5.10808e-05
-1.35332e-05
-4.80031e-06
-0.000124042
-2.05924e-05
-1.61834e-06
-0.000125053
-1.09387e-05
5.86994e-06
-0.000124158
-9.57849e-06
2.07409e-06
-0.000112937
-2.39383e-06
2.33292e-06
-0.000117481
1.96494e-06
2.11901e-06
-0.00013505
5.99849e-06
2.03978e-06
-0.000135179
8.77036e-06
1.81475e-06
-0.000137098
9.75294e-06
1.50673e-06
-0.000141351
1.04802e-05
1.11418e-06
-0.000134377
1.08741e-05
7.09043e-07
-0.000137593
1.11226e-05
4.18985e-07
-0.000146834
1.16034e-05
1.45624e-07
-0.000147165
1.18647e-05
-3.43643e-07
-0.000148117
1.18956e-05
-1.01664e-06
-0.000144893
1.18072e-05
-1.54268e-06
-0.000122152
1.12814e-05
-1.6035e-06
-0.000124698
1.01681e-05
-1.52191e-06
-0.000143779
9.02066e-06
-1.38496e-06
-0.000140678
7.08524e-06
-1.10773e-06
-0.000139978
4.37907e-06
-7.78921e-07
-0.000136463
1.26064e-06
-1.96063e-07
-0.000130651
-2.09285e-06
2.62879e-07
-0.000109955
-6.11177e-06
6.54028e-07
-4.9731e-05
-1.01649e-05
8.46434e-07
-4.68397e-05
-1.33868e-05
1.37559e-06
-0.000105931
-1.80799e-05
1.80636e-06
-0.000121017
-2.24948e-05
2.43513e-06
-0.000118583
-2.44223e-05
2.74822e-06
-0.000118965
-2.57872e-05
2.95786e-06
-0.000120698
-2.28596e-05
3.13678e-06
-0.00012272
-1.60684e-05
3.18379e-06
-0.000121083
-4.35472e-06
2.63707e-06
-0.000115801
1.15413e-05
8.55204e-07
-0.000105152
1.88379e-05
-3.91853e-07
-4.82451e-05
2.07001e-05
-3.70395e-08
2.12907e-05
1.84454e-07
-5.10807e-06
-3.03579e-06
3.87356e-08
-4.37519e-06
-4.04766e-06
-1.24336e-06
-4.55421e-06
-2.90588e-06
-4.44924e-07
-3.2767e-06
-3.73559e-06
-1.55473e-06
-2.61514e-06
-3.09912e-06
-8.8957e-07
-1.3999e-06
-3.27464e-06
-1.19386e-06
-3.45491e-07
-1.99216e-06
-6.41226e-07
7.76197e-08
-3.15767e-07
-2.31156e-07
2.74617e-07
7.83371e-07
-3.00649e-07
2.67062e-07
1.40129e-06
-3.26049e-08
1.85405e-07
1.61879e-06
-5.00024e-08
3.90289e-08
1.58288e-06
-6.44913e-08
-2.78268e-08
1.34088e-06
-1.81771e-07
-6.5472e-08
1.11512e-06
-2.64305e-07
-1.01191e-07
1.02538e-06
-3.31624e-07
-1.54876e-07
1.05017e-06
-3.83037e-07
-2.11372e-07
1.15051e-06
-4.25411e-07
-2.63037e-07
1.27492e-06
-4.47727e-07
-3.12704e-07
1.38461e-06
-4.64191e-07
-3.61565e-07
1.46295e-06
-4.74907e-07
-3.9088e-07
1.49812e-06
-4.8211e-07
-4.06237e-07
1.52473e-06
-4.84488e-07
-4.13443e-07
1.54628e-06
-4.83426e-07
-4.15369e-07
1.56511e-06
-4.79729e-07
-4.13343e-07
1.58205e-06
-4.73964e-07
-4.09988e-07
1.59096e-06
-4.68691e-07
-4.03908e-07
1.5924e-06
-4.64812e-07
-3.92443e-07
1.58607e-06
-4.62496e-07
-3.80696e-07
1.58658e-06
-4.58845e-07
-3.7565e-07
1.60136e-06
-4.5445e-07
-3.77928e-07
1.61913e-06
-4.50128e-07
-3.85579e-07
1.63372e-06
-4.46806e-07
-3.97976e-07
1.64652e-06
-4.4399e-07
-4.15175e-07
1.65917e-06
-4.40991e-07
-4.34589e-07
1.66553e-06
-4.38633e-07
-4.55038e-07
1.66712e-06
-4.36574e-07
-4.81881e-07
1.67265e-06
-4.32455e-07
-5.12173e-07
1.67823e-06
-4.28504e-07
-5.55904e-07
1.6923e-06
-4.20612e-07
-5.88779e-07
1.70502e-06
-4.17623e-07
-6.48029e-07
1.75404e-06
-4.03156e-07
-6.609e-07
1.74027e-06
-4.04659e-07
-6.87131e-07
1.77319e-06
-3.935e-07
-6.44393e-07
1.66585e-06
-3.97014e-07
-6.1984e-07
1.63768e-06
-3.89912e-07
-5.30995e-07
1.51417e-06
-4.27325e-07
-4.86195e-07
1.39809e-06
-5.25843e-07
-2.92031e-07
1.14425e-06
-6.80104e-07
-2.99861e-07
1.20304e-06
-8.66483e-07
-4.90902e-07
8.26226e-07
-5.5497e-07
-1.46002e-06
4.42068e-07
-2.06518e-07
-2.05489e-06
-2.66792e-06
2.94196e-07
-1.56319e-06
-4.0338e-06
-1.33256e-06
-3.63475e-06
6.80199e-07
-6.37288e-06
-7.01727e-06
6.64147e-06
-1.12533e-05
-2.85636e-06
1.41381e-05
-1.44858e-05
1.43879e-05
1.50931e-05
-2.00806e-05
3.43827e-05
2.12652e-05
-1.06952e-05
9.84782e-07
-7.61846e-06
2.71003e-05
-7.12991e-05
9.58454e-09
-6.05134e-06
-0.000154037
-2.5909e-06
-3.09258e-06
-0.000159432
-4.90506e-06
5.43847e-06
-0.000166721
-2.35624e-06
1.39069e-06
-0.000171638
-4.72739e-07
1.41408e-06
-0.000172256
2.80566e-06
1.89822e-06
-0.000174069
4.70597e-06
1.91317e-06
-0.000179262
7.50252e-06
2.07325e-06
-0.000180134
8.34829e-06
1.9629e-06
-0.000177929
9.32194e-06
1.94571e-06
-0.000178263
9.89393e-06
1.72235e-06
-0.000178441
1.02969e-05
1.50307e-06
-0.000179324
1.08566e-05
1.10506e-06
-0.000178967
1.13056e-05
5.05284e-07
-0.000178696
1.13175e-05
-2.82288e-07
-0.00017756
1.12091e-05
-1.05924e-06
-0.000175859
1.11693e-05
-1.2753e-06
-0.000175823
1.05234e-05
-1.5513e-06
-0.000174577
9.22524e-06
-2.25831e-06
-0.000172516
7.3511e-06
-2.74536e-06
-0.000169941
4.16648e-06
-3.20426e-06
-0.000166301
-2.73779e-08
-2.97944e-06
-0.000163548
-5.26451e-06
-2.31146e-06
-0.000161471
-8.92226e-06
-1.81409e-06
-0.000155471
-1.29313e-05
-1.04017e-06
-0.000143333
-1.57387e-05
-1.94716e-07
-0.000125626
-1.87184e-05
6.28152e-07
-5.86811e-05
-2.21318e-05
7.89509e-07
-3.28568e-06
-2.36209e-05
2.14729e-06
-4.48715e-06
-2.54221e-05
2.45222e-06
-5.43923e-06
-2.41859e-05
2.60666e-06
-6.37316e-06
-1.81276e-05
2.55185e-06
-5.80903e-06
-9.27177e-06
3.02338e-06
-3.93453e-06
7.43155e-06
2.56901e-06
-3.33738e-06
1.74019e-05
7.76616e-07
-1.85678e-05
2.02441e-05
3.18347e-07
1.90442e-05
3.01512e-06
-4.81749e-06
2.55826e-07
1.57256e-06
-4.50598e-06
-3.50764e-06
-8.51541e-07
-5.25847e-06
-1.94802e-06
-2.05389e-07
-3.92139e-06
-3.52818e-06
-1.54452e-06
-3.12945e-06
-2.73739e-06
-1.15368e-06
-1.72893e-06
-3.05982e-06
-1.61534e-06
-5.6965e-07
-2.16415e-06
-9.87278e-07
-1.39256e-08
-6.91338e-07
-1.80136e-07
2.16858e-07
6.90848e-07
-1.38231e-07
2.52565e-07
1.13236e-06
2.33258e-07
3.48312e-07
1.32596e-06
1.97124e-07