/*--------------------------------*- C++ -*----------------------------------*\
| =========                 |                                                 |
| \\      /  F ield         | OpenFOAM: The Open Source CFD Toolbox           |
|  \\    /   O peration     | Version:  2.3.0                                 |
|   \\  /    A nd           | Web:      www.OpenFOAM.org                      |
|    \\/     M anipulation  |                                                 |
\*---------------------------------------------------------------------------*/
FoamFile
{
    version     2.0;
    format      ascii;
    class       volScalarField;
    location    "40";
    object      rho;
}
// * * * * * * * * * * * * * * * * * * * * * * * * * * * * * * * * * * * * * //

dimensions      [1 -3 0 0 0 0 0];

internalField   nonuniform List<scalar> 
6144
(
1.16257
1.16324
1.16377
1.16436
1.1651
1.16627
1.16714
1.16792
1.16856
1.16883
1.16887
1.16888
1.16889
1.16889
1.16889
1.1689
1.1689
1.1689
1.1689
1.1689
1.1689
1.16891
1.16891
1.16891
1.16891
1.16891
1.16891
1.16891
1.16891
1.16892
1.16892
1.16892
1.16892
1.16892
1.16892
1.16892
1.16892
1.16892
1.16892
1.16893
1.16893
1.16893
1.16894
1.16935
1.17156
1.17581
1.18152
1.19059
1.21395
1.23714
1.26105
1.27406
1.2787
1.28177
1.28311
1.28476
1.28514
1.29144
2.45407
59.1811
977.46
1026.7
1027.09
1027.1
1027.1
1027.1
1027.1
1027.1
1027.1
1027.1
1027.1
1027.1
1027.1
1027.1
1027.1
1027.1
1027.1
1027.1
1027.1
1027.1
1027.1
1027.1
1027.1
1027.1
1027.1
1027.1
1027.1
1027.1
1027.1
1027.1
1027.1
1027.1
1027.1
1027.1
1027.1
1027.1
1.16232
1.16318
1.16412
1.16475
1.16571
1.16657
1.16727
1.16797
1.16856
1.16881
1.16887
1.16888
1.16889
1.1689
1.1689
1.16891
1.16891
1.16891
1.16891
1.16891
1.16891
1.16891
1.16891
1.16892
1.16892
1.16892
1.16892
1.16892
1.16892
1.16892
1.16893
1.16893
1.16893
1.16893
1.16893
1.16893
1.16893
1.16893
1.16894
1.16894
1.16894
1.16894
1.16896
1.1694
1.17131
1.17506
1.18075
1.18915
1.20386
1.23722
1.27333
1.28171
1.28378
1.28624
1.2861
1.28717
1.28593
1.29065
1.81568
39.6533
981.578
1026.9
1027.1
1027.1
1027.1
1027.1
1027.1
1027.1
1027.1
1027.1
1027.1
1027.1
1027.1
1027.1
1027.1
1027.1
1027.1
1027.1
1027.1
1027.1
1027.1
1027.1
1027.1
1027.1
1027.1
1027.1
1027.1
1027.1
1027.1
1027.1
1027.1
1027.1
1027.1
1027.1
1027.1
1027.1
1.16215
1.1628
1.16397
1.16479
1.16593
1.16668
1.16732
1.16794
1.16839
1.16866
1.16878
1.16884
1.16887
1.16889
1.1689
1.1689
1.16891
1.16891
1.16891
1.16891
1.16891
1.16891
1.16891
1.16892
1.16892
1.16892
1.16892
1.16892
1.16892
1.16892
1.16893
1.16893
1.16893
1.16893
1.16893
1.16893
1.16893
1.16893
1.16893
1.16893
1.16894
1.16894
1.16898
1.16934
1.17068
1.17329
1.1773
1.18366
1.19887
1.26776
1.28241
1.28452
1.28679
1.28903
1.28902
1.29162
1.28733
1.29201
1.54528
57.7352
1006.28
1027.07
1027.09
1027.09
1027.09
1027.1
1027.1
1027.1
1027.1
1027.1
1027.1
1027.1
1027.1
1027.1
1027.1
1027.1
1027.1
1027.1
1027.1
1027.1
1027.1
1027.1
1027.1
1027.1
1027.1
1027.1
1027.1
1027.1
1027.1
1027.1
1027.1
1027.1
1027.1
1027.1
1027.1
1027.1
1.16209
1.16242
1.16361
1.16437
1.16566
1.16658
1.16724
1.16782
1.16828
1.16857
1.16873
1.16882
1.16886
1.16888
1.16889
1.1689
1.1689
1.1689
1.16891
1.16891
1.16891
1.16891
1.16891
1.16891
1.16891
1.16891
1.16891
1.16892
1.16892
1.16892
1.16892
1.16892
1.16892
1.16893
1.16893
1.16893
1.16893
1.16893
1.16893
1.16893
1.16894
1.16895
1.169
1.16929
1.17016
1.17183
1.17495
1.18486
1.22614
1.28001
1.28377
1.28558
1.28782
1.28894
1.28922
1.291
1.28333
1.2928
1.27555
108.193
1021.23
1027.04
1027.05
1027.06
1027.07
1027.08
1027.08
1027.09
1027.09
1027.09
1027.09
1027.1
1027.1
1027.1
1027.1
1027.1
1027.1
1027.1
1027.1
1027.1
1027.1
1027.1
1027.1
1027.1
1027.1
1027.1
1027.1
1027.1
1027.1
1027.1
1027.1
1027.1
1027.1
1027.1
1027.1
1027.1
1.16206
1.16212
1.16327
1.16396
1.16512
1.16604
1.16709
1.1677
1.16817
1.16849
1.16868
1.1688
1.16886
1.16889
1.1689
1.1689
1.16891
1.16891
1.16891
1.16891
1.16891
1.16891
1.16891
1.16892
1.16892
1.16892
1.16892
1.16892
1.16892
1.16892
1.16892
1.16892
1.16893
1.16893
1.16893
1.16893
1.16893
1.16893
1.16893
1.16893
1.16894
1.16895
1.16901
1.16929
1.17003
1.17133
1.17403
1.18833
1.25169
1.28202
1.28305
1.2831
1.28397
1.28469
1.28462
1.28372
1.27982
1.28892
1.27555
134.395
1014.5
1026.24
1026.27
1026.39
1026.48
1026.57
1026.68
1026.77
1026.85
1026.91
1026.96
1026.99
1027.02
1027.05
1027.06
1027.07
1027.07
1027.07
1027.07
1027.07
1027.07
1027.08
1027.08
1027.09
1027.09
1027.09
1027.1
1027.1
1027.1
1027.1
1027.1
1027.1
1027.1
1027.1
1027.1
1027.1
1.16203
1.16198
1.16296
1.16357
1.1647
1.16551
1.16679
1.16756
1.16804
1.1684
1.16863
1.16878
1.16885
1.16888
1.16889
1.1689
1.1689
1.1689
1.1689
1.1689
1.16891
1.16891
1.16891
1.16891
1.16891
1.16891
1.16891
1.16892
1.16892
1.16892
1.16892
1.16892
1.16892
1.16892
1.16892
1.16892
1.16893
1.16893
1.16893
1.16893
1.16893
1.16895
1.16901
1.16929
1.17002
1.17149
1.17456
1.19268
1.258
1.28181
1.28224
1.28121
1.28068
1.28051
1.28027
1.28079
1.27987
1.28323
1.27555
148.71
1010.02
1023.48
1023.21
1023.19
1023.41
1023.62
1023.94
1024.22
1024.47
1024.69
1024.87
1025.07
1025.31
1025.58
1025.84
1026.02
1026.08
1026.08
1026.07
1026.14
1026.21
1026.25
1026.22
1026.2
1026.34
1026.47
1026.71
1026.9
1027.03
1027.09
1027.1
1027.1
1027.1
1027.1
1027.1
1027.1
1.16208
1.16195
1.16274
1.16323
1.16445
1.16519
1.16626
1.16736
1.16794
1.16833
1.16859
1.16877
1.16885
1.16888
1.1689
1.1689
1.1689
1.16891
1.16891
1.16891
1.16891
1.16891
1.16891
1.16891
1.16891
1.16892
1.16892
1.16892
1.16892
1.16892
1.16892
1.16892
1.16892
1.16892
1.16892
1.16893
1.16893
1.16893
1.16893
1.16893
1.16893
1.16895
1.16902
1.16927
1.16998
1.17189
1.17749
1.19893
1.25343
1.28227
1.28355
1.28394
1.28347
1.28128
1.27985
1.27968
1.27951
1.28132
1.27555
172.268
1005.36
1019.62
1018.68
1018.46
1018.35
1018.59
1018.91
1019.18
1019.48
1019.65
1019.83
1020.03
1020.42
1020.96
1021.73
1022.43
1022.72
1022.66
1022.48
1021.9
1021.06
1020.24
1019.51
1019.03
1018.83
1019.06
1020
1021.38
1023.05
1024.82
1026.3
1026.91
1026.9
1026.96
1027
1027.04
1.16215
1.16215
1.16267
1.16298
1.1643
1.16509
1.16586
1.16714
1.16786
1.1683
1.16857
1.16876
1.16885
1.16888
1.16889
1.1689
1.1689
1.16891
1.16891
1.16891
1.16891
1.16891
1.16891
1.16892
1.16892
1.16892
1.16892
1.16892
1.16892
1.16892
1.16893
1.16893
1.16893
1.16893
1.16893
1.16893
1.16893
1.16893
1.16893
1.16894
1.16894
1.16895
1.16901
1.16925
1.16999
1.17189
1.17737
1.18846
1.21696
1.27892
1.28447
1.28696
1.2888
1.2861
1.28254
1.28069
1.2795
1.2803
1.27555
342.872
1008.31
1014
1013.02
1012.7
1012.55
1012.54
1012.76
1012.88
1013.1
1013.19
1013.23
1013.25
1013.42
1013.81
1014.34
1014.86
1015.22
1015.31
1014.92
1014.27
1013.56
1012.79
1011.95
1011.09
1010.2
1009.27
1008.34
1007.5
1006.82
1006.22
1005.74
1006.11
1009.48
1012.33
1015.9
1018.98
1.1619
1.16225
1.16269
1.1628
1.16413
1.16506
1.16573
1.16684
1.16777
1.16825
1.16853
1.16874
1.16884
1.16887
1.16889
1.1689
1.1689
1.1689
1.1689
1.1689
1.1689
1.16891
1.16891
1.16891
1.16891
1.16891
1.16892
1.16892
1.16892
1.16892
1.16892
1.16892
1.16892
1.16892
1.16893
1.16893
1.16893
1.16893
1.16893
1.16893
1.16894
1.16895
1.169
1.16923
1.16998
1.17188
1.17746
1.18801
1.20411
1.26062
1.282
1.28458
1.28872
1.28977
1.28648
1.28373
1.27951
1.28052
1.27555
322.017
1008.63
1014.99
1014.96
1014.96
1015
1014.95
1014.96
1014.96
1015.26
1015.48
1015.74
1016.07
1016.47
1016.97
1017.46
1017.9
1018.34
1018.85
1019.46
1020.24
1021.21
1022.18
1022.92
1023.28
1023.27
1022.66
1022.16
1021.65
1021.35
1021.17
1021.32
1022.18
1023.12
1024.53
1025.95
1026.67
1.16168
1.16191
1.16233
1.16259
1.16384
1.16506
1.16621
1.1667
1.16767
1.16825
1.16854
1.16873
1.16883
1.16888
1.16889
1.1689
1.1689
1.16891
1.16891
1.16891
1.16891
1.16891
1.16891
1.16891
1.16892
1.16892
1.16892
1.16892
1.16892
1.16892
1.16892
1.16892
1.16893
1.16893
1.16893
1.16893
1.16893
1.16893
1.16893
1.16893
1.16894
1.16895
1.16899
1.16922
1.16998
1.1718
1.17719
1.18803
1.20083
1.2248
1.26955
1.28246
1.28354
1.28705
1.28906
1.28693
1.27909
1.28397
1.27555
185.475
1010.38
1020.75
1020.92
1021.05
1020.98
1020.97
1020.76
1020.61
1020.49
1020.64
1020.97
1021.36
1021.83
1022.37
1022.97
1023.63
1024.33
1025.03
1025.69
1026.25
1026.65
1026.86
1026.94
1026.95
1026.93
1026.9
1026.89
1026.89
1026.89
1026.89
1026.92
1026.96
1027.01
1027.06
1027.09
1027.1
1.16132
1.16163
1.16188
1.16221
1.16348
1.16482
1.16628
1.16674
1.16768
1.16829
1.16856
1.16872
1.16881
1.16886
1.16888
1.16889
1.1689
1.1689
1.1689
1.1689
1.16891
1.16891
1.16891
1.16891
1.16891
1.16892
1.16892
1.16892
1.16892
1.16892
1.16892
1.16892
1.16892
1.16893
1.16893
1.16893
1.16893
1.16893
1.16893
1.16893
1.16894
1.16895
1.169
1.16929
1.17015
1.17176
1.17585
1.18756
1.20142
1.20903
1.24514
1.27366
1.28095
1.28443
1.28272
1.28639
1.27822
1.28894
1.27555
118.946
1015.74
1026.09
1026.21
1026.28
1026.16
1026.1
1025.93
1025.85
1025.8
1025.8
1025.9
1026.04
1026.21
1026.39
1026.58
1026.77
1026.91
1027.01
1027.06
1027.09
1027.1
1027.1
1027.1
1027.1
1027.1
1027.1
1027.1
1027.1
1027.1
1027.1
1027.1
1027.1
1027.1
1027.1
1027.1
1027.1
1.1611
1.16143
1.16146
1.16167
1.16277
1.16423
1.16603
1.16707
1.16776
1.16839
1.16862
1.16873
1.16878
1.16883
1.16886
1.16889
1.1689
1.1689
1.1689
1.16891
1.16891
1.16891
1.16891
1.16891
1.16892
1.16892
1.16892
1.16892
1.16892
1.16892
1.16892
1.16893
1.16893
1.16893
1.16893
1.16893
1.16893
1.16894
1.16894
1.16894
1.16894
1.16895
1.16902
1.16944
1.17066
1.17247
1.17554
1.1848
1.19993
1.21324
1.22426
1.25053
1.27084
1.28194
1.28046
1.28422
1.27822
1.29214
1.28413
69.3388
1015.93
1027.06
1027.07
1027.07
1027.07
1027.07
1027.06
1027.06
1027.06
1027.06
1027.07
1027.07
1027.08
1027.08
1027.09
1027.09
1027.1
1027.1
1027.1
1027.1
1027.1
1027.1
1027.1
1027.1
1027.1
1027.1
1027.1
1027.1
1027.1
1027.1
1027.1
1027.1
1027.1
1027.1
1027.1
1027.1
1.16089
1.16136
1.16132
1.16136
1.16204
1.16338
1.16545
1.16735
1.16786
1.16844
1.16865
1.16875
1.1688
1.16883
1.16887
1.1689
1.16891
1.16891
1.16891
1.16891
1.16891
1.16891
1.16892
1.16892
1.16892
1.16892
1.16892
1.16892
1.16892
1.16893
1.16893
1.16893
1.16893
1.16893
1.16893
1.16893
1.16893
1.16894
1.16894
1.16894
1.16894
1.16896
1.16905
1.16961
1.17129
1.17402
1.17711
1.18404
1.19683
1.2134
1.22255
1.23189
1.25201
1.27305
1.27671
1.283
1.27851
1.29199
1.47672
50.0433
1009.72
1027.09
1027.09
1027.1
1027.1
1027.1
1027.1
1027.1
1027.1
1027.1
1027.1
1027.1
1027.1
1027.1
1027.1
1027.1
1027.1
1027.1
1027.1
1027.1
1027.1
1027.1
1027.1
1027.1
1027.1
1027.1
1027.1
1027.1
1027.1
1027.1
1027.1
1027.1
1027.1
1027.1
1027.1
1027.1
1.16091
1.16147
1.1614
1.16138
1.16168
1.16279
1.1646
1.16675
1.16798
1.16847
1.16864
1.16875
1.16878
1.16882
1.16887
1.16891
1.16891
1.16891
1.16891
1.16891
1.16892
1.16892
1.16892
1.16892
1.16892
1.16892
1.16892
1.16893
1.16893
1.16893
1.16893
1.16893
1.16893
1.16893
1.16893
1.16893
1.16894
1.16894
1.16894
1.16894
1.16894
1.16896
1.16906
1.16965
1.17159
1.17526
1.17956
1.18564
1.1961
1.21009
1.22408
1.23242
1.24113
1.25974
1.26919
1.28102
1.27789
1.30238
1.67979
44.0512
1004.06
1027.09
1027.09
1027.1
1027.1
1027.1
1027.1
1027.1
1027.1
1027.1
1027.1
1027.1
1027.1
1027.1
1027.1
1027.1
1027.1
1027.1
1027.1
1027.1
1027.1
1027.1
1027.1
1027.1
1027.1
1027.1
1027.1
1027.1
1027.1
1027.1
1027.1
1027.1
1027.1
1027.1
1027.1
1027.1
1.16107
1.16205
1.16203
1.16209
1.16192
1.16262
1.16385
1.16601
1.16806
1.16848
1.16863
1.16872
1.16875
1.1688
1.16885
1.1689
1.16891
1.16891
1.16891
1.16891
1.16891
1.16892
1.16892
1.16892
1.16892
1.16892
1.16892
1.16892
1.16893
1.16893
1.16893
1.16893
1.16893
1.16893
1.16893
1.16893
1.16893
1.16894
1.16894
1.16894
1.16894
1.16896
1.16906
1.16968
1.17187
1.17628
1.18154
1.18769
1.19623
1.20701
1.22
1.23526
1.24193
1.2535
1.26126
1.27626
1.27634
1.29581
2.01212
34.0921
979.526
1026.9
1027.09
1027.1
1027.1
1027.1
1027.1
1027.1
1027.1
1027.1
1027.1
1027.1
1027.1
1027.1
1027.1
1027.1
1027.1
1027.1
1027.1
1027.1
1027.1
1027.1
1027.1
1027.1
1027.1
1027.1
1027.1
1027.1
1027.1
1027.1
1027.1
1027.1
1027.1
1027.1
1027.1
1027.1
1.16065
1.16086
1.16083
1.16252
1.16287
1.16295
1.16385
1.16583
1.16818
1.16851
1.16861
1.16867
1.16872
1.16877
1.16885
1.16891
1.16892
1.16892
1.16892
1.16892
1.16892
1.16892
1.16893
1.16893
1.16893
1.16893
1.16893
1.16893
1.16893
1.16893
1.16894
1.16894
1.16894
1.16894
1.16894
1.16894
1.16894
1.16894
1.16894
1.16895
1.16895
1.16896
1.16906
1.16979
1.17302
1.17948
1.18617
1.19214
1.19875
1.20553
1.2196
1.24973
1.25239
1.26323
1.26717
1.28488
1.28161
1.30574
2.64911
53.232
947.335
1025.97
1027.09
1027.1
1027.1
1027.1
1027.1
1027.1
1027.1
1027.1
1027.1
1027.1
1027.1
1027.1
1027.1
1027.1
1027.1
1027.1
1027.1
1027.1
1027.1
1027.1
1027.1
1027.1
1027.1
1027.1
1027.1
1027.1
1027.1
1027.1
1027.1
1027.1
1027.1
1027.1
1027.1
1027.1
1.16215
1.16319
1.1638
1.16437
1.16509
1.16639
1.16738
1.16812
1.1686
1.16876
1.16881
1.16885
1.16888
1.1689
1.16892
1.16892
1.16892
1.16892
1.16892
1.16892
1.16893
1.16893
1.16893
1.16893
1.16893
1.16893
1.16893
1.16893
1.16894
1.16894
1.16894
1.16894
1.16894
1.16894
1.16894
1.16895
1.16895
1.16895
1.16895
1.16895
1.16896
1.16897
1.16899
1.1693
1.17142
1.17577
1.18156
1.18991
1.21162
1.23376
1.25767
1.27414
1.28117
1.28461
1.28544
1.28664
1.28542
1.30037
1.91932
45.8567
988.383
1026.93
1027.1
1027.1
1027.1
1027.1
1027.1
1027.1
1027.1
1027.1
1027.1
1027.1
1027.1
1027.1
1027.1
1027.1
1027.1
1027.1
1027.1
1027.1
1027.1
1027.1
1027.1
1027.1
1027.1
1027.1
1027.1
1027.1
1027.1
1027.1
1027.1
1027.1
1027.1
1027.1
1027.1
1027.1
1.16153
1.16321
1.16451
1.16516
1.16593
1.16681
1.16753
1.16802
1.16833
1.16851
1.16866
1.16878
1.16885
1.16888
1.1689
1.16891
1.16892
1.16892
1.16892
1.16892
1.16892
1.16893
1.16893
1.16893
1.16893
1.16893
1.16893
1.16893
1.16893
1.16893
1.16894
1.16894
1.16894
1.16894
1.16894
1.16894
1.16894
1.16894
1.16894
1.16895
1.16896
1.16898
1.16904
1.16932
1.17047
1.17356
1.17911
1.1883
1.20262
1.22753
1.26935
1.28312
1.28675
1.28894
1.28924
1.29018
1.28784
1.29805
1.55416
60.845
1014.95
1027.08
1027.1
1027.1
1027.1
1027.1
1027.1
1027.1
1027.1
1027.1
1027.1
1027.1
1027.1
1027.1
1027.1
1027.1
1027.1
1027.1
1027.1
1027.1
1027.1
1027.1
1027.1
1027.1
1027.1
1027.1
1027.1
1027.1
1027.1
1027.1
1027.1
1027.1
1027.1
1027.1
1027.1
1027.1
1.16116
1.16248
1.16446
1.16521
1.16587
1.16644
1.16712
1.16765
1.16807
1.16837
1.16858
1.16875
1.16883
1.16888
1.1689
1.16891
1.16891
1.16892
1.16892
1.16892
1.16892
1.16892
1.16892
1.16892
1.16893
1.16893
1.16893
1.16893
1.16893
1.16893
1.16893
1.16893
1.16893
1.16894
1.16894
1.16894
1.16894
1.16894
1.16894
1.16894
1.16895
1.16897
1.16904
1.16934
1.17012
1.17181
1.17532
1.18044
1.19491
1.25605
1.2826
1.28594
1.28725
1.28854
1.2899
1.29218
1.28713
1.29562
1.41765
95.3882
1023.12
1027.09
1027.09
1027.09
1027.09
1027.09
1027.09
1027.09
1027.1
1027.1
1027.1
1027.1
1027.1
1027.1
1027.1
1027.1
1027.1
1027.1
1027.1
1027.1
1027.1
1027.1
1027.1
1027.1
1027.1
1027.1
1027.1
1027.1
1027.1
1027.1
1027.1
1027.1
1027.1
1027.1
1027.1
1027.1
1.16095
1.16165
1.16353
1.16441
1.16518
1.16592
1.16674
1.16739
1.16794
1.16831
1.16855
1.16874
1.16883
1.16887
1.16889
1.16891
1.16891
1.16891
1.16891
1.16892
1.16892
1.16892
1.16892
1.16892
1.16892
1.16892
1.16892
1.16893
1.16893
1.16893
1.16893
1.16893
1.16893
1.16893
1.16893
1.16893
1.16894
1.16894
1.16894
1.16894
1.16895
1.16897
1.16904
1.16941
1.1704
1.17197
1.1749
1.17779
1.21096
1.27648
1.28523
1.28747
1.29085
1.28934
1.28846
1.28848
1.28924
1.30309
1.2904
114.166
1019.07
1026.73
1026.77
1026.82
1026.85
1026.91
1026.95
1027
1027.03
1027.05
1027.07
1027.08
1027.09
1027.09
1027.09
1027.1
1027.1
1027.1
1027.1
1027.1
1027.1
1027.1
1027.1
1027.1
1027.1
1027.1
1027.1
1027.1
1027.1
1027.1
1027.1
1027.1
1027.1
1027.1
1027.1
1027.1
1.16082
1.16103
1.16278
1.16386
1.16469
1.16556
1.1665
1.16724
1.16786
1.16828
1.16854
1.16873
1.16883
1.16887
1.16889
1.16891
1.16891
1.16891
1.16891
1.16891
1.16892
1.16892
1.16892
1.16892
1.16892
1.16892
1.16892
1.16892
1.16893
1.16893
1.16893
1.16893
1.16893
1.16893
1.16893
1.16893
1.16893
1.16894
1.16894
1.16894
1.16895
1.16896
1.16904
1.16946
1.17066
1.17269
1.17599
1.18076
1.24012
1.28409
1.28667
1.29685
1.30187
1.29425
1.29329
1.29325
1.29465
1.29447
1.27555
131.868
1007.28
1023.46
1023.32
1023.59
1023.82
1024.25
1024.64
1025.04
1025.41
1025.73
1025.98
1026.19
1026.38
1026.57
1026.74
1026.86
1026.92
1026.92
1026.9
1026.88
1026.87
1026.89
1026.93
1026.96
1027
1027.04
1027.08
1027.09
1027.1
1027.1
1027.1
1027.1
1027.1
1027.1
1027.1
1027.1
1.16074
1.16063
1.16204
1.16336
1.16429
1.16532
1.16638
1.16716
1.16783
1.16827
1.16854
1.16873
1.16883
1.16887
1.16889
1.16891
1.16891
1.16891
1.16891
1.16891
1.16891
1.16892
1.16892
1.16892
1.16892
1.16892
1.16892
1.16892
1.16892
1.16893
1.16893
1.16893
1.16893
1.16893
1.16893
1.16893
1.16893
1.16893
1.16894
1.16894
1.16895
1.16897
1.16905
1.1695
1.17081
1.17313
1.17683
1.18424
1.25714
1.2853
1.2943
1.31094
1.31628
1.31044
1.30908
1.31089
1.31126
1.30077
1.27555
171.189
1003.98
1016.94
1015.87
1015.77
1016.13
1016.21
1016.21
1016.59
1016.94
1017.31
1017.69
1018.1
1018.52
1019.04
1019.74
1020.54
1021.12
1021.24
1020.58
1020.2
1019.85
1019.71
1020.09
1021.12
1022.21
1023.38
1024.62
1025.92
1026.63
1026.97
1027.09
1027.1
1027.1
1027.1
1027.1
1027.1
1.16071
1.1604
1.16135
1.16264
1.16395
1.16514
1.16631
1.16712
1.16782
1.16827
1.16854
1.16873
1.16883
1.16887
1.16889
1.16891
1.16891
1.16891
1.16891
1.16891
1.16891
1.16891
1.16892
1.16892
1.16892
1.16892
1.16892
1.16892
1.16892
1.16893
1.16893
1.16893
1.16893
1.16893
1.16893
1.16893
1.16893
1.16893
1.16894
1.16894
1.16895
1.16897
1.16905
1.16952
1.17087
1.17339
1.17743
1.18563
1.2436
1.28606
1.30077
1.3212
1.32558
1.32432
1.31821
1.31482
1.311
1.31604
1.28172
278.696
999.933
1010.2
1008.54
1008.24
1008.57
1007.31
1006.21
1005.35
1004.61
1003.82
1002.79
1001.76
1000.81
1000.03
999.316
998.29
997.207
996.458
995.792
995.163
994.723
994.059
993.344
992.621
992.264
994.044
997.35
1002.55
1008.62
1015.26
1021.1
1024.14
1023.1
1022.22
1021.12
1020.18
1.16075
1.16027
1.1608
1.16185
1.16346
1.1649
1.16625
1.1671
1.16781
1.16827
1.16854
1.16873
1.16883
1.16887
1.16889
1.16891
1.16891
1.16891
1.16891
1.16891
1.16891
1.16892
1.16892
1.16892
1.16892
1.16892
1.16892
1.16892
1.16892
1.16893
1.16893
1.16893
1.16893
1.16893
1.16893
1.16893
1.16893
1.16893
1.16894
1.16894
1.16895
1.16896
1.16904
1.16951
1.17093
1.17365
1.17782
1.18464
1.19965
1.26735
1.29909
1.32066
1.32582
1.31989
1.30695
1.29554
1.28473
1.30182
1.27555
382.255
998.94
1005.64
1004.54
1003.95
1003.82
1002.28
1001.06
1000.42
999.696
998.777
997.518
996.033
994.641
993.469
992.181
990.484
988.41
986.306
984.556
983.031
981.59
979.899
977.635
973.791
968.899
962.769
955.619
948.959
942.994
936.337
927.674
915.829
900.552
876.824
823.665
618.732
1.16075
1.16019
1.16041
1.16114
1.16269
1.16448
1.16615
1.16708
1.16781
1.16828
1.16855
1.16874
1.16883
1.16887
1.16889
1.16891
1.16891
1.16891
1.16891
1.16891
1.16891
1.16892
1.16892
1.16892
1.16892
1.16892
1.16892
1.16892
1.16893
1.16893
1.16893
1.16893
1.16893
1.16893
1.16893
1.16893
1.16894
1.16894
1.16894
1.16894
1.16895
1.16897
1.16904
1.16951
1.17099
1.17386
1.1783
1.18485
1.19622
1.21251
1.28403
1.31102
1.32232
1.32168
1.30084
1.28956
1.28079
1.29447
1.27921
300.441
1010.07
1018.39
1019.05
1019.52
1019.89
1020
1020.38
1020.76
1021.08
1021.36
1021.72
1022.04
1022.39
1022.92
1023.37
1023.71
1023.86
1023.9
1023.62
1023.42
1023.18
1022.92
1022.51
1021.84
1020.48
1018.33
1015.83
1012.87
1009.59
1007.04
1005.84
1005.63
1007.32
1008.44
1010.87
1015.54
1.16065
1.16016
1.16019
1.1606
1.16178
1.16384
1.16603
1.16708
1.16784
1.1683
1.16856
1.16875
1.16884
1.16887
1.16889
1.16891
1.16891
1.16891
1.16891
1.16892
1.16892
1.16892
1.16892
1.16892
1.16892
1.16892
1.16893
1.16893
1.16893
1.16893
1.16893
1.16893
1.16893
1.16893
1.16893
1.16894
1.16894
1.16894
1.16894
1.16894
1.16895
1.16897
1.16904
1.16953
1.17107
1.17417
1.17892
1.18603
1.19567
1.21011
1.24089
1.27923
1.30331
1.31616
1.31481
1.31258
1.2909
1.29111
1.27555
165.537
1013.06
1022.78
1022.85
1023.08
1023.3
1023.73
1024.24
1024.74
1025.18
1025.54
1025.9
1026.2
1026.46
1026.68
1026.82
1026.86
1026.86
1026.86
1026.87
1026.86
1026.85
1026.85
1026.84
1026.81
1026.75
1026.68
1026.63
1026.63
1026.72
1026.83
1026.93
1027.01
1027.07
1027.1
1027.1
1027.1
1.16057
1.16015
1.1601
1.16032
1.16113
1.16304
1.16565
1.16708
1.16788
1.16832
1.16857
1.16876
1.16884
1.16887
1.16889
1.16891
1.16891
1.16891
1.16891
1.16892
1.16892
1.16892
1.16892
1.16892
1.16892
1.16892
1.16893
1.16893
1.16893
1.16893
1.16893
1.16893
1.16893
1.16893
1.16894
1.16894
1.16894
1.16894
1.16894
1.16894
1.16895
1.16897
1.16905
1.16955
1.17122
1.17463
1.18001
1.18747
1.19697
1.21113
1.2232
1.24108
1.2702
1.28893
1.29663
1.29511
1.28287
1.28994
1.27555
102.26
1017.61
1026.06
1026.1
1026.26
1026.33
1026.43
1026.45
1026.54
1026.64
1026.74
1026.81
1026.89
1026.95
1027.01
1027.05
1027.08
1027.09
1027.09
1027.09
1027.1
1027.1
1027.1
1027.1
1027.1
1027.1
1027.1
1027.1
1027.1
1027.1
1027.1
1027.1
1027.1
1027.1
1027.1
1027.1
1027.1
1.1605
1.16015
1.16006
1.16017
1.16073
1.16244
1.165
1.16701
1.16793
1.16835
1.16859
1.16877
1.16884
1.16887
1.16889
1.16891
1.16891
1.16891
1.16891
1.16892
1.16892
1.16892
1.16892
1.16892
1.16892
1.16892
1.16893
1.16893
1.16893
1.16893
1.16893
1.16893
1.16893
1.16893
1.16893
1.16894
1.16894
1.16894
1.16894
1.16894
1.16895
1.16897
1.16906
1.16964
1.17157
1.17549
1.18171
1.18934
1.19857
1.2116
1.22662
1.23299
1.24872
1.26778
1.27327
1.27906
1.2778
1.2918
1.31061
76.7019
1017.97
1027.03
1027.03
1027.05
1027.06
1027.08
1027.08
1027.08
1027.08
1027.09
1027.09
1027.09
1027.09
1027.09
1027.1
1027.1
1027.1
1027.1
1027.1
1027.1
1027.1
1027.1
1027.1
1027.1
1027.1
1027.1
1027.1
1027.1
1027.1
1027.1
1027.1
1027.1
1027.1
1027.1
1027.1
1027.1
1.1605
1.16029
1.1601
1.16012
1.16024
1.16127
1.16356
1.16636
1.16795
1.16839
1.16861
1.16877
1.16884
1.16885
1.16888
1.16891
1.16891
1.16891
1.16891
1.16892
1.16892
1.16892
1.16892
1.16892
1.16892
1.16892
1.16893
1.16893
1.16893
1.16893
1.16893
1.16893
1.16893
1.16893
1.16893
1.16893
1.16894
1.16894
1.16894
1.16894
1.16895
1.16897
1.16907
1.1698
1.17221
1.1768
1.18342
1.19124
1.20002
1.21204
1.22401
1.23632
1.24489
1.26181
1.26754
1.27334
1.27784
1.33606
1.49957
40.1927
1004.43
1027.09
1027.09
1027.09
1027.09
1027.1
1027.1
1027.1
1027.1
1027.1
1027.1
1027.1
1027.1
1027.1
1027.1
1027.1
1027.1
1027.1
1027.1
1027.1
1027.1
1027.1
1027.1
1027.1
1027.1
1027.1
1027.1
1027.1
1027.1
1027.1
1027.1
1027.1
1027.1
1027.1
1027.1
1027.1
1.16069
1.16086
1.16042
1.16043
1.1601
1.16039
1.16159
1.16457
1.16793
1.16846
1.16863
1.16877
1.16881
1.16882
1.16886
1.1689
1.16891
1.16891
1.16891
1.16891
1.16891
1.16892
1.16892
1.16892
1.16892
1.16892
1.16892
1.16892
1.16892
1.16892
1.16893
1.16893
1.16893
1.16893
1.16893
1.16893
1.16893
1.16893
1.16893
1.16894
1.16894
1.16896
1.16908
1.16993
1.17281
1.17817
1.18512
1.19258
1.20068
1.20965
1.22049
1.23608
1.24383
1.25734
1.25793
1.27693
1.28832
1.38838
1.87861
52.8912
991.66
1027.09
1027.09
1027.09
1027.1
1027.1
1027.1
1027.1
1027.1
1027.1
1027.1
1027.1
1027.1
1027.1
1027.1
1027.1
1027.1
1027.1
1027.1
1027.1
1027.1
1027.1
1027.1
1027.1
1027.1
1027.1
1027.1
1027.1
1027.1
1027.1
1027.1
1027.1
1027.1
1027.1
1027.1
1027.1
1.16093
1.16126
1.16102
1.16101
1.16047
1.16034
1.16068
1.16268
1.16716
1.1685
1.16864
1.16872
1.16875
1.16878
1.16884
1.1689
1.16891
1.16891
1.16891
1.16891
1.16891
1.16891
1.16892
1.16892
1.16892
1.16892
1.16892
1.16892
1.16892
1.16892
1.16892
1.16892
1.16892
1.16892
1.16892
1.16893
1.16893
1.16893
1.16893
1.16893
1.16893
1.16896
1.16908
1.16994
1.17308
1.17921
1.18651
1.19343
1.20055
1.20668
1.21699
1.23874
1.24507
1.25802
1.26074
1.28502
1.28536
1.40309
2.0531
34.7172
964.037
1026.89
1027.09
1027.1
1027.1
1027.1
1027.1
1027.1
1027.1
1027.1
1027.1
1027.1
1027.1
1027.1
1027.1
1027.1
1027.1
1027.1
1027.1
1027.1
1027.1
1027.1
1027.1
1027.1
1027.1
1027.1
1027.1
1027.1
1027.1
1027.1
1027.1
1027.1
1027.1
1027.1
1027.1
1027.1
1.16058
1.16082
1.1608
1.16133
1.16069
1.16049
1.16069
1.16228
1.16671
1.16853
1.16864
1.16869
1.16872
1.16875
1.16884
1.16891
1.16891
1.16891
1.16892
1.16892
1.16892
1.16892
1.16892
1.16892
1.16892
1.16892
1.16893
1.16893
1.16893
1.16893
1.16893
1.16893
1.16893
1.16893
1.16894
1.16894
1.16894
1.16894
1.16894
1.16894
1.16895
1.16896
1.16905
1.16988
1.17348
1.18065
1.18824
1.19446
1.2003
1.20532
1.21816
1.24835
1.25885
1.27078
1.26991
1.28978
1.31238
1.3906
2.2956
44.7559
941.841
1026
1027.09
1027.1
1027.1
1027.1
1027.1
1027.1
1027.1
1027.1
1027.1
1027.1
1027.1
1027.1
1027.1
1027.1
1027.1
1027.1
1027.1
1027.1
1027.1
1027.1
1027.1
1027.1
1027.1
1027.1
1027.1
1027.1
1027.1
1027.1
1027.1
1027.1
1027.1
1027.1
1027.1
1027.1
1.16159
1.16248
1.16356
1.16433
1.16511
1.16636
1.16738
1.16823
1.16865
1.16877
1.16882
1.16886
1.16888
1.1689
1.16891
1.16891
1.16891
1.16891
1.16892
1.16892
1.16892
1.16892
1.16892
1.16892
1.16892
1.16892
1.16893
1.16893
1.16893
1.16893
1.16893
1.16893
1.16893
1.16894
1.16894
1.16894
1.16894
1.16894
1.16894
1.16894
1.16895
1.16895
1.16898
1.16936
1.17176
1.17667
1.18277
1.19042
1.20745
1.22962
1.24801
1.26817
1.27911
1.28209
1.28213
1.28335
1.28233
1.30009
1.70621
47.4785
979.521
1026.89
1027.1
1027.1
1027.1
1027.1
1027.1
1027.1
1027.1
1027.1
1027.1
1027.1
1027.1
1027.1
1027.1
1027.1
1027.1
1027.1
1027.1
1027.1
1027.1
1027.1
1027.1
1027.1
1027.1
1027.1
1027.1
1027.1
1027.1
1027.1
1027.1
1027.1
1027.1
1027.1
1027.1
1027.1
1.16073
1.16138
1.16424
1.16487
1.16553
1.16665
1.16766
1.16827
1.16853
1.16865
1.16874
1.16881
1.16886
1.16889
1.1689
1.16891
1.16891
1.16891
1.16891
1.16892
1.16892
1.16892
1.16892
1.16892
1.16892
1.16893
1.16893
1.16893
1.16893
1.16893
1.16893
1.16893
1.16893
1.16893
1.16893
1.16894
1.16894
1.16894
1.16894
1.16894
1.16895
1.16897
1.16901
1.16934
1.17113
1.17526
1.18118
1.19086
1.20663
1.21879
1.25078
1.28117
1.29317
1.29268
1.2896
1.28494
1.27847
1.29228
1.44784
73.1663
1008.81
1027.08
1027.1
1027.1
1027.1
1027.1
1027.1
1027.1
1027.1
1027.1
1027.1
1027.1
1027.1
1027.1
1027.1
1027.1
1027.1
1027.1
1027.1
1027.1
1027.1
1027.1
1027.1
1027.1
1027.1
1027.1
1027.1
1027.1
1027.1
1027.1
1027.1
1027.1
1027.1
1027.1
1027.1
1027.1
1.16053
1.16082
1.16435
1.16528
1.16589
1.16674
1.16761
1.16812
1.16836
1.16852
1.16866
1.16878
1.16885
1.16888
1.16889
1.1689
1.1689
1.1689
1.16891
1.16891
1.16891
1.16891
1.16891
1.16891
1.16892
1.16892
1.16892
1.16892
1.16892
1.16892
1.16892
1.16892
1.16892
1.16892
1.16892
1.16893
1.16893
1.16893
1.16893
1.16893
1.16894
1.16896
1.16903
1.16935
1.17057
1.17308
1.17744
1.18863
1.2061
1.22892
1.27517
1.29552
1.29932
1.29918
1.29803
1.29502
1.28162
1.29399
1.40158
78.0675
999.084
1027.09
1027.09
1027.09
1027.09
1027.1
1027.1
1027.1
1027.1
1027.1
1027.1
1027.1
1027.1
1027.1
1027.1
1027.1
1027.1
1027.1
1027.1
1027.1
1027.1
1027.1
1027.1
1027.1
1027.1
1027.1
1027.1
1027.1
1027.1
1027.1
1027.1
1027.1
1027.1
1027.1
1027.1
1027.1
1.16044
1.16063
1.16398
1.16521
1.16586
1.1667
1.16746
1.16791
1.16823
1.16846
1.16864
1.16878
1.16885
1.16888
1.16889
1.1689
1.1689
1.16891
1.16891
1.16891
1.16891
1.16891
1.16891
1.16891
1.16891
1.16891
1.16891
1.16892
1.16892
1.16892
1.16892
1.16892
1.16892
1.16892
1.16892
1.16892
1.16893
1.16893
1.16893
1.16893
1.16894
1.16896
1.16904
1.16939
1.17063
1.1728
1.17617
1.1823
1.198
1.26017
1.29347
1.29918
1.30127
1.29925
1.29518
1.29142
1.28929
1.31466
1.40728
96.2337
1005.39
1026.98
1026.99
1027
1026.99
1027.02
1027.04
1027.05
1027.06
1027.07
1027.07
1027.08
1027.08
1027.09
1027.09
1027.1
1027.1
1027.1
1027.1
1027.1
1027.1
1027.1
1027.1
1027.1
1027.1
1027.1
1027.1
1027.1
1027.1
1027.1
1027.1
1027.1
1027.1
1027.1
1027.1
1027.1
1.16043
1.16061
1.1628
1.1652
1.16578
1.16661
1.16729
1.16776
1.16816
1.16843
1.16862
1.16877
1.16884
1.16888
1.16889
1.1689
1.1689
1.1689
1.16891
1.16891
1.16891
1.16891
1.16891
1.16891
1.16891
1.16891
1.16892
1.16892
1.16892
1.16892
1.16892
1.16892
1.16892
1.16892
1.16892
1.16892
1.16892
1.16893
1.16893
1.16894
1.16896
1.16899
1.16907
1.16944
1.17062
1.1727
1.17583
1.18017
1.21514
1.2801
1.29817
1.30239
1.30383
1.29263
1.29532
1.29935
1.31619
1.35239
1.40395
109.028
1007.6
1025.41
1025.42
1025.47
1025.38
1025.33
1025.33
1025.45
1025.55
1025.76
1025.95
1026.11
1026.25
1026.4
1026.6
1026.8
1026.94
1027
1027
1026.98
1026.98
1027
1027.02
1027.06
1027.08
1027.09
1027.1
1027.1
1027.1
1027.1
1027.1
1027.1
1027.1
1027.1
1027.1
1027.1
1.16051
1.16055
1.1623
1.16492
1.16565
1.16653
1.16712
1.16764
1.1681
1.1684
1.16861
1.16875
1.16883
1.16887
1.16889
1.16889
1.1689
1.1689
1.1689
1.16891
1.16891
1.16891
1.16891
1.16891
1.16891
1.16891
1.16892
1.16892
1.16892
1.16892
1.16892
1.16892
1.16892
1.16892
1.16892
1.16892
1.16893
1.16893
1.16893
1.16893
1.16896
1.16902
1.16916
1.16956
1.17049
1.17194
1.17655
1.18468
1.2278
1.28629
1.3012
1.30956
1.30525
1.30079
1.3099
1.33324
1.38103
1.43609
1.50099
146.84
1010.65
1022.68
1022.93
1023.39
1023.45
1022.63
1022.11
1021.63
1021.31
1021.02
1020.76
1020.49
1020.3
1020.23
1020.58
1021.23
1022.02
1022.6
1022.85
1022.94
1023.17
1023.68
1024.45
1025.3
1026.06
1026.65
1026.98
1027.05
1027.08
1027.08
1027.09
1027.1
1027.1
1027.1
1027.1
1027.1
1.16049
1.16037
1.16181
1.16399
1.16544
1.16645
1.16717
1.16764
1.16809
1.16834
1.16854
1.16871
1.16881
1.16887
1.16889
1.16889
1.16889
1.1689
1.1689
1.1689
1.16891
1.16891
1.16891
1.16892
1.16892
1.16892
1.16892
1.16892
1.16892
1.16892
1.16892
1.16893
1.16893
1.16893
1.16893
1.16893
1.16893
1.16893
1.16893
1.16894
1.16895
1.16899
1.16914
1.16953
1.1703
1.1725
1.17849
1.18942
1.22471
1.28471
1.30214
1.3162
1.31864
1.32261
1.34178
1.36201
1.36735
1.46952
1.57004
229.433
1010.31
1021.37
1022.46
1023.42
1023.34
1022.43
1021.8
1021.13
1020.43
1019.6
1018.61
1017.46
1016.13
1014.66
1013.28
1012.37
1011.89
1011.73
1011.97
1012.65
1013.69
1015.04
1016.61
1018.45
1020.38
1022.27
1024.3
1025.82
1026.61
1026.93
1027.01
1027.01
1027.02
1027.04
1027.08
1027.1
1.16046
1.16031
1.16125
1.16266
1.16483
1.16607
1.16694
1.16737
1.16793
1.16809
1.16841
1.16868
1.16879
1.16886
1.16888
1.16889
1.16889
1.1689
1.1689
1.1689
1.1689
1.1689
1.16891
1.16891
1.16891
1.16891