/*--------------------------------*- C++ -*----------------------------------*\
| =========                 |                                                 |
| \\      /  F ield         | OpenFOAM: The Open Source CFD Toolbox           |
|  \\    /   O peration     | Version:  2.3.0                                 |
|   \\  /    A nd           | Web:      www.OpenFOAM.org                      |
|    \\/     M anipulation  |                                                 |
\*---------------------------------------------------------------------------*/
FoamFile
{
    version     2.0;
    format      ascii;
    class       volVectorField;
    location    "40";
    object      U;
}
// * * * * * * * * * * * * * * * * * * * * * * * * * * * * * * * * * * * * * //

dimensions      [0 1 -1 0 0 0 0];

internalField   nonuniform List<vector> 
6144
(
(0.0119617 0.0218079 -0.000868073)
(0.0123503 -0.00308764 -0.00213874)
(0.00453085 -0.00440196 -0.00321657)
(0.00347411 -0.0033859 -0.00275139)
(0.00202308 -0.00152951 -0.00199836)
(0.00336978 0.00146154 -0.00185397)
(0.0033683 0.000772768 -0.00146327)
(0.00314083 0.00180681 -0.00103662)
(0.0023884 0.00121239 -0.000651656)
(0.00175655 0.00246516 -9.1646e-05)
(0.0013058 0.00354849 0.000399323)
(0.00127325 0.00455531 0.00105138)
(0.00140902 0.00460404 0.00143025)
(0.00154542 0.00402533 0.0018327)
(0.00161277 0.00307982 0.00184134)
(0.00171074 0.00216062 0.00171954)
(0.00178347 0.00125439 0.00146011)
(0.00186297 0.000535372 0.00119698)
(0.00193001 -4.12276e-05 0.000924059)
(0.00198063 -0.00040363 0.000677361)
(0.0020141 -0.000580774 0.000458149)
(0.00204323 -0.00059652 0.000301434)
(0.00204847 -0.000531522 0.000234405)
(0.00203171 -0.00041506 0.000241902)
(0.0019943 -0.00027784 0.000314334)
(0.00194091 -0.000136895 0.000437898)
(0.00188422 -1.39135e-05 0.000584156)
(0.00182591 7.22134e-05 0.000734784)
(0.00176539 0.000115824 0.000883055)
(0.00170093 0.000133576 0.00101243)
(0.00163282 0.000155628 0.00112618)
(0.00156245 0.000196749 0.00124182)
(0.00148995 0.000250054 0.0013749)
(0.00141578 0.000295241 0.00153379)
(0.00134267 0.000307054 0.00171616)
(0.00127302 0.00026277 0.00190489)
(0.00120808 0.000162875 0.002066)
(0.00115199 4.07105e-05 0.00215339)
(0.00111095 -2.89753e-05 0.00212376)
(0.00109528 6.31862e-05 0.00189896)
(0.00110377 0.000553651 0.0013544)
(0.00115375 0.001774 0.000328015)
(0.00138483 0.00410658 -0.00085289)
(0.00241141 0.00741414 -0.00174916)
(0.00423839 0.00876616 -0.00209077)
(0.00682201 0.00688283 -0.00212718)
(0.00831767 0.00385841 -0.00250571)
(0.00648066 -0.000221167 -0.00403764)
(-0.00343392 0.0111682 -0.00719087)
(0.00281928 0.031505 -0.011184)
(0.0425416 0.00530954 -0.00889571)
(0.0509268 -0.052097 -0.00584701)
(0.0482036 -0.0795476 -0.0077732)
(0.0406282 -0.126617 -0.00863094)
(0.0341 -0.139382 -0.0125194)
(0.0130993 -0.160078 -0.0105128)
(-0.00448455 -0.114564 -0.0174346)
(-0.0209747 -0.135039 0.00953541)
(-0.0415439 0.0187375 -0.0404008)
(0.0384771 0.110537 0.0493418)
(0.138522 -0.274925 0.0631581)
(0.0936244 -0.151818 0.0358274)
(0.0568798 -0.209892 0.0161309)
(0.0502104 -0.2179 0.00540723)
(0.046623 -0.21289 0.00580083)
(0.0420739 -0.200213 0.00723495)
(0.036979 -0.185989 0.00384272)
(0.0247602 -0.169268 0.00275659)
(0.0161753 -0.146134 0.00246847)
(0.00814939 -0.138763 0.00339571)
(0.00527803 -0.125046 0.00122312)
(-0.00364953 -0.116036 -0.000852282)
(-0.00224455 -0.0999731 -0.00958628)
(0.00999672 -0.0691602 -0.00563825)
(0.00622123 -0.0654932 0.000645524)
(-0.0202207 -0.0417657 0.00877304)
(-0.0162376 -0.0073042 0.00869668)
(-0.00528642 0.00652609 -0.00805935)
(-0.0146558 0.04707 -0.0173445)
(-0.00337427 0.0849569 -0.00253919)
(0.00914534 0.0907036 0.017539)
(0.00163111 0.0848502 0.035247)
(-0.00939285 0.0555581 0.0443735)
(-0.00378974 0.0255178 0.0479459)
(-0.00113495 -0.0126937 0.0337371)
(-0.0052491 -0.0283699 0.0261454)
(-0.00641516 -0.040804 0.0211225)
(-0.00482258 -0.0465269 0.0186132)
(-0.00214597 -0.0591195 0.0155561)
(0.0013027 -0.0662592 0.0169171)
(0.00135736 -0.0802143 0.0139997)
(-0.00117153 -0.0847543 0.0108641)
(-0.00439927 -0.0833294 0.00542828)
(-0.00207073 -0.0779871 -0.00561736)
(-0.0110307 -0.0602315 -0.0138147)
(-0.00395821 -0.0108841 -0.0184501)
(0.0219368 0.0214127 0.00313492)
(0.0234368 0.00586965 0.00233215)
(0.0111592 0.00194533 -0.0018275)
(0.00942941 0.000892262 -0.000659957)
(0.0046307 -0.00242675 0.000653318)
(0.00547945 0.000368315 0.000966169)
(0.00507114 0.00021038 0.00178713)
(0.0047575 0.00244406 0.00223836)
(0.00349276 0.00213595 0.00262237)
(0.00240067 0.00381963 0.00274316)
(0.0018604 0.00480494 0.00293055)
(0.00209571 0.00565178 0.0036155)
(0.00249481 0.0055145 0.00404345)
(0.00292312 0.00499073 0.00432432)
(0.0030753 0.00402688 0.00436296)
(0.00323737 0.00308635 0.00433817)
(0.00330189 0.00208781 0.00425082)
(0.00337605 0.0012819 0.00416904)
(0.00342289 0.000595219 0.00409427)
(0.00343398 0.000103242 0.00404182)
(0.00342625 -0.000204107 0.00399736)
(0.00342518 -0.000325245 0.00393378)
(0.00339146 -0.000352122 0.00393035)
(0.00332221 -0.000305882 0.00397699)
(0.00321907 -0.000221159 0.0040665)
(0.00309302 -0.000113118 0.00418666)
(0.00297393 -9.73845e-06 0.00428599)
(0.00287006 6.45277e-05 0.00437111)
(0.00276644 0.000110393 0.00445522)
(0.00264852 0.00014374 0.00453406)
(0.00251533 0.00018316 0.00461137)
(0.00237447 0.000228827 0.00469181)
(0.00223931 0.000270098 0.0047769)
(0.00211716 0.000296274 0.00486693)
(0.0020137 0.000296607 0.00496081)
(0.00193035 0.000263954 0.00505362)
(0.00185799 0.000206195 0.00513405)
(0.00178322 0.000154598 0.00518407)
(0.00169264 0.000184525 0.00517343)
(0.00154334 0.000404837 0.00505337)
(0.00123589 0.00105645 0.00472023)
(0.000927492 0.00246903 0.00376818)
(0.000941774 0.00500775 0.00248763)
(0.00264592 0.00878909 0.00169904)
(0.00690717 0.0122996 0.0016976)
(0.0112588 0.015689 0.00115775)
(0.0110713 0.020276 0.000738753)
(0.00463743 0.0231369 -0.000558938)
(-0.000279055 0.0276041 -0.00187786)
(0.0370689 -0.00537988 0.00511279)
(0.0906506 -0.0426067 0.00286552)
(0.0955912 -0.0729265 -0.00418539)
(0.0848545 -0.0860183 -0.00371564)
(0.0751131 -0.118925 -0.00292885)
(0.0502183 -0.116661 0.00112204)
(0.0232834 -0.152256 0.00517278)
(-0.0205718 -0.118842 -0.0007664)
(-0.0342281 -0.174971 0.02056)
(-0.1297 0.00792869 -0.0872744)
(0.00699775 0.048851 0.028662)
(0.191526 -0.243779 0.0869657)
(0.105871 0.00780536 0.0365133)
(0.0279682 -0.0859982 4.44213e-05)
(0.0238437 0.030624 -0.00912103)
(-0.00670035 0.0294043 0.0152617)
(-0.0251419 0.0555342 0.0144352)
(-0.0169013 0.0715606 0.0145696)
(0.0121526 0.0823132 0.00489862)
(0.0244799 0.078018 -0.00873265)
(0.0308446 0.068664 -0.0130812)
(0.034525 0.0620411 -0.0141367)
(0.0335416 0.0452405 -0.0132558)
(0.0325081 0.030997 -0.00967019)
(0.0277698 0.0151755 -0.00959041)
(0.0163641 0.00462884 -0.00938681)
(0.0010449 0.000524068 -0.00823776)
(-0.0013203 -0.00557373 -0.0102596)
(-0.0104964 0.0149672 -0.0325193)
(-0.0110972 0.0511692 -0.02881)
(-0.00338427 0.0699695 -0.00765344)
(0.00577991 0.0714075 0.0184036)
(0.00182102 0.0639811 0.0343567)
(-0.00525361 0.0404527 0.0492069)
(-0.00734885 0.00935801 0.050822)
(-0.00814913 -0.0144204 0.0392972)
(-0.0098265 -0.0293142 0.0283322)
(-0.0130365 -0.0394621 0.019559)
(-0.014262 -0.0456592 0.0128004)
(-0.0104924 -0.0527163 0.00874049)
(-0.00496528 -0.058025 0.0123134)
(-0.00480879 -0.070056 0.0144242)
(-0.01213 -0.0736449 0.0121528)
(-0.0156874 -0.0682064 0.00897994)
(-0.0109713 -0.0586062 0.00382685)
(-0.0143204 -0.0429531 -0.0091704)
(-0.0116514 -0.00868873 -0.0160045)
(0.0254072 0.0215375 0.00414977)
(0.0275833 0.012412 0.00414545)
(0.0165696 0.00720026 0.00128729)
(0.013883 0.0053954 0.00310886)
(0.00558607 -0.000720808 0.00378064)
(0.00465433 0.00128449 0.0032035)
(0.00305238 0.000825157 0.00388328)
(0.00296655 0.00326082 0.00392347)
(0.00174127 0.00290059 0.00408497)
(0.000959811 0.00403122 0.00420542)
(0.000444823 0.00411482 0.0042633)
(0.000952559 0.00476873 0.00456885)
(0.00140032 0.00462792 0.00484029)
(0.00190213 0.00457008 0.00505839)
(0.00211171 0.00405333 0.00506573)
(0.0023452 0.00351846 0.00504218)
(0.00243319 0.00280001 0.00497229)
(0.00251545 0.00218972 0.00492275)
(0.00255689 0.00161438 0.00488425)
(0.00254679 0.00114792 0.00487807)
(0.0024818 0.000758795 0.00489622)
(0.00237681 0.000483414 0.00493782)
(0.00226245 0.000303225 0.00499133)
(0.00213102 0.000201925 0.00505225)
(0.00198269 0.000153023 0.005119)
(0.00182705 0.000138148 0.00518705)
(0.00166599 0.000140008 0.00525724)
(0.00150574 0.000155923 0.00533126)
(0.00133836 0.000185398 0.00540431)
(0.00114803 0.000223097 0.0054775)
(0.000946627 0.000258255 0.00555543)
(0.000756677 0.000286887 0.00564027)
(0.000576682 0.000312531 0.00572377)
(0.000408507 0.000339501 0.0058018)
(0.000257956 0.000381031 0.0058737)
(0.000129554 0.0004499 0.0059379)
(2.39954e-05 0.000565762 0.00598833)
(-7.22651e-05 0.000754849 0.00601195)
(-0.000170699 0.00108802 0.00597516)
(-0.00030052 0.00163629 0.00583723)
(-0.000558453 0.00247873 0.00553236)
(-0.00108371 0.00362849 0.00500681)
(-0.00141579 0.005405 0.00416426)
(-0.000260156 0.00835896 0.00317024)
(0.00285483 0.0126734 0.00274999)
(0.00694611 0.020516 0.00267771)
(0.00725069 0.0275362 0.00325911)
(0.00726879 0.0290472 0.00416812)
(0.0238774 0.0246339 0.00912215)
(0.0748319 -0.0259517 0.0106233)
(0.119835 -0.0382043 -0.00397482)
(0.127797 -0.0185845 -0.0135715)
(0.114007 -0.00409109 -0.00460067)
(0.0920439 -0.00705267 0.00643506)
(0.0557844 -0.000112553 0.0281486)
(0.0416849 -0.0987073 0.0325005)
(-0.031813 -0.077503 0.0174693)
(-0.0280529 -0.192031 0.023714)
(-0.167308 0.0845835 -0.0741467)
(0.0561145 -0.018702 -0.0126043)
(0.201003 -0.205257 0.057984)
(0.0788816 0.150633 -0.000578985)
(0.0395145 0.00192267 -0.0162048)
(0.0283092 0.118835 -0.0133571)
(0.0376375 0.102237 -0.0108843)
(0.0362376 0.106006 -0.00677743)
(0.0460584 0.0970224 0.00103273)
(0.0533379 0.0929647 0.00320698)
(0.0588793 0.0919616 0.00233275)
(0.0598266 0.085752 0.00483101)
(0.0620738 0.0799897 0.00919525)
(0.060361 0.0641156 0.0160792)
(0.0589259 0.0454367 0.023323)
(0.0565784 0.0253109 0.0240149)
(0.0460922 0.00443387 0.0234532)
(0.0270126 -0.0134562 0.0231385)
(0.012852 -0.0192593 0.0113941)
(-0.00498604 -0.0170848 -0.0128811)
(-0.0216165 0.015542 -0.0332349)
(-0.0176287 0.040107 -0.0149456)
(0.00311272 0.0471172 0.017253)
(0.012168 0.0415243 0.0400057)
(-0.007126 0.0203498 0.0540576)
(-0.0310032 0.000130206 0.063167)
(-0.0325616 -0.0238267 0.0513276)
(-0.0293171 -0.0373309 0.0268942)
(-0.0179291 -0.0451583 0.0163385)
(-0.0123739 -0.0588466 2.53679e-05)
(-0.0100102 -0.0686264 -0.00937885)
(-0.0108781 -0.075781 -0.00584786)
(-0.0175752 -0.0833933 -0.00373159)
(-0.0278399 -0.090503 0.0021552)
(-0.0381994 -0.0828398 0.00403328)
(-0.0346394 -0.0697522 0.00743023)
(-0.0314423 -0.0381461 0.00572962)
(-0.00763233 -0.0146751 -0.0110705)
(0.0266484 0.0215735 0.00431426)
(0.0300584 0.016655 0.00512958)
(0.0192722 0.00986397 0.00178002)
(0.017495 0.00981859 0.00233934)
(0.00721366 0.00203488 0.00312046)
(0.00440958 0.00313476 0.00286623)
(0.00138698 0.00104442 0.00386004)
(0.00149872 0.00337406 0.00393286)
(0.000340228 0.00245809 0.00417907)
(-0.000173714 0.00327394 0.00433013)
(-0.000726308 0.0028862 0.00447628)
(-0.000304611 0.00344529 0.00482295)
(-5.13999e-05 0.00356414 0.00506792)
(0.000457961 0.00390147 0.00526912)
(0.000726703 0.00373144 0.00526188)
(0.0010047 0.00350459 0.00527479)
(0.00109893 0.00299096 0.00523971)
(0.00115386 0.0025228 0.00523283)
(0.00115571 0.00203905 0.00521659)
(0.00112233 0.00162645 0.00521293)
(0.00102539 0.00124407 0.00521723)
(0.000894443 0.000917769 0.00523218)
(0.000741001 0.000650795 0.00526035)
(0.000570866 0.000453476 0.00529886)
(0.000394268 0.000323502 0.00534458)
(0.00021871 0.000252576 0.00539425)
(5.2244e-05 0.000225418 0.00544291)
(-0.000106586 0.000227755 0.0054904)
(-0.000266266 0.000247469 0.00554059)
(-0.000437667 0.0002749 0.00559916)
(-0.000612171 0.000309225 0.00566613)
(-0.000779609 0.000347801 0.00573016)
(-0.000942478 0.000392256 0.00578401)
(-0.00109731 0.000453504 0.00582202)
(-0.0012392 0.000544627 0.005847)
(-0.00136686 0.000685442 0.00586191)
(-0.00149098 0.000917031 0.00585842)
(-0.00162866 0.00128646 0.00581554)
(-0.00177962 0.00186106 0.00570413)
(-0.00192799 0.00267949 0.00550501)
(-0.00207377 0.00377337 0.00516827)
(-0.00223021 0.00496093 0.0046181)
(-0.00244027 0.0061323 0.00378004)
(-0.0018918 0.00771578 0.00270687)
(-0.000178461 0.0104254 0.00178825)
(0.00260957 0.0159015 0.00169127)
(0.00375316 0.0210767 0.00338507)
(0.00855298 0.0191659 0.00675625)
(0.0420587 0.00842457 0.0139112)
(0.0916187 -0.00306307 0.00643353)
(0.119879 0.0479548 -0.0218191)
(0.121673 0.118752 -0.0050904)
(0.122091 0.142717 0.02572)
(0.121942 0.13942 0.0504315)
(0.127287 0.110923 0.0596056)
(0.102473 0.0064691 0.0624076)
(-0.06382 0.0496946 0.0760837)
(-0.0185299 -0.21715 0.101528)
(-0.182104 0.268678 -0.0373032)
(0.0486373 -0.114546 -0.0063628)
(0.149881 -0.144857 0.0342076)
(0.0472568 0.171025 -0.0141614)
(0.0487804 0.0653614 -0.00799398)
(0.0302446 0.14057 -0.00632141)
(0.0403773 0.138285 0.00713655)
(0.0364806 0.132635 0.0159503)
(0.0419317 0.121515 0.0175996)
(0.0403209 0.114729 0.0180607)
(0.0426231 0.109922 0.0250279)
(0.0404878 0.102779 0.0271623)
(0.0425154 0.0950315 0.0336761)
(0.0419283 0.083391 0.0398989)
(0.0429537 0.0682473 0.0457278)
(0.0414666 0.0484187 0.0502392)
(0.0314275 0.0254411 0.0497949)
(0.0131399 0.00193274 0.0453869)
(-0.00632544 -0.0117349 0.0248611)
(-0.0303669 -0.00479955 -0.0313155)
(-0.0338589 0.0204557 -0.0357877)
(-0.0210592 0.036853 -0.00854082)
(-0.00983718 0.0239182 0.0368486)
(-0.0163666 0.0139091 0.0696222)
(-0.038163 0.0110028 0.0783258)
(-0.0571611 -0.00377113 0.0653299)
(-0.0536231 -0.0263605 0.0340153)
(-0.0328655 -0.0291569 0.0158025)
(-0.0131204 -0.0450481 0.000856841)
(0.0203024 -0.0490016 -0.0288398)
(0.032683 -0.0535474 -0.0175047)
(0.0267658 -0.0639708 -0.00136007)
(0.0133476 -0.0755067 0.000327349)
(-0.0117016 -0.0894075 -0.00503006)
(-0.0338617 -0.0839121 -0.00295976)
(-0.0490045 -0.0741349 -0.00211674)
(-0.0528739 -0.0474102 -0.000210129)
(-0.0281738 -0.0276672 -0.00899881)
(0.0268927 0.0215239 0.00413404)
(0.0324956 0.0195708 0.0057106)
(0.0215934 0.0114048 0.00165497)
(0.0218861 0.0129696 0.00134632)
(0.0100864 0.00450375 0.000547688)
(0.0058943 0.00588682 0.000702571)
(0.000375439 0.000583172 0.00286655)
(0.000256067 0.00337253 0.00321187)
(-0.000969055 0.00167045 0.00358762)
(-0.0013587 0.00247293 0.00406614)
(-0.00237397 0.00175529 0.00428278)
(-0.00234792 0.00238326 0.00470553)
(-0.00241247 0.0026352 0.00489965)
(-0.00186547 0.00327513 0.0051229)
(-0.00151876 0.00330828 0.00509042)
(-0.00119706 0.00324455 0.00513881)
(-0.00110841 0.00284934 0.00514495)
(-0.00115714 0.00250554 0.00518098)
(-0.00125368 0.0021242 0.00517941)
(-0.00136633 0.00178304 0.00516168)
(-0.00149734 0.00143557 0.00512845)
(-0.00164618 0.00110123 0.00509644)
(-0.00180129 0.000799968 0.0050754)
(-0.00197098 0.000555028 0.00506442)
(-0.00215592 0.000373226 0.00506075)
(-0.00232676 0.000254452 0.00506545)
(-0.00247873 0.000183998 0.00507558)
(-0.00261372 0.000148584 0.00508723)
(-0.00274839 0.000142688 0.00509881)
(-0.00290039 0.000160236 0.00511737)
(-0.00306534 0.00019502 0.00514246)
(-0.00323234 0.000248375 0.00516489)
(-0.00339278 0.000325742 0.00517599)
(-0.00354261 0.000433084 0.00516841)
(-0.00368422 0.000585043 0.00513984)
(-0.00383091 0.000816979 0.00508485)
(-0.00399573 0.00118863 0.00499893)
(-0.00417704 0.00175707 0.00486891)
(-0.00436904 0.00256733 0.00464715)
(-0.00451177 0.00359409 0.00432508)
(-0.00448224 0.00477518 0.00389377)
(-0.0042142 0.0056995 0.00324869)
(-0.00379323 0.00622667 0.00238691)
(-0.00330806 0.00649218 0.00125399)
(-0.00218144 0.00772316 2.1426e-05)
(-0.000934204 0.0109932 -0.00114821)
(0.00226817 0.0164517 0.00161526)
(0.0125221 0.0157437 0.00793825)
(0.037689 0.00751405 0.0150245)
(0.0655468 0.0595243 -0.00593795)
(0.0925699 0.142694 -0.0206371)
(0.115203 0.211683 0.0252525)
(0.113521 0.236228 0.0440716)
(0.1088 0.226161 0.0634582)
(0.0903021 0.184309 0.0679807)
(0.0694895 0.151076 0.0895257)
(0.0817572 0.225042 0.150531)
(0.0990849 -0.263479 0.183897)
(-0.070933 0.307979 0.0165857)
(0.0270717 -0.131374 -0.0032739)
(0.121826 -0.12761 0.0204828)
(0.0433592 0.162532 -0.0175733)
(0.0436531 0.0872427 -0.00906425)
(0.0337617 0.163044 -0.00614054)
(0.0411376 0.16652 0.015354)
(0.0390375 0.160142 0.0263936)
(0.0390323 0.157548 0.0315252)
(0.033387 0.151492 0.0343397)
(0.0295415 0.150074 0.0382089)
(0.0226669 0.143017 0.0415594)
(0.0188869 0.136043 0.0410213)
(0.0156908 0.12735 0.0435709)
(0.0165281 0.112036 0.047394)
(0.0156546 0.0924712 0.0477656)
(0.0105308 0.072154 0.0426058)
(-0.00678411 0.0494517 0.025854)
(-0.0279626 0.0321787 0.00039475)
(-0.0371236 0.027371 -0.0168371)
(-0.0384971 0.0353346 -0.00633315)
(-0.0299324 0.0388087 0.0406)
(-0.0437655 0.0326156 0.0670616)
(-0.0681029 0.0314601 0.0707542)
(-0.0844568 0.0271898 0.0575946)
(-0.0789545 0.013442 0.0376381)
(-0.0599857 -0.00559762 0.0219195)
(-0.012125 -0.013992 0.0083181)
(0.0312032 -0.0066446 -0.0452927)
(0.0581028 0.0141425 -0.0246181)
(0.0438446 0.00358433 0.0148568)
(0.0299868 -0.027259 0.0335662)
(0.00541129 -0.0470216 0.0294453)
(-0.00997355 -0.0567493 0.00589924)
(-0.0344161 -0.0545735 0.000717986)
(-0.0563022 -0.0575045 -0.000289601)
(-0.0674294 -0.039838 0.00170831)
(-0.0565105 -0.0248577 -0.005079)
(0.0255752 0.0208921 0.00451191)
(0.034046 0.0230593 0.00756552)
(0.0225908 0.0120233 0.00250911)
(0.0242133 0.0148606 0.002274)
(0.0138413 0.00475416 -0.000808518)
(0.00960957 0.007416 -0.000946843)
(0.0011734 -0.000500572 0.00144092)
(-0.000978103 0.00319429 0.00212531)
(-0.00172517 0.000578586 0.00257981)
(-0.00233638 0.00179944 0.0033521)
(-0.00333107 0.00073067 0.00357642)
(-0.00342494 0.00160617 0.00413077)
(-0.00356169 0.00195217 0.00433368)
(-0.00282086 0.00284226 0.00476185)
(-0.00223703 0.00285568 0.00494903)
(-0.00182304 0.00277437 0.00517637)
(-0.00174749 0.00236238 0.00527168)
(-0.0019013 0.00209591 0.00531958)
(-0.00207349 0.00185248 0.00529331)
(-0.00223314 0.00167113 0.00522443)
(-0.00239331 0.00147228 0.00511471)
(-0.00256546 0.0012506 0.00498534)
(-0.00275809 0.00102374 0.00486018)
(-0.00294965 0.000818708 0.00474727)
(-0.00312647 0.00066163 0.00464756)
(-0.00328006 0.000557549 0.00455327)
(-0.00340281 0.000486758 0.00446804)
(-0.00351418 0.000437785 0.00439318)
(-0.00363315 0.000402512 0.0043359)
(-0.00376282 0.000389908 0.00430153)
(-0.00390038 0.000410969 0.00428401)
(-0.00403772 0.000471085 0.00426707)
(-0.00417323 0.000574462 0.00423652)
(-0.00430822 0.000720334 0.00418009)
(-0.00445985 0.000918725 0.00409551)
(-0.00464887 0.00120129 0.00397533)
(-0.00490032 0.00161714 0.0038103)
(-0.00520561 0.00221095 0.0035745)
(-0.00547406 0.00299079 0.00324087)
(-0.00553734 0.00383461 0.00284684)
(-0.00516043 0.00460678 0.00244855)
(-0.00414512 0.00498187 0.00203738)
(-0.00295582 0.00481406 0.00134379)
(-0.00213678 0.0040192 0.000266546)
(-0.00164756 0.00430004 -0.000975394)
(-0.00142876 0.00749232 -0.00155661)
(0.00248188 0.0117708 0.00259415)
(0.0136043 0.0137906 0.0114828)
(0.0107347 0.0117591 0.0191938)
(0.0239015 0.0844582 -0.000282417)
(0.0599819 0.163616 -0.00763472)
(0.0917982 0.229639 0.0364504)
(0.112253 0.256983 0.0669807)
(0.135598 0.254474 0.0713731)
(0.148263 0.231718 0.0635892)
(0.14926 0.188689 0.0835649)
(0.174942 0.18126 0.104471)
(0.0997443 -0.014888 0.0715314)
(-0.0950431 0.37312 -0.0351026)
(0.00989815 -0.131256 0.0290655)
(0.0954131 -0.134948 0.0256616)
(0.00821198 0.168968 -0.0136992)
(0.0194282 0.121245 -0.00547582)
(0.0141022 0.18066 -0.00110655)
(0.0155839 0.18059 0.0260372)
(0.015531 0.170655 0.0369121)
(0.0133485 0.164276 0.0398318)
(0.00894603 0.158155 0.0401443)
(0.00659539 0.154485 0.0389989)
(0.00112104 0.150464 0.0418571)
(-0.00195318 0.145002 0.0424403)
(-0.00198685 0.139021 0.047452)
(0.00269181 0.127323 0.0499224)
(0.00770417 0.112819 0.0526717)
(0.00886736 0.096627 0.0472799)
(-0.00298962 0.0846294 0.0367362)
(-0.0261328 0.0746671 0.0192719)
(-0.0439974 0.0725479 0.0144485)
(-0.0575954 0.0763342 0.0282211)
(-0.0676525 0.0773651 0.050804)
(-0.0796427 0.071717 0.063093)
(-0.08834 0.065202 0.0622144)
(-0.0817773 0.0529676 0.0470237)
(-0.0561383 0.0375353 0.0192888)
(-0.0268023 0.0378104 -0.0367983)
(-0.00642726 0.0543403 -0.0592752)
(0.0273964 0.0734322 -0.0301871)
(0.0426577 0.066664 -0.0106969)
(0.0454056 0.0467251 -0.00642226)
(0.0235319 0.0219537 0.00230287)
(-0.0219933 -0.0133919 -0.0181904)
(-0.0370384 -0.0111084 -0.0184326)
(-0.0285347 -0.00368219 0.00166483)
(-0.0442257 -0.0165399 0.0091107)
(-0.0727941 -0.0152769 0.00300006)
(-0.0698911 -0.0145435 -0.00470437)
(0.0217782 0.0185735 0.00571254)
(0.033999 0.0261808 0.0102464)
(0.0220445 0.0118348 0.0043139)
(0.0251143 0.0167832 0.00418274)
(0.0163072 0.00290197 7.17193e-05)
(0.012321 0.00685728 -0.000630361)
(0.0016056 -0.00171796 0.0007808)
(-0.00186937 0.00329515 0.00162462)
(-0.00306417 3.25481e-05 0.00183999)
(-0.00368202 0.00151048 0.00266691)
(-0.00512169 0.00017128 0.0026824)
(-0.00585278 0.00117475 0.00346206)
(-0.00631776 0.00129917 0.00380959)
(-0.00533415 0.0021889 0.00471481)
(-0.00452508 0.00208731 0.00533517)
(-0.00405292 0.00207844 0.00586939)
(-0.00412971 0.0017621 0.00607419)
(-0.00455491 0.0016284 0.00609149)
(-0.00495025 0.00153665 0.00597893)
(-0.00523613 0.00153227 0.00581535)
(-0.00542283 0.00152737 0.00560456)
(-0.00555609 0.00150558 0.00537485)
(-0.00568278 0.00145135 0.005147)
(-0.00581195 0.00138387 0.00494738)
(-0.00597134 0.00133408 0.00479212)
(-0.00606486 0.00131306 0.00465209)
(-0.00611206 0.0012895 0.0045366)
(-0.00612171 0.00125309 0.00445897)
(-0.00614296 0.00120241 0.00441801)
(-0.00621084 0.00116289 0.00440799)
(-0.00631458 0.00116603 0.00441889)
(-0.00642901 0.00122435 0.00442854)
(-0.00654384 0.00134409 0.00441876)
(-0.00664094 0.00151182 0.0043784)
(-0.00674912 0.00171788 0.00430662)
(-0.0068921 0.00197642 0.00419558)
(-0.00708674 0.00230327 0.00403584)
(-0.00730814 0.00268961 0.00380759)
(-0.00743171 0.00310516 0.00350376)
(-0.0072699 0.00340637 0.00315013)
(-0.00662994 0.00352061 0.00276567)
(-0.00537523 0.00335307 0.00230437)
(-0.00393822 0.00283763 0.00145861)
(-0.00318506 0.00236768 0.000225551)
(-0.00423645 0.0032599 -0.00129776)
(-0.00543532 0.00795368 -0.00122327)
(-0.00106947 0.0153142 0.0050314)
(0.00540525 0.0201358 0.0143113)
(-0.0188427 0.0180704 0.0259881)
(-0.0321639 0.0579538 -0.000861659)
(0.0294379 0.164075 -0.00710285)
(0.0707189 0.213556 0.0544803)
(0.0777679 0.234541 0.0852932)
(0.115568 0.239147 0.0860541)
(0.141723 0.241156 0.0627694)
(0.1592 0.230127 0.0651138)
(0.161031 0.21988 0.0519879)
(0.133659 0.121009 0.0793834)
(0.0719701 0.31924 0.0557015)
(-0.00404595 -0.126374 0.0410211)
(0.103353 -0.12284 0.0393236)
(-0.0217751 0.173441 -0.00904326)
(0.00362605 0.150681 -0.00759872)
(0.00738563 0.20744 0.00431863)
(0.00998443 0.20714 0.0301149)
(0.00444226 0.193699 0.0401059)
(-0.0021522 0.182977 0.0367889)
(-0.00690474 0.175946 0.0413391)
(-0.0107797 0.169318 0.0374685)
(-0.0173166 0.165874 0.0396728)
(-0.0216853 0.159898 0.0389312)
(-0.0240056 0.155109 0.045976)
(-0.023002 0.147135 0.049827)
(-0.0202607 0.139454 0.0549948)
(-0.0213771 0.129215 0.0507376)
(-0.0296197 0.117733 0.0359259)
(-0.0470831 0.101762 0.0206448)
(-0.0615593 0.101459 0.0195778)
(-0.0701374 0.0969214 0.0347963)
(-0.0741988 0.0935859 0.0468249)
(-0.0769413 0.0918708 0.047742)
(-0.0803509 0.0866215 0.032989)
(-0.0697706 0.0842817 -0.00337092)
(-0.0483077 0.102211 -0.0288538)
(-0.0122752 0.116997 -0.014998)
(0.0222941 0.105117 -0.00477548)
(0.0462323 0.111738 -0.0098741)
(0.0583099 0.114862 -0.00988106)
(0.0611666 0.116817 -0.0108939)
(0.0541844 0.102785 -0.00686696)
(0.0219275 0.0609433 -0.00706193)
(-0.00848093 0.0187089 0.00254891)
(-0.0191282 0.014666 0.0303414)
(-0.0361282 -0.00355437 0.0288404)
(-0.0682224 -0.00526446 0.0172474)
(-0.0849016 -0.00622017 0.00105945)
(0.0185973 0.0124157 0.00589848)
(0.0330522 0.0289077 0.0105532)
(0.0196913 0.0117123 0.00432496)
(0.0254638 0.019793 0.00354526)
(0.0183386 0.00284478 6.49973e-05)
(0.0129416 0.00609334 -0.000530533)
(0.00130401 -0.00281475 0.00135568)
(-0.00387713 0.00343474 0.0014917)
(-0.00346777 -0.000904582 0.0029262)
(-0.00424449 0.00197369 0.00337403)
(-0.00524683 0.000167955 0.00321063)
(-0.00578931 0.00116488 0.00412779)
(-0.00608073 0.000427618 0.00465531)
(-0.00492282 0.000832141 0.00587867)
(-0.00418405 0.000427036 0.00679366)
(-0.00380852 0.000731541 0.0076618)
(-0.0039402 0.000852015 0.00808971)
(-0.0043183 0.00117022 0.00820327)
(-0.00466324 0.00138052 0.00811686)
(-0.00490556 0.00163525 0.00793647)
(-0.00507931 0.0018585 0.00768023)
(-0.0052072 0.00201806 0.00739003)
(-0.00531841 0.00210039 0.00711344)
(-0.00542566 0.0021362 0.00686277)
(-0.00553519 0.00212846 0.0066413)
(-0.00560447 0.00209642 0.00645584)
(-0.00561747 0.00205606 0.0063111)
(-0.00559222 0.00200144 0.00621227)
(-0.0055794 0.00192596 0.00615096)
(-0.00562283 0.00186662 0.00611827)
(-0.00571529 0.0018726 0.00609953)
(-0.00583078 0.00194127 0.00606534)
(-0.00595877 0.00207389 0.006)
(-0.00606177 0.00224847 0.00590116)
(-0.00618487 0.00244622 0.00576628)
(-0.00634798 0.00266624 0.00559889)
(-0.00655409 0.00288668 0.00539312)
(-0.00674192 0.00304801 0.00513831)
(-0.00676739 0.00312031 0.00483721)
(-0.00644617 0.00301026 0.00455533)
(-0.0056582 0.00265971 0.00435542)
(-0.0042262 0.00201293 0.00424896)
(-0.00265124 0.00116273 0.00387465)
(-0.00218671 0.00045048 0.00268493)
(-0.00442301 0.00119996 0.00129085)
(-0.00807355 0.00374357 0.000782522)
(-0.00598374 0.0112667 0.0055455)
(0.00267562 0.0177057 0.0133357)
(-0.0137564 0.0193629 0.0196093)
(-0.0668351 -0.0115247 0.0182079)
(-0.0390485 0.0685569 0.010329)
(0.0403251 0.160823 0.0589677)
(0.0722036 0.178483 0.0911435)
(0.113723 0.173456 0.0851111)
(0.155738 0.198855 0.0546439)
(0.18008 0.222618 0.0621562)
(0.180783 0.244746 0.0403868)
(0.188103 0.17609 0.114021)
(0.169862 0.440764 0.188242)
(-0.0219048 -0.200722 0.0140243)
(-0.0193689 0.0560002 0.00937866)
(-0.0792557 0.209335 -0.0116214)
(-0.0318311 0.241706 -0.000119272)
(-0.0233185 0.264173 0.00864077)
(-0.00914727 0.259469 0.0227868)
(-0.00729053 0.246249 0.0273103)
(-0.00974397 0.236729 0.0234593)
(-0.0138723 0.228955 0.0264173)
(-0.0229752 0.220765 0.0263081)
(-0.026405 0.213385 0.0288458)
(-0.0337583 0.21053 0.0313311)
(-0.0370088 0.206752 0.0348205)
(-0.0373644 0.201873 0.0382243)
(-0.031804 0.196198 0.0446894)
(-0.0265587 0.187811 0.0468405)
(-0.0258965 0.179229 0.0451519)
(-0.0350817 0.16281 0.0421345)
(-0.0483762 0.150391 0.0381066)
(-0.0613347 0.14337 0.0351588)
(-0.0691397 0.139769 0.0251282)
(-0.0709866 0.156871 0.00397967)
(-0.0597283 0.159592 -0.00836193)
(-0.0380431 0.156024 -0.00998459)
(-0.0112116 0.143786 0.00362057)
(0.0172963 0.124704 0.0143138)
(0.0306657 0.112396 0.0116294)
(0.0482642 0.1168 0.018275)
(0.0566179 0.134736 0.0178964)
(0.0611445 0.153833 0.0176225)
(0.0534857 0.16349 0.0195838)
(0.0296049 0.159139 0.0232783)
(0.00417312 0.139145 0.0437893)
(-0.0147997 0.104847 0.0429355)
(-0.0324368 0.0786423 0.032902)
(-0.0682536 0.0438324 0.0117101)
(-0.0834924 0.0134821 -0.0118569)
(0.00842646 0.00628349 0.00101889)
(0.0316921 0.0310451 0.00905466)
(0.0174065 0.0117705 0.00293237)
(0.0255839 0.0238502 0.00121819)
(0.0208861 0.00548373 -0.00133756)
(0.0143583 0.00656196 -0.00214184)
(-0.000532254 -0.00413193 -0.00412013)
(-0.004665 0.00352498 -0.0029607)
(-0.00668125 -0.00160888 -8.61206e-05)
(-0.0072215 0.0026223 0.000420888)
(-0.0077087 0.000104237 0.000393092)
(-0.00824796 0.00105705 0.00124061)
(-0.00856075 -0.000311687 0.00183572)
(-0.00795617 -0.000102592 0.0027964)
(-0.00776532 -0.00047494 0.00354693)
(-0.00784285 3.15407e-05 0.00433809)
(-0.00821994 0.000389814 0.00496154)
(-0.00867842 0.000916803 0.00534742)
(-0.00910034 0.00128607 0.00550394)
(-0.00942571 0.00166946 0.00550637)
(-0.00954591 0.00197827 0.00538045)
(-0.00949892 0.00221181 0.00520697)
(-0.00943423 0.00236573 0.00503931)
(-0.00936873 0.00245673 0.00488568)
(-0.00930434 0.00248773 0.00474465)
(-0.00921246 0.00247584 0.00461758)
(-0.00908837 0.00244444 0.00450915)
(-0.00895301 0.0024087 0.00442149)
(-0.00885816 0.00236605 0.00435825)
(-0.00889019 0.002333 0.00431193)
(-0.00899971 0.00235012 0.00427684)
(-0.00911128 0.00241134 0.0042283)
(-0.0092106 0.00251906 0.00415154)
(-0.00924632 0.0026505 0.00404374)
(-0.00926944 0.00278897 0.00391366)
(-0.00929017 0.00293085 0.00377159)
(-0.00927381 0.00307492 0.00362447)
(-0.00921074 0.00319764 0.00343843)
(-0.00910237 0.00314232 0.00318843)
(-0.00866906 0.00273303 0.00295921)
(-0.00780045 0.00207394 0.00279448)
(-0.00644308 0.00121179 0.0026427)
(-0.00529594 0.000639853 0.00221817)
(-0.00524115 0.000478855 0.000865082)
(-0.00795889 0.00191299 -0.00083381)
(-0.0126277 0.00457691 -0.00193635)
(-0.01285 0.0102804 0.00146016)
(-0.00410263 0.012913 0.00902715)
(0.000535405 0.0169269 0.0158815)
(-0.0528403 -0.0253398 0.0227763)
(-0.103843 -0.0302771 0.0215567)
(-0.0467372 0.0148991 0.0309907)
(0.0298372 0.0794455 0.0540793)
(0.0655157 0.0633153 0.0520461)
(0.0861259 0.0860532 0.018535)
(0.130166 0.095889 0.0135292)
(0.142678 0.192451 0.0119808)
(0.237124 0.142919 0.0930874)
(0.296604 0.495237 0.152985)
(-0.0618616 -0.205242 0.000717955)
(-0.115678 0.0632497 -0.0356235)
(-0.071264 0.209373 -0.0261223)
(-0.0278323 0.225454 -0.0236735)
(-0.014158 0.249846 -0.0188075)
(-0.00304336 0.247966 -0.0154823)
(0.000797519 0.237372 -0.0129104)
(-0.0058466 0.230465 -0.000616216)
(-0.0138152 0.217446 0.0076696)
(-0.017436 0.211225 0.0130803)
(-0.0253748 0.206215 0.0211436)
(-0.042096 0.199868 0.020933)
(-0.0471254 0.192617 0.0195331)
(-0.0482819 0.189243 0.0179359)
(-0.0454249 0.182154 0.0216464)
(-0.0420883 0.175291 0.0288051)
(-0.0414104 0.172351 0.0325582)
(-0.0476659 0.165313 0.0324156)
(-0.0567728 0.158715 0.0248516)
(-0.0696233 0.157233 0.0125186)
(-0.0777062 0.154969 0.00191451)
(-0.0770849 0.152684 -0.0039245)
(-0.0603833 0.141578 -0.00216566)
(-0.0328353 0.108804 0.00676115)