/*--------------------------------*- C++ -*----------------------------------*\
| =========                 |                                                 |
| \\      /  F ield         | OpenFOAM: The Open Source CFD Toolbox           |
|  \\    /   O peration     | Version:  2.3.0                                 |
|   \\  /    A nd           | Web:      www.OpenFOAM.org                      |
|    \\/     M anipulation  |                                                 |
\*---------------------------------------------------------------------------*/
FoamFile
{
    version     2.0;
    format      ascii;
    class       volVectorField;
    location    "40";
    object      U;
}
// * * * * * * * * * * * * * * * * * * * * * * * * * * * * * * * * * * * * * //

dimensions      [0 1 -1 0 0 0 0];

internalField   nonuniform List<vector> 
6144
(
(0.0109931 0.0193786 0.000893026)
(0.0113168 -0.00768371 -0.000643022)
(0.00424876 -0.00849229 -0.00228215)
(0.00311408 -0.00811735 -0.00251342)
(0.00202997 -0.00599773 -0.0024533)
(0.00278824 -0.00253985 -0.00247042)
(0.00296925 -0.00102081 -0.00205125)
(0.0027122 0.000161906 -0.00134888)
(0.00189823 0.000590908 -0.000843165)
(0.00132303 0.00272085 -5.87372e-05)
(0.00098407 0.00443054 0.000672284)
(0.00104405 0.00535921 0.00138865)
(0.0012758 0.00521609 0.00188701)
(0.00144989 0.00431834 0.00224342)
(0.0015911 0.00314909 0.00207674)
(0.00172861 0.00204782 0.00180222)
(0.00182923 0.00107494 0.00140485)
(0.00192864 0.000351725 0.00105926)
(0.00201094 -0.000190347 0.000722949)
(0.00207177 -0.000470713 0.000428263)
(0.00212162 -0.000593824 0.000212644)
(0.00214719 -0.000592085 9.82985e-05)
(0.00215044 -0.000526432 5.63868e-05)
(0.00213254 -0.00042523 6.92528e-05)
(0.00209733 -0.000311947 0.000129784)
(0.00205029 -0.000207199 0.000229526)
(0.00199246 -0.000127885 0.000382276)
(0.00193332 -7.94709e-05 0.000545135)
(0.00188033 -7.17076e-05 0.000685073)
(0.00182771 -9.71498e-05 0.000802132)
(0.00177714 -0.000127312 0.000894685)
(0.00173024 -0.000148514 0.000972808)
(0.00168748 -0.000154247 0.00104474)
(0.00164758 -0.000156356 0.0011118)
(0.00160706 -0.000126115 0.00118108)
(0.00156657 -0.000122631 0.0012493)
(0.00152314 -2.60249e-05 0.00135856)
(0.00147112 -0.000110752 0.0014465)
(0.00142638 7.12483e-05 0.00161795)
(0.00135621 -0.00025145 0.00170434)
(0.00130372 0.000111639 0.00190101)
(0.00119815 -0.000585013 0.0019632)
(0.00114848 0.00015663 0.00208862)
(0.00100362 -0.00096058 0.00204994)
(0.000872333 0.000647068 0.00185843)
(0.00069852 -3.2305e-05 0.00154573)
(0.000345026 0.00346809 0.000819995)
(0.000245714 0.00477387 0.000607015)
(-4.0945e-05 0.00999893 -0.000107449)
(0.00153985 0.0124755 -0.00108859)
(0.00408636 0.0173394 -0.00180413)
(0.00767327 0.0109572 -0.00346049)
(0.0145386 0.0227023 -0.0074287)
(0.013099 -0.000812765 -0.00699709)
(0.00358366 0.0265352 -0.00933875)
(0.00266792 -0.0115627 -0.00557412)
(0.0206667 0.083682 0.0179831)
(-0.000484642 -0.074417 0.00275967)
(-0.0587226 0.128154 -0.130325)
(-0.00807068 0.00242515 -0.0978745)
(0.0718792 -0.198406 0.00468578)
(0.0548203 -0.0455163 -0.00315962)
(0.0281652 -0.136847 -0.0180373)
(0.0253025 -0.135738 -0.0150047)
(0.0187026 -0.132237 -0.00797514)
(0.00924127 -0.129281 -0.0067029)
(0.00109672 -0.117739 -0.0055018)
(-0.00504086 -0.0934854 -0.00462731)
(-0.0101347 -0.0663868 -0.00412123)
(-0.0135284 -0.038414 -0.0025454)
(-0.0085273 -0.0132539 -0.00534823)
(-0.00252107 0.00390776 -0.00614095)
(5.64838e-05 0.0194302 -0.00458037)
(0.00249931 0.0285352 -0.00275001)
(0.0041806 0.0322384 -0.00215713)
(0.00531851 0.0331289 -0.00157254)
(0.00581132 0.0334092 -0.00141174)
(0.00617873 0.0331089 -0.00113625)
(0.00637094 0.032021 -0.000890021)
(0.00645982 0.0297388 0.000265888)
(0.00633976 0.0265667 0.00115079)
(0.0063524 0.023059 0.00175785)
(0.00691336 0.0193784 0.00166042)
(0.00831076 0.0148768 0.000737833)
(0.0109134 0.00839886 -0.00118384)
(0.0137368 -0.00141956 -0.00343013)
(0.0171539 -0.0129876 -0.00496191)
(0.0179337 -0.0262177 -0.00544904)
(0.0165104 -0.0382614 -0.00585146)
(0.0129319 -0.0469751 -0.00509491)
(0.00874071 -0.049073 -0.00368354)
(0.00693667 -0.0464806 -0.00324395)
(0.00420657 -0.0392395 -0.00311818)
(0.00240676 -0.0309711 -0.0019643)
(-0.000326543 -0.0203569 -0.00144248)
(-0.00667984 -0.00894194 -0.000615125)
(0.0218419 0.0186432 0.00366052)
(0.022909 0.00120669 0.00318294)
(0.0104969 -0.00240763 -0.000984781)
(0.0092739 -0.00387427 -0.00121901)
(0.00541039 -0.00539627 -0.000943419)
(0.00540293 -0.00334608 -0.000315187)
(0.00422643 -0.00219617 0.00119155)
(0.00356097 -0.000175245 0.00219865)
(0.00189205 0.000918407 0.00212172)
(0.00103271 0.00408851 0.002249)
(0.00114365 0.00594821 0.00274043)
(0.00175923 0.00681913 0.00360425)
(0.00247045 0.00648385 0.00418093)
(0.00295832 0.00564011 0.00449306)
(0.00318735 0.00435572 0.00449288)
(0.00335661 0.0031433 0.0043972)
(0.00342207 0.00201812 0.00423998)
(0.00351732 0.00115992 0.0041151)
(0.00357417 0.000459152 0.00400889)
(0.00361185 2.36636e-05 0.00391285)
(0.00366222 -0.000227867 0.0037831)
(0.00367095 -0.000333932 0.00372347)
(0.0036396 -0.000349837 0.0037255)
(0.00357253 -0.000310004 0.00377677)
(0.00347651 -0.000241605 0.00386777)
(0.00336162 -0.000167769 0.00398881)
(0.00323523 -0.000105411 0.00412871)
(0.00311537 -6.37257e-05 0.00425265)
(0.00302123 -5.24331e-05 0.00432815)
(0.00292709 -6.36638e-05 0.0043964)
(0.00282926 -6.70796e-05 0.00445969)
(0.00273552 -6.07374e-05 0.00452118)
(0.0026502 -4.38503e-05 0.00458165)
(0.00256632 -3.3541e-05 0.00463966)
(0.00248273 3.10781e-06 0.00469983)
(0.00238569 -4.69677e-06 0.00475219)
(0.00232161 7.93182e-05 0.00482768)
(0.00220473 -2.90177e-05 0.00486614)
(0.00218969 0.000162469 0.00497146)
(0.00202124 -0.000222604 0.00499254)
(0.00205313 0.000176224 0.00511719)
(0.00180613 -0.000666379 0.00509437)
(0.00188259 0.000216936 0.00517645)
(0.00144724 -0.00111244 0.00507865)
(0.00125462 0.000893673 0.00504895)
(0.000296774 -0.000225001 0.00485766)
(-0.000742177 0.00367338 0.00418855)
(-0.00121938 0.0036552 0.0042681)
(-0.00161399 0.00773724 0.00375876)
(0.000985408 0.00644932 0.00344632)
(0.00556378 0.0127021 0.00149952)
(0.00919222 0.00883027 -0.0022074)
(0.0143397 0.0303197 -0.00364526)
(0.0189822 0.0224094 0.00105611)
(0.0225049 0.0471931 0.00588233)
(0.0214398 -0.0351588 0.0057055)
(-0.0102864 0.0276937 -0.00350894)
(-0.0047046 -0.00656594 -0.040913)
(0.0532123 0.205813 -0.0486721)
(0.128282 0.0036285 -0.0558015)
(0.130503 -0.199145 0.0478686)
(0.0837121 -0.0204557 0.0301949)
(0.0408296 -0.116676 -0.0129843)
(0.033691 -0.0919463 0.00554546)
(0.0119327 -0.0965249 0.0128436)
(-0.00973086 -0.0975662 0.0108139)
(-0.0196951 -0.0885251 0.00768425)
(-0.0251789 -0.0681314 0.00351919)
(-0.0265157 -0.0464869 0.000408399)
(-0.0231255 -0.0241355 0.000375233)
(-0.0192827 0.00109637 -0.0045215)
(-0.012528 0.0199579 -0.00309416)
(-0.00580128 0.0351699 0.000139872)
(-0.000934682 0.0436439 0.00264386)
(0.00263027 0.0464346 0.00473675)
(0.00481409 0.0468887 0.00550153)
(0.00565404 0.0474044 0.00596499)
(0.00581891 0.0468011 0.00737211)
(0.00511959 0.0444248 0.0089098)
(0.00390538 0.041069 0.0112394)
(0.00206128 0.0360321 0.0128756)
(0.000167019 0.0303657 0.0132484)
(-0.000243133 0.0252698 0.0118428)
(0.0018764 0.0208172 0.00800596)
(0.0081363 0.0160678 0.00293521)
(0.0168028 0.00802549 -0.00109088)
(0.0243657 -0.00272982 -0.00323502)
(0.0269285 -0.0153533 -0.00397749)
(0.0240614 -0.0286049 -0.00320633)
(0.0151665 -0.0406371 -0.00181097)
(0.00616181 -0.0470752 0.00121535)
(-0.000974802 -0.0463065 0.00243857)
(-0.0042336 -0.0394026 0.00158015)
(-0.00685813 -0.0277001 0.000166181)
(-0.0106958 -0.0142457 0.000117252)
(-0.0147811 -0.00468015 0.00177906)
(0.0259176 0.0198462 0.00485253)
(0.0263887 0.00795579 0.00457393)
(0.0160304 0.00398933 0.00158966)
(0.0134247 0.00248468 0.00210743)
(0.00687626 -0.0015867 0.00302668)
(0.00505517 -0.000263562 0.00307038)
(0.00201357 -0.00108626 0.00385241)
(0.000898581 0.000582039 0.00400979)
(-0.000980761 0.000840647 0.00364856)
(-0.00150002 0.00364519 0.00354634)
(-0.000800029 0.00511761 0.00378272)
(0.000490787 0.00605265 0.0043646)
(0.00138702 0.00593927 0.00484997)
(0.00204561 0.00564616 0.00516249)
(0.00241506 0.00482017 0.00517664)
(0.00263028 0.00396243 0.00509656)
(0.0026965 0.00302934 0.0049718)
(0.002795 0.00227407 0.00489009)
(0.00283028 0.00159946 0.00483757)
(0.00280406 0.00106774 0.00482826)
(0.00273098 0.000657363 0.00484496)
(0.00264211 0.000389863 0.00488332)
(0.00253946 0.00021731 0.00493199)
(0.00242093 0.000122183 0.0049914)
(0.00229006 7.56102e-05 0.00505732)
(0.00215379 6.0042e-05 0.00512399)
(0.00201824 5.72178e-05 0.00519035)
(0.00188204 5.49209e-05 0.00525495)
(0.00173882 6.02569e-05 0.00531785)
(0.00158634 8.49833e-05 0.005378)
(0.00142946 0.000126458 0.00543837)
(0.00128574 0.000169635 0.00549954)
(0.00116095 0.000209821 0.00556094)
(0.00104089 0.000232081 0.00562063)
(0.000932395 0.000258142 0.00568223)
(0.000811409 0.000247112 0.00573856)
(0.000726968 0.000297159 0.00580213)
(0.000575997 0.000195195 0.0058401)
(0.000563932 0.000341859 0.00593147)
(0.000343244 2.44424e-06 0.00593648)
(0.000416794 0.000395932 0.0060536)
(4.41338e-05 -0.000283606 0.00599801)
(0.000136601 0.000674397 0.00609611)
(-0.000574031 -0.000259892 0.00598307)
(-0.000894341 0.00174005 0.0059255)
(-0.00201417 0.000739588 0.00582022)
(-0.00315813 0.00385828 0.00539424)
(-0.0030518 0.00219252 0.0056572)
(-0.00338306 0.00534469 0.00545502)
(-0.00174751 0.000670592 0.00572863)
(0.00240904 0.00785417 0.00255592)
(0.00525797 0.0100481 -0.00201405)
(0.0105825 0.0286061 0.000286486)
(0.0209623 -0.00770934 0.00566423)
(0.0398812 0.0129742 0.00863702)
(0.0381325 -0.0466227 0.00710885)
(-0.0243644 0.0393893 0.0108721)
(-0.0513483 -0.0817062 -0.0294376)
(-0.0132436 0.208571 -0.0670174)
(0.136985 -0.0105244 -0.0213669)
(0.158472 -0.188768 0.059419)
(0.105332 0.0193705 0.0308908)
(0.0670993 -0.100291 -0.00705482)
(0.0457235 -0.0554713 0.0146375)
(0.011369 -0.0695123 0.0158991)
(-0.0134943 -0.0699692 0.0132871)
(-0.031254 -0.0601932 0.00945955)
(-0.0402212 -0.0419035 0.00411115)
(-0.0416466 -0.0245589 0.00345027)
(-0.043469 0.000761264 -0.00205098)
(-0.0333385 0.0210105 -0.00562519)
(-0.020703 0.034552 -0.00101464)
(-0.0126905 0.0470881 0.00341713)
(-0.00743002 0.0542865 0.00726226)
(-0.003992 0.0566096 0.0104798)
(-0.00196959 0.0579605 0.0117899)
(-0.00145045 0.0584372 0.0131559)
(-0.00147877 0.057582 0.0156274)
(-0.00242055 0.0542513 0.0177887)
(-0.00405026 0.0497117 0.0203532)
(-0.0064043 0.0438595 0.0205442)
(-0.00892649 0.0384944 0.017453)
(-0.00959964 0.0339758 0.0111384)
(-0.00391811 0.029967 0.00409429)
(0.010715 0.0248696 -0.00123277)
(0.0284915 0.0186433 -0.00448381)
(0.0401625 0.00918298 -0.0061783)
(0.0444784 -0.0020935 -0.00791214)
(0.0411056 -0.0146393 -0.00958697)
(0.0250874 -0.0284801 -0.00823979)
(0.00627372 -0.0397839 -0.00181906)
(-0.00911181 -0.0455542 0.00603436)
(-0.0170002 -0.0422413 0.00825356)
(-0.0180161 -0.034692 0.0056879)
(-0.0182348 -0.0174343 0.000975199)
(-0.0257463 -0.00442131 0.00268263)
(0.0277183 0.0227128 0.00475196)
(0.0283756 0.0140558 0.00434865)
(0.0185352 0.0103027 0.000759845)
(0.0158035 0.00869859 0.00170279)
(0.00809391 0.00311736 0.00294608)
(0.00526545 0.00283706 0.0033769)
(0.00130444 0.000254006 0.00453582)
(-0.000390832 0.00119687 0.00451028)
(-0.00289583 0.000204884 0.00425667)
(-0.00357002 0.002331 0.00384566)
(-0.00251011 0.00343231 0.00404603)
(-0.000987391 0.00459652 0.00463556)
(2.28243e-05 0.00496474 0.0050685)
(0.000771109 0.00515694 0.00539001)
(0.001206 0.00474523 0.00541076)
(0.0014557 0.00419671 0.00536283)
(0.00149025 0.00341809 0.00527725)
(0.00152376 0.00275722 0.0052362)
(0.00151113 0.00214233 0.00520585)
(0.00145791 0.00163037 0.00519659)
(0.00134516 0.00117951 0.00519231)
(0.00120528 0.000825883 0.00520646)
(0.00105035 0.000551049 0.00523439)
(0.000885585 0.000356893 0.00527559)
(0.000719201 0.000229702 0.00532504)
(0.000559572 0.000160223 0.00537773)
(0.000412187 0.000133913 0.00542887)
(0.00027333 0.000137425 0.00547379)
(0.000133866 0.000160176 0.00551132)
(-1.39895e-05 0.000196575 0.0055503)
(-0.000156155 0.000239265 0.00559647)
(-0.000278891 0.000279698 0.00564769)
(-0.000384307 0.000321961 0.00569981)
(-0.000485572 0.000359002 0.0057495)
(-0.000580902 0.000401987 0.0057931)
(-0.000677921 0.000406437 0.00582654)
(-0.00074525 0.000447107 0.00586164)
(-0.000852053 0.000355934 0.0058796)
(-0.000837602 0.000469172 0.00594443)
(-0.00102791 0.000184077 0.00592898)
(-0.000930826 0.000582011 0.00602377)
(-0.00134624 5.85589e-05 0.00594461)
(-0.00127871 0.00103817 0.00599054)
(-0.00201239 0.000247267 0.0058883)
(-0.00240629 0.00200008 0.00572265)
(-0.00335285 0.0006162 0.00566117)
(-0.00434612 0.0033033 0.00493704)
(-0.00415971 0.00057054 0.00472386)
(-0.00401081 0.00441007 0.00454801)
(-0.00308558 -0.00155926 0.00430703)
(-0.00160419 0.00449957 0.000929029)
(0.00144665 0.0022666 -0.00215858)
(0.028365 0.00962254 0.0108765)
(0.0440673 -0.0363509 0.00990724)
(0.0371575 -0.0212403 0.00532661)
(0.0103653 -0.067804 0.00991781)
(-0.0272585 0.0382831 0.0222918)
(-0.0838164 -0.125612 -0.0225695)
(0.0260313 0.256761 -0.115948)
(0.161132 -0.0359383 -0.000166738)
(0.181091 -0.19671 0.0649608)
(0.111871 0.0418516 0.0236506)
(0.0777518 -0.0944376 -0.0114104)
(0.041047 -0.018251 -0.00173969)
(-0.00232118 -0.0418792 0.000147276)
(-0.0202304 -0.0234322 0.00492697)
(-0.0407826 -0.0176288 0.00633977)
(-0.050223 -0.00399946 0.00447197)
(-0.0575367 0.0124324 -0.000477378)
(-0.0511953 0.030456 -0.00709322)
(-0.035921 0.0380685 -0.00330464)
(-0.0264515 0.04884 0.00155829)
(-0.0202867 0.0577075 0.00656144)
(-0.0169108 0.0633699 0.0106242)
(-0.0148017 0.0656963 0.0142061)
(-0.0133392 0.0674221 0.015965)
(-0.0131373 0.0674221 0.0178053)
(-0.0131037 0.0660391 0.0201895)
(-0.0142021 0.0619795 0.0216563)
(-0.0166273 0.0565651 0.0216108)
(-0.0196046 0.050728 0.018347)
(-0.0201937 0.0457681 0.0138085)
(-0.0145598 0.0406343 0.00920219)
(-0.00140734 0.0334119 0.00466332)
(0.0196159 0.0260302 0.00116661)
(0.0407617 0.0197811 -0.0023169)
(0.0561351 0.0127431 -0.00501284)
(0.0646713 0.0037506 -0.00759429)
(0.0640316 -0.0069126 -0.012319)
(0.0476266 -0.0168577 -0.0160623)
(0.0166697 -0.0301287 -0.0158811)
(-0.0141098 -0.0402635 -0.00294238)
(-0.0305976 -0.0406892 0.00821344)
(-0.0367383 -0.0350971 0.00868146)
(-0.0369761 -0.0232042 0.00394994)
(-0.0336273 -0.00425178 0.00122298)
(0.0294655 0.0256075 0.00476631)
(0.0304196 0.019843 0.0038721)
(0.0219414 0.0162477 0.000727348)
(0.0211642 0.0146206 0.000408286)
(0.0117993 0.007337 5.87022e-08)
(0.00778056 0.00528114 0.00091758)
(0.00115955 0.000175638 0.00299869)
(-0.000941492 0.00151803 0.00341297)
(-0.00393668 -0.00057745 0.00391113)
(-0.00519783 0.00123611 0.00382246)
(-0.00449687 0.00211107 0.00403957)
(-0.00315185 0.00355424 0.0046633)
(-0.00221566 0.00419246 0.00498743)
(-0.00130352 0.00464212 0.00533079)
(-0.000756658 0.00446463 0.00532184)
(-0.000488908 0.00406064 0.00529708)
(-0.000549075 0.00341129 0.00523356)
(-0.000683574 0.00285253 0.00522618)
(-0.000844575 0.00232485 0.00520393)
(-0.000996262 0.00186466 0.00517623)
(-0.00116574 0.00142182 0.0051368)
(-0.00133442 0.00103407 0.00510995)
(-0.00149869 0.000709026 0.00509836)
(-0.00166595 0.000461104 0.00509885)
(-0.00183761 0.000285022 0.00510585)
(-0.00199613 0.000177165 0.0051176)
(-0.00213147 0.000123175 0.0051326)
(-0.00224667 0.000108684 0.00514624)
(-0.00236062 0.000119285 0.005155)
(-0.00248218 0.000151171 0.0051606)
(-0.0026013 0.000198144 0.00517217)
(-0.00270631 0.000245932 0.0051849)
(-0.00279531 0.000296046 0.00519824)
(-0.00287598 0.00034117 0.00521181)
(-0.00294329 0.000391398 0.00522539)
(-0.0030074 0.000408459 0.00523349)
(-0.0030483 0.000453802 0.00524666)
(-0.00312337 0.000393518 0.00524674)
(-0.00310453 0.000521621 0.00528057)
(-0.00328223 0.000339363 0.00524812)
(-0.00322177 0.000770476 0.00529405)
(-0.00362859 0.000452003 0.00519408)
(-0.00364863 0.0014161 0.00515368)
(-0.00431538 0.000833627 0.00501633)
(-0.00459045 0.00230812 0.00470542)
(-0.00534271 0.000785229 0.00433222)
(-0.00553072 0.00307435 0.00332819)
(-0.00520997 -0.000612766 0.00268314)
(-0.00431008 0.00242952 0.00242244)
(-0.00300168 -0.00395279 0.00182472)
(-0.000912441 0.00218542 -0.000365087)
(0.00822908 -0.00936813 0.0022701)
(0.0405501 -0.00836478 0.0147463)
(0.0617798 -0.041829 0.00935171)
(0.0455505 -0.0301355 0.00287954)
(0.00967857 -0.0862422 0.0113303)
(-0.0236772 -0.0192054 0.0263076)
(-0.108948 -0.157498 0.0342247)
(0.00991881 0.183804 -0.136627)
(0.144794 -0.0316948 0.0321593)
(0.181519 -0.179766 0.0779522)
(0.103962 0.0875126 0.00147063)
(0.0862359 -0.0826132 -0.00269765)
(0.0167432 0.0422581 -0.0101316)
(-0.00761849 -0.0212026 0.00167282)
(-0.034951 0.0247345 0.000188699)
(-0.053205 0.0186167 -0.000634258)
(-0.062139 0.0335361 -0.00363141)
(-0.0604802 0.0388157 -0.00840411)
(-0.0461548 0.0433157 -0.00636647)
(-0.0369022 0.0475594 -0.000715003)
(-0.031754 0.0564612 0.00363707)
(-0.028897 0.0644412 0.00826454)
(-0.0279925 0.0704274 0.0124632)
(-0.0273584 0.073722 0.0163081)
(-0.0264759 0.0758278 0.0187137)
(-0.0260139 0.0759688 0.0204883)
(-0.025185 0.0749664 0.0223111)
(-0.0244811 0.0710647 0.0222564)
(-0.0239473 0.0665441 0.0209286)
(-0.0226339 0.0607035 0.0179221)
(-0.0188167 0.0535237 0.0149172)
(-0.0105312 0.0447963 0.0115732)
(0.00531739 0.0350188 0.00847025)
(0.0242928 0.0252119 0.0040208)
(0.0451136 0.0180237 -0.000307255)
(0.0632401 0.013902 -0.00286571)
(0.0759154 0.00667558 -0.00388033)
(0.0803028 -0.00291209 -0.0083181)
(0.0706322 -0.010341 -0.0144693)
(0.0458902 -0.021775 -0.0168071)
(-0.0055468 -0.0350867 -0.0176137)
(-0.0386953 -0.0378069 0.00267)
(-0.0478461 -0.031403 0.00899789)
(-0.0490204 -0.0228839 0.00412622)
(-0.0515978 -0.00818174 0.00233037)
(0.0293485 0.0274302 0.0088224)
(0.0319278 0.0243925 0.00559093)
(0.0244409 0.0205104 0.0025368)
(0.0254171 0.0192646 0.00149343)
(0.0179977 0.0114837 -0.00124832)
(0.0139978 0.00923276 -0.000845694)
(0.00334438 0.00019198 -0.000527141)
(-0.000962449 0.00159249 0.000548346)
(-0.00474308 -0.00169364 0.00197215)
(-0.00719701 -0.000224552 0.00277866)
(-0.00643538 0.000459516 0.00325546)
(-0.00482028 0.00222079 0.00418542)
(-0.00337033 0.00316003 0.00458175)
(-0.00213757 0.00390533 0.00516885)
(-0.00134187 0.00382774 0.00535689)
(-0.000978811 0.00349998 0.00550477)
(-0.00110497 0.00288846 0.00547101)
(-0.00137323 0.00244605 0.00545165)
(-0.00163139 0.00208376 0.00539283)
(-0.001852 0.0018064 0.00530763)
(-0.00207014 0.00151885 0.00518435)
(-0.00228549 0.00123582 0.00506028)
(-0.00250441 0.000975134 0.00494525)
(-0.0027031 0.00075392 0.00484349)
(-0.00287984 0.000592126 0.00475147)
(-0.00302307 0.000493896 0.00466323)
(-0.00313402 0.000440724 0.00457931)
(-0.00322334 0.000417042 0.00450167)
(-0.00331443 0.000405149 0.00443733)
(-0.00342197 0.000406448 0.00438759)
(-0.00351748 0.000428247 0.00435612)
(-0.00359368 0.000463067 0.00433475)
(-0.00365222 0.000511132 0.00431939)
(-0.00370257 0.000562729 0.0043081)
(-0.00373773 0.00062665 0.00429809)
(-0.00376734 0.00066298 0.00428406)
(-0.00377534 0.000727087 0.00427611)
(-0.00381348 0.000714312 0.00426031)
(-0.00378286 0.000874425 0.00426998)
(-0.00393903 0.000787718 0.00422364)
(-0.00394874 0.001262 0.00421141)
(-0.00436299 0.00111313 0.00403853)
(-0.00450286 0.00204044 0.00387614)
(-0.00489593 0.00154634 0.00363029)
(-0.00485319 0.00282515 0.00325784)
(-0.00493144 0.00130441 0.00302154)
(-0.00417463 0.00325816 0.00211912)
(-0.00341003 -0.00050053 0.00172121)
(-0.00173058 0.00152756 0.00167089)
(-0.00188314 -0.0056483 0.000927622)
(0.00386031 0.000109754 0.00205039)
(0.0176884 -0.0164185 0.00792946)
(0.048028 -0.00453837 0.0297429)
(0.0683531 -0.0162999 0.0266113)
(0.064998 0.00891219 0.0304611)
(0.00781239 -0.0605218 0.0418468)
(-0.0528192 -0.00657544 0.0593691)
(-0.161912 -0.115854 0.0627459)
(0.0118191 0.168251 -0.153185)
(0.128359 -0.0406931 0.0486125)
(0.169237 -0.156937 0.0845733)
(0.0867105 0.0953726 -0.0172677)
(0.0681254 0.00581011 -0.00248023)
(0.00643521 0.0669983 -0.00700942)
(-0.00528473 0.0407389 -0.00578103)
(-0.0370815 0.0573858 -0.00816643)
(-0.0468351 0.0537598 -0.00804781)
(-0.0511998 0.0580057 -0.00744414)
(-0.0462683 0.0600892 -0.00522618)
(-0.0410655 0.064796 0.000269752)
(-0.0394108 0.0722824 0.00500555)
(-0.0383776 0.0824082 0.00779752)
(-0.0381168 0.0902699 0.010919)
(-0.0381227 0.0952996 0.0150294)
(-0.0386223 0.0969743 0.0181265)
(-0.037062 0.0967438 0.0201941)
(-0.0352988 0.0931495 0.0207375)
(-0.0326238 0.0884973 0.021243)
(-0.0294945 0.0809822 0.0200917)
(-0.0258845 0.0734175 0.0182132)
(-0.0208328 0.0640367 0.0161176)
(-0.0140163 0.0539611 0.012943)
(-0.00298219 0.0426312 0.00869654)
(0.0132234 0.031774 0.00490413)
(0.0319238 0.0218289 0.00167293)
(0.0515932 0.0156269 -0.000577883)
(0.0704449 0.0138544 -0.00229519)
(0.0847325 0.00971876 -0.00266284)
(0.0908872 0.00232511 -0.00683377)
(0.0837067 -0.00500252 -0.0125539)
(0.0630792 -0.0149201 -0.0137992)
(0.015901 -0.0276116 -0.0219244)
(-0.042437 -0.0335264 -0.0113978)
(-0.0625384 -0.0281654 0.00543995)
(-0.063147 -0.0198899 0.00403591)
(-0.0590016 -0.00536944 -0.00315476)
(0.0266708 0.0285486 0.0107016)
(0.0305937 0.028086 0.00887629)
(0.0236645 0.0230639 0.00506102)
(0.0255429 0.0218596 0.00518432)
(0.0210408 0.0133618 0.000971292)
(0.0192395 0.012301 0.00105603)
(0.0077966 0.00118687 -0.00249699)
(0.000513451 0.00189844 -0.00158217)
(-0.00391657 -0.00221101 8.00633e-05)
(-0.00750389 -0.00115261 0.0017339)
(-0.00783325 -0.000988607 0.00243012)
(-0.00698421 0.0012641 0.00371801)
(-0.00604914 0.00237397 0.00427527)
(-0.00453646 0.00298812 0.0052722)
(-0.00353731 0.00293521 0.0058845)
(-0.00313872 0.00274271 0.00632257)
(-0.00342411 0.00227452 0.00637672)
(-0.00402425 0.0019655 0.0062738)
(-0.0045389 0.00175874 0.00609075)
(-0.0048891 0.00167316 0.00588655)
(-0.00511537 0.00159272 0.0056393)
(-0.00529732 0.00151223 0.00540137)
(-0.00544186 0.00142334 0.00518203)
(-0.00557894 0.00133834 0.00500025)
(-0.00572495 0.00128696 0.00486661)
(-0.00582214 0.00125761 0.00472808)
(-0.00586808 0.00123593 0.00460358)
(-0.00586456 0.00121453 0.00451296)
(-0.00586645 0.00118103 0.00445638)
(-0.0059032 0.00115237 0.00442514)
(-0.00594857 0.00114801 0.00441477)
(-0.0059828 0.00116016 0.00441397)
(-0.00600373 0.00119048 0.00441929)
(-0.0060181 0.0012362 0.00442707)
(-0.00600748 0.00130651 0.00443672)
(-0.00597874 0.0013662 0.0044476)
(-0.0059541 0.00145395 0.00445345)
(-0.00594986 0.0015088 0.00445051)
(-0.00594542 0.00170788 0.00444916)
(-0.00605904 0.00172688 0.00442436)
(-0.00619246 0.00221541 0.00437364)
(-0.0064098 0.00211568 0.00421428)
(-0.00654643 0.00286051 0.00399439)
(-0.00647683 0.00223793 0.00370739)
(-0.0062777 0.00321311 0.00329903)
(-0.00586665 0.00168661 0.00305495)
(-0.00442731 0.00330177 0.00250253)
(-0.00321895 -0.000231947 0.00257824)
(-0.000832922 0.00101505 0.00275015)
(0.000363256 -0.00538325 0.00150844)
(0.0067292 -0.00224243 0.00165756)
(0.0161641 -0.00554371 0.0102347)
(0.0308403 0.00570949 0.0404625)
(0.0566287 0.00568045 0.052474)
(0.0589441 0.0362603 0.0676989)
(0.0065755 -0.00969266 0.0702276)
(-0.0514541 0.0334535 0.124681)
(-0.151615 -0.126235 0.103887)
(0.0252368 0.0988801 -0.127021)
(0.0881399 -0.0431203 0.0606742)
(0.119868 -0.121914 0.0829762)
(0.0579877 0.12791 -0.024856)
(0.0619324 0.0522013 -0.00195391)
(0.019283 0.103729 -0.00687877)
(-0.00672386 0.0905188 -0.00494152)
(-0.0261948 0.102807 -0.00486697)
(-0.0375987 0.0981475 -0.00248128)
(-0.0439437 0.101732 -0.000564474)
(-0.0448321 0.104009 0.00264106)
(-0.0455696 0.108642 0.00578994)
(-0.0452369 0.113419 0.00822432)
(-0.0454257 0.117726 0.00882649)
(-0.0455555 0.119169 0.00942313)
(-0.045587 0.117817 0.0121551)
(-0.0464098 0.113366 0.0143569)
(-0.0429487 0.106478 0.0144921)
(-0.0402287 0.100454 0.0142609)
(-0.0361363 0.0935837 0.0145959)
(-0.0306363 0.0842421 0.014557)
(-0.0251401 0.0740547 0.0140366)
(-0.0188413 0.0612791 0.0113408)
(-0.00933295 0.0469068 0.00775299)
(0.00517973 0.033626 0.00691152)
(0.0228075 0.0214181 0.00898814)
(0.0417954 0.0135399 0.0101286)
(0.0600592 0.00868567 0.00922506)
(0.0784995 0.00656406 0.0060852)
(0.0940979 0.00718554 0.0056165)
(0.102185 0.00503468 0.000884323)
(0.0967484 0.00208315 -0.0072486)
(0.0772681 -0.0080416 -0.0161635)
(0.0400034 -0.0111684 -0.0218445)
(-0.0322218 -0.0243918 -0.0188891)
(-0.0648417 -0.0213049 -0.00469251)
(-0.0736178 -0.0191212 -0.00112903)
(-0.0733265 -0.00728742 -0.00671485)
(0.0256335 0.0271793 0.0110699)
(0.0280315 0.0321159 0.0092522)
(0.0210432 0.0268074 0.00581257)
(0.0247883 0.0262174 0.00670293)
(0.0204875 0.0156755 0.00308591)
(0.020783 0.0142525 0.0042459)
(0.0111605 0.0019359 -0.00133337)
(0.00101841 0.00174245 -0.00256765)
(-0.00405532 -0.00251669 -0.00045204)
(-0.00839627 -0.00096824 0.00103996)
(-0.00939041 -0.00192669 0.00188456)
(-0.00874012 -0.00032481 0.00339775)
(-0.00623009 -7.61082e-05 0.00465201)
(-0.00427226 0.000371147 0.00598069)
(-0.00328892 0.000384688 0.00695937)
(-0.00303785 0.000709143 0.00781187)
(-0.00326048 0.000979418 0.00825161)
(-0.00376433 0.00129712 0.00833742)
(-0.00422729 0.00153439 0.00820616)
(-0.00455974 0.00180596 0.00797996)
(-0.00480744 0.00199537 0.00766689)
(-0.00500332 0.00208568 0.00735579)
(-0.00515804 0.00212034 0.00707053)
(-0.00529121 0.00212256 0.0068138)
(-0.00541147 0.00210042 0.00659225)
(-0.00547805 0.00206801 0.00641251)
(-0.00549314 0.00202966 0.00625915)
(-0.00545834 0.00197153 0.00614637)
(-0.00543194 0.00189039 0.00606878)
(-0.00543873 0.001828 0.00602861)
(-0.00545326 0.00180499 0.00600983)
(-0.00545602 0.00181625 0.00599911)
(-0.00545694 0.00184851 0.0059862)
(-0.00546781 0.00190125 0.00596048)
(-0.00546215 0.00197833 0.00592069)
(-0.00543712 0.00204681 0.00587228)
(-0.00541725 0.00214688 0.00581501)
(-0.00540954 0.00223133 0.00574669)
(-0.00542686 0.00244223 0.00567631)
(-0.00551029 0.00246967 0.00558931)
(-0.0056636 0.00288157 0.0054878)
(-0.00568443 0.00269597 0.00528433)
(-0.00578899 0.00327358 0.00508204)
(-0.00541013 0.00247828 0.00480682)
(-0.00522222 0.00332954 0.00455501)
(-0.00467376 0.00164833 0.00443438)
(-0.0037021 0.00321003 0.00430103)
(-0.00228543 0.000379986 0.00466924)
(-0.00174289 0.00255316 0.0034462)
(-0.00146359 -0.000758195 -0.00198479)
(-0.00153072 0.00597576 -0.004709)
(0.0111886 0.0058086 0.000496739)
(0.0208167 0.0135704 0.0242121)
(0.0222155 -0.00468485 0.0527173)
(0.0208807 0.0385653 0.083707)
(-0.0273214 0.00852571 0.0968248)
(-0.0358833 0.0219011 0.146137)
(-0.0978431 -0.119873 0.114659)
(0.0170916 0.0162712 -0.101428)
(0.0399442 -0.0318041 0.0576033)
(0.0652457 -0.0637067 0.0707604)
(0.0345192 0.141468 -0.0128477)
(0.030916 0.106308 0.00504296)
(0.0126929 0.150136 0.00320301)
(-0.00899743 0.148464 0.000141786)
(-0.020517 0.154609 0.00119317)
(-0.0306872 0.149553 0.000825686)
(-0.037003 0.150295 0.00181618)
(-0.0399101 0.146142 0.00213225)
(-0.0412695 0.144559 0.00305885)
(-0.0414121 0.141432 0.00328047)
(-0.0432797 0.139443 0.0037852)
(-0.0448596 0.135947 0.00448503)
(-0.0443229 0.130641 0.00525652)
(-0.0430667 0.124283 0.00749265)
(-0.0419623 0.114475 0.00714923)
(-0.0380663 0.10693 0.00827154)
(-0.032022 0.0996583 0.0125876)
(-0.023523 0.0927126 0.0155668)
(-0.0128055 0.0837648 0.0192209)
(0.00188177 0.0708153 0.021535)
(0.0173199 0.0533547 0.0197071)
(0.0300773 0.0324502 0.0183101)
(0.0443178 0.0138788 0.0193248)
(0.0555912 -0.00186538 0.0167495)
(0.0680421 -0.00983003 0.0168251)
(0.0817582 -0.00928189 0.0188865)
(0.0965711 -0.00362686 0.0201645)
(0.106948 -0.000134468 0.0202029)
(0.104541 0.00436096 0.0173752)
(0.0874939 0.00655654 0.00819677)
(0.0514873 0.0130532 -0.0073309)
(-0.025739 0.000859221 -0.0190827)
(-0.0661591 0.000122583 -0.00931867)
(-0.0805856 -0.00400475 -0.0114929)
(-0.0862941 -0.00329061 -0.0430282)
(0.0122049 0.0254497 -0.00138226)
(0.0234891 0.0316685 0.00687716)
(0.0151348 0.0299253 0.00382988)
(0.0228469 0.0316244 0.00597207)
(0.0184223 0.0192427 0.00359472)
(0.0200528 0.017076 0.00599638)
(0.0130415 0.00334989 0.000258704)
(0.00228485 0.00289195 -0.00665888)
(-0.00537019 -0.00265686 -0.00482566)
(-0.00828044 -0.000290401 -0.00291127)
(-0.00957126 -0.00247473 -0.00176958)
(-0.00933375 -0.00189031 -0.000644051)
(-0.00851658 -0.00256656 0.000660565)
(-0.00742054 -0.00195582 0.00206918)
(-0.00700746 -0.00147528 0.00314114)
(-0.00714937 -0.000617339 0.0041311)
(-0.00771019 0.000139935 0.00490382)
(-0.00832281 0.00083982 0.005368)
(-0.00886859 0.0013561 0.00553121)
(-0.00923307 0.00179595 0.00549954)
(-0.00923623 0.0020988 0.00534747)
(-0.00920349 0.00229527 0.00516879)
(-0.00915695 0.00241037 0.00499607)
(-0.00910268 0.0024692 0.00483543)
(-0.00903992 0.00248048 0.0046891)
(-0.00894351 0.00245885 0.00455933)
(-0.0088219 0.00242189 0.00444217)
(-0.00866488 0.00237256 0.00434409)
(-0.00856394 0.00231205 0.00426679)
(-0.00856624 0.00225865 0.00421946)
(-0.00858557 0.00223122 0.00418765)
(-0.00858268 0.00224109 0.00416581)
(-0.00856565 0.00226535 0.00414511)
(-0.00854256 0.00232292 0.00411094)
(-0.00848188 0.00240749 0.00405706)
(-0.00840177 0.00247449 0.00398828)
(-0.00836151 0.0025819 0.00389307)
(-0.008318 0.00268918 0.00378758)
(-0.0083334 0.00292707 0.00367352)
(-0.0082806 0.00302519 0.00358251)
(-0.00851083 0.00348069 0.00347778)
(-0.00834557 0.0031747 0.00331944)
(-0.00849405 0.00358469 0.0031886)
(-0.00789939 0.00252065 0.00293856)
(-0.00776866 0.00320704 0.00281046)
(-0.0071092 0.00126768 0.00276721)
(-0.00684145 0.00306829 0.00282151)
(-0.0057034 0.00023018 0.00336016)
(-0.00700974 0.00358921 0.00263361)
(-0.00633366 -0.00228704 -0.00166807)
(-0.00308467 0.000264878 0.000402067)
(0.0160639 -0.0188595 0.00999938)
(0.0235556 -0.000402298 0.0146058)
(-0.00407882 -0.0132923 0.0349823)
(-0.028799 0.0149735 0.0773409)
(-0.0432192 -0.0131801 0.0918202)
(-0.0192686 -0.0130166 0.13403)
(-0.031806 -0.132188 0.126274)
(-0.00805114 0.0173276 -0.116719)
(-0.00398615 -0.0291196 0.0479589)
(-0.00911615 -0.0944116 0.0592492)
(0.0041443 0.147792 -0.017644)
(-0.000948384 0.104001 0.000905395)
(0.00376661 0.151964 0.00232314)
(-0.0100233 0.154991 0.00174515)