/*--------------------------------*- C++ -*----------------------------------*\
| =========                 |                                                 |
| \\      /  F ield         | OpenFOAM: The Open Source CFD Toolbox           |
|  \\    /   O peration     | Version:  2.3.0                                 |
|   \\  /    A nd           | Web:      www.OpenFOAM.org                      |
|    \\/     M anipulation  |                                                 |
\*---------------------------------------------------------------------------*/
FoamFile
{
    version     2.0;
    format      ascii;
    class       volVectorField;
    location    "40";
    object      U.airMean;
}
// * * * * * * * * * * * * * * * * * * * * * * * * * * * * * * * * * * * * * //

dimensions      [0 1 -1 0 0 0 0];

internalField   nonuniform List<vector> 
6144
(
(0.00898159 0.0194834 -0.000809123)
(0.00910782 0.000720214 -0.00142923)
(0.00454666 -0.000749948 -0.00234717)
(0.00439146 -0.0023592 -0.00234701)
(0.00288137 -0.00288287 -0.00199407)
(0.00291666 -0.00165321 -0.00179532)
(0.00240982 -0.00135935 -0.00143146)
(0.00243475 -0.000107906 -0.00115482)
(0.00218783 0.000593708 -0.00105975)
(0.00207445 0.00206638 -0.00066747)
(0.00202835 0.00295041 -0.000370901)
(0.00217733 0.00340086 -3.06175e-05)
(0.00233732 0.00315286 9.92955e-05)
(0.00247689 0.00262868 0.000196587)
(0.00254312 0.00193327 2.8788e-05)
(0.00261265 0.00137109 -0.000117905)
(0.00264857 0.000861517 -0.000336136)
(0.00269057 0.000535217 -0.000498085)
(0.0027207 0.000271338 -0.000658252)
(0.00274043 0.000136883 -0.000762241)
(0.00274997 4.56567e-05 -0.000833134)
(0.0027517 1.95999e-05 -0.000867336)
(0.00274575 1.36382e-05 -0.000878449)
(0.00273443 2.89451e-05 -0.000869351)
(0.00271784 5.14764e-05 -0.000845402)
(0.00269852 7.57503e-05 -0.000809598)
(0.00267701 9.67646e-05 -0.00076347)
(0.00265434 0.000109494 -0.000707397)
(0.00263189 0.000116796 -0.000648726)
(0.00260992 0.000108729 -0.000594765)
(0.00259008 0.000109077 -0.000544226)
(0.00256864 7.24206e-05 -0.000505106)
(0.00255252 0.000102324 -0.00046382)
(0.00252744 2.2653e-05 -0.000440519)
(0.00251924 0.000145119 -0.000393049)
(0.00248618 -4.71759e-05 -0.000376915)
(0.00248437 0.000250575 -0.000304262)
(0.00244332 -0.000192143 -0.000286971)
(0.00244295 0.000399448 -0.000178201)
(0.00240152 -0.000500935 -0.000162028)
(0.00240053 0.000550902 -3.27361e-05)
(0.00237968 -0.00106455 -2.3582e-05)
(0.00237063 0.000663568 7.68705e-05)
(0.00241899 -0.00197006 3.95992e-05)
(0.00234245 0.000834139 -1.31482e-06)
(0.00246923 -0.00305763 -0.000164731)
(0.00229118 0.00172312 -0.000515945)
(0.00244782 -0.00346927 -0.000596064)
(0.00237803 0.0041567 -0.00102342)
(0.0026107 -0.00348079 -0.00112797)
(0.00374627 0.0087341 -0.00179367)
(0.00381979 -0.00817559 -0.00245934)
(0.0048097 0.0145686 -0.00451147)
(0.00470212 -0.00915255 -0.00604104)
(0.00780239 0.0381443 -0.00790815)
(0.00613856 -0.0283864 -0.0115708)
(0.0185335 0.0692033 -0.00273385)
(0.00946263 -0.0640547 -0.0165308)
(-0.047313 0.116389 -0.0901499)
(0.0317568 0.0342584 -0.10624)
(0.0795512 0.336226 0.000257549)
(0.0386582 0.377482 -0.00636464)
(0.0190657 -0.0627051 -0.00311677)
(0.0289341 -0.11452 -0.00244995)
(0.0218731 -0.123411 -0.000798114)
(0.0143811 -0.121476 0.00081533)
(0.00989803 -0.125287 0.00162585)
(0.00678855 -0.121076 0.00135004)
(0.00491844 -0.118431 0.000426142)
(0.00381593 -0.112355 -0.000433223)
(0.00305423 -0.108586 -0.000974582)
(0.00259287 -0.102093 -0.00133616)
(0.00233573 -0.097309 -0.00159775)
(0.00230902 -0.0917443 -0.001709)
(0.0024256 -0.0877947 -0.00174845)
(0.00252574 -0.0839162 -0.00177116)
(0.00259154 -0.0809945 -0.00184716)
(0.00264232 -0.0782422 -0.00190051)
(0.00277938 -0.0760501 -0.00199124)
(0.00294812 -0.0742273 -0.00210195)
(0.00314367 -0.0724305 -0.00219247)
(0.00328712 -0.0704852 -0.00227249)
(0.00331755 -0.0683909 -0.00231145)
(0.00324356 -0.0658203 -0.00233202)
(0.00301656 -0.0629822 -0.00234728)
(0.00264002 -0.0596379 -0.00234569)
(0.0020668 -0.0556487 -0.00240268)
(0.00124582 -0.0505738 -0.00242248)
(0.000235118 -0.0442485 -0.00244585)
(-0.000650963 -0.0361723 -0.00221901)
(-0.000580988 -0.0277235 -0.00220459)
(-0.000512945 -0.0190374 -0.00365687)
(-0.00115113 -0.00852373 -0.00385854)
(-0.002475 0.00170668 -0.00146982)
(-0.00266121 0.00962386 0.00497129)
(-0.00258748 0.00973482 0.00975903)
(0.018275 0.0219488 0.0026458)
(0.0189846 0.00913191 0.00225452)
(0.0107719 0.00613983 -0.000114886)
(0.010665 0.00391526 0.000578015)
(0.00645124 0.000781857 0.000997672)
(0.00614652 0.000849748 0.00150061)
(0.0042017 -0.000341815 0.00208799)
(0.00393916 0.000992048 0.00194936)
(0.00332766 0.00179686 0.00173056)
(0.0033407 0.00358888 0.00187469)
(0.0035576 0.00430199 0.00212038)
(0.00412016 0.00464503 0.00256304)
(0.00451264 0.00417837 0.00274416)
(0.00486128 0.00362234 0.00285904)
(0.00495932 0.00280255 0.00278373)
(0.00507482 0.00215205 0.00272186)
(0.00508369 0.00152157 0.00261284)
(0.00513371 0.00110688 0.00253287)
(0.00515421 0.000750695 0.00244078)
(0.0051722 0.000549161 0.00237971)
(0.00517177 0.000400381 0.00233486)
(0.00515774 0.000333391 0.00232436)
(0.00512997 0.000296241 0.00233537)
(0.00509228 0.000291235 0.00236749)
(0.00504656 0.000299433 0.00241299)
(0.00499633 0.000314078 0.00246919)
(0.004943 0.000328997 0.00253228)
(0.00488894 0.000338168 0.00259754)
(0.00483808 0.00034508 0.00265765)
(0.00478936 0.000337339 0.00271014)
(0.00474869 0.00033963 0.00275917)
(0.00469816 0.000305575 0.00279958)
(0.00466619 0.000340154 0.00284479)
(0.00460222 0.000256182 0.00287439)
(0.00459177 0.000387466 0.00292455)
(0.00450576 0.000165924 0.00294442)
(0.00452583 0.000496391 0.00301128)
(0.0044144 -2.51488e-05 0.00302135)
(0.00447317 0.000660644 0.0031134)
(0.00434298 -0.000403575 0.00311274)
(0.0044447 0.000859426 0.0032268)
(0.00432087 -0.00105553 0.0032146)
(0.00445964 0.00109907 0.00332225)
(0.00438352 -0.00204753 0.00328895)
(0.00445337 0.00150996 0.00330907)
(0.00440313 -0.00328319 0.0031717)
(0.00423615 0.002572 0.00282665)
(0.00421902 -0.00407276 0.00262786)
(0.00392572 0.00482629 0.00192076)
(0.0042011 -0.0044151 0.00218955)
(0.00653942 0.00804235 0.00106237)
(0.00690562 -0.00777163 6.68694e-05)
(0.00588021 0.016081 -0.00141914)
(0.00482087 -0.00655173 -0.00112939)
(0.0210563 0.038233 0.00339036)
(0.029515 -0.0405019 -0.000216589)
(-0.0132952 0.0326172 0.00233349)
(-0.0136287 -0.011558 -0.0190927)
(0.0172123 0.184608 -0.0277348)
(0.148405 0.00136526 -0.0589902)
(0.0861302 0.35244 0.0094871)
(0.00764036 0.42753 0.00323123)
(-0.0115233 -0.0794645 0.00127317)
(0.00049108 -0.0403841 0.00756444)
(-0.00477094 -0.0657941 0.00843995)
(-0.0102385 -0.0730826 0.00832967)
(-0.0114611 -0.079539 0.00708186)
(-0.0116313 -0.0784327 0.00603891)
(-0.0106179 -0.0808949 0.00464619)
(-0.00961452 -0.0790696 0.00354645)
(-0.00826059 -0.0785855 0.00279845)
(-0.00689269 -0.0747699 0.00229343)
(-0.00539554 -0.0721052 0.00184927)
(-0.00396252 -0.068288 0.00149527)
(-0.00252832 -0.0659362 0.00120596)
(-0.0012939 -0.0633707 0.000915911)
(4.68182e-05 -0.0613569 0.000667859)
(0.00130666 -0.0591374 0.000578378)
(0.00213518 -0.0571653 0.00054529)
(0.00244334 -0.0552309 0.000538189)
(0.00246563 -0.0533213 0.000562309)
(0.00236375 -0.0513881 0.000589801)
(0.00225332 -0.0494879 0.000607244)
(0.00214622 -0.04736 0.000636274)
(0.00188978 -0.0455548 0.000710073)
(0.00125763 -0.0437532 0.000846617)
(0.000173212 -0.0417712 0.00093354)
(-0.00139104 -0.0393627 0.000931781)
(-0.00348242 -0.0361321 0.000599927)
(-0.00531513 -0.0312838 0.000441157)
(-0.00602629 -0.0251846 0.000410196)
(-0.00625752 -0.0178906 -0.000969327)
(-0.00732976 -0.00851835 -0.00136016)
(-0.00902899 0.00121919 0.00130471)
(-0.0107687 0.00859626 0.0084782)
(-0.0101457 0.00916626 0.0143412)
(0.021835 0.02257 0.00374013)
(0.0232774 0.0137576 0.00369703)
(0.0144496 0.0100442 0.00141591)
(0.0142452 0.0088847 0.00231647)
(0.00822497 0.00432513 0.00262875)
(0.00711419 0.00375342 0.00301203)
(0.00366557 0.00116468 0.00358725)
(0.00299941 0.00205922 0.00337168)
(0.00201599 0.0024109 0.00311834)
(0.00235956 0.00398735 0.00322894)
(0.00282598 0.00431243 0.00339255)
(0.00375788 0.00462139 0.00374943)
(0.00424583 0.00417742 0.00390262)
(0.00470736 0.0038466 0.00401131)
(0.00483991 0.00316451 0.00396207)
(0.00497723 0.00263581 0.00393577)
(0.00493376 0.00204169 0.003882)
(0.00494688 0.00163709 0.00386803)
(0.00489152 0.00125292 0.00385547)
(0.0048479 0.00100848 0.00386756)
(0.00478048 0.000806522 0.00388577)
(0.00471581 0.000689613 0.00391705)
(0.00464563 0.00060723 0.00395187)
(0.00457632 0.000565929 0.00399388)
(0.00450569 0.000545603 0.00403803)
(0.00443623 0.000539862 0.00408385)
(0.00436806 0.000541438 0.00413026)
(0.00430114 0.00054139 0.00417712)
(0.00423515 0.00054306 0.00422381)
(0.00416885 0.000539298 0.00427005)
(0.00410763 0.000544546 0.00431599)
(0.00403382 0.000527884 0.0043578)
(0.00398162 0.000559197 0.00440279)
(0.00389182 0.000490647 0.00443902)
(0.00386926 0.000596394 0.00448948)
(0.00375056 0.000392429 0.00451774)
(0.00377811 0.000677545 0.00457667)
(0.00361605 0.000190352 0.00459355)
(0.00371794 0.000832813 0.0046656)
(0.00350612 -0.000155554 0.00466421)
(0.00370865 0.00109987 0.00474739)
(0.00344817 -0.000682643 0.00471484)
(0.00378371 0.00154372 0.00480371)
(0.00351421 -0.0014166 0.00472713)
(0.00388541 0.00230031 0.00478935)
(0.00359211 -0.00246025 0.00465615)
(0.00365632 0.00347598 0.00450578)
(0.00338708 -0.00372657 0.00436947)
(0.00310518 0.00518525 0.00368865)
(0.00375153 -0.00493049 0.00425839)
(0.0060346 0.00726108 0.00305688)
(0.00630095 -0.0057685 0.00225361)
(0.00452742 0.0191347 0.00182629)
(0.00449183 -0.0159119 0.00430268)
(0.0306151 0.0223696 0.00831468)
(0.0425152 -0.0517855 0.00462836)
(-0.0374725 0.051758 0.0205163)
(-0.0597663 -0.100931 -0.00566654)
(-0.0412429 0.173804 -0.06049)
(0.152813 -0.0143814 -0.0349599)
(0.142913 0.338933 0.00703163)
(0.0648784 0.392257 0.00129516)
(0.062876 -0.0129309 0.00624405)
(0.0301869 0.0458611 0.0119812)
(0.00980509 0.01238 0.0113373)
(0.00233845 0.0072226 0.0101375)
(-0.00232934 0.00112353 0.0077002)
(-0.00610214 -0.00114779 0.00578376)
(-0.00740136 -0.00589579 0.00376574)
(-0.00802193 -0.00639613 0.00224941)
(-0.00750543 -0.00755718 0.00118378)
(-0.00661161 -0.00626858 0.000375314)
(-0.00498347 -0.00577954 -0.000351341)
(-0.0033375 -0.00548073 -0.000916999)
(-0.00191976 -0.00659778 -0.00094296)
(-0.00100301 -0.00951152 -0.000892675)
(-0.000312484 -0.0134913 -0.000698393)
(0.000332222 -0.015325 -0.000272985)
(0.00119216 -0.0160114 0.00033293)
(0.00195998 -0.0154788 0.0012151)
(0.00244641 -0.0155091 0.00209777)
(0.00265677 -0.0163797 0.00276424)
(0.00267931 -0.0178528 0.00317469)
(0.00257574 -0.0194787 0.00340559)
(0.00225132 -0.0211175 0.00353374)
(0.00143597 -0.0226525 0.00363074)
(-9.13416e-05 -0.0237743 0.00366409)
(-0.00244842 -0.0243757 0.00339984)
(-0.00560454 -0.023968 0.00263312)
(-0.00877835 -0.0221951 0.0018031)
(-0.0105554 -0.0186156 0.00149661)
(-0.0117113 -0.0138808 0.000639829)
(-0.013974 -0.00642639 0.000660359)
(-0.0172571 0.00143009 0.00336112)
(-0.0202304 0.00822898 0.00993222)
(-0.0222238 0.00828133 0.015661)
(0.0234817 0.0229606 0.00382)
(0.0263482 0.0166643 0.00417091)
(0.0164223 0.011871 0.00114448)
(0.0173506 0.0122441 0.00164339)
(0.0104853 0.00682028 0.00174812)
(0.00937533 0.00637875 0.00241843)
(0.003933 0.00187845 0.00326519)
(0.00240381 0.0022112 0.00315788)
(0.000726863 0.00166324 0.003135)
(0.00132483 0.00343825 0.00332537)
(0.00187004 0.00356073 0.00359512)
(0.00284787 0.004112 0.00409368)
(0.00331579 0.00388993 0.00428392)
(0.00380652 0.00383445 0.00441411)
(0.00393533 0.00329476 0.00435165)
(0.00407513 0.00288934 0.00433184)
(0.00399629 0.00233029 0.0042919)
(0.00398856 0.00196258 0.0042956)
(0.00390204 0.00157362 0.00429258)
(0.00383508 0.00131213 0.00431004)
(0.00374042 0.00107492 0.00433018)
(0.00365236 0.000922125 0.00436333)
(0.00355591 0.000804892 0.00439768)
(0.003461 0.000734404 0.00443706)
(0.00336925 0.000689572 0.00447935)
(0.00328376 0.000667861 0.0045237)
(0.00320356 0.000659825 0.00456818)
(0.00312812 0.000657943 0.00461203)
(0.00305623 0.000662234 0.00465406)
(0.0029862 0.000665048 0.00469417)
(0.00292072 0.000676121 0.00473356)
(0.00284928 0.000669814 0.00477067)
(0.00279728 0.000699812 0.00481244)
(0.00271542 0.0006475 0.00484472)
(0.00269399 0.00074284 0.00488894)
(0.00258409 0.000564102 0.00491069)
(0.00262172 0.000830591 0.00495869)
(0.00246354 0.000386718 0.00496267)
(0.00259438 0.00100552 0.00501761)
(0.00237112 9.17087e-05 0.00499736)
(0.00262359 0.00132412 0.00506085)
(0.00232358 -0.000323393 0.00500331)
(0.00272617 0.00188177 0.00507543)
(0.00238206 -0.000848071 0.00496444)
(0.00293693 0.00281117 0.00505682)
(0.00249871 -0.00161399 0.00486255)
(0.00301934 0.00403075 0.00482505)
(0.00247645 -0.00294851 0.00459324)
(0.00266421 0.00516308 0.00422476)
(0.00309155 -0.00523495 0.00464707)
(0.00423684 0.00721715 0.00377827)
(0.00362448 -0.00592611 0.00340034)
(0.00803722 0.0162448 0.00489108)
(0.011401 -0.0240578 0.00648654)
(0.0327271 0.0120978 0.0139018)
(0.0303835 -0.0408507 0.00976448)
(-0.0123473 0.0735445 0.023129)
(-0.0739378 -0.122308 0.0142665)
(-0.0341012 0.207006 -0.10545)
(0.169396 -0.0507413 -0.0164593)
(0.165625 0.363407 0.0042626)
(0.0677304 0.364864 -0.00387695)
(0.0707178 0.116463 0.00420134)
(-0.00123967 0.171192 0.0106521)
(-0.00373283 0.0990287 0.0125147)
(-0.00724534 0.0998851 0.00799728)
(-0.00935086 0.0860669 0.00382173)
(-0.0107026 0.0863801 0.000555265)
(-0.0101861 0.0826583 -0.00187654)
(-0.00941537 0.0853049 -0.00335193)
(-0.00836682 0.0878421 -0.00435139)
(-0.0073361 0.0922176 -0.00479536)
(-0.00595207 0.0966603 -0.00450528)
(-0.00460403 0.10202 -0.00291169)
(-0.00337459 0.103791 -0.00126194)
(-0.00219912 0.103716 0.000211913)
(-0.000868622 0.101018 0.00136063)
(0.00072141 0.0931449 0.00234863)
(0.00223867 0.0831972 0.00316349)
(0.00317839 0.0736275 0.00401242)
(0.00356928 0.0630187 0.00467472)
(0.00350933 0.0500619 0.00507721)
(0.00326946 0.0334721 0.00523251)
(0.00282887 0.0206378 0.00524043)
(0.00205957 0.0118865 0.00508633)
(0.00067962 0.00392545 0.00488591)
(-0.00159522 -0.00218238 0.00450105)
(-0.00480938 -0.00630132 0.00367582)
(-0.00839355 -0.00888232 0.00247179)
(-0.0116816 -0.010045 0.00162359)
(-0.0143762 -0.00943541 0.00159599)
(-0.0171371 -0.00710134 0.00182239)
(-0.0208619 -0.00237845 0.00256216)
(-0.0249481 0.00297753 0.00532782)
(-0.0289799 0.00795385 0.0112281)
(-0.0311206 0.00798813 0.0161007)
(0.0238 0.0232558 0.00437062)
(0.0284363 0.0193747 0.00490145)
(0.0177585 0.0128207 0.00102235)
(0.0200366 0.0143929 0.00131604)
(0.0128924 0.00773751 0.000445399)
(0.0124271 0.00834351 0.00105646)
(0.00562389 0.00281111 0.00151474)
(0.00299302 0.00306718 0.00206469)
(-0.000339325 0.000614506 0.00250272)
(-0.000240916 0.00231875 0.00296431)
(0.000242154 0.00229115 0.00336439)
(0.00107574 0.003287 0.00407612)
(0.00144287 0.00335643 0.00430267)
(0.00196186 0.00359959 0.00447375)
(0.00211773 0.00321043 0.00438745)
(0.00222504 0.00290376 0.00437844)
(0.00204378 0.00238698 0.00433694)
(0.00193454 0.00207283 0.00435254)
(0.00176179 0.00171068 0.00434503)
(0.00163475 0.001468 0.00435146)
(0.00148878 0.00122437 0.00434994)
(0.00136591 0.00105559 0.00435894)
(0.00124747 0.000912514 0.00437128)
(0.00114026 0.000817964 0.00439187)
(0.00104023 0.000753757 0.00441515)
(0.000951677 0.00071874 0.00444177)
(0.000873764 0.000700991 0.00446942)
(0.000804871 0.000695047 0.00449637)
(0.000742754 0.000697515 0.00452103)
(0.000684473 0.00070179 0.00454151)
(0.000629377 0.000715133 0.00455865)
(0.000571144 0.00071493 0.0045723)
(0.000526587 0.000746034 0.00458966)
(0.000458114 0.000706039 0.00459707)
(0.000443814 0.000798743 0.00462084)
(0.000349956 0.000641958 0.00461657)
(0.000395492 0.000904046 0.00464656)
(0.00025136 0.00050263 0.00462022)
(0.00038967 0.00111476 0.00465628)
(0.000171874 0.000284037 0.00460098)
(0.000425025 0.0014997 0.00464032)
(0.000121774 8.67513e-06 0.00454589)
(0.000508735 0.00216406 0.00458338)
(0.00017313 -0.000265391 0.00444813)
(0.000724642 0.00319627 0.00450085)
(0.000421172 -0.000665732 0.00433665)
(0.00104322 0.00440065 0.00434588)
(0.000864911 -0.001848 0.00412668)
(0.00135115 0.00520761 0.0037913)
(0.00157897 -0.00448428 0.003784)
(0.00245881 0.00740531 0.00284119)
(0.00266431 -0.00673719 0.00454441)
(0.0114435 0.0113136 0.00892566)
(0.0137917 -0.0232301 0.0139097)
(0.0255965 0.0164709 0.0306225)
(0.0163534 -0.0411229 0.0298998)
(-0.00286285 0.0545113 0.0570064)
(-0.0968338 -0.125157 0.0473247)
(-0.00117923 0.172018 -0.160736)
(0.130375 -0.0580411 0.0056257)
(0.148221 0.453956 0.00666466)
(0.0567698 0.594864 -0.00508432)
(0.054258 0.516738 0.00330703)
(0.0152875 0.542775 0.00243873)
(0.0147497 0.461671 0.00229158)
(0.00090631 0.413395 -0.0018048)
(-0.000982737 0.39904 -0.00432446)
(-0.0035287 0.394353 -0.00529714)
(-0.00412431 0.398129 -0.00589399)
(-0.0052209 0.403868 -0.00512283)
(-0.00562667 0.408446 -0.00385724)
(-0.00560733 0.411957 -0.00198733)
(-0.00483963 0.406655 -0.000102666)
(-0.00367191 0.402336 0.00173755)
(-0.00227503 0.389954 0.00321047)
(-0.000910994 0.365641 0.00451999)
(0.000648723 0.337962 0.00548406)
(0.00243749 0.306084 0.00614063)
(0.00401086 0.27312 0.00667122)
(0.00504259 0.233185 0.0070577)
(0.00560305 0.200049 0.00722299)
(0.00585095 0.168218 0.00714972)
(0.00589965 0.138024 0.00677795)
(0.00561726 0.110139 0.00632238)
(0.00475661 0.0874156 0.00578409)
(0.00316057 0.0662318 0.00526546)
(0.00094787 0.0426154 0.00439262)
(-0.00232778 0.0281305 0.00306585)
(-0.00603257 0.0123019 0.00189269)
(-0.010327 0.00428365 0.00132255)
(-0.0148581 0.00197007 0.0015392)
(-0.0199842 0.00173246 0.00227037)
(-0.025589 0.00364499 0.00404337)
(-0.0312432 0.00637336 0.00690119)
(-0.0374579 0.00914666 0.0112585)
(-0.0435137 0.00771559 0.0153687)
(0.0222179 0.0232699 0.0067413)
(0.0295611 0.0221429 0.00618643)
(0.0180432 0.013509 0.00166499)
(0.0217919 0.0163597 0.00231251)
(0.0147562 0.00744875 0.000213472)
(0.0148622 0.00926547 0.000375129)
(0.00786068 0.00282665 -0.000172304)
(0.00476684 0.00402403 0.000622561)
(0.000118245 0.000157612 0.00156397)
(-0.00114802 0.00127303 0.0023003)
(-0.0011756 0.00056182 0.00281372)
(-0.000419892 0.00193772 0.00379223)
(0.000115648 0.00235633 0.00416712)
(0.000796957 0.00301345 0.00453132)
(0.00108584 0.00277065 0.00457066)
(0.00122196 0.00260605 0.00465228)
(0.000974437 0.00215081 0.00461298)
(0.000793867 0.00194238 0.00462434)
(0.000563519 0.00167072 0.00458295)
(0.000399416 0.00152208 0.0045485)
(0.000230111 0.00134373 0.0044936)
(9.26491e-05 0.00122128 0.00444622)
(-3.63408e-05 0.00110353 0.00439992)
(-0.000146705 0.00102086 0.00436203)
(-0.000240692 0.000959778 0.00432835)
(-0.000314904 0.000926091 0.00430114)
(-0.000373842 0.00090875 0.00427851)
(-0.000420917 0.000905629 0.00425805)
(-0.000460585 0.000910656 0.00423853)
(-0.000497464 0.000916975 0.00421892)
(-0.000531071 0.000929898 0.00420124)
(-0.000566935 0.000929894 0.00418415)
(-0.000589336 0.000959945 0.00417429)
(-0.000632572 0.000927869 0.00415657)
(-0.000623113 0.001024 0.00416016)
(-0.000694755 0.000895685 0.0041284)
(-0.000624731 0.00116277 0.00414807)
(-0.000748562 0.000817103 0.00409022)
(-0.000584535 0.00141629 0.0041313)
(-0.000778189 0.000676622 0.00404116)
(-0.000521182 0.00183924 0.00409287)
(-0.000783424 0.000499755 0.0039615)
(-0.000474023 0.00252499 0.00399668)
(-0.000671238 0.000337178 0.00386248)
(-0.000319884 0.00351186 0.00389277)
(-0.000263563 4.54912e-05 0.00386793)
(0.000193533 0.00468711 0.00398834)
(0.000530193 -0.00112911 0.00401003)
(0.00103848 0.00552721 0.00401795)
(0.00119952 -0.00375256 0.00366266)
(0.0022146 0.00755427 0.00295825)
(0.00381403 -0.00707651 0.00529801)
(0.010842 0.010065 0.0116953)
(0.00876724 -0.0123412 0.0198414)
(0.011312 0.0210566 0.0424541)
(-0.00519733 -0.0260055 0.0509863)
(0.0124862 0.0365246 0.0890951)
(-0.0745255 -0.117106 0.0779609)
(0.0290115 0.0717311 -0.165778)
(0.0841047 -0.010048 0.0153269)
(0.13698 0.480777 0.00252785)
(0.0493877 0.599741 -0.007064)
(0.0502527 0.561861 0.0021347)
(0.0199305 0.603858 0.00127519)
(0.0136937 0.59039 0.000687625)
(0.00318908 0.596558 -0.00177862)
(0.000480478 0.597836 -0.00222894)
(-0.00302767 0.589114 -0.00210754)
(-0.00475449 0.589632 -0.000954873)
(-0.00661494 0.59254 0.000544353)
(-0.00744689 0.603687 0.00238525)
(-0.00736253 0.594737 0.00401872)
(-0.00619351 0.597232 0.00570777)
(-0.00478824 0.602463 0.00700842)
(-0.00288 0.595006 0.00812403)
(-0.000390887 0.585174 0.00874884)
(0.00226366 0.581124 0.00904859)
(0.00460848 0.570026 0.00909679)
(0.00649095 0.558937 0.00898139)
(0.00759907 0.550418 0.00861412)
(0.00784957 0.526515 0.00826368)
(0.00783031 0.508295 0.00779766)
(0.00764901 0.479492 0.00721988)
(0.00740309 0.444385 0.00655441)
(0.00660167 0.390196 0.00585812)
(0.00444802 0.336514 0.00508891)
(0.000743071 0.293549 0.00399298)
(-0.00360023 0.218765 0.00292127)
(-0.00825962 0.146227 0.00210002)
(-0.013393 0.0969354 0.00164145)
(-0.0184194 0.0548262 0.00205498)
(-0.023364 0.0163718 0.00240492)
(-0.0305051 0.00847176 0.0058902)
(-0.0367777 0.00709558 0.00925902)
(-0.0422807 0.00809319 0.0122336)
(-0.0474487 0.00716751 0.0132122)
(0.0181601 0.0223989 0.00662139)
(0.0290662 0.0258344 0.00785399)
(0.0160715 0.0136953 0.00321809)
(0.0214241 0.0185526 0.00500226)
(0.0144833 0.0066388 0.00197958)
(0.0154225 0.00926534 0.0019906)
(0.0087984 0.0014782 0.000216758)
(0.00577372 0.00395402 0.000132996)
(0.000665058 -1.54044e-05 0.000981337)
(-0.00162614 0.0011283 0.0020212)
(-0.00276967 -0.000558678 0.00248693)
(-0.00307548 0.000895881 0.00346566)
(-0.00291208 0.00140003 0.00398166)
(-0.00200374 0.00227238 0.0046834)
(-0.00162977 0.0021198 0.00497634)
(-0.00150592 0.00215235 0.00521158)
(-0.00190707 0.00181114 0.00517677)
(-0.0022618 0.00174686 0.00514167)
(-0.00261636 0.00158883 0.00503107)
(-0.00284074 0.00156523 0.00493134)
(-0.00303165 0.00149186 0.00481276)
(-0.00316287 0.00146602 0.00471083)
(-0.00326802 0.00142173 0.00461542)
(-0.00335014 0.00139616 0.00454004)
(-0.0034157 0.0013756 0.00448056)
(-0.0034597 0.00136642 0.00443266)
(-0.00348357 0.00136267 0.00439138)
(-0.00348977 0.00136603 0.00435727)
(-0.00348294 0.00137241 0.00433119)
(-0.00346976 0.0013774 0.00431109)
(-0.0034567 0.0013853 0.0042963)
(-0.00344626 0.00138417 0.00428528)
(-0.00343518 0.0014052 0.00428075)
(-0.00343828 0.00138392 0.00427378)
(-0.00341237 0.00147322 0.00428223)
(-0.00343244 0.00138109 0.00426749)
(-0.0033655 0.00162933 0.00429366)
(-0.00340618 0.00135597 0.00426109)
(-0.00328221 0.00190399 0.00431364)
(-0.00335024 0.00127927 0.00426179)
(-0.00321276 0.00233239 0.00431682)
(-0.00329204 0.00113644 0.00424117)
(-0.00319657 0.00295852 0.00425705)
(-0.00311923 0.00085934 0.00420111)
(-0.00310103 0.00378703 0.00415512)
(-0.00264702 0.000316584 0.00419035)
(-0.00248363 0.00481303 0.00424806)
(-0.00166653 -0.000993637 0.00449472)
(-0.00139264 0.00578112 0.00468418)
(-0.000677519 -0.00330942 0.0043606)
(-0.000150651 0.00761786 0.00361013)
(0.00255823 -0.00652151 0.00452662)
(0.00281099 0.00970838 0.0103668)
(-0.0013732 -0.0127458 0.0160895)
(-0.00645978 0.0139398 0.0375397)
(-0.0190557 -0.0333468 0.0526975)
(0.00503638 -0.00752569 0.0896589)
(-0.029848 -0.111498 0.0869335)
(0.027779 -0.0304177 -0.16242)
(0.0451617 0.0545988 0.0183129)
(0.0768054 0.555018 3.70739e-05)
(0.0305938 0.636652 -0.00710648)
(0.0325136 0.581745 0.00309552)
(0.0189144 0.65945 0.00576393)
(0.0142441 0.624608 0.00713211)
(0.00686446 0.639343 0.00599062)
(0.00291308 0.63114 0.00598892)
(-0.00087137 0.619433 0.00613351)
(-0.00363959 0.635706 0.00685795)
(-0.00574408 0.619882 0.00768048)
(-0.00677312 0.639233 0.00844691)
(-0.00706634 0.643619 0.00888689)
(-0.00617569 0.645222 0.00934478)
(-0.00481066 0.626829 0.00971205)
(-0.00261912 0.612919 0.0102756)
(0.000716411 0.628228 0.0104)
(0.00386792 0.630529 0.0103197)
(0.00712795 0.610698 0.0103564)
(0.0107063 0.629096 0.0104523)
(0.0138832 0.620645 0.0101567)
(0.0153407 0.598424 0.0100218)
(0.016496 0.59788 0.00986018)
(0.0170795 0.591402 0.0094973)
(0.01678 0.574989 0.00876974)
(0.0158034 0.557658 0.00764183)
(0.0136745 0.531532 0.00675314)
(0.00962497 0.514459 0.00519365)
(0.00420432 0.489112 0.00362618)
(-0.00258406 0.442041 0.00197648)
(-0.00980196 0.397288 0.00109104)
(-0.0180512 0.35797 0.00182938)
(-0.0276775 0.330854 0.00315711)
(-0.0368546 0.307507 0.00631542)
(-0.0445527 0.263514 0.00925365)
(-0.0533012 0.243608 0.0105159)
(-0.0611777 0.275134 0.00964393)
(0.0148087 0.0181597 0.00512213)
(0.0273205 0.0292354 0.00822582)
(0.0123765 0.013509 0.00403782)
(0.0193409 0.0212429 0.0067863)
(0.0127563 0.00661601 0.00371292)
(0.0142443 0.00989214 0.00380176)
(0.00764815 0.000361506 0.0015514)
(0.00486727 0.00351451 0.000576597)
(0.00016109 -0.00038357 0.00128208)
(-0.00205857 0.00136766 0.00232498)
(-0.00362629 -0.000975386 0.00285905)
(-0.00427537 9.49896e-05 0.00382583)
(-0.0038904 -0.000202544 0.00469973)
(-0.00281411 0.000626705 0.00563817)
(-0.00241424 0.000541881 0.00626219)
(-0.00231408 0.00107804 0.00675689)
(-0.00267173 0.00115208 0.00693087)
(-0.00296606 0.00148508 0.0069856)
(-0.00327575 0.00157608 0.00689901)
(-0.00345921 0.00175401 0.00678934)
(-0.00361805 0.00180572 0.0066483)
(-0.00371256 0.00187062 0.00652561)
(-0.0037821 0.00188434 0.00641205)
(-0.00382509 0.00189753 0.00632096)
(-0.00384803 0.00189827 0.00624711)
(-0.00384754 0.00189929 0.00619116)
(-0.00383196 0.00190019 0.00614503)
(-0.00380139 0.00189986 0.00610933)
(-0.00376189 0.00189514 0.00608218)
(-0.00371762 0.00188886 0.00606352)
(-0.00367411 0.00188723 0.00605276)
(-0.00363115 0.0018823 0.00604785)
(-0.0035942 0.00189782 0.00604762)
(-0.00356826 0.00188541 0.006045)
(-0.00353015 0.00197131 0.0060477)
(-0.00351928 0.00190432 0.00602915)
(-0.00345574 0.00213982 0.00603353)
(-0.00345772 0.00190525 0.00598752)
(-0.0033521 0.00241551 0.00600474)
(-0.00335729 0.0018379 0.00593453)
(-0.0032476 0.00281317 0.0059614)
(-0.00320033 0.00165795 0.00587142)
(-0.00315075 0.0033736 0.00588831)
(-0.0028955 0.00123811 0.00581742)
(-0.00301724 0.00408704 0.00576759)
(-0.00235316 0.000350221 0.00579429)
(-0.00244017 0.00493434 0.00579382)
(-0.00146164 -0.00126211 0.00606332)
(-0.00169141 0.00622562 0.00640984)
(-0.000834992 -0.00346715 0.00594905)
(-0.000960499 0.00881941 0.00565622)
(0.00333385 -0.00670093 0.00609675)
(0.0023811 0.0101955 0.0111789)
(-0.00129442 -0.0155095 0.016018)
(-0.0138151 0.010652 0.0364442)
(-0.0196471 -0.0384025 0.0518091)
(-0.00794884 -0.0189847 0.0890795)
(0.0172425 -0.0970568 0.0861312)
(0.000611107 -0.0575237 -0.148206)
(-0.00680392 0.0873127 0.0165392)
(-0.0129934 0.58733 -0.0043068)
(-0.00208563 0.682177 -0.00588347)
(0.00322056 0.684344 0.00702226)
(0.00755628 0.712566 0.010202)
(0.00747511 0.709628 0.011981)
(0.00535648 0.702532 0.0115223)
(0.00221718 0.709091 0.0116374)
(0.000364406 0.718639 0.0116118)
(-0.00218157 0.704756 0.0118646)
(-0.00356045 0.708893 0.0121862)
(-0.00428076 0.703088 0.0124851)
(-0.00435718 0.703833 0.0126361)
(-0.003418 0.698387 0.0127651)
(-0.00130643 0.691453 0.0127245)
(0.00191171 0.681198 0.0128732)
(0.00507849 0.673594 0.0128193)
(0.00901164 0.669661 0.0129235)
(0.0124722 0.673113 0.0132095)
(0.0162287 0.66794 0.0136262)
(0.0198004 0.665707 0.0139587)
(0.02243 0.661527 0.014123)
(0.0241145 0.65823 0.0141559)
(0.0247091 0.653675 0.0142305)
(0.0244505 0.647236 0.0144334)
(0.02367 0.638224 0.0148159)
(0.0218383 0.622249 0.0156104)
(0.0189325 0.608583 0.0159465)
(0.0144634 0.594544 0.0159775)
(0.00921072 0.576381 0.015274)
(0.00192207 0.56173 0.0142068)
(-0.00540069 0.51792 0.0140381)
(-0.0169781 0.49726 0.0123547)
(-0.0315888 0.475351 0.00953752)
(-0.043459 0.447968 0.00496419)
(-0.0559557 0.435792 -0.0079002)
(-0.064457 0.404925 -0.0276456)
(0.00318762 0.0149653 -0.00601528)
(0.0247824 0.0312089 0.0057222)
(0.00664568 0.013333 0.00184958)
(0.015718 0.024519 0.00521385)
(0.00951066 0.00782268 0.00272501)
(0.0117624 0.0117259 0.00311439)
(0.00575124 0.000702534 0.00045328)
(0.00308553 0.00394308 -0.00173165)
(-0.00160476 -0.000229673 -0.00178911)
(-0.0034442 0.00184318 -0.0010937)
(-0.00518498 -0.00103061 -0.000408013)
(-0.00624548 -0.000277323 0.00032555)
(-0.006878 -0.00142856 0.00119301)
(-0.0063693 -0.000572261 0.00208911)
(-0.00652244 -0.000457385 0.00285459)
(-0.00665901 0.000441268 0.00344595)
(-0.00716988 0.000757599 0.00384511)
(-0.00750042 0.00131516 0.0040801)
(-0.00781376 0.00153398 0.00415446)
(-0.00794646 0.0018175 0.00416012)
(-0.008028 0.00193965 0.00411538)
(-0.00805117 0.00205965 0.00407025)
(-0.00805131 0.00211274 0.00402539)
(-0.00803248 0.00215158 0.00399088)
(-0.00799844 0.00216843 0.00396324)
(-0.0079463 0.00217854 0.00394417)
(-0.00787765 0.00218301 0.00393032)
(-0.0077923 0.00218445 0.00392162)
(-0.0077021 0.00218292 0.00391519)
(-0.00761764 0.0021803 0.00391133)
(-0.00754296 0.00218199 0.00391074)
(-0.00747179 0.00218334 0.00391315)
(-0.00741612 0.00220179 0.0039177)
(-0.00736729 0.00219969 0.00392007)
(-0.00732216 0.00227986 0.00392043)
(-0.00726546 0.00223245 0.00390649)
(-0.00721588 0.00244556 0.00389301)
(-0.00712609 0.00225055 0.00385596)
(-0.00708462 0.00272953 0.00383099)
(-0.00693529 0.002227 0.0037832)
(-0.00699745 0.00315811 0.00375499)
(-0.00675589 0.0020436 0.00370307)
(-0.00695253 0.00367076 0.00367193)
(-0.00645621 0.00153567 0.00362355)
(-0.00674074 0.00432604 0.00354106)
(-0.00590887 0.000538805 0.00350164)
(-0.0060681 0.0051937 0.00339779)
(-0.00521753 -0.00116516 0.00344736)
(-0.0055636 0.00668623 0.00385894)
(-0.00477512 -0.00407894 0.00322339)
(-0.00492029 0.00882988 0.00378235)
(0.000457286 -0.00837457 0.00531219)
(-0.0026671 0.0110266 0.00828726)
(-0.00583861 -0.0165929 0.0111381)
(-0.0216102 0.0182579 0.0272493)
(-0.0191359 -0.051138 0.0407241)
(-0.0257768 -0.0177359 0.0696332)
(0.0504207 -0.124911 0.0725484)
(-0.0324394 -0.00229107 -0.161959)
(-0.0542607 0.0374346 0.00670241)
(-0.106466 0.517064 -0.0154322)
(-0.0336679 0.600808 -0.00768624)
(-0.0265423 0.580525 0.0028394)
(-0.00441969 0.617337 0.00679139)
(-0.0017477 0.609465 0.00797661)
(0.00129265 0.592632 0.00798964)
(-0.000979127 0.611459 0.0083133)