/*--------------------------------*- C++ -*----------------------------------*\
| =========                 |                                                 |
| \\      /  F ield         | OpenFOAM: The Open Source CFD Toolbox           |
|  \\    /   O peration     | Version:  2.3.0                                 |
|   \\  /    A nd           | Web:      www.OpenFOAM.org                      |
|    \\/     M anipulation  |                                                 |
\*---------------------------------------------------------------------------*/
FoamFile
{
    version     2.0;
    format      ascii;
    class       volVectorField;
    location    "40";
    object      U.air;
}
// * * * * * * * * * * * * * * * * * * * * * * * * * * * * * * * * * * * * * //

dimensions      [0 1 -1 0 0 0 0];

internalField   nonuniform List<vector> 
6144
(
(0.0109931 0.0193786 0.000893026)
(0.0113168 -0.00768371 -0.000643022)
(0.00424876 -0.00849229 -0.00228215)
(0.00311408 -0.00811734 -0.00251342)
(0.00202997 -0.00599772 -0.0024533)
(0.00278824 -0.00253985 -0.00247042)
(0.00296925 -0.00102081 -0.00205125)
(0.0027122 0.000161911 -0.00134888)
(0.00189823 0.000590913 -0.000843165)
(0.00132303 0.00272086 -5.87372e-05)
(0.00098407 0.00443055 0.000672284)
(0.00104405 0.00535922 0.00138865)
(0.0012758 0.0052161 0.00188701)
(0.00144989 0.00431835 0.00224342)
(0.0015911 0.00314909 0.00207674)
(0.00172861 0.00204782 0.00180222)
(0.00182923 0.00107495 0.00140485)
(0.00192864 0.000351731 0.00105926)
(0.00201094 -0.000190341 0.000722949)
(0.00207177 -0.000470708 0.000428263)
(0.00212162 -0.000593819 0.000212644)
(0.00214719 -0.000592079 9.82985e-05)
(0.00215044 -0.000526427 5.63868e-05)
(0.00213254 -0.000425225 6.92528e-05)
(0.00209733 -0.000311942 0.000129784)
(0.00205029 -0.000207193 0.000229526)
(0.00199246 -0.000127879 0.000382276)
(0.00193332 -7.94652e-05 0.000545135)
(0.00188033 -7.17019e-05 0.000685073)
(0.00182771 -9.71442e-05 0.000802132)
(0.00177714 -0.000127306 0.000894685)
(0.00173024 -0.000148508 0.000972808)
(0.00168748 -0.000154241 0.00104474)
(0.00164758 -0.00015635 0.0011118)
(0.00160706 -0.000126109 0.00118108)
(0.00156657 -0.000122625 0.0012493)
(0.00152314 -2.60193e-05 0.00135856)
(0.00147112 -0.000110747 0.0014465)
(0.00142638 7.1254e-05 0.00161795)
(0.00135621 -0.000251444 0.00170434)
(0.00130372 0.000111645 0.00190101)
(0.00119815 -0.000585008 0.0019632)
(0.00114848 0.000156636 0.00208862)
(0.00100362 -0.000960575 0.00204994)
(0.000872333 0.000647074 0.00185843)
(0.00069852 -3.22993e-05 0.00154573)
(0.000345026 0.0034681 0.000819995)
(0.000245714 0.00477387 0.000607015)
(-4.0945e-05 0.00999893 -0.000107449)
(0.00153985 0.0124755 -0.00108859)
(0.00408636 0.0173394 -0.00180413)
(0.00767327 0.0109573 -0.00346049)
(0.0145386 0.0227024 -0.0074287)
(0.013099 -0.000812613 -0.00699709)
(0.00358366 0.0265355 -0.00933876)
(0.00266792 -0.0115623 -0.00557412)
(0.0206667 0.0836828 0.0179831)
(-0.000484629 -0.0744138 0.00275969)
(-0.0587219 0.128165 -0.130324)
(-0.00732513 0.00998393 -0.0969787)
(0.0599007 0.353961 0.0021326)
(0.0354945 0.379828 -0.0174036)
(0.0278845 -0.115768 -0.0182021)
(0.0252319 -0.129454 -0.0149671)
(0.0186675 -0.125676 -0.00797513)
(0.00919144 -0.122675 -0.00670259)
(0.00106239 -0.111062 -0.00550187)
(-0.0050654 -0.0867541 -0.00462938)
(-0.0101506 -0.059492 -0.00412466)
(-0.0135361 -0.0307436 -0.0025486)
(-0.0085274 -0.00430363 -0.00534979)
(-0.00252619 0.0136182 -0.00614248)
(4.96004e-05 0.0291749 -0.00458089)
(0.00249244 0.0381413 -0.00275275)
(0.00417577 0.0417346 -0.00215973)
(0.00531488 0.042529 -0.00157429)
(0.00580866 0.0427268 -0.00141345)
(0.00617682 0.0423577 -0.00113843)
(0.00636974 0.0412139 -0.000892145)
(0.0064592 0.0388943 0.000264806)
(0.00633881 0.0357042 0.00115174)
(0.00634999 0.0321946 0.00176111)
(0.00690847 0.0285226 0.00166431)
(0.00830474 0.0240342 0.000742657)
(0.0109067 0.0175628 -0.00118133)
(0.0137298 0.00771875 -0.00343165)
(0.0171453 -0.00391532 -0.0049669)
(0.0179244 -0.0172111 -0.00545447)
(0.0164991 -0.0292742 -0.00585583)
(0.0129179 -0.0379732 -0.00509761)
(0.00872823 -0.0400582 -0.00368594)
(0.00692574 -0.0374999 -0.00324606)
(0.0041966 -0.0303997 -0.00311876)
(0.00239952 -0.0226232 -0.00196364)
(-0.00033255 -0.0133872 -0.0014415)
(-0.0066835 -0.00366572 -0.000614291)
(0.0218419 0.0186432 0.00366052)
(0.022909 0.00120669 0.00318294)
(0.0104969 -0.00240763 -0.000984781)
(0.0092739 -0.00387427 -0.00121901)
(0.00541039 -0.00539627 -0.000943419)
(0.00540293 -0.00334608 -0.000315187)
(0.00422643 -0.00219617 0.00119155)
(0.00356097 -0.00017524 0.00219865)
(0.00189205 0.000918413 0.00212172)
(0.00103271 0.00408852 0.002249)
(0.00114365 0.00594822 0.00274043)
(0.00175923 0.00681914 0.00360425)
(0.00247045 0.00648386 0.00418093)
(0.00295832 0.00564012 0.00449306)
(0.00318735 0.00435573 0.00449288)
(0.00335661 0.0031433 0.0043972)
(0.00342207 0.00201812 0.00423998)
(0.00351732 0.00115992 0.0041151)
(0.00357417 0.000459158 0.00400889)
(0.00361185 2.36693e-05 0.00391285)
(0.00366222 -0.000227862 0.0037831)
(0.00367095 -0.000333926 0.00372347)
(0.0036396 -0.000349831 0.0037255)
(0.00357253 -0.000309999 0.00377677)
(0.00347651 -0.000241599 0.00386777)
(0.00336162 -0.000167763 0.00398881)
(0.00323523 -0.000105405 0.00412871)
(0.00311537 -6.37201e-05 0.00425265)
(0.00302123 -5.24275e-05 0.00432815)
(0.00292709 -6.36581e-05 0.0043964)
(0.00282926 -6.7074e-05 0.00445969)
(0.00273552 -6.07317e-05 0.00452118)
(0.0026502 -4.38446e-05 0.00458165)
(0.00256632 -3.35354e-05 0.00463966)
(0.00248273 3.11346e-06 0.00469983)
(0.00238569 -4.69111e-06 0.00475219)
(0.00232161 7.93238e-05 0.00482768)
(0.00220473 -2.90121e-05 0.00486614)
(0.00218969 0.000162475 0.00497146)
(0.00202124 -0.000222599 0.00499254)
(0.00205313 0.00017623 0.00511719)
(0.00180613 -0.000666374 0.00509437)
(0.00188259 0.000216942 0.00517645)
(0.00144724 -0.00111244 0.00507865)
(0.00125462 0.000893679 0.00504895)
(0.000296774 -0.000224996 0.00485766)
(-0.000742177 0.00367339 0.00418855)
(-0.00121938 0.0036552 0.0042681)
(-0.00161399 0.00773725 0.00375876)
(0.000985408 0.00644933 0.00344632)
(0.00556378 0.0127021 0.00149952)
(0.00919222 0.00883032 -0.0022074)
(0.0143397 0.0303198 -0.00364526)
(0.0189822 0.0224095 0.00105611)
(0.0225049 0.0471933 0.00588233)
(0.0214398 -0.0351585 0.0057055)
(-0.0102864 0.0276946 -0.00350894)
(-0.00470486 -0.00655927 -0.0409131)
(0.053211 0.205854 -0.0486697)
(0.128253 0.00963098 -0.0551547)
(0.0914727 0.341413 0.041553)
(0.0501066 0.391404 0.0103583)
(0.0404078 -0.095596 -0.0133656)
(0.0336319 -0.0854647 0.00564066)
(0.0118128 -0.089945 0.0128743)
(-0.00981311 -0.0909689 0.0108148)
(-0.0197478 -0.0818618 0.00768495)
(-0.025221 -0.0613932 0.00351973)
(-0.0265487 -0.0394107 0.00040905)
(-0.0231538 -0.0160253 0.000376809)
(-0.0193126 0.0103518 -0.00452249)
(-0.0125535 0.0295094 -0.00309501)
(-0.00582366 0.0445472 0.000136969)
(-0.000952336 0.0529552 0.00263962)
(0.00261905 0.0557261 0.00473309)
(0.00480706 0.0561283 0.00549962)
(0.00564948 0.0565785 0.00596275)
(0.00581481 0.0559209 0.00736907)
(0.00511374 0.0535052 0.00890668)
(0.00389465 0.0501244 0.0112371)
(0.00204365 0.0450725 0.0128745)
(0.000142498 0.0394137 0.0132487)
(-0.000271884 0.0343789 0.0118432)
(0.00184817 0.0300423 0.00800575)
(0.00811006 0.0253593 0.00293458)
(0.0167772 0.0172248 -0.00109258)
(0.0243397 0.00628725 -0.00323762)
(0.0269031 -0.00650517 -0.00398012)
(0.0240353 -0.0198742 -0.0032073)
(0.0151396 -0.031907 -0.0018099)
(0.00613448 -0.0382579 0.00121656)
(-0.00100057 -0.0374488 0.00243743)
(-0.0042567 -0.0307033 0.00157859)
(-0.00687603 -0.0197548 0.000166537)
(-0.0107084 -0.00787661 0.000119305)
(-0.0147894 0.000190485 0.0017818)
(0.0259176 0.0198462 0.00485253)
(0.0263887 0.00795579 0.00457393)
(0.0160304 0.00398933 0.00158966)
(0.0134247 0.00248468 0.00210743)
(0.00687626 -0.00158669 0.00302668)
(0.00505517 -0.000263559 0.00307038)
(0.00201357 -0.00108626 0.00385241)
(0.000898581 0.000582044 0.00400979)
(-0.000980761 0.000840652 0.00364856)
(-0.00150002 0.0036452 0.00354634)
(-0.000800029 0.00511761 0.00378272)
(0.000490787 0.00605265 0.0043646)
(0.00138702 0.00593928 0.00484997)
(0.00204561 0.00564617 0.00516249)
(0.00241506 0.00482018 0.00517664)
(0.00263028 0.00396244 0.00509656)
(0.0026965 0.00302935 0.0049718)
(0.002795 0.00227408 0.00489009)
(0.00283028 0.00159947 0.00483757)
(0.00280406 0.00106774 0.00482826)
(0.00273098 0.000657369 0.00484496)
(0.00264211 0.000389869 0.00488332)
(0.00253946 0.000217316 0.00493199)
(0.00242093 0.000122189 0.0049914)
(0.00229006 7.56158e-05 0.00505732)
(0.00215379 6.00476e-05 0.00512399)
(0.00201824 5.72235e-05 0.00519035)
(0.00188204 5.49266e-05 0.00525495)
(0.00173882 6.02625e-05 0.00531785)
(0.00158634 8.4989e-05 0.005378)
(0.00142946 0.000126464 0.00543837)
(0.00128574 0.00016964 0.00549954)
(0.00116095 0.000209827 0.00556094)
(0.00104089 0.000232087 0.00562063)
(0.000932395 0.000258148 0.00568223)
(0.000811409 0.000247118 0.00573856)
(0.000726968 0.000297164 0.00580213)
(0.000575997 0.0001952 0.0058401)
(0.000563932 0.000341864 0.00593147)
(0.000343244 2.44989e-06 0.00593648)
(0.000416794 0.000395937 0.0060536)
(4.41338e-05 -0.000283601 0.00599801)
(0.000136601 0.000674402 0.00609611)
(-0.000574031 -0.000259886 0.00598307)
(-0.000894341 0.00174006 0.0059255)
(-0.00201417 0.000739593 0.00582022)
(-0.00315813 0.00385828 0.00539424)
(-0.0030518 0.00219252 0.0056572)
(-0.00338306 0.0053447 0.00545502)
(-0.00174751 0.000670601 0.00572863)
(0.00240904 0.00785419 0.00255592)
(0.00525797 0.0100482 -0.00201405)
(0.0105825 0.0286062 0.000286486)
(0.0209623 -0.00770918 0.00566423)
(0.0398812 0.0129744 0.00863702)
(0.0381325 -0.0466224 0.00710885)
(-0.0243644 0.0393898 0.0108721)
(-0.0513484 -0.0817028 -0.0294376)
(-0.0132455 0.208588 -0.0670167)
(0.137002 -0.00518653 -0.0209583)
(0.125785 0.34022 0.0517573)
(0.0746539 0.412923 0.0135203)
(0.0663092 -0.0789417 -0.00739119)
(0.0456677 -0.0488561 0.0147746)
(0.0112167 -0.0628749 0.0159187)
(-0.0135619 -0.0633155 0.0132837)
(-0.0313066 -0.0535325 0.00945368)
(-0.0402665 -0.0351698 0.00401984)
(-0.0416861 -0.0172524 0.00344682)
(-0.0436618 0.0091152 -0.00206102)
(-0.0335321 0.0299811 -0.00562874)
(-0.0207552 0.0434519 -0.00101801)
(-0.0127233 0.0558686 0.00341035)
(-0.00753948 0.0630814 0.00725312)
(-0.00407446 0.0654558 0.0104727)
(-0.00204967 0.0668153 0.0117852)
(-0.0014713 0.0673288 0.0131521)
(-0.00149738 0.0665275 0.0156211)
(-0.00257073 0.0632161 0.0177792)
(-0.00423332 0.058741 0.0203477)
(-0.00661886 0.0531053 0.0205407)
(-0.00899392 0.0482172 0.0174556)
(-0.00965122 0.0442466 0.0111429)
(-0.00396835 0.0404837 0.00409888)
(0.0105288 0.0352587 -0.00123328)
(0.0283112 0.0287945 -0.00448462)
(0.0401196 0.0185409 -0.00617543)
(0.0444363 0.00685903 -0.00790987)
(0.0410653 -0.0060539 -0.00958299)
(0.0250479 -0.0200528 -0.00823242)
(0.00623211 -0.031231 -0.00181268)
(-0.00915511 -0.0367828 0.00603841)
(-0.0170394 -0.0334471 0.00825245)
(-0.0180473 -0.0265093 0.00568499)
(-0.018256 -0.0108524 0.000975033)
(-0.0257583 0.00051479 0.0026843)
(0.0277183 0.0227128 0.00475196)
(0.0283756 0.0140558 0.00434865)
(0.0185352 0.0103027 0.000759845)
(0.0158035 0.00869859 0.00170279)
(0.00809391 0.00311737 0.00294608)
(0.00526545 0.00283706 0.0033769)
(0.00130444 0.000254009 0.00453582)
(-0.000390832 0.00119688 0.00451028)
(-0.00289583 0.000204889 0.00425667)
(-0.00357002 0.00233101 0.00384566)
(-0.00251011 0.00343232 0.00404603)
(-0.000987391 0.00459652 0.00463556)
(2.28243e-05 0.00496475 0.0050685)
(0.000771109 0.00515694 0.00539001)
(0.001206 0.00474524 0.00541076)
(0.0014557 0.00419671 0.00536283)
(0.00149025 0.00341809 0.00527725)
(0.00152376 0.00275722 0.0052362)
(0.00151113 0.00214234 0.00520585)
(0.00145791 0.00163037 0.00519659)
(0.00134516 0.00117951 0.00519231)
(0.00120528 0.000825889 0.00520646)
(0.00105035 0.000551055 0.00523439)
(0.000885585 0.000356899 0.00527559)
(0.000719201 0.000229707 0.00532504)
(0.000559572 0.000160229 0.00537773)
(0.000412187 0.000133919 0.00542887)
(0.00027333 0.000137431 0.00547379)
(0.000133866 0.000160181 0.00551132)
(-1.39896e-05 0.000196581 0.0055503)
(-0.000156155 0.00023927 0.00559647)
(-0.000278891 0.000279703 0.00564769)
(-0.000384307 0.000321967 0.00569981)
(-0.000485572 0.000359008 0.0057495)
(-0.000580902 0.000401992 0.0057931)
(-0.000677921 0.000406443 0.00582654)
(-0.00074525 0.000447112 0.00586164)
(-0.000852053 0.000355939 0.0058796)
(-0.000837602 0.000469178 0.00594443)
(-0.00102791 0.000184083 0.00592898)
(-0.000930826 0.000582016 0.00602377)
(-0.00134624 5.85645e-05 0.00594461)
(-0.00127871 0.00103817 0.00599054)
(-0.00201239 0.000247273 0.0058883)
(-0.00240629 0.00200009 0.00572265)
(-0.00335285 0.000616205 0.00566117)
(-0.00434612 0.0033033 0.00493704)
(-0.00415971 0.000570546 0.00472386)
(-0.00401081 0.00441008 0.00454801)
(-0.00308558 -0.00155925 0.00430703)
(-0.00160419 0.00449959 0.000929029)
(0.00144665 0.00226663 -0.00215858)
(0.028365 0.00962262 0.0108765)
(0.0440673 -0.0363507 0.00990724)
(0.0371575 -0.02124 0.00532661)
(0.0103653 -0.0678037 0.00991781)
(-0.0272585 0.0382835 0.0222919)
(-0.0838165 -0.12561 -0.0225695)
(0.02603 0.256774 -0.115947)
(0.161299 -0.0300805 0.0003377)
(0.142184 0.379694 0.0481835)
(0.0788592 0.511356 0.00168505)
(0.0373845 0.210214 -0.0460979)
(0.0409934 0.0127688 -0.00141492)
(-0.00256952 -0.035425 6.4708e-05)
(-0.0202144 -0.0168608 0.00480302)
(-0.0408857 -0.0109144 0.00619415)
(-0.0503371 0.00266107 0.00433038)
(-0.0576287 0.040141 -0.000552599)
(-0.0471011 0.31805 -0.00575736)
(-0.0332182 0.43972 -0.00128262)
(-0.026487 0.081454 0.00151886)
(-0.0204104 0.0863428 0.00644795)
(-0.017164 0.195355 0.0108311)
(-0.0153596 0.512017 0.0152171)
(-0.0145903 0.48843 0.0166938)
(-0.0133003 0.099344 0.017797)
(-0.0132864 0.0949086 0.0201364)
(-0.0153799 0.190889 0.0213912)
(-0.0202041 0.492394 0.0194178)
(-0.0212557 0.469017 0.016551)
(-0.0203501 0.0778962 0.013729)
(-0.0147965 0.0492712 0.00918089)
(-0.001537 0.0631062 0.00469078)
(0.026788 0.36632 2.34382e-05)
(0.0441397 0.396298 -0.00291622)
(0.0559784 0.0411897 -0.00498633)
(0.0644878 0.0134825 -0.00760823)
(0.0638241 0.00208907 -0.0123326)
(0.0475688 -0.00870815 -0.0160611)
(0.0166063 -0.0220403 -0.0158767)
(-0.0141716 -0.0318612 -0.00293602)
(-0.030658 -0.0320227 0.00821549)
(-0.0367871 -0.0267721 0.0086783)
(-0.0370081 -0.016351 0.00394571)
(-0.0336426 0.000822968 0.00122349)
(0.0294655 0.0256075 0.00476631)
(0.0304196 0.019843 0.0038721)
(0.0219414 0.0162477 0.000727348)
(0.0211642 0.0146206 0.000408286)
(0.0117993 0.007337 5.87039e-08)
(0.00778056 0.00528114 0.00091758)
(0.00115955 0.000175642 0.00299869)
(-0.000941492 0.00151804 0.00341297)
(-0.00393668 -0.000577445 0.00391113)
(-0.00519783 0.00123611 0.00382246)
(-0.00449687 0.00211107 0.00403957)
(-0.00315185 0.00355425 0.0046633)
(-0.00221566 0.00419246 0.00498743)
(-0.00130352 0.00464212 0.00533079)
(-0.000756658 0.00446463 0.00532184)
(-0.000488908 0.00406064 0.00529708)
(-0.000549075 0.0034113 0.00523356)
(-0.000683574 0.00285254 0.00522618)
(-0.000844575 0.00232486 0.00520393)
(-0.000996262 0.00186466 0.00517623)
(-0.00116574 0.00142183 0.0051368)
(-0.00133442 0.00103407 0.00510995)
(-0.00149869 0.000709032 0.00509836)
(-0.00166595 0.000461109 0.00509885)
(-0.00183761 0.000285028 0.00510585)
(-0.00199613 0.00017717 0.0051176)
(-0.00213147 0.000123181 0.0051326)
(-0.00224667 0.00010869 0.00514624)
(-0.00236062 0.000119291 0.005155)
(-0.00248218 0.000151176 0.0051606)
(-0.0026013 0.000198149 0.00517217)
(-0.00270631 0.000245938 0.0051849)
(-0.00279531 0.000296052 0.00519824)
(-0.00287598 0.000341176 0.00521181)
(-0.00294329 0.000391404 0.00522539)
(-0.0030074 0.000408465 0.00523349)
(-0.0030483 0.000453808 0.00524666)
(-0.00312337 0.000393523 0.00524674)
(-0.00310453 0.000521627 0.00528057)
(-0.00328223 0.000339368 0.00524812)
(-0.00322177 0.000770481 0.00529405)
(-0.00362859 0.000452009 0.00519408)
(-0.00364863 0.0014161 0.00515368)
(-0.00431538 0.000833633 0.00501633)
(-0.00459045 0.00230813 0.00470542)
(-0.00534271 0.000785235 0.00433222)
(-0.00553072 0.00307436 0.00332819)
(-0.00520997 -0.00061276 0.00268314)
(-0.00431008 0.00242952 0.00242244)
(-0.00300168 -0.00395278 0.00182472)
(-0.000912441 0.00218544 -0.000365087)
(0.00822908 -0.0093681 0.0022701)
(0.0405501 -0.00836466 0.0147463)
(0.0617798 -0.0418288 0.00935171)
(0.0455505 -0.0301352 0.00287953)
(0.00967857 -0.0862419 0.0113303)
(-0.0236772 -0.019205 0.0263076)
(-0.108948 -0.157497 0.0342248)
(0.00991799 0.18381 -0.136627)
(0.145342 -0.0226433 0.0328783)
(0.147958 0.383482 0.0524878)
(0.0702448 0.555776 -0.00611329)
(0.0449501 0.439569 -0.00393714)
(-0.00460792 0.522519 -0.00565325)
(-0.023611 0.479912 0.000250672)
(-0.0434934 0.505593 -0.00137823)
(-0.0546777 0.493839 -0.0023708)
(-0.058717 0.506303 -0.0048161)
(-0.0527584 0.521982 -0.00591955)
(-0.0395166 0.533972 -0.00155607)
(-0.034391 0.550324 0.00420292)
(-0.0312387 0.558413 0.00777362)
(-0.0296759 0.530516 0.0105329)
(-0.029271 0.567004 0.0145756)
(-0.0294318 0.577186 0.0184263)
(-0.0292754 0.570952 0.0200259)
(-0.0287102 0.55864 0.0214472)
(-0.0279758 0.55484 0.0219346)
(-0.0268596 0.56395 0.020776)
(-0.025829 0.572201 0.0191823)
(-0.021136 0.550635 0.0155263)
(-0.0121785 0.542218 0.0123465)
(0.00185026 0.532854 0.00871404)
(0.0205485 0.528399 0.00499591)
(0.0386426 0.518386 0.000394092)
(0.0564178 0.512579 -0.00323121)
(0.0686072 0.506465 -0.00552952)
(0.0746592 0.476941 -0.00793019)
(0.0726062 0.352362 -0.0124993)
(0.0704181 0.0207239 -0.0144302)
(0.0455982 -0.0122967 -0.0168154)
(-0.00581121 -0.0270858 -0.017616)
(-0.0387629 -0.0296787 0.00266538)
(-0.0478962 -0.0231094 0.00899449)
(-0.0490552 -0.0157719 0.00411856)
(-0.0516158 -0.0028155 0.00232674)
(0.0293485 0.0274302 0.0088224)
(0.0319278 0.0243925 0.00559093)
(0.0244409 0.0205104 0.0025368)
(0.0254171 0.0192646 0.00149343)
(0.0179977 0.0114837 -0.00124832)
(0.0139978 0.00923276 -0.000845694)
(0.00334438 0.000191984 -0.000527141)
(-0.000962449 0.00159249 0.000548346)
(-0.00474308 -0.00169364 0.00197215)
(-0.00719701 -0.000224546 0.00277866)
(-0.00643538 0.000459522 0.00325546)
(-0.00482028 0.00222079 0.00418542)
(-0.00337033 0.00316004 0.00458175)
(-0.00213757 0.00390534 0.00516885)
(-0.00134187 0.00382774 0.00535689)
(-0.000978811 0.00349998 0.00550477)
(-0.00110497 0.00288846 0.00547101)
(-0.00137323 0.00244606 0.00545165)
(-0.00163139 0.00208376 0.00539283)
(-0.001852 0.00180641 0.00530763)
(-0.00207014 0.00151885 0.00518435)
(-0.00228549 0.00123582 0.00506028)
(-0.00250441 0.00097514 0.00494525)
(-0.0027031 0.000753925 0.00484349)
(-0.00287984 0.000592131 0.00475147)
(-0.00302307 0.000493901 0.00466323)
(-0.00313402 0.00044073 0.00457931)
(-0.00322334 0.000417047 0.00450167)
(-0.00331443 0.000405155 0.00443733)
(-0.00342197 0.000406454 0.00438759)
(-0.00351748 0.000428252 0.00435612)
(-0.00359368 0.000463073 0.00433475)
(-0.00365222 0.000511137 0.00431939)
(-0.00370257 0.000562734 0.0043081)
(-0.00373773 0.000626655 0.00429809)
(-0.00376734 0.000662986 0.00428406)
(-0.00377534 0.000727092 0.00427611)
(-0.00381348 0.000714318 0.00426031)
(-0.00378286 0.00087443 0.00426998)
(-0.00393903 0.000787724 0.00422364)
(-0.00394874 0.001262 0.00421141)
(-0.00436299 0.00111314 0.00403853)
(-0.00450286 0.00204045 0.00387614)
(-0.00489593 0.00154635 0.00363029)
(-0.00485319 0.00282515 0.00325784)
(-0.00493144 0.00130442 0.00302154)
(-0.00417463 0.00325817 0.00211912)
(-0.00341003 -0.000500524 0.00172121)
(-0.00173058 0.00152757 0.00167089)
(-0.00188314 -0.00564829 0.000927622)
(0.00386031 0.000109771 0.00205039)
(0.0176884 -0.0164185 0.00792946)
(0.048028 -0.00453818 0.0297429)
(0.0683531 -0.0162996 0.0266113)
(0.064998 0.00891254 0.0304611)
(0.00781239 -0.0605214 0.0418468)
(-0.0528192 -0.00657499 0.0593691)
(-0.161912 -0.115853 0.0627459)
(0.011819 0.168252 -0.153185)
(0.129634 -0.0253159 0.0501952)
(0.146703 0.407301 0.0538613)
(0.0665217 0.580756 -0.0174227)
(0.0443035 0.507483 -0.00353057)
(-0.00304691 0.558242 -0.00701586)
(-0.0179418 0.537887 -0.00621547)
(-0.0422339 0.553608 -0.00769311)
(-0.0456649 0.552075 -0.00634863)
(-0.0475607 0.524407 -0.00468039)
(-0.0431709 0.555521 -0.000338067)
(-0.0407884 0.534234 0.00377049)
(-0.0402548 0.549063 0.00727879)
(-0.0400386 0.568381 0.010354)
(-0.0403781 0.590029 0.0132248)
(-0.040679 0.590391 0.016895)
(-0.0409364 0.584804 0.0187301)
(-0.0394892 0.582463 0.0203154)
(-0.03777 0.586892 0.02041)
(-0.0347226 0.583269 0.0201766)
(-0.03006 0.571301 0.0183521)
(-0.0241955 0.565309 0.0161671)
(-0.0159079 0.55481 0.0133812)
(-0.0045668 0.541666 0.00949927)
(0.0110874 0.528889 0.00547314)
(0.0245036 0.510942 0.00288584)
(0.0471776 0.493935 -0.00102187)
(0.0641853 0.50401 -0.00359114)
(0.0723107 0.511454 -0.00527687)
(0.0800539 0.499384 -0.00767063)
(0.0743698 0.490166 -0.0131445)
(0.0543506 0.479907 -0.0159103)
(0.0207628 0.446783 -0.0159172)
(-0.0289948 0.297223 -0.0192734)
(-0.0426949 -0.00711721 -0.0113268)
(-0.0627318 -0.0243762 0.00540041)
(-0.0633386 -0.0158291 0.00400152)
(-0.0590285 -0.00117738 -0.00317337)
(0.0266708 0.0285486 0.0107016)
(0.0305937 0.028086 0.00887629)
(0.0236645 0.0230639 0.00506102)
(0.0255429 0.0218596 0.00518432)
(0.0210408 0.0133618 0.000971292)
(0.0192395 0.012301 0.00105603)
(0.0077966 0.00118688 -0.00249699)
(0.000513451 0.00189844 -0.00158217)
(-0.00391657 -0.002211 8.00633e-05)
(-0.00750389 -0.0011526 0.0017339)
(-0.00783325 -0.000988602 0.00243012)
(-0.00698421 0.0012641 0.00371801)
(-0.00604914 0.00237398 0.00427527)
(-0.00453646 0.00298812 0.0052722)
(-0.00353731 0.00293522 0.0058845)
(-0.00313872 0.00274272 0.00632257)
(-0.00342411 0.00227453 0.00637672)
(-0.00402425 0.0019655 0.0062738)
(-0.0045389 0.00175875 0.00609075)
(-0.0048891 0.00167317 0.00588655)
(-0.00511537 0.00159272 0.0056393)
(-0.00529732 0.00151224 0.00540137)
(-0.00544186 0.00142334 0.00518203)
(-0.00557894 0.00133835 0.00500025)
(-0.00572495 0.00128697 0.00486661)
(-0.00582214 0.00125761 0.00472808)
(-0.00586808 0.00123594 0.00460358)
(-0.00586456 0.00121453 0.00451296)
(-0.00586645 0.00118104 0.00445638)
(-0.0059032 0.00115238 0.00442514)
(-0.00594857 0.00114802 0.00441477)
(-0.0059828 0.00116017 0.00441397)
(-0.00600373 0.00119049 0.00441929)
(-0.0060181 0.00123621 0.00442707)
(-0.00600748 0.00130651 0.00443672)
(-0.00597874 0.0013662 0.0044476)
(-0.0059541 0.00145396 0.00445345)
(-0.00594986 0.0015088 0.00445051)
(-0.00594542 0.00170788 0.00444916)
(-0.00605904 0.00172689 0.00442436)
(-0.00619246 0.00221541 0.00437364)
(-0.0064098 0.00211569 0.00421428)
(-0.00654643 0.00286052 0.00399439)
(-0.00647683 0.00223794 0.00370739)
(-0.0062777 0.00321312 0.00329903)
(-0.00586665 0.00168662 0.00305495)
(-0.00442731 0.00330178 0.00250253)
(-0.00321895 -0.000231941 0.00257824)
(-0.000832922 0.00101506 0.00275015)
(0.000363256 -0.00538324 0.00150844)
(0.0067292 -0.00224241 0.00165756)
(0.0161641 -0.00554362 0.0102347)
(0.0308403 0.00570971 0.0404625)
(0.0566287 0.00568078 0.052474)
(0.0589441 0.0362606 0.0676989)
(0.00657551 -0.00969234 0.0702276)
(-0.0514541 0.0334539 0.124681)
(-0.151615 -0.126235 0.103887)
(0.0252367 0.0988803 -0.127021)
(0.0898737 -0.00746628 0.0633689)
(0.118212 0.464645 0.0546626)
(0.0571906 0.585018 -0.0206157)
(0.0514282 0.531834 -0.00309953)
(0.0122016 0.535728 -0.00706806)
(-0.00621723 0.438917 -0.00463475)
(-0.0291146 0.567604 -0.00285604)
(-0.0381629 0.587051 -0.000468046)
(-0.042979 0.561464 0.00152327)
(-0.04471 0.59543 0.00483629)
(-0.0454943 0.590372 0.00722086)
(-0.0458962 0.537759 0.00882035)
(-0.0468653 0.609605 0.00968834)
(-0.0474762 0.607633 0.0104226)
(-0.0477313 0.606548 0.0118528)
(-0.0472205 0.606774 0.0133825)
(-0.0444575 0.569369 0.0133054)
(-0.0411217 0.427066 0.0133232)
(-0.0373699 0.591069 0.0129079)
(-0.0312259 0.563249 0.012791)
(-0.0218755 0.562759 0.0115757)
(-0.0126025 0.552349 0.00911279)
(-0.00091731 0.530773 0.00743964)
(0.0169444 0.501781 0.00793982)
(0.0320149 0.342257 0.0094216)
(0.0415361 0.0623459 0.00998843)
(0.0658277 0.32404 0.00661643)
(0.0839704 0.479873 0.00222198)
(0.0933445 0.45696 -0.00226281)
(0.0930081 0.452798 -0.00906131)
(0.0726672 0.456297 -0.0172472)
(0.0373329 0.46351 -0.0195653)
(-0.0131179 0.46815 -0.0193452)
(-0.0582268 0.446101 -0.0117695)
(-0.0731261 0.424118 -0.00208259)
(-0.0749598 0.342673 -0.00548824)
(-0.0736029 0.0198986 -0.00714407)
(0.0256335 0.0271793 0.0110699)
(0.0280315 0.0321159 0.0092522)
(0.0210432 0.0268074 0.00581257)
(0.0247883 0.0262174 0.00670293)
(0.0204875 0.0156755 0.00308591)
(0.020783 0.0142525 0.0042459)
(0.0111605 0.00193591 -0.00133337)
(0.00101841 0.00174246 -0.00256765)
(-0.00405532 -0.00251669 -0.00045204)
(-0.00839627 -0.000968235 0.00103996)
(-0.00939041 -0.00192668 0.00188456)
(-0.00874012 -0.000324804 0.00339775)
(-0.00623009 -7.61026e-05 0.00465201)
(-0.00427226 0.000371153 0.00598069)
(-0.00328892 0.000384694 0.00695937)
(-0.00303785 0.000709149 0.00781187)
(-0.00326048 0.000979424 0.00825161)
(-0.00376433 0.00129713 0.00833742)
(-0.00422729 0.00153439 0.00820616)
(-0.00455974 0.00180597 0.00797996)
(-0.00480744 0.00199538 0.00766689)
(-0.00500332 0.00208568 0.00735579)
(-0.00515804 0.00212035 0.00707053)
(-0.00529121 0.00212257 0.0068138)
(-0.00541147 0.00210043 0.00659225)
(-0.00547805 0.00206802 0.00641251)
(-0.00549314 0.00202967 0.00625915)
(-0.00545834 0.00197154 0.00614637)
(-0.00543194 0.0018904 0.00606878)
(-0.00543873 0.001828 0.00602861)
(-0.00545326 0.001805 0.00600983)
(-0.00545602 0.00181626 0.00599911)
(-0.00545694 0.00184852 0.0059862)
(-0.00546781 0.00190126 0.00596048)
(-0.00546215 0.00197833 0.00592069)
(-0.00543712 0.00204682 0.00587228)
(-0.00541725 0.00214689 0.00581501)
(-0.00540954 0.00223133 0.00574669)
(-0.00542686 0.00244224 0.00567631)
(-0.00551029 0.00246968 0.00558931)
(-0.0056636 0.00288157 0.0054878)
(-0.00568443 0.00269598 0.00528433)
(-0.00578899 0.00327358 0.00508204)
(-0.00541013 0.00247828 0.00480682)
(-0.00522222 0.00332954 0.00455501)
(-0.00467376 0.00164834 0.00443438)
(-0.0037021 0.00321004 0.00430103)
(-0.00228543 0.000379992 0.00466924)
(-0.00174289 0.00255316 0.0034462)
(-0.00146359 -0.000758181 -0.00198479)
(-0.00153072 0.00597579 -0.004709)
(0.0111886 0.00580868 0.000496739)
(0.0208167 0.0135706 0.0242121)
(0.0222155 -0.00468454 0.0527173)
(0.0208807 0.0385657 0.083707)
(-0.0273214 0.00852606 0.0968248)
(-0.0358833 0.0219014 0.146137)
(-0.0978431 -0.119872 0.114659)
(0.0170915 0.0162714 -0.101428)
(0.0415727 0.0334662 0.0616016)
(0.0666789 0.513149 0.0544548)
(0.0339843 0.618838 -0.0103644)
(0.0282237 0.600845 0.00476498)
(0.00738654 0.638855 0.00261525)
(-0.0111548 0.632429 0.000476476)
(-0.0203969 0.630227 0.00140516)
(-0.0339814 0.639195 0.00113459)
(-0.0365132 0.661975 0.00181076)
(-0.0395888 0.635909 0.00235642)
(-0.0411724 0.636646 0.0033147)
(-0.0422978 0.63036 0.00401977)
(-0.0445327 0.626337 0.00451458)
(-0.0455563 0.626892 0.00438469)
(-0.0447543 0.617499 0.00450186)
(-0.0434524 0.614892 0.00608894)
(-0.0416748 0.602259 0.00612234)
(-0.0360289 0.594793 0.00840272)
(-0.0288931 0.592552 0.0131928)
(-0.0187676 0.579409 0.0175011)
(-0.00597288 0.570617 0.022172)
(0.00986343 0.554537 0.0220447)
(0.0245738 0.539086 0.0177305)
(0.0381358 0.529494 0.0193608)
(0.0551012 0.518334 0.0211553)
(0.0662449 0.484012 0.0187652)
(0.0790233 0.4349 0.0197195)
(0.0921361 0.342962 0.0198642)
(0.0963999 0.0291604 0.0197348)
(0.106314 0.0116409 0.0193523)
(0.103611 0.0160771 0.0161338)
(0.0863425 0.0175284 0.00684623)
(0.050534 0.0236557 -0.00815935)
(-0.0261177 0.0115192 -0.0193208)
(-0.0663965 0.0119078 -0.00951053)
(-0.0807811 0.0314855 -0.0105679)
(-0.0877768 0.0798134 -0.0477541)
(0.0122049 0.0254497 -0.00138226)
(0.0234891 0.0316685 0.00687716)
(0.0151348 0.0299253 0.00382988)
(0.0228469 0.0316244 0.00597207)
(0.0184223 0.0192427 0.00359472)
(0.0200528 0.017076 0.00599638)
(0.0130415 0.00334989 0.000258704)
(0.00228485 0.00289195 -0.00665888)
(-0.00537019 -0.00265686 -0.00482566)
(-0.00828044 -0.000290396 -0.00291127)
(-0.00957126 -0.00247473 -0.00176958)
(-0.00933375 -0.00189031 -0.000644051)
(-0.00851658 -0.00256655 0.000660565)
(-0.00742054 -0.00195582 0.00206918)
(-0.00700746 -0.00147527 0.00314114)
(-0.00714937 -0.000617334 0.0041311)
(-0.00771019 0.000139941 0.00490382)
(-0.00832281 0.000839826 0.005368)
(-0.00886859 0.0013561 0.00553121)
(-0.00923307 0.00179596 0.00549954)
(-0.00923623 0.00209881 0.00534747)
(-0.00920349 0.00229528 0.00516879)
(-0.00915695 0.00241038 0.00499607)
(-0.00910268 0.0024692 0.00483543)
(-0.00903992 0.00248048 0.0046891)
(-0.00894351 0.00245886 0.00455933)
(-0.0088219 0.0024219 0.00444217)
(-0.00866488 0.00237256 0.00434409)
(-0.00856394 0.00231205 0.00426679)
(-0.00856624 0.00225866 0.00421946)
(-0.00858557 0.00223122 0.00418765)
(-0.00858268 0.00224109 0.00416581)
(-0.00856565 0.00226536 0.00414511)
(-0.00854256 0.00232293 0.00411094)
(-0.00848188 0.0024075 0.00405706)
(-0.00840177 0.00247449 0.00398828)
(-0.00836151 0.0025819 0.00389307)
(-0.008318 0.00268918 0.00378758)
(-0.0083334 0.00292707 0.00367352)
(-0.0082806 0.00302519 0.00358251)
(-0.00851083 0.00348069 0.00347778)
(-0.00834557 0.00317471 0.00331944)
(-0.00849405 0.00358469 0.0031886)
(-0.00789939 0.00252065 0.00293856)
(-0.00776866 0.00320705 0.00281046)
(-0.0071092 0.00126769 0.00276721)
(-0.00684145 0.0030683 0.00282151)
(-0.0057034 0.000230186 0.00336016)
(-0.00700974 0.00358922 0.00263361)
(-0.00633366 -0.00228702 -0.00166807)
(-0.00308467 0.000264901 0.000402067)
(0.0160639 -0.0188595 0.00999938)
(0.0235556 -0.00040214 0.0146058)
(-0.00407882 -0.013292 0.0349823)
(-0.028799 0.0149738 0.0773409)
(-0.0432192 -0.0131798 0.0918202)
(-0.0192687 -0.0130164 0.13403)
(-0.031806 -0.132188 0.126274)
(-0.00805114 0.0173278 -0.116719)
(-0.00394343 0.0300772 0.0515434)
(-0.00658777 0.504755 0.0383574)
(0.00423791 0.610533 -0.0148802)
(-0.000773636 0.577747 0.00133462)
(0.00160581 0.650225 0.00220609)
(-0.00944 0.605268 0.00195501)
(-0.0160388 0.597323 0.00213907)
(-0.026016 0.633911 0.00173956)
(-0.0293773 0.544172 0.00187164)
(-0.0344162 0.594592 0.00128281)
(-0.0367393 0.547699 0.00110611)