/*--------------------------------*- C++ -*----------------------------------*\
| =========                 |                                                 |
| \\      /  F ield         | OpenFOAM: The Open Source CFD Toolbox           |
|  \\    /   O peration     | Version:  2.3.0                                 |
|   \\  /    A nd           | Web:      www.OpenFOAM.org                      |
|    \\/     M anipulation  |                                                 |
\*---------------------------------------------------------------------------*/
FoamFile
{
    version     2.0;
    format      ascii;
    class       volVectorField;
    location    "40";
    object      U.airMean;
}
// * * * * * * * * * * * * * * * * * * * * * * * * * * * * * * * * * * * * * //

dimensions      [0 1 -1 0 0 0 0];

internalField   nonuniform List<vector> 
6144
(
(0.00937098 0.0199116 -0.00064152)
(0.00965997 0.000242046 -0.00149578)
(0.00466 -0.00136892 -0.00244236)
(0.00435414 -0.00236432 -0.00235102)
(0.00278487 -0.00263171 -0.00192974)
(0.00295499 -0.00118344 -0.00169158)
(0.00249988 -0.00112199 -0.00132235)
(0.00251466 5.13552e-09 -0.00102914)
(0.00226589 0.000320705 -0.000949646)
(0.00213327 0.00152155 -0.000677485)
(0.00200664 0.00235512 -0.000424921)
(0.00209725 0.00301312 -5.70808e-05)
(0.00223231 0.00297471 9.08846e-05)
(0.00237263 0.00260395 0.00026433)
(0.00244351 0.00197298 0.000165646)
(0.00251512 0.00142937 5.23696e-05)
(0.0025526 0.000909653 -0.00014549)
(0.0025938 0.00056156 -0.000298093)
(0.00262425 0.00027695 -0.000459437)
(0.00264613 0.000123789 -0.00057558)
(0.00265813 2.52591e-05 -0.000662096)
(0.00266171 -1.17959e-06 -0.000707451)
(0.00265638 -2.3917e-06 -0.000723418)
(0.00264439 2.36088e-05 -0.00071475)
(0.00262623 5.73568e-05 -0.000686509)
(0.00260346 9.53762e-05 -0.000640934)
(0.00257696 0.000131585 -0.000581169)
(0.00254857 0.000161461 -0.000513658)
(0.00251953 0.00018764 -0.000442174)
(0.00248927 0.000191364 -0.000369694)
(0.00245851 0.000204655 -0.000295261)
(0.00242064 0.000161519 -0.000214608)
(0.00238236 0.000179652 -0.000121699)
(0.00233398 5.37384e-05 -8.00838e-06)
(0.00229328 6.13567e-05 0.000134968)
(0.00224462 -0.000266573 0.00030122)
(0.00221676 -0.000347245 0.000474077)
(0.00218347 -0.000998726 0.000609391)
(0.0021813 -0.00112507 0.000670492)
(0.00217731 -0.00200242 0.000603477)
(0.00219279 -0.00186723 0.000358484)
(0.00220754 -0.00250805 -0.000136733)
(0.00222365 -0.00135604 -0.000744789)
(0.0023587 -0.00105357 -0.00128301)
(0.00264763 0.00115619 -0.00163099)
(0.00314542 0.000876979 -0.00185794)
(0.0039785 0.00227976 -0.00245364)
(0.00456093 0.000930498 -0.00350608)
(0.00255584 0.00591958 -0.00463767)
(0.00258887 0.011926 -0.00647333)
(0.0133171 0.0176973 -0.00943242)
(0.0246926 0.00137029 -0.010416)
(0.0334348 -0.0086275 -0.01202)
(0.0342833 -0.0483859 -0.0114117)
(0.0309627 -0.045591 -0.0140475)
(0.0272343 -0.0877778 -0.0096197)
(0.010528 -0.0445232 -0.0174762)
(0.00778924 -0.0987412 0.0185254)
(-0.0335672 0.0211238 -0.0505397)
(0.03164 0.109942 0.0414382)
(0.108559 0.319316 0.0379603)
(0.0457517 0.390941 -0.00590156)
(0.0447642 -0.0847191 0.0019917)
(0.0493207 -0.17359 0.00573959)
(0.0408182 -0.180276 0.00598427)
(0.0338918 -0.173274 0.005811)
(0.0279365 -0.173231 0.00487111)
(0.0233179 -0.167979 0.0042516)
(0.0201447 -0.165953 0.00433942)
(0.0176868 -0.159772 0.0045944)
(0.0159004 -0.1565 0.00506567)
(0.0140585 -0.150341 0.00537726)
(0.0120139 -0.14467 0.00579162)
(0.00900775 -0.136467 0.00613777)
(0.00529874 -0.12668 0.00657135)
(0.00270505 -0.112936 0.00525391)
(0.00139167 -0.0993461 0.00254546)
(-0.000319126 -0.0851994 0.000980556)
(-0.00146407 -0.0709316 0.000912231)
(-8.73966e-05 -0.0571986 0.00154526)
(0.00196164 -0.0463093 0.0018411)
(0.00304334 -0.0376121 0.00232541)
(0.00324533 -0.0318401 0.00352573)
(0.00218135 -0.0278724 0.00399702)
(0.00158027 -0.0225639 0.00360273)
(0.00193384 -0.0165149 0.00279664)
(0.0023009 -0.0098836 0.00253845)
(0.00230075 -0.00296619 0.00180512)
(0.00162887 0.00391174 0.0007257)
(0.000440947 0.0128576 -1.95964e-05)
(0.000941739 0.0211674 0.00070976)
(0.00145096 0.0278434 0.0025829)
(0.00139219 0.0317796 0.00519644)
(0.00185272 0.0324092 0.00874526)
(0.00400029 0.030032 0.0120407)
(0.00802082 0.0184522 0.0167249)
(0.0185237 0.0214472 0.00285348)
(0.0196074 0.00815418 0.00240195)
(0.0103571 0.00494856 -0.000329082)
(0.0102171 0.00360914 0.000356704)
(0.00612371 0.000638807 0.00103567)
(0.0059897 0.00110026 0.00158246)
(0.00436558 -0.000107067 0.00209886)
(0.00421373 0.00116974 0.00206786)
(0.00364371 0.00148447 0.00197451)
(0.00349685 0.00294816 0.00202623)
(0.00344403 0.00363685 0.00216647)
(0.00383987 0.00418598 0.00258737)
(0.00420447 0.0039458 0.00278751)
(0.00458711 0.00354344 0.00294949)
(0.0047193 0.00281016 0.00291529)
(0.00485061 0.00219377 0.00287557)
(0.0048682 0.00156118 0.00278334)
(0.00491344 0.00112828 0.00272211)
(0.00493165 0.00075171 0.00264323)
(0.00494505 0.000526449 0.00259517)
(0.00494395 0.000365479 0.00255333)
(0.00493085 0.000294235 0.00254065)
(0.00490172 0.000258408 0.00255146)
(0.00486072 0.000261344 0.00258517)
(0.00480973 0.000279127 0.00263453)
(0.00475144 0.000307799 0.00269628)
(0.004688 0.000338096 0.00276416)
(0.00462377 0.000363397 0.00283072)
(0.00456129 0.000383473 0.0028958)
(0.00450041 0.00038028 0.00295441)
(0.00444195 0.000383595 0.00301152)
(0.0043713 0.000320952 0.00307207)
(0.00430871 0.000318138 0.0031389)
(0.00423312 0.000147012 0.00321232)
(0.00419636 0.000131749 0.00329915)
(0.00415258 -0.000250323 0.00339077)
(0.00417579 -0.000304314 0.00348696)
(0.00417052 -0.000987057 0.00356199)
(0.00422949 -0.00100754 0.00360653)
(0.00421975 -0.0019167 0.00357827)
(0.00420148 -0.00161642 0.00344727)
(0.00409575 -0.00235937 0.00305872)
(0.00401659 -0.00107856 0.0023536)
(0.00404683 -0.0011846 0.00164552)
(0.00460132 0.000935933 0.001267)
(0.00571779 7.27237e-05 0.00105042)
(0.0064285 0.00191484 -0.000148108)
(0.00560921 0.00342266 -0.00160245)
(0.00341792 0.0105218 -0.00194159)
(0.00788052 0.00753274 -0.00181042)
(0.0285603 0.00215858 -0.00299914)
(0.0461115 -0.0169863 -0.00332108)
(0.0607779 -0.0214245 -0.00235743)
(0.0602419 -0.0505615 -5.39191e-05)
(0.0510199 -0.0394733 0.00371507)
(0.0496337 -0.0956556 0.0129278)
(0.0105135 -0.0482482 0.011255)
(0.00281692 -0.160526 0.0406808)
(-0.0886511 0.0394213 -0.0812258)
(0.0211732 0.0453885 0.0233535)
(0.119892 0.349199 0.0818058)
(0.0251401 0.427058 0.00409445)
(0.0219129 -0.0678811 0.00756598)
(0.0256133 -0.0322184 0.0152704)
(0.0129248 -0.0489986 0.0168551)
(0.00605075 -0.0364864 0.014317)
(0.00301242 -0.0372849 0.0111518)
(0.00321901 -0.0317734 0.0109399)
(0.00482976 -0.0315638 0.0110679)
(0.00492953 -0.0277581 0.00975223)
(0.00379257 -0.0284829 0.010273)
(0.00171052 -0.0281689 0.0109929)
(-0.000599989 -0.0314489 0.0108007)
(-0.00408376 -0.0331531 0.00921297)
(-0.00762528 -0.0350812 0.00752982)
(-0.00886004 -0.03308 0.00623379)
(-0.00869039 -0.0309781 0.00466724)
(-0.00931821 -0.0279887 0.00426255)
(-0.00915851 -0.0242875 0.00436852)
(-0.00701098 -0.0212685 0.00529054)
(-0.00437527 -0.0179837 0.00576092)
(-0.00246625 -0.0149382 0.00710882)
(-0.00124525 -0.0150533 0.00884969)
(-0.00181205 -0.0168796 0.00913679)
(-0.00323878 -0.0176037 0.00776659)
(-0.00324309 -0.0171203 0.00665274)
(-0.00276016 -0.0142037 0.00525567)
(-0.00264262 -0.00905142 0.0039131)
(-0.00244713 -0.00338868 0.00262554)
(-0.00263927 0.00321961 0.00111123)
(-0.00220473 0.00929357 0.00187622)
(-0.00143055 0.0148465 0.00296654)
(-0.00191553 0.0200569 0.00573714)
(-0.0014111 0.0209674 0.0102703)
(-0.000161937 0.021317 0.0149731)
(0.00346455 0.012032 0.0212975)
(0.0218893 0.0215581 0.00395564)
(0.0236639 0.0125343 0.00381485)
(0.014101 0.00837512 0.00120786)
(0.0136356 0.00790169 0.00207372)
(0.00759822 0.00364023 0.00265374)
(0.00675845 0.0036618 0.00301932)
(0.0037672 0.00129761 0.00355574)
(0.00336184 0.00232587 0.00344323)
(0.00252185 0.00235877 0.00333077)
(0.00262959 0.00356766 0.00341468)
(0.00264993 0.00374609 0.00348396)
(0.00335224 0.0041844 0.00377595)
(0.00379392 0.00387789 0.00393207)
(0.00429183 0.0036859 0.00407125)
(0.00446564 0.00311167 0.00404752)
(0.00463578 0.00264793 0.00403655)
(0.0046158 0.00207936 0.00399162)
(0.00463813 0.0016786 0.0039798)
(0.0045925 0.00128874 0.00396946)
(0.00455372 0.00102934 0.00398285)
(0.00448537 0.000811621 0.0040031)
(0.00441798 0.000682902 0.00403716)
(0.00434307 0.000593338 0.0040748)
(0.00426659 0.000550747 0.00411853)
(0.00418726 0.000530182 0.00416499)
(0.00410747 0.000526423 0.00421312)
(0.00402636 0.000527082 0.00426202)
(0.00394378 0.000525285 0.00431251)
(0.00386233 0.00052018 0.00436451)
(0.00377812 0.000495529 0.004418)
(0.00369444 0.000478175 0.00447324)
(0.00359873 0.000400265 0.00453026)
(0.00351617 0.000375485 0.00459029)
(0.00341865 0.000199291 0.0046507)
(0.00337534 0.000191834 0.0047136)
(0.00332245 -0.000119753 0.00477027)
(0.00335986 -4.9544e-05 0.00482434)
(0.00336063 -0.000508359 0.00485772)
(0.00345742 -0.000245598 0.00487099)
(0.00346979 -0.00079406 0.00483455)
(0.00353688 -0.000146992 0.00473352)
(0.00341248 -0.000722948 0.00453054)
(0.00331524 0.000426973 0.00420774)
(0.00338349 -0.000310733 0.00376088)
(0.00404453 0.000987137 0.00342428)
(0.00514635 -0.000351204 0.00319701)
(0.00523766 0.00218903 0.00205346)
(0.00439501 0.00306612 0.000892963)
(0.00557478 0.00748843 0.00138516)
(0.0178796 -0.00342987 0.00181646)
(0.0431501 -0.00814945 0.000833257)
(0.06542 -0.0209926 0.00175204)
(0.077054 -0.015499 0.00463472)
(0.0771728 -0.033781 0.00708281)
(0.0704456 -0.0163973 0.0157448)
(0.0690887 -0.0778204 0.0270795)
(0.0202357 -0.0186164 0.0364602)
(0.0276613 -0.179615 0.0680454)
(-0.103135 0.0808468 -0.0662852)
(0.0493121 0.0216932 -0.00365603)
(0.16529 0.371972 0.0980539)
(0.0725169 0.45205 0.0256084)
(0.0659687 -0.000972977 0.0202393)
(0.0431299 0.0664729 0.0136122)
(0.0288905 0.0322186 0.0122463)
(0.0200684 0.0491145 0.0115478)
(0.0179996 0.0416405 0.0119466)
(0.0152904 0.044903 0.0103982)
(0.0151051 0.0448738 0.00892643)
(0.0149779 0.0427006 0.00929911)
(0.0139423 0.0323327 0.010491)
(0.0117148 0.0235907 0.0106252)
(0.00970485 0.0162326 0.00919293)
(0.00646759 0.0137306 0.00797096)
(0.00276017 0.0103209 0.00653697)
(0.000502387 0.00912075 0.00531957)
(-0.00100999 0.00812279 0.00611478)
(-0.00266604 0.00743503 0.0072048)
(-0.00422693 0.00565995 0.0089416)
(-0.00424462 0.00350324 0.0101717)
(-0.00321687 0.00232917 0.0110574)
(-0.00217908 0.000506797 0.0129437)
(-0.00212803 -0.00325068 0.0154638)
(-0.00473882 -0.0074299 0.0155831)
(-0.00707682 -0.0111544 0.0143172)
(-0.00816298 -0.0132573 0.0124595)
(-0.00819343 -0.012244 0.00942618)
(-0.00786294 -0.009629 0.00615915)
(-0.00674001 -0.00536568 0.00235247)
(-0.00565792 0.00144817 -0.000304506)
(-0.00464826 0.006606 0.00188787)
(-0.00452324 0.0114467 0.00430013)
(-0.00441871 0.0146676 0.00796209)
(-0.0035827 0.014589 0.0124426)
(-0.00407575 0.0156042 0.0170841)
(-0.00381767 0.00803315 0.0224511)
(0.023167 0.0217389 0.00422058)
(0.0265063 0.0155068 0.0043879)
(0.0158168 0.00982402 0.000999426)
(0.0163861 0.0107477 0.00147217)
(0.00944001 0.00539871 0.00185622)
(0.00858663 0.00582379 0.00240004)
(0.00377885 0.00189591 0.00325547)
(0.00270284 0.00256174 0.00324422)
(0.00131224 0.00185079 0.00334367)
(0.0016776 0.00315089 0.00351151)
(0.00169733 0.00300737 0.0036735)
(0.00237953 0.00360476 0.0040894)
(0.00275397 0.00349179 0.00427966)
(0.00327194 0.00358494 0.00443401)
(0.00346526 0.00317111 0.00439736)
(0.00365204 0.00285695 0.00439747)
(0.0036132 0.00234327 0.00436738)
(0.00361907 0.00199055 0.00437779)
(0.00354543 0.00160948 0.00437964)
(0.00348579 0.00134556 0.00439919)
(0.00339058 0.00110121 0.00441897)
(0.00329655 0.000938216 0.00445011)
(0.00319241 0.000808904 0.00448408)
(0.00309049 0.000728632 0.00452409)
(0.00299101 0.000676539 0.00456718)
(0.00289667 0.000648578 0.00461326)
(0.00280674 0.000632182 0.00466038)
(0.00272116 0.000619975 0.00470762)
(0.00264099 0.000607442 0.00475469)
(0.00256415 0.000579594 0.00480182)
(0.00249328 0.000557036 0.00485023)
(0.00241689 0.000484992 0.00490007)
(0.00235955 0.000468166 0.00494949)
(0.00229103 0.000326421 0.00499322)
(0.00227921 0.000360345 0.00502783)
(0.00224359 0.000131888 0.00504529)
(0.00229961 0.000303708 0.00504666)
(0.00228679 4.55696e-06 0.00502226)
(0.00237491 0.000460066 0.00497681)
(0.00234973 0.000157761 0.00489859)
(0.00244957 0.00106904 0.00478448)
(0.0024615 0.000660071 0.00461906)
(0.002684 0.00167147 0.00439166)
(0.00295588 0.000351412 0.0041457)
(0.00354309 0.00097274 0.00403678)
(0.00412552 -0.00091958 0.00390151)
(0.00386646 0.00178648 0.00295513)
(0.00396997 0.000597405 0.00221739)
(0.00983691 0.00133061 0.00327181)
(0.0233446 -0.0108133 0.00355435)
(0.0478036 -0.0111645 0.0041461)
(0.0682339 -0.0121068 0.00795953)
(0.0798147 0.00310566 0.0122816)
(0.0799547 -0.00388838 0.0152183)
(0.0730027 0.0236316 0.028735)
(0.0689438 -0.0365854 0.0438052)
(0.0226508 0.0515067 0.0802696)
(0.0412139 -0.181844 0.108749)
(-0.130965 0.204505 -0.0432157)
(0.0525304 -0.0425388 0.0230379)
(0.146596 0.450465 0.0997376)
(0.047683 0.570029 0.0169632)
(0.0333482 0.379896 0.0143273)
(0.0109642 0.432865 0.0016707)
(0.00803707 0.386914 0.00706093)
(0.0028848 0.371775 0.00618876)
(0.0038221 0.348335 0.00741976)
(0.00330182 0.327786 0.00707069)
(0.00608656 0.303332 0.00657222)
(0.00783759 0.280456 0.00616557)
(0.00905852 0.247188 0.00603233)
(0.00891745 0.217049 0.00475408)
(0.00697709 0.184917 0.00452402)
(0.00414518 0.151456 0.00485572)
(0.00213994 0.123369 0.00579182)
(6.77982e-05 0.10678 0.00777048)
(-0.00280094 0.0939789 0.0089555)
(-0.00541536 0.0793927 0.0105642)
(-0.00758853 0.0604982 0.013146)
(-0.00903462 0.044226 0.0147363)
(-0.0095946 0.0342275 0.0166044)
(-0.0102805 0.0285837 0.0173388)
(-0.0112833 0.0232047 0.0186005)
(-0.0127599 0.0178134 0.0180704)
(-0.0154277 0.0164512 0.0167813)
(-0.0167326 0.0155329 0.0142503)
(-0.0157462 0.0160117 0.0085308)
(-0.0139661 0.0166075 0.00474292)
(-0.0122955 0.0159543 0.00101345)
(-0.00986647 0.0172004 -0.00135857)
(-0.00829082 0.0174032 0.00193615)
(-0.00798396 0.0176947 0.00514572)
(-0.0082622 0.0171022 0.00880414)
(-0.00905204 0.013645 0.0134501)
(-0.0123405 0.0135597 0.0174737)
(-0.0150602 0.0065801 0.022412)
(0.0231936 0.0219462 0.00448424)
(0.0284429 0.018421 0.00515534)
(0.0171372 0.010673 0.000882761)
(0.0189273 0.0126522 0.00117696)
(0.0112658 0.00566312 0.000566552)
(0.0107782 0.0072308 0.00108931)
(0.00479428 0.00235987 0.00184727)
(0.00296489 0.00317293 0.00238803)
(0.000256247 0.000957041 0.00279756)
(0.000314762 0.00220178 0.00319045)
(9.41394e-05 0.00179941 0.00343974)
(0.000559934 0.00274042 0.00403829)
(0.000773675 0.002891 0.00425914)
(0.00132901 0.00329987 0.00445351)
(0.00155691 0.0030466 0.00439182)
(0.00173601 0.00284277 0.00440862)
(0.00162641 0.00237661 0.00438221)
(0.00153827 0.00207993 0.00440734)
(0.00137795 0.00173079 0.00440587)
(0.00125707 0.00149067 0.00441382)
(0.00111366 0.00124323 0.00441028)
(0.00098903 0.00106185 0.0044163)
(0.00086677 0.00090626 0.00442527)
(0.000753037 0.000799713 0.00444149)
(0.000645653 0.000722451 0.00446176)
(0.00054983 0.000673052 0.0044874)
(0.000463448 0.000639565 0.00451584)
(0.000387477 0.000614412 0.00454562)
(0.000321723 0.000592324 0.00457444)
(0.000261964 0.000562758 0.00460172)
(0.000206715 0.000542051 0.0046278)
(0.00014483 0.000486497 0.00465229)
(9.78287e-05 0.00049001 0.00467427)
(3.79912e-05 0.000398374 0.00468664)
(3.7598e-05 0.000488392 0.00468547)
(1.40937e-05 0.000358022 0.00465823)
(8.44641e-05 0.000631618 0.00460764)
(6.62865e-05 0.000494342 0.00452026)
(0.000141888 0.00112335 0.00440852)
(7.55575e-05 0.00103377 0.0042737)
(0.000243627 0.0020834 0.00415204)
(0.000464507 0.00169933 0.00404145)
(0.00115631 0.00253595 0.00391631)
(0.0018108 0.00086524 0.00383733)
(0.00251718 0.00119129 0.00401121)
(0.00246794 -0.000942478 0.00392798)
(0.00228444 0.00126691 0.00338175)
(0.00506848 -0.00154932 0.00328112)
(0.0131046 -0.00202617 0.00474359)
(0.0263982 -0.0104798 0.00606403)
(0.0444081 -0.00376525 0.00951509)
(0.0619307 0.0055864 0.0175508)
(0.0724103 0.0316067 0.0219185)
(0.072906 0.0348546 0.0239997)
(0.0655145 0.0674983 0.041042)
(0.0575523 0.0218657 0.0556921)
(0.0288394 0.124607 0.0941731)
(0.0504932 -0.125645 0.112797)
(-0.0973397 0.314642 -0.0101979)
(0.0414836 -0.0750588 0.0306743)
(0.136135 0.49812 0.107147)
(0.0414143 0.616692 0.015754)
(0.0324245 0.542906 0.0146095)
(0.0104137 0.597541 -0.000143083)
(0.0104599 0.590952 0.00608387)
(0.004327 0.606876 0.00586786)
(0.00615751 0.608932 0.00731892)
(0.00576815 0.615338 0.00689054)
(0.00812653 0.615486 0.00681184)
(0.00979305 0.615892 0.00707226)
(0.0118242 0.610538 0.00761665)
(0.0117739 0.606441 0.00807536)
(0.0112424 0.60102 0.00937027)
(0.00935441 0.592914 0.0110069)
(0.00713535 0.574488 0.0128058)
(0.00418295 0.53932 0.0136061)
(0.00110429 0.507104 0.014304)
(-0.00253834 0.476092 0.0152327)
(-0.0059689 0.44626 0.0166169)
(-0.00887227 0.41961 0.0179974)
(-0.0114785 0.391479 0.0194595)
(-0.0137363 0.353354 0.0205132)
(-0.0149903 0.305343 0.0192606)
(-0.0156805 0.26079 0.0155592)
(-0.0147338 0.222798 0.0103877)
(-0.0129244 0.203956 0.00504753)
(-0.0109136 0.180476 0.00153332)
(-0.00892059 0.154099 -0.000587311)
(-0.0081801 0.131721 -0.00205882)
(-0.00687161 0.112764 0.00158731)
(-0.00737324 0.0974974 0.00595322)
(-0.00737203 0.0769744 0.00889675)
(-0.00832269 0.0643717 0.0129601)
(-0.0115323 0.0437328 0.0163474)
(-0.0183706 0.0274172 0.0180952)
(-0.0263111 0.0124721 0.0211104)
(0.0217838 0.0216777 0.00529897)
(0.0298109 0.0216186 0.00648821)
(0.0175979 0.011324 0.00169127)
(0.0207774 0.0144641 0.00246553)
(0.0128466 0.00470037 0.000397196)
(0.0124063 0.0075286 0.000459011)
(0.00616972 0.00178939 0.000680905)
(0.00388353 0.00371956 0.00136423)
(0.000340699 0.000383469 0.00203422)
(-0.000569295 0.00143517 0.00262667)
(-0.0011854 0.000388632 0.00291615)
(-0.000969466 0.00158437 0.00368678)
(-0.000678183 0.00200397 0.00402331)
(5.59023e-05 0.00281063 0.00441282)
(0.000468704 0.00265208 0.00449321)
(0.000707521 0.00256094 0.00462104)
(0.000569417 0.00213512 0.00461824)
(0.000418467 0.00193466 0.00464299)
(0.000206567 0.00167454 0.00460876)
(5.30983e-05 0.00153245 0.00457523)
(-0.000110424 0.00135875 0.00451565)
(-0.000248998 0.0012312 0.00445972)
(-0.000384704 0.00110519 0.00440414)
(-0.000502644 0.00101026 0.0043586)
(-0.000602163 0.000935039 0.00432058)
(-0.000681016 0.000884452 0.00429125)
(-0.000742093 0.000850096 0.00426989)
(-0.000788346 0.000827127 0.00425488)
(-0.000824645 0.000809709 0.00424398)
(-0.00085265 0.000789571 0.00423813)
(-0.000874814 0.000781894 0.00423793)
(-0.00089956 0.000755443 0.00424059)
(-0.000909988 0.000793463 0.00424438)
(-0.000930503 0.000767437 0.00423655)
(-0.00090199 0.000926333 0.00421088)
(-0.000907936 0.000904859 0.00415174)
(-0.000854887 0.00126856 0.00405666)
(-0.000930273 0.00124498 0.00390737)
(-0.000928451 0.00191341 0.00372613)
(-0.00101802 0.00182953 0.00354907)
(-0.000775985 0.00274651 0.00344473)
(-0.000342167 0.00224282 0.00343669)
(0.000674682 0.00297439 0.00354785)
(0.0015043 0.00127279 0.00379871)
(0.0020272 0.00171694 0.0041484)
(0.00163402 -0.000241308 0.00410082)
(0.0018327 0.00105374 0.00348252)
(0.00599921 -0.00177478 0.00368278)
(0.0133462 -0.00100491 0.00547097)
(0.0223504 -0.00639012 0.00879896)
(0.0335516 0.0066164 0.0154381)
(0.0423183 0.0204624 0.0261527)
(0.0525208 0.0500102 0.0323897)
(0.055075 0.0605499 0.0372787)
(0.0507826 0.0947337 0.0533984)
(0.0443744 0.0520662 0.0608873)
(0.0357551 0.139211 0.0822474)
(0.0506188 -0.0989452 0.0813173)
(-0.0248047 0.364241 0.0283613)
(0.031108 -0.0837305 0.0346828)
(0.0842571 0.537076 0.101746)
(0.0146248 0.638147 0.0073332)
(0.00938964 0.599582 0.00974953)
(-0.00684673 0.655764 0.000891349)
(-0.00431051 0.657464 0.00932753)
(-0.00630052 0.672535 0.0103361)
(-0.00146863 0.673895 0.0123899)
(0.00125581 0.679339 0.0127095)
(0.00596224 0.679794 0.0133649)
(0.0102706 0.680296 0.0137907)
(0.0140773 0.674691 0.0136959)
(0.015318 0.671213 0.0142489)
(0.0157881 0.66778 0.0151058)
(0.0141444 0.663647 0.0163195)
(0.0114512 0.656355 0.0175121)
(0.00775647 0.649699 0.0181703)
(0.00367044 0.640763 0.0186188)
(-0.00105904 0.631202 0.0186508)
(-0.00599875 0.620022 0.0187549)
(-0.010231 0.604586 0.0185036)
(-0.0137233 0.588779 0.0171515)
(-0.0158686 0.571115 0.0146176)
(-0.0158833 0.552438 0.010488)
(-0.0150757 0.530565 0.00545087)
(-0.0140841 0.508817 0.000458892)
(-0.0123625 0.484117 -0.00344324)
(-0.0102154 0.447762 -0.00449404)
(-0.00854754 0.405875 -0.00161103)
(-0.0082141 0.373308 0.00350685)
(-0.00890838 0.346524 0.00837818)
(-0.0103301 0.30766 0.010532)
(-0.011644 0.257754 0.0126426)
(-0.0138558 0.220974 0.0157445)
(-0.018257 0.17763 0.0179562)
(-0.0256073 0.12202 0.0189529)
(-0.0328305 0.0862992 0.0183373)
(0.0180415 0.0202394 0.00545687)
(0.0297405 0.0252833 0.00849056)
(0.0160966 0.0113087 0.00351947)
(0.0206039 0.0165163 0.00519997)
(0.0127009 0.00333442 0.00209923)
(0.0122593 0.00700879 0.00162958)
(0.00600432 0.000250636 0.00124921)
(0.0040632 0.00357637 0.00125581)
(0.000147642 5.03451e-05 0.00166324)
(-0.00141311 0.00137336 0.00240027)
(-0.00286032 -0.000354818 0.00259953)
(-0.00354895 0.000864488 0.00337554)
(-0.00367899 0.00121873 0.00381198)
(-0.00272634 0.00217856 0.00455786)
(-0.00219651 0.00204303 0.00491663)
(-0.00196473 0.00211873 0.00520224)
(-0.00223872 0.00179095 0.00521778)
(-0.0025713 0.00172858 0.00519892)
(-0.00292146 0.00157964 0.00509315)
(-0.00314672 0.00156185 0.00499068)
(-0.00333424 0.00149812 0.00486311)
(-0.00346428 0.00147438 0.00474931)
(-0.00356979 0.00142846 0.00464166)
(-0.00365366 0.00139379 0.0045558)
(-0.00372543 0.00136125 0.00448956)
(-0.00377247 0.00133973 0.00443789)
(-0.00380082 0.00132247 0.00439778)
(-0.00380646 0.00131186 0.004373)
(-0.00379421 0.00130485 0.00436218)
(-0.0037734 0.00129713 0.00436328)
(-0.0037556 0.00130601 0.00437542)
(-0.00374738 0.00131325 0.00439297)
(-0.00374117 0.0013962 0.0044102)
(-0.00375342 0.0014451 0.00441039)
(-0.00372118 0.00167123 0.00439144)
(-0.00371153 0.00173186 0.0043408)
(-0.00362428 0.00212284 0.00427028)
(-0.00363004 0.00209067 0.00415635)
(-0.00354204 0.00259808 0.00400215)
(-0.00354576 0.00226714 0.00380722)
(-0.00323227 0.0028127 0.00365388)
(-0.00275066 0.00199608 0.00358179)
(-0.00163017 0.00256055 0.0037296)
(-0.000760831 0.0010216 0.00407426)
(-0.000340888 0.00171839 0.0043561)
(-0.000621876 0.000135563 0.00409791)
(0.000544208 0.00112545 0.00363129)
(0.00459856 -0.00134741 0.00419155)
(0.0117535 -0.00034322 0.00603686)
(0.0161269 -0.00295642 0.0104204)
(0.0158489 0.0148982 0.018042)
(0.0199565 0.0332902 0.0284558)
(0.0254315 0.066115 0.0374303)
(0.0297717 0.083943 0.0469565)
(0.036511 0.113667 0.0596791)
(0.0407425 0.0716856 0.0636788)
(0.0507659 0.152835 0.0746197)
(0.0469506 -0.0846194 0.0598842)
(0.010473 0.354747 0.0582885)
(0.0119943 -0.0685227 0.0354455)
(0.0257552 0.56651 0.0897773)
(-0.00981834 0.657656 0.0063039)
(-0.0104276 0.637036 0.00740449)
(-0.0174483 0.688833 0.00156754)
(-0.0116604 0.687099 0.0110932)
(-0.00879684 0.699243 0.0115827)
(-0.00345871 0.697869 0.0139001)
(0.00065877 0.701047 0.0145844)
(0.00546234 0.699488 0.0158803)
(0.0102214 0.698219 0.0163658)
(0.0142138 0.69559 0.0165292)
(0.0164123 0.691807 0.0170083)
(0.0176867 0.690107 0.0179898)
(0.016761 0.686288 0.0185953)
(0.0146978 0.680639 0.0191709)
(0.0112877 0.671599 0.0188722)
(0.0073068 0.660364 0.0182162)
(0.00273602 0.648829 0.0174212)
(-0.0013147 0.64002 0.0166034)
(-0.00489331 0.630763 0.0156535)
(-0.00687503 0.620843 0.0130834)
(-0.00769751 0.612943 0.00909658)
(-0.00725144 0.609847 0.00394061)
(-0.00706242 0.607709 -0.00165706)
(-0.00677958 0.600864 -0.00599185)
(-0.00695838 0.588488 -0.00858555)
(-0.00733201 0.57911 -0.00762983)
(-0.00688124 0.566579 -0.00424727)
(-0.00600646 0.540682 -0.000549359)
(-0.00681958 0.524406 0.00302839)
(-0.00947964 0.509816 0.0047177)
(-0.0134894 0.487605 0.00668484)
(-0.0183716 0.446948 0.00847285)
(-0.0251102 0.389498 0.010618)
(-0.0333275 0.320211 0.0120218)
(-0.0416973 0.25798 0.0105547)
(0.0144238 0.0149568 0.00433387)
(0.0285277 0.0284079 0.00922675)
(0.0130433 0.0107889 0.00431587)
(0.0190462 0.0192553 0.006407)
(0.0117319 0.00305641 0.00328727)
(0.0106698 0.00709284 0.00251492)
(0.00401659 -0.00104259 0.00239691)
(0.00250721 0.00335136 0.00184826)
(-0.000647214 -0.000427876 0.00221591)
(-0.00221957 0.00166171 0.00286363)
(-0.00369847 -0.000446019 0.00314138)
(-0.00458547 0.000580498 0.00394026)
(-0.00457852 5.61847e-05 0.00462835)
(-0.00348333 0.000781869 0.00560257)
(-0.00292381 0.000593699 0.0062817)
(-0.00270585 0.0010837 0.00681276)
(-0.00294273 0.00113812 0.00702391)
(-0.00320646 0.00146138 0.00708917)
(-0.00349502 0.001552 0.00700953)
(-0.00366938 0.00173474 0.00689704)
(-0.00382095 0.00179866 0.00674496)
(-0.00391327 0.0018679 0.00660704)
(-0.0039811 0.00188366 0.00647981)
(-0.00402172 0.00189269 0.00637713)
(-0.00404511 0.00188398 0.0062946)
(-0.00404423 0.00187364 0.00623357)
(-0.00402559 0.00186327 0.00618977)
(-0.00398847 0.00185577 0.00616212)
(-0.00393843 0.00185088 0.00614685)
(-0.00388323 0.00185162 0.00614359)
(-0.00383859 0.00187455 0.006148)
(-0.00381307 0.00191145 0.00615214)
(-0.0038011 0.00202945 0.00614986)
(-0.00380305 0.00212904 0.00613235)
(-0.00375617 0.00238091 0.0060994)
(-0.00372732 0.00246432 0.00604157)
(-0.00361112 0.0028057 0.00597168)
(-0.00356621 0.00270951 0.00586501)
(-0.00337302 0.00307098 0.00573608)
(-0.0032507 0.00259432 0.00557176)
(-0.00283336 0.00289531 0.00543686)
(-0.00238573 0.00185328 0.00537058)
(-0.0014723 0.00220084 0.0055268)
(-0.000875207 0.000659163 0.00582083)
(-0.000828758 0.00156238 0.00593065)
(-0.0011347 6.91007e-05 0.00543142)
(-4.33423e-05 0.000323179 0.00487361)
(0.00392695 -0.00261076 0.00491496)
(0.00926651 0.00103888 0.00670048)
(0.00490378 0.00740904 0.0150288)
(-0.00519107 0.0257023 0.0251595)
(-0.00847486 0.0466161 0.0338152)
(-0.005666 0.0779664 0.0391993)
(0.00609034 0.101176 0.044924)
(0.0234696 0.133654 0.0568973)
(0.0478828 0.116144 0.0636546)
(0.0743849 0.179381 0.0797977)
(0.0756668 -0.0230131 0.0676495)
(0.0748954 0.387429 0.0349639)
(-0.0252046 -0.0791029 0.0303948)
(-0.0584111 0.59663 0.0545807)
(-0.0422862 0.686878 -0.0109779)
(-0.0400298 0.662335 -0.0011686)
(-0.0293812 0.705401 -0.00317954)
(-0.0203936 0.696697 0.00586597)
(-0.010279 0.703652 0.00533222)
(-0.00528278 0.698793 0.00720648)
(0.00140622 0.69793 0.00748664)
(0.00656245 0.697909 0.00939506)
(0.0120408 0.696266 0.0107912)
(0.015537 0.695218 0.0115813)
(0.0180585 0.696377 0.012812)
(0.020468 0.695652 0.0144774)
(0.021848 0.692917 0.0163644)
(0.0219739 0.686512 0.0181883)
(0.0209084 0.680386 0.0194711)
(0.0192319 0.671253 0.0200254)
(0.0167071 0.66001 0.0201724)
(0.0137275 0.646493 0.0193821)
(0.0108633 0.632715 0.0178552)
(0.00837089 0.620999 0.015346)
(0.00668367 0.605567 0.0117832)
(0.00477206 0.590113 0.007394)
(0.00286661 0.582444 0.00307426)
(0.00104161 0.578078 0.000249133)
(-0.000491888 0.569926 -0.00126786)
(-0.000593024 0.561127 -0.00138255)
(-0.000276365 0.552352 -0.00121946)
(0.00043069 0.545495 0.00054446)
(0.000260761 0.536878 0.00380232)
(-0.00222992 0.51861 0.00709475)
(-0.00683799 0.496873 0.0103789)
(-0.0128365 0.47982 0.0114352)
(-0.0208631 0.467215 0.00883399)
(-0.0289153 0.454318 0.000143319)
(-0.0356331 0.440235 -0.0175004)
(0.00441443 0.00982322 -0.00331326)
(0.0260571 0.0303467 0.0072)
(0.00837636 0.0106285 0.00189212)
(0.0164486 0.0228709 0.00402268)
(0.010096 0.00473914 0.00178294)
(0.00879927 0.00858773 0.000743157)
(0.00132344 -0.00110533 -0.000441055)
(0.000419426 0.00396837 -0.00108134)
(-0.00286799 -8.72764e-05 -0.000886015)
(-0.00429041 0.00224218 -0.000366295)
(-0.00591274 -0.000254295 1.61894e-06)
(-0.00681099 0.000511224 0.000752169)
(-0.00736526 -0.000777816 0.00144779)
(-0.00682468 -0.000139143 0.00227404)
(-0.00685319 -0.000243699 0.00298826)
(-0.00691649 0.000541297 0.00355527)
(-0.00734574 0.000789846 0.00396253)
(-0.00765623 0.001317 0.00420744)
(-0.00798299 0.00152518 0.00429515)
(-0.00813746 0.00180778 0.0043019)
(-0.00822098 0.00193829 0.00424745)
(-0.00824014 0.00206261 0.00418864)
(-0.00823632 0.00211961 0.00413096)
(-0.00821314 0.002157 0.00408592)
(-0.00817774 0.00216841 0.00405035)
(-0.00812666 0.00217138 0.00402549)
(-0.00806336 0.00217101 0.00400879)
(-0.00798634 0.00217413 0.00399923)
(-0.00789962 0.0021842 0.00399364)
(-0.00782016 0.00220536 0.00399119)
(-0.00776716 0.00224717 0.00399017)
(-0.00773943 0.00230532 0.00398612)
(-0.00773063 0.00242903 0.00397495)
(-0.00772795 0.00252668 0.00395155)
(-0.00765862 0.00274922 0.00391247)
(-0.00757233 0.00281505 0.00386197)
(-0.00737375 0.00312518 0.00380078)
(-0.00723375 0.0030469 0.00372128)
(-0.00698901 0.00338815 0.00360219)
(-0.00682089 0.00291634 0.00345079)
(-0.00636931 0.0031706 0.00328635)
(-0.00591619 0.00209523 0.00315942)
(-0.0050407 0.00226701 0.00318563)
(-0.00459167 0.000570963 0.00343665)
(-0.00463075 0.00118822 0.00334057)
(-0.00427915 -0.000645289 0.00236869)
(-0.00227179 1.98352e-05 0.00212234)
(-0.00105956 -0.00300999 0.00137664)
(-0.00243792 0.00470694 0.00347206)
(-0.0108211 0.0124599 0.0120477)
(-0.027609 0.024569 0.0236722)
(-0.0339519 0.0344347 0.0314291)
(-0.0329887 0.0592926 0.0325939)
(-0.0216695 0.0710274 0.0307405)
(-0.00574054 0.115398 0.0395186)
(0.0274846 0.0815266 0.0433649)
(0.0692182 0.180065 0.0642011)
(0.0899251 -0.0259133 0.0691403)
(0.16042 0.421192 0.024021)
(-0.045174 -0.105927 0.0242072)
(-0.127516 0.564767 0.0341915)
(-0.0591145 0.671049 -0.00984047)
(-0.0529619 0.621822 0.00135799)
(-0.0273624 0.662502 0.00189971)
(-0.019667 0.638025 0.00821565)
(-0.00680854 0.641871 0.00485763)
(-0.00398375 0.632329 0.00500092)
(0.00136983 0.63186 0.00356603)
(0.00478279 0.629948 0.00346938)
(0.00863257 0.629603 0.00331554)
(0.0098854 0.628393 0.00223321)
(0.0112824 0.630431 0.00238355)
(0.0122724 0.631379 0.00324899)
(0.0141653 0.634765 0.00498571)
(0.0162603 0.637998 0.00665369)
(0.0178671 0.639393 0.00847259)
(0.0179987 0.636651 0.00922211)
(0.0175381 0.634315 0.00917426)
(0.0165126 0.629353 0.00912375)