/*--------------------------------*- C++ -*----------------------------------*\
| =========                 |                                                 |
| \\      /  F ield         | OpenFOAM: The Open Source CFD Toolbox           |
|  \\    /   O peration     | Version:  2.3.0                                 |
|   \\  /    A nd           | Web:      www.OpenFOAM.org                      |
|    \\/     M anipulation  |                                                 |
\*---------------------------------------------------------------------------*/
FoamFile
{
    version     2.0;
    format      ascii;
    class       volScalarField;
    location    "40";
    object      w1;
}
// * * * * * * * * * * * * * * * * * * * * * * * * * * * * * * * * * * * * * //

dimensions      [0 0 0 0 0 0 0];

internalField   nonuniform List<scalar> 
6144
(
0.518788
0.518788
0.518788
0.518788
0.518788
0.518788
0.518788
0.518788
0.518788
0.518788
0.518788
0.518788
0.518788
0.518788
0.518788
0.518788
0.518788
0.518788
0.518788
0.518788
0.518788
0.518788
0.518788
0.518788
0.518788
0.518788
0.518788
0.518788
0.518788
0.518788
0.518788
0.518788
0.518788
0.518788
0.518788
0.518788
0.518788
0.518788
0.518788
0.518788
0.518788
0.518788
0.518788
0.518788
0.518788
0.518788
0.518788
0.518788
0.518788
0.518788
0.518788
0.518788
0.518788
0.518788
0.518788
0.518788
0.518786
0.518778
0.504952
0.48076
0.818437
0.99903
0.999996
0.999309
0.998085
0.997935
0.987121
0.996039
0.997724
0.999112
0.998792
0.994069
0.990387
0.994659
0.984888
0.746105
0.971909
0.959639
0.983263
0.979224
0.977367
0.973276
0.970902
0.972695
0.979239
0.985394
0.909808
0.951994
0.983547
0.97621
0.965537
0.985352
0.993751
0.998212
0.999459
0.999892
0.518788
0.518788
0.518788
0.518788
0.518788
0.518788
0.518788
0.518788
0.518788
0.518788
0.518788
0.518788
0.518788
0.518788
0.518788
0.518788
0.518788
0.518788
0.518788
0.518788
0.518788
0.518788
0.518788
0.518788
0.518788
0.518788
0.518788
0.518788
0.518788
0.518788
0.518788
0.518788
0.518788
0.518788
0.518788
0.518788
0.518788
0.518788
0.518788
0.518788
0.518788
0.518788
0.518788
0.518788
0.518788
0.518788
0.518788
0.518788
0.518788
0.518788
0.518788
0.518788
0.518788
0.518788
0.518788
0.518788
0.518777
0.51727
0.463427
0.489793
0.791193
0.998948
0.999996
0.999399
0.998536
0.998535
0.995114
0.988487
0.998482
0.999256
0.99846
0.976325
0.986321
0.993043
0.959235
0.938559
0.988068
0.986176
0.98653
0.977624
0.973745
0.859631
0.984455
0.987258
0.963151
0.993031
0.994894
0.995188
0.99353
0.992104
0.838671
0.990231
0.996632
0.99897
0.999541
0.99989
0.518788
0.518788
0.518788
0.518788
0.518788
0.518788
0.518788
0.518788
0.518788
0.518788
0.518788
0.518788
0.518788
0.518788
0.518788
0.518788
0.518788
0.518788
0.518788
0.518788
0.518788
0.518788
0.518788
0.518788
0.518788
0.518788
0.518788
0.518788
0.518788
0.518788
0.518788
0.518788
0.518788
0.518788
0.518788
0.518788
0.518788
0.518788
0.518788
0.518788
0.518788
0.518788
0.518788
0.518788
0.518788
0.518788
0.518788
0.518788
0.518788
0.518788
0.518788
0.518788
0.518788
0.518788
0.518788
0.518788
0.518788
0.518607
0.497887
0.586507
0.194066
0.999094
0.999996
0.999538
0.999097
0.996238
0.997676
0.999708
0.99915
0.999256
0.998631
0.953976
0.947889
0.999445
0.999463
0.999535
0.994872
0.988795
0.999568
0.999655
0.999486
0.998199
0.996628
0.94084
0.999692
0.999618
0.997497
0.995419
0.995172
0.965253
0.993611
0.993252
0.988439
0.998672
0.999531
0.999889
0.518788
0.518788
0.518788
0.518788
0.518788
0.518788
0.518788
0.518788
0.518788
0.518788
0.518788
0.518788
0.518788
0.518788
0.518788
0.518788
0.518788
0.518788
0.518788
0.518788
0.518788
0.518788
0.518788
0.518788
0.518788
0.518788
0.518788
0.518788
0.518788
0.518788
0.518788
0.518788
0.518788
0.518788
0.518788
0.518788
0.518788
0.518788
0.518788
0.518788
0.518788
0.518788
0.518788
0.518788
0.518788
0.518788
0.518788
0.518788
0.518788
0.518788
0.518788
0.518788
0.518788
0.518788
0.518788
0.518788
0.518788
0.518784
0.514348
0.4824
0.0788121
0.88428
0.999991
0.999992
0.999932
0.999922
0.999884
0.999745
0.999993
0.999988
0.999973
0.999991
0.999984
0.99999
0.999965
0.99998
0.999992
0.999979
0.999991
0.999968
0.999982
0.999992
0.999706
0.999991
0.999987
0.999983
0.999992
0.998847
0.999078
0.998411
0.986092
0.993465
0.983473
0.998265
0.999474
0.999896
0.518788
0.518788
0.518788
0.518788
0.518788
0.518788
0.518788
0.518788
0.518788
0.518788
0.518788
0.518788
0.518788
0.518788
0.518788
0.518788
0.518788
0.518788
0.518788
0.518788
0.518788
0.518788
0.518788
0.518788
0.518788
0.518788
0.518788
0.518788
0.518788
0.518788
0.518788
0.518788
0.518788
0.518788
0.518788
0.518788
0.518788
0.518788
0.518788
0.518788
0.518788
0.518788
0.518788
0.518788
0.518788
0.518788
0.518788
0.518788
0.518788
0.518788
0.518788
0.518788
0.518788
0.518788
0.518788
0.518788
0.518787
0.518809
0.518785
0.509353
0.79431
0.976702
0.982163
0.988257
0.990276
0.989593
0.960992
0.963189
0.983295
0.961027
0.915891
0.00667639
1.55468e-09
0.979307
0.000295226
0.073223
0.974777
0.983274
0.992128
0.0358327
1.0409e-06
0.993641
0.998529
0.998333
0.996333
0.99667
0.999299
0.9999
0.999986
0.999991
0.999931
0.999945
0.997881
0.994683
0.999432
0.999891
0.518788
0.518788
0.518788
0.518788
0.518788
0.518788
0.518788
0.518788
0.518788
0.518788
0.518788
0.518788
0.518788
0.518788
0.518788
0.518788
0.518788
0.518788
0.518788
0.518788
0.518788
0.518788
0.518788
0.518788
0.518788
0.518788
0.518788
0.518788
0.518788
0.518788
0.518788
0.518788
0.518788
0.518788
0.518788
0.518788
0.518788
0.518788
0.518788
0.518788
0.518788
0.518788
0.518788
0.518788
0.518788
0.518788
0.518788
0.518788
0.518788
0.518788
0.518788
0.518788
0.518788
0.518788
0.518788
0.518788
0.518789
0.518788
0.518782
0.505203
0.710811
0.809714
0.411591
0.856747
0.665408
0.687021
0.866506
0.0121581
0.00207924
0.00229336
0.78729
0.788124
4.61536e-06
0.144217
1.44355e-06
0.00983921
0.606271
0.0465238
0.0373863
0.0379571
0.728315
0.964614
0.994169
7.00792e-06
0.99557
0.997099
0.988988
0.989319
0.99212
0.999189
0.999857
0.999983
0.999997
0.999878
0.999697
0.999856
0.518788
0.518788
0.518788
0.518788
0.518788
0.518788
0.518788
0.518788
0.518788
0.518788
0.518788
0.518788
0.518788
0.518788
0.518788
0.518788
0.518788
0.518788
0.518788
0.518788
0.518788
0.518788
0.518788
0.518788
0.518788
0.518788
0.518788
0.518788
0.518788
0.518788
0.518788
0.518788
0.518788
0.518788
0.518788
0.518788
0.518788
0.518788
0.518788
0.518788
0.518788
0.518788
0.518788
0.518788
0.518788
0.518788
0.518788
0.518788
0.518788
0.518788
0.518788
0.518788
0.518788
0.518788
0.518788
0.518788
0.518786
0.518858
0.520547
0.423635
0.890028
0.455151
0.000426015
0.882788
0.649854
0.801613
0.0482024
0.000399083
0.816305
0.129365
0.00184097
0.0238037
0.0456599
0.00733559
0.140777
0.204183
0.811659
0.560209
0.132134
0.819504
0.670596
0.991181
2.39429e-06
0.999826
6.97838e-07
0.999979
0.999438
0.990656
0.99254
0.995952
0.996316
0.994084
0.99572
0.00034737
0.999828
0.999997
0.518788
0.518788
0.518788
0.518788
0.518788
0.518788
0.518788
0.518788
0.518788
0.518788
0.518788
0.518788
0.518788
0.518788
0.518788
0.518788
0.518788
0.518788
0.518788
0.518788
0.518788
0.518788
0.518788
0.518788
0.518788
0.518788
0.518788
0.518788
0.518788
0.518788
0.518788
0.518788
0.518788
0.518788
0.518788
0.518788
0.518788
0.518788
0.518788
0.518788
0.518788
0.518788
0.518788
0.518788
0.518788
0.518788
0.518788
0.518788
0.518788
0.518788
0.518788
0.518788
0.518788
0.518788
0.518788
0.518788
0.518787
0.518449
0.52542
0.438184
0.907388
0.138029
0.00201338
7.96737e-05
0.128346
0.128783
0.243541
3.43473e-06
0.0468048
0.788916
0.76717
0.58278
0.53896
0.0375586
0.743676
0.065308
0.436479
0.425529
0.283604
0.40912
0.00279847
0.717011
0.901161
0.268757
0.941749
0.990655
0.999159
0.000753507
4.10501e-07
0.119305
0.999615
0.951831
0.847635
0.0023781
4.25374e-06
0.997453
0.518788
0.518788
0.518788
0.518788
0.518788
0.518788
0.518788
0.518788
0.518788
0.518788
0.518788
0.518788
0.518788
0.518788
0.518788
0.518788
0.518788
0.518788
0.518788
0.518788
0.518788
0.518788
0.518788
0.518788
0.518788
0.518788
0.518788
0.518788
0.518788
0.518788
0.518788
0.518788
0.518788
0.518788
0.518788
0.518788
0.518788
0.518788
0.518788
0.518788
0.518788
0.518788
0.518788
0.518788
0.518788
0.518788
0.518788
0.518788
0.518788
0.518788
0.518788
0.518788
0.518788
0.518788
0.518788
0.518788
0.518795
0.518962
0.518325
0.437139
2.44023e-13
0.00184723
0.410359
0.00130956
0.0562257
5.67915e-18
0.146578
0.0227832
0.0509522
0.00173528
0.00413041
0.837884
0.116339
0.000748448
0.599723
0.64548
0.00910014
0.144775
0.00351644
0.000487368
0.336148
0.0527078
0.0912962
0.00100122
0.855874
0.815411
0.785623
1.86e-14
0.00473556
0.974897
0.980961
0.981365
0.970823
0.924627
0.924383
0.999138
0.518788
0.518788
0.518788
0.518788
0.518788
0.518788
0.518788
0.518788
0.518788
0.518788
0.518788
0.518788
0.518788
0.518788
0.518788
0.518788
0.518788
0.518788
0.518788
0.518788
0.518788
0.518788
0.518788
0.518788
0.518788
0.518788
0.518788
0.518788
0.518788
0.518788
0.518788
0.518788
0.518788
0.518788
0.518788
0.518788
0.518788
0.518788
0.518788
0.518788
0.518788
0.518788
0.518788
0.518788
0.518788
0.518788
0.518788
0.518788
0.518788
0.518788
0.518788
0.518788
0.518788
0.518788
0.518788
0.518788
0.518788
0.518799
0.518706
0.434345
0.962926
0.00474848
0.00427576
0.00263947
0.0188192
0.0373542
0.00129049
4.91127e-06
0.0348389
0.152176
0.844117
0.00556314
0.00261695
7.26138e-06
0.593647
0.570914
0.495682
0.000101211
0.603863
0.688116
0.891437
0.964223
0.943732
0.0900129
0.0273765
0.924355
0.962737
0.181064
0.962126
0.95143
0.937968
1.76035e-05
0.000213543
0.715599
0.0894002
0.999871
0.518788
0.518788
0.518788
0.518788
0.518788
0.518788
0.518788
0.518788
0.518788
0.518788
0.518788
0.518788
0.518788
0.518788
0.518788
0.518788
0.518788
0.518788
0.518788
0.518788
0.518788
0.518788
0.518788
0.518788
0.518788
0.518788
0.518788
0.518788
0.518788
0.518788
0.518788
0.518788
0.518788
0.518788
0.518788
0.518788
0.518788
0.518788
0.518788
0.518788
0.518788
0.518788
0.518788
0.518788
0.518788
0.518788
0.518788
0.518788
0.518788
0.518788
0.518788
0.518788
0.518788
0.518788
0.518788
0.518788
0.518788
0.520399
0.489507
0.436736
0.92354
0.956588
0.852332
0.00414983
0.0938811
0.849586
0.000686912
0.0556944
0.144922
5.1495e-05
0.948135
0.912483
0.956862
0.914445
0.980026
0.953995
0.985751
0.996486
0.997346
0.997853
0.996003
0.988403
0.99247
0.993975
0.984194
0.987204
0.991586
0.901416
0.997175
0.99482
0.986461
0.9973
0.997399
0.996088
0.999846
0.999995
0.518788
0.518788
0.518788
0.518788
0.518788
0.518788
0.518788
0.518788
0.518788
0.518788
0.518788
0.518788
0.518788
0.518788
0.518788
0.518788
0.518788
0.518788
0.518788
0.518788
0.518788
0.518788
0.518788
0.518788
0.518788
0.518788
0.518788
0.518788
0.518788
0.518788
0.518788
0.518788
0.518788
0.518788
0.518788
0.518788
0.518788
0.518788
0.518788
0.518788
0.518788
0.518788
0.518788
0.518788
0.518788
0.518788
0.518788
0.518788
0.518788
0.518788
0.518788
0.518788
0.518788
0.518788
0.518788
0.518788
0.518788
0.518811
0.518242
0.468755
0.903703
0.998354
0.932759
0.993806
0.989023
0.995986
0.998389
0.996921
0.998937
0.999656
0.999928
0.99999
0.999992
0.999418
0.99907
0.997399
0.999698
0.999818
0.999785
0.999787
0.999724
0.999618
0.999757
0.999854
0.999891
0.999896
0.999883
0.999655
0.999993
0.999983
0.999983
0.999991
0.999985
0.999722
0.999983
0.999847
0.518788
0.518788
0.518788
0.518788
0.518788
0.518788
0.518788
0.518788
0.518788
0.518788
0.518788
0.518788
0.518788
0.518788
0.518788
0.518788
0.518788
0.518788
0.518788
0.518788
0.518788
0.518788
0.518788
0.518788
0.518788
0.518788
0.518788
0.518788
0.518788
0.518788
0.518788
0.518788
0.518788
0.518788
0.518788
0.518788
0.518788
0.518788
0.518788
0.518788
0.518788
0.518788
0.518788
0.518788
0.518788
0.518788
0.518788
0.518788
0.518788
0.518788
0.518788
0.518788
0.518788
0.518788
0.518788
0.518788
0.518788
0.518788
0.518787
0.385649
0.900258
0.999623
0.999998
0.99989
0.997511
0.998946
0.998469
0.998946
0.999173
0.999285
0.999345
0.999361
0.993648
0.983196
0.976317
0.939499
0.981317
0.994748
0.996564
0.996535
0.997555
0.998027
0.997588
0.998461
0.998787
0.998606
0.998492
0.978745
0.999467
0.999756
0.999459
0.994804
0.998032
0.995895
0.999112
0.99987
0.518788
0.518788
0.518788
0.518788
0.518788
0.518788
0.518788
0.518788
0.518788
0.518788
0.518788
0.518788
0.518788
0.518788
0.518788
0.518788
0.518788
0.518788
0.518788
0.518788
0.518788
0.518788
0.518788
0.518788
0.518788
0.518788
0.518788
0.518788
0.518788
0.518788
0.518788
0.518788
0.518788
0.518788
0.518788
0.518788
0.518788
0.518788
0.518788
0.518788
0.518788
0.518788
0.518788
0.518788
0.518788
0.518788
0.518788
0.518788
0.518788
0.518788
0.518788
0.518788
0.518788
0.518788
0.518788
0.518788
0.518788
0.518787
0.51873
0.444813
0.887498
0.999702
0.999997
0.999719
0.999171
0.99938
0.998953
0.998489
0.997212
0.992836
0.988385
0.969964
0.935554
0.906027
0.976756
0.972649
0.988442
0.99567
0.997212
0.996664
0.996506
0.995924
0.98624
0.995787
0.998558
0.998529
0.996725
0.993816
0.999505
0.999529
0.998766
0.992162
0.995697
0.998441
0.999164
0.999874
0.518788
0.518788
0.518788
0.518788
0.518788
0.518788
0.518788
0.518788
0.518788
0.518788
0.518788
0.518788
0.518788
0.518788
0.518788
0.518788
0.518788
0.518788
0.518788
0.518788
0.518788
0.518788
0.518788
0.518788
0.518788
0.518788
0.518788
0.518788
0.518788
0.518788
0.518788
0.518788
0.518788
0.518788
0.518788
0.518788
0.518788
0.518788
0.518788
0.518788
0.518788
0.518788
0.518788
0.518788
0.518788
0.518788
0.518788
0.518788
0.518788
0.518788
0.518788
0.518788
0.518788
0.518788
0.518788
0.518788
0.518788
0.518785
0.51534
0.405785
0.924023
0.999375
0.999997
0.999667
0.999322
0.997212
0.995975
0.996381
0.994145
0.989696
0.978568
0.97048
0.976994
0.976545
0.979086
0.862201
0.940133
0.988837
0.995554
0.993556
0.988701
0.987517
0.99675
0.995883
0.995721
0.99811
0.968893
0.99893
0.999546
0.999342
0.998112
0.974876
0.996458
0.998692
0.999261
0.999879
0.518788
0.518788
0.518788
0.518788
0.518788
0.518788
0.518788
0.518788
0.518788
0.518788
0.518788
0.518788
0.518788
0.518788
0.518788
0.518788
0.518788
0.518788
0.518788
0.518788
0.518788
0.518788
0.518788
0.518788
0.518788
0.518788
0.518788
0.518788
0.518788
0.518788
0.518788
0.518788
0.518788
0.518788
0.518788
0.518788
0.518788
0.518788
0.518788
0.518788
0.518788
0.518788
0.518788
0.518788
0.518788
0.518788
0.518788
0.518788
0.518788
0.518788
0.518788
0.518788
0.518788
0.518788
0.518788
0.518788
0.518788
0.518791
0.52126
0.443383
0.897504
0.999055
0.999998
0.999669
0.986307
0.998358
0.996588
0.997818
0.99726
0.995156
0.993693
0.993273
0.993282
0.994189
0.99199
0.987238
0.986716
0.72619
0.984869
0.989563
0.991308
0.913641
0.997545
0.996946
0.997075
0.998523
0.996715
0.999501
0.999539
0.998866
0.987328
0.972522
0.993976
0.998466
0.999121
0.999874
0.518788
0.518788
0.518788
0.518788
0.518788
0.518788
0.518788
0.518788
0.518788
0.518788
0.518788
0.518788
0.518788
0.518788
0.518788
0.518788
0.518788
0.518788
0.518788
0.518788
0.518788
0.518788
0.518788
0.518788
0.518788
0.518788
0.518788
0.518788
0.518788
0.518788
0.518788
0.518788
0.518788
0.518788
0.518788
0.518788
0.518788
0.518788
0.518788
0.518788
0.518788
0.518788
0.518788
0.518788
0.518788
0.518788
0.518788
0.518788
0.518788
0.518788
0.518788
0.518788
0.518788
0.518788
0.518788
0.518788
0.518787
0.516947
0.482632
0.471621
0.808667
0.998387
0.999996
0.999456
0.99435
0.997601
0.993795
0.995784
0.99565
0.998975
0.998967
0.995423
0.963639
0.982363
0.338503
0.923661
0.975888
0.958507
0.516709
0.952656
0.968413
0.739667
0.921707
0.935774
0.968752
0.985401
0.986251
0.987945
0.991353
0.985502
0.905225
0.980237
0.993007
0.998277
0.999465
0.999892
0.518788
0.518788
0.518788
0.518788
0.518788
0.518788
0.518788
0.518788
0.518788
0.518788
0.518788
0.518788
0.518788
0.518788
0.518788
0.518788
0.518788
0.518788
0.518788
0.518788
0.518788
0.518788
0.518788
0.518788
0.518788
0.518788
0.518788
0.518788
0.518788
0.518788
0.518788
0.518788
0.518788
0.518788
0.518788
0.518788
0.518788
0.518788
0.518788
0.518788
0.518788
0.518788
0.518788
0.518788
0.518788
0.518788
0.518788
0.518788
0.518788
0.518788
0.518788
0.518788
0.518788
0.518788
0.518788
0.518788
0.518786
0.518736
0.51858
0.467364
0.84469
0.999879
0.999996
0.999637
0.999298
0.997803
0.944791
0.999729
0.998548
0.999325
0.999041
0.993459
0.988989
0.989216
0.977622
0.990156
0.995506
0.993807
0.987588
0.15977
0.949833
0.974771
0.988924
0.989725
0.946308
0.98874
0.978631
0.976902
0.977824
0.948619
0.994685
0.00240295
0.994872
0.99879
0.999548
0.999893
0.518788
0.518788
0.518788
0.518788
0.518788
0.518788
0.518788
0.518788
0.518788
0.518788
0.518788
0.518788
0.518788
0.518788
0.518788
0.518788
0.518788
0.518788
0.518788
0.518788
0.518788
0.518788
0.518788
0.518788
0.518788
0.518788
0.518788
0.518788
0.518788
0.518788
0.518788
0.518788
0.518788
0.518788
0.518788
0.518788
0.518788
0.518788
0.518788
0.518788
0.518788
0.518788
0.518788
0.518788
0.518788
0.518788
0.518788
0.518788
0.518788
0.518788
0.518788
0.518788
0.518788
0.518788
0.518788
0.518788
0.518787
0.518779
0.530838
0.441159
0.667811
0.999993
0.999861
0.999893
0.999883
0.999798
0.999991
0.99937
0.999991
0.998398
0.999589
0.999282
0.99929
0.999274
0.999266
0.999319
0.998624
0.998945
0.997224
0.997761
0.998207
0.998966
0.998556
0.966917
0.996002
0.997057
0.995473
0.984747
0.10863
0.992034
0.970717
0.997242
0.993565
0.998398
0.9995
0.999894
0.518788
0.518788
0.518788
0.518788
0.518788
0.518788
0.518788
0.518788
0.518788
0.518788
0.518788
0.518788
0.518788
0.518788
0.518788
0.518788
0.518788
0.518788
0.518788
0.518788
0.518788
0.518788
0.518788
0.518788
0.518788
0.518788
0.518788
0.518788
0.518788
0.518788
0.518788
0.518788
0.518788
0.518788
0.518788
0.518788
0.518788
0.518788
0.518788
0.518788
0.518788
0.518788
0.518788
0.518788
0.518788
0.518788
0.518788
0.518788
0.518788
0.518788
0.518788
0.518788
0.518788
0.518788
0.518788
0.518788
0.518788
0.518865
0.51702
0.482186
0.413462
0.999421
0.994837
0.999121
0.999067
0.991991
0.995204
0.989376
0.974125
0.994918
0.995336
0.996109
0.995349
0.917591
0.99758
0.999474
0.999215
0.994669
0.893021
3.29977e-06
0.999739
0.999948
0.999991
0.999991
0.996179
0.996872
0.998699
0.999503
0.998516
0.993791
0.996456
0.939544
0.992768
0.997478
0.999487
0.999891
0.518788
0.518788
0.518788
0.518788
0.518788
0.518788
0.518788
0.518788
0.518788
0.518788
0.518788
0.518788
0.518788
0.518788
0.518788
0.518788
0.518788
0.518788
0.518788
0.518788
0.518788
0.518788
0.518788
0.518788
0.518788
0.518788
0.518788
0.518788
0.518788
0.518788
0.518788
0.518788
0.518788
0.518788
0.518788
0.518788
0.518788
0.518788
0.518788
0.518788
0.518788
0.518788
0.518788
0.518788
0.518788
0.518788
0.518788
0.518788
0.518788
0.518788
0.518788
0.518788
0.518788
0.518788
0.518788
0.518788
0.518788
0.518779
0.518708
0.456519
0.878701
0.961672
0.875017
0.940007
0.875256
0.587638
1.60648e-07
0.793669
0.00150777
2.84046e-05
7.29459e-11
0.98048
0.0594593
0.00563036
0.14456
0.146466
0.00236072
0.130119
0.139549
0.146445
0.873855
0.764921
0.868683
0.992946
0.994648
0.999076
0.999922
0.999991
0.999994
0.999925
0.999904
0.998512
0.991904
0.995813
0.999399
0.999899
0.518788
0.518788
0.518788
0.518788
0.518788
0.518788
0.518788
0.518788
0.518788
0.518788
0.518788
0.518788
0.518788
0.518788
0.518788
0.518788
0.518788
0.518788
0.518788
0.518788
0.518788
0.518788
0.518788
0.518788
0.518788
0.518788
0.518788
0.518788
0.518788
0.518788
0.518788
0.518788
0.518788
0.518788
0.518788
0.518788
0.518788
0.518788
0.518788
0.518788
0.518788
0.518788
0.518788
0.518788
0.518788
0.518788
0.518788
0.518788
0.518788
0.518788
0.518788
0.518788
0.518788
0.518788
0.518788
0.518789
0.518797
0.518911
0.520124
0.387099
0.953569
6.48938e-06
0.00391016
0.752672
0.810069
0.762878
0.0761545
0.0112183
0.801866
0.824226
0.615814
0.0145054
1.40395e-10
0.785981
0.607032
0.536876
0.494227
0.750575
0.206554
0.000189863
0.00231197
0.459954
2.50436e-05
0.132656
0.0033048
5.24683e-05
0.518274
0.746223
0.981903
0.998848
0.999982
0.999997
0.999851
3.92584e-07
0.999911
0.999961
0.518788
0.518788
0.518788
0.518788
0.518788
0.518788
0.518788
0.518788
0.518788
0.518788
0.518788
0.518788
0.518788
0.518788
0.518788
0.518788
0.518788
0.518788
0.518788
0.518788
0.518788
0.518788
0.518788
0.518788
0.518788
0.518788
0.518788
0.518788
0.518788
0.518788
0.518788
0.518788
0.518788
0.518788
0.518788
0.518788
0.518788
0.518788
0.518788
0.518788
0.518788
0.518788
0.518788
0.518788
0.518788
0.518788
0.518788
0.518788
0.518788
0.518788
0.518788
0.518788
0.518788
0.518788
0.518788
0.518788
0.518787
0.518765
0.527682
0.336871
0.917087
0.335713
0.532712
0.513947
0.132928
0.50534
0.132952
0.609327
0.332302
0.379971
0.474804
0.282257
0.690083
0.175243
0.763303
0.559301
0.475746
0.455989
0.0012329
0.28602
0.552954
0.415378
0.00166298
0.00946472
0.363955
0.404474
0.513846
0.000504429
0.0122757
0.0155163
0.000540383
6.8487e-05
0.00191751
0.139146
0.057981
0.000294402
0.518788
0.518788
0.518788
0.518788
0.518788
0.518788
0.518788
0.518788
0.518788
0.518788
0.518788
0.518788
0.518788
0.518788
0.518788
0.518788
0.518788
0.518788
0.518788
0.518788
0.518788
0.518788
0.518788
0.518788
0.518788
0.518788
0.518788
0.518788
0.518788
0.518788
0.518788
0.518788
0.518788
0.518788
0.518788
0.518788
0.518788
0.518788
0.518788
0.518788
0.518788
0.518788
0.518788
0.518788
0.518788
0.518788
0.518788
0.518788
0.518788
0.518788
0.518788
0.518788
0.518788
0.518788
0.518788
0.518787
0.518757
0.518801
0.516639
0.35976
0.824475
0.000650223
0.875159
0.387563
0.259331
0.613049
0.75637
0.204831
0.42492
0.823052
0.271687
0.669019
0.311448
0.534367
0.421702
0.52581
0.542626
0.544196
0.631264
0.866195
0.486819
0.366653
0.622576
0.483963
0.532523
8.16201e-05
0.0801488
0.231023
0.000678355
0.760235
0.466089
0.508399
0.704061
0.0016502
0.001003
2.41779e-05
0.518788
0.518788
0.518788
0.518788
0.518788
0.518788
0.518788
0.518788
0.518788
0.518788
0.518788
0.518788
0.518788
0.518788
0.518788
0.518788
0.518788
0.518788
0.518788
0.518788
0.518788
0.518788
0.518788
0.518788
0.518788
0.518788
0.518788
0.518788
0.518788
0.518788
0.518788
0.518788
0.518788
0.518788
0.518788
0.518788
0.518788
0.518788
0.518788
0.518788
0.518788
0.518788
0.518788
0.518788
0.518788
0.518788
0.518788
0.518788
0.518788
0.518788
0.518788
0.518788
0.518788
0.518788
0.518788
0.518788
0.518787
0.518787
0.518482
0.450444
0.623125
6.932e-06
0.00153332
0.483037
0.00945419
0.674339
0.420509
0.0798454
0.0233335
0.283378
4.08983e-05
0.2732
0.433936
0.447962
0.741591
0.71394
3.59334e-05
0.281274
0.491349
0.672958
0.000564646
0.000227116
0.789759
0.0116809
0.586534
0.784555
0.242932
0.761253
0.262911
0.73994
0.157552
0.661545
0.324267
0.48726
0.000144512
0.00647727
0.518788
0.518788
0.518788
0.518788
0.518788
0.518788
0.518788
0.518788
0.518788
0.518788
0.518788
0.518788
0.518788
0.518788
0.518788
0.518788
0.518788
0.518788
0.518788
0.518788
0.518788
0.518788
0.518788
0.518788
0.518788
0.518788
0.518788
0.518788
0.518788
0.518788
0.518788
0.518788
0.518788
0.518788
0.518788
0.518788
0.518788
0.518788
0.518788
0.518788
0.518788
0.518788
0.518788
0.518788
0.518788
0.518788
0.518788
0.518788
0.518788
0.518788
0.518788
0.518788
0.518788
0.518788
0.518788
0.518788
0.518788
0.518802
0.518968
0.44585
0.950244
1.09892e-06
0.00516552
0.738232
0.00073751
7.2638e-06
0.0862878
0.147253
0.146133
0.12285
1.18582e-05
0.000880895
0.883869
0.12455
0.00212579
0.000569499
0.000168356
0.00225824
0.497506
0.768505
0.532254
0.00399481
7.60043e-05
0.503006
0.0579088
0.00217241
0.0300963
0.191427
0.000457083
1.91442e-10
0.723095
0.0143244
0.704453
1.2873e-09
0.0922636
0.997544
0.518788
0.518788
0.518788
0.518788
0.518788
0.518788
0.518788
0.518788
0.518788
0.518788
0.518788
0.518788
0.518788
0.518788
0.518788
0.518788
0.518788
0.518788
0.518788
0.518788
0.518788
0.518788
0.518788
0.518788
0.518788
0.518788
0.518788
0.518788
0.518788
0.518788
0.518788
0.518788
0.518788
0.518788
0.518788
0.518788
0.518788
0.518788
0.518788
0.518788
0.518788
0.518788
0.518788
0.518788
0.518788
0.518788
0.518788
0.518788
0.518788
0.518788
0.518788
0.518788
0.518788
0.518788
0.518788
0.518788
0.518788
0.518702
0.53839
0.42425
2.88453e-08
0.933948
0.442437
0.931164
0.0621022
8.1301e-05
0.925279
0.908499
8.18017e-05
0.959126
0.994661
0.989352
0.936972
0.837748
0.947003
0.941758
0.734727
0.927489
0.948605
0.863961
0.730219
0.982394
0.914974
0.935299
0.925372
0.764663
0.911737
0.891717
0.015079
0.338923
0.568156
0.930996
0.983142
0.983953
0.998758
0.999987
0.518788
0.518788
0.518788
0.518788
0.518788
0.518788
0.518788
0.518788
0.518788
0.518788
0.518788
0.518788
0.518788
0.518788
0.518788
0.518788
0.518788
0.518788
0.518788
0.518788
0.518788
0.518788
0.518788
0.518788
0.518788
0.518788
0.518788
0.518788
0.518788
0.518788
0.518788
0.518788
0.518788
0.518788
0.518788
0.518788
0.518788
0.518788
0.518788
0.518788
0.518788
0.518788
0.518788
0.518788
0.518788
0.518788
0.518788
0.518788
0.518788
0.518788
0.518788
0.518788
0.518788
0.518788
0.518788
0.518788
0.518789
0.518809
0.558788
0.429164
0.000357682
0.999543
0.994731
0.993292
0.997955
0.998059
0.996125
0.977466
0.984666
0.99055
0.984122
0.995322
0.995168
0.995398
0.998766
0.999512
0.999671
0.999652
0.999518
0.9993
0.999184
0.999258
0.998526
0.997353
0.979223
0.996562
0.99839
0.998789
0.999656
0.990408
0.999927
0.99999
0.999992
0.999776
0.988357
0.999869
0.518788
0.518788
0.518788
0.518788
0.518788
0.518788
0.518788
0.518788
0.518788
0.518788
0.518788
0.518788
0.518788
0.518788
0.518788
0.518788
0.518788
0.518788
0.518788
0.518788
0.518788
0.518788
0.518788
0.518788
0.518788
0.518788
0.518788
0.518788
0.518788
0.518788
0.518788
0.518788
0.518788
0.518788
0.518788
0.518788
0.518788
0.518788
0.518788
0.518788
0.518788
0.518788
0.518788
0.518788
0.518788
0.518788
0.518788
0.518788
0.518788
0.518788
0.518788
0.518788
0.518788
0.518788
0.518788
0.518788
0.518788
0.518805
0.514081
0.428386
0.830208
0.999959
0.999911
0.999996
0.999345
0.998414
0.998695
0.998895
0.999039
0.999119
0.999202
0.99931
0.999412
0.999356
0.999116
0.997365
0.999678
0.99979
0.999813
0.999816
0.999789
0.99978
0.999746
0.999648
0.999487
0.999581
0.999725
0.992381
0.999855
0.999829
0.999742
0.99966
0.998211
0.998602
0.99873
0.999857
0.518788
0.518788
0.518788
0.518788
0.518788
0.518788
0.518788
0.518788
0.518788
0.518788
0.518788
0.518788
0.518788
0.518788
0.518788
0.518788
0.518788
0.518788
0.518788
0.518788
0.518788
0.518788
0.518788
0.518788
0.518788
0.518788
0.518788
0.518788
0.518788
0.518788
0.518788
0.518788
0.518788
0.518788
0.518788
0.518788
0.518788
0.518788
0.518788
0.518788
0.518788
0.518788
0.518788
0.518788
0.518788
0.518788
0.518788
0.518788
0.518788
0.518788
0.518788
0.518788
0.518788
0.518788
0.518788
0.518788
0.518788
0.518648
0.517787
0.459146
0.338339
0.999991
0.999795
0.999586
0.999214
0.997717
0.962569
0.996058
0.996971
0.994381
0.967772
0.945676
0.980337
0.948358
0.540104
0.979551
0.981922
0.995508
0.993665
0.976704
0.992873
0.994682
0.993204
0.996162
0.997603
0.998964
0.999205
0.996027
0.999591
0.999389
0.99749
0.985306
0.994961
0.998339
0.998751
0.999859
0.518788
0.518788
0.518788
0.518788
0.518788
0.518788
0.518788
0.518788
0.518788
0.518788
0.518788
0.518788
0.518788
0.518788
0.518788
0.518788
0.518788
0.518788
0.518788
0.518788
0.518788
0.518788
0.518788
0.518788
0.518788
0.518788
0.518788
0.518788
0.518788
0.518788
0.518788
0.518788
0.518788
0.518788
0.518788
0.518788
0.518788
0.518788
0.518788
0.518788
0.518788
0.518788
0.518788
0.518788
0.518788
0.518788
0.518788
0.518788
0.518788
0.518788
0.518788
0.518788
0.518788
0.518788
0.518788
0.518788
0.518787
0.518531
0.492063
0.501051
0.270334
0.999996
0.999444
0.999821
0.999641
0.997838
0.96362
0.997302
0.997898
0.997581
0.996656
0.99508
0.986778
0.883057
0.991638
0.996306
0.996936
0.995063
0.991905
0.996085
0.973909
0.987642
0.997219
0.99767
0.997028
0.998284
0.998229
0.998416
0.999544
0.999161
0.994832
0.985444
0.996349
0.998735
0.998817
0.999865
0.518788
0.518788
0.518788
0.518788
0.518788
0.518788
0.518788
0.518788
0.518788
0.518788
0.518788
0.518788
0.518788
0.518788
0.518788
0.518788
0.518788
0.518788
0.518788
0.518788
0.518788
0.518788
0.518788
0.518788
0.518788
0.518788
0.518788
0.518788
0.518788
0.518788
0.518788
0.518788
0.518788
0.518788
0.518788
0.518788
0.518788
0.518788
0.518788
0.518788
0.518788
0.518788
0.518788
0.518788
0.518788
0.518788
0.518788
0.518788
0.518788
0.518788
0.518788
0.518788
0.518788
0.518788
0.518788
0.518788
0.518788
0.51869
0.513846
0.415622
0.885698
0.998852
0.999997
0.999727
0.999154
0.99897
0.996243
0.996932
0.97732
0.988725
0.98547
0.982552
0.673464
0.96152
0.988084
0.993395
0.99542
0.995547
0.990646
0.997031
0.997403
0.997206
0.998743
0.997495
0.986262
0.998943
0.998154
0.999365
0.999452
0.998608
0.977569
0.964567
0.995184
0.998456
0.998223
0.999862
0.518788
0.518788
0.518788
0.518788
0.518788
0.518788
0.518788
0.518788
0.518788
0.518788
0.518788
0.518788
0.518788
0.518788
0.518788
0.518788
0.518788
0.518788
0.518788
0.518788
0.518788
0.518788
0.518788
0.518788
0.518788
0.518788
0.518788
0.518788
0.518788
0.518788
0.518788
0.518788
0.518788
0.518788
0.518788
0.518788
0.518788
0.518788
0.518788
0.518788
0.518788
0.518788
0.518788
0.518788
0.518788
0.518788
0.518788
0.518788
0.518788
0.518788
0.518788
0.518788
0.518788
0.518788
0.518788
0.518788
0.518786
0.518777
0.518612
0.384829
0.837866
0.998726
0.999995
0.998669
0.99124
0.997514
0.991053
0.997065
0.992547
0.997378
0.999183
0.998803
0.986772
0.995721
0.942139
0.932944
0.995684
0.994417
0.993948
0.989108
0.98215
0.983394
0.985047
0.987
0.983033
0.82621
0.961883
0.934315
0.977641
0.929407
0.99059
0.992337
0.994587
0.998475
0.999532
0.999895
0.518788
0.518788
0.518788
0.518788
0.518788
0.518788
0.518788
0.518788
0.518788
0.518788
0.518788
0.518788
0.518788
0.518788
0.518788
0.518788
0.518788
0.518788
0.518788
0.518788
0.518788
0.518788
0.518788
0.518788
0.518788
0.518788
0.518788
0.518788
0.518788
0.518788
0.518788
0.518788
0.518788
0.518788
0.518788
0.518788
0.518788
0.518788
0.518788
0.518788
0.518788
0.518788
0.518788
0.518788
0.518788
0.518788
0.518788
0.518788