/*--------------------------------*- C++ -*----------------------------------*\
| =========                 |                                                 |
| \\      /  F ield         | OpenFOAM: The Open Source CFD Toolbox           |
|  \\    /   O peration     | Version:  2.3.0                                 |
|   \\  /    A nd           | Web:      www.OpenFOAM.org                      |
|    \\/     M anipulation  |                                                 |
\*---------------------------------------------------------------------------*/
FoamFile
{
    version     2.0;
    format      ascii;
    class       volScalarField;
    location    "40";
    object      w3;
}
// * * * * * * * * * * * * * * * * * * * * * * * * * * * * * * * * * * * * * //

dimensions      [0 0 0 0 0 0 0];

internalField   nonuniform List<scalar> 
6144
(
0.0283736
0.0283736
0.0283736
0.0283736
0.0283736
0.0283736
0.0283736
0.0283736
0.0283736
0.0283736
0.0283736
0.0283736
0.0283736
0.0283736
0.0283736
0.0283736
0.0283736
0.0283736
0.0283736
0.0283736
0.0283736
0.0283736
0.0283736
0.0283736
0.0283736
0.0283736
0.0283736
0.0283736
0.0283736
0.0283736
0.0283736
0.0283736
0.0283736
0.0283736
0.0283736
0.0283736
0.0283736
0.0283736
0.0283736
0.0283736
0.0283736
0.0283736
0.0283736
0.0283736
0.0283736
0.0283736
0.0283736
0.0283736
0.0283736
0.0283736
0.0283736
0.0283736
0.0283736
0.0283736
0.0283736
0.0283736
0.0283737
0.028375
0.0298462
0.0318452
0.0124847
6.70059e-05
2.70089e-07
4.76791e-05
0.000131553
0.000143272
0.000859278
0.000282642
0.000157266
6.13519e-05
8.34667e-05
0.000408779
0.00065983
0.000368892
0.001023
0.0174941
0.00193901
0.002807
0.00117383
0.00142983
0.00155669
0.00185296
0.00200553
0.00187889
0.00143674
0.00100563
0.00621624
0.00332531
0.0011276
0.0016413
0.00232944
0.0010116
0.000431541
0.000123514
3.73567e-05
7.48825e-06
0.0283736
0.0283736
0.0283736
0.0283736
0.0283736
0.0283736
0.0283736
0.0283736
0.0283736
0.0283736
0.0283736
0.0283736
0.0283736
0.0283736
0.0283736
0.0283736
0.0283736
0.0283736
0.0283736
0.0283736
0.0283736
0.0283736
0.0283736
0.0283736
0.0283736
0.0283736
0.0283736
0.0283736
0.0283736
0.0283736
0.0283736
0.0283736
0.0283736
0.0283736
0.0283736
0.0283736
0.0283736
0.0283736
0.0283736
0.0283736
0.0283736
0.0283736
0.0283736
0.0283736
0.0283736
0.0283736
0.0283736
0.0283736
0.0283736
0.0283736
0.0283736
0.0283736
0.0283736
0.0283736
0.0283736
0.0283735
0.028375
0.0285885
0.0358788
0.0284199
0.0150171
1.54979e-05
2.77838e-07
4.15208e-05
0.000101121
0.000101202
0.000329328
0.000815421
0.00010482
5.14065e-05
0.000107075
0.00162186
0.000934968
0.000497532
0.00269833
0.00425574
0.000818092
0.000956904
0.000930033
0.00154674
0.00181121
0.00816788
0.00119495
0.000891882
0.00249597
0.000483125
0.00035267
0.00033592
0.000445385
0.000545317
0.0110873
0.00072211
0.00023263
7.11438e-05
3.17182e-05
7.5894e-06
0.0283736
0.0283736
0.0283736
0.0283736
0.0283736
0.0283736
0.0283736
0.0283736
0.0283736
0.0283736
0.0283736
0.0283736
0.0283736
0.0283736
0.0283736
0.0283736
0.0283736
0.0283736
0.0283736
0.0283736
0.0283736
0.0283736
0.0283736
0.0283736
0.0283736
0.0283736
0.0283736
0.0283736
0.0283736
0.0283736
0.0283736
0.0283736
0.0283736
0.0283736
0.0283736
0.0283736
0.0283736
0.0283736
0.0283736
0.0283736
0.0283736
0.0283736
0.0283736
0.0283736
0.0283736
0.0283736
0.0283736
0.0283736
0.0283736
0.0283736
0.0283736
0.0283736
0.0283736
0.0283736
0.0283736
0.0283736
0.0283734
0.0284067
0.0321506
0.0130958
0.0558461
3.65522e-07
2.65946e-07
3.19378e-05
6.1858e-05
0.000261633
0.000160588
2.01454e-05
5.87031e-05
5.13858e-05
9.4512e-05
0.00324705
0.00356985
3.91147e-05
3.70891e-05
3.21208e-05
0.000357274
0.000777553
2.93079e-05
2.38724e-05
3.55278e-05
0.000124444
0.000227955
0.00395186
2.24245e-05
2.63285e-05
0.000172885
0.000316226
0.000227608
0.00246388
0.00045009
0.000469822
0.000787444
9.17187e-05
3.24163e-05
7.67425e-06
0.0283736
0.0283736
0.0283736
0.0283736
0.0283736
0.0283736
0.0283736
0.0283736
0.0283736
0.0283736
0.0283736
0.0283736
0.0283736
0.0283736
0.0283736
0.0283736
0.0283736
0.0283736
0.0283736
0.0283736
0.0283736
0.0283736
0.0283736
0.0283736
0.0283736
0.0283736
0.0283736
0.0283736
0.0283736
0.0283736
0.0283736
0.0283736
0.0283736
0.0283736
0.0283736
0.0283736
0.0283736
0.0283736
0.0283736
0.0283736
0.0283736
0.0283736
0.0283736
0.0283736
0.0283736
0.0283736
0.0283736
0.0283736
0.0283736
0.0283736
0.0283736
0.0283736
0.0283736
0.0283736
0.0283736
0.0283735
0.0283736
0.0283739
0.0293763
0.0251242
0.051292
0.000519735
6.37924e-07
5.37179e-07
4.69893e-06
5.25791e-06
8.04272e-06
1.9213e-05
4.49742e-07
9.21455e-07
2.02305e-06
5.98511e-07
8.56273e-07
6.32347e-07
2.29938e-06
1.4232e-06
5.0345e-07
1.45437e-06
5.00315e-07
3.1706e-06
1.27084e-06
5.34444e-07
2.02745e-05
6.40072e-07
9.13093e-07
1.15136e-06
5.63193e-07
7.93517e-05
6.33831e-05
0.000106336
0.000960364
0.000450638
0.00114681
0.000119504
3.62965e-05
7.2042e-06
0.0283736
0.0283736
0.0283736
0.0283736
0.0283736
0.0283736
0.0283736
0.0283736
0.0283736
0.0283736
0.0283736
0.0283736
0.0283736
0.0283736
0.0283736
0.0283736
0.0283736
0.0283736
0.0283736
0.0283736
0.0283736
0.0283736
0.0283736
0.0283736
0.0283736
0.0283736
0.0283736
0.0283736
0.0283736
0.0283736
0.0283736
0.0283736
0.0283736
0.0283736
0.0283736
0.0283736
0.0283736
0.0283736
0.0283736
0.0283736
0.0283736
0.0283736
0.0283736
0.0283736
0.0283736
0.0283736
0.0283736
0.0283736
0.0283736
0.0283736
0.0283736
0.0283736
0.0283736
0.0283736
0.0283736
0.0283735
0.0283737
0.0283706
0.0283679
0.030277
0.00514866
0.00325367
0.00123681
0.000788638
0.000669309
0.00046032
0.00248144
0.00362698
0.000498067
0.0039147
0.0100487
0.00722608
2.6888e-10
1.2109e-08
0.0328877
0.00587079
0.000290503
7.3454e-07
6.56893e-06
0.00179013
0.00607436
0.000393897
9.34876e-05
0.000115221
0.00025326
0.000229395
5.01508e-05
6.94999e-06
9.49896e-07
6.12887e-07
4.76791e-06
3.77997e-06
0.000146379
0.000365465
3.92182e-05
7.5623e-06
0.0283736
0.0283736
0.0283736
0.0283736
0.0283736
0.0283736
0.0283736
0.0283736
0.0283736
0.0283736
0.0283736
0.0283736
0.0283736
0.0283736
0.0283736
0.0283736
0.0283736
0.0283736
0.0283736
0.0283736
0.0283736
0.0283736
0.0283736
0.0283736
0.0283736
0.0283736
0.0283736
0.0283736
0.0283736
0.0283736
0.0283736
0.0283736
0.0283736
0.0283736
0.0283736
0.0283736
0.0283736
0.0283736
0.0283736
0.0283736
0.0283736
0.0283736
0.0283736
0.0283736
0.0283736
0.0283736
0.0283736
0.0283736
0.0283736
0.0283736
0.0283736
0.0283736
0.0283736
0.0283736
0.0283736
0.0283736
0.0283735
0.0283735
0.028374
0.0266143
0.0179037
0.000346722
0.0506653
0.00936242
0.0212092
0.0300525
0.000808413
0.00184428
0.0102365
0.022646
0.0102438
0.0145536
0.155765
6.0844e-06
2.62603e-07
0.100858
0.0354266
0.000444869
0.465144
0.00663426
0.0363399
0.00257996
0.00044969
0.000369549
0.0003167
0.000201851
0.000701877
0.000851893
0.000546428
5.54301e-05
9.89374e-06
1.18721e-06
2.0306e-07
8.57213e-06
2.09143e-05
9.94568e-06
0.0283736
0.0283736
0.0283736
0.0283736
0.0283736
0.0283736
0.0283736
0.0283736
0.0283736
0.0283736
0.0283736
0.0283736
0.0283736
0.0283736
0.0283736
0.0283736
0.0283736
0.0283736
0.0283736
0.0283736
0.0283736
0.0283736
0.0283736
0.0283736
0.0283736
0.0283736
0.0283736
0.0283736
0.0283736
0.0283736
0.0283736
0.0283736
0.0283736
0.0283736
0.0283736
0.0283736
0.0283736
0.0283736
0.0283736
0.0283736
0.0283736
0.0283736
0.0283736
0.0283736
0.0283736
0.0283736
0.0283736
0.0283736
0.0283736
0.0283736
0.0283736
0.0283736
0.0283736
0.0283736
0.0283736
0.0283735
0.0283742
0.0283465
0.0282574
0.0395051
0.00850519
0.0256433
0.00521035
0.00632937
0.02555
0.00107769
0.670522
0.00532527
1.23898e-06
0.0394551
0.0903277
0.0950001
0.0474473
0.0526146
0.853374
0.0308875
0.0012981
0.00766737
0.261384
0.0122585
0.00183612
0.00296353
0.000150198
1.21009e-05
6.39903e-06
1.49585e-06
3.76491e-05
0.00120071
0.000518882
0.000279279
0.000271637
0.000409701
0.000290128
0.00013561
7.41405e-07
2.08214e-07
0.0283736
0.0283736
0.0283736
0.0283736
0.0283736
0.0283736
0.0283736
0.0283736
0.0283736
0.0283736
0.0283736
0.0283736
0.0283736
0.0283736
0.0283736
0.0283736
0.0283736
0.0283736
0.0283736
0.0283736
0.0283736
0.0283736
0.0283736
0.0283736
0.0283736
0.0283736
0.0283736
0.0283736
0.0283736
0.0283736
0.0283736
0.0283736
0.0283736
0.0283736
0.0283736
0.0283736
0.0283736
0.0283736
0.0283736
0.0283736
0.0283736
0.0283736
0.0283736
0.0283736
0.0283736
0.0283736
0.0283736
0.0283736
0.0283736
0.0283736
0.0283736
0.0283736
0.0283736
0.0283736
0.0283736
0.0283735
0.0283737
0.0284211
0.0274269
0.0369846
0.00709708
0.852417
0.000405625
0.369399
0.850764
0.0840627
0.0713931
0.00403286
0.809242
0.00431973
0.000200925
0.00377928
0.0178048
0.121676
1.56496e-11
0.0666118
0.103605
0.0232934
0.00161977
0.0398477
0.124886
0.000131485
0.000580122
0.00231914
0.00423214
0.000517919
5.12898e-05
1.98311e-05
1.82896e-07
0.410549
2.64693e-05
0.00385838
0.0102018
0.899836
0.000359191
0.000176156
0.0283736
0.0283736
0.0283736
0.0283736
0.0283736
0.0283736
0.0283736
0.0283736
0.0283736
0.0283736
0.0283736
0.0283736
0.0283736
0.0283736
0.0283736
0.0283736
0.0283736
0.0283736
0.0283736
0.0283736
0.0283736
0.0283736
0.0283736
0.0283736
0.0283736
0.0283736
0.0283736
0.0283736
0.0283736
0.0283736
0.0283736
0.0283736
0.0283736
0.0283736
0.0283736
0.0283736
0.0283736
0.0283736
0.0283736
0.0283736
0.0283736
0.0283736
0.0283736
0.0283736
0.0283736
0.0283736
0.0283736
0.0283736
0.0283736
0.0283736
0.0283736
0.0283736
0.0283736
0.0283736
0.0283736
0.0283736
0.0283729
0.0283493
0.0285666
0.0377197
0.0359097
0.00234615
0.000449069
0.00887017
0.0466367
0.0125809
0.850153
0.018764
0.00576415
0.869348
0.0278864
0.00137007
0.758101
0.16594
0.0552518
0.0546556
0.883487
0.854535
0.000303591
0.00500309
0.0380435
0.0531892
0.477038
0.183554
0.0033671
0.0153858
0.0154559
0.0663537
0.000185418
2.25194e-06
0.00136452
0.00128495
0.00328339
0.00319744
0.00423132
2.96716e-05
0.0283736
0.0283736
0.0283736
0.0283736
0.0283736
0.0283736
0.0283736
0.0283736
0.0283736
0.0283736
0.0283736
0.0283736
0.0283736
0.0283736
0.0283736
0.0283736
0.0283736
0.0283736
0.0283736
0.0283736
0.0283736
0.0283736
0.0283736
0.0283736
0.0283736
0.0283736
0.0283736
0.0283736
0.0283736
0.0283736
0.0283736
0.0283736
0.0283736
0.0283736
0.0283736
0.0283736
0.0283736
0.0283736
0.0283736
0.0283736
0.0283736
0.0283736
0.0283736
0.0283736
0.0283736
0.0283736
0.0283736
0.0283736
0.0283736
0.0283736
0.0283736
0.0283736
0.0283736
0.0283736
0.0283736
0.0283735
0.0283736
0.028372
0.0283824
0.0379538
0.000162117
0.0411106
0.125628
0.044204
0.407054
0.0141526
0.000364589
2.47413e-05
0.00405317
0.0564753
0.000255372
0.00107937
0.0287744
0.139099
0.0323232
0.022041
0.0560514
0.12662
0.0200358
0.0046123
0.00845035
0.000385316
0.00468736
0.0184435
0.301995
1.00116e-08
3.48243e-06
0.0253979
0.000286275
0.00160521
0.00449545
0.0268367
3.82837e-05
0.000145909
0.00266483
9.65707e-06
0.0283736
0.0283736
0.0283736
0.0283736
0.0283736
0.0283736
0.0283736
0.0283736
0.0283736
0.0283736
0.0283736
0.0283736
0.0283736
0.0283736
0.0283736
0.0283736
0.0283736
0.0283736
0.0283736
0.0283736
0.0283736
0.0283736
0.0283736
0.0283736
0.0283736
0.0283736
0.0283736
0.0283736
0.0283736
0.0283736
0.0283736
0.0283736
0.0283736
0.0283736
0.0283736
0.0283736
0.0283736
0.0283736
0.0283736
0.0283736
0.0283736
0.0283736
0.0283736
0.0283736
0.0283736
0.0283736
0.0283736
0.0283736
0.0283736
0.0283736
0.0283736
0.0283736
0.0283736
0.0283736
0.0283736
0.0283735
0.0283736
0.0281625
0.032136
0.0369185
0.00548483
0.000409326
0.00539693
0.0732362
0.0193034
0.0162086
0.197125
0.0243256
0.0699778
0.0113187
0.00444817
0.00791177
0.00317749
0.00135976
0.00206203
0.00313742
0.000772272
0.000287189
0.000183074
0.000176061
0.000307229
0.000776116
0.000552088
0.000423991
0.00139992
0.000913518
0.000579064
0.0102857
0.000136594
0.000345224
0.000986921
0.000184132
0.000187903
0.00020985
1.08559e-05
3.13013e-07
0.0283736
0.0283736
0.0283736
0.0283736
0.0283736
0.0283736
0.0283736
0.0283736
0.0283736
0.0283736
0.0283736
0.0283736
0.0283736
0.0283736
0.0283736
0.0283736
0.0283736
0.0283736
0.0283736
0.0283736
0.0283736
0.0283736
0.0283736
0.0283736
0.0283736
0.0283736
0.0283736
0.0283736
0.0283736
0.0283736
0.0283736
0.0283736
0.0283736
0.0283736
0.0283736
0.0283736
0.0283736
0.0283736
0.0283736
0.0283736
0.0283736
0.0283736
0.0283736
0.0283736
0.0283736
0.0283736
0.0283736
0.0283736
0.0283736
0.0283736
0.0283736
0.0283736
0.0283736
0.0283736
0.0283736
0.0283735
0.0283736
0.0283738
0.0283164
0.031741
0.00702776
2.44391e-05
0.000707193
0.000510621
0.00075066
0.000278263
8.5919e-06
0.000178608
7.30672e-05
2.52305e-05
5.00093e-06
6.10623e-07
5.60517e-07
4.0341e-05
6.4353e-05
0.000179632
2.08548e-05
1.26007e-05
1.48528e-05
1.46693e-05
1.90512e-05
2.63918e-05
1.68626e-05
9.99852e-06
7.50914e-06
7.16275e-06
8.06452e-06
2.38324e-05
4.57932e-07
1.14578e-06
1.17965e-06
5.95729e-07
1.04576e-06
1.92104e-05
1.17135e-06
1.05627e-05
0.0283736
0.0283736
0.0283736
0.0283736
0.0283736
0.0283736
0.0283736
0.0283736
0.0283736
0.0283736
0.0283736
0.0283736
0.0283736
0.0283736
0.0283736
0.0283736
0.0283736
0.0283736
0.0283736
0.0283736
0.0283736
0.0283736
0.0283736
0.0283736
0.0283736
0.0283736
0.0283736
0.0283736
0.0283736
0.0283736
0.0283736
0.0283736
0.0283736
0.0283736
0.0283736
0.0283736
0.0283736
0.0283736
0.0283736
0.0283736
0.0283736
0.0283736
0.0283736
0.0283736
0.0283736
0.0283736
0.0283736
0.0283736
0.0283736
0.0283736
0.0283736
0.0283736
0.0283736
0.0283736
0.0283736
0.0283735
0.0283736
0.0283736
0.0283715
0.0466167
2.27645e-06
2.60105e-05
1.4385e-07
7.62629e-06
0.000171262
7.28064e-05
0.000105774
7.28492e-05
5.71139e-05
4.93941e-05
4.52765e-05
4.41581e-05
0.000439338
0.00116056
0.0019086
0.00279098
0.0014795
0.00037336
0.000237279
0.000239586
0.000168913
0.000136397
0.000167037
0.000106151
8.37141e-05
9.62827e-05
0.000104133
0.00146744
3.67871e-05
1.68874e-05
3.73537e-05
0.000358909
0.000135952
0.000282997
6.12399e-05
9.00913e-06
0.0283736
0.0283736
0.0283736
0.0283736
0.0283736
0.0283736
0.0283736
0.0283736
0.0283736
0.0283736
0.0283736
0.0283736
0.0283736
0.0283736
0.0283736
0.0283736
0.0283736
0.0283736
0.0283736
0.0283736
0.0283736
0.0283736
0.0283736
0.0283736
0.0283736
0.0283736
0.0283736
0.0283736
0.0283736
0.0283736
0.0283736
0.0283736
0.0283736
0.0283736
0.0283736
0.0283736
0.0283736
0.0283736
0.0283736
0.0283736
0.0283736
0.0283736
0.0283736
0.0283736
0.0283736
0.0283736
0.0283736
0.0283736
0.0283736
0.0283736
0.0283736
0.0283736
0.0283736
0.0283736
0.0283736
0.0283736
0.0283736
0.0283737
0.0283788
0.0352989
0.00747249
2.05763e-05
1.77098e-07
1.9401e-05
5.72582e-05
4.28405e-05
7.23332e-05
0.00010427
0.000192725
0.000493952
0.000806469
0.00207244
0.00446115
0.00652476
0.00165716
0.00188496
0.000798741
0.000296617
0.00019284
0.000229805
0.000241441
0.000274084
0.000979243
0.000292755
9.91189e-05
0.000101615
0.000226341
0.000428096
3.42051e-05
3.2561e-05
8.51466e-05
0.000541289
0.00029725
0.00010785
5.7744e-05
8.73656e-06
0.0283736
0.0283736
0.0283736
0.0283736
0.0283736
0.0283736
0.0283736
0.0283736
0.0283736
0.0283736
0.0283736
0.0283736
0.0283736
0.0283736
0.0283736
0.0283736
0.0283736
0.0283736
0.0283736
0.0283736
0.0283736
0.0283736
0.0283736
0.0283736
0.0283736
0.0283736
0.0283736
0.0283736
0.0283736
0.0283736
0.0283736
0.0283736
0.0283736
0.0283736
0.0283736
0.0283736
0.0283736
0.0283736
0.0283736
0.0283736
0.0283736
0.0283736
0.0283736
0.0283736
0.0283736
0.0283736
0.0283736
0.0283736
0.0283736
0.0283736
0.0283736
0.0283736
0.0283736
0.0283736
0.0283736
0.0283735
0.0283736
0.0283738
0.028675
0.0374194
0.0216244
2.16871e-05
1.74508e-07
2.30132e-05
4.69725e-05
0.000195273
0.000273995
0.000248767
0.000407736
0.000717892
0.00165187
0.00176969
0.00157565
0.00158789
0.00144253
0.00944871
0.00412488
0.000782992
0.000303906
0.000442756
0.000779983
0.000886881
0.000218179
0.0002836
0.00029546
0.000136878
0.00200137
7.51371e-05
3.13423e-05
4.54801e-05
0.000130211
0.00173233
0.000244638
9.03418e-05
5.10598e-05
8.33467e-06
0.0283736
0.0283736
0.0283736
0.0283736
0.0283736
0.0283736
0.0283736
0.0283736
0.0283736
0.0283736
0.0283736
0.0283736
0.0283736
0.0283736
0.0283736
0.0283736
0.0283736
0.0283736
0.0283736
0.0283736
0.0283736
0.0283736
0.0283736
0.0283736
0.0283736
0.0283736
0.0283736
0.0283736
0.0283736
0.0283736
0.0283736
0.0283736
0.0283736
0.0283736
0.0283736
0.0283736
0.0283736
0.0283736
0.0283736
0.0283736
0.0283736
0.0283736
0.0283736
0.0283736
0.0283736
0.0283736
0.0283736
0.0283736
0.0283736
0.0283736
0.0283736
0.0283736
0.0283736
0.0283736
0.0283736
0.0283735
0.0283736
0.0283734
0.0278035
0.0357529
0.00712897
6.98409e-05
1.68589e-07
2.31992e-05
0.000950302
0.000110506
0.000235646
0.000150782
0.000188509
0.000335554
0.000436579
0.000463714
0.000463978
0.000403871
0.000551565
0.000885358
0.000977559
0.0133555
0.0010413
0.000720219
0.000684886
0.00579027
0.000145755
0.000209391
0.000202706
0.000101921
0.000226702
3.45025e-05
3.18642e-05
7.83368e-05
0.000871238
0.00189554
0.000415994
0.000105962
6.07508e-05
8.71052e-06
0.0283736
0.0283736
0.0283736
0.0283736
0.0283736
0.0283736
0.0283736
0.0283736
0.0283736
0.0283736
0.0283736
0.0283736
0.0283736
0.0283736
0.0283736
0.0283736
0.0283736
0.0283736
0.0283736
0.0283736
0.0283736
0.0283736
0.0283736
0.0283736
0.0283736
0.0283736
0.0283736
0.0283736
0.0283736
0.0283736
0.0283736
0.0283736
0.0283736
0.0283736
0.0283736
0.0283736
0.0283736
0.0283736
0.0283736
0.0283736
0.0283736
0.0283736
0.0283736
0.0283736
0.0283736
0.0283736
0.0283736
0.0283736
0.0283736
0.0283736
0.0283736
0.0283736
0.0283736
0.0283736
0.0283736
0.0283736
0.0283736
0.0286541
0.034669
0.0299626
0.0136441
0.000111413
2.76069e-07
3.78351e-05
0.000392037
0.000163896
0.000416571
0.000290614
0.000300098
7.09697e-05
7.13477e-05
0.000316545
0.00247597
0.00121774
0.0580703
0.00352007
0.00167791
0.00361517
0.0188053
0.00325422
0.00211337
0.019626
0.00511504
0.00454893
0.00211862
0.000998894
0.000950012
0.000828305
0.000601109
0.000979831
0.00655547
0.00141074
0.000483637
0.000118816
3.6937e-05
7.45577e-06
0.0283736
0.0283736
0.0283736
0.0283736
0.0283736
0.0283736
0.0283736
0.0283736
0.0283736
0.0283736
0.0283736
0.0283736
0.0283736
0.0283736
0.0283736
0.0283736
0.0283736
0.0283736
0.0283736
0.0283736
0.0283736
0.0283736
0.0283736
0.0283736
0.0283736
0.0283736
0.0283736
0.0283736
0.0283736
0.0283736
0.0283736
0.0283736
0.0283736
0.0283736
0.0283736
0.0283736
0.0283736
0.0283736
0.0283736
0.0283736
0.0283736
0.0283736
0.0283736
0.0283736
0.0283736
0.0283736
0.0283736
0.0283736
0.0283736
0.0283736
0.0283736
0.0283736
0.0283736
0.0283736
0.0283736
0.0283736
0.0283738
0.0283811
0.0283966
0.0331735
0.010095
8.39695e-06
3.0079e-07
2.50849e-05
4.85874e-05
0.000156664
0.00365557
1.88446e-05
0.000100301
4.66032e-05
6.62084e-05
0.00045417
0.000760835
0.000744692
0.00153813
0.000682571
0.000310398
0.000427113
0.00085753
0.0770747
0.00193649
0.00174103
0.000765302
0.000722949
0.00364314
0.000778655
0.00147323
0.00160787
0.00116407
0.00369858
0.000350829
0.000493133
0.000355763
8.35638e-05
3.12373e-05
7.42032e-06
0.0283736
0.0283736
0.0283736
0.0283736
0.0283736
0.0283736
0.0283736
0.0283736
0.0283736
0.0283736
0.0283736
0.0283736
0.0283736
0.0283736
0.0283736
0.0283736
0.0283736
0.0283736
0.0283736
0.0283736
0.0283736
0.0283736
0.0283736
0.0283736
0.0283736
0.0283736
0.0283736
0.0283736
0.0283736
0.0283736
0.0283736
0.0283736
0.0283736
0.0283736
0.0283736
0.0283736
0.0283736
0.0283736
0.0283736
0.0283736
0.0283736
0.0283736
0.0283736
0.0283736
0.0283736
0.0283736
0.0283736
0.0283736
0.0283736
0.0283736
0.0283736
0.0283736
0.0283736
0.0283736
0.0283736
0.0283736
0.0283736
0.0283747
0.0270137
0.035659
0.0234243
4.67942e-07
9.57646e-06
7.37252e-06
8.10229e-06
1.39679e-05
6.38519e-07
4.37401e-05
6.60263e-07
0.000110513
2.84141e-05
4.96508e-05
4.90586e-05
4.94358e-05
5.07228e-05
4.70013e-05
9.50841e-05
7.31085e-05
0.000176471
0.000150291
0.000123013
7.14364e-05
9.92652e-05
0.00230771
0.000273524
0.000203288
0.000312644
0.00104578
0.723429
0.000386405
0.00204429
0.000234775
0.000445979
0.000110821
3.45506e-05
7.29987e-06
0.0283736
0.0283736
0.0283736
0.0283736
0.0283736
0.0283736
0.0283736
0.0283736
0.0283736
0.0283736
0.0283736
0.0283736
0.0283736
0.0283736
0.0283736
0.0283736
0.0283736
0.0283736
0.0283736
0.0283736
0.0283736
0.0283736
0.0283736
0.0283736
0.0283736
0.0283736
0.0283736
0.0283736
0.0283736
0.0283736
0.0283736
0.0283736
0.0283736
0.0283736
0.0283736
0.0283736
0.0283736
0.0283736
0.0283736
0.0283736
0.0283736
0.0283736
0.0283736
0.0283736
0.0283736
0.0283736
0.0283736
0.0283736
0.0283736
0.0283736
0.0283736
0.0283736
0.0283736
0.0283736
0.0283736
0.0283735
0.0283736
0.0283601
0.0293504
0.0291482
0.0109311
2.03889e-05
0.000332841
5.89311e-05
6.44011e-05
0.000476064
0.000345636
0.000692861
0.00178568
0.000429955
0.000258648
0.000235774
0.00116387
0.00680224
0.000249809
1.97517e-05
4.89621e-05
0.00014717
6.69043e-06
2.02664e-05
2.04838e-05
3.44672e-06
5.20712e-07
6.22737e-07
0.000269636
0.000216136
8.98213e-05
3.4103e-05
9.96119e-05
0.0004311
0.000247579
0.00399854
0.000519713
0.000174445
3.54352e-05
7.53393e-06
0.0283736
0.0283736
0.0283736
0.0283736
0.0283736
0.0283736
0.0283736
0.0283736
0.0283736
0.0283736
0.0283736
0.0283736
0.0283736
0.0283736
0.0283736
0.0283736
0.0283736
0.0283736
0.0283736
0.0283736
0.0283736
0.0283736
0.0283736
0.0283736
0.0283736
0.0283736
0.0283736
0.0283736
0.0283736
0.0283736
0.0283736
0.0283736
0.0283736
0.0283736
0.0283736
0.0283736
0.0283736
0.0283736
0.0283736
0.0283736
0.0283736
0.0283736
0.0283736
0.0283736
0.0283736
0.0283736
0.0283736
0.0283736
0.0283736
0.0283736
0.0283736
0.0283736
0.0283736
0.0283736
0.0283736
0.0283735
0.0283736
0.0283754
0.0284092
0.0337026
0.00646317
2.84336e-08
0.0128698
0.0033146
0.0115568
0.0305989
0.147508
0.0139404
0.026708
0.00536862
0.13189
1.84149e-05
0.786112
0.0214203
0.848656
0.853529
0.0439493
0.501928
0.000260499
0.853554
0.00934041
0.00133271
0.00495658
0.000395476
2.73772e-08
5.42642e-05
5.38922e-06
6.49261e-07
4.14496e-07
5.19494e-06
6.63329e-06
0.000101444
0.000557646
0.000287797
4.15779e-05
6.95906e-06
0.0283736
0.0283736
0.0283736
0.0283736
0.0283736
0.0283736
0.0283736
0.0283736
0.0283736
0.0283736
0.0283736
0.0283736
0.0283736
0.0283736
0.0283736
0.0283736
0.0283736
0.0283736
0.0283736
0.0283736
0.0283736
0.0283736
0.0283736
0.0283736
0.0283736
0.0283736
0.0283736
0.0283736
0.0283736
0.0283736
0.0283736
0.0283736
0.0283736
0.0283736
0.0283736
0.0283736
0.0283736
0.0283736
0.0283736
0.0283736
0.0283736
0.0283736
0.0283736
0.0283736
0.0283736
0.0283736
0.0283736
0.0283736
0.0283736
0.0283736
0.0283736
0.0283736
0.0283736
0.0283736
0.0283736
0.0283735
0.0283723
0.0283554
0.0281756
0.0439874
6.82415e-07
0.877423
0.0956854
7.18614e-14
0.000764682
4.80717e-09
0.85084
0.113234
1.34141e-05
0.0102484
0.000115734
0.0949115
0.25855
8.6006e-08
0.0085777
0.0320466
0.0276705
0.00072699
0.0675614
0.323386
0.151462
0.0330487
4.3248e-06
0.860877
4.03334e-08
0.0496949
0.0176332
0.045382
9.06873e-05
5.94835e-05
1.30084e-06
1.98116e-07
1.70487e-05
5.75882e-05
6.16263e-06
2.86693e-06
0.0283736
0.0283736
0.0283736
0.0283736
0.0283736
0.0283736
0.0283736
0.0283736
0.0283736
0.0283736
0.0283736
0.0283736
0.0283736
0.0283736
0.0283736
0.0283736
0.0283736
0.0283736
0.0283736
0.0283736
0.0283736
0.0283736
0.0283736
0.0283736
0.0283736
0.0283736
0.0283736
0.0283736
0.0283736
0.0283736
0.0283736
0.0283736
0.0283736
0.0283736
0.0283736
0.0283736
0.0283736
0.0283736
0.0283736
0.0283736
0.0283736
0.0283736
0.0283736
0.0283736
0.0283736
0.0283736
0.0283736
0.0283736
0.0283736
0.0283736
0.0283736
0.0283736
0.0283736
0.0283736
0.0283736
0.0283736
0.0283735
0.0283751
0.026338
0.0538301
0.00110907
4.39957e-10
0.00344339
0.0187055
0.101703
0.0297045
0.0712617
0.0154662
0.0790701
0.0270978
0.038388
0.057921
0.00139969
0.0728181
2.01023e-05
0.0245074
0.0418347
0.0799614
0.0755474
0.0404227
0.0232722
0.0385085
0.0960161
0.237109
0.0125457
0.0380462
0.0457737
0.0024125
0.0347363
0.0197093
8.09367e-05
0.176829
0.0117964
0.85368
0.864309
0.000697281
0.0283736
0.0283736
0.0283736
0.0283736
0.0283736
0.0283736
0.0283736
0.0283736
0.0283736
0.0283736
0.0283736
0.0283736
0.0283736
0.0283736
0.0283736
0.0283736
0.0283736
0.0283736
0.0283736
0.0283736
0.0283736
0.0283736
0.0283736
0.0283736
0.0283736
0.0283736
0.0283736
0.0283736
0.0283736
0.0283736
0.0283736
0.0283736
0.0283736
0.0283736
0.0283736
0.0283736
0.0283736
0.0283736
0.0283736
0.0283736
0.0283736
0.0283736
0.0283736
0.0283736
0.0283736
0.0283736
0.0283736
0.0283736
0.0283736
0.0283736
0.0283736
0.0283736
0.0283736
0.0283736
0.0283736
0.0283736
0.0283769
0.0283697
0.0285771
0.0537319
1.10429e-05
0.000130537
5.55287e-06
0.0398182
0.0536936
0.019489
0.000114366
0.0553478
0.0325234
1.59327e-05
0.0482555
0.0048268
0.0587099
0.0234319
0.0373997
0.0207694
0.0369708
0.0215077
0.0139308
2.9481e-12
0.0309363
0.0531062
0.0108217
0.0325116
0.0215216
0.0937162
0.0983538
0.0571575
0.012538
0.0015638
0.0249633
0.0397834
0.00601834
0.0244768
0.034826
4.32991e-06
0.0283736
0.0283736
0.0283736
0.0283736
0.0283736
0.0283736
0.0283736
0.0283736
0.0283736
0.0283736
0.0283736
0.0283736
0.0283736
0.0283736
0.0283736
0.0283736
0.0283736
0.0283736
0.0283736
0.0283736
0.0283736
0.0283736
0.0283736
0.0283736
0.0283736
0.0283736
0.0283736
0.0283736
0.0283736
0.0283736
0.0283736
0.0283736
0.0283736
0.0283736
0.0283736
0.0283736
0.0283736
0.0283736
0.0283736
0.0283736
0.0283736
0.0283736
0.0283736
0.0283736
0.0283736
0.0283736
0.0283736
0.0283736
0.0283736
0.0283736
0.0283735
0.0283736
0.0283736
0.0283736
0.0283736
0.0283735
0.0283736
0.0283735
0.0284
0.0356764
0.0222789
1.24738e-06
0.000306588
0.0307863
0.121235
0.00036628
0.0122005
0.00942546
0.0754191
0.0512235
0.123891
0.0564126
0.0354838
0.0401139
0.000434806
0.0031071
0.143078
0.0200361
0.0479745
0.00348321
0.0278648
0.0563199
3.10487e-07
0.116354
0.0017814
0.000240303
0.0638826
0.0028963
0.0587757
0.00179948
0.0752894
0.00272981
0.0562222
0.0280457
0.180989
0.104582
0.0283736
0.0283736
0.0283736
0.0283736
0.0283736
0.0283736
0.0283736
0.0283736
0.0283736
0.0283736
0.0283736
0.0283736
0.0283736
0.0283736
0.0283736
0.0283736
0.0283736
0.0283736
0.0283736
0.0283736
0.0283736
0.0283736
0.0283736
0.0283736
0.0283736
0.0283736
0.0283736
0.0283736
0.0283736
0.0283736
0.0283736
0.0283736
0.0283736
0.0283736
0.0283736
0.0283736
0.0283736
0.0283736
0.0283736
0.0283736
0.0283736
0.0283736
0.0283736
0.0283736
0.0283736
0.0283736
0.0283736
0.0283736
0.0283736
0.0283736
0.0283736
0.0283736
0.0283735
0.0283735
0.0283735
0.0283735
0.0283736
0.0283723
0.0283568
0.0354777
6.07592e-07
0.923881
0.0353008
0.00202863
0.0860686
4.36735e-05
0.55159
1.45311e-10
0.853586
0.0275923
1.70887e-06
0.0237171
0.0105589
0.0323076
0.0396292
0.00473761
0.00234582
0.0296472
0.0403238
0.000307812
0.0383716
0.000877863
1.33376e-05
0.0302018
0.0323297
0.0269163
0.0116309
0.0531002
0.0292703
1.11609e-09
1.02449e-05
0.15085
1.05801e-05
0.227753
0.0692091
7.40449e-05
0.0283736
0.0283736
0.0283736
0.0283736
0.0283736
0.0283736
0.0283736
0.0283736
0.0283736
0.0283736
0.0283736
0.0283736
0.0283736
0.0283736
0.0283736
0.0283736
0.0283736
0.0283736
0.0283736
0.0283736
0.0283736
0.0283736
0.0283736
0.0283736
0.0283736
0.0283736
0.0283736
0.0283736
0.0283736
0.0283736
0.0283736
0.0283736
0.0283736
0.0283736
0.0283736
0.0283736
0.0283736
0.0283736
0.0283736
0.0283736
0.0283736
0.0283736
0.0283736
0.0283736
0.0283736
0.0283736
0.0283736
0.0283736
0.0283736
0.0283736
0.0283736
0.0283735
0.0283736
0.0283736
0.0283735
0.0283735
0.0283735
0.0283818
0.0265207
0.0384786
0.0128763
0.00460263
0.0583162
8.76521e-05
0.164439
0.0369651
0.00536932
0.00510486
0.000910243
0.00293526
0.00047327
0.000933781
0.00276182
0.0115504
0.00368549
0.00412873
0.0222868
0.00492549
0.0045438
0.00574792
0.0105168
1.05443e-05
0.00599329
0.00536052
0.00560945
0.0152612
0.000637078
0.000847013
0.137411
0.0268785
1.05832e-07
0.00478178
0.000577895
0.0010301
1.13769e-05
8.94648e-07
0.0283736
0.0283736
0.0283736
0.0283736
0.0283736
0.0283736
0.0283736
0.0283736
0.0283736
0.0283736
0.0283736
0.0283736
0.0283736
0.0283736
0.0283736
0.0283736
0.0283736
0.0283736
0.0283736
0.0283736
0.0283736
0.0283736
0.0283736
0.0283736
0.0283736
0.0283736
0.0283736
0.0283736
0.0283736
0.0283736
0.0283736
0.0283736
0.0283736
0.0283736
0.0283736
0.0283736
0.0283736
0.0283736
0.0283736
0.0283736
0.0283736
0.0283736
0.0283736
0.0283736
0.0283736
0.0283736
0.0283736
0.0283736
0.0283736
0.0283736
0.0283736
0.0283736
0.0283736
0.0283735
0.0283736
0.0283736
0.0283735
0.0283715
0.0245781
0.035853
0.00268756
2.22036e-05
0.000401487
0.000464209
9.49613e-05
0.000134445
0.000307559
0.00120004
0.00129388
0.000479384
0.00120546
0.00030109
0.000334311
0.000331453
8.19685e-05
3.39437e-05
2.26985e-05
2.34921e-05
3.33023e-05
4.745e-05
5.6313e-05
5.11728e-05
0.000102684
0.00020801
0.00168791
0.000276026
0.000111918
0.00010041
2.92567e-05
0.000691658
4.03201e-06
6.68013e-07
5.39446e-07
1.5315e-05
0.00080947
9.01609e-06
0.0283736
0.0283736
0.0283736
0.0283736
0.0283736
0.0283736
0.0283736
0.0283736
0.0283736
0.0283736
0.0283736
0.0283736
0.0283736
0.0283736
0.0283736
0.0283736
0.0283736
0.0283736
0.0283736
0.0283736
0.0283736
0.0283736
0.0283736
0.0283736
0.0283736
0.0283736
0.0283736
0.0283736
0.0283736
0.0283736
0.0283736
0.0283736
0.0283736
0.0283736
0.0283736
0.0283736
0.0283736
0.0283736
0.0283736
0.0283736
0.0283736
0.0283736
0.0283736
0.0283736
0.0283736
0.0283736
0.0283736
0.0283736
0.0283736
0.0283736
0.0283736
0.0283736
0.0283736
0.0283736
0.0283736
0.0283736
0.0283736
0.0283711
0.0289512
0.0370106
0.000105273
4.78585e-08
6.18917e-06
2.90667e-07
4.52831e-05
0.000109422
9.01036e-05
7.61451e-05
6.63779e-05
6.07562e-05
5.55701e-05
4.7575e-05
4.06087e-05
4.39443e-05
6.43648e-05
0.000181794
2.22456e-05
1.44798e-05
1.29474e-05
1.2513e-05
1.45226e-05
1.51743e-05
1.76069e-05
2.42633e-05
3.54512e-05
2.89402e-05
1.91294e-05
0.000514765
1.00531e-05
1.18395e-05
1.78201e-05
2.34872e-05
0.000123454
9.65721e-05
8.77133e-05
9.8945e-06
0.0283736
0.0283736
0.0283736
0.0283736
0.0283736
0.0283736
0.0283736
0.0283736