/*--------------------------------*- C++ -*----------------------------------*\
| =========                 |                                                 |
| \\      /  F ield         | OpenFOAM: The Open Source CFD Toolbox           |
|  \\    /   O peration     | Version:  2.3.0                                 |
|   \\  /    A nd           | Web:      www.OpenFOAM.org                      |
|    \\/     M anipulation  |                                                 |
\*---------------------------------------------------------------------------*/
FoamFile
{
    version     2.0;
    format      ascii;
    class       volScalarField;
    location    "6";
    object      alpha.water;
}
// * * * * * * * * * * * * * * * * * * * * * * * * * * * * * * * * * * * * * //

dimensions      [0 0 0 0 0 0 0];

internalField   nonuniform List<scalar> 
6144
(
9.99534e-06
9.99262e-06
1.00001e-05
1.00018e-05
9.99925e-06
1.0002e-05
9.99995e-06
1.00024e-05
1.00001e-05
1.00028e-05
1.00005e-05
1.00028e-05
1.00009e-05
1.00024e-05
1.00013e-05
1.00023e-05
1.00017e-05
1.00022e-05
1.0002e-05
1.00022e-05
1.00021e-05
1.00022e-05
1.00022e-05
1.00022e-05
1.00022e-05
1.00023e-05
1.00023e-05
1.00024e-05
1.00021e-05
1.00027e-05
1.00018e-05
1.00032e-05
1.00015e-05
1.00043e-05
1.00006e-05
1.0006e-05
1.00005e-05
1.00061e-05
1.00012e-05
1.00058e-05
1.00021e-05
1.00059e-05
1.00035e-05
1.00057e-05
1.00047e-05
1.00052e-05
1.00051e-05
1.00047e-05
1.00083e-05
1.03034e-05
1.48276e-05
2.71794e-05
4.02525e-05
5.34224e-05
6.13432e-05
6.8075e-05
7.50113e-05
8.61663e-05
0.00202292
0.0764749
0.961664
0.999711
0.999999
0.999999
0.999999
0.999999
0.999999
0.999999
0.999999
0.999999
0.999999
0.999999
0.999999
0.999999
0.999999
0.999999
0.999999
0.999999
0.999999
0.999999
0.999999
0.999999
0.999999
0.999999
0.999999
0.999999
0.999999
0.999999
0.999999
0.999999
0.999999
0.999999
1
1
1
1
9.95299e-06
9.98496e-06
9.99496e-06
9.99797e-06
9.99451e-06
9.99801e-06
9.99541e-06
9.99819e-06
9.9962e-06
9.99855e-06
9.99649e-06
9.99893e-06
9.99706e-06
9.99811e-06
9.99708e-06
9.99839e-06
9.99763e-06
9.99834e-06
9.99805e-06
9.99837e-06
9.99831e-06
9.99842e-06
9.99846e-06
9.99852e-06
9.99857e-06
9.99861e-06
9.99863e-06
9.99871e-06
9.99854e-06
9.99911e-06
9.99815e-06
9.99992e-06
9.99779e-06
1.00009e-05
9.99688e-06
1.00028e-05
9.99709e-06
1.00031e-05
9.99749e-06
1.00026e-05
9.99843e-06
1.00022e-05
9.99978e-06
1.00014e-05
1.00006e-05
1.00003e-05
1.00003e-05
9.99961e-06
9.99964e-06
1.00757e-05
1.15253e-05
2.20491e-05
4.08315e-05
5.87556e-05
6.60194e-05
7.26673e-05
7.64141e-05
8.4917e-05
0.000924349
0.0686452
0.976671
0.999919
0.999999
0.999999
0.999999
0.999999
0.999999
0.999999
0.999999
0.999999
0.999999
0.999999
0.999999
0.999999
0.999999
0.999999
0.999999
0.999999
0.999999
0.999999
0.999999
0.999999
0.999999
0.999999
0.999999
0.999999
0.999999
0.999999
0.999999
0.999999
0.999999
0.999999
1
1
1
1
9.8416e-06
9.91395e-06
9.98802e-06
9.9968e-06
9.99365e-06
9.99874e-06
9.99518e-06
9.99848e-06
9.9962e-06
9.99865e-06
9.99649e-06
9.99915e-06
9.99706e-06
9.99818e-06
9.99704e-06
9.99837e-06
9.99754e-06
9.99837e-06
9.99797e-06
9.99839e-06
9.99829e-06
9.99842e-06
9.99844e-06
9.99851e-06
9.99856e-06
9.9986e-06
9.99862e-06
9.9987e-06
9.99855e-06
9.99907e-06
9.99816e-06
9.99984e-06
9.99779e-06
1.00007e-05
9.99694e-06
1.00026e-05
9.99709e-06
1.00033e-05
9.99749e-06
1.00032e-05
9.99843e-06
1.00025e-05
9.99978e-06
1.00016e-05
1.00007e-05
1.00007e-05
1.0001e-05
1.00014e-05
1.00017e-05
1.00979e-05
1.42538e-05
3.13096e-05
5.05859e-05
6.48486e-05
7.05044e-05
8.00031e-05
8.44687e-05
9.86343e-05
0.000612829
0.0955944
0.979815
0.999962
0.999999
0.999999
0.999999
0.999999
0.999999
0.999999
0.999999
0.999999
0.999999
0.999999
0.999999
0.999999
0.999999
0.999999
0.999999
0.999999
0.999999
0.999999
0.999999
0.999999
0.999999
0.999999
0.999999
0.999999
0.999999
0.999999
0.999999
0.999999
0.999999
0.999999
1
1
1
1
9.66646e-06
9.69505e-06
9.91369e-06
9.9482e-06
9.98668e-06
9.9977e-06
9.99508e-06
9.99913e-06
9.99635e-06
9.99924e-06
9.99692e-06
1.00002e-05
9.99725e-06
9.99976e-06
9.9973e-06
9.99955e-06
9.99782e-06
9.99937e-06
9.99843e-06
9.99916e-06
9.99888e-06
9.9991e-06
9.99907e-06
9.99913e-06
9.99915e-06
9.99916e-06
9.99916e-06
9.99919e-06
9.99909e-06
9.99946e-06
9.9987e-06
1.00001e-05
9.9982e-06
1.00011e-05
9.99772e-06
1.00025e-05
9.99743e-06
1.00039e-05
9.99765e-06
1.00044e-05
9.99843e-06
1.00037e-05
9.99977e-06
1.00027e-05
1.00011e-05
1.0002e-05
1.00049e-05
1.00193e-05
1.01103e-05
1.06932e-05
1.97374e-05
4.37007e-05
5.61335e-05
6.83896e-05
7.85489e-05
9.10581e-05
9.21585e-05
0.000116854
0.000644927
0.135979
0.973255
0.999959
0.999998
0.999999
0.999999
0.999999
0.999999
0.999999
0.999999
0.999998
0.999999
0.999999
0.999999
0.999999
0.999999
0.999999
0.999999
0.999999
0.999999
0.999999
0.999999
0.999999
0.999999
0.999999
0.999999
0.999999
0.999999
0.999999
0.999999
0.999999
0.999999
0.999999
1
1
1
1
9.46515e-06
9.43704e-06
9.73472e-06
9.80074e-06
9.923e-06
9.97529e-06
9.99242e-06
9.9992e-06
9.99679e-06
9.99927e-06
9.99762e-06
1.00006e-05
9.998e-06
1.00006e-05
9.99804e-06
1.00002e-05
9.99843e-06
9.99993e-06
9.9989e-06
9.99978e-06
9.99936e-06
9.99967e-06
9.99959e-06
9.99967e-06
9.99968e-06
9.9997e-06
9.9997e-06
9.99973e-06
9.99965e-06
1e-05
9.99932e-06
1.00006e-05
9.99887e-06
1.00016e-05
9.99841e-06
1.00029e-05
9.99802e-06
1.00043e-05
9.99816e-06
1.00053e-05
9.99892e-06
1.0005e-05
1e-05
1.00043e-05
1.00148e-05
1.00323e-05
1.01018e-05
1.02266e-05
1.0644e-05
1.29272e-05
2.92776e-05
5.24198e-05
5.83362e-05
7.28421e-05
8.78346e-05
9.75081e-05
8.94061e-05
0.000107242
0.000173209
0.151502
0.966645
0.999809
0.999922
0.999977
0.999978
0.999974
0.99997
0.99998
0.999991
0.999998
0.999999
0.999999
0.999999
0.999998
0.999997
0.999998
0.999999
0.999999
0.999999
0.999999
0.999999
0.999999
0.999999
0.999999
0.999999
0.999999
0.999999
0.999999
0.999999
0.999999
0.999999
0.999999
1
1
1
1
9.2942e-06
9.24642e-06
9.54526e-06
9.59878e-06
9.78116e-06
9.91523e-06
9.97301e-06
9.99614e-06
9.99585e-06
9.99894e-06
9.99773e-06
1.00006e-05
9.99845e-06
1.00007e-05
9.99851e-06
1.00004e-05
9.99881e-06
1e-05
9.99907e-06
9.99993e-06
9.99941e-06
9.99972e-06
9.99955e-06
9.99956e-06
9.99953e-06
9.99949e-06
9.99948e-06
9.99945e-06
9.99939e-06
9.99961e-06
9.99908e-06
9.99999e-06
9.99863e-06
1.00007e-05
9.99798e-06
1.00018e-05
9.99745e-06
1.00031e-05
9.99743e-06
1.00044e-05
9.99803e-06
1.00043e-05
9.99892e-06
1.00032e-05
1.00481e-05
1.01555e-05
1.04155e-05
1.07707e-05
1.15565e-05
1.57828e-05
3.87448e-05
5.63936e-05
6.22696e-05
7.32542e-05
8.98367e-05
0.000112155
0.000110178
8.27205e-05
4.26381e-05
0.152885
0.968673
0.998995
0.999101
0.999245
0.999212
0.999302
0.999469
0.999716
0.999891
0.999972
1
0.999999
0.999999
0.999994
0.99999
0.999987
0.999985
0.999992
0.999997
0.999997
0.999998
0.999998
0.999999
0.999999
0.999999
0.999999
0.999999
0.999999
0.999999
0.999999
0.999999
1
1
1
1
1
9.20465e-06
9.13357e-06
9.40859e-06
9.39729e-06
9.63875e-06
9.82301e-06
9.92594e-06
9.98423e-06
9.99338e-06
9.99772e-06
9.99628e-06
9.99951e-06
9.99788e-06
1.00003e-05
9.9985e-06
1.00004e-05
9.99913e-06
1.00003e-05
9.99967e-06
1.00005e-05
1.00002e-05
1.00006e-05
1.00005e-05
1.00007e-05
1.00007e-05
1.00008e-05
1.00009e-05
1.00009e-05
1.00009e-05
1.00012e-05
1.00009e-05
1.00015e-05
1.00007e-05
1.00021e-05
1.00001e-05
1.00031e-05
9.99944e-06
1.00045e-05
1e-05
1.00056e-05
1.00005e-05
1.00056e-05
1.00008e-05
1.00029e-05
1.00792e-05
1.03183e-05
1.07364e-05
1.12986e-05
1.24057e-05
1.76719e-05
4.50695e-05
5.88207e-05
6.80715e-05
7.33002e-05
7.3591e-05
7.27329e-05
5.21042e-05
4.45031e-05
4.26381e-05
0.127744
0.960159
0.998607
0.998562
0.99899
0.998955
0.999349
0.999597
0.999889
1
1
1
1
1
0.999988
0.999958
0.999925
0.999882
0.999834
0.999769
0.9997
0.999644
0.99962
0.999654
0.999788
0.999894
0.999956
0.99997
0.99997
0.999972
0.99998
0.999988
0.999992
0.999995
0.999997
0.999998
1
9.31847e-06
9.08087e-06
9.28907e-06
9.22734e-06
9.47862e-06
9.67754e-06
9.8362e-06
9.94874e-06
9.98648e-06
9.99586e-06
9.99344e-06
9.99714e-06
9.99487e-06
9.99804e-06
9.99587e-06
9.99837e-06
9.99689e-06
9.99855e-06
9.9979e-06
9.99893e-06
9.99861e-06
9.99909e-06
9.99903e-06
9.99918e-06
9.99921e-06
9.99926e-06
9.99932e-06
9.99934e-06
9.99934e-06
9.99951e-06
9.9992e-06
9.9998e-06
9.99892e-06
1.00002e-05
9.99839e-06
1.0001e-05
9.99749e-06
1.00023e-05
9.99785e-06
1.00036e-05
9.99827e-06
1.00042e-05
9.99933e-06
9.99963e-06
1.0112e-05
1.04509e-05
1.10425e-05
1.1887e-05
1.2972e-05
1.69121e-05
4.71712e-05
5.902e-05
6.00841e-05
6.08416e-05
6.55473e-05
6.59136e-05
5.31998e-05
5.99199e-05
4.26381e-05
0.0911186
0.963793
0.997603
0.997301
0.997589
0.997561
0.998971
0.999708
0.99983
0.999766
0.999986
1
1
1
1
0.999966
0.999257
0.998954
0.998609
0.997968
0.997241
0.996595
0.996115
0.995795
0.995555
0.995831
0.996521
0.996645
0.997143
0.99818
0.999284
1
1
1
1
1
0.999935
8.90336e-06
9.08356e-06
9.3156e-06
9.12765e-06
9.40474e-06
9.57164e-06
9.76519e-06
9.91041e-06
9.97488e-06
9.9937e-06
9.99245e-06
9.99259e-06
9.99236e-06
9.99333e-06
9.99316e-06
9.99411e-06
9.9938e-06
9.99422e-06
9.99407e-06
9.99566e-06
9.99536e-06
9.99557e-06
9.9955e-06
9.99569e-06
9.99585e-06
9.99594e-06
9.996e-06
9.99606e-06
9.9961e-06
9.99629e-06
9.99622e-06
9.99647e-06
9.99577e-06
9.99727e-06
9.99562e-06
9.99802e-06
9.99591e-06
9.99887e-06
9.99657e-06
9.99988e-06
9.99759e-06
1.00007e-05
9.99934e-06
1.00019e-05
1.0075e-05
1.0351e-05
1.08433e-05
1.16617e-05
1.31456e-05
1.56591e-05
2.92724e-05
4.87964e-05
5.59486e-05
5.51982e-05
6.07762e-05
6.58471e-05
5.20957e-05
4.76514e-05
4.26381e-05
0.06081
0.974019
0.99874
0.998827
0.999258
0.999539
0.999838
0.999904
0.999935
0.999966
0.999988
0.999997
0.999997
0.999995
0.999993
0.999991
0.999988
0.999984
0.999984
0.999974
0.999957
0.999939
0.999926
0.99992
0.999936
0.999973
0.999982
0.999977
0.999977
0.999984
0.999982
0.999988
0.999998
1
1
0.999999
0.999999
8.43335e-06
8.90249e-06
9.18563e-06
9.0394e-06
9.35413e-06
9.4994e-06
9.68385e-06
9.85756e-06
9.95103e-06
9.99565e-06
9.99484e-06
9.99674e-06
9.9946e-06
9.99596e-06
9.99471e-06
9.99575e-06
9.99475e-06
9.99559e-06
9.99496e-06
9.99657e-06
9.99603e-06
9.99633e-06
9.99614e-06
9.99633e-06
9.99645e-06
9.99652e-06
9.99656e-06
9.99662e-06
9.99666e-06
9.99681e-06
9.99671e-06
9.99712e-06
9.99625e-06
9.99796e-06
9.99614e-06
9.99878e-06
9.99649e-06
9.99979e-06
9.99718e-06
1.00008e-05
9.99801e-06
1.00017e-05
1.00002e-05
1.00111e-05
1.00663e-05
1.02647e-05
1.06973e-05
1.14469e-05
1.31615e-05
1.65017e-05
2.29163e-05
3.43027e-05
4.59459e-05
4.7048e-05
5.06689e-05
5.05899e-05
4.09044e-05
4.15924e-05
6.71187e-05
0.0339892
0.963363
0.999798
0.999908
0.999965
0.999987
0.999996
0.999998
0.999999
0.999999
0.999999
0.999999
0.999999
0.999999
0.999999
0.999999
0.999999
0.999999
0.999999
0.999999
0.999999
0.999999
0.999999
0.999999
0.999999
0.999999
0.999999
0.999999
0.999999
0.999999
0.999999
0.999999
1
1
1
1
1
7.84344e-06
8.73007e-06
9.2154e-06
9.08487e-06
9.53702e-06
9.76368e-06
9.65793e-06
9.79348e-06
9.86599e-06
9.97996e-06
1.00005e-05
1.00006e-05
1.00006e-05
1.00006e-05
1.00006e-05
1.00007e-05
1.00007e-05
1.00007e-05
1.00007e-05
1.00007e-05
1.00007e-05
1.00007e-05
1.00007e-05
1.00007e-05
1.00007e-05
1.00007e-05
1.00007e-05
1.00007e-05
1.00007e-05
1.00007e-05
1.00007e-05
1.00008e-05
1.00012e-05
1.00014e-05
1.00014e-05
1.00014e-05
1.00014e-05
1.00017e-05
1.00021e-05
1.00021e-05
1.00021e-05
1.00021e-05
1.0001e-05
1.00277e-05
1.01158e-05
1.03468e-05
1.08434e-05
1.16801e-05
1.3254e-05
1.67321e-05
2.29105e-05
3.1228e-05
3.97015e-05
4.28345e-05
4.37481e-05
3.51843e-05
3.50472e-05
4.59084e-05
9.39167e-05
0.0182573
0.955802
0.999842
0.999999
0.999999
0.999999
0.999999
0.999999
0.999999
0.999999
0.999999
0.999999
0.999999
0.999999
0.999999
0.999999
0.999999
0.999999
0.999999
0.999999
0.999999
0.999999
0.999999
0.999999
0.999999
0.999999
0.999999
0.999999
0.999999
0.999999
0.999999
1
1
1
1
1
1
5.91291e-06
7.01736e-06
7.40964e-06
7.66644e-06
8.70434e-06
9.37673e-06
9.84064e-06
9.97823e-06
9.90212e-06
9.96566e-06
9.99013e-06
9.99944e-06
9.99823e-06
9.99919e-06
9.99871e-06
9.99955e-06
9.99899e-06
9.99975e-06
9.99923e-06
9.99978e-06
9.99938e-06
9.99965e-06
9.99945e-06
9.99953e-06
9.99946e-06
9.99944e-06
9.99939e-06
9.99936e-06
9.99931e-06
9.99929e-06
9.99919e-06
9.99928e-06
9.9991e-06
9.9996e-06
9.9993e-06
9.99992e-06
9.99936e-06
1.00002e-05
9.99939e-06
1.00007e-05
9.99962e-06
1.00017e-05
9.99944e-06
1.00447e-05
1.01826e-05
1.04764e-05
1.10623e-05
1.20561e-05
1.3721e-05
1.69957e-05
2.30756e-05
3.18683e-05
4.00959e-05
3.96896e-05
3.04616e-05
3.18871e-05
4.5356e-05
8.23453e-05
0.000158542
0.0147889
0.944046
0.999749
0.999999
0.999999
0.999999
0.999999
0.999999
0.999999
0.999999
0.999999
0.999999
0.999999
0.999999
0.999999
0.999999
0.999999
0.999999
0.999999
0.999999
0.999999
0.999999
0.999999
0.999999
0.999999
0.999999
0.999999
0.999999
0.999999
0.999999
0.999999
1
1
1
1
1
1
3.42186e-06
4.50081e-06
5.04589e-06
5.51244e-06
5.90527e-06
6.81323e-06
8.11527e-06
9.26689e-06
9.95741e-06
9.99892e-06
9.99299e-06
1e-05
9.99553e-06
9.99883e-06
9.99601e-06
9.99857e-06
9.99663e-06
9.99838e-06
9.99702e-06
9.99819e-06
9.99728e-06
9.99779e-06
9.99739e-06
9.9975e-06
9.99738e-06
9.99733e-06
9.99728e-06
9.99724e-06
9.99721e-06
9.99721e-06
9.99711e-06
9.99735e-06
9.99696e-06
9.99769e-06
9.99687e-06
9.99837e-06
9.997e-06
9.99916e-06
9.99702e-06
9.99979e-06
9.99716e-06
1.00002e-05
9.99646e-06
1.00543e-05
1.02535e-05
1.06214e-05
1.1236e-05
1.22454e-05
1.39331e-05
1.70184e-05
2.27984e-05
3.18658e-05
3.94853e-05
3.89035e-05
2.92588e-05
2.89296e-05
4.19674e-05
0.000116829
0.000307981
0.015849
0.923708
0.999495
0.999999
0.999999
0.999999
0.999999
0.999999
0.999999
0.999999
0.999999
0.999999
0.999999
0.999999
0.999999
0.999999
0.999999
0.999999
0.999999
0.999999
0.999999
0.999999
0.999999
0.999999
0.999999
0.999999
0.999999
0.999999
0.999999
0.999999
0.999999
1
1
1
1
1
1
2.90042e-06
3.72107e-06
4.29029e-06
4.86282e-06
4.71828e-06
4.78105e-06
5.72276e-06
6.98663e-06
9.03786e-06
9.96686e-06
9.99744e-06
1.00038e-05
9.99707e-06
1.00012e-05
9.99653e-06
1.00004e-05
9.99736e-06
9.99953e-06
9.99776e-06
9.99914e-06
9.99806e-06
9.99866e-06
9.9982e-06
9.99832e-06
9.99819e-06
9.99814e-06
9.99807e-06
9.99801e-06
9.99796e-06
9.99793e-06
9.99778e-06
9.99801e-06
9.99749e-06
9.9983e-06
9.99722e-06
9.99897e-06
9.99723e-06
9.99982e-06
9.99721e-06
1.00005e-05
9.99734e-06
1.00006e-05
9.99676e-06
1.00524e-05
1.02858e-05
1.07612e-05
1.14591e-05
1.25201e-05
1.42474e-05
1.70688e-05
2.1948e-05
3.01307e-05
3.79619e-05
3.88774e-05
3.59072e-05
3.11897e-05
2.85455e-05
5.37614e-05
0.000216282
0.0217852
0.899369
0.999057
0.999998
0.999999
0.999999
0.999999
0.999999
0.999999
0.999999
0.999999
0.999999
0.999999
0.999999
0.999999
0.999999
0.999999
0.999999
0.999999
0.999999
0.999999
0.999999
0.999999
0.999999
0.999999
0.999999
0.999999
0.999999
0.999999
0.999999
0.999999
1
1
1
1
1
1
2.99535e-06
3.46036e-06
3.40615e-06
4.13933e-06
4.40722e-06
4.05929e-06
4.53845e-06
5.62403e-06
7.8716e-06
9.73931e-06
9.99523e-06
1.00059e-05
1.00005e-05
1.00047e-05
9.99886e-06
1.00044e-05
9.99979e-06
1.00031e-05
1.00005e-05
1.00023e-05
1.00009e-05
1.00017e-05
1.00011e-05
1.00013e-05
1.00012e-05
1.00011e-05
1.00011e-05
1.00011e-05
1.0001e-05
1.0001e-05
1.00008e-05
1.00011e-05
1.00005e-05
1.00015e-05
1.00001e-05
1.00023e-05
9.99995e-06
1.00035e-05
1.00001e-05
1.00047e-05
1.00006e-05
1.00054e-05
1.00011e-05
1.00314e-05
1.01833e-05
1.07216e-05
1.17105e-05
1.30704e-05
1.49557e-05
1.77134e-05
2.20725e-05
2.86901e-05
3.6047e-05
3.79254e-05
4.34183e-05
3.97201e-05
3.49843e-05
8.56101e-05
9.46531e-05
0.0296137
0.92079
0.99971
0.999999
0.999999
0.999999
0.999999
0.999999
0.999999
0.999999
0.999999
0.999999
0.999999
0.999999
0.999999
0.999999
0.999999
0.999999
0.999999
0.999999
0.999999
0.999999
0.999999
0.999999
0.999999
0.999999
0.999999
0.999999
0.999999
0.999999
0.999999
1
1
1
1
1
1
2.1976e-06
2.23336e-06
2.45006e-06
2.69402e-06
2.92439e-06
3.33752e-06
3.76903e-06
4.91931e-06
7.98501e-06
9.80173e-06
1.00049e-05
1.00085e-05
1.00085e-05
1.00101e-05
1.00101e-05
1.00101e-05
1.00101e-05
1.00101e-05
1.00101e-05
1.00101e-05
1.001e-05
1.001e-05
1.001e-05
1.001e-05
1.001e-05
1.001e-05
1.001e-05
1.001e-05
1.001e-05
1.001e-05
1.00099e-05
1.00099e-05
1.00099e-05
1.00099e-05
1.00093e-05
1.00118e-05
1.00113e-05
1.00122e-05
1.00121e-05
1.00122e-05
1.00122e-05
1.00122e-05
1.00115e-05
1.00172e-05
1.0039e-05
1.05174e-05
1.24816e-05
1.53316e-05
1.85406e-05
2.21674e-05
2.66875e-05
2.78172e-05
2.91711e-05
2.70502e-05
4.47712e-05
9.86656e-05
7.81422e-05
7.70224e-05
0.000146897
0.0232477
0.931646
0.999623
0.999999
0.999999
0.999999
0.999999
0.999999
0.999999
0.999999
0.999999
0.999999
0.999999
0.999999
0.999999
0.999999
0.999999
0.999999
0.999999
0.999999
0.999999
0.999999
0.999999
0.999999
0.999999
0.999999
0.999999
0.999999
0.999999
0.999999
0.999999
1
1
1
1
1
1
9.99703e-06
1.00028e-05
1.00041e-05
1.00041e-05
1.00041e-05
1.00045e-05
1.00045e-05
1.00045e-05
1.00045e-05
1.00045e-05
1.00045e-05
1.00045e-05
1.00044e-05
1.00044e-05
1.00044e-05
1.00044e-05
1.00043e-05
1.00043e-05
1.00043e-05
1.00043e-05
1.00043e-05
1.00043e-05
1.00042e-05
1.00042e-05
1.00042e-05
1.00042e-05
1.00042e-05
1.00042e-05
1.00042e-05
1.00042e-05
1.00041e-05
1.00043e-05
1.00043e-05
1.00046e-05
1.00033e-05
1.0006e-05
1.00032e-05
1.00063e-05
1.00037e-05
1.00059e-05
1.00043e-05
1.0006e-05
1.00052e-05
1.00057e-05
1.00054e-05
1.00053e-05
1.0005e-05
1.00044e-05
1.00073e-05
1.01354e-05
1.21146e-05
1.94403e-05
3.15653e-05
4.5016e-05
5.6145e-05
6.5287e-05
7.29652e-05
9.61664e-05
0.001271
0.0667384
0.971781
0.999872
0.999999
0.999999
0.999999
0.999999
0.999999
0.999999
0.999999
0.999999
0.999999
0.999999
0.999999
0.999999
0.999999
0.999999
0.999999
0.999999
0.999999
0.999999
0.999999
0.999999
0.999999
0.999999
0.999999
0.999999
0.999999
0.999999
0.999999
0.999999
0.999999
0.999999
1
1
1
1
9.89721e-06
9.97355e-06
9.99759e-06
1.00018e-05
1.00019e-05
1.00038e-05
1.00027e-05
1.00038e-05
1.00026e-05
1.00042e-05
1.00029e-05
1.00045e-05
1.0003e-05
1.00041e-05
1.0003e-05
1.00038e-05
1.00031e-05
1.00035e-05
1.00032e-05
1.00033e-05
1.00031e-05
1.00032e-05
1.00031e-05
1.00031e-05
1.00031e-05
1.0003e-05
1.0003e-05
1.00031e-05
1.00029e-05
1.00033e-05
1.00024e-05
1.00038e-05
1.0002e-05
1.00046e-05
1.00016e-05
1.00056e-05
1.00019e-05
1.00056e-05
1.00019e-05
1.0005e-05
1.00022e-05
1.00045e-05
1.00024e-05
1.00034e-05
1.00014e-05
1.0001e-05
9.99992e-06
9.99952e-06
9.9998e-06
1.01102e-05
1.18248e-05
2.19396e-05
4.4116e-05
5.6552e-05
6.16228e-05
6.57546e-05
6.95141e-05
8.66328e-05
0.000622044
0.110424
0.99034
0.999984
0.999999
0.999999
0.999999
0.999999
0.999999
0.999999
0.999999
0.999999
0.999999
0.999999
0.999999
0.999999
0.999999
0.999999
0.999999
0.999999
0.999999
0.999999
0.999999
0.999999
0.999999
0.999999
0.999999
0.999999
0.999999
0.999999
0.999999
0.999999
0.999999
0.999999
1
1
1
1
9.661e-06
9.75521e-06
9.90662e-06
9.94008e-06
9.99973e-06
1.00052e-05
1.00054e-05
1.00054e-05
1.0005e-05
1.00068e-05
1.00073e-05
1.00075e-05
1.00075e-05
1.00077e-05
1.00077e-05
1.00079e-05
1.00078e-05
1.00079e-05
1.00078e-05
1.00079e-05
1.00078e-05
1.00079e-05
1.00078e-05
1.00079e-05
1.00078e-05
1.00079e-05
1.00078e-05
1.00079e-05
1.00078e-05
1.00079e-05
1.00078e-05
1.00079e-05
1.00078e-05
1.00079e-05
1.00078e-05
1.00078e-05
1.00078e-05
1.00078e-05
1.00078e-05
1.00078e-05
1.00077e-05
1.00077e-05
1.00074e-05
1.0007e-05
1.00068e-05
1.00052e-05
1.00045e-05
1.00037e-05
1.00034e-05
1.00753e-05
1.22023e-05
2.28631e-05
5.74984e-05
9.6972e-05
9.44757e-05
8.35481e-05
7.86537e-05
9.72909e-05
0.000349425
0.176446
0.986702
0.999999
0.999999
0.999999
0.999999
0.999999
0.999999
0.999999
0.999999
0.999999
0.999999
0.999999
0.999999
0.999999
0.999999
0.999999
0.999999
0.999999
0.999999
0.999999
0.999999
0.999999
0.999999
0.999999
0.999999
0.999999
0.999999
0.999999
0.999999
0.999999
0.999999
0.999999
1
1
1
1
9.33505e-06
9.30038e-06
9.41693e-06
9.51954e-06
9.82309e-06
9.94606e-06
9.99713e-06
1.00047e-05
9.99998e-06
1.00026e-05
1.00022e-05
1.00055e-05
1.00041e-05
1.00059e-05
1.00044e-05
1.00055e-05
1.00048e-05
1.00059e-05
1.00055e-05
1.00065e-05
1.00062e-05
1.00066e-05
1.00066e-05
1.00067e-05
1.00067e-05
1.00067e-05
1.00067e-05
1.00067e-05
1.00067e-05
1.00068e-05
1.00064e-05
1.00071e-05
1.00062e-05
1.00073e-05
1.00059e-05
1.00074e-05
1.00058e-05
1.00076e-05
1.0006e-05
1.00078e-05
1.00063e-05
1.00075e-05
1.00059e-05
1.00068e-05
1.00239e-05
1.00247e-05
1.00598e-05
1.01136e-05
1.03438e-05
1.06128e-05
1.51384e-05
2.72096e-05
7.54419e-05
0.000118998
0.000107266
0.000104702
0.000136317
0.000161923
0.00034043
0.303587
0.998579
0.999852
0.999885
0.99992
0.999947
0.999967
0.99998
0.999988
0.999993
0.999996
0.999998
0.999999
0.999999
0.999999
0.999999
0.999999
0.999999
0.999999
0.999999
0.999999
0.999999
0.999999
0.999999
0.999999
0.999999
0.999999
0.999999
0.999999
0.999999
0.999999
0.999999
0.999999
1
1
1
1
8.93705e-06
8.90634e-06
8.72901e-06
8.81819e-06
9.13013e-06
9.64318e-06
9.92556e-06
9.99132e-06
9.99522e-06
9.99862e-06
9.99794e-06
1.00007e-05
9.99969e-06
1.00012e-05
9.99973e-06
1.00007e-05
9.9999e-06
1.00005e-05
1.00002e-05
1.0001e-05
1.00007e-05
1.0001e-05
1.00009e-05
1.0001e-05
1.0001e-05
1.00009e-05
1.00009e-05
1.00009e-05
1.00008e-05
1.00009e-05
1.00005e-05
1.0001e-05
1.00001e-05
1.00012e-05
9.99983e-06
1.00014e-05
9.99965e-06
1.00018e-05
9.99974e-06
1.0003e-05
1.00004e-05
1.00026e-05
1.00002e-05
1.00002e-05
1.01112e-05
1.02533e-05
1.05455e-05
1.07797e-05
1.12346e-05
1.175e-05
1.81271e-05
2.86615e-05
6.60804e-05
0.000132366
0.000133116
0.000133899
0.000147721
0.00015432
0.000115957
0.470122
0.993668
0.995758
0.996103
0.996584
0.99701
0.997475
0.997896
0.998311
0.998732
0.999116
0.999431
0.999657
0.999807
0.999899
0.999952
0.999979
0.999992
0.999997
0.999999
0.999999
0.999999
0.999999
0.999999
0.999999
0.999999
0.999999
0.999999
0.999999
0.999999
0.999999
0.999999
0.999999
1
1
1
1
8.5178e-06
8.6825e-06
8.30261e-06
8.36231e-06
8.36237e-06
9.12472e-06
9.61819e-06
9.92573e-06
9.98886e-06
9.99641e-06
9.995e-06
9.99834e-06
9.99717e-06
9.99879e-06
9.99724e-06
9.99856e-06
9.99746e-06
9.99783e-06
9.99766e-06
9.99802e-06
9.99784e-06
9.99795e-06
9.99776e-06
9.99776e-06
9.99763e-06
9.99755e-06
9.99746e-06
9.99737e-06
9.99725e-06
9.99721e-06
9.997e-06
9.99708e-06
9.99678e-06
9.99698e-06
9.99661e-06
9.99698e-06
9.99655e-06
9.99712e-06
9.99666e-06
9.998e-06
9.99737e-06
9.99778e-06
9.99733e-06
9.99659e-06
1.01478e-05
1.04929e-05
1.09992e-05
1.15e-05
1.20669e-05
1.31573e-05
2.02969e-05
3.70627e-05
5.00582e-05
8.57195e-05
0.000129849
0.000131596
0.000120598
0.000129439
8.6891e-05
0.57773
0.976199
0.978311
0.97876
0.979257
0.979481
0.979911
0.980305
0.98096
0.98278
0.985116
0.987869
0.990659
0.99289
0.994712
0.996209
0.997341
0.998232
0.998903
0.999398
0.999719
0.999891
0.999966
0.999993
0.999999
0.999999
0.999999
0.999999
0.999999
0.999999
0.999999
0.999999
1
1
1
1
1
8.13317e-06
8.54022e-06
8.13906e-06
8.21695e-06
8.00905e-06
8.64416e-06
9.09848e-06
9.71851e-06
9.96493e-06
9.99376e-06
9.993e-06
9.99686e-06
9.99514e-06
9.99712e-06
9.99518e-06
9.99689e-06
9.99516e-06
9.99613e-06
9.99573e-06
9.99582e-06
9.99572e-06
9.99575e-06
9.99559e-06
9.99558e-06
9.99546e-06
9.9954e-06
9.99533e-06
9.99525e-06
9.99516e-06
9.99511e-06
9.99499e-06
9.99499e-06
9.99497e-06
9.99497e-06
9.99496e-06
9.99497e-06
9.99495e-06
9.99497e-06
9.99495e-06
9.99566e-06
9.99583e-06
9.99599e-06
9.99599e-06
9.99645e-06
1.00883e-05
1.044e-05
1.09786e-05
1.16649e-05
1.27252e-05
1.4383e-05
2.3879e-05
5.22759e-05
6.62584e-05
6.25122e-05
5.63098e-05
4.89404e-05
4.80444e-05
4.81202e-05
4.26381e-05
0.526676
0.958745
0.963718
0.963751
0.963671
0.962915
0.961333
0.96002
0.959588
0.959458
0.959366
0.960586
0.963788
0.966196
0.968578
0.970611
0.971779
0.972727
0.974511
0.977602
0.981427
0.985399
0.989191
0.992626
0.99556
0.997636
0.998966
0.999525
0.999502
0.999503
0.999582
0.999644
0.999649
0.999676
0.999656
0.998821
0.997903
7.92747e-06
8.35216e-06
8.12803e-06
8.18373e-06
7.86895e-06
8.25283e-06
8.5572e-06
9.32859e-06
9.87374e-06
9.9903e-06
9.99293e-06
9.99734e-06
9.99508e-06
9.99705e-06
9.9951e-06
9.99678e-06
9.99484e-06
9.99617e-06
9.99559e-06
9.9956e-06
9.99553e-06
9.99553e-06
9.9954e-06
9.9954e-06
9.9953e-06
9.99526e-06
9.99522e-06
9.99519e-06
9.99514e-06
9.99514e-06
9.99508e-06
9.99519e-06
9.99498e-06
9.99554e-06
9.99498e-06
9.99611e-06
9.99504e-06
9.99694e-06
9.99533e-06
9.99785e-06
9.99609e-06
9.9981e-06
9.99761e-06
1.00023e-05
1.00517e-05
1.03368e-05
1.08505e-05
1.1639e-05
1.31168e-05
1.50204e-05
3.10314e-05
5.77097e-05
5.38197e-05
4.90274e-05
4.51548e-05
4.49145e-05
4.47995e-05
4.5261e-05
4.26381e-05
0.222148
0.949593
0.97287
0.971826
0.972348
0.973377
0.973032
0.969869
0.965396
0.960789
0.957701
0.956377
0.955405
0.954428
0.952833
0.950142
0.945386
0.93746
0.930811
0.927074
0.924851
0.923319
0.922315
0.921681
0.921362
0.921014
0.918571
0.911156
0.902392
0.895193
0.88914
0.88277
0.875246
0.861665
0.839654
0.789649
0.590796
7.81539e-06
7.96176e-06
8.13312e-06
8.21761e-06
7.74609e-06
7.83754e-06
7.99813e-06
8.72873e-06
9.61384e-06
9.96735e-06
9.9946e-06
9.99951e-06
9.99786e-06
9.99926e-06
9.99813e-06
9.9993e-06
9.99759e-06
9.99915e-06
9.99801e-06
9.99904e-06
9.99822e-06
9.99873e-06
9.99834e-06
9.99847e-06
9.99833e-06
9.99829e-06
9.99824e-06
9.99821e-06
9.99817e-06
9.99818e-06
9.99801e-06
9.99831e-06
9.99785e-06
9.9986e-06
9.9978e-06
9.99885e-06
9.99777e-06
9.99947e-06
9.99814e-06
1.00002e-05
9.99896e-06
1.00007e-05
9.99936e-06
1.00066e-05
1.00377e-05
1.01562e-05
1.04317e-05
1.11553e-05
1.34164e-05
1.35196e-05
1.84746e-05
4.40604e-05
5.86412e-05
5.78906e-05
4.97539e-05
4.63523e-05
4.4331e-05
4.58917e-05
4.26381e-05
0.125328
0.971718
0.995428
0.995763
0.997136
0.997666
0.998537
0.998793
0.998375
0.998185
0.998585
0.998772
0.998696
0.998707
0.998789
0.998654
0.998297
0.997774
0.997129
0.996457
0.995793
0.99525
0.994815
0.99457
0.994501
0.994709
0.994718
0.994406
0.994217
0.994306
0.994979
0.996598
0.997925
0.99863
0.999051
0.99949
0.999886
7.73424e-06
7.14945e-06
7.83585e-06
7.95716e-06
7.49031e-06
7.32528e-06
7.35041e-06
7.92819e-06
9.07746e-06
9.84869e-06
9.98957e-06
9.99964e-06
9.99833e-06
9.9994e-06
9.99862e-06
9.99949e-06
9.99798e-06
9.99947e-06
9.99838e-06
9.99929e-06
9.99851e-06
9.999e-06
9.99863e-06
9.99877e-06
9.99863e-06
9.99859e-06
9.99853e-06
9.9985e-06
9.99847e-06
9.99847e-06
9.9983e-06
9.9986e-06
9.99814e-06
9.99886e-06
9.99806e-06
9.99906e-06
9.99801e-06
9.99971e-06
9.99848e-06
1.00003e-05
9.99923e-06
1.00009e-05
9.99956e-06
1.00065e-05
1.00147e-05
1.00814e-05
1.03093e-05
1.07865e-05
1.22602e-05
1.26592e-05
1.96093e-05
3.36803e-05
5.00772e-05
4.71032e-05
4.76569e-05
4.32981e-05
4.43749e-05
4.9281e-05
4.26381e-05
0.0827277
0.987058
0.999857
0.999871
0.999956
0.999974
0.999992
0.999994
0.999993
0.999993
0.999994
0.999995
0.999994
0.999994
0.999994
0.999994
0.999995
0.999993
0.999989
0.999986
0.999983
0.999982
0.999982
0.999987
0.999992
0.999996
0.999998
0.999999
0.999999
0.999999
0.999999
0.999999
0.999999
0.999999
0.999999
0.999999
0.999999
7.26953e-06
6.73041e-06
7.30083e-06
7.55573e-06
7.19424e-06
6.79623e-06
6.6936e-06
7.10065e-06
8.22547e-06
9.56875e-06
9.96539e-06
9.99964e-06
9.99876e-06
9.99957e-06
9.99915e-06
9.99964e-06
9.99856e-06
9.99985e-06
9.99894e-06
9.99979e-06
9.99912e-06
9.99957e-06
9.99924e-06
9.99936e-06
9.99923e-06
9.99918e-06
9.99911e-06
9.99907e-06
9.99902e-06
9.99901e-06
9.99886e-06
9.99907e-06
9.99871e-06
9.99925e-06
9.99864e-06
9.99938e-06
9.99858e-06
9.99998e-06
9.99901e-06
1.00004e-05
9.99953e-06
1.00013e-05
1.00004e-05
1.00038e-05
1.00086e-05
1.00735e-05
1.02622e-05
1.05721e-05
1.12839e-05
1.27517e-05
1.92044e-05
2.86674e-05
3.41439e-05
3.52868e-05
3.76913e-05
3.51846e-05
5.0139e-05
5.51458e-05
8.39529e-05
0.0395787
0.973921
0.999999
0.999997
0.999999
0.999999
0.999999
0.999999
0.999999
0.999999
0.999999
0.999999
0.999999
0.999999
0.999999
0.999999
0.999999
0.999999
0.999999
0.999999
0.999999
0.999999
0.999999
0.999999
0.999999
0.999999
0.999999
0.999999
0.999999
0.999999
0.999999
0.999999
1
1
1
1
1
5.5991e-06
6.65211e-06
7.21455e-06
7.51036e-06
6.9689e-06
6.39619e-06
6.17258e-06
6.46196e-06
7.23884e-06
9.08159e-06
9.89128e-06
9.99579e-06
9.99687e-06
9.99725e-06
9.99746e-06
9.99744e-06
9.99701e-06
9.99786e-06
9.99726e-06
9.99791e-06
9.99741e-06
9.9978e-06
9.9975e-06
9.99759e-06
9.99743e-06
9.99735e-06
9.99724e-06
9.99712e-06
9.99701e-06
9.99689e-06
9.99675e-06
9.99676e-06
9.9965e-06
9.99666e-06
9.99633e-06
9.9966e-06
9.99627e-06
9.9968e-06
9.99649e-06
9.99686e-06
9.99654e-06
9.99812e-06
9.99804e-06
1.00023e-05
1.00143e-05
1.00903e-05
1.02614e-05
1.04948e-05
1.1086e-05
1.27091e-05
1.83586e-05
2.78631e-05
3.23527e-05
3.17747e-05
2.93182e-05
3.78798e-05
5.64577e-05
7.01064e-05
0.000135315
0.0317011
0.968808
0.999999
0.999999
0.999999
0.999999
0.999999
0.999999
0.999999
0.999999
0.999999
0.999999
0.999999
0.999999
0.999999
0.999999
0.999999
0.999999
0.999999
0.999999
0.999999
0.999999
0.999999
0.999999
0.999999
0.999999
0.999999
0.999999
0.999999
0.999999
0.999999
1
1
1
1
1
1
3.87331e-06
5.70991e-06
6.75602e-06
7.62201e-06
7.04712e-06
6.26491e-06
5.89985e-06
6.01869e-06
6.45074e-06
8.54773e-06
9.7928e-06
9.99161e-06
9.99498e-06
9.99543e-06
9.99533e-06
9.99545e-06
9.99512e-06
9.99563e-06
9.99519e-06
9.99561e-06
9.99523e-06
9.9955e-06
9.99523e-06
9.99526e-06
9.99512e-06
9.99504e-06
9.99493e-06
9.99482e-06
9.99471e-06
9.9946e-06
9.99445e-06
9.99441e-06
9.99415e-06
9.9943e-06
9.99396e-06
9.99423e-06
9.99394e-06
9.99411e-06
9.99394e-06
9.99422e-06
9.99401e-06
9.99536e-06
9.99574e-06
9.99943e-06
1.0021e-05
1.01106e-05
1.02978e-05
1.06982e-05
1.16132e-05
1.35776e-05
1.75275e-05
2.68609e-05
3.39978e-05
3.27018e-05
3.16329e-05
3.87198e-05
6.45996e-05
9.04318e-05
0.000194377
0.0170955
0.906995
0.999868
0.999999
0.999999
0.999999
0.999999
0.999999
0.999999
0.999999
0.999999
0.999999
0.999999
0.999999
0.999999
0.999999
0.999999
0.999999
0.999999
0.999999
0.999999
0.999999
0.999999
0.999999
0.999999
0.999999
0.999999
0.999999
0.999999
0.999999
0.999999
1
1
1
1
1
1
3.78637e-06
5.35379e-06
5.11445e-06
7.4097e-06
7.96947e-06
7.13828e-06