/*--------------------------------*- C++ -*----------------------------------*\
| =========                 |                                                 |
| \\      /  F ield         | OpenFOAM: The Open Source CFD Toolbox           |
|  \\    /   O peration     | Version:  2.3.0                                 |
|   \\  /    A nd           | Web:      www.OpenFOAM.org                      |
|    \\/     M anipulation  |                                                 |
\*---------------------------------------------------------------------------*/
FoamFile
{
    version     2.0;
    format      ascii;
    class       volScalarField;
    location    "6";
    object      alpha.air;
}
// * * * * * * * * * * * * * * * * * * * * * * * * * * * * * * * * * * * * * //

dimensions      [0 0 0 0 0 0 0];

internalField   nonuniform List<scalar> 
6144
(
0.99999
0.99999
0.99999
0.99999
0.99999
0.99999
0.99999
0.99999
0.99999
0.99999
0.99999
0.99999
0.99999
0.99999
0.99999
0.99999
0.99999
0.99999
0.99999
0.99999
0.99999
0.99999
0.99999
0.99999
0.99999
0.99999
0.99999
0.99999
0.99999
0.99999
0.99999
0.99999
0.99999
0.99999
0.99999
0.99999
0.99999
0.99999
0.99999
0.99999
0.99999
0.99999
0.99999
0.99999
0.99999
0.99999
0.99999
0.99999
0.99999
0.99999
0.999985
0.999973
0.99996
0.999947
0.999939
0.999932
0.999925
0.999914
0.997977
0.923525
0.0383364
0.000289367
1.07168e-06
7.77483e-07
7.79766e-07
7.84368e-07
7.83375e-07
7.84679e-07
7.87926e-07
7.89493e-07
7.90044e-07
7.90724e-07
7.91173e-07
7.92842e-07
7.96397e-07
8.01785e-07
8.08229e-07
8.07537e-07
8.08073e-07
8.09962e-07
8.10422e-07
8.11672e-07
8.19881e-07
8.53779e-07
8.71646e-07
8.71356e-07
8.71871e-07
8.69244e-07
8.52057e-07
8.18631e-07
7.46663e-07
6.09783e-07
4.23948e-07
3.8649e-07
3.86577e-07
3.86659e-07
0.99999
0.99999
0.99999
0.99999
0.99999
0.99999
0.99999
0.99999
0.99999
0.99999
0.99999
0.99999
0.99999
0.99999
0.99999
0.99999
0.99999
0.99999
0.99999
0.99999
0.99999
0.99999
0.99999
0.99999
0.99999
0.99999
0.99999
0.99999
0.99999
0.99999
0.99999
0.99999
0.99999
0.99999
0.99999
0.99999
0.99999
0.99999
0.99999
0.99999
0.99999
0.99999
0.99999
0.99999
0.99999
0.99999
0.99999
0.99999
0.99999
0.99999
0.999988
0.999978
0.999959
0.999941
0.999934
0.999927
0.999924
0.999915
0.999076
0.931355
0.0233292
8.1189e-05
7.74709e-07
7.77913e-07
7.75678e-07
7.75947e-07
7.83069e-07
7.97234e-07
7.9818e-07
7.98439e-07
8.06206e-07
8.191e-07
8.34564e-07
8.5191e-07
8.56947e-07
8.54287e-07
8.48457e-07
8.42043e-07
8.32072e-07
8.18191e-07
8.06136e-07
8.05082e-07
8.21338e-07
8.56983e-07
8.65524e-07
8.63298e-07
8.61819e-07
8.58167e-07
8.46913e-07
8.17224e-07
7.46792e-07
6.09868e-07
4.22337e-07
3.86391e-07
3.86495e-07
3.86583e-07
0.99999
0.99999
0.99999
0.99999
0.99999
0.99999
0.99999
0.99999
0.99999
0.99999
0.99999
0.99999
0.99999
0.99999
0.99999
0.99999
0.99999
0.99999
0.99999
0.99999
0.99999
0.99999
0.99999
0.99999
0.99999
0.99999
0.99999
0.99999
0.99999
0.99999
0.99999
0.99999
0.99999
0.99999
0.99999
0.99999
0.99999
0.99999
0.99999
0.99999
0.99999
0.99999
0.99999
0.99999
0.99999
0.99999
0.99999
0.99999
0.99999
0.99999
0.999986
0.999969
0.999949
0.999935
0.999929
0.99992
0.999916
0.999901
0.999387
0.904406
0.020185
3.79542e-05
7.74709e-07
7.74709e-07
7.75424e-07
7.73428e-07
7.8505e-07
7.9662e-07
8.14465e-07
8.32202e-07
8.85892e-07
9.44889e-07
9.54334e-07
9.2198e-07
8.84076e-07
8.59776e-07
8.5037e-07
8.5266e-07
8.55443e-07
8.51407e-07
8.35373e-07
8.16873e-07
8.40432e-07
8.66812e-07
8.66812e-07
8.66134e-07
8.59978e-07
8.55675e-07
8.46385e-07
8.18273e-07
7.4703e-07
6.08631e-07
4.21757e-07
3.86284e-07
3.86392e-07
3.86495e-07
0.99999
0.99999
0.99999
0.99999
0.99999
0.99999
0.99999
0.99999
0.99999
0.99999
0.99999
0.99999
0.99999
0.99999
0.99999
0.99999
0.99999
0.99999
0.99999
0.99999
0.99999
0.99999
0.99999
0.99999
0.99999
0.99999
0.99999
0.99999
0.99999
0.99999
0.99999
0.99999
0.99999
0.99999
0.99999
0.99999
0.99999
0.99999
0.99999
0.99999
0.99999
0.99999
0.99999
0.99999
0.99999
0.99999
0.99999
0.99999
0.99999
0.999989
0.99998
0.999956
0.999944
0.999932
0.999921
0.999909
0.999908
0.999883
0.999355
0.864021
0.0267448
4.0775e-05
1.96476e-06
8.15048e-07
7.14864e-07
7.42632e-07
8.07741e-07
6.58522e-07
1.20784e-06
1.56533e-06
7.57702e-07
6.43462e-07
8.43305e-07
9.12453e-07
9.62095e-07
9.09697e-07
8.67837e-07
8.58704e-07
8.43516e-07
8.34506e-07
8.28816e-07
8.38883e-07
8.60468e-07
8.62336e-07
8.60808e-07
8.59496e-07
8.55124e-07
8.49061e-07
8.34729e-07
8.00994e-07
7.22987e-07
5.84718e-07
4.07079e-07
3.86182e-07
3.86288e-07
3.86395e-07
0.999991
0.999991
0.99999
0.99999
0.99999
0.99999
0.99999
0.99999
0.99999
0.99999
0.99999
0.99999
0.99999
0.99999
0.99999
0.99999
0.99999
0.99999
0.99999
0.99999
0.99999
0.99999
0.99999
0.99999
0.99999
0.99999
0.99999
0.99999
0.99999
0.99999
0.99999
0.99999
0.99999
0.99999
0.99999
0.99999
0.99999
0.99999
0.99999
0.99999
0.99999
0.99999
0.99999
0.99999
0.99999
0.99999
0.99999
0.99999
0.999989
0.999987
0.999971
0.999948
0.999942
0.999927
0.999912
0.999902
0.999911
0.999893
0.999827
0.848498
0.033355
0.00019061
7.76191e-05
2.26431e-05
2.19189e-05
2.552e-05
2.99321e-05
1.96753e-05
8.9719e-06
2.34393e-06
6.40257e-07
5.93587e-07
6.88781e-07
2.15224e-06
3.03335e-06
2.06173e-06
9.62492e-07
8.44211e-07
8.55523e-07
9.12697e-07
9.24663e-07
8.9646e-07
8.76099e-07
8.52573e-07
8.42366e-07
8.36117e-07
8.30192e-07
8.17508e-07
7.93177e-07
7.47073e-07
6.71246e-07
5.46813e-07
3.91725e-07
3.86081e-07
3.86182e-07
3.86287e-07
0.999991
0.999991
0.99999
0.99999
0.99999
0.99999
0.99999
0.99999
0.99999
0.99999
0.99999
0.99999
0.99999
0.99999
0.99999
0.99999
0.99999
0.99999
0.99999
0.99999
0.99999
0.99999
0.99999
0.99999
0.99999
0.99999
0.99999
0.99999
0.99999
0.99999
0.99999
0.99999
0.99999
0.99999
0.99999
0.99999
0.99999
0.99999
0.99999
0.99999
0.99999
0.99999
0.99999
0.99999
0.99999
0.99999
0.99999
0.999989
0.999988
0.999984
0.999961
0.999944
0.999938
0.999927
0.99991
0.999888
0.99989
0.999917
0.999957
0.847115
0.0313265
0.00100484
0.000898553
0.000755105
0.000787587
0.000697965
0.000530833
0.000283719
0.000109211
2.81307e-05
3.93705e-07
1.38923e-06
6.84622e-07
5.96356e-06
9.79648e-06
1.29413e-05
1.52195e-05
8.26746e-06
3.34712e-06
3.3463e-06
2.34292e-06
1.68166e-06
1.29344e-06
9.21004e-07
7.66691e-07
6.29849e-07
5.93001e-07
5.65321e-07
5.56489e-07
5.47e-07
5.19648e-07
4.75577e-07
3.85938e-07
3.86014e-07
3.86093e-07
3.86194e-07
0.999991
0.999991
0.999991
0.999991
0.99999
0.99999
0.99999
0.99999
0.99999
0.99999
0.99999
0.99999
0.99999
0.99999
0.99999
0.99999
0.99999
0.99999
0.99999
0.99999
0.99999
0.99999
0.99999
0.99999
0.99999
0.99999
0.99999
0.99999
0.99999
0.99999
0.99999
0.99999
0.99999
0.99999
0.99999
0.99999
0.99999
0.99999
0.99999
0.99999
0.99999
0.99999
0.99999
0.99999
0.99999
0.99999
0.999989
0.999989
0.999988
0.999982
0.999955
0.999941
0.999932
0.999927
0.999926
0.999927
0.999948
0.999955
0.999957
0.872256
0.0398407
0.00139336
0.00143753
0.00101024
0.00104537
0.000650948
0.000403245
0.000111318
3.93705e-07
3.93705e-07
3.93705e-07
3.93705e-07
3.93705e-07
1.1615e-05
4.20718e-05
7.45083e-05
0.00011833
0.000165661
0.000230736
0.000299687
0.000355538
0.000379574
0.000346432
0.000212276
0.000106489
4.39989e-05
3.00188e-05
3.02726e-05
2.78685e-05
2.00457e-05
1.20677e-05
8.19107e-06
5.16647e-06
2.55837e-06
2.15969e-06
3.863e-07
0.999991
0.999991
0.999991
0.999991
0.999991
0.99999
0.99999
0.99999
0.99999
0.99999
0.99999
0.99999
0.99999
0.99999
0.99999
0.99999
0.99999
0.99999
0.99999
0.99999
0.99999
0.99999
0.99999
0.99999
0.99999
0.99999
0.99999
0.99999
0.99999
0.99999
0.99999
0.99999
0.99999
0.99999
0.99999
0.99999
0.99999
0.99999
0.99999
0.99999
0.99999
0.99999
0.99999
0.99999
0.99999
0.99999
0.999989
0.999988
0.999987
0.999983
0.999953
0.999941
0.99994
0.999939
0.999934
0.999934
0.999947
0.99994
0.999957
0.908881
0.0362074
0.00239687
0.0026986
0.00241076
0.00243936
0.00102862
0.000292258
0.000169844
0.000234195
1.44009e-05
3.93705e-07
3.93705e-07
3.93705e-07
3.93705e-07
3.43366e-05
0.000743223
0.00104577
0.00139142
0.00203208
0.00275913
0.0034051
0.00388495
0.00420526
0.0044448
0.00416894
0.00347917
0.00335521
0.00285674
0.00181969
0.000715821
3.67854e-07
3.67854e-07
3.67854e-07
3.67854e-07
3.67854e-07
6.51371e-05
0.999991
0.999991
0.999991
0.999991
0.999991
0.99999
0.99999
0.99999
0.99999
0.99999
0.99999
0.99999
0.99999
0.99999
0.99999
0.99999
0.99999
0.99999
0.99999
0.99999
0.99999
0.99999
0.99999
0.99999
0.99999
0.99999
0.99999
0.99999
0.99999
0.99999
0.99999
0.99999
0.99999
0.99999
0.99999
0.99999
0.99999
0.99999
0.99999
0.99999
0.99999
0.99999
0.99999
0.99999
0.99999
0.99999
0.999989
0.999988
0.999987
0.999984
0.999971
0.999951
0.999944
0.999945
0.999939
0.999934
0.999948
0.999952
0.999957
0.93919
0.0259809
0.00125968
0.00117294
0.000741806
0.000460918
0.000162364
9.5824e-05
6.45759e-05
3.44153e-05
1.20136e-05
2.81702e-06
3.02477e-06
4.72718e-06
6.68977e-06
9.35935e-06
1.18785e-05
1.55965e-05
1.60212e-05
2.61691e-05
4.3196e-05
6.0502e-05
7.42041e-05
8.01327e-05
6.37659e-05
2.67324e-05
1.8329e-05
2.32032e-05
2.26884e-05
1.62524e-05
1.75341e-05
1.2161e-05
1.93867e-06
3.67854e-07
4.05099e-07
1.0692e-06
1.25605e-06
0.999992
0.999991
0.999991
0.999991
0.999991
0.999991
0.99999
0.99999
0.99999
0.99999
0.99999
0.99999
0.99999
0.99999
0.99999
0.99999
0.99999
0.99999
0.99999
0.99999
0.99999
0.99999
0.99999
0.99999
0.99999
0.99999
0.99999
0.99999
0.99999
0.99999
0.99999
0.99999
0.99999
0.99999
0.99999
0.99999
0.99999
0.99999
0.99999
0.99999
0.99999
0.99999
0.99999
0.99999
0.99999
0.99999
0.999989
0.999989
0.999987
0.999983
0.999977
0.999966
0.999954
0.999953
0.999949
0.999949
0.999959
0.999958
0.999933
0.966011
0.0366372
0.00020155
9.24744e-05
3.46505e-05
1.2702e-05
4.10497e-06
2.4596e-06
1.25035e-06
1.17229e-06
1.03285e-06
7.25806e-07
6.08272e-07
6.0786e-07
6.08345e-07
6.03133e-07
6.03133e-07
6.75251e-07
7.44105e-07
7.50611e-07
7.56781e-07
7.81146e-07
8.69396e-07
7.77789e-07
6.30802e-07
6.30803e-07
6.30803e-07
6.39995e-07
6.32254e-07
6.13906e-07
5.6919e-07
5.04413e-07
3.97578e-07
3.67855e-07
3.67965e-07
3.67964e-07
3.67688e-07
0.999992
0.999991
0.999991
0.999991
0.99999
0.99999
0.99999
0.99999
0.99999
0.99999
0.99999
0.99999
0.99999
0.99999
0.99999
0.99999
0.99999
0.99999
0.99999
0.99999
0.99999
0.99999
0.99999
0.99999
0.99999
0.99999
0.99999
0.99999
0.99999
0.99999
0.99999
0.99999
0.99999
0.99999
0.99999
0.99999
0.99999
0.99999
0.99999
0.99999
0.99999
0.99999
0.99999
0.99999
0.99999
0.99999
0.999989
0.999988
0.999987
0.999983
0.999977
0.999969
0.99996
0.999957
0.999956
0.999965
0.999965
0.999954
0.999906
0.981743
0.044198
0.000157688
1.13618e-06
7.76613e-07
8.11826e-07
7.49702e-07
7.49702e-07
7.49702e-07
7.50666e-07
7.61524e-07
7.61903e-07
7.62697e-07
7.64247e-07
7.71663e-07
7.76423e-07
7.76149e-07
7.70905e-07
7.64201e-07
7.82602e-07
8.27617e-07
8.5045e-07
8.54893e-07
8.5535e-07
8.51737e-07
8.37961e-07
8.15754e-07
7.73853e-07
7.10572e-07
6.28099e-07
5.39504e-07
4.60629e-07
4.02857e-07
3.71973e-07
3.67104e-07
3.67201e-07
3.67255e-07
0.999994
0.999993
0.999993
0.999992
0.999991
0.999991
0.99999
0.99999
0.99999
0.99999
0.99999
0.99999
0.99999
0.99999
0.99999
0.99999
0.99999
0.99999
0.99999
0.99999
0.99999
0.99999
0.99999
0.99999
0.99999
0.99999
0.99999
0.99999
0.99999
0.99999
0.99999
0.99999
0.99999
0.99999
0.99999
0.99999
0.99999
0.99999
0.99999
0.99999
0.99999
0.99999
0.99999
0.99999
0.99999
0.99999
0.999989
0.999988
0.999986
0.999983
0.999977
0.999968
0.99996
0.99996
0.99997
0.999968
0.999955
0.999918
0.999841
0.985211
0.0559539
0.000250709
7.51564e-07
7.75247e-07
7.67353e-07
7.60944e-07
7.61758e-07
7.6552e-07
7.71808e-07
7.81843e-07
7.81816e-07
7.79963e-07
7.77906e-07
7.74479e-07
7.69385e-07
7.69831e-07
7.6987e-07
7.68426e-07
7.6849e-07
7.75169e-07
8.15764e-07
8.55073e-07
8.58022e-07
8.56251e-07
8.49855e-07
8.34252e-07
7.97171e-07
7.37123e-07
6.56361e-07
5.66033e-07
4.78238e-07
4.07507e-07
3.68474e-07
3.67043e-07
3.67054e-07
3.67202e-07
0.999997
0.999995
0.999995
0.999994
0.999994
0.999993
0.999992
0.999991
0.99999
0.99999
0.99999
0.99999
0.99999
0.99999
0.99999
0.99999
0.99999
0.99999
0.99999
0.99999
0.99999
0.99999
0.99999
0.99999
0.99999
0.99999
0.99999
0.99999
0.99999
0.99999
0.99999
0.99999
0.99999
0.99999
0.99999
0.99999
0.99999
0.99999
0.99999
0.99999
0.99999
0.99999
0.99999
0.99999
0.99999
0.999989
0.999989
0.999988
0.999986
0.999983
0.999977
0.999968
0.999961
0.999961
0.999971
0.999971
0.999958
0.999883
0.999692
0.984151
0.0762923
0.000505098
9.93479e-07
7.50462e-07
7.51292e-07
7.57786e-07
7.59385e-07
7.60934e-07
7.66359e-07
7.7465e-07
7.80236e-07
7.79119e-07
7.77128e-07
7.75005e-07
7.70404e-07
7.70768e-07
7.71234e-07
7.69508e-07
7.68636e-07
7.69346e-07
7.74447e-07
8.15882e-07
8.56599e-07
8.59197e-07
8.61052e-07
8.5231e-07
8.12998e-07
7.50872e-07
6.66435e-07
5.70975e-07
4.79628e-07
4.08048e-07
3.71518e-07
3.66876e-07
3.67049e-07
3.67059e-07
0.999997
0.999996
0.999996
0.999995
0.999995
0.999995
0.999994
0.999993
0.999991
0.99999
0.99999
0.99999
0.99999
0.99999
0.99999
0.99999
0.99999
0.99999
0.99999
0.99999
0.99999
0.99999
0.99999
0.99999
0.99999
0.99999
0.99999
0.99999
0.99999
0.99999
0.99999
0.99999
0.99999
0.99999
0.99999
0.99999
0.99999
0.99999
0.99999
0.99999
0.99999
0.99999
0.99999
0.99999
0.99999
0.999989
0.999989
0.999987
0.999986
0.999983
0.999978
0.99997
0.999962
0.999961
0.999964
0.999969
0.999971
0.999946
0.999784
0.978215
0.100631
0.000942842
1.97397e-06
7.50463e-07
7.50464e-07
7.5277e-07
7.55112e-07
7.54667e-07
7.54316e-07
7.57567e-07
7.66397e-07
7.70159e-07
7.69132e-07
7.66504e-07
7.6337e-07
7.62979e-07
7.66274e-07
7.69019e-07
7.71961e-07
7.73746e-07
7.74031e-07
7.8157e-07
8.28161e-07
8.55746e-07
8.55476e-07
8.41608e-07
8.08282e-07
7.46547e-07
6.62265e-07
5.66412e-07
4.74466e-07
4.03493e-07
3.68095e-07
3.66867e-07
3.66874e-07
3.67067e-07
0.999997
0.999997
0.999997
0.999996
0.999996
0.999996
0.999995
0.999994
0.999992
0.99999
0.99999
0.99999
0.99999
0.99999
0.99999
0.99999
0.99999
0.99999
0.99999
0.99999
0.99999
0.99999
0.99999
0.99999
0.99999
0.99999
0.99999
0.99999
0.99999
0.99999
0.99999
0.99999
0.99999
0.99999
0.99999
0.99999
0.99999
0.99999
0.99999
0.99999
0.99999
0.99999
0.99999
0.99999
0.99999
0.999989
0.999988
0.999987
0.999985
0.999982
0.999978
0.999971
0.999964
0.999962
0.999957
0.99996
0.999965
0.999914
0.999905
0.970386
0.0792102
0.000289869
8.56122e-07
7.5184e-07
7.50464e-07
7.50465e-07
7.51651e-07
7.52667e-07
7.53582e-07
7.56906e-07
7.60268e-07
7.5905e-07
7.57185e-07
7.56352e-07
7.56679e-07
7.56755e-07
7.59693e-07
7.65151e-07
7.72384e-07
7.74724e-07
7.73476e-07
7.76069e-07
7.95343e-07
8.41461e-07
8.54327e-07
8.37428e-07
7.9753e-07
7.33655e-07
6.49033e-07
5.54766e-07
4.65666e-07
3.983e-07
3.66728e-07
3.66722e-07
3.6689e-07
3.66895e-07
0.999998
0.999998
0.999998
0.999997
0.999997
0.999997
0.999996
0.999995
0.999992
0.99999
0.99999
0.99999
0.99999
0.99999
0.99999
0.99999
0.99999
0.99999
0.99999
0.99999
0.99999
0.99999
0.99999
0.99999
0.99999
0.99999
0.99999
0.99999
0.99999
0.99999
0.99999
0.99999
0.99999
0.99999
0.99999
0.99999
0.99999
0.99999
0.99999
0.99999
0.99999
0.99999
0.99999
0.99999
0.99999
0.999989
0.999988
0.999985
0.999981
0.999978
0.999973
0.999972
0.999971
0.999973
0.999955
0.999901
0.999922
0.999923
0.999853
0.976752
0.0683544
0.000376914
7.99549e-07
7.74387e-07
7.52986e-07
7.50466e-07
7.5201e-07
7.54331e-07
7.55252e-07
7.56698e-07
7.5939e-07
7.59477e-07
7.59477e-07
7.5933e-07
7.59488e-07
7.60538e-07
7.62986e-07
7.6479e-07
7.69759e-07
7.71108e-07
7.7113e-07
7.73132e-07
7.7892e-07
7.85033e-07
8.21459e-07
8.62692e-07
8.25082e-07
7.50386e-07
6.56599e-07
5.57326e-07
4.6769e-07
4.03251e-07
3.71953e-07
3.66762e-07
3.66799e-07
3.66945e-07
0.99999
0.99999
0.99999
0.99999
0.99999
0.99999
0.99999
0.99999
0.99999
0.99999
0.99999
0.99999
0.99999
0.99999
0.99999
0.99999
0.99999
0.99999
0.99999
0.99999
0.99999
0.99999
0.99999
0.99999
0.99999
0.99999
0.99999
0.99999
0.99999
0.99999
0.99999
0.99999
0.99999
0.99999
0.99999
0.99999
0.99999
0.99999
0.99999
0.99999
0.99999
0.99999
0.99999
0.99999
0.99999
0.99999
0.99999
0.99999
0.99999
0.99999
0.999988
0.999981
0.999968
0.999955
0.999944
0.999935
0.999927
0.999904
0.998729
0.933262
0.0282186
0.00012808
7.74709e-07
7.77704e-07
7.81243e-07
7.85556e-07
7.86901e-07
7.87469e-07
7.88629e-07
7.90349e-07
7.91699e-07
7.92109e-07
7.92448e-07
7.9274e-07
7.93582e-07
7.93596e-07
7.936e-07
7.94212e-07
7.95569e-07
7.97986e-07
7.98024e-07
7.98838e-07
8.00416e-07
8.12576e-07
8.43289e-07
8.41659e-07
8.3221e-07
8.36689e-07
8.46175e-07
8.26502e-07
7.55402e-07
6.1588e-07
4.26228e-07
3.86551e-07
3.86631e-07
3.86728e-07
0.99999
0.99999
0.99999
0.99999
0.99999
0.99999
0.99999
0.99999
0.99999
0.99999
0.99999
0.99999
0.99999
0.99999
0.99999
0.99999
0.99999
0.99999
0.99999
0.99999
0.99999
0.99999
0.99999
0.99999
0.99999
0.99999
0.99999
0.99999
0.99999
0.99999
0.99999
0.99999
0.99999
0.99999
0.99999
0.99999
0.99999
0.99999
0.99999
0.99999
0.99999
0.99999
0.99999
0.99999
0.99999
0.99999
0.99999
0.99999
0.99999
0.99999
0.999988
0.999978
0.999956
0.999943
0.999938
0.999934
0.99993
0.999913
0.999378
0.889576
0.00965955
1.55462e-05
7.74707e-07
7.96165e-07
8.2916e-07
8.12373e-07
8.05717e-07
7.99317e-07
7.92502e-07
7.90671e-07
7.90691e-07
7.90985e-07
7.91721e-07
7.93547e-07
7.98397e-07
8.05597e-07
8.07908e-07
8.06694e-07
8.05595e-07
8.04256e-07
8.03263e-07
8.02681e-07
8.0287e-07
8.1106e-07
8.33086e-07
8.3007e-07
8.20848e-07
8.25932e-07
8.38779e-07
8.31744e-07
7.73861e-07
6.33046e-07
4.33429e-07
3.86469e-07
3.86555e-07
3.86635e-07
0.99999
0.99999
0.99999
0.99999
0.99999
0.99999
0.99999
0.99999
0.99999
0.99999
0.99999
0.99999
0.99999
0.99999
0.99999
0.99999
0.99999
0.99999
0.99999
0.99999
0.99999
0.99999
0.99999
0.99999
0.99999
0.99999
0.99999
0.99999
0.99999
0.99999
0.99999
0.99999
0.99999
0.99999
0.99999
0.99999
0.99999
0.99999
0.99999
0.99999
0.99999
0.99999
0.99999
0.99999
0.99999
0.99999
0.99999
0.99999
0.99999
0.99999
0.999988
0.999977
0.999943
0.999903
0.999906
0.999916
0.999921
0.999903
0.999651
0.823554
0.0132977
1.17294e-06
1.27936e-06
1.02952e-06
9.44254e-07
7.7667e-07
9.0958e-07
8.87294e-07
8.61589e-07
8.4517e-07
8.64468e-07
8.80372e-07
8.87181e-07
8.97901e-07
8.85846e-07
8.7104e-07
8.54053e-07
8.48707e-07
8.45161e-07
8.39273e-07
8.34386e-07
8.3055e-07
8.22706e-07
8.26913e-07
8.44306e-07
8.38142e-07
8.23622e-07
8.24616e-07
8.36911e-07
8.35831e-07
7.87981e-07
6.44515e-07
4.3755e-07
3.86369e-07
3.8647e-07
3.86555e-07
0.999991
0.999991
0.999991
0.99999
0.99999
0.99999
0.99999
0.99999
0.99999
0.99999
0.99999
0.99999
0.99999
0.99999
0.99999
0.99999
0.99999
0.99999
0.99999
0.99999
0.99999
0.99999
0.99999
0.99999
0.99999
0.99999
0.99999
0.99999
0.99999
0.99999
0.99999
0.99999
0.99999
0.99999
0.99999
0.99999
0.99999
0.99999
0.99999
0.99999
0.99999
0.99999
0.99999
0.99999
0.99999
0.99999
0.99999
0.99999
0.99999
0.999989
0.999985
0.999973
0.999925
0.999881
0.999893
0.999895
0.999864
0.999838
0.99966
0.696413
0.00142065
0.000148119
0.000115221
7.96209e-05
5.3116e-05
3.3139e-05
1.98993e-05
1.18674e-05
7.13443e-06
3.88069e-06
2.0913e-06
1.4078e-06
1.19541e-06
9.68009e-07
8.85778e-07
9.03109e-07
8.16687e-07
8.13191e-07
8.2052e-07
8.27928e-07
8.31163e-07
8.31066e-07
8.35719e-07
8.47983e-07
8.476e-07
8.30518e-07
8.20592e-07
8.25987e-07
8.40275e-07
8.38275e-07
7.83848e-07
6.36801e-07
4.33766e-07
3.8627e-07
3.86378e-07
3.86479e-07
0.999991
0.999991
0.999991
0.999991
0.999991
0.99999
0.99999
0.99999
0.99999
0.99999
0.99999
0.99999
0.99999
0.99999
0.99999
0.99999
0.99999
0.99999
0.99999
0.99999
0.99999
0.99999
0.99999
0.99999
0.99999
0.99999
0.99999
0.99999
0.99999
0.99999
0.99999
0.99999
0.99999
0.99999
0.99999
0.99999
0.99999
0.99999
0.99999
0.99999
0.99999
0.99999
0.99999
0.99999
0.99999
0.99999
0.999989
0.999989
0.999989
0.999988
0.999982
0.999971
0.999934
0.999868
0.999867
0.999866
0.999852
0.999846
0.999884
0.529878
0.00633214
0.00424196
0.00389691
0.0034155
0.00299035
0.00252521
0.00210435
0.00168871
0.00126778
0.000884389
0.000569166
0.000342912
0.000192919
0.000101245
4.79185e-05
2.10157e-05
7.94569e-06
2.84124e-06
1.10405e-06
9.0078e-07
9.97536e-07
8.50956e-07
8.90243e-07
8.68214e-07
8.51876e-07
8.34258e-07
8.33537e-07
8.37057e-07
8.42419e-07
8.21332e-07
7.46285e-07
6.03452e-07
4.18189e-07
3.8617e-07
3.86274e-07
3.86382e-07
0.999991
0.999991
0.999992
0.999992
0.999992
0.999991
0.99999
0.99999
0.99999
0.99999
0.99999
0.99999
0.99999
0.99999
0.99999
0.99999
0.99999
0.99999
0.99999
0.99999
0.99999
0.99999
0.99999
0.99999
0.99999
0.99999
0.99999
0.99999
0.99999
0.99999
0.99999
0.99999
0.99999
0.99999
0.99999
0.99999
0.99999
0.99999
0.99999
0.99999
0.99999
0.99999
0.99999
0.99999
0.99999
0.99999
0.999989
0.999988
0.999988
0.999987
0.99998
0.999963
0.99995
0.999914
0.99987
0.999868
0.999879
0.999871
0.999913
0.42227
0.0238012
0.021689
0.0212398
0.0207435
0.0205194
0.0200888
0.0196953
0.0190401
0.0172197
0.0148843
0.0121315
0.00934106
0.00711015
0.00528788
0.0037913
0.00265879
0.0017682
0.00109748
0.000602431
0.000281075
0.000109451
3.38986e-05
6.56234e-06
8.82257e-07
8.92566e-07
6.76918e-07
8.31893e-07
8.70183e-07
9.42834e-07
8.98424e-07
5.95424e-07
4.55896e-07
3.86013e-07
3.86089e-07
3.86192e-07
4.32609e-07
0.999992
0.999991
0.999992
0.999992
0.999992
0.999991
0.999991
0.99999
0.99999
0.99999
0.99999
0.99999
0.99999
0.99999
0.99999
0.99999
0.99999
0.99999
0.99999
0.99999
0.99999
0.99999
0.99999
0.99999
0.99999
0.99999
0.99999
0.99999
0.99999
0.99999
0.99999
0.99999
0.99999
0.99999
0.99999
0.99999
0.99999
0.99999
0.99999
0.99999
0.99999
0.99999
0.99999
0.99999
0.99999
0.99999
0.999989
0.999988
0.999987
0.999986
0.999976
0.999948
0.999934
0.999937
0.999944
0.999951
0.999952
0.999952
0.999957
0.473324
0.0412549
0.0362823
0.0362488
0.0363285
0.0370847
0.0386675
0.0399804
0.0404116
0.0405423
0.0406336
0.039414
0.0362116
0.0338038
0.0314222
0.0293889
0.0282209
0.0272726
0.0254886
0.0223979
0.0185726
0.0146014
0.0108086
0.00737377
0.00444047
0.00236408
0.00103391
0.000475274
0.000497847
0.000497039
0.000418499
0.000355646
0.00035062
0.000323628
0.000343738
0.00117908
0.00209698
0.999992
0.999992
0.999992
0.999992
0.999992
0.999992
0.999991
0.999991
0.99999
0.99999
0.99999
0.99999
0.99999
0.99999
0.99999
0.99999
0.99999
0.99999
0.99999
0.99999
0.99999
0.99999
0.99999
0.99999
0.99999
0.99999
0.99999
0.99999
0.99999
0.99999
0.99999
0.99999
0.99999
0.99999
0.99999
0.99999
0.99999
0.99999
0.99999
0.99999
0.99999
0.99999
0.99999
0.99999
0.99999
0.99999
0.999989
0.999988
0.999987
0.999985
0.999969
0.999942
0.999946
0.999951
0.999955
0.999955
0.999955
0.999955
0.999957
0.777852
0.0504073
0.0271296
0.0281739
0.0276524
0.0266229
0.0269684
0.0301305
0.0346038
0.0392107
0.0422987
0.0436226
0.0445946
0.0455716
0.0471666
0.0498585
0.0546142
0.0625405
0.0691887
0.0729259
0.0751488
0.0766805
0.0776848
0.0783189
0.078638
0.0789863
0.0814286
0.0888436
0.097608
0.104807
0.11086
0.11723
0.124754
0.138335
0.160346
0.210351
0.409204
0.999992
0.999992
0.999992
0.999992
0.999992
0.999992
0.999992
0.999991
0.99999
0.99999
0.99999
0.99999
0.99999
0.99999
0.99999
0.99999
0.99999
0.99999
0.99999
0.99999
0.99999
0.99999
0.99999
0.99999
0.99999
0.99999
0.99999
0.99999
0.99999
0.99999
0.99999
0.99999
0.99999
0.99999
0.99999
0.99999
0.99999
0.99999
0.99999
0.99999
0.99999
0.99999
0.99999
0.99999
0.99999
0.99999
0.99999
0.999989
0.999987
0.999986
0.999982
0.999956
0.999941
0.999942
0.99995
0.999954
0.999956
0.999954
0.999957
0.874672
0.0282818
0.00457218
0.00423685
0.00286355
0.00233386
0.00146325
0.00120707
0.00162484
0.00181499
0.00141526
0.00122797
0.00130421
0.00129334
0.0012112
0.00134618
0.00170316
0.00222565
0.00287087
0.00354287
0.00420722
0.00474964
0.00518493
0.00542953
0.00549929
0.00529117
0.00528172
0.0055941
0.0057834
0.00569411
0.00502078
0.0034018
0.00207511
0.00136987
0.000949241
0.00050965
0.000114286
0.999992
0.999993
0.999992
0.999992
0.999993
0.999993
0.999993
0.999992
0.999991
0.99999
0.99999
0.99999
0.99999
0.99999
0.99999
0.99999
0.99999
0.99999
0.99999
0.99999
0.99999
0.99999
0.99999
0.99999
0.99999
0.99999
0.99999
0.99999
0.99999
0.99999
0.99999
0.99999
0.99999
0.99999
0.99999
0.99999
0.99999
0.99999
0.99999
0.99999
0.99999
0.99999
0.99999
0.99999
0.99999
0.99999
0.99999
0.999989
0.999988
0.999987
0.99998
0.999966
0.99995
0.999953
0.999952
0.999957
0.999956
0.999951
0.999957
0.917272
0.0129417
0.000142805
0.000128679
4.36523e-05
2.56484e-05
8.34476e-06
6.06293e-06
6.87924e-06
6.97514e-06
5.65788e-06
5.11275e-06
5.51025e-06
6.03575e-06
5.86795e-06
5.74354e-06
5.37902e-06
7.33764e-06
1.06127e-05
1.43084e-05
1.66062e-05
1.77258e-05
1.76494e-05
1.33179e-05
8.46604e-06
4.1281e-06
1.56704e-06
6.39723e-07
8.15095e-07
6.40745e-07
5.70073e-07
1.07136e-06
1.20405e-06
6.20453e-07
9.44741e-07
1.10141e-06
9.20745e-07
0.999993
0.999993
0.999993
0.999992
0.999993
0.999993
0.999993
0.999993
0.999992
0.99999
0.99999
0.99999
0.99999
0.99999
0.99999
0.99999
0.99999
0.99999
0.99999
0.99999
0.99999
0.99999
0.99999
0.99999
0.99999
0.99999
0.99999
0.99999
0.99999
0.99999
0.99999
0.99999
0.99999
0.99999
0.99999
0.99999
0.99999
0.99999
0.99999
0.99999
0.99999
0.99999
0.99999
0.99999
0.99999
0.99999
0.99999
0.999989
0.999989
0.999987
0.999981
0.999971
0.999966
0.999965
0.999962
0.999965
0.99995
0.999945
0.999916
0.960421
0.0260789
7.54297e-07
2.67587e-06
7.83375e-07
9.95332e-07
7.49703e-07
7.50673e-07
8.11835e-07
8.43169e-07
8.23338e-07
7.85937e-07
7.8217e-07
8.20212e-07
8.47948e-07
8.4432e-07
8.16434e-07
7.60428e-07
7.20222e-07
7.20704e-07
7.52489e-07
8.48415e-07
8.81616e-07
8.71611e-07
8.52484e-07
8.16866e-07
7.78984e-07
7.41942e-07
6.97293e-07
6.45112e-07
5.85829e-07
5.22476e-07
4.52869e-07
3.98318e-07
3.76541e-07
3.69755e-07
3.67223e-07
0.999994
0.999993
0.999993
0.999992
0.999993
0.999994
0.999994
0.999994
0.999993
0.999991
0.99999
0.99999
0.99999
0.99999
0.99999
0.99999
0.99999
0.99999
0.99999
0.99999
0.99999
0.99999
0.99999
0.99999
0.99999
0.99999
0.99999
0.99999
0.99999
0.99999
0.99999
0.99999
0.99999
0.99999
0.99999
0.99999
0.99999
0.99999
0.99999
0.99999
0.99999
0.99999
0.99999
0.99999
0.99999
0.99999
0.99999
0.99999
0.999989
0.999987
0.999982
0.999972
0.999968
0.999968
0.999971
0.999962
0.999944
0.99993
0.999865
0.968299
0.0311921
7.54298e-07
8.19369e-07
8.22365e-07
8.20409e-07
8.17578e-07
8.23034e-07
8.17058e-07
8.00667e-07
7.93616e-07
7.80942e-07
7.73592e-07
7.73162e-07
7.77415e-07
7.82009e-07
7.88635e-07
7.85115e-07
7.79472e-07
7.7963e-07
7.86081e-07
8.08616e-07
8.28797e-07
8.32822e-07
8.2141e-07
8.03565e-07
7.83241e-07
7.54464e-07
7.06595e-07
6.4616e-07
5.68683e-07
4.92059e-07
4.23253e-07
3.69808e-07
3.66871e-07
3.67081e-07
3.67056e-07
0.999996
0.999994
0.999993
0.999992
0.999993
0.999994
0.999994
0.999994
0.999994
0.999991
0.99999
0.99999
0.99999
0.99999
0.99999
0.99999
0.99999
0.99999
0.99999
0.99999
0.99999
0.99999
0.99999
0.99999
0.99999
0.99999
0.99999
0.99999
0.99999
0.99999
0.99999
0.99999
0.99999
0.99999
0.99999
0.99999
0.99999
0.99999
0.99999
0.99999
0.99999
0.99999
0.99999
0.99999
0.99999
0.99999
0.99999
0.999989
0.999988
0.999986
0.999982
0.999973
0.999966
0.999967
0.999968
0.999961
0.999935
0.99991
0.999806
0.982905
0.0930052
0.000132103
7.543e-07
8.17639e-07
7.71349e-07
7.8742e-07
7.76169e-07
7.67056e-07
7.68784e-07
7.72536e-07
7.74514e-07
7.73801e-07
7.70464e-07
7.72468e-07
7.80377e-07
7.87745e-07
7.8703e-07
7.79281e-07
7.79976e-07
7.80004e-07
7.82223e-07
8.13261e-07
8.40231e-07
8.48833e-07
8.51705e-07
8.42995e-07
8.16366e-07
7.55941e-07
6.6898e-07
5.73099e-07
4.78477e-07
4.03747e-07
3.66889e-07
3.66914e-07
3.66874e-07
3.6706e-07
0.999996
0.999995
0.999995
0.999993
0.999992
0.999993
0.999994
0.999994
0.999994
0.999992
0.99999
0.99999
0.99999
0.99999
0.99999
0.99999
0.99999
0.99999
0.99999
0.99999
0.99999
0.99999
0.99999
0.99999
0.99999
0.99999
0.99999
0.99999
0.99999
0.99999
0.99999
0.99999
0.99999
0.99999
0.99999
0.99999
0.99999
0.99999
0.99999
0.99999
0.99999
0.99999
0.99999
0.99999
0.99999
0.99999
0.999989
0.999989
0.999987
0.999984
0.999979
0.999972
0.999966
0.999966
0.999944
0.999916
0.999917
0.999898
0.999881
0.937868
0.0317017
3.6282e-05
7.543e-07
7.83208e-07
7.68421e-07
7.65298e-07
7.5999e-07
7.54676e-07
7.54161e-07
7.55455e-07
7.57954e-07
7.61902e-07
7.61754e-07
7.60805e-07
7.61001e-07
7.66033e-07
7.82334e-07
7.77624e-07
7.78688e-07
7.79882e-07
7.77802e-07
7.8464e-07
8.16365e-07
8.41084e-07
8.52476e-07
8.48748e-07
8.2403e-07
7.63236e-07
6.70404e-07
5.63184e-07
4.64131e-07
3.92918e-07
3.66774e-07
3.66695e-07
3.66925e-07
3.66891e-07
0.999996
0.999995
0.999995
0.999994
0.999993
0.999993
0.999994
0.999995
0.999995
0.999992
0.99999
0.99999
0.99999
0.99999
0.99999
0.99999
0.99999
0.99999
0.99999
0.99999
0.99999
0.99999
0.99999
0.99999
0.99999
0.99999
0.99999
0.99999
0.99999
0.99999
0.99999
0.99999
0.99999
0.99999
0.99999
0.99999
0.99999
0.99999
0.99999
0.99999
0.99999
0.99999
0.99999
0.99999
0.99999
0.99999
0.999989
0.999987
0.999984
0.99998
0.999976
0.999971
0.999967
0.999966
0.99989
0.999866
0.999884
0.999898
0.999905
0.904345
0.0143915
1.15699e-05
7.54299e-07
7.73107e-07
7.6292e-07
7.53767e-07
7.51997e-07
7.50851e-07
7.50796e-07
7.50886e-07
7.50808e-07
7.50934e-07
7.5089e-07
7.51261e-07
7.52481e-07
7.55554e-07
7.68299e-07
7.80559e-07
7.81797e-07
7.79845e-07
7.72659e-07
7.75998e-07
7.96729e-07
8.25048e-07
8.45142e-07
8.45364e-07
8.06402e-07
7.36247e-07
6.42532e-07
5.40688e-07
4.48376e-07
3.8611e-07
3.66571e-07
3.66781e-07
3.66732e-07
3.66915e-07
0.999998
0.999997
0.999997
0.999997
0.999997
0.999997
0.999997
0.999996
0.999995
0.999991
0.99999
0.99999
0.99999
0.99999
0.99999
0.99999
0.99999
0.99999
0.99999
0.99999
0.99999
0.99999
0.99999
0.99999
0.99999
0.99999
0.99999
0.99999
0.99999
0.99999
0.99999
0.99999
0.99999
0.99999
0.99999
0.99999
0.99999
0.99999
0.99999
0.99999
0.99999
0.99999
0.99999
0.99999
0.99999
0.99999
0.999988
0.999985
0.999981
0.999977
0.999975
0.999975
0.999973
0.999955
0.999885
0.999847
0.99988
0.999874
0.99985
0.965363
0.0400201
2.44034e-05
7.54299e-07
7.70468e-07
7.59235e-07
7.50467e-07
7.50747e-07
7.50678e-07
7.50914e-07
7.51463e-07
7.5205e-07
7.5192e-07
7.51971e-07
7.54455e-07
7.57384e-07
7.59251e-07
7.64473e-07
7.73435e-07
7.81752e-07
7.81889e-07