/*--------------------------------*- C++ -*----------------------------------*\
| =========                 |                                                 |
| \\      /  F ield         | OpenFOAM: The Open Source CFD Toolbox           |
|  \\    /   O peration     | Version:  2.3.0                                 |
|   \\  /    A nd           | Web:      www.OpenFOAM.org                      |
|    \\/     M anipulation  |                                                 |
\*---------------------------------------------------------------------------*/
FoamFile
{
    version     2.0;
    format      ascii;
    class       volScalarField;
    location    "6";
    object      alpha.airMean;
}
// * * * * * * * * * * * * * * * * * * * * * * * * * * * * * * * * * * * * * //

dimensions      [0 0 0 0 0 0 0];

internalField   nonuniform List<scalar> 
6144
(
0.99999
0.99999
0.99999
0.99999
0.99999
0.99999
0.99999
0.99999
0.99999
0.99999
0.99999
0.99999
0.99999
0.99999
0.99999
0.99999
0.99999
0.99999
0.99999
0.99999
0.99999
0.99999
0.99999
0.99999
0.99999
0.99999
0.99999
0.99999
0.99999
0.99999
0.99999
0.99999
0.99999
0.99999
0.99999
0.99999
0.99999
0.99999
0.99999
0.99999
0.99999
0.99999
0.99999
0.99999
0.99999
0.99999
0.99999
0.99999
0.99999
0.99999
0.99999
0.999989
0.999987
0.999984
0.999978
0.999965
0.999954
0.999936
0.998777
0.927356
0.0268571
0.000164261
2.08149e-06
1.92399e-06
1.89931e-06
1.83671e-06
1.82377e-06
1.77127e-06
1.75507e-06
1.71012e-06
1.68772e-06
1.65194e-06
1.62134e-06
1.58837e-06
1.55982e-06
1.52868e-06
1.49733e-06
1.46627e-06
1.43616e-06
1.40521e-06
1.37389e-06
1.34464e-06
1.31577e-06
1.28774e-06
1.25751e-06
1.22434e-06
1.19046e-06
1.15809e-06
1.12157e-06
1.07585e-06
1.00852e-06
9.0028e-07
7.64895e-07
7.01537e-07
7.08029e-07
7.08008e-07
0.99999
0.99999
0.99999
0.99999
0.99999
0.99999
0.99999
0.99999
0.99999
0.99999
0.99999
0.99999
0.99999
0.99999
0.99999
0.99999
0.99999
0.99999
0.99999
0.99999
0.99999
0.99999
0.99999
0.99999
0.99999
0.99999
0.99999
0.99999
0.99999
0.99999
0.99999
0.99999
0.99999
0.99999
0.99999
0.99999
0.99999
0.99999
0.99999
0.99999
0.99999
0.99999
0.99999
0.99999
0.99999
0.99999
0.99999
0.99999
0.99999
0.99999
0.99999
0.999988
0.999984
0.999978
0.999973
0.999964
0.999955
0.999934
0.999393
0.951698
0.0314524
0.000163074
2.0559e-06
1.92361e-06
1.89468e-06
1.83142e-06
1.81907e-06
1.7692e-06
1.75251e-06
1.70722e-06
1.68633e-06
1.65114e-06
1.62273e-06
1.59064e-06
1.56229e-06
1.53029e-06
1.49822e-06
1.46665e-06
1.43458e-06
1.4041e-06
1.37322e-06
1.34392e-06
1.3151e-06
1.28615e-06
1.25529e-06
1.22166e-06
1.18814e-06
1.15504e-06
1.11879e-06
1.07481e-06
1.00903e-06
9.014e-07
7.64089e-07
7.01251e-07
7.07769e-07
7.07756e-07
0.99999
0.99999
0.99999
0.99999
0.99999
0.99999
0.99999
0.99999
0.99999
0.99999
0.99999
0.99999
0.99999
0.99999
0.99999
0.99999
0.99999
0.99999
0.99999
0.99999
0.99999
0.99999
0.99999
0.99999
0.99999
0.99999
0.99999
0.99999
0.99999
0.99999
0.99999
0.99999
0.99999
0.99999
0.99999
0.99999
0.99999
0.99999
0.99999
0.99999
0.99999
0.99999
0.99999
0.99999
0.99999
0.99999
0.99999
0.99999
0.99999
0.99999
0.999989
0.999984
0.999978
0.999971
0.999964
0.999955
0.99995
0.999937
0.999599
0.940088
0.0259777
8.84148e-05
1.99834e-06
1.94852e-06
1.8961e-06
1.83975e-06
1.82262e-06
1.78085e-06
1.7672e-06
1.72366e-06
1.70793e-06
1.6741e-06
1.64642e-06
1.60937e-06
1.5738e-06
1.53632e-06
1.50552e-06
1.4733e-06
1.43872e-06
1.40797e-06
1.37606e-06
1.34448e-06
1.31794e-06
1.28739e-06
1.25392e-06
1.22114e-06
1.18829e-06
1.15445e-06
1.11861e-06
1.07621e-06
1.01083e-06
9.06715e-07
7.71046e-07
7.02506e-07
7.07756e-07
7.07909e-07
0.99999
0.99999
0.99999
0.99999
0.99999
0.99999
0.99999
0.99999
0.99999
0.99999
0.99999
0.99999
0.99999
0.99999
0.99999
0.99999
0.99999
0.99999
0.99999
0.99999
0.99999
0.99999
0.99999
0.99999
0.99999
0.99999
0.99999
0.99999
0.99999
0.99999
0.99999
0.99999
0.99999
0.99999
0.99999
0.99999
0.99999
0.99999
0.99999
0.99999
0.99999
0.99999
0.99999
0.99999
0.99999
0.99999
0.99999
0.99999
0.99999
0.99999
0.999986
0.999978
0.999972
0.999964
0.999954
0.999946
0.99994
0.999932
0.999635
0.916084
0.0276827
7.63499e-05
6.98379e-06
3.94574e-06
2.90808e-06
2.304e-06
2.11728e-06
1.95134e-06
1.88125e-06
1.79361e-06
1.75262e-06
1.68651e-06
1.6436e-06
1.60689e-06
1.57301e-06
1.52898e-06
1.49133e-06
1.45891e-06
1.42442e-06
1.39402e-06
1.36876e-06
1.34116e-06
1.31255e-06
1.28273e-06
1.24968e-06
1.21707e-06
1.18524e-06
1.14893e-06
1.10935e-06
1.06603e-06
1.00514e-06
9.0649e-07
7.74477e-07
7.02592e-07
7.07778e-07
7.07653e-07
0.99999
0.99999
0.99999
0.99999
0.99999
0.99999
0.99999
0.99999
0.99999
0.99999
0.99999
0.99999
0.99999
0.99999
0.99999
0.99999
0.99999
0.99999
0.99999
0.99999
0.99999
0.99999
0.99999
0.99999
0.99999
0.99999
0.99999
0.99999
0.99999
0.99999
0.99999
0.99999
0.99999
0.99999
0.99999
0.99999
0.99999
0.99999
0.99999
0.99999
0.99999
0.99999
0.99999
0.99999
0.99999
0.99999
0.99999
0.99999
0.99999
0.999988
0.999981
0.999974
0.999968
0.999959
0.999946
0.999938
0.999931
0.999932
0.999759
0.89233
0.0305069
0.000229854
0.000137906
9.67013e-05
7.53044e-05
5.78996e-05
4.53079e-05
3.31287e-05
2.39676e-05
1.68298e-05
1.20651e-05
8.45857e-06
5.99934e-06
4.14124e-06
2.93345e-06
2.15521e-06
1.78279e-06
1.60796e-06
1.53127e-06
1.4654e-06
1.4292e-06
1.37997e-06
1.33405e-06
1.2962e-06
1.26353e-06
1.22563e-06
1.18168e-06
1.13124e-06
1.0844e-06
1.03922e-06
9.82953e-07
8.91637e-07
7.66815e-07
7.01175e-07
7.07733e-07
7.0716e-07
0.99999
0.99999
0.99999
0.99999
0.99999
0.99999
0.99999
0.99999
0.99999
0.99999
0.99999
0.99999
0.99999
0.99999
0.99999
0.99999
0.99999
0.99999
0.99999
0.99999
0.99999
0.99999
0.99999
0.99999
0.99999
0.99999
0.99999
0.99999
0.99999
0.99999
0.99999
0.99999
0.99999
0.99999
0.99999
0.99999
0.99999
0.99999
0.99999
0.99999
0.99999
0.99999
0.99999
0.99999
0.99999
0.99999
0.99999
0.99999
0.999989
0.999986
0.999977
0.999972
0.999967
0.999958
0.999945
0.999938
0.999939
0.999951
0.999848
0.869171
0.0242186
0.000929564
0.000929314
0.000862641
0.000855586
0.000807999
0.000757743
0.00065011
0.000565384
0.000475588
0.000408992
0.000348322
0.000297621
0.000249869
0.000208339
0.00016926
0.000133486
0.000101352
7.33616e-05
5.05464e-05
3.33467e-05
2.13826e-05
1.32427e-05
8.04222e-06
4.81777e-06
3.16872e-06
2.10001e-06
1.57223e-06
1.26874e-06
1.10968e-06
9.5067e-07
8.5371e-07
7.55485e-07
7.39539e-07
7.11381e-07
7.07562e-07
0.99999
0.99999
0.99999
0.99999
0.99999
0.99999
0.99999
0.99999
0.99999
0.99999
0.99999
0.99999
0.99999
0.99999
0.99999
0.99999
0.99999
0.99999
0.99999
0.99999
0.99999
0.99999
0.99999
0.99999
0.99999
0.99999
0.99999
0.99999
0.99999
0.99999
0.99999
0.99999
0.99999
0.99999
0.99999
0.99999
0.99999
0.99999
0.99999
0.99999
0.99999
0.99999
0.99999
0.99999
0.99999
0.99999
0.99999
0.99999
0.999989
0.999983
0.999975
0.999971
0.999967
0.999962
0.999952
0.999944
0.999938
0.999936
0.999832
0.852659
0.0281876
0.00252083
0.00259047
0.00245158
0.0024259
0.00228741
0.00221612
0.00202511
0.00192663
0.00174398
0.0016683
0.00149797
0.00141768
0.00127726
0.00119356
0.00105139
0.000953489
0.000834706
0.000759412
0.000686934
0.00063268
0.000568407
0.000511991
0.000443226
0.00038639
0.000332397
0.000286024
0.000236551
0.000188393
0.000138958
9.08586e-05
5.10696e-05
2.0326e-05
7.1832e-06
2.86904e-06
2.24812e-06
0.99999
0.99999
0.99999
0.99999
0.99999
0.99999
0.99999
0.99999
0.99999
0.99999
0.99999
0.99999
0.99999
0.99999
0.99999
0.99999
0.99999
0.99999
0.99999
0.99999
0.99999
0.99999
0.99999
0.99999
0.99999
0.99999
0.99999
0.99999
0.99999
0.99999
0.99999
0.99999
0.99999
0.99999
0.99999
0.99999
0.99999
0.99999
0.99999
0.99999
0.99999
0.99999
0.99999
0.99999
0.99999
0.99999
0.999989
0.999988
0.999986
0.999982
0.999973
0.999969
0.999967
0.999966
0.999962
0.999955
0.99995
0.999932
0.999744
0.763114
0.0285724
0.00832687
0.00876186
0.0088095
0.0087747
0.00867809
0.00860633
0.00853945
0.00852795
0.00846195
0.00841793
0.00833568
0.00825933
0.00812769
0.00803654
0.00793638
0.00783647
0.00774488
0.00764287
0.00754663
0.00745105
0.0073587
0.00726553
0.00716525
0.00705885
0.00692068
0.00675876
0.00653814
0.00627738
0.00596259
0.00558128
0.00509996
0.00450245
0.00380136
0.00291287
0.0020474
0.99999
0.99999
0.99999
0.99999
0.99999
0.99999
0.99999
0.99999
0.99999
0.99999
0.99999
0.99999
0.99999
0.99999
0.99999
0.99999
0.99999
0.99999
0.99999
0.99999
0.99999
0.99999
0.99999
0.99999
0.99999
0.99999
0.99999
0.99999
0.99999
0.99999
0.99999
0.99999
0.99999
0.99999
0.99999
0.99999
0.99999
0.99999
0.99999
0.99999
0.99999
0.99999
0.99999
0.99999
0.99999
0.999989
0.999986
0.999982
0.99998
0.999977
0.999971
0.999968
0.999967
0.999966
0.999962
0.99996
0.999961
0.999961
0.999886
0.840364
0.0232315
0.00366122
0.00352285
0.00323035
0.00307802
0.00297343
0.00287213
0.00277715
0.00268893
0.00257864
0.00248578
0.00236736
0.00226083
0.0021348
0.00201983
0.00189244
0.00177333
0.00164708
0.00152224
0.00139135
0.00125938
0.00113178
0.00100134
0.000867771
0.000745502
0.000622041
0.000501678
0.000392693
0.00029243
0.000204364
0.000131887
7.60065e-05
3.76171e-05
1.63395e-05
6.68618e-06
3.02776e-06
0.999991
0.99999
0.99999
0.99999
0.99999
0.99999
0.99999
0.99999
0.99999
0.99999
0.99999
0.99999
0.99999
0.99999
0.99999
0.99999
0.99999
0.99999
0.99999
0.99999
0.99999
0.99999
0.99999
0.99999
0.99999
0.99999
0.99999
0.99999
0.99999
0.99999
0.99999
0.99999
0.99999
0.99999
0.99999
0.99999
0.99999
0.99999
0.99999
0.99999
0.99999
0.99999
0.99999
0.99999
0.999987
0.999983
0.999981
0.999978
0.999976
0.999975
0.999972
0.999971
0.99997
0.99997
0.999964
0.999963
0.999962
0.99996
0.999908
0.915012
0.0232058
0.000529063
0.00041292
0.000321509
0.000308719
0.000291242
0.000266097
0.000240425
0.000217693
0.000192073
0.000170702
0.000148334
0.000129369
0.000111008
9.52588e-05
8.02995e-05
6.71134e-05
5.53736e-05
4.49221e-05
3.5438e-05
2.74833e-05
2.07545e-05
1.50382e-05
1.0514e-05
7.16734e-06
4.64011e-06
2.90724e-06
1.85874e-06
1.25213e-06
9.5004e-07
8.28141e-07
7.74958e-07
7.26397e-07
7.05498e-07
7.06562e-07
7.08706e-07
0.999991
0.99999
0.99999
0.99999
0.99999
0.99999
0.99999
0.99999
0.99999
0.99999
0.99999
0.99999
0.99999
0.99999
0.99999
0.99999
0.99999
0.99999
0.99999
0.99999
0.99999
0.99999
0.99999
0.99999
0.99999
0.99999
0.99999
0.99999
0.99999
0.99999
0.99999
0.99999
0.99999
0.99999
0.99999
0.99999
0.99999
0.99999
0.99999
0.99999
0.99999
0.99999
0.99999
0.99999
0.999986
0.999983
0.99998
0.999978
0.999977
0.999976
0.999975
0.999975
0.999976
0.999976
0.999971
0.999966
0.999965
0.99995
0.999901
0.952531
0.0283676
0.000104795
1.0403e-05
8.40058e-06
7.42356e-06
6.56395e-06
5.80224e-06
4.99386e-06
4.37417e-06
3.70854e-06
3.19899e-06
2.74765e-06
2.40864e-06
2.13269e-06
1.93314e-06
1.77372e-06
1.65439e-06
1.56795e-06
1.50659e-06
1.45421e-06
1.40233e-06
1.35183e-06
1.3079e-06
1.27016e-06
1.2345e-06
1.1952e-06
1.15415e-06
1.10825e-06
1.05378e-06
9.88907e-07
9.08701e-07
8.1878e-07
7.38099e-07
7.02145e-07
7.0694e-07
7.05858e-07
0.999992
0.999991
0.999991
0.999991
0.99999
0.99999
0.99999
0.99999
0.99999
0.99999
0.99999
0.99999
0.99999
0.99999
0.99999
0.99999
0.99999
0.99999
0.99999
0.99999
0.99999
0.99999
0.99999
0.99999
0.99999
0.99999
0.99999
0.99999
0.99999
0.99999
0.99999
0.99999
0.99999
0.99999
0.99999
0.99999
0.99999
0.99999
0.99999
0.99999
0.99999
0.99999
0.99999
0.99999
0.999988
0.999984
0.999982
0.99998
0.999979
0.999978
0.999978
0.999979
0.999979
0.999979
0.999977
0.999971
0.999967
0.99995
0.99985
0.97051
0.0385484
0.000160517
2.03496e-06
1.94333e-06
1.88956e-06
1.85433e-06
1.8366e-06
1.80024e-06
1.76839e-06
1.732e-06
1.71257e-06
1.67821e-06
1.64642e-06
1.60417e-06
1.57007e-06
1.53643e-06
1.50102e-06
1.47002e-06
1.4386e-06
1.40745e-06
1.37774e-06
1.34533e-06
1.30973e-06
1.27558e-06
1.2429e-06
1.2083e-06
1.17327e-06
1.1326e-06
1.08163e-06
1.01907e-06
9.39706e-07
8.43124e-07
7.45043e-07
7.0259e-07
7.06737e-07
7.06126e-07
0.999993
0.999993
0.999992
0.999992
0.999991
0.999991
0.99999
0.99999
0.99999
0.99999
0.99999
0.99999
0.99999
0.99999
0.99999
0.99999
0.99999
0.99999
0.99999
0.99999
0.99999
0.99999
0.99999
0.99999
0.99999
0.99999
0.99999
0.99999
0.99999
0.99999
0.99999
0.99999
0.99999
0.99999
0.99999
0.99999
0.99999
0.99999
0.99999
0.99999
0.99999
0.99999
0.99999
0.99999
0.999989
0.999987
0.999984
0.999982
0.999981
0.99998
0.99998
0.99998
0.99998
0.99998
0.999978
0.999975
0.99997
0.999947
0.999758
0.973918
0.054239
0.000285942
2.2797e-06
1.91549e-06
1.86943e-06
1.81875e-06
1.80132e-06
1.76757e-06
1.73893e-06
1.70099e-06
1.67914e-06
1.65039e-06
1.62301e-06
1.59064e-06
1.55938e-06
1.52773e-06
1.49707e-06
1.4677e-06
1.43555e-06
1.40499e-06
1.37664e-06
1.34556e-06
1.31319e-06
1.28058e-06
1.24754e-06
1.21521e-06
1.18171e-06
1.14081e-06
1.09178e-06
1.03098e-06
9.52933e-07
8.51701e-07
7.47732e-07
7.02161e-07
7.06655e-07
7.06445e-07
0.999994
0.999994
0.999993
0.999993
0.999992
0.999992
0.999991
0.99999
0.99999
0.99999
0.99999
0.99999
0.99999
0.99999
0.99999
0.99999
0.99999
0.99999
0.99999
0.99999
0.99999
0.99999
0.99999
0.99999
0.99999
0.99999
0.99999
0.99999
0.99999
0.99999
0.99999
0.99999
0.99999
0.99999
0.99999
0.99999
0.99999
0.99999
0.99999
0.99999
0.99999
0.99999
0.99999
0.99999
0.99999
0.999989
0.999986
0.999984
0.999983
0.999982
0.999981
0.999981
0.999981
0.99998
0.999978
0.999973
0.999964
0.99993
0.99974
0.969988
0.0611712
0.000394851
2.54286e-06
1.90837e-06
1.86631e-06
1.81541e-06
1.7982e-06
1.75877e-06
1.7319e-06
1.6913e-06
1.66944e-06
1.63242e-06
1.60685e-06
1.57615e-06
1.54703e-06
1.52006e-06
1.49156e-06
1.46273e-06
1.43387e-06
1.40474e-06
1.37286e-06
1.34505e-06
1.31496e-06
1.28169e-06
1.24983e-06
1.21678e-06
1.1825e-06
1.14272e-06
1.09464e-06
1.03448e-06
9.55872e-07
8.51437e-07
7.43479e-07
7.00095e-07
7.0615e-07
7.06381e-07
0.999995
0.999994
0.999994
0.999993
0.999993
0.999992
0.999991
0.999991
0.99999
0.99999
0.99999
0.99999
0.99999
0.99999
0.99999
0.99999
0.99999
0.99999
0.99999
0.99999
0.99999
0.99999
0.99999
0.99999
0.99999
0.99999
0.99999
0.99999
0.99999
0.99999
0.99999
0.99999
0.99999
0.99999
0.99999
0.99999
0.99999
0.99999
0.99999
0.99999
0.99999
0.99999
0.99999
0.99999
0.99999
0.99999
0.999988
0.999987
0.999985
0.999984
0.999984
0.999983
0.999983
0.999982
0.999979
0.999972
0.999955
0.999921
0.999792
0.967355
0.0541561
0.000190003
2.09156e-06
1.89934e-06
1.86942e-06
1.81966e-06
1.7916e-06
1.74934e-06
1.72592e-06
1.68289e-06
1.66492e-06
1.63165e-06
1.60072e-06
1.56923e-06
1.5384e-06
1.50925e-06
1.48002e-06
1.45511e-06
1.42726e-06
1.39946e-06
1.37267e-06
1.34454e-06
1.31463e-06
1.28554e-06
1.25348e-06
1.21977e-06
1.18528e-06
1.14561e-06
1.09763e-06
1.03852e-06
9.5857e-07
8.51704e-07
7.43885e-07
7.01131e-07
7.06451e-07
7.06683e-07
0.999996
0.999995
0.999994
0.999994
0.999993
0.999992
0.999991
0.999991
0.99999
0.99999
0.99999
0.99999
0.99999
0.99999
0.99999
0.99999
0.99999
0.99999
0.99999
0.99999
0.99999
0.99999
0.99999
0.99999
0.99999
0.99999
0.99999
0.99999
0.99999
0.99999
0.99999
0.99999
0.99999
0.99999
0.99999
0.99999
0.99999
0.99999
0.99999
0.99999
0.99999
0.99999
0.99999
0.99999
0.99999
0.99999
0.99999
0.999989
0.999988
0.999987
0.999987
0.999987
0.999987
0.999985
0.999978
0.999965
0.999958
0.99995
0.99966
0.968663
0.0701628
0.000667204
3.09873e-06
1.89914e-06
1.8699e-06
1.81989e-06
1.78838e-06
1.74066e-06
1.72484e-06
1.68484e-06
1.66009e-06
1.62655e-06
1.59533e-06
1.56496e-06
1.53383e-06
1.50342e-06
1.47562e-06
1.44727e-06
1.41734e-06
1.39019e-06
1.36377e-06
1.33597e-06
1.31025e-06
1.28471e-06
1.2565e-06
1.22754e-06
1.19335e-06
1.15364e-06
1.10848e-06
1.04774e-06
9.61247e-07
8.52839e-07
7.45144e-07
7.00847e-07
7.06779e-07
7.06845e-07
0.99999
0.99999
0.99999
0.99999
0.99999
0.99999
0.99999
0.99999
0.99999
0.99999
0.99999
0.99999
0.99999
0.99999
0.99999
0.99999
0.99999
0.99999
0.99999
0.99999
0.99999
0.99999
0.99999
0.99999
0.99999
0.99999
0.99999
0.99999
0.99999
0.99999
0.99999
0.99999
0.99999
0.99999
0.99999
0.99999
0.99999
0.99999
0.99999
0.99999
0.99999
0.99999
0.99999
0.99999
0.99999
0.99999
0.99999
0.99999
0.99999
0.99999
0.99999
0.99999
0.999989
0.999987
0.999983
0.999974
0.999965
0.999929
0.999229
0.948985
0.0340833
0.000155323
1.97867e-06
1.9211e-06
1.89162e-06
1.83085e-06
1.81956e-06
1.76842e-06
1.75139e-06
1.7065e-06
1.6841e-06
1.64585e-06
1.61851e-06
1.58522e-06
1.5537e-06
1.52099e-06
1.49289e-06
1.46159e-06
1.42892e-06
1.40033e-06
1.36966e-06
1.33811e-06
1.31005e-06
1.28103e-06
1.24987e-06
1.21971e-06
1.18755e-06
1.15365e-06
1.11962e-06
1.07517e-06
1.0064e-06
8.99456e-07
7.65277e-07
7.03052e-07
7.07983e-07
7.08224e-07
0.99999
0.99999
0.99999
0.99999
0.99999
0.99999
0.99999
0.99999
0.99999
0.99999
0.99999
0.99999
0.99999
0.99999
0.99999
0.99999
0.99999
0.99999
0.99999
0.99999
0.99999
0.99999
0.99999
0.99999
0.99999
0.99999
0.99999
0.99999
0.99999
0.99999
0.99999
0.99999
0.99999
0.99999
0.99999
0.99999
0.99999
0.99999
0.99999
0.99999
0.99999
0.99999
0.99999
0.99999
0.99999
0.99999
0.99999
0.99999
0.99999
0.99999
0.99999
0.999988
0.999986
0.999985
0.999981
0.999975
0.999955
0.999898
0.999579
0.925758
0.0192482
2.11532e-05
1.95947e-06
1.92804e-06
1.90209e-06
1.83658e-06
1.82412e-06
1.77421e-06
1.75365e-06
1.70864e-06
1.68708e-06
1.65072e-06
1.61979e-06
1.5872e-06
1.55752e-06
1.52474e-06
1.49501e-06
1.46375e-06
1.43033e-06
1.40091e-06
1.36999e-06
1.33763e-06
1.30818e-06
1.27837e-06
1.24659e-06
1.21611e-06
1.18417e-06
1.15034e-06
1.1163e-06
1.07356e-06
1.007e-06
9.01749e-07
7.66902e-07
7.04107e-07
7.08041e-07
7.08375e-07
0.99999
0.99999
0.99999
0.99999
0.99999
0.99999
0.99999
0.99999
0.99999
0.99999
0.99999
0.99999
0.99999
0.99999
0.99999
0.99999
0.99999
0.99999
0.99999
0.99999
0.99999
0.99999
0.99999
0.99999
0.99999
0.99999
0.99999
0.99999
0.99999
0.99999
0.99999
0.99999
0.99999
0.99999
0.99999
0.99999
0.99999
0.99999
0.99999
0.99999
0.99999
0.99999
0.99999
0.99999
0.99999
0.99999
0.99999
0.99999
0.99999
0.99999
0.999989
0.999984
0.999978
0.999975
0.999971
0.999964
0.999942
0.999893
0.999729
0.889147
0.0142281
3.37341e-06
2.27959e-06
1.99787e-06
1.97498e-06
1.86939e-06
1.8712e-06
1.81322e-06
1.7871e-06
1.73425e-06
1.71162e-06
1.67022e-06
1.64213e-06
1.60745e-06
1.57347e-06
1.53806e-06
1.5062e-06
1.47385e-06
1.43902e-06
1.40818e-06
1.37553e-06
1.3416e-06
1.31153e-06
1.28083e-06
1.24864e-06
1.2176e-06
1.18537e-06
1.1516e-06
1.11785e-06
1.07617e-06
1.01091e-06
9.05747e-07
7.70068e-07
7.0364e-07
7.07881e-07
7.07985e-07
0.99999
0.99999
0.99999
0.99999
0.99999
0.99999
0.99999
0.99999
0.99999
0.99999
0.99999
0.99999
0.99999
0.99999
0.99999
0.99999
0.99999
0.99999
0.99999
0.99999
0.99999
0.99999
0.99999
0.99999
0.99999
0.99999
0.99999
0.99999
0.99999
0.99999
0.99999
0.99999
0.99999
0.99999
0.99999
0.99999
0.99999
0.99999
0.99999
0.99999
0.99999
0.99999
0.99999
0.99999
0.99999
0.99999
0.99999
0.99999
0.99999
0.99999
0.999987
0.999977
0.999966
0.999959
0.999946
0.999919
0.999889
0.999861
0.99975
0.824314
0.0127243
0.000140086
9.72877e-05
5.88086e-05
3.9303e-05
2.38323e-05
1.45793e-05
8.1838e-06
4.8787e-06
3.0058e-06
2.21679e-06
1.86608e-06
1.75216e-06
1.69947e-06
1.63517e-06
1.6082e-06
1.55339e-06
1.51655e-06
1.48267e-06
1.43956e-06
1.39907e-06
1.3495e-06
1.31128e-06
1.28115e-06
1.24943e-06
1.21714e-06
1.18796e-06
1.15486e-06
1.11726e-06
1.07403e-06
1.0112e-06
9.11129e-07
7.78327e-07
7.03756e-07
7.07831e-07
7.08099e-07
0.99999
0.99999
0.99999
0.99999
0.99999
0.99999
0.99999
0.99999
0.99999
0.99999
0.99999
0.99999
0.99999
0.99999
0.99999
0.99999
0.99999
0.99999
0.99999
0.99999
0.99999
0.99999
0.99999
0.99999
0.99999
0.99999
0.99999
0.99999
0.99999
0.99999
0.99999
0.99999
0.99999
0.99999
0.99999
0.99999
0.99999
0.99999
0.99999
0.99999
0.99999
0.99999
0.99999
0.99999
0.99999
0.99999
0.99999
0.99999
0.99999
0.999989
0.999985
0.999974
0.999956
0.999937
0.999911
0.999882
0.999862
0.999852
0.999824
0.696328
0.012941
0.00365499
0.00321523
0.00268451
0.00229874
0.00187011
0.00149885
0.00115565
0.000865573
0.000621984
0.000436979
0.000299796
0.000203806
0.000138857
9.56147e-05
6.60656e-05
4.56412e-05
3.06514e-05
2.02237e-05
1.25296e-05
7.57127e-06
4.39688e-06
2.71278e-06
1.86187e-06
1.50091e-06
1.33097e-06
1.2477e-06
1.14841e-06
1.06682e-06
9.80248e-07
9.14515e-07
8.52704e-07
7.69228e-07
7.0505e-07
7.07166e-07
7.09984e-07
0.99999
0.99999
0.99999
0.99999
0.99999
0.99999
0.99999
0.99999
0.99999
0.99999
0.99999
0.99999
0.99999
0.99999
0.99999
0.99999
0.99999
0.99999
0.99999
0.99999
0.99999
0.99999
0.99999
0.99999
0.99999
0.99999
0.99999
0.99999
0.99999
0.99999
0.99999
0.99999
0.99999
0.99999
0.99999
0.99999
0.99999
0.99999
0.99999
0.99999
0.99999
0.99999
0.99999
0.99999
0.99999
0.99999
0.99999
0.999989
0.999989
0.999988
0.999984
0.999973
0.999956
0.999932
0.999905
0.999885
0.999877
0.999882
0.999581
0.539319
0.0223237
0.0184873
0.0185932
0.0182185
0.0178132
0.0169299
0.0159977
0.0149328
0.0137307
0.0124387
0.0111088
0.00976187
0.00846986
0.00724604
0.00614574
0.00516277
0.00430963
0.00355786
0.00291069
0.00234742
0.00186623
0.00144354
0.00108383
0.000778876
0.00053576
0.000346978
0.000212153
0.000119943
6.12502e-05
2.83396e-05
1.15421e-05
4.4258e-06
2.11434e-06
1.26089e-06
8.51725e-07
7.30628e-07
0.999991
0.99999
0.99999
0.99999
0.99999
0.99999
0.99999
0.99999
0.99999
0.99999
0.99999
0.99999
0.99999
0.99999
0.99999
0.99999
0.99999
0.99999
0.99999
0.99999
0.99999
0.99999
0.99999
0.99999
0.99999
0.99999
0.99999
0.99999
0.99999
0.99999
0.99999
0.99999
0.99999
0.99999
0.99999
0.99999
0.99999
0.99999
0.99999
0.99999
0.99999
0.99999
0.99999
0.99999
0.99999
0.99999
0.999989
0.999988
0.999987
0.999986
0.999982
0.999975
0.99996
0.999949
0.999931
0.999915
0.999907
0.999905
0.997861
0.576301
0.0369678
0.0305439
0.0322939
0.0334272
0.0344179
0.035059
0.0354713
0.035815
0.0360601
0.0362687
0.0364088
0.0365111
0.0364375
0.0362376
0.0357673
0.0351404
0.0343026
0.0333304
0.0321591
0.030823
0.029292
0.027613
0.0258053
0.0239307
0.0219639
0.019918
0.0177484
0.0154824
0.0130915
0.0106452
0.00816219
0.0057389
0.00351977
0.00171576
0.000769058
0.000902918
0.999991
0.99999
0.999991
0.999991
0.99999
0.99999
0.99999
0.99999
0.99999
0.99999
0.99999
0.99999
0.99999
0.99999
0.99999
0.99999
0.99999
0.99999
0.99999
0.99999
0.99999
0.99999
0.99999
0.99999
0.99999
0.99999
0.99999
0.99999
0.99999
0.99999
0.99999
0.99999
0.99999
0.99999
0.99999
0.99999
0.99999
0.99999
0.99999
0.99999
0.99999
0.99999
0.99999
0.99999
0.99999
0.999989
0.999987
0.999986
0.999984
0.999983
0.99998
0.999972
0.999963
0.999962
0.999951
0.999938
0.999929
0.999919
0.995805
0.711112
0.0347077
0.0215946
0.0230815
0.0242211
0.0257949
0.0275425
0.0297253
0.0321678
0.0350008
0.0378697
0.0407608
0.0436911
0.0466788
0.0496965
0.0528799
0.0561527
0.0595891
0.0632389
0.0670771
0.0710896
0.0752341
0.0795305
0.0840002
0.0886465
0.0935378
0.0987199
0.104278
0.110271
0.11679
0.123949
0.132025
0.141452
0.15352
0.172278
0.216592
0.406973
0.999991
0.999991
0.999991
0.999991
0.999991
0.99999
0.99999
0.99999
0.99999
0.99999
0.99999
0.99999
0.99999
0.99999
0.99999
0.99999
0.99999
0.99999
0.99999
0.99999
0.99999
0.99999
0.99999
0.99999
0.99999
0.99999
0.99999
0.99999
0.99999
0.99999
0.99999
0.99999
0.99999
0.99999
0.99999
0.99999
0.99999
0.99999
0.99999
0.99999
0.99999
0.99999
0.99999
0.99999
0.99999
0.999988
0.999985
0.999983
0.999981
0.999979
0.999978
0.999975
0.999967
0.999959
0.999942
0.999929
0.999923
0.999914
0.999567
0.842613
0.0159314
0.00264724
0.00255146
0.0021465
0.00211978
0.00211496
0.00221423
0.00237436
0.00250543
0.00263814
0.00275812
0.00286116
0.0029628
0.00306729
0.00322973
0.00339461
0.00355441
0.00369456
0.00381784
0.00393275
0.00404666
0.0041667
0.00428442
0.00437284
0.00440672
0.00439039
0.00433786
0.0042304
0.0040226
0.00372015
0.00325919
0.00269646
0.00201054
0.00133052
0.000912365
0.000465422
0.999991
0.999991
0.999991
0.999991
0.999991
0.999991
0.99999
0.99999
0.99999
0.99999
0.99999
0.99999
0.99999
0.99999
0.99999
0.99999
0.99999
0.99999
0.99999
0.99999
0.99999
0.99999
0.99999
0.99999
0.99999
0.99999
0.99999
0.99999
0.99999
0.99999
0.99999
0.99999
0.99999
0.99999
0.99999
0.99999
0.99999
0.99999
0.99999
0.99999
0.99999
0.99999
0.99999
0.99999
0.999989
0.999986
0.999984
0.999984
0.999984
0.999985
0.999984
0.999982
0.999977
0.999967
0.999941
0.999932
0.999931
0.999918
0.999899
0.905867
0.0134684
0.000124547
0.000136103
0.000114232
0.000109485
0.000101846
0.000100833
9.78771e-05
9.6714e-05
9.31215e-05
9.09863e-05
8.71895e-05
8.39416e-05
8.02724e-05
7.63383e-05
7.26503e-05
6.82609e-05
6.37407e-05
5.92978e-05
5.48088e-05
5.02022e-05
4.55166e-05
4.08517e-05
3.60355e-05
3.09776e-05
2.62309e-05
2.14493e-05
1.7152e-05
1.32993e-05
9.8511e-06
6.99105e-06
4.71474e-06
2.95813e-06
1.78916e-06
1.06501e-06
7.8338e-07
0.999992
0.999992
0.999991
0.999992
0.999991
0.999991
0.999991
0.99999
0.99999
0.99999
0.99999
0.99999
0.99999
0.99999
0.99999
0.99999
0.99999
0.99999
0.99999
0.99999
0.99999
0.99999
0.99999
0.99999
0.99999
0.99999
0.99999
0.99999
0.99999
0.99999
0.99999
0.99999
0.99999
0.99999
0.99999
0.99999
0.99999
0.99999
0.99999
0.99999
0.99999
0.99999
0.99999
0.99999
0.99999
0.999988
0.999986
0.999985
0.999985
0.999987
0.999988
0.999987
0.999987
0.999984
0.999968
0.999952
0.999945
0.99992
0.999887
0.945841
0.0231764
4.03958e-06
5.01297e-06
4.23908e-06
4.0385e-06
3.85076e-06
3.65509e-06
3.45975e-06
3.3414e-06
3.11144e-06
2.98343e-06
2.78745e-06
2.64584e-06
2.48675e-06
2.3329e-06
2.19694e-06
2.05201e-06
1.92156e-06
1.80895e-06
1.70227e-06
1.60773e-06
1.52247e-06
1.43937e-06
1.36687e-06
1.30446e-06
1.24398e-06
1.19645e-06
1.15043e-06
1.09978e-06
1.04153e-06
9.60943e-07
8.55778e-07
7.45369e-07
7.05567e-07
7.06213e-07
7.09573e-07
0.999992
0.999992
0.999992
0.999992
0.999992
0.999991
0.999991
0.999991
0.99999
0.99999
0.99999
0.99999
0.99999
0.99999
0.99999
0.99999
0.99999
0.99999
0.99999
0.99999
0.99999
0.99999
0.99999
0.99999
0.99999
0.99999
0.99999
0.99999
0.99999
0.99999
0.99999
0.99999
0.99999
0.99999
0.99999
0.99999
0.99999
0.99999
0.99999
0.99999
0.99999
0.99999
0.99999
0.99999
0.99999
0.99999
0.999988
0.999988
0.999988
0.999988
0.999988
0.999988
0.999986
0.999981
0.999977
0.999964
0.999953
0.999925
0.999842
0.961067
0.0293525
2.27547e-06
2.00708e-06
1.90768e-06
1.88193e-06
1.83518e-06
1.8163e-06
1.77202e-06
1.75281e-06
1.7071e-06
1.68119e-06
1.63876e-06
1.61031e-06
1.5744e-06
1.54536e-06
1.51492e-06
1.4822e-06
1.45471e-06
1.42589e-06
1.39671e-06
1.37049e-06
1.34058e-06
1.30735e-06
1.27657e-06
1.24393e-06
1.20975e-06
1.17786e-06
1.14174e-06
1.09611e-06
1.0387e-06
9.57963e-07
8.50394e-07
7.40736e-07
7.02278e-07
7.05887e-07
7.07142e-07
0.999994
0.999993
0.999993
0.999993
0.999992
0.999992
0.999991
0.999991
0.99999
0.99999
0.99999
0.99999
0.99999
0.99999
0.99999
0.99999
0.99999
0.99999
0.99999
0.99999
0.99999
0.99999
0.99999
0.99999
0.99999
0.99999
0.99999
0.99999
0.99999
0.99999
0.99999
0.99999
0.99999
0.99999
0.99999
0.99999
0.99999
0.99999
0.99999
0.99999
0.99999
0.99999
0.99999
0.99999
0.99999
0.99999
0.999989
0.999989
0.999989
0.999989
0.999988
0.999987
0.999983
0.999977
0.999973
0.999967
0.999955
0.99993
0.999786
0.967883
0.0487642
5.96826e-05
1.9458e-06
1.89065e-06
1.85769e-06
1.81112e-06
1.79659e-06
1.75034e-06
1.73122e-06
1.68886e-06
1.66661e-06
1.62741e-06
1.60182e-06
1.56793e-06
1.53775e-06
1.50711e-06
1.47974e-06
1.4507e-06
1.42032e-06
1.3946e-06
1.3674e-06
1.33784e-06
1.30986e-06
1.27878e-06
1.24598e-06
1.21622e-06
1.18359e-06
1.1454e-06
1.10098e-06
1.04057e-06
9.56913e-07
8.48136e-07
7.39691e-07
7.01605e-07
7.05697e-07
7.06584e-07
0.999994
0.999994
0.999994
0.999993
0.999992
0.999992
0.999992
0.999991
0.999991
0.99999
0.99999
0.99999
0.99999
0.99999
0.99999
0.99999
0.99999
0.99999
0.99999
0.99999
0.99999
0.99999
0.99999
0.99999
0.99999
0.99999
0.99999
0.99999
0.99999
0.99999
0.99999
0.99999
0.99999
0.99999
0.99999
0.99999
0.99999
0.99999
0.99999
0.99999
0.99999
0.99999
0.99999
0.99999
0.99999
0.99999
0.99999
0.999989
0.999988
0.999988
0.999987
0.999986
0.99998
0.999975
0.999968
0.99996
0.99995
0.999926
0.999762
0.96033
0.0452735
7.37555e-05
1.99398e-06
1.90032e-06
1.86027e-06
1.80726e-06
1.79405e-06
1.74537e-06
1.72682e-06
1.68324e-06
1.66033e-06
1.6221e-06
1.59723e-06
1.56381e-06
1.53415e-06
1.50456e-06
1.47805e-06
1.44892e-06
1.41863e-06
1.3925e-06
1.36429e-06
1.33525e-06
1.30898e-06
1.27873e-06
1.24633e-06
1.21672e-06
1.18375e-06
1.14522e-06
1.1007e-06
1.03991e-06
9.55921e-07
8.47668e-07
7.40022e-07
7.01514e-07
7.06028e-07
7.0659e-07
0.999995
0.999994
0.999994
0.999993
0.999993
0.999992
0.999992
0.999991
0.999991
0.99999
0.99999
0.99999
0.99999
0.99999
0.99999
0.99999
0.99999
0.99999
0.99999
0.99999
0.99999
0.99999
0.99999
0.99999
0.99999
0.99999
0.99999
0.99999
0.99999
0.99999
0.99999
0.99999
0.99999
0.99999
0.99999
0.99999
0.99999
0.99999
0.99999
0.99999
0.99999
0.99999
0.99999
0.99999
0.99999
0.99999
0.99999
0.999989
0.999988
0.999988
0.999987
0.999986
0.999983
0.999979
0.999961
0.999945
0.999939
0.999926
0.999787
0.943652
0.0397698
0.000131001
2.04721e-06
1.8799e-06
1.85035e-06
1.79627e-06
1.78331e-06
1.73675e-06
1.71798e-06
1.67637e-06
1.65533e-06
1.61746e-06
1.59138e-06
1.55722e-06
1.53033e-06
1.50179e-06
1.47312e-06
1.44575e-06
1.41659e-06
1.3892e-06
1.36083e-06
1.33205e-06
1.30623e-06
1.27718e-06
1.24512e-06
1.21497e-06
1.18106e-06
1.14167e-06
1.09721e-06
1.03672e-06
9.50471e-07
8.41735e-07
7.37524e-07
7.01102e-07
7.06342e-07
7.06646e-07
0.999997
0.999995
0.999995
0.999994
0.999993
0.999993
0.999992
0.999991
0.999991
0.99999
0.99999
0.99999
0.99999
0.99999
0.99999
0.99999
0.99999
0.99999
0.99999
0.99999
0.99999
0.99999
0.99999
0.99999
0.99999
0.99999
0.99999
0.99999
0.99999
0.99999
0.99999
0.99999
0.99999
0.99999
0.99999
0.99999
0.99999
0.99999
0.99999
0.99999
0.99999
0.99999
0.99999
0.99999
0.99999
0.99999
0.99999
0.999989
0.999989
0.999989
0.999988
0.999988
0.999988
0.999983
0.999965
0.999949
0.999942
0.999937
0.999753
0.962685
0.0625496
0.000570839
2.84381e-06
1.8758e-06
1.84987e-06
1.79443e-06
1.781e-06
1.73375e-06
1.71512e-06
1.67336e-06
1.65124e-06
1.61427e-06
1.58939e-06
1.55651e-06
1.52827e-06
1.4991e-06
1.4737e-06
1.44524e-06
1.41436e-06
1.38715e-06
1.35934e-06
1.33093e-06
1.3063e-06
1.28013e-06
1.25206e-06
1.2233e-06
1.18955e-06
1.1507e-06
1.10607e-06
1.04455e-06
9.56901e-07
8.4745e-07
7.39885e-07