/*--------------------------------*- C++ -*----------------------------------*\
| =========                 |                                                 |
| \\      /  F ield         | OpenFOAM: The Open Source CFD Toolbox           |
|  \\    /   O peration     | Version:  2.3.0                                 |
|   \\  /    A nd           | Web:      www.OpenFOAM.org                      |
|    \\/     M anipulation  |                                                 |
\*---------------------------------------------------------------------------*/
FoamFile
{
    version     2.0;
    format      ascii;
    class       volScalarField;
    location    "6";
    object      alpha.airMean;
}
// * * * * * * * * * * * * * * * * * * * * * * * * * * * * * * * * * * * * * //

dimensions      [0 0 0 0 0 0 0];

internalField   nonuniform List<scalar> 
6144
(
0.99999
0.99999
0.99999
0.99999
0.99999
0.99999
0.99999
0.99999
0.99999
0.99999
0.99999
0.99999
0.99999
0.99999
0.99999
0.99999
0.99999
0.99999
0.99999
0.99999
0.99999
0.99999
0.99999
0.99999
0.99999
0.99999
0.99999
0.99999
0.99999
0.99999
0.99999
0.99999
0.99999
0.99999
0.99999
0.99999
0.99999
0.99999
0.99999
0.99999
0.99999
0.99999
0.99999
0.99999
0.99999
0.99999
0.99999
0.99999
0.99999
0.99999
0.99999
0.999987
0.999982
0.999977
0.999972
0.999959
0.999923
0.999719
0.999067
0.918546
0.0288363
0.000168655
2.14794e-06
2.00728e-06
1.99423e-06
1.92123e-06
1.91943e-06
1.85972e-06
1.84653e-06
1.80073e-06
1.77563e-06
1.73649e-06
1.70797e-06
1.67146e-06
1.64211e-06
1.60782e-06
1.57795e-06
1.54792e-06
1.51573e-06
1.48557e-06
1.4541e-06
1.41799e-06
1.38221e-06
1.34743e-06
1.31208e-06
1.27642e-06
1.23988e-06
1.20343e-06
1.1649e-06
1.12052e-06
1.05479e-06
9.50541e-07
8.16487e-07
7.2112e-07
7.20973e-07
7.20851e-07
0.99999
0.99999
0.99999
0.99999
0.99999
0.99999
0.99999
0.99999
0.99999
0.99999
0.99999
0.99999
0.99999
0.99999
0.99999
0.99999
0.99999
0.99999
0.99999
0.99999
0.99999
0.99999
0.99999
0.99999
0.99999
0.99999
0.99999
0.99999
0.99999
0.99999
0.99999
0.99999
0.99999
0.99999
0.99999
0.99999
0.99999
0.99999
0.99999
0.99999
0.99999
0.99999
0.99999
0.99999
0.99999
0.99999
0.99999
0.99999
0.99999
0.99999
0.99999
0.999988
0.999984
0.99998
0.999976
0.999966
0.999915
0.99961
0.998763
0.945376
0.0418593
0.000129255
2.05933e-06
2.00952e-06
1.98621e-06
1.92096e-06
1.9163e-06
1.86017e-06
1.84355e-06
1.79565e-06
1.77393e-06
1.73663e-06
1.70907e-06
1.67585e-06
1.64544e-06
1.61266e-06
1.57953e-06
1.54765e-06
1.51666e-06
1.48731e-06
1.45576e-06
1.42425e-06
1.39268e-06
1.3565e-06
1.31966e-06
1.28275e-06
1.2425e-06
1.2006e-06
1.16359e-06
1.1166e-06
1.04844e-06
9.40851e-07
8.03524e-07
7.18636e-07
7.19891e-07
7.21569e-07
0.99999
0.99999
0.99999
0.99999
0.99999
0.99999
0.99999
0.99999
0.99999
0.99999
0.99999
0.99999
0.99999
0.99999
0.99999
0.99999
0.99999
0.99999
0.99999
0.99999
0.99999
0.99999
0.99999
0.99999
0.99999
0.99999
0.99999
0.99999
0.99999
0.99999
0.99999
0.99999
0.99999
0.99999
0.99999
0.99999
0.99999
0.99999
0.99999
0.99999
0.99999
0.99999
0.99999
0.99999
0.99999
0.99999
0.99999
0.99999
0.99999
0.99999
0.99999
0.999989
0.999986
0.999981
0.999972
0.99996
0.999948
0.999734
0.999167
0.94885
0.0462813
0.000116094
2.06441e-06
2.01292e-06
1.99181e-06
1.9349e-06
1.93077e-06
1.878e-06
1.86659e-06
1.82323e-06
1.79973e-06
1.75713e-06
1.72649e-06
1.68621e-06
1.65236e-06
1.6126e-06
1.58161e-06
1.54928e-06
1.51553e-06
1.48153e-06
1.44782e-06
1.41361e-06
1.37981e-06
1.34508e-06
1.30814e-06
1.27469e-06
1.23825e-06
1.20047e-06
1.16397e-06
1.11825e-06
1.04979e-06
9.42818e-07
8.063e-07
7.18959e-07
7.202e-07
7.20713e-07
0.99999
0.99999
0.99999
0.99999
0.99999
0.99999
0.99999
0.99999
0.99999
0.99999
0.99999
0.99999
0.99999
0.99999
0.99999
0.99999
0.99999
0.99999
0.99999
0.99999
0.99999
0.99999
0.99999
0.99999
0.99999
0.99999
0.99999
0.99999
0.99999
0.99999
0.99999
0.99999
0.99999
0.99999
0.99999
0.99999
0.99999
0.99999
0.99999
0.99999
0.99999
0.99999
0.99999
0.99999
0.99999
0.99999
0.99999
0.99999
0.99999
0.99999
0.99999
0.999989
0.999984
0.999977
0.999965
0.99995
0.999948
0.999802
0.999544
0.937904
0.0477428
8.63363e-05
2.17611e-06
2.10042e-06
2.04014e-06
1.94279e-06
1.94088e-06
1.88227e-06
1.87345e-06
1.81921e-06
1.80134e-06
1.76417e-06
1.73673e-06
1.70104e-06
1.66336e-06
1.62493e-06
1.58724e-06
1.54883e-06
1.51307e-06
1.48062e-06
1.44692e-06
1.41402e-06
1.3785e-06
1.3406e-06
1.30363e-06
1.26815e-06
1.23179e-06
1.19712e-06
1.16133e-06
1.11771e-06
1.05204e-06
9.4864e-07
8.11891e-07
7.19446e-07
7.19733e-07
7.20508e-07
0.99999
0.99999
0.99999
0.99999
0.99999
0.99999
0.99999
0.99999
0.99999
0.99999
0.99999
0.99999
0.99999
0.99999
0.99999
0.99999
0.99999
0.99999
0.99999
0.99999
0.99999
0.99999
0.99999
0.99999
0.99999
0.99999
0.99999
0.99999
0.99999
0.99999
0.99999
0.99999
0.99999
0.99999
0.99999
0.99999
0.99999
0.99999
0.99999
0.99999
0.99999
0.99999
0.99999
0.99999
0.99999
0.99999
0.99999
0.99999
0.99999
0.99999
0.999989
0.999985
0.99998
0.99997
0.999952
0.999933
0.999928
0.999853
0.999755
0.890771
0.0243532
0.000106971
3.22409e-05
1.90007e-05
1.35767e-05
9.88839e-06
9.60885e-06
7.98806e-06
7.13902e-06
5.9651e-06
5.20436e-06
4.42548e-06
3.77758e-06
3.15885e-06
2.63658e-06
2.2347e-06
1.95293e-06
1.76638e-06
1.65001e-06
1.55225e-06
1.48639e-06
1.42831e-06
1.36547e-06
1.30615e-06
1.27151e-06
1.2352e-06
1.20062e-06
1.1679e-06
1.1388e-06
1.10163e-06
1.04474e-06
9.55445e-07
8.27046e-07
7.22933e-07
7.20981e-07
7.20039e-07
0.99999
0.99999
0.99999
0.99999
0.99999
0.99999
0.99999
0.99999
0.99999
0.99999
0.99999
0.99999
0.99999
0.99999
0.99999
0.99999
0.99999
0.99999
0.99999
0.99999
0.99999
0.99999
0.99999
0.99999
0.99999
0.99999
0.99999
0.99999
0.99999
0.99999
0.99999
0.99999
0.99999
0.99999
0.99999
0.99999
0.99999
0.99999
0.99999
0.99999
0.99999
0.99999
0.99999
0.99999
0.99999
0.99999
0.99999
0.99999
0.99999
0.99999
0.999989
0.999985
0.999978
0.999967
0.999943
0.99993
0.999926
0.999895
0.999921
0.800013
0.0141825
0.00128451
0.00116706
0.000944448
0.000872989
0.000820862
0.000785169
0.000746991
0.000718559
0.000660669
0.000600473
0.000546027
0.000486998
0.000419173
0.000359769
0.000305986
0.000246639
0.000192257
0.000145947
0.00010645
7.48915e-05
4.8831e-05
3.00603e-05
1.77422e-05
9.78007e-06
4.97045e-06
2.46752e-06
1.49427e-06
1.11698e-06
8.83281e-07
7.92788e-07
7.50297e-07
7.19698e-07
7.19539e-07
7.21179e-07
7.25631e-07
0.99999
0.99999
0.99999
0.99999
0.99999
0.99999
0.99999
0.99999
0.99999
0.99999
0.99999
0.99999
0.99999
0.99999
0.99999
0.99999
0.99999
0.99999
0.99999
0.99999
0.99999
0.99999
0.99999
0.99999
0.99999
0.99999
0.99999
0.99999
0.99999
0.99999
0.99999
0.99999
0.99999
0.99999
0.99999
0.99999
0.99999
0.99999
0.99999
0.99999
0.99999
0.99999
0.99999
0.99999
0.99999
0.99999
0.99999
0.99999
0.99999
0.99999
0.99999
0.999988
0.999983
0.999976
0.999956
0.999931
0.999905
0.999896
0.99999
0.68568
0.0126525
0.00684865
0.00728265
0.00703738
0.00688365
0.00692339
0.00684503
0.00681893
0.00661768
0.00635348
0.00613783
0.00575693
0.00546944
0.00522496
0.00505821
0.00461522
0.00418662
0.0038996
0.00348672
0.00311336
0.00288095
0.00249833
0.00211399
0.00181698
0.00153711
0.00128263
0.00100188
0.000715885
0.000492368
0.000298325
0.000145602
5.74261e-05
1.59235e-05
4.88795e-06
2.5161e-06
2.35107e-06
0.99999
0.99999
0.99999
0.99999
0.99999
0.99999
0.99999
0.99999
0.99999
0.99999
0.99999
0.99999
0.99999
0.99999
0.99999
0.99999
0.99999
0.99999
0.99999
0.99999
0.99999
0.99999
0.99999
0.99999
0.99999
0.99999
0.99999
0.99999
0.99999
0.99999
0.99999
0.99999
0.99999
0.99999
0.99999
0.99999
0.99999
0.99999
0.99999
0.99999
0.99999
0.99999
0.99999
0.99999
0.99999
0.99999
0.99999
0.99999
0.99999
0.99999
0.99999
0.99999
0.999987
0.999982
0.999965
0.999942
0.999925
0.99991
0.999945
0.603097
0.0226347
0.0172777
0.0179457
0.0181058
0.018045
0.0181172
0.0180263
0.0178433
0.0178566
0.017855
0.0177101
0.017575
0.0174135
0.0172692
0.0171463
0.0169795
0.0167558
0.0165279
0.0163007
0.0160851
0.0158642
0.015608
0.0153313
0.0150889
0.0148497
0.0147047
0.0144698
0.0140645
0.0136142
0.0128904
0.012029
0.0110013
0.00961134
0.00819318
0.0062617
0.00431406
0.99999
0.99999
0.99999
0.99999
0.99999
0.99999
0.99999
0.99999
0.99999
0.99999
0.99999
0.99999
0.99999
0.99999
0.99999
0.99999
0.99999
0.99999
0.99999
0.99999
0.99999
0.99999
0.99999
0.99999
0.99999
0.99999
0.99999
0.99999
0.99999
0.99999
0.99999
0.99999
0.99999
0.99999
0.99999
0.99999
0.99999
0.99999
0.99999
0.99999
0.99999
0.99999
0.99999
0.99999
0.99999
0.99999
0.99999
0.99999
0.99999
0.99999
0.99999
0.99999
0.999988
0.999983
0.999968
0.999953
0.999942
0.999904
0.999874
0.71202
0.0172992
0.00654626
0.00623163
0.00543889
0.0049963
0.00487211
0.004611
0.00432045
0.00408493
0.00384669
0.0037142
0.00345493
0.00323523
0.0030228
0.00283789
0.00267154
0.0024806
0.00231565
0.00221159
0.00208549
0.00187889
0.00169198
0.00148256
0.00127839
0.00109987
0.000899461
0.000716746
0.000553802
0.000407903
0.000279912
0.000168871
9.33121e-05
4.343e-05
1.50061e-05
4.13729e-06
1.84325e-06
0.999991
0.99999
0.99999
0.99999
0.99999
0.99999
0.99999
0.99999
0.99999
0.99999
0.99999
0.99999
0.99999
0.99999
0.99999
0.99999
0.99999
0.99999
0.99999
0.99999
0.99999
0.99999
0.99999
0.99999
0.99999
0.99999
0.99999
0.99999
0.99999
0.99999
0.99999
0.99999
0.99999
0.99999
0.99999
0.99999
0.99999
0.99999
0.99999
0.99999
0.99999
0.99999
0.99999
0.99999
0.99999
0.99999
0.99999
0.99999
0.99999
0.99999
0.99999
0.99999
0.999988
0.999981
0.999972
0.999966
0.999958
0.999861
0.999797
0.839386
0.0172235
0.000895892
0.00075164
0.000586149
0.000487803
0.000438607
0.000388028
0.000348248
0.000309829
0.000269338
0.000239524
0.000204796
0.000182672
0.000157287
0.000131019
0.000110947
9.47882e-05
8.08236e-05
6.70641e-05
5.29158e-05
4.06018e-05
3.10159e-05
2.24095e-05
1.53466e-05
1.02015e-05
6.04189e-06
3.63653e-06
2.22785e-06
1.41648e-06
1.01465e-06
8.25262e-07
7.53254e-07
7.20079e-07
7.1956e-07
7.21612e-07
7.24207e-07
0.999991
0.99999
0.99999
0.99999
0.99999
0.99999
0.99999
0.99999
0.99999
0.99999
0.99999
0.99999
0.99999
0.99999
0.99999
0.99999
0.99999
0.99999
0.99999
0.99999
0.99999
0.99999
0.99999
0.99999
0.99999
0.99999
0.99999
0.99999
0.99999
0.99999
0.99999
0.99999
0.99999
0.99999
0.99999
0.99999
0.99999
0.99999
0.99999
0.99999
0.99999
0.99999
0.99999
0.99999
0.99999
0.99999
0.99999
0.99999
0.99999
0.99999
0.99999
0.999989
0.999985
0.999978
0.999972
0.999968
0.999958
0.999802
0.999703
0.922018
0.0317616
0.000100583
2.60248e-05
1.83595e-05
1.44554e-05
1.20044e-05
1.00243e-05
8.53803e-06
7.25632e-06
5.92338e-06
4.83368e-06
3.95358e-06
3.35638e-06
2.82217e-06
2.44531e-06
2.16429e-06
1.94859e-06
1.77799e-06
1.64311e-06
1.54258e-06
1.47974e-06
1.42883e-06
1.37449e-06
1.32923e-06
1.29002e-06
1.25455e-06
1.20844e-06
1.15957e-06
1.10395e-06
1.03443e-06
9.52858e-07
8.57556e-07
7.6777e-07
7.18835e-07
7.21426e-07
7.20751e-07
0.999992
0.999991
0.999991
0.999991
0.99999
0.99999
0.99999
0.99999
0.99999
0.99999
0.99999
0.99999
0.99999
0.99999
0.99999
0.99999
0.99999
0.99999
0.99999
0.99999
0.99999
0.99999
0.99999
0.99999
0.99999
0.99999
0.99999
0.99999
0.99999
0.99999
0.99999
0.99999
0.99999
0.99999
0.99999
0.99999
0.99999
0.99999
0.99999
0.99999
0.99999
0.99999
0.99999
0.99999
0.99999
0.99999
0.99999
0.99999
0.99999
0.99999
0.99999
0.999989
0.999984
0.999978
0.999972
0.999964
0.999945
0.999742
0.999636
0.956593
0.0467067
8.45254e-05
2.29369e-06
2.09131e-06
2.03497e-06
1.95047e-06
1.93605e-06
1.8788e-06
1.85517e-06
1.81165e-06
1.79526e-06
1.76284e-06
1.74153e-06
1.6985e-06
1.65792e-06
1.61875e-06
1.58242e-06
1.54679e-06
1.5154e-06
1.48172e-06
1.44478e-06
1.4105e-06
1.37099e-06
1.33221e-06
1.29904e-06
1.26289e-06
1.22293e-06
1.18291e-06
1.13342e-06
1.06778e-06
9.83823e-07
8.78049e-07
7.69225e-07
7.17917e-07
7.20756e-07
7.22054e-07
0.999993
0.999993
0.999992
0.999992
0.999991
0.999991
0.99999
0.99999
0.99999
0.99999
0.99999
0.99999
0.99999
0.99999
0.99999
0.99999
0.99999
0.99999
0.99999
0.99999
0.99999
0.99999
0.99999
0.99999
0.99999
0.99999
0.99999
0.99999
0.99999
0.99999
0.99999
0.99999
0.99999
0.99999
0.99999
0.99999
0.99999
0.99999
0.99999
0.99999
0.99999
0.99999
0.99999
0.99999
0.99999
0.99999
0.99999
0.99999
0.99999
0.99999
0.99999
0.999989
0.999985
0.99998
0.999974
0.999967
0.999924
0.999678
0.999539
0.964835
0.0512633
0.00012718
2.19678e-06
1.99543e-06
1.9623e-06
1.9063e-06
1.89529e-06
1.8359e-06
1.82743e-06
1.77844e-06
1.75888e-06
1.71791e-06
1.69943e-06
1.6701e-06
1.64514e-06
1.61627e-06
1.58484e-06
1.55275e-06
1.51553e-06
1.47945e-06
1.44836e-06
1.41241e-06
1.3731e-06
1.33927e-06
1.30365e-06
1.26661e-06
1.23269e-06
1.19319e-06
1.14418e-06
1.08126e-06
9.94072e-07
8.78398e-07
7.63028e-07
7.13904e-07
7.20844e-07
7.21469e-07
0.999994
0.999994
0.999993
0.999993
0.999992
0.999991
0.999991
0.99999
0.99999
0.99999
0.99999
0.99999
0.99999
0.99999
0.99999
0.99999
0.99999
0.99999
0.99999
0.99999
0.99999
0.99999
0.99999
0.99999
0.99999
0.99999
0.99999
0.99999
0.99999
0.99999
0.99999
0.99999
0.99999
0.99999
0.99999
0.99999
0.99999
0.99999
0.99999
0.99999
0.99999
0.99999
0.99999
0.99999
0.99999
0.99999
0.99999
0.99999
0.99999
0.99999
0.99999
0.999989
0.999986
0.999982
0.999976
0.999972
0.999886
0.999606
0.999565
0.958111
0.0435847
6.41943e-05
2.05148e-06
1.97701e-06
1.96275e-06
1.9028e-06
1.89347e-06
1.8416e-06
1.825e-06
1.78551e-06
1.7595e-06
1.72475e-06
1.69543e-06
1.66576e-06
1.63838e-06
1.60973e-06
1.58166e-06
1.5512e-06
1.51684e-06
1.48587e-06
1.45308e-06
1.41488e-06
1.37832e-06
1.34151e-06
1.30444e-06
1.26825e-06
1.23313e-06
1.19287e-06
1.14307e-06
1.08013e-06
9.91677e-07
8.75363e-07
7.58758e-07
7.13909e-07
7.21005e-07
7.21611e-07
0.999995
0.999994
0.999994
0.999993
0.999992
0.999992
0.999991
0.99999
0.99999
0.99999
0.99999
0.99999
0.99999
0.99999
0.99999
0.99999
0.99999
0.99999
0.99999
0.99999
0.99999
0.99999
0.99999
0.99999
0.99999
0.99999
0.99999
0.99999
0.99999
0.99999
0.99999
0.99999
0.99999
0.99999
0.99999
0.99999
0.99999
0.99999
0.99999
0.99999
0.99999
0.99999
0.99999
0.99999
0.99999
0.99999
0.99999
0.99999
0.99999
0.99999
0.99999
0.999989
0.999988
0.999985
0.999976
0.999964
0.999818
0.999514
0.999196
0.952012
0.0393328
9.59362e-05
2.03419e-06
1.97361e-06
1.96275e-06
1.89441e-06
1.89242e-06
1.85055e-06
1.82745e-06
1.79336e-06
1.76159e-06
1.72484e-06
1.69736e-06
1.65919e-06
1.63228e-06
1.60113e-06
1.56969e-06
1.54246e-06
1.51327e-06
1.48041e-06
1.44995e-06
1.4183e-06
1.38269e-06
1.3464e-06
1.31132e-06
1.27796e-06
1.23902e-06
1.1973e-06
1.1491e-06
1.08388e-06
9.93599e-07
8.76014e-07
7.60443e-07
7.14471e-07
7.21312e-07
7.219e-07
0.999996
0.999994
0.999994
0.999993
0.999993
0.999992
0.999991
0.99999
0.99999
0.99999
0.99999
0.99999
0.99999
0.99999
0.99999
0.99999
0.99999
0.99999
0.99999
0.99999
0.99999
0.99999
0.99999
0.99999
0.99999
0.99999
0.99999
0.99999
0.99999
0.99999
0.99999
0.99999
0.99999
0.99999
0.99999
0.99999
0.99999
0.99999
0.99999
0.99999
0.99999
0.99999
0.99999
0.99999
0.99999
0.99999
0.99999
0.99999
0.99999
0.99999
0.99999
0.99999
0.999989
0.999987
0.999982
0.999947
0.999873
0.999596
0.999476
0.942998
0.0390254
0.000260414
2.22281e-06
1.97622e-06
1.97026e-06
1.90377e-06
1.89596e-06
1.85094e-06
1.82777e-06
1.78575e-06
1.76393e-06
1.72253e-06
1.69726e-06
1.66094e-06
1.63332e-06
1.59986e-06
1.56846e-06
1.53992e-06
1.50875e-06
1.47643e-06
1.44927e-06
1.41913e-06
1.38446e-06
1.34876e-06
1.31315e-06
1.27877e-06
1.2418e-06
1.20119e-06
1.15612e-06
1.09088e-06
9.96567e-07
8.79162e-07
7.63859e-07
7.14746e-07
7.21717e-07
7.22258e-07
0.99999
0.99999
0.99999
0.99999
0.99999
0.99999
0.99999
0.99999
0.99999
0.99999
0.99999
0.99999
0.99999
0.99999
0.99999
0.99999
0.99999
0.99999
0.99999
0.99999
0.99999
0.99999
0.99999
0.99999
0.99999
0.99999
0.99999
0.99999
0.99999
0.99999
0.99999
0.99999
0.99999
0.99999
0.99999
0.99999
0.99999
0.99999
0.99999
0.99999
0.99999
0.99999
0.99999
0.99999
0.99999
0.99999
0.99999
0.99999
0.99999
0.99999
0.999989
0.999987
0.999982
0.999977
0.999974
0.999962
0.999919
0.999595
0.998088
0.93778
0.0474905
0.000288216
2.25736e-06
2.00142e-06
1.98724e-06
1.91267e-06
1.91444e-06
1.85304e-06
1.84307e-06
1.79216e-06
1.77149e-06
1.72898e-06
1.70228e-06
1.66452e-06
1.63295e-06
1.60065e-06
1.56994e-06
1.53752e-06
1.50693e-06
1.47648e-06
1.4441e-06
1.41267e-06
1.37971e-06
1.34507e-06
1.30981e-06
1.27454e-06
1.23841e-06
1.20181e-06
1.16347e-06
1.11865e-06
1.05176e-06
9.42743e-07
8.03152e-07
7.18219e-07
7.19973e-07
7.21313e-07
0.99999
0.99999
0.99999
0.99999
0.99999
0.99999
0.99999
0.99999
0.99999
0.99999
0.99999
0.99999
0.99999
0.99999
0.99999
0.99999
0.99999
0.99999
0.99999
0.99999
0.99999
0.99999
0.99999
0.99999
0.99999
0.99999
0.99999
0.99999
0.99999
0.99999
0.99999
0.99999
0.99999
0.99999
0.99999
0.99999
0.99999
0.99999
0.99999
0.99999
0.99999
0.99999
0.99999
0.99999
0.99999
0.99999
0.99999
0.99999
0.99999
0.99999
0.99999
0.999987
0.999983
0.99998
0.999977
0.999965
0.999904
0.999602
0.998421
0.943363
0.0479412
0.000211271
2.11272e-06
2.01069e-06
1.99068e-06
1.91156e-06
1.91618e-06
1.85727e-06
1.84678e-06
1.79914e-06
1.77589e-06
1.73456e-06
1.70708e-06
1.66867e-06
1.63601e-06
1.60463e-06
1.57296e-06
1.53776e-06
1.50832e-06
1.47675e-06
1.44173e-06
1.41139e-06
1.37712e-06
1.34002e-06
1.30699e-06
1.27139e-06
1.23348e-06
1.19912e-06
1.16048e-06
1.11283e-06
1.04474e-06
9.35431e-07
7.99469e-07
7.17005e-07
7.207e-07
7.20727e-07
0.99999
0.99999
0.99999
0.99999
0.99999
0.99999
0.99999
0.99999
0.99999
0.99999
0.99999
0.99999
0.99999
0.99999
0.99999
0.99999
0.99999
0.99999
0.99999
0.99999
0.99999
0.99999
0.99999
0.99999
0.99999
0.99999
0.99999
0.99999
0.99999
0.99999
0.99999
0.99999
0.99999
0.99999
0.99999
0.99999
0.99999
0.99999
0.99999
0.99999
0.99999
0.99999
0.99999
0.99999
0.99999
0.99999
0.99999
0.99999
0.99999
0.99999
0.99999
0.999988
0.999985
0.999982
0.999973
0.999952
0.999941
0.999744
0.999255
0.932882
0.0307651
2.32389e-05
2.15034e-06
2.05447e-06
2.01372e-06
1.93774e-06
1.94324e-06
1.88421e-06
1.87717e-06
1.8251e-06
1.80435e-06
1.75722e-06
1.72849e-06
1.68824e-06
1.65586e-06
1.62153e-06
1.58787e-06
1.55255e-06
1.51949e-06
1.48539e-06
1.45143e-06
1.41887e-06
1.38291e-06
1.34513e-06
1.30828e-06
1.27232e-06
1.23729e-06
1.2012e-06
1.16236e-06
1.11908e-06
1.05356e-06
9.49281e-07
8.11972e-07
7.23302e-07
7.19976e-07
7.23644e-07
0.99999
0.99999
0.99999
0.99999
0.99999
0.99999
0.99999
0.99999
0.99999
0.99999
0.99999
0.99999
0.99999
0.99999
0.99999
0.99999
0.99999
0.99999
0.99999
0.99999
0.99999
0.99999
0.99999
0.99999
0.99999
0.99999
0.99999
0.99999
0.99999
0.99999
0.99999
0.99999
0.99999
0.99999
0.99999
0.99999
0.99999
0.99999
0.99999
0.99999
0.99999
0.99999
0.99999
0.99999
0.99999
0.99999
0.99999
0.99999
0.99999
0.99999
0.999988
0.999984
0.999981
0.999975
0.999957
0.999927
0.999914
0.999797
0.999672
0.917333
0.0248104
5.90218e-06
8.68802e-06
4.63203e-06
4.22548e-06
3.59135e-06
3.3015e-06
2.81141e-06
2.53108e-06
2.26201e-06
2.13791e-06
1.98257e-06
1.9106e-06
1.82584e-06
1.76401e-06
1.70392e-06
1.65647e-06
1.60845e-06
1.56222e-06
1.52665e-06
1.47844e-06
1.42946e-06
1.39438e-06
1.35867e-06
1.32121e-06
1.2814e-06
1.24393e-06
1.20558e-06
1.16784e-06
1.12271e-06
1.06142e-06
9.60623e-07
8.24603e-07
7.22419e-07
7.20329e-07
7.21022e-07
0.99999
0.99999
0.99999
0.99999
0.99999
0.99999
0.99999
0.99999
0.99999
0.99999
0.99999
0.99999
0.99999
0.99999
0.99999
0.99999
0.99999
0.99999
0.99999
0.99999
0.99999
0.99999
0.99999
0.99999
0.99999
0.99999
0.99999
0.99999
0.99999
0.99999
0.99999
0.99999
0.99999
0.99999
0.99999
0.99999
0.99999
0.99999
0.99999
0.99999
0.99999
0.99999
0.99999
0.99999
0.99999
0.99999
0.99999
0.99999
0.99999
0.999989
0.999983
0.999974
0.999965
0.999954
0.999928
0.999902
0.999884
0.999865
0.999801
0.87105
0.0139078
0.000542883
0.000459074
0.000301749
0.000268169
0.000248319
0.000233542
0.000215469
0.000190973
0.000158732
0.000137983
0.000114223
9.52534e-05
7.65297e-05
6.25412e-05
4.83628e-05
3.57102e-05
2.40347e-05
1.61443e-05
1.04184e-05
6.67808e-06
4.30646e-06
2.90744e-06
2.1562e-06
1.78595e-06
1.52915e-06
1.34379e-06
1.23031e-06
1.12925e-06
1.06438e-06
1.00686e-06
9.42798e-07
8.30205e-07
7.27739e-07
7.20514e-07
7.23959e-07
0.99999
0.99999
0.99999
0.99999
0.99999
0.99999
0.99999
0.99999
0.99999
0.99999
0.99999
0.99999
0.99999
0.99999
0.99999
0.99999
0.99999
0.99999
0.99999
0.99999
0.99999
0.99999
0.99999
0.99999
0.99999
0.99999
0.99999
0.99999
0.99999
0.99999
0.99999
0.99999
0.99999
0.99999
0.99999
0.99999
0.99999
0.99999
0.99999
0.99999
0.99999
0.99999
0.99999
0.99999
0.99999
0.99999
0.99999
0.99999
0.99999
0.999989
0.999982
0.999973
0.999964
0.99995
0.999914
0.999894
0.999906
0.999928
0.999908
0.7284
0.0181536
0.0095911
0.00955208
0.00869689
0.00853817
0.00813497
0.00763749
0.00734791
0.00707336
0.00687755
0.00662346
0.0063391
0.00591444
0.0054156
0.00495494
0.00445159
0.00408196
0.00338048
0.0027605
0.00223539
0.00172726
0.00133287
0.000985632
0.000691284
0.000473037
0.000302592
0.000176089
0.000101607
5.48005e-05
2.83955e-05
1.21087e-05
5.50073e-06
2.61668e-06
1.44611e-06
9.10996e-07
7.44264e-07
0.99999
0.99999
0.99999
0.99999
0.99999
0.99999
0.99999
0.99999
0.99999
0.99999
0.99999
0.99999
0.99999
0.99999
0.99999
0.99999
0.99999
0.99999
0.99999
0.99999
0.99999
0.99999
0.99999
0.99999
0.99999
0.99999
0.99999
0.99999
0.99999
0.99999
0.99999
0.99999
0.99999
0.99999
0.99999
0.99999
0.99999
0.99999
0.99999
0.99999
0.99999
0.99999
0.99999
0.99999
0.99999
0.99999
0.99999
0.99999
0.99999
0.99999
0.99999
0.999985
0.999979
0.999972
0.999936
0.999888
0.999851
0.999861
0.99986
0.576934
0.0381766
0.032337
0.0342974
0.0349273
0.0353231
0.0357431
0.035989
0.0363765
0.0366812
0.0369473
0.0373063
0.0375779
0.0376181
0.0375771
0.0373075
0.0370044
0.0365093
0.0357312
0.0347281
0.0334957
0.0319776
0.0301934
0.0281923
0.0258801
0.0232339
0.0206738
0.0180709
0.0154336
0.01297
0.0105107
0.00758665
0.00480149
0.00274892
0.00135522
0.000764268
0.000927166
0.999991
0.99999
0.999991
0.999991
0.99999
0.99999
0.99999
0.99999
0.99999
0.99999
0.99999
0.99999
0.99999
0.99999
0.99999
0.99999
0.99999
0.99999
0.99999
0.99999
0.99999
0.99999
0.99999
0.99999
0.99999
0.99999
0.99999
0.99999
0.99999
0.99999
0.99999
0.99999
0.99999
0.99999
0.99999
0.99999
0.99999
0.99999
0.99999
0.99999
0.99999
0.99999
0.99999
0.99999
0.99999
0.99999
0.99999
0.99999
0.99999
0.99999
0.99999
0.99999
0.999988
0.999977
0.999945
0.999911
0.999892
0.999887
0.99932
0.572934
0.0405845
0.0353691
0.0366715
0.0373437
0.0385475
0.0398955
0.0413235
0.0430678
0.0449023
0.0468865
0.049058
0.0513223
0.0537387
0.0562929
0.0590454
0.0620669
0.0653084
0.0687422
0.0724348
0.0763584
0.0804957
0.084865
0.0894337
0.094148
0.099003
0.10394
0.109216
0.114972
0.121261
0.128038
0.135825
0.145241
0.157834
0.177959
0.222723
0.41068
0.999991
0.999991
0.999991
0.999991
0.999991
0.99999
0.99999
0.99999
0.99999
0.99999
0.99999
0.99999
0.99999
0.99999
0.99999
0.99999
0.99999
0.99999
0.99999
0.99999
0.99999
0.99999
0.99999
0.99999
0.99999
0.99999
0.99999
0.99999
0.99999
0.99999
0.99999
0.99999
0.99999
0.99999
0.99999
0.99999
0.99999
0.99999
0.99999
0.99999
0.99999
0.99999
0.99999
0.99999
0.99999
0.99999
0.99999
0.99999
0.99999
0.99999
0.99999
0.99999
0.999987
0.999973
0.999952
0.999931
0.999914
0.999905
0.999802
0.766569
0.0177945
0.00470155
0.00376334
0.00279795
0.00263996
0.00267941
0.00276135
0.00285485
0.00292748
0.00298413
0.00305107
0.00311285
0.00317687
0.00323735
0.00335218
0.00347169
0.0036602
0.00383287
0.00386562
0.00388488
0.00398125
0.00407478
0.00411655
0.00408207
0.00409942
0.00414821
0.00399813
0.00375899
0.00357367
0.00327917
0.00274941
0.00217774
0.00154769
0.000915397
0.000568586
0.000329775
0.999991
0.999991
0.999991
0.999991
0.999991
0.999991
0.99999
0.99999
0.99999
0.99999
0.99999
0.99999
0.99999
0.99999
0.99999
0.99999
0.99999
0.99999
0.99999
0.99999
0.99999
0.99999
0.99999
0.99999
0.99999
0.99999
0.99999
0.99999
0.99999
0.99999
0.99999
0.99999
0.99999
0.99999
0.99999
0.99999
0.99999
0.99999
0.99999
0.99999
0.99999
0.99999
0.99999
0.99999
0.99999
0.99999
0.99999
0.99999
0.99999
0.99999
0.99999
0.999989
0.999987
0.999979
0.999965
0.999947
0.999915
0.999858
0.999811
0.881676
0.0129091
0.000266037
0.000237453
0.000184593
0.00018031
0.000175009
0.000162734
0.000152029
0.000150909
0.000148454
0.000152721
0.000151152
0.000139848
0.000138804
0.000133053
0.000120367
0.000114032
0.000107156
9.73709e-05
9.12429e-05
8.83218e-05
8.54556e-05
7.71885e-05
6.21394e-05
5.09684e-05
4.39646e-05
3.5896e-05
2.81808e-05
2.07671e-05
1.48394e-05
9.86805e-06
5.73745e-06
3.34523e-06
1.88452e-06
1.09452e-06
7.83135e-07
0.999992
0.999992
0.999991
0.999992
0.999991
0.999991
0.999991
0.99999
0.99999
0.99999
0.99999
0.99999
0.99999
0.99999
0.99999
0.99999
0.99999
0.99999
0.99999
0.99999
0.99999
0.99999
0.99999
0.99999
0.99999
0.99999
0.99999
0.99999
0.99999
0.99999
0.99999
0.99999
0.99999
0.99999
0.99999
0.99999
0.99999
0.99999
0.99999
0.99999
0.99999
0.99999
0.99999
0.99999
0.99999
0.99999
0.99999
0.99999
0.99999
0.99999
0.99999
0.999989
0.999986
0.99998
0.999973
0.999957
0.99994
0.999788
0.999742
0.934693
0.0306733
1.16962e-05
9.7901e-06
6.37656e-06
5.65449e-06
5.16091e-06
4.88479e-06
4.53267e-06
4.30219e-06
4.05403e-06
3.86376e-06
3.63634e-06
3.43675e-06
3.18954e-06
2.94722e-06
2.74406e-06
2.52982e-06
2.35444e-06
2.20003e-06
2.08906e-06
1.99449e-06
1.86483e-06
1.66951e-06
1.54493e-06
1.43783e-06
1.34942e-06
1.28465e-06
1.22803e-06
1.16639e-06
1.09595e-06
1.0002e-06
8.81454e-07
7.64035e-07
7.18956e-07
7.20881e-07
7.25016e-07
0.999992
0.999992
0.999992
0.999992
0.999992
0.999991
0.999991
0.99999
0.99999
0.99999
0.99999
0.99999
0.99999
0.99999
0.99999
0.99999
0.99999
0.99999
0.99999
0.99999
0.99999
0.99999
0.99999
0.99999
0.99999
0.99999
0.99999
0.99999
0.99999
0.99999
0.99999
0.99999
0.99999
0.99999
0.99999
0.99999
0.99999
0.99999
0.99999
0.99999
0.99999
0.99999
0.99999
0.99999
0.99999
0.99999
0.99999
0.99999
0.99999
0.99999
0.99999
0.99999
0.999987
0.999982
0.999976
0.999963
0.999934
0.999736
0.999644
0.951373
0.034643
9.99307e-06
2.14348e-06
1.99215e-06
1.98475e-06
1.92944e-06
1.91197e-06
1.85806e-06
1.84247e-06
1.79584e-06
1.77381e-06
1.734e-06
1.70855e-06
1.67179e-06
1.64406e-06
1.61223e-06
1.58446e-06
1.55428e-06
1.5172e-06
1.47786e-06
1.44822e-06
1.41564e-06
1.3812e-06
1.34839e-06
1.31303e-06
1.27688e-06
1.24191e-06
1.20164e-06
1.15126e-06
1.08535e-06
9.94433e-07
8.76621e-07
7.60183e-07
7.1731e-07
7.21474e-07
7.22355e-07
0.999993
0.999993
0.999993
0.999993
0.999992
0.999992
0.999991
0.999991
0.99999
0.99999
0.99999
0.99999
0.99999
0.99999
0.99999
0.99999
0.99999
0.99999
0.99999
0.99999
0.99999
0.99999
0.99999
0.99999
0.99999
0.99999
0.99999
0.99999
0.99999
0.99999
0.99999
0.99999
0.99999
0.99999
0.99999
0.99999
0.99999
0.99999
0.99999
0.99999
0.99999
0.99999
0.99999
0.99999
0.99999
0.99999
0.99999
0.99999
0.99999
0.99999
0.99999
0.99999
0.999989
0.999987
0.999981
0.999968
0.999906
0.999673
0.99938
0.959562
0.0488798
4.6038e-05
2.04808e-06
1.98527e-06
1.96683e-06
1.9224e-06
1.91368e-06
1.85263e-06
1.83834e-06
1.79536e-06
1.76305e-06
1.7258e-06
1.69513e-06
1.66301e-06
1.63493e-06
1.60339e-06
1.57207e-06
1.53929e-06
1.50569e-06
1.474e-06
1.44154e-06
1.40755e-06
1.37326e-06
1.33719e-06
1.30142e-06
1.26679e-06
1.23099e-06
1.19257e-06
1.14632e-06
1.08418e-06
9.93102e-07
8.74536e-07
7.5656e-07
7.14349e-07
7.2058e-07
7.21908e-07
0.999994
0.999994
0.999994
0.999993
0.999992
0.999992
0.999991
0.999991
0.99999
0.99999
0.99999
0.99999
0.99999
0.99999
0.99999
0.99999
0.99999
0.99999
0.99999
0.99999
0.99999
0.99999
0.99999
0.99999
0.99999
0.99999
0.99999
0.99999
0.99999
0.99999
0.99999
0.99999
0.99999
0.99999
0.99999
0.99999
0.99999
0.99999
0.99999
0.99999
0.99999
0.99999
0.99999
0.99999
0.99999
0.99999
0.99999
0.99999
0.99999
0.99999
0.99999
0.99999
0.999989
0.999987
0.999979
0.999967
0.999867
0.999606
0.999275
0.949967
0.0480551
5.00795e-05
2.04794e-06
1.98948e-06
1.96412e-06
1.90707e-06
1.90532e-06
1.84573e-06
1.83556e-06
1.78316e-06
1.7631e-06
1.71949e-06
1.6946e-06
1.65696e-06
1.62618e-06
1.59355e-06
1.56256e-06
1.53245e-06
1.50196e-06
1.47124e-06
1.44041e-06
1.40974e-06
1.37541e-06
1.34038e-06
1.30498e-06
1.26843e-06
1.23249e-06
1.19373e-06
1.1467e-06
1.08401e-06
9.9403e-07
8.74966e-07
7.58485e-07
7.1563e-07
7.21274e-07
7.22477e-07
0.999995
0.999995
0.999994
0.999993
0.999993
0.999992
0.999991
0.999991
0.99999
0.99999
0.99999
0.99999
0.99999
0.99999
0.99999
0.99999
0.99999
0.99999
0.99999
0.99999
0.99999
0.99999
0.99999
0.99999
0.99999
0.99999
0.99999
0.99999
0.99999
0.99999
0.99999
0.99999
0.99999
0.99999
0.99999
0.99999
0.99999
0.99999
0.99999
0.99999
0.99999
0.99999
0.99999
0.99999
0.99999
0.99999
0.99999
0.99999
0.99999
0.99999
0.99999
0.99999
0.999989
0.999986
0.999973
0.999956
0.999819
0.999503
0.998808
0.942179
0.0488837
0.000153224
2.03202e-06
1.9654e-06
1.95131e-06
1.88585e-06
1.88363e-06
1.82665e-06
1.82034e-06
1.77183e-06
1.75408e-06
1.71231e-06
1.68892e-06
1.65219e-06
1.62306e-06
1.58917e-06
1.55633e-06
1.52851e-06
1.4985e-06
1.46535e-06
1.43752e-06
1.40744e-06
1.3738e-06
1.33807e-06
1.30156e-06
1.26817e-06
1.23228e-06
1.19273e-06
1.14507e-06
1.0807e-06
9.89806e-07
8.71608e-07
7.54215e-07
7.14711e-07
7.21107e-07
7.22377e-07
0.999997
0.999995
0.999995
0.999994
0.999993
0.999992
0.999992
0.999991
0.99999
0.99999
0.99999
0.99999
0.99999
0.99999
0.99999
0.99999
0.99999
0.99999
0.99999
0.99999
0.99999
0.99999
0.99999
0.99999
0.99999
0.99999
0.99999
0.99999
0.99999
0.99999
0.99999
0.99999
0.99999
0.99999
0.99999
0.99999
0.99999
0.99999
0.99999
0.99999
0.99999
0.99999
0.99999
0.99999
0.99999
0.99999
0.99999
0.99999
0.99999
0.99999
0.99999
0.99999
0.99999
0.999989
0.999981
0.999957
0.999857
0.999462
0.998375
0.941106
0.051339
0.000447249
2.54565e-06
1.95644e-06
1.95116e-06
1.8818e-06
1.88383e-06
1.83214e-06
1.81881e-06
1.77247e-06
1.75263e-06
1.71232e-06
1.6883e-06
1.65191e-06
1.62012e-06
1.58852e-06
1.56038e-06
1.52845e-06
1.49784e-06
1.46982e-06
1.44052e-06
1.40891e-06
1.37835e-06
1.34359e-06
1.30707e-06
1.2737e-06
1.23722e-06
1.19789e-06
1.15287e-06
1.08735e-06
9.94182e-07
8.77655e-07
7.61008e-07
7.15309e-07
7.2168e-07
7.22748e-07
0.99999
0.99999
0.99999
0.99999
0.99999
0.99999
0.99999
0.99999
0.99999
0.99999
0.99999
0.99999