/*--------------------------------*- C++ -*----------------------------------*\
| =========                 |                                                 |
| \\      /  F ield         | OpenFOAM: The Open Source CFD Toolbox           |
|  \\    /   O peration     | Version:  2.3.0                                 |
|   \\  /    A nd           | Web:      www.OpenFOAM.org                      |
|    \\/     M anipulation  |                                                 |
\*---------------------------------------------------------------------------*/
FoamFile
{
    version     2.0;
    format      ascii;
    class       volScalarField;
    location    "6";
    object      epsilon.water;
}
// * * * * * * * * * * * * * * * * * * * * * * * * * * * * * * * * * * * * * //

dimensions      [0 2 -3 0 0 0 0];

internalField   nonuniform List<scalar> 
6144
(
5.0553e-07
4.50041e-07
4.78103e-07
4.72282e-07
4.73354e-07
4.63642e-07
4.59393e-07
4.54523e-07
4.49553e-07
4.4656e-07
4.42612e-07
4.40596e-07
4.37786e-07
4.3631e-07
4.34529e-07
4.33341e-07
4.32306e-07
4.31417e-07
4.30731e-07
4.30134e-07
4.29656e-07
4.29254e-07
4.28924e-07
4.28651e-07
4.28424e-07
4.28235e-07
4.28077e-07
4.27944e-07
4.27831e-07
4.27737e-07
4.27656e-07
4.2759e-07
4.27516e-07
4.27474e-07
4.27403e-07
4.27438e-07
4.2738e-07
4.27559e-07
4.27653e-07
4.28207e-07
4.28986e-07
4.3017e-07
4.32962e-07
4.35339e-07
4.41922e-07
4.46465e-07
4.65003e-07
6.29762e-07
2.44963e-06
1.57889e-05
6.68865e-05
0.000141985
0.000187891
0.000282549
0.000430213
0.000609542
0.00139327
0.00390929
0.0106377
0.0173222
0.0618337
0.0312803
0.0196265
0.0127499
0.00921973
0.0071253
0.0056927
0.00469198
0.00397111
0.00342875
0.00298401
0.00258593
0.00224812
0.00193373
0.00164124
0.00141839
0.00119471
0.000969932
0.000837072
0.000683298
0.000375147
0.000136718
5.18874e-05
2.52999e-05
1.42886e-05
8.60886e-06
5.34076e-06
3.41388e-06
2.28427e-06
1.62421e-06
1.2282e-06
9.80591e-07
8.03742e-07
6.6228e-07
5.51857e-07
4.67648e-07
4.919e-07
3.7059e-07
3.40624e-07
3.72168e-07
3.84592e-07
3.81801e-07
3.93638e-07
3.84638e-07
3.94333e-07
3.86354e-07
3.95246e-07
3.89443e-07
3.96025e-07
3.92633e-07
3.96204e-07
3.94471e-07
3.95898e-07
3.95078e-07
3.9526e-07
3.94806e-07
3.94506e-07
3.94088e-07
3.93663e-07
3.93209e-07
3.92737e-07
3.92248e-07
3.91744e-07
3.91224e-07
3.90689e-07
3.90133e-07
3.89556e-07
3.88959e-07
3.88338e-07
3.87713e-07
3.87006e-07
3.8645e-07
3.856e-07
3.85157e-07
3.84485e-07
3.84016e-07
3.84533e-07
3.83842e-07
3.87213e-07
3.86696e-07
3.94466e-07
3.9613e-07
4.22535e-07
8.03212e-07
5.21592e-06
3.02857e-05
9.62569e-05
0.000187465
0.000283031
0.000473035
0.00112811
0.00168674
0.00431933
0.00835841
0.0119503
0.0121116
0.0309742
0.00664588
0.0056909
0.00454477
0.00394374
0.00360651
0.00330701
0.00300446
0.00271849
0.00246275
0.00222126
0.00197563
0.00174436
0.00151767
0.00130402
0.00113826
0.000974552
0.0008069
0.000693661
0.000523925
0.000252452
0.000106381
5.99264e-05
4.0537e-05
2.5158e-05
1.46006e-05
8.52432e-06
4.97894e-06
2.88024e-06
1.73421e-06
1.14314e-06
8.3058e-07
6.55483e-07
5.40539e-07
4.56355e-07
4.17865e-07
8.8187e-07
4.67078e-07
2.95399e-07
3.11826e-07
2.75717e-07
2.7718e-07
2.62047e-07
2.58374e-07
2.51662e-07
2.46233e-07
2.46386e-07
2.42567e-07
2.46311e-07
2.44293e-07
2.48606e-07
2.48039e-07
2.51497e-07
2.51914e-07
2.53907e-07
2.54727e-07
2.55713e-07
2.56342e-07
2.56827e-07
2.57143e-07
2.5733e-07
2.57406e-07
2.57389e-07
2.57304e-07
2.57164e-07
2.56982e-07
2.5677e-07
2.56537e-07
2.56286e-07
2.56084e-07
2.55733e-07
2.55752e-07
2.55214e-07
2.55458e-07
2.55206e-07
2.55333e-07
2.56465e-07
2.56261e-07
2.60172e-07
2.6034e-07
2.68004e-07
2.71681e-07
3.0107e-07
8.03744e-07
5.72629e-06
3.21499e-05
0.000102773
0.000206142
0.000373514
0.000861828
0.00229342
0.00324566
0.00515936
0.0077112
0.00618643
0.00659134
0.0198601
0.00297836
0.0029777
0.00294242
0.00275821
0.00248671
0.00222866
0.00202872
0.00186375
0.00170664
0.00153682
0.00137617
0.0012364
0.00108824
0.000957103
0.000869025
0.000724811
0.000504112
0.000330213
0.000212173
0.000145464
0.00011826
9.7093e-05
7.25572e-05
4.43638e-05
2.51139e-05
1.37872e-05
7.43389e-06
3.94329e-06
2.09317e-06
1.17631e-06
7.55978e-07
5.44269e-07
4.34034e-07
3.64555e-07
3.77549e-07
1.97345e-06
1.26154e-06
3.89343e-07
4.19048e-07
2.89833e-07
2.96706e-07
2.54051e-07
2.55031e-07
2.2844e-07
2.25676e-07
2.08426e-07
2.08324e-07
1.9736e-07
1.9858e-07
1.92103e-07
1.93557e-07
1.90295e-07
1.91262e-07
1.90172e-07
1.90744e-07
1.90693e-07
1.91118e-07
1.9148e-07
1.91943e-07
1.92457e-07
1.9302e-07
1.9362e-07
1.94257e-07
1.94936e-07
1.9566e-07
1.96447e-07
1.9726e-07
1.98085e-07
1.98963e-07
1.99873e-07
2.00842e-07
2.01848e-07
2.02946e-07
2.0425e-07
2.05559e-07
2.07497e-07
2.09528e-07
2.12548e-07
2.16767e-07
2.21334e-07
2.30969e-07
2.61312e-07
7.91809e-07
4.95259e-06
2.16771e-05
8.16615e-05
0.0001635
0.00030697
0.00107868
0.0041599
0.00631376
0.00589752
0.00874631
0.00407084
0.00392169
0.0145386
0.00228534
0.00176762
0.00205017
0.00208703
0.00169193
0.00137858
0.00125819
0.00116728
0.00108287
0.000990871
0.000876692
0.000737082
0.000610508
0.000549748
0.000509346
0.000466809
0.000435207
0.000405556
0.000378231
0.000340567
0.000283135
0.000217231
0.000145896
8.7842e-05
4.80243e-05
2.5082e-05
1.27078e-05
6.1129e-06
2.89387e-06
1.39215e-06
7.49234e-07
4.86697e-07
3.73766e-07
3.03695e-07
3.62092e-07
3.82474e-06
3.37628e-06
8.67084e-07
9.85098e-07
5.53243e-07
5.794e-07
4.43297e-07
4.47609e-07
3.71065e-07
3.5717e-07
2.99097e-07
2.98464e-07
2.55386e-07
2.59514e-07
2.29134e-07
2.34677e-07
2.1593e-07
2.17887e-07
2.11181e-07
2.11345e-07
2.09594e-07
2.09675e-07
2.09685e-07
2.10181e-07
2.10976e-07
2.12132e-07
2.13643e-07
2.15558e-07
2.17992e-07
2.20863e-07
2.24161e-07
2.2766e-07
2.31353e-07
2.35152e-07
2.39484e-07
2.4308e-07
2.48571e-07
2.519e-07
2.58884e-07
2.62392e-07
2.71006e-07
2.7706e-07
2.86327e-07
3.03915e-07
3.12836e-07
3.54376e-07
4.01794e-07
8.13471e-07
3.52932e-06
1.43176e-05
5.35524e-05
0.000122105
0.000322862
0.00165213
0.00671556
0.0114865
0.0132445
0.010818
0.00321365
0.00306885
0.00848408
0.00206731
0.00170461
0.00145601
0.0013566
0.0012529
0.00122088
0.00119868
0.0011914
0.00116938
0.00116728
0.00117303
0.00119429
0.00121659
0.00122838
0.00122709
0.00120474
0.00116397
0.00109502
0.000999995
0.000884289
0.000724329
0.00053269
0.000368223
0.000235243
0.000138629
7.37634e-05
3.58711e-05
1.6659e-05
7.36396e-06
3.1713e-06
1.35461e-06
6.30195e-07
3.5643e-07
2.58417e-07
3.60826e-07
7.18623e-06
7.36072e-06
1.94439e-06
2.25854e-06
1.1201e-06
8.8929e-07
6.80095e-07
6.38727e-07
5.85675e-07
5.41493e-07
4.89198e-07
4.69727e-07
4.32325e-07
4.30204e-07
4.01772e-07
4.04404e-07
3.87152e-07
3.90069e-07
3.83391e-07
3.84777e-07
3.83615e-07
3.8485e-07
3.85666e-07
3.87117e-07
3.89125e-07
3.91739e-07
3.94772e-07
3.98293e-07
4.02472e-07
4.06872e-07
4.11539e-07
4.162e-07
4.21001e-07
4.25757e-07
4.31225e-07
4.35134e-07
4.42428e-07
4.45467e-07
4.55872e-07
4.57892e-07
4.73239e-07
4.76611e-07
4.97679e-07
5.12649e-07
5.38978e-07
5.83887e-07
6.40354e-07
7.69436e-07
1.93644e-06
8.00352e-06
3.63143e-05
0.000124526
0.000540652
0.00388123
0.00946225
0.0111323
0.0123631
0.0106435
0.00371477
0.0036082
0.00606696
0.00228306
0.00216075
0.00210141
0.00206457
0.00202956
0.00201962
0.00199917
0.00199082
0.00197489
0.00196027
0.00194332
0.00192581
0.00190308
0.00187737
0.00186328
0.00184025
0.00178676
0.00171981
0.00162382
0.00149744
0.00132371
0.00112336
0.000896819
0.000692414
0.00048701
0.000312519
0.000172501
8.46868e-05
4.08329e-05
1.96183e-05
8.61095e-06
2.93866e-06
8.03061e-07
3.25382e-07
3.96769e-07
1.10845e-05
1.2833e-05
3.20024e-06
3.82947e-06
1.5421e-06
8.95567e-07
6.42992e-07
5.95358e-07
5.52998e-07
5.24251e-07
4.8608e-07
4.67822e-07
4.49139e-07
4.46468e-07
4.46196e-07
4.39355e-07
4.621e-07
4.60565e-07
4.78502e-07
4.82483e-07
4.91824e-07
4.9599e-07
4.99461e-07
5.00697e-07
5.00054e-07
4.97482e-07
4.9367e-07
4.89154e-07
4.83872e-07
4.78783e-07
4.74392e-07
4.70889e-07
4.68399e-07
4.66684e-07
4.66092e-07
4.65282e-07
4.67383e-07
4.66857e-07
4.73262e-07
4.71927e-07
4.85229e-07
4.84694e-07
5.07082e-07
5.14214e-07
5.44162e-07
5.77359e-07
6.21891e-07
7.64146e-07
1.53723e-06
6.89329e-06
3.68296e-05
0.000161077
0.000648083
0.00387123
0.00796344
0.00971501
0.00901444
0.00802421
0.0037701
0.00370821
0.00514246
0.00240959
0.00233213
0.00228615
0.00227105
0.00220691
0.00218424
0.00212676
0.00210745
0.00209082
0.00203871
0.00199626
0.00196829
0.00192859
0.0018833
0.00185988
0.00184525
0.00178006
0.00174272
0.00167968
0.00158669
0.00145116
0.00133506
0.00116608
0.00105399
0.000914427
0.000758115
0.000573589
0.000405312
0.000285684
0.000189392
9.32295e-05
2.75154e-05
4.48872e-06
1.05152e-06
7.51068e-07
1.25187e-05
1.99896e-05
4.71717e-06
6.14184e-06
2.8148e-06
1.74019e-06
8.61107e-07
7.05493e-07
6.36823e-07
6.21984e-07
5.80442e-07
5.65929e-07
5.46482e-07
5.45618e-07
5.38908e-07
5.43342e-07
5.4384e-07
5.49553e-07
5.53004e-07
5.58731e-07
5.63792e-07
5.69387e-07
5.74634e-07
5.80053e-07
5.8504e-07
5.89776e-07
5.94386e-07
5.98999e-07
6.03497e-07
6.07956e-07
6.12384e-07
6.17214e-07
6.22157e-07
6.27318e-07
6.32456e-07
6.37239e-07
6.43365e-07
6.47509e-07
6.5578e-07
6.58679e-07
6.71785e-07
6.74089e-07
6.95103e-07
7.01579e-07
7.3389e-07
7.61006e-07
8.13594e-07
9.24374e-07
1.58656e-06
7.58448e-06
4.62133e-05
0.00019171
0.000744139
0.0038752
0.00765603
0.00935107
0.00954837
0.00867389
0.00380294
0.00374717
0.00473828
0.00257276
0.00256209
0.00240856
0.00224124
0.002063
0.00196764
0.00183759
0.00176502
0.00166246
0.00159418
0.00148444
0.00142524
0.00133865
0.00128362
0.00121744
0.00116262
0.0011038
0.00105686
0.000990586
0.000901456
0.000810196
0.000718518
0.000655326
0.000613347
0.000554986
0.000458097
0.000377523
0.00030231
0.000229334
0.000153555
9.52522e-05
5.55177e-05
2.02229e-05
7.57699e-06
4.83055e-06
1.53078e-05
2.75165e-05
5.20427e-06
8.44312e-06
3.97547e-06
2.93553e-06
1.23124e-06
6.48989e-07
5.65092e-07
5.62276e-07
5.3259e-07
5.2143e-07
5.12021e-07
5.1057e-07
5.10644e-07
5.15526e-07
5.18966e-07
5.25405e-07
5.30521e-07
5.37138e-07
5.43406e-07
5.50053e-07
5.56414e-07
5.62857e-07
5.6887e-07
5.74799e-07
5.80654e-07
5.86355e-07
5.9186e-07
5.97217e-07
6.02403e-07
6.07832e-07
6.13381e-07
6.192e-07
6.24777e-07
6.30545e-07
6.36544e-07
6.42019e-07
6.49402e-07
6.54167e-07
6.65087e-07
6.68729e-07
6.86056e-07
6.91056e-07
7.20903e-07
7.33874e-07
7.83918e-07
8.48285e-07
1.53171e-06
9.59402e-06
5.8848e-05
0.000191189
0.000522585
0.0026055
0.00659951
0.00902733
0.0101705
0.0101213
0.00375345
0.00361655
0.00571037
0.00236514
0.00217768
0.00160494
0.00120913
0.000789239
0.000653411
0.000593281
0.000552869
0.000502279
0.000476365
0.000439751
0.0004011
0.000352531
0.000319594
0.000278036
0.000248287
0.000221579
0.000201105
0.000188215
0.000175054
0.000156367
0.000124338
9.41909e-05
7.56355e-05
6.67031e-05
6.16899e-05
5.64693e-05
4.94138e-05
4.08714e-05
3.15491e-05
2.31735e-05
1.61576e-05
1.36872e-05
1.18559e-05
2.23644e-06
1.85069e-05
2.86839e-05
8.03518e-06
1.20663e-05
4.83493e-06
4.23597e-06
1.93515e-06
7.82729e-07
4.96819e-07
4.79685e-07
4.65783e-07
4.5259e-07
4.47554e-07
4.41903e-07
4.48627e-07
4.51594e-07
4.5969e-07
4.65482e-07
4.73173e-07
4.79795e-07
4.87057e-07
4.93676e-07
5.00066e-07
5.06265e-07
5.12047e-07
5.17889e-07
5.24049e-07
5.30192e-07
5.36102e-07
5.41846e-07
5.47402e-07
5.52823e-07
5.58274e-07
5.64002e-07
5.69376e-07
5.75302e-07
5.80617e-07
5.86518e-07
5.9266e-07
5.983e-07
6.06558e-07
6.11299e-07
6.24776e-07
6.30279e-07
6.53666e-07
6.63292e-07
7.10354e-07
8.34706e-07
1.87639e-06
1.35233e-05
8.02736e-05
0.000214281
0.000429157
0.00164417
0.00441907
0.00648638
0.0106755
0.0119957
0.00336208
0.00305367
0.00774951
0.00201641
0.00164296
0.000957902
0.000748486
0.000413602
0.000348191
0.000337695
0.000328205
0.000301419
0.000266519
0.000224833
0.000187099
0.000156071
0.000133967
0.000116069
0.000101015
8.44706e-05
6.58908e-05
5.21982e-05
4.45944e-05
4.34861e-05
3.61936e-05
2.33417e-05
1.36841e-05
9.12251e-06
7.31263e-06
6.43075e-06
5.67488e-06
4.92794e-06
4.15419e-06
3.36779e-06
2.90942e-06
2.76147e-06
3.03189e-06
1.44024e-06
1.96368e-05
3.11784e-05
1.25316e-05
1.70108e-05
5.41188e-06
4.6792e-06
3.98936e-06
1.20944e-06
7.28762e-07
6.49121e-07
5.32081e-07
5.15622e-07
4.63889e-07
4.59754e-07
4.44416e-07
4.49539e-07
4.4711e-07
4.54885e-07
4.58976e-07
4.68398e-07
4.76829e-07
4.86898e-07
4.96857e-07
5.07193e-07
5.17427e-07
5.27907e-07
5.40023e-07
5.55449e-07
5.71559e-07
5.88018e-07
6.04961e-07
6.20308e-07
6.3469e-07
6.47783e-07
6.59991e-07
6.72032e-07
6.82416e-07
6.91131e-07
7.01069e-07
7.09357e-07
7.22167e-07
7.29672e-07
7.48382e-07
7.57541e-07
7.87537e-07
8.04558e-07
8.61542e-07
9.8909e-07
2.17429e-06
1.54514e-05
8.54279e-05
0.000226308
0.000342191
0.00120593
0.00332228
0.00538786
0.00827593
0.0108922
0.00437368
0.00382299
0.0121485
0.00203012
0.00120785
0.000738017
0.00067009
0.000494366
0.000497393
0.000537538
0.000570195
0.000571172
0.000550434
0.000496442
0.000435378
0.000369435
0.000303181
0.000254087
0.000221869
0.000192489
0.000140885
6.93663e-05
3.1824e-05
2.31422e-05
2.3088e-05
1.78131e-05
1.04922e-05
6.54436e-06
4.7934e-06
3.93686e-06
3.41769e-06
2.93467e-06
2.43066e-06
2.18187e-06
2.09088e-06
2.14447e-06
2.22606e-06
9.89223e-07
3.60388e-05
5.90914e-05
5.00447e-05
5.0539e-05
2.51828e-05
1.90859e-05
6.09878e-06
1.74898e-06
7.2758e-07
6.57714e-07
6.77284e-07
6.60003e-07
6.07529e-07
5.89679e-07
5.62559e-07
5.61016e-07
5.50498e-07
5.54765e-07
5.52884e-07
5.59063e-07
5.62562e-07
5.70298e-07
5.7802e-07
5.87302e-07
5.96865e-07
6.06886e-07
6.16775e-07
6.25142e-07
6.34159e-07
6.43617e-07
6.53718e-07
6.62816e-07
6.7161e-07
6.80875e-07
6.90178e-07
6.99425e-07
7.0837e-07
7.16872e-07
7.25777e-07
7.34064e-07
7.45087e-07
7.52017e-07
7.66873e-07
7.74268e-07
7.96227e-07
8.09561e-07
8.60555e-07
1.06592e-06
2.93289e-06
1.86678e-05
9.13693e-05
0.000251106
0.000309433
0.000619719
0.00176421
0.00330765
0.0061242
0.0108902
0.00707399
0.0058501
0.0159014
0.00214075
0.00108571
0.000898212
0.000873679
0.000813139
0.000840238
0.00092305
0.000955129
0.000944146
0.000897687
0.000803712
0.000720598
0.00064617
0.000568998
0.000505023
0.000458986
0.000422048
0.000382197
0.000300384
0.000111061
2.26019e-05
1.42786e-05
1.34879e-05
9.52202e-06
6.5316e-06
4.82324e-06
3.94876e-06
3.42332e-06
2.99775e-06
2.60804e-06
2.35272e-06
2.19071e-06
2.11765e-06
1.81304e-06
8.58895e-07
0.000157255
0.00018978
0.000187052
0.000172652
0.000103995
8.13973e-05
4.16198e-05
8.9103e-06
1.04866e-06
5.70534e-07
5.90017e-07
6.02618e-07
6.05747e-07
5.83796e-07
5.70246e-07
5.61816e-07
5.48308e-07
5.48848e-07
5.41647e-07
5.43465e-07
5.40861e-07
5.42662e-07
5.43869e-07
5.46913e-07
5.50297e-07
5.54269e-07
5.57834e-07
5.61321e-07
5.65323e-07
5.69705e-07
5.74314e-07
5.78753e-07
5.83464e-07
5.88969e-07
5.94836e-07
6.00757e-07
6.06217e-07
6.12085e-07
6.16773e-07
6.21919e-07
6.27029e-07
6.31155e-07
6.38365e-07
6.41931e-07
6.52106e-07
6.58661e-07
7.00818e-07
1.01396e-06
3.82455e-06
1.99921e-05
8.25374e-05
0.000238023
0.00036536
0.000482173
0.000831938
0.00186531
0.00658468
0.0121079
0.0139007
0.0101039
0.0214661
0.00275612
0.00146754
0.00142935
0.00146077
0.00153657
0.00156593
0.00155468
0.0015071
0.00139607
0.00126363
0.00113436
0.00102017
0.00091777
0.000813488
0.000724073
0.000650771
0.000572082
0.00050805
0.000458083
0.000353806
0.00010011
1.37503e-05
8.57546e-06
7.18976e-06
5.57028e-06
4.53559e-06
3.8594e-06
3.40086e-06
3.04723e-06
2.7181e-06
2.47955e-06
2.3194e-06
2.16107e-06
1.79256e-06
8.27811e-07
0.00028877
0.000382048
0.000374448
0.000372191
0.000221336
0.00016977
0.000141063
5.94228e-05
5.48155e-06
8.0571e-07
5.79526e-07
5.76952e-07
5.90591e-07
5.86225e-07
5.82884e-07
5.8018e-07
5.68861e-07
5.66541e-07
5.5638e-07
5.54228e-07
5.48148e-07
5.4584e-07
5.43127e-07
5.41884e-07
5.41011e-07
5.40668e-07
5.40378e-07
5.40294e-07
5.40542e-07
5.41051e-07
5.41738e-07
5.42442e-07
5.43305e-07
5.44438e-07
5.45764e-07
5.47134e-07
5.48688e-07
5.50138e-07
5.52012e-07
5.53313e-07
5.55928e-07
5.56899e-07
5.6099e-07
5.61884e-07
5.68254e-07
5.71994e-07
6.25795e-07
1.07571e-06
4.60093e-06
2.10963e-05
6.46418e-05
0.000165895
0.000351297
0.000458646
0.000761405
0.00193728
0.00708922
0.0143248
0.0241029
0.0177843
0.0356881
0.0047205
0.0047198
0.00422326
0.0036617
0.00314358
0.00269748
0.00234548
0.00206132
0.00180831
0.00158767
0.00139979
0.00125451
0.00114713
0.00104245
0.000929227
0.000818474
0.000721587
0.000623982
0.000553909
0.000465387
0.000251835
3.62282e-05
5.71887e-06
4.43016e-06
4.11186e-06
3.73962e-06
3.39773e-06
3.10237e-06
2.85721e-06
2.61056e-06
2.40782e-06
2.26881e-06
2.13289e-06
1.82544e-06
8.52903e-07
0.000438415
0.000641611
0.000552398
0.000519463
0.000302378
0.000216545
0.000176369
7.9931e-05
1.19743e-05
1.61801e-06
6.47107e-07
5.75054e-07
5.88063e-07
5.92542e-07
6.04326e-07
6.06724e-07
6.12069e-07
6.13936e-07
6.15315e-07
6.16271e-07
6.15962e-07
6.15792e-07
6.15018e-07
6.14364e-07
6.13664e-07
6.13035e-07
6.12533e-07
6.12092e-07
6.11716e-07
6.114e-07
6.11128e-07
6.1093e-07
6.10744e-07
6.10517e-07
6.10299e-07
6.0997e-07
6.10136e-07
6.09674e-07
6.10539e-07
6.09941e-07
6.12086e-07
6.11568e-07
6.15888e-07
6.15955e-07
6.24582e-07
6.29609e-07
6.95226e-07
1.14562e-06
4.5399e-06
1.92659e-05
5.11909e-05
0.000106071
0.00023223
0.000440956
0.000896367
0.00302059
0.00799663
0.01752
0.0344553
0.0316112
0.0527701
0.0137579
0.00850582
0.00543265
0.00428627
0.00359502
0.00313093
0.00276722
0.00246853
0.00221176
0.00197174
0.00174154
0.00152071
0.00132211
0.00115936
0.00101464
0.00089694
0.000797712
0.00069228
0.0006112
0.000526051
0.000340544
8.28246e-05
9.79649e-06
3.17724e-06
2.76415e-06
2.60517e-06
2.42453e-06
2.28287e-06
2.1988e-06
2.13559e-06
2.06992e-06
2.02239e-06
1.95157e-06
1.76633e-06
8.89218e-07
0.000315752
0.000294633
0.000341296
0.000333014
0.000307439
0.000199885
0.000140392
2.89021e-05
4.11295e-06
1.01406e-06
5.92407e-07
5.40034e-07
5.50563e-07
5.55254e-07
5.69605e-07
5.7322e-07
5.83386e-07
5.86935e-07
5.93091e-07
5.96738e-07
6.00697e-07
6.03965e-07
6.06915e-07
6.09632e-07
6.1212e-07
6.14451e-07
6.16666e-07
6.18777e-07
6.20803e-07
6.22758e-07
6.24647e-07
6.26499e-07
6.28294e-07
6.30055e-07
6.31783e-07
6.33231e-07
6.35178e-07
6.36277e-07
6.38851e-07
6.39612e-07
6.43686e-07
6.44402e-07
6.51562e-07
6.5313e-07
6.66292e-07
6.7154e-07
7.2119e-07
9.1675e-07
2.16779e-06
8.41159e-06
3.26415e-05
9.50043e-05
0.000222093
0.000440806
0.000824482
0.001488
0.00370175
0.00656829
0.0209135
0.0378953
0.0864245
0.0452995
0.0255558
0.0150122
0.0101894
0.0077909
0.00621887
0.00504049
0.00413911
0.00344946
0.00289175
0.00241712
0.00200335
0.00165832
0.00139567
0.00117979
0.00101822
0.000894395
0.000766793
0.00067869
0.000587833
0.00038989
0.000113565
1.83006e-05
4.00743e-06
2.32143e-06
1.95158e-06
1.74022e-06
1.58648e-06
1.48106e-06
1.41264e-06
1.37321e-06
1.36048e-06
1.34521e-06
1.31612e-06
8.81168e-07
3.40151e-07
3.1255e-07
3.58281e-07
3.68825e-07
3.92948e-07
3.87957e-07
3.98488e-07
3.90322e-07
3.98165e-07
3.91561e-07
3.97856e-07
3.93222e-07
3.97754e-07
3.95313e-07
3.97855e-07
3.9694e-07
3.97942e-07
3.97819e-07
3.98267e-07
3.98468e-07
3.98777e-07
3.99037e-07
3.99295e-07
3.99534e-07
3.99758e-07
3.99965e-07
4.00158e-07
4.00336e-07
4.00502e-07
4.00654e-07
4.0079e-07
4.0092e-07
4.01011e-07
4.01219e-07
4.01107e-07
4.01541e-07
4.01258e-07
4.01736e-07
4.02091e-07
4.02019e-07
4.04431e-07
4.03664e-07
4.10004e-07
4.09739e-07
4.22179e-07
4.26369e-07
4.54634e-07
6.48181e-07
3.16314e-06
2.29359e-05
9.29858e-05
0.000172124
0.000219206
0.000319622
0.000544948
0.000913274
0.00333643
0.0067039
0.0101453
0.0166426
0.0336912
0.0212269
0.0150322
0.0111711
0.00878712
0.00717204
0.00599604
0.00510801
0.00442744
0.003877
0.00340749
0.00298849
0.00261141
0.00228508
0.00198961
0.00172828
0.00149983
0.00125795
0.00105857
0.000906742
0.000669032
0.000436154
0.000291488
0.000167877
6.60548e-05
2.03407e-05
7.10419e-06
3.43181e-06
2.17641e-06
1.60156e-06
1.254e-06
1.01985e-06
8.43575e-07
6.97733e-07
5.82763e-07
4.93233e-07
1.18217e-06
6.16099e-07
3.57244e-07
3.856e-07
3.30348e-07
3.44691e-07
3.1577e-07
3.21426e-07
2.97029e-07
2.99012e-07
2.7888e-07
2.80909e-07
2.67603e-07
2.69199e-07
2.62361e-07
2.63547e-07
2.60342e-07
2.60994e-07
2.59789e-07
2.60029e-07
2.59795e-07
2.59923e-07
2.60017e-07
2.60187e-07
2.60383e-07
2.60605e-07
2.60844e-07
2.61093e-07
2.61354e-07
2.61632e-07
2.61926e-07
2.6224e-07
2.62522e-07
2.62995e-07
2.63089e-07
2.64021e-07
2.63715e-07
2.6516e-07
2.64933e-07
2.66403e-07
2.67179e-07
2.68545e-07
2.71342e-07
2.7391e-07
2.80679e-07
2.90912e-07
3.64501e-07
1.55517e-06
1.24107e-05
5.27838e-05
0.000132664
0.000205879
0.000275544
0.000477017
0.00117194
0.00245428
0.00497615
0.00768294
0.0117949
0.0144198
0.0405527
0.00768354
0.00955213
0.00777541
0.00576436
0.00462718
0.00389383
0.00339149
0.00301654
0.00269536
0.00241178
0.00215572
0.00191272
0.00169191
0.00148349
0.00128518
0.00111354
0.000955528
0.000826735
0.000729374
0.000585384
0.000444871
0.00033541
0.000228019
0.0001295
5.59349e-05
1.85527e-05
5.99583e-06
2.56858e-06
1.54348e-06
1.15423e-06
9.28966e-07
7.65005e-07
6.57435e-07
5.87874e-07
4.43407e-07
2.96657e-06
1.68994e-06
7.75189e-07
8.85329e-07
5.69752e-07
6.03899e-07
4.40116e-07
4.66393e-07
3.52408e-07
3.61258e-07
2.79035e-07
2.88191e-07
2.3539e-07
2.42836e-07
2.1061e-07
2.1487e-07
1.97617e-07
1.98523e-07
1.90672e-07
1.89801e-07
1.86862e-07
1.85968e-07
1.85142e-07
1.84891e-07
1.84973e-07
1.85374e-07
1.86021e-07
1.86866e-07
1.8789e-07
1.89096e-07
1.90492e-07
1.92044e-07
1.93673e-07
1.9556e-07
1.97543e-07
1.99826e-07
2.0214e-07
2.04959e-07
2.07503e-07
2.11651e-07
2.13682e-07
2.21218e-07
2.2158e-07
2.36124e-07
2.35842e-07
2.62534e-07
3.25736e-07
2.43471e-06
1.82551e-05
6.82799e-05
0.000163033
0.000273828
0.000420295
0.00079897
0.00234189
0.00476744
0.00608156
0.00851279
0.00958263
0.00946481
0.0338822
0.00538669
0.00999357
0.00591671
0.00399296
0.00326068
0.00281676
0.00262252
0.0025042
0.0023843
0.00225712
0.00209638
0.00196773
0.00186776
0.00175022
0.00161931
0.00135774
0.00105232
0.000867895
0.000758746
0.000624331
0.000503876
0.000416951
0.000301006
0.000180039
8.42187e-05
3.17499e-05
1.08837e-05
4.05655e-06
1.93071e-06
1.21892e-06
9.61467e-07
8.47709e-07
7.49686e-07
6.42533e-07
3.73469e-07
6.71592e-06
4.72078e-06
2.70893e-06
3.20993e-06
2.14573e-06
2.12958e-06
1.50568e-06
1.54133e-06
1.17762e-06
1.15676e-06
8.79861e-07
8.89831e-07
6.95702e-07
7.17464e-07
5.88893e-07
6.06467e-07
5.32232e-07
5.37308e-07
5.0271e-07
5.00427e-07
4.87778e-07
4.85487e-07
4.83232e-07
4.83932e-07
4.86328e-07
4.9044e-07
4.95853e-07
5.02348e-07
5.09851e-07
5.18384e-07
5.28034e-07
5.38565e-07
5.49786e-07
5.61793e-07
5.7574e-07
5.88235e-07
6.06348e-07
6.19347e-07
6.41913e-07
6.58803e-07
6.84074e-07
7.14789e-07
7.38523e-07
8.07796e-07
8.32102e-07
9.82888e-07
1.08649e-06
2.90761e-06
1.34967e-05
5.5213e-05
0.000160668
0.000290744
0.000554468
0.00119385
0.00441929
0.00915893
0.0103161
0.0128484
0.00989556
0.00854575
0.0358366
0.00533321
0.00427422
0.00309186
0.00335904
0.00308864
0.00322472
0.00317777
0.00309188
0.00294757
0.00276623
0.00252746
0.00227295
0.00201557
0.00186259
0.00170373
0.00152195
0.00134729
0.00120896
0.00107917
0.000947159
0.000829822
0.000664822
0.000462059
0.000273337
0.000135368
5.8082e-05
2.31075e-05
9.07717e-06
3.79092e-06
1.81308e-06
1.0281e-06
7.05478e-07
5.96224e-07
5.86e-07
2.24549e-07
1.40609e-05
1.00258e-05
7.32592e-06
8.55031e-06
6.00073e-06
5.3357e-06
3.68784e-06
3.47898e-06
2.95334e-06
2.72319e-06
2.3309e-06
2.23326e-06
1.94643e-06
1.94291e-06
1.71889e-06
1.74995e-06
1.60278e-06
1.62082e-06
1.55306e-06
1.55856e-06
1.53838e-06
1.54425e-06
1.54941e-06
1.56224e-06
1.57924e-06
1.60083e-06
1.62573e-06
1.6534e-06
1.68369e-06
1.71655e-06
1.75218e-06
1.79008e-06
1.82995e-06
1.87176e-06
1.9188e-06
1.96098e-06
2.02082e-06
2.06269e-06
2.13985e-06
2.18582e-06
2.28767e-06
2.35315e-06
2.50607e-06
2.65102e-06
2.87782e-06
3.23836e-06
3.65587e-06
4.60302e-06
1.14922e-05
4.81626e-05
0.000150234
0.000336687
0.000846365
0.00271014
0.00870461
0.0192584
0.0240126
0.02452
0.00884681
0.00833558
0.0445336
0.00490975
0.00408254
0.00350151
0.00374436
0.00365758
0.00379457
0.00382395
0.00386602
0.00385464
0.00374334
0.00357811
0.0033734
0.00320036
0.00308586
0.00296541
0.00288489
0.00280924
0.00267517
0.0024535
0.00214172
0.00178266
0.00136714
0.000984947
0.00063952
0.000367311
0.000187414
8.80624e-05
3.91403e-05
1.73305e-05
8.06898e-06
3.88143e-06
1.91615e-06
9.24507e-07
6.13814e-07
2.0523e-07
3.07176e-05
1.84516e-05
1.51534e-05
1.68058e-05
1.31945e-05
1.02475e-05
6.44039e-06
5.18145e-06
4.73165e-06
4.25841e-06
4.00188e-06
3.68784e-06
3.56769e-06
3.46168e-06
3.33738e-06
3.3454e-06
3.23661e-06
3.26652e-06
3.22e-06
3.24895e-06
3.2509e-06
3.28355e-06
3.31562e-06
3.35674e-06
3.40284e-06
3.45437e-06
3.50913e-06
3.56601e-06
3.62538e-06
3.68691e-06
3.75041e-06
3.81621e-06
3.88385e-06
3.95247e-06
4.02711e-06
4.09369e-06
4.18545e-06
4.25036e-06
4.36721e-06
4.42972e-06
4.59099e-06
4.65905e-06
4.88189e-06
4.98294e-06
5.27845e-06
5.50439e-06
6.04481e-06
6.99698e-06
1.23755e-05
4.58508e-05
0.00015498
0.000394478
0.00133693
0.00599265
0.0135731
0.0199655
0.0220457
0.0210604
0.00961093
0.00965914
0.0507424
0.00606052
0.005496
0.00543843
0.00554715
0.00542194
0.00536092
0.00525191
0.00521596
0.0052317
0.00526394
0.00534264
0.00543568
0.00558615
0.00573411
0.0058389
0.0059476
0.00599839
0.00599672
0.00581476
0.00551294
0.00503751
0.0044022
0.00364814
0.0028274
0.00200629
0.00126899
0.00076935
0.000449933
0.000258606
0.000154849
8.31705e-05
3.50039e-05
9.09597e-06
2.43717e-06
2.458e-07
6.57392e-05
3.20934e-05
2.33623e-05
2.4676e-05
2.43005e-05
1.78059e-05
1.04174e-05
6.68543e-06
5.59608e-06
5.0704e-06
4.89634e-06
4.5516e-06
4.49236e-06
4.37929e-06
4.39469e-06
4.38542e-06
4.41818e-06
4.44889e-06
4.48349e-06
4.5277e-06
4.57139e-06
4.62057e-06
4.67375e-06
4.72856e-06
4.78228e-06
4.83489e-06
4.88634e-06
4.93902e-06
4.99469e-06
5.05086e-06
5.10552e-06
5.16201e-06
5.21982e-06
5.28092e-06
5.34582e-06
5.40776e-06
5.49235e-06
5.55985e-06
5.66454e-06
5.72702e-06
5.86537e-06
5.92246e-06
6.08825e-06
6.16275e-06
6.43362e-06
6.62266e-06
7.15766e-06
7.95956e-06
1.27419e-05
4.26573e-05
0.000144731
0.0004141
0.00134877
0.00485394
0.0101418
0.0150716
0.014297
0.0105226
0.013759
0.0138557
0.0429042
0.00627258
0.00571825
0.00559308
0.00548037
0.00534571
0.00529732
0.00528261
0.00532495
0.00546493
0.00555845
0.00569056
0.00590229
0.00616771
0.00642238
0.00668135
0.00706954
0.00736705
0.00774922
0.00818407
0.00854192
0.0087744
0.00893398
0.00893812
0.00868639
0.00822098
0.00741171
0.00635268
0.00526865
0.00415594
0.00312284
0.00207669
0.00107992
0.000294647
4.62703e-05
6.51131e-07
0.00010684
5.79161e-05
3.26981e-05
3.36345e-05
3.7697e-05
2.9593e-05
1.91126e-05
1.02394e-05
7.12095e-06
5.92976e-06
5.9464e-06
5.53465e-06
5.49247e-06
5.38142e-06
5.34512e-06
5.36229e-06
5.37184e-06
5.41344e-06
5.46179e-06
5.51032e-06
5.57109e-06
5.62466e-06
5.69044e-06
5.75234e-06
5.81522e-06
5.87678e-06
5.93707e-06
5.99356e-06
6.04531e-06
6.09487e-06
6.14228e-06
6.18865e-06
6.23361e-06
6.27212e-06
6.3061e-06
6.33667e-06
6.36762e-06
6.39099e-06
6.42756e-06
6.44691e-06
6.50353e-06
6.51722e-06
6.64722e-06
6.68073e-06
6.93222e-06
7.02486e-06
7.53169e-06
8.16807e-06
1.33325e-05
4.11264e-05
0.000140738
0.000383577
0.0013164
0.00449237
0.0109509
0.0160543
0.0188238
0.019094
0.0144604
0.0145532
0.0449214
0.00749349
0.0072217
0.00710689
0.00705861
0.00675658
0.00663933
0.00645962
0.0063569
0.00620581
0.00610063
0.00597735
0.00591577
0.00589414
0.00588078
0.00588296
0.00603937
0.00616138
0.00632544
0.00664993
0.00684325
0.00697039
0.00714947
0.0072944
0.00740229
0.0074443
0.00735251
0.00708948
0.00670639
0.00603191
0.00506725
0.003952
0.00277543
0.00161801
0.000686261
0.000152936
9.31268e-05
0.000126179
5.01786e-05
4.48484e-05
5.4194e-05
4.7899e-05
3.34699e-05
1.41077e-05
7.79443e-06
5.97729e-06
6.21657e-06
5.78141e-06
5.88091e-06
5.70441e-06
5.79625e-06
5.77166e-06
5.83266e-06
5.85123e-06
5.90378e-06
5.93505e-06
5.98013e-06
6.01095e-06
6.05099e-06
6.0861e-06
6.12007e-06
6.15e-06
6.17582e-06
6.19842e-06
6.21785e-06
6.23519e-06
6.2502e-06
6.26188e-06
6.26913e-06
6.25783e-06
6.23467e-06
6.21167e-06
6.17554e-06
6.14257e-06
6.0999e-06
6.06351e-06
6.02593e-06
5.97395e-06
5.93821e-06
5.85736e-06
5.8334e-06
5.67959e-06
5.67792e-06
6.05788e-06
1.2602e-05
4.6505e-05
0.000148028
0.000301081
0.000655786
0.00277118
0.00826926
0.0167926
0.0228985
0.0257165
0.00876512
0.00873179
0.0512967
0.00649201
0.00623462
0.00473777
0.0045054
0.00391447
0.00390445
0.00362997
0.00359131
0.00341559
0.00328029
0.00297568
0.00257417
0.00219702
0.00192177
0.00165579
0.00147381
0.00134121
0.00122923
0.00118681
0.00116915
0.00118959
0.00121934
0.00115618
0.00108786
0.00106117
0.00105579
0.00102944
0.000979266
0.000871783
0.000764824
0.000618339
0.000471063
0.000335693
0.000180196
8.88245e-06
9.79851e-05
0.000208883
8.58349e-05
6.65233e-05
7.53094e-05
7.5366e-05
6.38648e-05
2.58205e-05
8.55329e-06
4.86354e-06
4.41154e-06
4.10944e-06
4.40954e-06
4.22901e-06
4.51439e-06
4.44512e-06
4.61495e-06
4.5918e-06
4.67631e-06
4.66708e-06
4.6936e-06
4.6794e-06
4.67367e-06
4.66093e-06
4.64704e-06
4.62913e-06
4.60438e-06
4.57391e-06
4.54055e-06
4.50587e-06
4.47137e-06
4.43055e-06
4.38791e-06
4.36785e-06
4.35111e-06
4.3398e-06
4.31875e-06
4.30642e-06
4.28222e-06
4.27259e-06
4.25841e-06
4.24859e-06
4.23961e-06
4.23016e-06
4.23457e-06
4.2123e-06
4.29767e-06
4.91415e-06
1.11883e-05
4.74707e-05
0.000162668
0.00033441
0.000552156
0.00147689
0.00487716
0.0103832
0.0170769
0.0249521
0.00701767
0.00619437
0.0495863
0.00523029
0.00404
0.0018623
0.0015001
0.00103966
0.00107325
0.000947954
0.000933715
0.000876166
0.000813923
0.000730303
0.000636132
0.000539876
0.000461161
0.000390387
0.000330279
0.000274864
0.000230517
0.000194862
0.0001677
0.000153502
0.000139009
0.000111216
7.22884e-05
4.67191e-05
3.64602e-05
3.23512e-05
3.01544e-05
2.76212e-05
2.58023e-05
2.38014e-05
2.21444e-05
2.31715e-05
3.00279e-05
5.48869e-06
0.000105151
0.000237969
0.000134517
0.000100658
0.000108316
0.000112668
0.000107492
5.61787e-05
1.5031e-05
4.80961e-06
3.59884e-06
3.17084e-06
3.10475e-06
3.04892e-06