/*--------------------------------*- C++ -*----------------------------------*\
| =========                 |                                                 |
| \\      /  F ield         | OpenFOAM: The Open Source CFD Toolbox           |
|  \\    /   O peration     | Version:  2.3.0                                 |
|   \\  /    A nd           | Web:      www.OpenFOAM.org                      |
|    \\/     M anipulation  |                                                 |
\*---------------------------------------------------------------------------*/
FoamFile
{
    version     2.0;
    format      ascii;
    class       surfaceScalarField;
    location    "6";
    object      phi.air;
}
// * * * * * * * * * * * * * * * * * * * * * * * * * * * * * * * * * * * * * //

dimensions      [0 3 -1 0 0 0 0];

internalField   nonuniform List<scalar> 
16448
(
-2.56064e-06
-2.10532e-06
7.31166e-07
-1.33935e-06
-2.06239e-06
8.41101e-07
-1.0273e-06
-1.42935e-06
1.11729e-06
-7.38266e-07
-1.42113e-06
1.13209e-06
-6.73192e-07
-1.21882e-06
1.15373e-06
-5.77218e-07
-1.24849e-06
1.15251e-06
-5.53743e-07
-1.17737e-06
1.15389e-06
-4.8382e-07
-1.22112e-06
1.15119e-06
-4.58686e-07
-1.17958e-06
1.15444e-06
-3.92156e-07
-1.22036e-06
1.15384e-06
-3.64682e-07
-1.18466e-06
1.1572e-06
-3.06576e-07
-1.21502e-06
1.15692e-06
-2.80578e-07
-1.1852e-06
1.15921e-06
-2.36191e-07
-1.20335e-06
1.15898e-06
-2.13952e-07
-1.18235e-06
1.16012e-06
-1.83331e-07
-1.19043e-06
1.15981e-06
-1.65167e-07
-1.17836e-06
1.16021e-06
-1.4536e-07
-1.17972e-06
1.15992e-06
-1.31302e-07
-1.17406e-06
1.16002e-06
-1.18381e-07
-1.17282e-06
1.15991e-06
-1.08076e-07
-1.17024e-06
1.15994e-06
-9.92432e-08
-1.1688e-06
1.15998e-06
-9.17708e-08
-1.16754e-06
1.16008e-06
-8.52711e-08
-1.16672e-06
1.16023e-06
-7.94846e-08
-1.16622e-06
1.16045e-06
-7.41488e-08
-1.16604e-06
1.16072e-06
-6.90367e-08
-1.16615e-06
1.16105e-06
-6.39358e-08
-1.16653e-06
1.16144e-06
-5.86416e-08
-1.16717e-06
1.16188e-06
-5.29426e-08
-1.16809e-06
1.1624e-06
-4.65646e-08
-1.16934e-06
1.16297e-06
-3.93792e-08
-1.17079e-06
1.16362e-06
-2.99496e-08
-1.17359e-06
1.16417e-06
-2.11581e-08
-1.17433e-06
1.16555e-06
-6.00637e-09
-1.18052e-06
1.16537e-06
5.76968e-09
-1.17937e-06
1.1676e-06
2.60633e-08
-1.18775e-06
1.16746e-06
5.05611e-08
-1.19266e-06
1.16817e-06
7.36685e-08
-1.19292e-06
1.16982e-06
1.17851e-07
-1.21372e-06
1.16954e-06
1.50201e-07
-1.20409e-06
1.17175e-06
2.1989e-07
-1.23977e-06
1.17009e-06
2.7186e-07
-1.22385e-06
1.17189e-06
3.75696e-07
-1.27284e-06
1.16901e-06
4.61559e-07
-1.25631e-06
1.17045e-06
6.04825e-07
-1.31298e-06
1.16972e-06
7.39067e-07
-1.31505e-06
1.18081e-06
9.24593e-07
-1.38253e-06
1.19701e-06
1.05208e-06
-1.38675e-06
1.25927e-06
1.23183e-06
-1.57323e-06
1.39348e-06
1.33326e-06
-1.63799e-06
1.53657e-06
1.6925e-06
-2.2231e-06
1.86387e-06
2.02921e-06
-2.38929e-06
2.05256e-06
1.43565e-06
-1.30359e-06
1.89715e-06
1.55883e-06
-1.68821e-06
1.56502e-06
-1.03248e-06
7.83145e-08
2.51299e-06
-2.26308e-06
2.01302e-06
-7.8281e-07
-3.4105e-06
5.72579e-07
5.74346e-07
-7.70655e-06
3.25547e-07
3.61538e-06
-2.98828e-05
-1.91012e-05
1.17994e-05
-6.03396e-05
-1.49041e-05
2.87229e-06
-1.5671e-05
-2.7805e-06
1.25225e-06
2.22707e-05
6.62994e-07
4.67302e-07
2.38845e-05
-1.69737e-06
-1.35509e-07
2.5161e-05
-7.25589e-07
-6.15775e-07
2.59207e-05
4.33656e-07
-1.1787e-06
2.62676e-05
1.0989e-06
-1.44492e-06
2.6349e-05
1.34004e-06
-1.43909e-06
2.61277e-05
1.43916e-06
-1.23931e-06
2.56388e-05
1.50793e-06
-1.04036e-06
2.48701e-05
1.56926e-06
-8.18551e-07
2.39574e-05
1.50402e-06
-6.0156e-07
2.29525e-05
1.39971e-06
-4.05386e-07
2.17968e-05
1.22803e-06
-7.67387e-08
2.06543e-05
9.92261e-07
1.63169e-07
1.92608e-05
1.01402e-06
3.90292e-07
1.73456e-05
1.11363e-06
7.94894e-07
1.5726e-05
6.41492e-07
9.59436e-07
1.38946e-05
5.55416e-07
1.25592e-06
1.03529e-05
1.29448e-06
2.17399e-06
6.0078e-06
1.51339e-06
2.7367e-06
2.99548e-06
8.20946e-07
2.16469e-06
1.79665e-06
1.71729e-07
1.02964e-06
1.81162e-06
-2.13801e-07
1.86723e-07
2.30499e-06
-5.66199e-07
6.16535e-08
2.69638e-06
-8.28547e-07
4.30266e-07
2.74775e-06
-8.91324e-07
8.3328e-07
2.50697e-06
-8.74794e-07
1.11106e-06
2.0898e-06
-8.42999e-07
1.27066e-06
1.61871e-06
-8.30253e-07
1.35987e-06
1.21069e-06
-8.53122e-07
1.40731e-06
9.08335e-07
-8.93759e-07
1.44307e-06
6.65555e-07
-9.3892e-07
1.47034e-06
2.98522e-07
-9.61112e-07
1.48821e-06
-2.20172e-07
-9.75087e-07
1.50924e-06
-9.80941e-07
1.52011e-06
-2.59644e-06
-3.05928e-06
-2.92733e-07
-1.44739e-06
-3.14234e-06
-6.91045e-08
-1.24106e-06
-2.02796e-06
3.92267e-07
-1.00309e-06
-2.1077e-06
4.48585e-07
-9.73045e-07
-1.75672e-06
5.07843e-07
-8.8142e-07
-1.85001e-06
5.09876e-07
-8.42122e-07
-1.74162e-06
5.24944e-07
-7.54441e-07
-1.82557e-06
5.16766e-07
-7.03592e-07
-1.76573e-06
5.35313e-07
-6.13928e-07
-1.83863e-06
5.2861e-07
-5.62875e-07
-1.78361e-06
5.47907e-07
-4.84374e-07
-1.83816e-06
5.44651e-07
-4.39896e-07
-1.78915e-06
5.59482e-07
-3.7894e-07
-1.82262e-06
5.58323e-07
-3.44399e-07
-1.78521e-06
5.68335e-07
-3.01552e-07
-1.80181e-06
5.68552e-07
-2.75049e-07
-1.7795e-06
5.74648e-07
-2.46976e-07
-1.78387e-06
5.761e-07
-2.27196e-07
-1.77322e-06
5.79396e-07
-2.09013e-07
-1.77206e-06
5.81068e-07
-1.94708e-07
-1.76754e-06
5.83018e-07
-1.8244e-07
-1.76558e-06
5.84528e-07
-1.72198e-07
-1.7637e-06
5.85933e-07
-1.63404e-07
-1.76268e-06
5.87179e-07
-1.55735e-07
-1.7622e-06
5.88328e-07
-1.48847e-07
-1.76231e-06
5.89391e-07
-1.42441e-07
-1.76293e-06
5.90387e-07
-1.36252e-07
-1.76404e-06
5.9133e-07
-1.30008e-07
-1.76564e-06
5.92236e-07
-1.23418e-07
-1.76777e-06
5.93095e-07
-1.1618e-07
-1.7704e-06
5.93831e-07
-1.07855e-07
-1.77359e-06
5.94482e-07
-9.86069e-08
-1.7777e-06
5.94867e-07
-8.77971e-08
-1.78123e-06
5.96098e-07
-7.43842e-08
-1.78946e-06
5.95536e-07
-5.90469e-08
-1.79255e-06
5.97856e-07
-3.80377e-08
-1.80525e-06
5.96505e-07
-1.74509e-08
-1.81264e-06
5.99406e-07
1.52423e-08
-1.82348e-06
5.97885e-07
5.06055e-08
-1.84791e-06
5.98843e-07
9.20958e-08
-1.84742e-06
6.01849e-07
1.54526e-07
-1.89878e-06
5.96586e-07
2.12396e-07
-1.88559e-06
6.03884e-07
3.09141e-07
-1.96457e-06
5.94992e-07
3.94632e-07
-1.94872e-06
6.06931e-07
5.23454e-07
-2.04214e-06
6.00353e-07
6.27186e-07
-2.0483e-06
6.29523e-07
7.2829e-07
-2.14029e-06
6.56663e-07
7.1111e-07
-2.15495e-06
7.85386e-07
3.06572e-07
-2.21274e-06
1.04406e-06
-1.03391e-07
-2.49053e-06
1.2625e-06
-1.48814e-06
-2.50086e-06
1.66252e-06
-2.58203e-06
-2.97343e-06
1.67804e-06
-2.90509e-06
-1.42894e-06
4.48429e-07
-2.07094e-06
-2.56388e-06
4.14988e-08
6.93203e-07
-3.35958e-06
6.73731e-07
-3.14462e-06
7.89034e-06
-2.03998e-06
-1.05244e-05
7.74173e-06
2.09932e-07
-7.17232e-06
7.88582e-07
-4.20577e-06
-3.07002e-05
-2.96658e-05
4.08204e-06
-7.44281e-05
-2.35514e-05
3.34018e-06
-3.27132e-05
-6.04447e-06
-1.14646e-06
1.24162e-05
-4.59103e-06
-3.48642e-06
1.49365e-05
-1.46191e-06
-3.11201e-06
1.67627e-05
9.73369e-07
-3.26185e-06
1.88408e-05
1.90083e-06
-3.49557e-06
2.06031e-05
2.51185e-06
-3.19817e-06
2.16868e-05
2.92285e-06
-2.65069e-06
2.21413e-05
3.08862e-06
-2.06811e-06
2.21852e-05
3.15235e-06
-1.6563e-06
2.19615e-05
3.11353e-06
-1.30061e-06
2.15017e-05
2.95431e-06
-9.73871e-07
2.07649e-05
2.74983e-06
-6.22469e-07
1.99409e-05
2.27586e-06
-2.60633e-07
1.91031e-05
1.84179e-06
-3.02694e-08
1.80169e-05
1.81216e-06
2.92728e-07
1.65928e-05
1.90906e-06
6.4094e-07
1.48051e-05
1.66696e-06
7.85542e-07
1.21605e-05
1.7772e-06
1.41016e-06
8.25104e-06
2.649e-06
2.43923e-06
4.71098e-06
2.39258e-06
2.56497e-06
2.62626e-06
1.13283e-06
1.77013e-06
1.83125e-06
3.79357e-07
5.85235e-07
1.87977e-06
3.93295e-08
-3.16662e-07
2.20604e-06
-2.65355e-07
-6.38964e-07
2.4893e-06
-5.306e-07
-5.85605e-07
2.60989e-06
-6.86442e-07
-3.22618e-07
2.51403e-06
-7.59297e-07
-1.00403e-08
2.20566e-06
-7.87673e-07
2.76924e-07
1.79827e-06
-8.06652e-07
4.54508e-07
1.42121e-06
-8.49569e-07
5.36865e-07
1.11298e-06
-9.03347e-07
5.95865e-07
8.35527e-07
-9.70882e-07
6.42885e-07
3.9571e-07
-9.95074e-07
6.68562e-07
-2.07254e-07
-1.00529e-06
6.64969e-07
-1.03285e-06
6.96411e-07
-2.26889e-06
-3.26082e-06
-7.95495e-07
-1.17901e-06
-3.52006e-06
-7.12161e-07
-1.11384e-06
-2.04289e-06
-5.02584e-08
-9.434e-07
-2.28938e-06
1.12226e-08
-9.44778e-07
-1.83335e-06
7.79925e-08
-8.76095e-07
-1.99535e-06
7.66336e-08
-8.46947e-07
-1.85923e-06
8.84518e-08
-7.60383e-07
-1.98391e-06
7.17699e-08
-7.06909e-07
-1.90913e-06
8.993e-08
-6.13649e-07
-2.00857e-06
7.66871e-08
-5.58604e-07
-1.93625e-06
9.76053e-08
-4.79151e-07
-2.00744e-06
8.98357e-08
-4.34182e-07
-1.94156e-06
1.07453e-07
-3.74594e-07
-1.98552e-06
1.0333e-07
-3.3911e-07
-1.93544e-06
1.14766e-07
-2.96762e-07
-1.95705e-06
1.12909e-07
-2.71276e-07
-1.92482e-06
1.19861e-07
-2.43403e-07
-1.93119e-06
1.1946e-07
-2.25133e-07
-1.91437e-06
1.22902e-07
-2.0755e-07
-1.91287e-06
1.23247e-07
-1.94477e-07
-1.90517e-06
1.24574e-07
-1.83081e-07
-1.90184e-06
1.2488e-07
-1.7376e-07
-1.89819e-06
1.25181e-07
-1.65777e-07
-1.89581e-06
1.25161e-07
-1.58862e-07
-1.89409e-06
1.24988e-07
-1.52661e-07
-1.89314e-06
1.2465e-07
-1.4689e-07
-1.89287e-06
1.24187e-07
-1.41292e-07
-1.89325e-06
1.23627e-07
-1.35608e-07
-1.89429e-06
1.22987e-07
-1.29576e-07
-1.89608e-06
1.22288e-07
-1.22992e-07
-1.89862e-06
1.21643e-07
-1.15498e-07
-1.90206e-06
1.20982e-07
-1.06809e-07
-1.90649e-06
1.20112e-07
-9.68764e-08
-1.91118e-06
1.20033e-07
-8.39093e-08
-1.92067e-06
1.18259e-07
-7.00153e-08
-1.9257e-06
1.19269e-07
-4.96649e-08
-1.94177e-06
1.1618e-07
-3.06545e-08
-1.94987e-06
1.1823e-07
2.94236e-09
-1.97095e-06
1.13884e-07
3.21961e-08
-1.99298e-06
1.15829e-07
7.55356e-08
-2.00556e-06
1.14803e-07
1.32833e-07
-2.06414e-06
1.08073e-07
1.92407e-07
-2.06107e-06
1.15917e-07
2.85366e-07
-2.15932e-06
1.01807e-07
3.73383e-07
-2.15458e-06
1.17855e-07
5.02048e-07
-2.27651e-06
1.05718e-07
6.06138e-07
-2.29843e-06
1.46057e-07
6.98771e-07
-2.40731e-06
1.74401e-07
6.29019e-07
-2.42559e-06
3.40408e-07
8.38697e-08
-2.29314e-06
6.25553e-07
-8.75703e-07
-2.5765e-06
1.04556e-06
-2.53873e-06
-2.07335e-06
1.23554e-06
-4.31668e-06
-2.2108e-06
1.01533e-06
-4.41228e-06
-9.29838e-07
-4.03501e-07
-1.86956e-06
-3.91277e-06
-1.19385e-06
-3.10085e-07
-5.14884e-06
2.29768e-07
5.33608e-06
6.09191e-06
-3.84828e-06
8.19459e-07
1.36679e-05
-1.40952e-06
-4.13526e-06
5.99119e-06
-6.10603e-07
-2.77921e-05
-3.39089e-05
2.26779e-07
-5.92626e-05
-3.46548e-05
6.91825e-06
-2.26694e-05
-1.40948e-05
9.89172e-07
9.55185e-06
-1.412e-05
-2.02612e-06
1.00173e-05
9.23083e-08
-2.36648e-06
1.21701e-05
1.44197e-06
-2.40174e-06
1.429e-05
1.7771e-06
-2.09143e-06
1.57511e-05
2.48449e-06
-1.54679e-06
1.65969e-05
3.03469e-06
-1.02137e-06
1.69937e-05
3.24081e-06
-5.92722e-07
1.7002e-05
3.34e-06
-2.27506e-07
1.66893e-05
3.25344e-06
1.50698e-07
1.61768e-05
2.974e-06
5.01112e-07
1.5573e-05
2.48464e-06
8.43746e-07
1.48804e-05
1.91345e-06
1.16316e-06
1.39103e-05
1.47868e-06
1.37013e-06
1.25375e-05
1.60504e-06
1.60775e-06
1.00168e-05
2.0071e-06
2.35407e-06
5.96041e-06
2.23751e-06
3.35015e-06
2.03414e-06
2.10498e-06
3.50569e-06
4.17642e-08
1.46962e-06
3.13784e-06
-6.79433e-07
5.26295e-07
2.57222e-06
-1.01859e-06
-2.17625e-07
1.68392e-06
-8.20366e-07
-3.40164e-07
5.14049e-07
-1.04388e-07
-2.40309e-07
-4.50369e-07
7.46879e-07
-1.68216e-07
-9.61716e-07
1.44663e-06
-1.43947e-07
-1.09143e-06
1.86135e-06
-1.3081e-07
-9.70836e-07
1.97959e-06
-1.43736e-07
-7.30551e-07
1.86126e-06
-2.04407e-07
-4.44236e-07
1.59606e-06
-2.89037e-07
-1.78603e-07
1.28042e-06
-3.7643e-07
1.69048e-08
1.0137e-06
-4.42906e-07
9.66005e-08
7.83164e-07
-5.28462e-07
1.30973e-07
3.77049e-07
-5.93734e-07
2.01881e-07
-2.32331e-07
-6.67918e-07
2.95765e-07
-7.50711e-07
3.99991e-07
-2.2599e-06
-3.0318e-06
-8.70253e-07
-1.16647e-06
-3.6541e-06
-9.59404e-07
-1.16107e-06
-1.75176e-06
-2.96562e-07
-1.01007e-06
-2.19428e-06
-2.46129e-07
-1.03337e-06
-1.63068e-06
-1.79391e-07
-9.75916e-07
-1.87385e-06
-1.78974e-07
-9.45598e-07
-1.71817e-06
-1.71392e-07
-8.44397e-07
-1.88824e-06
-1.96872e-07
-7.76812e-07
-1.8027e-06
-1.74011e-07
-6.66188e-07
-1.92524e-06
-1.9394e-07
-5.99287e-07
-1.83763e-06
-1.655e-07
-5.07631e-07
-1.92168e-06
-1.77393e-07
-4.56067e-07
-1.83951e-06
-1.53597e-07
-3.90502e-07
-1.89138e-06
-1.59685e-07
-3.54345e-07
-1.82753e-06
-1.44045e-07
-3.10613e-07
-1.85389e-06
-1.46866e-07
-2.84975e-07
-1.81161e-06
-1.38829e-07
-2.56593e-07
-1.81939e-06
-1.40155e-07
-2.3909e-07
-1.79556e-06
-1.36293e-07
-2.21531e-07
-1.79352e-06
-1.36883e-07
-2.09424e-07
-1.78135e-06
-1.35908e-07
-1.9857e-07
-1.77618e-06
-1.36492e-07
-1.8999e-07
-1.76975e-06
-1.36999e-07
-1.82679e-07
-1.76511e-06
-1.37994e-07
-1.76426e-07
-1.76114e-06
-1.39186e-07
-1.70847e-07
-1.75809e-06
-1.40617e-07
-1.65698e-07
-1.75579e-06
-1.42222e-07
-1.6077e-07
-1.75421e-06
-1.43956e-07
-1.55843e-07
-1.7534e-06
-1.45806e-07
-1.50679e-07
-1.75348e-06
-1.47753e-07
-1.45002e-07
-1.75451e-06
-1.49769e-07
-1.38516e-07
-1.75663e-06
-1.51899e-07
-1.30866e-07
-1.75981e-06
-1.54313e-07
-1.22089e-07
-1.76386e-06
-1.56092e-07
-1.10789e-07
-1.77274e-06
-1.59224e-07
-9.89777e-08
-1.77742e-06
-1.60081e-07
-8.08517e-08
-1.79492e-06
-1.64966e-07
-6.42664e-08
-1.80186e-06
-1.64582e-07
-3.52087e-08
-1.82881e-06
-1.71191e-07
-1.14362e-08
-1.84639e-06
-1.70354e-07
3.42321e-08
-1.8746e-06
-1.7661e-07
8.08437e-08
-1.92836e-06
-1.82377e-07
1.40654e-07
-1.94168e-06
-1.79187e-07
2.28958e-07
-2.04917e-06
-1.98443e-07
3.15954e-07
-2.05847e-06
-1.83098e-07
4.59621e-07
-2.21104e-06
-2.09129e-07
5.87698e-07
-2.24951e-06
-1.76986e-07
7.89164e-07
-2.43935e-06
-1.69412e-07
8.63077e-07
-2.44962e-06
-4.98711e-08
9.33199e-07
-2.49794e-06
1.34697e-07
5.52659e-07
-2.70656e-06
5.1062e-07
-9.23295e-08
-1.77421e-06
3.45854e-07
-6.41746e-07
-1.7803e-06
1.18928e-07
-1.759e-06
1.16735e-06
-9.79939e-07
7.18528e-07
-4.21689e-06
-2.17344e-06
-4.75402e-07
-3.13341e-06
-8.21519e-07
6.62098e-06
5.62054e-07
-1.56689e-06
6.00583e-06
1.93793e-05
-5.09633e-06
5.1887e-06
4.38366e-06
1.85844e-06
-2.85516e-05
-3.15735e-05
4.88893e-07
-3.96003e-05
-3.66313e-05
8.04199e-06
-9.40192e-06
-1.164e-05
3.11152e-06
-8.44913e-06
-1.42386e-05
1.09235e-06
-4.69502e-06
-1.68426e-06
-3.28759e-06
9.31749e-07
-1.42239e-06
-3.24466e-06
3.03356e-06
2.32097e-07
-9.50628e-07
4.58616e-06
4.78889e-07
2.15285e-07
5.39307e-06
9.89159e-07
1.00245e-06
5.67064e-06
1.10652e-06
1.576e-06
5.41523e-06
1.34366e-06
1.98114e-06
4.59626e-06
1.29831e-06
2.35172e-06
-1.76023e-05
1.25e-06
2.85234e-06
-4.94062e-05
1.48815e-06
3.08312e-06
-3.18363e-05
9.80112e-07
3.50906e-06
-5.60723e-06
-2.41625e-07
3.69526e-06
-7.85445e-06
-4.28816e-07
3.46148e-06
-9.32962e-06
-7.43211e-07
3.45964e-06
-9.78115e-06
-4.34201e-07
3.20852e-06
-9.34294e-06
-1.01901e-06
2.73479e-06
-8.49957e-06
-1.45344e-06
2.10358e-06
-7.54275e-06
-1.74002e-06
1.3276e-06
-6.43762e-06
-1.74847e-06
4.42481e-07
-5.11673e-06
-1.31631e-06
-3.49712e-07
-3.64851e-06
-8.81959e-07
-8.57089e-07
-2.21241e-06
-4.60094e-07
-1.17151e-06
-9.69965e-07
-1.30573e-07
-1.27242e-06
-1.56411e-08
1.19047e-07
-1.21072e-06
6.01555e-07
2.8326e-07
-1.03667e-06
9.50758e-07
2.87598e-07
-8.12189e-07
1.12784e-06
2.19877e-07
-6.00635e-07
1.16376e-06
1.73335e-07
-3.97192e-07
1.10436e-06
1.307e-07
-2.02707e-07
1.01099e-06
5.14892e-08
-1.07424e-07
6.88513e-07
5.25051e-08
-8.69308e-08
2.18039e-08
9.23339e-08
-4.82528e-08
2.24299e-07
5.26861e-08
-2.42597e-06
-2.37718e-06
-9.39658e-07
-1.30602e-06
-3.6304e-06
-1.14365e-06
-1.35926e-06
-1.22082e-06
-4.77714e-07
-1.1656e-06
-1.95243e-06
-4.35539e-07
-1.1707e-06
-1.24566e-06
-3.79947e-07
-1.09698e-06
-1.57596e-06
-3.71644e-07
-1.05122e-06
-1.38437e-06
-3.79559e-07
-9.33405e-07
-1.59453e-06
-4.11512e-07
-8.42245e-07
-1.49318e-06
-4.00667e-07
-7.18201e-07
-1.62633e-06
-4.22931e-07
-6.33162e-07
-1.52257e-06
-4.00082e-07
-5.34546e-07
-1.60697e-06
-4.13302e-07
-4.73605e-07
-1.51012e-06
-3.90304e-07
-4.0508e-07
-1.56118e-06
-3.98708e-07
-3.65785e-07
-1.48532e-06
-3.81486e-07
-3.21762e-07
-1.51183e-06
-3.86068e-07
-2.96657e-07
-1.46047e-06
-3.7623e-07
-2.69202e-07
-1.46823e-06
-3.78595e-07
-2.52548e-07
-1.43725e-06
-3.74945e-07
-2.35712e-07
-1.43381e-06
-3.76531e-07
-2.24815e-07
-1.41645e-06
-3.75785e-07
-2.14838e-07
-1.40888e-06
-3.77256e-07
-2.07323e-07
-1.39872e-06
-3.78531e-07
-2.00977e-07
-1.39088e-06
-3.8056e-07
-1.95687e-07
-1.38357e-06
-3.82852e-07
-1.91038e-07
-1.3772e-06
-3.85529e-07
-1.86801e-07
-1.37152e-06
-3.8849e-07
-1.82766e-07
-1.3666e-06
-3.91632e-07
-1.78782e-07
-1.36245e-06
-3.94925e-07
-1.74613e-07
-1.35929e-06
-3.98343e-07
-1.70033e-07
-1.35724e-06
-4.01843e-07
-1.64804e-07
-1.35641e-06
-4.05435e-07
-1.58505e-07
-1.35693e-06
-4.09173e-07
-1.51374e-07
-1.35863e-06
-4.12353e-07
-1.41904e-07
-1.36524e-06
-4.16956e-07
-1.32228e-07
-1.36776e-06
-4.19332e-07
-1.1722e-07
-1.38419e-06
-4.25731e-07
-1.04291e-07
-1.38805e-06
-4.26731e-07
-7.95161e-08
-1.41804e-06
-4.35538e-07
-6.06732e-08
-1.42941e-06
-4.35813e-07
-1.88259e-08
-1.47049e-06
-4.45947e-07
1.11035e-08
-1.50904e-06
-4.49241e-07
7.01513e-08
-1.5461e-06
-4.54621e-07
1.44871e-07
-1.64985e-06
-4.74033e-07
2.19916e-07
-1.67001e-06
-4.6349e-07
3.66974e-07
-1.86113e-06
-4.96957e-07
4.79088e-07
-1.88404e-06
-4.77566e-07
7.25355e-07
-2.18685e-06
-4.98749e-07
8.79173e-07
-2.16491e-06
-4.38507e-07
1.30189e-06
-2.46569e-06
-4.54958e-07
1.4033e-06
-2.64495e-06
-1.63006e-07
2.6868e-06
-2.45195e-06
-6.05744e-07
2.71813e-06
-1.42353e-06
-3.8809e-07
3.12588e-06
1.8688e-06
-1.1092e-06
3.61648e-06
-2.40859e-06
-2.29897e-06
5.9019e-06
-9.11852e-07
-4.50703e-06
1.13626e-05
1.54294e-06
-6.44182e-06
1.52089e-05
2.2583e-05
-7.04997e-06
1.11037e-05
-9.35102e-06
1.56719e-05
-4.51719e-05
-2.09241e-05
1.7125e-06
-0.000117774
-3.12808e-05
7.40564e-06
-0.000119006
-1.07803e-05
4.16958e-06
-0.000120156
-1.17299e-05
2.403e-06
-0.000120201
-3.10544e-06
1.48704e-06
-0.000120833
-2.07045e-06
2.11323e-06
-0.00012206
-7.87387e-07
3.00013e-06
-0.000122929
-5.14284e-07
3.4168e-06
-0.000125111
-2.28739e-07
3.48706e-06
-0.000127022
-3.25855e-07
3.54415e-06
-0.000128573
-2.17985e-07
3.54456e-06
-0.000129944
-4.80553e-07
3.50429e-06
-0.000130652
-7.33053e-07
3.33064e-06
-0.000130809
-1.10308e-06
3.07871e-06
-0.000130414
-1.53524e-06
2.72962e-06
-0.000127968
-2.28148e-06
2.35188e-06
-0.000117305
-2.54731e-06
2.05967e-06
-6.60291e-05
-2.86676e-06
1.68342e-06
-2.15661e-05
-3.54685e-06
1.38592e-06
-1.98319e-05
-3.64349e-06
8.47311e-07
-1.77754e-05
-3.56222e-06
1.57745e-07
-1.55973e-05
-3.30299e-06
-4.35777e-07
-1.33313e-05
-2.92987e-06
-8.49535e-07
-1.11139e-05
-2.14623e-06
-1.16131e-06
-8.81648e-06
-1.66039e-06
-1.34154e-06
-6.58317e-06
-9.83979e-07
-1.49425e-06
-4.61292e-06
-3.4852e-07
-1.57502e-06
-3.01287e-06
8.15083e-08
-1.58552e-06
-1.73612e-06
5.31072e-07
-1.53129e-06
-7.27338e-07
7.33103e-07
-1.42242e-06
-2.79403e-10
8.16784e-07
-1.23243e-06
4.32096e-07
9.30442e-07
-1.0044e-06
6.63701e-07
9.86052e-07
-7.77454e-07
6.32732e-07
9.35852e-07
-4.82089e-07
1.96335e-07
8.7108e-07
-1.81095e-07
-3.72035e-07
6.70626e-07
5.24628e-09
8.23633e-07
1.05355e-07
-2.65298e-06
-1.49087e-06
-7.67481e-07
-1.43534e-06
-3.42115e-06
-1.42689e-06
-1.58092e-06
-5.21636e-07
-5.53638e-07
-1.30966e-06
-1.65645e-06
-5.67264e-07
-1.27345e-06
-7.61104e-07
-5.20808e-07
-1.17374e-06
-1.20436e-06
-4.71304e-07
-1.11029e-06
-9.33827e-07
-5.13998e-07
-9.93785e-07
-1.17137e-06
-5.39656e-07
-8.82651e-07
-1.03698e-06
-5.67317e-07
-7.59609e-07
-1.16184e-06
-5.87514e-07
-6.51647e-07
-1.03124e-06
-5.99273e-07
-5.57368e-07
-1.09134e-06
-6.09887e-07
-4.81172e-07
-9.70877e-07
-6.15417e-07
-4.17341e-07
-1.00207e-06
-6.22912e-07
-3.70824e-07
-9.06825e-07
-6.24989e-07
-3.30517e-07
-9.20167e-07
-6.31942e-07
-3.03725e-07
-8.53053e-07
-6.34182e-07
-2.78734e-07
-8.53346e-07
-6.39853e-07
-2.63037e-07
-8.0985e-07
-6.43078e-07
-2.48572e-07
-8.00218e-07
-6.48038e-07
-2.39237e-07
-7.74422e-07
-6.5134e-07
-2.30989e-07
-7.61598e-07
-6.55516e-07
-2.25154e-07
-7.4555e-07
-6.58982e-07
-2.20315e-07
-7.33048e-07
-6.62653e-07
-2.16322e-07
-7.21386e-07
-6.66156e-07
-2.12809e-07
-7.10868e-07
-6.69827e-07
-2.09762e-07
-7.01379e-07
-6.73175e-07
-2.06915e-07
-6.93296e-07
-6.76135e-07
-2.04245e-07
-6.85874e-07
-6.79232e-07
-2.01541e-07
-6.79663e-07
-6.82318e-07
-1.98597e-07
-6.74816e-07
-6.85353e-07
-1.95208e-07
-6.715e-07
-6.88294e-07
-1.90858e-07
-6.70093e-07
-6.91174e-07
-1.85781e-07
-6.70267e-07
-6.93426e-07
-1.78657e-07
-6.75731e-07
-6.96624e-07
-1.71934e-07
-6.77216e-07
-6.97253e-07
-1.61051e-07
-6.93596e-07
-7.01467e-07
-1.51805e-07
-6.9669e-07
-7.00596e-07
-1.33033e-07
-7.29425e-07
-7.07374e-07
-1.19633e-07
-7.37816e-07
-7.04983e-07
-8.71798e-08
-7.89234e-07
-7.13701e-07
-6.57529e-08
-8.1945e-07
-7.11005e-07
-1.15442e-08
-8.808e-07
-7.19496e-07
3.70569e-08
-9.76259e-07
-7.22179e-07
1.08448e-07
-1.01814e-06
-7.23246e-07
2.26382e-07
-1.24701e-06
-7.32035e-07
3.1678e-07
-1.25047e-06
-7.23959e-07
5.34536e-07
-1.6692e-06
-7.35396e-07
6.78798e-07
-1.62577e-06
-6.83385e-07
1.13109e-06
-2.21629e-06
-7.01677e-07
1.36569e-06
-2.21431e-06
-6.6522e-07
2.43523e-06
-2.61975e-06
-9.01727e-07
2.56828e-06
-8.29675e-07
-7.26892e-07
3.02334e-06
2.48009e-06
-1.06636e-06
1.78807e-06
2.61619e-06
-3.78961e-06
3.07236e-06
5.50292e-06
-7.6991e-06
1.33301e-05
3.67833e-06
-1.23932e-05
2.98146e-05
1.24559e-05
-6.35744e-06
2.6117e-06
-1.02361e-05
2.29897e-05
-6.45315e-05
-1.11582e-05
1.08431e-06
-0.00013374
-2.11265e-05
8.84442e-06
-0.000139852
-6.99559e-06
4.66094e-06
-0.000145753
-6.69269e-06
2.46721e-06
-0.000150315
-1.79605e-06
2.84253e-07
-0.000152485
-1.49786e-06
1.08426e-06
-0.000153715
-1.15241e-06
1.55641e-06
-0.000152877
-1.22961e-06
1.75178e-06
-0.000143235
-1.38416e-06
1.61451e-06
-0.00014062
-1.67038e-06
1.83705e-06
-0.000152421
-1.81705e-06
1.75342e-06
-0.000156434
-2.12299e-06
1.57275e-06
-0.000149448
-2.37391e-06
1.34268e-06
-0.000146189
-2.58346e-06
1.01669e-06
-0.000150413
-2.91318e-06
7.82483e-07
-0.000151334
-3.38288e-06
4.32069e-07
-0.000150788
-3.83807e-06
-1.46522e-08
-0.000150763
-4.16871e-06
-1.68065e-08
-0.000150545
-4.55506e-06
-3.09494e-07
-0.000148116
-4.65754e-06
-6.36991e-07
-0.000144792
-4.58051e-06
-8.89259e-07
-0.000143953
-4.27972e-06
-1.17173e-06
-0.000144547
-3.92503e-06
-1.22926e-06
-0.000139209
-3.22928e-06
-1.26809e-06
-0.000129724
-2.70203e-06
-1.29398e-06
-0.000109114
-1.98266e-06
-1.37942e-06
-5.19241e-05
-1.10387e-06
-1.46523e-06
-8.97765e-06
-8.89868e-07
-1.82673e-06
-5.8422e-06
-2.42396e-07
-1.79488e-06
-3.40135e-06
2.85259e-07
-1.74464e-06
-1.72818e-06
8.4525e-07
-1.57627e-06
-6.36138e-07
1.58635e-06
-1.4176e-06
1.65721e-07
1.79185e-06
-1.20277e-06
4.02479e-07
1.75344e-06
-9.88847e-07
1.04357e-07
1.83201e-06
-6.43393e-07
-1.65634e-07
1.13473e-06
-1.98525e-07
1.18139e-06
6.27325e-07
-2.75234e-06
-3.2992e-07
-4.43527e-07
-1.52003e-06
-3.04361e-06
-1.60987e-06
-1.75913e-06
1.92587e-07
-4.75157e-07
-1.40569e-06
-1.37738e-06
-6.32547e-07
-1.32203e-06
-3.37661e-07
-5.0712e-07
-1.1905e-06
-8.76405e-07
-4.59498e-07
-1.10406e-06
-5.25802e-07
-4.94458e-07
-9.9316e-07
-7.73133e-07
-5.09117e-07
-8.84743e-07
-6.00448e-07
-5.44922e-07
-7.62359e-07
-7.06776e-07
-5.77422e-07
-6.4925e-07
-5.38517e-07
-6.05801e-07
-5.60728e-07
-5.6005e-07
-6.19788e-07
-4.81174e-07
-4.06744e-07
-6.43659e-07
-4.25829e-07
-4.07333e-07
-6.50057e-07
-3.77737e-07
-2.85619e-07
-6.69273e-07
-3.4373e-07
-2.80557e-07
-6.73595e-07
-3.17043e-07
-1.94917e-07
-6.84799e-07
-2.9609e-07
-1.84901e-07
-6.89376e-07
-2.82073e-07
-1.29634e-07
-6.94211e-07
-2.70371e-07
-1.14848e-07
-6.97052e-07
-2.61954e-07
-8.29943e-08
-6.99825e-07
-2.54652e-07
-6.74509e-08
-7.01429e-07
-2.49605e-07
-4.88336e-08
-7.01747e-07
-2.45353e-07
-3.55071e-08
-7.01776e-07
-2.41926e-07
-2.37487e-08
-7.01048e-07
-2.39426e-07
-1.38656e-08
-6.99488e-07
-2.37624e-07
-5.80927e-09
-6.97359e-07
-2.35518e-07
1.50806e-10
-6.9554e-07
-2.34502e-07
6.72616e-09
-6.93604e-07
-2.33666e-07
1.05301e-08
-6.91017e-07
-2.32842e-07
1.23313e-08
-6.87962e-07
-2.31962e-07
1.22203e-08
-6.84589e-07
-2.30427e-07
9.747e-09
-6.81365e-07
-2.28033e-07
5.3642e-09
-6.78015e-07
-2.24157e-07
-4.5606e-09
-6.75037e-07
-2.20559e-07
-1.04299e-08
-6.70375e-07
-2.1442e-07
-3.15695e-08
-6.68156e-07
-2.08864e-07
-4.00294e-08
-6.62207e-07
-1.97281e-07
-8.07601e-08
-6.60238e-07
-1.89213e-07
-9.42417e-08
-6.51632e-07
-1.67914e-07
-1.59722e-07
-6.50801e-07
-1.55796e-07
-1.9191e-07
-6.39648e-07
-1.16539e-07
-2.79631e-07
-6.40417e-07
-9.39502e-08
-3.70912e-07
-6.27925e-07
-3.13542e-08
-4.53498e-07
-6.27231e-07
1.61139e-08
-6.79388e-07
-6.15082e-07
1.13203e-07
-7.35836e-07
-6.11707e-07
2.25233e-07
-1.17035e-06
-6.10862e-07
3.42281e-07
-1.15689e-06
-5.85924e-07
5.65279e-07
-1.79712e-06
-6.42146e-07
7.13876e-07
-1.67869e-06
-6.84208e-07
1.1546e-06
-2.05874e-06
-1.00172e-06
9.18518e-07
-3.69657e-08
-5.56616e-07
1.88343e-06
2.35337e-06
-8.38204e-07
2.52731e-06
7.24436e-06
-5.27218e-06
8.26628e-06
1.04257e-05
-1.06618e-05
1.70079e-05
8.39611e-06
-1.34594e-05
3.4896e-05
3.96239e-06
-9.39456e-06
1.02747e-06
-5.31104e-06
2.18365e-05
-7.90176e-05
7.69839e-07
3.40095e-06
-0.000150049
1.36035e-06
9.8916e-06
-0.000152218
1.69627e-06
4.80078e-06
-0.000155706
1.56557e-06
1.28217e-06
-0.000142901
4.98666e-07
4.88975e-08
-0.0001342
4.93667e-07
-2.0824e-07
-0.000155361
-2.0194e-07
2.38279e-07
-0.000155394
-1.33851e-06
3.35098e-07
-0.000153021
-1.72629e-06
3.80732e-07
-0.000136432
-2.10057e-06
3.75995e-07
-0.000139991
-2.62846e-06
3.0245e-07
-0.000171663
-2.68499e-06
2.64836e-07
-0.000175554
-3.06059e-06
4.10849e-08
-0.000157584
-3.28876e-06
-1.29008e-07
-0.000143782
-3.66355e-06
-3.6354e-07
-0.000161895
-3.94241e-06
-5.20666e-07
-0.000166582
-4.42781e-06
-6.95143e-07
-0.000156549
-4.87754e-06
-8.47345e-07
-0.000161419
-5.2537e-06
-9.55799e-07
-0.000166931
-5.56965e-06
-1.09022e-06
-0.000165522
-5.73617e-06
-1.15524e-06
-0.000166082
-5.75469e-06
-1.14882e-06
-0.000164602
-5.54541e-06
-1.02095e-06
-0.000160649
-5.29758e-06
-9.67542e-07
-0.000156732
-4.80287e-06
-8.79912e-07
-0.000150784
-4.32104e-06
-9.29663e-07
-0.00014455
-3.50667e-06
-1.002e-06
-0.000137483
-2.79159e-06
-9.80908e-07
-0.000119106
-2.20424e-06
-8.63023e-07
-0.000126055
-2.18169e-06
-8.01637e-07
-0.000139017
-1.16404e-06
-5.77609e-07
-0.000121236
-3.0211e-07
-4.30334e-07
-6.03482e-05
-7.28376e-09
-1.52811e-07
-4.98525e-06
-9.99054e-07
-2.22108e-07
-2.50363e-06
-6.03647e-07
3.92348e-07
-6.17377e-07
-9.23344e-07
1.07032e-06
-8.28386e-07
2.38357e-06
-2.57035e-06
1.46043e-06
-9.38467e-08
-1.6784e-06
-2.40218e-06
-1.5334e-06
-2.01507e-06
9.48792e-07
-4.19575e-07
-1.59043e-06
-1.03283e-06
-7.69221e-07
-1.4304e-06
5.03461e-08
-5.48062e-07
-1.25018e-06
-5.14746e-07
-5.41879e-07
-1.11052e-06
-1.4049e-07
-5.24961e-07
-9.85777e-07
-3.36669e-07
-5.61181e-07
-8.68213e-07
-1.32699e-07
-5.85292e-07
-7.27826e-07
-2.02076e-07
-6.45057e-07
-6.12459e-07
-4.12424e-09
-6.49735e-07
-5.1107e-07
2.13826e-08
-6.82793e-07
-4.41535e-07
2.15122e-07
-6.91376e-07
-3.88082e-07
2.52174e-07
-7.12932e-07
-3.52085e-07
4.01206e-07
-7.22796e-07
-3.24749e-07
4.30579e-07
-7.38447e-07
-3.08545e-07
5.36874e-07
-7.47971e-07
-2.96082e-07
5.63154e-07
-7.60495e-07
-2.90795e-07
6.33432e-07
-7.68332e-07
-2.86126e-07
6.5944e-07
-7.78936e-07
-2.85263e-07
7.03443e-07
-7.8728e-07
-2.84556e-07
7.28228e-07
-7.96367e-07
-2.85763e-07
7.55917e-07
-8.03526e-07
-2.87239e-07
7.7733e-07
-8.11345e-07
-2.89444e-07
7.96817e-07
-8.18344e-07
-2.92127e-07
8.13727e-07
-8.24895e-07
-2.95497e-07
8.28128e-07
-8.30553e-07
-2.99273e-07
8.4027e-07
-8.36331e-07
-3.02015e-07
8.51326e-07
-8.41846e-07
-3.04819e-07
8.6064e-07
-8.47294e-07
-3.07727e-07
8.68031e-07
-8.5278e-07
-3.10351e-07
8.7325e-07
-8.58395e-07
-3.12824e-07
8.76048e-07
-8.63818e-07
-3.14662e-07
8.76871e-07
-8.69659e-07
-3.17311e-07
8.72979e-07
-8.74882e-07
-3.19789e-07
8.71637e-07
-8.7958e-07
-3.2098e-07
8.55185e-07
-8.85554e-07
-3.22169e-07
8.51102e-07
-8.89934e-07
-3.1965e-07
8.14654e-07
-8.97924e-07
-3.19335e-07
8.06139e-07
-9.00687e-07
-3.10228e-07
7.42669e-07
-9.11489e-07
-3.08635e-07
7.19785e-07
-9.13278e-07
-2.84287e-07
6.24385e-07
-9.28354e-07
-2.79882e-07
5.56712e-07
-9.32021e-07
-2.24741e-07
4.40158e-07
-9.48787e-07
-1.92731e-07
2.65022e-07
-9.7641e-07
-6.27545e-08
1.30092e-07
-9.95891e-07
-2.26019e-08
-2.02731e-07
-1.00776e-06
2.06598e-07
-3.25738e-07
-1.06033e-06
3.39536e-07
-7.96498e-07
-1.13355e-06
6.64322e-07
-7.65919e-07
-1.23754e-06
5.99531e-07
-6.6245e-07
-1.33149e-06
-1.19681e-07
1.29274e-06
-6.10486e-07
1.35274e-06
3.20976e-06
-2.32883e-06
3.47093e-06
1.2956e-05
-7.82991e-06
1.08819e-05
1.39491e-05
-1.09344e-05
1.5638e-05
1.47606e-05
-1.11206e-05
3.45463e-05
-8.13727e-06
-6.80858e-06
-2.10508e-06
-3.86194e-06
2.5601e-05
-9.64181e-05
1.49297e-05
3.46526e-06
-0.000176839
2.94524e-05
1.24708e-05
-0.000190518
1.19869e-05
4.94806e-06
-0.000199199
1.12858e-05
-3.68536e-07
-0.00020405
5.53947e-06
-1.45085e-06
-0.000205624
3.95973e-06
-1.24472e-06
-0.000207241
1.70024e-06
-1.02069e-06
-0.000210617
8.07642e-08
-7.97314e-07
-0.000211289
-8.18881e-07
-6.06697e-07
-0.000211125
-1.29535e-06
-6.68554e-07
-0.000210566
-1.75469e-06
-8.04659e-07
-0.000209156
-1.93609e-06
-9.99399e-07
-0.000209606
-2.19374e-06
-1.05047e-06
-0.00020957
-2.43911e-06
-1.2349e-06
-0.000209474
-2.69218e-06
-1.56092e-06
-0.00020921
-2.89227e-06
-1.68477e-06
-0.000208968
-3.09459e-06
-1.84304e-06
-0.000208182
-3.36358e-06
-1.97317e-06
-0.000207064
-3.64811e-06
-2.05954e-06
-0.000206533
-3.91118e-06
-2.17963e-06
-0.000206056
-4.15998e-06
-2.14839e-06
-0.000205218
-4.39561e-06
-1.98987e-06
-0.000204366
-4.49161e-06
-1.75178e-06
-0.000202894
-4.48349e-06
-1.24997e-06
-0.000200288
-4.16351e-06
-1.06683e-06
-0.000197164
-4.05954e-06
-1.01236e-06
-0.000189972
-3.88943e-06
-1.03714e-06
-0.00018855
-3.72917e-06
-1.0924e-06
-0.00018152
-3.45002e-06
-9.22523e-07
-0.000178723
-3.29498e-06
-7.86139e-07
-0.000178469
-3.38289e-06
-8.7593e-07
-0.000154719
-3.90729e-06
-1.18675e-06
-0.000125089
-4.03334e-06
-8.45684e-07
-0.00011763
-4.24696e-06
-8.84251e-07
-0.000125315
-4.67309e-06
-4.32491e-07
-0.000113115
-5.28124e-06
4.06412e-07
-6.15064e-06
1.7566e-06
-3.29286e-06
2.92092e-06
1.95626e-06
-2.15651e-06
-2.23911e-06
-1.29942e-06
-2.24938e-06
1.23154e-06
-1.89903e-07
-1.66913e-06
-8.139e-07
-7.99204e-07
-1.4267e-06
2.82954e-07
-4.75051e-07
-1.23845e-06
-2.33339e-07
-4.6966e-07
-1.04607e-06