/*--------------------------------*- C++ -*----------------------------------*\
| =========                 |                                                 |
| \\      /  F ield         | OpenFOAM: The Open Source CFD Toolbox           |
|  \\    /   O peration     | Version:  2.3.0                                 |
|   \\  /    A nd           | Web:      www.OpenFOAM.org                      |
|    \\/     M anipulation  |                                                 |
\*---------------------------------------------------------------------------*/
FoamFile
{
    version     2.0;
    format      ascii;
    class       volVectorField;
    location    "6";
    object      U;
}
// * * * * * * * * * * * * * * * * * * * * * * * * * * * * * * * * * * * * * //

dimensions      [0 1 -1 0 0 0 0];

internalField   nonuniform List<vector> 
6144
(
(0.00914312 0.0245106 -0.0013607)
(0.00868277 0.00858436 -0.00149086)
(0.00606876 0.00696334 -0.00255001)
(0.00592311 0.00466612 -0.00269093)
(0.0051381 0.00390532 -0.00282083)
(0.00514666 0.00353579 -0.00287249)
(0.00486574 0.00318864 -0.00294162)
(0.00498446 0.00299624 -0.00297335)
(0.00483861 0.00266559 -0.00307489)
(0.00496839 0.00246564 -0.00310974)
(0.00485587 0.00210565 -0.00321351)
(0.00495381 0.00192757 -0.00324521)
(0.00486311 0.0015907 -0.00332397)
(0.00491765 0.001453 -0.00335034)
(0.00485402 0.00118855 -0.00340418)
(0.00487699 0.00108637 -0.00342376)
(0.00484127 0.000906337 -0.00345816)
(0.0048441 0.000824136 -0.0034736)
(0.00482588 0.000716065 -0.00349419)
(0.00481999 0.000650386 -0.00350668)
(0.00480994 0.000586015 -0.00351922)
(0.00480299 0.000538449 -0.00352874)
(0.00479625 0.000497839 -0.0035371)
(0.00479059 0.000464986 -0.00354408)
(0.00478552 0.000437806 -0.00355006)
(0.00478101 0.000413472 -0.00355511)
(0.00477644 0.000394985 -0.00355963)
(0.00477278 0.00036885 -0.00356262)
(0.00477116 0.000373782 -0.00356615)
(0.00476327 0.000303397 -0.00356577)
(0.00476659 0.000379759 -0.0035707)
(0.0047549 0.000210481 -0.00356732)
(0.0047646 0.000403627 -0.00357173)
(0.00474581 8.9687e-05 -0.00356722)
(0.00476162 0.000437043 -0.00356758)
(0.00473356 -5.1848e-05 -0.00356404)
(0.00475245 0.000476131 -0.00355524)
(0.00471163 -0.000190945 -0.00355459)
(0.00472265 0.000533617 -0.00352958)
(0.00466283 -0.00026693 -0.00353691)
(0.0046398 0.000669277 -0.00348721)
(0.00453766 -7.89013e-05 -0.00349559)
(0.00444653 0.00109609 -0.00341486)
(0.00424445 0.000721585 -0.0033979)
(0.00403385 0.00234848 -0.00322828)
(0.0036028 0.00265146 -0.00309024)
(0.00299958 0.00511246 -0.00280678)
(0.00181468 0.00651465 -0.00251806)
(-0.00022126 0.0101882 -0.00187637)
(-0.00293077 0.0150763 -0.00106898)
(-0.00441011 0.0223796 -0.000786098)
(0.00525195 0.0233394 -0.0027239)
(0.0334867 0.00555976 -0.00644602)
(0.0542616 -0.0626583 -0.00840105)
(0.0552371 -0.0756228 -0.0223114)
(0.0542628 -0.116545 -0.0312153)
(0.0337212 -0.0802319 -0.045944)
(0.0244386 -0.116924 -0.0123383)
(-0.0511221 0.0138806 -0.056452)
(0.0417518 0.120853 0.0395655)
(0.14564 -0.273974 0.0825343)
(0.0895185 -0.161945 0.0458244)
(0.0572773 -0.20336 0.0310483)
(0.0476794 -0.235107 0.0210717)
(0.0392377 -0.237222 0.0196183)
(0.0329931 -0.229788 0.018146)
(0.0265924 -0.232113 0.0195565)
(0.0184262 -0.229695 0.0206922)
(0.00982113 -0.221327 0.0194504)
(0.00196901 -0.21663 0.0181625)
(-0.00275513 -0.212831 0.0174999)
(-0.00652405 -0.206673 0.0152217)
(-0.00824938 -0.201962 0.0119374)
(-0.00747003 -0.198935 0.0106121)
(-0.00835108 -0.194506 0.00793842)
(-0.00483429 -0.192258 0.00734401)
(-0.00380461 -0.193663 0.0087237)
(-0.00452355 -0.193102 0.0121361)
(-0.00266646 -0.185668 0.0156565)
(-0.00548187 -0.169114 0.0122935)
(-0.00477755 -0.146492 0.0156442)
(-0.00392256 -0.123081 0.00647011)
(-0.0252027 -0.0781839 0.0110185)
(-0.0209741 -0.0261754 0.0193735)
(-0.0063849 0.0157053 0.00543642)
(-0.00326251 0.0411104 -0.00765283)
(-0.00113394 0.0498107 -0.0032576)
(0.00181283 0.037936 0.00822702)
(0.005429 0.0179636 0.00669958)
(0.00684846 0.00101224 0.00265249)
(0.00665399 -0.00786202 -0.00034884)
(0.00629026 -0.011059 -0.00187815)
(0.00597875 -0.0108311 -0.00280223)
(0.00573407 -0.0086308 -0.00352809)
(0.00565534 -0.00551325 -0.00392029)
(0.00554683 -0.0019142 -0.00401228)
(0.0181402 0.0234806 0.0034738)
(0.0178635 0.00951084 0.00280148)
(0.0118552 0.00798501 0.00013006)
(0.011932 0.00645458 -7.38994e-05)
(0.0100811 0.00570658 -0.000505995)
(0.0104056 0.00563605 -0.00045199)
(0.00988178 0.00508058 -0.000576316)
(0.0102499 0.00486755 -0.000495339)
(0.00999012 0.00431205 -0.000661257)
(0.0103372 0.00398625 -0.000593431)
(0.0100919 0.0034329 -0.000776854)
(0.010357 0.00312634 -0.000737952)
(0.0101257 0.0026477 -0.000885637)
(0.0102885 0.00241265 -0.000864957)
(0.0101064 0.00203989 -0.000971989)
(0.0101827 0.00187296 -0.000965231)
(0.010066 0.00161059 -0.00103221)
(0.010082 0.00148831 -0.00103707)
(0.0100187 0.00132324 -0.00107139)
(0.0100056 0.00122951 -0.00108035)
(0.00997181 0.00113083 -0.00109558)
(0.00995171 0.00106125 -0.00110292)
(0.00993019 0.000999666 -0.00110928)
(0.00991253 0.000950646 -0.00111291)
(0.00989668 0.000909697 -0.00111492)
(0.00988283 0.000874197 -0.0011154)
(0.00987 0.00084685 -0.00111506)
(0.00985881 0.000815445 -0.00111281)
(0.00985193 0.000810419 -0.00110974)
(0.00983459 0.000737406 -0.00110397)
(0.00984 0.00081515 -0.00110129)
(0.00980883 0.000621997 -0.00109163)
(0.00983182 0.000851202 -0.00108734)
(0.00977751 0.000467541 -0.00107923)
(0.00981961 0.00091052 -0.00107087)
(0.00973362 0.000277662 -0.00106828)
(0.00978594 0.000987787 -0.00105509)
(0.00965791 7.62045e-05 -0.00106239)
(0.00969539 0.00109139 -0.00104398)
(0.00950115 -8.59732e-05 -0.00106956)
(0.00944715 0.00126136 -0.00106241)
(0.0091332 -1.94916e-05 -0.00110951)
(0.00884517 0.00164007 -0.00113661)
(0.00826517 0.000666416 -0.00121054)
(0.00759679 0.00268936 -0.00122882)
(0.00647414 0.00234945 -0.00120336)
(0.00510299 0.00471682 -0.000958449)
(0.0026163 0.00456485 -0.000512295)
(-0.0014731 0.00667191 0.000374781)
(-0.0054283 0.00430296 0.00110413)
(-0.00589587 0.00761562 0.00141086)
(0.0129483 -0.0241191 -0.00203155)
(0.069436 -0.0501053 0.0105924)
(0.0937062 -0.106134 0.0295322)
(0.0855159 -0.11602 0.0197937)
(0.0918072 -0.154884 0.0108531)
(0.0538788 -0.110103 -0.00692695)
(0.0253598 -0.203666 0.032571)
(-0.122073 0.0293654 -0.0982724)
(0.0235289 0.0385742 0.0301023)
(0.16934 -0.221872 0.135359)
(0.0727989 -0.0349683 0.0644101)
(0.0134234 -0.101317 0.0187872)
(0.0132862 -0.0595357 0.011476)
(0.0088866 -0.0525192 0.00786983)
(0.00682993 -0.0310918 0.00772745)
(-0.0129823 -0.0244283 0.0169349)
(-0.00388545 -0.00173523 0.0303275)
(0.00624913 -0.00164159 0.0404219)
(0.00321066 -0.00843553 0.0358333)
(0.00396352 -0.0203254 0.0249805)
(0.00948145 -0.0260585 0.0166316)
(0.0124082 -0.0383154 0.0094276)
(0.0152052 -0.0460777 0.00159699)
(0.0203138 -0.0560264 -0.00473264)
(0.0283878 -0.0664175 -0.00398369)
(0.0275593 -0.0768688 0.000965474)
(0.00841159 -0.0958026 0.00933196)
(-0.00666961 -0.0969372 0.013176)
(-0.00888322 -0.0872317 0.0105015)
(-0.0141992 -0.0723043 0.0106303)
(-0.0214752 -0.0506019 0.0124878)
(-0.0298365 -0.0331192 0.0171719)
(-0.0265965 -0.0117713 0.0196825)
(-0.0137626 0.0136486 0.00714094)
(-0.0101378 0.0355921 -0.00395183)
(-0.00984423 0.0439508 0.0019567)
(-0.00762229 0.0321771 0.0160559)
(-0.000864249 0.0147065 0.0160721)
(0.00391746 -0.00139345 0.0101913)
(0.00485257 -0.0100494 0.00467774)
(0.0045859 -0.0124945 0.00104976)
(0.00416499 -0.011525 -0.000827772)
(0.00389283 -0.00898344 -0.00177803)
(0.00375879 -0.00566307 -0.0024148)
(0.00364993 -0.00197451 -0.00277067)
(0.0205113 0.019794 0.00572036)
(0.0212606 0.00877222 0.00515646)
(0.0130897 0.00629791 0.00237965)
(0.0137553 0.0064868 0.00239209)
(0.0112822 0.0051659 0.00207321)
(0.0118874 0.00572138 0.00225551)
(0.0112143 0.00497772 0.00217662)
(0.0117331 0.00495633 0.00237323)
(0.0114409 0.00427928 0.00219336)
(0.0118738 0.00402545 0.00230309)
(0.0116018 0.00337235 0.00206247)
(0.0119178 0.00312822 0.00212148)
(0.0116458 0.00257343 0.0019068)
(0.0118445 0.00239303 0.00193978)
(0.011611 0.00197491 0.00179349)
(0.0117051 0.00183857 0.0018119)
(0.0115434 0.0015566 0.00172159)
(0.0115614 0.00145551 0.00173007)
(0.0114661 0.00128235 0.00168482)
(0.0114448 0.00120357 0.00168845)
(0.0113895 0.00110468 0.00167408)
(0.0113562 0.00104407 0.00167844)
(0.0113184 0.000985948 0.00168123)
(0.0112863 0.000942218 0.00168982)
(0.0112561 0.000905306 0.00170042)
(0.0112286 0.000873963 0.00171353)
(0.0112026 0.000848535 0.00172823)
(0.0111787 0.000819088 0.00174477)
(0.0111579 0.000814416 0.00176281)
(0.0111306 0.000749047 0.00178201)
(0.0111255 0.000818828 0.00179853)
(0.0110762 0.000639441 0.00181505)
(0.0110969 0.000853374 0.00183244)
(0.0110152 0.000488923 0.00184341)
(0.011068 0.00090528 0.00186821)
(0.0109429 0.000292348 0.0018665)
(0.0110171 0.00096019 0.00189856)
(0.0108352 6.00437e-05 0.00187664)
(0.0109037 0.00101298 0.00191228)
(0.0106347 -0.000179011 0.00185595)
(0.010604 0.00108126 0.00186317)
(0.0101788 -0.000322624 0.00174671)
(0.00985476 0.00124269 0.0016679)
(0.00907007 -5.85067e-05 0.00145154)
(0.00822327 0.00181441 0.00131109)
(0.00680808 0.000946421 0.00116856)
(0.00521207 0.00267933 0.00133272)
(0.00242263 0.000905012 0.00163536)
(-0.00102926 0.000694476 0.00227086)
(-0.00496954 -0.00745316 0.00330594)
(0.0116123 -0.0170957 0.00269222)
(0.0573574 -0.0635515 -0.00872048)
(0.0896691 -0.0690214 0.00477204)
(0.108742 -0.101296 0.045069)
(0.102831 -0.0853953 0.0525103)
(0.116372 -0.131062 0.0339293)
(0.0790156 -0.0301781 0.0406957)
(0.0816079 -0.217658 0.120293)
(-0.109373 0.0799238 -0.0556499)
(0.0363961 0.0042301 -0.00220472)
(0.177591 -0.186441 0.158687)
(0.0915978 0.0171542 0.0739356)
(0.0504976 -0.0722414 0.0340282)
(0.0477914 0.00895517 -0.0126351)
(0.0385879 0.00221711 -0.00608015)
(0.035548 0.022156 0.00890058)
(0.0172258 0.00501135 0.0297956)
(0.00374234 -0.00304462 0.0383882)
(0.0046839 -0.0107362 0.0429543)
(0.00553959 -0.0144796 0.0345302)
(0.00246705 -0.0224843 0.0213643)
(-0.00300124 -0.0223832 0.00409315)
(-0.00109137 -0.0232662 -0.0101671)
(0.00862672 -0.0192746 -0.0166726)
(0.0244091 -0.0155319 -0.0153226)
(0.0395111 -0.0225958 -0.0115132)
(0.0404457 -0.0235685 -0.00228336)
(0.018934 -0.0526031 0.0134692)
(-0.0110934 -0.0753415 0.0199117)
(-0.0253663 -0.0751532 0.01336)
(-0.0250372 -0.0670038 0.00362912)
(-0.0273358 -0.0364319 -0.00903858)
(-0.0441358 -0.0101735 0.00461236)
(-0.0356563 0.00692573 0.0134036)
(-0.0151899 0.0238313 0.00590346)
(-0.00912192 0.0394218 -0.00217146)
(-0.00959522 0.0437523 0.00473026)
(-0.0119496 0.0310054 0.0174962)
(-0.00841634 0.0131422 0.0190466)
(-0.00250036 -0.0022497 0.0139621)
(0.000742172 -0.0107318 0.00833466)
(0.00196467 -0.0127828 0.00423558)
(0.00236328 -0.0116132 0.00196981)
(0.00250257 -0.00912598 0.00078709)
(0.00245173 -0.00595061 -2.47199e-05)
(0.00243271 -0.00220555 -0.000424156)
(0.0201835 0.017708 0.00667662)
(0.0225841 0.0100205 0.00674772)
(0.0120845 0.00581211 0.00368337)
(0.013867 0.00766054 0.00343734)
(0.0106483 0.00527631 0.00333294)
(0.0116165 0.00665054 0.00343326)
(0.0107972 0.00546058 0.00346983)
(0.011546 0.00569415 0.00368136)
(0.0111705 0.00470105 0.00360733)
(0.0117345 0.00451635 0.00371872)
(0.0113618 0.00362217 0.00357152)
(0.0117517 0.00342061 0.0036187)
(0.0113853 0.0026953 0.0034658)
(0.0116164 0.00257243 0.00349573)
(0.0113153 0.00204438 0.00337605)
(0.011423 0.00197304 0.00339861)
(0.0112042 0.00162313 0.00332803)
(0.0112222 0.00156145 0.00334741)
(0.011086 0.00135526 0.00331115)
(0.0110554 0.00129694 0.0033265)
(0.0109734 0.00118669 0.00331841)
(0.0109258 0.00113481 0.0033327)
(0.0108694 0.00107566 0.00334223)
(0.0108216 0.00103518 0.00335843)
(0.0107757 0.000999189 0.00337583)
(0.0107334 0.000970037 0.00339571)
(0.0106933 0.000945252 0.00341694)
(0.0106554 0.0009191 0.0034397)
(0.0106209 0.000912569 0.00346293)
(0.0105833 0.000855678 0.00348718)
(0.0105699 0.000915544 0.00351127)
(0.0105092 0.000751465 0.00353585)
(0.0105302 0.000947872 0.00356175)
(0.0104344 0.00059721 0.00358251)
(0.0104985 0.000994339 0.0036131)
(0.0103554 0.000384965 0.00362315)
(0.0104515 0.00103291 0.00365679)
(0.0102492 0.000104724 0.00364593)
(0.010347 0.00103538 0.00367044)
(0.0100562 -0.000249509 0.00361767)
(0.0100648 0.000972282 0.00359002)
(0.00958859 -0.000660869 0.00343365)
(0.00928641 0.000821311 0.00325794)
(0.00834765 -0.000974053 0.00289692)
(0.00735855 0.000805404 0.00254238)
(0.00579602 -0.000698764 0.00222336)
(0.00442022 0.000691204 0.00238519)
(0.00206169 -0.00240033 0.00291022)
(0.000544567 -0.00544138 0.00486377)
(0.00166084 -0.0199161 0.00681179)
(0.0361409 -0.046137 -0.00324664)
(0.082952 -0.0660133 -0.00597456)
(0.102101 -0.0554768 0.0301948)
(0.0991227 -0.0642938 0.0814843)
(0.079018 -0.0168601 0.0986341)
(0.0650802 -0.0780377 0.0558546)
(0.0873935 0.0738143 0.0755576)
(0.107833 -0.21106 0.118462)
(-0.177075 0.299406 -0.0568657)
(0.0285471 -0.0924597 0.0391471)
(0.105213 -0.140635 0.168161)
(0.0414073 0.0435915 0.0595667)
(-0.00841317 -0.0317769 0.0176764)
(0.00751012 0.0566983 -0.00695548)
(0.0103698 0.036709 0.00647958)
(0.00106563 0.0517498 0.0153211)
(-0.0212561 0.0475677 0.0189453)
(-0.0282093 0.0371872 0.0203701)
(-0.0286437 0.0361247 0.0180958)
(-0.0211744 0.0350006 0.00965082)
(-0.00921797 0.0362737 0.00224735)
(0.00330971 0.03143 0.000365651)
(0.0214922 0.0272528 -0.00300858)
(0.0308559 0.0230369 -0.00740959)
(0.0421708 0.0239233 -0.0104416)
(0.0499759 0.0254107 -0.0149721)
(0.053013 0.0393782 -0.0167339)
(0.0309011 0.0217511 -0.000577382)
(-0.00297503 -0.0180921 0.00186263)
(-0.0280635 -0.0301434 -0.00783742)
(-0.0448814 -0.0195713 -0.0260533)
(-0.0522275 0.0160291 -0.0233831)
(-0.0418392 0.0284522 -0.00286578)
(-0.0219451 0.031635 -0.0027352)
(-0.00685669 0.0410427 -0.00360568)
(-0.00210518 0.0492403 -0.00367315)
(-0.00755836 0.044971 0.00792714)
(-0.0137345 0.0318973 0.0167613)
(-0.0143341 0.0139368 0.0183208)
(-0.0105341 -0.00108945 0.014435)
(-0.00723222 -0.0091474 0.00892759)
(-0.00550014 -0.0110971 0.0046544)
(-0.00411592 -0.0101629 0.0021902)
(-0.00306312 -0.00838392 0.00064074)
(-0.00229578 -0.00584601 -0.000399551)
(-0.00286607 -0.00241524 -0.000628341)
(0.017338 0.0167238 0.00727325)
(0.0225836 0.011934 0.00780043)
(0.00950328 0.00598068 0.00452225)
(0.0126751 0.00937213 0.00367866)
(0.00868167 0.00542585 0.00370492)
(0.0101016 0.0075894 0.00354968)
(0.009097 0.00571442 0.00377449)
(0.0100634 0.0063442 0.00406381)
(0.00959373 0.00495678 0.00416525)
(0.0102232 0.00494863 0.004344)
(0.00975769 0.00378433 0.00431006)
(0.0101618 0.0036853 0.00437735)
(0.00971258 0.00278641 0.00429678)
(0.0099519 0.00273128 0.00433496)
(0.0095821 0.00209759 0.00425651)
(0.00969355 0.00208675 0.00429313)
(0.00942921 0.00167343 0.004242)
(0.00944283 0.00166669 0.00427801)
(0.00926336 0.00142237 0.00425993)
(0.00922054 0.0013951 0.00429476)
(0.00910569 0.0012685 0.00429813)
(0.00904154 0.00123134 0.0043295)
(0.00896154 0.00116988 0.00435142)
(0.0088942 0.00113497 0.00438211)
(0.00882804 0.00110145 0.00441282)
(0.00876625 0.00107575 0.00444638)
(0.00870712 0.00105367 0.00448138)
(0.00865066 0.0010325 0.0045177)
(0.00859735 0.00102311 0.00455426)
(0.00854237 0.000974345 0.00458959)
(0.00851374 0.00102535 0.00462405)
(0.00843761 0.000879297 0.00465755)
(0.00844683 0.00105605 0.00469532)
(0.00833478 0.00072831 0.0047244)
(0.00839599 0.00109918 0.00476299)
(0.00823924 0.000510609 0.00478323)
(0.00835252 0.00112578 0.00481795)
(0.00814652 0.00019815 0.00481929)
(0.00829515 0.00107932 0.00482778)
(0.00802515 -0.000262755 0.00478358)
(0.0081518 0.00086741 0.00469993)
(0.00772297 -0.00094976 0.00450969)
(0.00762417 0.000307942 0.00419931)
(0.00664914 -0.00199229 0.00368418)
(0.00549931 -0.000505639 0.0030747)
(0.00384944 -0.00249492 0.00268906)
(0.0026607 -0.00192591 0.00281485)
(0.00185042 -0.00644503 0.00355933)
(0.00426393 -0.012383 0.00646915)
(0.0140673 -0.0338239 0.00577919)
(0.0527707 -0.0553342 -0.0082563)
(0.0861459 -0.0417557 0.00917843)
(0.0808899 -0.0161021 0.0504464)
(0.0767882 -0.0368748 0.0780111)
(0.0419199 0.00151289 0.101556)
(0.0288435 -0.0090722 0.0747054)
(0.0366237 0.0827527 0.0511505)
(0.0158207 0.0545312 0.0400888)
(-0.017278 0.389147 0.0109719)
(0.0205401 -0.113241 0.0554031)
(0.0581329 -0.133619 0.184507)
(0.013884 0.0408732 0.0947254)
(-0.00746177 -0.0464987 0.0613764)
(0.00753245 0.0329742 -0.00904029)
(0.0187301 0.0242268 0.0118205)
(0.0126713 0.0577953 0.0132334)
(-0.00237531 0.0646237 0.0188413)
(-0.00800912 0.0657984 0.0205035)
(-0.0126806 0.0554472 0.0207949)
(-0.00304454 0.0467567 0.0114659)
(0.0132709 0.0468876 0.0113676)
(0.0213237 0.0373274 0.00633428)
(0.0364313 0.0426527 0.00380668)
(0.0450417 0.0375385 0.000712479)
(0.0516939 0.0380775 -0.00293491)
(0.0525559 0.0394178 -0.0157526)
(0.0520471 0.0603551 -0.0222452)
(0.0410322 0.0786389 -0.0213672)
(0.0153008 0.0746751 -0.021199)
(-0.0113389 0.066634 -0.0259097)
(-0.0225142 0.0631282 -0.026091)
(-0.0239059 0.0582844 -0.0170157)
(-0.00974674 0.052562 -0.0125369)
(0.000415123 0.0521477 -0.0089847)
(0.00515796 0.0538228 -0.00676426)
(0.00315958 0.0524137 -0.000820961)
(-0.00565432 0.0450874 0.00781328)
(-0.0137111 0.0318404 0.0117341)
(-0.0163112 0.0157566 0.0113024)
(-0.0150665 0.00231067 0.00761162)
(-0.0128715 -0.00477557 0.00441463)
(-0.0112802 -0.00808806 0.00261984)
(-0.00925055 -0.00927167 0.00144893)
(-0.00719547 -0.00753457 0.000307202)
(-0.00688203 -0.00463191 0.00013265)
(-0.00754953 -0.00213701 0.000498744)
(0.013093 0.0157864 0.00750576)
(0.0224077 0.0140209 0.00849539)
(0.00615173 0.00562133 0.00486856)
(0.0115967 0.0113773 0.0032284)
(0.0065473 0.00507585 0.00357558)
(0.0084939 0.00839942 0.00290757)
(0.00704738 0.00542085 0.00349932)
(0.0081554 0.00674431 0.0038417)
(0.00751018 0.00489373 0.00422651)
(0.00807842 0.00525568 0.00457794)
(0.00748621 0.0037828 0.00474564)
(0.00777912 0.00390153 0.00491691)
(0.00723956 0.00279951 0.00497982)
(0.00739749 0.0028745 0.00506564)
(0.00695973 0.00212725 0.00508781)
(0.00703622 0.00219108 0.00515284)
(0.00672881 0.00171972 0.00516545)
(0.00673536 0.00176007 0.00522231)
(0.00653953 0.00147871 0.00524337)
(0.00650159 0.00149168 0.00529694)
(0.00638132 0.00134904 0.0053193)
(0.0063262 0.00133097 0.0053647)
(0.00625031 0.00126762 0.00539495)
(0.00619093 0.00124078 0.00543215)
(0.00613208 0.00121026 0.00546565)
(0.00607834 0.00118868 0.00550002)
(0.00602759 0.00117051 0.00553296)
(0.00597981 0.00115484 0.00556588)
(0.00593592 0.00114746 0.00559797)
(0.00588943 0.00110998 0.0056278)
(0.00587148 0.00115411 0.00565871)
(0.00581594 0.001029 0.00568315)
(0.00584004 0.00118884 0.00571465)
(0.00575037 0.000894696 0.00573419)
(0.00583581 0.00124191 0.00576081)
(0.00570992 0.000695254 0.00577728)
(0.00586437 0.00127796 0.00578958)
(0.00570848 0.000396862 0.0057953)
(0.00593668 0.00123374 0.00576263)
(0.00575874 -7.21445e-05 0.00572254)
(0.00604056 0.000973287 0.00555327)
(0.0057718 -0.000887361 0.00534086)
(0.00591648 8.53432e-05 0.00487344)
(0.00497763 -0.00287963 0.00431521)
(0.00365516 -0.00232345 0.00367643)
(0.00199759 -0.00580747 0.00346505)
(0.0019959 -0.00700815 0.00420965)
(0.00271808 -0.013168 0.00537439)
(0.0105877 -0.0186378 0.00890675)
(0.025565 -0.0430963 0.00186389)
(0.0598004 -0.035928 0.000282876)
(0.0683506 -0.0133439 0.0245777)
(0.0868104 0.0073473 0.0547703)
(0.07357 -0.0262199 0.0748998)
(0.0407225 0.00101104 0.103178)
(-0.00312555 -0.109471 0.111112)
(-0.00630147 0.0463391 0.113957)
(-0.0116226 -0.198917 0.0252738)
(-0.0120769 0.363375 0.117297)
(-0.000637198 -0.106947 0.0464689)
(-0.0145757 -0.124792 0.193867)
(-0.0109315 0.0506111 0.0947403)
(-0.0293985 -0.0508058 0.056597)
(-0.0255251 0.0514582 -0.0226294)
(-0.023996 0.0515929 0.00636224)
(-0.0271393 0.0949301 0.0162594)
(-0.0241853 0.101853 0.0289242)
(-0.0161672 0.100942 0.0313092)
(-0.00952909 0.0794499 0.0235707)
(-0.00480532 0.0685422 0.0163193)
(0.0126242 0.0628347 0.0123045)
(0.0216344 0.0543362 0.00713981)
(0.0384655 0.0568885 0.0042807)
(0.0503713 0.0562682 0.00420324)
(0.0577596 0.0575562 0.00529037)
(0.0617049 0.0551493 0.00319788)
(0.0582455 0.0529125 -0.00663335)
(0.0552367 0.0733135 -0.0158147)
(0.0423574 0.0877974 -0.0134979)
(0.0301738 0.0922505 -0.013931)
(0.0193938 0.0852579 -0.013752)
(0.0129197 0.0785034 -0.0141955)
(0.014097 0.0720214 -0.0107431)
(0.014778 0.0682973 -0.00792301)
(0.0122413 0.0635297 -0.00246497)
(0.0055268 0.0563903 0.00376961)
(-0.00193004 0.0488194 0.0057801)
(-0.00929246 0.0354529 0.00799279)
(-0.0122026 0.0232823 0.00783982)
(-0.0133453 0.0108679 0.00721959)
(-0.0127899 0.0024337 0.00722065)
(-0.0119116 -0.00242 0.00567943)
(-0.0121802 -0.00550432 0.00472298)
(-0.0127722 -0.00566367 0.00236772)
(-0.0114846 -0.00476696 -0.00047347)
(-0.0132272 -0.0026322 -0.00349939)
(0.00765782 0.0129416 0.0101569)
(0.0218483 0.0166866 0.00884652)
(0.0018471 0.00486611 0.00411507)
(0.0103406 0.0138388 0.00245522)
(0.00422995 0.00452814 0.00262785)
(0.00673982 0.00929176 0.00165655)
(0.00469719 0.00475706 0.002558)
(0.005727 0.00686251 0.00294355)
(0.00490594 0.00452701 0.0035732)
(0.00535654 0.00526449 0.00420833)
(0.00462025 0.00356248 0.00449989)
(0.00467322 0.00391046 0.00482898)
(0.00397855 0.00267214 0.00495817)
(0.00389053 0.00290366 0.00511814)
(0.0033194 0.00208778 0.00518172)
(0.00322373 0.00224966 0.00527779)
(0.00280036 0.00174379 0.00530607)
(0.00270805 0.0018505 0.00537744)
(0.00241352 0.00155412 0.00539121)
(0.00230686 0.00160956 0.00544055)
(0.00212612 0.00145811 0.00545685)
(0.00202616 0.00145735 0.00549282)
(0.00191018 0.00139138 0.00550941)
(0.00182279 0.00137035 0.005535)
(0.00174194 0.001341 0.0055563)
(0.00167157 0.00132185 0.00557862)
(0.00160925 0.00130517 0.00560018)
(0.0015554 0.00129132 0.00562155)
(0.00151003 0.00128612 0.00564229)
(0.00146661 0.00125719 0.00566293)
(0.00144543 0.00129966 0.00568304)
(0.0013993 0.00119655 0.00569241)
(0.00142472 0.00134209 0.00571292)
(0.00135121 0.00108324 0.0057158)
(0.00144385 0.00141235 0.00573244)
(0.00135034 0.000916078 0.0057294)
(0.00153478 0.00147965 0.0057359)
(0.00143494 0.000662473 0.00571731)
(0.00175233 0.00149189 0.00568814)
(0.00167569 0.000253802 0.00560554)
(0.00220559 0.00131634 0.00547326)
(0.00218003 -0.000574564 0.00516819)
(0.00299121 0.000241517 0.00478711)
(0.00276658 -0.00350018 0.00427669)
(0.00198677 -0.0046249 0.00428682)
(0.00134464 -0.00903468 0.00498294)
(0.00128175 -0.0110881 0.00597445)
(0.00253169 -0.0164783 0.00771748)
(0.0105498 -0.0227343 0.0103515)
(0.0255131 -0.0352095 0.00314157)
(0.0337031 -0.00712105 0.0134143)
(0.0573338 0.0290819 0.0433707)
(0.0692112 0.0584786 0.0619574)
(0.0441962 0.0771574 0.0743299)
(0.00574925 0.0797841 0.0896733)
(-0.0323343 0.0584847 0.0969465)
(-0.0461962 0.120005 0.0960772)
(-0.0323623 0.0969758 0.104005)
(-0.0565465 0.405767 0.10443)
(-0.014859 -0.136545 0.0515806)
(-0.0603477 -0.115979 0.207597)
(-0.0306495 0.052606 0.0741064)
(-0.0437136 -0.0246394 0.0296998)
(-0.0429357 0.0678034 -0.0282582)
(-0.0399241 0.0520862 -0.0034803)
(-0.0332969 0.0799103 0.0154543)
(-0.0255661 0.0777586 0.0334309)
(-0.00461266 0.0714242 0.0332805)
(0.00929651 0.0562643 0.0326881)
(0.0110114 0.0447103 0.0213837)
(0.0195445 0.040339 0.0142929)
(0.0281949 0.0434862 0.00842201)
(0.0406362 0.0488138 0.00789811)
(0.0533767 0.0577323 0.00634196)
(0.0634414 0.0631216 0.00800162)
(0.0667106 0.0659149 0.00943929)
(0.0624414 0.0681775 0.0115995)
(0.0519493 0.0648036 0.00971532)
(0.040154 0.0659131 2.6504e-05)
(0.0316079 0.0686129 -0.00524665)
(0.0263423 0.0743896 -0.0107179)
(0.0206486 0.0755941 -0.0164325)
(0.0196456 0.0778304 -0.0180669)
(0.0179342 0.0775197 -0.0146739)
(0.0145363 0.0739042 -0.00799167)
(0.00640515 0.0673876 -0.0033845)
(-0.00182519 0.05988 0.00118551)
(-0.0110687 0.0462123 0.00560714)
(-0.0168613 0.0347071 0.00634683)
(-0.0205537 0.0243946 0.00489063)
(-0.0223635 0.0154042 0.00392595)
(-0.0212597 0.00984864 0.00391788)
(-0.0214734 0.00312012 0.000736982)
(-0.0207999 9.44758e-05 0.000107508)
(-0.021081 -0.00433447 -0.00349716)
(-0.0231282 -0.00520014 -0.0184556)
(-0.00249093 0.00387544 0.00727804)
(0.0182074 0.0214037 0.00874821)
(-0.00165064 0.00393831 0.00281438)
(0.0091874 0.0175335 0.00227526)
(0.00303175 0.00457373 0.0024939)
(0.00584138 0.0105646 0.0016657)
(0.00337229 0.00435172 0.00261437)
(0.00430994 0.00697685 0.00296131)
(0.00318045 0.00405631 0.00361151)
(0.00355461 0.00499296 0.00448897)
(0.00253107 0.00306368 0.00475779)
(0.00241231 0.00353542 0.00526023)
(0.00155082 0.00218161 0.0053826)
(0.00137161 0.00257338 0.00566907)
(0.000714789 0.00173301 0.0057399)
(0.000592845 0.00205087 0.00590973)
(0.000139898 0.00155199 0.0059586)
(5.73769e-05 0.00177316 0.00607657)
(-0.000221639 0.00149886 0.00612014)
(-0.000283307 0.00163441 0.00620922)
(-0.000423339 0.00150752 0.00625815)
(-0.000468723 0.00156271 0.00632763)
(-0.000531391 0.00152629 0.00637265)
(-0.000556922 0.00154121 0.00642645)
(-0.000573916 0.00154058 0.00647232)
(-0.000575411 0.00154781 0.00651812)
(-0.00056716 0.00155322 0.0065613)
(-0.000552141 0.00155813 0.00660257)
(-0.000531819 0.00156521 0.00664099)
(-0.000510362 0.00155681 0.00667837)
(-0.00047004 0.00160254 0.00671122)
(-0.000445323 0.00153128 0.00674074)
(-0.000357135 0.00167096 0.00677579)
(-0.000358846 0.0014673 0.00679744)
(-0.000191593 0.00177715 0.00683373)
(-0.000215507 0.00136804 0.00684121)
(6.58487e-05 0.00190896 0.00687119)
(4.16527e-05 0.00122698 0.00684605)
(0.000508212 0.00203714 0.00684613)
(0.000547309 0.000983172 0.00673506)
(0.00139474 0.00201425 0.00665077)
(0.00167635 0.000231234 0.00634178)
(0.00330291 0.000837071 0.0062676)
(0.00394647 -0.00345889 0.00597771)
(0.00239794 -0.00588016 0.00654247)
(-0.000856753 -0.0122832 0.00793195)
(-0.00266491 -0.0163222 0.00874048)
(-0.0029133 -0.0237213 0.0100159)
(0.00670747 -0.0281624 0.00995592)
(0.00597168 -0.0245221 0.00686193)
(0.00541029 0.00834966 0.0275353)
(0.0170135 0.0593683 0.0459356)
(0.0109544 0.0918538 0.0459649)
(0.0133696 0.0962801 0.080723)
(-0.0171428 0.0889149 0.0940633)
(-0.0307106 0.0318825 0.0961678)
(-0.0511645 0.169382 0.165947)
(-0.036545 -0.221834 0.161354)
(0.132342 0.443488 0.0162788)
(-0.0318608 -0.140916 0.0451591)
(-0.109495 -0.133231 0.174931)
(-0.0562129 0.108426 0.000877752)
(-0.0802073 -0.00756673 0.00404879)
(-0.0604909 0.0856297 -0.0395383)
(-0.0603338 0.0464785 -0.00305132)
(-0.0482719 0.0447683 -0.00285203)
(-0.0367082 0.013004 -0.00586665)
(-0.00527086 0.0098069 0.00143359)
(0.0196348 -0.00117968 0.033647)
(0.0261577 -0.00554111 0.0405155)
(0.0281721 -0.0130028 0.0355532)
(0.0277325 -0.00786551 0.0209238)
(0.0315243 -0.000695768 0.0129515)
(0.0390568 0.0161751 0.00306606)
(0.0522575 0.0362441 -0.00155333)
(0.0615702 0.0579032 0.00254406)
(0.0640874 0.0717278 0.0111386)
(0.0587216 0.0772842 0.0188985)
(0.0502091 0.0766709 0.0238683)
(0.044227 0.073308 0.025524)
(0.0407397 0.069718 0.025315)
(0.0352979 0.0676433 0.0224905)
(0.0287886 0.0679534 0.0195548)
(0.0214161 0.0688777 0.0158836)
(0.0153384 0.074549 0.0143777)
(0.00776485 0.072638 0.0148572)
(0.00308599 0.0698186 0.0181941)
(-0.000528955 0.0600284 0.020586)
(-0.00412642 0.0430007 0.0200769)
(-0.00595951 0.0260931 0.0178365)
(-0.00879379 0.00492929 0.012469)
(-0.00860806 -0.00236975 0.0103528)
(-0.00928803 -0.00874638 0.00617221)
(-0.01023 -0.0103952 -6.3871e-05)
(-0.0100109 -0.0115591 -0.0137706)
(-0.00585903 -0.00428081 -0.0516629)
(-0.0126699 0.0073731 -0.00381387)
(0.0140861 0.027858 0.00555464)
(-0.00606424 0.00417836 -0.00236729)
(0.0069829 0.0204609 -0.000458944)
(0.00161614 0.00417807 -0.000732697)
(0.00366602 0.0113304 -0.00158171)
(0.00139646 0.0038444 -0.000656167)
(0.00190052 0.00689657 -0.000231157)
(0.000816516 0.00361135 0.00065229)
(0.000943318 0.00472651 0.0016539)
(-0.000294137 0.00278677 0.0020071)
(-0.000618502 0.00333566 0.00255894)
(-0.00169265 0.002069 0.00271718)
(-0.00209249 0.00249308 0.00301659)
(-0.00287738 0.001722 0.00312564)
(-0.0031405 0.00206315 0.00330108)
(-0.00367427 0.00161089 0.0033763)
(-0.00383267 0.00186664 0.00349965)
(-0.0041673 0.00161341 0.00355874)
(-0.0042784 0.00177998 0.00365123)
(-0.00445912 0.00167089 0.00370789)
(-0.00453853 0.00175006 0.00378133)
(-0.00462816 0.00172869 0.00383169)
(-0.00468 0.00175536 0.00389037)
(-0.00472159 0.00176371 0.00394105)
(-0.00474737 0.00177864 0.00399183)
(-0.00476172 0.00179292 0.00404025)
(-0.00476543 0.00180763 0.00408673)
(-0.00476085 0.00182381 0.00413032)
(-0.00474996 0.00182541 0.00417349)
(-0.00472866 0.00186867 0.00421075)
(-0.00470854 0.00181278 0.00425179)
(-0.00464437 0.00194705 0.00428674)
(-0.00464719 0.00177203 0.00432299)
(-0.00451078 0.00207345 0.00435358)
(-0.00452451 0.00171252 0.00438494)
(-0.00427561 0.00225268 0.00440698)
(-0.00427416 0.00165158 0.00441307)
(-0.003829 0.00248674 0.00441253)
(-0.00373124 0.00155687 0.0043556)
(-0.00285556 0.00264435 0.00431212)
(-0.00244301 0.00107967 0.0041716)
(-0.000659705 0.00162226 0.00426419)
(0.000538451 -0.0026593 0.00469692)
(-0.000902386 -0.00709382 0.00545231)
(-0.00409151 -0.0159356 0.00609603)
(-0.00365207 -0.0227158 0.00987639)
(-0.00338609 -0.0368537 0.0101758)
(-0.00483165 -0.0414666 0.00896035)
(-0.00964461 -0.0399811 0.00850732)
(-0.02551 -0.0231021 0.011842)
(-0.0309223 -0.0187717 0.0316523)
(-0.0399603 0.0243607 0.0293117)
(-0.0329992 -0.019046 0.00808359)
(-0.0240004 0.0609092 0.0521754)
(-0.0248938 -0.0631536 0.0234579)
(0.0779212 0.0559913 0.00966977)
(0.0671196 -0.229723 0.0602479)
(0.0896937 0.174827 -0.023131)
(-0.06468 -0.0656196 0.0226681)
(-0.140736 -0.211588 0.168891)
(-0.0639496 0.144297 0.0123111)
(-0.0966077 -0.0641283 0.0129463)
(-0.0708419 0.0800783 -0.0321227)
(-0.0642254 0.00417525 0.0221902)
(-0.0371879 0.00844953 0.0248598)
(-0.0182666 -0.0352944 0.0138485)
(0.00946169 -0.0381861 0.010064)
(0.025862 -0.0468138 0.0178201)
(0.0302761 -0.0506696 0.0196604)
(0.031102 -0.050746 0.0181744)
(0.0305094 -0.0472371 0.0119651)
(0.0318077 -0.0376155 -0.00196515)
(0.0344726 -0.0289905 -0.0118586)
(0.0370228 -0.0181662 -0.0220375)
(0.040889 -0.0011702 -0.0297922)
(0.048247 0.0274593 -0.0264713)
(0.0537746 0.053714 -0.0165048)