/*--------------------------------*- C++ -*----------------------------------*\
| =========                 |                                                 |
| \\      /  F ield         | OpenFOAM: The Open Source CFD Toolbox           |
|  \\    /   O peration     | Version:  2.3.0                                 |
|   \\  /    A nd           | Web:      www.OpenFOAM.org                      |
|    \\/     M anipulation  |                                                 |
\*---------------------------------------------------------------------------*/
FoamFile
{
    version     2.0;
    format      ascii;
    class       volVectorField;
    location    "6";
    object      U.airMean;
}
// * * * * * * * * * * * * * * * * * * * * * * * * * * * * * * * * * * * * * //

dimensions      [0 1 -1 0 0 0 0];

internalField   nonuniform List<vector> 
6144
(
(0.00519583 0.0208349 -0.00123262)
(0.00515943 0.0106967 -0.00159598)
(0.00422833 0.00912297 -0.00242781)
(0.00428235 0.0068053 -0.00251499)
(0.00367702 0.00577873 -0.00264911)
(0.00381893 0.00502348 -0.00269246)
(0.00349989 0.00438679 -0.00271514)
(0.00363369 0.00400686 -0.00273563)
(0.00345361 0.00349732 -0.0027522)
(0.00353545 0.00321967 -0.00277176)
(0.00342539 0.00280863 -0.00279633)
(0.00346049 0.00258026 -0.00281002)
(0.00339353 0.00226523 -0.00282735)
(0.00339841 0.00207548 -0.00283483)
(0.00335866 0.00184959 -0.002845)
(0.00334933 0.00169813 -0.00284887)
(0.00332569 0.0015431 -0.00285401)
(0.00331244 0.00142735 -0.00285609)
(0.00329686 0.00132242 -0.00285836)
(0.00328478 0.00123843 -0.00285944)
(0.00327351 0.001167 -0.00286029)
(0.00326385 0.00110832 -0.00286071)
(0.0032553 0.00105953 -0.00286092)
(0.00324779 0.00101921 -0.00286097)
(0.00324112 0.000985891 -0.00286092)
(0.00323517 0.000958023 -0.00286077)
(0.0032297 0.000935371 -0.00286059)
(0.00322482 0.000914297 -0.00286018)
(0.00322069 0.000906136 -0.00285988)
(0.00321475 0.000867098 -0.00285869)
(0.00321468 0.000917602 -0.0028593)
(0.00320393 0.000781183 -0.00285675)
(0.0032125 0.000999065 -0.00285874)
(0.0031918 0.000622266 -0.00285453)
(0.00321398 0.00117901 -0.00285735)
(0.00317906 0.000361183 -0.00285166)
(0.0032182 0.00147804 -0.00285384)
(0.00316857 -1.32138e-05 -0.00284713)
(0.00321848 0.00189183 -0.00284565)
(0.00317619 -0.000480956 -0.00283897)
(0.00320135 0.00240689 -0.00283345)
(0.00319528 -0.00103453 -0.00282247)
(0.0031729 0.00308627 -0.00282805)
(0.00320717 -0.00169449 -0.00279681)
(0.0031459 0.00402754 -0.00282809)
(0.00321028 -0.00248158 -0.0027673)
(0.0031164 0.00527775 -0.00282817)
(0.00318077 -0.00349071 -0.00277945)
(0.00295977 0.00689566 -0.00281342)
(0.00298474 -0.00493051 -0.00283414)
(0.00251046 0.00959751 -0.00279025)
(0.00375084 -0.00771203 -0.0028534)
(0.00586744 0.0101987 -0.00346453)
(0.00904548 -0.0258008 -0.00466682)
(0.010433 0.00338552 -0.00927415)
(0.0130517 -0.0454889 -0.00687046)
(0.0078924 0.0154534 -0.0181327)
(0.0183151 -0.0469525 0.0154871)
(-0.0130117 0.0944081 -0.0228783)
(0.0180126 0.0649541 0.0333594)
(0.0872597 0.355182 0.0323369)
(0.0485925 0.422499 0.0066121)
(0.051641 -0.0330367 0.0136517)
(0.0409833 -0.0733177 0.00686598)
(0.0306366 -0.0964621 0.00365589)
(0.0235515 -0.0691829 0.00369905)
(0.0164287 -0.0823178 0.00290005)
(0.0119655 -0.060074 0.00363767)
(0.00904074 -0.0695122 0.00388661)
(0.00673434 -0.0521657 0.00388659)
(0.00534844 -0.0579135 0.00385592)
(0.00439757 -0.0462138 0.00376487)
(0.00368673 -0.0481671 0.00360516)
(0.00310282 -0.0391309 0.00343144)
(0.00254098 -0.0387163 0.00319701)
(0.00190344 -0.0317176 0.00295061)
(0.00122648 -0.0277332 0.00274715)
(0.000592399 -0.0215524 0.00250555)
(1.72876e-05 -0.0149959 0.00189424)
(-0.000588398 -0.0077132 0.00141509)
(-0.000885915 -0.000351222 0.000824081)
(-0.00149494 0.00753301 0.000760476)
(-0.00118063 0.0148303 0.00117081)
(0.00120843 0.0196703 -0.000502828)
(0.002697 0.0220441 -0.0028269)
(0.00350983 0.0227449 -0.00358349)
(0.00409009 0.0221146 -0.0033168)
(0.00448792 0.0205442 -0.00335328)
(0.0047144 0.0196797 -0.00370164)
(0.00476413 0.0197079 -0.0039654)
(0.00473989 0.0195012 -0.00411407)
(0.00469185 0.0199916 -0.00417906)
(0.00463893 0.0204551 -0.00421181)
(0.00456339 0.0215972 -0.00422583)
(0.00450745 0.0239386 -0.00422406)
(0.00441921 0.0257941 -0.00419234)
(0.0118943 0.0226114 0.00218763)
(0.0121829 0.0115837 0.00152637)
(0.00917583 0.00999466 -0.000233648)
(0.0095389 0.00784856 -0.000390937)
(0.00793202 0.00680622 -0.000781561)
(0.0084385 0.00619637 -0.000769745)
(0.00758509 0.00538016 -0.000897603)
(0.00801461 0.00503802 -0.000854246)
(0.00749768 0.00435884 -0.000933778)
(0.00777264 0.00407095 -0.000899401)
(0.00743657 0.00352308 -0.00095638)
(0.00757798 0.00325745 -0.000937523)
(0.00735794 0.00284885 -0.000973582)
(0.00739869 0.00262522 -0.000962965)
(0.00726346 0.0023365 -0.000985527)
(0.00724833 0.00216018 -0.000981102)
(0.00716788 0.00196496 -0.000991545)
(0.00713193 0.00183023 -0.000990561)
(0.00708073 0.00170122 -0.000993844)
(0.00704386 0.00160234 -0.000993454)
(0.00700735 0.00151629 -0.00099342)
(0.00697627 0.00144658 -0.000992295)
(0.00694817 0.00138825 -0.000990789)
(0.00692324 0.00134009 -0.000988818)
(0.00690087 0.00130017 -0.000986514)
(0.00688074 0.00126684 -0.000983902)
(0.0068624 0.00123952 -0.000981096)
(0.0068457 0.00121488 -0.000977928)
(0.00683115 0.00120086 -0.000974442)
(0.0068136 0.00116218 -0.000970145)
(0.00680874 0.00120559 -0.000966732)
(0.00677978 0.00106616 -0.000961579)
(0.00679654 0.00128711 -0.000957788)
(0.00674085 0.000884232 -0.000952589)
(0.00679434 0.00148001 -0.000947261)
(0.0066965 0.000579901 -0.000942601)
(0.00679854 0.00181355 -0.000935613)
(0.00665022 0.000128632 -0.000931747)
(0.00679693 0.00230454 -0.000922256)
(0.00662112 -0.000472392 -0.000920689)
(0.00675488 0.0029363 -0.000914891)
(0.00661521 -0.00119593 -0.000902887)
(0.00666813 0.00372369 -0.000919145)
(0.00658392 -0.00204054 -0.00089133)
(0.0065727 0.00475003 -0.000924825)
(0.00649923 -0.00301896 -0.000901494)
(0.00652465 0.00606462 -0.000896269)
(0.00637149 -0.00431082 -0.000925957)
(0.00638251 0.00764679 -0.000732483)
(0.00610359 -0.00676055 -0.000972218)
(0.00632626 0.00957009 -0.000427411)
(0.00911691 -0.0152145 -0.00107001)
(0.0178353 0.00308378 0.00216073)
(0.0252558 -0.0444849 0.00144296)
(0.0250152 -0.0124106 0.000913714)
(0.0342508 -0.0847282 0.00340219)
(0.00770302 -0.0219405 0.00339971)
(-0.000940805 -0.150545 0.0313486)
(-0.0611763 0.0674615 -0.0925174)
(0.010876 0.034501 0.0267784)
(0.101954 0.353549 0.0777364)
(0.024893 0.446378 0.00178107)
(0.0241468 0.0111217 0.00189126)
(0.0167424 0.0508673 0.00710385)
(0.00766753 0.0109886 0.0101244)
(0.002037 0.0439285 0.00985537)
(-0.00202074 0.0220541 0.00982568)
(-0.00123292 0.0359785 0.0104425)
(0.00117508 0.0172861 0.0095209)
(0.000774838 0.0230249 0.00844143)
(0.0009455 0.00679515 0.00767104)
(0.000947894 0.00958915 0.00715467)
(0.000741781 -0.000972867 0.00666166)
(0.00048972 0.000769896 0.00610843)
(2.50952e-05 -0.00551487 0.00569728)
(-0.00085891 -0.00446339 0.00568984)
(-0.00215343 -0.00586474 0.00560434)
(-0.00332715 -0.00437158 0.00529675)
(-0.00358479 -0.000987329 0.00464464)
(-0.00360245 0.00331908 0.00391838)
(-0.00344774 0.00792013 0.00315462)
(-0.00279378 0.014089 0.00323185)
(-0.00178435 0.0177957 0.00362842)
(-4.66052e-05 0.0202584 0.00242514)
(0.00207259 0.0219674 0.000541064)
(0.0033474 0.0225994 -0.000146498)
(0.00427155 0.0218124 7.04441e-05)
(0.00507232 0.0204373 1.28971e-05)
(0.00561044 0.0195478 -0.000433758)
(0.00579089 0.0194384 -0.000888543)
(0.00577906 0.0193307 -0.00122164)
(0.00570187 0.0198104 -0.00143115)
(0.00565302 0.020278 -0.00154002)
(0.00554717 0.0214394 -0.00164872)
(0.00544657 0.0238394 -0.0017394)
(0.00530379 0.0258105 -0.0018316)
(0.0144781 0.0217847 0.00430682)
(0.015434 0.0106369 0.00362527)
(0.0107382 0.00882927 0.00126932)
(0.0117624 0.00750293 0.001245)
(0.00929023 0.00628871 0.000717552)
(0.0103443 0.00610659 0.000859425)
(0.0089813 0.00514231 0.000645064)
(0.00976142 0.00501478 0.000790985)
(0.00891794 0.00419625 0.000631053)
(0.00939212 0.00403282 0.000732272)
(0.00884385 0.00338404 0.000609894)
(0.00906759 0.0032108 0.000671653)
(0.00871591 0.00274322 0.000590501)
(0.00878157 0.00257317 0.00062438)
(0.00856152 0.00225912 0.000579145)
(0.00854075 0.00210942 0.00059636)
(0.00840841 0.00190798 0.000575091)
(0.00835352 0.00178893 0.000583379)
(0.00826966 0.00166187 0.000578035)
(0.00821123 0.00157248 0.000583567)
(0.00815149 0.00149116 0.000586417)
(0.00810077 0.0014275 0.000592598)
(0.00805411 0.00137375 0.000599165)
(0.00801224 0.00132995 0.000606889)
(0.00797415 0.00129372 0.000615279)
(0.0079394 0.00126363 0.000624295)
(0.00790733 0.00123881 0.000633751)
(0.00787768 0.00121647 0.000643697)
(0.00785019 0.00120344 0.000654101)
(0.00782198 0.00116971 0.000664936)
(0.00780492 0.00120795 0.000675575)
(0.00776394 0.0010805 0.000685948)
(0.00777276 0.0012872 0.000697557)
(0.00769787 0.00090595 0.000705558)
(0.00775469 0.00147643 0.000720376)
(0.00762218 0.000606817 0.000723619)
(0.00774685 0.00180601 0.000743176)
(0.00753978 0.000155236 0.000740976)
(0.00773961 0.00229743 0.00076754)
(0.00746494 -0.00046028 0.000757817)
(0.00769099 0.00295293 0.000785134)
(0.0074228 -0.00122857 0.000774374)
(0.00756551 0.00377569 0.000781297)
(0.00736352 -0.00212539 0.000770346)
(0.00739779 0.00483012 0.000756905)
(0.00723021 -0.00312643 0.000720036)
(0.00730929 0.00613371 0.000771999)
(0.00705961 -0.0045221 0.000639782)
(0.00734032 0.00748797 0.000914361)
(0.00719037 -0.0077408 0.000388639)
(0.0105167 0.00748144 0.00113953)
(0.0179546 -0.0224914 -0.000786996)
(0.0298946 -0.00270245 0.00555284)
(0.0377694 -0.0501293 0.00459019)
(0.0415705 -0.00896039 0.0115161)
(0.0564306 -0.0902918 0.0131633)
(0.024983 -0.00408063 0.0318578)
(0.0353783 -0.170578 0.0657133)
(-0.071377 0.103695 -0.0961745)
(0.0329783 0.0154736 0.000311513)
(0.148818 0.376992 0.103325)
(0.0638953 0.467794 0.0219496)
(0.0535211 0.0215258 0.0158013)
(0.0360773 0.109431 0.0041102)
(0.0257491 0.0441159 0.0160316)
(0.018313 0.0778901 0.014201)
(0.0136079 0.0458766 0.0156445)
(0.00770402 0.054578 0.0140432)
(0.00559239 0.0371751 0.011514)
(0.00329403 0.0441272 0.00982315)
(0.00166777 0.0297556 0.00797122)
(-0.000116767 0.0351036 0.00586417)
(-0.00103378 0.0254785 0.00462382)
(-0.00168346 0.0268626 0.00382489)
(-0.00212701 0.0211186 0.0040423)
(-0.00337397 0.0197733 0.00484466)
(-0.0054362 0.0145832 0.0054056)
(-0.00810232 0.0123323 0.00552801)
(-0.00951242 0.0123204 0.00443692)
(-0.00979923 0.013033 0.00307882)
(-0.00935312 0.0163423 0.0019613)
(-0.00840587 0.0209188 0.00260084)
(-0.00616594 0.0228617 0.00395376)
(-0.00262119 0.0239585 0.00304359)
(0.00019777 0.0244668 0.00191282)
(0.00191978 0.0238219 0.00158255)
(0.00307437 0.0225733 0.0019502)
(0.00401538 0.0210783 0.0019336)
(0.00468856 0.0198543 0.00143508)
(0.00499378 0.0193145 0.000886674)
(0.00503476 0.0195483 0.000512891)
(0.00494539 0.0201256 0.000273116)
(0.00481061 0.0200525 0.000169776)
(0.00459843 0.0215889 2.98632e-05)
(0.00446828 0.0236378 -0.000169927)
(0.00434266 0.0254193 -0.000380599)
(0.0152645 0.0209031 0.0053754)
(0.0174134 0.0102075 0.00504408)
(0.0103602 0.0077469 0.00207088)
(0.0126305 0.00756338 0.00213102)
(0.00913925 0.00583166 0.0016163)
(0.0109569 0.00636389 0.00183048)
(0.00902473 0.00499386 0.0015935)
(0.0102686 0.00523486 0.00178909)
(0.00905412 0.0040967 0.00160254)
(0.00978642 0.00414812 0.00173133)
(0.00898936 0.00327859 0.00159118)
(0.00934225 0.00324111 0.00166751)
(0.00883267 0.00264186 0.00157585)
(0.00894328 0.00256578 0.00161859)
(0.00863034 0.00218499 0.00156867)
(0.00861324 0.00209018 0.00159258)
(0.00842312 0.00186298 0.0015705)
(0.00835342 0.0017704 0.00158421)
(0.00823479 0.00163874 0.00157923)
(0.00815629 0.00156248 0.00158869)
(0.00807271 0.00148458 0.00159346)
(0.00800252 0.00142808 0.00160283)
(0.00793702 0.00137902 0.00161211)
(0.00787798 0.00133981 0.00162281)
(0.00782379 0.00130726 0.00163414)
(0.00777395 0.00128046 0.00164615)
(0.00772764 0.0012583 0.00165863)
(0.00768444 0.00123873 0.00167158)
(0.00764378 0.00122649 0.00168487)
(0.00760398 0.00119826 0.00169866)
(0.0075754 0.00122992 0.00171264)
(0.00752213 0.00111727 0.00172645)
(0.00752467 0.00130517 0.00174181)
(0.00743174 0.000950796 0.00175375)
(0.00749443 0.00148907 0.00177335)
(0.00733003 0.000656792 0.00178029)
(0.00747967 0.00181389 0.00180624)
(0.00721728 0.000201995 0.00180472)
(0.00746918 0.00230554 0.00183909)
(0.0071037 -0.000435497 0.00182457)
(0.00742545 0.00298071 0.00186344)
(0.0070071 -0.00126481 0.00182941)
(0.00727529 0.00384216 0.00185053)
(0.00689284 -0.00225578 0.00178587)
(0.00700766 0.00492735 0.00177545)
(0.00670623 -0.00329245 0.00167038)
(0.00690403 0.00625404 0.00174959)
(0.00666958 -0.0046307 0.00156352)
(0.00731396 0.00743063 0.00205167)
(0.00817146 -0.00872 0.00144948)
(0.0165396 0.00416787 0.00185238)
(0.0259212 -0.0246532 0.00193606)
(0.0373156 -0.00222819 0.0146311)
(0.0429367 -0.0448459 0.0185197)
(0.0438704 0.0116781 0.0333937)
(0.0550188 -0.0722292 0.0380241)
(0.0173302 0.0672418 0.0873047)
(0.0533891 -0.205542 0.116695)
(-0.0755223 0.233957 -0.097102)
(0.0420208 -0.0426535 0.026387)
(0.128284 0.44366 0.114404)
(0.0462101 0.556468 0.0155803)
(0.0321678 0.33934 0.010357)
(0.0118169 0.395967 0.00137479)
(0.0108707 0.312408 0.0147883)
(-0.000506135 0.289371 0.0056708)
(-0.000616531 0.214366 0.00584692)
(-0.00416077 0.183524 0.00535737)
(-0.00300982 0.145503 0.00343392)
(-0.00192126 0.134899 0.00403342)
(-0.000689901 0.106982 0.00325052)
(-3.10794e-05 0.0974015 0.00273976)
(0.000716162 0.0753496 0.00219804)
(0.000663481 0.066628 0.00188405)
(0.000121217 0.055374 0.00216903)
(-0.00166065 0.0510933 0.00277395)
(-0.00383009 0.0446352 0.00267862)
(-0.00745691 0.0382459 0.00349706)
(-0.00980486 0.0338311 0.00265502)
(-0.0110909 0.0312949 0.00149392)
(-0.0110522 0.0309348 0.00137388)
(-0.00918755 0.0313664 0.00269724)
(-0.00576312 0.029978 0.00341225)
(-0.00266321 0.028361 0.00276127)
(-0.000643731 0.0273751 0.00241811)
(0.000510827 0.0259659 0.00242613)
(0.00127401 0.0238964 0.00259828)
(0.00187271 0.0221105 0.0022859)
(0.00225117 0.0206577 0.0016792)
(0.00235391 0.0197586 0.00114391)
(0.00221394 0.0197545 0.000784046)
(0.00216 0.0202262 0.000508495)
(0.00222266 0.0197522 0.000416277)
(0.00221178 0.0207348 0.000197688)
(0.00234721 0.0230999 -6.48233e-05)
(0.00222647 0.0246214 -0.000326675)
(0.0142786 0.0195874 0.00611352)
(0.0185661 0.0103327 0.00617333)
(0.0084362 0.00700188 0.00268771)
(0.0123728 0.00818935 0.00287543)
(0.00771549 0.00557422 0.00220416)
(0.0105528 0.00693522 0.00255061)
(0.00801049 0.00488626 0.00223571)
(0.00983689 0.0055892 0.00255001)
(0.008201 0.00396784 0.00229948)
(0.00924799 0.00430683 0.00250214)
(0.00815197 0.00312613 0.0023172)
(0.00866153 0.00328256 0.00243703)
(0.00795279 0.00250373 0.0023165)
(0.00813277 0.00255327 0.00238614)
(0.00769937 0.00208164 0.00231939)
(0.00769922 0.00206607 0.00235926)
(0.00744085 0.00179924 0.00233169)
(0.00736159 0.00175017 0.00235617)
(0.00720175 0.00160836 0.00235149)
(0.00710462 0.00155182 0.00236845)
(0.00699497 0.00147632 0.00237644)
(0.00690535 0.00142955 0.00239175)
(0.0068202 0.00138575 0.00240605)
(0.00674338 0.00135226 0.00242242)
(0.00667225 0.0013242 0.00243943)
(0.00660634 0.00130134 0.00245736)
(0.00654459 0.00128237 0.00247586)
(0.00648647 0.00126614 0.00249486)
(0.00643117 0.00125472 0.00251428)
(0.00637752 0.00123168 0.00253398)
(0.00633508 0.00125719 0.00255386)
(0.00626928 0.00116036 0.00257306)
(0.0062598 0.00132668 0.00259547)
(0.00615103 0.00100294 0.00261176)
(0.00620798 0.00150198 0.0026394)
(0.00601942 0.000716573 0.00264866)
(0.00617663 0.00181788 0.00268525)
(0.00587438 0.000262717 0.00268186)
(0.00615689 0.00229947 0.00272999)
(0.00572296 -0.00039089 0.0027059)
(0.00612007 0.00296362 0.0027614)
(0.00557208 -0.00127558 0.00270121)
(0.00598196 0.00382156 0.00273751)
(0.00538168 -0.00238868 0.00261337)
(0.0056069 0.00494307 0.00259471)
(0.00505782 -0.00342053 0.00240656)
(0.00519986 0.00643331 0.00245652)
(0.00491317 -0.00469943 0.00218236)
(0.00608623 0.00730742 0.0027349)
(0.00912619 -0.00984662 0.00166405)
(0.0201798 0.0032762 0.00145025)
(0.0300239 -0.0185164 0.00501854)
(0.0387133 0.00830497 0.019597)
(0.038472 -0.0272333 0.0269662)
(0.0343945 0.0278092 0.0495718)
(0.0331465 -0.0436967 0.0555387)
(0.0415571 0.104259 0.0947491)
(0.0430539 -0.17276 0.116976)
(-0.0434753 0.346087 -0.0391032)
(0.0393052 -0.0768463 0.0395819)
(0.1082 0.477465 0.133507)
(0.0334492 0.588288 0.0214359)
(0.0244964 0.490685 0.0135198)
(0.0128492 0.556117 -0.000457318)
(0.0161184 0.532629 0.00693819)
(0.00954721 0.552083 0.00423143)
(0.00986102 0.529254 0.00705255)
(0.00723252 0.532053 0.00660915)
(0.00829309 0.506519 0.00627331)
(0.00741501 0.493557 0.00604357)
(0.00880344 0.461752 0.00481204)
(0.007771 0.44369 0.0040647)
(0.00833696 0.41829 0.00273674)
(0.00694808 0.3878 0.00186677)
(0.00620229 0.337807 0.000729622)
(0.00355273 0.275894 0.000148346)
(0.00118669 0.222717 -0.000392222)
(-0.00300031 0.165666 -8.14548e-05)
(-0.00681783 0.116597 0.000658758)
(-0.00938617 0.0818792 0.00124546)
(-0.00976669 0.0612658 0.00175679)
(-0.00876136 0.0484797 0.00255965)
(-0.00682383 0.041243 0.00245948)
(-0.00523732 0.0352792 0.00210592)
(-0.00386917 0.0322211 0.00194258)
(-0.00290542 0.0296813 0.00134528)
(-0.00177163 0.0267515 0.000768633)
(-0.000956209 0.0246181 -0.000518223)
(-0.000492618 0.0228184 -0.00137237)
(-0.000482501 0.0211932 -0.00161443)
(-0.000637901 0.0204824 -0.00155984)
(-0.000683436 0.0202103 -0.00152032)
(-0.000733749 0.0199647 -0.00149152)
(-0.000987663 0.0216073 -0.00157958)
(-0.0013098 0.0237175 -0.00115386)
(-0.00206515 0.0249506 -0.00122289)
(0.0115069 0.0180071 0.00674658)
(0.01906 0.0110638 0.00726717)
(0.0052748 0.00635983 0.0034957)
(0.0112633 0.00950685 0.00373113)
(0.0054019 0.00533942 0.00301897)
(0.00927899 0.00781035 0.00346693)
(0.00614077 0.0046899 0.00309738)
(0.00847877 0.00604252 0.00353521)
(0.00647145 0.00373397 0.00325165)
(0.00775112 0.00448432 0.00353782)
(0.00641576 0.00287752 0.00333966)
(0.00703685 0.00331066 0.00350797)
(0.00618693 0.00228927 0.0033873)
(0.00642525 0.00251804 0.00348743)
(0.00591481 0.00192352 0.00342655)
(0.00594813 0.00201548 0.00348886)
(0.00565312 0.00169826 0.00346929)
(0.00558886 0.00170813 0.00351016)
(0.00541281 0.00155064 0.00351665)
(0.00531951 0.00152431 0.00354729)
(0.0052035 0.00145101 0.00356478)
(0.00511304 0.00141807 0.00359146)
(0.00502478 0.00138088 0.00361551)
(0.00494552 0.00135496 0.00364176)
(0.00487179 0.00133259 0.00366824)
(0.0048034 0.00131475 0.0036959)
(0.00473922 0.00130004 0.00372385)
(0.00467868 0.00128768 0.00375156)
(0.00462119 0.00127836 0.00377909)
(0.00456477 0.0012609 0.00380638)
(0.00451932 0.00128166 0.00383436)
(0.00445437 0.00120145 0.00385991)
(0.00444171 0.00134578 0.00389105)
(0.00433411 0.00105712 0.00391244)
(0.0043886 0.00151326 0.00394882)
(0.00420118 0.000783785 0.00396253)
(0.00435836 0.00181935 0.00400731)
(0.00405498 0.000340012 0.00400793)
(0.0043445 0.00228884 0.00406281)
(0.00389967 -0.000314073 0.00403969)
(0.00431795 0.00293158 0.00409792)
(0.00371984 -0.0012287 0.00402835)
(0.00417686 0.00373711 0.00406003)
(0.00337287 -0.00247702 0.00389269)
(0.00356998 0.00470969 0.00384054)
(0.00269415 -0.00389805 0.00360337)
(0.00330308 0.00574448 0.00377781)
(0.00347163 -0.00575651 0.0036788)
(0.00600533 0.00665964 0.00427883)
(0.0108101 -0.0102586 0.00214695)
(0.0212649 0.00828191 0.00264612)
(0.0271963 -0.00414727 0.00844033)
(0.0361451 0.023947 0.0202319)
(0.0385057 -0.00593292 0.0302039)
(0.0288479 0.0409931 0.0489307)
(0.0191298 -0.0348401 0.0485834)
(0.0408982 0.0851917 0.0637214)
(0.0351798 -0.07764 0.0593409)
(0.0293166 0.340532 0.0418505)
(0.0285953 -0.0765295 0.0376996)
(0.0566493 0.500915 0.130928)
(0.0128016 0.61176 0.014208)
(0.0103839 0.555321 0.0100683)
(0.000754698 0.619677 -0.000200461)
(0.00172294 0.608501 0.00706039)
(0.000114502 0.630624 0.00716248)
(0.00326761 0.61598 0.0109738)
(0.00475266 0.623449 0.0109853)
(0.00820291 0.609481 0.0111731)
(0.00915272 0.60478 0.0100141)
(0.0111484 0.578036 0.00882474)
(0.0109358 0.566462 0.00749036)
(0.0109097 0.558865 0.00589365)
(0.00966812 0.562599 0.00477014)
(0.00807063 0.555611 0.00370355)
(0.00553562 0.556854 0.00296437)
(0.00332208 0.552967 0.00233024)
(0.00133814 0.542378 0.0027193)
(-0.000450713 0.526779 0.00348694)
(-0.00216882 0.501058 0.0035238)
(-0.00295832 0.469351 0.00293076)
(-0.00355822 0.435433 0.00265876)
(-0.00310654 0.403159 0.0022163)
(-0.00279586 0.367682 0.00215617)
(-0.00223863 0.335532 0.00170692)
(-0.00202734 0.311759 0.00143634)
(-0.00147127 0.280244 0.00060072)
(-0.00108641 0.233546 -0.00013574)
(-0.000866495 0.148808 -0.000105708)
(-0.001234 0.0905043 -0.000123083)
(-0.00212836 0.0410191 0.000580158)
(-0.00304179 0.0269115 0.000635002)
(-0.00435193 0.0210498 0.00052475)
(-0.00512139 0.0209744 -0.000668655)
(-0.0040428 0.0219591 -0.0025644)
(-0.00459213 0.0232545 -0.00689941)
(0.00630566 0.0158514 0.00780341)
(0.0187167 0.0127029 0.00815286)
(5.57658e-05 0.00560173 0.00429566)
(0.00909209 0.0114423 0.00460083)
(0.00159148 0.00484027 0.00395565)
(0.00684088 0.00886341 0.00444722)
(0.00288525 0.00425987 0.00416642)
(0.00583053 0.00650249 0.00465472)
(0.00328762 0.00334727 0.00443066)
(0.00483689 0.00463844 0.00474974)
(0.00311264 0.00255932 0.00457583)
(0.0038375 0.00333843 0.00476511)
(0.00271664 0.002066 0.00464733)
(0.00298947 0.00250426 0.00476195)
(0.002305 0.00178474 0.00469719)
(0.00233901 0.00199484 0.00476909)
(0.00194114 0.00162166 0.00474446)
(0.00186419 0.0016935 0.00479176)
(0.00163078 0.00151606 0.00479408)
(0.00151744 0.0015205 0.00482796)
(0.00137297 0.00144478 0.00484544)
(0.00126548 0.00142372 0.00487397)
(0.00116136 0.00139045 0.00489814)
(0.00107054 0.00137068 0.00492514)
(0.000987389 0.00135267 0.00495169)
(0.000911102 0.00133885 0.00497814)
(0.000840692 0.00132761 0.00500447)
(0.000776552 0.00131816 0.00503167)
(0.000717622 0.00131148 0.00505967)
(0.000661478 0.00129886 0.00508812)
(0.000614212 0.00131543 0.0051175)
(0.000552984 0.00125065 0.00514255)
(0.000538905 0.00137427 0.00517511)
(0.000437334 0.0011199 0.00519432)
(0.000492594 0.00153408 0.00523403)
(0.00031247 0.000861199 0.00524357)
(0.000477338 0.00182973 0.00529492)
(0.000181035 0.000426716 0.00528993)
(0.000491682 0.00228089 0.00535689)
(5.18943e-05 -0.000230848 0.00532752)
(0.000528808 0.00288505 0.00541261)
(-7.57809e-05 -0.00120131 0.00533578)
(0.000547354 0.00355671 0.00542174)
(-0.000280279 -0.00269381 0.00526543)
(0.000227095 0.00408226 0.00533555)
(-0.000463088 -0.00398018 0.005091)
(-0.000152277 0.00576039 0.0048278)
(-0.00083268 -0.00498773 0.00441323)
(0.000763623 0.0067752 0.00423567)
(0.00507196 -0.0093711 0.00176764)
(0.0124906 0.0160491 0.00400327)
(0.0194035 0.00634724 0.00851974)
(0.0310661 0.0421929 0.0171197)
(0.0313662 0.0152154 0.022665)
(0.0226045 0.0667886 0.0405778)
(0.0100782 -0.0235067 0.0373884)
(0.00569513 0.086657 0.0482527)
(0.00478329 -0.105069 0.0333897)
(0.0347813 0.321185 0.0539585)
(0.015715 -0.0750631 0.038717)
(0.0235036 0.510295 0.105101)
(-0.00922139 0.61286 0.0093277)
(-0.00945593 0.568462 0.000474502)
(-0.0127469 0.634204 -0.00139711)
(-0.00583674 0.607535 0.0104858)
(-0.00109199 0.627999 0.0122713)
(0.00427526 0.612832 0.0169352)
(0.00688907 0.616603 0.0163016)
(0.0101641 0.602595 0.0174872)
(0.00998081 0.587831 0.0159485)
(0.0117718 0.574009 0.0155039)
(0.0108811 0.54337 0.0136534)
(0.0112503 0.537785 0.0132283)
(0.0095814 0.531292 0.0112602)
(0.00839733 0.533656 0.0105574)
(0.00558193 0.529518 0.00845205)
(0.0030319 0.521547 0.00685756)
(0.000248682 0.515536 0.00406031)
(-0.00131737 0.517802 0.00208769)
(-0.00282348 0.522008 0.000513124)
(-0.00322735 0.526754 -0.000739841)
(-0.00445582 0.538074 -0.00246278)
(-0.00516994 0.566955 -0.0041527)
(-0.00548532 0.567814 -0.00554026)
(-0.00525027 0.562997 -0.0069441)
(-0.0047603 0.558663 -0.00794316)
(-0.00412017 0.552293 -0.00899229)
(-0.00362732 0.542641 -0.00911004)
(-0.00368611 0.533973 -0.00913524)
(-0.00418929 0.526019 -0.00900941)
(-0.00523478 0.519597 -0.00883256)
(-0.00628214 0.510657 -0.00786991)
(-0.00762612 0.483715 -0.00755079)
(-0.00819168 0.420463 -0.00603651)
(-0.00842866 0.270315 -0.00549412)
(-0.00971039 0.178007 -0.0112076)
(-0.00103259 0.0107118 0.00771072)
(0.0178498 0.0156297 0.00775543)
(-0.00545489 0.0046309 0.004868)
(0.00715565 0.0141857 0.0047879)
(-0.00228554 0.00421951 0.00487914)
(0.00429367 0.0101346 0.00508368)
(-0.000590427 0.00362438 0.00528477)
(0.0028288 0.00691081 0.00566041)
(-0.000204436 0.00271793 0.00570343)
(0.00147896 0.00467582 0.00598649)
(-0.000512816 0.00200474 0.00596584)
(0.000275096 0.00322694 0.00617172)
(-0.000986624 0.00163436 0.00615496)
(-0.000656295 0.00236419 0.00630737)
(-0.00141217 0.00148484 0.00631173)
(-0.00132587 0.00187602 0.00642843)
(-0.00174445 0.00143622 0.00645353)
(-0.00177776 0.00161079 0.00654469)
(-0.00199784 0.00141994 0.00658469)
(-0.0020717 0.00147736 0.00665712)
(-0.00218627 0.00141062 0.00670646)
(-0.00225616 0.00141621 0.00676607)
(-0.00232358 0.00139755 0.00681729)
(-0.00237497 0.00139338 0.00687092)
(-0.00241742 0.00138833 0.00692265)
(-0.00245072 0.00138589 0.00697414)
(-0.00247693 0.00138399 0.00702468)
(-0.00249897 0.00138278 0.00707368)
(-0.00251789 0.00138266 0.00712104)
(-0.00253319 0.00137819 0.00716765)
(-0.00253996 0.00139507 0.0072133)
(-0.00255691 0.00134889 0.00725556)
(-0.00253073 0.00145687 0.00730301)
(-0.00258652 0.00124378 0.00733863)
(-0.00248587 0.00161761 0.00739255)
(-0.00262238 0.00101463 0.00741872)
(-0.00240211 0.00191552 0.00748084)
(-0.00265823 0.00061341 0.00749518)
(-0.00227972 0.00237191 0.00756744)
(-0.00268156 -6.3876e-06 0.00756573)
(-0.0021156 0.00297491 0.00765086)
(-0.00268803 -0.000931433 0.00762298)
(-0.00197234 0.00359476 0.00769145)
(-0.00287771 -0.00240152 0.00757302)
(-0.00328223 0.0041178 0.00727485)
(-0.00520995 -0.00460328 0.00655532)
(-0.00409733 0.00278825 0.00565838)
(-0.00226995 -0.0104313 0.00492674)
(0.00306245 -0.00129667 0.00377532)
(0.00391968 -0.014826 0.0017965)
(0.00702286 0.0151336 0.00579746)
(0.0116236 0.0145337 0.0107347)
(0.0222202 0.0555869 0.0153441)
(0.0281253 0.0429001 0.019319)
(0.0390268 0.0871612 0.0367608)
(0.0324324 0.0196792 0.0445613)
(0.050273 0.0931276 0.0667869)
(0.0373945 -0.107079 0.0647555)
(0.0227233 0.259465 0.0393374)
(-0.00455904 -0.0275037 0.0224418)
(-0.041514 0.572566 0.0523897)
(-0.0342846 0.667585 -0.00520186)
(-0.0277396 0.601862 0.000193141)
(-0.0201849 0.655048 0.00130168)
(-0.00931714 0.635531 0.00957848)
(-0.000456315 0.652311 0.0117326)
(0.00587341 0.630586 0.014756)
(0.0104247 0.618763 0.0164811)
(0.0145351 0.610232 0.0203595)
(0.0170119 0.604834 0.0222889)
(0.0184735 0.587818 0.0236241)
(0.0187916 0.577018 0.023324)
(0.0191988 0.559386 0.0236307)
(0.0191634 0.5307 0.0231671)
(0.0190707 0.501454 0.0229336)
(0.0182722 0.495705 0.0219324)
(0.0166273 0.487419 0.0214106)
(0.01441 0.479838 0.020283)
(0.0116741 0.468834 0.0189147)
(0.00868464 0.45693 0.0172711)
(0.00609903 0.453728 0.0157866)
(0.00439427 0.449651 0.0145491)
(0.00347568 0.447581 0.0139143)
(0.00314545 0.445803 0.0132636)
(0.00321182 0.445232 0.0122899)
(0.00345659 0.444409 0.0109002)
(0.00297342 0.443632 0.00904922)
(0.00275506 0.438784 0.00726499)
(0.0023812 0.427602 0.00473113)
(0.00169936 0.409175 0.00145785)
(4.30906e-05 0.39009 -0.00345171)
(-0.00190427 0.383237 -0.00986314)
(-0.00590439 0.405753 -0.0204118)
(-0.0113507 0.458243 -0.0363973)
(-0.0169973 0.468277 -0.0557006)
(-0.0197632 0.424876 -0.0724038)
(-0.0106518 0.00689616 -0.00297159)
(0.0163414 0.0206045 0.00600665)
(-0.0115208 0.0029551 0.000291242)
(0.0051917 0.0171499 0.00114077)
(-0.00614096 0.00297013 0.00183102)
(0.00165187 0.0111531 0.00211674)
(-0.00442344 0.00263349 0.00269861)
(-0.000562809 0.00719751 0.00316983)
(-0.00435856 0.00204814 0.0033345)
(-0.00248584 0.00473202 0.00364967)
(-0.00492442 0.00157321 0.00367669)
(-0.00411264 0.00321083 0.00386753)
(-0.00560979 0.00138309 0.00389809)
(-0.00530371 0.0023401 0.004031)
(-0.00618884 0.0013528 0.00406599)
(-0.00612584 0.00187406 0.00417247)
(-0.00662017 0.00139193 0.00420933)
(-0.00667309 0.00163842 0.00429677)
(-0.00693874 0.0014374 0.00433915)
(-0.00703222 0.00153261 0.0044096)
(-0.00717361 0.00147265 0.004458)
(-0.00726082 0.0014968 0.00451619)
(-0.00734502 0.00148842 0.00456594)
(-0.00741077 0.0014939 0.00461761)
(-0.00746614 0.00149658 0.00466702)
(-0.00751137 0.00150104 0.00471572)
(-0.00754806 0.00150606 0.00476323)
(-0.00757638 0.00151147 0.00480972)
(-0.00759704 0.00151692 0.00485522)
(-0.00761281 0.00151829 0.00489972)
(-0.00762192 0.00153411 0.00494274)
(-0.00763616 0.00150091 0.00498486)
(-0.00761339 0.00159268 0.00502645)
(-0.00766262 0.00141175 0.00506671)
(-0.00756633 0.00174323 0.00510796)
(-0.00769228 0.00120129 0.00514905)
(-0.00747523 0.00202404 0.00518748)
(-0.00771563 0.000818453 0.00523197)
(-0.00733844 0.00245217 0.00526849)
(-0.00771474 0.000200246 0.00531982)
(-0.00714207 0.00297166 0.00536255)
(-0.00767266 -0.00078079 0.00543067)
(-0.00700233 0.00331015 0.00545695)
(-0.00791863 -0.00255432 0.00542006)
(-0.0068328 0.00274344 0.00480605)
(-0.00495942 -0.00626926 0.00355964)
(-0.000786981 0.00152733 0.00310564)
(1.38508e-05 -0.00646243 0.000393548)
(-0.00227518 0.0150222 -0.000345575)
(-0.00944142 0.0153932 0.00371058)
(-0.013872 0.0434855 0.00918999)
(-0.00878425 0.0410823 0.018043)
(0.000291783 0.0725467 0.0238091)
(0.00873709 0.0551746 0.0195724)
(0.0151414 0.106621 0.0303272)
(0.0229754 0.06308 0.0386075)
(0.0410449 0.137657 0.0549986)
(0.0428532 -0.0104326 0.0685011)
(0.0381782 0.35543 0.0375337)
(-0.0346496 -0.0904704 0.0134436)
(-0.0966314 0.547064 0.0362609)
(-0.0408156 0.657032 0.000235575)
(-0.0349565 0.597755 0.00166544)
(-0.0161346 0.649329 0.00150509)
(-0.00890443 0.614415 0.00593956)
(0.000145137 0.630793 0.00609072)
(0.00541595 0.611201 0.00684216)
(0.0113894 0.619557 0.00701677)
(0.0123962 0.60948 0.00721797)
(0.0138531 0.613241 0.00662637)
(0.013563 0.60724 0.0065344)
(0.0146495 0.610372 0.0065654)
(0.0148131 0.60709 0.00708166)
(0.0159603 0.607092 0.0072091)