/*--------------------------------*- C++ -*----------------------------------*\
| =========                 |                                                 |
| \\      /  F ield         | OpenFOAM: The Open Source CFD Toolbox           |
|  \\    /   O peration     | Version:  2.3.0                                 |
|   \\  /    A nd           | Web:      www.OpenFOAM.org                      |
|    \\/     M anipulation  |                                                 |
\*---------------------------------------------------------------------------*/
FoamFile
{
    version     2.0;
    format      ascii;
    class       volVectorField;
    location    "6";
    object      U.air;
}
// * * * * * * * * * * * * * * * * * * * * * * * * * * * * * * * * * * * * * //

dimensions      [0 1 -1 0 0 0 0];

internalField   nonuniform List<vector> 
6144
(
(0.00896757 0.0250481 -0.00160653)
(0.00857341 0.00939703 -0.00179719)
(0.00616959 0.00766702 -0.00284272)
(0.00603766 0.00525778 -0.00294738)
(0.00521348 0.00442745 -0.00307353)
(0.00525328 0.00395628 -0.00312918)
(0.00492041 0.00356582 -0.00318628)
(0.005065 0.00333331 -0.0032225)
(0.0048731 0.00295301 -0.00330221)
(0.00501669 0.00274849 -0.00333601)
(0.00487499 0.00234731 -0.00341851)
(0.00497655 0.00217331 -0.00344491)
(0.0048693 0.00180708 -0.00350772)
(0.00492339 0.00166896 -0.00352848)
(0.00485077 0.00138573 -0.00356933)
(0.00486905 0.00127195 -0.00358397)
(0.00482985 0.00108142 -0.00360886)
(0.00482694 0.000982836 -0.00362031)
(0.00480676 0.000865588 -0.00363468)
(0.00479671 0.0007851 -0.00364397)
(0.0047846 0.000710274 -0.00365294)
(0.00477531 0.000650648 -0.00366012)
(0.00476701 0.000599164 -0.00366646)
(0.00476007 0.000555267 -0.003672)
(0.00475423 0.000516623 -0.00367696)
(0.00474943 0.000481668 -0.00368146)
(0.00474554 0.000448836 -0.00368563)
(0.00474252 0.000416782 -0.00368955)
(0.00474028 0.000384166 -0.00369333)
(0.00473881 0.00034962 -0.00369718)
(0.00473837 0.000313475 -0.00370119)
(0.00473868 0.00026186 -0.00370492)
(0.00474239 0.000244998 -0.00370888)
(0.0047377 0.000105705 -0.00371232)
(0.00475634 0.000185336 -0.00371742)
(0.00474193 -0.000129229 -0.00372097)
(0.00477205 7.27479e-05 -0.00373193)
(0.00478089 -0.000436862 -0.00372916)
(0.00476971 -0.000132869 -0.00374473)
(0.00485108 -0.000856888 -0.00374621)
(0.00479162 -0.000515187 -0.00376496)
(0.00492085 -0.00145025 -0.00376316)
(0.00484398 -0.00116408 -0.00379101)
(0.00500946 -0.00232176 -0.00379401)
(0.00493065 -0.00221372 -0.00383561)
(0.00509409 -0.00361232 -0.00386801)
(0.0050697 -0.0037709 -0.00396642)
(0.00526444 -0.00555245 -0.00410361)
(0.005259 -0.00523878 -0.00443421)
(0.00614752 -0.00895077 -0.00505623)
(0.00579248 -0.00420903 -0.00592236)
(0.00848899 -0.0154012 -0.0071532)
(0.0087024 -0.000946157 -0.00761901)
(0.00666015 -0.0296554 -0.0071972)
(0.00755771 0.0188744 -0.00556297)
(-0.00857459 -0.0461199 -0.0130415)
(0.00270633 0.0710219 0.00126404)
(0.00425091 -0.0526457 -0.0248282)
(-0.0307456 0.121785 -0.0905866)
(0.0558376 0.0479009 -0.11125)
(0.0896575 0.323513 -0.00247641)
(0.0429703 0.351381 -0.0015803)
(0.028574 -0.13443 0.000476295)
(0.0304952 -0.147286 0.00271258)
(0.0260988 -0.148287 0.00386602)
(0.0175706 -0.15467 0.00568908)
(0.0107714 -0.159081 0.00673675)
(0.00671072 -0.161132 0.00619794)
(0.0040685 -0.160606 0.00501127)
(0.00184996 -0.158206 0.00418388)
(-5.02274e-05 -0.154082 0.00293937)
(-0.00114828 -0.148304 0.00228153)
(-0.0019545 -0.142885 0.0013102)
(-0.00214278 -0.135578 -0.000744204)
(-0.00164887 -0.127698 -0.000628568)
(-0.00148507 -0.122162 -0.00189224)
(-0.001105 -0.111659 -0.00417108)
(-0.000762353 -0.0991295 -0.00226916)
(-0.00137381 -0.0914519 -0.00525414)
(-0.00307492 -0.0773785 -0.0130379)
(-0.00321801 -0.0468541 -0.0106147)
(-0.000751632 -0.0231989 -0.0016158)
(0.00170285 -0.0126793 0.00228515)
(0.00340158 -0.0101678 0.00239508)
(0.00500584 -0.0120517 0.00149486)
(0.00589009 -0.0154249 -0.000670949)
(0.00546556 -0.0168261 -0.00298702)
(0.00505991 -0.0161455 -0.00426141)
(0.00498371 -0.0139625 -0.0047461)
(0.00521615 -0.0111387 -0.00480762)
(0.00554617 -0.00844577 -0.00467914)
(0.00573421 -0.00630493 -0.00460393)
(0.0058361 -0.00466495 -0.00456945)
(0.00585357 -0.00292086 -0.00456237)
(0.0058884 -0.000199441 -0.00456305)
(0.00584014 0.00283466 -0.00456457)
(0.0182731 0.0244871 0.00335056)
(0.0180954 0.0101546 0.00263132)
(0.0121692 0.00859312 -8.38212e-05)
(0.012313 0.00692049 -0.000302834)
(0.0103893 0.00613086 -0.000773701)
(0.0107648 0.00598044 -0.000734694)
(0.0101448 0.00535558 -0.000885088)
(0.0105519 0.00512691 -0.000794491)
(0.0101951 0.00451182 -0.000955317)
(0.0105686 0.00421537 -0.000872012)
(0.0102411 0.00360854 -0.00103171)
(0.0105231 0.00333989 -0.000979195)
(0.0102324 0.00281558 -0.00110359)
(0.0103996 0.00259512 -0.00107659)
(0.0101824 0.00219874 -0.00115947)
(0.0102529 0.00203129 -0.00114671)
(0.0101196 0.0017568 -0.00119619)
(0.0101238 0.001624 -0.00119639)
(0.0100537 0.00145185 -0.00121853)
(0.0100294 0.00134497 -0.00122346)
(0.00999041 0.00123814 -0.00123186)
(0.00996334 0.00115703 -0.00123568)
(0.00993771 0.0010858 -0.00123845)
(0.00991649 0.00102629 -0.00123954)
(0.00989837 0.000974524 -0.00123952)
(0.00988337 0.00092878 -0.00123849)
(0.00987117 0.000886959 -0.00123665)
(0.00986157 0.000847388 -0.00123416)
(0.00985457 0.00080855 -0.00123113)
(0.0098504 0.000768386 -0.00122734)
(0.00984945 0.000726491 -0.00122191)
(0.00985082 0.000672665 -0.0012152)
(0.00985943 0.000643844 -0.00120745)
(0.00985775 0.000513348 -0.00120047)
(0.00989257 0.000584369 -0.00119056)
(0.00988233 0.000253139 -0.00118557)
(0.00993949 0.000513651 -0.00117462)
(0.00996529 -0.000115342 -0.00116656)
(0.00998373 0.000365274 -0.00115908)
(0.0101226 -0.000580226 -0.00113367)
(0.0100602 3.72586e-05 -0.00116006)
(0.0103377 -0.00121002 -0.00108344)
(0.010202 -0.000527287 -0.00114458)
(0.0106046 -0.00208804 -0.00103459)
(0.0104433 -0.00145808 -0.0011202)
(0.0108891 -0.0032885 -0.00100943)
(0.0108356 -0.00274747 -0.00113808)
(0.0112965 -0.00485685 -0.00114345)
(0.0113083 -0.00293156 -0.0015449)
(0.0120928 -0.00649141 -0.0025452)
(0.0128008 0.00403036 -0.00388907)
(0.0158439 -0.00340844 -0.00577147)
(0.0168023 0.0246683 -0.00633355)
(0.00768482 -0.000739563 -0.00159045)
(0.0120848 0.0445566 0.00279172)
(0.00800465 -0.0315263 -0.000672435)
(-0.0291904 0.0327556 0.00850778)
(-0.0134245 -0.00673088 -0.0146416)
(0.0212071 0.179029 -0.0153244)
(0.165578 0.000684005 -0.0592168)
(0.0948319 0.358056 -0.00103394)
(-0.00356029 0.428103 0.00837106)
(-0.0311787 -0.103298 0.0089704)
(-0.0130861 -0.0632335 0.00977838)
(-0.0157158 -0.0863895 0.0107217)
(-0.0207589 -0.105679 0.013098)
(-0.0213074 -0.114204 0.0132732)
(-0.020502 -0.120702 0.0114182)
(-0.0193328 -0.124533 0.00927932)
(-0.0180979 -0.12604 0.00767091)
(-0.0171662 -0.125316 0.00608755)
(-0.0155964 -0.123009 0.00484963)
(-0.0139533 -0.119901 0.00279889)
(-0.0127982 -0.114103 0.00127582)
(-0.0107793 -0.108769 0.00128575)
(-0.0110005 -0.104398 -0.00107341)
(-0.0118212 -0.0976828 -0.00191913)
(-0.0062255 -0.0879187 -0.00081989)
(-0.00485154 -0.078176 -0.00779952)
(-0.0134869 -0.0586376 -0.0150224)
(-0.0157644 -0.0322952 -0.00759357)
(-0.00872852 -0.0177608 0.00241413)
(-0.00341897 -0.0114288 0.00518712)
(-0.000512346 -0.00998345 0.00472597)
(0.00205456 -0.0112654 0.00416766)
(0.00411644 -0.0129831 0.00371883)
(0.00516524 -0.0141789 0.00287174)
(0.00531208 -0.0143577 0.00169343)
(0.00497078 -0.0132219 0.000204437)
(0.00452115 -0.0110765 -0.00119254)
(0.00442025 -0.00881061 -0.00178926)
(0.00470854 -0.00690454 -0.00207623)
(0.00514541 -0.00530031 -0.00223585)
(0.00537794 -0.00341317 -0.00244555)
(0.00548767 -0.000464268 -0.00265759)
(0.00558366 0.002722 -0.00306826)
(0.0208465 0.0208237 0.00577794)
(0.0216919 0.00902314 0.00511866)
(0.0134783 0.00669844 0.00207902)
(0.0143265 0.00686154 0.00207177)
(0.0117715 0.00553276 0.00165526)
(0.0125203 0.00602924 0.00184837)
(0.0117176 0.00523486 0.00170301)
(0.0123267 0.00518759 0.00191848)
(0.0118793 0.00445475 0.00168525)
(0.0123776 0.00422386 0.00183327)
(0.01196 0.00350833 0.00158974)
(0.0123115 0.00330517 0.00168352)
(0.011936 0.00270361 0.00148334)
(0.0121386 0.00256041 0.00154214)
(0.0118452 0.00210822 0.00141062)
(0.0119327 0.00198312 0.00144459)
(0.0117374 0.00168625 0.00136861)
(0.0117412 0.00158011 0.00138542)
(0.0116302 0.00139918 0.0013511)
(0.0115938 0.00130957 0.00135831)
(0.0115294 0.00120399 0.00135102)
(0.0114856 0.0011324 0.00135732)
(0.0114416 0.00106614 0.00136316)
(0.0114041 0.00101249 0.00137304)
(0.0113705 0.00096553 0.00138474)
(0.0113411 0.0009243 0.00139844)
(0.0113155 0.000886642 0.00141357)
(0.0112934 0.000850879 0.00142982)
(0.011275 0.000815599 0.00144704)
(0.0112602 0.000779033 0.00146488)
(0.0112486 0.000741015 0.00148171)
(0.0112412 0.000693138 0.00149867)
(0.0112394 0.000667395 0.00151611)
(0.011238 0.000546586 0.00153236)
(0.0112614 0.00061786 0.00155279)
(0.0112608 0.000298618 0.00156652)
(0.0113143 0.000571138 0.00159141)
(0.0113347 -6.211e-05 0.00160582)
(0.0113995 0.000468105 0.00163383)
(0.0115067 -0.000515735 0.00165932)
(0.0115119 0.000195968 0.00166028)
(0.0118054 -0.00112705 0.00175646)
(0.0117258 -0.000294078 0.00170572)
(0.012209 -0.00198012 0.00185896)
(0.012111 -0.00113763 0.00178055)
(0.0126927 -0.00315088 0.00195367)
(0.0127093 -0.0023441 0.00182024)
(0.0131834 -0.00464978 0.00183914)
(0.0131684 -0.00237583 0.00132043)
(0.012677 -0.00568965 0.000444148)
(0.0146191 0.00535754 -0.00134006)
(0.0133272 0.00269758 -0.00257891)
(0.0159064 0.0293076 -0.00254374)
(0.0100872 0.0110429 0.00175143)
(0.0189483 0.0506869 0.0105844)
(0.0286418 -0.0410864 0.00439835)
(-0.0545552 0.0578519 0.0229506)
(-0.0705442 -0.109898 -0.00504397)
(-0.0345776 0.170247 -0.0562839)
(0.169046 -0.00122508 -0.0362318)
(0.168278 0.30127 -0.009387)
(0.0713946 0.254936 0.00195972)
(0.0758879 -0.0927445 0.0154991)
(0.0280124 -0.0273837 0.0165926)
(0.00345985 -0.0605206 0.0150817)
(-0.00264592 -0.0750016 0.0132583)
(-0.00895224 -0.081063 0.0105436)
(-0.0140079 -0.0864274 0.00760277)
(-0.0166582 -0.0895174 0.00534441)
(-0.0182834 -0.0907242 0.00343815)
(-0.0183788 -0.0896957 0.00165413)
(-0.0176863 -0.0870646 0.000257233)
(-0.0153757 -0.0836974 -0.00126872)
(-0.0107731 -0.0792134 -0.0029628)
(-0.00820224 -0.0748591 -0.00402353)
(-0.00832579 -0.0697421 -0.00503243)
(-0.0106902 -0.0623706 -0.00996686)
(-0.0147254 -0.0431425 -0.0154259)
(-0.0175787 -0.0174749 -0.0133326)
(-0.0158114 -0.00287933 -0.00725947)
(-0.00925825 0.00257463 -0.00221119)
(-0.00252294 0.00509501 0.00138872)
(0.000173518 0.0053617 0.00399579)
(0.000735531 0.00240552 0.00543684)
(0.00134953 -0.00178053 0.00609452)
(0.00195889 -0.00577774 0.0061063)
(0.0023948 -0.00865738 0.00541302)
(0.00285091 -0.0099889 0.00428204)
(0.00334126 -0.0100019 0.00342268)
(0.00386058 -0.00890533 0.00273245)
(0.00429335 -0.00734478 0.0018831)
(0.00446223 -0.00578862 0.00126361)
(0.00465382 -0.00447067 0.000945421)
(0.00461173 -0.00294516 0.000596084)
(0.00455465 -0.000360349 0.00016689)
(0.00464879 0.00266505 -0.0006125)
(0.0206132 0.0185176 0.00669787)
(0.0232007 0.00998696 0.00679533)
(0.012336 0.00587642 0.00335058)
(0.0144632 0.00790075 0.00326136)
(0.0111697 0.00551756 0.00304887)
(0.0123771 0.00691646 0.00321055)
(0.0114142 0.00563693 0.00316093)
(0.0122814 0.00585278 0.00338912)
(0.0117431 0.0047883 0.00322559)
(0.0123929 0.0046359 0.00336392)
(0.0118621 0.00367676 0.00315646)
(0.0123057 0.00353508 0.00324293)
(0.0118137 0.00275813 0.00305938)
(0.0120708 0.00268222 0.00311993)
(0.0116889 0.00212219 0.0029913)
(0.011794 0.00207639 0.00303029)
(0.0115329 0.00170761 0.00296119)
(0.0115367 0.00165111 0.00298823)
(0.011379 0.00143846 0.00295489)
(0.0113312 0.00137252 0.00297142)
(0.0112377 0.00125891 0.00296634)
(0.0111767 0.00119738 0.00297963)
(0.0111124 0.00113278 0.00298994)
(0.0110574 0.00108394 0.00300535)
(0.0110068 0.00104055 0.00302223)
(0.0109617 0.00100286 0.0030413)
(0.0109213 0.000968463 0.00306185)
(0.0108854 0.000936188 0.00308349)
(0.0108541 0.000904815 0.00310606)
(0.0108279 0.000872884 0.00312945)
(0.0108073 0.000839908 0.00315354)
(0.0107929 0.000798301 0.0031788)
(0.0107852 0.000776203 0.00320481)
(0.0107809 0.000669524 0.0032315)
(0.0108036 0.000740643 0.00326013)
(0.0108019 0.000441688 0.00328708)
(0.010868 0.000722735 0.00332283)
(0.0108809 0.000102687 0.00335012)
(0.0109877 0.000678633 0.0033925)
(0.0110676 -0.000350014 0.00342823)
(0.01115 0.000510737 0.00346797)
(0.0114431 -0.000934356 0.00355515)
(0.0114254 0.000123433 0.00355777)
(0.0119692 -0.00173624 0.00371075)
(0.0119515 -0.000637256 0.00371528)
(0.0126442 -0.00285358 0.00390947)
(0.0127945 -0.00194296 0.00393671)
(0.0134739 -0.00444307 0.00405688)
(0.0134821 -0.00327041 0.00397294)
(0.0130578 -0.00706119 0.00343957)
(0.0138343 -0.000839955 0.0029831)
(0.00824535 -0.00691372 0.00282328)
(0.00974752 0.00880525 0.00397295)
(-0.00110503 -0.00496131 0.00780611)
(0.0250948 0.0321848 0.0224006)
(0.023598 -0.0472257 0.0122127)
(-0.00677617 0.0677981 0.0117956)
(-0.0786205 -0.125196 0.0110875)
(-0.053309 0.213713 -0.107861)
(0.189422 -0.0548595 -0.0163515)
(0.20398 0.308487 -0.00985164)
(0.0690301 0.158361 -0.00363995)
(0.0762719 0.0012263 0.00618107)
(-0.0249118 0.0623782 0.0181684)
(-0.0116726 -0.00772325 0.017547)
(-0.0113552 -0.00662825 0.008039)
(-0.01234 -0.0202709 0.00150078)
(-0.013547 -0.0266515 -0.00255003)
(-0.0139754 -0.0280445 -0.0055515)
(-0.0143449 -0.0283376 -0.00801851)
(-0.0144757 -0.0261156 -0.00999012)
(-0.0146665 0.00085304 -0.013435)
(-0.0136755 0.166777 -0.0143736)
(-0.0118334 0.279159 -0.0154631)
(-0.010223 0.0416705 -0.0153163)
(-0.0109358 0.032575 -0.0171758)
(-0.0107772 0.0421225 -0.015808)
(-0.00802461 0.0475678 -0.0125408)
(-0.00333368 0.0467972 -0.00809078)
(0.00112084 0.0434994 -0.00396288)
(0.00411505 0.0389239 -0.000528411)
(0.00529579 0.0338364 0.00233855)
(0.00413255 0.0273876 0.00439032)
(0.00266366 0.0206305 0.00552315)
(0.00133298 0.0136533 0.00617905)
(0.000434991 0.00723605 0.00628197)
(-0.000246132 0.0020738 0.00589286)
(-0.000681055 -0.001756 0.00511029)
(-0.000668804 -0.00393187 0.00401792)
(-0.000457512 -0.0050806 0.00297778)
(-0.000124137 -0.00557492 0.00212191)
(0.000302938 -0.0054339 0.00164966)
(0.000932397 -0.00487424 0.00147929)
(0.00155901 -0.00403258 0.00114991)
(0.00224028 -0.00192281 0.000684324)
(0.00278812 0.00169101 2.36003e-05)
(0.0176824 0.0173506 0.00752072)
(0.0233404 0.0120412 0.00822999)
(0.00960379 0.00602353 0.00430422)
(0.0130886 0.00977703 0.00381665)
(0.00909792 0.005823 0.00368173)
(0.0108519 0.00805762 0.00371852)
(0.00976037 0.0060398 0.00379426)
(0.0109049 0.0065903 0.00409765)
(0.0102898 0.00507524 0.00403888)
(0.0110551 0.00505064 0.00420124)
(0.0104215 0.00379443 0.00405802)
(0.0109108 0.00374929 0.00414921)
(0.0103183 0.00278163 0.00400012)
(0.0105975 0.00279495 0.00407125)
(0.0101272 0.00211468 0.0039553)
(0.010249 0.00214794 0.00401344)
(0.00992294 0.00171073 0.00394525)
(0.00992772 0.00172046 0.00399053)
(0.00971781 0.00146607 0.00396711)
(0.00965882 0.00143791 0.00400267)
(0.00952961 0.00131038 0.00400399)
(0.00945124 0.00126522 0.00403229)
(0.0093631 0.00120155 0.00405309)
(0.00928821 0.00115969 0.00408137)
(0.00921797 0.00112092 0.00411043)
(0.00915409 0.00108822 0.00414233)
(0.00909509 0.00105839 0.00417606)
(0.00904084 0.00103065 0.00421086)
(0.00899156 0.00100387 0.00424643)
(0.00894795 0.000976907 0.00428267)
(0.00891038 0.000949228 0.00431926)
(0.00887942 0.000914171 0.00435656)
(0.0088558 0.000897609 0.00439388)
(0.00883824 0.000804334 0.00443151)
(0.00884626 0.000876251 0.00447238)
(0.00883233 0.000601096 0.0045105)
(0.00889085 0.000887042 0.00456142)
(0.00888645 0.000292117 0.00459664)
(0.00900775 0.000896573 0.00466276)
(0.00905076 -0.000131088 0.00470005)
(0.00920721 0.000842725 0.00478267)
(0.00941859 -0.000686649 0.00484372)
(0.00951661 0.000594061 0.00492541)
(0.0100541 -0.00138633 0.00506913)
(0.0100962 -3.3545e-05 0.00513886)
(0.0109637 -0.00231437 0.00534907)
(0.0111296 -0.0013359 0.00546485)
(0.0123881 -0.00363387 0.0056307)
(0.0123639 -0.00318111 0.00577795)
(0.0132384 -0.00675649 0.00604462)
(0.0140808 -0.00445641 0.00404904)
(0.0116801 -0.0122779 0.00547275)
(0.00807265 -0.0102335 0.00273231)
(-0.00864664 -0.0231344 0.00855575)
(0.0207933 0.00247505 0.027507)
(0.0156277 -0.0506562 0.0444387)
(0.00394695 0.0113052 0.0636189)
(-0.110948 -0.121002 0.0465742)
(0.0112626 0.157555 -0.182477)
(0.129443 -0.0556746 0.00746395)
(0.161205 0.48993 -0.00966122)
(0.0572115 0.609487 -0.0083967)
(0.0631589 0.561242 -0.00285958)
(0.0208229 0.581641 -0.00488787)
(0.0126188 0.569703 -0.00888063)
(0.00202897 0.580887 -0.0121167)
(5.57401e-06 0.578065 -0.0140569)
(-0.00327321 0.582126 -0.014395)
(-0.00372496 0.594415 -0.0146689)
(-0.00487096 0.596257 -0.0133864)
(-0.00404563 0.603649 -0.012742)
(-0.0031173 0.604881 -0.0109466)
(-0.0011793 0.605533 -0.00938726)
(0.00206838 0.601979 -0.007231)
(0.0066064 0.597306 -0.00500944)
(0.00777696 0.575235 -0.00396217)
(0.00977969 0.475931 -0.00210026)
(0.0109137 0.121433 -0.00041235)
(0.0121403 0.0935072 0.00163044)
(0.0129358 0.084971 0.00362542)
(0.0128119 0.0749702 0.00569496)
(0.0118709 0.0649809 0.00679402)
(0.00931194 0.0541225 0.00713207)
(0.00704984 0.0441553 0.00704406)
(0.00456801 0.033867 0.0071705)
(0.0023072 0.0243199 0.00703185)
(0.000578145 0.0165143 0.00675045)
(-0.000561967 0.00992575 0.00635972)
(-0.000896587 0.00499363 0.00548624)
(-0.000870666 0.00121458 0.0044291)
(-0.00105983 -0.00123352 0.00315298)
(-0.00125062 -0.00259416 0.00219608)
(-0.00126942 -0.00325752 0.000895304)
(-0.002171 -0.00185253 -0.00115532)
(-0.00339444 0.000591864 -0.00219764)
(-0.00535385 0.00269095 -0.00316696)
(0.0125876 0.016338 0.00817494)
(0.0225676 0.0144915 0.00972698)
(0.00578907 0.00587245 0.00513335)
(0.0114427 0.0120337 0.00397133)
(0.006457 0.00568557 0.00415493)
(0.00880956 0.0091387 0.00377767)
(0.00736094 0.00596901 0.00413633)
(0.00874766 0.00720809 0.00448263)
(0.00795923 0.00510887 0.00466624)
(0.00873798 0.00542067 0.00490007)
(0.0079727 0.00377982 0.00492661)
(0.0084167 0.00394029 0.00504027)
(0.00772429 0.00273748 0.00502105)
(0.00797398 0.00288592 0.00509857)
(0.00744265 0.00207242 0.00507289)
(0.00755984 0.00219928 0.0051461)
(0.00720078 0.00168969 0.00513303)
(0.00721758 0.00176684 0.00519835)
(0.00699564 0.00147199 0.00520887)
(0.00695032 0.00149325 0.00526561)
(0.00681784 0.00135027 0.00528501)
(0.00675128 0.00132956 0.00533155)
(0.00666712 0.00126782 0.00536433)
(0.00659883 0.00123682 0.00540394)
(0.00653356 0.00120428 0.00544191)
(0.00647414 0.00117763 0.00548322)
(0.00641906 0.00115323 0.00552394)
(0.0063684 0.00113116 0.00556123)
(0.00632139 0.00111031 0.00559761)
(0.00628122 0.00109004 0.00563405)
(0.00624869 0.00106985 0.00567071)
(0.00622446 0.00104376 0.0057079)
(0.00621026 0.00103523 0.00574558)
(0.00620374 0.000956837 0.00578128)
(0.00622487 0.0010307 0.00582098)
(0.00622391 0.000783659 0.0058534)
(0.00630061 0.00106976 0.00590385)
(0.00630611 0.000517016 0.00593045)
(0.00646106 0.00113053 0.00599805)
(0.00649751 0.000142518 0.00601788)
(0.00673107 0.0011608 0.00610643)
(0.00688763 -0.000354212 0.00613095)
(0.00713111 0.00108235 0.00622796)
(0.00763115 -0.000996348 0.00630365)
(0.00775752 0.000670983 0.00636308)
(0.00884331 -0.0018164 0.00649988)
(0.00886204 -0.00028705 0.00650752)
(0.0107042 -0.00303155 0.00656744)
(0.0105854 -0.001653 0.0064111)
(0.0128687 -0.0058299 0.00660942)
(0.0136916 -0.00349451 0.00496011)
(0.0144582 -0.0119259 0.00655516)
(0.00759863 -0.00769983 0.00471876)
(-0.00780586 -0.0229624 0.0123515)
(0.00498131 0.00298015 0.0391671)
(-0.000493475 -0.0271235 0.0551493)
(-4.21485e-05 0.00847973 0.110221)
(-0.081527 -0.121132 0.0929001)
(0.0357558 -0.00139807 -0.1699)
(0.0766081 0.0377532 0.0205766)
(0.132373 0.553596 -0.0113093)
(0.0460913 0.649158 -0.00767842)
(0.0455216 0.645199 -0.000564921)
(0.00946181 0.677508 0.00141241)
(0.00723086 0.681543 -0.00116587)
(0.00535954 0.694958 -0.00152545)
(0.0045745 0.688986 -0.00203717)
(0.00493322 0.67844 -0.00215766)
(0.00609395 0.593878 -0.00123786)
(0.00692556 0.654455 0.000273964)
(0.0084903 0.694295 0.00118241)
(0.00995665 0.67739 0.0026085)
(0.0111868 0.630004 0.00392995)
(0.0123889 0.645582 0.00500814)
(0.0149642 0.656893 0.00664606)
(0.0162934 0.650068 0.00747916)
(0.0174055 0.65001 0.00828408)
(0.019268 0.640629 0.00937962)
(0.0191236 0.638886 0.0101439)
(0.0181212 0.617276 0.0106123)
(0.0163132 0.610095 0.0105956)
(0.0142174 0.603766 0.0100343)
(0.0102645 0.606108 0.0090094)
(0.00813376 0.554297 0.00815415)
(0.00494326 0.525173 0.00780824)
(0.00192044 0.357639 0.00694952)
(0.00035653 0.0640005 0.00718655)
(-0.00262688 0.029489 0.00672157)
(-0.00416761 0.018287 0.00620562)
(-0.00494032 0.00991204 0.00533732)
(-0.00560044 0.00437796 0.00441064)
(-0.00598355 0.000624269 0.00322736)
(-0.00582163 -0.00185378 0.00166947)
(-0.00485912 -0.00119103 -0.000225925)
(-0.00275461 9.50871e-05 -0.00414831)
(-0.00284179 0.00144443 -0.00886866)
(0.0067255 0.0133451 0.00830787)
(0.0207409 0.0172174 0.0103125)
(0.00100829 0.00496019 0.00493905)
(0.00948137 0.0143827 0.00356069)
(0.00333209 0.00491382 0.00380245)
(0.00635843 0.0100994 0.00313891)
(0.00441384 0.00534202 0.00382902)
(0.00587902 0.0075177 0.00428509)
(0.00496538 0.00479323 0.00464112)
(0.00562938 0.0055911 0.00505765)
(0.00472909 0.00357195 0.00516371)
(0.00492597 0.00402178 0.0053705)
(0.00407123 0.00261059 0.00540834)
(0.00411802 0.00294721 0.00551896)
(0.00343794 0.00202911 0.00552714)
(0.00342405 0.00226657 0.00560947)
(0.00293869 0.00170497 0.00560538)
(0.00288215 0.00184843 0.00567395)
(0.00255677 0.00152708 0.00567175)
(0.00245758 0.00159535 0.00572223)
(0.00226172 0.0014375 0.00573378)
(0.00215543 0.00143578 0.00577055)
(0.00203167 0.00137022 0.00578881)
(0.00193558 0.00134493 0.00581636)
(0.00184815 0.00131309 0.00584121)
(0.00177035 0.00128963 0.00586697)
(0.00170105 0.00127039 0.00589302)
(0.00164568 0.00125236 0.00592108)
(0.00160318 0.00123639 0.00595147)
(0.00156829 0.00122412 0.00598188)
(0.00154103 0.00121279 0.00601195)
(0.0015218 0.00119766 0.00604141)
(0.00151301 0.00120023 0.00606993)
(0.00151208 0.00113853 0.00609631)
(0.00153837 0.00121816 0.00612493)
(0.00154671 0.00100075 0.00614742)
(0.00163611 0.00128509 0.00618889)
(0.00165178 0.000779518 0.0062082)
(0.00183118 0.00138754 0.00626399)
(0.00186673 0.00046591 0.0062715)
(0.00215353 0.00149376 0.00634193)
(0.00228067 5.12712e-05 0.00634329)
(0.00264846 0.00155348 0.00642425)
(0.00307282 -0.000502216 0.00645253)
(0.00336142 0.00147922 0.00649039)
(0.00444439 -0.00123532 0.00656743)
(0.004543 0.00113985 0.00654914)
(0.00663181 -0.00240538 0.00673218)
(0.00642321 0.000703622 0.00641285)
(0.00949202 -0.00458087 0.00660123)
(0.00885264 0.00049111 0.00619534)
(0.0111435 -0.00870643 0.0085018)
(0.000899346 0.000552649 0.0060782)
(-0.0131933 -0.0122072 0.00916556)
(-0.0215577 0.000272231 0.0363462)
(-0.0386838 -0.0299469 0.0723683)
(-0.0177341 -0.034125 0.114224)
(-0.0243399 -0.115259 0.100958)
(0.0165279 -0.0946357 -0.166758)
(0.0301169 0.0705943 0.0219398)
(0.0506854 0.605016 -0.00813019)
(0.013596 0.690202 -0.0079029)
(0.0135269 0.644512 0.00216913)
(0.00704506 0.697266 0.00803463)
(0.00615914 0.537337 0.00970495)
(0.00544928 0.622326 0.00839053)
(0.00737934 0.697556 0.00850539)
(0.00891084 0.620361 0.00854224)
(0.0102462 0.667152 0.00900736)
(0.0113778 0.486608 0.0097956)
(0.0122416 0.690145 0.0100976)
(0.0136029 0.730342 0.0112084)
(0.0143222 0.722287 0.0118759)
(0.0159775 0.57486 0.0130313)
(0.0173707 0.614867 0.0138736)
(0.0199146 0.707064 0.0153514)
(0.0216841 0.639382 0.0160671)
(0.0231563 0.627829 0.0162484)
(0.0240957 0.673027 0.0166727)
(0.0241913 0.663505 0.016329)
(0.0234381 0.657358 0.0154096)
(0.0220377 0.663137 0.0137191)
(0.0200248 0.636692 0.0117041)
(0.017406 0.625029 0.00942919)
(0.0145038 0.601366 0.00870819)
(0.00990677 0.572007 0.00695416)
(0.00574988 0.547798 0.00526318)
(0.00346901 0.510131 0.00367498)
(0.00179937 0.412253 0.00223824)
(-0.00269054 0.559107 -1.38763e-05)
(-0.00744157 0.492333 -0.00160996)
(-0.00895213 0.409006 -0.00386484)
(-0.00950497 0.0417907 -0.00457772)
(-0.011945 0.0126722 -0.0100087)
(-0.00952674 0.00553232 -0.0175654)
(-0.010798 0.00101579 -0.0241773)
(-0.00282057 0.00617963 0.00857935)
(0.0174456 0.0208038 0.00924337)
(-0.0032446 0.00414259 0.00439813)
(0.00776033 0.0173919 0.00329687)
(0.000994278 0.00448394 0.00395581)
(0.00457406 0.011316 0.00308359)
(0.00223726 0.00483853 0.00392572)
(0.00373158 0.00771127 0.0044519)
(0.00255427 0.00437582 0.00485941)
(0.00313196 0.00548211 0.00555152)
(0.00201208 0.00312271 0.00563459)
(0.00206015 0.00376542 0.0060379)
(0.00114507 0.00216816 0.00608302)
(0.00110926 0.00270879 0.00631568)
(0.000385713 0.00170847 0.00634884)
(0.000352696 0.00211107 0.00650204)
(-0.000141197 0.00151422 0.00653634)
(-0.000181734 0.00177811 0.00665286)
(-0.000477316 0.00145785 0.0066911)
(-0.000526346 0.00160083 0.00678272)
(-0.000677787 0.00145493 0.0068332)
(-0.000726124 0.00150586 0.00690682)
(-0.00079359 0.00146247 0.00695639)
(-0.000825849 0.00146819 0.00701567)
(-0.00084888 0.00146101 0.00706899)
(-0.000859959 0.00146175 0.00712361)
(-0.00085929 0.00146436 0.0071767)
(-0.000847879 0.00146953 0.00722627)
(-0.000828248 0.00147274 0.0072724)
(-0.000798181 0.00147338 0.0073179)
(-0.000757956 0.00147486 0.00736234)
(-0.000708095 0.00147356 0.00740536)
(-0.000647395 0.0014873 0.00744558)
(-0.000578201 0.00144368 0.00748773)
(-0.000484776 0.00153632 0.00752784)
(-0.000402598 0.00135757 0.00756718)
(-0.000243111 0.00164933 0.00761089)
(-0.000150431 0.00120087 0.00764642)
(0.000104526 0.00180806 0.00769704)
(0.000215878 0.000959565 0.00772605)
(0.000590763 0.00199374 0.00778609)
(0.000776761 0.000636099 0.00781374)
(0.00127067 0.00217986 0.00788138)
(0.00170348 0.00018554 0.00793037)
(0.00220816 0.00234053 0.00796854)
(0.00321887 -0.000539966 0.00807603)
(0.00368038 0.00233085 0.00808683)
(0.00561825 -0.00193969 0.00819299)
(0.00581703 0.00224975 0.00817793)
(0.00870996 -0.00445962 0.00821186)
(0.00820401 0.00247185 0.00795915)
(0.00916085 -0.00936925 0.00907823)
(0.00135652 0.00629997 0.00987071)
(-0.00604199 -0.00661649 0.0151779)
(-0.0351363 -0.000775029 0.0475005)
(-0.0363258 -0.0341185 0.0716569)
(-0.027444 -0.0385255 0.102129)
(0.0198735 -0.0925245 0.08064)
(-0.0128358 -0.105855 -0.149072)
(-0.0343773 0.098365 0.0284528)
(-0.0732218 0.619012 -0.0046565)
(-0.0326221 0.705982 -0.00545065)
(-0.0261192 0.728256 0.0130704)
(-0.0082943 0.755303 0.0123438)
(-0.00500853 0.760103 0.0143463)
(0.000649491 0.752387 0.0134001)
(0.00856195 0.757126 0.0138211)
(0.00980295 0.771852 0.0138955)
(0.0119465 0.751596 0.0145659)
(0.0147128 0.753451 0.0155936)
(0.0149601 0.74131 0.016067)
(0.0165422 0.734935 0.0164902)
(0.0180121 0.730502 0.0174456)
(0.0195271 0.724843 0.0185756)
(0.0209466 0.72088 0.0201672)
(0.0226516 0.715808 0.0217039)
(0.024502 0.704077 0.0234227)
(0.0259184 0.701218 0.0249446)
(0.0277061 0.693064 0.0262991)
(0.02897 0.683355 0.0269171)
(0.0296054 0.679334 0.0265526)
(0.0289665 0.671542 0.0259321)
(0.0282029 0.663609 0.0240921)
(0.0259727 0.652532 0.0224346)
(0.0250528 0.637498 0.022219)
(0.0231768 0.623798 0.0208842)
(0.0213664 0.585492 0.0190997)
(0.0186332 0.607725 0.016564)
(0.0171217 0.532748 0.0140324)
(0.0154215 0.581667 0.0106808)
(0.0136269 0.522441 0.00604152)
(0.0106353 0.426484 -0.00335853)
(0.0093726 0.337919 -0.00936458)
(0.00533198 0.381513 -0.0272932)
(0.000891105 0.375819 -0.0512213)
(-0.00355513 0.300677 -0.0728042)
(-0.0135462 0.00819444 -0.00351361)
(0.01441 0.0285601 0.00643146)
(-0.00814505 0.00396168 -0.000653987)
(0.00567239 0.0199833 -5.08854e-05)
(-0.00128429 0.00355736 0.000730986)
(0.00218111 0.0122218 -0.000539356)
(-8.73321e-05 0.00426226 0.000637593)
(0.00100463 0.00771152 0.00137814)
(-0.000304051 0.00406287 0.0020741)
(0.000146516 0.00531595 0.00292163)
(-0.00122713 0.00291471 0.00309171)
(-0.0013884 0.00365392 0.00351156)
(-0.00250078 0.00208921 0.00360169)
(-0.00274386 0.00263411 0.0038281)
(-0.00358581 0.00167487 0.00391655)
(-0.00374263 0.0021087 0.00407009)
(-0.00431557 0.0015458 0.00413801)
(-0.00442516 0.00184651 0.004258)
(-0.00477901 0.0015403 0.00431343)
(-0.00487105 0.00172177 0.00440901)
(-0.00506382 0.00158994 0.00446597)
(-0.00514164 0.00166669 0.00454335)
(-0.00523584 0.00163764 0.00459758)
(-0.00529222 0.00165817 0.00465984)
(-0.00533743 0.00166362 0.00471504)
(-0.00536588 0.00167467 0.00477066)
(-0.00538068 0.00168567 0.00482496)
(-0.00538335 0.00169854 0.00487772)
(-0.00537715 0.00171044 0.0049279)
(-0.00536209 0.00172074 0.00497589)
(-0.00533816 0.00173043 0.00502156)
(-0.00530452 0.00173697 0.00506608)
(-0.00525849 0.00175523 0.00510871)
(-0.00520031 0.00172738 0.00515221)
(-0.00512093 0.00182237 0.00518786)
(-0.00505417 0.00167313 0.00523207)
(-0.00491493 0.00195217 0.00526863)
(-0.00483816 0.0015594 0.00531234)
(-0.00460462 0.00213327 0.00534976)
(-0.00451326 0.00138399 0.00538707)
(-0.00414728 0.00235615 0.00542807)
(-0.00400428 0.00114677 0.00545768)
(-0.00346904 0.0025911 0.00550962)
(-0.00315732 0.000806811 0.00553972)
(-0.00246683 0.00278215 0.00562931)
(-0.00174373 0.000202951 0.00565559)
(-0.00091329 0.0029492 0.00576787)
(0.00032629 -0.00095291 0.00562362)
(0.00134028 0.00333794 0.00567777)
(0.00299513 -0.00369359 0.00556821)
(0.00293493 0.00262678 0.00455661)
(0.00181235 -0.00940873 0.00527513)
(-0.00846581 0.00621591 0.00405134)
(-0.012366 -0.00399671 0.0104322)
(-0.0521796 0.0100173 0.0363657)
(-0.0504573 -0.0511365 0.0504643)
(-0.0451529 -0.0327459 0.0802945)
(0.0881252 -0.131742 0.061433)
(-0.0381303 0.0303758 -0.170384)
(-0.0781854 0.0344004 0.0212025)
(-0.174051 0.488388 -0.0149919)
(-0.0642355 0.564281 -0.00474827)
(-0.0553856 0.612606 0.00773181)
(-0.0248955 0.622409 0.00736731)
(-0.016494 0.576586 0.00535946)
(-0.00524785 0.503469 0.00262788)
(-0.000731036 0.306902 0.00024204)
(0.00502745 0.366268 0.000439721)
(0.0076165 0.576912 0.00119555)
(0.00934878 0.549695 0.00220694)
(0.0109135 0.565211 0.00351255)
(0.0121492 0.567657 0.00509153)
(0.0133452 0.570869 0.00662378)
(0.014558 0.57587 0.00793702)