/*--------------------------------*- C++ -*----------------------------------*\
| =========                 |                                                 |
| \\      /  F ield         | OpenFOAM: The Open Source CFD Toolbox           |
|  \\    /   O peration     | Version:  2.3.0                                 |
|   \\  /    A nd           | Web:      www.OpenFOAM.org                      |
|    \\/     M anipulation  |                                                 |
\*---------------------------------------------------------------------------*/
FoamFile
{
    version     2.0;
    format      ascii;
    class       volVectorField;
    location    "6";
    object      U.airMean;
}
// * * * * * * * * * * * * * * * * * * * * * * * * * * * * * * * * * * * * * //

dimensions      [0 1 -1 0 0 0 0];

internalField   nonuniform List<vector> 
6144
(
(0.00481572 0.0202355 -0.00120047)
(0.00483604 0.0105968 -0.00159185)
(0.00400895 0.00903175 -0.00241301)
(0.00410765 0.00674567 -0.0024908)
(0.00350009 0.00572108 -0.00262178)
(0.00367349 0.00497296 -0.0026665)
(0.00334185 0.00432664 -0.0026837)
(0.0034886 0.00396701 -0.00270454)
(0.00330004 0.00345255 -0.0027126)
(0.00338484 0.0031954 -0.00273242)
(0.00327366 0.00278734 -0.00274837)
(0.00330771 0.00257119 -0.00276059)
(0.00324358 0.00226544 -0.00277182)
(0.00324736 0.00208314 -0.0027777)
(0.00320987 0.00186651 -0.00278395)
(0.00319956 0.00171843 -0.00278641)
(0.00317745 0.00157005 -0.00278912)
(0.00316385 0.00145646 -0.00279003)
(0.00314905 0.00135515 -0.00279081)
(0.00313707 0.00127276 -0.00279092)
(0.00312614 0.00120304 -0.00279083)
(0.00311668 0.00114532 -0.0027905)
(0.00310834 0.00109719 -0.00279004)
(0.00310101 0.00105717 -0.0027895)
(0.00309453 0.00102381 -0.00278891)
(0.00308876 0.000995932 -0.0027883)
(0.00308351 0.000972533 -0.00278769)
(0.00307873 0.000952662 -0.00278709)
(0.00307437 0.000935507 -0.00278648)
(0.00307046 0.000920925 -0.00278592)
(0.00306695 0.000908156 -0.00278527)
(0.0030637 0.000895321 -0.00278437)
(0.00306051 0.000889207 -0.00278341)
(0.00305652 0.000860821 -0.00278205)
(0.00305485 0.000900753 -0.00278115)
(0.0030498 0.000781832 -0.00277971)
(0.00304883 0.000977225 -0.00277839)
(0.00304572 0.000621364 -0.00277679)
(0.00303633 0.00115456 -0.00277376)
(0.00304622 0.000347106 -0.00277336)
(0.00301493 0.00146403 -0.00276274)
(0.00304298 -5.47987e-05 -0.00276576)
(0.00298045 0.00194072 -0.00273854)
(0.00301998 -0.000576068 -0.00274737)
(0.00290722 0.00265947 -0.00270004)
(0.00293551 -0.00115611 -0.00270049)
(0.00275194 0.00381012 -0.00262992)
(0.00269642 -0.00161798 -0.00260523)
(0.00234219 0.00581422 -0.00253435)
(0.00205123 -0.00140023 -0.00251696)
(0.00126175 0.0102217 -0.00248271)
(0.00123247 0.00170461 -0.00286414)
(0.0011333 0.0193621 -0.00330941)
(0.00379813 0.00165184 -0.00466941)
(0.00534181 0.0304007 -0.00504213)
(0.00475785 -0.0171896 -0.00556716)
(0.0153083 0.0501607 0.00367007)
(0.027099 -0.0763087 -0.0110875)
(-0.0432818 0.0933291 -0.094119)
(0.0173673 0.0187944 -0.0855935)
(0.0645855 0.366898 -0.00264851)
(0.0424407 0.411034 -0.00194143)
(0.022967 0.00501211 -0.00405071)
(0.0278672 -0.013772 -0.00439657)
(0.0230738 -0.0490677 -0.00535084)
(0.0127384 -0.0240122 -0.00170955)
(0.00904119 -0.0436957 -0.000798766)
(0.00560763 -0.0265631 -0.000947453)
(0.00378906 -0.0346193 -0.00115684)
(0.00230432 -0.0203332 -0.00144128)
(0.00140883 -0.023974 -0.00183789)
(0.000878825 -0.0125129 -0.00219566)
(0.000803372 -0.0127221 -0.00260257)
(0.00096843 -0.0045404 -0.00292138)
(0.00136002 -0.00321979 -0.00319891)
(0.00181549 0.0025297 -0.00343329)
(0.0023215 0.00429183 -0.00356638)
(0.00278667 0.00787232 -0.00365764)
(0.00323627 0.0102398 -0.00374944)
(0.00369121 0.0120364 -0.00350557)
(0.00411335 0.0133706 -0.00308625)
(0.00439902 0.0136934 -0.00299229)
(0.00451389 0.0130386 -0.00322977)
(0.00451825 0.0129582 -0.00357414)
(0.00444969 0.0126862 -0.00393092)
(0.00432059 0.012881 -0.00424895)
(0.00424992 0.0133823 -0.00438385)
(0.00425263 0.0141903 -0.00437336)
(0.00427373 0.0152396 -0.00432561)
(0.00428738 0.0166941 -0.00427563)
(0.00427902 0.0175537 -0.00423371)
(0.00424243 0.018544 -0.00419574)
(0.00419312 0.0196078 -0.00416393)
(0.00411449 0.0203721 -0.00413425)
(0.00405246 0.0231435 -0.00411155)
(0.00396261 0.0249148 -0.00408834)
(0.0112746 0.0222242 0.00208947)
(0.0116635 0.0114469 0.00144591)
(0.00882306 0.00984998 -0.000261963)
(0.00927453 0.00771443 -0.000408386)
(0.00762863 0.00663452 -0.000803214)
(0.00820182 0.00605276 -0.000789783)
(0.00728916 0.00521022 -0.00091999)
(0.0077591 0.00490922 -0.000876107)
(0.00720295 0.00422176 -0.000949114)
(0.0074929 0.00397239 -0.00091587)
(0.00714383 0.00343154 -0.000963153)
(0.00728425 0.00319691 -0.000945233)
(0.0070653 0.0027976 -0.000972551)
(0.00710267 0.00259004 -0.000963319)
(0.00697196 0.00231419 -0.000978508)
(0.0069537 0.00214634 -0.000974151)
(0.00687726 0.00196185 -0.000980274)
(0.00683966 0.00183206 -0.000978695)
(0.00679072 0.00171003 -0.000979646)
(0.0067535 0.00161467 -0.000978452)
(0.00671784 0.0015326 -0.000977295)
(0.00668695 0.00146548 -0.000975515)
(0.00665918 0.00140945 -0.000973438)
(0.00663442 0.00136306 -0.000971074)
(0.00661215 0.00132455 -0.000968503)
(0.00659203 0.00129246 -0.000965738)
(0.0065737 0.0012657 -0.000962789)
(0.00655688 0.00124343 -0.000959713)
(0.00654134 0.00122473 -0.000956557)
(0.00652694 0.00120867 -0.00095337)
(0.00651356 0.00119477 -0.000949929)
(0.00650092 0.00118128 -0.000946082)
(0.0064888 0.00117324 -0.000941904)
(0.00647534 0.00114749 -0.000937272)
(0.00646637 0.00118645 -0.000932882)
(0.00645097 0.00106515 -0.000927953)
(0.00644152 0.00127734 -0.000923635)
(0.00643068 0.000884905 -0.000917329)
(0.00640213 0.00148987 -0.000915199)
(0.0064167 0.000571586 -0.000904679)
(0.00633327 0.00185647 -0.000907996)
(0.00639356 0.000106853 -0.000886019)
(0.0062106 0.00241312 -0.000899795)
(0.00631329 -0.000506252 -0.000862375)
(0.00597885 0.00321758 -0.000886611)
(0.00605025 -0.00121654 -0.000835419)
(0.00551017 0.00442238 -0.000862748)
(0.00535524 -0.00185675 -0.000810227)
(0.00442647 0.00646201 -0.000804389)
(0.00354022 -0.00184464 -0.00086452)
(0.00169219 0.0110672 -0.000803737)
(0.00233794 -0.000530603 -0.00131089)
(0.00282257 0.0192616 -0.00166808)
(0.0107069 -0.00548152 -0.00302671)
(0.0134523 0.030196 -0.00105094)
(0.0202738 -0.0235706 -0.0021384)
(0.00147343 0.0396514 0.00971421)
(0.010487 -0.0241057 -0.0123158)
(0.0283392 0.185508 -0.0237922)
(0.0990635 -0.00194311 -0.051032)
(0.0685344 0.351438 0.0114223)
(0.0172135 0.446981 0.00613194)
(-0.00394649 -0.0152418 0.00639508)
(0.00248248 0.0287615 0.00523864)
(-0.00288871 -0.00390255 0.00516415)
(-0.0104471 0.0073479 0.00689898)
(-0.0109519 -0.0106194 0.00567064)
(-0.0111619 0.00208022 0.00479178)
(-0.00973279 -0.00991379 0.00373175)
(-0.00854997 0.000250826 0.00280753)
(-0.00705792 -0.00667492 0.00181249)
(-0.00570709 0.00166674 0.00102393)
(-0.00414373 -0.00141091 0.000306723)
(-0.0027551 0.00472271 -0.000203833)
(-0.00129793 0.0040933 -0.000643716)
(-2.95238e-05 0.00804748 -0.00087995)
(0.00130299 0.00908948 -0.000913925)
(0.00235146 0.0116622 -0.000900959)
(0.00302867 0.0127562 -0.000736816)
(0.00371962 0.0139194 -0.000179078)
(0.00457171 0.014219 0.000349931)
(0.00518633 0.0136038 0.000378567)
(0.00543623 0.0125059 9.0794e-05)
(0.00551272 0.0131684 -0.00021791)
(0.00549151 0.0128542 -0.000478076)
(0.00540606 0.013179 -0.000700293)
(0.00527053 0.0137861 -0.000916553)
(0.00512476 0.0143209 -0.00110465)
(0.00499522 0.0151455 -0.00125662)
(0.00489695 0.0162194 -0.00133987)
(0.00485155 0.0174236 -0.00137723)
(0.00482693 0.0182932 -0.00142456)
(0.00482011 0.0191039 -0.00146113)
(0.00476247 0.0207989 -0.00152711)
(0.00470705 0.0229563 -0.00158446)
(0.00461892 0.0251803 -0.00174666)
(0.0138554 0.0216592 0.00417069)
(0.0149277 0.0105146 0.00353178)
(0.0103442 0.0087239 0.00116691)
(0.01152 0.00735791 0.0011482)
(0.00895574 0.00612712 0.000593251)
(0.0101256 0.00595795 0.000733129)
(0.00865145 0.00496694 0.000506606)
(0.00950761 0.00488913 0.00065338)
(0.00858735 0.0040546 0.000495829)
(0.00910111 0.00393963 0.000599971)
(0.00851365 0.00328984 0.000487371)
(0.00875281 0.00314829 0.000550996)
(0.00838898 0.00269005 0.000480615)
(0.00845408 0.00254087 0.000515441)
(0.0082359 0.00223722 0.000478934)
(0.0082123 0.00209741 0.000496623)
(0.00808367 0.00190633 0.000481176)
(0.00802675 0.00179182 0.00048978)
(0.00794564 0.00167188 0.0004876)
(0.00788656 0.00158532 0.00049346)
(0.00782807 0.00150798 0.000497594)
(0.00777755 0.00144644 0.000503949)
(0.00773151 0.00139485 0.000510727)
(0.00769004 0.00135249 0.00051829)
(0.00765228 0.00131743 0.000526363)
(0.00761777 0.0012885 0.000534868)
(0.00758604 0.00126442 0.000543671)
(0.00755659 0.00124418 0.000552703)
(0.00752902 0.00122704 0.000561915)
(0.00750302 0.00121229 0.000571292)
(0.00747829 0.00119959 0.000580683)
(0.00745463 0.00118752 0.000590022)
(0.00743145 0.00118077 0.0005993)
(0.00740871 0.00115551 0.00060852)
(0.0073872 0.00119551 0.000617337)
(0.0073659 0.00107148 0.000625588)
(0.00733878 0.00128963 0.000633968)
(0.00732739 0.000882803 0.000642609)
(0.00727574 0.00150788 0.000649524)
(0.00729446 0.000549366 0.000660994)
(0.00717607 0.0018786 0.000663165)
(0.00725588 4.22924e-05 0.00068692)
(0.00700702 0.002423 0.00067456)
(0.00715085 -0.000662237 0.000718347)
(0.0066992 0.00316253 0.000688883)
(0.00681355 -0.00157194 0.000746034)
(0.00606226 0.00416052 0.000697748)
(0.00583405 -0.00264662 0.000719765)
(0.00446748 0.00569904 0.00062153)
(0.00305004 -0.00359377 0.000377838)
(0.00133345 0.00925201 0.000338748)
(0.00134045 -0.00591604 0.000231278)
(0.00543902 0.0152539 0.000861237)
(0.0109631 -0.0198221 -0.00229031)
(0.0154161 0.0277147 0.00368819)
(0.0188358 -0.0401198 0.00226777)
(-0.0281995 0.0637575 0.0281699)
(-0.0341455 -0.104749 -0.000675327)
(-0.0327139 0.18934 -0.0475027)
(0.119807 -0.00868238 -0.0211995)
(0.124356 0.337992 0.0186534)
(0.0554554 0.432783 -0.00104428)
(0.0491061 -0.00115746 0.00529998)
(0.02067 0.0551717 0.0089822)
(0.00101441 0.0143986 0.00817155)
(-0.00346023 0.0278743 0.00720896)
(-0.0067225 0.010186 0.00416704)
(-0.00904411 0.0226211 0.00321063)
(-0.00913481 0.010697 0.00166596)
(-0.00893199 0.0203435 0.00108393)
(-0.00773512 0.0126725 0.000556033)
(-0.00654625 0.0200251 0.000258272)
(-0.0046362 0.016495 -0.000107681)
(-0.00289622 0.0211497 -0.000242474)
(-0.00121892 0.019283 -0.000143367)
(3.47326e-05 0.0217984 9.90596e-05)
(0.00123956 0.0214715 0.000440741)
(0.0022954 0.0225036 0.00105848)
(0.00337874 0.0218188 0.0017155)
(0.00426005 0.0207101 0.00209218)
(0.004809 0.0192987 0.00218627)
(0.00495745 0.0180897 0.00212489)
(0.00484907 0.016655 0.00198024)
(0.00467437 0.0156077 0.0018037)
(0.00451022 0.0149974 0.00161153)
(0.00436927 0.0143698 0.0014268)
(0.00427513 0.0145906 0.00123581)
(0.00422101 0.0151857 0.00109624)
(0.00414559 0.0154861 0.000987921)
(0.00408062 0.0164092 0.000875777)
(0.00397618 0.0175723 0.000754815)
(0.00382885 0.0185759 0.000637376)
(0.00367027 0.0191583 0.000542571)
(0.0033596 0.0209206 0.000390435)
(0.00313843 0.023661 0.000198823)
(0.00298945 0.0249126 -0.000199344)
(0.0147309 0.0208991 0.00523888)
(0.0170026 0.0099898 0.00493893)
(0.00999665 0.00762075 0.00192574)
(0.0124517 0.00734614 0.0020118)
(0.00881488 0.00562149 0.00145122)
(0.0108001 0.00617551 0.00167392)
(0.00870672 0.00476628 0.00141304)
(0.0100613 0.00507954 0.00161228)
(0.00873697 0.00391424 0.00141785)
(0.00953029 0.00403506 0.00155316)
(0.00867615 0.00315862 0.00141437)
(0.00905562 0.00316728 0.00149615)
(0.00852388 0.00257472 0.00140983)
(0.00864278 0.00252205 0.00145541)
(0.0083265 0.00215384 0.00141139)
(0.00830828 0.00207021 0.00143587)
(0.00812191 0.00185413 0.00141861)
(0.0080502 0.00176619 0.00143232)
(0.00793504 0.00164295 0.00142999)
(0.00785572 0.00156886 0.00143923)
(0.00777401 0.00149567 0.00144503)
(0.00770412 0.00144096 0.00145411)
(0.00763965 0.00139424 0.00146333)
(0.0075813 0.00135648 0.00147355)
(0.00752781 0.00132525 0.00148429)
(0.00747857 0.00129948 0.00149553)
(0.00743291 0.00127809 0.00150714)
(0.00739022 0.0012602 0.00151902)
(0.00735009 0.00124516 0.0015311)
(0.00731223 0.00123231 0.00154336)
(0.00727634 0.00122125 0.00155576)
(0.00724219 0.00121062 0.00156829)
(0.00720895 0.00120511 0.00158085)
(0.0071769 0.00118071 0.00159379)
(0.00714653 0.00122215 0.00160615)
(0.00711752 0.00109562 0.00161927)
(0.00708243 0.00132057 0.00163172)
(0.00706436 0.000898297 0.00164526)
(0.00700513 0.0015467 0.00165694)
(0.00701891 0.000539531 0.00167253)
(0.00689149 0.00192773 0.0016825)
(0.00697684 -1.9178e-05 0.00170704)
(0.00670542 0.00246136 0.00170599)
(0.00688022 -0.000826522 0.00175163)
(0.00639499 0.00311213 0.001734)
(0.00656758 -0.00197809 0.00179315)
(0.00579236 0.00376577 0.00176101)
(0.00564827 -0.0036839 0.00173549)
(0.00428713 0.00417352 0.00162176)
(0.00302442 -0.00646579 0.000780493)
(0.00174254 0.00483521 0.00133398)
(0.00261528 -0.0128351 0.000879906)
(0.0102254 0.00304148 0.00484634)
(0.0174642 -0.028218 0.00155185)
(0.0227642 0.0138867 0.00739991)
(0.0193445 -0.0520594 -0.00190928)
(-0.00133551 0.0611757 0.0224685)
(-0.0460613 -0.117462 0.0146671)
(-0.0328454 0.23173 -0.0945429)
(0.13654 -0.0413699 0.00548795)
(0.149078 0.339949 0.02718)
(0.0572089 0.352157 -0.00118432)
(0.0539608 0.0745047 0.00736876)
(-0.0124465 0.134179 0.00987233)
(-0.0102366 0.0586427 0.0102497)
(-0.0112814 0.0759697 0.00404355)
(-0.0114184 0.0498284 0.00106317)
(-0.0103678 0.0590338 -0.000602683)
(-0.00832451 0.0450053 -0.00135557)
(-0.00694755 0.0531353 -0.0016798)
(-0.00529908 0.0443968 -0.00192998)
(-0.00417141 0.0507267 -0.00173632)
(-0.00243866 0.0455029 -0.00115121)
(-0.00108261 0.049817 -0.000556262)
(0.000217618 0.0457384 6.39673e-05)
(0.0013155 0.0453316 0.000740685)
(0.00247989 0.0416822 0.00145482)
(0.00336779 0.0394675 0.00201045)
(0.00405192 0.0364667 0.00231355)
(0.00431562 0.0334239 0.0024054)
(0.00429867 0.0304146 0.00238447)
(0.00400023 0.0273199 0.00230764)
(0.00354425 0.0246727 0.00220797)
(0.00307409 0.0224071 0.00212749)
(0.00258491 0.0201439 0.00205422)
(0.00211178 0.0183678 0.00194694)
(0.00172079 0.0173757 0.00177585)
(0.00140143 0.0168877 0.00159177)
(0.00114699 0.0163836 0.00139528)
(0.000998389 0.0167456 0.00124722)
(0.000919503 0.0175017 0.00114383)
(0.000959623 0.018296 0.00112841)
(0.00110763 0.0185588 0.00111871)
(0.00122215 0.0200171 0.000975099)
(0.00151793 0.0223612 0.000799337)
(0.00174592 0.0248205 0.000410838)
(0.0139175 0.0196161 0.00600402)
(0.0183131 0.0100246 0.00610523)
(0.00814196 0.00681771 0.00252219)
(0.0122972 0.00792881 0.00278948)
(0.00743861 0.00532921 0.00204849)
(0.0104924 0.00673064 0.00242612)
(0.00774225 0.00462719 0.00206743)
(0.00971734 0.00542158 0.00239064)
(0.00793547 0.00375586 0.00211325)
(0.00907225 0.00418425 0.00232698)
(0.00789501 0.00298422 0.00212973)
(0.00844971 0.00320188 0.0022594)
(0.00770504 0.00242223 0.00213557)
(0.00790215 0.00250508 0.00221065)
(0.007458 0.00204206 0.00214491)
(0.00746175 0.00204038 0.00218651)
(0.00720423 0.00178521 0.00216098)
(0.00712424 0.00174038 0.00218513)
(0.00696822 0.00160788 0.00218201)
(0.00687043 0.00155273 0.00219784)
(0.00676352 0.00148281 0.0022062)
(0.00667436 0.00143719 0.0022203)
(0.00659079 0.00139599 0.00223391)
(0.00651505 0.00136375 0.00224907)
(0.00644509 0.00133699 0.0022648)
(0.0063803 0.00131505 0.00228124)
(0.00631981 0.00129683 0.00229821)
(0.00626291 0.00128165 0.0023155)
(0.00620911 0.00126892 0.002333)
(0.00615806 0.00125806 0.00235071)
(0.00610933 0.00124866 0.00236851)
(0.00606256 0.00123958 0.00238639)
(0.00601704 0.00123532 0.00240409)
(0.00597295 0.00121141 0.00242211)
(0.00593101 0.00125445 0.00243951)
(0.00589038 0.00112504 0.00245771)
(0.0058454 0.00135716 0.00247572)
(0.00581552 0.000919501 0.00249365)
(0.00575027 0.00159165 0.00251243)
(0.00575192 0.00053886 0.002531)
(0.00562727 0.00198672 0.00255108)
(0.00570149 -6.81643e-05 0.00257502)
(0.00544276 0.00252351 0.00259082)
(0.00563691 -0.000953709 0.002638)
(0.00516664 0.00311423 0.0026413)
(0.00544057 -0.00224176 0.00270877)
(0.00472847 0.0035189 0.0027271)
(0.00490472 -0.00425902 0.0027381)
(0.00383519 0.00309935 0.00277952)
(0.00330063 -0.00828361 0.00245776)
(0.00364644 0.000639761 0.00472242)
(0.00547349 -0.0181311 0.00962204)
(0.0101682 0.000335569 0.0148926)
(0.0138583 -0.0203696 0.0170394)
(0.0168689 0.026627 0.0295311)
(0.00224159 -0.0394104 0.0269453)
(-0.017867 0.0530808 0.0543733)
(-0.0859528 -0.123073 0.0434348)
(0.00858475 0.199994 -0.158278)
(0.112091 -0.0494225 0.018192)
(0.134763 0.424998 0.0307392)
(0.0432458 0.578479 -0.000870657)
(0.0379637 0.492817 0.00236367)
(0.0126376 0.541437 0.001773)
(0.00770299 0.497108 0.0018227)
(-0.000922866 0.506297 -0.000292051)
(-0.00116901 0.484509 -0.000894991)
(-0.00245468 0.48543 -0.000539597)
(-0.0018524 0.472042 -0.000830681)
(-0.00195973 0.473015 -9.46658e-05)
(-0.000769043 0.459895 0.000247895)
(-8.33277e-05 0.451935 0.00113572)
(0.00124136 0.425599 0.00176861)
(0.00205739 0.406544 0.00248455)
(0.00309276 0.377264 0.00301178)
(0.00342818 0.337604 0.00329872)
(0.00387499 0.282393 0.00356682)
(0.00396634 0.211376 0.00361427)
(0.00419958 0.15689 0.0036453)
(0.00424389 0.108926 0.00354926)
(0.00407023 0.0707618 0.00343537)
(0.00362238 0.0514276 0.0032187)
(0.00307062 0.0434199 0.00287621)
(0.0024576 0.0371695 0.00256248)
(0.00175048 0.0323402 0.00232448)
(0.00102048 0.0277996 0.002132)
(0.000329266 0.0243397 0.00189348)
(-0.00036353 0.021653 0.00170436)
(-0.00106585 0.01981 0.00132372)
(-0.00142461 0.0189191 0.00100151)
(-0.00185967 0.0188071 0.00057931)
(-0.0020929 0.0190879 0.000108937)
(-0.00235636 0.0191007 -0.000421398)
(-0.00327793 0.0211576 -0.000854068)
(-0.00414062 0.0237237 -0.000762135)
(-0.00515149 0.0249031 -0.00116569)
(0.0112478 0.0180349 0.00671741)
(0.018889 0.0107341 0.00730992)
(0.0050407 0.00618482 0.0033606)
(0.0112178 0.00925439 0.00375382)
(0.00515202 0.00512771 0.00293162)
(0.00926482 0.00763228 0.00345654)
(0.00590521 0.00444432 0.00300669)
(0.00841722 0.00589029 0.00346249)
(0.00624802 0.00351143 0.00312456)
(0.00764332 0.00436288 0.00341949)
(0.0062162 0.00271936 0.00318985)
(0.00690244 0.00322606 0.00336723)
(0.00601107 0.00219342 0.00322953)
(0.00627962 0.00246539 0.00333583)
(0.00575669 0.00187322 0.00326689)
(0.00579995 0.00198506 0.00333121)
(0.00550465 0.00167633 0.00330836)
(0.00544206 0.00169252 0.00334875)
(0.00526915 0.00154454 0.00335396)
(0.00517519 0.00151884 0.00338283)
(0.00506169 0.00145172 0.00339962)
(0.00497108 0.00141915 0.00342465)
(0.0048841 0.00138477 0.00344793)
(0.0048056 0.00135981 0.00347305)
(0.00473284 0.00133877 0.0034986)
(0.00466541 0.00132172 0.00352521)
(0.00460243 0.00130764 0.00355256)
(0.00454309 0.00129606 0.0035797)
(0.00448693 0.00128635 0.00360635)
(0.00443392 0.00127803 0.00363289)
(0.0043837 0.00127079 0.00365941)
(0.00433597 0.00126358 0.00368595)
(0.00429029 0.00126092 0.00371226)
(0.00424634 0.00123812 0.00373848)
(0.00420643 0.00128303 0.00376457)
(0.0041659 0.00115203 0.0037903)
(0.00412753 0.00139061 0.00381856)
(0.00409498 0.00094126 0.00384233)
(0.00404622 0.00163445 0.00387396)
(0.00403981 0.00054446 0.00389526)
(0.00395296 0.00204514 0.00393285)
(0.00401127 -9.85832e-05 0.00395433)
(0.00382504 0.00260398 0.0039955)
(0.0040235 -0.00104748 0.00403468)
(0.00364626 0.00318351 0.00406643)
(0.00405263 -0.00243698 0.00413358)
(0.00343251 0.00346864 0.00417661)
(0.00407517 -0.00459927 0.00419276)
(0.003295 0.00261365 0.00433225)
(0.00406114 -0.00874752 0.00432207)
(0.00390035 -0.000731673 0.00684909)
(0.00173472 -0.0160239 0.0112597)
(-0.00119548 0.00121774 0.0140643)
(-0.00386658 -0.0114492 0.022062)
(0.0024832 0.027799 0.0410571)
(-0.00144386 -0.0255452 0.0548139)
(0.0159646 0.0305875 0.107368)
(-0.0519441 -0.135604 0.0917967)
(0.0290253 0.113466 -0.138304)
(0.0763055 -0.00773945 0.0312333)
(0.122639 0.460483 0.0327745)
(0.0307104 0.59754 0.000277893)
(0.0301859 0.540119 0.00708739)
(0.00857366 0.59162 0.00227736)
(0.00545671 0.579027 0.00293571)
(0.00191292 0.592726 0.00196355)
(0.00136588 0.578738 0.00310605)
(0.000349908 0.574768 0.00288276)
(0.00101991 0.559355 0.00378972)
(0.000953051 0.564747 0.00407338)
(0.00157016 0.564951 0.00478465)
(0.00203815 0.557784 0.00520877)
(0.00314057 0.555251 0.00592196)
(0.00359118 0.562266 0.00630617)
(0.00356811 0.551475 0.0066637)
(0.00433093 0.540582 0.0067401)
(0.00497281 0.535403 0.00666588)
(0.00548243 0.528335 0.00630529)
(0.00578056 0.517429 0.00600842)
(0.00586782 0.510278 0.00550386)
(0.00540583 0.491588 0.00514529)
(0.00473702 0.474468 0.00475389)
(0.00396105 0.450125 0.00429406)
(0.00309034 0.431923 0.00380524)
(0.0018981 0.409424 0.00332497)
(0.000466889 0.380516 0.00291878)
(-0.000858712 0.315184 0.00250841)
(-0.00183626 0.16213 0.00224363)
(-0.00313168 0.0516812 0.00202435)
(-0.00440404 0.0288101 0.00178072)
(-0.00536901 0.0224595 0.00150024)
(-0.0056149 0.0200591 0.00141772)
(-0.00557123 0.0189733 0.000960682)
(-0.00521601 0.0190659 4.31367e-05)
(-0.00378598 0.0210278 -0.00159103)
(-0.00353616 0.0239891 -0.00519541)
(0.00609406 0.0158915 0.00719905)
(0.018447 0.0124653 0.00829838)
(-0.000162591 0.00549292 0.00425308)
(0.00898108 0.0112291 0.00476595)
(0.00127543 0.00469695 0.00400483)
(0.0067952 0.00872904 0.00460957)
(0.00258651 0.00404858 0.00422954)
(0.00575899 0.00638927 0.00473594)
(0.00301166 0.00312859 0.00444834)
(0.00471919 0.0045376 0.0047575)
(0.00287322 0.00239708 0.0045463)
(0.00370352 0.00326422 0.00473401)
(0.00252647 0.00196585 0.00459359)
(0.00286004 0.00245583 0.00471022)
(0.00215756 0.00172942 0.00463345)
(0.00222001 0.001964 0.00470625)
(0.00182314 0.00159415 0.00467685)
(0.00175705 0.00167368 0.00472348)
(0.00153123 0.00150399 0.00472459)
(0.00142252 0.00150899 0.00475782)
(0.00128399 0.00143959 0.00477557)
(0.00117915 0.00141897 0.00480355)
(0.00107833 0.0013891 0.00482811)
(0.000989356 0.00137022 0.00485503)
(0.000907962 0.00135372 0.00488194)
(0.000833211 0.00134061 0.00490892)
(0.00076383 0.00133005 0.00493538)
(0.000699981 0.00132166 0.00496195)
(0.000641447 0.00131489 0.00498918)
(0.000586843 0.00130947 0.0050167)
(0.000535548 0.00130494 0.00504429)
(0.000487183 0.00130041 0.00507185)
(0.00044162 0.00130037 0.00509937)
(0.000398087 0.00127989 0.00512689)
(0.000359457 0.00132665 0.00515403)
(0.000317981 0.00119721 0.00517941)
(0.000286246 0.00143954 0.00520902)
(0.000248874 0.000987082 0.00523009)
(0.000217993 0.0016931 0.00526468)
(0.000199836 0.000584379 0.00528031)
(0.000150599 0.00212116 0.00532234)
(0.000189249 -7.33328e-05 0.00533372)
(7.77743e-05 0.00271931 0.00538502)
(0.000264252 -0.0010496 0.00540577)
(-3.16442e-06 0.00338892 0.00545206)
(0.000504755 -0.00247502 0.00551561)
(2.34569e-05 0.00392699 0.00557369)
(0.00110714 -0.00463266 0.00567623)
(0.000555982 0.00372802 0.00581973)
(0.0025473 -0.00798064 0.0057671)
(0.00156993 0.00229025 0.00690103)
(0.000862518 -0.0147231 0.0084505)
(-0.00719688 -0.00228349 0.00846702)
(-0.0163363 -0.025151 0.00884172)
(-0.0211325 -0.00328749 0.0218884)
(-0.0265863 -0.052974 0.037606)
(-0.00381945 -0.0250987 0.0687995)
(-0.00597356 -0.126561 0.0671304)
(0.0258403 0.0241545 -0.136053)
(0.0389659 0.0375845 0.0311099)
(0.0688389 0.53537 0.0247537)
(0.0170159 0.625065 -0.000982228)
(0.0168449 0.560653 0.00561777)
(0.00301903 0.640448 0.00499962)
(0.00267558 0.596249 0.00843531)
(0.00187043 0.614487 0.00786607)
(0.00185878 0.593067 0.009193)
(0.0015041 0.592423 0.0092637)
(0.00184112 0.597998 0.0100733)
(0.00163967 0.588696 0.010379)
(0.00237442 0.595804 0.0110778)
(0.00238562 0.599853 0.0110468)
(0.00345415 0.603336 0.0115342)
(0.00377596 0.588362 0.0114302)
(0.0048068 0.570957 0.0121362)
(0.00506912 0.58754 0.0115503)
(0.0059445 0.586365 0.011458)
(0.00624785 0.570023 0.0108373)
(0.00676807 0.591782 0.0102714)
(0.00711022 0.582805 0.00932409)
(0.00718953 0.564397 0.00876596)
(0.00714307 0.574199 0.00787831)
(0.00687165 0.573163 0.00657858)
(0.0061749 0.561798 0.00528275)
(0.0051687 0.549019 0.0038751)
(0.0039549 0.525056 0.00283769)
(0.00237776 0.517658 0.00160729)
(0.000363397 0.520046 0.000184542)
(-0.00181063 0.492089 -0.00124342)
(-0.00391496 0.4819 -0.00236461)
(-0.00666682 0.474233 -0.00376074)
(-0.00893668 0.459207 -0.00472087)
(-0.0110485 0.420954 -0.00501833)
(-0.0123899 0.343671 -0.00548997)
(-0.0126836 0.241078 -0.00633233)
(-0.0149081 0.168096 -0.00935606)
(-0.00097789 0.0113782 0.00776988)
(0.0177099 0.0152161 0.00778451)
(-0.00576246 0.0046482 0.0049885)
(0.00699558 0.0139049 0.00498015)
(-0.00276672 0.00408306 0.00501101)
(0.00414682 0.0100058 0.0052968)
(-0.00104856 0.0034014 0.00544861)
(0.00263373 0.00682398 0.00582315)
(-0.000626633 0.00247886 0.00583743)
(0.00124001 0.00460617 0.00608013)
(-0.000876942 0.00183505 0.00604402)
(4.33571e-05 0.00318367 0.00622826)
(-0.00128147 0.00153983 0.00619995)
(-0.00087232 0.00233949 0.00634374)
(-0.00164942 0.00143556 0.00634203)
(-0.00152463 0.00185855 0.00645608)
(-0.00194377 0.00141183 0.00647833)
(-0.00196171 0.00159545 0.00656817)
(-0.00217549 0.00140745 0.00660714)
(-0.00224443 0.0014629 0.00667824)
(-0.00235452 0.00139998 0.0067275)
(-0.00242307 0.00140338 0.00678638)
(-0.00248854 0.00138602 0.00683804)
(-0.00253984 0.00138049 0.00689168)
(-0.00258289 0.00137486 0.00694386)
(-0.00261794 0.00137198 0.00699568)
(-0.00264576 0.00137036 0.00704688)
(-0.00266899 0.00136924 0.00709678)
(-0.00268985 0.00136829 0.00714489)
(-0.00270648 0.00136762 0.00719211)
(-0.0027192 0.00136735 0.00723852)
(-0.00272839 0.00136673 0.00728411)
(-0.00273426 0.00137013 0.00732839)
(-0.00273809 0.00135357 0.00737215)
(-0.00273589 0.00140315 0.00741382)
(-0.00273901 0.00127776 0.00745542)
(-0.00272241 0.00152595 0.00749847)
(-0.00272725 0.00107177 0.00753661)
(-0.00269629 0.00179456 0.00758223)
(-0.0026926 0.000665434 0.00761581)
(-0.00266004 0.00224875 0.00766537)
(-0.00261466 -3.59092e-06 0.00769509)
(-0.00261051 0.00290163 0.00775089)
(-0.0024383 -0.00100209 0.00778442)
(-0.00254158 0.00370208 0.00784016)
(-0.00204046 -0.00241 0.00790688)
(-0.00232444 0.00452894 0.00795817)
(-0.0012058 -0.00437123 0.00808429)
(-0.0016645 0.00522297 0.00820364)
(0.000585949 -0.00676881 0.00839821)
(-0.000112119 0.00612247 0.00905861)
(0.00166706 -0.0100791 0.00996329)
(-0.00533887 0.00646604 0.0106006)
(-0.00798292 -0.0184072 0.00884049)
(-0.0147249 0.00166624 0.0233106)
(-0.0164186 -0.0512215 0.0294258)
(-0.0129874 -0.0307434 0.0583758)
(0.00835671 -0.104612 0.0511897)
(-0.00634633 -0.0211147 -0.126443)
(-0.0127394 0.0786108 0.0271859)
(-0.0279146 0.583561 0.0067479)
(-0.0146327 0.686583 -0.00483194)
(-0.00952365 0.67509 0.00836012)
(-0.0059322 0.71186 0.0104969)
(-0.0011924 0.696749 0.0141794)
(0.000110269 0.702698 0.015026)
(0.00291114 0.697976 0.01652)
(0.00314186 0.713783 0.0170122)
(0.0039293 0.693005 0.0176408)
(0.00497291 0.697565 0.0183367)
(0.00562093 0.689898 0.0188237)
(0.0062166 0.689076 0.0191536)
(0.00701147 0.684067 0.0195277)
(0.00774813 0.679826 0.0196544)
(0.00910279 0.670826 0.0200385)
(0.0096551 0.668405 0.02002)
(0.0104769 0.665663 0.0203113)
(0.0110465 0.664785 0.0202701)
(0.0116023 0.659868 0.0203402)
(0.0121929 0.655186 0.0204801)
(0.0129137 0.648358 0.0204539)
(0.0131974 0.643101 0.0202304)
(0.013376 0.637282 0.0197671)
(0.0132706 0.63189 0.0189958)
(0.013144 0.624977 0.0179933)
(0.0127196 0.612491 0.016623)
(0.0120224 0.603923 0.0150632)
(0.011021 0.594886 0.0131305)
(0.00977278 0.580469 0.0105066)
(0.00792874 0.578512 0.00675118)
(0.00556962 0.561851 0.00178227)
(0.00260323 0.55643 -0.00525933)
(-0.00112469 0.552935 -0.0148401)
(-0.00557919 0.518174 -0.0280537)
(-0.0114434 0.50888 -0.046924)
(-0.0153634 0.479925 -0.0628527)
(-0.0103503 0.00683503 -0.00286152)
(0.0163783 0.0200824 0.00609882)
(-0.0118885 0.00276622 0.000454357)
(0.00507275 0.0168649 0.00122173)
(-0.0067565 0.00276569 0.00196445)
(0.00150455 0.0110219 0.0023356)
(-0.00501811 0.00234258 0.00290412)
(-0.000825874 0.00712351 0.00337435)
(-0.00493713 0.00177011 0.00350935)
(-0.00283958 0.00469044 0.00377776)
(-0.00543123 0.00138549 0.00379067)
(-0.00445797 0.0031878 0.00395357)
(-0.0060238 0.0012731 0.00397578)
(-0.0056161 0.00232669 0.00409595)
(-0.00652413 0.00129358 0.00412422)
(-0.00640964 0.00186042 0.00422568)
(-0.00690445 0.00135916 0.00425841)
(-0.00693645 0.00161985 0.00434303)
(-0.00719485 0.00141685 0.0043831)
(-0.00728034 0.00151165 0.00445145)
(-0.00741631 0.00145366 0.0044987)
(-0.00750056 0.00147521 0.0045555)
(-0.00758163 0.00146762 0.00460498)
(-0.00764597 0.00147186 0.00465599)
(-0.00770023 0.00147429 0.0047053)
(-0.00774506 0.00147805 0.00475395)
(-0.00778198 0.00148236 0.00480164)
(-0.00781111 0.00148718 0.00484853)
(-0.00783281 0.0014917 0.00489466)
(-0.00784955 0.00149562 0.00493979)
(-0.00786181 0.00149931 0.00498405)
(-0.00786996 0.00150236 0.00502759)
(-0.00787413 0.00150805 0.00507031)
(-0.00787548 0.00149643 0.00511316)
(-0.00786902 0.00154523 0.00515319)
(-0.007872 0.00143 0.00519614)
(-0.00784282 0.00167014 0.00523638)
(-0.00785504 0.00123485 0.00527966)
(-0.00779419 0.00193909 0.00532044)
(-0.00781287 0.000845205 0.00536243)
(-0.0077222 0.00239626 0.00540627)
(-0.00772305 0.000201542 0.00544494)
(-0.00761373 0.00306196 0.00549873)
(-0.00752978 -0.000758411 0.00553232)
(-0.00744176 0.00391744 0.00560481)
(-0.00710202 -0.00211371 0.00563948)
(-0.00711702 0.00489456 0.00573638)
(-0.00626373 -0.00392319 0.00577555)
(-0.00651964 0.00601067 0.00587625)
(-0.00471797 -0.00614147 0.00597589)
(-0.00571936 0.00777262 0.00621119)
(-0.00394055 -0.00859951 0.00638296)
(-0.0105088 0.0121121 0.00719735)
(-0.00924902 -0.016473 0.00713802)
(-0.0200894 0.011291 0.0232392)
(-0.00616305 -0.0508141 0.0284436)
(-0.014776 -0.0163398 0.0521468)
(0.05437 -0.132792 0.0526765)
(-0.0339695 0.0582909 -0.145852)
(-0.0578368 0.0217852 0.0143606)
(-0.117841 0.503974 -0.00598868)
(-0.0374635 0.58836 -0.00646796)
(-0.0329225 0.563561 0.000290422)
(-0.0138268 0.600817 0.00617599)
(-0.00854249 0.573432 0.0079985)
(-0.00435113 0.563807 0.0091941)
(-0.00232856 0.56823 0.0100634)
(-0.000923976 0.575755 0.0109743)
(-0.000350115 0.571546 0.0119692)
(0.000602995 0.564477 0.0125628)
(0.00105671 0.539546 0.0135099)