/*--------------------------------*- C++ -*----------------------------------*\
| =========                 |                                                 |
| \\      /  F ield         | OpenFOAM: The Open Source CFD Toolbox           |
|  \\    /   O peration     | Version:  2.3.0                                 |
|   \\  /    A nd           | Web:      www.OpenFOAM.org                      |
|    \\/     M anipulation  |                                                 |
\*---------------------------------------------------------------------------*/
FoamFile
{
    version     2.0;
    format      ascii;
    class       volVectorField;
    location    "6";
    object      U.waterMean;
}
// * * * * * * * * * * * * * * * * * * * * * * * * * * * * * * * * * * * * * //

dimensions      [0 1 -1 0 0 0 0];

internalField   nonuniform List<vector> 
6144
(
(0.00481563 0.019671 -0.00120038)
(0.00483595 0.0100324 -0.00159176)
(0.00400891 0.00846739 -0.00241289)
(0.00410762 0.00618141 -0.00249066)
(0.00350008 0.00515687 -0.00262163)
(0.00367348 0.00440876 -0.00266635)
(0.00334184 0.00376243 -0.00268355)
(0.00348859 0.00340277 -0.00270438)
(0.00330003 0.00288829 -0.00271244)
(0.00338482 0.00263114 -0.00273227)
(0.00327365 0.00222307 -0.00274822)
(0.00330769 0.00200691 -0.00276044)
(0.00324356 0.00170116 -0.00277167)
(0.00324734 0.00151885 -0.00277756)
(0.00320984 0.00130222 -0.0027838)
(0.00319953 0.00115414 -0.00278626)
(0.00317742 0.00100576 -0.00278897)
(0.00316382 0.000892177 -0.00278988)
(0.00314902 0.000790869 -0.00279066)
(0.00313704 0.000708488 -0.00279077)
(0.00312611 0.000638776 -0.00279068)
(0.00311664 0.000581064 -0.00279035)
(0.00310831 0.000532944 -0.00278989)
(0.00310098 0.00049293 -0.00278936)
(0.0030945 0.00045958 -0.00278877)
(0.00308872 0.000431716 -0.00278816)
(0.00308348 0.000408329 -0.00278755)
(0.00307869 0.000388471 -0.00278695)
(0.00307433 0.000371328 -0.00278634)
(0.00307042 0.00035676 -0.00278577)
(0.00306691 0.000344004 -0.00278513)
(0.00306366 0.000331185 -0.00278423)
(0.00306047 0.000325084 -0.00278327)
(0.00305649 0.000296717 -0.00278191)
(0.00305481 0.000336661 -0.00278101)
(0.00304977 0.000217763 -0.00277957)
(0.00304879 0.000413163 -0.00277825)
(0.00304569 5.73319e-05 -0.00277665)
(0.00303629 0.000590531 -0.00277362)
(0.00304618 -0.000216891 -0.00277322)
(0.00301489 0.000900035 -0.0027626)
(0.00304294 -0.000618775 -0.00276563)
(0.00298041 0.00137672 -0.00273841)
(0.00301993 -0.00114003 -0.00274724)
(0.00290718 0.00209546 -0.0026999)
(0.00293547 -0.00172002 -0.00270036)
(0.0027519 0.00324615 -0.00262978)
(0.00269638 -0.00218185 -0.00260508)
(0.00234217 0.00525024 -0.00253419)
(0.00205119 -0.0019662 -0.00251677)
(0.0012617 0.00962713 -0.00248246)
(0.00123221 0.00102505 -0.00286377)
(0.00113358 0.0185492 -0.00330906)
(0.00380013 0.00070975 -0.00466888)
(0.00534489 0.0292719 -0.00504126)
(0.00476878 -0.0186336 -0.00556035)
(0.0153028 0.0475782 0.00366351)
(0.0270882 -0.0810827 -0.0110962)
(-0.0446185 0.0750569 -0.0959357)
(0.00775694 -0.129877 -0.0993156)
(0.0827999 -0.200543 -0.0105762)
(0.0649742 -0.011659 -0.000156499)
(0.0313112 -0.132505 -0.0038428)
(0.0278941 -0.085366 -0.00431129)
(0.0231804 -0.125134 -0.00534217)
(0.0127588 -0.0903795 -0.00168404)
(0.00906376 -0.114412 -0.000788982)
(0.00560911 -0.0907426 -0.000912738)
(0.00378486 -0.100151 -0.00113653)
(0.00229643 -0.0820963 -0.00141267)
(0.0013978 -0.0850041 -0.00181573)
(0.000864726 -0.071069 -0.00217199)
(0.000787685 -0.0702771 -0.0025816)
(0.000950263 -0.0598918 -0.00290097)
(0.00134264 -0.0571033 -0.00318018)
(0.00179767 -0.0497728 -0.0034152)
(0.00230467 -0.0459439 -0.00354914)
(0.00277044 -0.0409544 -0.00364151)
(0.00322039 -0.0371886 -0.00373384)
(0.0036759 -0.0335284 -0.00349115)
(0.00409904 -0.030675 -0.00307334)
(0.00438529 -0.0289643 -0.00298034)
(0.00450102 -0.0277985 -0.00321856)
(0.00450595 -0.0267179 -0.00356339)
(0.00443852 -0.0254672 -0.00392068)
(0.00431009 -0.0238915 -0.00423916)
(0.00424062 -0.0220075 -0.00437463)
(0.00424448 -0.0199196 -0.00436454)
(0.00426724 -0.0177294 -0.00431737)
(0.00428167 -0.0154819 -0.0042676)
(0.00427439 -0.0132027 -0.00422582)
(0.00423997 -0.01089 -0.00418845)
(0.0041904 -0.00855141 -0.00415703)
(0.00411182 -0.00619183 -0.00412757)
(0.00405075 -0.00372691 -0.00410438)
(0.00396006 -0.00131937 -0.00408097)
(0.0112742 0.0216597 0.00208942)
(0.0116631 0.0108825 0.00144586)
(0.00882279 0.00928565 -0.000261945)
(0.00927431 0.00715021 -0.000408332)
(0.00762849 0.00607034 -0.00080315)
(0.00820169 0.00548858 -0.000789707)
(0.00728904 0.00464603 -0.000919916)
(0.00775898 0.004345 -0.000876029)
(0.00720283 0.00365753 -0.000949037)
(0.00749277 0.00340815 -0.000915791)
(0.00714369 0.0028673 -0.000963075)
(0.00728411 0.00263266 -0.000945154)
(0.00706515 0.00223335 -0.000972471)
(0.00710252 0.00202579 -0.000963239)
(0.0069718 0.00174994 -0.000978429)
(0.00695354 0.00158209 -0.000974072)
(0.0068771 0.0013976 -0.000980195)
(0.0068395 0.00126782 -0.000978616)
(0.00679056 0.0011458 -0.000979567)
(0.00675334 0.00105044 -0.000978374)
(0.00671768 0.000968378 -0.000977217)
(0.00668678 0.000901267 -0.000975437)
(0.00665902 0.000845245 -0.00097336)
(0.00663426 0.000798865 -0.000970996)
(0.00661199 0.000760364 -0.000968426)
(0.00659187 0.000728289 -0.000965662)
(0.00657354 0.00070154 -0.000962713)
(0.00655672 0.000679281 -0.000959636)
(0.00654118 0.00066059 -0.000956481)
(0.00652678 0.000644543 -0.000953294)
(0.0065134 0.000630657 -0.000949853)
(0.00650076 0.000617178 -0.000946007)
(0.00648864 0.000609159 -0.000941829)
(0.00647518 0.000583423 -0.000937197)
(0.00646621 0.000622397 -0.000932808)
(0.00645081 0.000501121 -0.000927879)
(0.00644137 0.000713316 -0.000923561)
(0.00643052 0.000320908 -0.000917256)
(0.00640197 0.000925876 -0.000915126)
(0.00641654 7.62875e-06 -0.000904607)
(0.00633311 0.0012925 -0.000907924)
(0.00639339 -0.000457079 -0.000885947)
(0.00621044 0.00184916 -0.000899724)
(0.00631313 -0.00107017 -0.000862305)
(0.00597869 0.00265361 -0.000886543)
(0.00605009 -0.0017804 -0.000835352)
(0.00551003 0.00385842 -0.000862683)
(0.00535512 -0.00242055 -0.000810159)
(0.0044264 0.00589798 -0.000804312)
(0.00354019 -0.00240947 -0.000864399)
(0.00169221 0.0104819 -0.000803567)
(0.0023377 -0.00118177 -0.00131058)
(0.00282348 0.0185019 -0.00166776)
(0.0107096 -0.00634982 -0.00302636)
(0.0134555 0.0291748 -0.00105059)
(0.0202745 -0.0249273 -0.00213402)
(0.00148877 0.0368168 0.00970237)
(0.010584 -0.0298283 -0.0122496)
(0.0289136 0.16449 -0.0251341)
(0.0997122 -0.126371 -0.061284)
(0.11777 -0.22921 0.00551601)
(0.0572946 0.0775871 0.0112776)
(-0.00288889 -0.116235 0.00709374)
(0.00245884 -0.0403413 0.00516818)
(-0.00280702 -0.0802483 0.00514484)
(-0.0104912 -0.059249 0.00689634)
(-0.0109476 -0.0814848 0.00566998)
(-0.0112109 -0.0624971 0.00481606)
(-0.00976164 -0.0758355 0.00373467)
(-0.00859258 -0.0617972 0.00282591)
(-0.00709506 -0.0682029 0.00182052)
(-0.00574998 -0.0572468 0.00103651)
(-0.00418392 -0.0589217 0.000315935)
(-0.00279959 -0.050678 -0.00019423)
(-0.00133807 -0.0496549 -0.000635812)
(-7.12842e-05 -0.0438781 -0.000872283)
(0.00126306 -0.0413177 -0.000907293)
(0.00231303 -0.037311 -0.000895483)
(0.00299169 -0.034409 -0.000731248)
(0.00368467 -0.0317016 -0.000174769)
(0.0045373 -0.029831 0.0003531)
(0.00515269 -0.0286204 0.000381876)
(0.00540513 -0.0275965 9.37775e-05)
(0.0054819 -0.0265182 -0.000215224)
(0.00546435 -0.0252445 -0.000475108)
(0.00538106 -0.0237486 -0.000697837)
(0.0052487 -0.022036 -0.000914426)
(0.00510686 -0.0201159 -0.0011023)
(0.0049798 -0.018037 -0.00125452)
(0.004888 -0.0158429 -0.00133816)
(0.00484363 -0.0135927 -0.00137504)
(0.00482113 -0.011277 -0.00142247)
(0.00482022 -0.00891689 -0.0014597)
(0.00475985 -0.00648948 -0.00152547)
(0.00470705 -0.00391771 -0.00158177)
(0.00461663 -0.00140151 -0.00174364)
(0.0138548 0.0210947 0.00417047)
(0.014927 0.00995034 0.00353155)
(0.0103439 0.0081597 0.00116682)
(0.0115196 0.00679374 0.00114816)
(0.00895554 0.00556301 0.000593238)
(0.0101254 0.00539379 0.000733128)
(0.00865128 0.00440277 0.000506609)
(0.00950741 0.00432492 0.000653385)
(0.00858715 0.00349039 0.000495835)
(0.0091009 0.0033754 0.00059998)
(0.00851344 0.00272561 0.000487381)
(0.00875259 0.00258405 0.000551008)
(0.00838876 0.00212581 0.000480628)
(0.00845385 0.00197664 0.000515454)
(0.00823567 0.00167299 0.000478949)
(0.00821206 0.00153318 0.000496637)
(0.00808343 0.00134211 0.000481191)
(0.00802651 0.0012276 0.000489795)
(0.0079454 0.00110766 0.000487615)
(0.00788632 0.0010211 0.000493475)
(0.00782783 0.000943779 0.000497609)
(0.00777731 0.000882242 0.000503963)
(0.00773127 0.000830661 0.000510741)
(0.00768981 0.00078831 0.000518304)
(0.00765204 0.000753264 0.000526377)
(0.00761754 0.000724346 0.000534882)
(0.00758581 0.000700281 0.000543683)
(0.00755636 0.000680045 0.000552715)
(0.00752879 0.00066292 0.000561927)
(0.0075028 0.000648189 0.000571303)
(0.00747807 0.000635502 0.000580694)
(0.00745441 0.00062344 0.000590033)
(0.00743123 0.000616706 0.00059931)
(0.00740849 0.000591462 0.00060853)
(0.00738699 0.000631478 0.000617346)
(0.00736569 0.000507463 0.000625597)
(0.00733857 0.000725627 0.000633976)
(0.00732718 0.000318822 0.000642616)
(0.00727552 0.000943901 0.00064953)
(0.00729424 -1.45724e-05 0.000661001)
(0.00717585 0.00131465 0.00066317)
(0.00725566 -0.000521617 0.000686924)
(0.0070068 0.00185906 0.000674563)
(0.00715062 -0.00122612 0.000718349)
(0.00669899 0.00259859 0.000688882)
(0.00681335 -0.00213577 0.000746032)
(0.00606209 0.0035966 0.000697743)
(0.00583393 -0.00321037 0.000719761)
(0.00446747 0.00513503 0.000621535)
(0.00305022 -0.00415778 0.000377889)
(0.00133383 0.00867678 0.000338862)
(0.00134104 -0.00653285 0.000231473)
(0.00543977 0.0145417 0.000861354)
(0.010965 -0.0206872 -0.00228908)
(0.0154185 0.0265894 0.0036892)
(0.0188286 -0.0414489 0.00227227)
(-0.0281737 0.0614112 0.0281283)
(-0.0339306 -0.108967 -0.000665045)
(-0.0310977 0.171033 -0.0482558)
(0.116659 -0.128614 -0.0289417)
(0.155978 -0.211883 0.0218416)
(0.066065 0.100679 0.00932719)
(0.0513711 -0.111114 0.00618102)
(0.0205797 -0.0144936 0.00888329)
(0.00115748 -0.0616034 0.00815253)
(-0.00362613 -0.0386214 0.00719732)
(-0.00671228 -0.060337 0.00416132)
(-0.0091212 -0.0417246 0.00323341)
(-0.0091761 -0.0546983 0.00166423)
(-0.00899383 -0.0408714 0.00110131)
(-0.00778923 -0.0478205 0.000558601)
(-0.00660711 -0.0379254 0.000267758)
(-0.0046917 -0.0409468 -0.000103925)
(-0.00295814 -0.0343228 -0.000237768)
(-0.00127063 -0.0347235 -0.000140887)
(-1.83567e-05 -0.0303506 0.000101297)
(0.0011871 -0.0289946 0.000442585)
(0.0022478 -0.0263345 0.00105914)
(0.0033277 -0.0253641 0.00171481)
(0.00421171 -0.0249899 0.00209049)
(0.00476048 -0.0248042 0.00218427)
(0.00491105 -0.0246449 0.00212215)
(0.0048055 -0.0244238 0.00197686)
(0.0046303 -0.0240342 0.00180015)
(0.0044728 -0.0233643 0.00160804)
(0.00433643 -0.0223892 0.00142304)
(0.00424493 -0.0210874 0.00123164)
(0.00419785 -0.0194921 0.00109228)
(0.00412938 -0.017659 0.000984048)
(0.00406974 -0.0156048 0.0008717)
(0.00397313 -0.013418 0.000752235)
(0.00383119 -0.0110969 0.000635752)
(0.0036724 -0.0087446 0.000541413)
(0.00337084 -0.00634067 0.000391108)
(0.00314394 -0.00384061 0.0002003)
(0.00299745 -0.00139229 -0.000195836)
(0.0147304 0.0203352 0.00523832)
(0.0170019 0.00942615 0.00493848)
(0.0099964 0.00705684 0.00192556)
(0.0124513 0.00678205 0.00201169)
(0.00881473 0.00505744 0.00145116)
(0.0107999 0.00561135 0.00167387)
(0.00870657 0.00420213 0.001413)
(0.0100611 0.00451532 0.00161224)
(0.00873677 0.00335003 0.00141781)
(0.00953005 0.00347082 0.00155312)
(0.00867592 0.00259439 0.00141433)
(0.00905536 0.00260303 0.00149611)
(0.00852363 0.00201048 0.0014098)
(0.00864251 0.00195781 0.00145537)
(0.00832623 0.00158961 0.00141135)
(0.00830801 0.00150598 0.00143583)
(0.00812164 0.00128991 0.00141858)
(0.00804993 0.00120196 0.00143229)
(0.00793477 0.00107873 0.00142996)
(0.00785545 0.00100465 0.0014392)
(0.00777374 0.00093147 0.00144499)
(0.00770386 0.000876766 0.00145407)
(0.00763938 0.000830052 0.00146329)
(0.00758104 0.000792311 0.00147351)
(0.00752755 0.000761083 0.00148425)
(0.00747832 0.000735327 0.00149549)
(0.00743265 0.000713951 0.0015071)
(0.00738997 0.000696074 0.00151898)
(0.00734985 0.000681044 0.00153106)
(0.00731198 0.000668212 0.00154332)
(0.0072761 0.000657156 0.00155571)
(0.00724196 0.000646547 0.00156825)
(0.00720872 0.000641051 0.00158081)
(0.00717668 0.00061667 0.00159375)
(0.00714631 0.00065812 0.00160611)
(0.00711729 0.000531607 0.00161923)
(0.0070822 0.000756568 0.00163167)
(0.00706414 0.000334317 0.00164521)
(0.00700491 0.000982718 0.00165689)
(0.00701869 -2.44083e-05 0.00167248)
(0.00689127 0.00136378 0.00168245)
(0.00697661 -0.000583086 0.00170699)
(0.0067052 0.00189742 0.00170594)
(0.00687998 -0.0013904 0.00175158)
(0.00639477 0.00254821 0.00173395)
(0.00656736 -0.00254189 0.00179309)
(0.00579219 0.0032019 0.00176094)
(0.00564816 -0.00424754 0.00173543)
(0.00428716 0.00360972 0.0016217)
(0.00302477 -0.00703003 0.000780561)
(0.0017433 0.00425886 0.00133421)
(0.00261681 -0.0134696 0.000880905)
(0.0102259 0.00226691 0.0048481)
(0.0174626 -0.0292003 0.00155613)
(0.0227594 0.0125589 0.00740685)
(0.0193383 -0.0535897 -0.00188577)
(-0.00133865 0.0588631 0.0224532)
(-0.0458476 -0.120759 0.014581)
(-0.03109 0.214538 -0.0950719)
(0.12784 -0.16924 -0.00316903)
(0.169585 -0.189906 0.0352026)
(0.0657913 0.0998782 0.005675)
(0.0545634 -0.0473865 0.0086112)
(-0.0127991 0.0521094 0.00877037)
(-0.0103483 -0.0274288 0.010525)
(-0.0114764 0.00557583 0.00387503)
(-0.0114785 -0.0244458 0.00111219)
(-0.0104987 -0.00684306 -0.00056833)
(-0.00839985 -0.0217578 -0.00134434)
(-0.00702627 -0.00920207 -0.00164407)
(-0.00535334 -0.0172289 -0.00191527)
(-0.00422492 -0.00848624 -0.001716)
(-0.00247543 -0.0122138 -0.00114124)
(-0.00112706 -0.00673581 -0.000544558)
(0.00017977 -0.00889619 6.98562e-05)
(0.00127017 -0.00721963 0.000744627)
(0.00243299 -0.00879963 0.00145634)
(0.00331442 -0.0093598 0.00200896)
(0.00399407 -0.0107145 0.00231028)
(0.00425621 -0.0122091 0.00240098)
(0.00423469 -0.0135547 0.00237823)
(0.00394235 -0.0149642 0.00230061)
(0.00348785 -0.0162018 0.00219992)
(0.00301928 -0.0172597 0.00211817)
(0.00253768 -0.0179903 0.00204481)
(0.00207109 -0.0183618 0.00193721)
(0.00168541 -0.0182479 0.00176542)
(0.00137733 -0.0176951 0.00158159)
(0.00113181 -0.0166594 0.00138587)
(0.000988561 -0.0152168 0.00123795)
(0.000928578 -0.013488 0.00113696)
(0.00097151 -0.0114601 0.00112248)
(0.00111917 -0.00942662 0.00111499)
(0.00124524 -0.00727598 0.000976086)
(0.0015313 -0.00479423 0.000801732)
(0.00176355 -0.00188466 0.000419967)
(0.0139173 0.0190534 0.00600344)
(0.0183125 0.00946213 0.00610473)
(0.008142 0.00625456 0.00252198)
(0.0122969 0.00736502 0.00278935)
(0.00743863 0.00476531 0.00204841)
(0.0104922 0.00616647 0.00242605)
(0.00774218 0.00406304 0.00206737)
(0.00971717 0.00485734 0.00239057)
(0.00793532 0.00319164 0.00211319)
(0.00907205 0.00361999 0.00232691)
(0.00789482 0.00241997 0.00212967)
(0.00844949 0.00263762 0.00225934)
(0.00770482 0.00185798 0.00213551)
(0.00790191 0.00194083 0.00221059)
(0.00745777 0.00147782 0.00214485)
(0.00746151 0.00147614 0.00218645)
(0.00720399 0.00122097 0.00216092)
(0.007124 0.00117615 0.00218507)
(0.00696798 0.00104366 0.00218195)
(0.00687019 0.000988513 0.00219778)
(0.00676329 0.000918602 0.00220614)
(0.00667414 0.00087299 0.00222023)
(0.00659057 0.000831793 0.00223384)
(0.00651483 0.000799567 0.002249)
(0.00644488 0.000772813 0.00226474)
(0.0063801 0.000750889 0.00228117)
(0.00631961 0.000732683 0.00229814)
(0.00626271 0.000717512 0.00231543)
(0.00620893 0.00070479 0.00233293)
(0.00615788 0.000693945 0.00235064)
(0.00610915 0.000684553 0.00236844)
(0.00606239 0.000675494 0.00238632)
(0.00601688 0.000671244 0.00240401)
(0.00597279 0.000647348 0.00242203)
(0.00593085 0.000690404 0.00243943)
(0.00589022 0.000561014 0.00245764)
(0.00584525 0.00079314 0.00247564)
(0.00581537 0.000355503 0.00249357)
(0.00575012 0.00102765 0.00251235)
(0.00575177 -2.50994e-05 0.00253092)
(0.00562712 0.00142275 0.002551)
(0.00570133 -0.000632093 0.00257493)
(0.00544261 0.00195955 0.00259073)
(0.00563675 -0.0015176 0.00263791)
(0.00516649 0.00255029 0.00264121)
(0.00544041 -0.00280556 0.00270868)
(0.00472834 0.00295505 0.002727)
(0.00490463 -0.00482262 0.00273801)
(0.00383523 0.00253589 0.00277943)
(0.00330095 -0.00885577 0.00245784)
(0.00364751 1.58404e-05 0.00472185)
(0.00547427 -0.0188634 0.00961662)
(0.010165 -0.000566751 0.0148837)
(0.0138532 -0.0215277 0.0170333)
(0.0168511 0.0250464 0.0295147)
(0.00223338 -0.0412301 0.0269415)
(-0.017877 0.0506421 0.0543)
(-0.0856334 -0.125517 0.0432309)
(0.0100856 0.180541 -0.158708)
(0.099442 -0.209352 0.00388894)
(0.157696 -0.155329 0.0385436)
(0.0553888 0.099086 0.00452795)
(0.0501455 0.00283174 0.00353876)
(0.0162474 0.0782049 0.00225635)
(0.0117695 0.0208084 0.00301255)
(-0.000288094 0.0507036 0.000116395)
(-0.000821429 0.0249527 -0.000926596)
(-0.00290421 0.0426493 -0.000580988)
(-0.00224881 0.028118 -0.000932143)
(-0.00270997 0.0389946 -0.000408735)
(-0.00157864 0.0294528 -7.37922e-05)
(-0.00100494 0.0353349 0.00069582)
(0.000488874 0.0285104 0.00134382)
(0.00131664 0.0299899 0.00215094)
(0.00238436 0.0249315 0.00280936)
(0.00291491 0.0240274 0.00322272)
(0.0034916 0.0202475 0.00357318)
(0.00379645 0.017589 0.00371782)
(0.00411036 0.0145136 0.00377311)
(0.00417961 0.0110175 0.00364566)
(0.00401317 0.0077599 0.00351703)
(0.00355711 0.00421111 0.00327419)
(0.00301505 0.00083092 0.00292781)
(0.00240426 -0.00253637 0.00259996)
(0.00169382 -0.00565123 0.00233048)
(0.000978132 -0.00855139 0.00213013)
(0.000296989 -0.0106217 0.0018762)
(-0.000386978 -0.0121671 0.00168471)
(-0.00107898 -0.0129439 0.00130467)
(-0.00142782 -0.0127873 0.000986353)
(-0.0018345 -0.0119638 0.000569077)
(-0.00206723 -0.0104328 0.000105424)
(-0.00232751 -0.00851968 -0.000417481)
(-0.00322979 -0.00580874 -0.000833479)
(-0.00411006 -0.00340195 -0.000743411)
(-0.00511744 -0.00140729 -0.0011368)
(0.011248 0.0174742 0.00671686)
(0.0188886 0.0101735 0.00730946)
(0.00504114 0.00562308 0.00336041)
(0.0112177 0.00869141 0.00375371)
(0.00515229 0.00456426 0.00293154)
(0.00926484 0.00706818 0.00345648)
(0.00590533 0.00388019 0.00300663)
(0.00841721 0.00532601 0.00346242)
(0.00624803 0.00294719 0.00312449)
(0.00764326 0.00379859 0.00341941)
(0.00621615 0.0021551 0.00318977)
(0.00690236 0.00266178 0.00336715)
(0.00601099 0.00162915 0.00322944)
(0.00627952 0.00190113 0.00333575)
(0.00575659 0.00130897 0.0032668)
(0.00579984 0.00142081 0.00333113)
(0.00550455 0.00111209 0.00330827)
(0.00544196 0.00112829 0.00334866)
(0.00526906 0.00098032 0.00335387)
(0.00517509 0.000954628 0.00338274)
(0.00506161 0.00088752 0.00339953)
(0.00497099 0.000854959 0.00342456)
(0.00488402 0.000820587 0.00344783)
(0.00480553 0.000795633 0.00347295)
(0.00473278 0.000774606 0.0034985)
(0.00466536 0.000757572 0.00352511)
(0.00460239 0.000743506 0.00355246)
(0.00454305 0.000731931 0.0035796)
(0.0044869 0.000722233 0.00360624)
(0.0044339 0.000713927 0.00363278)
(0.00438368 0.000706703 0.0036593)
(0.00433596 0.000699507 0.00368585)
(0.00429028 0.000696857 0.00371215)
(0.00424634 0.000674073 0.00373837)
(0.00420644 0.000719001 0.00376446)
(0.00416591 0.000588021 0.00379019)
(0.00412755 0.0008266 0.00381845)
(0.004095 0.000377275 0.00384221)
(0.00404624 0.00107046 0.00387384)
(0.00403983 -1.94867e-05 0.00389515)
(0.00395298 0.00148118 0.00393273)
(0.00401128 -0.0006625 0.00395421)
(0.00382505 0.00204003 0.00399538)
(0.00402349 -0.00161135 0.00403456)
(0.00364624 0.00261959 0.0040663)
(0.00405258 -0.00300075 0.00413345)
(0.00343247 0.00290483 0.00417647)
(0.0040751 -0.00516277 0.00419263)
(0.00329496 0.00204996 0.00433212)
(0.00406114 -0.00932324 0.00432206)
(0.00390039 -0.001365 0.00684803)
(0.00173592 -0.016775 0.0112548)
(-0.0011904 0.000276584 0.0140601)
(-0.00385255 -0.012711 0.022057)
(0.00249205 0.0260665 0.0410328)
(-0.00142044 -0.0274819 0.0547806)
(0.0159116 0.028238 0.107193)
(-0.0519232 -0.137541 0.0915363)
(0.0294505 0.0923048 -0.140193)
(0.0634055 -0.226776 0.013828)
(0.128207 -0.0995954 0.0385303)
(0.0356724 0.13234 0.00148289)
(0.0332779 0.0495613 0.0105845)
(0.00859979 0.113977 0.00266202)
(0.00594128 0.0837321 0.00341369)
(0.00185559 0.110884 0.000937837)
(0.00169294 0.0868712 0.00314577)
(-4.34442e-06 0.103624 0.00238178)
(0.00112708 0.0860815 0.00371738)
(0.000720438 0.0955288 0.00387521)
(0.00147366 0.0830215 0.00467083)
(0.00187579 0.087725 0.00498452)
(0.00331497 0.0786946 0.00577109)
(0.00393262 0.0792314 0.00619119)
(0.00367523 0.0721543 0.00667114)
(0.00451301 0.070074 0.00672973)
(0.00504424 0.0648362 0.00686538)
(0.00541458 0.0605105 0.0065756)
(0.00585213 0.0561814 0.00634794)
(0.00614436 0.0509092 0.00590182)
(0.0059124 0.0459403 0.00559)
(0.00537438 0.0402662 0.00517464)
(0.00465423 0.0347301 0.00467274)
(0.00393776 0.0287182 0.00413509)
(0.00289659 0.0226274 0.00353716)
(0.00142744 0.0164541 0.00313673)
(4.48815e-05 0.010695 0.00281302)
(-0.00146249 0.00539172 0.00248746)
(-0.0030835 0.000340584 0.00209034)
(-0.00434747 -0.00317284 0.00186805)
(-0.00531287 -0.00597674 0.00158126)
(-0.00555962 -0.00713124 0.0014226)
(-0.00552413 -0.00748465 0.000953806)
(-0.00516499 -0.00646842 8.76295e-05)
(-0.00374885 -0.00488753 -0.00153362)
(-0.00349854 -0.00245766 -0.00510223)
(0.00609493 0.0153335 0.00719878)
(0.0184466 0.0119067 0.00829794)
(-0.000161571 0.00493307 0.00425291)
(0.00898126 0.0106674 0.00476585)
(0.00127612 0.00413437 0.00400475)
(0.0067955 0.00816516 0.00460951)
(0.00258698 0.00348453 0.00422948)
(0.00575928 0.00582494 0.00473586)
(0.00301199 0.00256432 0.00444826)
(0.00471944 0.00397326 0.00475741)
(0.00287349 0.00183278 0.0045462)
(0.00370375 0.00269989 0.00473391)
(0.00252672 0.00140154 0.00459348)
(0.00286026 0.00189151 0.00471011)
(0.0021578 0.00116512 0.00463333)
(0.00222024 0.00139969 0.00470613)
(0.00182338 0.00102986 0.00467673)
(0.00175729 0.00110939 0.00472336)
(0.00153148 0.000939708 0.00472447)
(0.00142277 0.000944723 0.00475769)
(0.00128426 0.000875323 0.00477544)
(0.00117942 0.000854714 0.00480342)
(0.00107861 0.00082485 0.00482798)
(0.000989638 0.000805982 0.0048549)
(0.000908252 0.000789495 0.00488181)
(0.000833509 0.000776401 0.00490878)
(0.000764136 0.000765843 0.00493524)
(0.000700295 0.000757469 0.00496182)
(0.000641769 0.000750709 0.00498905)
(0.000587173 0.000745306 0.00501657)
(0.000535885 0.000740788 0.00504415)
(0.000487526 0.000736269 0.00507171)
(0.00044197 0.000736243 0.00509923)
(0.000398442 0.000715776 0.00512675)
(0.000359816 0.00076255 0.00515389)
(0.000318344 0.000633131 0.00517927)
(0.00028661 0.000875466 0.00520888)
(0.000249239 0.000423038 0.00522995)
(0.000218356 0.00112904 0.00526453)
(0.000200195 2.03595e-05 0.00528016)
(0.000150953 0.00155712 0.00532219)
(0.000189591 -0.000637328 0.00533357)
(7.81038e-05 0.00215528 0.00538487)
(0.00026455 -0.00161354 0.00540562)
(-2.88313e-06 0.00282492 0.00545191)
(0.000504976 -0.00303886 0.00551546)
(2.36555e-05 0.00336309 0.00557353)
(0.00110723 -0.00519627 0.00567608)
(0.000556041 0.00316439 0.00581957)
(0.00254718 -0.00854484 0.005767)
(0.00156989 0.00170898 0.00690087)
(0.000862826 -0.0153715 0.00845037)
(-0.00719345 -0.00307515 0.00846753)
(-0.0163258 -0.0262082 0.0088459)
(-0.0211121 -0.00480551 0.021893)
(-0.0265466 -0.0549598 0.0375912)
(-0.00386304 -0.0276333 0.0687421)
(-0.00597476 -0.128551 0.0671085)
(0.0251063 0.00242327 -0.138113)
(0.0304544 -0.254847 0.0117626)
(0.0646875 -0.0334801 0.0278305)
(0.0160071 0.168707 -0.0028696)
(0.0199405 0.119055 0.00800427)
(0.00209153 0.174024 0.00368698)
(0.00221569 0.147074 0.00886102)
(0.00201975 0.172548 0.00686123)
(0.00221091 0.152679 0.00919483)
(0.00168681 0.166314 0.00907265)
(0.00248706 0.15026 0.0101292)
(0.001846 0.156551 0.0102312)
(0.00308421 0.143823 0.0112208)
(0.00257393 0.146208 0.0108037)
(0.00425124 0.136256 0.0117588)
(0.0040268 0.134396 0.011186)
(0.00558225 0.12664 0.0124812)
(0.00543388 0.122531 0.01139)
(0.00664133 0.11732 0.011825)
(0.00669498 0.111667 0.0110598)
(0.00734525 0.107119 0.0107499)
(0.00761894 0.102027 0.0100141)
(0.00781615 0.0978573 0.0095352)
(0.00776302 0.0924323 0.00884405)
(0.00762182 0.0872849 0.00752294)
(0.00728149 0.0815692 0.00659006)
(0.00659632 0.0750818 0.00528085)
(0.0054322 0.068017 0.004155)
(0.004022 0.0601888 0.00290709)
(0.00252127 0.0519113 0.00178173)
(0.00037794 0.0427044 7.63749e-05)
(-0.00174412 0.0334456 -0.00115037)
(-0.00463699 0.0235227 -0.00278533)
(-0.00663046 0.0153563 -0.00393297)
(-0.00904379 0.00742369 -0.00420651)
(-0.0116086 0.00164615 -0.004562)
(-0.0121428 -0.00156151 -0.00506807)
(-0.0151238 -0.00159165 -0.0090153)
(-0.000976188 0.0108237 0.00776975)
(0.0177096 0.0146592 0.00778411)
(-0.00576079 0.00409031 0.0049884)
(0.00699598 0.0133447 0.00498)
(-0.00276559 0.00352182 0.00501091)
(0.0041474 0.00944242 0.00529668)
(-0.0010477 0.00283765 0.00544852)
(0.00263436 0.00625972 0.00582301)
(-0.000625895 0.00191465 0.0058373)
(0.00124063 0.00404187 0.00607996)
(-0.000876256 0.00127081 0.00604387)
(4.39921e-05 0.00261939 0.00622808)
(-0.0012808 0.000975586 0.00619979)
(-0.000871664 0.00177522 0.00634356)
(-0.00164874 0.000871314 0.00634185)
(-0.00152395 0.00129429 0.0064559)
(-0.00194307 0.000847588 0.00647815)
(-0.00196101 0.00103121 0.00656798)
(-0.00217478 0.000843214 0.00660696)
(-0.00224371 0.000898675 0.00667805)
(-0.00235379 0.000835767 0.00672731)
(-0.00242233 0.000839175 0.00678619)
(-0.0024878 0.000821826 0.00683785)
(-0.00253909 0.000816308 0.00689149)
(-0.00258213 0.000810687 0.00694366)
(-0.00261717 0.000807816 0.00699548)
(-0.00264498 0.000806214 0.00704668)
(-0.00266821 0.000805102 0.00709658)
(-0.00268906 0.000804166 0.00714468)
(-0.00270568 0.000803509 0.0071919)
(-0.0027184 0.000803248 0.00723831)
(-0.00272758 0.000802641 0.0072839)
(-0.00273344 0.000806061 0.00732818)
(-0.00273727 0.000789513 0.00737193)
(-0.00273508 0.000839101 0.0074136)
(-0.00273819 0.000713731 0.0074552)
(-0.00272159 0.000961926 0.00749825)
(-0.00272644 0.000507778 0.00753639)
(-0.00269548 0.00123056 0.007582)
(-0.0026918 0.000101468 0.00761558)
(-0.00265926 0.00168476 0.00766515)
(-0.00261389 -0.000567535 0.00769486)
(-0.00260977 0.00233764 0.00775066)
(-0.00243759 -0.00156601 0.00778419)
(-0.00254092 0.00313809 0.00783992)
(-0.00203987 -0.00297384 0.00790664)
(-0.00232392 0.00396503 0.00795794)
(-0.0012054 -0.00493488 0.00808405)
(-0.0016642 0.00465919 0.00820339)
(0.000586019 -0.00733211 0.00839795)
(-0.000112051 0.00555674 0.00905828)
(0.00166692 -0.0106766 0.00996266)
(-0.00533771 0.00577251 0.0105998)
(-0.0079801 -0.0193116 0.00884148)
(-0.0147128 0.000341803 0.0233049)
(-0.0163977 -0.0529701 0.0294116)
(-0.0129488 -0.0329492 0.0583276)
(0.00839015 -0.106553 0.0511855)
(-0.00630213 -0.0426695 -0.1281)
(-0.00775198 -0.257401 0.0114895)
(-0.0250172 0.0161876 0.0143619)
(-0.0154986 0.204945 -0.0070979)
(-0.00707557 0.175434 0.00722342)
(-0.0061161 0.225212 0.00919138)
(3.10313e-05 0.198656 0.0137006)
(0.000595653 0.221598 0.0140216)
(0.00312996 0.203161 0.0153345)
(0.0037393 0.214761 0.0160496)
(0.00455037 0.201267 0.0167103)
(0.00520725 0.206147 0.0172378)
(0.00598718 0.196501 0.0178028)
(0.0064403 0.197165 0.0179985)
(0.00722725 0.189903 0.0184978)
(0.00792605 0.187622 0.0184557)
(0.00936108 0.18202 0.0188947)
(0.00968964 0.178701 0.0187768)
(0.0106061 0.174427 0.0189421)
(0.011084 0.170712 0.0188923)
(0.0117014 0.166694 0.0189782)
(0.0121757 0.163111 0.0190447)
(0.0129619 0.159456 0.0190298)
(0.0132979 0.155897 0.018854)
(0.0135847 0.152332 0.0185174)
(0.0135454 0.148765 0.0179844)
(0.0135248 0.144342 0.0172454)
(0.0133275 0.13984 0.0163786)
(0.0128079 0.134235 0.0152532)
(0.0120143 0.128093 0.0139247)
(0.0109678 0.120167 0.0118145)
(0.00956031 0.110701 0.00922946)
(0.00784928 0.100339 0.00607035)
(0.00554674 0.0877012 0.00152987)
(0.00276045 0.0734006 -0.0043696)
(-0.00110333 0.0560548 -0.01342)
(-0.00670779 0.0322425 -0.030027)
(-0.0105687 0.0132562 -0.0448027)
(-0.0103465 0.00646557 -0.00285928)
(0.0163777 0.0195126 0.00609839)
(-0.0118867 0.00220954 0.0004546)
(0.00507303 0.0163048 0.00122175)
(-0.00675542 0.00220521 0.00196451)
(0.00150505 0.0104589 0.00233561)
(-0.00501729 0.00177917 0.00290416)
(-0.000825284 0.00655936 0.00337434)
(-0.0049364 0.001206 0.00350935)
(-0.00283895 0.00412617 0.00377772)
(-0.00543052 0.000821316 0.00379065)
(-0.0044573 0.00262359 0.00395353)
(-0.00602308 0.000708937 0.00397575)
(-0.00561539 0.00176251 0.00409591)
(-0.00652339 0.000729426 0.00412419)
(-0.0064089 0.00129626 0.00422564)
(-0.00690369 0.000795015 0.00425837)
(-0.00693568 0.00105568 0.00434299)
(-0.00719406 0.000852694 0.00438307)
(-0.00727954 0.000947504 0.00445142)
(-0.00741549 0.000889522 0.00449866)
(-0.00749973 0.000911082 0.00455546)
(-0.00758079 0.000903496 0.00460495)
(-0.00764512 0.000907746 0.00465595)
(-0.00769937 0.000910184 0.00470526)
(-0.00774418 0.00091395 0.00475392)
(-0.00778109 0.000918274 0.0048016)
(-0.00781021 0.000923107 0.00484849)
(-0.0078319 0.000927634 0.00489462)
(-0.00784863 0.000931571 0.00493975)
(-0.00786088 0.000935265 0.00498401)
(-0.00786902 0.000938331 0.00502755)
(-0.00787319 0.000944034 0.00507027)
(-0.00787453 0.000932428 0.00511312)
(-0.00786806 0.000981227 0.00515315)
(-0.00787105 0.000866017 0.0051961)
(-0.00784186 0.00110617 0.00523634)
(-0.00785408 0.000670886 0.00527962)
(-0.00779323 0.00137511 0.00532039)
(-0.00781192 0.000281258 0.00536238)
(-0.00772127 0.00183228 0.00540623)
(-0.00772214 -0.000362398 0.0054449)
(-0.00761285 0.00249796 0.00549868)
(-0.00752894 -0.00132235 0.00553227)
(-0.00744097 0.00335343 0.00560476)
(-0.00710131 -0.0026776 0.00563943)
(-0.00711639 0.00433059 0.00573632)
(-0.00626324 -0.00448694 0.00577549)
(-0.0065193 0.00544678 0.00587619)
(-0.00471784 -0.00670493 0.00597581)
(-0.00571931 0.00720823 0.00621112)
(-0.00394075 -0.00918297 0.00638285)
(-0.010508 0.0114444 0.00719718)
(-0.00924775 -0.0173488 0.00713941)
(-0.0200772 0.0100504 0.0232347)
(-0.0061639 -0.0523531 0.0284323)
(-0.0147251 -0.0183427 0.0521025)
(0.0542508 -0.134694 0.0525651)
(-0.0341298 0.03497 -0.148254)