/*--------------------------------*- C++ -*----------------------------------*\
| =========                 |                                                 |
| \\      /  F ield         | OpenFOAM: The Open Source CFD Toolbox           |
|  \\    /   O peration     | Version:  2.3.0                                 |
|   \\  /    A nd           | Web:      www.OpenFOAM.org                      |
|    \\/     M anipulation  |                                                 |
\*---------------------------------------------------------------------------*/
FoamFile
{
    version     2.0;
    format      ascii;
    class       volVectorField;
    location    "6";
    object      U.water;
}
// * * * * * * * * * * * * * * * * * * * * * * * * * * * * * * * * * * * * * //

dimensions      [0 1 -1 0 0 0 0];

internalField   nonuniform List<vector> 
6144
(
(0.00896774 0.0244896 -0.00160648)
(0.00857354 0.00884005 -0.00179721)
(0.00616979 0.0071106 -0.00284271)
(0.00603797 0.00470175 -0.00294731)
(0.00521387 0.0038715 -0.00307342)
(0.00525374 0.00339998 -0.00312905)
(0.00492089 0.00300887 -0.00318614)
(0.0050655 0.00277545 -0.00322235)
(0.00487357 0.00239411 -0.00330206)
(0.00501714 0.00218849 -0.00333587)
(0.00487539 0.00178626 -0.00341836)
(0.00497691 0.0016113 -0.00344477)
(0.00486961 0.00124421 -0.00350759)
(0.00492366 0.00110537 -0.00352835)
(0.004851 0.00082153 -0.00356921)
(0.00486925 0.000707244 -0.00358384)
(0.00483003 0.00051632 -0.00360874)
(0.0048271 0.000417426 -0.00362019)
(0.00480691 0.000299945 -0.00363457)
(0.00479684 0.000219287 -0.00364386)
(0.00478473 0.000144345 -0.00365284)
(0.00477543 8.46465e-05 -0.00366001)
(0.00476713 3.31269e-05 -0.00366636)
(0.00476018 -1.07761e-05 -0.0036719)
(0.00475433 -4.94024e-05 -0.00367686)
(0.00474953 -8.43207e-05 -0.00368136)
(0.00474565 -0.000117103 -0.00368553)
(0.00474263 -0.000149096 -0.00368945)
(0.00474039 -0.000181646 -0.00369324)
(0.00473892 -0.000216124 -0.00369709)
(0.00473848 -0.000252199 -0.0037011)
(0.00473879 -0.000303743 -0.00370483)
(0.0047425 -0.000320545 -0.00370879)
(0.00473782 -0.000459772 -0.00371223)
(0.00475647 -0.000380092 -0.00371733)
(0.00474206 -0.000694612 -0.00372088)
(0.00477219 -0.000492599 -0.00373183)
(0.00478103 -0.0010022 -0.00372907)
(0.00476987 -0.000698185 -0.00374464)
(0.00485125 -0.00142224 -0.00374612)
(0.00479179 -0.00108054 -0.00376487)
(0.00492104 -0.0020157 -0.00376307)
(0.00484418 -0.00172957 -0.00379092)
(0.00500968 -0.0028874 -0.00379391)
(0.00493089 -0.00277946 -0.0038355)
(0.00509436 -0.00417826 -0.00386787)
(0.00506997 -0.00433706 -0.00396622)
(0.00526468 -0.00611888 -0.0041033)
(0.00525923 -0.00580588 -0.00443369)
(0.0061474 -0.00952346 -0.00505527)
(0.0057918 -0.00487649 -0.0059209)
(0.00848689 -0.0163603 -0.00715014)
(0.00869775 -0.00236045 -0.00761623)
(0.00666055 -0.0314174 -0.0071964)
(0.00756685 0.0168299 -0.00556872)
(-0.00855761 -0.0486043 -0.0130401)
(0.00269867 0.0671404 0.00124877)
(0.00423554 -0.059991 -0.0248299)
(-0.03123 0.0996625 -0.0922761)
(0.0485454 -0.0924767 -0.127776)
(0.123174 -0.2486 -0.020432)
(0.0771984 -0.0771697 -0.00621011)
(0.0293051 -0.15731 0.000361063)
(0.0304192 -0.15625 0.00270168)
(0.0261664 -0.157488 0.00385837)
(0.0176502 -0.163837 0.00568234)
(0.0108242 -0.168279 0.00674197)
(0.00674305 -0.170374 0.00621491)
(0.00409061 -0.169884 0.00503211)
(0.00186716 -0.167507 0.00420283)
(-3.77925e-05 -0.163397 0.00295672)
(-0.0011416 -0.157626 0.00229607)
(-0.00195227 -0.152207 0.00132394)
(-0.00214451 -0.144898 -0.000729972)
(-0.0016524 -0.137012 -0.000618421)
(-0.00148664 -0.131473 -0.00188183)
(-0.00110482 -0.120983 -0.00415836)
(-0.000760199 -0.108472 -0.00225973)
(-0.00136741 -0.10084 -0.00524081)
(-0.00306931 -0.0869745 -0.0130185)
(-0.00321326 -0.0568364 -0.0105979)
(-0.000745805 -0.0335036 -0.00160841)
(0.00170703 -0.0231156 0.00228409)
(0.00340483 -0.0206332 0.00239207)
(0.00500705 -0.0225186 0.0014941)
(0.00589046 -0.0258941 -0.000670243)
(0.00546559 -0.0273002 -0.00298538)
(0.00505983 -0.026612 -0.00425952)
(0.00498387 -0.0243654 -0.0047439)
(0.00521618 -0.0212924 -0.00480567)
(0.00554623 -0.0179487 -0.00467736)
(0.00573443 -0.0145863 -0.00460224)
(0.00583636 -0.0112816 -0.00456807)
(0.00585372 -0.00812927 -0.00456145)
(0.00588856 -0.0048405 -0.00456205)
(0.00584034 -0.00174517 -0.00456347)
(0.0182731 0.0239295 0.00335047)
(0.0180953 0.0095981 0.00263112)
(0.0121695 0.00803708 -8.39088e-05)
(0.0123136 0.00636483 -0.00030282)
(0.0103902 0.00557524 -0.000773654)
(0.0107659 0.00542442 -0.00073461)
(0.0101459 0.00479883 -0.000884999)
(0.010553 0.0045692 -0.00079439)
(0.0101961 0.003953 -0.000955221)
(0.0105695 0.00365543 -0.000871913)
(0.0102419 0.00304753 -0.00103162)
(0.0105238 0.00277791 -0.000979098)
(0.010233 0.00225277 -0.00110349)
(0.0104 0.00203159 -0.0010765)
(0.0101828 0.0016346 -0.00115938)
(0.0102532 0.00146666 -0.00114662)
(0.0101198 0.00119179 -0.0011961)
(0.010124 0.00105868 -0.0011963)
(0.0100538 0.000886308 -0.00121845)
(0.0100295 0.000779266 -0.00122337)
(0.00999051 0.000672325 -0.00123178)
(0.00996343 0.000591139 -0.0012356)
(0.00993779 0.000519876 -0.00123838)
(0.00991657 0.000460366 -0.00123947)
(0.00989844 0.000408616 -0.00123944)
(0.00988344 0.00036291 -0.00123842)
(0.00987125 0.00032114 -0.00123657)
(0.00986165 0.00028163 -0.00123409)
(0.00985466 0.000242859 -0.00123106)
(0.00985049 0.000202767 -0.00122727)
(0.00984956 0.000160942 -0.00122184)
(0.00985093 0.000107189 -0.00121513)
(0.00985956 7.84275e-05 -0.00120738)
(0.00985789 -5.20028e-05 -0.0012004)
(0.00989272 1.90689e-05 -0.00119049)
(0.00988251 -0.000312117 -0.0011855)
(0.00993969 -5.15666e-05 -0.00117455)
(0.00996551 -0.000680554 -0.00116649)
(0.00998397 -0.000199905 -0.00115901)
(0.0101229 -0.00114543 -0.0011336)
(0.0100605 -0.000527937 -0.00115999)
(0.0103381 -0.0017753 -0.00108337)
(0.0102024 -0.00109259 -0.00114451)
(0.0106051 -0.00265349 -0.00103451)
(0.0104438 -0.00202361 -0.00112011)
(0.0108896 -0.00385425 -0.00100932)
(0.0108363 -0.00331347 -0.00113791)
(0.0112972 -0.00542307 -0.00114317)
(0.011309 -0.00349889 -0.00154444)
(0.0120932 -0.00706066 -0.00254424)
(0.0128008 0.00341137 -0.00388743)
(0.0158423 -0.00415918 -0.0057686)
(0.016801 0.0237504 -0.00633014)
(0.0076898 -0.00180929 -0.00159108)
(0.0120963 0.0430837 0.00278532)
(0.00801663 -0.0338319 -0.00067554)
(-0.0291463 0.0283855 0.00848585)
(-0.0133352 -0.0149429 -0.014591)
(0.0226961 0.154656 -0.0171313)
(0.168928 -0.131494 -0.0688572)
(0.17596 -0.212739 -0.0152827)
(0.0505079 0.10193 0.00638041)
(-0.0306683 -0.125704 0.00897468)
(-0.0131509 -0.0725773 0.00979872)
(-0.0156519 -0.0954478 0.0107225)
(-0.0206996 -0.114813 0.0131041)
(-0.0212724 -0.123395 0.013292)
(-0.0204792 -0.129899 0.0114429)
(-0.0193164 -0.133732 0.0093034)
(-0.0180857 -0.135251 0.00769096)
(-0.0171583 -0.134541 0.00610426)
(-0.0155953 -0.132244 0.00486355)
(-0.0139565 -0.129148 0.00281255)
(-0.012802 -0.123366 0.00128848)
(-0.0107817 -0.118046 0.00129567)
(-0.0109987 -0.113688 -0.00106191)
(-0.0118213 -0.106986 -0.00190944)
(-0.00623838 -0.0972394 -0.000813327)
(-0.00485672 -0.0876071 -0.0077865)
(-0.013467 -0.0683781 -0.0150025)
(-0.0157377 -0.0423896 -0.00757943)
(-0.00871124 -0.0280399 0.0024171)
(-0.0034102 -0.021771 0.00518419)
(-0.0005078 -0.02036 0.00472394)
(0.00205622 -0.0216617 0.00416711)
(0.00411525 -0.0233941 0.00371787)
(0.00516293 -0.024597 0.0028708)
(0.0053096 -0.0247669 0.00169328)
(0.00496927 -0.023569 0.000205171)
(0.00452006 -0.0211875 -0.00119131)
(0.00441891 -0.0182996 -0.00178774)
(0.00470731 -0.0152041 -0.00207476)
(0.00514438 -0.0119416 -0.00223477)
(0.0053771 -0.00862908 -0.0024451)
(0.00548699 -0.00510357 -0.00265687)
(0.00558302 -0.00185681 -0.00306761)
(0.0208462 0.0202693 0.00577723)
(0.0216917 0.00846894 0.00511799)
(0.0134788 0.00614341 0.00207872)
(0.0143274 0.00630627 0.00207168)
(0.0117728 0.00497743 0.00165525)
(0.0125218 0.00547337 0.00184841)
(0.0117192 0.00467816 0.00170306)
(0.0123283 0.00462983 0.00191853)
(0.0118808 0.00389581 0.00168529)
(0.0123788 0.00366375 0.00183331)
(0.0119611 0.00294714 0.00158977)
(0.0123124 0.00274302 0.00168356)
(0.0119366 0.00214063 0.00148338)
(0.0121391 0.00199675 0.00154218)
(0.0118456 0.00154397 0.00141065)
(0.011933 0.0014184 0.00144463)
(0.0117376 0.00112117 0.00136864)
(0.0117414 0.00101474 0.00138546)
(0.0116303 0.000833601 0.00135113)
(0.0115938 0.000743831 0.00135834)
(0.0115294 0.00063815 0.00135105)
(0.0114856 0.000566493 0.00135735)
(0.0114416 0.000500207 0.00136319)
(0.0114041 0.000446554 0.00137307)
(0.0113705 0.00039962 0.00138477)
(0.0113412 0.000358431 0.00139847)
(0.0113156 0.000320826 0.0014136)
(0.0112935 0.000285127 0.00142984)
(0.011275 0.000249916 0.00144707)
(0.0112603 0.000213422 0.00146491)
(0.0112487 0.000175475 0.00148173)
(0.0112413 0.000127672 0.00149869)
(0.0112395 0.000101992 0.00151614)
(0.0112382 -1.87485e-05 0.00153238)
(0.0112616 5.25781e-05 0.00155281)
(0.011261 -0.000266618 0.00156654)
(0.0113145 5.94321e-06 0.00159143)
(0.0113349 -0.000627296 0.00160584)
(0.0113998 -9.70433e-05 0.00163385)
(0.011507 -0.00108091 0.00165934)
(0.0115123 -0.000369184 0.0016603)
(0.0118059 -0.00169229 0.00175648)
(0.0117264 -0.00085932 0.00170573)
(0.0122097 -0.00254549 0.00185897)
(0.0121118 -0.00170307 0.00178058)
(0.0126937 -0.00371652 0.00195371)
(0.0127104 -0.00290999 0.00182033)
(0.0131848 -0.00521589 0.00183931)
(0.01317 -0.00294321 0.00132077)
(0.0126788 -0.00625779 0.000444904)
(0.0146214 0.00477598 -0.00133859)
(0.013329 0.00208986 -0.00257651)
(0.0159106 0.0286554 -0.00254077)
(0.0100932 0.0102609 0.00175339)
(0.0189598 0.0493154 0.0105798)
(0.0286245 -0.0432869 0.00439262)
(-0.0545025 0.053938 0.0228839)
(-0.0701999 -0.116066 -0.00509251)
(-0.0320228 0.151432 -0.057222)
(0.166497 -0.129821 -0.04411)
(0.192772 -0.167197 -0.0132211)
(0.0738398 0.144875 0.00599187)
(0.0758131 -0.118211 0.0152946)
(0.0282295 -0.0372473 0.0165834)
(0.00362965 -0.0697321 0.0150936)
(-0.00260691 -0.0843547 0.0132725)
(-0.00891205 -0.0904657 0.0105665)
(-0.0139756 -0.0958316 0.00762961)
(-0.0166389 -0.0989072 0.00537021)
(-0.0182747 -0.100095 0.00346125)
(-0.0183793 -0.0990489 0.00167483)
(-0.0176961 -0.0963914 0.000276631)
(-0.015464 -0.0929804 -0.00125183)
(-0.0108955 -0.0884716 -0.0029497)
(-0.00821625 -0.0841128 -0.004012)
(-0.0083295 -0.0790333 -0.00502022)
(-0.0106864 -0.0718068 -0.0099481)
(-0.0147144 -0.0528526 -0.0153988)
(-0.0175629 -0.0274912 -0.013309)
(-0.0157849 -0.0131052 -0.00724021)
(-0.00922739 -0.00774563 -0.00219576)
(-0.00250444 -0.00526511 0.00139847)
(0.000179762 -0.00503919 0.00399939)
(0.00073644 -0.00803069 0.00543673)
(0.0013484 -0.0122341 0.00609263)
(0.00195635 -0.016234 0.00610367)
(0.00239131 -0.01911 0.00541043)
(0.0028467 -0.0204281 0.00428013)
(0.00333699 -0.0203725 0.00342135)
(0.00385696 -0.0190232 0.00273188)
(0.00429102 -0.0168183 0.00188298)
(0.00446059 -0.0140656 0.00126378)
(0.00465248 -0.0111079 0.000945549)
(0.00461051 -0.00817392 0.000595764)
(0.00455358 -0.00500597 0.000167134)
(0.00464771 -0.00191222 -0.000612246)
(0.0206135 0.0179698 0.00669546)
(0.0232014 0.00943983 0.0067939)
(0.0123373 0.00532517 0.00335004)
(0.0144647 0.00734681 0.00326122)
(0.0111716 0.00496283 0.00304885)
(0.0123792 0.00636075 0.00321059)
(0.0114163 0.00508025 0.00316097)
(0.0122834 0.0052949 0.00338916)
(0.0117449 0.00422914 0.0032256)
(0.0123945 0.00407554 0.00336393)
(0.0118634 0.00311528 0.00315645)
(0.0123068 0.00297267 0.00324293)
(0.0118145 0.00219492 0.00305936)
(0.0120713 0.00211836 0.00311992)
(0.0116893 0.00155778 0.00299128)
(0.0117943 0.00151155 0.00303028)
(0.011533 0.00114242 0.00296117)
(0.0115368 0.00108566 0.00298821)
(0.011379 0.000872815 0.00295487)
(0.0113313 0.000806728 0.0029714)
(0.0112377 0.000693024 0.00296631)
(0.0111767 0.00063144 0.0029796)
(0.0111124 0.000566821 0.00298991)
(0.0110574 0.000517984 0.00300532)
(0.0110068 0.000474619 0.0030222)
(0.0109617 0.000436973 0.00304126)
(0.0109213 0.000402637 0.00306181)
(0.0108854 0.000370427 0.00308346)
(0.0108542 0.000339126 0.00310602)
(0.010828 0.000307268 0.00312941)
(0.0108074 0.000274366 0.0031535)
(0.010793 0.000232835 0.00317876)
(0.0107853 0.000210803 0.00320476)
(0.010781 0.000104194 0.00323146)
(0.0108038 0.000175368 0.00326008)
(0.0108021 -0.000123537 0.00328703)
(0.0108683 0.000157558 0.00332278)
(0.0108812 -0.000462476 0.00335007)
(0.0109881 0.000113513 0.00339246)
(0.0110681 -0.000915156 0.00342818)
(0.0111505 -5.43669e-05 0.00346792)
(0.0114437 -0.00149953 0.00355509)
(0.0114261 -0.00044173 0.00355771)
(0.0119701 -0.00230151 0.0037107)
(0.0119526 -0.00120256 0.00371523)
(0.0126455 -0.00341905 0.00390944)
(0.0127961 -0.00250862 0.00393673)
(0.0134759 -0.00500891 0.00405696)
(0.0134845 -0.00383743 0.00397318)
(0.0130611 -0.00762848 0.00344015)
(0.0138387 -0.00141207 0.0029841)
(0.00825092 -0.00749011 0.00282489)
(0.00975637 0.00821253 0.00397588)
(-0.00109372 -0.00563961 0.00780841)
(0.0251051 0.030865 0.0223969)
(0.0235905 -0.0494446 0.0122164)
(-0.00681192 0.0642318 0.0117935)
(-0.0783617 -0.12957 0.0109737)
(-0.0503974 0.196319 -0.108702)
(0.176064 -0.19328 -0.0235409)
(0.213256 -0.145557 -0.0118845)
(0.0699052 0.12271 -0.00335927)
(0.0753448 -0.00875446 0.00611559)
(-0.0248404 0.0521317 0.0181556)
(-0.011892 -0.0181225 0.0175299)
(-0.0114301 -0.0168931 0.00805618)
(-0.0124566 -0.0301994 0.00152614)
(-0.0136637 -0.0364872 -0.00252729)
(-0.0140639 -0.037857 -0.00552977)
(-0.0144067 -0.0381638 -0.00800004)
(-0.0145024 -0.0356645 -0.0099705)
(-0.0146643 -0.0301137 -0.0134648)
(-0.0137853 -0.0210904 -0.014216)
(-0.0114921 -0.0040588 -0.0149231)
(-0.010153 0.0124812 -0.0153356)
(-0.0108938 0.0222526 -0.0171697)
(-0.0107456 0.0310805 -0.0157937)
(-0.00800366 0.0367843 -0.0125199)
(-0.00330846 0.0362712 -0.00806746)
(0.00114151 0.0331798 -0.00394223)
(0.00413046 0.0287529 -0.000510614)
(0.00530131 0.0237451 0.00235105)
(0.00412915 0.017303 0.00439656)
(0.00265819 0.0104898 0.00552513)
(0.00132907 0.00343242 0.00617792)
(0.000432901 -0.00305716 0.0062794)
(-0.000248025 -0.00826979 0.00589007)
(-0.000684239 -0.0121082 0.00510834)
(-0.000673555 -0.0142106 0.00401687)
(-0.000462015 -0.0151028 0.00297735)
(-0.000127541 -0.0149794 0.00212157)
(0.000300033 -0.013702 0.00164951)
(0.000929979 -0.011552 0.00147914)
(0.00155689 -0.00929944 0.00114922)
(0.00223875 -0.0065786 0.000684294)
(0.00278708 -0.00288516 2.37033e-05)
(0.0176836 0.0168129 0.00751992)
(0.0233419 0.011504 0.00822912)
(0.00960597 0.00547975 0.00430378)
(0.0130908 0.00922746 0.00381653)
(0.00910051 0.00527032 0.00368173)
(0.0108546 0.00750248 0.00371864)
(0.00976304 0.00548319 0.00379436)
(0.0109074 0.00603222 0.00409774)
(0.010292 0.00451579 0.00403892)
(0.011057 0.00448994 0.00420126)
(0.010423 0.00323262 0.00405802)
(0.0109121 0.00318656 0.0041492)
(0.0103193 0.00221814 0.0040001)
(0.0105983 0.00223085 0.00407123)
(0.0101278 0.00155007 0.00395528)
(0.0102494 0.00158295 0.00401341)
(0.00992322 0.00114542 0.00394521)
(0.00992792 0.00115492 0.00399049)
(0.00971795 0.000900348 0.00396707)
(0.00965892 0.000872068 0.00400263)
(0.00952969 0.000744449 0.00400395)
(0.00945131 0.000699244 0.00403224)
(0.00936316 0.000635568 0.00405304)
(0.00928827 0.00059372 0.00408132)
(0.00921804 0.000554983 0.00411038)
(0.00915418 0.000522326 0.00414228)
(0.0090952 0.000492557 0.00417601)
(0.00904096 0.00046489 0.0042108)
(0.00899171 0.000438179 0.00424637)
(0.00894812 0.000411291 0.0042826)
(0.00891058 0.000383689 0.00431919)
(0.00887965 0.000348708 0.00435649)
(0.00885606 0.000332216 0.00439382)
(0.00883854 0.000239013 0.00443144)
(0.00884661 0.000310989 0.00447232)
(0.00883273 3.58889e-05 0.00451044)
(0.0088913 0.000321884 0.00456136)
(0.00888696 -0.000273022 0.00459657)
(0.00900833 0.000331489 0.00466269)
(0.00905142 -0.000696191 0.00469998)
(0.00920797 0.000277676 0.0047826)
(0.00941946 -0.00125176 0.00484365)
(0.00951762 2.89924e-05 0.00492534)
(0.0100553 -0.00195149 0.00506907)
(0.0100977 -0.000598686 0.00513881)
(0.0109654 -0.00287962 0.00534905)
(0.0111317 -0.00190128 0.00546488)
(0.0123907 -0.00419932 0.00563082)
(0.0123673 -0.00374754 0.00577829)
(0.0132431 -0.00732312 0.00604532)
(0.0140869 -0.00502642 0.00405028)
(0.01169 -0.0128513 0.00547486)
(0.00808574 -0.0108068 0.00273492)
(-0.00862546 -0.0239086 0.00855826)
(0.0208048 0.00072523 0.0275009)
(0.015594 -0.0535698 0.0443762)
(0.00379641 0.00741977 0.0634904)
(-0.110648 -0.12426 0.0463581)
(0.0134577 0.133857 -0.1837)
(0.111338 -0.260103 -0.00896148)
(0.174551 -0.0773376 -0.010519)
(0.059572 0.126676 -0.010392)
(0.0785349 0.0719375 -0.00225892)
(0.0303125 0.0942092 -0.00175903)
(0.0185693 0.0734055 -0.00656662)
(0.00326883 0.077383 -0.0102424)
(0.00137223 0.0830455 -0.0131083)
(-0.00237246 0.0880989 -0.0137624)
(-0.00341629 0.0955373 -0.0150375)
(-0.00513017 0.0996077 -0.0140767)
(-0.00514244 0.105401 -0.0136278)
(-0.00458558 0.10798 -0.012104)
(-0.00275497 0.110113 -0.0104073)
(0.000346012 0.109816 -0.00835356)
(0.00455892 0.108549 -0.00618628)
(0.00707152 0.104035 -0.00435556)
(0.00882143 0.0986161 -0.00234565)
(0.0109403 0.0917874 -0.000187721)
(0.0121799 0.0833349 0.00191866)
(0.0129622 0.0741669 0.00389144)
(0.0128047 0.0643907 0.00570194)
(0.0118432 0.0548399 0.00680076)
(0.00926238 0.0442446 0.00713654)
(0.00700793 0.0343899 0.00704542)
(0.00454402 0.0241565 0.00716982)
(0.00230351 0.014649 0.00703002)
(0.000576902 0.00676559 0.00674833)
(-0.00056548 7.86791e-05 0.00635776)
(-0.000903555 -0.00482925 0.00548567)
(-0.000876593 -0.00834889 0.00442928)
(-0.00106348 -0.0101911 0.00315379)
(-0.00125354 -0.010465 0.00219737)
(-0.00127192 -0.00962625 0.000896743)
(-0.00217301 -0.00694755 -0.00115513)
(-0.00339579 -0.00401953 -0.00219721)
(-0.00535461 -0.00188497 -0.00316688)
(0.0125892 0.01581 0.00817464)
(0.0225694 0.0139636 0.00972646)
(0.00579208 0.00533792 0.00513306)
(0.0114456 0.0114919 0.00397134)
(0.00646026 0.00513808 0.004155)
(0.00881277 0.00858568 0.00377794)
(0.00736409 0.00541276 0.00413658)
(0.00875057 0.00664977 0.00448286)
(0.00796179 0.00454907 0.0046664)
(0.0087402 0.0048596 0.00490018)
(0.00797453 0.00321762 0.00492667)
(0.00841822 0.00337722 0.00504032)
(0.00772548 0.00217368 0.00502107)
(0.00797496 0.00232157 0.00509859)
(0.00744341 0.00150761 0.0050729)
(0.00756047 0.00163413 0.00514611)
(0.00720128 0.00112426 0.00513303)
(0.00721801 0.00120121 0.00519835)
(0.00699601 0.00090621 0.00520886)
(0.00695064 0.000927367 0.00526561)
(0.00681815 0.000784323 0.00528499)
(0.00675158 0.000763577 0.00533154)
(0.00666741 0.000701835 0.00536431)
(0.00659913 0.000670856 0.00540393)
(0.00653388 0.000638352 0.00544189)
(0.00647447 0.000611761 0.0054832)
(0.00641941 0.000587422 0.00552392)
(0.00636877 0.000565427 0.00556121)
(0.00632179 0.000544657 0.00559759)
(0.00628165 0.000524458 0.00563403)
(0.00624915 0.000504349 0.00567069)
(0.00622496 0.000478343 0.00570788)
(0.00621079 0.000469888 0.00574557)
(0.00620431 0.000391569 0.00578127)
(0.00622549 0.000465498 0.00582097)
(0.00622458 0.000218517 0.00585339)
(0.00630133 0.000504673 0.00590385)
(0.00630691 -4.80389e-05 0.00593045)
(0.00646193 0.000565536 0.00599805)
(0.00649846 -0.00042249 0.00601789)
(0.00673212 0.000595871 0.00610644)
(0.00688881 -0.000919196 0.00613097)
(0.00713243 0.000517449 0.00622798)
(0.00763266 -0.00156131 0.00630369)
(0.00775927 0.000106087 0.00636313)
(0.00884537 -0.00238134 0.00649999)
(0.00886455 -0.000852014 0.00650768)
(0.0107073 -0.00359641 0.0065677)
(0.0105895 -0.00221849 0.0064116)
(0.0128742 -0.00639524 0.00661024)
(0.0136993 -0.00406244 0.00496162)
(0.01447 -0.012499 0.00655736)
(0.00761502 -0.00827697 0.0047214)
(-0.00777936 -0.0239924 0.0123573)
(0.0049939 0.000538509 0.0391395)
(-0.00052819 -0.0306126 0.0551151)
(-0.000188329 0.00460447 0.110012)
(-0.0814975 -0.124178 0.0926539)
(0.0361491 -0.0266231 -0.172986)
(0.0583267 -0.25987 0.000847556)
(0.126993 -0.00634007 -0.0104599)
(0.0450754 0.160039 -0.00934187)
(0.0441019 0.163124 -5.87445e-05)
(0.0153734 0.186834 0.00151526)
(0.0073253 0.191503 -0.000826837)
(0.00538956 0.196085 -0.00154057)
(0.00394422 0.197044 -0.00197949)
(0.00454986 0.198166 -0.00265576)
(0.0060047 0.197287 -0.00184759)
(0.00605284 0.194378 4.03217e-05)
(0.0079352 0.191864 0.0010096)
(0.00983527 0.186899 0.00238835)
(0.011393 0.182028 0.00374318)
(0.012633 0.17613 0.00523184)
(0.0146402 0.170886 0.00639654)
(0.0167667 0.163653 0.00751074)
(0.0169644 0.155118 0.0086241)
(0.0192273 0.146393 0.00944515)
(0.0199925 0.136635 0.0104141)
(0.019741 0.124511 0.0111235)
(0.0180717 0.112685 0.0115664)
(0.0165986 0.099569 0.0108364)
(0.0123778 0.085715 0.00986952)
(0.0101782 0.0727614 0.00871192)
(0.00717367 0.0594882 0.0082357)
(0.00380828 0.0463367 0.00757468)
(0.000360107 0.0340548 0.00727969)
(-0.00260891 0.022503 0.00690061)
(-0.00417021 0.0130181 0.00621215)
(-0.00492599 0.00517926 0.00535074)
(-0.00559217 -0.000450065 0.0044212)
(-0.00599094 -0.00422506 0.00323902)
(-0.00582663 -0.00654115 0.00167138)
(-0.0048645 -0.00576769 -0.000223667)
(-0.00275694 -0.00448225 -0.00414569)
(-0.00284084 -0.00313122 -0.00886729)
(0.00672737 0.0128234 0.00830778)
(0.0207431 0.0166956 0.0103121)
(0.00101216 0.0044334 0.004939)
(0.00948496 0.0138492 0.00356088)
(0.00333591 0.00437294 0.00380263)
(0.006362 0.00954983 0.00313932)
(0.00441728 0.00478691 0.00382941)
(0.00588218 0.00695936 0.0042855)
(0.00496818 0.00423309 0.00464143)
(0.0056318 0.00502967 0.00505788)
(0.00473113 0.00300938 0.00516388)
(0.00492768 0.00345839 0.00537063)
(0.00407264 0.00204649 0.00540844)
(0.00411921 0.00238262 0.00551904)
(0.00343893 0.0014641 0.00552721)
(0.00342491 0.00170126 0.00560953)
(0.00293944 0.00113941 0.00560544)
(0.00288283 0.0012827 0.005674)
(0.00255739 0.000961215 0.00567179)
(0.00245817 0.00102939 0.00572227)
(0.00226228 0.000871486 0.00573382)
(0.00215598 0.00086974 0.00577058)
(0.00203223 0.000804185 0.00578885)
(0.00193613 0.000778923 0.0058164)
(0.00184872 0.00074712 0.00584125)
(0.00177093 0.000723716 0.00586701)
(0.00170165 0.000704534 0.00589306)
(0.00164631 0.000686585 0.00592112)
(0.00160383 0.00067069 0.00595151)
(0.00156897 0.000658506 0.00598192)
(0.00154173 0.000647255 0.006012)
(0.00152254 0.000632199 0.00604145)
(0.00151378 0.000634847 0.00606998)
(0.00151289 0.000573229 0.00609637)
(0.00153921 0.000652934 0.00612499)
(0.0015476 0.00043559 0.00614748)
(0.00163705 0.000719991 0.00618896)
(0.00165278 0.000214455 0.00620828)
(0.00183224 0.000822549 0.00626407)
(0.00186787 -9.90859e-05 0.00627159)
(0.00215476 0.000928845 0.00634202)
(0.00228202 -0.00051367 0.0063434)
(0.00264994 0.000988667 0.00642437)
(0.00307448 -0.00106707 0.00645267)
(0.00336329 0.000914505 0.00649056)
(0.00444657 -0.0018 0.00656766)
(0.00454556 0.000575276 0.00654942)
(0.00663494 -0.00296969 0.0067326)
(0.00642721 0.000139056 0.00641343)
(0.00949747 -0.00514474 0.00660216)
(0.00886031 -7.55612e-05 0.00619675)
(0.0111551 -0.00928814 0.00850378)
(0.000916636 -4.30417e-05 0.00608089)
(-0.0131697 -0.0132824 0.00917274)
(-0.0215304 -0.00230394 0.0363336)
(-0.0386315 -0.033743 0.0722886)
(-0.0177478 -0.0381931 0.114083)
(-0.0243471 -0.118215 0.100974)
(0.0158255 -0.11753 -0.169814)
(0.0228394 -0.290548 0.00254394)
(0.048198 0.0339303 -0.00488722)
(0.0107667 0.207952 -0.0101634)
(0.0145616 0.234425 0.00423645)
(0.0053636 0.253013 0.00657918)
(0.00658441 0.261982 0.00991251)
(0.00585837 0.263706 0.00818681)
(0.00754899 0.262925 0.00861312)
(0.00963657 0.258894 0.00826504)
(0.0107305 0.254704 0.00869041)
(0.0117798 0.25195 0.0100706)
(0.0127398 0.244659 0.0103518)
(0.0140448 0.238053 0.0112489)
(0.0151674 0.232634 0.0122382)
(0.0164688 0.227246 0.0130839)
(0.0177817 0.221607 0.0138248)
(0.0198647 0.213344 0.0150269)
(0.0218641 0.206317 0.0164986)
(0.0231447 0.198387 0.0161985)
(0.0247259 0.18995 0.0172012)
(0.0252406 0.179737 0.0173789)
(0.025094 0.170086 0.0169968)
(0.0234452 0.158379 0.0148255)
(0.0219511 0.147498 0.0134836)
(0.0197619 0.13523 0.0111113)
(0.017486 0.12111 0.0103604)
(0.0133919 0.107007 0.00893842)
(0.00935166 0.0915072 0.00757283)
(0.00502459 0.0754365 0.00543931)
(0.0032322 0.0607969 0.00343276)
(0.000367276 0.046638 0.00188655)
(-0.00439943 0.0328661 0.000382826)
(-0.00606495 0.0218316 -0.00120711)
(-0.00947981 0.0112918 -0.00442605)
(-0.0119021 0.00330225 -0.00972473)
(-0.00949447 -0.000872898 -0.0172878)
(-0.0107403 -0.00357436 -0.0238971)
(-0.0028179 0.00566049 0.00857952)
(0.017449 0.0202854 0.00924317)
(-0.00323952 0.00362159 0.00439843)
(0.00776485 0.0168652 0.00329711)
(0.000998728 0.00394967 0.00395603)
(0.00457803 0.0107711 0.00308393)
(0.00224091 0.0042858 0.00392605)
(0.00373489 0.00715349 0.00445232)
(0.00255719 0.00381547 0.00485977)
(0.00313451 0.00492036 0.00555177)
(0.00201424 0.00255985 0.00563478)
(0.00206201 0.00320179 0.00603804)
(0.00114663 0.00160389 0.00608314)
(0.00111061 0.00214407 0.00631578)
(0.00038687 0.00114337 0.00634892)
(0.000353726 0.00154572 0.00650213)
(-0.000140274 0.000948637 0.00653641)
(-0.000180879 0.00121238 0.00665293)
(-0.000476512 0.000892002 0.00669117)
(-0.000525571 0.00103491 0.00678279)
(-0.000677027 0.000888962 0.00683327)
(-0.000725371 0.000939884 0.00690688)
(-0.000792834 0.000896502 0.00695645)
(-0.000825087 0.00090225 0.00701573)
(-0.000848104 0.000895113 0.00706905)
(-0.00085917 0.000895915 0.00712367)
(-0.000858481 0.0008986 0.00717676)
(-0.000847046 0.000903848 0.00722633)
(-0.000827391 0.000907134 0.00727246)
(-0.000797299 0.000907853 0.00731796)
(-0.000757045 0.000909421 0.00736241)
(-0.000707154 0.000908206 0.00740543)
(-0.00064642 0.000922031 0.00744564)
(-0.00057719 0.000878486 0.0074878)
(-0.000483728 0.0009712 0.00752791)
(-0.000401505 0.000792522 0.00756725)
(-0.00024197 0.00108435 0.00761097)
(-0.000149233 0.000635945 0.0076465)
(0.000105782 0.00124321 0.00769712)
(0.000217206 0.000394735 0.00772614)
(0.000592166 0.001429 0.00778617)
(0.000778259 7.13663e-05 0.00781383)
(0.00127228 0.00161527 0.00788148)
(0.00170523 -0.000379067 0.00793048)
(0.00221006 0.00177612 0.00796868)
(0.00322104 -0.00110429 0.00807622)
(0.0036828 0.0017668 0.00808705)
(0.00562117 -0.00250337 0.00819334)
(0.00582052 0.00168618 0.00817841)
(0.00871467 -0.00502209 0.00821266)
(0.00821031 0.00190594 0.00796036)
(0.00917047 -0.00996897 0.00908038)
(0.00137065 0.00563328 0.00987311)
(-0.00602321 -0.00780207 0.0151857)
(-0.0351001 -0.00336956 0.0474596)
(-0.0362687 -0.0377428 0.0715696)
(-0.0272981 -0.0423809 0.101975)
(0.0199573 -0.0953911 0.0806429)
(-0.0123122 -0.129386 -0.151106)
(-0.019042 -0.285723 0.0103589)
(-0.0616329 0.0620926 0.0012052)
(-0.0363351 0.213969 -0.00639401)
(-0.0266485 0.237782 0.0114516)
(-0.00862638 0.256523 0.0114927)
(-0.0023473 0.263606 0.0145064)
(0.00391464 0.265033 0.0116499)
(0.00829651 0.263242 0.0131161)
(0.011088 0.259979 0.0121013)
(0.0128017 0.255157 0.0133059)
(0.0155549 0.250492 0.0141242)
(0.0153356 0.245571 0.0149493)
(0.0166795 0.24019 0.015347)
(0.017702 0.234472 0.0162868)
(0.0191943 0.228451 0.0170726)
(0.0201111 0.222934 0.0181511)
(0.0220879 0.2161 0.0195539)
(0.0244421 0.209928 0.0209636)
(0.0250907 0.202991 0.0218987)
(0.0273781 0.196001 0.0237481)
(0.02871 0.189202 0.02466)
(0.0298349 0.18216 0.024698)
(0.0290369 0.175727 0.0242221)
(0.0288096 0.169108 0.0227536)
(0.0265533 0.163172 0.0209623)
(0.0256786 0.156991 0.0209269)
(0.0240067 0.150555 0.0204499)
(0.0220734 0.141919 0.0187416)
(0.0196023 0.132991 0.017018)
(0.0175667 0.121838 0.0144839)
(0.0160825 0.108403 0.0120032)
(0.0146144 0.0960841 0.00911547)
(0.0123204 0.0807808 0.00363113)
(0.0106407 0.0661683 -0.00360522)
(0.00773758 0.0458447 -0.0159422)
(0.00345741 0.025371 -0.0381217)
(0.000132378 0.0118203 -0.0583661)
(-0.0135392 0.00792777 -0.00351031)
(0.0144147 0.0280255 0.0064316)
(-0.0081385 0.00344117 -0.000653241)
(0.00567794 0.0194573 -5.05346e-05)
(-0.0012793 0.00302489 0.000731279)
(0.00218542 0.0116788 -0.000539013)
(-8.36756e-05 0.00371135 0.000637954)
(0.00100782 0.00715437 0.00137861)
(-0.000301318 0.00350236 0.00207456)
(0.000148868 0.0047538 0.00292199)
(-0.00122519 0.00235154 0.00309202)
(-0.00138676 0.00309006 0.00351181)
(-0.00249945 0.00152475 0.00360192)
(-0.00274273 0.00206929 0.00382831)
(-0.00358487 0.00110972 0.00391676)
(-0.00374181 0.00154335 0.00407029)
(-0.00431485 0.000980248 0.00413822)
(-0.00442449 0.00128083 0.00425821)
(-0.0047784 0.000974517 0.00431364)
(-0.00487046 0.00115593 0.00440921)
(-0.00506324 0.00102407 0.00446618)
(-0.00514105 0.00110082 0.00454356)
(-0.00523525 0.00107178 0.00459778)
(-0.00529161 0.00109234 0.00466004)
(-0.00533681 0.00109784 0.00471525)
(-0.00536523 0.00110895 0.00477087)
(-0.00538001 0.00112002 0.00482517)
(-0.00538265 0.00113297 0.00487793)
(-0.00537641 0.00114495 0.00492811)
(-0.00536132 0.00115533 0.0049761)
(-0.00533735 0.00116511 0.00502178)
(-0.00530368 0.00117173 0.0050663)
(-0.0052576 0.00119007 0.00510893)
(-0.00519938 0.00116231 0.00515243)
(-0.00511995 0.00125737 0.00518809)
(-0.00505314 0.00110821 0.0052323)
(-0.00491385 0.00138733 0.00526886)
(-0.00483702 0.000994594 0.00531257)
(-0.00460342 0.00156855 0.00534999)
(-0.004512 0.000819278 0.0053873)
(-0.00414596 0.00179154 0.0054283)
(-0.00400288 0.00058216 0.00545792)
(-0.00346757 0.00202663 0.00550986)
(-0.00315575 0.000242353 0.00553997)
(-0.00246517 0.00221792 0.00562955)
(-0.00174191 -0.000361183 0.00565586)
(-0.000911352 0.00238538 0.00576815)
(0.000328494 -0.00151633 0.00562401)
(0.00134265 0.00277488 0.00567821)
(0.00299817 -0.0042554 0.00556887)
(0.00293832 0.00206027 0.00455759)
(0.00181704 -0.0100144 0.00527664)
(-0.00845995 0.00551574 0.0040535)
(-0.0123609 -0.0051694 0.0104359)
(-0.0521477 0.00760182 0.0363494)
(-0.0504195 -0.0544361 0.0504208)
(-0.0450234 -0.0365703 0.0801371)
(0.0877352 -0.134454 0.0611903)
(-0.0385114 0.00237386 -0.173153)
(-0.0519024 -0.269842 0.00216979)
(-0.154009 0.00168322 -0.013098)
(-0.0647287 0.148352 -0.00659571)
(-0.058446 0.129861 0.00835493)
(-0.0242078 0.128804 0.00939084)
(-0.0195069 0.113408 0.00695005)
(-0.00524428 0.0992523 0.00330583)
(-0.000510178 0.0935189 8.22129e-05)
(0.00513344 0.0890667 0.000147675)
(0.00715796 0.0858525 3.1035e-05)
(0.00931917 0.0826083 0.00112152)
(0.0104817 0.0800448 0.00204361)