/*--------------------------------*- C++ -*----------------------------------*\
| =========                 |                                                 |
| \\      /  F ield         | OpenFOAM: The Open Source CFD Toolbox           |
|  \\    /   O peration     | Version:  2.3.0                                 |
|   \\  /    A nd           | Web:      www.OpenFOAM.org                      |
|    \\/     M anipulation  |                                                 |
\*---------------------------------------------------------------------------*/
FoamFile
{
    version     2.0;
    format      ascii;
    class       volScalarField;
    location    "7";
    object      alpha.water;
}
// * * * * * * * * * * * * * * * * * * * * * * * * * * * * * * * * * * * * * //

dimensions      [0 0 0 0 0 0 0];

internalField   nonuniform List<scalar> 
6144
(
9.97203e-06
9.98793e-06
1.00003e-05
1.00018e-05
9.99849e-06
1.00012e-05
9.99905e-06
1.00014e-05
9.9994e-06
1.00018e-05
9.99965e-06
1.00021e-05
1.00001e-05
1.00016e-05
1.00004e-05
1.00016e-05
1.00009e-05
1.00015e-05
1.00013e-05
1.00015e-05
1.00015e-05
1.00016e-05
1.00016e-05
1.00016e-05
1.00017e-05
1.00017e-05
1.00017e-05
1.00018e-05
1.00018e-05
1.00019e-05
1.00019e-05
1.0002e-05
1.00017e-05
1.00024e-05
1.00013e-05
1.0003e-05
1.00008e-05
1.00041e-05
1.00004e-05
1.00051e-05
1.00003e-05
1.00059e-05
1.00015e-05
1.00063e-05
1.00032e-05
1.00064e-05
1.00029e-05
1.0007e-05
1.00019e-05
1.00108e-05
1.04137e-05
1.41085e-05
2.18511e-05
3.88777e-05
5.32306e-05
9.36191e-05
0.00015856
0.00055857
0.00141417
0.0536848
0.964248
0.999834
0.999999
0.999999
0.999999
0.999999
0.999999
0.999999
0.999999
0.999999
0.999999
0.999999
0.999999
0.999999
0.999999
0.999999
0.999999
0.999999
0.999999
0.999999
0.999999
0.999999
0.999999
0.999999
0.999999
0.999999
0.999999
0.999999
0.999999
0.999999
0.999999
0.999999
1
1
1
1
9.76995e-06
9.86404e-06
9.98829e-06
9.99512e-06
9.9942e-06
9.99783e-06
9.99557e-06
9.99803e-06
9.99633e-06
9.99856e-06
9.99667e-06
9.99903e-06
9.99697e-06
9.99852e-06
9.99717e-06
9.99874e-06
9.99778e-06
9.99869e-06
9.99828e-06
9.99863e-06
9.9986e-06
9.99875e-06
9.99882e-06
9.99889e-06
9.99894e-06
9.99899e-06
9.99903e-06
9.99907e-06
9.9991e-06
9.99915e-06
9.99916e-06
9.9993e-06
9.99899e-06
9.99994e-06
9.99842e-06
1.00008e-05
9.99786e-06
1.00018e-05
9.99768e-06
1.00026e-05
9.99706e-06
1.00038e-05
9.99769e-06
1.00043e-05
9.99911e-06
1.00043e-05
9.99988e-06
1.0004e-05
9.99986e-06
1.00167e-05
1.09584e-05
1.82752e-05
3.39811e-05
4.83989e-05
6.30049e-05
9.83608e-05
0.000169932
0.000682136
0.00152561
0.0526551
0.966492
0.999965
0.999999
0.999999
0.999999
0.999999
0.999999
0.999999
0.999999
0.999999
0.999999
0.999999
0.999999
0.999999
0.999999
0.999999
0.999999
0.999999
0.999999
0.999999
0.999999
0.999999
0.999999
0.999999
0.999999
0.999999
0.999999
0.999999
0.999999
0.999999
0.999999
0.999999
0.999999
1
1
1
9.45573e-06
9.50776e-06
9.91524e-06
9.96207e-06
9.98952e-06
9.99735e-06
9.99533e-06
9.99832e-06
9.99638e-06
9.9988e-06
9.99686e-06
9.99945e-06
9.99704e-06
9.99905e-06
9.99718e-06
9.99908e-06
9.99778e-06
9.99903e-06
9.9983e-06
9.99888e-06
9.99871e-06
9.99897e-06
9.99902e-06
9.9991e-06
9.99914e-06
9.99919e-06
9.99922e-06
9.99925e-06
9.99929e-06
9.99934e-06
9.99936e-06
9.99949e-06
9.99924e-06
1e-05
9.99864e-06
1.00009e-05
9.99805e-06
1.0002e-05
9.9978e-06
1.00028e-05
9.99749e-06
1.00037e-05
9.99799e-06
1.00042e-05
9.99911e-06
1.00041e-05
9.99988e-06
1.00037e-05
9.99986e-06
1.00085e-05
1.03608e-05
1.73128e-05
3.87054e-05
6.02195e-05
8.08455e-05
0.000116593
0.00012922
0.00046594
0.000730168
0.0453041
0.951532
0.999999
0.999999
0.999999
0.999999
0.999999
0.999999
0.999999
0.999999
0.999999
0.999999
0.999999
0.999999
0.999999
0.999999
0.999999
0.999999
0.999999
0.999999
0.999999
0.999999
0.999999
0.999999
0.999999
0.999999
0.999999
0.999999
0.999999
0.999999
0.999999
0.999999
0.999999
1
1
1
1
9.21141e-06
9.19601e-06
9.66921e-06
9.76992e-06
9.91799e-06
9.97282e-06
9.99145e-06
9.99813e-06
9.99653e-06
9.99904e-06
9.99748e-06
9.99989e-06
9.99764e-06
9.99984e-06
9.99769e-06
9.99966e-06
9.99812e-06
9.99957e-06
9.99865e-06
9.99942e-06
9.99908e-06
9.99941e-06
9.99939e-06
9.99948e-06
9.9995e-06
9.99953e-06
9.99956e-06
9.99958e-06
9.99962e-06
9.99966e-06
9.9997e-06
9.99981e-06
9.99965e-06
1.00002e-05
9.99929e-06
1.0001e-05
9.99866e-06
1.00023e-05
9.99834e-06
1.00032e-05
9.99836e-06
1.00041e-05
9.99904e-06
1.00045e-05
1.00002e-05
1.00044e-05
1.00005e-05
1.00041e-05
9.99959e-06
1.00064e-05
1.00139e-05
1.15265e-05
2.94674e-05
6.43255e-05
9.85699e-05
0.000136666
0.000105791
0.000357037
0.000224104
0.0722381
0.943785
0.999999
0.999999
0.999999
0.999999
0.999999
0.999999
0.999999
0.999999
0.999999
0.999999
0.999999
0.999999
0.999999
0.999999
0.999999
0.999999
0.999999
0.999999
0.999999
0.999999
0.999999
0.999999
0.999999
0.999999
0.999999
0.999999
0.999999
0.999999
0.999999
0.999999
0.999999
0.999999
1
1
1
9.05246e-06
9.01934e-06
9.40692e-06
9.49583e-06
9.73164e-06
9.88679e-06
9.95646e-06
9.98994e-06
9.99645e-06
9.99909e-06
9.99786e-06
1.00001e-05
9.9983e-06
1.00002e-05
9.99833e-06
9.99999e-06
9.99863e-06
9.99985e-06
9.99901e-06
9.99979e-06
9.99939e-06
9.99974e-06
9.99968e-06
9.99978e-06
9.9998e-06
9.99985e-06
9.99989e-06
9.99992e-06
9.99997e-06
1e-05
1.00001e-05
1.00002e-05
1.00001e-05
1.00005e-05
9.99985e-06
1.00012e-05
9.99944e-06
1.00025e-05
9.999e-06
1.00037e-05
9.99901e-06
1.00046e-05
9.9999e-06
1.00051e-05
1.00014e-05
1.00047e-05
1.00023e-05
1.00042e-05
9.99959e-06
1.00099e-05
1.00038e-05
1.00842e-05
1.31501e-05
4.45541e-05
0.000106125
0.00017324
0.000163626
0.000258387
6.06256e-05
0.177522
0.99315
0.999959
0.999975
0.999987
0.99999
0.999992
0.999992
0.999993
0.999993
0.999995
0.999995
0.999996
0.999996
0.999997
0.999998
0.999999
0.999999
0.999999
0.999999
0.999999
0.999999
0.999999
0.999999
0.999999
0.999999
0.999999
0.999999
0.999999
0.999999
0.999999
0.999999
0.999999
1
1
1
1
8.99358e-06
8.93735e-06
9.24595e-06
9.27683e-06
9.56379e-06
9.7758e-06
9.88188e-06
9.96405e-06
9.99198e-06
9.99831e-06
9.99762e-06
9.99985e-06
9.99843e-06
1.00001e-05
9.99853e-06
1e-05
9.99884e-06
9.99987e-06
9.99913e-06
9.99985e-06
9.9994e-06
9.99974e-06
9.99957e-06
9.99965e-06
9.99964e-06
9.99966e-06
9.99966e-06
9.99967e-06
9.99968e-06
9.9997e-06
9.99971e-06
9.99979e-06
9.99965e-06
1e-05
9.99941e-06
1.00005e-05
9.99907e-06
1.00014e-05
9.9987e-06
1.00025e-05
9.99849e-06
1.00037e-05
9.99915e-06
1.00041e-05
1.00001e-05
1.00042e-05
1.00001e-05
1.00039e-05
9.99774e-06
1.00093e-05
1.00061e-05
1.02027e-05
1.06364e-05
2.71413e-05
0.000128362
0.000177796
0.000155257
0.000170837
1.00212e-05
0.325973
0.996116
0.998479
0.998554
0.998636
0.998644
0.998664
0.998751
0.998917
0.999009
0.999049
0.99908
0.999178
0.999313
0.999357
0.999378
0.999465
0.999685
0.99982
0.999886
0.999929
0.99996
0.999982
0.999994
0.999998
0.999999
0.999999
0.999999
1
1
1
1
1
1
1
1
1
8.99875e-06
8.89553e-06
9.15238e-06
9.13499e-06
9.44352e-06
9.64091e-06
9.79145e-06
9.9201e-06
9.97992e-06
9.99661e-06
9.99635e-06
9.9989e-06
9.99762e-06
9.99955e-06
9.9983e-06
9.99981e-06
9.99889e-06
9.99988e-06
9.99942e-06
1.00001e-05
9.99984e-06
1.00003e-05
1.00002e-05
1.00004e-05
1.00005e-05
1.00006e-05
1.00006e-05
1.00007e-05
1.00008e-05
1.00009e-05
1.00009e-05
1.00011e-05
1.0001e-05
1.00013e-05
1.00009e-05
1.00016e-05
1.00007e-05
1.00024e-05
1.00004e-05
1.00034e-05
1.00006e-05
1.00046e-05
1.00007e-05
1.00053e-05
1.00016e-05
1.00054e-05
1.00019e-05
1.00042e-05
9.99854e-06
1.0012e-05
1.00149e-05
1.04263e-05
1.11741e-05
1.4104e-05
0.000100561
0.000187053
0.000199712
0.0001895
1.00212e-05
0.431508
0.987215
0.990514
0.989855
0.989834
0.989711
0.98901
0.988637
0.988422
0.989955
0.990175
0.990377
0.992358
0.992411
0.991113
0.990562
0.991428
0.993754
0.994744
0.995454
0.996236
0.996979
0.997803
0.998545
0.999078
0.999402
0.999609
0.999779
0.999921
0.999982
0.999995
0.999998
0.999998
0.999999
1
1
0.999999
9.01831e-06
8.8554e-06
9.07615e-06
9.04896e-06
9.29483e-06
9.45201e-06
9.65266e-06
9.83297e-06
9.94858e-06
9.99135e-06
9.99452e-06
9.99778e-06
9.99588e-06
9.99841e-06
9.99672e-06
9.99879e-06
9.9976e-06
9.99905e-06
9.99849e-06
9.99932e-06
9.99909e-06
9.9996e-06
9.99955e-06
9.99976e-06
9.99983e-06
9.99993e-06
1e-05
1.00001e-05
1.00001e-05
1.00002e-05
1.00002e-05
1.00003e-05
1.00002e-05
1.00006e-05
1.00001e-05
1.0001e-05
1e-05
1.00016e-05
9.9998e-06
1.00024e-05
9.99985e-06
1.00036e-05
9.99974e-06
1.00048e-05
1.00002e-05
1.00051e-05
9.9996e-06
1.00042e-05
9.9961e-06
1.0014e-05
1.00396e-05
1.05244e-05
1.21907e-05
1.31925e-05
6.61676e-05
0.000176855
0.000209477
0.00021148
1.00212e-05
0.47766
0.976169
0.979338
0.978413
0.978142
0.978376
0.979213
0.980291
0.980877
0.980919
0.98081
0.980997
0.981332
0.981604
0.981598
0.981613
0.982421
0.983498
0.983939
0.984022
0.984134
0.985609
0.987567
0.989406
0.99034
0.990382
0.990214
0.990477
0.992837
0.994791
0.995753
0.996362
0.997008
0.998384
0.999429
0.999738
0.999999
8.65164e-06
8.82156e-06
9.08502e-06
9.00126e-06
9.20349e-06
9.30758e-06
9.56132e-06
9.77221e-06
9.918e-06
9.98257e-06
9.99256e-06
9.99509e-06
9.99409e-06
9.99465e-06
9.99416e-06
9.99511e-06
9.99459e-06
9.99625e-06
9.9956e-06
9.99672e-06
9.99635e-06
9.9969e-06
9.99684e-06
9.9971e-06
9.99715e-06
9.99726e-06
9.99733e-06
9.9974e-06
9.99747e-06
9.99753e-06
9.99758e-06
9.99765e-06
9.9976e-06
9.99793e-06
9.9975e-06
9.99836e-06
9.99718e-06
9.99902e-06
9.99709e-06
9.99995e-06
9.99735e-06
1.0001e-05
9.99779e-06
1.0002e-05
9.99795e-06
1.00025e-05
9.99749e-06
1.00037e-05
9.9961e-06
1.0017e-05
1.00994e-05
1.07354e-05
1.23739e-05
1.40811e-05
4.1238e-05
0.000122916
0.0001769
0.000257828
1.00212e-05
0.349809
0.987265
0.993347
0.99444
0.996318
0.997311
0.998087
0.998563
0.998855
0.998997
0.999043
0.999069
0.999115
0.99912
0.999107
0.999071
0.999055
0.999061
0.999077
0.999145
0.999179
0.999089
0.998998
0.999117
0.999308
0.999423
0.999538
0.999652
0.99976
0.999851
0.999902
0.999938
0.999964
0.999982
0.999992
0.999997
0.999998
8.26827e-06
8.74222e-06
8.9645e-06
8.92413e-06
9.08768e-06
9.21093e-06
9.41932e-06
9.65981e-06
9.84656e-06
9.96981e-06
9.99366e-06
9.99813e-06
9.99603e-06
9.99658e-06
9.99541e-06
9.99619e-06
9.99536e-06
9.99702e-06
9.99612e-06
9.99727e-06
9.99674e-06
9.99728e-06
9.99717e-06
9.99741e-06
9.99744e-06
9.99753e-06
9.9976e-06
9.99767e-06
9.99774e-06
9.99782e-06
9.99789e-06
9.99797e-06
9.99795e-06
9.99828e-06
9.99786e-06
9.99874e-06
9.99757e-06
9.99948e-06
9.99763e-06
1.00005e-05
9.9981e-06
1.00017e-05
9.99886e-06
1.0003e-05
9.99968e-06
1.00041e-05
1.00009e-05
1.00042e-05
9.99745e-06
1.00302e-05
1.01931e-05
1.10784e-05
1.29574e-05
1.95844e-05
4.06345e-05
8.542e-05
0.000120876
0.000326889
0.000131266
0.176849
0.993396
0.99968
0.999817
0.999958
0.999984
0.999996
0.999998
0.999999
1
1
1
1
1
1
1
1
1
1
1
1
1
1
1
1
1
1
1
1
1
1
1
1
1
1
1
1
7.68901e-06
8.80185e-06
9.10021e-06
9.02665e-06
9.20543e-06
9.35853e-06
9.29201e-06
9.50395e-06
9.63243e-06
9.90752e-06
9.99134e-06
1.00007e-05
1.00007e-05
1.00007e-05
1.00007e-05
1.00007e-05
1.00007e-05
1.00012e-05
1.00012e-05
1.00012e-05
1.00012e-05
1.00013e-05
1.00013e-05
1.00015e-05
1.00015e-05
1.00016e-05
1.00016e-05
1.00016e-05
1.00017e-05
1.00018e-05
1.00018e-05
1.00018e-05
1.00018e-05
1.00018e-05
1.00018e-05
1.00021e-05
1.00022e-05
1.00023e-05
1.00023e-05
1.00033e-05
1.00035e-05
1.00043e-05
1.00043e-05
1.00043e-05
1.00043e-05
1.00043e-05
1.00042e-05
1.00042e-05
9.99842e-06
1.00378e-05
1.02927e-05
1.11448e-05
1.57063e-05
5.45506e-05
8.22705e-05
0.000106985
0.000103239
0.000460805
0.000250583
0.0726756
0.976336
0.999997
0.999999
1
0.999999
0.999999
0.999999
0.999999
0.999999
0.999999
0.999999
0.999999
0.999999
0.999999
0.999999
0.999999
0.999999
0.999999
0.999999
0.999999
0.999999
0.999999
0.999999
0.999999
0.999999
0.999999
0.999999
0.999999
0.999999
0.999999
1
1
1
1
1
1
5.13911e-06
7.0343e-06
7.42145e-06
7.75203e-06
8.35655e-06
9.13734e-06
9.68053e-06
9.80006e-06
9.64084e-06
9.8787e-06
9.96818e-06
9.99902e-06
9.9997e-06
1.00001e-05
1.00001e-05
1.00005e-05
1.00002e-05
1.0001e-05
1.00007e-05
1.00011e-05
1.00009e-05
1.00011e-05
1.0001e-05
1.00012e-05
1.00012e-05
1.00012e-05
1.00012e-05
1.00012e-05
1.00012e-05
1.00012e-05
1.00012e-05
1.00012e-05
1.00011e-05
1.00012e-05
1.00011e-05
1.00013e-05
1.00012e-05
1.00017e-05
1.00014e-05
1.00022e-05
1.0002e-05
1.0003e-05
1.00026e-05
1.00031e-05
1.00025e-05
1.00029e-05
1.00014e-05
1.00028e-05
9.99753e-06
1.00484e-05
1.04012e-05
1.13461e-05
1.48766e-05
5.75186e-05
9.82243e-05
0.000115713
0.000140754
0.000583064
0.000370044
0.035033
0.938589
0.999999
0.999999
0.999999
0.999999
0.999999
0.999999
0.999999
0.999999
0.999999
0.999999
0.999999
0.999999
0.999999
0.999999
0.999999
0.999999
0.999999
0.999999
0.999999
0.999999
0.999999
0.999999
0.999999
0.999999
0.999999
0.999999
0.999999
0.999999
0.999999
0.999999
1
1
1
1
1
3.84196e-06
5.08637e-06
5.42829e-06
5.68433e-06
5.75546e-06
6.35855e-06
7.40734e-06
8.52433e-06
9.59899e-06
9.97172e-06
9.9875e-06
9.9991e-06
9.99672e-06
9.99877e-06
9.99742e-06
9.99885e-06
9.9978e-06
9.99904e-06
9.99828e-06
9.99911e-06
9.99853e-06
9.999e-06
9.99871e-06
9.99886e-06
9.99878e-06
9.99877e-06
9.99875e-06
9.99873e-06
9.99871e-06
9.99869e-06
9.99869e-06
9.99871e-06
9.9987e-06
9.99887e-06
9.99876e-06
9.99918e-06
9.99888e-06
9.99974e-06
9.99921e-06
1.00004e-05
9.99958e-06
1.00012e-05
1.00001e-05
1.00018e-05
1.00003e-05
1.00019e-05
9.99958e-06
1.0002e-05
9.99745e-06
1.00597e-05
1.05349e-05
1.184e-05
1.33044e-05
4.07235e-05
8.5341e-05
0.000104699
0.000203385
0.000687089
0.00051896
0.0268297
0.943903
0.999999
0.999999
0.999999
0.999999
0.999999
0.999999
0.999999
0.999999
0.999999
0.999999
0.999999
0.999999
0.999999
0.999999
0.999999
0.999999
0.999999
0.999999
0.999999
0.999999
0.999999
0.999999
0.999999
0.999999
0.999999
0.999999
0.999999
0.999999
0.999999
1
1
1
1
1
1
3.29902e-06
4.32557e-06
4.86976e-06
5.30744e-06
5.03664e-06
4.81346e-06
5.23632e-06
6.21292e-06
7.88073e-06
9.78009e-06
9.99342e-06
1.00022e-05
9.99712e-06
9.99948e-06
9.99685e-06
9.99905e-06
9.99737e-06
9.99896e-06
9.99781e-06
9.99889e-06
9.99811e-06
9.99869e-06
9.99833e-06
9.99849e-06
9.9984e-06
9.9984e-06
9.99837e-06
9.99836e-06
9.99834e-06
9.99833e-06
9.99832e-06
9.99832e-06
9.99825e-06
9.99841e-06
9.99815e-06
9.99869e-06
9.99814e-06
9.99926e-06
9.99832e-06
9.99994e-06
9.99874e-06
1.00009e-05
9.99945e-06
1.00017e-05
1.00001e-05
1.0002e-05
9.99971e-06
1.00021e-05
9.99725e-06
1.00508e-05
1.06051e-05
1.20072e-05
1.36823e-05
2.39141e-05
6.48882e-05
7.76377e-05
0.000274042
0.000793515
0.000607629
0.0442206
0.950757
0.999998
0.999999
0.999999
0.999999
0.999999
0.999999
0.999999
0.999999
0.999999
0.999999
0.999999
0.999999
0.999999
0.999999
0.999999
0.999999
0.999999
0.999999
0.999999
0.999999
0.999999
0.999999
0.999999
0.999999
0.999999
0.999999
0.999999
0.999999
0.999999
1
1
1
1
1
1
3.07115e-06
3.6202e-06
3.84401e-06
4.45365e-06
4.6519e-06
4.37756e-06
4.40125e-06
5.02544e-06
6.66436e-06
9.23109e-06
9.96448e-06
1.00048e-05
9.99956e-06
1.00024e-05
9.99824e-06
1.00017e-05
9.99891e-06
1.0001e-05
9.99937e-06
1.00006e-05
9.99969e-06
1.00003e-05
9.99993e-06
1.00001e-05
1e-05
1.00001e-05
1e-05
1e-05
1.00001e-05
1.00001e-05
1.00001e-05
1.00001e-05
1e-05
1.00002e-05
9.99996e-06
1.00006e-05
9.99997e-06
1.00013e-05
1.00002e-05
1.00021e-05
1.00008e-05
1.00031e-05
1.00016e-05
1.0004e-05
1.00024e-05
1.00044e-05
1.00022e-05
1.00044e-05
9.99907e-06
1.00713e-05
1.06678e-05
1.26823e-05
1.57824e-05
2.39144e-05
4.24767e-05
6.90678e-05
0.000383775
0.000917587
0.00126492
0.0405583
0.952706
0.999893
0.999999
0.999999
0.999999
0.999999
0.999999
0.999999
0.999999
0.999999
0.999999
0.999999
0.999999
0.999999
0.999999
0.999999
0.999999
0.999999
0.999999
0.999999
0.999999
0.999999
0.999999
0.999999
0.999999
0.999999
0.999999
0.999999
0.999999
0.999999
1
1
1
1
1
1
2.1752e-06
2.49598e-06
2.72021e-06
2.89531e-06
3.08826e-06
3.38581e-06
3.65937e-06
4.33216e-06
6.88899e-06
9.40857e-06
9.9841e-06
1.00076e-05
1.00076e-05
1.00078e-05
1.00077e-05
1.0008e-05
1.00078e-05
1.0008e-05
1.00077e-05
1.0008e-05
1.00077e-05
1.00079e-05
1.00078e-05
1.00079e-05
1.00078e-05
1.00078e-05
1.00078e-05
1.00078e-05
1.00078e-05
1.00078e-05
1.00078e-05
1.00078e-05
1.00078e-05
1.0008e-05
1.00079e-05
1.00083e-05
1.0008e-05
1.00085e-05
1.0008e-05
1.001e-05
1.00092e-05
1.00107e-05
1.00104e-05
1.00108e-05
1.00108e-05
1.00108e-05
1.00108e-05
1.00113e-05
1.00107e-05
1.0181e-05
1.15068e-05
1.55327e-05
2.14519e-05
2.91926e-05
4.65945e-05
0.00014483
0.00024312
0.000840113
0.000888867
0.0457112
0.944236
0.999607
0.999999
1
0.999999
0.999999
0.999999
0.999999
0.999999
0.999999
0.999999
0.999999
0.999999
0.999999
0.999999
0.999999
0.999999
0.999999
0.999999
0.999999
0.999999
0.999999
0.999999
0.999999
0.999999
0.999999
0.999999
0.999999
0.999999
0.999999
1
1
1
1
1
1
9.94821e-06
9.9801e-06
1.00032e-05
1.00033e-05
1.00033e-05
1.0004e-05
1.0004e-05
1.0004e-05
1.0004e-05
1.0004e-05
1.0004e-05
1.0004e-05
1.0004e-05
1.0004e-05
1.0004e-05
1.0004e-05
1.0004e-05
1.0004e-05
1.0004e-05
1.0004e-05
1.0004e-05
1.0004e-05
1.0004e-05
1.0004e-05
1.0004e-05
1.0004e-05
1.0004e-05
1.0004e-05
1.0004e-05
1.0004e-05
1.0004e-05
1.0004e-05
1.0004e-05
1.0004e-05
1.00039e-05
1.00045e-05
1.00039e-05
1.00051e-05
1.00041e-05
1.00054e-05
1.00043e-05
1.0006e-05
1.00059e-05
1.00064e-05
1.00064e-05
1.00064e-05
1.00059e-05
1.0007e-05
1.00032e-05
1.0011e-05
1.0283e-05
1.29971e-05
1.8471e-05
3.53224e-05
5.00411e-05
7.51175e-05
0.000156642
0.000833367
0.00322241
0.0638673
0.948132
0.999638
0.999999
0.999999
0.999999
0.999999
0.999999
0.999999
0.999999
0.999999
0.999999
0.999999
0.999999
0.999999
0.999999
0.999999
0.999999
0.999999
0.999999
0.999999
0.999999
0.999999
0.999999
0.999999
0.999999
0.999999
0.999999
0.999999
0.999999
0.999999
0.999999
0.999999
1
1
1
1
9.58309e-06
9.65664e-06
9.92856e-06
9.96365e-06
9.99591e-06
1.00022e-05
1.00025e-05
1.00036e-05
1.00025e-05
1.0004e-05
1.0003e-05
1.0004e-05
1.00028e-05
1.00036e-05
1.00028e-05
1.00037e-05
1.00031e-05
1.00035e-05
1.00032e-05
1.00035e-05
1.00034e-05
1.00035e-05
1.00034e-05
1.00034e-05
1.00034e-05
1.00034e-05
1.00034e-05
1.00035e-05
1.00035e-05
1.00035e-05
1.00035e-05
1.00036e-05
1.00034e-05
1.00039e-05
1.0003e-05
1.00045e-05
1.00025e-05
1.00051e-05
1.00025e-05
1.00054e-05
1.00025e-05
1.0006e-05
1.0003e-05
1.00062e-05
1.00037e-05
1.00064e-05
1.00035e-05
1.0007e-05
1.00022e-05
1.00143e-05
1.05053e-05
1.54921e-05
2.77891e-05
4.14609e-05
5.43348e-05
9.19981e-05
0.000188746
0.000715497
0.00176676
0.0596107
0.961764
0.999951
0.999999
0.999999
0.999999
0.999999
0.999999
0.999999
0.999999
0.999999
0.999999
0.999999
0.999999
0.999999
0.999999
0.999999
0.999999
0.999999
0.999999
0.999999
0.999999
0.999999
0.999999
0.999999
0.999999
0.999999
0.999999
0.999999
0.999999
0.999999
0.999999
0.999999
0.999999
1
1
1
9.13501e-06
9.01716e-06
9.37677e-06
9.51658e-06
9.83155e-06
9.95807e-06
1.00019e-05
1.00039e-05
1.00039e-05
1.00054e-05
1.00054e-05
1.00055e-05
1.00055e-05
1.00055e-05
1.00054e-05
1.00059e-05
1.00059e-05
1.00062e-05
1.00066e-05
1.0007e-05
1.0007e-05
1.0007e-05
1.0007e-05
1.0007e-05
1.0007e-05
1.0007e-05
1.0007e-05
1.0007e-05
1.0007e-05
1.0007e-05
1.0007e-05
1.0007e-05
1.0007e-05
1.0007e-05
1.0007e-05
1.0007e-05
1.0007e-05
1.0007e-05
1.0007e-05
1.0007e-05
1.0007e-05
1.0007e-05
1.0007e-05
1.0007e-05
1.0007e-05
1.0007e-05
1.0007e-05
1.0007e-05
1.00035e-05
1.00106e-05
1.01783e-05
1.50888e-05
3.24732e-05
4.70703e-05
6.20657e-05
0.000124545
0.000145874
0.000500796
0.000857827
0.052382
0.963992
0.999999
0.999999
0.999999
0.999999
0.999999
0.999999
0.999999
0.999999
0.999999
0.999999
0.999999
0.999999
0.999999
0.999999
0.999999
0.999999
0.999999
0.999999
0.999999
0.999999
0.999999
0.999999
0.999999
0.999999
0.999999
0.999999
0.999999
0.999999
0.999999
0.999999
0.999999
0.999999
1
1
1
8.79255e-06
8.59953e-06
8.56314e-06
8.6569e-06
9.08692e-06
9.59981e-06
9.88531e-06
9.98138e-06
9.99807e-06
1.00013e-05
1.00003e-05
1.00029e-05
1.00017e-05
1.00033e-05
1.00018e-05
1.0003e-05
1.00023e-05
1.00032e-05
1.00028e-05
1.00036e-05
1.00034e-05
1.00038e-05
1.00038e-05
1.00039e-05
1.00039e-05
1.00039e-05
1.00039e-05
1.00039e-05
1.00039e-05
1.00039e-05
1.00038e-05
1.00039e-05
1.00037e-05
1.00041e-05
1.00034e-05
1.00045e-05
1.00034e-05
1.00051e-05
1.00038e-05
1.00056e-05
1.00042e-05
1.00063e-05
1.00049e-05
1.00068e-05
1.00056e-05
1.00068e-05
1.00049e-05
1.00069e-05
1.0001e-05
1.00106e-05
1.00172e-05
1.09938e-05
2.34507e-05
4.77642e-05
7.68566e-05
0.000159562
0.000116045
0.000425311
0.000329989
0.062743
0.96225
0.999999
0.999996
0.999999
0.999999
0.999999
0.999999
0.999999
0.999999
0.999999
0.999999
0.999999
0.999999
0.999999
0.999999
0.999999
0.999999
0.999999
0.999999
0.999999
0.999999
0.999999
0.999999
0.999999
0.999999
0.999999
0.999999
0.999999
0.999999
0.999999
0.999999
0.999999
0.999999
1
1
1
8.56838e-06
8.46931e-06
8.22801e-06
8.23985e-06
8.37502e-06
8.97098e-06
9.42981e-06
9.83897e-06
9.98416e-06
9.99867e-06
9.99768e-06
1.00003e-05
9.99944e-06
1.00006e-05
9.9995e-06
1.00005e-05
9.99968e-06
1.00002e-05
9.99995e-06
1.00003e-05
1.00002e-05
1.00005e-05
1.00004e-05
1.00004e-05
1.00004e-05
1.00003e-05
1.00003e-05
1.00002e-05
1.00001e-05
1.00001e-05
1e-05
1e-05
9.99994e-06
1.00001e-05
9.99983e-06
1.00002e-05
9.9998e-06
1.00005e-05
9.99986e-06
1.00006e-05
1e-05
1.00017e-05
1.0001e-05
1.00024e-05
1.00012e-05
1.00023e-05
1.00002e-05
1.00018e-05
9.99677e-06
1.00112e-05
1.00479e-05
1.05631e-05
1.17757e-05
3.83712e-05
0.000143689
0.000202307
0.000203834
0.000199319
8.88924e-05
0.140129
0.987441
0.999751
0.999796
0.999912
0.999945
0.999968
0.999975
0.999977
0.999977
0.999979
0.99998
0.999979
0.999982
0.999983
0.999985
0.99999
0.999995
0.999998
0.999999
0.999999
0.999999
0.999999
0.999999
0.999999
0.999999
0.999999
0.999999
0.999999
0.999999
0.999999
0.999999
0.999999
0.999999
1
1
1
8.3834e-06
8.50525e-06
8.2026e-06
8.20323e-06
8.17017e-06
8.49615e-06
8.81602e-06
9.49666e-06
9.90453e-06
9.99118e-06
9.99499e-06
9.99864e-06
9.99754e-06
9.99877e-06
9.9978e-06
9.99874e-06
9.9977e-06
9.99848e-06
9.9982e-06
9.99832e-06
9.99823e-06
9.99845e-06
9.9983e-06
9.99829e-06
9.99818e-06
9.9981e-06
9.99797e-06
9.99784e-06
9.99772e-06
9.99761e-06
9.99756e-06
9.99752e-06
9.99747e-06
9.99747e-06
9.99739e-06
9.99745e-06
9.99731e-06
9.99744e-06
9.99726e-06
9.99761e-06
9.99753e-06
9.99918e-06
9.99904e-06
9.99922e-06
9.99894e-06
9.99973e-06
9.9986e-06
9.99896e-06
9.99549e-06
1.00123e-05
1.00838e-05
1.09668e-05
1.41065e-05
2.96627e-05
0.000170398
0.000190642
0.000161565
9.31456e-05
1.00212e-05
0.283975
0.985816
0.992414
0.992349
0.993162
0.993294
0.994118
0.994316
0.994331
0.994698
0.994837
0.995162
0.995614
0.996117
0.996364
0.996622
0.997303
0.998152
0.998702
0.999107
0.999422
0.999659
0.999844
0.999942
0.999986
0.999999
0.999999
0.999999
0.999999
0.999999
0.999999
0.999999
0.999999
1
1
1
1
8.23107e-06
8.54714e-06
8.29869e-06
8.41957e-06
8.16961e-06
8.29952e-06
8.35798e-06
9.05293e-06
9.69419e-06
9.96118e-06
9.99207e-06
9.99762e-06
9.99636e-06
9.9974e-06
9.99667e-06
9.9973e-06
9.99623e-06
9.99723e-06
9.99683e-06
9.99693e-06
9.99685e-06
9.99701e-06
9.99687e-06
9.99685e-06
9.99672e-06
9.99663e-06
9.99651e-06
9.99639e-06
9.99628e-06
9.9962e-06
9.9962e-06
9.9962e-06
9.9962e-06
9.9962e-06
9.9962e-06
9.99621e-06
9.9962e-06
9.99625e-06
9.99624e-06
9.99667e-06
9.99666e-06
9.99846e-06
9.99846e-06
9.99852e-06
9.99851e-06
9.99934e-06
9.9986e-06
9.99883e-06
9.99548e-06
1.00229e-05
1.01173e-05
1.08746e-05
1.3285e-05
1.83736e-05
0.000130677
0.0002316
0.00023394
0.000168786
1.00212e-05
0.431198
0.958529
0.963809
0.961601
0.961254
0.960735
0.960471
0.96071
0.960533
0.96089
0.961161
0.961119
0.960975
0.961336
0.962735
0.964815
0.966184
0.967386
0.968829
0.971039
0.97376
0.976834
0.979838
0.983207
0.988025
0.992464
0.995517
0.997704
0.999146
0.999747
0.999801
0.999743
0.99978
0.999787
0.99947
0.99776
0.996501
7.87858e-06
8.43561e-06
8.41717e-06
8.58879e-06
8.1967e-06
8.23311e-06
8.06559e-06
8.60166e-06
9.35071e-06
9.87356e-06
9.9886e-06
9.99825e-06
9.99636e-06
9.998e-06
9.99667e-06
9.99782e-06
9.99623e-06
9.99769e-06
9.99676e-06
9.99724e-06
9.99685e-06
9.99716e-06
9.99699e-06
9.99711e-06
9.99706e-06
9.99709e-06
9.99711e-06
9.99716e-06
9.99722e-06
9.99728e-06
9.9973e-06
9.99733e-06
9.9973e-06
9.99761e-06
9.9973e-06
9.99795e-06
9.99735e-06
9.99828e-06
9.99761e-06
9.99929e-06
9.99856e-06
1.00004e-05
9.99933e-06
1.00012e-05
1.00001e-05
1.00016e-05
9.99909e-06
1.00016e-05
9.99561e-06
1.00394e-05
1.02686e-05
1.13592e-05
1.28132e-05
1.51091e-05
7.51207e-05
0.000227865
0.000244931
0.000233322
1.00212e-05
0.452066
0.948334
0.954792
0.953382
0.952568
0.948958
0.94764
0.947646
0.945994
0.944303
0.942173
0.939899
0.937024
0.934319
0.931533
0.927644
0.923403
0.918349
0.912421
0.907393
0.902925
0.89831
0.893658
0.887937
0.880227
0.872356
0.865343
0.860354
0.85761
0.855614
0.852796
0.846054
0.835559
0.823066
0.806335
0.766994
0.57322
7.70465e-06
7.92425e-06
8.46727e-06
8.66723e-06
8.22412e-06
7.9903e-06
7.75942e-06
8.11741e-06
8.87301e-06
9.69131e-06
9.97485e-06
9.99898e-06
9.99862e-06
9.9998e-06
9.99915e-06
9.9999e-06
9.99869e-06
9.99979e-06
9.99898e-06
9.99973e-06
9.99919e-06
9.99961e-06
9.99936e-06
9.9995e-06
9.99941e-06
9.99941e-06
9.99938e-06
9.99935e-06
9.99934e-06
9.99932e-06
9.99931e-06
9.9993e-06
9.99926e-06
9.99939e-06
9.99917e-06
9.99956e-06
9.99912e-06
9.99978e-06
9.99939e-06
1.00008e-05
1.00002e-05
1.00016e-05
1.00011e-05
1.00021e-05
1.00015e-05
1.00023e-05
1.00008e-05
1.00024e-05
9.99873e-06
1.0069e-05
1.05742e-05
1.26234e-05
1.43122e-05
2.31436e-05
3.29875e-05
0.000109896
0.00026172
0.000355431
1.00212e-05
0.258206
0.973131
0.990396
0.993003
0.996007
0.99746
0.998281
0.998401
0.998211
0.998005
0.99782
0.997622
0.997547
0.99751
0.997403
0.996976
0.99675
0.99637
0.996023
0.995855
0.995394
0.995199
0.99497
0.99451
0.994087
0.993994
0.993894
0.994552
0.995062
0.995766
0.996228
0.996611
0.997288
0.998254
0.999324
0.99987
0.999949
7.61135e-06
7.26716e-06
7.93635e-06
8.27034e-06
8.12604e-06
7.60967e-06
7.3203e-06
7.55647e-06
8.20409e-06
9.37242e-06
9.92169e-06
9.99897e-06
9.99903e-06
1.00001e-05
9.99957e-06
1.00002e-05
9.99907e-06
1e-05
9.99929e-06
9.99996e-06
9.99946e-06
9.99985e-06
9.9996e-06
9.99973e-06
9.99964e-06
9.99964e-06
9.99961e-06
9.99959e-06
9.99957e-06
9.99955e-06
9.99954e-06
9.99952e-06
9.99948e-06
9.99959e-06
9.99936e-06
9.99976e-06
9.99932e-06
1.00001e-05
9.99966e-06
1.00011e-05
1.00005e-05
1.00017e-05
1.00011e-05
1.00021e-05
1.00015e-05
1.0002e-05
1.00008e-05
1.00024e-05
1.00002e-05
1.0112e-05
1.10093e-05
1.40749e-05
1.59048e-05
4.13946e-05
5.75543e-05
9.42071e-05
0.000119345
0.000464987
9.0793e-05
0.112887
0.986862
0.99972
0.999854
0.999974
0.999989
0.999994
0.999994
0.999993
0.999993
0.999993
0.999993
0.999992
0.999992
0.999991
0.999991
0.99999
0.999989
0.999988
0.999987
0.999987
0.999985
0.999984
0.999984
0.999985
0.999988
0.999992
0.999995
0.999997
0.999999
0.999999
0.999999
0.999999
0.999999
1
1
0.999999
7.11525e-06
7.18834e-06
7.59915e-06
7.81231e-06
7.97662e-06
7.24982e-06
6.86883e-06
6.97127e-06
7.37981e-06
8.87141e-06
9.81672e-06
9.9938e-06
9.99933e-06
1.00003e-05
9.99995e-06
1.00004e-05
9.99946e-06
1.00003e-05
9.99972e-06
1.00003e-05
9.99988e-06
1.00002e-05
1e-05
1.00001e-05
1.00001e-05
1.00001e-05
1e-05
1e-05
9.99997e-06
9.99994e-06
9.99991e-06
9.99988e-06
9.99982e-06
9.9999e-06
9.9997e-06
1e-05
9.99971e-06
1.00005e-05
1.00001e-05
1.00013e-05
1.00008e-05
1.00018e-05
1.00013e-05
1.00019e-05
1.00016e-05
1.00014e-05
1.00008e-05
1.00012e-05
1.00019e-05
1.01658e-05
1.15033e-05
1.55028e-05
1.85569e-05
5.64334e-05
9.25184e-05
0.000101517
0.000111672
0.000551142
0.000225887
0.0476239
0.952003
0.999999
0.999997
1
0.999999
0.999999
0.999999
0.999999
0.999999
0.999999
0.999999
0.999999
0.999999
0.999999
0.999999
0.999999
0.999999
0.999999
0.999999
0.999999
0.999999
0.999999
0.999999
0.999999
0.999999
0.999999
0.999999
0.999999
0.999999
0.999999
0.999999
1
1
1
1
1
5.07439e-06
7.2064e-06
7.6183e-06
7.80145e-06
7.92076e-06
7.05494e-06
6.57443e-06
6.45974e-06
6.60437e-06
8.2207e-06
9.62845e-06
9.98126e-06
9.99736e-06
9.99843e-06
9.9983e-06
9.99856e-06
9.99789e-06
9.99853e-06
9.99818e-06
9.99859e-06
9.9983e-06
9.99854e-06
9.99837e-06
9.99846e-06
9.99837e-06
9.99833e-06
9.99826e-06
9.99819e-06
9.99812e-06
9.99803e-06
9.99794e-06
9.99784e-06
9.99773e-06
9.99769e-06
9.9975e-06
9.99772e-06
9.99755e-06
9.99811e-06
9.99778e-06
9.99841e-06
9.99808e-06
9.99916e-06
9.99875e-06
9.99932e-06
9.99883e-06
9.99871e-06
9.99835e-06
9.99881e-06
1.00044e-05
1.02327e-05
1.1944e-05
1.69875e-05
2.12872e-05
3.80039e-05
8.56815e-05
0.000101822
0.00015731
0.000599596
0.000450378
0.0322547
0.952897
0.999999
0.999999
0.999999
0.999999
0.999999
0.999999
0.999999
0.999999
0.999999
0.999999
0.999999
0.999999
0.999999
0.999999
0.999999
0.999999
0.999999
0.999999
0.999999
0.999999
0.999999
0.999999
0.999999
0.999999
0.999999
0.999999
0.999999
0.999999
0.999999
0.999999
1
1
1
1
1
4.35264e-06
6.33737e-06
7.01468e-06
7.7388e-06
7.97622e-06
7.26076e-06
6.54259e-06
6.12226e-06
6.07322e-06
7.64048e-06
9.45408e-06
9.96971e-06
9.99525e-06
9.99692e-06
9.99645e-06
9.99665e-06
9.99608e-06
9.99648e-06
9.99624e-06
9.99646e-06
9.99622e-06
9.99634e-06
9.99619e-06
9.99621e-06
9.99612e-06
9.99607e-06
9.996e-06
9.99592e-06
9.99584e-06
9.99576e-06
9.99566e-06
9.99557e-06
9.99545e-06
9.99539e-06
9.99518e-06
9.99531e-06
9.99499e-06
9.99526e-06
9.99483e-06
9.99535e-06
9.99496e-06
9.996e-06
9.99576e-06
9.99717e-06
9.99675e-06
9.99691e-06
9.99676e-06
9.99738e-06
1.00091e-05
1.03039e-05
1.23594e-05
1.81936e-05
2.46039e-05
3.07899e-05
7.06603e-05
8.7907e-05
0.000200103
0.000699301
0.00094026
0.0310401
0.950685
0.999999
0.999999
0.999999
0.999999
0.999999
0.999999
0.999999
0.999999
0.999999
0.999999
0.999999
0.999999
0.999999
0.999999
0.999999
0.999999
0.999999
0.999999
0.999999
0.999999
0.999999
0.999999
0.999999
0.999999
0.999999
0.999999
0.999999
0.999999
0.999999
0.999999
1
1
1
1
1
3.87978e-06
5.25357e-06
5.33166e-06
7.07242e-06
7.91915e-06
8.16688e-06
7.12265e-06
5.88327e-06
5.64134e-06
7.13714e-06
9.39039e-06
9.96885e-06
9.99389e-06
9.99577e-06
9.995e-06
9.995e-06
9.99463e-06
9.99463e-06
9.99459e-06
9.99459e-06
9.99446e-06