/*--------------------------------*- C++ -*----------------------------------*\
| =========                 |                                                 |
| \\      /  F ield         | OpenFOAM: The Open Source CFD Toolbox           |
|  \\    /   O peration     | Version:  2.3.0                                 |
|   \\  /    A nd           | Web:      www.OpenFOAM.org                      |
|    \\/     M anipulation  |                                                 |
\*---------------------------------------------------------------------------*/
FoamFile
{
    version     2.0;
    format      ascii;
    class       volScalarField;
    location    "7";
    object      alpha.airMean;
}
// * * * * * * * * * * * * * * * * * * * * * * * * * * * * * * * * * * * * * //

dimensions      [0 0 0 0 0 0 0];

internalField   nonuniform List<scalar> 
6144
(
0.99999
0.99999
0.99999
0.99999
0.99999
0.99999
0.99999
0.99999
0.99999
0.99999
0.99999
0.99999
0.99999
0.99999
0.99999
0.99999
0.99999
0.99999
0.99999
0.99999
0.99999
0.99999
0.99999
0.99999
0.99999
0.99999
0.99999
0.99999
0.99999
0.99999
0.99999
0.99999
0.99999
0.99999
0.99999
0.99999
0.99999
0.99999
0.99999
0.99999
0.99999
0.99999
0.99999
0.99999
0.99999
0.99999
0.99999
0.99999
0.99999
0.99999
0.999989
0.999987
0.999984
0.99998
0.999974
0.999962
0.999952
0.999936
0.998711
0.927416
0.0279284
0.000171586
1.91671e-06
1.75909e-06
1.73839e-06
1.68538e-06
1.67434e-06
1.6294e-06
1.6159e-06
1.57765e-06
1.55853e-06
1.528e-06
1.50192e-06
1.47381e-06
1.44956e-06
1.42331e-06
1.39723e-06
1.37132e-06
1.34574e-06
1.31941e-06
1.29274e-06
1.2679e-06
1.24346e-06
1.22083e-06
1.19765e-06
1.17115e-06
1.14136e-06
1.10944e-06
1.0732e-06
1.0273e-06
9.58123e-07
8.48385e-07
7.14989e-07
6.54743e-07
6.58166e-07
6.5732e-07
0.99999
0.99999
0.99999
0.99999
0.99999
0.99999
0.99999
0.99999
0.99999
0.99999
0.99999
0.99999
0.99999
0.99999
0.99999
0.99999
0.99999
0.99999
0.99999
0.99999
0.99999
0.99999
0.99999
0.99999
0.99999
0.99999
0.99999
0.99999
0.99999
0.99999
0.99999
0.99999
0.99999
0.99999
0.99999
0.99999
0.99999
0.99999
0.99999
0.99999
0.99999
0.99999
0.99999
0.99999
0.99999
0.99999
0.99999
0.99999
0.99999
0.99999
0.99999
0.999987
0.999982
0.999976
0.999969
0.999959
0.999951
0.999932
0.999369
0.94883
0.0296035
0.000146483
1.87187e-06
1.75897e-06
1.73374e-06
1.67954e-06
1.66986e-06
1.62961e-06
1.61609e-06
1.57763e-06
1.56119e-06
1.5323e-06
1.51113e-06
1.48607e-06
1.46143e-06
1.43296e-06
1.40476e-06
1.37713e-06
1.34926e-06
1.32271e-06
1.2954e-06
1.26905e-06
1.24335e-06
1.21978e-06
1.19584e-06
1.16834e-06
1.13868e-06
1.10747e-06
1.07312e-06
1.03071e-06
9.64968e-07
8.55181e-07
7.16485e-07
6.54535e-07
6.57874e-07
6.57085e-07
0.99999
0.99999
0.99999
0.99999
0.99999
0.99999
0.99999
0.99999
0.99999
0.99999
0.99999
0.99999
0.99999
0.99999
0.99999
0.99999
0.99999
0.99999
0.99999
0.99999
0.99999
0.99999
0.99999
0.99999
0.99999
0.99999
0.99999
0.99999
0.99999
0.99999
0.99999
0.99999
0.99999
0.99999
0.99999
0.99999
0.99999
0.99999
0.99999
0.99999
0.99999
0.99999
0.99999
0.99999
0.99999
0.99999
0.99999
0.99999
0.99999
0.99999
0.999989
0.999984
0.999976
0.999968
0.99996
0.999949
0.999944
0.999931
0.999577
0.935097
0.0242373
7.85393e-05
1.82253e-06
1.77983e-06
1.73491e-06
1.68664e-06
1.67645e-06
1.64188e-06
1.62977e-06
1.5946e-06
1.58672e-06
1.56459e-06
1.54362e-06
1.50885e-06
1.47261e-06
1.43633e-06
1.4086e-06
1.38069e-06
1.35266e-06
1.32836e-06
1.30045e-06
1.27163e-06
1.24803e-06
1.22361e-06
1.19639e-06
1.16849e-06
1.13885e-06
1.10774e-06
1.07446e-06
1.03438e-06
9.70405e-07
8.64583e-07
7.25687e-07
6.56284e-07
6.57895e-07
6.57198e-07
0.99999
0.99999
0.99999
0.99999
0.99999
0.99999
0.99999
0.99999
0.99999
0.99999
0.99999
0.99999
0.99999
0.99999
0.99999
0.99999
0.99999
0.99999
0.99999
0.99999
0.99999
0.99999
0.99999
0.99999
0.99999
0.99999
0.99999
0.99999
0.99999
0.99999
0.99999
0.99999
0.99999
0.99999
0.99999
0.99999
0.99999
0.99999
0.99999
0.99999
0.99999
0.99999
0.99999
0.99999
0.99999
0.99999
0.99999
0.99999
0.99999
0.99999
0.999986
0.999978
0.99997
0.99996
0.999949
0.999938
0.999933
0.999922
0.999614
0.908642
0.0267673
7.01265e-05
6.74287e-06
3.80848e-06
2.86361e-06
2.21442e-06
2.02089e-06
1.84767e-06
1.80437e-06
1.73978e-06
1.71967e-06
1.66312e-06
1.61109e-06
1.55559e-06
1.50486e-06
1.44903e-06
1.40726e-06
1.37471e-06
1.34313e-06
1.31943e-06
1.29672e-06
1.272e-06
1.24679e-06
1.22156e-06
1.19303e-06
1.16394e-06
1.1351e-06
1.1022e-06
1.06604e-06
1.02521e-06
9.64829e-07
8.6388e-07
7.28734e-07
6.56616e-07
6.57828e-07
6.5696e-07
0.99999
0.99999
0.99999
0.99999
0.99999
0.99999
0.99999
0.99999
0.99999
0.99999
0.99999
0.99999
0.99999
0.99999
0.99999
0.99999
0.99999
0.99999
0.99999
0.99999
0.99999
0.99999
0.99999
0.99999
0.99999
0.99999
0.99999
0.99999
0.99999
0.99999
0.99999
0.99999
0.99999
0.99999
0.99999
0.99999
0.99999
0.99999
0.99999
0.99999
0.99999
0.99999
0.99999
0.99999
0.99999
0.99999
0.99999
0.99999
0.99999
0.999988
0.999981
0.999972
0.999965
0.999955
0.99994
0.99993
0.999923
0.99992
0.999769
0.885931
0.0306192
0.000246705
0.0001592
0.000112552
9.50049e-05
7.4557e-05
6.0453e-05
4.62168e-05
3.65306e-05
2.93667e-05
2.44448e-05
1.98352e-05
1.54658e-05
1.10006e-05
7.29491e-06
4.28973e-06
2.60616e-06
1.82831e-06
1.55665e-06
1.44821e-06
1.38734e-06
1.32332e-06
1.27294e-06
1.2334e-06
1.2015e-06
1.16645e-06
1.1294e-06
1.0849e-06
1.04261e-06
9.99324e-07
9.42079e-07
8.47134e-07
7.19443e-07
6.55372e-07
6.57871e-07
6.56518e-07
0.99999
0.99999
0.99999
0.99999
0.99999
0.99999
0.99999
0.99999
0.99999
0.99999
0.99999
0.99999
0.99999
0.99999
0.99999
0.99999
0.99999
0.99999
0.99999
0.99999
0.99999
0.99999
0.99999
0.99999
0.99999
0.99999
0.99999
0.99999
0.99999
0.99999
0.99999
0.99999
0.99999
0.99999
0.99999
0.99999
0.99999
0.99999
0.99999
0.99999
0.99999
0.99999
0.99999
0.99999
0.99999
0.99999
0.99999
0.99999
0.999989
0.999986
0.999976
0.999968
0.999963
0.999954
0.99994
0.999931
0.999931
0.999941
0.999864
0.865329
0.0245417
0.00102124
0.00102823
0.000935875
0.0009368
0.000872641
0.000812909
0.000700649
0.00061782
0.000536087
0.000475712
0.000418436
0.00036736
0.000314422
0.000261861
0.000208257
0.000156689
0.000111552
7.61602e-05
5.01873e-05
3.21059e-05
2.02211e-05
1.24394e-05
7.5541e-06
4.56085e-06
2.97788e-06
1.95053e-06
1.43222e-06
1.14836e-06
1.01213e-06
8.74354e-07
7.85781e-07
6.98546e-07
6.84324e-07
6.60166e-07
6.56841e-07
0.99999
0.99999
0.99999
0.99999
0.99999
0.99999
0.99999
0.99999
0.99999
0.99999
0.99999
0.99999
0.99999
0.99999
0.99999
0.99999
0.99999
0.99999
0.99999
0.99999
0.99999
0.99999
0.99999
0.99999
0.99999
0.99999
0.99999
0.99999
0.99999
0.99999
0.99999
0.99999
0.99999
0.99999
0.99999
0.99999
0.99999
0.99999
0.99999
0.99999
0.99999
0.99999
0.99999
0.99999
0.99999
0.99999
0.99999
0.99999
0.999989
0.999983
0.999973
0.999967
0.999963
0.999958
0.999948
0.999938
0.999934
0.999934
0.999842
0.856164
0.0296812
0.00248741
0.00257453
0.00241674
0.0023994
0.00225525
0.00217439
0.00199309
0.00190355
0.00175366
0.00169168
0.00154742
0.0014774
0.00135387
0.00127611
0.00114578
0.00104824
0.000924806
0.000832004
0.000738003
0.000659492
0.000574566
0.000499526
0.000418389
0.000353902
0.000297201
0.000253143
0.000209609
0.000167502
0.000124471
8.21748e-05
4.68465e-05
1.94614e-05
7.41332e-06
3.07062e-06
2.02789e-06
0.99999
0.99999
0.99999
0.99999
0.99999
0.99999
0.99999
0.99999
0.99999
0.99999
0.99999
0.99999
0.99999
0.99999
0.99999
0.99999
0.99999
0.99999
0.99999
0.99999
0.99999
0.99999
0.99999
0.99999
0.99999
0.99999
0.99999
0.99999
0.99999
0.99999
0.99999
0.99999
0.99999
0.99999
0.99999
0.99999
0.99999
0.99999
0.99999
0.99999
0.99999
0.99999
0.99999
0.99999
0.99999
0.99999
0.999989
0.999988
0.999987
0.999982
0.99997
0.999966
0.999963
0.999962
0.999958
0.999952
0.999948
0.999931
0.999747
0.783585
0.0298182
0.00752148
0.00793434
0.00791909
0.0078841
0.00770838
0.00762085
0.00756382
0.00756091
0.00750841
0.00748124
0.00742315
0.00737544
0.0072858
0.00723876
0.00718845
0.00714108
0.00710184
0.00705139
0.00698906
0.00691791
0.00683316
0.00671927
0.0065754
0.00641189
0.00621651
0.00599458
0.00572247
0.00543409
0.00512523
0.004784
0.00437144
0.00385929
0.00325836
0.00249682
0.0018356
0.999991
0.99999
0.99999
0.99999
0.99999
0.99999
0.99999
0.99999
0.99999
0.99999
0.99999
0.99999
0.99999
0.99999
0.99999
0.99999
0.99999
0.99999
0.99999
0.99999
0.99999
0.99999
0.99999
0.99999
0.99999
0.99999
0.99999
0.99999
0.99999
0.99999
0.99999
0.99999
0.99999
0.99999
0.99999
0.99999
0.99999
0.99999
0.99999
0.99999
0.99999
0.99999
0.99999
0.99999
0.99999
0.999989
0.999986
0.999983
0.999981
0.999978
0.999971
0.999966
0.999963
0.999963
0.999959
0.999957
0.999959
0.999957
0.999889
0.85361
0.0237093
0.00329793
0.00315865
0.00286243
0.00270642
0.00258785
0.0024884
0.00239526
0.00231426
0.0022164
0.00213506
0.00203318
0.00194239
0.00183557
0.00173852
0.00163105
0.00153098
0.00142531
0.00132105
0.00120935
0.00109452
0.000982298
0.00086812
0.000751967
0.0006433
0.000534949
0.000430716
0.000336863
0.000250811
0.000175342
0.000113131
6.52107e-05
3.2305e-05
1.40669e-05
5.79188e-06
2.65925e-06
0.999991
0.99999
0.99999
0.99999
0.99999
0.99999
0.99999
0.99999
0.99999
0.99999
0.99999
0.99999
0.99999
0.99999
0.99999
0.99999
0.99999
0.99999
0.99999
0.99999
0.99999
0.99999
0.99999
0.99999
0.99999
0.99999
0.99999
0.99999
0.99999
0.99999
0.99999
0.99999
0.99999
0.99999
0.99999
0.99999
0.99999
0.99999
0.99999
0.99999
0.99999
0.99999
0.99999
0.99999
0.999987
0.999984
0.999982
0.99998
0.999978
0.999977
0.999974
0.99997
0.999967
0.999967
0.999961
0.99996
0.99996
0.999958
0.999913
0.92169
0.0243625
0.000476108
0.000363191
0.000279617
0.00026663
0.000250429
0.000228523
0.000206299
0.000186793
0.000164825
0.000146514
0.00012733
0.00011105
9.52921e-05
8.17733e-05
6.89337e-05
5.76188e-05
4.75454e-05
3.85764e-05
3.04436e-05
2.36208e-05
1.78577e-05
1.29616e-05
9.08954e-06
6.22971e-06
4.06828e-06
2.58116e-06
1.67672e-06
1.14844e-06
8.81125e-07
7.6909e-07
7.17036e-07
6.73187e-07
6.54712e-07
6.55582e-07
6.57405e-07
0.999991
0.999991
0.99999
0.99999
0.99999
0.99999
0.99999
0.99999
0.99999
0.99999
0.99999
0.99999
0.99999
0.99999
0.99999
0.99999
0.99999
0.99999
0.99999
0.99999
0.99999
0.99999
0.99999
0.99999
0.99999
0.99999
0.99999
0.99999
0.99999
0.99999
0.99999
0.99999
0.99999
0.99999
0.99999
0.99999
0.99999
0.99999
0.99999
0.99999
0.99999
0.99999
0.99999
0.99999
0.999987
0.999984
0.999982
0.99998
0.999978
0.999978
0.999977
0.999976
0.999975
0.999974
0.999968
0.999965
0.999963
0.999949
0.999896
0.956384
0.0309131
0.000112711
9.0624e-06
7.33217e-06
6.48785e-06
5.73635e-06
5.08459e-06
4.39363e-06
3.86223e-06
3.29109e-06
2.85381e-06
2.4691e-06
2.18107e-06
1.9422e-06
1.76927e-06
1.63183e-06
1.52858e-06
1.45404e-06
1.40189e-06
1.35918e-06
1.31761e-06
1.27758e-06
1.24192e-06
1.20866e-06
1.17396e-06
1.1338e-06
1.08961e-06
1.03944e-06
9.81308e-07
9.15438e-07
8.38709e-07
7.56317e-07
6.84162e-07
6.51839e-07
6.55851e-07
6.54931e-07
0.999992
0.999991
0.999991
0.999991
0.999991
0.99999
0.99999
0.99999
0.99999
0.99999
0.99999
0.99999
0.99999
0.99999
0.99999
0.99999
0.99999
0.99999
0.99999
0.99999
0.99999
0.99999
0.99999
0.99999
0.99999
0.99999
0.99999
0.99999
0.99999
0.99999
0.99999
0.99999
0.99999
0.99999
0.99999
0.99999
0.99999
0.99999
0.99999
0.99999
0.99999
0.99999
0.99999
0.99999
0.999988
0.999985
0.999983
0.999981
0.99998
0.99998
0.999979
0.999979
0.999978
0.999977
0.999975
0.999969
0.999965
0.999947
0.999843
0.972355
0.0411111
0.0001733
1.8516e-06
1.77877e-06
1.73467e-06
1.70194e-06
1.68428e-06
1.65443e-06
1.6282e-06
1.59758e-06
1.58057e-06
1.55082e-06
1.52326e-06
1.48725e-06
1.45826e-06
1.42978e-06
1.39945e-06
1.37216e-06
1.34414e-06
1.3169e-06
1.29226e-06
1.26788e-06
1.24143e-06
1.21399e-06
1.18291e-06
1.14711e-06
1.10882e-06
1.06386e-06
1.00904e-06
9.44482e-07
8.66906e-07
7.76948e-07
6.88964e-07
6.52146e-07
6.5567e-07
6.55163e-07
0.999994
0.999993
0.999993
0.999993
0.999992
0.999991
0.999991
0.99999
0.99999
0.99999
0.99999
0.99999
0.99999
0.99999
0.99999
0.99999
0.99999
0.99999
0.99999
0.99999
0.99999
0.99999
0.99999
0.99999
0.99999
0.99999
0.99999
0.99999
0.99999
0.99999
0.99999
0.99999
0.99999
0.99999
0.99999
0.99999
0.99999
0.99999
0.99999
0.99999
0.99999
0.99999
0.99999
0.99999
0.999989
0.999987
0.999985
0.999983
0.999982
0.999981
0.999981
0.99998
0.99998
0.999978
0.999976
0.999973
0.999969
0.999944
0.99976
0.975052
0.0569096
0.000311176
2.09188e-06
1.75019e-06
1.7121e-06
1.67009e-06
1.65442e-06
1.62487e-06
1.60063e-06
1.56903e-06
1.5508e-06
1.52657e-06
1.50316e-06
1.47517e-06
1.44723e-06
1.41891e-06
1.39286e-06
1.36852e-06
1.34121e-06
1.31474e-06
1.29025e-06
1.26471e-06
1.24137e-06
1.21779e-06
1.18902e-06
1.1554e-06
1.11803e-06
1.07217e-06
1.01835e-06
9.54822e-07
8.78255e-07
7.8463e-07
6.91839e-07
6.51797e-07
6.556e-07
6.55428e-07
0.999995
0.999994
0.999994
0.999993
0.999993
0.999992
0.999991
0.999991
0.99999
0.99999
0.99999
0.99999
0.99999
0.99999
0.99999
0.99999
0.99999
0.99999
0.99999
0.99999
0.99999
0.99999
0.99999
0.99999
0.99999
0.99999
0.99999
0.99999
0.99999
0.99999
0.99999
0.99999
0.99999
0.99999
0.99999
0.99999
0.99999
0.99999
0.99999
0.99999
0.99999
0.99999
0.99999
0.99999
0.99999
0.999989
0.999987
0.999985
0.999984
0.999983
0.999982
0.999981
0.99998
0.999978
0.999976
0.999972
0.999963
0.99993
0.999755
0.970831
0.0653243
0.000440099
2.37783e-06
1.7428e-06
1.70702e-06
1.6645e-06
1.65074e-06
1.61695e-06
1.59391e-06
1.55947e-06
1.54125e-06
1.50997e-06
1.48827e-06
1.46181e-06
1.43625e-06
1.41215e-06
1.38753e-06
1.36344e-06
1.33929e-06
1.31455e-06
1.28709e-06
1.26319e-06
1.23935e-06
1.2156e-06
1.19032e-06
1.15639e-06
1.11863e-06
1.07367e-06
1.02036e-06
9.5702e-07
8.79877e-07
7.8372e-07
6.87814e-07
6.50005e-07
6.55157e-07
6.55373e-07
0.999995
0.999995
0.999994
0.999994
0.999993
0.999992
0.999992
0.999991
0.999991
0.99999
0.99999
0.99999
0.99999
0.99999
0.99999
0.99999
0.99999
0.99999
0.99999
0.99999
0.99999
0.99999
0.99999
0.99999
0.99999
0.99999
0.99999
0.99999
0.99999
0.99999
0.99999
0.99999
0.99999
0.99999
0.99999
0.99999
0.99999
0.99999
0.99999
0.99999
0.99999
0.99999
0.99999
0.99999
0.99999
0.99999
0.999989
0.999987
0.999986
0.999985
0.999984
0.999983
0.999982
0.99998
0.999976
0.999971
0.999954
0.99992
0.999808
0.967695
0.0571485
0.000205929
1.90503e-06
1.73508e-06
1.70942e-06
1.66676e-06
1.64298e-06
1.60716e-06
1.58728e-06
1.55056e-06
1.53559e-06
1.50746e-06
1.48132e-06
1.45442e-06
1.42767e-06
1.40206e-06
1.37676e-06
1.35609e-06
1.33312e-06
1.31009e-06
1.28722e-06
1.26289e-06
1.23786e-06
1.21601e-06
1.19251e-06
1.16058e-06
1.12025e-06
1.07456e-06
1.02141e-06
9.59195e-07
8.81136e-07
7.83103e-07
6.87599e-07
6.50849e-07
6.55417e-07
6.55622e-07
0.999996
0.999995
0.999995
0.999994
0.999994
0.999993
0.999992
0.999991
0.999991
0.99999
0.99999
0.99999
0.99999
0.99999
0.99999
0.99999
0.99999
0.99999
0.99999
0.99999
0.99999
0.99999
0.99999
0.99999
0.99999
0.99999
0.99999
0.99999
0.99999
0.99999
0.99999
0.99999
0.99999
0.99999
0.99999
0.99999
0.99999
0.99999
0.99999
0.99999
0.99999
0.99999
0.99999
0.99999
0.99999
0.99999
0.999989
0.999989
0.999988
0.999987
0.999986
0.999986
0.999985
0.999983
0.999975
0.999959
0.999952
0.999945
0.999686
0.969163
0.0695971
0.000621729
2.76625e-06
1.7377e-06
1.71158e-06
1.66785e-06
1.64086e-06
1.60024e-06
1.58685e-06
1.55266e-06
1.5316e-06
1.50303e-06
1.47639e-06
1.45043e-06
1.42373e-06
1.39756e-06
1.37383e-06
1.34989e-06
1.32462e-06
1.30183e-06
1.27911e-06
1.25518e-06
1.23348e-06
1.21241e-06
1.19008e-06
1.16914e-06
1.13628e-06
1.08548e-06
1.03194e-06
9.67649e-07
8.83998e-07
7.84935e-07
6.8952e-07
6.50655e-07
6.55698e-07
6.5577e-07
0.99999
0.99999
0.99999
0.99999
0.99999
0.99999
0.99999
0.99999
0.99999
0.99999
0.99999
0.99999
0.99999
0.99999
0.99999
0.99999
0.99999
0.99999
0.99999
0.99999
0.99999
0.99999
0.99999
0.99999
0.99999
0.99999
0.99999
0.99999
0.99999
0.99999
0.99999
0.99999
0.99999
0.99999
0.99999
0.99999
0.99999
0.99999
0.99999
0.99999
0.99999
0.99999
0.99999
0.99999
0.99999
0.99999
0.99999
0.99999
0.99999
0.99999
0.999989
0.999987
0.999986
0.999983
0.999979
0.99997
0.999962
0.999929
0.999199
0.947223
0.0336155
0.000149575
1.80568e-06
1.75662e-06
1.73181e-06
1.68016e-06
1.67058e-06
1.62683e-06
1.61241e-06
1.57417e-06
1.55522e-06
1.52263e-06
1.49935e-06
1.47097e-06
1.44412e-06
1.41624e-06
1.39234e-06
1.36568e-06
1.33778e-06
1.31343e-06
1.28733e-06
1.26046e-06
1.23657e-06
1.21212e-06
1.18723e-06
1.16398e-06
1.13745e-06
1.1072e-06
1.07715e-06
1.03801e-06
9.71471e-07
8.59932e-07
7.19343e-07
6.56149e-07
6.58103e-07
6.57518e-07
0.99999
0.99999
0.99999
0.99999
0.99999
0.99999
0.99999
0.99999
0.99999
0.99999
0.99999
0.99999
0.99999
0.99999
0.99999
0.99999
0.99999
0.99999
0.99999
0.99999
0.99999
0.99999
0.99999
0.99999
0.99999
0.99999
0.99999
0.99999
0.99999
0.99999
0.99999
0.99999
0.99999
0.99999
0.99999
0.99999
0.99999
0.99999
0.99999
0.99999
0.99999
0.99999
0.99999
0.99999
0.99999
0.99999
0.99999
0.99999
0.99999
0.99999
0.999989
0.999988
0.999984
0.999981
0.999976
0.999969
0.999952
0.999902
0.999573
0.920898
0.017686
1.95584e-05
1.78922e-06
1.76492e-06
1.74745e-06
1.6896e-06
1.67734e-06
1.63365e-06
1.61546e-06
1.57658e-06
1.55817e-06
1.52714e-06
1.5007e-06
1.47302e-06
1.44809e-06
1.42089e-06
1.39664e-06
1.3702e-06
1.34154e-06
1.31605e-06
1.28938e-06
1.26157e-06
1.23615e-06
1.21069e-06
1.18487e-06
1.16082e-06
1.13406e-06
1.10369e-06
1.07338e-06
1.03691e-06
9.7678e-07
8.73345e-07
7.31663e-07
6.59417e-07
6.58113e-07
6.57629e-07
0.99999
0.99999
0.99999
0.99999
0.99999
0.99999
0.99999
0.99999
0.99999
0.99999
0.99999
0.99999
0.99999
0.99999
0.99999
0.99999
0.99999
0.99999
0.99999
0.99999
0.99999
0.99999
0.99999
0.99999
0.99999
0.99999
0.99999
0.99999
0.99999
0.99999
0.99999
0.99999
0.99999
0.99999
0.99999
0.99999
0.99999
0.99999
0.99999
0.99999
0.99999
0.99999
0.99999
0.99999
0.99999
0.99999
0.99999
0.99999
0.99999
0.99999
0.999989
0.999984
0.999977
0.99997
0.999964
0.999958
0.999941
0.999897
0.999726
0.880678
0.0130025
3.04117e-06
2.12075e-06
1.83553e-06
1.83574e-06
1.71907e-06
1.73673e-06
1.67631e-06
1.65224e-06
1.60589e-06
1.59015e-06
1.55656e-06
1.53658e-06
1.50973e-06
1.47989e-06
1.44695e-06
1.41513e-06
1.38421e-06
1.35368e-06
1.32697e-06
1.2983e-06
1.26847e-06
1.24183e-06
1.21509e-06
1.18861e-06
1.16378e-06
1.13605e-06
1.10529e-06
1.07467e-06
1.03942e-06
9.82166e-07
8.8291e-07
7.43159e-07
6.63471e-07
6.58148e-07
6.57276e-07
0.99999
0.99999
0.99999
0.99999
0.99999
0.99999
0.99999
0.99999
0.99999
0.99999
0.99999
0.99999
0.99999
0.99999
0.99999
0.99999
0.99999
0.99999
0.99999
0.99999
0.99999
0.99999
0.99999
0.99999
0.99999
0.99999
0.99999
0.99999
0.99999
0.99999
0.99999
0.99999
0.99999
0.99999
0.99999
0.99999
0.99999
0.99999
0.99999
0.99999
0.99999
0.99999
0.99999
0.99999
0.99999
0.99999
0.99999
0.99999
0.99999
0.99999
0.999987
0.999977
0.999965
0.999952
0.999938
0.999916
0.999887
0.99986
0.999742
0.808207
0.0110614
0.000142522
0.000101692
6.44245e-05
4.47699e-05
2.87786e-05
1.84144e-05
1.11389e-05
7.02477e-06
4.51296e-06
3.23856e-06
2.51564e-06
2.14944e-06
1.91501e-06
1.70904e-06
1.58984e-06
1.48336e-06
1.42929e-06
1.39393e-06
1.3541e-06
1.31913e-06
1.27841e-06
1.24458e-06
1.21873e-06
1.19222e-06
1.16399e-06
1.13733e-06
1.10643e-06
1.07407e-06
1.03793e-06
9.82798e-07
8.882e-07
7.52428e-07
6.66178e-07
6.58294e-07
6.57355e-07
0.99999
0.99999
0.99999
0.99999
0.99999
0.99999
0.99999
0.99999
0.99999
0.99999
0.99999
0.99999
0.99999
0.99999
0.99999
0.99999
0.99999
0.99999
0.99999
0.99999
0.99999
0.99999
0.99999
0.99999
0.99999
0.99999
0.99999
0.99999
0.99999
0.99999
0.99999
0.99999
0.99999
0.99999
0.99999
0.99999
0.99999
0.99999
0.99999
0.99999
0.99999
0.99999
0.99999
0.99999
0.99999
0.99999
0.99999
0.99999
0.999989
0.999989
0.999985
0.999973
0.999955
0.999931
0.999904
0.999878
0.99986
0.99985
0.99983
0.678538
0.0120255
0.00374692
0.00333884
0.00283632
0.00245799
0.0020414
0.00166714
0.00132031
0.00102081
0.000765511
0.000564054
0.000407692
0.000290134
0.000203512
0.00013959
9.32325e-05
6.02259e-05
3.72024e-05
2.23118e-05
1.26538e-05
7.11493e-06
3.98415e-06
2.45715e-06
1.72488e-06
1.41295e-06
1.26086e-06
1.18574e-06
1.09912e-06
1.0296e-06
9.55523e-07
8.98634e-07
8.35415e-07
7.41625e-07
6.66262e-07
6.57772e-07
6.58955e-07
0.999991
0.99999
0.99999
0.99999
0.99999
0.99999
0.99999
0.99999
0.99999
0.99999
0.99999
0.99999
0.99999
0.99999
0.99999
0.99999
0.99999
0.99999
0.99999
0.99999
0.99999
0.99999
0.99999
0.99999
0.99999
0.99999
0.99999
0.99999
0.99999
0.99999
0.99999
0.99999
0.99999
0.99999
0.99999
0.99999
0.99999
0.99999
0.99999
0.99999
0.99999
0.99999
0.99999
0.99999
0.99999
0.99999
0.99999
0.999989
0.999989
0.999987
0.999981
0.99997
0.999954
0.99993
0.999902
0.999883
0.999876
0.999877
0.999627
0.5271
0.0222993
0.0187048
0.0187957
0.0184583
0.0180603
0.0172477
0.0163583
0.0153468
0.0141862
0.0129267
0.0116204
0.0102828
0.00897331
0.00770539
0.0065313
0.00545715
0.0045034
0.00365404
0.00292045
0.00229198
0.0017683
0.00132858
0.000971927
0.000685715
0.000466375
0.000299998
0.000182603
0.000103016
5.26414e-05
2.44286e-05
1.00177e-05
3.90128e-06
1.87936e-06
1.1336e-06
7.8047e-07
6.82946e-07
0.999991
0.99999
0.999991
0.999991
0.999991
0.99999
0.99999
0.99999
0.99999
0.99999
0.99999
0.99999
0.99999
0.99999
0.99999
0.99999
0.99999
0.99999
0.99999
0.99999
0.99999
0.99999
0.99999
0.99999
0.99999
0.99999
0.99999
0.99999
0.99999
0.99999
0.99999
0.99999
0.99999
0.99999
0.99999
0.99999
0.99999
0.99999
0.99999
0.99999
0.99999
0.99999
0.99999
0.99999
0.99999
0.99999
0.999989
0.999988
0.999987
0.999984
0.999979
0.999971
0.999958
0.999949
0.999933
0.999919
0.999911
0.999908
0.998158
0.57451
0.0371548
0.0305785
0.0321665
0.0331945
0.0341144
0.0346966
0.035053
0.0353339
0.0355437
0.0357327
0.035863
0.0359667
0.0359265
0.0357708
0.0353695
0.034799
0.0339888
0.0329925
0.0317234
0.0302429
0.0285196
0.0266171
0.0245628
0.0224274
0.0202173
0.0179759
0.0157081
0.0134931
0.0113305
0.00923178
0.00711277
0.00503222
0.00312308
0.00158613
0.000784275
0.000925706
0.999991
0.999991
0.999991
0.999991
0.999991
0.99999
0.99999
0.99999
0.99999
0.99999
0.99999
0.99999
0.99999
0.99999
0.99999
0.99999
0.99999
0.99999
0.99999
0.99999
0.99999
0.99999
0.99999
0.99999
0.99999
0.99999
0.99999
0.99999
0.99999
0.99999
0.99999
0.99999
0.99999
0.99999
0.99999
0.99999
0.99999
0.99999
0.99999
0.99999
0.99999
0.99999
0.99999
0.99999
0.99999
0.999989
0.999988
0.999986
0.999984
0.999981
0.999977
0.999969
0.999962
0.99996
0.999951
0.99994
0.999931
0.999922
0.996394
0.721938
0.0353303
0.021289
0.0226435
0.0235946
0.0249448
0.0265478
0.0286578
0.0309902
0.0336812
0.0363984
0.0391525
0.0420046
0.0449572
0.0480021
0.0512452
0.0546162
0.0581765
0.0619507
0.0658905
0.0699663
0.0741483
0.0784801
0.0830221
0.0877696
0.0927588
0.0980292
0.103642
0.109639
0.116097
0.123176
0.131217
0.14067
0.152818
0.171754
0.216404
0.407021
0.999991
0.999991
0.999991
0.999991
0.999991
0.999991
0.999991
0.99999
0.99999
0.99999
0.99999
0.99999
0.99999
0.99999
0.99999
0.99999
0.99999
0.99999
0.99999
0.99999
0.99999
0.99999
0.99999
0.99999
0.99999
0.99999
0.99999
0.99999
0.99999
0.99999
0.99999
0.99999
0.99999
0.99999
0.99999
0.99999
0.99999
0.99999
0.99999
0.99999
0.99999
0.99999
0.99999
0.99999
0.99999
0.999988
0.999986
0.999984
0.999982
0.99998
0.999976
0.999971
0.999963
0.999957
0.999943
0.999932
0.999927
0.999919
0.999622
0.847719
0.0166632
0.00265283
0.0025282
0.0020772
0.00201156
0.00194649
0.0020271
0.0021748
0.00228386
0.00238554
0.00249768
0.00260967
0.0027179
0.00282818
0.00297926
0.00313562
0.00328393
0.0034192
0.00355688
0.00374238
0.00392182
0.004104
0.00427122
0.00439518
0.00446676
0.0044768
0.00443702
0.00428737
0.00398729
0.00358836
0.00306375
0.00248022
0.00182284
0.00119116
0.000815003
0.00042363
0.999992
0.999991
0.999991
0.999991
0.999991
0.999991
0.999991
0.999991
0.99999
0.99999
0.99999
0.99999
0.99999
0.99999
0.99999
0.99999
0.99999
0.99999
0.99999
0.99999
0.99999
0.99999
0.99999
0.99999
0.99999
0.99999
0.99999
0.99999
0.99999
0.99999
0.99999
0.99999
0.99999
0.99999
0.99999
0.99999
0.99999
0.99999
0.99999
0.99999
0.99999
0.99999
0.99999
0.99999
0.999989
0.999987
0.999985
0.999985
0.999985
0.999985
0.999983
0.999979
0.999973
0.999965
0.999943
0.999935
0.999932
0.99992
0.999906
0.907982
0.0130674
0.000117759
0.000126408
0.000102116
9.67089e-05
8.86133e-05
8.76459e-05
8.51401e-05
8.42138e-05
8.12027e-05
7.94652e-05
7.62889e-05
7.34754e-05
7.01869e-05
6.65781e-05
6.31412e-05
5.91007e-05
5.50219e-05
5.11335e-05
4.73067e-05
4.34034e-05
3.93998e-05
3.52987e-05
3.10574e-05
2.66579e-05
2.25435e-05
1.84394e-05
1.47561e-05
1.14534e-05
8.4976e-06
6.04891e-06
4.09754e-06
2.60048e-06
1.64908e-06
1.03831e-06
7.93436e-07
0.999992
0.999992
0.999992
0.999992
0.999991
0.999991
0.999991
0.999991
0.99999
0.99999
0.99999
0.99999
0.99999
0.99999
0.99999
0.99999
0.99999
0.99999
0.99999
0.99999
0.99999
0.99999
0.99999
0.99999
0.99999
0.99999
0.99999
0.99999
0.99999
0.99999
0.99999
0.99999
0.99999
0.99999
0.99999
0.99999
0.99999
0.99999
0.99999
0.99999
0.99999
0.99999
0.99999
0.99999
0.99999
0.999988
0.999986
0.999985
0.999985
0.999986
0.999986
0.999985
0.999984
0.999981
0.999967
0.999953
0.999945
0.99992
0.999888
0.947754
0.0235759
3.58668e-06
5.01289e-06
3.92196e-06
3.74404e-06
3.49345e-06
3.31909e-06
3.14896e-06
3.04441e-06
2.84314e-06
2.7301e-06
2.5567e-06
2.42982e-06
2.28495e-06
2.1373e-06
2.00456e-06
1.86504e-06
1.74793e-06
1.65409e-06
1.57048e-06
1.50299e-06
1.43833e-06
1.36385e-06
1.29424e-06
1.23503e-06
1.17931e-06
1.12997e-06
1.0822e-06
1.03087e-06
9.72778e-07
8.95748e-07
7.97382e-07
6.97154e-07
6.59479e-07
6.59203e-07
6.58538e-07
0.999993
0.999993
0.999992
0.999992
0.999992
0.999992
0.999991
0.999991
0.999991
0.99999
0.99999
0.99999
0.99999
0.99999
0.99999
0.99999
0.99999
0.99999
0.99999
0.99999
0.99999
0.99999
0.99999
0.99999
0.99999
0.99999
0.99999
0.99999
0.99999
0.99999
0.99999
0.99999
0.99999
0.99999
0.99999
0.99999
0.99999
0.99999
0.99999
0.99999
0.99999
0.99999
0.99999
0.99999
0.99999
0.99999
0.999988
0.999988
0.999988
0.999987
0.999987
0.999986
0.999984
0.999979
0.999975
0.999964
0.999951
0.999923
0.999843
0.960575
0.0284796
2.06793e-06
1.86045e-06
1.75501e-06
1.74045e-06
1.68917e-06
1.67709e-06
1.63753e-06
1.62011e-06
1.5791e-06
1.55389e-06
1.51706e-06
1.49267e-06
1.46318e-06
1.44049e-06
1.41611e-06
1.38766e-06
1.36166e-06
1.3347e-06
1.30915e-06
1.28696e-06
1.26338e-06
1.23832e-06
1.21359e-06
1.18287e-06
1.14751e-06
1.11256e-06
1.0737e-06
1.02682e-06
9.69081e-07
8.90192e-07
7.87478e-07
6.86582e-07
6.51846e-07
6.54949e-07
6.56028e-07
0.999994
0.999993
0.999993
0.999993
0.999992
0.999992
0.999992
0.999991
0.999991
0.99999
0.99999
0.99999
0.99999
0.99999
0.99999
0.99999
0.99999
0.99999
0.99999
0.99999
0.99999
0.99999
0.99999
0.99999
0.99999
0.99999
0.99999
0.99999
0.99999
0.99999
0.99999
0.99999
0.99999
0.99999
0.99999
0.99999
0.99999
0.99999
0.99999
0.99999
0.99999
0.99999
0.99999
0.99999
0.99999
0.99999
0.999989
0.999989
0.999988
0.999988
0.999987
0.999986
0.999982
0.999975
0.999972
0.999966
0.999953
0.99993
0.999792
0.967673
0.0498909
5.27555e-05
1.77809e-06
1.73697e-06
1.70745e-06
1.66856e-06
1.65502e-06
1.61374e-06
1.59592e-06
1.55865e-06
1.53871e-06
1.5048e-06
1.48288e-06
1.45333e-06
1.42668e-06
1.40054e-06
1.37821e-06
1.35476e-06
1.32991e-06
1.3076e-06
1.28361e-06
1.25867e-06
1.23853e-06
1.21545e-06
1.18699e-06
1.15774e-06
1.12143e-06
1.07762e-06
1.02793e-06
9.65401e-07
8.83918e-07
7.82247e-07
6.84465e-07
6.51269e-07
6.54772e-07
6.55551e-07
0.999995
0.999994
0.999994
0.999993
0.999992
0.999992
0.999992
0.999991
0.999991
0.999991
0.99999
0.99999
0.99999
0.99999
0.99999
0.99999
0.99999
0.99999
0.99999
0.99999
0.99999
0.99999
0.99999
0.99999
0.99999
0.99999
0.99999
0.99999
0.99999
0.99999
0.99999
0.99999
0.99999
0.99999
0.99999
0.99999
0.99999
0.99999
0.99999
0.99999
0.99999
0.99999
0.99999
0.99999
0.99999
0.99999
0.99999
0.999989
0.999988
0.999987
0.999986
0.999985
0.99998
0.999974
0.999965
0.999957
0.999946
0.999923
0.99978
0.958595
0.0430184
6.59515e-05
1.81627e-06
1.74104e-06
1.70465e-06
1.66125e-06
1.64953e-06
1.60694e-06
1.59026e-06
1.55247e-06
1.53253e-06
1.49955e-06
1.47828e-06
1.44936e-06
1.42336e-06
1.39764e-06
1.37561e-06
1.35238e-06
1.32787e-06
1.30581e-06
1.28075e-06
1.25494e-06
1.23434e-06
1.21254e-06
1.18683e-06
1.15902e-06
1.12357e-06
1.07802e-06
1.02601e-06
9.60902e-07
8.78634e-07
7.79161e-07
6.84282e-07
6.51179e-07
6.55061e-07
6.55546e-07
0.999995
0.999995
0.999994
0.999994
0.999993
0.999992
0.999992
0.999992
0.999991
0.999991
0.99999
0.99999
0.99999
0.99999
0.99999
0.99999
0.99999
0.99999
0.99999
0.99999
0.99999
0.99999
0.99999
0.99999
0.99999
0.99999
0.99999
0.99999
0.99999
0.99999
0.99999
0.99999
0.99999
0.99999
0.99999
0.99999
0.99999
0.99999
0.99999
0.99999
0.99999
0.99999
0.99999
0.99999
0.99999
0.99999
0.99999
0.999989
0.999988
0.999987
0.999986
0.999985
0.999982
0.999976
0.999955
0.99994
0.999935
0.999924
0.999805
0.940662
0.0362977
0.00011474
1.86189e-06
1.72066e-06
1.69385e-06
1.64762e-06
1.63665e-06
1.59649e-06
1.58035e-06
1.54466e-06
1.52658e-06
1.49403e-06
1.47158e-06
1.44218e-06
1.41897e-06
1.39451e-06
1.37064e-06
1.34926e-06
1.32588e-06
1.30329e-06
1.27764e-06
1.25177e-06
1.23049e-06
1.20868e-06
1.18437e-06
1.15778e-06
1.12089e-06
1.07257e-06
1.0205e-06
9.56115e-07
8.72515e-07
7.73511e-07
6.8211e-07
6.50832e-07
6.5532e-07
6.55599e-07
0.999997
0.999996
0.999995
0.999994
0.999994
0.999993
0.999993
0.999992
0.999991
0.99999
0.99999
0.99999
0.99999
0.99999
0.99999
0.99999
0.99999
0.99999
0.99999
0.99999
0.99999
0.99999
0.99999
0.99999
0.99999
0.99999
0.99999
0.99999
0.99999
0.99999
0.99999
0.99999
0.99999
0.99999
0.99999
0.99999
0.99999
0.99999
0.99999
0.99999
0.99999
0.99999
0.99999
0.99999
0.99999
0.99999
0.99999
0.999989
0.999988
0.999988
0.999987
0.999986
0.999986
0.99998
0.999958
0.999939
0.999936
0.999932
0.999769
0.963275
0.0588623
0.000493302
2.5447e-06
1.71776e-06
1.69439e-06
1.64603e-06
1.63456e-06
1.59407e-06
1.57806e-06
1.54215e-06
1.52307e-06
1.49128e-06
1.46983e-06
1.44165e-06
1.41747e-06
1.39255e-06
1.37133e-06
1.34853e-06
1.32388e-06
1.30169e-06
1.27654e-06
1.25084e-06
1.22998e-06
1.20863e-06
1.18701e-06
1.16606e-06
1.13328e-06
1.08361e-06
1.02954e-06
9.64093e-07