/*--------------------------------*- C++ -*----------------------------------*\
| =========                 |                                                 |
| \\      /  F ield         | OpenFOAM: The Open Source CFD Toolbox           |
|  \\    /   O peration     | Version:  2.3.0                                 |
|   \\  /    A nd           | Web:      www.OpenFOAM.org                      |
|    \\/     M anipulation  |                                                 |
\*---------------------------------------------------------------------------*/
FoamFile
{
    version     2.0;
    format      ascii;
    class       volScalarField;
    location    "7";
    object      dsauterMean;
}
// * * * * * * * * * * * * * * * * * * * * * * * * * * * * * * * * * * * * * //

dimensions      [0 0 0 0 0 0 0];

internalField   nonuniform List<scalar> 
6144
(
0.00833335
0.00833335
0.00833335
0.00833335
0.00833335
0.00833335
0.00833335
0.00833335
0.00833335
0.00833335
0.00833335
0.00833335
0.00833335
0.00833335
0.00833335
0.00833335
0.00833335
0.00833335
0.00833335
0.00833335
0.00833335
0.00833335
0.00833335
0.00833335
0.00833335
0.00833335
0.00833335
0.00833335
0.00833335
0.00833335
0.00833335
0.00833335
0.00833335
0.00833335
0.00833335
0.00833335
0.00833335
0.00833335
0.00833335
0.00833335
0.00833335
0.00833335
0.00833335
0.00833335
0.00833335
0.00833335
0.00833335
0.00833335
0.00833335
0.00833335
0.00833335
0.00833335
0.00833335
0.00833335
0.00833335
0.00833335
0.00833335
0.00833331
0.008326
0.00834347
0.00834361
0.00833256
0.00262848
0.00104133
0.00101154
0.000988029
0.000964502
0.000929225
0.000905686
0.000876318
0.000852771
0.000823358
0.000799841
0.000776311
0.000752796
0.000723377
0.000699866
0.000676326
0.000652811
0.000629596
0.000604038
0.00058611
0.000554358
0.000542852
0.000515951
0.000499903
0.000476099
0.000459312
0.000440737
0.000429334
0.000417569
0.00040581
0.000399935
0.000394045
0.000399889
0.000394146
0.00833335
0.00833335
0.00833335
0.00833335
0.00833335
0.00833335
0.00833335
0.00833335
0.00833335
0.00833335
0.00833335
0.00833335
0.00833335
0.00833335
0.00833335
0.00833335
0.00833335
0.00833335
0.00833335
0.00833335
0.00833335
0.00833335
0.00833335
0.00833335
0.00833335
0.00833335
0.00833335
0.00833335
0.00833335
0.00833335
0.00833335
0.00833335
0.00833335
0.00833335
0.00833335
0.00833335
0.00833335
0.00833335
0.00833335
0.00833335
0.00833335
0.00833335
0.00833335
0.00833335
0.00833335
0.00833335
0.00833335
0.00833335
0.00833335
0.00833335
0.00833335
0.00833335
0.00833335
0.00833335
0.00833335
0.00833335
0.00833335
0.00833316
0.00832523
0.00834299
0.00835591
0.00833207
0.00135265
0.00104687
0.00101702
0.000992833
0.000964355
0.000935097
0.000911705
0.0008837
0.000859093
0.000828423
0.000805542
0.000776194
0.000748756
0.000722643
0.0007008
0.000679151
0.000650289
0.000629032
0.000607225
0.000581784
0.000560412
0.000541144
0.00051764
0.000500352
0.000482263
0.00046462
0.000446988
0.000429334
0.000417575
0.000411692
0.000398486
0.000400481
0.000399985
0.000400043
0.00833335
0.00833335
0.00833335
0.00833335
0.00833335
0.00833335
0.00833335
0.00833335
0.00833335
0.00833335
0.00833335
0.00833335
0.00833335
0.00833335
0.00833335
0.00833335
0.00833335
0.00833335
0.00833335
0.00833335
0.00833335
0.00833335
0.00833335
0.00833335
0.00833335
0.00833335
0.00833335
0.00833335
0.00833335
0.00833335
0.00833335
0.00833335
0.00833335
0.00833335
0.00833335
0.00833335
0.00833335
0.00833335
0.00833335
0.00833335
0.00833335
0.00833335
0.00833335
0.00833335
0.00833335
0.00833335
0.00833335
0.00833335
0.00833335
0.00833335
0.00833335
0.00833335
0.00833335
0.00833335
0.00833335
0.00833335
0.00833335
0.00833335
0.00833377
0.00836163
0.00766476
0.00721561
0.00152318
0.00104884
0.00101069
0.000988033
0.000957947
0.000930296
0.000905706
0.000866973
0.000850939
0.000817576
0.000800526
0.000771912
0.000757067
0.000724708
0.000700326
0.000677811
0.000648977
0.000632039
0.000607792
0.000582237
0.000564599
0.000541048
0.00051715
0.00049992
0.000482263
0.000464624
0.000446979
0.000429334
0.000418298
0.000411106
0.000400035
0.000397153
0.000407357
0.000400455
0.00833335
0.00833335
0.00833335
0.00833335
0.00833335
0.00833335
0.00833335
0.00833335
0.00833335
0.00833335
0.00833335
0.00833335
0.00833335
0.00833335
0.00833335
0.00833335
0.00833335
0.00833335
0.00833335
0.00833335
0.00833335
0.00833335
0.00833335
0.00833335
0.00833335
0.00833335
0.00833335
0.00833335
0.00833335
0.00833335
0.00833335
0.00833335
0.00833335
0.00833335
0.00833335
0.00833335
0.00833335
0.00833335
0.00833335
0.00833335
0.00833335
0.00833335
0.00833335
0.00833335
0.00833335
0.00833335
0.00833335
0.00833335
0.00833335
0.00833335
0.00833335
0.00833335
0.00833335
0.00833335
0.00833335
0.00833335
0.00833335
0.00833335
0.00833114
0.00833569
0.00834647
0.00448393
0.00225832
0.00137046
0.00130557
0.00116577
0.00115128
0.00106449
0.00103983
0.000978103
0.000946871
0.000923295
0.000888049
0.000852771
0.000793952
0.000741037
0.000699853
0.000676288
0.000650045
0.000630089
0.000605834
0.000579408
0.000560362
0.000542635
0.000516246
0.000499878
0.000482269
0.000465509
0.000444488
0.000429334
0.000417599
0.000409696
0.000402214
0.000399912
0.000399927
0.00040581
0.00833335
0.00833335
0.00833335
0.00833335
0.00833335
0.00833335
0.00833335
0.00833335
0.00833335
0.00833335
0.00833335
0.00833335
0.00833335
0.00833335
0.00833335
0.00833335
0.00833335
0.00833335
0.00833335
0.00833335
0.00833335
0.00833335
0.00833335
0.00833335
0.00833335
0.00833335
0.00833335
0.00833335
0.00833335
0.00833335
0.00833335
0.00833335
0.00833335
0.00833335
0.00833335
0.00833335
0.00833335
0.00833335
0.00833335
0.00833335
0.00833335
0.00833335
0.00833335
0.00833335
0.00833335
0.00833335
0.00833335
0.00833335
0.00833335
0.00833335
0.00833335
0.00833335
0.00833335
0.00833335
0.00833335
0.00833335
0.00833335
0.00833335
0.00833333
0.00835437
0.00738858
0.0083231
0.00815767
0.00817457
0.00812317
0.00792427
0.00788895
0.0077213
0.00765859
0.00755574
0.00751161
0.00738045
0.0071237
0.00688478
0.00663564
0.0061423
0.00537208
0.00417836
0.00320828
0.00209584
0.00120682
0.000670271
0.00059985
0.000546951
0.000523429
0.00049564
0.000478067
0.000460269
0.000441604
0.000428508
0.000417572
0.00040581
0.000394027
0.00039402
0.000399959
0.000399929
0.00833335
0.00833335
0.00833335
0.00833335
0.00833335
0.00833335
0.00833335
0.00833335
0.00833335
0.00833335
0.00833335
0.00833335
0.00833335
0.00833335
0.00833335
0.00833335
0.00833335
0.00833335
0.00833335
0.00833335
0.00833335
0.00833335
0.00833335
0.00833335
0.00833335
0.00833335
0.00833335
0.00833335
0.00833335
0.00833335
0.00833335
0.00833335
0.00833335
0.00833335
0.00833335
0.00833335
0.00833335
0.00833335
0.00833335
0.00833335
0.00833335
0.00833335
0.00833335
0.00833335
0.00833335
0.00833335
0.00833335
0.00833335
0.00833335
0.00833335
0.00833335
0.00833335
0.00833335
0.00833335
0.00833335
0.00833335
0.00833335
0.00833335
0.00833335
0.00834666
0.00731044
0.00809981
0.00809967
0.00824141
0.00829263
0.00826939
0.00834452
0.00815066
0.00825911
0.00798266
0.00840926
0.00793585
0.0082503
0.00824729
0.00825967
0.00800626
0.00810513
0.00805351
0.00780552
0.00796305
0.00778586
0.00766112
0.00753387
0.00725231
0.00692328
0.00614994
0.00532255
0.0035055
0.000855402
0.000459177
0.000424521
0.00040427
0.000400189
0.000388812
0.000387997
0.000400391
0.00833335
0.00833335
0.00833335
0.00833335
0.00833335
0.00833335
0.00833335
0.00833335
0.00833335
0.00833335
0.00833335
0.00833335
0.00833335
0.00833335
0.00833335
0.00833335
0.00833335
0.00833335
0.00833335
0.00833335
0.00833335
0.00833335
0.00833335
0.00833335
0.00833335
0.00833335
0.00833335
0.00833335
0.00833335
0.00833335
0.00833335
0.00833335
0.00833335
0.00833335
0.00833335
0.00833335
0.00833335
0.00833335
0.00833335
0.00833335
0.00833335
0.00833335
0.00833335
0.00833335
0.00833335
0.00833335
0.00833335
0.00833335
0.00833335
0.00833335
0.00833335
0.00833335
0.00833335
0.00833335
0.00833335
0.00833335
0.00833335
0.00833333
0.00833358
0.0083332
0.00833559
0.00911352
0.00630382
0.00835177
0.00821416
0.00796459
0.00821117
0.00722207
0.00788319
0.00777031
0.00799718
0.007701
0.00813259
0.00794969
0.00817706
0.00801936
0.00863225
0.00721514
0.00824168
0.008392
0.00797649
0.00831457
0.00830766
0.00826945
0.0082303
0.00789634
0.00799914
0.00834762
0.00809596
0.00786508
0.00794401
0.00803278
0.00738986
0.00625642
0.00437194
0.00331798
0.00833335
0.00833335
0.00833335
0.00833335
0.00833335
0.00833335
0.00833335
0.00833335
0.00833335
0.00833335
0.00833335
0.00833335
0.00833335
0.00833335
0.00833335
0.00833335
0.00833335
0.00833335
0.00833335
0.00833335
0.00833335
0.00833335
0.00833335
0.00833335
0.00833335
0.00833335
0.00833335
0.00833335
0.00833335
0.00833335
0.00833335
0.00833335
0.00833335
0.00833335
0.00833335
0.00833335
0.00833335
0.00833335
0.00833335
0.00833335
0.00833335
0.00833335
0.00833335
0.00833335
0.00833335
0.00833335
0.00833335
0.00833335
0.00833335
0.00833335
0.00833335
0.00833335
0.00833335
0.00833335
0.00833335
0.00833335
0.00833335
0.00833336
0.00833345
0.00833342
0.00831676
0.00835952
0.00831579
0.00831921
0.00833963
0.00823782
0.00805389
0.0087947
0.00816724
0.0083788
0.00826337
0.00832113
0.00832395
0.00833669
0.00829028
0.00831299
0.00826407
0.00833088
0.00833207
0.0083143
0.00830034
0.00826316
0.00823737
0.00822989
0.00826278
0.00820361
0.008268
0.00811005
0.00791905
0.00820349
0.00804942
0.00782703
0.00864912
0.00803491
0.00804684
0.00812526
0.00833335
0.00833335
0.00833335
0.00833335
0.00833335
0.00833335
0.00833335
0.00833335
0.00833335
0.00833335
0.00833335
0.00833335
0.00833335
0.00833335
0.00833335
0.00833335
0.00833335
0.00833335
0.00833335
0.00833335
0.00833335
0.00833335
0.00833335
0.00833335
0.00833335
0.00833335
0.00833335
0.00833335
0.00833335
0.00833335
0.00833335
0.00833335
0.00833335
0.00833335
0.00833335
0.00833335
0.00833335
0.00833335
0.00833335
0.00833335
0.00833335
0.00833335
0.00833335
0.00833335
0.00833335
0.00833335
0.00833335
0.00833335
0.00833335
0.00833335
0.00833335
0.00833335
0.00833335
0.00833335
0.00833335
0.00833335
0.00833336
0.00833332
0.00833364
0.00833488
0.00827588
0.00762614
0.00775139
0.00811267
0.00813957
0.00753592
0.00780945
0.00811445
0.00815246
0.00805258
0.00783299
0.0083447
0.0078063
0.00859414
0.0076991
0.00828288
0.00828445
0.0083312
0.00815043
0.00802826
0.00838906
0.00794632
0.00806097
0.00824157
0.00815446
0.00825003
0.00817451
0.00834569
0.00796496
0.00827159
0.00809426
0.00793213
0.00814958
0.00824985
0.00581221
0.00417478
0.00833335
0.00833335
0.00833335
0.00833335
0.00833335
0.00833335
0.00833335
0.00833335
0.00833335
0.00833335
0.00833335
0.00833335
0.00833335
0.00833335
0.00833335
0.00833335
0.00833335
0.00833335
0.00833335
0.00833335
0.00833335
0.00833335
0.00833335
0.00833335
0.00833335
0.00833335
0.00833335
0.00833335
0.00833335
0.00833335
0.00833335
0.00833335
0.00833335
0.00833335
0.00833335
0.00833335
0.00833335
0.00833335
0.00833335
0.00833335
0.00833335
0.00833335
0.00833335
0.00833335
0.00833335
0.00833335
0.00833335
0.00833335
0.00833335
0.00833335
0.00833335
0.00833335
0.00833335
0.00833335
0.00833335
0.00833335
0.00833335
0.00833336
0.00833316
0.00833443
0.00831283
0.00834856
0.00785079
0.0081726
0.0081993
0.00593247
0.00530604
0.00481246
0.00462391
0.00446157
0.0043118
0.00428097
0.00387698
0.00392301
0.00371599
0.00361136
0.0034743
0.00326914
0.00314806
0.00301488
0.0029122
0.00262321
0.0024379
0.00225469
0.00210294
0.00198133
0.00173948
0.00153226
0.0013222
0.00114548
0.000824093
0.000464301
0.000411688
0.000394048
0.00039431
0.00039967
0.00833335
0.00833335
0.00833335
0.00833335
0.00833335
0.00833335
0.00833335
0.00833335
0.00833335
0.00833335
0.00833335
0.00833335
0.00833335
0.00833335
0.00833335
0.00833335
0.00833335
0.00833335
0.00833335
0.00833335
0.00833335
0.00833335
0.00833335
0.00833335
0.00833335
0.00833335
0.00833335
0.00833335
0.00833335
0.00833335
0.00833335
0.00833335
0.00833335
0.00833335
0.00833335
0.00833335
0.00833335
0.00833335
0.00833335
0.00833335
0.00833335
0.00833335
0.00833335
0.00833335
0.00833335
0.00833335
0.00833335
0.00833335
0.00833335
0.00833335
0.00833335
0.00833335
0.00833335
0.00833335
0.00833335
0.00833335
0.00833335
0.0083337
0.00831981
0.00833599
0.00833621
0.0068725
0.00464671
0.00323857
0.00342982
0.00322754
0.00323536
0.00317318
0.00311376
0.00304002
0.00295602
0.00285615
0.00272321
0.00261201
0.00239357
0.00223549
0.00203481
0.0018691
0.00165585
0.00142929
0.00115962
0.000982614
0.00080245
0.000670229
0.000532967
0.000495177
0.000482264
0.000457518
0.000442234
0.000428263
0.000417572
0.000405789
0.000395777
0.000394441
0.000397246
0.000399929
0.00833335
0.00833335
0.00833335
0.00833335
0.00833335
0.00833335
0.00833335
0.00833335
0.00833335
0.00833335
0.00833335
0.00833335
0.00833335
0.00833335
0.00833335
0.00833335
0.00833335
0.00833335
0.00833335
0.00833335
0.00833335
0.00833335
0.00833335
0.00833335
0.00833335
0.00833335
0.00833335
0.00833335
0.00833335
0.00833335
0.00833335
0.00833335
0.00833335
0.00833335
0.00833335
0.00833335
0.00833335
0.00833335
0.00833335
0.00833335
0.00833335
0.00833335
0.00833335
0.00833335
0.00833335
0.00833335
0.00833335
0.00833335
0.00833335
0.00833335
0.00833335
0.00833335
0.00833335
0.00833335
0.00833335
0.00833335
0.00833335
0.00833334
0.00833369
0.00834316
0.00833251
0.00301496
0.00214553
0.00136517
0.00130954
0.0012298
0.00116898
0.00111803
0.00106082
0.000969253
0.000899811
0.000834635
0.000811026
0.000782208
0.000752786
0.000729262
0.000705713
0.000676342
0.000652794
0.000629103
0.000605733
0.000579596
0.000567351
0.000541051
0.000517547
0.000499907
0.000482281
0.000458755
0.000446977
0.000430976
0.000415636
0.000405809
0.000394124
0.000399892
0.000399939
0.00040581
0.00833335
0.00833335
0.00833335
0.00833335
0.00833335
0.00833335
0.00833335
0.00833335
0.00833335
0.00833335
0.00833335
0.00833335
0.00833335
0.00833335
0.00833335
0.00833335
0.00833335
0.00833335
0.00833335
0.00833335
0.00833335
0.00833335
0.00833335
0.00833335
0.00833335
0.00833335
0.00833335
0.00833335
0.00833335
0.00833335
0.00833335
0.00833335
0.00833335
0.00833335
0.00833335
0.00833335
0.00833335
0.00833335
0.00833335
0.00833335
0.00833335
0.00833335
0.00833335
0.00833335
0.00833335
0.00833335
0.00833335
0.00833335
0.00833335
0.00833335
0.00833335
0.00833335
0.00833335
0.00833335
0.00833335
0.00833335
0.00833335
0.00833335
0.00833334
0.00833849
0.00833811
0.0041459
0.00221122
0.0010468
0.00101742
0.000988025
0.000964501
0.000935068
0.00091157
0.000873755
0.000861899
0.000823358
0.000805715
0.000776312
0.000752741
0.000723455
0.000700061
0.000671977
0.000653375
0.000629286
0.000605722
0.000582149
0.0005648
0.000538914
0.000518332
0.000501627
0.000482264
0.000461045
0.000447071
0.000429434
0.000417559
0.000411691
0.000399929
0.000399929
0.00040581
0.00040581
0.00833335
0.00833335
0.00833335
0.00833335
0.00833335
0.00833335
0.00833335
0.00833335
0.00833335
0.00833335
0.00833335
0.00833335
0.00833335
0.00833335
0.00833335
0.00833335
0.00833335
0.00833335
0.00833335
0.00833335
0.00833335
0.00833335
0.00833335
0.00833335
0.00833335
0.00833335
0.00833335
0.00833335
0.00833335
0.00833335
0.00833335
0.00833335
0.00833335
0.00833335
0.00833335
0.00833335
0.00833335
0.00833335
0.00833335
0.00833335
0.00833335
0.00833335
0.00833335
0.00833335
0.00833335
0.00833335
0.00833335
0.00833335
0.00833335
0.00833335
0.00833335
0.00833335
0.00833335
0.00833335
0.00833335
0.00833335
0.00833335
0.00833335
0.00833335
0.00833005
0.00833359
0.00698827
0.00145855
0.00104683
0.00101743
0.000987876
0.000964744
0.000935046
0.000905705
0.000876273
0.000852775
0.000823358
0.00079999
0.000776311
0.000750868
0.000728881
0.000698064
0.000673231
0.000649743
0.000629287
0.000605752
0.000582963
0.000561256
0.00054553
0.000517446
0.000499754
0.000482082
0.000464616
0.000446978
0.00042925
0.00041729
0.000411013
0.000401244
0.000399929
0.00040581
0.00040581
0.00833335
0.00833335
0.00833335
0.00833335
0.00833335
0.00833335
0.00833335
0.00833335
0.00833335
0.00833335
0.00833335
0.00833335
0.00833335
0.00833335
0.00833335
0.00833335
0.00833335
0.00833335
0.00833335
0.00833335
0.00833335
0.00833335
0.00833335
0.00833335
0.00833335
0.00833335
0.00833335
0.00833335
0.00833335
0.00833335
0.00833335
0.00833335
0.00833335
0.00833335
0.00833335
0.00833335
0.00833335
0.00833335
0.00833335
0.00833335
0.00833335
0.00833335
0.00833335
0.00833335
0.00833335
0.00833335
0.00833335
0.00833335
0.00833335
0.00833335
0.00833335
0.00833335
0.00833335
0.00833335
0.00833335
0.00833335
0.00833335
0.00833335
0.00833291
0.00830521
0.00915362
0.00761395
0.00134671
0.0010409
0.001018
0.000987498
0.000964431
0.000935099
0.000905674
0.000874039
0.00086004
0.00082924
0.000805421
0.000776314
0.000752786
0.000729263
0.000706947
0.000682268
0.000646177
0.000633368
0.000605718
0.000580458
0.000565796
0.000541181
0.000518063
0.000492045
0.00048528
0.000462117
0.000445402
0.000429817
0.000415926
0.000413607
0.000399638
0.00039993
0.000405813
0.000405809
0.00833335
0.00833335
0.00833335
0.00833335
0.00833335
0.00833335
0.00833335
0.00833335
0.00833335
0.00833335
0.00833335
0.00833335
0.00833335
0.00833335
0.00833335
0.00833335
0.00833335
0.00833335
0.00833335
0.00833335
0.00833335
0.00833335
0.00833335
0.00833335
0.00833335
0.00833335
0.00833335
0.00833335
0.00833335
0.00833335
0.00833335
0.00833335
0.00833335
0.00833335
0.00833335
0.00833335
0.00833335
0.00833335
0.00833335
0.00833335
0.00833335
0.00833335
0.00833335
0.00833335
0.00833335
0.00833335
0.00833335
0.00833335
0.00833335
0.00833335
0.00833335
0.00833335
0.00833335
0.00833335
0.00833335
0.00833335
0.00833335
0.00833334
0.00833102
0.0083358
0.00833226
0.00713424
0.0050581
0.00104174
0.00101663
0.000988013
0.000965495
0.000928222
0.000905904
0.000882167
0.000852845
0.000829292
0.000809111
0.000775485
0.000754388
0.000730107
0.000699225
0.000676328
0.00065281
0.00063157
0.000603923
0.000582237
0.000564397
0.000540157
0.000517557
0.00049992
0.000479638
0.000467378
0.000447147
0.000429335
0.000417574
0.000411964
0.000399958
0.000399927
0.000405698
0.000405912
0.00833335
0.00833335
0.00833335
0.00833335
0.00833335
0.00833335
0.00833335
0.00833335
0.00833335
0.00833335
0.00833335
0.00833335
0.00833335
0.00833335
0.00833335
0.00833335
0.00833335
0.00833335
0.00833335
0.00833335
0.00833335
0.00833335
0.00833335
0.00833335
0.00833335
0.00833335
0.00833335
0.00833335
0.00833335
0.00833335
0.00833335
0.00833335
0.00833335
0.00833335
0.00833335
0.00833335
0.00833335
0.00833335
0.00833335
0.00833335
0.00833335
0.00833335
0.00833335
0.00833335
0.00833335
0.00833335
0.00833335
0.00833335
0.00833335
0.00833335
0.00833335
0.00833335
0.00833335
0.00833335
0.00833335
0.00833335
0.00833335
0.00833305
0.0083335
0.00833159
0.00833292
0.00833351
0.00598096
0.00104094
0.00101156
0.000989855
0.000954855
0.00093209
0.000905272
0.000876225
0.000852222
0.000823464
0.000799845
0.000776305
0.000754602
0.000723831
0.000699859
0.000676383
0.000652806
0.000629284
0.000605146
0.000583128
0.000564597
0.00054264
0.000514678
0.00050239
0.000482263
0.000464693
0.000448059
0.000428889
0.000417042
0.000411935
0.000399931
0.00039993
0.000399929
0.000399929
0.00833335
0.00833335
0.00833335
0.00833335
0.00833335
0.00833335
0.00833335
0.00833335
0.00833335
0.00833335
0.00833335
0.00833335
0.00833335
0.00833335
0.00833335
0.00833335
0.00833335
0.00833335
0.00833335
0.00833335
0.00833335
0.00833335
0.00833335
0.00833335
0.00833335
0.00833335
0.00833335
0.00833335
0.00833335
0.00833335
0.00833335
0.00833335
0.00833335
0.00833335
0.00833335
0.00833335
0.00833335
0.00833335
0.00833335
0.00833335
0.00833335
0.00833335
0.00833335
0.00833335
0.00833335
0.00833335
0.00833335
0.00833335
0.00833335
0.00833335
0.00833335
0.00833335
0.00833335
0.00833335
0.00833335
0.00833335
0.00833335
0.00833334
0.00833344
0.00833338
0.00838677
0.00832693
0.00199811
0.00104685
0.00101421
0.000987741
0.000961802
0.000929953
0.000911158
0.000876404
0.000853573
0.00082924
0.000799836
0.000776311
0.00075548
0.000726749
0.000705739
0.000676332
0.000652707
0.000629335
0.000605761
0.000588137
0.0005646
0.000543218
0.000520224
0.000499905
0.000482263
0.000464618
0.000446977
0.000429334
0.000417572
0.000411692
0.000401123
0.000400874
0.000406401
0.000399836
0.00833335
0.00833335
0.00833335
0.00833335
0.00833335
0.00833335
0.00833335
0.00833335
0.00833335
0.00833335
0.00833335
0.00833335
0.00833335
0.00833335
0.00833335
0.00833335
0.00833335
0.00833335
0.00833335
0.00833335
0.00833335
0.00833335
0.00833335
0.00833335
0.00833335
0.00833335
0.00833335
0.00833335
0.00833335
0.00833335
0.00833335
0.00833335
0.00833335
0.00833335
0.00833335
0.00833335
0.00833335
0.00833335
0.00833335
0.00833335
0.00833335
0.00833335
0.00833335
0.00833335
0.00833335
0.00833335
0.00833335
0.00833335
0.00833335
0.00833335
0.00833335
0.00833335
0.00833335
0.00833335
0.00833335
0.00833335
0.00833335
0.00833335
0.00833628
0.00833026
0.00829502
0.00308242
0.00144144
0.00111743
0.00105818
0.00101155
0.0009939
0.000935097
0.000909908
0.000881865
0.000860658
0.000829242
0.000805717
0.000775942
0.000756891
0.000724544
0.000705736
0.000684927
0.000650412
0.00063176
0.000608772
0.000586288
0.000561231
0.000543016
0.000524129
0.000499318
0.000482263
0.000464605
0.000447426
0.000427779
0.000417175
0.000411672
0.000399154
0.000400663
0.000405807
0.00040581
0.00833335
0.00833335
0.00833335
0.00833335
0.00833335
0.00833335
0.00833335
0.00833335
0.00833335
0.00833335
0.00833335
0.00833335
0.00833335
0.00833335
0.00833335
0.00833335
0.00833335
0.00833335
0.00833335
0.00833335
0.00833335
0.00833335
0.00833335
0.00833335
0.00833335
0.00833335
0.00833335
0.00833335
0.00833335
0.00833335
0.00833335
0.00833335
0.00833335
0.00833335
0.00833335
0.00833335
0.00833335
0.00833335
0.00833335
0.00833335
0.00833335
0.00833335
0.00833335
0.00833335
0.00833335
0.00833335
0.00833335
0.00833335
0.00833335
0.00833335
0.00833335
0.00833335
0.00833335
0.00833335
0.00833335
0.00833335
0.00833335
0.00833335
0.00833333
0.00834684
0.00755662
0.00393633
0.00739275
0.00342405
0.00394011
0.00319434
0.00310406
0.00297096
0.00282244
0.00264116
0.00240543
0.00213567
0.00185232
0.0016796
0.00148513
0.00123044
0.00102328
0.000899801
0.000764879
0.000688171
0.000634886
0.00059357
0.00057046
0.000541673
0.000513314
0.000502244
0.000482209
0.000468428
0.000443826
0.000427903
0.000418308
0.000406692
0.000394175
0.000399949
0.000399804
0.000405939
0.00833335
0.00833335
0.00833335
0.00833335
0.00833335
0.00833335
0.00833335
0.00833335
0.00833335
0.00833335
0.00833335
0.00833335
0.00833335
0.00833335
0.00833335
0.00833335
0.00833335
0.00833335
0.00833335
0.00833335
0.00833335
0.00833335
0.00833335
0.00833335
0.00833335
0.00833335
0.00833335
0.00833335
0.00833335
0.00833335
0.00833335
0.00833335
0.00833335
0.00833335
0.00833335
0.00833335
0.00833335
0.00833335
0.00833335
0.00833335
0.00833335
0.00833335
0.00833335
0.00833335
0.00833335
0.00833335
0.00833335
0.00833335
0.00833335
0.00833335
0.00833335
0.00833335
0.00833335
0.00833335
0.00833335
0.00833335
0.00833335
0.00833335
0.00833334
0.00834021
0.00733913
0.0072681
0.00826633
0.00824885
0.00822449
0.00825112
0.00837356
0.00824117
0.00845254
0.00823968
0.00827387
0.00815357
0.00827631
0.00832372
0.0080458
0.00779124
0.00788995
0.00780367
0.00757762
0.00633601
0.00563142
0.00458181
0.00395178
0.00303846
0.00178404
0.00129205
0.000629332
0.000547182
0.000494198
0.000448567
0.000417614
0.000411701
0.000399817
0.000394109
0.000399958
0.000399929
0.00833335
0.00833335
0.00833335
0.00833335
0.00833335
0.00833335
0.00833335
0.00833335
0.00833335
0.00833335
0.00833335
0.00833335
0.00833335
0.00833335
0.00833335
0.00833335
0.00833335
0.00833335
0.00833335
0.00833335
0.00833335
0.00833335
0.00833335
0.00833335
0.00833335
0.00833335
0.00833335
0.00833335
0.00833335
0.00833335
0.00833335
0.00833335
0.00833335
0.00833335
0.00833335
0.00833335
0.00833335
0.00833335
0.00833335
0.00833335
0.00833335
0.00833335
0.00833335
0.00833335
0.00833335
0.00833335
0.00833335
0.00833335
0.00833335
0.00833335
0.00833335
0.00833335
0.00833335
0.00833335
0.00833335
0.00833335
0.00833335
0.00833335
0.00833335
0.00831859
0.00951049
0.00825053
0.00833395
0.00884124
0.00691863
0.00829591
0.00783211
0.00860541
0.00834079
0.00821955
0.00829711
0.0077994
0.0086013
0.00833875
0.00833775
0.00924029
0.00676978
0.00917854
0.00725316
0.00859716
0.00888324
0.00833155
0.00777492
0.00855
0.00705182
0.00820323
0.00749619
0.00748209
0.00593972
0.00520464
0.00440677
0.00132733
0.000408464
0.000386258
0.000399534
0.000400263
0.00833335
0.00833335
0.00833335
0.00833335
0.00833335
0.00833335
0.00833335
0.00833335
0.00833335
0.00833335
0.00833335
0.00833335
0.00833335
0.00833335
0.00833335
0.00833335
0.00833335
0.00833335
0.00833335
0.00833335
0.00833335
0.00833335
0.00833335
0.00833335
0.00833335
0.00833335
0.00833335
0.00833335
0.00833335
0.00833335
0.00833335
0.00833335
0.00833335
0.00833335
0.00833335
0.00833335
0.00833335
0.00833335
0.00833335
0.00833335
0.00833335
0.00833335
0.00833335
0.00833335
0.00833335
0.00833335
0.00833335
0.00833335
0.00833335
0.00833335
0.00833335
0.00833335
0.00833335
0.00833335
0.00833335
0.00833335
0.00833335
0.00833335
0.00833335
0.0082904
0.00895938
0.00826234
0.0082935
0.00831748
0.00831355
0.00832319
0.0083492
0.00829976
0.00826894
0.00844675
0.00824729
0.00829645
0.00830322
0.00822712
0.00839854
0.00833952
0.00832146
0.00831276
0.00834895
0.00831232
0.00828721
0.00832143
0.008239
0.00790359
0.008582
0.00833066
0.00832659
0.00832639
0.00826945
0.00746325
0.0079798
0.00864206
0.00833476
0.00835517
0.00830461
0.00806097
0.00833335
0.00833335
0.00833335
0.00833335
0.00833335
0.00833335
0.00833335
0.00833335
0.00833335
0.00833335
0.00833335
0.00833335
0.00833335
0.00833335
0.00833335
0.00833335
0.00833335
0.00833335
0.00833335
0.00833335
0.00833335
0.00833335
0.00833335
0.00833335
0.00833335
0.00833335
0.00833335
0.00833335
0.00833335
0.00833335
0.00833335
0.00833335
0.00833335
0.00833335
0.00833335
0.00833335
0.00833335
0.00833335
0.00833335
0.00833335
0.00833335
0.00833335
0.00833335
0.00833335
0.00833335
0.00833335
0.00833335
0.00833335
0.00833335
0.00833335
0.00833335
0.00833335
0.00833335
0.00833335
0.00833335
0.00833335
0.00833335
0.00833268
0.00833398
0.0083016
0.00881911
0.0084066
0.00813064
0.00839326
0.00818084
0.00834355
0.00832852
0.00832889
0.00830051
0.00827509
0.0083386
0.00830255
0.0083324
0.00833673
0.0083353
0.00833776
0.00833753
0.00833847
0.00833529
0.00833551
0.00831839
0.00830647
0.00831892
0.00828741
0.0083247
0.00833546
0.00831701
0.00832403
0.00832593
0.00833067
0.00833161
0.0083541
0.00837805
0.00822373
0.00835764
0.00833334
0.00833335
0.00833335
0.00833335
0.00833335
0.00833335
0.00833335
0.00833335
0.00833335
0.00833335
0.00833335
0.00833335
0.00833335
0.00833335
0.00833335
0.00833335
0.00833335
0.00833335
0.00833335
0.00833335
0.00833335
0.00833335
0.00833335
0.00833335
0.00833335
0.00833335
0.00833335
0.00833335
0.00833335
0.00833335
0.00833335
0.00833335
0.00833335
0.00833335
0.00833335
0.00833335
0.00833335
0.00833335
0.00833335
0.00833335
0.00833335
0.00833335
0.00833335
0.00833335
0.00833335
0.00833335
0.00833335
0.00833335
0.00833335
0.00833335
0.00833335
0.00833335
0.00833335
0.00833335
0.00833335
0.00833335
0.00833335
0.00833335
0.00833334
0.00833298
0.00833046
0.00775915
0.00864081
0.00787314
0.00814111
0.00824084
0.0083264
0.00834035
0.00826822
0.00835901
0.00833345
0.00825451
0.00823572
0.00828576
0.00833882
0.00826268
0.00833707
0.0082684
0.00806506
0.00814619
0.00831837
0.0083209
0.0083308
0.00828575
0.00831808
0.00832102
0.00787212
0.00805567
0.00875133
0.0072265
0.00849785
0.00820074
0.00850886
0.00831895
0.00833367
0.00833116
0.00833296
0.00833335
0.00833335
0.00833335
0.00833335
0.00833335
0.00833335
0.00833335
0.00833335
0.00833335
0.00833335
0.00833335
0.00833335
0.00833335
0.00833335
0.00833335
0.00833335
0.00833335
0.00833335
0.00833335
0.00833335
0.00833335
0.00833335
0.00833335
0.00833335
0.00833335
0.00833335
0.00833335
0.00833335
0.00833335
0.00833335
0.00833335
0.00833335
0.00833335
0.00833335
0.00833335
0.00833335
0.00833335
0.00833335
0.00833335
0.00833335
0.00833335
0.00833335
0.00833335
0.00833335
0.00833335
0.00833335
0.00833335
0.00833335
0.00833335
0.00833335
0.00833335
0.00833335
0.00833335
0.00833335
0.00833335
0.00833335
0.00833335
0.00833335
0.00833333
0.00833158
0.00855951
0.00859397
0.00833804
0.00838438
0.00827289
0.0083021
0.00826696
0.0082311
0.00829566
0.00824141
0.00819961
0.00814418
0.0082728
0.0082649
0.0082601
0.00827239
0.00822507
0.00825934
0.00837054
0.00834934
0.00824843
0.00810389
0.00829616
0.00804524
0.00791109
0.00778238
0.00759053
0.00689181
0.00550566
0.00120275
0.000557472
0.000460988
0.000418682
0.000407951
0.000399673
0.000399636
0.00833335
0.00833335
0.00833335
0.00833335
0.00833335
0.00833335
0.00833335
0.00833335
0.00833335
0.00833335
0.00833335
0.00833335
0.00833335
0.00833335
0.00833335
0.00833335
0.00833335
0.00833335
0.00833335
0.00833335
0.00833335
0.00833335
0.00833335
0.00833335
0.00833335
0.00833335
0.00833335
0.00833335
0.00833335
0.00833335
0.00833335
0.00833335
0.00833335
0.00833335
0.00833335
0.00833335
0.00833335
0.00833335
0.00833335
0.00833335
0.00833335
0.00833335
0.00833335
0.00833335
0.00833335
0.00833335
0.00833335
0.00833335
0.00833335
0.00833335
0.00833335
0.00833335
0.00833335
0.00833335
0.00833335
0.00833335
0.00833335
0.00833335
0.00833336
0.00833298
0.00825475
0.00218025
0.00657379
0.00236056
0.00245635
0.00231812
0.00217636
0.00203477
0.0018249
0.00133019
0.00116133
0.00107738
0.00103556
0.000970596
0.000935017
0.000899803
0.00086437
0.000829101
0.000801128
0.000754789
0.000724294
0.000683174
0.000656286
0.000611596
0.000576296
0.000544916
0.000507604
0.000473188
0.000454026
0.000438695
0.000417582
0.000412028
0.00039979
0.00039996
0.000399968
0.00040581
0.00833335
0.00833335
0.00833335
0.00833335
0.00833335
0.00833335
0.00833335
0.00833335
0.00833335
0.00833335
0.00833335
0.00833335
0.00833335
0.00833335
0.00833335
0.00833335
0.00833335
0.00833335
0.00833335
0.00833335
0.00833335
0.00833335
0.00833335
0.00833335
0.00833335
0.00833335