/*--------------------------------*- C++ -*----------------------------------*\
| =========                 |                                                 |
| \\      /  F ield         | OpenFOAM: The Open Source CFD Toolbox           |
|  \\    /   O peration     | Version:  2.3.0                                 |
|   \\  /    A nd           | Web:      www.OpenFOAM.org                      |
|    \\/     M anipulation  |                                                 |
\*---------------------------------------------------------------------------*/
FoamFile
{
    version     2.0;
    format      ascii;
    class       surfaceScalarField;
    location    "7";
    object      phi;
}
// * * * * * * * * * * * * * * * * * * * * * * * * * * * * * * * * * * * * * //

dimensions      [0 3 -1 0 0 0 0];

internalField   nonuniform List<scalar> 
16448
(
-2.24797e-06
-2.10886e-06
6.78867e-07
-9.72799e-07
-2.06075e-06
7.85581e-07
-7.14043e-07
-1.31827e-06
1.05952e-06
-4.62518e-07
-1.33358e-06
1.08205e-06
-4.39504e-07
-1.12366e-06
1.10064e-06
-3.86931e-07
-1.15689e-06
1.10431e-06
-3.88147e-07
-1.10422e-06
1.10543e-06
-3.49637e-07
-1.14247e-06
1.10396e-06
-3.39104e-07
-1.12313e-06
1.1126e-06
-2.91339e-07
-1.16073e-06
1.11297e-06
-2.72222e-07
-1.14277e-06
1.12366e-06
-2.25424e-07
-1.17253e-06
1.12574e-06
-2.05212e-07
-1.15478e-06
1.13457e-06
-1.68115e-07
-1.17392e-06
1.13683e-06
-1.51396e-07
-1.15941e-06
1.14269e-06
-1.25866e-07
-1.17001e-06
1.14448e-06
-1.1317e-07
-1.16085e-06
1.14815e-06
-9.74597e-08
-1.16534e-06
1.14963e-06
-8.82607e-08
-1.16111e-06
1.15192e-06
-7.90849e-08
-1.16239e-06
1.15322e-06
-7.27609e-08
-1.16105e-06
1.15473e-06
-6.72894e-08
-1.16135e-06
1.15589e-06
-6.30476e-08
-1.16127e-06
1.15703e-06
-5.95119e-08
-1.1616e-06
1.15807e-06
-5.65422e-08
-1.16204e-06
1.15907e-06
-5.3908e-08
-1.16267e-06
1.16004e-06
-5.14549e-08
-1.16344e-06
1.16099e-06
-4.90377e-08
-1.16436e-06
1.16195e-06
-4.65234e-08
-1.16544e-06
1.16292e-06
-4.3791e-08
-1.16666e-06
1.16393e-06
-4.0548e-08
-1.16823e-06
1.16498e-06
-3.71432e-08
-1.16943e-06
1.16603e-06
-3.17889e-08
-1.17243e-06
1.16708e-06
-2.72255e-08
-1.17307e-06
1.16851e-06
-1.86104e-08
-1.17826e-06
1.16964e-06
-1.15487e-08
-1.17832e-06
1.17126e-06
1.36088e-09
-1.18557e-06
1.17266e-06
1.47955e-08
-1.18747e-06
1.17403e-06
3.025e-08
-1.19231e-06
1.17685e-06
5.77322e-08
-1.20543e-06
1.17794e-06
7.72971e-08
-1.20119e-06
1.18163e-06
1.23359e-07
-1.22988e-06
1.18382e-06
1.53047e-07
-1.21867e-06
1.18898e-06
2.20284e-07
-1.26145e-06
1.19421e-06
2.63549e-07
-1.24698e-06
1.20371e-06
3.46837e-07
-1.30539e-06
1.2221e-06
3.96037e-07
-1.29636e-06
1.24715e-06
4.70039e-07
-1.39198e-06
1.31797e-06
4.97381e-07
-1.42331e-06
1.39596e-06
4.77591e-07
-1.61539e-06
1.63518e-06
8.11851e-07
-2.15071e-06
1.81644e-06
5.75843e-08
-1.46728e-06
2.22154e-06
-3.99923e-08
-1.48684e-06
1.58441e-06
-1.70596e-06
9.46387e-08
1.57132e-06
-3.06523e-06
9.05233e-07
4.54027e-07
-2.6704e-06
-1.93252e-06
1.5377e-06
-2.2988e-06
-1.12847e-07
-2.58751e-07
-3.42331e-06
-6.64635e-09
1.13118e-06
-6.45434e-06
-7.70433e-08
3.10815e-06
1.05534e-07
-1.8893e-05
1.23332e-05
1.75653e-05
-2.31513e-05
5.69152e-06
2.29996e-05
-8.54224e-06
3.10796e-06
2.18615e-05
8.39212e-07
2.98915e-07
2.38633e-05
-1.59626e-06
-4.05602e-07
2.5151e-05
-5.01849e-07
-7.85837e-07
2.59232e-05
5.87377e-07
-1.35951e-06
2.64642e-05
1.10757e-06
-1.64858e-06
2.68521e-05
1.29223e-06
-1.68019e-06
2.69732e-05
1.40176e-06
-1.52282e-06
2.68083e-05
1.45939e-06
-1.29448e-06
2.6439e-05
1.45722e-06
-1.08796e-06
2.5935e-05
1.40972e-06
-9.05746e-07
2.54096e-05
1.26046e-06
-7.35101e-07
2.48677e-05
1.09629e-06
-5.54397e-07
2.42574e-05
8.9463e-07
-2.84297e-07
2.36025e-05
7.65381e-07
-1.10448e-07
2.26836e-05
8.53901e-07
6.49485e-08
2.15214e-05
8.95755e-07
2.66487e-07
2.02263e-05
9.85803e-07
3.09289e-07
1.83254e-05
1.27709e-06
6.23779e-07
1.62221e-05
1.24012e-06
8.63201e-07
1.38828e-05
1.19711e-06
1.14218e-06
9.91567e-06
1.8011e-06
2.16602e-06
5.27316e-06
2.0034e-06
2.63912e-06
1.93266e-06
1.3632e-06
1.97729e-06
2.4384e-07
7.81644e-07
9.07184e-07
6.13458e-08
2.80145e-07
-9.76466e-08
7.21263e-07
-3.61858e-07
-2.98056e-07
1.46284e-06
-8.98432e-07
1.5686e-07
1.86561e-06
-1.12468e-06
7.21911e-07
1.91245e-06
-1.10848e-06
1.06165e-06
1.69804e-06
-1.04083e-06
1.25525e-06
1.34996e-06
-1.01765e-06
1.36574e-06
9.36971e-07
-1.0069e-06
1.41989e-06
4.76771e-07
-1.00363e-06
1.46383e-06
-1.0123e-06
1.48907e-06
-2.30379e-06
-3.01195e-06
-3.16752e-07
-1.11577e-06
-3.13316e-06
-1.15604e-07
-9.4442e-07
-1.85423e-06
3.64598e-07
-7.36942e-07
-1.95969e-06
4.18618e-07
-7.38907e-07
-1.58837e-06
4.66667e-07
-6.91699e-07
-1.67207e-06
4.67957e-07
-6.8006e-07
-1.58925e-06
4.73384e-07
-6.24524e-07
-1.66284e-06
4.64829e-07
-5.87967e-07
-1.63906e-06
4.79374e-07
-5.16846e-07
-1.70508e-06
4.73226e-07
-4.72705e-07
-1.68162e-06
4.94715e-07
-4.04894e-07
-1.73322e-06
4.92882e-07
-3.65698e-07
-1.7071e-06
5.13133e-07
-3.11812e-07
-1.74144e-06
5.13639e-07
-2.8197e-07
-1.71847e-06
5.29223e-07
-2.44087e-07
-1.73878e-06
5.30891e-07
-2.22587e-07
-1.72384e-06
5.41502e-07
-1.98359e-07
-1.73352e-06
5.43952e-07
-1.83183e-07
-1.72643e-06
5.5014e-07
-1.68448e-07
-1.73003e-06
5.52903e-07
-1.57999e-07
-1.72805e-06
5.56551e-07
-1.48932e-07
-1.72937e-06
5.58952e-07
-1.41818e-07
-1.7297e-06
5.61315e-07
-1.35866e-07
-1.73082e-06
5.63265e-07
-1.3089e-07
-1.73203e-06
5.65021e-07
-1.26554e-07
-1.73358e-06
5.66573e-07
-1.22625e-07
-1.73535e-06
5.6798e-07
-1.18893e-07
-1.73737e-06
5.6927e-07
-1.15136e-07
-1.73966e-06
5.70463e-07
-1.11111e-07
-1.74225e-06
5.71566e-07
-1.06777e-07
-1.7451e-06
5.72537e-07
-1.01612e-07
-1.74802e-06
5.73419e-07
-9.54831e-08
-1.75246e-06
5.73901e-07
-8.90081e-08
-1.75462e-06
5.75071e-07
-7.95573e-08
-1.76274e-06
5.75025e-07
-7.00405e-08
-1.76427e-06
5.76425e-07
-5.5401e-08
-1.77625e-06
5.76038e-07
-4.06318e-08
-1.78001e-06
5.77767e-07
-1.78603e-08
-1.7925e-06
5.77411e-07
5.82361e-09
-1.80728e-06
5.7816e-07
3.71391e-08
-1.81249e-06
5.79973e-07
8.16586e-08
-1.85109e-06
5.76679e-07
1.20965e-07
-1.84211e-06
5.84126e-07
1.88779e-07
-1.90857e-06
5.79296e-07
2.37512e-07
-1.88977e-06
5.94049e-07
3.1024e-07
-1.98014e-06
6.02005e-07
3.37297e-07
-1.96311e-06
6.39684e-07
3.08831e-07
-2.07905e-06
7.15524e-07
7.67159e-08
-2.0705e-06
8.79289e-07
-5.61445e-07
-2.24659e-06
1.26933e-06
-2.18728e-06
-2.42247e-06
1.89757e-06
-3.87275e-06
-1.70539e-06
1.92356e-06
-5.81478e-06
-9.07292e-07
1.36247e-06
-5.50332e-06
9.7144e-08
-3.13978e-07
-1.87802e-06
-9.07605e-07
-1.81247e-06
1.9639e-06
-5.79088e-06
1.64357e-08
-1.81009e-06
5.48928e-06
-1.82812e-06
-9.36345e-06
7.27697e-06
2.6979e-07
-6.23827e-06
1.66563e-06
-4.86775e-06
2.54097e-08
-2.95763e-05
4.41985e-06
3.29784e-06
-3.24141e-05
5.99051e-06
3.99261e-06
-1.02638e-05
1.02676e-06
1.37055e-05
-4.88833e-06
-3.9853e-06
1.63512e-05
-9.39266e-07
-3.30277e-06
1.78745e-05
1.37471e-06
-3.39976e-06
2.00681e-05
2.1379e-06
-3.74418e-06
2.19539e-05
2.69461e-06
-3.47281e-06
2.31541e-05
3.06641e-06
-2.97441e-06
2.37509e-05
3.21135e-06
-2.40642e-06
2.39401e-05
3.18515e-06
-1.91487e-06
2.38944e-05
3.01828e-06
-1.51538e-06
2.36659e-05
2.75911e-06
-1.12089e-06
2.33261e-05
2.38675e-06
-7.86524e-07
2.30408e-05
1.8085e-06
-4.26974e-07
2.26987e-05
1.30441e-06
-6.76251e-08
2.22363e-05
1.06929e-06
1.58457e-07
2.14997e-05
1.20582e-06
3.84708e-07
2.0528e-05
1.34655e-06
5.20932e-07
1.93428e-05
1.59719e-06
5.73773e-07
1.76795e-05
2.09428e-06
8.46152e-07
1.56307e-05
2.37433e-06
9.14574e-07
1.29549e-05
2.71061e-06
1.16231e-06
8.89213e-06
3.7898e-06
2.07404e-06
4.77904e-06
3.80548e-06
2.31101e-06
1.97225e-06
2.44077e-06
1.72923e-06
4.52122e-07
1.44752e-06
8.54261e-07
2.20639e-07
9.01673e-07
-3.90038e-07
7.76473e-07
2.54e-07
-1.17168e-06
1.52601e-06
-5.15071e-07
-1.13289e-06
2.00698e-06
-1.04817e-06
-5.5747e-07
2.15497e-06
-1.20987e-06
-4.65917e-08
2.00994e-06
-1.17298e-06
2.77179e-07
1.64685e-06
-1.13472e-06
4.80167e-07
1.14737e-06
-1.1019e-06
5.94473e-07
5.88595e-07
-1.07945e-06
6.34602e-07
-1.11043e-06
6.86729e-07
-2.20346e-06
-3.22921e-06
-7.02077e-07
-1.04758e-06
-3.5374e-06
-7.51641e-07
-9.07033e-07
-1.9041e-06
-9.06844e-08
-7.23974e-07
-2.13117e-06
-1.15856e-08
-7.29788e-07
-1.63123e-06
4.8657e-08
-7.03743e-07
-1.75581e-06
5.76857e-08
-6.97179e-07
-1.64966e-06
5.38328e-08
-6.44779e-07
-1.7543e-06
3.90574e-08
-6.04342e-07
-1.72583e-06
4.63367e-08
-5.30433e-07
-1.81364e-06
3.466e-08
-4.79915e-07
-1.78334e-06
5.12081e-08
-4.10657e-07
-1.84849e-06
4.60164e-08
-3.67984e-07
-1.81319e-06
6.34175e-08
-3.14444e-07
-1.85647e-06
6.14919e-08
-2.82212e-07
-1.82549e-06
7.47971e-08
-2.44943e-07
-1.85044e-06
7.44012e-08
-2.22879e-07
-1.82886e-06
8.29562e-08
-1.98848e-07
-1.84078e-06
8.32432e-08
-1.84267e-07
-1.82924e-06
8.82403e-08
-1.69805e-07
-1.83333e-06
8.88457e-08
-1.60194e-07
-1.82882e-06
9.11643e-08
-1.51585e-07
-1.82967e-06
9.16972e-08
-1.45121e-07
-1.8286e-06
9.24415e-08
-1.39714e-07
-1.82882e-06
9.25946e-08
-1.3528e-07
-1.82904e-06
9.25704e-08
-1.31428e-07
-1.82971e-06
9.22842e-08
-1.27963e-07
-1.83065e-06
9.18315e-08
-1.24683e-07
-1.83189e-06
9.12482e-08
-1.21389e-07
-1.8335e-06
9.05483e-08
-1.17884e-07
-1.83551e-06
8.97577e-08
-1.14017e-07
-1.83795e-06
8.89816e-08
-1.0945e-07
-1.84077e-06
8.81806e-08
-1.04042e-07
-1.84497e-06
8.70989e-08
-9.81043e-08
-1.84732e-06
8.67564e-08
-8.93658e-08
-1.85651e-06
8.50324e-08
-8.08631e-08
-1.85773e-06
8.49536e-08
-6.69804e-08
-1.87255e-06
8.24074e-08
-5.43704e-08
-1.87522e-06
8.25967e-08
-3.22963e-08
-1.89394e-06
7.93597e-08
-1.23577e-08
-1.90619e-06
7.89737e-08
2.03011e-08
-1.92183e-06
7.66747e-08
5.82272e-08
-1.96031e-06
7.1294e-08
9.91177e-08
-1.95898e-06
7.59665e-08
1.61869e-07
-2.03737e-06
6.60433e-08
2.11244e-07
-2.01872e-06
7.95618e-08
2.79187e-07
-2.13003e-06
8.19341e-08
2.92691e-07
-2.10052e-06
1.23886e-07
2.24642e-07
-2.22144e-06
2.1042e-07
-1.45189e-07
-2.09849e-06
3.97801e-07
-1.04916e-06
-2.20713e-06
8.64492e-07
-3.04413e-06
-2.02837e-06
1.60085e-06
-4.71226e-06
-1.55288e-06
1.51561e-06
-5.62441e-06
-3.34944e-07
3.39786e-07
-4.79149e-06
6.84027e-07
-1.41981e-06
-3.79272e-07
-2.64239e-06
-2.67744e-06
2.14285e-07
-6.29163e-06
-9.28112e-08
5.44816e-06
3.60352e-06
-3.34811e-06
2.26942e-06
1.2231e-05
-1.77528e-06
-3.63018e-06
8.42919e-06
-8.63905e-07
-1.13739e-07
-3.39372e-05
8.44454e-07
-2.9396e-06
-3.65059e-05
6.91775e-06
-1.50177e-06
-1.30453e-05
1.34374e-06
8.89368e-06
-1.30646e-05
-2.2192e-06
9.715e-06
6.2259e-07
-2.38316e-06
1.27101e-05
1.07976e-06
-2.70015e-06
1.55867e-05
1.86166e-06
-2.60035e-06
1.75516e-05
2.68576e-06
-1.956e-06
1.86265e-05
3.15279e-06
-1.16127e-06
1.90747e-05
3.23759e-06
-4.74449e-07
1.90891e-05
3.16033e-06
1.0396e-08
1.88111e-05
2.77792e-06
5.18332e-07
1.83609e-05
2.2854e-06
9.23911e-07
1.78388e-05
1.65795e-06
1.25087e-06
1.72765e-05
7.96779e-07
1.57404e-06
1.66276e-05
2.32501e-07
1.72082e-06
1.59302e-05
8.49107e-08
1.68179e-06
1.52008e-05
2.47762e-07
1.68746e-06
1.43042e-05
6.63721e-07
1.57945e-06
1.32202e-05
1.24377e-06
1.43735e-06
1.14888e-05
2.06032e-06
1.76544e-06
8.60551e-06
2.9152e-06
2.34236e-06
5.07911e-06
3.60435e-06
2.63268e-06
2.45023e-06
3.77159e-06
2.64709e-06
9.60773e-07
2.90642e-06
2.38853e-06
-2.16935e-07
1.73088e-06
1.8876e-06
-8.31397e-07
1.10151e-06
9.60478e-07
-4.14548e-07
9.41091e-07
-4.5626e-07
5.51203e-07
7.39913e-07
-1.45166e-06
1.50253e-06
2.21973e-07
-1.68836e-06
2.07559e-06
-2.99303e-07
-1.32193e-06
2.22544e-06
-6.18907e-07
-7.40802e-07
2.06478e-06
-7.15119e-07
-2.97208e-07
1.71537e-06
-7.07461e-07
-7.78431e-08
1.24444e-06
-6.83036e-07
5.20554e-08
6.74037e-07
-6.8517e-07
1.76125e-07
-7.45748e-07
3.09352e-07
-2.40566e-06
-2.9526e-06
-7.61878e-07
-1.27109e-06
-3.71221e-06
-9.5975e-07
-1.1298e-06
-1.70393e-06
-3.41463e-07
-8.9584e-07
-2.11388e-06
-2.51262e-07
-8.68482e-07
-1.46771e-06
-1.90898e-07
-8.3625e-07
-1.62553e-06
-1.62523e-07
-8.19282e-07
-1.48159e-06
-1.85049e-07
-7.57345e-07
-1.61008e-06
-2.06157e-07
-7.00802e-07
-1.57251e-06
-2.09868e-07
-6.11096e-07
-1.67431e-06
-2.29028e-07
-5.44255e-07
-1.63393e-06
-2.16242e-07
-4.62471e-07
-1.70545e-06
-2.2481e-07
-4.08786e-07
-1.66012e-06
-2.06744e-07
-3.48453e-07
-1.70714e-06
-2.09656e-07
-3.12215e-07
-1.66747e-06
-1.94253e-07
-2.72587e-07
-1.69501e-06
-1.95051e-07
-2.48708e-07
-1.66704e-06
-1.85686e-07
-2.23793e-07
-1.67963e-06
-1.86064e-07
-2.08598e-07
-1.66332e-06
-1.81114e-07
-1.93612e-07
-1.66686e-06
-1.81461e-07
-1.84167e-07
-1.65864e-06
-1.79618e-07
-1.7553e-07
-1.65818e-06
-1.80131e-07
-1.69341e-07
-1.65453e-06
-1.80257e-07
-1.6418e-07
-1.65278e-06
-1.81199e-07
-1.60048e-07
-1.65085e-06
-1.82316e-07
-1.56496e-07
-1.6495e-06
-1.83769e-07
-1.53381e-07
-1.64836e-06
-1.85403e-07
-1.50524e-07
-1.64758e-06
-1.87177e-07
-1.47727e-07
-1.64721e-06
-1.89085e-07
-1.44804e-07
-1.64732e-06
-1.91125e-07
-1.41547e-07
-1.64792e-06
-1.93285e-07
-1.37684e-07
-1.64901e-06
-1.95623e-07
-1.33197e-07
-1.65125e-06
-1.98212e-07
-1.2784e-07
-1.65238e-06
-2.00303e-07
-1.206e-07
-1.66024e-06
-2.03509e-07
-1.13383e-07
-1.65952e-06
-2.05428e-07
-1.01e-07
-1.67499e-06
-2.09944e-07
-9.09458e-08
-1.67398e-06
-2.11298e-07
-7.06916e-08
-1.69683e-06
-2.17362e-07
-5.51986e-08
-1.70277e-06
-2.1892e-07
-2.25576e-08
-1.72818e-06
-2.26296e-07
3.4121e-09
-1.75647e-06
-2.29819e-07
5.02025e-08
-1.77197e-06
-2.33803e-07
1.0601e-07
-1.84824e-06
-2.4495e-07
1.60887e-07
-1.83773e-06
-2.35871e-07
2.40497e-07
-1.97096e-06
-2.38686e-07
2.81637e-07
-1.93635e-06
-2.05317e-07
2.91452e-07
-2.11207e-06
-1.19194e-07
1.15077e-07
-1.95393e-06
3.18023e-08
-4.48367e-07
-2.04143e-06
3.97724e-07
-1.86325e-06
-1.57139e-06
9.57883e-07
-3.24854e-06
-1.18784e-06
1.02023e-06
-4.66594e-06
9.27735e-07
1.54699e-07
-4.19305e-06
2.52692e-06
-2.31579e-06
-1.32714e-06
-2.06349e-06
-3.44483e-06
-3.75686e-06
-3.3487e-06
-5.13216e-07
4.995e-06
-3.5492e-06
-1.59914e-06
7.39051e-06
1.62126e-05
-6.37703e-06
1.01402e-05
4.27429e-06
1.40519e-06
3.79119e-06
-2.97839e-05
2.19555e-06
-3.51829e-06
-3.71815e-05
7.98492e-06
-8.46122e-06
-1.11457e-05
3.04327e-06
-8.08341e-06
-1.42796e-05
8.37218e-07
-3.67936e-06
-4.9462e-07
-3.28681e-06
2.15709e-06
-1.54783e-06
-3.20883e-06
4.72855e-06
2.54559e-07
-9.6434e-07
6.35764e-06
6.026e-07
4.54076e-07
6.96431e-06
1.11694e-06
1.42919e-06
6.89357e-06
1.24213e-06
2.0662e-06
6.12422e-06
1.4248e-06
2.50488e-06
4.65581e-06
1.34419e-06
2.90215e-06
2.45233e-06
1.14605e-06
3.34282e-06
-3.84852e-07
5.9502e-07
3.90011e-06
-3.23041e-06
-3.92398e-07
4.03473e-06
-5.14167e-06
-1.16148e-06
3.30525e-06
-6.17327e-06
-1.63594e-06
2.75246e-06
-6.447e-06
-1.83402e-06
2.35551e-06
-6.25523e-06
-1.64478e-06
2.11674e-06
-5.93354e-06
-1.16757e-06
2.08965e-06
-5.62297e-06
-4.80503e-07
2.23026e-06
-5.27523e-06
1.68418e-07
2.39905e-06
-4.69702e-06
5.61934e-07
2.4642e-06
-3.98461e-06
7.2107e-07
2.33811e-06
-3.50381e-06
4.77116e-07
1.94851e-06
-3.29903e-06
2.62937e-07
1.26317e-06
-2.7565e-06
3.61505e-07
1.97478e-07
-1.61401e-06
6.79208e-07
-8.80591e-07
-1.46607e-07
9.16784e-07
-1.64427e-06
1.14755e-06
7.61932e-07
-1.83411e-06
1.97327e-06
3.44061e-07
-1.46908e-06
2.3115e-06
5.13242e-08
-1.00846e-06
2.28322e-06
-7.57429e-08
-6.1109e-07
2.02969e-06
-9.02147e-08
-3.63713e-07
1.61395e-06
-5.48914e-08
-2.12403e-07
1.00664e-06
2.72976e-08
-1.05154e-07
2.15367e-07
4.5527e-08
-2.65735e-06
-2.32956e-06
-7.41268e-07
-1.47632e-06
-3.71125e-06
-1.18199e-06
-1.43232e-06
-1.27384e-06
-4.74112e-07
-1.12079e-06
-2.01478e-06
-4.10648e-07
-1.03024e-06
-1.21413e-06
-3.44141e-07
-9.46138e-07
-1.42808e-06
-2.81565e-07
-9.03037e-07
-1.20326e-06
-3.21428e-07
-8.37448e-07
-1.33437e-06
-3.41293e-07
-7.67715e-07
-1.26948e-06
-3.72751e-07
-6.76731e-07
-1.3636e-06
-4.01683e-07
-5.9358e-07
-1.30692e-06
-4.10153e-07
-5.10663e-07
-1.36581e-06
-4.22546e-07
-4.44185e-07
-1.30827e-06
-4.18315e-07
-3.82914e-07
-1.34517e-06
-4.23227e-07
-3.39737e-07
-1.29539e-06
-4.15245e-07
-3.00049e-07
-1.31734e-06
-4.17347e-07
-2.74118e-07
-1.28177e-06
-4.11198e-07
-2.4985e-07
-1.29123e-06
-4.12658e-07
-2.34049e-07
-1.26884e-06
-4.10271e-07
-2.19589e-07
-1.26948e-06
-4.11827e-07
-2.10329e-07
-1.25658e-06
-4.1132e-07
-2.02135e-07
-1.25336e-06
-4.13008e-07
-1.96454e-07
-1.24597e-06
-4.1424e-07
-1.91821e-07
-1.24109e-06
-4.16321e-07
-1.88265e-07
-1.23584e-06
-4.18574e-07
-1.85271e-07
-1.23121e-06
-4.21273e-07
-1.82751e-07
-1.22682e-06
-4.24062e-07
-1.80504e-07
-1.22295e-06
-4.26873e-07
-1.78322e-07
-1.21964e-06
-4.29758e-07
-1.76016e-07
-1.21695e-06
-4.32675e-07
-1.73459e-07
-1.2149e-06
-4.35584e-07
-1.70536e-07
-1.21342e-06
-4.38514e-07
-1.67132e-07
-1.21296e-06
-4.417e-07
-1.62701e-07
-1.21197e-06
-4.44837e-07
-1.56939e-07
-1.21699e-06
-4.49021e-07
-1.5088e-07
-1.21394e-06
-4.51639e-07
-1.41089e-07
-1.22785e-06
-4.56936e-07
-1.32748e-07
-1.22356e-06
-4.58771e-07
-1.16083e-07
-1.24788e-06
-4.65631e-07
-1.04792e-07
-1.24741e-06
-4.66659e-07
-7.60573e-08
-1.28148e-06
-4.75446e-07
-5.72858e-08
-1.29848e-06
-4.76772e-07
-1.09459e-08
-1.33362e-06
-4.84696e-07
2.34587e-08
-1.39511e-06
-4.87545e-07
8.26036e-08
-1.41198e-06
-4.84907e-07
1.39635e-07
-1.55213e-06
-4.75872e-07
1.8553e-07
-1.53341e-06
-4.48851e-07
1.79941e-07
-1.74604e-06
-3.60455e-07
1.04846e-07
-1.63328e-06
-2.45571e-07
-2.27255e-07
-1.77069e-06
6.13473e-08
-8.50373e-07
-1.43758e-06
4.8929e-07
-1.64013e-06
-1.18162e-06
7.83508e-07
-2.25998e-06
1.06971e-06
4.77858e-07
-1.12377e-06
3.8808e-06
-2.49012e-06
2.48914e-06
-1.34513e-06
-4.3313e-06
3.85936e-06
-1.00152e-06
-3.71742e-06
9.68855e-06
-2.8171e-06
-6.56131e-06
1.49702e-05
1.83648e-05
-7.43389e-06
1.548e-05
-1.00888e-05
1.38533e-05
1.10432e-06
-1.82185e-05
2.81019e-06
-1.20818e-05
-3.18092e-05
7.81384e-06
-1.7667e-05
-9.8995e-06
4.33905e-06
-2.20897e-05
-1.21318e-05
2.27502e-06
-1.93728e-05
-3.9259e-06
7.14406e-07
-1.96173e-05
-2.38579e-06
1.08243e-06
-2.0624e-05
-8.32492e-07
2.09382e-06
-2.20555e-05
-5.06198e-07
2.54033e-06
-2.35129e-05
-1.68312e-07
2.74259e-06
-2.49515e-05
-1.75593e-07
2.85639e-06
-2.61693e-05
-2.17497e-07
2.86005e-06
-2.69859e-05
-6.39802e-07
2.80063e-06
-2.72452e-05
-1.19804e-06
2.6034e-06
-2.69027e-05
-2.0663e-06
2.31883e-06
-2.62242e-05
-2.9338e-06
1.86288e-06
-2.53525e-05
-3.472e-06
1.43883e-06
-2.39395e-05
-4.21719e-06
1.1683e-06
-2.23539e-05
-4.35559e-06
9.3597e-07
-2.04769e-05
-4.3418e-06
8.2008e-07
-1.83775e-05
-4.0469e-06
7.7987e-07
-1.60849e-05
-3.56571e-06
7.92605e-07
-1.37606e-05
-2.93868e-06
7.82829e-07
-1.15198e-05
-2.38762e-06
7.08784e-07
-9.40475e-06
-1.88871e-06
4.9473e-07
-7.57688e-06
-1.41089e-06
6.01362e-08
-6.08835e-06
-8.24481e-07
-4.01103e-07
-4.60271e-06
-1.28276e-07
-9.95848e-07
-2.89595e-06
5.6099e-07
-1.58853e-06
-1.1055e-06
1.05378e-06
-1.92744e-06
4.09579e-07
1.15554e-06
-1.90868e-06
1.44158e-06
1.01003e-06
-1.69796e-06
2.05061e-06
8.12611e-07
-1.37031e-06
2.27128e-06
7.45606e-07
-1.04201e-06
2.05064e-06
7.72598e-07
-6.42174e-07
1.54866e-06
7.66617e-07
-3.19521e-07
9.0845e-07
7.6029e-07
-9.27823e-08
1.20643e-06
-8.26104e-08
-2.81394e-06
-1.52606e-06
-4.82507e-07
-1.56402e-06
-3.56446e-06
-1.39672e-06
-1.66744e-06
-7.60994e-07
-4.09443e-07
-1.30726e-06
-1.92126e-06
-4.53722e-07
-1.15921e-06
-1.00685e-06
-3.55364e-07
-1.00425e-06
-1.32127e-06
-2.61774e-07
-9.24251e-07
-9.69357e-07
-3.1391e-07
-8.56675e-07
-1.07912e-06
-3.22819e-07
-7.87524e-07
-9.4394e-07
-3.94678e-07
-7.0547e-07
-1.0054e-06
-4.40236e-07
-6.18028e-07
-9.09399e-07
-4.8495e-07
-5.41467e-07
-9.31288e-07
-5.11068e-07
-4.66747e-07
-8.43964e-07
-5.39015e-07
-4.11372e-07
-8.4761e-07
-5.52924e-07
-3.61776e-07
-7.75362e-07
-5.69616e-07
-3.25926e-07
-7.75156e-07
-5.78028e-07
-2.96729e-07
-7.22967e-07
-5.87992e-07
-2.74318e-07
-7.19485e-07
-5.94154e-07
-2.58181e-07
-6.84514e-07
-6.00458e-07
-2.45683e-07
-6.76475e-07
-6.055e-07
-2.36533e-07
-6.55499e-07
-6.10223e-07
-2.29309e-07
-6.46193e-07
-6.14389e-07
-2.24339e-07
-6.33123e-07
-6.17813e-07
-2.20441e-07
-6.24048e-07
-6.20939e-07
-2.17601e-07
-6.15299e-07
-6.23373e-07
-2.15593e-07
-6.07768e-07
-6.25454e-07
-2.1436e-07
-6.00819e-07
-6.27229e-07
-2.13382e-07
-5.9515e-07
-6.2878e-07
-2.12471e-07
-5.90651e-07
-6.299e-07
-2.11557e-07
-5.87111e-07
-6.30753e-07
-2.10493e-07
-5.84519e-07
-6.31445e-07
-2.0917e-07
-5.82845e-07
-6.31905e-07
-2.0734e-07
-5.82652e-07
-6.32137e-07
-2.04481e-07
-5.82983e-07
-6.31855e-07
-2.01043e-07
-5.88814e-07
-6.31615e-07
-1.97063e-07
-5.88074e-07
-6.29856e-07
-1.90941e-07
-6.04174e-07
-6.29797e-07
-1.84745e-07
-6.03127e-07
-6.26633e-07
-1.73311e-07
-6.33316e-07
-6.25996e-07
-1.64925e-07
-6.35542e-07
-6.20262e-07
-1.4462e-07
-6.81466e-07
-6.20319e-07
-1.33415e-07
-6.98481e-07
-6.11211e-07
-9.68217e-08
-7.59717e-07
-6.10506e-07
-8.1876e-08
-8.17469e-07
-5.92596e-07
-2.43747e-08
-8.82845e-07
-5.86646e-07
-2.58491e-08
-1.01293e-06
-5.3774e-07
3.06375e-08
-1.07823e-06
-5.11678e-07
-5.82217e-08
-1.28203e-06
-3.75165e-07
-1.15331e-07
-1.28367e-06
-2.92513e-07
-3.65787e-07
-1.46498e-06
-5.52694e-08
-6.73646e-07
-1.21535e-06
8.56116e-08
-1.21551e-06
-9.35665e-07
2.9589e-07
-1.39374e-06
1.28632e-06
-3.84143e-08
-3.10275e-07
4.98341e-06
-2.18611e-06
6.66193e-07
3.05251e-06
-5.37414e-06
4.10854e-07
6.12733e-06
-6.87354e-06
9.86092e-06
-3.24865e-07
-1.19423e-05
2.85896e-05
6.60263e-06
-6.96662e-06
8.75155e-06
-1.21886e-05
2.19378e-05
-2.684e-06
-8.98922e-06
2.20626e-06
-2.37563e-05
-1.9589e-05
8.85234e-06
-3.25257e-05
-5.70332e-06
4.5735e-06
-4.08705e-05
-5.29205e-06
1.50532e-06
-4.31833e-05
-1.52114e-06
-9.16796e-08
-4.44873e-05
-1.04522e-06
-3.62779e-08
-4.54353e-05
-5.90002e-07
7.05832e-07
-4.62154e-05
-5.37103e-07
8.11189e-07
-4.65832e-05
-7.53735e-07
9.53504e-07
-4.66385e-05
-1.02483e-06
9.04707e-07
-4.62579e-05
-1.40881e-06
8.1087e-07
-4.57358e-05
-1.71424e-06
5.52583e-07
-4.48998e-05
-2.32984e-06
2.95956e-07
-4.35521e-05
-3.40753e-06
-6.30769e-09
-4.15362e-05
-4.63368e-06
-3.15917e-07
-4.01011e-05
-4.27647e-06
-6.30492e-07
-3.8181e-05
-5.41339e-06
-7.23789e-07
-3.59698e-05
-5.66737e-06
-8.99367e-07
-3.33917e-05
-5.92491e-06
-9.9493e-07
-3.05252e-05
-5.85908e-06
-1.05429e-06
-2.7348e-05
-5.66208e-06
-1.08083e-06
-2.40298e-05
-5.11119e-06
-1.14569e-06
-2.08238e-05
-4.39611e-06
-1.19742e-06
-1.76806e-05
-3.72044e-06
-1.31153e-06
-1.46549e-05
-2.95424e-06
-1.48233e-06
-1.18186e-05
-1.99672e-06
-1.66404e-06
-9.04775e-06
-1.02454e-06
-1.87458e-06
-6.35738e-06
-7.2461e-08
-2.05692e-06
-3.87572e-06
7.2739e-07
-2.15526e-06
-1.7311e-06
1.06334e-06
-2.05241e-06
-1.55993e-07
1.32155e-06
-1.88663e-06
9.01611e-07
1.45496e-06
-1.69995e-06
1.55269e-06
1.54021e-06
-1.44568e-06
1.59245e-06
1.91307e-06
-1.18023e-06
1.15288e-06
2.0087e-06
-8.02508e-07
7.64692e-07
1.441e-06
-2.92513e-07
1.40641e-06
5.6472e-07
-2.91007e-06
-5.17004e-07
-4.47657e-08
-1.66977e-06
-3.22809e-06
-1.57668e-06
-1.8964e-06
-2.48303e-07
-2.86078e-07
-1.49354e-06
-1.81261e-06
-5.11538e-07
-1.27819e-06
-9.15609e-07
-3.06597e-07
-1.03104e-06
-1.28732e-06
-2.81103e-07
-8.95313e-07
-8.36518e-07
-2.68562e-07
-8.04621e-07
-8.9743e-07
-2.72375e-07
-7.41409e-07
-6.89649e-07
-3.17487e-07
-6.6662e-07
-7.18681e-07
-3.61499e-07
-5.96952e-07
-5.742e-07
-4.04851e-07
-5.25131e-07
-5.5956e-07
-4.43535e-07
-4.61818e-07
-4.28591e-07
-4.78672e-07
-4.12229e-07
-3.95236e-07
-5.01949e-07
-3.69715e-07
-2.9217e-07
-5.25695e-07
-3.39116e-07
-2.67868e-07
-5.37875e-07
-3.14525e-07
-1.95569e-07
-5.5198e-07
-2.96581e-07
-1.78343e-07
-5.59074e-07
-2.83597e-07
-1.31276e-07
-5.66215e-07
-2.74038e-07
-1.16732e-07
-5.69292e-07
-2.66553e-07
-9.03522e-08
-5.72626e-07
-2.60682e-07
-7.87812e-08
-5.73274e-07
-2.56907e-07
-6.43416e-08
-5.72554e-07
-2.53986e-07
-5.56801e-08
-5.71281e-07
-2.5214e-07
-4.79014e-08
-5.69242e-07
-2.51001e-07
-4.19976e-08
-5.66904e-07
-2.50685e-07
-3.73542e-08
-5.6378e-07
-2.50882e-07
-3.45454e-08
-5.60404e-07
-2.51205e-07
-3.31719e-08
-5.57157e-07
-2.51476e-07
-3.31838e-08
-5.53654e-07
-2.51719e-07
-3.44569e-08
-5.49822e-07
-2.51941e-07
-3.69662e-08
-5.45655e-07
-2.52105e-07
-4.12467e-08
-5.41245e-07
-2.51247e-07
-4.69643e-08
-5.36876e-07
-2.50498e-07
-5.74629e-08
-5.32106e-07
-2.49206e-07
-6.29639e-08
-5.26404e-07
-2.4728e-07
-8.51227e-08
-5.20984e-07
-2.44648e-07
-9.13546e-08
-5.14406e-07
-2.38977e-07
-1.30699e-07
-5.08295e-07
-2.35224e-07
-1.40486e-07
-4.98812e-07
-2.24841e-07
-2.01441e-07
-4.90418e-07
-2.22266e-07
-2.25593e-07
-4.75468e-07
-2.02995e-07
-3.12778e-07
-4.66221e-07
-2.0474e-07
-3.71057e-07
-4.44674e-07
-1.73428e-07
-4.81847e-07
-4.32321e-07
-2.00472e-07
-5.96414e-07
-3.89478e-07
-1.78702e-07
-7.36692e-07
-3.63317e-07
-2.83728e-07
-9.02267e-07
-2.74742e-07
-3.45359e-07
-9.95126e-07
-2.2692e-07
-5.58239e-07
-1.14793e-06
-1.04177e-07
-7.55124e-07
-8.76271e-07
-1.42205e-07
-1.1417e-06
-4.58268e-07
-9.08391e-08
-1.54015e-06
1.89935e-06
-2.14601e-07
8.59478e-07
4.21941e-06
-1.63566e-06
3.12609e-06
6.28879e-06
-5.50293e-06
8.54793e-06
9.64959e-06
-8.94415e-06
1.49354e-05
4.70636e-06
-1.14188e-05
3.37197e-05
-2.86129e-06
-9.32044e-06
5.63135e-06
-5.85073e-06
2.17504e-05
-7.33501e-06
3.34704e-07
3.64284e-06
-3.5986e-05
-2.04278e-07
9.26761e-06
-4.93259e-05
2.72102e-06
4.91729e-06
-5.76672e-05
2.4407e-06
6.10548e-07
-6.05916e-05
2.20945e-06
-8.04249e-07
-6.2254e-05
1.6033e-06
-9.84196e-07
-6.32735e-05
1.00985e-06
-5.78193e-07
-6.36251e-05
3.86696e-07
-5.69867e-07
-6.36404e-05
-2.68122e-07
-4.68136e-07
-6.30589e-05
-9.33712e-07
-6.70529e-07
-6.21771e-05
-1.53677e-06
-7.51677e-07
-6.06598e-05
-2.24726e-06
-9.82312e-07
-5.91548e-05
-2.81024e-06
-1.02295e-06
-5.8279e-05
-3.27737e-06
-1.00451e-06
-5.78112e-05
-4.02201e-06
-1.07774e-06
-5.507e-05
-5.37417e-06
-1.6416e-06
-5.36845e-05
-5.44922e-06
-1.34795e-06
-5.15852e-05
-6.18528e-06
-1.58002e-06
-4.93737e-05
-6.55904e-06
-1.57622e-06
-4.68737e-05
-6.79029e-06
-1.56779e-06
-4.43214e-05
-6.69153e-06
-1.52209e-06
-4.12947e-05
-6.56555e-06
-1.57173e-06
-3.78436e-05
-6.30995e-06
-1.53677e-06
-3.41302e-05
-5.93595e-06
-1.49766e-06
-3.0252e-05
-5.35112e-06
-1.48113e-06
-2.61723e-05
-4.56934e-06
-1.50697e-06
-2.19583e-05
-3.60756e-06
-1.63088e-06
-1.78274e-05
-2.49003e-06
-1.71326e-06
-1.38598e-05
-1.518e-06
-1.72222e-06
-1.02888e-05
-9.24153e-07
-1.58345e-06
-7.14546e-06
-4.24264e-07
-1.39754e-06
-4.52347e-06
-8.72088e-08
-1.07981e-06
-2.40149e-06
2.30827e-07
-8.12587e-07
-6.8599e-07
8.34871e-07
-6.37295e-07
5.79414e-07
1.07165e-06
-3.28349e-07
1.16126e-06
1.83701e-07
6.75461e-07
-2.42858e-07
2.81052e-06
-2.74337e-06
1.13211e-06
3.05923e-07
-1.85802e-06
-2.48387e-06
-1.62958e-06
-2.24224e-06
3.33394e-07
-1.97504e-07
-1.79893e-06
-1.5232e-06
-7.32744e-07
-1.47518e-06
-8.38914e-07
-4.00462e-07
-1.1168e-06
-1.13752e-06
-5.08188e-07
-8.91742e-07
-6.76385e-07
-3.85187e-07
-7.4929e-07
-6.52071e-07
-3.87797e-07
-6.57177e-07
-3.93274e-07
-3.88475e-07
-5.80277e-07
-3.56656e-07
-4.38907e-07
-5.16329e-07
-1.64152e-07
-4.73981e-07
-4.45502e-07
-1.10292e-07
-5.20079e-07
-3.94892e-07
5.77425e-08
-5.36929e-07
-3.54992e-07
1.31522e-07
-5.66644e-07
-3.31813e-07
2.64883e-07
-5.80217e-07
-3.14379e-07
3.14309e-07
-5.99599e-07
-3.06066e-07
4.06192e-07
-6.1006e-07
-3.00152e-07
4.39197e-07
-6.23444e-07
-3.00006e-07
4.99326e-07
-6.30736e-07
-3.00349e-07
5.23794e-07
-6.40175e-07
-3.03077e-07
5.60198e-07
-6.47811e-07
-3.06328e-07
5.79854e-07
-6.55377e-07
-3.10361e-07
6.01405e-07
-6.61704e-07
-3.14388e-07
6.1647e-07
-6.68119e-07
-3.18947e-07
6.30241e-07
-6.73575e-07
-3.23568e-07
6.4152e-07
-6.78895e-07
-3.27837e-07
6.509e-07
-6.83978e-07
-3.31782e-07
6.58414e-07
-6.89014e-07
-3.35779e-07
6.64624e-07
-6.93793e-07
-3.40123e-07
6.69344e-07
-6.98184e-07
-3.44688e-07
6.72628e-07
-7.02517e-07
-3.48982e-07
6.74445e-07
-7.0712e-07
-3.53488e-07
6.74541e-07
-7.11278e-07
-3.56879e-07
6.72591e-07
-7.16169e-07
-3.61788e-07
6.67436e-07
-7.19989e-07
-3.65766e-07
6.65076e-07
-7.24067e-07
-3.71598e-07
6.48995e-07
-7.28287e-07
-3.75945e-07
6.4496e-07
-7.31975e-07
-3.81221e-07
6.1193e-07
-7.37356e-07
-3.86443e-07
6.04619e-07
-7.39891e-07
-3.91316e-07
5.49202e-07
-7.45775e-07
-3.97392e-07
5.32086e-07
-7.51615e-07
-3.92658e-07
4.4632e-07
-7.6384e-07
-4.02901e-07
3.99481e-07
-7.60308e-07
-3.87115e-07
2.68742e-07
-7.66383e-07
-4.20672e-07
1.74458e-07
-7.37325e-07
-3.87553e-07
-3.17819e-08
-7.38036e-07
-4.87135e-07
-1.38173e-07
-6.64521e-07
-4.19671e-07
-3.79233e-07
-6.83364e-07
-5.28997e-07
-4.5126e-07
-5.87354e-07
-2.09415e-07
-3.69146e-07
-8.26719e-07
-3.63392e-07
3.08983e-07
-6.13295e-07
-7.85544e-07
2.81529e-06
-4.93819e-07
1.79324e-06
3.27664e-06
-1.63605e-06
5.12815e-06
9.39867e-06
-6.44485e-06
1.2814e-05
1.21604e-05
-1.01967e-05
1.63993e-05
1.30355e-05
-1.19145e-05
3.40334e-05
-1.04242e-05
-1.00712e-05
6.86995e-06
-4.40264e-06
2.57152e-05
-8.7001e-06
1.19364e-05
3.96924e-06
-4.70461e-05
2.60982e-05
1.20468e-05
-6.28245e-05
1.31032e-05
5.40099e-06
-7.13729e-05
1.17153e-05
-7.20982e-07
-7.40862e-05
7.28976e-06
-2.36157e-06
-7.57815e-05
5.94882e-06
-2.64465e-06
-7.59313e-05
3.43184e-06
-2.26688e-06
-7.57707e-05
2.46914e-06
-2.23779e-06
-7.52289e-05
1.24359e-06
-2.04852e-06
-7.42741e-05
3.82822e-07
-2.26633e-06
-7.31037e-05
-3.87373e-07
-2.31471e-06
-7.19085e-05
-9.82801e-07
-2.45475e-06
-7.06362e-05
-1.60383e-06
-2.47386e-06
-6.92336e-05
-2.18674e-06
-2.48844e-06
-6.7741e-05
-3.06111e-06
-2.44868e-06
-6.67919e-05
-3.79593e-06
-2.52255e-06
-6.54611e-05
-4.31172e-06
-2.46377e-06
-6.42283e-05
-4.9473e-06
-2.46643e-06
-6.30209e-05
-5.25156e-06
-2.51074e-06
-6.18256e-05
-5.40625e-06
-2.5752e-06
-6.04148e-05
-5.45381e-06
-2.64452e-06
-5.86286e-05
-5.51097e-06
-2.83705e-06
-5.65026e-05
-5.48638e-06
-2.94634e-06
-5.4096e-05
-5.38302e-06
-2.95682e-06
-5.15022e-05
-5.19365e-06
-2.74886e-06
-4.86664e-05
-4.99126e-06
-2.41149e-06
-4.54269e-05
-4.77194e-06
-2.07269e-06
-4.18819e-05
-4.29398e-06
-1.73883e-06
-3.79054e-05
-3.89143e-06
-1.60151e-06
-3.36566e-05
-3.64646e-06
-1.52555e-06
-2.91682e-05
-3.52295e-06
-1.38902e-06
-2.44187e-05
-3.51941e-06
-1.31677e-06
-1.95097e-05
-3.34433e-06
-1.33336e-06
-1.38581e-05
-3.56322e-06
-1.25315e-06
-8.12292e-06
-3.90573e-06
-7.57645e-07
-4.00095e-06
-4.10849e-06
1.70251e-07
-5.0984e-06
8.54598e-07
-3.4873e-06
2.57336e-06
2.17185e-06
-2.28842e-06
-2.26452e-06
-1.41824e-06
-2.58907e-06
7.54279e-07
-1.20259e-07
-2.00188e-06
-1.15498e-06
-9.55427e-07
-1.51475e-06
-7.95412e-07
-5.30643e-07
-1.10893e-06
-8.61964e-07
-6.8137e-07
-8.09587e-07