/*--------------------------------*- C++ -*----------------------------------*\
| =========                 |                                                 |
| \\      /  F ield         | OpenFOAM: The Open Source CFD Toolbox           |
|  \\    /   O peration     | Version:  2.3.0                                 |
|   \\  /    A nd           | Web:      www.OpenFOAM.org                      |
|    \\/     M anipulation  |                                                 |
\*---------------------------------------------------------------------------*/
FoamFile
{
    version     2.0;
    format      ascii;
    class       surfaceScalarField;
    location    "7";
    object      phi.air;
}
// * * * * * * * * * * * * * * * * * * * * * * * * * * * * * * * * * * * * * //

dimensions      [0 3 -1 0 0 0 0];

internalField   nonuniform List<scalar> 
16448
(
-2.09851e-06
-2.03962e-06
6.23033e-07
-8.35746e-07
-2.00206e-06
7.39298e-07
-5.88954e-07
-1.24427e-06
9.97477e-07
-3.54315e-07
-1.25663e-06
1.02199e-06
-3.4189e-07
-1.05254e-06
1.04011e-06
-3.06332e-07
-1.07989e-06
1.04432e-06
-3.15162e-07
-1.03777e-06
1.04659e-06
-2.89691e-07
-1.07014e-06
1.04466e-06
-2.84818e-07
-1.06202e-06
1.05714e-06
-2.44858e-07
-1.09868e-06
1.05872e-06
-2.28344e-07
-1.09142e-06
1.0749e-06
-1.86201e-07
-1.12176e-06
1.07962e-06
-1.67109e-07
-1.11274e-06
1.09364e-06
-1.33077e-07
-1.13273e-06
1.09869e-06
-1.17485e-07
-1.12428e-06
1.10868e-06
-9.44527e-08
-1.1358e-06
1.11276e-06
-8.3476e-08
-1.13031e-06
1.11933e-06
-6.98262e-08
-1.1361e-06
1.12245e-06
-6.28193e-08
-1.13368e-06
1.12667e-06
-5.55523e-08
-1.13641e-06
1.12913e-06
-5.13751e-08
-1.13606e-06
1.13188e-06
-4.78105e-08
-1.13744e-06
1.13387e-06
-4.55225e-08
-1.13809e-06
1.1358e-06
-4.38633e-08
-1.13912e-06
1.13745e-06
-4.27298e-08
-1.14013e-06
1.13899e-06
-4.19416e-08
-1.14118e-06
1.14038e-06
-4.13416e-08
-1.14235e-06
1.14175e-06
-4.07498e-08
-1.14353e-06
1.14293e-06
-3.96749e-08
-1.14517e-06
1.14408e-06
-3.89871e-08
-1.1457e-06
1.145e-06
-3.66853e-08
-1.14851e-06
1.1462e-06
-3.53801e-08
-1.14799e-06
1.14668e-06
-3.04394e-08
-1.15292e-06
1.14797e-06
-2.75253e-08
-1.15101e-06
1.14809e-06
-1.80754e-08
-1.15873e-06
1.14927e-06
-1.1543e-08
-1.15566e-06
1.14911e-06
4.23681e-09
-1.16583e-06
1.15004e-06
1.77039e-08
-1.1627e-06
1.14922e-06
4.09379e-08
-1.17297e-06
1.14973e-06
6.27316e-08
-1.1705e-06
1.14869e-06
9.29275e-08
-1.1779e-06
1.14769e-06
1.15775e-07
-1.17051e-06
1.14765e-06
1.41176e-07
-1.17082e-06
1.1454e-06
1.49542e-07
-1.15161e-06
1.14323e-06
1.60703e-07
-1.14532e-06
1.13415e-06
1.62942e-07
-1.11766e-06
1.1154e-06
1.97661e-07
-1.10348e-06
1.06875e-06
2.1745e-07
-1.01323e-06
9.93425e-07
2.49573e-07
-8.38764e-07
8.06628e-07
3.71988e-08
-5.90301e-07
8.02661e-07
-1.31999e-06
1.13117e-07
1.24406e-06
-2.275e-06
-7.02381e-07
1.65739e-06
9.04799e-07
-5.69518e-06
2.51537e-06
6.23533e-06
-7.77331e-06
2.44276e-06
1.03381e-05
-7.39113e-06
3.28837e-06
1.36715e-05
-6.49337e-06
3.15994e-06
1.07122e-05
-3.37014e-06
6.32939e-06
1.15481e-05
-3.64819e-06
2.81228e-06
-1.06139e-05
1.04459e-05
1.13395e-05
-3.18302e-05
-5.0702e-06
-5.29135e-06
-6.42904e-05
-2.04446e-05
4.19074e-06
-4.39458e-05
-4.39103e-06
9.96804e-06
2.37038e-06
-2.17039e-06
4.55899e-06
3.09421e-05
-5.18185e-06
4.97879e-06
3.13445e-05
-4.30424e-06
3.71846e-06
3.14718e-05
-3.11485e-06
2.8662e-06
3.13211e-05
-2.31627e-06
2.43711e-06
3.07346e-05
-1.61038e-06
2.21362e-06
3.01732e-05
-1.62327e-06
2.14411e-06
2.94892e-05
-1.31056e-06
1.96576e-06
2.87307e-05
-8.56092e-07
1.61068e-06
2.79572e-05
-5.75298e-07
1.32995e-06
2.70569e-05
-3.14868e-07
1.20141e-06
2.62486e-05
-1.45046e-07
9.43943e-07
2.55835e-05
-5.2503e-07
1.19318e-06
2.50497e-05
-7.81256e-07
1.32116e-06
2.51588e-05
-1.95117e-06
1.79065e-06
2.58065e-05
-2.91596e-06
2.22237e-06
2.65605e-05
-2.87217e-06
2.10032e-06
2.74022e-05
-2.49299e-06
1.66382e-06
2.79519e-05
-1.64548e-06
1.10178e-06
2.85537e-05
-1.18436e-06
5.3685e-07
2.86928e-05
-4.44201e-07
2.84938e-07
2.76255e-05
7.0029e-07
3.7915e-07
2.38684e-05
3.16284e-06
6.57731e-07
1.51361e-05
6.97942e-06
1.68748e-06
4.02877e-06
7.47391e-06
3.6712e-06
-4.55877e-06
3.44662e-06
5.31181e-06
-1.07656e-05
1.09459e-06
5.267e-06
-1.35953e-05
1.17077e-06
1.81497e-06
-1.19905e-05
1.49537e-06
-3.03571e-06
-7.76249e-06
4.88326e-07
-4.66522e-06
-4.01222e-06
-6.66328e-07
-3.0107e-06
-1.89752e-06
-9.20509e-07
-1.14266e-06
-1.01244e-06
-7.42832e-07
-1.25522e-07
-6.06453e-07
3.2805e-07
-2.18361e-06
-2.8981e-06
-3.02609e-07
-1.02205e-06
-3.0358e-06
-1.27823e-07
-8.33664e-07
-1.757e-06
3.24333e-07
-6.29432e-07
-1.84301e-06
3.82136e-07
-6.39617e-07
-1.46353e-06
4.21162e-07
-6.10272e-07
-1.52984e-06
4.20591e-07
-6.08533e-07
-1.45883e-06
4.19313e-07
-5.66782e-07
-1.52199e-06
4.10095e-07
-5.35975e-07
-1.5151e-06
4.22263e-07
-4.72583e-07
-1.57914e-06
4.17057e-07
-4.30674e-07
-1.57252e-06
4.39186e-07
-3.66901e-07
-1.62533e-06
4.39787e-07
-3.28785e-07
-1.61323e-06
4.62366e-07
-2.77519e-07
-1.64942e-06
4.65412e-07
-2.48435e-07
-1.63717e-06
4.838e-07
-2.12527e-07
-1.65919e-06
4.87467e-07
-1.92458e-07
-1.651e-06
5.00609e-07
-1.70135e-07
-1.663e-06
5.04561e-07
-1.57078e-07
-1.65969e-06
5.12937e-07
-1.44302e-07
-1.66592e-06
5.16728e-07
-1.36136e-07
-1.66612e-06
5.2188e-07
-1.29125e-07
-1.66956e-06
5.25085e-07
-1.24158e-07
-1.67136e-06
5.28291e-07
-1.20283e-07
-1.67381e-06
5.30806e-07
-1.17395e-07
-1.67604e-06
5.33004e-07
-1.15159e-07
-1.67837e-06
5.34937e-07
-1.13492e-07
-1.68061e-06
5.3657e-07
-1.11924e-07
-1.68292e-06
5.37796e-07
-1.10284e-07
-1.68593e-06
5.39106e-07
-1.09012e-07
-1.68767e-06
5.40675e-07
-1.06297e-07
-1.6927e-06
5.4145e-07
-1.04497e-07
-1.69245e-06
5.42639e-07
-9.91667e-08
-1.70115e-06
5.42877e-07
-9.59176e-08
-1.69853e-06
5.44246e-07
-8.5737e-08
-1.7124e-06
5.43457e-07
-7.9029e-08
-1.70763e-06
5.45239e-07
-6.16555e-08
-1.72661e-06
5.43377e-07
-4.92667e-08
-1.72122e-06
5.46099e-07
-2.14787e-08
-1.74382e-06
5.43034e-07
-1.29661e-09
-1.73864e-06
5.47928e-07
3.25513e-08
-1.75881e-06
5.47025e-07
5.40424e-08
-1.74893e-06
5.56888e-07
7.46155e-08
-1.75494e-06
5.63513e-07
7.29833e-08
-1.72922e-06
5.79203e-07
6.10654e-08
-1.7177e-06
5.84263e-07
5.32835e-08
-1.68725e-06
5.77338e-07
1.25886e-07
-1.70677e-06
5.30654e-07
2.12974e-07
-1.59715e-06
4.96794e-07
4.86181e-07
-1.49853e-06
3.86526e-07
5.21125e-07
-1.01683e-06
3.91548e-07
1.26474e-06
-1.10822e-06
4.77682e-07
3.94568e-06
-3.65964e-06
2.76285e-07
7.4622e-06
-1.02258e-05
1.01409e-06
1.23264e-05
-1.24901e-05
-1.47452e-07
1.62846e-05
-1.05288e-05
-8.20521e-07
2.09991e-05
-8.75711e-06
-2.45079e-06
2.03972e-05
-3.82557e-06
1.05724e-06
2.35862e-05
-5.04834e-06
-1.7886e-06
-4.47269e-06
1.77924e-05
2.03142e-05
-3.21089e-05
-7.04024e-06
-3.15578e-06
-7.24447e-05
-2.44845e-05
-1.19424e-06
-3.00274e-05
-8.84132e-06
1.1816e-05
8.58835e-06
-7.31805e-06
4.29432e-06
8.69461e-06
-6.69003e-06
1.22286e-06
9.46701e-06
-4.92202e-06
5.65649e-08
9.93053e-06
-3.57668e-06
4.61245e-08
8.1884e-06
-1.48368e-06
9.527e-07
4.16947e-06
5.47325e-07
1.87276e-06
4.68622e-07
1.95986e-07
1.85874e-06
-1.83357e-06
-3.52691e-07
1.33091e-06
-3.95684e-06
3.38399e-07
9.13542e-07
-5.81813e-06
1.01451e-06
2.58029e-07
-7.05576e-06
9.36308e-07
-1.51786e-08
-6.8476e-06
-3.73965e-07
5.32464e-08
-4.95608e-06
-2.74915e-06
4.0524e-07
-2.40948e-06
-4.4041e-06
1.14841e-06
2.50556e-07
-6.80457e-06
2.23035e-06
3.35924e-06
-8.48367e-06
2.43808e-06
6.84556e-06
-8.11528e-06
1.7763e-06
1.01431e-05
-6.30998e-06
5.39182e-07
1.16226e-05
-3.04359e-06
-5.36744e-08
1.20144e-05
-1.62199e-06
2.59424e-08
1.29799e-05
-1.39144e-06
-4.06947e-08
1.43357e-05
-3.24588e-07
-2.69822e-07
1.3274e-05
4.78419e-06
-3.70565e-07
8.18643e-06
1.10446e-05
9.96982e-07
1.78471e-06
1.05136e-05
3.39975e-06
-4.36469e-06
5.20423e-06
4.57124e-06
-9.92216e-06
2.37172e-06
4.35939e-06
-1.2899e-05
2.29355e-06
2.01189e-06
-1.14222e-05
3.48145e-06
-3.39514e-06
-7.63934e-06
2.99566e-06
-6.18277e-06
-3.70498e-06
1.1723e-06
-5.62705e-06
-1.49755e-06
3.97859e-08
-3.06245e-06
-8.20517e-07
4.29969e-08
-1.44105e-06
1.28389e-07
-7.45928e-07
-2.18266e-06
-3.12247e-06
-6.04509e-07
-1.05477e-06
-3.46113e-06
-7.02563e-07
-8.64172e-07
-1.8249e-06
-1.22711e-07
-6.56769e-07
-2.02055e-06
-2.98753e-08
-6.50709e-07
-1.49411e-06
2.45082e-08
-6.32477e-07
-1.58537e-06
3.72844e-08
-6.31209e-07
-1.48458e-06
2.44684e-08
-5.94774e-07
-1.57039e-06
1.1949e-08
-5.60482e-07
-1.56159e-06
1.21921e-08
-4.96749e-07
-1.64458e-06
1.69336e-09
-4.47142e-07
-1.63559e-06
1.34488e-08
-3.81816e-07
-1.7011e-06
1.04395e-08
-3.37815e-07
-1.68361e-06
2.63606e-08
-2.86142e-07
-1.72809e-06
2.69864e-08
-2.5383e-07
-1.71016e-06
4.06642e-08
-2.18003e-07
-1.73712e-06
4.20999e-08
-1.96749e-07
-1.72401e-06
5.17496e-08
-1.74456e-07
-1.73846e-06
5.315e-08
-1.61399e-07
-1.73161e-06
5.88459e-08
-1.48723e-07
-1.73857e-06
5.9954e-08
-1.41036e-07
-1.73668e-06
6.28572e-08
-1.34255e-07
-1.73997e-06
6.36236e-08
-1.29756e-07
-1.7406e-06
6.47216e-08
-1.26258e-07
-1.74239e-06
6.50627e-08
-1.23798e-07
-1.74374e-06
6.52305e-08
-1.21955e-07
-1.7453e-06
6.50765e-08
-1.20517e-07
-1.74683e-06
6.47639e-08
-1.19285e-07
-1.74837e-06
6.42065e-08
-1.18181e-07
-1.75047e-06
6.3414e-08
-1.17323e-07
-1.75138e-06
6.28321e-08
-1.15387e-07
-1.75643e-06
6.17741e-08
-1.1398e-07
-1.75503e-06
6.11478e-08
-1.09704e-07
-1.76496e-06
5.95129e-08
-1.06655e-07
-1.76091e-06
5.9299e-08
-9.76068e-08
-1.77807e-06
5.66006e-08
-9.06121e-08
-1.77186e-06
5.72138e-08
-7.35681e-08
-1.79702e-06
5.33423e-08
-5.97477e-08
-1.79042e-06
5.5355e-08
-3.07734e-08
-1.8237e-06
5.08735e-08
-7.2263e-09
-1.81862e-06
5.64071e-08
3.31364e-08
-1.85508e-06
5.58845e-08
6.16316e-08
-1.84726e-06
6.98088e-08
9.61773e-08
-1.8727e-06
8.31798e-08
9.91844e-08
-1.84465e-06
1.12396e-07
8.88912e-08
-1.84417e-06
1.36724e-07
1.09912e-07
-1.84875e-06
1.40447e-07
2.83809e-07
-1.98798e-06
1.07281e-07
6.89206e-07
-2.05624e-06
5.36591e-08
1.58608e-06
-2.39591e-06
4.74268e-10
2.84536e-06
-2.08867e-06
-1.87474e-07
4.98293e-06
-2.74982e-06
-4.96003e-07
8.50376e-06
-7.96217e-06
7.81659e-07
1.14879e-05
-1.42176e-05
1.0076e-06
1.514e-05
-1.55417e-05
-6.00698e-07
1.81478e-05
-1.16394e-05
-1.89725e-06
2.23585e-05
-8.82007e-06
-4.14779e-06
2.38443e-05
-3.25565e-06
-2.05577e-06
2.97792e-05
-8.93127e-06
-2.05181e-06
-3.42005e-06
2.77312e-05
2.24409e-05
-3.7176e-05
-7.70558e-06
-3.15223e-06
-8.30212e-05
-2.25847e-05
-8.7125e-06
-3.90385e-05
-8.51654e-06
2.24221e-07
4.07671e-06
-3.90391e-06
-5.07601e-06
2.96227e-06
-2.47564e-06
-1.07092e-06
4.50287e-06
-4.03982e-07
-3.85109e-06
4.42898e-06
2.29735e-06
-2.95837e-06
3.16869e-06
4.32865e-06
-2.84973e-06
9.18635e-07
4.95753e-06
-2.23483e-06
-1.71301e-06
5.49737e-06
-1.66029e-06
-4.12431e-06
3.73299e-06
-9.84074e-07
-6.19368e-06
3.17092e-06
-4.20916e-07
-8.23373e-06
2.55603e-06
2.55487e-07
-1.00962e-05
1.15515e-06
9.95271e-07
-1.0498e-05
-1.35346e-06
5.95949e-07
-9.27343e-06
-4.17134e-06
1.93173e-07
-7.6729e-06
-6.26304e-06
2.88463e-07
-5.79783e-06
-9.01437e-06
5.22182e-07
-3.0287e-06
-1.10023e-05
3.07759e-07
1.63907e-06
-1.123e-05
-1.47339e-06
6.76063e-06
-8.02401e-06
-3.42569e-06
1.0513e-05
-2.47789e-06
-4.35237e-06
1.153e-05
1.1825e-06
-3.89128e-06
9.88109e-06
1.92268e-06
-1.77261e-06
5.94065e-06
3.78535e-06
-1.70633e-07
1.89773e-06
8.788e-06
1.49059e-08
-5.69085e-07
1.20894e-05
1.48905e-06
-2.56889e-06
8.92136e-06
3.71775e-06
-6.38632e-06
4.53064e-06
4.6091e-06
-1.06377e-05
2.24495e-06
4.42531e-06
-1.26481e-05
2.64154e-06
1.76621e-06
-1.09223e-05
4.45079e-06
-2.60411e-06
-7.16677e-06
5.47487e-06
-6.11473e-06
-3.314e-06
4.24165e-06
-6.68501e-06
-1.09567e-06
2.39529e-06
-4.36975e-06
-5.76678e-07
1.78323e-06
-2.20592e-06
1.69048e-06
-1.25656e-06
-2.42342e-06
-2.83424e-06
-6.73587e-07
-1.3243e-06
-3.67567e-06
-8.84586e-07
-1.14878e-06
-1.6429e-06
-3.57523e-07
-8.73074e-07
-2.05815e-06
-2.38122e-07
-8.14191e-07
-1.36236e-06
-1.90657e-07
-7.73441e-07
-1.47977e-06
-1.46367e-07
-7.56574e-07
-1.31615e-06
-1.85315e-07
-7.14776e-07
-1.40951e-06
-2.02689e-07
-6.6808e-07
-1.38548e-06
-2.2282e-07
-5.92612e-07
-1.47502e-06
-2.45032e-07
-5.25387e-07
-1.45842e-06
-2.44402e-07
-4.49402e-07
-1.52438e-06
-2.52721e-07
-3.92161e-07
-1.49983e-06
-2.41028e-07
-3.33724e-07
-1.54461e-06
-2.41925e-07
-2.94788e-07
-1.52031e-06
-2.28793e-07
-2.56188e-07
-1.54821e-06
-2.27523e-07
-2.31627e-07
-1.53004e-06
-2.18546e-07
-2.07783e-07
-1.54455e-06
-2.17761e-07
-1.93313e-07
-1.53373e-06
-2.12355e-07
-1.79716e-07
-1.54001e-06
-2.12164e-07
-1.71657e-07
-1.53486e-06
-2.09885e-07
-1.64535e-07
-1.53693e-06
-2.10181e-07
-1.59997e-07
-1.53519e-06
-2.09964e-07
-1.56485e-07
-1.5352e-06
-2.10717e-07
-1.54114e-07
-1.53451e-06
-2.1162e-07
-1.52422e-07
-1.5341e-06
-2.12908e-07
-1.5128e-07
-1.53362e-06
-2.14364e-07
-1.50428e-07
-1.53313e-06
-2.16109e-07
-1.49842e-07
-1.53305e-06
-2.18022e-07
-1.49134e-07
-1.53217e-06
-2.19934e-07
-1.48362e-07
-1.53529e-06
-2.21934e-07
-1.47457e-07
-1.53206e-06
-2.23895e-07
-1.4433e-07
-1.54111e-06
-2.27e-07
-1.42161e-07
-1.53476e-06
-2.28336e-07
-1.34582e-07
-1.5528e-06
-2.32872e-07
-1.28903e-07
-1.54434e-06
-2.33225e-07
-1.12723e-07
-1.57399e-06
-2.39237e-07
-9.8468e-08
-1.56669e-06
-2.38011e-07
-6.81696e-08
-1.61053e-06
-2.43497e-07
-4.02815e-08
-1.6091e-06
-2.3744e-07
7.80765e-09
-1.66758e-06
-2.35617e-07
4.78489e-08
-1.67269e-06
-2.14641e-07
9.9955e-08
-1.73393e-06
-1.90898e-07
1.10329e-07
-1.70917e-06
-1.45884e-07
8.63441e-08
-1.70671e-06
-1.13508e-07
1.07177e-07
-1.74121e-06
-1.28412e-07
3.07364e-07
-1.97768e-06
-2.10526e-07
8.8044e-07
-2.28779e-06
-3.41557e-07
2.1593e-06
-3.07217e-06
-6.02644e-07
4.82916e-06
-3.61601e-06
-1.14256e-06
8.47294e-06
-5.26734e-06
-1.1263e-06
1.18556e-05
-1.17942e-05
4.49254e-07
1.17814e-05
-1.38812e-05
-2.62246e-07
1.11887e-05
-1.18781e-05
-3.07095e-06
1.17613e-05
-4.86234e-06
-7.34974e-06
1.295e-05
-6.31548e-06
-3.69326e-06
1.80532e-05
-5.57064e-06
-2.78838e-06
1.90555e-05
-1.27819e-05
2.84828e-06
-2.73796e-06
2.76947e-05
2.01682e-05
-4.49268e-05
-4.20233e-06
-6.36533e-06
-0.000108579
-1.34727e-05
-9.79028e-06
-0.000107147
-2.52706e-06
4.53824e-07
-0.000108066
-1.13152e-06
-2.49937e-06
-0.00010871
9.4015e-07
-8.23001e-07
-0.000103991
2.22947e-06
-3.33291e-06
-8.9255e-05
5.19353e-06
-2.77634e-06
-4.04042e-05
6.53268e-06
-2.18412e-06
-2.79474e-05
7.49618e-06
-3.87324e-07
-8.05785e-05
7.89756e-06
-2.04273e-07
-0.00011523
6.39104e-06
-5.24458e-08
-0.000121023
5.21811e-06
-7.93535e-07
-0.000121324
2.91165e-06
-1.01843e-06
-0.000115328
3.99752e-07
-1.45536e-06
-6.18238e-05
-2.69501e-06
-1.1439e-06
-1.2296e-05
-5.75196e-06
-1.1045e-06
-3.40045e-05
-8.16674e-06
-7.8152e-07
-7.0744e-05
-1.08151e-05
1.22066e-07
-7.70418e-05
-1.2327e-05
1.14368e-06
-3.96585e-05
-1.30137e-05
2.56703e-06
-7.32033e-06
-1.28186e-05
3.39373e-06
-4.32442e-06
-8.56939e-06
3.39486e-06
-4.22922e-06
-3.77578e-06
4.2975e-06
-6.28918e-06
-1.65549e-06
4.00894e-06
-8.22475e-06
2.64816e-06
3.23243e-06
-8.4064e-06
5.11254e-06
3.88888e-06
-7.68168e-06
6.12729e-06
5.19422e-06
-8.18487e-06
3.57642e-06
5.91441e-06
-1.04631e-05
1.79198e-06
5.096e-06
-1.26745e-05
1.11598e-06
3.37552e-06
-1.27324e-05
2.63448e-06
1.58973e-07
-1.07089e-05
5.21233e-06
-2.70195e-06
-6.68691e-06
7.56529e-06
-5.97446e-06
-2.60675e-06
7.41914e-06
-6.96675e-06
-3.58049e-07
5.36207e-06
-4.93029e-06
-1.473e-07
4.22616e-06
-2.5498e-06
3.99198e-06
-1.47482e-06
-2.65839e-06
-2.34164e-06
-5.35728e-07
-1.46642e-06
-3.7863e-06
-1.08134e-06
-1.42269e-06
-1.25885e-06
-4.27789e-07
-1.08588e-06
-2.05197e-06
-3.42993e-07
-9.64985e-07
-1.19175e-06
-2.91517e-07
-8.61102e-07
-1.37713e-06
-2.06537e-07
-8.18611e-07
-1.09675e-06
-2.61899e-07
-7.75778e-07
-1.18042e-06
-2.71933e-07
-7.2761e-07
-1.10741e-06
-3.26244e-07
-6.59304e-07
-1.1764e-06
-3.66929e-07
-5.83648e-07
-1.13911e-06
-3.9497e-07
-5.09988e-07
-1.18391e-06
-4.14137e-07
-4.41182e-07
-1.14653e-06
-4.22105e-07
-3.83098e-07
-1.17465e-06
-4.28051e-07
-3.35444e-07
-1.14117e-06
-4.26809e-07
-2.96615e-07
-1.15896e-06
-4.28092e-07
-2.68197e-07
-1.13339e-06
-4.25077e-07
-2.44705e-07
-1.14228e-06
-4.25768e-07
-2.28426e-07
-1.12579e-06
-4.24229e-07
-2.14932e-07
-1.12804e-06
-4.25479e-07
-2.06161e-07
-1.11833e-06
-4.25316e-07
-1.99083e-07
-1.11719e-06
-4.26832e-07
-1.94521e-07
-1.1119e-06
-4.27862e-07
-1.91149e-07
-1.10895e-06
-4.29637e-07
-1.88992e-07
-1.10518e-06
-4.31499e-07
-1.87605e-07
-1.10172e-06
-4.33788e-07
-1.86906e-07
-1.09825e-06
-4.36089e-07
-1.8649e-07
-1.09506e-06
-4.38502e-07
-1.86276e-07
-1.09235e-06
-4.40933e-07
-1.86123e-07
-1.08911e-06
-4.43231e-07
-1.86614e-07
-1.08966e-06
-4.45157e-07
-1.864e-07
-1.08484e-06
-4.47449e-07
-1.85532e-07
-1.0913e-06
-4.50693e-07
-1.84263e-07
-1.0836e-06
-4.5245e-07
-1.80557e-07
-1.10008e-06
-4.5644e-07
-1.75758e-07
-1.0916e-06
-4.57566e-07
-1.6494e-07
-1.1229e-06
-4.6193e-07
-1.51795e-07
-1.1187e-06
-4.61157e-07
-1.26864e-07
-1.17313e-06
-4.62355e-07
-9.85982e-08
-1.18301e-06
-4.54373e-07
-5.43625e-08
-1.27026e-06
-4.41586e-07
-5.773e-09
-1.30859e-06
-4.12715e-07
7.16019e-08
-1.43488e-06
-3.76451e-07
1.31991e-07
-1.45194e-06
-3.17644e-07
1.67547e-07
-1.45322e-06
-2.8907e-07
2.94388e-07
-1.52952e-06
-3.38554e-07
6.56742e-07
-1.83873e-06
-5.01331e-07
1.36003e-06
-2.2865e-06
-7.04606e-07
3.02836e-06
-3.49875e-06
-1.24177e-06
6.43162e-06
-4.89387e-06
-2.12543e-06
1.00086e-05
-8.51201e-06
-3.32322e-07
1.15182e-05
-1.29016e-05
-4.02205e-07
1.07254e-05
-1.20269e-05
-1.06154e-06
9.7705e-06
-7.19005e-06
-3.7331e-06
8.95131e-06
4.04566e-06
-8.08886e-06
3.67749e-06
1.94948e-06
-2.99111e-06
-5.65259e-06
5.35119e-06
-1.59171e-06
-1.9976e-05
-2.53e-06
4.07148e-06
-2.6175e-06
-1.328e-06
9.46983e-06
-4.70124e-05
-3.99989e-07
-7.24348e-06
-0.000118106
8.63385e-07
-1.06649e-05
-0.000118304
3.42359e-06
7.02314e-07
-0.000121466
3.71291e-06
-2.09469e-06
-0.000124354
4.2201e-06
-7.29541e-07
-0.00012426
5.34427e-06
-2.27447e-06
-0.000124634
6.90214e-06
-2.47683e-06
-0.000124369
8.49549e-06
-1.98899e-06
-0.000125308
9.85616e-06
-1.30097e-06
-0.000129329
1.00001e-05
-8.68872e-07
-0.000132821
8.3013e-06
-9.43037e-07
-0.000132788
6.03396e-06
-9.88798e-07
-0.000132062
2.17376e-06
-6.36139e-07
-0.000130363
-1.66016e-06
-4.49362e-08
-0.000128405
-5.20086e-06
1.04143e-06
-0.000127797
-7.42077e-06
1.86963e-06
-0.000127944
-1.12309e-05
2.94171e-06
-0.000129237
-1.34765e-05
3.99438e-06
-0.000131332
-1.46817e-05
5.06645e-06
-0.000133186
-1.4876e-05
5.70174e-06
-0.000131675
-1.38175e-05
5.8325e-06
-0.00012009
-1.10204e-05
5.61589e-06
-9.19703e-05
-7.63394e-06
5.57535e-06
-4.47394e-05
-5.61392e-06
5.87254e-06
-1.5557e-05
-4.76255e-06
5.7197e-06
-1.45158e-05
-3.31192e-06
6.31408e-06
-1.28511e-05
-2.51802e-06
6.09297e-06
-1.27028e-05
-2.45246e-06
5.53312e-06
-1.38077e-05
-1.70471e-06
4.66945e-06
-1.4454e-05
-1.53074e-07
1.97717e-06
-1.31662e-05
2.52001e-06
-1.09542e-06
-1.06301e-05
6.21888e-06
-3.44651e-06
-6.58829e-06
9.35631e-06
-5.65436e-06
-2.59658e-06
9.79294e-06
-6.06108e-06
-5.49565e-07
7.9167e-06
-4.34252e-06
-4.37377e-07
6.52818e-06
-2.32832e-06
6.19476e-06
-1.61603e-06
-2.76817e-06
-1.68937e-06
-2.68387e-07
-1.49128e-06
-3.79478e-06
-1.26841e-06
-1.61192e-06
-8.42281e-07
-2.95948e-07
-1.24039e-06
-2.10726e-06
-3.16258e-07
-1.05946e-06
-1.15084e-06
-2.21846e-07
-8.79738e-07
-1.44616e-06
-1.10695e-07
-8.02273e-07
-1.01665e-06
-1.57568e-07
-7.53016e-07
-1.07674e-06
-1.52942e-07
-7.18132e-07
-8.9179e-07
-2.50505e-07
-6.66719e-07
-9.10085e-07
-3.17735e-07
-6.03737e-07
-8.16679e-07
-3.85418e-07
-5.37269e-07
-8.21348e-07
-4.29031e-07
-4.68541e-07
-7.45669e-07
-4.69599e-07
-4.15395e-07
-7.34576e-07
-4.93224e-07
-3.64644e-07
-6.73961e-07
-5.17963e-07
-3.29047e-07
-6.63996e-07
-5.30563e-07
-2.98627e-07
-6.19319e-07
-5.44497e-07
-2.76738e-07
-6.11941e-07
-5.52236e-07
-2.6019e-07
-5.81784e-07
-5.60565e-07
-2.48591e-07
-5.73517e-07
-5.66124e-07
-2.39822e-07
-5.55626e-07
-5.7148e-07
-2.33609e-07
-5.48149e-07
-5.75257e-07
-2.29513e-07
-5.37721e-07
-5.78281e-07
-2.26687e-07
-5.31212e-07
-5.8057e-07
-2.25072e-07
-5.24838e-07
-5.81966e-07
-2.24449e-07
-5.19665e-07
-5.82682e-07
-2.24712e-07
-5.15087e-07
-5.82905e-07
-2.25396e-07
-5.11173e-07
-5.83214e-07
-2.26652e-07
-5.07963e-07
-5.8314e-07
-2.27811e-07
-5.04941e-07
-5.83018e-07
-2.29781e-07
-5.05136e-07
-5.82561e-07
-2.30801e-07
-5.02e-07
-5.81831e-07
-2.3331e-07
-5.0863e-07
-5.8017e-07
-2.34387e-07
-5.03649e-07
-5.78882e-07
-2.36942e-07
-5.21692e-07
-5.75848e-07
-2.367e-07
-5.1789e-07
-5.73957e-07
-2.37975e-07
-5.54453e-07
-5.67178e-07
-2.35983e-07
-5.58776e-07
-5.61923e-07
-2.35771e-07
-6.28013e-07
-5.45335e-07
-2.3564e-07
-6.54699e-07
-5.28455e-07
-2.38135e-07
-7.78193e-07
-4.89579e-07
-2.26592e-07
-8.69577e-07
-4.50567e-07
-1.38807e-07
-1.10993e-06
-4.12752e-07
4.52085e-08
-1.2457e-06
-3.90272e-07
2.68995e-07
-1.2765e-06
-4.00516e-07
5.88148e-07
-1.31235e-06
-5.36327e-07
1.11451e-06
-1.51288e-06
-8.52223e-07
1.78643e-06
-1.68972e-06
-1.26871e-06
3.39094e-06
-3.01343e-06
-2.08984e-06
6.36551e-06
-4.89497e-06
-2.97348e-06
6.91519e-06
-7.15962e-06
-1.90208e-06
2.92359e-06
-7.17894e-06
-1.73111e-06
1.26639e-06
-8.41603e-06
-1.9537e-06
3.80681e-06
-6.2573e-06
-3.47317e-06
1.14114e-05
4.18858e-06
-7.7475e-06
1.58974e-05
5.82975e-06
-8.36622e-06
1.89015e-05
6.63138e-06
-4.28445e-06
8.21074e-06
9.17388e-06
-1.01324e-06
-1.5149e-06
9.90262e-06
-4.05153e-06
-5.06983e-05
3.95747e-06
-5.29912e-06
-0.000125373
1.62363e-05
-1.10723e-05
-0.000126415
9.76582e-06
1.99521e-06
-0.000131312
9.66504e-06
-9.54663e-07
-0.000134271
7.60065e-06
2.46487e-07
-0.000135602
9.81338e-06
-1.6431e-06
-0.000138064
9.85588e-06
-2.05623e-06
-0.000139309
1.09923e-05
-1.79899e-06
-0.000139585
1.16438e-05
-1.265e-06
-0.000139991
1.0834e-05
-8.91446e-07
-0.00014066
8.15491e-06
-4.71805e-07
-0.000140349
4.77689e-06
-2.27541e-07
-0.000138683
-2.33088e-07
4.89241e-07
-0.000126223
-4.5776e-06
1.04639e-06
-6.53007e-05
-8.08092e-06
1.55272e-06
-7.76185e-05
-8.89151e-06
2.08371e-06
-0.000137358
-1.1947e-05
2.22392e-06
-0.000135275
-1.39022e-05
2.49623e-06
-0.000140481
-1.49926e-05
2.89931e-06
-0.000145639
-1.47062e-05
3.04318e-06
-0.000148145
-1.44785e-05
3.20524e-06
-0.000149451
-1.36756e-05
3.6194e-06
-0.000148953
-1.19884e-05
4.2225e-06
-0.000147682
-9.99027e-06
4.89104e-06
-0.000146365
-8.44745e-06
4.95043e-06
-0.000142813
-6.79883e-06
4.67432e-06
-0.000128436
-5.48219e-06
4.00982e-06
-6.65416e-05
-3.63804e-06
2.5671e-06
-1.50922e-05
-1.59085e-06
3.91502e-07
-1.36426e-05
1.95042e-06
-1.446e-06
-1.23835e-05
5.52703e-06
-2.91551e-06
-1.00178e-05
8.83865e-06
-4.24884e-06
-6.12335e-06
1.10425e-05
-5.43619e-06
-2.37423e-06
1.09249e-05
-4.7528e-06
-4.9945e-07
9.89286e-06
-3.3941e-06
-4.59648e-07
9.32241e-06
-2.2309e-06
8.45963e-06
-1.63544e-06
-2.83237e-06
-5.38539e-07
-1.13466e-07
-1.60783e-06
-3.56115e-06
-1.45818e-06
-1.89281e-06
-4.02081e-07
-1.55223e-07
-1.47483e-06
-2.1221e-06
-4.03142e-07
-1.19499e-06
-1.24197e-06
-1.88729e-07
-9.07123e-07
-1.58399e-06
-1.50044e-07
-7.43667e-07
-1.05569e-06
-1.24419e-07
-6.47425e-07
-1.04764e-06
-1.25333e-07
-6.09769e-07
-7.61464e-07
-1.67981e-07
-5.76292e-07
-7.24728e-07
-2.18835e-07
-5.43787e-07
-5.69782e-07
-2.79401e-07
-4.8825e-07
-5.4388e-07
-3.33005e-07
-4.43667e-07
-4.16201e-07
-3.74049e-07
-4.00385e-07
-3.66128e-07
-4.1173e-07
-3.64775e-07
-2.6879e-07
-4.40779e-07
-3.3696e-07
-2.31593e-07
-4.60218e-07
-3.15309e-07
-1.64642e-07
-4.76326e-07
-2.98904e-07
-1.4246e-07
-4.85885e-07
-2.86928e-07
-9.96794e-08
-4.94078e-07
-2.78708e-07
-8.43001e-08
-4.97436e-07
-2.72583e-07
-6.11723e-08
-5.00575e-07
-2.68453e-07
-5.09198e-08
-5.01358e-07
-2.66143e-07
-3.85677e-08
-5.0146e-07
-2.64805e-07
-3.19008e-08
-5.00647e-07
-2.64418e-07
-2.6278e-08
-4.98943e-07
-2.64481e-07
-2.28295e-08
-4.96771e-07
-2.6505e-07
-2.03587e-08
-4.94157e-07
-2.66192e-07
-1.88872e-08
-4.91141e-07
-2.68166e-07
-1.8412e-08
-4.87574e-07
-2.70376e-07
-1.85641e-08
-4.84164e-07
-2.74386e-07
-2.1303e-08
-4.79819e-07
-2.77712e-07
-2.24803e-08
-4.76189e-07
-2.83608e-07
-3.20259e-08
-4.70704e-07
-2.89374e-07
-3.15429e-08
-4.66335e-07
-2.98496e-07
-5.39005e-08
-4.58664e-07
-3.08689e-07
-5.52939e-08
-4.52397e-07
-3.25039e-07
-9.87851e-08
-4.3931e-07
-3.46925e-07
-1.09982e-07
-4.26899e-07
-3.78382e-07
-1.9133e-07
-4.05217e-07
-4.24785e-07
-2.28651e-07
-3.79634e-07
-4.79993e-07
-3.80018e-07
-3.42955e-07
-5.21426e-07
-5.17324e-07
-3.10807e-07
-4.31415e-07
-8.63002e-07
-3.36921e-07
-1.52192e-07
-1.11282e-06
-4.12081e-07
2.36454e-07
-1.07648e-06
-5.88649e-07
6.77492e-07
-8.25587e-07
-9.27782e-07
1.1855e-06
-6.19912e-07
-1.40096e-06
1.7639e-06
-2.66851e-07
-2.00124e-06
2.66802e-06
-6.06388e-07
-3.31115e-06
2.92846e-06
-9.57363e-07
-4.19803e-06
-1.09337e-06
-5.00317e-07
-2.63746e-06
-6.49732e-06
-1.82497e-06
5.00159e-08
-9.16433e-06
-5.08064e-06
-6.68348e-07
-7.28181e-06
-5.89846e-06
-2.24131e-06
5.41413e-06
-4.19999e-06
-4.30736e-06
1.17587e-05
1.94071e-06
-2.45545e-06
6.11034e-06
9.40401e-06
2.87588e-06
-9.21113e-06
2.13629e-05
3.13248e-06
-2.893e-06
8.48004e-06
-6.53074e-06
-4.94852e-05
6.59706e-06
-5.92976e-06
-0.000125008
2.54521e-05
-1.0363e-05
-0.000125322
1.36799e-05
2.54428e-06
-0.000131724
1.37124e-05
6.8474e-08
-0.000136939
1.14354e-05
1.76119e-06
-0.000139865
1.34755e-05
-1.48185e-06
-0.000142943
1.18157e-05
-1.47176e-06
-0.0001436
1.21804e-05
-9.61165e-07
-0.000143822
1.16002e-05
-3.28137e-07
-0.000144686
1.00392e-05
1.94017e-07
-0.000144807
6.47389e-06
4.53169e-07
-0.000143476
2.74787e-06
8.17513e-07
-0.000139737
-2.60155e-06
1.38982e-06
-0.000117914
-6.90416e-06
2.23157e-06
-5.54551e-05
-1.02067e-05
2.72943e-06
-1.11842e-05
-1.22706e-05
3.117e-06
-1.11763e-05
-1.32588e-05
3.13445e-06
-1.32541e-05
-1.4416e-05
3.20689e-06
-8.00695e-05
-1.42406e-05
3.29071e-06
-0.000145784
-1.40342e-05
2.6261e-06
-0.000147596
-1.47235e-05
2.32092e-06
-0.000147532
-1.56507e-05
2.45805e-06
-0.000147427
-1.57877e-05
2.84114e-06
-0.000147533
-1.4711e-05
3.58654e-06
-0.000148556
-1.24421e-05
3.76508e-06
-0.000150513
-9.887e-06
3.28838e-06
-0.0001526
-7.68965e-06
2.2474e-06
-0.00015441
-4.77185e-06
1.0902e-06
-0.000154047
-1.23295e-06
-1.73719e-07
-0.000151612
2.52979e-06
-1.04941e-06
-0.000148397
6.23032e-06
-2.01676e-06
-0.000144293
9.37119e-06
-2.63529e-06
-0.000138958
1.13071e-05
-2.80026e-06
-0.000129718
1.13544e-05
-2.40237e-06
-0.000105039
1.08664e-05
-1.90109e-06
-4.40577e-05
1.01908e-05
-1.26536e-06
9.54583e-06
-1.05804e-06
-2.70577e-06
9.47356e-07
7.79739e-07
-1.88241e-06
-2.69202e-06
-1.69249e-06
-2.2851e-06
2.1945e-08
-2.13337e-08
-1.85793e-06
-1.8374e-06
-7.11877e-07
-1.43922e-06
-1.35423e-06
-3.06444e-07
-1.02232e-06
-1.55038e-06
-4.50498e-07
-7.42841e-07
-1.04276e-06
-2.92405e-07
-5.58352e-07
-9.35545e-07
-2.96584e-07
-4.64312e-07
-5.92255e-07
-2.63244e-07
-4.39968e-07
-4.4598e-07
-3.03086e-07
-4.22714e-07
-2.36744e-07
-3.50287e-07
-3.78714e-07
-1.69502e-07
-4.18372e-07
-3.44114e-07
-4.85262e-09
-4.45942e-07
-3.21901e-07
9.06338e-08
-4.78967e-07
-3.12192e-07
2.21127e-07
-4.99618e-07
-3.04507e-07
2.82971e-07
-5.2224e-07
-3.03528e-07
3.69848e-07
-5.35461e-07
-3.03029e-07
4.07027e-07
-5.49976e-07
-3.07183e-07
4.62945e-07
-5.5846e-07
-3.11644e-07
4.87764e-07
-5.67592e-07
-3.17337e-07
5.19687e-07
-5.75156e-07
-3.23278e-07
5.37389e-07
-5.82355e-07
-3.29347e-07
5.56056e-07
-5.88543e-07
-3.35244e-07
5.68641e-07
-5.94632e-07
-3.41563e-07
5.80026e-07
-5.99971e-07
-3.47701e-07
5.88707e-07
-6.05384e-07
-3.53574e-07
5.95944e-07
-6.10415e-07
-3.59268e-07
6.01986e-07
-6.15164e-07
-3.65562e-07
6.07399e-07
-6.19501e-07
-3.72074e-07
6.12153e-07
-6.24188e-07
-3.81106e-07
6.1544e-07
-6.27693e-07
-3.89384e-07
6.18058e-07
-6.32241e-07
-4.02889e-07
6.16153e-07
-6.34654e-07
-4.16818e-07
6.21133e-07
-6.38725e-07
-4.39109e-07
6.08868e-07
-6.40454e-07
-4.6589e-07
6.13354e-07
-6.41843e-07
-5.07019e-07
5.83245e-07
-6.40873e-07
-5.54212e-07
5.8284e-07
-6.456e-07
-6.2172e-07
5.16463e-07
-6.40254e-07
-7.09445e-07
4.78661e-07
-6.19554e-07
-8.05436e-07
3.2049e-07
-6.04481e-07
-8.54731e-07
1.31318e-07
-5.99309e-07
-7.42404e-07
-2.52484e-07
-7.22801e-07
-3.50163e-07
-5.30631e-07
-9.74384e-07
2.70564e-07
-3.0625e-07
-1.3909e-06
9.09502e-07
3.50798e-07
-1.81527e-06
1.57015e-06
9.81852e-07
-2.26236e-06
2.34786e-06
1.85717e-06
-2.90167e-06
3.39194e-06
3.40074e-06
-5.05116e-06
2.57971e-06
4.93787e-06
-5.08296e-06
-3.4832e-06
6.11805e-06
-5.55411e-07
-1.34108e-05
5.69356e-06
2.40913e-06
-2.09869e-05
3.8922e-06
-1.3966e-06
-2.26728e-05
1.30387e-06
-5.51637e-06
-2.25746e-05
2.77856e-06
-7.07664e-06
-1.82921e-05
2.31508e-06
-4.65671e-06
-2.88368e-06
-1.80132e-07
-5.82436e-06
-1.31164e-05
2.76797e-05
3.91667e-06
-4.86033e-06
-1.18648e-05
1.07688e-05
-5.55361e-05
1.0725e-05
-9.07857e-06
-0.000150761
3.64825e-05
-1.0325e-05
-0.000147365
1.54815e-05
4.82041e-06
-0.000150735
1.51166e-05
1.0294e-06
-0.000153942
1.29321e-05
3.53753e-06
-0.000156038
1.56268e-05
-7.97085e-07
-0.000159591
1.39258e-05
5.57821e-07
-0.000160496
1.37951e-05
-4.22913e-08
-0.000161356
1.0463e-05
9.01761e-07
-0.000161531
8.08541e-06
1.56505e-06
-0.000161702
5.00411e-06
1.79909e-06
-0.000162956
2.08847e-06
1.64889e-06
-0.000164766
-1.98069e-06
1.56511e-06
-0.00016487
-6.12314e-06
1.82172e-06
-0.000152065
-9.65503e-06
1.67282e-06
-7.68715e-05
-1.32867e-05
1.4346e-06
-1.17149e-05
-1.57487e-05
2.15662e-06
-1.00687e-05
-1.76936e-05
3.46473e-06
-1.0054e-05
-1.69687e-05
4.33954e-06
-1.28171e-05
-1.38292e-05
3.81836e-06
-1.68056e-05
-1.34164e-05
3.04309e-06
-1.94758e-05
-1.513e-05
2.61902e-06
-2.01963e-05
-1.67744e-05
2.85812e-06
-2.00076e-05
-1.69002e-05
3.15648e-06
-1.93764e-05
-1.4956e-05
3.04235e-06
-1.89339e-05
-1.30004e-05
2.45879e-06
-1.89783e-05
-1.00527e-05
1.8016e-06
-1.91569e-05
-6.81982e-06
1.32666e-06
-1.88548e-05
-3.81997e-06
1.32292e-06
-1.77362e-05
-1.38147e-06
1.76299e-06
-1.61565e-05
2.34996e-06
1.8609e-06
-1.32428e-05
5.1708e-06
1.54058e-06
-9.34094e-06
6.57214e-06
1.83514e-06
-5.89766e-06
6.95361e-06
2.35386e-06
-4.30287e-05
6.6038e-06
3.12517e-06
-0.000115986
6.56329e-06
4.63037e-06
2.96803e-06
7.62725e-06
-3.46627e-06
2.20497e-06
2.34879e-06
-2.29966e-06
-2.26299e-06
-1.59565e-06
-2.67326e-06
4.19379e-07
-2.38359e-08
-2.10943e-06
-1.36156e-06
-1.03967e-06
-1.54933e-06
-1.31794e-06
-5.96388e-07
-1.08657e-06
-1.29026e-06
-7.2288e-07
-7.17186e-07
-9.88622e-07
-4.23513e-07
-4.31201e-07
-8.50544e-07