/*--------------------------------*- C++ -*----------------------------------*\
| =========                 |                                                 |
| \\      /  F ield         | OpenFOAM: The Open Source CFD Toolbox           |
|  \\    /   O peration     | Version:  2.3.0                                 |
|   \\  /    A nd           | Web:      www.OpenFOAM.org                      |
|    \\/     M anipulation  |                                                 |
\*---------------------------------------------------------------------------*/
FoamFile
{
    version     2.0;
    format      ascii;
    class       surfaceScalarField;
    location    "7";
    object      phi.water;
}
// * * * * * * * * * * * * * * * * * * * * * * * * * * * * * * * * * * * * * //

dimensions      [0 3 -1 0 0 0 0];

internalField   nonuniform List<scalar> 
16448
(
-1.99071e-06
-2.03976e-06
6.2315e-07
-7.26845e-07
-2.0022e-06
7.39496e-07
-4.79844e-07
-1.24446e-06
9.97604e-07
-2.45436e-07
-1.25686e-06
1.02205e-06
-2.32675e-07
-1.05272e-06
1.0401e-06
-1.97173e-07
-1.08008e-06
1.04427e-06
-2.05693e-07
-1.03794e-06
1.04652e-06
-1.80168e-07
-1.07032e-06
1.04459e-06
-1.74998e-07
-1.0622e-06
1.05705e-06
-1.34966e-07
-1.09887e-06
1.05863e-06
-1.18181e-07
-1.0916e-06
1.07479e-06
-7.59728e-08
-1.12194e-06
1.0795e-06
-5.66587e-08
-1.11291e-06
1.09351e-06
-2.25749e-08
-1.1329e-06
1.09854e-06
-6.77528e-09
-1.12444e-06
1.10852e-06
1.63046e-08
-1.13597e-06
1.11259e-06
2.7434e-08
-1.13047e-06
1.11915e-06
4.11666e-08
-1.13627e-06
1.12226e-06
4.82982e-08
-1.13385e-06
1.12648e-06
5.56539e-08
-1.13657e-06
1.12894e-06
5.99395e-08
-1.13622e-06
1.13168e-06
6.35961e-08
-1.13761e-06
1.13367e-06
6.59868e-08
-1.13826e-06
1.13559e-06
6.77394e-08
-1.13929e-06
1.13724e-06
6.89774e-08
-1.1403e-06
1.13878e-06
6.98609e-08
-1.14136e-06
1.14017e-06
7.05747e-08
-1.14253e-06
1.14154e-06
7.12622e-08
-1.14372e-06
1.14272e-06
7.24698e-08
-1.14535e-06
1.14387e-06
7.32577e-08
-1.14589e-06
1.14478e-06
7.57153e-08
-1.1487e-06
1.14598e-06
7.71336e-08
-1.14819e-06
1.14645e-06
8.22578e-08
-1.15311e-06
1.14774e-06
8.5306e-08
-1.15122e-06
1.14786e-06
9.49704e-08
-1.15893e-06
1.14904e-06
1.01677e-07
-1.15586e-06
1.14887e-06
1.17693e-07
-1.16603e-06
1.14979e-06
1.31376e-07
-1.1629e-06
1.14896e-06
1.54883e-07
-1.17316e-06
1.14946e-06
1.76936e-07
-1.17067e-06
1.14841e-06
2.07414e-07
-1.17805e-06
1.1474e-06
2.30572e-07
-1.17064e-06
1.14733e-06
2.56256e-07
-1.17089e-06
1.14506e-06
2.64967e-07
-1.15163e-06
1.14283e-06
2.76434e-07
-1.14524e-06
1.1337e-06
2.79064e-07
-1.11744e-06
1.11489e-06
3.14286e-07
-1.10308e-06
1.06817e-06
3.34371e-07
-1.0126e-06
9.92756e-07
3.72407e-07
-8.37859e-07
8.0597e-07
2.01505e-07
-5.88894e-07
8.03085e-07
-1.10703e-06
1.148e-07
1.24445e-06
-2.05944e-06
-7.01604e-07
1.65853e-06
1.16073e-06
-5.69361e-06
2.51516e-06
6.51212e-06
-7.77917e-06
2.43745e-06
1.07002e-05
-7.40376e-06
3.27976e-06
1.40154e-05
-6.5133e-06
3.14957e-06
1.11906e-05
-3.40165e-06
6.28687e-06
1.14109e-05
-3.63346e-06
2.83804e-06
9.47455e-07
1.01481e-05
1.11582e-05
3.06446e-05
-2.49751e-06
-5.95952e-06
2.77228e-05
-2.48906e-05
-1.14594e-06
3.33848e-05
-1.28919e-05
5.17123e-06
3.20678e-05
-4.91365e-06
6.21779e-06
3.23088e-05
-5.17815e-06
4.93712e-06
3.28245e-05
-4.27299e-06
3.75722e-06
3.30111e-05
-3.08163e-06
2.89501e-06
3.28584e-05
-2.29747e-06
2.4502e-06
3.22332e-05
-1.59638e-06
2.22159e-06
3.16903e-05
-1.60821e-06
2.15106e-06
3.10144e-05
-1.29773e-06
1.97369e-06
3.02391e-05
-8.45738e-07
1.62096e-06
2.94659e-05
-5.6806e-07
1.34135e-06
2.85675e-05
-3.12858e-07
1.21121e-06
2.77662e-05
-1.4842e-07
9.49679e-07
2.70999e-05
-5.24356e-07
1.19072e-06
2.65634e-05
-7.79292e-07
1.31576e-06
2.67154e-05
-1.94723e-06
1.79527e-06
2.73958e-05
-2.91506e-06
2.23464e-06
2.81497e-05
-2.86177e-06
2.10781e-06
2.89661e-05
-2.48101e-06
1.66466e-06
2.95017e-05
-1.6385e-06
1.10291e-06
3.01461e-05
-1.17929e-06
5.34841e-07
3.03083e-05
-4.40945e-07
2.78692e-07
2.9235e-05
7.04136e-07
3.69197e-07
2.53997e-05
3.18979e-06
6.45503e-07
1.67083e-05
7.00607e-06
1.68529e-06
5.59104e-06
7.48358e-06
3.63373e-06
-3.11417e-06
3.45362e-06
5.25159e-06
-9.45399e-06
1.09228e-06
5.24754e-06
-1.24692e-05
1.18462e-06
1.83057e-06
-1.09828e-05
1.51193e-06
-2.99828e-06
-6.8563e-06
4.94369e-07
-4.6209e-06
-3.20443e-06
-6.67596e-07
-2.98428e-06
-1.14607e-06
-9.23117e-07
-1.13524e-06
-2.76066e-07
-7.46085e-07
-1.23923e-07
-6.08217e-07
3.32151e-07
-2.07695e-06
-2.89824e-06
-3.02732e-07
-9.138e-07
-3.03574e-06
-1.27926e-07
-7.24202e-07
-1.7571e-06
3.24253e-07
-5.20196e-07
-1.84311e-06
3.82051e-07
-5.29808e-07
-1.46367e-06
4.21093e-07
-5.00433e-07
-1.52998e-06
4.20516e-07
-4.98236e-07
-1.45898e-06
4.19243e-07
-4.563e-07
-1.52214e-06
4.10022e-07
-4.25076e-07
-1.51524e-06
4.22187e-07
-3.61479e-07
-1.57928e-06
4.16979e-07
-3.19179e-07
-1.57265e-06
4.39101e-07
-2.55213e-07
-1.62545e-06
4.39695e-07
-2.16759e-07
-1.61334e-06
4.62259e-07
-1.6531e-07
-1.64952e-06
4.65296e-07
-1.3592e-07
-1.63727e-06
4.83665e-07
-9.98191e-08
-1.65928e-06
4.87323e-07
-7.94733e-08
-1.65109e-06
5.00449e-07
-5.69467e-08
-1.66308e-06
5.04393e-07
-4.36388e-08
-1.65977e-06
5.12756e-07
-3.06521e-08
-1.66601e-06
5.16541e-07
-2.22535e-08
-1.6662e-06
5.21683e-07
-1.50249e-08
-1.66964e-06
5.24886e-07
-9.83462e-09
-1.67145e-06
5.28085e-07
-5.73789e-09
-1.67391e-06
5.30599e-07
-2.62611e-09
-1.67613e-06
5.32792e-07
-1.65741e-10
-1.67847e-06
5.34725e-07
1.73412e-09
-1.68072e-06
5.36354e-07
3.52709e-09
-1.68303e-06
5.37583e-07
5.42423e-09
-1.68605e-06
5.38886e-07
6.91777e-09
-1.68779e-06
5.40454e-07
9.92174e-09
-1.69282e-06
5.41224e-07
1.19521e-08
-1.69258e-06
5.42413e-07
1.76036e-08
-1.70127e-06
5.42645e-07
2.11032e-08
-1.69866e-06
5.44014e-07
3.16411e-08
-1.71252e-06
5.43218e-07
3.86414e-08
-1.70774e-06
5.44998e-07
5.6399e-08
-1.72671e-06
5.43129e-07
6.91298e-08
-1.72129e-06
5.45846e-07
9.73233e-08
-1.74387e-06
5.42771e-07
1.17911e-07
-1.73865e-06
5.47657e-07
1.52176e-07
-1.75876e-06
5.46738e-07
1.74128e-07
-1.74881e-06
5.56578e-07
1.95121e-07
-1.75473e-06
5.63166e-07
1.93989e-07
-1.72887e-06
5.78811e-07
1.82512e-07
-1.71721e-06
5.83817e-07
1.75274e-07
-1.68655e-06
5.76853e-07
2.485e-07
-1.70584e-06
5.30185e-07
3.36287e-07
-1.59602e-06
4.96292e-07
6.11318e-07
-1.49715e-06
3.85825e-07
6.53162e-07
-1.01503e-06
3.91669e-07
1.4143e-06
-1.10428e-06
4.79079e-07
4.12169e-06
-3.65465e-06
2.76452e-07
7.72302e-06
-1.02347e-05
1.01386e-06
1.26278e-05
-1.25117e-05
-1.51044e-07
1.67274e-05
-1.05526e-05
-8.24845e-07
2.13951e-05
-8.78881e-06
-2.45339e-06
2.11906e-05
-3.87151e-06
1.00173e-06
2.26409e-05
-5.0329e-06
-1.75284e-06
8.07349e-06
1.77263e-05
1.99619e-05
3.13971e-05
-2.59632e-06
-1.41218e-06
1.46953e-05
-3.01676e-05
-7.53948e-06
1.17858e-05
-1.68613e-05
5.64831e-06
1.00353e-05
-7.47582e-06
4.31101e-06
1.03855e-05
-6.74446e-06
1.21605e-06
1.10315e-05
-4.97463e-06
5.56872e-08
1.15401e-05
-3.63013e-06
3.98657e-08
9.80596e-06
-1.52442e-06
9.61101e-07
5.80025e-06
5.29058e-07
1.88028e-06
2.14031e-06
1.88225e-07
1.86351e-06
-1.35204e-07
-3.61091e-07
1.33887e-06
-2.23338e-06
3.31589e-07
9.20853e-07
-4.05702e-06
9.9846e-07
2.57121e-07
-5.2704e-06
9.1993e-07
-1.94148e-08
-5.07896e-06
-3.87634e-07
4.77807e-08
-3.21304e-06
-2.78217e-06
3.91898e-07
-6.79482e-07
-4.4379e-06
1.12505e-06
1.98975e-06
-6.81641e-06
2.19996e-06
5.11542e-06
-8.46194e-06
2.42121e-06
8.57831e-06
-8.10269e-06
1.77802e-06
1.18859e-05
-6.33572e-06
5.47161e-07
1.33666e-05
-3.06574e-06
-5.35072e-08
1.37994e-05
-1.6374e-06
2.53546e-08
1.4808e-05
-1.40673e-06
-4.28416e-08
1.61171e-05
-3.29484e-07
-2.75471e-07
1.49508e-05
4.73339e-06
-3.77278e-07
9.92426e-06
1.10624e-05
9.7021e-07
3.52184e-06
1.05338e-05
3.35219e-06
-2.73199e-06
5.198e-06
4.50945e-06
-8.35211e-06
2.37392e-06
4.33848e-06
-1.14968e-05
2.29706e-06
2.03222e-06
-1.01296e-05
3.49595e-06
-3.35122e-06
-6.50862e-06
3.00446e-06
-6.13104e-06
-2.7567e-06
1.17334e-06
-5.59285e-06
-6.67694e-07
3.9681e-08
-3.0518e-06
-1.32345e-08
4.1701e-08
-1.44225e-06
1.25597e-07
-7.47048e-07
-2.07844e-06
-3.12222e-06
-6.04803e-07
-9.48465e-07
-3.46116e-06
-7.02596e-07
-7.54885e-07
-1.82498e-06
-1.23062e-07
-5.47433e-07
-2.0207e-06
-3.03519e-08
-5.4028e-07
-1.49429e-06
2.41544e-08
-5.21944e-07
-1.58557e-06
3.70206e-08
-5.20034e-07
-1.48476e-06
2.42444e-08
-4.83291e-07
-1.57056e-06
1.1713e-08
-4.48462e-07
-1.56173e-06
1.1961e-08
-3.8438e-07
-1.64469e-06
1.4398e-09
-3.34278e-07
-1.63568e-06
1.32202e-08
-2.68622e-07
-1.70118e-06
1.02033e-08
-2.24173e-07
-1.68368e-06
2.61418e-08
-1.72185e-07
-1.72815e-06
2.67634e-08
-1.39453e-07
-1.71022e-06
4.0449e-08
-1.03306e-07
-1.73718e-06
4.18819e-08
-8.16561e-08
-1.72408e-06
5.1535e-08
-5.90376e-08
-1.73852e-06
5.29337e-08
-4.56056e-08
-1.73168e-06
5.86308e-08
-3.25977e-08
-1.73864e-06
5.97379e-08
-2.45527e-08
-1.73676e-06
6.26414e-08
-1.74341e-08
-1.74007e-06
6.34072e-08
-1.25854e-08
-1.7407e-06
6.45052e-08
-8.74412e-09
-1.7425e-06
6.48457e-08
-5.9339e-09
-1.74386e-06
6.50134e-08
-3.74397e-09
-1.74543e-06
6.48589e-08
-1.94493e-09
-1.74697e-06
6.45462e-08
-3.71699e-10
-1.74852e-06
6.39877e-08
1.12446e-09
-1.75063e-06
6.31941e-08
2.32047e-09
-1.75155e-06
6.26112e-08
4.6836e-09
-1.7566e-06
6.15517e-08
6.43704e-09
-1.75521e-06
6.09225e-08
1.11757e-08
-1.76514e-06
5.92858e-08
1.45949e-08
-1.76109e-06
5.90671e-08
2.41449e-08
-1.77824e-06
5.63657e-08
3.15536e-08
-1.77203e-06
5.69722e-08
4.91349e-08
-1.79715e-06
5.30961e-08
6.34251e-08
-1.79053e-06
5.51007e-08
9.29659e-08
-1.82376e-06
5.06121e-08
1.17056e-07
-1.81863e-06
5.61374e-08
1.58004e-07
-1.855e-06
5.56058e-08
1.87105e-07
-1.84709e-06
6.95179e-08
2.2224e-07
-1.87238e-06
8.28707e-08
2.25922e-07
-1.84418e-06
1.12056e-07
2.16239e-07
-1.84345e-06
1.3634e-07
2.38019e-07
-1.84774e-06
1.4001e-07
4.12682e-07
-1.98656e-06
1.06773e-07
8.19061e-07
-2.05439e-06
5.30544e-08
1.71806e-06
-2.39358e-06
-3.23943e-10
2.97815e-06
-2.08605e-06
-1.88282e-07
5.13445e-06
-2.74829e-06
-4.96976e-07
8.70554e-06
-7.97294e-06
7.79881e-07
1.18244e-05
-1.42084e-05
1.00558e-06
1.55327e-05
-1.55054e-05
-5.96963e-07
1.8718e-05
-1.15831e-05
-1.89576e-06
2.28221e-05
-8.78728e-06
-4.15769e-06
2.51677e-05
-3.39262e-06
-2.11002e-06
2.91251e-05
-9.07457e-06
-2.08519e-06
1.44041e-05
2.74114e-05
2.199e-05
3.30634e-05
-2.87047e-06
7.40417e-07
8.47742e-06
-2.51805e-05
-1.20629e-05
3.42682e-06
-1.18512e-05
-8.42271e-07
5.79304e-06
-5.88676e-06
-3.95588e-06
4.76684e-06
-4.64806e-06
-1.07021e-06
6.18819e-06
-2.74339e-06
-3.65259e-06
6.15942e-06
-4.09513e-07
-3.19186e-06
4.87921e-06
2.59993e-06
-2.84414e-06
2.62148e-06
5.03903e-06
-2.25224e-06
1.4373e-08
4.45933e-06
-1.664e-06
-2.33799e-06
2.97421e-06
-9.82943e-07
-4.27462e-06
2.68863e-06
-4.2041e-07
-6.21076e-06
2.67901e-06
2.55585e-07
-8.06877e-06
1.7764e-06
1.00155e-06
-8.50664e-06
-5.46712e-07
5.96955e-07
-7.35097e-06
-4.12728e-06
1.89435e-07
-5.79415e-06
-6.28064e-06
2.85924e-07
-3.86273e-06
-9.26283e-06
5.14988e-07
-1.09277e-06
-1.1537e-05
3.05085e-07
3.56771e-06
-1.12767e-05
-1.48647e-06
8.69594e-06
-8.02272e-06
-3.44123e-06
1.24235e-05
-2.45653e-06
-4.33679e-06
1.34532e-05
1.20426e-06
-3.87134e-06
1.18571e-05
1.95586e-06
-1.76654e-06
7.87598e-06
3.83387e-06
-1.82194e-07
3.80057e-06
8.81012e-06
-1.31909e-09
1.34905e-06
1.20616e-05
1.45226e-06
-6.83672e-07
8.90757e-06
3.65895e-06
-4.54986e-06
4.51986e-06
4.54433e-06
-8.8476e-06
2.24916e-06
4.42251e-06
-1.09838e-05
2.6547e-06
1.77858e-06
-9.3664e-06
4.45158e-06
-2.57306e-06
-5.7732e-06
5.47791e-06
-6.06664e-06
-2.17965e-06
4.23911e-06
-6.65931e-06
-1.68267e-07
2.40035e-06
-4.37205e-06
3.05096e-07
1.7833e-06
-2.21496e-06
1.69251e-06
-1.26181e-06
-2.32048e-06
-2.83441e-06
-6.73894e-07
-1.22039e-06
-3.67568e-06
-8.84597e-07
-1.04106e-06
-1.64311e-06
-3.57954e-07
-7.64837e-07
-2.05841e-06
-2.38692e-07
-7.03705e-07
-1.36269e-06
-1.91246e-07
-6.62466e-07
-1.48018e-06
-1.46857e-07
-6.44573e-07
-1.31653e-06
-1.85657e-07
-6.0231e-07
-1.4099e-06
-2.0295e-07
-5.54927e-07
-1.3858e-06
-2.23033e-07
-4.78979e-07
-1.4753e-06
-2.45225e-07
-4.11147e-07
-1.45865e-06
-2.44589e-07
-3.34701e-07
-1.52458e-06
-2.52902e-07
-2.76898e-07
-1.49999e-06
-2.41215e-07
-2.18017e-07
-1.54475e-06
-2.42114e-07
-1.78545e-07
-1.52044e-06
-2.28991e-07
-1.39501e-07
-1.54832e-06
-2.27723e-07
-1.14425e-07
-1.53014e-06
-2.18752e-07
-9.01346e-08
-1.54464e-06
-2.17968e-07
-7.51667e-08
-1.53383e-06
-2.12568e-07
-6.11168e-08
-1.5401e-06
-2.12375e-07
-5.25768e-08
-1.53496e-06
-2.101e-07
-4.49929e-08
-1.53703e-06
-2.10393e-07
-3.99848e-08
-1.5353e-06
-2.10179e-07
-3.60022e-08
-1.53533e-06
-2.10929e-07
-3.31622e-08
-1.53465e-06
-2.11834e-07
-3.09928e-08
-1.53425e-06
-2.13118e-07
-2.93745e-08
-1.53379e-06
-2.14577e-07
-2.80391e-08
-1.53331e-06
-2.16317e-07
-2.69548e-08
-1.53325e-06
-2.18234e-07
-2.57631e-08
-1.53238e-06
-2.20141e-07
-2.44541e-08
-1.53551e-06
-2.22146e-07
-2.30572e-08
-1.53228e-06
-2.24103e-07
-1.93498e-08
-1.54134e-06
-2.27214e-07
-1.66693e-08
-1.53499e-06
-2.28547e-07
-8.44921e-09
-1.55303e-06
-2.3309e-07
-2.26209e-09
-1.54455e-06
-2.33442e-07
1.46411e-08
-1.57418e-06
-2.39463e-07
2.95009e-08
-1.56684e-06
-2.38237e-07
6.0524e-08
-1.61064e-06
-2.43735e-07
8.91082e-08
-1.60912e-06
-2.37681e-07
1.37944e-07
-1.66754e-06
-2.35876e-07
1.78768e-07
-1.67252e-06
-2.14917e-07
2.31625e-07
-1.73364e-06
-1.9122e-07
2.42928e-07
-1.70868e-06
-1.46261e-07
2.19817e-07
-1.70596e-06
-1.1396e-07
2.41907e-07
-1.74009e-06
-1.28896e-07
4.43405e-07
-1.97609e-06
-2.11069e-07
1.01891e-06
-2.28573e-06
-3.42136e-07
2.30097e-06
-3.06964e-06
-6.03298e-07
4.97468e-06
-3.61417e-06
-1.14318e-06
8.67575e-06
-5.2727e-06
-1.12789e-06
1.21201e-05
-1.18083e-05
4.46902e-07
1.22102e-05
-1.38696e-05
-2.595e-07
1.16376e-05
-1.18439e-05
-3.03645e-06
1.24578e-05
-4.81009e-06
-7.28904e-06
1.34034e-05
-6.23489e-06
-3.68277e-06
2.02866e-05
-5.41457e-06
-2.59537e-06
1.9158e-05
-1.24225e-05
3.36896e-06
2.23203e-05
2.77753e-05
1.96826e-05
3.79098e-05
-9.62845e-07
-2.80717e-06
6.01234e-06
-1.59154e-05
-1.30409e-05
-1.27061e-06
-5.36368e-06
-3.81071e-07
6.36411e-07
-3.32156e-06
-4.47513e-06
-3.3537e-06
-4.61092e-07
-1.97621e-07
-2.94028e-06
2.20944e-07
-3.37851e-06
-2.62375e-06
2.61877e-06
-3.34564e-06
-1.80165e-06
4.38141e-06
-2.60405e-06
-2.39534e-06
6.86614e-06
-1.23353e-06
-5.29968e-06
7.56319e-06
-1.99281e-07
-9.4227e-06
6.84507e-06
2.52523e-07
-1.19485e-05
5.7521e-06
-5.3777e-07
-1.27566e-05
4.38165e-06
-8.94687e-07
-1.21153e-05
2.69975e-06
-1.56479e-06
-1.1133e-05
-4.0993e-08
-1.48808e-06
-9.73486e-06
-4.10276e-06
-1.42273e-06
-8.23455e-06
-6.67665e-06
-1.10427e-06
-7.27715e-06
-9.93234e-06
-2.87822e-07
-7.08115e-06
-1.20894e-05
3.56437e-07
-7.04438e-06
-1.32819e-05
1.96837e-06
-5.06382e-06
-1.33758e-05
3.37252e-06
-2.01094e-06
-8.89755e-06
3.38813e-06
-2.0063e-06
-3.10543e-06
4.30505e-06
-4.15555e-06
8.31773e-08
4.02194e-06
-6.15832e-06
2.59301e-06
3.24364e-06
-6.34808e-06
5.09702e-06
3.90287e-06
-5.61788e-06
6.12644e-06
5.20499e-06
-6.14528e-06
3.57706e-06
5.85791e-06
-8.46385e-06
1.79426e-06
5.04417e-06
-1.07341e-05
1.12591e-06
3.39349e-06
-1.08731e-05
2.66056e-06
1.33191e-07
-8.96044e-06
5.21316e-06
-2.67427e-06
-5.10024e-06
7.55515e-06
-5.93744e-06
-1.30956e-06
7.40677e-06
-6.95834e-06
6.83109e-07
5.34893e-06
-4.94125e-06
8.09678e-07
4.21862e-06
-2.5619e-06
3.98509e-06
-1.48291e-06
-2.55554e-06
-2.34188e-06
-5.36215e-07
-1.36429e-06
-3.78646e-06
-1.08136e-06
-1.31619e-06
-1.25937e-06
-4.28281e-07
-9.79112e-07
-2.05242e-06
-3.43524e-07
-8.54858e-07
-1.19235e-06
-2.92155e-07
-7.50109e-07
-1.37772e-06
-2.07186e-07
-7.06016e-07
-1.09738e-06
-2.62472e-07
-6.62412e-07
-1.18105e-06
-2.72411e-07
-6.13329e-07
-1.10803e-06
-3.26608e-07
-5.44396e-07
-1.17701e-06
-3.67242e-07
-4.6804e-07
-1.13967e-06
-3.95248e-07
-3.93767e-07
-1.18443e-06
-4.14398e-07
-3.24309e-07
-1.14701e-06
-4.22354e-07
-2.65636e-07
-1.1751e-06
-4.28299e-07
-2.17345e-07
-1.14158e-06
-4.27053e-07
-1.77939e-07
-1.15936e-06
-4.2834e-07
-1.48894e-07
-1.13378e-06
-4.25323e-07
-1.24831e-07
-1.14267e-06
-4.26016e-07
-1.07932e-07
-1.12618e-06
-4.24476e-07
-9.38675e-08
-1.12844e-06
-4.25728e-07
-8.44867e-08
-1.11874e-06
-4.25563e-07
-7.68319e-08
-1.11762e-06
-4.27081e-07
-7.16682e-08
-1.11235e-06
-4.28107e-07
-6.77106e-08
-1.10943e-06
-4.29885e-07
-6.49527e-08
-1.10569e-06
-4.31742e-07
-6.29724e-08
-1.10226e-06
-4.34033e-07
-6.16629e-08
-1.09882e-06
-4.36329e-07
-6.06471e-08
-1.09567e-06
-4.38747e-07
-5.97975e-08
-1.09298e-06
-4.41173e-07
-5.90447e-08
-1.08977e-06
-4.43478e-07
-5.88587e-08
-1.09033e-06
-4.45402e-07
-5.80332e-08
-1.08555e-06
-4.47702e-07
-5.64382e-08
-1.09201e-06
-4.50942e-07
-5.45379e-08
-1.08433e-06
-4.5271e-07
-5.00411e-08
-1.10082e-06
-4.56698e-07
-4.45773e-08
-1.09233e-06
-4.57836e-07
-3.28924e-08
-1.12361e-06
-4.622e-07
-1.90386e-08
-1.11938e-06
-4.61442e-07
6.85873e-09
-1.17375e-06
-4.62643e-07
3.58959e-08
-1.18358e-06
-4.54682e-07
8.11068e-08
-1.27071e-06
-4.41913e-07
1.30625e-07
-1.30891e-06
-4.1308e-07
2.08966e-07
-1.435e-06
-3.76874e-07
2.70528e-07
-1.45179e-06
-3.18141e-07
3.07508e-07
-1.45274e-06
-2.89638e-07
4.36607e-07
-1.52855e-06
-3.39176e-07
8.01722e-07
-1.83721e-06
-5.02009e-07
1.50878e-06
-2.28405e-06
-7.05286e-07
3.18576e-06
-3.49581e-06
-1.24245e-06
6.61997e-06
-4.89164e-06
-2.12533e-06
1.02945e-05
-8.51857e-06
-3.28152e-07
1.18851e-05
-1.28646e-05
-3.94427e-07
1.12474e-05
-1.2002e-05
-1.0634e-06
1.02831e-05
-7.17349e-06
-3.72287e-06
9.74632e-06
4.09402e-06
-8.00775e-06
4.25112e-06
1.97773e-06
-2.91059e-06
-3.42114e-06
5.15778e-06
-1.39122e-06
-1.80512e-05
-2.27904e-06
4.16055e-06
2.68296e-05
-8.57718e-07
9.45449e-06
4.20647e-05
-7.21453e-07
-4.4025e-06
4.19519e-06
-1.14106e-06
-1.43212e-05
-5.21297e-06
2.36389e-06
-2.81301e-07
-7.65074e-06
2.46061e-06
-3.35801e-06
-1.06307e-05
3.15883e-06
-6.49116e-07
-1.19252e-05
4.2398e-06
-2.73567e-06
-1.15399e-05
5.04094e-06
-2.82223e-06
-1.11757e-05
6.60061e-06
-2.59438e-06
-1.18363e-05
9.30892e-06
-1.7893e-06
-1.34616e-05
1.03271e-05
-1.14259e-06
-1.5385e-05
9.81956e-06
-1.05489e-06
-1.63651e-05
8.11824e-06
-1.39096e-06
-1.58885e-05
5.14653e-06
-1.24591e-06
-1.34269e-05
1.24523e-06
-1.01055e-06
-1.117e-05
-2.3472e-06
4.76027e-08
-9.48994e-06
-6.53639e-06
7.52779e-07
-8.45357e-06
-9.36461e-06
1.65097e-06
-8.56403e-06
-1.24828e-05
2.66046e-06
-9.90885e-06
-1.46565e-05
3.91167e-06
-1.24881e-05
-1.5671e-05
4.96823e-06
-1.5731e-05
-1.57206e-05
5.58768e-06
-1.6299e-05
-1.37822e-05
5.45256e-06
-1.44889e-05
-9.96262e-06
5.047e-06
-1.37043e-05
-6.09281e-06
5.39134e-06
-1.30413e-05
-3.78456e-06
5.7145e-06
-1.20673e-05
-2.16528e-06
6.28829e-06
-1.05462e-05
-1.447e-06
6.05237e-06
-1.05207e-05
-1.95941e-06
5.51095e-06
-1.16968e-05
-1.71895e-06
4.68937e-06
-1.24128e-05
-1.45561e-07
1.98748e-06
-1.11746e-05
2.51445e-06
-1.0921e-06
-8.74855e-06
6.20703e-06
-3.41994e-06
-4.90052e-06
9.3388e-06
-5.63169e-06
-1.21953e-06
9.79959e-06
-6.07381e-06
5.63565e-07
7.92975e-06
-4.36391e-06
5.91348e-07
6.53416e-06
-2.34332e-06
6.20106e-06
-1.62462e-06
-2.66473e-06
-1.6894e-06
-2.69306e-07
-1.39026e-06
-3.79514e-06
-1.26852e-06
-1.50577e-06
-8.42688e-07
-2.96565e-07
-1.1346e-06
-2.10755e-06
-3.16834e-07
-9.49341e-07
-1.15129e-06
-2.2246e-07
-7.68777e-07
-1.44644e-06
-1.11366e-07
-6.89103e-07
-1.01707e-06
-1.58322e-07
-6.38897e-07
-1.07708e-06
-1.53781e-07
-6.02751e-07
-8.92252e-07
-2.51223e-07
-5.50585e-07
-9.1057e-07
-3.18341e-07
-4.86752e-07
-8.17197e-07
-3.85937e-07
-4.19551e-07
-8.21871e-07
-4.29494e-07
-3.50058e-07
-7.46206e-07
-4.70029e-07
-2.9619e-07
-7.35104e-07
-4.93633e-07
-2.44698e-07
-6.74488e-07
-5.18362e-07
-2.08391e-07
-6.64521e-07
-5.30955e-07
-1.77236e-07
-6.19849e-07
-5.44886e-07
-1.54645e-07
-6.12475e-07
-5.52622e-07
-1.37365e-07
-5.82333e-07
-5.60952e-07
-1.25066e-07
-5.74078e-07
-5.66509e-07
-1.15574e-07
-5.56207e-07
-5.71868e-07
-1.08654e-07
-5.48747e-07
-5.75643e-07
-1.03843e-07
-5.38345e-07
-5.78673e-07
-1.003e-07
-5.31853e-07
-5.80961e-07
-9.79709e-08
-5.25508e-07
-5.82365e-07
-9.662e-08
-5.20354e-07
-5.83083e-07
-9.61603e-08
-5.15807e-07
-5.83316e-07
-9.61049e-08
-5.1191e-07
-5.83626e-07
-9.6614e-08
-5.0873e-07
-5.83563e-07
-9.70265e-08
-5.0572e-07
-5.83441e-07
-9.82087e-08
-5.0594e-07
-5.82995e-07
-9.84691e-08
-5.02806e-07
-5.82269e-07
-1.00134e-07
-5.09451e-07
-5.80624e-07
-1.00428e-07
-5.04456e-07
-5.79342e-07
-1.02067e-07
-5.22494e-07
-5.76328e-07
-1.01001e-07
-5.18655e-07
-5.74447e-07
-1.01275e-07
-5.55184e-07
-5.67693e-07
-9.83986e-08
-5.59433e-07
-5.62451e-07
-9.7099e-08
-6.28582e-07
-5.45896e-07
-9.60066e-08
-6.55133e-07
-5.29037e-07
-9.73354e-08
-7.78454e-07
-4.90218e-07
-8.47054e-08
-8.69606e-07
-4.51256e-07
4.27743e-09
-1.10968e-06
-4.13556e-07
1.89711e-07
-1.24514e-06
-3.91163e-07
4.15552e-07
-1.27557e-06
-4.01568e-07
7.3776e-07
-1.31098e-06
-5.37347e-07
1.26829e-06
-1.51102e-06
-8.5312e-07
1.94541e-06
-1.68751e-06
-1.26943e-06
3.58289e-06
-3.00889e-06
-2.08989e-06
6.6427e-06
-4.88926e-06
-2.96065e-06
7.29007e-06
-7.13077e-06
-1.86931e-06
3.38374e-06
-7.16529e-06
-1.72503e-06
1.8497e-06
-8.39304e-06
-1.95466e-06
4.42547e-06
-6.22983e-06
-3.45585e-06
1.22921e-05
4.21539e-06
-7.686e-06
1.6351e-05
5.86736e-06
-8.27143e-06
2.23619e-05
6.84275e-06
-4.14829e-06
1.30448e-05
9.13539e-06
-1.04353e-06
3.0467e-05
1.07372e-05
-3.97737e-06
4.21993e-05
2.26638e-06
-4.33359e-06
2.98094e-06
1.45097e-05
-1.49842e-05
-6.57275e-06
9.35424e-06
8.20147e-07
-1.17744e-05
9.73431e-06
-2.09489e-06
-1.38788e-05
5.14904e-06
9.55519e-08
-1.60401e-05
8.3318e-06
-1.96409e-06
-1.68112e-05
8.01605e-06
-2.25542e-06
-1.74578e-05
9.39773e-06
-2.19842e-06
-1.78017e-05
1.12003e-05
-1.58715e-06
-1.7901e-05
1.16389e-05
-1.2433e-06
-1.75941e-05
1.03064e-05
-8.18954e-07
-1.71569e-05
8.41565e-06
-7.58931e-07
-1.58911e-05
4.16765e-06
-3.08807e-07
-1.38889e-05
-9.41987e-07
1.70865e-07
-1.19945e-05
-5.09146e-06
8.4114e-07
-1.08966e-05
-8.79659e-06
1.15241e-06
-1.04758e-05
-1.11658e-05
1.37293e-06
-1.10436e-05
-1.34926e-05
1.57068e-06
-1.29495e-05
-1.47287e-05
1.97284e-06
-1.58162e-05
-1.49857e-05
2.17797e-06
-1.87715e-05
-1.49654e-05
2.19754e-06
-2.03155e-05
-1.47186e-05
2.47855e-06
-1.97655e-05
-1.35799e-05
3.06607e-06
-1.83689e-05
-1.14485e-05
3.95856e-06
-1.68362e-05
-9.71961e-06
4.40207e-06
-1.52959e-05
-8.1619e-06
4.45594e-06
-1.39485e-05
-7.15341e-06
4.3585e-06
-1.35262e-05
-5.91501e-06
3.53297e-06
-1.33332e-05
-3.41056e-06
1.49849e-06
-1.25177e-05
6.79098e-08
-1.029e-06
-1.11631e-05
4.04307e-06
-2.8832e-06
-8.70489e-06
7.96835e-06
-4.21956e-06
-4.80442e-06
1.08858e-05
-5.4475e-06
-1.17681e-06
1.09543e-05
-4.78229e-06
6.08765e-07
9.5622e-06
-3.41803e-06
6.40182e-07
8.74549e-06
-2.24274e-06
8.47736e-06
-1.63612e-06
-2.72807e-06
-5.39223e-07
-1.13914e-07
-1.50782e-06
-3.56083e-06
-1.45859e-06
-1.78655e-06
-4.0269e-07
-1.55919e-07
-1.36995e-06
-2.12227e-06
-4.03999e-07
-1.08519e-06
-1.24236e-06
-1.89255e-07
-7.96594e-07
-1.58423e-06
-1.50587e-07
-6.30072e-07
-1.05604e-06
-1.25105e-07
-5.32699e-07
-1.048e-06
-1.26192e-07
-4.93299e-07
-7.61852e-07
-1.69027e-07
-4.58988e-07
-7.25099e-07
-2.19926e-07
-4.25402e-07
-5.7015e-07
-2.80424e-07
-3.69088e-07
-5.44247e-07
-3.3395e-07
-3.23555e-07
-4.16569e-07
-3.74936e-07
-2.79473e-07
-3.66532e-07
-4.12531e-07
-2.42967e-07
-2.69238e-07
-4.41544e-07
-2.14345e-07
-2.32074e-07
-4.60968e-07
-1.91817e-07
-1.65144e-07
-4.77078e-07
-1.74604e-07
-1.42982e-07
-4.86645e-07
-1.61763e-07
-1.00212e-07
-4.94851e-07
-1.52731e-07
-8.48504e-08
-4.9823e-07
-1.45749e-07
-6.17336e-08
-5.0139e-07
-1.40801e-07
-5.15007e-08
-5.02196e-07
-1.3764e-07
-3.91613e-08
-5.02316e-07
-1.35473e-07
-3.25154e-08
-5.01523e-07
-1.34235e-07
-2.69034e-08
-4.99832e-07
-1.33456e-07
-2.34758e-08
-4.97677e-07
-1.33162e-07
-2.10181e-08
-4.95074e-07
-1.33451e-07
-1.95697e-08
-4.92076e-07
-1.34534e-07
-1.91043e-08
-4.88519e-07
-1.35882e-07
-1.92743e-08
-4.85126e-07
-1.38955e-07
-2.20125e-08
-4.80792e-07
-1.41402e-07
-2.31967e-08
-4.77182e-07
-1.46299e-07
-3.27224e-08
-4.71707e-07
-1.51156e-07
-3.22274e-08
-4.67361e-07
-1.59203e-07
-5.45352e-08
-4.59704e-07
-1.68435e-07
-5.58845e-08
-4.53465e-07
-1.83616e-07
-9.92813e-08
-4.40397e-07
-2.04462e-07
-1.10385e-07
-4.28021e-07
-2.34659e-07
-1.91588e-07
-4.06359e-07
-2.79937e-07
-2.2876e-07
-3.80806e-07
-3.33784e-07
-3.79925e-07
-3.44153e-07
-3.73958e-07
-5.17005e-07
-3.12046e-07
-2.82535e-07
-8.62436e-07
-3.38237e-07
-1.62217e-09
-1.11198e-06
-4.13477e-07
3.8955e-07
-1.07533e-06
-5.90128e-07
8.34189e-07
-8.24191e-07
-9.29245e-07
1.34618e-06
-6.18207e-07
-1.40199e-06
1.94069e-06
-2.64694e-07
-2.00198e-06
2.90323e-06
-6.02255e-07
-3.30768e-06
3.25847e-06
-9.49277e-07
-4.1765e-06
-6.31284e-07
-4.91731e-07
-2.61955e-06
-5.96414e-06
-1.80698e-06
3.90481e-08
-8.5486e-06
-5.05885e-06
-6.98719e-07
-6.70643e-06
-5.90171e-06
-2.28261e-06
6.32843e-06
-4.18737e-06
-4.29342e-06
1.22826e-05
1.92119e-06
-2.46024e-06
8.62481e-06
9.23464e-06
2.85696e-06
-8.75184e-06
2.12225e-05
3.02131e-06
2.46566e-05
8.0222e-06
-6.59981e-06
4.5864e-05
5.07795e-06
-5.52754e-06
8.8895e-06
2.45394e-05
-1.42464e-05
6.11768e-07
1.43174e-05
7.09561e-07
-3.22541e-06
1.50442e-05
-1.52309e-06
-1.01479e-05
9.75682e-06
2.28145e-06
-1.38497e-05
1.38545e-05
-1.88271e-06
-1.50832e-05
1.12128e-05
-2.05472e-06
-1.59192e-05
1.17613e-05
-1.60493e-06
-1.61601e-05
1.22012e-05
-8.15244e-07
-1.62264e-05
1.19695e-05
-3.02863e-07
-1.55066e-05
9.639e-06
-8.40135e-08
-1.42341e-05
7.07615e-06
3.30079e-08
-1.25806e-05
2.2463e-06
2.25649e-07
-1.12744e-05
-3.2376e-06
9.46788e-07
-1.01495e-05
-7.88632e-06
1.63842e-06
-9.59039e-06
-1.15112e-05
2.1285e-06
-9.65539e-06
-1.32488e-05
2.11959e-06
-1.10223e-05
-1.43842e-05
2.23069e-06
-1.39036e-05
-1.42533e-05
2.37974e-06
-1.74407e-05
-1.35861e-05
2.12407e-06
-1.95466e-05
-1.45421e-05
1.66623e-06
-2.01094e-05
-1.58853e-05
1.71237e-06
-1.89219e-05
-1.66097e-05
1.82104e-06
-1.67066e-05
-1.611e-05
2.42527e-06
-1.51704e-05
-1.4148e-05
2.87907e-06
-1.47432e-05
-1.14845e-05
2.89135e-06
-1.47029e-05
-9.30134e-06
2.10634e-06
-1.48738e-05
-6.57979e-06
8.32169e-07
-1.44436e-05
-3.2309e-06
-6.1395e-07
-1.3468e-05
3.94951e-07
-1.3042e-06
-1.18662e-05
4.53423e-06
-2.09332e-06
-9.15786e-06
8.21348e-06
-2.95367e-06
-5.45324e-06
1.08069e-05
-3.62599e-06
-2.25099e-06
1.12599e-05
-3.50826e-06
-6.42143e-07
1.07363e-05
-2.78317e-06
-6.41502e-08
1.02482e-05
-2.0809e-06
9.82838e-06
-1.41493e-06
-2.59996e-06
9.46764e-07
7.7818e-07
-1.78349e-06
-2.69316e-06
-1.69275e-06
-2.17796e-06
2.12274e-08
-2.2252e-08
-1.75359e-06
-1.83825e-06
-7.13009e-07
-1.32969e-06
-1.35488e-06
-3.06903e-07
-9.11997e-07
-1.55119e-06
-4.50871e-07
-6.2837e-07
-1.04353e-06
-2.92837e-07
-4.4197e-07
-9.3637e-07
-2.97247e-07
-3.45323e-07
-5.93116e-07
-2.64242e-07
-3.1965e-07
-4.46851e-07
-3.04252e-07
-3.0089e-07
-2.37599e-07
-3.51391e-07
-2.55797e-07
-1.70347e-07
-4.19304e-07
-2.19916e-07
-5.58936e-09
-4.46842e-07
-1.96566e-07
8.98175e-08
-4.79824e-07
-1.85598e-07
2.20258e-07
-5.00471e-07
-1.76772e-07
2.82077e-07
-5.23084e-07
-1.7455e-07
3.68927e-07
-5.36333e-07
-1.72893e-07
4.06087e-07
-5.50858e-07
-1.75815e-07
4.6198e-07
-5.5938e-07
-1.791e-07
4.8678e-07
-5.68531e-07
-1.83567e-07
5.18679e-07
-5.76121e-07
-1.88313e-07
5.36359e-07
-5.83336e-07
-1.93157e-07
5.55e-07
-5.89545e-07
-1.97833e-07
5.67564e-07
-5.95647e-07
-2.02921e-07
5.78922e-07
-6.01004e-07
-2.07814e-07
5.87584e-07
-6.06428e-07
-2.12436e-07
5.94798e-07
-6.11474e-07
-2.16858e-07
6.00825e-07
-6.16235e-07
-2.21863e-07
6.06219e-07
-6.20589e-07
-2.2708e-07
6.10967e-07
-6.25289e-07
-2.34762e-07
6.14246e-07
-6.28813e-07
-2.41712e-07
6.16874e-07
-6.33375e-07
-2.53787e-07
6.14983e-07
-6.3581e-07
-2.66337e-07
6.19997e-07
-6.39897e-07
-2.87101e-07
6.07778e-07
-6.41647e-07
-3.12425e-07
6.12336e-07
-6.43057e-07
-3.51901e-07
5.82316e-07
-6.42116e-07
-3.97541e-07
5.82025e-07
-6.46854e-07
-4.63275e-07
5.15814e-07
-6.41525e-07
-5.49341e-07
4.78219e-07
-6.20866e-07
-6.43376e-07
3.20318e-07
-6.05839e-07
-6.90894e-07
1.31468e-07
-6.00753e-07
-5.76478e-07
-2.52111e-07
-7.24338e-07
-1.81893e-07
-5.30074e-07
-9.76114e-07
4.41973e-07
-3.05395e-07
-1.39278e-06
1.08522e-06
3.51912e-07
-1.81702e-06
1.75141e-06
9.82975e-07
-2.26362e-06
2.55948e-06
1.85824e-06
-2.90168e-06
3.68423e-06
3.39762e-06
-5.03901e-06
2.99077e-06
4.93424e-06
-5.03167e-06
-2.9287e-06
6.11707e-06
-5.49552e-07
-1.27807e-05
5.68663e-06
2.36831e-06
-2.03289e-05
3.8695e-06
-1.45455e-06
-2.20228e-05
1.2846e-06
-5.58642e-06
-2.17521e-05
2.74768e-06
-7.15631e-06
-1.78997e-05
2.37205e-06
-4.72645e-06
1.03323e-06
4.99291e-08
-5.5793e-06
-1.39405e-05
2.74037e-05
3.41409e-06
2.41791e-05
-1.18045e-05
9.82714e-06
5.24415e-05
6.75628e-06
-6.71497e-06
5.68885e-06
3.94776e-05
-1.62664e-05
-3.63269e-06
1.70734e-05
3.67531e-06
-2.90384e-06
1.60948e-05
-1.841e-06
-7.20797e-06
9.3555e-06
4.66072e-06
-7.80205e-06
1.63256e-05
-1.93434e-06
-1.01655e-05
1.33849e-05
1.46455e-07
-1.18418e-05
1.48219e-05
-1.43435e-06
-1.16853e-05
1.24195e-05
-4.2126e-07
-1.00334e-05
9.92104e-06
3.65049e-07
-8.66489e-06
7.27844e-06
9.65509e-07
-7.96857e-06
5.26401e-06
1.09084e-06
-8.38697e-06
2.23022e-06
3.91883e-07
-9.66532e-06
-2.31855e-06
2.92501e-07
-1.11306e-05
-6.78127e-06
2.78048e-07
-1.10639e-05
-1.12388e-05
-4.24878e-07
-9.35627e-06
-1.47432e-05
-2.94608e-07
-7.62968e-06
-1.72362e-05
1.0406e-06
-7.54982e-06
-1.70236e-05
2.62212e-06
-1.01601e-05
-1.38598e-05
2.84034e-06
-1.40272e-05
-1.26548e-05
1.92508e-06
-1.66147e-05
-1.45412e-05
1.16624e-06
-1.7173e-05
-1.71038e-05
9.40474e-07
-1.68837e-05
-1.76404e-05
1.10881e-06
-1.62437e-05
-1.61039e-05
1.18411e-06
-1.5752e-05
-1.30653e-05
9.75171e-07
-1.56583e-05
-1.00399e-05
5.4123e-07
-1.57314e-05
-6.79839e-06
1.9333e-07
-1.53182e-05
-3.80941e-06
4.9093e-08
-1.40605e-05
-1.38834e-06
3.94613e-07
-1.2355e-05
2.33722e-06
3.38102e-07
-9.29774e-06
5.14475e-06
-1.71085e-07
-5.25753e-06
6.53602e-06
2.3989e-08
-1.71814e-06
6.90967e-06
5.92539e-07
5.69164e-07
6.57964e-06
1.67006e-06
1.14726e-06
5.61446e-06
4.1083e-06
1.98154e-06
9.41055e-06
-3.35223e-06
2.20192e-06
2.3454e-06
-2.20294e-06
-2.26332e-06
-1.59534e-06
-2.56706e-06
4.18527e-07
-2.46602e-08
-2.0078e-06
-1.36239e-06
-1.04093e-06
-1.44311e-06
-1.31855e-06
-5.96823e-07
-9.79819e-07
-1.29101e-06
-7.22649e-07
-6.06345e-07
-9.89085e-07
-4.22985e-07
-3.18358e-07
-8.50992e-07
-3.70496e-07
-1.40258e-07
-5.51008e-07