/*--------------------------------*- C++ -*----------------------------------*\
| =========                 |                                                 |
| \\      /  F ield         | OpenFOAM: The Open Source CFD Toolbox           |
|  \\    /   O peration     | Version:  2.3.0                                 |
|   \\  /    A nd           | Web:      www.OpenFOAM.org                      |
|    \\/     M anipulation  |                                                 |
\*---------------------------------------------------------------------------*/
FoamFile
{
    version     2.0;
    format      ascii;
    class       surfaceScalarField;
    location    "7";
    object      phi.air;
}
// * * * * * * * * * * * * * * * * * * * * * * * * * * * * * * * * * * * * * //

dimensions      [0 3 -1 0 0 0 0];

internalField   nonuniform List<scalar> 
16448
(
-2.24797e-06
-2.10886e-06
6.78867e-07
-9.728e-07
-2.06075e-06
7.85581e-07
-7.14044e-07
-1.31827e-06
1.05952e-06
-4.62519e-07
-1.33358e-06
1.08205e-06
-4.39505e-07
-1.12366e-06
1.10064e-06
-3.86931e-07
-1.15689e-06
1.10431e-06
-3.88148e-07
-1.10422e-06
1.10543e-06
-3.49638e-07
-1.14247e-06
1.10396e-06
-3.39105e-07
-1.12313e-06
1.1126e-06
-2.9134e-07
-1.16073e-06
1.11297e-06
-2.72223e-07
-1.14277e-06
1.12366e-06
-2.25425e-07
-1.17253e-06
1.12574e-06
-2.05213e-07
-1.15478e-06
1.13457e-06
-1.68116e-07
-1.17392e-06
1.13683e-06
-1.51397e-07
-1.15941e-06
1.14269e-06
-1.25867e-07
-1.17001e-06
1.14448e-06
-1.13171e-07
-1.16085e-06
1.14815e-06
-9.74606e-08
-1.16534e-06
1.14963e-06
-8.82615e-08
-1.16111e-06
1.15192e-06
-7.90858e-08
-1.16239e-06
1.15322e-06
-7.27618e-08
-1.16105e-06
1.15473e-06
-6.72903e-08
-1.16135e-06
1.15589e-06
-6.30485e-08
-1.16127e-06
1.15703e-06
-5.95128e-08
-1.1616e-06
1.15807e-06
-5.65431e-08
-1.16204e-06
1.15907e-06
-5.39089e-08
-1.16267e-06
1.16004e-06
-5.14558e-08
-1.16344e-06
1.16099e-06
-4.90386e-08
-1.16436e-06
1.16195e-06
-4.65243e-08
-1.16544e-06
1.16292e-06
-4.37919e-08
-1.16666e-06
1.16393e-06
-4.05489e-08
-1.16823e-06
1.16498e-06
-3.71441e-08
-1.16943e-06
1.16603e-06
-3.17899e-08
-1.17243e-06
1.16708e-06
-2.72264e-08
-1.17307e-06
1.16851e-06
-1.86114e-08
-1.17826e-06
1.16964e-06
-1.15496e-08
-1.17832e-06
1.17126e-06
1.35997e-09
-1.18557e-06
1.17266e-06
1.47946e-08
-1.18747e-06
1.17403e-06
3.0249e-08
-1.19231e-06
1.17685e-06
5.77313e-08
-1.20543e-06
1.17794e-06
7.72962e-08
-1.20119e-06
1.18163e-06
1.23359e-07
-1.22988e-06
1.18382e-06
1.53046e-07
-1.21867e-06
1.18898e-06
2.20283e-07
-1.26145e-06
1.19421e-06
2.63548e-07
-1.24698e-06
1.20371e-06
3.46836e-07
-1.30539e-06
1.2221e-06
3.96036e-07
-1.29636e-06
1.24715e-06
4.70038e-07
-1.39198e-06
1.31797e-06
4.9738e-07
-1.42331e-06
1.39596e-06
4.7759e-07
-1.61539e-06
1.63518e-06
8.1185e-07
-2.15071e-06
1.81644e-06
5.7582e-08
-1.46728e-06
2.22154e-06
-3.99992e-08
-1.48684e-06
1.58441e-06
-1.70597e-06
9.46387e-08
1.57132e-06
-3.06526e-06
9.05233e-07
4.54027e-07
-2.67045e-06
-1.93252e-06
1.5377e-06
-2.29941e-06
-1.12851e-07
-2.5875e-07
-3.4244e-06
-6.67817e-09
1.13122e-06
-6.75023e-06
-7.70405e-08
3.10782e-06
-2.87486e-05
-1.89184e-05
1.22148e-05
-6.05317e-05
-1.48702e-05
3.15344e-06
-1.6874e-05
-2.21568e-06
1.17022e-06
2.06097e-05
9.49896e-07
2.99988e-08
2.23252e-05
-1.58966e-06
-4.0984e-07
2.35494e-05
-4.99536e-07
-7.92692e-07
2.43595e-05
5.8891e-07
-1.36475e-06
2.49343e-05
1.09961e-06
-1.65642e-06
2.5333e-05
1.28306e-06
-1.68834e-06
2.54534e-05
1.39246e-06
-1.5297e-06
2.52872e-05
1.44982e-06
-1.29964e-06
2.49166e-05
1.44795e-06
-1.09199e-06
2.44088e-05
1.40169e-06
-9.0894e-07
2.38796e-05
1.25458e-06
-7.37519e-07
2.33302e-05
1.09446e-06
-5.55711e-07
2.27097e-05
8.96572e-07
-2.83798e-07
2.20534e-05
7.67273e-07
-1.08899e-07
2.1136e-05
8.54976e-07
6.65568e-08
1.99778e-05
8.96623e-07
2.66689e-07
1.86895e-05
9.8529e-07
3.08793e-07
1.67861e-05
1.27443e-06
6.22311e-07
1.46776e-05
1.23509e-06
8.60245e-07
1.23364e-05
1.19113e-06
1.13775e-06
8.2988e-06
1.80099e-06
2.15922e-06
3.55572e-06
2.01013e-06
2.62831e-06
1.86036e-07
1.36498e-06
1.9703e-06
-1.49962e-06
7.80014e-07
9.11601e-07
-1.68595e-06
2.78999e-07
-9.71665e-08
-1.02058e-06
-3.63879e-07
-3.0103e-07
-2.51867e-07
-9.00947e-07
1.5469e-07
2.28805e-07
-1.12747e-06
7.17679e-07
4.39199e-07
-1.11109e-06
1.05772e-06
4.93291e-07
-1.04357e-06
1.2518e-06
4.64955e-07
-1.02091e-06
1.36171e-06
2.12709e-07
-1.01046e-06
1.41518e-06
-2.44993e-07
-1.00723e-06
1.45885e-06
-1.01598e-06
1.48384e-06
-2.30379e-06
-3.01195e-06
-3.16752e-07
-1.11577e-06
-3.13316e-06
-1.15604e-07
-9.44421e-07
-1.85423e-06
3.64598e-07
-7.36943e-07
-1.95969e-06
4.18618e-07
-7.38908e-07
-1.58837e-06
4.66667e-07
-6.917e-07
-1.67207e-06
4.67957e-07
-6.80061e-07
-1.58925e-06
4.73384e-07
-6.24525e-07
-1.66284e-06
4.64829e-07
-5.87968e-07
-1.63906e-06
4.79374e-07
-5.16847e-07
-1.70508e-06
4.73226e-07
-4.72706e-07
-1.68162e-06
4.94715e-07
-4.04895e-07
-1.73322e-06
4.92882e-07
-3.65699e-07
-1.7071e-06
5.13133e-07
-3.11813e-07
-1.74144e-06
5.13639e-07
-2.81971e-07
-1.71847e-06
5.29223e-07
-2.44088e-07
-1.73878e-06
5.30891e-07
-2.22588e-07
-1.72384e-06
5.41502e-07
-1.9836e-07
-1.73352e-06
5.43952e-07
-1.83184e-07
-1.72643e-06
5.5014e-07
-1.68449e-07
-1.73003e-06
5.52903e-07
-1.57999e-07
-1.72805e-06
5.56551e-07
-1.48933e-07
-1.72937e-06
5.58952e-07
-1.41819e-07
-1.7297e-06
5.61315e-07
-1.35867e-07
-1.73082e-06
5.63265e-07
-1.30891e-07
-1.73203e-06
5.65021e-07
-1.26555e-07
-1.73358e-06
5.66573e-07
-1.22626e-07
-1.73535e-06
5.6798e-07
-1.18894e-07
-1.73737e-06
5.6927e-07
-1.15137e-07
-1.73966e-06
5.70463e-07
-1.11112e-07
-1.74225e-06
5.71566e-07
-1.06778e-07
-1.7451e-06
5.72537e-07
-1.01613e-07
-1.74802e-06
5.73419e-07
-9.54841e-08
-1.75246e-06
5.73901e-07
-8.9009e-08
-1.75462e-06
5.75071e-07
-7.95582e-08
-1.76274e-06
5.75025e-07
-7.00414e-08
-1.76427e-06
5.76425e-07
-5.5402e-08
-1.77625e-06
5.76038e-07
-4.06327e-08
-1.78001e-06
5.77767e-07
-1.78612e-08
-1.7925e-06
5.77411e-07
5.82266e-09
-1.80728e-06
5.7816e-07
3.71381e-08
-1.81249e-06
5.79973e-07
8.16577e-08
-1.85109e-06
5.76679e-07
1.20964e-07
-1.84211e-06
5.84126e-07
1.88778e-07
-1.90857e-06
5.79296e-07
2.37511e-07
-1.88977e-06
5.94049e-07
3.10239e-07
-1.98014e-06
6.02005e-07
3.37296e-07
-1.96311e-06
6.39684e-07
3.0883e-07
-2.07905e-06
7.15524e-07
7.67149e-08
-2.0705e-06
8.79289e-07
-5.61446e-07
-2.24659e-06
1.26933e-06
-2.18728e-06
-2.42247e-06
1.89757e-06
-3.87276e-06
-1.70539e-06
1.92356e-06
-5.81479e-06
-9.07292e-07
1.36247e-06
-5.50333e-06
9.71441e-08
-3.13977e-07
-1.87807e-06
-9.07605e-07
-1.81247e-06
1.96385e-06
-5.79088e-06
1.64364e-08
-1.81078e-06
5.48929e-06
-1.82812e-06
-9.36482e-06
7.27708e-06
2.69812e-07
-6.56277e-06
1.66631e-06
-4.86831e-06
-2.90704e-05
-2.95618e-05
4.36228e-06
-7.46827e-05
-2.46027e-05
3.60955e-06
-3.36263e-05
-4.76312e-06
-1.30907e-06
1.22676e-05
-4.87566e-06
-4.0332e-06
1.45271e-05
-9.08084e-07
-3.28976e-06
1.63011e-05
1.41285e-06
-3.40609e-06
1.85114e-05
2.17552e-06
-3.75876e-06
2.03354e-05
2.73081e-06
-3.48589e-06
2.15204e-05
3.09652e-06
-2.98384e-06
2.2122e-05
3.23419e-06
-2.41327e-06
2.23157e-05
3.20164e-06
-1.91997e-06
2.22673e-05
3.02783e-06
-1.51875e-06
2.20318e-05
2.75694e-06
-1.12217e-06
2.16902e-05
2.37064e-06
-7.85782e-07
2.13898e-05
1.79142e-06
-4.23866e-07
2.10333e-05
1.29258e-06
-6.2618e-08
2.05717e-05
1.06131e-06
1.62502e-07
1.98361e-05
1.20028e-06
3.88065e-07
1.88625e-05
1.34161e-06
5.22392e-07
1.76825e-05
1.59276e-06
5.74133e-07
1.60121e-05
2.10014e-06
8.46231e-07
1.39587e-05
2.38735e-06
9.13592e-07
1.12718e-05
2.72414e-06
1.16106e-06
7.11468e-06
3.78458e-06
2.0698e-06
2.89861e-06
3.7958e-06
2.30275e-06
7.3325e-08
2.4354e-06
1.72336e-06
-1.44209e-06
1.44538e-06
8.52177e-07
-1.67502e-06
9.0095e-07
-3.93372e-07
-1.11327e-06
2.53631e-07
-1.17907e-06
-3.37348e-07
-5.14045e-07
-1.13662e-06
2.24733e-07
-1.04483e-06
-5.57651e-07
5.42566e-07
-1.20569e-06
-4.47598e-08
6.81026e-07
-1.16847e-06
2.77007e-07
6.68112e-07
-1.12996e-06
4.78831e-07
3.49854e-07
-1.09714e-06
5.92338e-07
-2.0544e-07
-1.07489e-06
6.32463e-07
-1.10587e-06
6.848e-07
-2.20346e-06
-3.22921e-06
-7.02077e-07
-1.04758e-06
-3.5374e-06
-7.51641e-07
-9.07034e-07
-1.9041e-06
-9.06844e-08
-7.23975e-07
-2.13117e-06
-1.15856e-08
-7.29788e-07
-1.63123e-06
4.8657e-08
-7.03744e-07
-1.75581e-06
5.76857e-08
-6.9718e-07
-1.64966e-06
5.38328e-08
-6.4478e-07
-1.7543e-06
3.90574e-08
-6.04343e-07
-1.72583e-06
4.63367e-08
-5.30434e-07
-1.81364e-06
3.466e-08
-4.79915e-07
-1.78334e-06
5.12081e-08
-4.10658e-07
-1.84849e-06
4.60164e-08
-3.67985e-07
-1.81319e-06
6.34175e-08
-3.14445e-07
-1.85647e-06
6.14919e-08
-2.82213e-07
-1.82549e-06
7.47971e-08
-2.44944e-07
-1.85044e-06
7.44012e-08
-2.2288e-07
-1.82886e-06
8.29562e-08
-1.98849e-07
-1.84078e-06
8.32432e-08
-1.84268e-07
-1.82924e-06
8.82403e-08
-1.69806e-07
-1.83333e-06
8.88457e-08
-1.60195e-07
-1.82882e-06
9.11643e-08
-1.51586e-07
-1.82967e-06
9.16972e-08
-1.45122e-07
-1.8286e-06
9.24415e-08
-1.39715e-07
-1.82882e-06
9.25946e-08
-1.35281e-07
-1.82904e-06
9.25704e-08
-1.31429e-07
-1.82971e-06
9.22842e-08
-1.27964e-07
-1.83065e-06
9.18315e-08
-1.24684e-07
-1.83189e-06
9.12482e-08
-1.2139e-07
-1.8335e-06
9.05483e-08
-1.17885e-07
-1.83551e-06
8.97577e-08
-1.14018e-07
-1.83795e-06
8.89817e-08
-1.09451e-07
-1.84077e-06
8.81806e-08
-1.04043e-07
-1.84497e-06
8.70989e-08
-9.81053e-08
-1.84732e-06
8.67564e-08
-8.93668e-08
-1.85651e-06
8.50324e-08
-8.08641e-08
-1.85773e-06
8.49536e-08
-6.69814e-08
-1.87255e-06
8.24074e-08
-5.43714e-08
-1.87522e-06
8.25967e-08
-3.22973e-08
-1.89394e-06
7.93597e-08
-1.23587e-08
-1.90619e-06
7.89737e-08
2.03001e-08
-1.92183e-06
7.66747e-08
5.82262e-08
-1.96031e-06
7.1294e-08
9.91167e-08
-1.95898e-06
7.59665e-08
1.61868e-07
-2.03737e-06
6.60433e-08
2.11243e-07
-2.01872e-06
7.95618e-08
2.79186e-07
-2.13003e-06
8.19341e-08
2.9269e-07
-2.10052e-06
1.23886e-07
2.24641e-07
-2.22144e-06
2.1042e-07
-1.4519e-07
-2.09849e-06
3.97801e-07
-1.04916e-06
-2.20713e-06
8.64492e-07
-3.04413e-06
-2.02837e-06
1.60085e-06
-4.71227e-06
-1.55288e-06
1.51561e-06
-5.62443e-06
-3.34944e-07
3.39786e-07
-4.79151e-06
6.84027e-07
-1.41981e-06
-3.79336e-07
-2.64239e-06
-2.67744e-06
2.14222e-07
-6.29164e-06
-9.28098e-08
5.44756e-06
3.60352e-06
-3.34811e-06
2.2689e-06
1.2231e-05
-1.77528e-06
-3.88798e-06
8.42938e-06
-8.63967e-07
-2.53014e-05
-3.40395e-05
8.17942e-07
-3.35833e-05
-3.70001e-05
7.52966e-06
-2.82152e-06
-1.29371e-05
1.40211e-06
7.26772e-06
-1.31285e-05
-2.19251e-06
7.79718e-06
6.55352e-07
-2.3579e-06
1.10413e-05
1.07526e-06
-2.69817e-06
1.38526e-05
1.84011e-06
-2.60324e-06
1.57714e-05
2.65759e-06
-1.95995e-06
1.68476e-05
3.12455e-06
-1.16173e-06
1.73028e-05
3.21527e-06
-4.69974e-07
1.73193e-05
3.14689e-06
2.13628e-08
1.7039e-05
2.78607e-06
5.22317e-07
1.65881e-05
2.30084e-06
9.26197e-07
1.60665e-05
1.67443e-06
1.25311e-06
1.54936e-05
8.06338e-07
1.57814e-06
1.48395e-05
2.34675e-07
1.72862e-06
1.4149e-05
8.55292e-08
1.69095e-06
1.34144e-05
2.50647e-07
1.69487e-06
1.25159e-05
6.62164e-07
1.5813e-06
1.14327e-05
1.23882e-06
1.43658e-06
9.66031e-06
2.05102e-06
1.7632e-06
6.70305e-06
2.90117e-06
2.33796e-06
3.11817e-06
3.59094e-06
2.6274e-06
4.31661e-07
3.76852e-06
2.64181e-06
-1.09024e-06
2.90945e-06
2.38335e-06
-2.27246e-06
1.73026e-06
1.88246e-06
-2.88856e-06
1.09924e-06
9.57556e-07
-2.47293e-06
9.39435e-07
-4.58271e-07
-1.50128e-06
7.39766e-07
-1.45695e-06
-5.23307e-07
2.22391e-07
-1.68699e-06
1.40676e-07
-3.00946e-07
-1.31512e-06
4.84496e-07
-6.2176e-07
-7.34386e-07
6.32302e-07
-7.18256e-07
-2.92639e-07
6.53512e-07
-7.10246e-07
-7.47962e-08
3.74091e-07
-6.85288e-07
5.38061e-08
-1.91788e-07
-6.86289e-07
1.7741e-07
-7.44385e-07
3.10578e-07
-2.40566e-06
-2.9526e-06
-7.61878e-07
-1.27109e-06
-3.71221e-06
-9.5975e-07
-1.1298e-06
-1.70393e-06
-3.41463e-07
-8.95841e-07
-2.11388e-06
-2.51262e-07
-8.68483e-07
-1.46771e-06
-1.90898e-07
-8.3625e-07
-1.62553e-06
-1.62523e-07
-8.19282e-07
-1.48159e-06
-1.85049e-07
-7.57346e-07
-1.61008e-06
-2.06157e-07
-7.00802e-07
-1.57251e-06
-2.09868e-07
-6.11097e-07
-1.67431e-06
-2.29028e-07
-5.44256e-07
-1.63393e-06
-2.16242e-07
-4.62472e-07
-1.70545e-06
-2.2481e-07
-4.08787e-07
-1.66012e-06
-2.06744e-07
-3.48454e-07
-1.70714e-06
-2.09656e-07
-3.12216e-07
-1.66747e-06
-1.94253e-07
-2.72588e-07
-1.69501e-06
-1.95051e-07
-2.48709e-07
-1.66704e-06
-1.85686e-07
-2.23794e-07
-1.67963e-06
-1.86064e-07
-2.08599e-07
-1.66332e-06
-1.81114e-07
-1.93612e-07
-1.66686e-06
-1.81461e-07
-1.84168e-07
-1.65864e-06
-1.79618e-07
-1.75531e-07
-1.65818e-06
-1.80131e-07
-1.69342e-07
-1.65453e-06
-1.80257e-07
-1.64181e-07
-1.65278e-06
-1.81199e-07
-1.60049e-07
-1.65085e-06
-1.82316e-07
-1.56497e-07
-1.6495e-06
-1.83769e-07
-1.53382e-07
-1.64836e-06
-1.85403e-07
-1.50525e-07
-1.64758e-06
-1.87177e-07
-1.47728e-07
-1.64721e-06
-1.89085e-07
-1.44805e-07
-1.64732e-06
-1.91125e-07
-1.41548e-07
-1.64792e-06
-1.93285e-07
-1.37685e-07
-1.64901e-06
-1.95623e-07
-1.33198e-07
-1.65125e-06
-1.98212e-07
-1.27841e-07
-1.65238e-06
-2.00303e-07
-1.20601e-07
-1.66024e-06
-2.03509e-07
-1.13384e-07
-1.65952e-06
-2.05428e-07
-1.01001e-07
-1.67499e-06
-2.09944e-07
-9.09468e-08
-1.67398e-06
-2.11298e-07
-7.06926e-08
-1.69683e-06
-2.17362e-07
-5.51996e-08
-1.70277e-06
-2.1892e-07
-2.25587e-08
-1.72818e-06
-2.26296e-07
3.41106e-09
-1.75647e-06
-2.29819e-07
5.02015e-08
-1.77197e-06
-2.33803e-07
1.06009e-07
-1.84824e-06
-2.4495e-07
1.60886e-07
-1.83773e-06
-2.35871e-07
2.40496e-07
-1.97096e-06
-2.38686e-07
2.81636e-07
-1.93635e-06
-2.05317e-07
2.91451e-07
-2.11207e-06
-1.19194e-07
1.15075e-07
-1.95393e-06
3.18023e-08
-4.48368e-07
-2.04143e-06
3.97724e-07
-1.86325e-06
-1.57139e-06
9.57883e-07
-3.24854e-06
-1.18784e-06
1.02023e-06
-4.66595e-06
9.27735e-07
1.54699e-07
-4.19309e-06
2.52692e-06
-2.31579e-06
-1.32723e-06
-2.06349e-06
-3.44483e-06
-3.75694e-06
-3.3487e-06
-5.13214e-07
4.99449e-06
-3.5492e-06
-1.59914e-06
7.39004e-06
1.62126e-05
-6.37704e-06
9.55277e-06
4.27436e-06
1.40517e-06
-2.54359e-05
-3.01977e-05
2.18783e-06
-4.0672e-05
-3.6888e-05
9.3525e-06
-1.04164e-05
-1.09978e-05
3.1163e-06
-9.95233e-06
-1.29743e-05
1.05348e-06
-5.66118e-06
-1.7738e-06
-3.28234e-06
3.22208e-07
-1.90755e-06
-3.20907e-06
2.84818e-06
2.0486e-07
-9.66741e-07
4.50042e-06
3.57059e-07
4.57343e-07
5.09363e-06
8.36303e-07
1.42794e-06
4.99889e-06
9.98026e-07
2.06579e-06
4.21457e-06
1.07221e-06
2.50598e-06
2.70718e-06
9.32175e-07
2.9056e-06
4.60097e-07
4.69847e-07
3.35118e-06
-2.47296e-06
-3.91885e-08
3.90618e-06
-5.47664e-06
-1.08189e-06
4.0398e-06
-7.48432e-06
-1.80236e-06
3.32253e-06
-8.44812e-06
-2.18858e-06
2.76726e-06
-8.60404e-06
-2.49611e-06
2.36701e-06
-8.34267e-06
-2.38753e-06
2.12575e-06
-7.99657e-06
-1.13982e-06
2.09724e-06
-7.70751e-06
-4.7731e-07
2.23442e-06
-7.38971e-06
1.71065e-07
2.39882e-06
-6.84063e-06
5.66352e-07
2.46067e-06
-6.16332e-06
7.19545e-07
2.33399e-06
-5.70343e-06
4.75875e-07
1.944e-06
-5.50122e-06
2.61489e-07
1.25955e-06
-4.95872e-06
3.58564e-07
2.01615e-07
-3.81688e-06
6.79661e-07
-8.83503e-07
-2.34409e-06
9.17736e-07
-1.6452e-06
-1.013e-06
7.6268e-07
-1.82492e-06
-8.75898e-08
3.46002e-07
-1.45842e-06
4.46036e-07
5.24054e-08
-9.99227e-07
7.30199e-07
-7.40498e-08
-6.0379e-07
8.66339e-07
-8.8201e-08
-3.58356e-07
6.65737e-07
-5.33517e-08
-2.08864e-07
6.9389e-08
2.78311e-08
-1.02146e-07
2.14039e-07
4.83053e-08
-2.65735e-06
-2.32956e-06
-7.41268e-07
-1.47632e-06
-3.71125e-06
-1.18199e-06
-1.43232e-06
-1.27384e-06
-4.74112e-07
-1.12079e-06
-2.01478e-06
-4.10648e-07
-1.03024e-06
-1.21413e-06
-3.44141e-07
-9.46139e-07
-1.42808e-06
-2.81565e-07
-9.03037e-07
-1.20326e-06
-3.21428e-07
-8.37449e-07
-1.33437e-06
-3.41293e-07
-7.67716e-07
-1.26948e-06
-3.72751e-07
-6.76732e-07
-1.3636e-06
-4.01683e-07
-5.93581e-07
-1.30692e-06
-4.10153e-07
-5.10664e-07
-1.36581e-06
-4.22546e-07
-4.44186e-07
-1.30827e-06
-4.18315e-07
-3.82915e-07
-1.34517e-06
-4.23227e-07
-3.39738e-07
-1.29539e-06
-4.15245e-07
-3.0005e-07
-1.31734e-06
-4.17347e-07
-2.74119e-07
-1.28177e-06
-4.11198e-07
-2.49851e-07
-1.29123e-06
-4.12658e-07
-2.34049e-07
-1.26884e-06
-4.10271e-07
-2.1959e-07
-1.26948e-06
-4.11827e-07
-2.1033e-07
-1.25658e-06
-4.1132e-07
-2.02136e-07
-1.25336e-06
-4.13008e-07
-1.96455e-07
-1.24597e-06
-4.1424e-07
-1.91822e-07
-1.24109e-06
-4.16321e-07
-1.88266e-07
-1.23584e-06
-4.18574e-07
-1.85272e-07
-1.23121e-06
-4.21273e-07
-1.82752e-07
-1.22682e-06
-4.24062e-07
-1.80505e-07
-1.22295e-06
-4.26873e-07
-1.78323e-07
-1.21964e-06
-4.29758e-07
-1.76017e-07
-1.21695e-06
-4.32675e-07
-1.7346e-07
-1.2149e-06
-4.35584e-07
-1.70537e-07
-1.21342e-06
-4.38514e-07
-1.67133e-07
-1.21296e-06
-4.417e-07
-1.62702e-07
-1.21197e-06
-4.44837e-07
-1.5694e-07
-1.21699e-06
-4.49021e-07
-1.50881e-07
-1.21394e-06
-4.51639e-07
-1.4109e-07
-1.22785e-06
-4.56936e-07
-1.32749e-07
-1.22356e-06
-4.58771e-07
-1.16084e-07
-1.24788e-06
-4.65631e-07
-1.04793e-07
-1.24741e-06
-4.66659e-07
-7.60583e-08
-1.28148e-06
-4.75446e-07
-5.72868e-08
-1.29848e-06
-4.76772e-07
-1.0947e-08
-1.33362e-06
-4.84696e-07
2.34576e-08
-1.39511e-06
-4.87545e-07
8.26025e-08
-1.41198e-06
-4.84907e-07
1.39634e-07
-1.55213e-06
-4.75872e-07
1.85529e-07
-1.53341e-06
-4.48851e-07
1.7994e-07
-1.74604e-06
-3.60455e-07
1.04845e-07
-1.63328e-06
-2.45571e-07
-2.27256e-07
-1.77069e-06
6.13473e-08
-8.50374e-07
-1.43758e-06
4.8929e-07
-1.64013e-06
-1.18162e-06
7.83508e-07
-2.25999e-06
1.06971e-06
4.77858e-07
-1.1238e-06
3.8808e-06
-2.49012e-06
2.48902e-06
-1.34513e-06
-4.3313e-06
3.85923e-06
-1.00152e-06
-3.71743e-06
9.68825e-06
-2.81709e-06
-6.56132e-06
1.497e-05
1.83648e-05
-7.43389e-06
1.32263e-05
-1.00888e-05
1.38532e-05
-4.43036e-05
-1.89264e-05
2.74316e-06
-0.000118929
-2.98431e-05
8.60866e-06
-0.000121787
-9.42087e-06
4.39477e-06
-0.000123436
-1.02813e-05
2.88721e-06
-0.000123363
-3.31869e-06
1.35859e-06
-0.000123623
-2.01797e-06
2.09163e-06
-0.000126066
-4.41494e-07
2.9015e-06
-0.000127543
-2.83461e-07
3.12253e-06
-0.0001294
-8.42177e-08
3.29595e-06
-0.000131841
-1.10945e-07
3.33196e-06
-0.00013268
-2.54615e-07
3.28442e-06
-0.000133631
-7.52689e-07
3.1506e-06
-0.000134591
-1.40266e-06
2.83809e-06
-0.000134382
-2.13384e-06
2.55072e-06
-0.000130528
-3.06274e-06
2.0475e-06
-0.00011479
-3.43726e-06
1.65728e-06
-9.65185e-05
-4.03351e-06
1.4556e-06
-8.18775e-05
-4.17267e-06
1.17985e-06
-4.78865e-05
-4.15216e-06
1.05371e-06
-2.0681e-05
-4.1278e-06
1.06798e-06
-1.8351e-05
-3.56879e-06
7.93364e-07
-1.59607e-05
-2.99333e-06
7.86715e-07
-1.37199e-05
-2.4201e-06
7.11331e-07
-1.16094e-05
-1.85906e-06
4.98654e-07
-9.81384e-06
-1.31143e-06
6.88452e-08
-8.36518e-06
-8.82665e-07
-3.98101e-07
-6.89864e-06
-1.28491e-07
-9.96475e-07
-5.20253e-06
5.64293e-07
-1.58909e-06
-3.4028e-06
1.05801e-06
-1.92111e-06
-1.83721e-06
1.15649e-06
-1.89547e-06
-6.91872e-07
1.00719e-06
-1.68359e-06
1.25216e-07
8.09026e-07
-1.35868e-06
6.81782e-07
7.42671e-07
-1.03272e-06
8.5614e-07
7.70298e-07
-6.34233e-07
5.39291e-07
7.65827e-07
-3.13852e-07
-1.04513e-07
7.67624e-07
-8.85391e-08
1.21978e-06
-7.86054e-08
-2.81394e-06
-1.52606e-06
-4.82507e-07
-1.56402e-06
-3.56446e-06
-1.39672e-06
-1.66744e-06
-7.60994e-07
-4.09443e-07
-1.30726e-06
-1.92126e-06
-4.53722e-07
-1.15921e-06
-1.00685e-06
-3.55364e-07
-1.00426e-06
-1.32127e-06
-2.61774e-07
-9.24252e-07
-9.69357e-07
-3.1391e-07
-8.56676e-07
-1.07912e-06
-3.22819e-07
-7.87525e-07
-9.4394e-07
-3.94678e-07
-7.05471e-07
-1.0054e-06
-4.40236e-07
-6.18029e-07
-9.09399e-07
-4.8495e-07
-5.41468e-07
-9.31288e-07
-5.11068e-07
-4.66748e-07
-8.43964e-07
-5.39015e-07
-4.11373e-07
-8.4761e-07
-5.52924e-07
-3.61777e-07
-7.75362e-07
-5.69616e-07
-3.25927e-07
-7.75156e-07
-5.78028e-07
-2.9673e-07
-7.22967e-07
-5.87992e-07
-2.74318e-07
-7.19485e-07
-5.94154e-07
-2.58182e-07
-6.84514e-07
-6.00458e-07
-2.45684e-07
-6.76475e-07
-6.055e-07
-2.36534e-07
-6.55499e-07
-6.10223e-07
-2.2931e-07
-6.46193e-07
-6.14389e-07
-2.2434e-07
-6.33123e-07
-6.17813e-07
-2.20442e-07
-6.24048e-07
-6.20939e-07
-2.17602e-07
-6.15299e-07
-6.23373e-07
-2.15595e-07
-6.07768e-07
-6.25454e-07
-2.14361e-07
-6.00819e-07
-6.27229e-07
-2.13383e-07
-5.9515e-07
-6.2878e-07
-2.12472e-07
-5.90651e-07
-6.299e-07
-2.11558e-07
-5.87111e-07
-6.30753e-07
-2.10494e-07
-5.84519e-07
-6.31445e-07
-2.09171e-07
-5.82845e-07
-6.31905e-07
-2.07341e-07
-5.82652e-07
-6.32137e-07
-2.04482e-07
-5.82983e-07
-6.31855e-07
-2.01044e-07
-5.88814e-07
-6.31615e-07
-1.97064e-07
-5.88074e-07
-6.29856e-07
-1.90942e-07
-6.04174e-07
-6.29797e-07
-1.84746e-07
-6.03127e-07
-6.26633e-07
-1.73312e-07
-6.33316e-07
-6.25996e-07
-1.64926e-07
-6.35542e-07
-6.20262e-07
-1.44621e-07
-6.81466e-07
-6.20319e-07
-1.33416e-07
-6.98481e-07
-6.11211e-07
-9.68229e-08
-7.59717e-07
-6.10506e-07
-8.18771e-08
-8.17469e-07
-5.92596e-07
-2.43758e-08
-8.82845e-07
-5.86646e-07
-2.58503e-08
-1.01293e-06
-5.3774e-07
3.06363e-08
-1.07823e-06
-5.11678e-07
-5.82228e-08
-1.28203e-06
-3.75165e-07
-1.15332e-07
-1.28367e-06
-2.92513e-07
-3.65788e-07
-1.46498e-06
-5.52694e-08
-6.73648e-07
-1.21535e-06
8.56116e-08
-1.21551e-06
-9.35665e-07
2.9589e-07
-1.39374e-06
1.28632e-06
-3.84143e-08
-3.10305e-07
4.98341e-06
-2.18611e-06
6.66058e-07
3.05251e-06
-5.37415e-06
4.10718e-07
6.12734e-06
-6.87355e-06
9.86075e-06
-3.24876e-07
-1.19423e-05
2.85895e-05
6.60262e-06
-6.9666e-06
3.67007e-06
-1.21886e-05
2.19378e-05
-6.20553e-05
-9.65253e-06
1.91643e-06
-0.000131212
-1.95114e-05
1.06597e-05
-0.000140536
-4.9756e-06
4.88923e-06
-0.000148009
-5.08541e-06
2.0114e-06
-0.000152529
-1.33999e-06
7.34764e-07
-0.000153643
-6.94653e-07
5.48484e-07
-0.000152016
-3.84238e-07
1.061e-06
-0.000146836
-2.96625e-07
1.23813e-06
-0.00015189
-4.72735e-07
1.35962e-06
-0.000156922
-7.35543e-07
1.34837e-06
-0.000156455
-1.10823e-06
1.24446e-06
-0.000154908
-1.63131e-06
9.55624e-07
-0.000155845
-2.34816e-06
6.83861e-07
-0.00015862
-3.24885e-06
5.13557e-07
-0.000156086
-4.03563e-06
1.37649e-07
-0.000154808
-4.18036e-06
-2.01011e-07
-0.000152168
-5.09144e-06
-3.18728e-07
-0.00015068
-5.34967e-06
-4.82343e-07
-0.00014747
-5.5399e-06
-5.70368e-07
-0.000141801
-5.40867e-06
-6.39573e-07
-0.000133379
-4.92005e-06
-7.19108e-07
-0.000133243
-4.40752e-06
-8.06049e-07
-0.000135844
-3.84068e-06
-8.54588e-07
-0.000117371
-3.15062e-06
-9.97767e-07
-7.94529e-05
-2.31867e-06
-1.22662e-06
-3.53206e-05
-1.54401e-06
-1.48276e-06
-1.07603e-05
-1.04116e-06
-1.99249e-06
-7.77394e-06
-7.22628e-08
-2.05111e-06
-5.22655e-06
8.99694e-07
-2.14477e-06
-3.23358e-06
1.31006e-06
-2.03589e-06
-1.69531e-06
1.56571e-06
-1.76067e-06
-5.38241e-07
1.69805e-06
-1.68479e-06
3.35003e-07
1.85765e-06
-1.43515e-06
5.16454e-07
1.89931e-06
-1.17744e-06
7.69626e-08
2.00899e-06
-8.01711e-07
-3.17146e-07
1.43376e-06
-2.90364e-07
1.26517e-06
5.66583e-07
-2.91007e-06
-5.17004e-07
-4.47657e-08
-1.66977e-06
-3.22809e-06
-1.57668e-06
-1.8964e-06
-2.48303e-07
-2.86078e-07
-1.49354e-06
-1.81261e-06
-5.11538e-07
-1.27819e-06
-9.15609e-07
-3.06597e-07
-1.03104e-06
-1.28732e-06
-2.81103e-07
-8.95314e-07
-8.36518e-07
-2.68562e-07
-8.04622e-07
-8.9743e-07
-2.72375e-07
-7.4141e-07
-6.89649e-07
-3.17487e-07
-6.66621e-07
-7.18681e-07
-3.61498e-07
-5.96953e-07
-5.742e-07
-4.04851e-07
-5.25132e-07
-5.5956e-07
-4.43535e-07
-4.61819e-07
-4.28591e-07
-4.78672e-07
-4.1223e-07
-3.95236e-07
-5.01949e-07
-3.69716e-07
-2.9217e-07
-5.25695e-07
-3.39117e-07
-2.67868e-07
-5.37875e-07
-3.14526e-07
-1.95569e-07
-5.5198e-07
-2.96582e-07
-1.78343e-07
-5.59074e-07
-2.83598e-07
-1.31276e-07
-5.66215e-07
-2.74039e-07
-1.16732e-07
-5.69292e-07
-2.66554e-07
-9.03522e-08
-5.72626e-07
-2.60683e-07
-7.87812e-08
-5.73274e-07
-2.56908e-07
-6.43416e-08
-5.72554e-07
-2.53987e-07
-5.56801e-08
-5.71281e-07
-2.52141e-07
-4.79014e-08
-5.69242e-07
-2.51002e-07
-4.19976e-08
-5.66904e-07
-2.50686e-07
-3.73542e-08
-5.6378e-07
-2.50883e-07
-3.45453e-08
-5.60404e-07
-2.51206e-07
-3.31719e-08
-5.57157e-07
-2.51477e-07
-3.31838e-08
-5.53654e-07
-2.5172e-07
-3.44569e-08
-5.49822e-07
-2.51942e-07
-3.69662e-08
-5.45655e-07
-2.52106e-07
-4.12467e-08
-5.41245e-07
-2.51248e-07
-4.69643e-08
-5.36876e-07
-2.50499e-07
-5.74629e-08
-5.32106e-07
-2.49207e-07
-6.29639e-08
-5.26404e-07
-2.47281e-07
-8.51227e-08
-5.20984e-07
-2.44649e-07
-9.13546e-08
-5.14406e-07
-2.38979e-07
-1.30699e-07
-5.08295e-07
-2.35226e-07
-1.40486e-07
-4.98812e-07
-2.24842e-07
-2.01441e-07
-4.90418e-07
-2.22267e-07
-2.25593e-07
-4.75468e-07
-2.02997e-07
-3.12778e-07
-4.66221e-07
-2.04741e-07
-3.71057e-07
-4.44674e-07
-1.7343e-07
-4.81847e-07
-4.32321e-07
-2.00473e-07
-5.96414e-07
-3.89478e-07
-1.78703e-07
-7.36692e-07
-3.63317e-07
-2.83729e-07
-9.02267e-07
-2.74742e-07
-3.45361e-07
-9.95126e-07
-2.2692e-07
-5.5824e-07
-1.14793e-06
-1.04177e-07
-7.55125e-07
-8.76271e-07
-1.42205e-07
-1.1417e-06
-4.58268e-07
-9.08391e-08
-1.54015e-06
1.89935e-06
-2.14601e-07
8.59457e-07
4.21941e-06
-1.63566e-06
3.12595e-06
6.28879e-06
-5.50294e-06
8.54775e-06
9.64959e-06
-8.94416e-06
1.49352e-05
4.70636e-06
-1.14188e-05
3.37196e-05
-2.86128e-06
-9.32043e-06
-1.7245e-06
-5.85073e-06
2.17504e-05
-8.14358e-05
8.09901e-07
3.42009e-06
-0.000149006
3.29137e-07
1.15188e-05
-0.000146634
2.37186e-06
4.91718e-06
-0.000150862
2.83199e-06
1.48715e-06
-0.000155931
2.06868e-06
1.39844e-07
-0.000161593
1.88761e-06
-3.59199e-07
-0.000169108
1.48625e-06
4.14337e-09
-0.000160551
4.69008e-07
-6.38032e-08
-0.000167757
8.55221e-08
-5.67955e-08
-0.000176897
-4.99339e-07
-1.38117e-07
-0.000173304
-1.17901e-06
-2.12218e-07
-0.000168902
-1.81157e-06
-4.01423e-07
-0.000156387
-2.62609e-06
-4.65941e-07
-0.000159151
-3.1926e-06
-4.84527e-07
-0.000170374
-4.07984e-06
-6.69566e-07
-0.000169574
-4.89861e-06
-1.10686e-06
-0.000172592
-5.65867e-06
-9.61531e-07
-0.000172633
-6.13145e-06
-1.16371e-06
-0.000171386
-6.47239e-06
-1.12325e-06
-0.000169162
-6.60155e-06
-1.15229e-06
-0.000163084
-6.43066e-06
-1.14002e-06
-0.000154867
-6.21699e-06
-1.20088e-06
-0.000155609
-5.96367e-06
-1.16714e-06
-0.000158607
-5.44284e-06
-1.08851e-06
-0.000153764
-4.72185e-06
-1.06361e-06
-0.000149568
-3.8616e-06
-1.07974e-06
-0.000147785
-2.9358e-06
-1.19833e-06
-0.000146744
-1.9421e-06
-1.19818e-06
-0.000141543
-8.46482e-07
-1.09627e-06
-0.000133486
-5.71421e-07
-8.68468e-07
-0.000127553
-1.468e-07
-8.58871e-07
-0.00011699
5.07848e-08
-5.87866e-07
-5.70174e-05
4.88006e-07
-1.09283e-07
-3.08178e-06
-1.31133e-08
-1.60666e-07
-1.12906e-06
2.91108e-07
4.17261e-07
-3.81932e-05
-2.22593e-07
1.51096e-06
8.73546e-07
3.2475e-06
-2.74337e-06
1.13211e-06
3.05923e-07
-1.85802e-06
-2.48387e-06
-1.62958e-06
-2.24224e-06
3.33394e-07
-1.97504e-07
-1.79893e-06
-1.5232e-06
-7.32744e-07
-1.47518e-06
-8.38914e-07
-4.00462e-07
-1.1168e-06
-1.13752e-06
-5.08188e-07
-8.91743e-07
-6.76385e-07
-3.85187e-07
-7.49291e-07
-6.52071e-07
-3.87797e-07
-6.57178e-07
-3.93274e-07
-3.88475e-07
-5.80278e-07
-3.56656e-07
-4.38907e-07
-5.1633e-07
-1.64152e-07
-4.73981e-07
-4.45503e-07
-1.10292e-07
-5.20079e-07
-3.94893e-07
5.77425e-08
-5.36929e-07
-3.54993e-07
1.31522e-07
-5.66644e-07
-3.31814e-07
2.64883e-07
-5.80217e-07
-3.1438e-07
3.14309e-07
-5.99599e-07
-3.06067e-07
4.06192e-07
-6.1006e-07
-3.00153e-07
4.39197e-07
-6.23444e-07
-3.00007e-07
4.99326e-07
-6.30736e-07
-3.0035e-07
5.23794e-07
-6.40175e-07
-3.03078e-07
5.60198e-07
-6.47811e-07
-3.0633e-07
5.79854e-07
-6.55377e-07
-3.10362e-07
6.01405e-07
-6.61704e-07
-3.14389e-07
6.1647e-07
-6.68119e-07
-3.18948e-07
6.30241e-07
-6.73575e-07
-3.23569e-07
6.4152e-07
-6.78895e-07
-3.27839e-07
6.509e-07
-6.83978e-07
-3.31783e-07
6.58414e-07
-6.89014e-07
-3.3578e-07
6.64624e-07
-6.93793e-07
-3.40125e-07
6.69344e-07
-6.98184e-07
-3.44689e-07
6.72628e-07
-7.02517e-07
-3.48983e-07
6.74445e-07
-7.0712e-07
-3.5349e-07
6.74541e-07
-7.11278e-07
-3.5688e-07
6.72591e-07
-7.16169e-07
-3.61789e-07
6.67436e-07
-7.19989e-07
-3.65767e-07
6.65076e-07
-7.24067e-07
-3.71599e-07
6.48995e-07
-7.28287e-07
-3.75946e-07
6.4496e-07
-7.31975e-07
-3.81222e-07
6.1193e-07
-7.37356e-07
-3.86445e-07
6.04619e-07
-7.39891e-07
-3.91318e-07
5.49202e-07
-7.45775e-07
-3.97393e-07
5.32086e-07
-7.51615e-07
-3.9266e-07
4.4632e-07
-7.6384e-07
-4.02902e-07
3.99481e-07
-7.60308e-07
-3.87117e-07
2.68742e-07
-7.66383e-07
-4.20674e-07
1.74458e-07
-7.37325e-07
-3.87554e-07
-3.17819e-08
-7.38036e-07
-4.87136e-07
-1.38173e-07
-6.64521e-07
-4.19672e-07
-3.79233e-07
-6.83364e-07
-5.28998e-07
-4.5126e-07
-5.87354e-07
-2.09417e-07
-3.69146e-07
-8.26719e-07
-3.63394e-07
3.08983e-07
-6.13295e-07
-7.85546e-07
2.81529e-06
-4.93819e-07
1.79323e-06
3.27664e-06
-1.63605e-06
5.12803e-06
9.39867e-06
-6.44485e-06
1.28138e-05
1.21604e-05
-1.01968e-05
1.63991e-05
1.30355e-05
-1.19146e-05
3.40332e-05
-1.04242e-05
-1.00713e-05
-3.11487e-06
-4.40264e-06
2.57152e-05
-9.80495e-05
1.44246e-05
3.84634e-06
-0.000178299
2.88772e-05
1.50868e-05
-0.000192234
1.18399e-05
5.70766e-06
-0.000200026
1.20064e-05
3.68688e-07
-0.000204503
7.11576e-06
-1.3342e-06
-0.00020612
5.69514e-06
-1.87962e-06
-0.000207765
3.70869e-06
-1.54082e-06
-0.000211313
2.37879e-06
-1.54662e-06
-0.000211252
1.6085e-06
-1.42831e-06
-0.000209232
7.28148e-07
-1.52382e-06
-0.000209666
2.42339e-08
-1.61322e-06
-0.000209601
-7.28396e-07
-1.70254e-06
-0.000209124
-1.41156e-06
-1.75869e-06
-0.00020898
-1.94281e-06
-1.74386e-06
-0.000209177
-2.83921e-06
-1.7609e-06
-0.000208918
-3.57698e-06
-1.85356e-06
-0.000208509
-4.08448e-06
-1.84066e-06
-0.000208891
-4.57152e-06
-1.8317e-06
-0.000208559
-4.8419e-06
-1.89598e-06
-0.00020731
-4.9334e-06
-1.97349e-06
-0.000207458
-5.04994e-06
-2.05696e-06
-0.000207214
-5.09438e-06
-2.19452e-06
-0.000205895
-4.9728e-06
-2.28191e-06
-0.000204345
-4.7572e-06
-2.19694e-06
-0.000202677
-4.49907e-06
-1.89584e-06
-0.0002019
-4.31531e-06
-1.6233e-06
-0.000198724
-4.06517e-06
-1.2211e-06
-0.000174299
-3.70198e-06
-9.56973e-07
-0.000135102
-3.44585e-06
-7.70966e-07
-0.000144552
-3.19278e-06
-8.1303e-07
-0.000153132
-3.01345e-06
-5.59777e-07
-0.000148881
-3.00518e-06
-6.0071e-07
-0.000167482
-3.02266e-06
-4.85682e-07
-0.000161412
-3.3851e-06
-7.28631e-08
-0.000130938
-3.87842e-06
7.58171e-07
-0.000116782
-3.99497e-06
1.12177e-06
-3.18705e-06
1.65387e-06
-3.4873e-06
2.57336e-06
2.17185e-06
-2.28842e-06
-2.26452e-06
-1.41824e-06
-2.58907e-06
7.54279e-07
-1.20259e-07
-2.00188e-06
-1.15498e-06
-9.55427e-07
-1.51475e-06
-7.95412e-07
-5.30643e-07
-1.10893e-06
-8.61964e-07