/*--------------------------------*- C++ -*----------------------------------*\
| =========                 |                                                 |
| \\      /  F ield         | OpenFOAM: The Open Source CFD Toolbox           |
|  \\    /   O peration     | Version:  2.3.0                                 |
|   \\  /    A nd           | Web:      www.OpenFOAM.org                      |
|    \\/     M anipulation  |                                                 |
\*---------------------------------------------------------------------------*/
FoamFile
{
    version     2.0;
    format      ascii;
    class       surfaceScalarField;
    location    "7";
    object      phi.water;
}
// * * * * * * * * * * * * * * * * * * * * * * * * * * * * * * * * * * * * * //

dimensions      [0 3 -1 0 0 0 0];

internalField   nonuniform List<scalar> 
16448
(
-2.16058e-06
-2.10889e-06
6.79007e-07
-8.84686e-07
-2.06079e-06
7.85805e-07
-6.25864e-07
-1.31835e-06
1.0596e-06
-3.74613e-07
-1.33374e-06
1.08205e-06
-3.51356e-07
-1.12379e-06
1.10057e-06
-2.98873e-07
-1.15704e-06
1.10421e-06
-2.99841e-07
-1.10437e-06
1.10531e-06
-2.61307e-07
-1.14263e-06
1.10383e-06
-2.50521e-07
-1.12328e-06
1.11246e-06
-2.02701e-07
-1.16088e-06
1.11283e-06
-1.8335e-07
-1.14291e-06
1.12351e-06
-1.36496e-07
-1.17267e-06
1.12558e-06
-1.16088e-07
-1.15491e-06
1.13441e-06
-7.89325e-08
-1.17405e-06
1.13666e-06
-6.20526e-08
-1.15953e-06
1.14252e-06
-3.64606e-08
-1.17013e-06
1.1443e-06
-2.3637e-08
-1.16096e-06
1.14797e-06
-7.86027e-09
-1.16546e-06
1.14945e-06
1.44576e-09
-1.16123e-06
1.15173e-06
1.06883e-08
-1.16251e-06
1.15303e-06
1.70937e-08
-1.16116e-06
1.15453e-06
2.26385e-08
-1.16147e-06
1.15569e-06
2.69532e-08
-1.16139e-06
1.15684e-06
3.05591e-08
-1.16172e-06
1.15787e-06
3.35978e-08
-1.16215e-06
1.15887e-06
3.62995e-08
-1.16278e-06
1.15984e-06
3.88193e-08
-1.16356e-06
1.16079e-06
4.13022e-08
-1.16448e-06
1.16175e-06
4.38823e-08
-1.16555e-06
1.16272e-06
4.66778e-08
-1.16677e-06
1.16373e-06
4.99908e-08
-1.16834e-06
1.16479e-06
5.34491e-08
-1.16955e-06
1.16583e-06
5.88829e-08
-1.17255e-06
1.16688e-06
6.34908e-08
-1.17319e-06
1.16831e-06
7.21902e-08
-1.17837e-06
1.16944e-06
7.92944e-08
-1.17843e-06
1.17106e-06
9.22837e-08
-1.18568e-06
1.17246e-06
1.05762e-07
-1.18758e-06
1.17383e-06
1.21314e-07
-1.19242e-06
1.17665e-06
1.48811e-07
-1.20554e-06
1.17774e-06
1.685e-07
-1.20131e-06
1.18143e-06
2.14553e-07
-1.22999e-06
1.18361e-06
2.44393e-07
-1.21878e-06
1.18878e-06
3.11579e-07
-1.26156e-06
1.19401e-06
3.55059e-07
-1.24709e-06
1.20351e-06
4.38175e-07
-1.3055e-06
1.2219e-06
4.87735e-07
-1.29647e-06
1.24697e-06
5.61357e-07
-1.39211e-06
1.31779e-06
5.89258e-07
-1.42348e-06
1.39585e-06
5.69277e-07
-1.61585e-06
1.6352e-06
9.2061e-07
-2.15121e-06
1.81667e-06
1.86952e-07
-1.46921e-06
2.22067e-06
1.8633e-07
-1.48327e-06
1.58355e-06
-1.4753e-06
9.60176e-08
1.56966e-06
-2.57696e-06
9.01027e-07
4.5338e-07
-2.32993e-06
-1.93707e-06
1.52776e-06
-5.80769e-07
-8.83507e-08
-2.6463e-07
-2.31774e-06
4.46566e-08
1.07874e-06
3.99142e-06
-7.89425e-08
3.24609e-06
2.79494e-05
-1.84392e-05
1.42252e-05
1.89937e-05
-2.34484e-05
5.8084e-06
2.30029e-05
-8.54288e-06
3.10847e-06
2.18615e-05
8.39212e-07
2.98915e-07
2.38633e-05
-1.59626e-06
-4.05602e-07
2.5151e-05
-5.01849e-07
-7.85837e-07
2.59232e-05
5.87377e-07
-1.35951e-06
2.64642e-05
1.10757e-06
-1.64858e-06
2.68521e-05
1.29223e-06
-1.68019e-06
2.69732e-05
1.40176e-06
-1.52282e-06
2.68083e-05
1.45939e-06
-1.29448e-06
2.6439e-05
1.45722e-06
-1.08796e-06
2.5935e-05
1.40973e-06
-9.05746e-07
2.54096e-05
1.26046e-06
-7.35101e-07
2.48677e-05
1.09629e-06
-5.54397e-07
2.42574e-05
8.9463e-07
-2.84297e-07
2.36025e-05
7.65381e-07
-1.10448e-07
2.26836e-05
8.53901e-07
6.49485e-08
2.15214e-05
8.95755e-07
2.66487e-07
2.02263e-05
9.85803e-07
3.09289e-07
1.83254e-05
1.27709e-06
6.23779e-07
1.62221e-05
1.24012e-06
8.63201e-07
1.38828e-05
1.19711e-06
1.14218e-06
9.91567e-06
1.8011e-06
2.16602e-06
5.27316e-06
2.0034e-06
2.63912e-06
1.93267e-06
1.3632e-06
1.97729e-06
2.43842e-07
7.81644e-07
9.07184e-07
6.13473e-08
2.80145e-07
-9.76466e-08
7.21265e-07
-3.61858e-07
-2.98056e-07
1.46284e-06
-8.98432e-07
1.5686e-07
1.86561e-06
-1.12468e-06
7.21911e-07
1.91245e-06
-1.10848e-06
1.06165e-06
1.69804e-06
-1.04083e-06
1.25525e-06
1.34996e-06
-1.01765e-06
1.36574e-06
9.36971e-07
-1.0069e-06
1.41989e-06
4.76771e-07
-1.00363e-06
1.46383e-06
-1.0123e-06
1.48907e-06
-2.2171e-06
-3.01187e-06
-3.16602e-07
-1.02807e-06
-3.13292e-06
-1.15481e-07
-8.55956e-07
-1.85422e-06
3.6465e-07
-6.48744e-07
-1.95972e-06
4.18611e-07
-6.50288e-07
-1.58845e-06
4.66619e-07
-6.03094e-07
-1.67217e-06
4.6788e-07
-5.91083e-07
-1.58936e-06
4.73298e-07
-5.35418e-07
-1.66294e-06
4.64739e-07
-4.98507e-07
-1.63916e-06
4.79277e-07
-4.27223e-07
-1.70516e-06
4.73126e-07
-3.82752e-07
-1.68169e-06
4.94603e-07
-3.14781e-07
-1.73327e-06
4.92763e-07
-2.75292e-07
-1.70715e-06
5.12998e-07
-2.21249e-07
-1.74147e-06
5.13496e-07
-1.91144e-07
-1.71849e-06
5.29063e-07
-1.53102e-07
-1.73879e-06
5.30723e-07
-1.31373e-07
-1.72385e-06
5.41322e-07
-1.06979e-07
-1.73352e-06
5.43767e-07
-9.16014e-08
-1.72642e-06
5.49948e-07
-7.66955e-08
-1.73003e-06
5.52707e-07
-6.60627e-08
-1.72804e-06
5.56351e-07
-5.6824e-08
-1.72936e-06
5.5875e-07
-4.95364e-08
-1.72969e-06
5.61111e-07
-4.34143e-08
-1.73081e-06
5.63059e-07
-3.82689e-08
-1.73203e-06
5.64813e-07
-3.37654e-08
-1.73357e-06
5.66364e-07
-2.96702e-08
-1.73534e-06
5.6777e-07
-2.57727e-08
-1.73736e-06
5.6906e-07
-2.18493e-08
-1.73965e-06
5.70252e-07
-1.76618e-08
-1.74224e-06
5.71354e-07
-1.31572e-08
-1.74509e-06
5.72325e-07
-7.84342e-09
-1.74801e-06
5.73207e-07
-1.5064e-09
-1.75245e-06
5.73688e-07
5.06915e-09
-1.75461e-06
5.74858e-07
1.47399e-08
-1.76272e-06
5.74812e-07
2.43677e-08
-1.76425e-06
5.76211e-07
3.92212e-08
-1.77623e-06
5.75824e-07
5.41082e-08
-1.77999e-06
5.77553e-07
7.70797e-08
-1.79248e-06
5.77198e-07
1.00899e-07
-1.80725e-06
5.77945e-07
1.32412e-07
-1.81246e-06
5.79764e-07
1.77035e-07
-1.85105e-06
5.76468e-07
2.16585e-07
-1.84207e-06
5.83919e-07
2.84447e-07
-1.90853e-06
5.79089e-07
3.33498e-07
-1.88972e-06
5.93848e-07
4.06152e-07
-1.98008e-06
6.01812e-07
4.33642e-07
-1.96304e-06
6.39507e-07
4.04974e-07
-2.07896e-06
7.15409e-07
1.73094e-07
-2.07036e-06
8.79256e-07
-4.63865e-07
-2.24645e-06
1.26956e-06
-2.06818e-06
-2.42307e-06
1.89748e-06
-3.69801e-06
-1.70666e-06
1.92248e-06
-5.52804e-06
-9.09018e-07
1.35872e-06
-5.21507e-06
9.63546e-08
-3.16811e-07
-1.3203e-06
-9.18107e-07
-1.81234e-06
2.3884e-06
-5.78627e-06
9.36837e-09
-1.96326e-07
5.45541e-06
-1.8334e-06
-8.12354e-06
7.09207e-06
2.38324e-07
5.41881e-06
1.06622e-06
-4.53513e-06
2.80427e-05
-2.98576e-05
5.38286e-06
4.6284e-06
-3.27473e-05
6.07959e-06
3.9933e-06
-1.02639e-05
1.02686e-06
1.37055e-05
-4.88833e-06
-3.9853e-06
1.63512e-05
-9.39266e-07
-3.30277e-06
1.78745e-05
1.37471e-06
-3.39976e-06
2.00681e-05
2.1379e-06
-3.74418e-06
2.19539e-05
2.69461e-06
-3.47281e-06
2.31541e-05
3.06641e-06
-2.97441e-06
2.3751e-05
3.21135e-06
-2.40642e-06
2.39401e-05
3.18515e-06
-1.91487e-06
2.38944e-05
3.01828e-06
-1.51538e-06
2.36659e-05
2.75911e-06
-1.12089e-06
2.33261e-05
2.38675e-06
-7.86524e-07
2.30409e-05
1.8085e-06
-4.26974e-07
2.26987e-05
1.30441e-06
-6.76251e-08
2.22363e-05
1.06929e-06
1.58457e-07
2.14997e-05
1.20582e-06
3.84708e-07
2.0528e-05
1.34655e-06
5.20932e-07
1.93428e-05
1.59719e-06
5.73773e-07
1.76795e-05
2.09428e-06
8.46152e-07
1.56307e-05
2.37433e-06
9.14574e-07
1.29549e-05
2.71061e-06
1.16231e-06
8.89213e-06
3.7898e-06
2.07404e-06
4.77904e-06
3.80548e-06
2.31101e-06
1.97225e-06
2.44077e-06
1.72923e-06
4.52123e-07
1.44752e-06
8.54261e-07
2.2064e-07
9.01673e-07
-3.90038e-07
7.76474e-07
2.54e-07
-1.17168e-06
1.52601e-06
-5.15071e-07
-1.13289e-06
2.00698e-06
-1.04817e-06
-5.5747e-07
2.15497e-06
-1.20987e-06
-4.65917e-08
2.00994e-06
-1.17298e-06
2.77179e-07
1.64685e-06
-1.13472e-06
4.80167e-07
1.14737e-06
-1.1019e-06
5.94473e-07
5.88595e-07
-1.07945e-06
6.34602e-07
-1.11043e-06
6.86729e-07
-2.11868e-06
-3.22902e-06
-7.01459e-07
-9.61308e-07
-3.53743e-06
-7.51248e-07
-8.18498e-07
-1.90418e-06
-9.0732e-08
-6.35605e-07
-2.13128e-06
-1.18035e-08
-6.40652e-07
-1.63137e-06
4.84873e-08
-6.14577e-07
-1.75595e-06
5.75209e-08
-6.07489e-07
-1.64979e-06
5.36712e-08
-5.54866e-07
-1.75441e-06
3.8881e-08
-5.13969e-07
-1.72592e-06
4.61635e-08
-4.3979e-07
-1.8137e-06
3.44793e-08
-3.88849e-07
-1.78338e-06
5.10348e-08
-3.19326e-07
-1.8485e-06
4.58373e-08
-2.76267e-07
-1.81319e-06
6.32424e-08
-2.22468e-07
-1.85646e-06
6.13126e-08
-1.89879e-07
-1.82547e-06
7.46183e-08
-1.5235e-07
-1.85041e-06
7.42197e-08
-1.29959e-07
-1.82883e-06
8.27743e-08
-1.05665e-07
-1.84075e-06
8.30593e-08
-9.0781e-08
-1.82921e-06
8.80556e-08
-7.6051e-08
-1.8333e-06
8.866e-08
-6.61542e-08
-1.82878e-06
9.09776e-08
-5.72747e-08
-1.82964e-06
9.15097e-08
-5.05365e-08
-1.82857e-06
9.22533e-08
-4.48605e-08
-1.82879e-06
9.24059e-08
-4.01569e-08
-1.82901e-06
9.23812e-08
-3.60378e-08
-1.82968e-06
9.20946e-08
-3.23067e-08
-1.83062e-06
9.16415e-08
-2.87609e-08
-1.83187e-06
9.10578e-08
-2.52006e-08
-1.83348e-06
9.03576e-08
-2.14319e-08
-1.83549e-06
8.95666e-08
-1.72961e-08
-1.83792e-06
8.87905e-08
-1.2478e-08
-1.84074e-06
8.79891e-08
-6.77725e-09
-1.84495e-06
8.69071e-08
-6.39392e-10
-1.84729e-06
8.65644e-08
8.44032e-09
-1.85648e-06
8.48405e-08
1.71434e-08
-1.85769e-06
8.47609e-08
3.13471e-08
-1.8725e-06
8.22151e-08
4.41689e-08
-1.87517e-06
8.2403e-08
6.65511e-08
-1.89388e-06
7.91668e-08
8.67188e-08
-1.90613e-06
7.87788e-08
1.19672e-07
-1.92176e-06
7.64825e-08
1.57812e-07
-1.96023e-06
7.10983e-08
1.99042e-07
-1.95888e-06
7.57754e-08
2.61939e-07
-2.03726e-06
6.58475e-08
3.11736e-07
-2.01859e-06
7.93769e-08
3.79701e-07
-2.12987e-06
8.17522e-08
3.93723e-07
-2.10036e-06
1.23728e-07
3.25597e-07
-2.22126e-06
2.10296e-07
-4.36969e-08
-2.09836e-06
3.97732e-07
-9.48312e-07
-2.20688e-06
8.64495e-07
-2.92722e-06
-2.02794e-06
1.60089e-06
-4.51878e-06
-1.554e-06
1.5148e-06
-5.27529e-06
-3.39115e-07
3.384e-07
-4.43871e-06
6.79656e-07
-1.42161e-06
2.67232e-07
-2.63331e-06
-2.67787e-06
7.3046e-07
-6.26097e-06
-1.04726e-07
7.44813e-06
3.62862e-06
-3.33442e-06
3.13308e-06
1.22099e-05
-1.77273e-06
7.31707e-06
8.03582e-06
-7.86566e-07
2.52537e-05
-3.22945e-05
1.3555e-06
-2.17819e-06
-3.64786e-05
6.89133e-06
-1.50176e-06
-1.30453e-05
1.34374e-06
8.89368e-06
-1.30646e-05
-2.2192e-06
9.715e-06
6.2259e-07
-2.38316e-06
1.27101e-05
1.07976e-06
-2.70015e-06
1.55867e-05
1.86166e-06
-2.60035e-06
1.75516e-05
2.68576e-06
-1.956e-06
1.86265e-05
3.15279e-06
-1.16127e-06
1.90747e-05
3.23759e-06
-4.74449e-07
1.90891e-05
3.16033e-06
1.0396e-08
1.88111e-05
2.77792e-06
5.18332e-07
1.83609e-05
2.2854e-06
9.23911e-07
1.78388e-05
1.65795e-06
1.25087e-06
1.72765e-05
7.96779e-07
1.57404e-06
1.66276e-05
2.32501e-07
1.72082e-06
1.59302e-05
8.49107e-08
1.68179e-06
1.52008e-05
2.47762e-07
1.68746e-06
1.43042e-05
6.63721e-07
1.57945e-06
1.32202e-05
1.24377e-06
1.43735e-06
1.14888e-05
2.06032e-06
1.76544e-06
8.60551e-06
2.9152e-06
2.34236e-06
5.07911e-06
3.60435e-06
2.63268e-06
2.45024e-06
3.77159e-06
2.64709e-06
9.60775e-07
2.90642e-06
2.38853e-06
-2.16933e-07
1.73088e-06
1.8876e-06
-8.31396e-07
1.10151e-06
9.60478e-07
-4.14547e-07
9.41091e-07
-4.5626e-07
5.51205e-07
7.39913e-07
-1.45166e-06
1.50253e-06
2.21973e-07
-1.68836e-06
2.07559e-06
-2.99303e-07
-1.32193e-06
2.22544e-06
-6.18907e-07
-7.40802e-07
2.06478e-06
-7.15119e-07
-2.97208e-07
1.71537e-06
-7.07461e-07
-7.78431e-08
1.24444e-06
-6.83036e-07
5.20554e-08
6.74037e-07
-6.8517e-07
1.76125e-07
-7.45748e-07
3.09352e-07
-2.32217e-06
-2.95282e-06
-7.61092e-07
-1.18675e-06
-3.71239e-06
-9.5927e-07
-1.04232e-06
-1.70417e-06
-3.41606e-07
-8.08081e-07
-2.11412e-06
-2.51608e-07
-7.7909e-07
-1.46796e-06
-1.91268e-07
-7.46624e-07
-1.62581e-06
-1.62823e-07
-7.28871e-07
-1.48183e-06
-1.85266e-07
-6.66627e-07
-1.6103e-06
-2.06348e-07
-6.09499e-07
-1.57267e-06
-2.10048e-07
-5.19429e-07
-1.67443e-06
-2.29196e-07
-4.52063e-07
-1.63401e-06
-2.16412e-07
-3.69919e-07
-1.70549e-06
-2.24978e-07
-3.15747e-07
-1.66012e-06
-2.0692e-07
-2.55063e-07
-1.70711e-06
-2.09835e-07
-2.18367e-07
-1.66743e-06
-1.9444e-07
-1.78388e-07
-1.69495e-06
-1.95241e-07
-1.54076e-07
-1.66697e-06
-1.85881e-07
-1.28806e-07
-1.67955e-06
-1.86261e-07
-1.13203e-07
-1.66323e-06
-1.81314e-07
-9.78556e-08
-1.66676e-06
-1.81662e-07
-8.80223e-08
-1.65855e-06
-1.7982e-07
-7.90174e-08
-1.65808e-06
-1.80333e-07
-7.24526e-08
-1.65443e-06
-1.8046e-07
-6.69236e-08
-1.65268e-06
-1.81401e-07
-6.24219e-08
-1.65075e-06
-1.82518e-07
-5.85025e-08
-1.64939e-06
-1.8397e-07
-5.50215e-08
-1.64825e-06
-1.85604e-07
-5.17986e-08
-1.64747e-06
-1.87376e-07
-4.8636e-08
-1.64711e-06
-1.89284e-07
-4.53488e-08
-1.64721e-06
-1.91323e-07
-4.17229e-08
-1.64781e-06
-1.93482e-07
-3.75066e-08
-1.6489e-06
-1.95819e-07
-3.26341e-08
-1.65114e-06
-1.98407e-07
-2.69478e-08
-1.65226e-06
-2.00498e-07
-1.92933e-08
-1.66012e-06
-2.03702e-07
-1.17799e-08
-1.6594e-06
-2.0562e-07
1.07583e-09
-1.67486e-06
-2.10134e-07
1.13816e-08
-1.67385e-06
-2.11489e-07
3.20754e-08
-1.69669e-06
-2.17549e-07
4.78733e-08
-1.70262e-06
-2.19109e-07
8.09257e-08
-1.72802e-06
-2.26479e-07
1.07233e-07
-1.7563e-06
-2.30005e-07
1.54431e-07
-1.77178e-06
-2.3398e-07
2.10504e-07
-1.84803e-06
-2.45128e-07
2.65891e-07
-1.8375e-06
-2.3604e-07
3.45631e-07
-1.97071e-06
-2.38855e-07
3.87396e-07
-1.93607e-06
-2.05482e-07
3.97204e-07
-2.11175e-06
-1.19384e-07
2.21392e-07
-1.95356e-06
3.16029e-08
-3.42288e-07
-2.04096e-06
3.97701e-07
-1.75479e-06
-1.57092e-06
9.58046e-07
-3.09519e-06
-1.18681e-06
1.02029e-06
-4.31859e-06
9.22666e-07
1.52662e-07
-3.78185e-06
2.51366e-06
-2.3194e-06
-5.6677e-07
-2.0729e-06
-3.44711e-06
-3.119e-06
-3.35706e-06
-5.31058e-07
7.19856e-06
-3.51984e-06
-1.62794e-06
8.98697e-06
1.61016e-05
-6.35239e-06
2.57752e-05
3.75007e-06
1.44232e-06
3.21242e-05
-2.68715e-05
2.30376e-06
-2.44316e-06
-3.71911e-05
7.92014e-06
-8.46122e-06
-1.11457e-05
3.04327e-06
-8.0834e-06
-1.42796e-05
8.37217e-07
-3.67935e-06
-4.94612e-07
-3.28681e-06
2.15709e-06
-1.54783e-06
-3.20883e-06
4.72855e-06
2.54559e-07
-9.6434e-07
6.35764e-06
6.02601e-07
4.54076e-07
6.96431e-06
1.11694e-06
1.42919e-06
6.89357e-06
1.24213e-06
2.0662e-06
6.12422e-06
1.4248e-06
2.50488e-06
4.65581e-06
1.34419e-06
2.90215e-06
2.45233e-06
1.14606e-06
3.34282e-06
-3.8485e-07
5.95022e-07
3.90011e-06
-3.2304e-06
-3.92396e-07
4.03473e-06
-5.14167e-06
-1.16148e-06
3.30524e-06
-6.17327e-06
-1.63594e-06
2.75246e-06
-6.447e-06
-1.83402e-06
2.35551e-06
-6.25523e-06
-1.64478e-06
2.11674e-06
-5.93354e-06
-1.16757e-06
2.08965e-06
-5.62297e-06
-4.80503e-07
2.23026e-06
-5.27523e-06
1.68418e-07
2.39905e-06
-4.69702e-06
5.61934e-07
2.4642e-06
-3.9846e-06
7.2107e-07
2.33811e-06
-3.50381e-06
4.77116e-07
1.94851e-06
-3.29903e-06
2.62937e-07
1.26317e-06
-2.75649e-06
3.61505e-07
1.97478e-07
-1.61401e-06
6.79208e-07
-8.80591e-07
-1.46605e-07
9.16784e-07
-1.64427e-06
1.14755e-06
7.61932e-07
-1.83411e-06
1.97327e-06
3.44061e-07
-1.46908e-06
2.3115e-06
5.13242e-08
-1.00846e-06
2.28322e-06
-7.57429e-08
-6.1109e-07
2.02969e-06
-9.02147e-08
-3.63713e-07
1.61395e-06
-5.48914e-08
-2.12403e-07
1.00664e-06
2.72976e-08
-1.05154e-07
2.15367e-07
4.5527e-08
-2.5743e-06
-2.32986e-06
-7.41281e-07
-1.39365e-06
-3.71151e-06
-1.18176e-06
-1.34613e-06
-1.27436e-06
-4.74392e-07
-1.03436e-06
-2.0152e-06
-4.11007e-07
-9.41175e-07
-1.21462e-06
-3.44597e-07
-8.56367e-07
-1.42857e-06
-2.82005e-07
-8.12022e-07
-1.20373e-06
-3.21791e-07
-7.4593e-07
-1.33483e-06
-3.4161e-07
-6.75485e-07
-1.26987e-06
-3.73011e-07
-5.84017e-07
-1.36395e-06
-4.01918e-07
-5.00269e-07
-1.3072e-06
-4.10371e-07
-4.16869e-07
-1.36604e-06
-4.22757e-07
-3.49832e-07
-1.30845e-06
-4.18522e-07
-2.88097e-07
-1.34532e-06
-4.23435e-07
-2.44378e-07
-1.29551e-06
-4.15455e-07
-2.04236e-07
-1.31744e-06
-4.17558e-07
-1.7778e-07
-1.28185e-06
-4.11411e-07
-1.53057e-07
-1.29131e-06
-4.12873e-07
-1.36748e-07
-1.26891e-06
-4.10487e-07
-1.2183e-07
-1.26955e-06
-4.12042e-07
-1.12079e-07
-1.25664e-06
-4.11535e-07
-1.03421e-07
-1.25343e-06
-4.13223e-07
-9.72634e-08
-1.24604e-06
-4.14454e-07
-9.21622e-08
-1.24117e-06
-4.16535e-07
-8.81367e-08
-1.23592e-06
-4.18787e-07
-8.46758e-08
-1.23131e-06
-4.21484e-07
-8.16891e-08
-1.22692e-06
-4.24272e-07
-7.89751e-08
-1.22306e-06
-4.27083e-07
-7.63274e-08
-1.21975e-06
-4.29967e-07
-7.35562e-08
-1.21707e-06
-4.32883e-07
-7.05319e-08
-1.21503e-06
-4.35792e-07
-6.71519e-08
-1.21356e-06
-4.38723e-07
-6.32653e-08
-1.2131e-06
-4.41908e-07
-5.84011e-08
-1.21212e-06
-4.45044e-07
-5.21291e-08
-1.21715e-06
-4.49226e-07
-4.56618e-08
-1.21411e-06
-4.51844e-07
-3.53375e-08
-1.22801e-06
-4.5714e-07
-2.66083e-08
-1.22373e-06
-4.58976e-07
-9.37723e-09
-1.24805e-06
-4.65834e-07
2.23675e-09
-1.24759e-06
-4.66865e-07
3.156e-08
-1.28166e-06
-4.75649e-07
5.07258e-08
-1.29866e-06
-4.76981e-07
9.75823e-08
-1.3338e-06
-4.84898e-07
1.32409e-07
-1.39529e-06
-4.8776e-07
1.9211e-07
-1.41215e-06
-4.85111e-07
2.49432e-07
-1.55228e-06
-4.76097e-07
2.96011e-07
-1.53354e-06
-4.49076e-07
2.90566e-07
-1.74611e-06
-3.6071e-07
2.16187e-07
-1.63326e-06
-2.45842e-07
-1.15985e-07
-1.77051e-06
6.10793e-08
-7.37886e-07
-1.43718e-06
4.89204e-07
-1.52538e-06
-1.18067e-06
7.83834e-07
-1.99465e-06
1.07192e-06
4.77543e-07
-7.26901e-07
3.87698e-06
-2.49441e-06
3.3777e-06
-1.3253e-06
-4.27904e-06
4.60105e-06
-9.78963e-07
-3.68338e-06
1.11312e-05
-2.82376e-06
-6.49418e-06
1.6721e-05
1.82551e-05
-7.41598e-06
3.86255e-05
-1.04334e-05
1.40063e-05
3.33089e-05
-1.61079e-05
3.17744e-06
-1.17121e-05
-3.18199e-05
7.80548e-06
-1.76635e-05
-9.89987e-06
4.33904e-06
-2.20878e-05
-1.21332e-05
2.27494e-06
-1.93716e-05
-3.92632e-06
7.14367e-07
-1.96163e-05
-2.38604e-06
1.0824e-06
-2.06232e-05
-8.32753e-07
2.0938e-06
-2.20547e-05
-5.06337e-07
2.54032e-06
-2.35121e-05
-1.68358e-07
2.74258e-06
-2.49509e-05
-1.75625e-07
2.85638e-06
-2.61687e-05
-2.1748e-07
2.86004e-06
-2.69854e-05
-6.39751e-07
2.80063e-06
-2.72448e-05
-1.19795e-06
2.6034e-06
-2.69023e-05
-2.06628e-06
2.31883e-06
-2.62239e-05
-2.93376e-06
1.86287e-06
-2.53523e-05
-3.47201e-06
1.43882e-06
-2.39394e-05
-4.21724e-06
1.16829e-06
-2.23538e-05
-4.35562e-06
9.35969e-07
-2.04769e-05
-4.34181e-06
8.2008e-07
-1.83775e-05
-4.0469e-06
7.7987e-07
-1.60849e-05
-3.56571e-06
7.92605e-07
-1.37606e-05
-2.93868e-06
7.82829e-07
-1.15198e-05
-2.38762e-06
7.08784e-07
-9.40475e-06
-1.88871e-06
4.9473e-07
-7.57688e-06
-1.41089e-06
6.01362e-08
-6.08835e-06
-8.24481e-07
-4.01103e-07
-4.60271e-06
-1.28276e-07
-9.95848e-07
-2.89595e-06
5.6099e-07
-1.58853e-06
-1.1055e-06
1.05378e-06
-1.92744e-06
4.09581e-07
1.15554e-06
-1.90868e-06
1.44158e-06
1.01003e-06
-1.69796e-06
2.05061e-06
8.12611e-07
-1.37031e-06
2.27128e-06
7.45606e-07
-1.04201e-06
2.05064e-06
7.72598e-07
-6.42174e-07
1.54866e-06
7.66617e-07
-3.19521e-07
9.0845e-07
7.6029e-07
-9.27823e-08
1.20643e-06
-8.26104e-08
-2.73063e-06
-1.5265e-06
-4.8299e-07
-1.48249e-06
-3.56479e-06
-1.39662e-06
-1.58192e-06
-7.61576e-07
-4.0991e-07
-1.22199e-06
-1.92168e-06
-4.54133e-07
-1.07045e-06
-1.00737e-06
-3.55873e-07
-9.14597e-07
-1.32164e-06
-2.62388e-07
-8.32805e-07
-9.69795e-07
-3.14509e-07
-7.64451e-07
-1.07951e-06
-3.23442e-07
-6.94364e-07
-9.44339e-07
-3.9518e-07
-6.11718e-07
-1.00578e-06
-4.40669e-07
-5.23592e-07
-9.0976e-07
-4.85334e-07
-4.46434e-07
-9.31624e-07
-5.11419e-07
-3.71083e-07
-8.44274e-07
-5.39345e-07
-3.15127e-07
-8.47897e-07
-5.53246e-07
-2.64913e-07
-7.75626e-07
-5.6993e-07
-2.28497e-07
-7.75405e-07
-5.7834e-07
-1.98688e-07
-7.232e-07
-5.88301e-07
-1.75719e-07
-7.19709e-07
-5.94463e-07
-1.58978e-07
-6.8473e-07
-6.00766e-07
-1.45924e-07
-6.76689e-07
-6.05808e-07
-1.36183e-07
-6.55711e-07
-6.1053e-07
-1.28398e-07
-6.46409e-07
-6.14697e-07
-1.22849e-07
-6.33342e-07
-6.18122e-07
-1.18385e-07
-6.24271e-07
-6.21249e-07
-1.14975e-07
-6.15526e-07
-6.23687e-07
-1.12401e-07
-6.07999e-07
-6.25771e-07
-1.106e-07
-6.01054e-07
-6.2755e-07
-1.09056e-07
-5.95389e-07
-6.29102e-07
-1.07579e-07
-5.90892e-07
-6.30226e-07
-1.06099e-07
-5.87354e-07
-6.31082e-07
-1.04467e-07
-5.84763e-07
-6.31777e-07
-1.02587e-07
-5.83089e-07
-6.32241e-07
-1.00176e-07
-5.82896e-07
-6.32476e-07
-9.67809e-08
-5.83226e-07
-6.32199e-07
-9.27362e-08
-5.89056e-07
-6.31964e-07
-8.82445e-08
-5.88312e-07
-6.30211e-07
-8.14914e-08
-6.04407e-07
-6.30156e-07
-7.48026e-08
-6.03352e-07
-6.27e-07
-6.27219e-08
-6.33531e-07
-6.26369e-07
-5.38533e-08
-6.35743e-07
-6.20644e-07
-3.28846e-08
-6.81652e-07
-6.20709e-07
-2.12262e-08
-6.98647e-07
-6.11615e-07
1.60843e-08
-7.59858e-07
-6.10913e-07
3.14424e-08
-8.17567e-07
-5.93032e-07
8.9625e-08
-8.82892e-07
-5.87079e-07
8.86316e-08
-1.0129e-06
-5.38228e-07
1.45793e-07
-1.07807e-06
-5.12174e-07
5.72982e-08
-1.28175e-06
-3.75784e-07
1.30098e-09
-1.28321e-06
-2.93148e-07
-2.4952e-07
-1.46434e-06
-5.58248e-08
-5.54471e-07
-1.21442e-06
8.513e-08
-1.09908e-06
-9.3437e-07
2.95974e-07
-1.19781e-06
1.2886e-06
-3.75456e-08
8.12969e-08
4.98224e-06
-2.1837e-06
1.54999e-06
3.02183e-06
-5.33157e-06
1.22589e-06
6.08983e-06
-6.84284e-06
1.09037e-05
-2.63251e-07
-1.18473e-05
2.97151e-05
6.6766e-06
-7.11377e-06
3.4871e-05
-1.20503e-05
2.21031e-05
2.77948e-05
-7.89924e-06
2.88612e-06
-2.3465e-05
-1.95896e-05
8.83307e-06
-3.23652e-05
-5.70732e-06
4.57177e-06
-4.07197e-05
-5.29325e-06
1.50253e-06
-4.30344e-05
-1.52218e-06
-9.57866e-08
-4.43402e-05
-1.04726e-06
-3.91384e-08
-4.52974e-05
-5.9127e-07
7.04287e-07
-4.60979e-05
-5.38618e-07
8.09397e-07
-4.64739e-05
-7.55512e-07
9.51822e-07
-4.65313e-05
-1.02642e-06
9.02988e-07
-4.61546e-05
-1.41043e-06
8.09232e-07
-4.56407e-05
-1.71468e-06
5.51149e-07
-4.4816e-05
-2.32976e-06
2.94703e-07
-4.34755e-05
-3.40819e-06
-7.78978e-09
-4.14637e-05
-4.63652e-06
-3.1713e-07
-4.00347e-05
-4.27695e-06
-6.31566e-07
-3.81325e-05
-5.41485e-06
-7.24604e-07
-3.59414e-05
-5.66841e-06
-8.99936e-07
-3.33749e-05
-5.92595e-06
-9.95332e-07
-3.05149e-05
-5.86012e-06
-1.05456e-06
-2.73421e-05
-5.6635e-06
-1.08098e-06
-2.40266e-05
-5.11226e-06
-1.14577e-06
-2.08224e-05
-4.39672e-06
-1.19745e-06
-1.76801e-05
-3.72085e-06
-1.31154e-06
-1.46548e-05
-2.95453e-06
-1.48233e-06
-1.18186e-05
-1.99686e-06
-1.66404e-06
-9.04775e-06
-1.02454e-06
-1.87458e-06
-6.35737e-06
-7.2461e-08
-2.05692e-06
-3.87572e-06
7.27383e-07
-2.15526e-06
-1.7311e-06
1.06334e-06
-2.05241e-06
-1.55993e-07
1.32155e-06
-1.88663e-06
9.01612e-07
1.45496e-06
-1.69995e-06
1.55269e-06
1.54021e-06
-1.44568e-06
1.59245e-06
1.91307e-06
-1.18023e-06
1.15288e-06
2.0087e-06
-8.02508e-07
7.64692e-07
1.441e-06
-2.92513e-07
1.40641e-06
5.6472e-07
-2.82602e-06
-5.17349e-07
-4.58612e-08
-1.58912e-06
-3.22811e-06
-1.57674e-06
-1.81095e-06
-2.48915e-07
-2.86666e-07
-1.40901e-06
-1.81297e-06
-5.12195e-07
-1.18962e-06
-9.16048e-07
-3.07201e-07
-9.41688e-07
-1.28764e-06
-2.81705e-07
-8.03507e-07
-8.36873e-07
-2.69296e-07
-7.11835e-07
-8.9774e-07
-2.73231e-07
-6.47316e-07
-6.89939e-07
-3.184e-07
-5.7188e-07
-7.18935e-07
-3.62371e-07
-5.01371e-07
-5.74442e-07
-4.05656e-07
-4.28898e-07
-5.59786e-07
-4.44254e-07
-3.64826e-07
-4.28829e-07
-4.79325e-07
-3.14579e-07
-3.95476e-07
-5.02558e-07
-2.71337e-07
-2.92423e-07
-5.26292e-07
-2.40082e-07
-2.6812e-07
-5.38466e-07
-2.14778e-07
-1.95822e-07
-5.52574e-07
-1.96179e-07
-1.78596e-07
-5.59672e-07
-1.82491e-07
-1.31526e-07
-5.66822e-07
-1.72276e-07
-1.16981e-07
-5.69908e-07
-1.64099e-07
-9.05983e-08
-5.73254e-07
-1.57569e-07
-7.90252e-08
-5.73915e-07
-1.53113e-07
-6.45833e-08
-5.73215e-07
-1.49526e-07
-5.59196e-08
-5.71959e-07
-1.47009e-07
-4.8139e-08
-5.69937e-07
-1.45202e-07
-4.22327e-08
-5.67615e-07
-1.44219e-07
-3.75863e-08
-5.64506e-07
-1.43748e-07
-3.47739e-08
-5.61144e-07
-1.43404e-07
-3.33962e-08
-5.57908e-07
-1.43008e-07
-3.34022e-08
-5.54415e-07
-1.42582e-07
-3.46681e-08
-5.50592e-07
-1.42145e-07
-3.71704e-08
-5.46434e-07
-1.41628e-07
-4.14431e-08
-5.42032e-07
-1.40131e-07
-4.71522e-08
-5.37671e-07
-1.38676e-07
-5.76404e-08
-5.32909e-07
-1.36769e-07
-6.31312e-08
-5.27216e-07
-1.34112e-07
-8.52745e-08
-5.21804e-07
-1.30886e-07
-9.14933e-08
-5.15236e-07
-1.24466e-07
-1.30816e-07
-5.09133e-07
-1.20129e-07
-1.40585e-07
-4.99656e-07
-1.08979e-07
-2.01508e-07
-4.91268e-07
-1.05836e-07
-2.2563e-07
-4.76327e-07
-8.57628e-08
-3.12772e-07
-4.67084e-07
-8.69995e-08
-3.71018e-07
-4.45546e-07
-5.47799e-08
-4.81753e-07
-4.33189e-07
-8.14478e-08
-5.96269e-07
-3.90355e-07
-5.86017e-08
-7.36481e-07
-3.64192e-07
-1.63463e-07
-9.01964e-07
-2.75612e-07
-2.23685e-07
-9.94777e-07
-2.27807e-07
-4.36906e-07
-1.14734e-06
-1.04983e-07
-6.29401e-07
-8.75828e-07
-1.43098e-07
-1.01375e-06
-4.57139e-07
-9.12486e-08
-1.39847e-06
1.90084e-06
-2.14084e-07
1.22661e-06
4.22277e-06
-1.63285e-06
4.05318e-06
6.2795e-06
-5.4807e-06
9.44164e-06
9.63401e-06
-8.90058e-06
1.60554e-05
4.67618e-06
-1.13488e-05
3.46053e-05
-2.92201e-06
-9.36745e-06
3.23985e-05
-5.5826e-06
2.17646e-05
2.30614e-05
-2.38951e-07
3.93655e-06
-3.47132e-05
-2.14021e-07
9.193e-06
-4.83613e-05
2.72623e-06
4.9173e-06
-5.67111e-05
2.43456e-06
5.84089e-07
-5.96064e-05
2.21168e-06
-8.33063e-07
-6.11857e-05
1.59881e-06
-1.00358e-06
-6.20773e-05
1.00233e-06
-5.96552e-07
-6.25004e-05
3.85423e-07
-5.85836e-07
-6.25024e-05
-2.73533e-07
-4.81231e-07
-6.19165e-05
-9.39979e-07
-6.87113e-07
-6.10858e-05
-1.5419e-06
-7.68377e-07
-5.97171e-05
-2.25343e-06
-1.00032e-06
-5.84086e-05
-2.81261e-06
-1.03997e-06
-5.74412e-05
-3.27845e-06
-1.0203e-06
-5.67704e-05
-4.02124e-06
-1.08991e-06
-5.40295e-05
-5.3807e-06
-1.65683e-06
-5.27968e-05
-5.44653e-06
-1.35849e-06
-5.08849e-05
-6.18587e-06
-1.59073e-06
-4.87727e-05
-6.55993e-06
-1.58728e-06
-4.63635e-05
-6.79215e-06
-1.57718e-06
-4.39171e-05
-6.69397e-06
-1.52989e-06
-4.09976e-05
-6.56844e-06
-1.57838e-06
-3.76282e-05
-6.31235e-06
-1.5425e-06
-3.3982e-05
-5.93873e-06
-1.50291e-06
-3.0158e-05
-5.35421e-06
-1.48493e-06
-2.61112e-05
-4.57267e-06
-1.50942e-06
-2.19197e-05
-3.6107e-06
-1.63235e-06
-1.78081e-05
-2.49247e-06
-1.71416e-06
-1.38536e-05
-1.52021e-06
-1.72263e-06
-1.02874e-05
-9.24989e-07
-1.58358e-06
-7.14505e-06
-4.24797e-07
-1.39762e-06
-4.52326e-06
-8.74356e-08
-1.0799e-06
-2.40142e-06
2.30479e-07
-8.12704e-07
-6.85989e-07
8.35488e-07
-6.37372e-07
5.79415e-07
1.07185e-06
-3.28648e-07
1.16129e-06
1.83748e-07
6.74036e-07
-2.4286e-07
2.80935e-06
-2.65838e-06
1.13133e-06
3.0472e-07
-1.77809e-06
-2.48497e-06
-1.62972e-06
-2.15614e-06
3.32485e-07
-1.98205e-07
-1.71459e-06
-1.52404e-06
-7.33517e-07
-1.38643e-06
-8.39665e-07
-4.00955e-07
-1.02724e-06
-1.13821e-06
-5.08662e-07
-7.98935e-07
-6.77077e-07
-3.85795e-07
-6.54969e-07
-6.52737e-07
-3.88568e-07
-5.60914e-07
-3.93918e-07
-3.89401e-07
-4.83054e-07
-3.57292e-07
-4.3983e-07
-4.17944e-07
-1.64739e-07
-4.7482e-07
-3.46237e-07
-1.10852e-07
-5.20826e-07
-2.94564e-07
5.7221e-08
-5.37646e-07
-2.53765e-07
1.3098e-07
-5.67317e-07
-2.29549e-07
2.6432e-07
-5.80905e-07
-2.11202e-07
3.1374e-07
-6.0028e-07
-2.01869e-07
4.05615e-07
-6.10766e-07
-1.95027e-07
4.38615e-07
-6.24157e-07
-1.93872e-07
4.98738e-07
-6.31477e-07
-1.93272e-07
5.232e-07
-6.40929e-07
-1.95e-07
5.59596e-07
-6.48582e-07
-1.97294e-07
5.79246e-07
-6.5616e-07
-2.00336e-07
6.0079e-07
-6.62501e-07
-2.0339e-07
6.15848e-07
-6.68927e-07
-2.06963e-07
6.29613e-07
-6.74394e-07
-2.10599e-07
6.40886e-07
-6.79724e-07
-2.13881e-07
6.50261e-07
-6.84817e-07
-2.16837e-07
6.57771e-07
-6.89862e-07
-2.19841e-07
6.63978e-07
-6.94649e-07
-2.2319e-07
6.68696e-07
-6.99049e-07
-2.26753e-07
6.71978e-07
-7.0339e-07
-2.30051e-07
6.73794e-07
-7.08e-07
-2.33537e-07
6.73889e-07
-7.12165e-07
-2.35946e-07
6.7194e-07
-7.17062e-07
-2.39803e-07
6.66787e-07
-7.20888e-07
-2.42818e-07
6.6443e-07
-7.24972e-07
-2.47564e-07
6.48355e-07
-7.29197e-07
-2.50966e-07
6.44326e-07
-7.3289e-07
-2.55126e-07
6.11305e-07
-7.38274e-07
-2.59412e-07
6.04002e-07
-7.40812e-07
-2.63138e-07
5.48599e-07
-7.46699e-07
-2.68286e-07
5.31488e-07
-7.52535e-07
-2.62369e-07
4.45749e-07
-7.64742e-07
-2.71729e-07
3.98941e-07
-7.61205e-07
-2.54632e-07
2.68264e-07
-7.6726e-07
-2.87468e-07
1.74044e-07
-7.38229e-07
-2.52783e-07
-3.20697e-08
-7.38919e-07
-3.51969e-07
-1.38443e-07
-6.65466e-07
-2.82311e-07
-3.79481e-07
-6.84345e-07
-3.91868e-07
-4.5137e-07
-5.88387e-07
-6.60981e-08
-3.69204e-07
-8.27953e-07
-2.12957e-07
3.09514e-07
-6.14481e-07
-6.21477e-07
2.81649e-06
-4.94333e-07
2.12358e-06
3.27975e-06
-1.63445e-06
6.14938e-06
9.39179e-06
-6.43559e-06
1.38331e-05
1.2139e-05
-1.01476e-05
1.77368e-05
1.29477e-05
-1.18962e-05
3.54864e-05
-1.04466e-05
-1.00586e-05
3.87441e-05
-4.47515e-06
2.5602e-05
2.49193e-05
8.33608e-06
4.11331e-06
-4.40594e-05
2.60478e-05
1.19112e-05
-6.00318e-05
1.31199e-05
5.38908e-06
-6.85162e-05
1.17115e-05
-7.64863e-07
-7.11878e-05
7.29187e-06
-2.40374e-06
-7.29577e-05
5.95173e-06
-2.67811e-06
-7.32067e-05
3.42889e-06
-2.29922e-06
-7.30869e-05
2.47003e-06
-2.26839e-06
-7.258e-05
1.24015e-06
-2.0767e-06
-7.16412e-05
3.79605e-07
-2.3011e-06
-7.0445e-05
-3.91212e-07
-2.34882e-06
-6.92651e-05
-9.85145e-07
-2.49269e-06
-6.80212e-05
-1.60556e-06
-2.51156e-06
-6.66142e-05
-2.1889e-06
-2.52932e-06
-6.50906e-05
-3.06308e-06
-2.48807e-06
-6.41892e-05
-3.79787e-06
-2.56306e-06
-6.29811e-05
-4.31365e-06
-2.50359e-06
-6.1834e-05
-4.95031e-06
-2.50953e-06
-6.06515e-05
-5.25475e-06
-2.55555e-06
-5.94717e-05
-5.40989e-06
-2.62173e-06
-5.81559e-05
-5.45689e-06
-2.69231e-06
-5.66085e-05
-5.51389e-06
-2.89173e-06
-5.47623e-05
-5.48954e-06
-3.00535e-06
-5.25587e-05
-5.38631e-06
-3.02793e-06
-5.00308e-05
-5.19692e-06
-2.83458e-06
-4.71651e-05
-4.99439e-06
-2.49661e-06
-4.39325e-05
-4.77521e-06
-2.17054e-06
-4.07676e-05
-4.29661e-06
-1.83259e-06
-3.73003e-05
-3.89291e-06
-1.70301e-06
-3.31298e-05
-3.64754e-06
-1.61389e-06
-2.86775e-05
-3.52394e-06
-1.49421e-06
-2.40046e-05
-3.52026e-06
-1.41251e-06
-1.91678e-05
-3.34476e-06
-1.45579e-06
-1.36965e-05
-3.56335e-06
-1.43873e-06
-8.07174e-06
-3.90574e-06
-1.02295e-06
-3.98609e-06
-4.1085e-06
-3.82386e-08
-5.09841e-06
4.60522e-07
-3.39641e-06
2.57056e-06
2.1688e-06
-2.20998e-06
-2.26509e-06
-1.41785e-06
-2.50333e-06
7.53229e-07
-1.20894e-07
-1.91921e-06
-1.15591e-06
-9.56186e-07
-1.42811e-06
-7.9602e-07
-5.3067e-07
-1.02185e-06
-8.62644e-07
-6.81072e-07
-7.19267e-07
-5.78071e-07
-3.9777e-07
-5.35043e-07
-5.01708e-07
-3.33664e-07