/*--------------------------------*- C++ -*----------------------------------*\
| =========                 |                                                 |
| \\      /  F ield         | OpenFOAM: The Open Source CFD Toolbox           |
|  \\    /   O peration     | Version:  2.3.0                                 |
|   \\  /    A nd           | Web:      www.OpenFOAM.org                      |
|    \\/     M anipulation  |                                                 |
\*---------------------------------------------------------------------------*/
FoamFile
{
    version     2.0;
    format      ascii;
    class       volVectorField;
    location    "7";
    object      U;
}
// * * * * * * * * * * * * * * * * * * * * * * * * * * * * * * * * * * * * * //

dimensions      [0 1 -1 0 0 0 0];

internalField   nonuniform List<vector> 
6144
(
(0.00917753 0.0234034 -0.00113317)
(0.00866508 0.006976 -0.00128657)
(0.00577225 0.00549353 -0.00243351)
(0.00571709 0.00340133 -0.0025712)
(0.00490686 0.00274594 -0.00268338)
(0.00494437 0.0026634 -0.00273611)
(0.00470065 0.0024183 -0.00278973)
(0.00481695 0.00239314 -0.00281683)
(0.0047109 0.00216118 -0.00291526)
(0.00484459 0.0020423 -0.00294503)
(0.00476355 0.00175047 -0.00305446)
(0.0048678 0.00161498 -0.00308602)
(0.00479738 0.00132022 -0.00317518)
(0.00486005 0.00121207 -0.0032034)
(0.00480582 0.000972915 -0.00326494)
(0.00483699 0.00089647 -0.00328708)
(0.00480485 0.000730761 -0.00332779)
(0.00481486 0.000672871 -0.00334565)
(0.00479925 0.000575336 -0.00337089)
(0.00479879 0.000528103 -0.00338537)
(0.00479143 0.000474647 -0.00340093)
(0.004788 0.00043965 -0.00341232)
(0.00478397 0.000408552 -0.00342267)
(0.00478097 0.00038441 -0.00343128)
(0.00477838 0.000363957 -0.00343879)
(0.00477635 0.000346418 -0.00344531)
(0.00477476 0.000330455 -0.0034511)
(0.00477362 0.000315187 -0.00345632)
(0.00477287 0.000299807 -0.00346112)
(0.00477259 0.000282548 -0.00346558)
(0.00477321 0.000268613 -0.00346996)
(0.00477328 0.000230885 -0.00347318)
(0.00478011 0.000246011 -0.00347802)
(0.0047741 0.000134449 -0.00347905)
(0.00479106 0.00022437 -0.00348743)
(0.00478206 -1.18726e-05 -0.00348581)
(0.00480588 0.000173756 -0.00349715)
(0.00481173 -0.000198878 -0.00349776)
(0.00480957 4.08451e-05 -0.00350749)
(0.00487587 -0.000455816 -0.0035117)
(0.00482928 -0.000204977 -0.00352647)
(0.00494615 -0.000820894 -0.00352875)
(0.00488691 -0.000623646 -0.00355637)
(0.00504731 -0.0013722 -0.00356263)
(0.0049908 -0.00122169 -0.00360798)
(0.00521735 -0.00222258 -0.00363589)
(0.0052033 -0.00180551 -0.00370767)
(0.0056797 -0.00343842 -0.00379994)
(0.00596628 -0.00192246 -0.00406411)
(0.00739121 -0.00485995 -0.00459281)
(0.010526 -0.000129698 -0.00624727)
(0.00916746 -0.0119026 -0.00673493)
(0.0116814 0.0125899 -0.00608983)
(0.00127299 -0.014107 -0.00538394)
(-0.00723322 0.0441609 -0.00323583)
(-0.00120132 -0.0202868 -0.00802453)
(0.0128639 0.0725261 -0.00595403)
(0.00964573 -0.0519275 -0.029952)
(-0.0304979 0.125116 -0.0870805)
(0.0529916 0.028069 -0.117932)
(0.120916 -0.230612 -0.0231905)
(0.0737335 -0.0689633 -0.00736565)
(0.0251794 -0.148404 0.00205765)
(0.0281897 -0.145514 0.00471791)
(0.0238661 -0.14732 0.00551151)
(0.0155557 -0.154463 0.00700507)
(0.00962867 -0.159908 0.00780172)
(0.00611907 -0.163203 0.00772785)
(0.00361329 -0.164688 0.00679329)
(0.00174002 -0.16415 0.00556521)
(0.000260677 -0.162405 0.0048415)
(-0.000857341 -0.159518 0.00384584)
(-0.00134999 -0.155848 0.00311743)
(-0.00152965 -0.152695 0.00225001)
(-0.00129463 -0.148462 0.000566923)
(-0.00105538 -0.144145 0.000369123)
(-0.00145752 -0.140307 -0.000800612)
(-0.0018274 -0.133204 -0.00177232)
(-0.00233217 -0.12672 -0.000886109)
(-0.00308836 -0.118423 -0.00374407)
(-0.00352565 -0.103734 -0.00387961)
(-0.00457196 -0.0926956 -0.00425123)
(-0.00653333 -0.076691 -0.0131897)
(-0.00573672 -0.0430659 -0.0110751)
(-0.00293445 -0.0180146 0.000611495)
(-0.000631433 -0.0040817 0.00407013)
(0.00158586 0.000877065 0.00208678)
(0.00428656 -0.00188447 -0.000302227)
(0.00603239 -0.00676829 -0.00172356)
(0.00616707 -0.0104067 -0.00338106)
(0.00589999 -0.0116029 -0.00447067)
(0.00582672 -0.0110708 -0.00474659)
(0.00592592 -0.00913057 -0.00456109)
(0.00592875 -0.0068915 -0.00444102)
(0.00596578 -0.00419636 -0.00442576)
(0.00597198 -0.00155041 -0.00443637)
(0.0180713 0.0224511 0.00373384)
(0.0179549 0.0082105 0.00310461)
(0.011202 0.00640806 0.000303606)
(0.0115265 0.0052643 8.71059e-05)
(0.00952482 0.00442393 -0.000337657)
(0.00990724 0.00470337 -0.000284136)
(0.00944131 0.00422999 -0.000386998)
(0.00980553 0.0042193 -0.000291755)
(0.00964396 0.00375952 -0.000443243)
(0.00998916 0.00353461 -0.000372166)
(0.00982374 0.00304461 -0.00056489)
(0.0100938 0.00279332 -0.000529213)
(0.00991651 0.00234956 -0.000699381)
(0.0100883 0.00214803 -0.000684029)
(0.00993733 0.0017994 -0.000803851)
(0.0100288 0.00165915 -0.000799177)
(0.00992707 0.00141372 -0.00087849)
(0.00995992 0.00131529 -0.000884591)
(0.00990467 0.00116179 -0.000927524)
(0.00990577 0.00108711 -0.000937657)
(0.00987898 0.000998617 -0.000957922)
(0.00986914 0.000942372 -0.000966582)
(0.00985508 0.000889694 -0.000975049)
(0.00984525 0.000849333 -0.000979674)
(0.0098364 0.000814608 -0.000982439)
(0.00982949 0.000785205 -0.000983213)
(0.00982407 0.000758941 -0.000982513)
(0.00982012 0.000734601 -0.000980615)
(0.00981776 0.000710982 -0.00097765)
(0.00981702 0.000685835 -0.000973614)
(0.00981812 0.00066254 -0.000968624)
(0.00981863 0.000620672 -0.000961412)
(0.00983089 0.000621614 -0.00095182)
(0.00982554 0.000506058 -0.000942347)
(0.00985776 0.000594182 -0.000931027)
(0.00984995 0.000324085 -0.000919833)
(0.00990085 0.000555153 -0.000906947)
(0.00990909 6.681e-05 -0.000893393)
(0.00995139 0.000456553 -0.000878495)
(0.010037 -0.000271812 -0.000853436)
(0.0100179 0.000220845 -0.000854752)
(0.0102377 -0.00070736 -0.000786421)
(0.0101427 -0.000191569 -0.000824691)
(0.010495 -0.00133123 -0.000722315)
(0.0103571 -0.000769691 -0.000796429)
(0.0108255 -0.00221239 -0.000716911)
(0.0107209 -0.00119736 -0.000869193)
(0.0113956 -0.00307374 -0.00101762)
(0.0114855 -0.000269861 -0.00165408)
(0.0126886 -0.000823736 -0.00324304)
(0.0153408 0.00811678 -0.00632515)
(0.00959098 0.0187841 -0.0063359)
(0.00514244 0.0325803 -0.00378079)
(-0.00253796 0.0263846 0.0029199)
(-0.00221057 0.0509608 0.009415)
(0.0262858 -0.0400833 0.00261348)
(-0.0129445 0.0321448 0.00513472)
(-0.0120001 -0.0191643 -0.0141359)
(0.0264757 0.182164 -0.00913417)
(0.164372 -0.0171878 -0.0626729)
(0.172382 -0.189839 -0.0193412)
(0.0421185 0.113379 0.00647409)
(-0.0287636 -0.127357 0.0123492)
(-0.0123177 -0.0693933 0.0119106)
(-0.0163263 -0.0933828 0.0126655)
(-0.0201449 -0.113242 0.0148252)
(-0.020218 -0.121429 0.0142639)
(-0.01932 -0.128291 0.0129515)
(-0.0183616 -0.13331 0.0111817)
(-0.0173611 -0.135466 0.00944923)
(-0.0161079 -0.135908 0.00787712)
(-0.014791 -0.134689 0.00587896)
(-0.0129485 -0.132556 0.00440104)
(-0.0113998 -0.130587 0.00255957)
(-0.00973099 -0.127703 0.000930358)
(-0.00835437 -0.125134 0.00031963)
(-0.00885406 -0.122531 -0.00137585)
(-0.00892135 -0.117155 -0.00164972)
(-0.00924783 -0.111614 -0.00180502)
(-0.0118007 -0.10456 -0.00475457)
(-0.0105735 -0.0924434 -0.00340468)
(-0.00884377 -0.0814781 -0.00525202)
(-0.0151745 -0.0642717 -0.0138447)
(-0.0189862 -0.0346475 -0.00916929)
(-0.0130289 -0.0160221 0.00149879)
(-0.00795493 -0.00457897 0.00418739)
(-0.00440335 -0.000633014 0.00438888)
(0.000367883 -0.0022496 0.00539883)
(0.004804 -0.00636453 0.00526087)
(0.007209 -0.00990535 0.00351396)
(0.00715698 -0.0116274 0.00133176)
(0.0063709 -0.0116024 -0.000405577)
(0.00600629 -0.0101046 -0.00141887)
(0.00586526 -0.00773078 -0.00203953)
(0.0057607 -0.00468201 -0.00251837)
(0.00583288 -0.00175199 -0.00305143)
(0.0204975 0.0199233 0.00584598)
(0.0217723 0.00873451 0.00568344)
(0.0123127 0.00530778 0.00268788)
(0.0132554 0.00562799 0.00263952)
(0.0105016 0.00398934 0.0023184)
(0.0111276 0.00487839 0.00240747)
(0.0105084 0.00420083 0.00239288)
(0.0110264 0.0043705 0.00258149)
(0.0108492 0.00379791 0.00247042)
(0.0112916 0.00362951 0.00258418)
(0.0111211 0.00303686 0.00238416)
(0.0114524 0.00282727 0.00243175)
(0.0112558 0.00231069 0.00221959)
(0.0114671 0.00215724 0.00224212)
(0.0112847 0.00175789 0.00208353)
(0.011398 0.00164911 0.00209493)
(0.0112627 0.00138008 0.00200036)
(0.0113024 0.00130094 0.0020064)
(0.0112219 0.00113677 0.00195565)
(0.0112192 0.00107565 0.00195952)
(0.0111746 0.000984641 0.00194151)
(0.0111552 0.000936297 0.00194712)
(0.0111274 0.000885438 0.00194935)
(0.0111056 0.000849485 0.00195934)
(0.0110842 0.000817731 0.00197146)
(0.0110651 0.000791367 0.00198696)
(0.0110475 0.000767765 0.00200451)
(0.0110316 0.000745998 0.0020237)
(0.0110176 0.00072488 0.00204434)
(0.0110058 0.000702753 0.00206615)
(0.0109957 0.000681675 0.00208762)
(0.0109868 0.000645496 0.00210933)
(0.0109859 0.000646552 0.00213191)
(0.0109741 0.000540468 0.00215259)
(0.0109976 0.000626873 0.00217923)
(0.0109811 0.000370634 0.00220156)
(0.0110317 0.000603148 0.00223425)
(0.0110249 0.000125877 0.00225972)
(0.011091 0.000538955 0.0023001)
(0.011143 -0.000204209 0.00233691)
(0.0111776 0.000368317 0.00237496)
(0.0113794 -0.000632745 0.00246235)
(0.0113223 3.00979e-05 0.00246046)
(0.0117168 -0.00123926 0.00260521)
(0.0115868 -0.000461977 0.00256715)
(0.0121315 -0.00209623 0.00270204)
(0.0119754 -0.000809064 0.00255659)
(0.0125585 -0.00274542 0.00237703)
(0.0121563 0.000443541 0.0016201)
(0.0127285 0.00090242 -0.000314964)
(0.0127369 0.011261 -0.00397391)
(0.0103659 0.0251494 -0.00419012)
(0.00561806 0.0331078 -0.000512203)
(0.00142218 0.0196394 0.00642532)
(0.0148512 0.046136 0.0132843)
(0.039129 -0.0468533 0.00592541)
(-0.044951 0.0572026 0.0187631)
(-0.0666911 -0.108648 -0.00359945)
(-0.0532522 0.148865 -0.0490138)
(0.170334 -0.0100051 -0.0444832)
(0.190227 -0.137363 -0.0215551)
(0.067265 0.144441 0.00606122)
(0.0767122 -0.107083 0.0171155)
(0.0218617 -0.02053 0.0175851)
(-0.000481288 -0.0636407 0.0165975)
(-0.00631096 -0.0799376 0.0156349)
(-0.0122484 -0.0891268 0.0128106)
(-0.0167013 -0.0964632 0.00895213)
(-0.0187269 -0.100678 0.00540059)
(-0.0190368 -0.101914 0.00262933)
(-0.0179869 -0.100956 0.000150617)
(-0.0154852 -0.0984374 -0.00203294)
(-0.0119641 -0.0955797 -0.00366586)
(-0.00715688 -0.0922985 -0.00550723)
(-0.00383708 -0.0876609 -0.00651537)
(-0.00291606 -0.0840815 -0.00679655)
(-0.00415277 -0.0808782 -0.00780027)
(-0.00552202 -0.0761581 -0.00669358)
(-0.00783124 -0.0716947 -0.00602386)
(-0.0120039 -0.0662759 -0.00915092)
(-0.0172264 -0.0532158 -0.0120992)
(-0.0228999 -0.0349759 -0.0128689)
(-0.0263015 -0.0177443 -0.0105782)
(-0.0211498 -0.00751218 -0.00463521)
(-0.0120341 -0.00159986 -0.000206393)
(-0.00665359 0.00417103 0.00274459)
(-0.00445566 0.00408318 0.00552034)
(-0.00224615 -0.000306874 0.00752298)
(0.00128737 -0.00551474 0.00768647)
(0.0041198 -0.0092608 0.00666896)
(0.00560071 -0.0110648 0.00502086)
(0.00578154 -0.0109537 0.00334816)
(0.00559851 -0.00953579 0.00226264)
(0.00530317 -0.00748846 0.00149854)
(0.00510087 -0.00482685 0.000823329)
(0.0052443 -0.00195097 -6.12615e-05)
(0.0202927 0.0184701 0.00682058)
(0.0233373 0.011443 0.00743576)
(0.0117267 0.00580231 0.00416906)
(0.0136019 0.00755339 0.00358991)
(0.00993101 0.00441145 0.00348891)
(0.0107875 0.00599584 0.00338745)
(0.00998788 0.00477593 0.00352654)
(0.0106966 0.00519615 0.00371506)
(0.0104578 0.00431767 0.00374311)
(0.0110284 0.00421021 0.00387352)
(0.01077 0.00337892 0.00379551)
(0.0111707 0.00319825 0.00384007)
(0.0108823 0.00250732 0.00371946)
(0.011132 0.00238914 0.00373901)
(0.0108809 0.00188231 0.00363139)
(0.0110067 0.00182734 0.00364663)
(0.0108222 0.00148704 0.00358113)
(0.0108628 0.00144736 0.00359824)
(0.0107442 0.00124631 0.00356391)
(0.0107344 0.00120448 0.00358106)
(0.0106648 0.00109823 0.00357317)
(0.0106339 0.00105811 0.00359085)
(0.0105891 0.00100355 0.00360175)
(0.010554 0.000970392 0.00362124)
(0.0105189 0.00093906 0.00364154)
(0.0104873 0.000914029 0.003665)
(0.0104574 0.000891522 0.00368987)
(0.0104297 0.00087134 0.00371581)
(0.0104045 0.000852218 0.00374276)
(0.010382 0.000832861 0.00377078)
(0.0103628 0.000814033 0.00379995)
(0.0103465 0.000783701 0.00383083)
(0.0103385 0.000783354 0.00386259)
(0.0103217 0.00069235 0.00389447)
(0.0103443 0.000772678 0.00393029)
(0.010318 0.000535378 0.00396433)
(0.0103786 0.000769795 0.00400823)
(0.0103555 0.000306033 0.0040433)
(0.0104468 0.000746303 0.00409871)
(0.0104705 -1.46567e-05 0.00414038)
(0.0105556 0.000665008 0.0042129)
(0.0107212 -0.00045193 0.00427167)
(0.010719 0.00043193 0.00435343)
(0.0111292 -0.00104312 0.00445614)
(0.0110069 4.81171e-06 0.00452307)
(0.0116268 -0.00190045 0.00463779)
(0.0114157 -0.000465714 0.00467563)
(0.0120987 -0.00281587 0.00457488)
(0.0111997 -3.39856e-05 0.00424185)
(0.011497 -0.00137932 0.00303983)
(0.0089849 0.00633621 0.00040419)
(0.00624999 0.0134468 -0.000198829)
(-0.001323 0.0261977 0.00361746)
(-0.0067046 0.015555 0.0134333)
(0.0131327 0.0394727 0.0207817)
(0.0255032 -0.0331047 0.0102141)
(0.0129071 0.0960218 0.00700473)
(-0.0679602 -0.129167 0.019093)
(-0.0550281 0.199368 -0.107723)
(0.185018 -0.0936955 -0.0240179)
(0.205236 -0.10721 -0.0232782)
(0.06196 0.12229 -0.0032324)
(0.0650325 0.00271618 0.0070743)
(-0.0226613 0.0552034 0.0189975)
(-0.00486817 -0.00973373 0.018456)
(-0.00784905 -0.0152793 0.00781202)
(-0.0107189 -0.0293835 -0.000570912)
(-0.0121305 -0.0351345 -0.0053927)
(-0.0124433 -0.0351595 -0.00866066)
(-0.0128437 -0.0333563 -0.0112379)
(-0.0125721 -0.0279904 -0.0134146)
(-0.0113139 -0.0183233 -0.0160875)
(-0.00903146 -0.00716958 -0.0165823)
(-0.0044963 0.010676 -0.0161381)
(-0.000961222 0.0225093 -0.0150218)
(0.000188481 0.0287067 -0.0133104)
(-0.00017399 0.0315908 -0.0117031)
(-0.0023434 0.0311389 -0.0106926)
(-0.0054183 0.0291473 -0.0108279)
(-0.00918902 0.0271951 -0.0112716)
(-0.0120517 0.0260838 -0.0112742)
(-0.0131237 0.0235948 -0.0102627)
(-0.0118678 0.0205549 -0.00778705)
(-0.00813851 0.0179052 -0.00436719)
(-0.00466896 0.0165434 -0.000616077)
(-0.00331916 0.0150486 0.00305881)
(-0.00364932 0.0104112 0.00633763)
(-0.00378294 0.00396489 0.00808392)
(-0.00230488 -0.00272472 0.00788076)
(8.7252e-06 -0.00758492 0.00655752)
(0.0015337 -0.0102594 0.00505731)
(0.00208228 -0.010845 0.00381051)
(0.00198764 -0.0101496 0.00307732)
(0.00183644 -0.00849962 0.00222221)
(0.00182336 -0.00635137 0.001406)
(0.00188457 -0.00300992 0.000461887)
(0.0171896 0.0178118 0.00751013)
(0.0237108 0.0139231 0.00887612)
(0.00963649 0.00654534 0.00499626)
(0.0129922 0.0100362 0.00383761)
(0.00841228 0.00501427 0.00384059)
(0.00952396 0.00714332 0.0032689)
(0.00838623 0.00504784 0.00360622)
(0.00919268 0.00582814 0.00380913)
(0.00884008 0.00459278 0.00406663)
(0.00943154 0.00467638 0.00431327)
(0.00908415 0.00359709 0.00438857)
(0.00946878 0.00352259 0.00447857)
(0.00910536 0.00266263 0.00445121)
(0.00934109 0.00260843 0.00448416)
(0.00902654 0.00199762 0.00443245)
(0.00915062 0.00198767 0.00446147)
(0.00892178 0.00159085 0.0044229)
(0.00895533 0.00159395 0.00445457)
(0.00880058 0.00135386 0.00444629)
(0.008777 0.00134195 0.00448223)
(0.00867716 0.00121704 0.00448839)
(0.00863048 0.001191 0.00452328)
(0.00856213 0.00113171 0.00454705)
(0.0085076 0.00110366 0.00458125)
(0.00845202 0.00107342 0.004615)
(0.00840077 0.00105103 0.00465288)
(0.0083515 0.00103066 0.00469136)
(0.00830532 0.00101291 0.00472934)
(0.00826257 0.000996193 0.00476729)
(0.00822338 0.000979267 0.00480528)
(0.00818789 0.00096285 0.00484278)
(0.00815584 0.000937604 0.00488051)
(0.00813087 0.000937858 0.00491915)
(0.0081027 0.000861359 0.00495797)
(0.00810913 0.000933847 0.00500337)
(0.00807 0.000720597 0.00504176)
(0.00812296 0.000947027 0.00509511)
(0.00807854 0.000511643 0.00512938)
(0.00818182 0.000955625 0.00519609)
(0.00816421 0.000223207 0.0052266)
(0.00830384 0.000935092 0.00531554)
(0.00838825 -0.000189454 0.00534698)
(0.00850138 0.000843416 0.00546065)
(0.00884871 -0.000758802 0.00549334)
(0.00881723 0.000567886 0.00560846)
(0.00956075 -0.00153525 0.00559462)
(0.00934406 0.000262337 0.00557407)
(0.0104367 -0.00237678 0.00524736)
(0.00958579 0.000765411 0.00472154)
(0.0100074 -0.00203199 0.0034419)
(0.00761004 0.00467386 0.000603197)
(0.00592967 0.00283661 -0.000377783)
(-0.0068611 0.0172364 0.000607098)
(-0.015959 -0.00104844 0.0117057)
(0.0156835 0.0179971 0.0458603)
(0.016657 -0.0510118 0.0428061)
(0.0233844 0.0293919 0.0692613)
(-0.091413 -0.117042 0.0482002)
(0.0137106 0.152797 -0.188073)
(0.115889 -0.104041 -0.0030621)
(0.162836 -0.0678778 -0.0208925)
(0.0565844 0.13001 -0.0117898)
(0.0721801 0.0823729 -0.00375767)
(0.0271455 0.103973 -0.00250875)
(0.0175241 0.0897826 -0.00686049)
(0.00408956 0.0947305 -0.0103783)
(0.00195475 0.101558 -0.0126211)
(-0.00251337 0.106365 -0.0130596)
(-0.00324005 0.114918 -0.0132111)
(-0.0042076 0.11911 -0.0124416)
(-0.00290092 0.124225 -0.0111731)
(-0.000960215 0.125282 -0.0090251)
(0.00263062 0.12532 -0.00666498)
(0.00778001 0.123647 -0.00412279)
(0.0122711 0.119028 -0.00241399)
(0.0152395 0.11326 -0.00123584)
(0.0167236 0.105999 -0.000336879)
(0.0163295 0.0972831 -9.79543e-05)
(0.0147878 0.0878924 -0.000177899)
(0.0122474 0.0772356 -0.000540971)
(0.00923732 0.066884 -0.000678825)
(0.00673901 0.0562497 -0.000311433)
(0.00504579 0.0466869 0.000784671)
(0.0041325 0.037889 0.0024756)
(0.00304859 0.0300404 0.00459768)
(0.00131261 0.0234392 0.00679536)
(-0.00119799 0.016228 0.00846733)
(-0.00302159 0.0083614 0.00897745)
(-0.00303194 0.00104555 0.00876635)
(-0.00183921 -0.00440126 0.00765563)
(-0.000973651 -0.00776673 0.00579619)
(-0.000694723 -0.00961961 0.0042075)
(-0.00069591 -0.00963016 0.0027425)
(-0.0011183 -0.00801403 0.000768204)
(-0.00199924 -0.00518123 -0.000660899)
(-0.00375531 -0.00239822 -0.00110201)
(0.0124708 0.0161474 0.00804211)
(0.0233638 0.0161047 0.0098436)
(0.00665527 0.00620702 0.00472651)
(0.0124905 0.0125742 0.0031188)
(0.00703856 0.00517759 0.00318685)
(0.00855805 0.00821319 0.00210582)
(0.0067925 0.00480461 0.00278449)
(0.0075642 0.00614208 0.00302131)
(0.0069832 0.00448334 0.0036534)
(0.00745165 0.00491442 0.00416074)
(0.00696985 0.00360077 0.00449968)
(0.0071962 0.00373861 0.00476225)
(0.00674239 0.00270661 0.00490012)
(0.00686395 0.00278134 0.00501207)
(0.00648484 0.00206886 0.00506701)
(0.00655051 0.00212977 0.00513441)
(0.00627987 0.00167777 0.00516269)
(0.00629437 0.00172068 0.00521765)
(0.00612294 0.0014503 0.00524265)
(0.00609889 0.00147177 0.00529309)
(0.00599467 0.00133115 0.00531768)
(0.00595573 0.00132123 0.00536193)
(0.00589234 0.00125788 0.00538944)
(0.00584763 0.00123659 0.00542417)
(0.00580257 0.00120743 0.00545336)
(0.00576324 0.0011888 0.005483)
(0.00572622 0.00117347 0.00551131)
(0.00569312 0.00116149 0.00553744)
(0.00566453 0.00115022 0.00556082)
(0.00564093 0.00113915 0.00558317)
(0.0056221 0.00112889 0.00560527)
(0.00560742 0.00111172 0.00562687)
(0.00559972 0.00111564 0.0056479)
(0.00559098 0.00105449 0.00566358)
(0.0056123 0.00112206 0.00568265)
(0.00559357 0.000939463 0.00569201)
(0.00566555 0.00115524 0.00571669)
(0.00564071 0.000765 0.00571818)
(0.00577739 0.00119304 0.00575065)
(0.0057688 0.000520284 0.00574398)
(0.00597243 0.00122073 0.00578781)
(0.00604006 0.000179925 0.0057661)
(0.00628304 0.00123539 0.00581512)
(0.00655346 -0.000342061 0.00575621)
(0.00674113 0.00124763 0.00578801)
(0.0073793 -0.001065 0.00557406)
(0.00739189 0.00139292 0.00549217)
(0.00831603 -0.00179148 0.00481123)
(0.00789461 0.0025061 0.0041909)
(0.00852984 -0.00161721 0.00251093)
(0.00714279 0.00571287 0.000964632)
(0.00596062 -0.000279978 0.000441127)
(-0.00398542 0.0146054 0.00307207)
(-0.0209309 -0.00662944 0.0149974)
(0.00338841 0.0124168 0.0484649)
(-0.00194243 -0.0236232 0.0535071)
(0.0248179 0.0257563 0.115387)
(-0.0593374 -0.111675 0.0885836)
(0.0446532 0.00119169 -0.177722)
(0.0619607 -0.0644925 0.00883877)
(0.116843 -0.00342638 -0.0208048)
(0.0370419 0.164228 -0.0106795)
(0.0359965 0.167199 0.00290722)
(0.0116561 0.190317 0.00248959)
(0.00690463 0.197213 0.00202855)
(0.00433408 0.201939 0.000531305)
(0.00295574 0.205232 0.000957009)
(0.00368003 0.20699 0.000722567)
(0.00448027 0.206997 0.00227468)
(0.00587437 0.205205 0.00311572)
(0.00813049 0.202611 0.00504073)
(0.0113417 0.197982 0.00637768)
(0.0157679 0.192017 0.0077232)
(0.0192401 0.184779 0.00911131)
(0.0182787 0.177053 0.010049)
(0.0233527 0.169016 0.0101492)
(0.0233407 0.15943 0.0105976)
(0.0238053 0.148637 0.0106007)
(0.0226504 0.135984 0.0102555)
(0.0209259 0.122423 0.00957246)
(0.0176974 0.108382 0.00914073)
(0.0146594 0.0937436 0.00858166)
(0.0118516 0.0810062 0.00838187)
(0.00871962 0.0673898 0.00851755)
(0.00509835 0.0545704 0.00874772)
(0.00150183 0.0426479 0.00918667)
(-0.00183232 0.0313054 0.00978333)
(-0.00406364 0.0202084 0.00982816)
(-0.00460289 0.0111446 0.00959668)
(-0.00435074 0.00330996 0.00892668)
(-0.00381435 -0.00196251 0.00781798)
(-0.00396494 -0.00519938 0.00607343)
(-0.00467738 -0.00700297 0.00391952)
(-0.00491591 -0.005712 0.00131675)
(-0.00529386 -0.00365425 -0.00334519)
(-0.00815807 -0.0024874 -0.00738398)
(0.00725811 0.0128682 0.00731757)
(0.0219821 0.0190527 0.0097564)
(0.00312888 0.00540999 0.00303573)
(0.0116339 0.0153843 0.0019657)
(0.00573113 0.00511798 0.00159659)
(0.00779318 0.00929574 0.000521408)
(0.00529984 0.00421465 0.00139034)
(0.00577331 0.00611419 0.00158836)
(0.00473365 0.00394596 0.00247232)
(0.00498514 0.00472808 0.00333252)
(0.00429662 0.00330354 0.0038945)
(0.00429663 0.00365389 0.00438933)
(0.00367303 0.00255417 0.00461625)
(0.00354485 0.00277705 0.00482627)
(0.003027 0.0020292 0.00492676)
(0.00291293 0.00218713 0.00503736)
(0.00253039 0.00171567 0.00508195)
(0.00243769 0.00182344 0.00515605)
(0.00217368 0.00154395 0.00517688)
(0.00207841 0.00160674 0.00522625)
(0.00191877 0.00145946 0.00524509)
(0.00183606 0.00146864 0.00528125)
(0.00173579 0.00140401 0.00529743)
(0.00166473 0.00139028 0.00532173)
(0.00159859 0.00136351 0.00533875)
(0.00154132 0.00134844 0.00535452)
(0.0014899 0.00133623 0.00536514)
(0.00144969 0.001328 0.00537362)
(0.00141683 0.00132117 0.00538083)
(0.00138862 0.00131467 0.00538542)
(0.0013665 0.00130882 0.00538693)
(0.00135109 0.00129735 0.00538561)
(0.0013455 0.00130663 0.00538147)
(0.00134576 0.00125952 0.00537503)
(0.00137332 0.00132679 0.00537001)
(0.00136961 0.00117187 0.00535478)
(0.00145079 0.00138204 0.00534876)
(0.00144587 0.00103764 0.00532668)
(0.00160234 0.00145463 0.00533458)
(0.00160938 0.000844277 0.00531727)
(0.00185612 0.00153538 0.00533161)
(0.00192744 0.00059107 0.0052859)
(0.00227532 0.00165086 0.00528352)
(0.00250982 0.000211864 0.00519435)
(0.00292105 0.00188274 0.00517746)
(0.0034347 -0.000369673 0.00496646)
(0.00390598 0.0024676 0.00489716)
(0.0047114 -0.00098773 0.00430527)
(0.00487865 0.00398181 0.00375791)
(0.00563718 -0.00119079 0.00260105)
(0.00421761 0.00713028 0.00186329)
(0.00290064 -0.00134218 0.00266124)
(-0.00775813 0.0138739 0.00565155)
(-0.0221689 -0.00442328 0.0136866)
(-0.0203677 -0.000344784 0.0441002)
(-0.0381881 -0.0349112 0.0659907)
(-0.00185784 -0.03067 0.103206)
(0.00652832 -0.110432 0.0958361)
(0.0233655 -0.0929638 -0.162236)
(0.0236937 -0.0655319 0.0131194)
(0.0462224 0.050953 -0.00977863)
(0.00720993 0.214017 -0.00837364)
(0.00890564 0.236019 0.00656609)
(0.000481284 0.254652 0.00918838)
(0.00201655 0.262185 0.0110251)
(0.000790934 0.268109 0.00938278)
(0.00226929 0.269335 0.0100485)
(0.00357583 0.268 0.0100217)
(0.00567988 0.264172 0.011607)
(0.00785696 0.258615 0.012351)
(0.0102388 0.25426 0.0135358)
(0.0129962 0.248876 0.0136019)
(0.0163033 0.239889 0.013912)
(0.0202359 0.233073 0.0149507)
(0.0233562 0.226472 0.0176623)
(0.0252484 0.218384 0.015464)
(0.0276408 0.210934 0.0171801)
(0.0290913 0.202397 0.0173128)
(0.0295984 0.192278 0.0169092)
(0.0287151 0.181835 0.0159819)
(0.0271796 0.170168 0.0157902)
(0.024753 0.156572 0.0143703)
(0.0221063 0.142122 0.0129364)
(0.0187701 0.1265 0.0115969)
(0.0144564 0.110104 0.00959164)
(0.0100448 0.0932706 0.00926604)
(0.00531639 0.0768847 0.00945055)
(0.000792815 0.0599301 0.00841253)
(-0.00200215 0.0463374 0.00743555)
(-0.00492062 0.0327284 0.00559637)
(-0.00701192 0.0216516 0.00294317)
(-0.00815612 0.0131141 -0.000550583)
(-0.0112935 0.00528946 -0.00409257)
(-0.0127349 -0.000332828 -0.00919321)
(-0.00838236 -0.00392573 -0.0179679)
(-0.00657982 -0.00431231 -0.0263622)
(-0.000714425 0.00575572 0.00622623)
(0.018242 0.0226983 0.00865732)
(6.72811e-05 0.00501074 0.00112093)
(0.0107552 0.0189922 0.00168009)
(0.00558027 0.00561751 0.00110693)
(0.0078584 0.0106598 0.000685963)
(0.00488439 0.00388001 0.00151293)
(0.00507239 0.00607688 0.00166467)
(0.00357497 0.00322104 0.00246035)
(0.00363822 0.00421652 0.00352023)
(0.00261896 0.00265155 0.00407352)
(0.00245758 0.00314981 0.0046963)
(0.00159855 0.00199443 0.0049166)
(0.00137486 0.00237981 0.00525033)
(0.000745482 0.00164624 0.00535587)
(0.000602525 0.00196646 0.00554118)
(0.000177649 0.00152711 0.0056015)
(9.29553e-05 0.00175311 0.00572143)
(-0.000163729 0.00151279 0.00576938)
(-0.000214672 0.00165527 0.00585447)
(-0.000338672 0.00154144 0.00590235)
(-0.000368186 0.00161172 0.00596706)
(-0.000413888 0.00158018 0.00600575)
(-0.000421387 0.00160308 0.00605325)
(-0.000423809 0.00160483 0.00609106)
(-0.000413601 0.00161586 0.00612929)
(-0.000395418 0.00162341 0.00616404)
(-0.000368773 0.00163023 0.00619613)
(-0.000335321 0.00163598 0.00622647)
(-0.000294308 0.00164227 0.00625614)
(-0.000246803 0.00165008 0.00628488)
(-0.000191863 0.00165467 0.00631269)
(-0.00012885 0.00167348 0.00633791)
(-5.74621e-05 0.0016456 0.00636527)
(3.27074e-05 0.00171975 0.00638888)
(0.000104136 0.00160166 0.00641172)
(0.000250231 0.00181011 0.00643622)
(0.000326755 0.0015277 0.00645662)
(0.000559207 0.00193738 0.0064884)
(0.000653004 0.00141917 0.00650598)
(0.000991066 0.00209585 0.00653573)
(0.00113773 0.00128185 0.0065349)
(0.00161001 0.00228567 0.00655408)
(0.00190882 0.00102911 0.00653612)
(0.00252942 0.00258988 0.00653304)
(0.00303015 0.000540145 0.00639963)
(0.00385713 0.0032927 0.00632895)
(0.00440947 -0.000336315 0.00576329)
(0.00507646 0.00488194 0.00541154)
(0.00529541 -0.00196964 0.00426308)
(0.00454176 0.00718888 0.00396688)
(0.00156165 -0.00615747 0.00288224)
(-0.00777229 0.0102049 0.00753107)
(-0.0134061 -0.00650174 0.01414)
(-0.0263531 -0.00388892 0.0451652)
(-0.0337551 -0.0457764 0.0663344)
(-0.0150025 -0.0426469 0.0957651)
(0.0488164 -0.0916388 0.0827065)
(-0.0135959 -0.108598 -0.147463)
(-0.0258395 -0.0803932 0.0164781)
(-0.0549965 0.0817286 -0.00793144)
(-0.0365074 0.230266 -0.00793096)
(-0.0281763 0.254577 0.0124852)
(-0.0154952 0.270712 0.0131062)
(-0.0112152 0.276904 0.0166845)
(-0.00503292 0.277222 0.014634)
(-0.00144573 0.275912 0.0157297)
(0.00252345 0.272995 0.0148829)
(0.006711 0.267576 0.016628)
(0.0101383 0.262498 0.0166563)
(0.0128112 0.256411 0.0178224)
(0.0149098 0.249985 0.0179114)
(0.0169535 0.243671 0.0182976)
(0.0206638 0.236275 0.0183239)
(0.0255403 0.231958 0.0191906)
(0.0254719 0.225156 0.018987)
(0.0288635 0.219279 0.0201454)
(0.0303665 0.213868 0.0216214)
(0.0312158 0.208721 0.0226334)
(0.0312005 0.203175 0.023606)
(0.0317424 0.196833 0.0252936)
(0.0312141 0.188916 0.0258706)
(0.0303388 0.180303 0.0259821)
(0.0289281 0.170927 0.02548)
(0.0265318 0.160289 0.0236209)
(0.0235701 0.149604 0.0221078)
(0.020102 0.138465 0.0202519)
(0.017343 0.124849 0.0185624)
(0.0150802 0.111313 0.0161505)
(0.0131794 0.0970321 0.0125878)
(0.0113945 0.081779 0.00816104)
(0.00882874 0.0671671 0.00269191)
(0.00634366 0.0512724 -0.00516274)
(0.00265722 0.0325523 -0.0214479)
(-0.00338471 0.0147974 -0.0558387)
(-0.00977682 0.00829703 -0.0879689)
(-0.0118853 0.00955906 -0.00493183)
(0.0145228 0.0289682 0.00484225)
(-0.00417333 0.00559434 -0.00391936)
(0.00861545 0.0222351 -0.000261357)
(0.00494734 0.0055643 -0.00192072)
(0.0062667 0.0113797 -0.00192218)
(0.00360454 0.00340278 -0.00174453)
(0.00312193 0.00574153 -0.00171904)
(0.00153614 0.00232823 -0.000857906)
(0.0011882 0.00359753 0.000350402)
(-4.99733e-05 0.00215993 0.00107491)
(-0.000409189 0.00282937 0.00182417)
(-0.00147795 0.00180617 0.00208046)
(-0.00192174 0.00227698 0.00245088)
(-0.00267431 0.00163495 0.00258513)
(-0.00295872 0.00198804 0.00278266)
(-0.00345517 0.00160363 0.00286258)
(-0.00361676 0.00186232 0.00298795)
(-0.00391781 0.00164525 0.0030459)
(-0.0040161 0.00181769 0.00313562)
(-0.00417674 0.00172174 0.0031907)
(-0.004242 0.00180996 0.00326064)
(-0.00431575 0.00179212 0.00330763)
(-0.00435319 0.00182587 0.00336279)
(-0.00438332 0.00183707 0.00340837)
(-0.00439834 0.00185544 0.00345428)
(-0.00440294 0.00187039 0.00349734)
(-0.00439744 0.00188467 0.00353805)
(-0.00438378 0.00189899 0.00357641)
(-0.00436314 0.00191093 0.00361227)
(-0.00433547 0.00192046 0.00364732)
(-0.00430009 0.00192806 0.00368155)
(-0.00425643 0.00194711 0.00371317)
(-0.00420081 0.00192846 0.00374707)
(-0.0041349 0.00200078 0.003772)
(-0.00408007 0.00190422 0.00380003)
(-0.0039662 0.00209671 0.00381952)
(-0.00390373 0.00185214 0.00384989)
(-0.0037142 0.00222933 0.0038709)
(-0.00364236 0.00177794 0.00389742)
(-0.00335048 0.00239358 0.00391843)
(-0.00324112 0.00168338 0.00393522)
(-0.00281473 0.00260299 0.00396134)
(-0.00262209 0.00159685 0.00393426)
(-0.00197901 0.00301824 0.00394822)
(-0.00166388 0.00146056 0.00375621)
(-0.000654653 0.00397586 0.00372323)
(-0.000417597 0.00107418 0.00306744)
(0.00109938 0.00558551 0.00298222)
(0.00105158 -0.0015856 0.00237441)
(0.000837578 0.00602297 0.00188469)
(-0.00300717 -0.00718587 0.00140154)
(-0.014656 0.0097307 0.00368318)
(-0.0116519 -0.00587406 0.00861814)
(-0.0323419 0.00358331 0.0355181)
(-0.0399673 -0.0614975 0.0482884)
(-0.0502409 -0.0562359 0.0609123)
(0.0819099 -0.132204 0.0577019)
(-0.0374573 -0.00588085 -0.170464)
(-0.070538 -0.0755147 0.00803781)
(-0.153008 0.0185211 -0.0235061)
(-0.0687835 0.162646 -0.00966864)
(-0.0572142 0.155859 0.0096283)
(-0.0297581 0.15472 0.0111385)
(-0.0238778 0.139006 0.0110518)
(-0.012078 0.123211 0.0081637)
(-0.00764778 0.114648 0.00799746)
(-0.00284254 0.102978 0.00631572)
(-9.178e-05 0.0970559 0.00622891)
(0.00265395 0.0901082 0.00563325)
(0.00537518 0.0849158 0.00554788)