/*--------------------------------*- C++ -*----------------------------------*\
| =========                 |                                                 |
| \\      /  F ield         | OpenFOAM: The Open Source CFD Toolbox           |
|  \\    /   O peration     | Version:  2.3.0                                 |
|   \\  /    A nd           | Web:      www.OpenFOAM.org                      |
|    \\/     M anipulation  |                                                 |
\*---------------------------------------------------------------------------*/
FoamFile
{
    version     2.0;
    format      ascii;
    class       volVectorField;
    location    "7";
    object      U;
}
// * * * * * * * * * * * * * * * * * * * * * * * * * * * * * * * * * * * * * //

dimensions      [0 1 -1 0 0 0 0];

internalField   nonuniform List<vector> 
6144
(
(0.00894846 0.0223661 -0.000755968)
(0.0084357 0.00604062 -0.000894748)
(0.00545136 0.00465031 -0.00203722)
(0.00540147 0.00266063 -0.00220005)
(0.00463611 0.00207638 -0.00232893)
(0.00466337 0.00211071 -0.00237467)
(0.00446669 0.00192687 -0.0024329)
(0.00456314 0.00197242 -0.00245196)
(0.00450387 0.00180536 -0.00256325)
(0.00463187 0.00171943 -0.00259683)
(0.00459038 0.00147195 -0.00272543)
(0.00469748 0.00134635 -0.00276788)
(0.00465803 0.00108184 -0.00287693)
(0.00472541 0.000975933 -0.00291664)
(0.00469252 0.000758157 -0.00299585)
(0.00472887 0.000688383 -0.00302691)
(0.00470899 0.000537174 -0.00307993)
(0.0047246 0.000493221 -0.00310402)
(0.00471488 0.000406031 -0.00313776)
(0.00472002 0.000374931 -0.00315659)
(0.00471618 0.000332458 -0.00317751)
(0.00471673 0.000311423 -0.00319202)
(0.00471534 0.000292071 -0.00320547)
(0.00471479 0.000280127 -0.00321633)
(0.00471402 0.000271622 -0.00322575)
(0.00471341 0.000264551 -0.0032337)
(0.00471236 0.000263153 -0.00324085)
(0.00471161 0.000251374 -0.00324626)
(0.00471313 0.000266558 -0.00325176)
(0.0047091 0.000220576 -0.00325428)
(0.00471453 0.000279434 -0.00326005)
(0.00470773 0.00016553 -0.00326135)
(0.00472101 0.00029138 -0.0032663)
(0.00470886 7.38026e-05 -0.00326811)
(0.0047316 0.000283891 -0.00327)
(0.00471472 -7.04868e-05 -0.0032743)
(0.00474526 0.000223274 -0.00327249)
(0.00472899 -0.000282401 -0.00328169)
(0.00475435 7.13066e-05 -0.00327545)
(0.0047467 -0.000591347 -0.00329645)
(0.00476005 -0.000198881 -0.00329018)
(0.0047331 -0.00094186 -0.00333119)
(0.00472924 -0.000523684 -0.00334039)
(0.00465096 -0.00119669 -0.00340501)
(0.00461791 -0.000698104 -0.0034033)
(0.00446561 -0.00126721 -0.00341862)
(0.004323 -0.000789962 -0.00324788)
(0.00387043 -0.00167886 -0.00312016)
(0.00303203 -0.000817179 -0.00237851)
(0.00222126 -0.00259019 -0.00180182)
(-0.00165523 0.00237205 -0.00296644)
(0.00322743 0.0155008 -0.00557153)
(0.0241571 0.0141608 -0.0116748)
(0.0310439 -0.0284383 -0.00797987)
(0.0342786 -0.0430999 -0.00579727)
(0.0336578 -0.0908537 -0.00304856)
(0.0205097 -0.0596426 -0.0194519)
(0.0218631 -0.110558 0.00959803)
(-0.0372493 0.00414896 -0.0653108)
(0.0394636 0.110844 0.0417495)
(0.147654 -0.274576 0.0826012)
(0.0973822 -0.144752 0.0432036)
(0.0615179 -0.192997 0.0245387)
(0.0467631 -0.207808 0.01479)
(0.0413212 -0.202329 0.0134225)
(0.0338627 -0.199839 0.0139252)
(0.0275255 -0.197588 0.0124983)
(0.021988 -0.198716 0.0137897)
(0.0188693 -0.194859 0.0133051)
(0.0161583 -0.190593 0.0151554)
(0.0142628 -0.186233 0.0171165)
(0.011768 -0.183482 0.0186066)
(0.00997238 -0.177306 0.0187436)
(0.00665341 -0.172922 0.0172319)
(0.00407185 -0.166768 0.0137598)
(-0.000921685 -0.164586 0.0128709)
(-0.00229745 -0.160292 0.00811434)
(-0.00162017 -0.161121 0.00697001)
(-0.00156786 -0.164668 0.00768864)
(-0.000475702 -0.170824 0.0103871)
(-0.00101894 -0.17827 0.0142676)
(-0.00152185 -0.180186 0.0166505)
(-0.00441822 -0.182078 0.0165417)
(-0.00951859 -0.18014 0.0172975)
(-0.0155208 -0.170382 0.0157996)
(-0.0343078 -0.144802 0.00685084)
(-0.0339887 -0.0621125 0.00465069)
(-0.0107171 -0.00395932 -0.005373)
(-0.00116268 0.047331 -0.011164)
(-0.000948237 0.0707801 -0.00934309)
(-0.000310029 0.0710654 0.00763899)
(0.00432973 0.0530175 0.0115911)
(0.00701058 0.0286081 0.00765284)
(0.00647656 0.0114304 0.00330919)
(0.00539923 0.00316251 0.000182432)
(0.00469521 0.000402499 -0.00107632)
(0.0174092 0.0213143 0.00392472)
(0.0174007 0.0077095 0.00336948)
(0.0105983 0.00570824 0.000821265)
(0.0108578 0.00456014 0.000614767)
(0.00887996 0.00374622 0.00022665)
(0.0091919 0.00413568 0.000243475)
(0.00880483 0.0037543 0.000135283)
(0.0091226 0.00381107 0.000216459)
(0.00905955 0.0034246 7.64899e-05)
(0.00939829 0.00322536 0.000132406)
(0.0093287 0.00278736 -7.84312e-05)
(0.00960288 0.00253208 -7.16764e-05)
(0.00950512 0.00212646 -0.000273998)
(0.00968355 0.00191841 -0.000285288)
(0.00958897 0.0015941 -0.000440896)
(0.00968801 0.00145288 -0.000455507)
(0.00962034 0.00122369 -0.000557725)
(0.00966491 0.00113415 -0.000574761)
(0.00962773 0.000993053 -0.000632081)
(0.00964267 0.000932925 -0.000648086)
(0.00962646 0.000856012 -0.000677138)
(0.00962788 0.000814783 -0.000689564)
(0.00962158 0.000774403 -0.000702695)
(0.0096191 0.000747434 -0.000710193)
(0.00961596 0.000725834 -0.000715565)
(0.00961368 0.000707864 -0.000718223)
(0.0096115 0.000698018 -0.000719458)
(0.00960974 0.00068058 -0.000718029)
(0.00961255 0.000687728 -0.000714591)
(0.00960651 0.000637946 -0.000709876)
(0.00961999 0.000699297 -0.000705425)
(0.00960421 0.000564803 -0.000700337)
(0.00963656 0.000720043 -0.000692452)
(0.00960804 0.000448126 -0.000689351)
(0.00966624 0.000732696 -0.000673289)
(0.00962586 0.000267994 -0.000675885)
(0.00970764 0.000706013 -0.000651481)
(0.00966427 6.04479e-06 -0.00066522)
(0.00975445 0.000601999 -0.000635048)
(0.00970752 -0.000358248 -0.000673722)
(0.00976769 0.000374949 -0.000671051)
(0.00967686 -0.000754991 -0.000767025)
(0.00964943 9.67504e-05 -0.000842989)
(0.00945431 -0.000951919 -0.0010287)
(0.00934003 6.40967e-05 -0.00113192)
(0.00904843 -0.000751648 -0.00117597)
(0.00889047 0.000116699 -0.000947884)
(0.00806655 -0.00160634 -0.000580235)
(0.00661948 -0.000662125 0.000378346)
(0.00424895 -0.00545713 0.00116106)
(0.000286161 0.000108654 0.000792263)
(0.00639408 -0.0164297 0.00126926)
(0.0475848 -0.0295726 -0.00177852)
(0.0682493 -0.0664315 0.0122943)
(0.0591123 -0.0740514 0.0240134)
(0.0476671 -0.123458 0.0298261)
(0.022501 -0.0961071 0.0147167)
(0.0219871 -0.189288 0.0440225)
(-0.103115 0.0232988 -0.0856343)
(0.0212581 0.0347753 0.012054)
(0.17044 -0.230595 0.120393)
(0.0834569 0.003501 0.0475737)
(0.015314 -0.0935841 0.0182583)
(0.022103 -0.0452152 0.0176523)
(0.0158451 -0.0616809 0.0148062)
(0.00818853 -0.066002 0.00916699)
(0.00420855 -0.0633479 0.0109756)
(0.000353029 -0.047478 0.0132142)
(0.0031984 -0.0201724 0.0136859)
(0.00181867 -0.00447317 0.0160247)
(-0.00178833 0.00622642 0.0202406)
(-0.00266476 0.0184347 0.0232575)
(-0.00443264 0.0263165 0.0169938)
(-0.00341106 0.0318748 0.0131685)
(0.00425601 0.0238819 0.0117263)
(0.0124022 0.0112027 0.00710221)
(0.0275005 -0.00455303 -0.00229528)
(0.0384322 -0.0162333 -0.00177624)
(0.0387243 -0.0369448 0.00573487)
(0.0329574 -0.0586915 0.0147556)
(0.0227898 -0.0748626 0.0183284)
(0.0173342 -0.0771505 0.0117744)
(0.0114556 -0.0760014 0.0089656)
(0.00487595 -0.0812145 0.0165951)
(-0.0148665 -0.0930072 0.0176997)
(-0.0417003 -0.0821247 0.00639096)
(-0.050518 -0.0325386 0.00511256)
(-0.0276281 -0.00316033 -0.000622701)
(-0.0123109 0.037139 -0.00726927)
(-0.0119214 0.0607996 -0.000145264)
(-0.0146551 0.0590519 0.0178177)
(-0.00824033 0.0444166 0.0238993)
(0.00138563 0.0240145 0.0172452)
(0.00432781 0.00745995 0.00955511)
(0.00301115 0.000595479 0.00432334)
(0.00214445 -0.000402927 0.00174409)
(0.0197587 0.0192226 0.00578727)
(0.0211912 0.00898339 0.00579166)
(0.0116853 0.00513738 0.00319721)
(0.0124506 0.00526368 0.00302755)
(0.0095792 0.00348967 0.00277477)
(0.0100527 0.00439704 0.0028233)
(0.00950502 0.00376995 0.00289098)
(0.00993973 0.0040013 0.00304379)
(0.00988104 0.00351737 0.00300769)
(0.0103134 0.00338233 0.00311401)
(0.0102622 0.00284571 0.00296501)
(0.010609 0.0026249 0.00298147)
(0.0105146 0.00214429 0.00279757)
(0.0107445 0.00196274 0.00278279)
(0.0106409 0.00159527 0.00262519)
(0.01077 0.00147235 0.00260961)
(0.0106889 0.00122207 0.00249906)
(0.0107471 0.00114521 0.00248845)
(0.0106967 0.000993689 0.0024267)
(0.0107132 0.000943216 0.00242338)
(0.0106859 0.000862547 0.0023986)
(0.0106822 0.000827161 0.00240204)
(0.0106659 0.000787045 0.00240083)
(0.0106545 0.000763237 0.00240963)
(0.0106411 0.000743241 0.00242032)
(0.0106284 0.000728393 0.0024351)
(0.0106155 0.000718972 0.00245193)
(0.010603 0.00070288 0.00247099)
(0.0105941 0.000711067 0.00249221)
(0.0105779 0.000668225 0.00251364)
(0.0105837 0.000724317 0.00253732)
(0.0105541 0.000604825 0.00255931)
(0.0105845 0.00074917 0.00258714)
(0.0105402 0.000499856 0.00260536)
(0.0106062 0.000767005 0.0026428)
(0.0105489 0.000331313 0.00265181)
(0.010652 0.000745301 0.00269963)
(0.0105896 7.16057e-05 0.00269141)
(0.0107259 0.000639348 0.00274258)
(0.0106664 -0.000304073 0.00269181)
(0.0108007 0.000392173 0.00269417)
(0.01072 -0.000773741 0.00253086)
(0.0107717 6.30945e-05 0.00235537)
(0.010596 -0.00111857 0.00197243)
(0.0105291 -2.48857e-05 0.00157281)
(0.0104232 -0.000924917 0.00129083)
(0.0108338 -0.000356075 0.00139026)
(0.0105869 -0.00280927 0.00167352)
(0.0111036 -0.0047528 0.00233058)
(0.00793424 -0.0135759 0.00332196)
(0.011782 -0.0164934 0.00400582)
(0.0348389 -0.0438874 -0.00330476)
(0.0740707 -0.0527433 0.00139403)
(0.0844333 -0.0822463 0.0209994)
(0.0713169 -0.0804183 0.0315374)
(0.060249 -0.12908 0.0349827)
(0.020052 -0.0880724 0.0143991)
(0.034692 -0.217897 0.0557375)
(-0.112543 0.0603173 -0.0690728)
(0.0527329 0.00352636 -0.0082381)
(0.167817 -0.19376 0.138468)
(0.0934906 0.059559 0.0489277)
(0.0561371 -0.0735141 0.0418124)
(0.0479287 -0.00678533 0.00923719)
(0.0358557 -0.0352822 0.0173386)
(0.0286705 -0.0341942 0.0210794)
(0.0111183 -0.0295488 0.0299759)
(-0.00608442 -0.0220331 0.0304831)
(-0.00438064 -0.00747217 0.0259101)
(0.00243979 0.00744469 0.0133933)
(-0.00216405 0.0165952 -0.00141606)
(-0.0100503 0.0282595 -0.0126129)
(-0.0072399 0.0376661 -0.0104173)
(0.00756095 0.0449549 0.00398619)
(0.0248517 0.042471 0.00904524)
(0.0343885 0.0327308 0.00651769)
(0.0470191 0.0248166 0.00198296)
(0.0574562 0.0175197 0.00340813)
(0.0521882 -0.00540222 0.00830907)
(0.0356855 -0.0309218 0.021079)
(0.0112459 -0.0576893 0.032294)
(0.000753001 -0.0725594 0.0223009)
(0.00197881 -0.0677806 -0.0033831)
(-0.00229898 -0.0487434 -0.0124608)
(-0.0404307 -0.0294373 0.00218634)
(-0.0735208 -0.0129803 0.00214954)
(-0.0573833 -0.00312885 0.00423913)
(-0.0267564 0.0114953 -0.00332282)
(-0.013203 0.0382452 -0.0105667)
(-0.0124525 0.0560857 0.0017885)
(-0.0189468 0.0512316 0.0190255)
(-0.0196675 0.0364232 0.0268958)
(-0.0113677 0.0182893 0.0232157)
(-0.00342766 0.00396636 0.0142944)
(-0.00283987 -0.00182844 0.00815425)
(-0.00336189 -0.00107926 0.00492505)
(0.0195298 0.0179609 0.00663711)
(0.0228507 0.0119425 0.00721111)
(0.0112899 0.00603647 0.00457363)
(0.0130278 0.00752316 0.00369788)
(0.00913434 0.00415117 0.00369832)
(0.00976761 0.00558899 0.00348232)
(0.00894357 0.00438017 0.00371942)
(0.00950666 0.00484577 0.00384923)
(0.00938044 0.0041071 0.00397933)
(0.00990451 0.00404607 0.00412902)
(0.00978404 0.0032818 0.00413609)
(0.0101817 0.00308544 0.00417673)
(0.0100068 0.00243744 0.00410775)
(0.0102626 0.00227616 0.00410563)
(0.0100963 0.00180085 0.00402364)
(0.0102385 0.00171204 0.00402025)
(0.0101078 0.00139538 0.00396512)
(0.010167 0.00134331 0.00397176)
(0.0100809 0.00115465 0.00394136)
(0.0100915 0.00111788 0.00395555)
(0.0100412 0.0010193 0.00394845)
(0.010028 0.00098986 0.00396709)
(0.0099963 0.000943151 0.00397787)
(0.00997354 0.00092093 0.00399839)
(0.00994765 0.000898968 0.00401901)
(0.00992351 0.000884845 0.00404308)
(0.00989921 0.000874186 0.00406819)
(0.00987481 0.000861464 0.00409473)
(0.00985383 0.000866978 0.00412198)
(0.00982787 0.000832045 0.00414989)
(0.00982554 0.000881818 0.00417959)
(0.00978524 0.000777571 0.00420927)
(0.00981466 0.000913012 0.00424331)
(0.0097586 0.000681832 0.00427326)
(0.00983451 0.000943389 0.00431353)
(0.00976611 0.000527004 0.00434285)
(0.00989482 0.000941244 0.00438861)
(0.00982673 0.000271936 0.00441508)
(0.0100094 0.000850387 0.00445148)
(0.00995357 -0.000127463 0.00445147)
(0.0101657 0.000588697 0.00442128)
(0.0100939 -0.000680667 0.00428077)
(0.0102464 0.000162353 0.00400516)
(0.0100265 -0.00120628 0.00352415)
(0.00997776 -6.84712e-06 0.00288525)
(0.0100355 -0.000858807 0.00246976)
(0.0110664 -0.000367554 0.00248982)
(0.0120483 -0.00282118 0.00288862)
(0.0152909 -0.00690783 0.00442646)
(0.0156024 -0.0171493 0.00857289)
(0.0205988 -0.035068 0.00552852)
(0.0572327 -0.0618443 0.00169023)
(0.0774491 -0.0582197 0.0142694)
(0.0779188 -0.0740752 0.0373372)
(0.0518595 -0.0346262 0.0666308)
(0.0395889 -0.101258 0.0712747)
(0.0333282 -0.00243872 0.118106)
(0.0831489 -0.212551 0.130879)
(-0.176371 0.208094 -0.0212087)
(0.024881 -0.0621421 0.036442)
(0.103457 -0.160761 0.150753)
(0.039462 0.0711971 0.0412677)
(0.0177735 -0.0451366 0.0491762)
(0.00376596 0.0323898 -0.00934177)
(-0.0013846 0.00929417 0.0196971)
(-0.0201126 0.0183072 0.0229737)
(-0.0293669 0.0107881 0.0286566)
(-0.0366178 0.00568675 0.0220747)
(-0.0359429 0.0155106 0.00633926)
(-0.0303687 0.0385585 0.000166503)
(-0.0238633 0.0554153 0.00400584)
(-0.0164883 0.0623278 0.0103503)
(-0.0111589 0.0620929 0.0194829)
(-0.000814401 0.055502 0.0201308)
(0.0192227 0.0517727 0.0158366)
(0.029016 0.041784 0.00964199)
(0.0445939 0.0367252 0.00181656)
(0.0535456 0.0334732 -0.00696859)
(0.0562836 0.0358113 -0.0149378)
(0.0479116 0.03549 -0.0199491)
(0.0176671 0.0154858 -0.017447)
(-0.010415 0.00227317 -0.0203795)
(-0.0206909 0.0158818 -0.0228857)
(-0.0336909 0.0266013 -0.0142251)
(-0.0462084 0.0295959 -0.0121534)
(-0.0489923 0.0260256 -0.00999678)
(-0.0306615 0.0266032 -0.00999381)
(-0.0190804 0.0344234 -0.0198464)
(-0.00962154 0.0493304 -0.0130068)
(-0.012327 0.0537093 0.00481237)
(-0.0217624 0.046407 0.0201531)
(-0.0290806 0.0317371 0.028559)
(-0.0260913 0.0125535 0.0258989)
(-0.0170354 -0.000351032 0.015353)
(-0.0130054 -0.00474086 0.00831795)
(-0.0119479 -0.00242854 0.00481767)
(0.016666 0.0173728 0.00666419)
(0.0237068 0.0140427 0.00807369)
(0.00936715 0.00642218 0.00493323)
(0.012927 0.0099538 0.00346215)
(0.00797966 0.00469156 0.00370533)
(0.00886717 0.00663394 0.00292224)
(0.00749479 0.00450678 0.00340824)
(0.00805097 0.00533712 0.00349216)
(0.00772341 0.00431764 0.0039048)
(0.00820584 0.00447796 0.00425076)
(0.00800843 0.00354961 0.00446002)
(0.00833077 0.00346956 0.00460424)
(0.0081086 0.00267883 0.00464947)
(0.0083135 0.00257778 0.0046852)
(0.00809862 0.00200641 0.00466886)
(0.00821335 0.0019474 0.00468416)
(0.00804637 0.00157505 0.00466391)
(0.00808769 0.00155235 0.00468533)
(0.00796982 0.00132669 0.0046846)
(0.00796383 0.00130999 0.00471638)
(0.00788606 0.00119123 0.00472635)
(0.00785784 0.00117083 0.00476073)
(0.00780543 0.00111626 0.00478364)
(0.00776634 0.00109667 0.00481692)
(0.00772333 0.00107297 0.00484896)
(0.0076832 0.00105945 0.00488559)
(0.0076436 0.00104893 0.00492227)
(0.00760511 0.00103949 0.0049586)
(0.00756864 0.00104111 0.0049948)
(0.00753018 0.00101335 0.00502839)
(0.00751422 0.0010582 0.00506174)
(0.00746399 0.000971045 0.00509644)
(0.00748171 0.00109533 0.00513694)
(0.00741369 0.000893369 0.00517376)
(0.00748524 0.00114168 0.00521571)
(0.00740745 0.000766061 0.0052579)
(0.00755307 0.00116812 0.00529999)
(0.00748783 0.000549534 0.00534709)
(0.00773478 0.0011149 0.00536647)
(0.00771884 0.000186994 0.00539043)
(0.008091 0.00089699 0.005285)
(0.0081531 -0.000348013 0.00511987)
(0.0085977 0.000415039 0.00463116)
(0.0084522 -0.00113289 0.00399229)
(0.00833899 -0.000245915 0.00316924)
(0.00853653 -0.00140916 0.00284331)
(0.00991929 -0.0017417 0.00319592)
(0.0123017 -0.00497309 0.00406621)
(0.0176528 -0.0095232 0.00768756)
(0.0247811 -0.023185 0.0137322)
(0.0390817 -0.0465469 0.00643011)
(0.071625 -0.0593183 0.0167873)
(0.069607 -0.0502534 0.0224713)
(0.0468667 -0.0658725 0.0318819)
(0.00549362 -0.0201234 0.0690956)
(0.0303297 -0.0834405 0.0891561)
(0.0238555 0.0652751 0.127073)
(0.0423141 -0.0368444 0.0609242)
(-0.0727241 0.433911 -0.00434175)
(0.0215767 -0.129694 0.0454642)
(0.068694 -0.127847 0.169311)
(0.0166328 0.0777774 0.0459813)
(0.0171445 -0.00356723 0.0429747)
(-0.000161913 0.0594516 0.00759566)
(0.00166132 0.0529274 0.0246226)
(-0.0058865 0.0594322 0.0289551)
(-0.014955 0.0546437 0.0303322)
(-0.0336686 0.0510917 0.0191295)
(-0.0409139 0.0566493 0.011868)
(-0.0384663 0.0668054 0.0123302)
(-0.0312217 0.0780167 0.0203409)
(-0.0210007 0.0752282 0.0259019)
(-0.0077389 0.0724923 0.027272)
(0.00558609 0.0513144 0.021203)
(0.0260367 0.0478362 0.0178884)
(0.0401237 0.0387778 0.0115151)
(0.0546739 0.0375123 0.00633289)
(0.065426 0.0407172 -0.00299696)
(0.0717573 0.05017 -0.0108459)
(0.0716714 0.0661019 -0.0169998)
(0.057009 0.0748814 -0.0192821)
(0.0324115 0.0689814 -0.0197609)
(0.0151003 0.0609972 -0.0222435)
(0.00232939 0.0594754 -0.0233683)
(-0.00763704 0.0543361 -0.0235072)
(-0.0110961 0.048736 -0.0257803)
(-0.00460363 0.0459091 -0.0265969)
(-0.000377017 0.0499351 -0.0243361)
(-0.00182054 0.0552 -0.0109347)
(-0.00896892 0.052254 0.00684624)
(-0.0220979 0.043417 0.0191956)
(-0.0348869 0.0284867 0.0239985)
(-0.0368997 0.0111943 0.0195523)
(-0.0292122 -0.000594953 0.0111234)
(-0.0237545 -0.00325201 0.00616592)
(-0.0231224 -0.00164596 0.00431241)
(0.0132596 0.0154964 0.00619692)
(0.0244249 0.0158866 0.00833228)
(0.00682442 0.00560605 0.00392539)
(0.0131175 0.0123757 0.00190597)
(0.00727679 0.00459766 0.00213838)
(0.008603 0.00751051 0.000698101)
(0.00644362 0.0040065 0.00156556)
(0.00687414 0.0054066 0.00175798)
(0.00622638 0.00401044 0.00268959)
(0.00652726 0.00453013 0.00341792)
(0.0061848 0.00351944 0.00401155)
(0.00631939 0.00363673 0.00443477)
(0.00598879 0.00274893 0.00468988)
(0.00603049 0.00276291 0.00486562)
(0.00574716 0.00212061 0.00496982)
(0.00576839 0.00212278 0.00505039)
(0.00555747 0.00171062 0.00509789)
(0.00556184 0.00172008 0.00515139)
(0.00542724 0.00147028 0.0051845)
(0.0054116 0.00148131 0.00523171)
(0.00532943 0.00135011 0.00525675)
(0.00530516 0.00134232 0.00529453)
(0.00525884 0.00128351 0.00531549)
(0.00523042 0.00126883 0.00534206)
(0.00519947 0.00124486 0.00536114)
(0.00517145 0.00123369 0.00537823)
(0.00514391 0.00122595 0.00539295)
(0.00511915 0.00122132 0.00540968)
(0.0050965 0.00122512 0.00542583)
(0.00507198 0.00120871 0.00544116)
(0.00506761 0.00125049 0.00545658)
(0.00503794 0.00118038 0.00546562)
(0.00506568 0.00129748 0.00547979)
(0.00502318 0.00113143 0.00548727)
(0.0051077 0.00137137 0.00549642)
(0.00506704 0.00105761 0.00550705)
(0.00523692 0.00145578 0.00550203)
(0.00523032 0.000949222 0.00550723)
(0.00553771 0.00154018 0.00544414)
(0.00562271 0.000817463 0.00538523)
(0.00611149 0.00165188 0.00510822)
(0.00635588 0.00072036 0.00475317)
(0.00705668 0.00161526 0.00395712)
(0.00716539 -0.000223739 0.00319415)
(0.00709354 -0.000206306 0.00268855)
(0.00742362 -0.00246513 0.0030391)
(0.00912302 -0.00340239 0.00448995)
(0.010891 -0.00797997 0.00655174)
(0.0185681 -0.010199 0.0124159)
(0.0269332 -0.026162 0.0195227)
(0.0499003 -0.0387816 0.0296459)
(0.0523852 -0.0271342 0.0323107)
(0.0516454 0.00430641 0.0406658)
(0.0321767 -0.0199378 0.0489302)
(-0.038528 -0.0100837 0.0727709)
(-0.0323796 -0.117943 0.0920076)
(-0.0387487 0.016847 0.103653)
(-0.00460197 -0.226696 0.0640761)
(0.0843548 0.416257 0.0892883)
(-0.0102537 -0.125179 0.0421566)
(-0.0249474 -0.11003 0.177626)
(-0.028189 0.0742269 0.0320575)
(-0.0303939 0.0132295 0.0288123)
(-0.0248699 0.0738908 0.00125189)
(-0.0336883 0.0662902 0.0158727)
(-0.0319709 0.076917 0.0221572)
(-0.0366841 0.0790564 0.023808)
(-0.0445999 0.0776696 0.0192149)
(-0.0470888 0.0795076 0.0174044)
(-0.0438114 0.0780271 0.0168676)
(-0.0348773 0.0786042 0.0207564)
(-0.0187894 0.0728966 0.0208908)
(0.000480865 0.0649737 0.0181207)
(0.0174132 0.054004 0.0117295)
(0.0352008 0.0484818 0.00906308)
(0.0453397 0.044508 0.00608375)
(0.0570545 0.0451998 0.00226019)
(0.0637292 0.0494216 -0.00350409)
(0.0652785 0.0612201 -0.00242642)
(0.0663924 0.0751461 0.0045927)
(0.0646539 0.0839965 0.00461377)
(0.0543219 0.087538 -0.00278263)
(0.0362955 0.078851 -0.00895645)
(0.0282788 0.0719677 -0.0170276)
(0.0231472 0.0659912 -0.0214822)
(0.0196511 0.0606397 -0.0242544)
(0.0174762 0.0570759 -0.0230115)
(0.0103668 0.0563958 -0.0162608)
(0.00121051 0.0532059 -0.00317945)
(-0.0116672 0.0488767 0.0088418)
(-0.0275109 0.0403633 0.0169441)
(-0.0400004 0.0267009 0.018984)
(-0.0402146 0.0104363 0.0159003)
(-0.0330058 -0.00065266 0.0107599)
(-0.0283024 -0.00349506 0.0064879)
(-0.026632 -0.00146121 0.00394836)
(0.00783363 0.0119399 0.00741142)
(0.0240825 0.0188443 0.00828174)
(0.00378188 0.00492704 0.00184371)
(0.0131688 0.0156702 0.000378402)
(0.0070888 0.0046889 3.80847e-05)
(0.00903246 0.00866059 -0.00123024)
(0.00600625 0.0033351 -0.000302202)
(0.00613269 0.00512825 -0.000204976)
(0.00466331 0.00307997 0.000847105)
(0.00460374 0.00399391 0.0019288)
(0.0038639 0.00298243 0.00282644)
(0.00379067 0.0033247 0.00357437)
(0.00322634 0.00246265 0.00398625)
(0.00302342 0.00264512 0.00432811)
(0.00256807 0.00202118 0.00449508)
(0.00240201 0.00213941 0.00464855)
(0.00206855 0.00173422 0.00471716)
(0.00195387 0.00181764 0.0048011)
(0.00172486 0.0015715 0.00483269)
(0.00162974 0.00162207 0.00488467)
(0.00149224 0.00149253 0.00490899)
(0.00141929 0.00150536 0.0049426)
(0.00133368 0.00145032 0.0049534)
(0.00127567 0.00144509 0.00496867)
(0.00122146 0.00142596 0.00497362)
(0.0011791 0.00141844 0.00497687)
(0.00114393 0.00141058 0.00497562)
(0.0011139 0.00140561 0.00497068)
(0.00109001 0.00140896 0.00496367)
(0.00107068 0.00139721 0.00495687)
(0.00106606 0.00143935 0.00494851)
(0.00104983 0.00138718 0.00493526)
(0.00107966 0.00150224 0.00492811)
(0.00105587 0.00137202 0.00490873)
(0.00114436 0.00161336 0.00489271)
(0.00113081 0.00136781 0.00486501)
(0.00131715 0.00178842 0.0048238)
(0.00134705 0.0014179 0.0047538)
(0.0016946 0.00208976 0.00462447)
(0.00182276 0.00161029 0.00443702)
(0.00244492 0.00264231 0.00408442)
(0.00294352 0.00201802 0.00353961)
(0.00437052 0.00310442 0.00290342)
(0.00536007 0.00106335 0.00231574)
(0.00554906 0.000392604 0.00259536)
(0.00555306 -0.00272345 0.00415582)
(0.00596923 -0.00390653 0.00659061)
(0.0064674 -0.00750495 0.01051)
(0.0117769 -0.0106358 0.0194727)
(0.022338 -0.0167933 0.0321398)
(0.0210274 -0.00607539 0.0420274)
(0.023524 0.0177408 0.0471137)
(0.0365317 0.0435221 0.0693225)
(0.0362609 0.0325261 0.0919699)
(0.0232578 0.0467258 0.108523)
(-0.00154146 -0.113845 0.101298)
(-0.0224417 0.0453317 0.0685843)
(-0.078314 -0.129532 0.0514202)
(-0.123073 0.390751 0.0714027)
(-0.0143908 -0.110022 0.049311)
(-0.0668565 -0.146569 0.174763)
(-0.0500766 0.0519801 0.0613733)
(-0.0523797 -0.040754 0.0430703)
(-0.0284111 0.0583625 -0.0160694)
(-0.0406562 0.047361 0.0172962)
(-0.0362118 0.0660607 0.0213926)
(-0.042975 0.0685868 0.0220099)
(-0.0502914 0.0673013 0.0172979)
(-0.0508983 0.068542 0.0159044)
(-0.0418784 0.0671033 0.0157666)
(-0.0317661 0.0633121 0.0204708)
(-0.0101958 0.0568777 0.0195383)
(0.0132335 0.0476638 0.015808)
(0.0313293 0.0431024 0.00370764)
(0.0434542 0.0389886 -0.00139674)
(0.0509559 0.0380231 0.00197137)
(0.0556471 0.0406772 0.00102)
(0.0577056 0.0472657 -0.00213829)
(0.0591927 0.0636449 0.00140025)
(0.0601477 0.0773802 0.0127763)
(0.0620217 0.0806118 0.0203464)
(0.0631664 0.0802751 0.0235037)
(0.0616034 0.0691316 0.0213899)
(0.0512207 0.0604293 0.00705253)
(0.037823 0.0572878 -0.0103971)
(0.0290256 0.0570518 -0.0210938)
(0.0205768 0.05847 -0.0225712)
(0.0109153 0.058558 -0.0120201)
(-0.00237658 0.0537326 0.000568206)
(-0.0173601 0.0488472 0.00985597)
(-0.0308251 0.0401321 0.015024)
(-0.0406907 0.0270898 0.0167042)
(-0.0421688 0.0132006 0.0146667)
(-0.0397555 0.0042421 0.0101599)
(-0.0382463 0.000930814 0.00456683)
(-0.0388949 -0.000410512 0.000598689)
(-0.00044861 0.00362882 0.00325546)
(0.0200452 0.0239726 0.00816022)
(0.00148239 0.00433062 -0.000934881)
(0.012882 0.0199501 0.000347249)
(0.00820021 0.00556794 -0.000959753)
(0.0100997 0.010222 -0.00082119)
(0.00670675 0.00316445 -0.000149851)
(0.00638306 0.00503299 -0.000185626)
(0.00439377 0.00200702 0.000794304)
(0.00397346 0.003172 0.00201573)
(0.00287164 0.00208835 0.00291219)
(0.00265455 0.00262828 0.00375264)
(0.00173283 0.00173947 0.00412166)
(0.00141495 0.00208323 0.00456578)
(0.000816599 0.00155642 0.00474093)
(0.00060665 0.00184792 0.00495743)
(0.000210304 0.0015258 0.00503902)
(9.84015e-05 0.0017352 0.00516292)
(-0.0001391 0.00155326 0.00521715)
(-0.0001981 0.00169672 0.0053)
(-0.000304439 0.00161466 0.0053436)
(-0.000328301 0.00169135 0.00540083)
(-0.000364755 0.00167378 0.00543142)
(-0.000365222 0.00170576 0.00547017)
(-0.000361623 0.00171459 0.00549864)
(-0.000343518 0.00173391 0.00552725)
(-0.000318093 0.00174915 0.00555182)
(-0.000285798 0.0017621 0.00557561)
(-0.000248991 0.00177819 0.0055975)
(-0.000210613 0.0017835 0.00561999)
(-0.000162403 0.00183145 0.00563956)
(-0.000117852 0.00180751 0.00565759)
(-4.00752e-05 0.0019248 0.00567818)
(-5.88319e-06 0.00184722 0.00569043)
(0.000132202 0.0020919 0.00571138)
(0.00016883 0.00194658 0.00570856)
(0.000400412 0.00239079 0.00570663)
(0.000471045 0.00218973 0.00564864)
(0.000887954 0.0028901 0.00556893)
(0.00108635 0.00266025 0.00535446)
(0.00185038 0.00375289 0.00503581)
(0.00254208 0.00329548 0.00439998)
(0.00429491 0.00427112 0.0039755)
(0.00554011 0.00209838 0.00368808)
(0.00502823 0.000858049 0.0048504)
(0.00297713 -0.00318203 0.00739327)
(0.00107533 -0.00473427 0.0104311)
(-0.00212991 -0.0090348 0.0147842)
(-0.00284428 -0.0128569 0.0260845)
(-0.00661314 -0.0155947 0.0428267)
(-0.00849555 -0.00149778 0.0463291)
(-0.00187715 0.0309911 0.037285)
(0.0179592 0.0744852 0.0523227)
(0.0360099 0.0949927 0.075775)
(0.0316564 0.0968497 0.101272)
(0.00821108 0.0552872 0.114683)
(-0.0198531 0.134924 0.165941)
(-0.0918669 -0.124455 0.0890968)
(0.0574963 0.396858 0.0316542)
(-0.0326021 -0.12925 0.0445205)
(-0.107375 -0.152751 0.161639)
(-0.0605704 0.101188 0.0228012)
(-0.0609508 -0.0506369 0.0323803)
(-0.0576392 0.0615084 -0.0460303)
(-0.0719674 0.00875199 -0.0048512)
(-0.0554224 0.0415397 0.00647248)
(-0.0473466 0.040492 0.029416)
(-0.0443357 0.0449543 0.0253492)
(-0.0428033 0.0387914 0.018498)
(-0.0320561 0.0337761 0.015946)
(-0.0211151 0.0284445 0.0131689)
(-0.00490108 0.0291776 0.00805525)
(0.012829 0.0297978 -0.00611009)
(0.026888 0.0355998 -0.0174353)
(0.0447011 0.0410747 -0.0100651)
(0.0570991 0.0363834 0.00363344)
(0.0619064 0.0277759 0.00735818)
(0.0538564 0.0219749 0.00295355)
(0.0433612 0.0263174 -0.00113873)
(0.0538856 0.0442049 0.00987074)
(0.0696869 0.0522896 0.0194047)
(0.0760441 0.0570241 0.0231351)
(0.073368 0.0558212 0.0244651)
(0.0653236 0.0525061 0.0215264)
(0.0532912 0.0504691 0.0169607)
(0.0415269 0.0498053 0.0150725)
(0.0282076 0.0499432 0.0156847)
(0.0138863 0.0500709 0.0166402)
(0.00223908 0.0470847 0.0153828)
(-0.0108326 0.0412489 0.0173821)
(-0.0219327 0.0342151 0.0207589)
(-0.0292831 0.0221202 0.0214852)
(-0.031559 0.0093671 0.0176931)
(-0.0322764 0.00133945 0.0102184)
(-0.0346154 -0.00515223 -0.00671459)
(-0.0383106 -0.000999724 -0.0504205)
(-0.0101716 0.00852085 -0.00643374)
(0.0153355 0.0294347 0.00444165)
(-0.00189662 0.00549543 -0.00559543)
(0.0103856 0.023188 -0.00047746)
(0.00837049 0.00611315 -0.00291704)
(0.00905288 0.011227 -0.00224123)
(0.00604572 0.003235 -0.00276607)
(0.00500577 0.00484352 -0.00340493)
(0.00288811 0.000788386 -0.0029682)
(0.00167778 0.00209292 -0.00162216)
(0.000379397 0.00119958 -0.000526861)
(-4.9313e-05 0.00206309 0.000578965)
(-0.00113648 0.00140823 0.00104581)
(-0.00167015 0.00195565 0.0015266)
(-0.00240482 0.00151637 0.00172044)
(-0.00276023 0.00187659 0.00196387)
(-0.00323104 0.00161494 0.00206734)
(-0.00341977 0.00187134 0.00220353)
(-0.00370033 0.00171927 0.00227132)
(-0.00380561 0.00188609 0.00235871)
(-0.00394667 0.0018217 0.0024146)
(-0.00400879 0.00191351 0.00248133)
(-0.00407366 0.00190922 0.0025252)
(-0.00410517 0.00194936 0.00257618)
(-0.00413014 0.00196532 0.00261742)
(-0.00414113 0.00198869 0.00265895)
(-0.0041442 0.00200953 0.00269707)
(-0.00413998 0.00202917 0.00273301)
(-0.00413283 0.0020556 0.00276558)
(-0.00412058 0.00206834 0.00279659)
(-0.0041058 0.0021115 0.00282238)
(-0.00408134 0.00209675 0.00285387)
(-0.00404456 0.00221279 0.00287664)
(-0.00403637 0.00215665 0.00289859)
(-0.0039591 0.00240212 0.0029107)
(-0.00395445 0.00230169 0.0029181)
(-0.00380503 0.00274931 0.00290454)
(-0.00380002 0.00265102 0.00286325)
(-0.00354041 0.00345425 0.00276179)
(-0.00341548 0.00346637 0.00254457)
(-0.00277866 0.00472446 0.00222882)
(-0.00196058 0.00450944 0.00174412)
(-2.7466e-05 0.00536508 0.00177822)
(0.00166355 0.00256103 0.00277259)
(0.000741418 -0.000302473 0.00434263)
(-0.00246576 -0.00647346 0.00509566)
(-0.00463454 -0.0100231 0.00737364)
(-0.00719087 -0.017078 0.0100151)
(-0.0160322 -0.0221587 0.00947067)
(-0.0223942 -0.0281979 0.0143227)
(-0.0308546 -0.0247288 0.0184226)
(-0.0339319 -0.0184356 0.0121863)
(-0.0295607 0.0223005 0.00701728)
(-0.0073142 0.0486634 0.0496942)
(0.000185299 0.0704158 0.076268)
(0.0178714 -0.0265782 0.0683834)
(0.0958747 0.0969763 0.136034)
(-0.055223 -0.215954 0.176558)
(0.0613071 0.204717 0.0773165)
(-0.0389193 -0.0558247 0.0231355)
(-0.131639 -0.20641 0.154291)
(-0.0726571 0.103319 0.0264708)
(-0.0643245 -0.0785035 0.024481)
(-0.0564647 0.058802 -0.0459294)
(-0.0666732 -0.0347298 -0.00626025)
(-0.0634853 -0.0046554 -0.0246101)
(-0.0668703 -0.014768 -9.47522e-05)
(-0.0481449 -0.0179922 0.0114805)
(-0.0328737 -0.0256464 0.00948482)
(-0.0246024 -0.0248974 0.0046677)
(-0.0208502 -0.0189822 0.000135601)
(-0.0144624 -0.00717945 -0.00638075)
(-0.00296586 0.00949976 -0.0162203)
(0.011582 0.0306972 -0.0223711)
(0.0369186 0.0421619 -0.00546361)
(0.062323 0.0343746 0.0139734)
(0.0779507 0.0181337 0.0123776)
(0.0810269 -0.00250758 -1.47263e-05)
(0.0622318 -0.0219253 -0.0134817)
(0.0453992 -0.0277442 -0.0196525)