/*--------------------------------*- C++ -*----------------------------------*\
| =========                 |                                                 |
| \\      /  F ield         | OpenFOAM: The Open Source CFD Toolbox           |
|  \\    /   O peration     | Version:  2.3.0                                 |
|   \\  /    A nd           | Web:      www.OpenFOAM.org                      |
|    \\/     M anipulation  |                                                 |
\*---------------------------------------------------------------------------*/
FoamFile
{
    version     2.0;
    format      ascii;
    class       volVectorField;
    location    "7";
    object      U.airMean;
}
// * * * * * * * * * * * * * * * * * * * * * * * * * * * * * * * * * * * * * //

dimensions      [0 1 -1 0 0 0 0];

internalField   nonuniform List<vector> 
6144
(
(0.00543162 0.0208168 -0.00122714)
(0.00538429 0.0102582 -0.00158589)
(0.00429446 0.0086859 -0.00244563)
(0.00436448 0.00640453 -0.00253024)
(0.00372689 0.00541976 -0.00265927)
(0.00388007 0.00473765 -0.00270557)
(0.00355474 0.00413799 -0.00272849)
(0.00369899 0.00381017 -0.00275098)
(0.00351611 0.00332538 -0.00277078)
(0.00360848 0.00308123 -0.00279233)
(0.00349713 0.00268192 -0.00281977)
(0.00354092 0.0024743 -0.00283432)
(0.00347298 0.00216499 -0.00285479)
(0.00348457 0.0019912 -0.00286328)
(0.00344316 0.00176816 -0.00287593)
(0.00343791 0.0016278 -0.00288065)
(0.00341376 0.00147506 -0.00288764)
(0.00340265 0.0013666 -0.00289049)
(0.00338735 0.0012644 -0.00289397)
(0.00337632 0.00118463 -0.00289575)
(0.00336555 0.0011157 -0.00289742)
(0.00335651 0.00105941 -0.00289846)
(0.00334847 0.00101222 -0.00289925)
(0.00334147 0.000973001 -0.00289981)
(0.00333531 0.00094013 -0.0029002)
(0.00332987 0.000912423 -0.00290047)
(0.00332498 0.00088881 -0.00290067)
(0.00332059 0.000868315 -0.00290082)
(0.00331665 0.000850085 -0.00290093)
(0.00331319 0.000833783 -0.00290106)
(0.00331023 0.000819145 -0.00290112)
(0.00330748 0.000801485 -0.00290089)
(0.00330558 0.000796278 -0.00290072)
(0.00330131 0.000753186 -0.00289991)
(0.00330271 0.000799857 -0.0029002)
(0.00329658 0.000658045 -0.00289906)
(0.00329951 0.000852251 -0.00289972)
(0.00329879 0.000484633 -0.00289834)
(0.00328887 0.000978905 -0.00289766)
(0.00330886 0.000200279 -0.00289782)
(0.00327445 0.00119752 -0.00289158)
(0.00331637 -0.00021422 -0.00289446)
(0.0032538 0.00152759 -0.00287593)
(0.00331143 -0.00076347 -0.00288498)
(0.00320708 0.00202306 -0.00285297)
(0.00326044 -0.00141103 -0.00286002)
(0.0031046 0.00286447 -0.0028182)
(0.00311547 -0.00203578 -0.00282268)
(0.00283702 0.00451151 -0.00282013)
(0.00280202 -0.00212717 -0.00292619)
(0.00240326 0.00852102 -0.00309251)
(0.00258125 -0.00038905 -0.00360056)
(0.00271952 0.0172599 -0.00393442)
(0.00390979 -0.00216342 -0.00498036)
(0.00447273 0.0305942 -0.00462267)
(0.00291745 -0.0193789 -0.00601279)
(0.0137325 0.0532765 0.00299493)
(0.0241885 -0.072619 -0.0135185)
(-0.0413799 0.0979399 -0.0933644)
(0.0227551 0.0219215 -0.0900024)
(0.0682434 0.360312 -0.00277816)
(0.0422871 0.403051 -0.00186956)
(0.0233646 -0.012812 -0.00321243)
(0.0280888 -0.0319072 -0.00320621)
(0.0233161 -0.0625727 -0.00388761)
(0.0132913 -0.0420781 -0.000545992)
(0.0092518 -0.0597535 0.000347819)
(0.00575797 -0.0454799 0.00018463)
(0.00380157 -0.0524458 -0.000128928)
(0.00221933 -0.0399846 -0.000518686)
(0.00120862 -0.0426862 -0.00100205)
(0.000598798 -0.0322626 -0.00145697)
(0.00044482 -0.0317419 -0.00193268)
(0.000559993 -0.0239688 -0.00236404)
(0.000918097 -0.0219885 -0.0027422)
(0.00132039 -0.0162384 -0.0030419)
(0.00174576 -0.0138118 -0.00331957)
(0.00213442 -0.00952593 -0.00349876)
(0.00248404 -0.00611512 -0.00368494)
(0.00279233 -0.00296828 -0.0037996)
(0.00303577 0.000308634 -0.00380315)
(0.00322242 0.00353945 -0.0038876)
(0.00344374 0.00642257 -0.00370195)
(0.00375274 0.00919978 -0.00313077)
(0.00399296 0.0102887 -0.00296557)
(0.00413537 0.0108453 -0.00333489)
(0.00427062 0.0110375 -0.00378454)
(0.00440183 0.0113666 -0.00407)
(0.00446991 0.0120519 -0.00419675)
(0.00446303 0.013284 -0.00428506)
(0.00446111 0.0141495 -0.00429727)
(0.00445101 0.0151649 -0.00425881)
(0.00442559 0.0162312 -0.00421458)
(0.00436127 0.0170801 -0.00418205)
(0.00431496 0.0198182 -0.00416189)
(0.00423567 0.0217504 -0.00414238)
(0.0122688 0.0223984 0.00229543)
(0.0125775 0.0111185 0.00164744)
(0.00923833 0.0095157 -0.000211372)
(0.00965781 0.00748558 -0.000368215)
(0.00796744 0.00644514 -0.000770391)
(0.00851271 0.00595488 -0.000751831)
(0.00765325 0.00515408 -0.000881897)
(0.00811076 0.00487792 -0.000831195)
(0.00759724 0.00421157 -0.000916462)
(0.00789673 0.00395945 -0.000876902)
(0.00756217 0.00341752 -0.000942709)
(0.00772164 0.00317873 -0.000920798)
(0.00750029 0.00276738 -0.000965058)
(0.00755648 0.00255933 -0.000953913)
(0.00741781 0.00226967 -0.000981405)
(0.00741383 0.00210389 -0.000976307)
(0.0073312 0.0019085 -0.000990802)
(0.0073017 0.00178076 -0.000989844)
(0.00725062 0.00165276 -0.000995301)
(0.00721707 0.00155803 -0.000995341)
(0.00718175 0.00147366 -0.000996364)
(0.00715259 0.00140624 -0.000995734)
(0.00712593 0.0013493 -0.000994743)
(0.00710247 0.00130232 -0.000993124)
(0.00708144 0.00126305 -0.000991112)
(0.00706263 0.00123009 -0.000988726)
(0.00704566 0.0012022 -0.000986018)
(0.0070303 0.00117844 -0.000983073)
(0.00701634 0.00115783 -0.000979947)
(0.00700369 0.00113927 -0.000976659)
(0.0069923 0.00112252 -0.000972912)
(0.00698169 0.00110387 -0.000968556)
(0.00697298 0.00109502 -0.000963685)
(0.00696089 0.00105465 -0.000958583)
(0.00695844 0.00109972 -0.000953322)
(0.00694393 0.000951756 -0.000947923)
(0.00694366 0.00116879 -0.000942636)
(0.00693785 0.000751932 -0.000935646)
(0.00691717 0.00133141 -0.000932479)
(0.00694711 0.000425552 -0.000919498)
(0.00686976 0.00160343 -0.000924874)
(0.00695824 -5.05052e-05 -0.000895676)
(0.00678655 0.00200867 -0.000915049)
(0.00692955 -0.000683283 -0.000868458)
(0.00662631 0.00258827 -0.000901988)
(0.00675535 -0.0014366 -0.000846591)
(0.00629021 0.00351453 -0.000894821)
(0.00625656 -0.00215377 -0.000868648)
(0.00547989 0.00539197 -0.000951084)
(0.00492877 -0.00195481 -0.00121957)
(0.00372589 0.0106122 -0.00155626)
(0.00428513 0.00144653 -0.00215763)
(0.00435143 0.0215013 -0.0023053)
(0.00944878 -0.00127846 -0.00240449)
(0.0117157 0.0334887 0.000292827)
(0.0191831 -0.0250033 -0.00148687)
(-0.00226664 0.0388038 0.00939961)
(0.00736083 -0.0228799 -0.01265)
(0.0277115 0.185055 -0.0222516)
(0.108777 -0.00284211 -0.0524197)
(0.0724937 0.352076 0.00947124)
(0.0140908 0.444557 0.00665515)
(-0.00777187 -0.0274768 0.00712708)
(0.000287692 0.0158963 0.0061061)
(-0.00473538 -0.0155395 0.00615414)
(-0.0118714 -0.0087943 0.00789284)
(-0.0123498 -0.0254394 0.00680042)
(-0.0124012 -0.0155028 0.0058759)
(-0.0110375 -0.0264306 0.00469624)
(-0.00988382 -0.0180203 0.00362776)
(-0.0084439 -0.0239576 0.00251037)
(-0.00710156 -0.0165367 0.00158819)
(-0.00553015 -0.0187662 0.00076111)
(-0.00410876 -0.0129583 9.86365e-05)
(-0.00264989 -0.0128819 -0.000444123)
(-0.00144694 -0.00892065 -0.000804417)
(-0.000305532 -0.00733804 -0.00101601)
(0.000653125 -0.00420896 -0.00108903)
(0.00141432 -0.00208842 -0.00112911)
(0.00200113 0.000505629 -0.00105279)
(0.00239952 0.00303284 -0.00092431)
(0.00255193 0.00523204 -0.000871566)
(0.00277603 0.00710974 -0.000529574)
(0.00340053 0.00976966 4.85503e-05)
(0.00400312 0.0104911 0.000184728)
(0.00439779 0.0111319 1.99669e-05)
(0.00472501 0.0115162 -0.000167311)
(0.00498312 0.0116697 -0.000378324)
(0.00509089 0.0121091 -0.000679944)
(0.00504759 0.0129399 -0.00101341)
(0.00493881 0.014025 -0.00125504)
(0.0048817 0.0148697 -0.0014285)
(0.00489825 0.0156907 -0.00152894)
(0.00486657 0.0173572 -0.00163791)
(0.00482481 0.0196078 -0.00173303)
(0.00476394 0.0219568 -0.00193915)
(0.0148332 0.0214542 0.00440368)
(0.0158975 0.0102573 0.00379354)
(0.0107109 0.00832498 0.0013364)
(0.0118475 0.00719686 0.00131938)
(0.00927465 0.00593454 0.000792059)
(0.0103755 0.00588876 0.000933388)
(0.00901134 0.0049343 0.000727437)
(0.00982533 0.00487549 0.000882311)
(0.00899272 0.00406629 0.000722131)
(0.00949916 0.00393813 0.000829604)
(0.0089543 0.0032881 0.000699828)
(0.00920719 0.00313672 0.000764516)
(0.00885449 0.00266412 0.000674322)
(0.00893955 0.00251512 0.000710212)
(0.00871826 0.00219392 0.000658244)
(0.00871236 0.00205749 0.000676784)
(0.00857817 0.00185318 0.000651183)
(0.00853255 0.00174186 0.000660279)
(0.00844912 0.00161429 0.00065225)
(0.00839569 0.00152933 0.000658101)
(0.00833767 0.00144891 0.000659805)
(0.00828981 0.00138755 0.00066609)
(0.00824518 0.0013349 0.000672474)
(0.00820538 0.00129212 0.000680362)
(0.00816907 0.00125638 0.000688979)
(0.00813602 0.00122668 0.000698352)
(0.00810575 0.00120159 0.000708235)
(0.00807781 0.00118003 0.000718511)
(0.0080519 0.00116121 0.000729116)
(0.00802778 0.00114425 0.000739978)
(0.00800507 0.00112898 0.000750682)
(0.00798372 0.00111244 0.000761373)
(0.00796382 0.00110488 0.00077216)
(0.00794344 0.0010664 0.000782661)
(0.00792875 0.00111226 0.000793587)
(0.00790931 0.000963785 0.000803227)
(0.00789406 0.00118709 0.000814468)
(0.00788552 0.000758278 0.000824771)
(0.00785103 0.0013606 0.000835435)
(0.00787969 0.000416228 0.000850049)
(0.00778098 0.00164479 0.000854088)
(0.00788649 -9.31981e-05 0.000887742)
(0.00766532 0.00205078 0.000873173)
(0.0078523 -0.000799848 0.000931384)
(0.00745414 0.00258941 0.000896814)
(0.00763504 -0.0017171 0.000966241)
(0.00699001 0.00335829 0.000900542)
(0.00688164 -0.00277932 0.000902266)
(0.00568855 0.00485992 0.000717248)
(0.00452895 -0.00321749 0.000278241)
(0.00316698 0.00947174 -0.000198244)
(0.00311318 -0.00193531 -0.000513663)
(0.00629947 0.0188403 0.000366499)
(0.0102405 -0.0125633 -0.00121977)
(0.0152847 0.031769 0.00514505)
(0.0206368 -0.0399958 0.0030998)
(-0.0314712 0.0630795 0.0271271)
(-0.0389298 -0.105554 -0.00113662)
(-0.0342923 0.18623 -0.0485941)
(0.126805 -0.00893095 -0.0236418)
(0.131649 0.330267 0.0141027)
(0.0578737 0.403759 -0.000671525)
(0.0529956 -0.0148042 0.00691711)
(0.0213668 0.0443348 0.0101949)
(0.00120954 0.00408911 0.00931208)
(-0.00357997 0.013293 0.00824697)
(-0.00724495 -0.00296182 0.00521564)
(-0.00991366 0.00679375 0.00390437)
(-0.010336 -0.00394809 0.00214396)
(-0.0102949 0.00415358 0.00129425)
(-0.00920541 -0.00226935 0.000548365)
(-0.0079769 0.00442971 5.22278e-05)
(-0.00599319 0.00183208 -0.000473797)
(-0.00384522 0.00639899 -0.000797177)
(-0.00197788 0.00545639 -0.000891246)
(-0.000821999 0.00820596 -0.000786429)
(9.58492e-05 0.00869877 -0.000601291)
(0.000664961 0.0106892 -0.00037356)
(0.0010708 0.0119989 -0.000199089)
(0.0013465 0.0134434 7.98567e-05)
(0.00160061 0.014429 0.000495424)
(0.00192418 0.0149653 0.00093466)
(0.00240999 0.0147163 0.00137614)
(0.00299107 0.0142899 0.00172595)
(0.00334043 0.0139218 0.00191511)
(0.00347075 0.0132 0.0020082)
(0.00358389 0.0128817 0.0019878)
(0.00379542 0.0128684 0.00185066)
(0.00398752 0.012748 0.00162813)
(0.00410273 0.0133616 0.00139518)
(0.00410323 0.0143339 0.00111238)
(0.00398295 0.015256 0.000851386)
(0.00384898 0.0158465 0.000675609)
(0.00356556 0.0175176 0.000471892)
(0.00336243 0.0202122 0.000232499)
(0.00325401 0.0217103 -0.000225215)
(0.015552 0.020536 0.00545702)
(0.0178931 0.0100667 0.00524805)
(0.0102829 0.00734728 0.00218409)
(0.012673 0.00738896 0.00221426)
(0.00906528 0.00552443 0.00171295)
(0.0109149 0.00621632 0.00191024)
(0.00899809 0.00483268 0.00169204)
(0.0102723 0.00514615 0.00189331)
(0.00908261 0.00400741 0.00171658)
(0.00984883 0.00409097 0.0018508)
(0.00906088 0.00321193 0.00171076)
(0.00944573 0.00319551 0.00178965)
(0.00893441 0.00258301 0.00169343)
(0.0090722 0.00252386 0.00173816)
(0.00875584 0.00213211 0.00168314)
(0.00875665 0.00205337 0.00170807)
(0.00856491 0.00181739 0.00168348)
(0.00850668 0.00173525 0.00169847)
(0.00838804 0.0015999 0.00169148)
(0.00831598 0.00152875 0.00170184)
(0.0082342 0.00145021 0.0017058)
(0.00816771 0.00139602 0.00171579)
(0.00810463 0.00134741 0.00172519)
(0.00804815 0.00130912 0.00173644)
(0.00799617 0.00127694 0.0017483)
(0.00794845 0.0012503 0.00176099)
(0.00790429 0.00122784 0.00177422)
(0.00786318 0.00120868 0.00178782)
(0.0078248 0.0011921 0.00180173)
(0.00778896 0.00117733 0.00181594)
(0.00775548 0.00116402 0.00183038)
(0.00772419 0.00114963 0.00184515)
(0.00769478 0.00114323 0.00186009)
(0.00766594 0.0011077 0.00187539)
(0.00764363 0.0011543 0.00189065)
(0.00761677 0.00100664 0.00190625)
(0.00759659 0.00123653 0.00192268)
(0.0075804 0.000796353 0.00193882)
(0.0075447 0.00142449 0.0019559)
(0.00756467 0.000433311 0.00197496)
(0.0074678 0.00173153 0.00199153)
(0.0075756 -0.000117894 0.00202335)
(0.00734244 0.00214343 0.00202804)
(0.00756179 -0.000906767 0.00208549)
(0.00713927 0.00261834 0.00207467)
(0.00738355 -0.0020255 0.00214672)
(0.00671769 0.00307905 0.00211959)
(0.00670036 -0.00365325 0.00209597)
(0.00546547 0.00347152 0.00196583)
(0.00440029 -0.00599235 0.00110086)
(0.00304781 0.00488144 0.00132682)
(0.00333365 -0.00979157 0.000795383)
(0.00903656 0.00637493 0.00436995)
(0.0146315 -0.0211678 0.00293287)
(0.0219585 0.0190646 0.00946007)
(0.0202075 -0.0493646 0.000489544)
(-0.000873628 0.0649943 0.0205395)
(-0.0497924 -0.118894 0.015027)
(-0.035733 0.228561 -0.0967243)
(0.143427 -0.0460477 0.00188986)
(0.157191 0.336275 0.0211103)
(0.058652 0.328623 -0.00164709)
(0.0563161 0.0750067 0.00743696)
(-0.0139955 0.12752 0.0112306)
(-0.00992617 0.0533181 0.0113951)
(-0.010957 0.0672766 0.0045404)
(-0.0113322 0.042893 0.000886178)
(-0.0106245 0.0501856 -0.00117744)
(-0.00892818 0.0380057 -0.00224544)
(-0.00780724 0.0448788 -0.00285165)
(-0.00639902 0.0379014 -0.00331202)
(-0.00540448 0.0442426 -0.00352474)
(-0.00376353 0.0406814 -0.00324354)
(-0.00215363 0.0455171 -0.00269214)
(-0.000645642 0.0433568 -0.00203267)
(0.000294166 0.0438129 -0.00157848)
(0.00124555 0.0414871 -0.000783675)
(0.00188775 0.0399409 -0.000133724)
(0.00247978 0.0374606 0.000343971)
(0.00285273 0.0346612 0.0007558)
(0.00305434 0.0316265 0.00110959)
(0.00303796 0.028417 0.00142733)
(0.00285623 0.0255193 0.00173695)
(0.00258349 0.022991 0.00205427)
(0.00210522 0.0203889 0.00234986)
(0.00157771 0.0181173 0.00252156)
(0.00117451 0.0164303 0.00251425)
(0.000929208 0.0152145 0.00233922)
(0.000851663 0.0141798 0.00202974)
(0.000865612 0.0140879 0.0017269)
(0.000893909 0.0144948 0.00147248)
(0.000981098 0.0150637 0.00134748)
(0.00114543 0.0152736 0.00127378)
(0.00128266 0.0166021 0.00106965)
(0.00159022 0.0188797 0.000828942)
(0.00183803 0.0214859 0.000383632)
(0.0144243 0.0193163 0.00622683)
(0.0190469 0.0104317 0.0064564)
(0.00834797 0.00672717 0.00282933)
(0.0123904 0.00819212 0.00293695)
(0.00762099 0.00532944 0.00229351)
(0.0104423 0.00685012 0.00258082)
(0.00793354 0.00476098 0.00230321)
(0.00976848 0.00553842 0.00261969)
(0.00817388 0.00391245 0.00239649)
(0.00924462 0.00428257 0.00260707)
(0.00816624 0.00308657 0.00243272)
(0.0087039 0.00326345 0.00255526)
(0.00799782 0.00246488 0.00243647)
(0.0082035 0.00253262 0.0025077)
(0.00776709 0.0020437 0.00243932)
(0.00778793 0.002044 0.00248111)
(0.00752766 0.00176564 0.00245148)
(0.00746197 0.00172831 0.00247771)
(0.00730212 0.0015792 0.00247272)
(0.00721248 0.0015292 0.00249149)
(0.00710438 0.00145108 0.00249912)
(0.00701903 0.00140692 0.00251578)
(0.00693615 0.00136275 0.00253066)
(0.00686192 0.00133006 0.00254819)
(0.00679289 0.00130213 0.00256623)
(0.00672902 0.00127933 0.00258541)
(0.00666933 0.00126008 0.00260527)
(0.00661331 0.00124378 0.00262542)
(0.00656062 0.00122971 0.00264579)
(0.00651096 0.00121721 0.00266639)
(0.00646399 0.00120592 0.00268706)
(0.00641946 0.00119372 0.00270788)
(0.00637704 0.00118884 0.00272858)
(0.00633602 0.00115586 0.00274956)
(0.00630143 0.00120324 0.00277076)
(0.0062627 0.00105673 0.00279188)
(0.00623291 0.00129251 0.00281498)
(0.00620359 0.000843083 0.00283537)
(0.00616488 0.00149398 0.00286133)
(0.00616819 0.000465763 0.00288228)
(0.00608356 0.00182632 0.00291224)
(0.00616947 -0.000123301 0.00293962)
(0.00596278 0.00226096 0.00296723)
(0.00619499 -0.000969688 0.00302122)
(0.00579131 0.00270561 0.00303568)
(0.00614635 -0.00218779 0.00310907)
(0.00552374 0.00296427 0.00312692)
(0.00585313 -0.00406409 0.00312423)
(0.00485044 0.00261075 0.00312061)
(0.00448136 -0.00763214 0.00274384)
(0.00456658 0.000912303 0.00433424)
(0.00582492 -0.0158171 0.00847369)
(0.00830425 0.00162171 0.0128425)
(0.00967599 -0.0179008 0.0157993)
(0.0169142 0.0261399 0.0305536)
(0.00459763 -0.0398938 0.029536)
(-0.0129323 0.0490389 0.0562765)
(-0.087746 -0.122292 0.0441544)
(0.00905041 0.194022 -0.162172)
(0.113671 -0.0520322 0.015831)
(0.138269 0.43422 0.024289)
(0.0454877 0.583399 -0.00199379)
(0.0415217 0.504084 0.00150614)
(0.0140824 0.548438 0.000788451)
(0.00849419 0.507577 0.000234256)
(-0.000489903 0.515069 -0.00201141)
(-0.000881835 0.500226 -0.00270785)
(-0.00239377 0.501214 -0.00241418)
(-0.00198858 0.490413 -0.00264259)
(-0.00216738 0.492575 -0.00186696)
(-0.00101619 0.482192 -0.00145871)
(-0.000203397 0.474891 -0.00046177)
(0.00140073 0.452226 0.000417695)
(0.0026153 0.435317 0.0013037)
(0.00409777 0.406981 0.00199882)
(0.00460967 0.362667 0.00239053)
(0.0051534 0.293 0.00277197)
(0.00527689 0.215893 0.00295535)
(0.00544075 0.156969 0.00313554)
(0.00538847 0.10731 0.00324974)
(0.00507113 0.0716168 0.00329865)
(0.00452003 0.0534451 0.00325765)
(0.00381946 0.0451383 0.00311119)
(0.00304302 0.0384739 0.00300789)
(0.00204297 0.0329845 0.00297872)
(0.00103858 0.0278846 0.00292895)
(0.000165749 0.0237872 0.00276321)
(-0.000552986 0.0204396 0.00257532)
(-0.00113864 0.0180268 0.00214819)
(-0.00137019 0.0166348 0.00170542)
(-0.0017242 0.016102 0.00112344)
(-0.0019373 0.0160418 0.000538334)
(-0.00216828 0.0158902 -0.000114352)
(-0.00305092 0.0177707 -0.000777878)
(-0.00394463 0.0203274 -0.0008793)
(-0.00508817 0.0216807 -0.00134265)
(0.011432 0.0177782 0.00692556)
(0.0194569 0.0113807 0.00767297)
(0.00520955 0.00615802 0.00359931)
(0.0113119 0.00966974 0.00372797)
(0.00537038 0.00515354 0.00304596)
(0.00916651 0.00777023 0.00338773)
(0.00606755 0.00457784 0.0030793)
(0.00837855 0.00600533 0.00351513)
(0.00642485 0.00369743 0.00328258)
(0.00770932 0.00448131 0.00358617)
(0.0063985 0.00285958 0.00341368)
(0.00703445 0.0033149 0.00359027)
(0.00618922 0.00226963 0.00348024)
(0.00644603 0.00251835 0.00358379)
(0.00593272 0.00190174 0.00352685)
(0.00598302 0.00201079 0.00359157)
(0.00568473 0.00167737 0.00357318)
(0.0056334 0.00169979 0.00361628)
(0.00545688 0.00153235 0.00362336)
(0.00537142 0.00151343 0.00365579)
(0.00525707 0.00143542 0.00367334)
(0.00517189 0.00140536 0.00370138)
(0.00508672 0.00136684 0.00372569)
(0.00501131 0.00134163 0.00375265)
(0.00494098 0.00131911 0.00377953)
(0.00487602 0.00130117 0.00380765)
(0.00481534 0.00128622 0.00383619)
(0.00475842 0.00127388 0.0038641)
(0.00470496 0.00126326 0.00389135)
(0.00465503 0.00125383 0.00391842)
(0.00460842 0.00124537 0.00394544)
(0.0045649 0.001236 0.0039725)
(0.00452443 0.00123333 0.00399938)
(0.00448591 0.00120358 0.00402568)
(0.00445516 0.00125228 0.00405244)
(0.00441914 0.00110887 0.00407754)
(0.00439777 0.00134928 0.0041073)
(0.00436837 0.000896388 0.00412965)
(0.00434879 0.00156481 0.00416419)
(0.00434508 0.000512076 0.00418342)
(0.00430324 0.00192021 0.00422534)
(0.00436948 -9.85458e-05 0.00424395)
(0.00424503 0.00239422 0.00428958)
(0.00447203 -0.000993639 0.00432431)
(0.00416776 0.00286537 0.00435682)
(0.00464487 -0.00229165 0.00440852)
(0.00410015 0.00307498 0.00443682)
(0.00485851 -0.00429035 0.00440248)
(0.00411625 0.00239862 0.00446173)
(0.00494093 -0.00799694 0.0043079)
(0.00469311 -0.000232582 0.0062606)
(0.00261157 -0.0143825 0.0099982)
(-0.00119116 0.00195828 0.0124885)
(-0.00599565 -0.0112108 0.0205249)
(0.00271189 0.0255712 0.0414074)
(-0.00110341 -0.0248715 0.0549257)
(0.0161166 0.0285658 0.108488)
(-0.053834 -0.132878 0.0917086)
(0.0307893 0.0973729 -0.14326)
(0.0750658 -0.00318118 0.029158)
(0.123783 0.469375 0.025499)
(0.0319441 0.603201 -0.000905548)
(0.0316258 0.554668 0.00619476)
(0.00931061 0.60343 0.00219346)
(0.00583721 0.594082 0.00261557)
(0.00240156 0.605738 0.00160633)
(0.00179296 0.59438 0.00259344)
(0.00101097 0.588826 0.00242784)
(0.00176264 0.575531 0.00333183)
(0.00185187 0.578829 0.00372455)
(0.00267033 0.579056 0.00454103)
(0.00334796 0.569896 0.00508343)
(0.00472389 0.567779 0.00589598)
(0.00544438 0.575978 0.00640615)
(0.00561288 0.565906 0.006857)
(0.00650141 0.553045 0.00702832)
(0.00714988 0.549218 0.00703547)
(0.00759859 0.541547 0.00678692)
(0.00776828 0.531757 0.00655121)
(0.0076541 0.523825 0.00609082)
(0.00692625 0.503099 0.00575265)
(0.0060176 0.487707 0.00537346)
(0.00494339 0.465987 0.00494663)
(0.00374595 0.44398 0.00449915)
(0.00223276 0.40524 0.00407903)
(0.000593224 0.349457 0.00371277)
(-0.000934779 0.276875 0.00335916)
(-0.002088 0.142781 0.00309196)
(-0.00333112 0.0466937 0.00284224)
(-0.00445849 0.02601 0.00253211)
(-0.00526416 0.0198404 0.0021641)
(-0.00549119 0.0172746 0.00189386)
(-0.00549551 0.0159903 0.00122328)
(-0.00514984 0.0161786 9.83861e-05)
(-0.00380239 0.0180773 -0.00192873)
(-0.00377988 0.0207864 -0.00562949)
(0.00623699 0.0154866 0.00729893)
(0.0188461 0.0132741 0.00855863)
(0.00016472 0.00544841 0.0042292)
(0.00919486 0.0117288 0.00448864)
(0.00173144 0.00472869 0.0038288)
(0.00681169 0.00885618 0.00421245)
(0.00289789 0.00415125 0.00400402)
(0.00575532 0.00645263 0.00448718)
(0.00327279 0.00331384 0.0043327)
(0.00480424 0.00463372 0.00468863)
(0.00311312 0.00255102 0.00455129)
(0.00383785 0.00335034 0.00475852)
(0.00272509 0.00205633 0.00465578)
(0.00300378 0.00251546 0.00477759)
(0.00231718 0.00177322 0.0047196)
(0.00236083 0.00200207 0.00479536)
(0.00195902 0.00161109 0.00477327)
(0.00189144 0.00169694 0.0048233)
(0.0016557 0.00150838 0.00482577)
(0.00154851 0.00152213 0.00486134)
(0.00140418 0.00144065 0.0048787)
(0.00130076 0.00142356 0.00490785)
(0.00119821 0.00138847 0.00493128)
(0.00110997 0.00136938 0.00495809)
(0.00102923 0.00135087 0.00498426)
(0.000955489 0.00133678 0.00501061)
(0.000887361 0.00132549 0.0050363)
(0.00082574 0.00131656 0.00506208)
(0.000770002 0.00130916 0.00508831)
(0.000718666 0.0013031 0.00511451)
(0.000671186 0.00129794 0.00514047)
(0.000627249 0.00129212 0.00516613)
(0.000587214 0.00129292 0.00519148)
(0.000549916 0.00126741 0.00521649)
(0.000520919 0.00131807 0.00524147)
(0.000485568 0.00118039 0.00526356)
(0.000471007 0.00142334 0.00529128)
(0.000439412 0.000974628 0.00530908)
(0.000437792 0.00165242 0.00534345)
(0.000424831 0.000593135 0.00535589)
(0.000421822 0.0020317 0.00539775)
(0.00046863 -1.83363e-05 0.00540435)
(0.000424491 0.00255561 0.00545358)
(0.000631742 -0.000921723 0.00546597)
(0.0004504 0.00314321 0.00550521)
(0.000998641 -0.00224313 0.00554705)
(0.000619949 0.00363863 0.00559164)
(0.00174309 -0.00423901 0.00563854)
(0.00125956 0.00358247 0.00571136)
(0.00316666 -0.0072849 0.00556119)
(0.00218226 0.00259307 0.00648082)
(0.00137433 -0.0133204 0.00791761)
(-0.00705873 -0.000855254 0.00807318)
(-0.0171578 -0.0224863 0.00893951)
(-0.0208943 -0.00243143 0.0245238)
(-0.0280389 -0.049579 0.0419599)
(-0.00422727 -0.0262028 0.0749146)
(-0.00562399 -0.124738 0.0719575)
(0.0255066 0.00639114 -0.140089)
(0.0373602 0.0441219 0.0296945)
(0.0661636 0.543464 0.0194524)
(0.0158409 0.6307 -0.00194358)
(0.0160487 0.573388 0.00519577)
(0.00317588 0.650844 0.00542366)
(0.00281585 0.607765 0.00868335)
(0.00204653 0.625908 0.00806681)
(0.00223906 0.607242 0.00924379)
(0.00214047 0.604031 0.00929898)
(0.00268889 0.609784 0.0100779)
(0.00281611 0.598271 0.0104902)
(0.00371785 0.60748 0.0112117)
(0.00405644 0.611137 0.0113087)
(0.0053158 0.614371 0.0118372)
(0.0059339 0.598674 0.0118876)
(0.0071297 0.579226 0.0126699)
(0.00766178 0.597086 0.0122334)
(0.00859347 0.596724 0.0121792)
(0.00897716 0.57926 0.0116525)
(0.00947815 0.603489 0.0110896)
(0.00975395 0.592592 0.0100958)
(0.00970509 0.571363 0.00952811)
(0.00941066 0.580961 0.00856238)
(0.0087893 0.580793 0.00721962)
(0.00765409 0.567887 0.00587772)
(0.00616543 0.554295 0.0044892)
(0.00457303 0.52725 0.0035024)
(0.00267564 0.521715 0.00231123)
(0.000388149 0.521206 0.000908099)
(-0.00187784 0.495599 -0.000500951)
(-0.00412138 0.486768 -0.00172538)
(-0.00690737 0.475978 -0.00327375)
(-0.00896837 0.450108 -0.00448533)
(-0.0110759 0.393425 -0.00518448)
(-0.0123543 0.303947 -0.0062124)
(-0.0120939 0.207733 -0.00806883)
(-0.0139446 0.144472 -0.0116701)
(-0.0011095 0.0105991 0.00774447)
(0.0177032 0.0161469 0.00795769)
(-0.0051508 0.00464735 0.00468091)
(0.00730611 0.014496 0.00463339)
(-0.00191466 0.00421453 0.00467072)
(0.00441466 0.010131 0.00480674)
(-0.000408489 0.00353796 0.00505974)
(0.00286556 0.00683518 0.00542445)
(-0.000106547 0.00268181 0.00552959)
(0.00154664 0.00465117 0.00586579)
(-0.000416868 0.00199543 0.00587735)
(0.00036223 0.00322869 0.00610675)
(-0.000897768 0.00162108 0.00610005)
(-0.000566438 0.00237118 0.0062632)
(-0.00132827 0.00147191 0.00627113)
(-0.00123432 0.00188532 0.00639289)
(-0.00165891 0.00142799 0.00641851)
(-0.00168349 0.00162003 0.00651235)
(-0.0019061 0.00141858 0.0065518)
(-0.00197235 0.00148634 0.00662538)
(-0.00208648 0.00141356 0.00667471)
(-0.00215079 0.00142512 0.00673517)
(-0.0022151 0.00140473 0.00678588)
(-0.00226188 0.00140204 0.00683962)
(-0.00230055 0.00139682 0.00689095)
(-0.00233052 0.00139518 0.00694211)
(-0.00235293 0.00139443 0.00699241)
(-0.00237005 0.00139423 0.00704116)
(-0.00238408 0.00139418 0.00708799)
(-0.00239314 0.00139431 0.00713383)
(-0.00239769 0.00139475 0.00717874)
(-0.002398 0.00139438 0.0072228)
(-0.00239406 0.00139963 0.00726538)
(-0.00238716 0.00138028 0.00730781)
(-0.00237191 0.00143459 0.00734799)
(-0.00236359 0.00130574 0.00738799)
(-0.00232705 0.00155395 0.00742971)
(-0.00231909 0.00111259 0.00746645)
(-0.00225678 0.00180397 0.00751154)
(-0.00223901 0.000739224 0.00754365)
(-0.00215888 0.0022166 0.00759269)
(-0.00209589 0.000132672 0.00762028)
(-0.00202259 0.00280235 0.00767367)
(-0.00182286 -0.000772124 0.0077038)
(-0.0018308 0.00351967 0.00775233)
(-0.00129453 -0.00207361 0.007807)
(-0.00144297 0.00427975 0.00784764)
(-0.000326264 -0.00394663 0.00791568)
(-0.000640165 0.00498474 0.00799578)
(0.0014176 -0.00632287 0.00806433)
(0.000772016 0.00583319 0.00858727)
(0.00182742 -0.0098841 0.00929868)
(-0.00535325 0.00647992 0.0102894)
(-0.00898853 -0.0169511 0.00945902)
(-0.0170109 0.000968687 0.0269807)
(-0.0184796 -0.0490681 0.0350409)
(-0.013388 -0.0318005 0.0650479)
(0.012698 -0.10272 0.0562147)
(-0.00742758 -0.0336083 -0.129449)
(-0.0156875 0.0829743 0.0269009)
(-0.033911 0.589139 0.00438055)
(-0.0173362 0.690195 -0.00482974)
(-0.0122697 0.683268 0.0089726)
(-0.00699056 0.718224 0.0108265)
(-0.0023761 0.706058 0.01432)
(-0.00043079 0.710057 0.0149743)
(0.00308081 0.70677 0.0163239)
(0.00349412 0.722264 0.0167593)
(0.00462176 0.700991 0.0173949)
(0.00610208 0.704569 0.0181163)
(0.00694505 0.697379 0.0186586)
(0.00778325 0.695879 0.0190456)
(0.0087162 0.690678 0.0195016)
(0.00967905 0.685948 0.0197252)
(0.0112118 0.676893 0.0202378)
(0.0119054 0.673548 0.02035)
(0.0128805 0.670302 0.0207729)
(0.0135543 0.66765 0.0208735)
(0.0141698 0.664578 0.0210759)
(0.0147427 0.659569 0.0212552)
(0.0154205 0.652896 0.0213002)
(0.015576 0.647123 0.021083)
(0.0155667 0.64049 0.0205612)
(0.0152042 0.634387 0.0197665)
(0.0148137 0.626112 0.018707)
(0.0141315 0.609846 0.0173679)
(0.0131799 0.599868 0.0158077)
(0.0119805 0.590076 0.0138355)
(0.0106627 0.575613 0.0111913)
(0.00878817 0.574774 0.00734151)
(0.006475 0.555706 0.00222118)
(0.00351065 0.550342 -0.00519482)
(-7.14227e-05 0.543542 -0.0149614)
(-0.00452579 0.510574 -0.0291221)
(-0.0102287 0.490509 -0.0485954)
(-0.014279 0.446966 -0.0649788)
(-0.0107145 0.00712193 -0.00302438)
(0.0160774 0.0213204 0.0060243)
(-0.0110542 0.00305925 6.53098e-05)
(0.00536242 0.0174474 0.00102542)
(-0.005537 0.00301545 0.00160364)
(0.00185929 0.0111148 0.0018065)
(-0.004067 0.00254798 0.00240566)
(-0.000435109 0.00706641 0.00286604)
(-0.00414527 0.00199609 0.00310566)
(-0.00233123 0.004675 0.00348465)
(-0.00473552 0.00156486 0.00355373)
(-0.00394088 0.00320306 0.00377406)
(-0.00543745 0.0013764 0.00381581)
(-0.00513826 0.00234809 0.00396035)
(-0.00602962 0.00134806 0.00399985)
(-0.00596378 0.00188831 0.00411148)
(-0.00646393 0.00139093 0.00414992)
(-0.00651121 0.00165352 0.00423983)
(-0.00677947 0.00144198 0.00428218)
(-0.00686662 0.0015484 0.00435396)
(-0.00700856 0.00148224 0.0044024)
(-0.00709105 0.00151254 0.00446156)
(-0.00717261 0.00150257 0.00451114)
(-0.00723443 0.00151011 0.00456322)
(-0.00728626 0.00151338 0.00461267)
(-0.00732771 0.00151872 0.00466162)
(-0.0073606 0.00152428 0.00470943)
(-0.00738515 0.00153029 0.00475628)
(-0.00740214 0.00153596 0.00480215)
(-0.00741389 0.00154097 0.00484679)
(-0.00742071 0.00154554 0.00489041)
(-0.00742268 0.00154913 0.00493331)
(-0.0074197 0.0015567 0.00497517)
(-0.00741262 0.00154337 0.00501733)
(-0.00739656 0.00159707 0.00505586)
(-0.00739016 0.00148077 0.00509778)
(-0.00734647 0.00172004 0.00513625)
(-0.00734666 0.00130176 0.00517857)
(-0.0072634 0.00197251 0.0052176)
(-0.00726739 0.000950132 0.00525796)
(-0.00714151 0.00239141 0.00529958)
(-0.00712321 0.000375096 0.00533578)
(-0.00695883 0.0029914 0.00538713)
(-0.00684923 -0.00048077 0.00541645)
(-0.00667683 0.00376101 0.00548679)
(-0.00631177 -0.00170375 0.00550418)
(-0.00618721 0.00467745 0.00559464)
(-0.00536302 -0.00338778 0.00556379)
(-0.00537339 0.00575862 0.00565032)
(-0.0037708 -0.00570257 0.00567833)
(-0.00459582 0.00707985 0.00574799)
(-0.00357949 -0.00876875 0.00591306)
(-0.0107135 0.0109731 0.00663339)
(-0.010032 -0.0154664 0.00735209)
(-0.0236277 0.0097257 0.0253534)
(-0.0117641 -0.0518934 0.0321395)
(-0.0187315 -0.0204701 0.055623)
(0.0593302 -0.132461 0.0542802)
(-0.0344744 0.0517269 -0.149255)
(-0.060499 0.0224867 0.0147281)
(-0.125819 0.505791 -0.00807692)
(-0.0411917 0.58728 -0.00622827)
(-0.0365374 0.565916 0.00127656)
(-0.0156229 0.602063 0.00650501)
(-0.0102198 0.57285 0.00790404)
(-0.00497562 0.564138 0.0086137)
(-0.00243515 0.566404 0.0091836)
(-0.000579745 0.57309 0.00992184)
(0.000342287 0.570263 0.0107611)