/*--------------------------------*- C++ -*----------------------------------*\
| =========                 |                                                 |
| \\      /  F ield         | OpenFOAM: The Open Source CFD Toolbox           |
|  \\    /   O peration     | Version:  2.3.0                                 |
|   \\  /    A nd           | Web:      www.OpenFOAM.org                      |
|    \\/     M anipulation  |                                                 |
\*---------------------------------------------------------------------------*/
FoamFile
{
    version     2.0;
    format      ascii;
    class       volVectorField;
    location    "7";
    object      U.airMean;
}
// * * * * * * * * * * * * * * * * * * * * * * * * * * * * * * * * * * * * * //

dimensions      [0 1 -1 0 0 0 0];

internalField   nonuniform List<vector> 
6144
(
(0.00575421 0.0212139 -0.00120988)
(0.00565264 0.0102165 -0.00153927)
(0.00445259 0.00865307 -0.00241042)
(0.0044831 0.00635914 -0.00250632)
(0.00385365 0.00538337 -0.00263934)
(0.0039768 0.00471067 -0.00268332)
(0.00366938 0.00412715 -0.0027122)
(0.00379948 0.00378981 -0.00273344)
(0.00363047 0.0033172 -0.00276319)
(0.00371899 0.00305823 -0.00278492)
(0.00361352 0.00266241 -0.00282275)
(0.00365816 0.00244477 -0.00283976)
(0.0035913 0.00213188 -0.00286801)
(0.00360414 0.00195187 -0.00287907)
(0.00356295 0.00172385 -0.00289721)
(0.0035592 0.0015819 -0.00290407)
(0.00353478 0.00142535 -0.00291467)
(0.00352475 0.00131725 -0.00291928)
(0.00350934 0.00121334 -0.00292508)
(0.00349894 0.00113445 -0.00292823)
(0.00348828 0.00106558 -0.00293135)
(0.00347954 0.0010103 -0.00293344)
(0.00347164 0.000964112 -0.00293518)
(0.00346477 0.000926212 -0.00293651)
(0.00345866 0.000894939 -0.00293758)
(0.00345321 0.000868601 -0.0029384)
(0.00344815 0.000847495 -0.00293909)
(0.0034437 0.000826375 -0.00293935)
(0.00344021 0.000820497 -0.00293976)
(0.00343429 0.000778166 -0.00293894)
(0.00343491 0.000830471 -0.00294025)
(0.00342447 0.00069264 -0.00293799)
(0.00343359 0.000901014 -0.00294036)
(0.00341366 0.000539249 -0.00293666)
(0.00343571 0.00105438 -0.00293922)
(0.00340246 0.00029205 -0.00293461)
(0.00344 0.0013049 -0.00293568)
(0.00339323 -5.82936e-05 -0.00293064)
(0.00343893 0.00164671 -0.0029273)
(0.00339798 -0.000493535 -0.00292336)
(0.00341867 0.00207001 -0.00291469)
(0.00340412 -0.000989906 -0.00290804)
(0.00337753 0.00264743 -0.00290698)
(0.00338511 -0.00153233 -0.00288099)
(0.00331298 0.00351259 -0.00289213)
(0.00332153 -0.00209681 -0.00282308)
(0.00318059 0.00474137 -0.00282953)
(0.00310291 -0.00276103 -0.0027367)
(0.0026742 0.00640069 -0.00263447)
(0.00245919 -0.00362146 -0.00255209)
(0.00174921 0.00969887 -0.00266443)
(0.00400297 -0.00407333 -0.00325616)
(0.00954126 0.0100103 -0.00469229)
(0.0140752 -0.0286845 -0.00498964)
(0.0154853 -0.00605637 -0.00948451)
(0.0176162 -0.0546103 -0.00787021)
(0.0105057 0.00181578 -0.0198281)
(0.0185183 -0.0569932 0.0127988)
(-0.0179026 0.0809608 -0.0282368)
(0.0215163 0.0745799 0.0347008)
(0.0916009 0.347099 0.0357968)
(0.0467417 0.413976 0.00599875)
(0.0514304 -0.0456496 0.0150986)
(0.041697 -0.0925831 0.00871452)
(0.0318823 -0.112887 0.00565985)
(0.0246731 -0.0885947 0.0055192)
(0.0176678 -0.0998544 0.00472147)
(0.0130193 -0.0809753 0.00547278)
(0.00991495 -0.088458 0.00561023)
(0.00740594 -0.072854 0.00578543)
(0.00563917 -0.077542 0.00578211)
(0.00436908 -0.0669418 0.00574256)
(0.00323691 -0.0680685 0.00543533)
(0.00240174 -0.0598115 0.00510857)
(0.00161804 -0.0590674 0.00465084)
(0.000907038 -0.0527051 0.00419221)
(0.000413524 -0.049198 0.00366921)
(-0.000132137 -0.0442362 0.00344971)
(-0.000716542 -0.0389902 0.00322269)
(-0.0012613 -0.0326197 0.00298835)
(-0.00182296 -0.0253932 0.00264521)
(-0.00219577 -0.017041 0.00248586)
(-0.00286743 -0.00817436 0.00241245)
(-0.00215551 0.000979223 0.00127396)
(-0.000912986 0.00951954 -0.00107134)
(0.000508288 0.0173509 -0.00294561)
(0.00234947 0.0231426 -0.00389316)
(0.00350697 0.0255601 -0.003744)
(0.0040552 0.0259442 -0.00307863)
(0.00447316 0.0246468 -0.0024861)
(0.00486611 0.0219429 -0.00244806)
(0.00503193 0.0198692 -0.00300832)
(0.00494494 0.0185546 -0.00346088)
(0.00475706 0.0187771 -0.00378541)
(0.00462067 0.0207073 -0.00397467)
(0.0044907 0.0225702 -0.00401642)
(0.0127406 0.0225674 0.00240078)
(0.0129611 0.0111481 0.0017464)
(0.00947483 0.0095441 -0.000139311)
(0.00980839 0.00751566 -0.00029929)
(0.00815986 0.00651325 -0.000693584)
(0.00863818 0.00601266 -0.000678252)
(0.00784257 0.005246 -0.000803769)
(0.0082596 0.00494052 -0.000754481)
(0.00779373 0.00429021 -0.000845012)
(0.00807812 0.00400488 -0.000806948)
(0.00776735 0.00346447 -0.000884509)
(0.00792669 0.00319618 -0.000864945)
(0.00771429 0.002783 -0.000921106)
(0.00777344 0.00255953 -0.000910964)
(0.00763746 0.00226235 -0.000948844)
(0.00763707 0.00208925 -0.000945269)
(0.00755468 0.00188681 -0.000966129)
(0.00752827 0.0017563 -0.000966692)
(0.00747707 0.0016238 -0.000976025)
(0.00744565 0.00152806 -0.000977445)
(0.00741074 0.00144169 -0.000980586)
(0.00738279 0.00137393 -0.000981061)
(0.00735674 0.00131652 -0.000981173)
(0.00733395 0.00126966 -0.0009803)
(0.00731347 0.00123078 -0.000978865)
(0.00729514 0.00119816 -0.000976868)
(0.00727843 0.00117185 -0.000974546)
(0.00726331 0.00114685 -0.000971573)
(0.00725071 0.00113462 -0.000968146)
(0.00723415 0.00109215 -0.000963755)
(0.00723154 0.00113868 -0.000960344)
(0.0072036 0.000995108 -0.00095499)
(0.00722227 0.00121075 -0.000950823)
(0.0071689 0.000817914 -0.000945587)
(0.00722252 0.00137855 -0.00093923)
(0.00712991 0.000527771 -0.000935266)
(0.00722785 0.00166402 -0.000926568)
(0.00708895 0.000103622 -0.000924891)
(0.00722447 0.00207893 -0.00091329)
(0.00705738 -0.000455545 -0.00091684)
(0.00717235 0.00260764 -0.000911126)
(0.00702393 -0.00110906 -0.000910885)
(0.00704567 0.00327691 -0.000931705)
(0.00691476 -0.00181495 -0.000924937)
(0.00684395 0.00420773 -0.000961067)
(0.00666747 -0.00254859 -0.000937972)
(0.00655976 0.00543973 -0.000891817)
(0.00616378 -0.00362692 -0.000843893)
(0.00572533 0.00677903 -0.000513449)
(0.00503511 -0.00623738 -0.000625986)
(0.00504938 0.00841142 -0.000165682)
(0.00937317 -0.0161965 -0.0011633)
(0.0240237 -0.00300621 0.00149189)
(0.0329405 -0.0496762 0.00402697)
(0.0317229 -0.0238546 0.00462558)
(0.039581 -0.092681 0.00711949)
(0.011959 -0.0345363 0.00449673)
(0.00183987 -0.156964 0.0317464)
(-0.0685472 0.0625336 -0.0923587)
(0.0134972 0.0363168 0.0266348)
(0.10479 0.353397 0.0807951)
(0.0234838 0.439846 0.00361402)
(0.0226957 -0.00116944 0.00460375)
(0.0166979 0.0364196 0.00847628)
(0.00811756 0.00196984 0.00996884)
(0.00342108 0.0321895 0.00950663)
(-0.00151507 0.0144276 0.0104141)
(-0.00101349 0.0291646 0.0114892)
(0.00173272 0.0148927 0.0120497)
(0.000845209 0.0203476 0.0116203)
(0.00062563 0.00616984 0.0107194)
(0.00100912 0.0090888 0.00984029)
(0.00116518 -0.000277314 0.00824237)
(0.00139104 0.00139684 0.00655086)
(0.00170253 -0.00525962 0.00535461)
(0.00215274 -0.00611186 0.00443148)
(0.00261606 -0.00918983 0.00394164)
(0.00160579 -0.00979145 0.00458936)
(-0.000336712 -0.00974267 0.0052013)
(-0.00152262 -0.00715895 0.00524359)
(-0.00250273 -0.00319153 0.00418211)
(-0.00288324 0.00378004 0.00390843)
(-0.0036873 0.00760646 0.00470752)
(-0.00400075 0.0108689 0.00430569)
(-0.00280187 0.0149008 0.00222345)
(-0.00107808 0.0193839 0.000401419)
(0.000984293 0.0226962 -0.000596228)
(0.00258802 0.0243704 -0.000330622)
(0.00334189 0.0245786 0.000709735)
(0.00387934 0.0232704 0.00157267)
(0.0045656 0.0208959 0.00147204)
(0.00520539 0.0191002 0.000507933)
(0.00546525 0.017964 -0.000445733)
(0.00530363 0.0183348 -0.00110169)
(0.00509471 0.0204578 -0.00152103)
(0.00489727 0.0225291 -0.00176402)
(0.0152869 0.0214318 0.00451084)
(0.0162539 0.0103533 0.00388579)
(0.0109742 0.00836769 0.00148069)
(0.0119524 0.00726182 0.00145392)
(0.00945921 0.00600873 0.000962882)
(0.0104387 0.00595771 0.00110112)
(0.00918562 0.00503548 0.000916263)
(0.00992225 0.00494016 0.00106699)
(0.00917493 0.00415479 0.000914197)
(0.00964252 0.00398569 0.00101571)
(0.0091497 0.00334454 0.000882451)
(0.00938816 0.00316231 0.000940321)
(0.00906085 0.00268799 0.000841227)
(0.00914744 0.00251628 0.00087152)
(0.00893476 0.00219124 0.000810188)
(0.00893286 0.00204449 0.000825265)
(0.00880184 0.0018338 0.000792664)
(0.0087603 0.00171914 0.000799777)
(0.00867785 0.00158697 0.000787605)
(0.00862748 0.00150114 0.000792462)
(0.00857033 0.00141853 0.000792085)
(0.00852424 0.00135704 0.000797938)
(0.00848042 0.00130384 0.00080367)
(0.00844147 0.00126134 0.000811522)
(0.00840578 0.00122606 0.000820232)
(0.00837323 0.00119676 0.00082995)
(0.00834309 0.00117275 0.000840309)
(0.00831525 0.00115005 0.000851386)
(0.00828977 0.0011388 0.000863105)
(0.00826274 0.00110164 0.000875275)
(0.00824857 0.00114286 0.000887297)
(0.00820817 0.00101167 0.000898844)
(0.0082199 0.0012133 0.000912033)
(0.00814729 0.000842073 0.000920713)
(0.00820515 0.00137795 0.000937872)
(0.00807942 0.00055691 0.000940718)
(0.00819991 0.00165908 0.000963212)
(0.00800635 0.000130496 0.000958532)
(0.00819324 0.00207087 0.000987511)
(0.0079365 -0.00044746 0.000970728)
(0.00813829 0.00261066 0.000994805)
(0.00787386 -0.00116047 0.000965189)
(0.00797661 0.00328949 0.000953482)
(0.0077344 -0.00195606 0.000902176)
(0.00769432 0.0042006 0.000854734)
(0.00743309 -0.00276927 0.000795028)
(0.00739952 0.00530214 0.000860843)
(0.00694357 -0.00418729 0.000789494)
(0.00693997 0.0058751 0.00112758)
(0.00627791 -0.00851079 0.000806007)
(0.010645 0.00373889 0.00147501)
(0.0226392 -0.0269781 -0.00165264)
(0.0377505 -0.0106257 0.00488217)
(0.0459132 -0.0552183 0.00851698)
(0.0480655 -0.0188153 0.0167609)
(0.0608193 -0.0962008 0.0173225)
(0.0275562 -0.01391 0.031734)
(0.0383077 -0.177794 0.0694172)
(-0.0770443 0.0974249 -0.0908395)
(0.0353623 0.0170364 -0.000301638)
(0.150411 0.37866 0.107249)
(0.064278 0.461916 0.0240085)
(0.0529422 0.0114827 0.0191728)
(0.0375287 0.094852 0.00324894)
(0.0267866 0.0356873 0.0139995)
(0.0201285 0.0670119 0.014228)
(0.014057 0.0389703 0.0177985)
(0.00704093 0.0473856 0.0169504)
(0.00532943 0.0330682 0.0148994)
(0.00368827 0.0403026 0.0121556)
(0.00161875 0.0281442 0.00883438)
(-0.00100836 0.0331395 0.00467458)
(-0.00168026 0.0246569 0.00223607)
(-0.000758303 0.0262896 0.00189373)
(0.00129974 0.0213907 0.00269244)
(0.00245865 0.0191459 0.00313998)
(0.00215337 0.0140718 0.00371269)
(-0.000237003 0.010806 0.0056839)
(-0.00471534 0.00633119 0.00659246)
(-0.00814257 0.00443265 0.0062848)
(-0.00963994 0.00612419 0.00399476)
(-0.00869072 0.011538 0.00206339)
(-0.00823687 0.0166058 0.00241711)
(-0.00770784 0.0199683 0.0034405)
(-0.00561938 0.0221549 0.00288227)
(-0.00278191 0.0233519 0.00160992)
(9.26777e-05 0.0244509 0.000938373)
(0.00166891 0.02507 0.00132991)
(0.00220172 0.024364 0.00243408)
(0.00231058 0.0224566 0.00341753)
(0.00264882 0.0204289 0.00339654)
(0.0032986 0.018871 0.00259125)
(0.00385052 0.017453 0.00160935)
(0.00389806 0.018245 0.000824325)
(0.00375135 0.0201485 0.000240601)
(0.00360977 0.0221374 -0.000136266)
(0.0159221 0.0204421 0.00555962)
(0.0181596 0.0102855 0.0053214)
(0.0105454 0.00746292 0.00236197)
(0.012738 0.00754608 0.00233635)
(0.00924608 0.00566225 0.00188861)
(0.0109175 0.00632486 0.00206483)
(0.00914972 0.00498558 0.00188196)
(0.0103106 0.00524231 0.00207556)
(0.0092356 0.004142 0.00192001)
(0.00994018 0.00416707 0.0020482)
(0.00922216 0.0033031 0.00191774)
(0.00958018 0.00324179 0.00198856)
(0.00910521 0.00263046 0.00189382)
(0.00923442 0.00254485 0.00193208)
(0.00893295 0.00214694 0.00187454)
(0.00893609 0.00205447 0.00189632)
(0.00874819 0.00181208 0.0018682)
(0.00869405 0.00172478 0.00188181)
(0.00857642 0.00158363 0.00187263)
(0.00850782 0.00151153 0.00188288)
(0.00842672 0.00142973 0.00188579)
(0.0083623 0.00137546 0.0018962)
(0.00829993 0.00132574 0.0019056)
(0.00824438 0.00128754 0.0019174)
(0.00819293 0.00125536 0.00192985)
(0.00814561 0.00122912 0.00194331)
(0.00810153 0.00120739 0.00195734)
(0.00806031 0.00118756 0.00197198)
(0.00802181 0.00117672 0.001987)
(0.0079835 0.00114553 0.00200256)
(0.00795837 0.00118002 0.00201842)
(0.00790599 0.00106378 0.00203413)
(0.00791247 0.0012476 0.00205164)
(0.00782282 0.000901694 0.00206541)
(0.00788748 0.00140843 0.00208739)
(0.00773286 0.000621143 0.00209599)
(0.00787839 0.0016862 0.00212391)
(0.00763636 0.000189131 0.00212345)
(0.00787395 0.00209621 0.00215714)
(0.0075392 -0.000417393 0.00214037)
(0.00783308 0.00264223 0.00216925)
(0.00743889 -0.00120827 0.00211841)
(0.0076609 0.00332393 0.00210412)
(0.00725383 -0.00214139 0.00198939)
(0.00727724 0.00420942 0.00190953)
(0.00690752 -0.00302781 0.00176674)
(0.00704432 0.00525512 0.00184579)
(0.00673146 -0.0045109 0.00174465)
(0.00738964 0.00523238 0.00240586)
(0.0081656 -0.01034 0.00230439)
(0.0178001 -0.00248777 0.00163372)
(0.032551 -0.0302514 0.00100825)
(0.0449314 -0.00932805 0.0153875)
(0.0487187 -0.0478066 0.0242185)
(0.0460356 0.00714293 0.0398832)
(0.0532222 -0.0740509 0.0421117)
(0.0215886 0.0616162 0.0899946)
(0.0597462 -0.207819 0.119346)
(-0.0907028 0.235316 -0.0885257)
(0.0407967 -0.0426293 0.0283784)
(0.124071 0.449398 0.11831)
(0.042343 0.558424 0.017365)
(0.0271016 0.355192 0.0115482)
(0.0107486 0.400959 0.000529434)
(0.00886791 0.323603 0.0148252)
(-0.00279444 0.295978 0.00731305)
(-0.00455011 0.226707 0.00819849)
(-0.00816074 0.189559 0.00730916)
(-0.00713532 0.159424 0.00448414)
(-0.00518788 0.153168 0.00411029)
(-0.00277474 0.131673 0.00333199)
(-0.00048701 0.12579 0.00307735)
(0.0020132 0.104541 0.00277442)
(0.00327526 0.0899453 0.00234396)
(0.00481298 0.072804 0.00204211)
(0.00472883 0.0604653 0.00133668)
(0.00412682 0.0523882 0.000697138)
(0.000714152 0.043701 0.00187988)
(-0.00419258 0.0349284 0.00170348)
(-0.00899399 0.028474 0.000436609)
(-0.0126126 0.0259889 -0.00164086)
(-0.0127779 0.0290703 -0.00168907)
(-0.0100577 0.0304701 0.000589914)
(-0.00712457 0.0292257 0.00109587)
(-0.00423056 0.028837 0.000894881)
(-0.00186031 0.028213 0.000617922)
(-0.000207129 0.027728 0.000658304)
(0.000292171 0.0269305 0.00147147)
(0.000116428 0.0250868 0.002824)
(-0.000578551 0.0225578 0.00374019)
(-0.000984009 0.0203369 0.00370272)
(-0.000674165 0.0187066 0.00293358)
(8.73978e-05 0.0170315 0.00196774)
(0.00061013 0.0174174 0.00101809)
(0.00095083 0.0195644 0.000315443)
(0.000872244 0.0213753 -0.0001128)
(0.0146728 0.0192199 0.00624436)
(0.0192021 0.0106987 0.00643013)
(0.00857742 0.00687484 0.00298874)
(0.0124185 0.00837404 0.00297852)
(0.00779514 0.00548337 0.0024206)
(0.0103879 0.00694916 0.00264759)
(0.00804887 0.00491693 0.00243067)
(0.00972538 0.00562683 0.00273063)
(0.00827129 0.00406554 0.00255372)
(0.00924737 0.00436625 0.00276362)
(0.00826136 0.0032035 0.00261712)
(0.00874932 0.00332431 0.00273338)
(0.00809418 0.00253602 0.0026275)
(0.00828001 0.00256689 0.00269163)
(0.00786694 0.00207668 0.00262778)
(0.00788313 0.00205841 0.00266542)
(0.00763107 0.00177369 0.00263676)
(0.00756726 0.00172969 0.0026618)
(0.00740907 0.00157443 0.00265655)
(0.00732249 0.00152299 0.00267594)
(0.00721475 0.00144061 0.00268376)
(0.00713144 0.00139645 0.0027017)
(0.007049 0.00135052 0.00271724)
(0.00697558 0.00131785 0.00273595)
(0.00690686 0.00128963 0.00275509)
(0.00684317 0.00126712 0.00277555)
(0.00678334 0.0012484 0.00279664)
(0.00672697 0.00123208 0.0028182)
(0.00667346 0.00122152 0.00284014)
(0.0066212 0.00119594 0.00286202)
(0.00658217 0.00122424 0.00288406)
(0.00651738 0.00112422 0.00290547)
(0.00651204 0.00128747 0.00293039)
(0.00640695 0.000971735 0.00294917)
(0.00646657 0.00144232 0.00297878)
(0.00628985 0.000699708 0.0029913)
(0.00644496 0.00171418 0.00302829)
(0.00616914 0.000269594 0.00302907)
(0.00644236 0.00211546 0.00307229)
(0.00605395 -0.000355269 0.00305069)
(0.00643458 0.0026442 0.00308519)
(0.00594419 -0.00121264 0.00300916)
(0.00632684 0.00328659 0.00298519)
(0.0057392 -0.00232373 0.00279768)
(0.00584826 0.004107 0.00267565)
(0.00527746 -0.0033056 0.0024605)
(0.00541711 0.00511282 0.00253087)
(0.0052887 -0.00499865 0.0023958)
(0.00686993 0.00448838 0.00333737)
(0.0105122 -0.0126454 0.00271113)
(0.0235275 -0.00469474 0.00075107)
(0.0373297 -0.0235853 0.00586545)
(0.04418 0.00177309 0.0214259)
(0.0407958 -0.0308421 0.0309116)
(0.0313746 0.0228842 0.0540399)
(0.0303221 -0.0438881 0.0584706)
(0.038877 0.0976092 0.0946992)
(0.0414987 -0.150444 0.107801)
(-0.0429455 0.354849 -0.0336633)
(0.0367556 -0.0778267 0.0415986)
(0.100787 0.481383 0.138357)
(0.0306185 0.587459 0.0251086)
(0.0221803 0.496466 0.0163058)
(0.0115859 0.559794 0.000549946)
(0.0134454 0.538962 0.00865344)
(0.00603158 0.558066 0.00650614)
(0.00532632 0.538383 0.00923378)
(0.00255909 0.540179 0.00834579)
(0.00388761 0.517171 0.0073363)
(0.00454719 0.504089 0.00678274)
(0.00714626 0.47587 0.00601156)
(0.00778817 0.46149 0.00519956)
(0.0102771 0.441924 0.00412444)
(0.0106674 0.415849 0.00252262)
(0.0117781 0.372719 0.00082755)
(0.0102895 0.316945 -0.000933464)
(0.00878411 0.266225 -0.00219722)
(0.00453185 0.212196 -0.00275244)
(-0.000325396 0.152881 -0.0026812)
(-0.00452943 0.105648 -0.00269134)
(-0.00687891 0.0844843 -0.00249377)
(-0.007193 0.0636159 -0.00118374)
(-0.00553787 0.0470767 -0.000873748)
(-0.00465347 0.0388416 -0.00100489)
(-0.0033821 0.0357463 -0.000999698)
(-0.00233645 0.0338105 -0.00128655)
(-0.00148433 0.0315845 -0.00108198)
(-0.00143113 0.0294936 -0.000861013)
(-0.00217038 0.0268932 -1.99246e-05)
(-0.00335518 0.0238085 0.00070726)
(-0.00417859 0.0211313 0.000927015)
(-0.00424271 0.0189374 0.000594594)
(-0.00370271 0.0173916 -9.13494e-05)
(-0.00321466 0.0183537 -0.000784844)
(-0.00320939 0.0203581 -0.000697965)
(-0.00387051 0.0217627 -0.000808215)
(0.0117515 0.0176837 0.00677702)
(0.0196704 0.0116156 0.0074351)
(0.0054545 0.00625458 0.00363948)
(0.011406 0.00982393 0.00357431)
(0.00560701 0.00525749 0.00300039)
(0.00915655 0.00781925 0.00323377)
(0.00621999 0.00469398 0.00302545)
(0.00833566 0.00604957 0.00344109)
(0.00653218 0.00384309 0.00329106)
(0.0076902 0.00454697 0.00361171)
(0.00648022 0.00299012 0.00349333)
(0.00704082 0.00337744 0.00367814)
(0.00625131 0.00235905 0.0035968)
(0.00646915 0.00256123 0.00370035)
(0.00598047 0.00195237 0.00365726)
(0.00601605 0.00203585 0.00372073)
(0.00572631 0.00170089 0.00370847)
(0.00567216 0.00171283 0.0037513)
(0.00549775 0.00153976 0.00376089)
(0.00541409 0.00151894 0.0037944)
(0.00530013 0.00143632 0.00381288)
(0.00521699 0.0014062 0.00384186)
(0.00513255 0.00136541 0.00386627)
(0.00505836 0.00134017 0.00389351)
(0.00498884 0.00131703 0.00392014)
(0.00492461 0.00129933 0.00394767)
(0.00486436 0.0012848 0.00397514)
(0.00480773 0.00127266 0.00400256)
(0.00475425 0.00126428 0.00402973)
(0.00470147 0.00124526 0.00405638)
(0.00466166 0.00126895 0.00408368)
(0.00460071 0.00118607 0.00410802)
(0.00459456 0.001329 0.00413807)
(0.00449405 0.00104861 0.00415843)
(0.0045543 0.00148046 0.00419226)
(0.00438354 0.000793656 0.00420618)
(0.00454369 0.00174952 0.00424519)
(0.0042748 0.000381741 0.00424704)
(0.004565 0.0021512 0.00428744)
(0.00418159 -0.000227262 0.00426173)
(0.00460254 0.00268228 0.00428032)
(0.00409611 -0.00108983 0.00418269)
(0.00455848 0.00328398 0.00412125)
(0.00382346 -0.00240039 0.00388506)
(0.00390511 0.00376962 0.00375566)
(0.00307754 -0.00403452 0.00355802)
(0.00373754 0.00401492 0.00384702)
(0.00407009 -0.00662949 0.00395586)
(0.00736227 0.00350265 0.00511321)
(0.0129372 -0.0137573 0.00301022)
(0.0263352 0.00140488 0.00360542)
(0.0335927 -0.00772911 0.0111669)
(0.04126 0.0198376 0.0235825)
(0.0388901 -0.0090102 0.034839)
(0.0221015 0.0340981 0.0552071)
(0.0118828 -0.0453851 0.0557583)
(0.0308573 0.0736374 0.0703932)
(0.0276662 -0.0987956 0.0579039)
(0.0283178 0.343509 0.0491342)
(0.0237633 -0.0755889 0.0387782)
(0.044389 0.502041 0.136707)
(0.0072926 0.608399 0.017645)
(0.0045073 0.554648 0.0118501)
(-0.00353602 0.618236 -6.76407e-05)
(-0.00377872 0.608686 0.00863617)
(-0.0053312 0.629669 0.00902877)
(-0.00240986 0.616827 0.0126244)
(-0.000169781 0.622581 0.0120761)
(0.0035625 0.608941 0.0117143)
(0.00597999 0.603064 0.0106109)
(0.00922077 0.576931 0.0095988)
(0.0110376 0.570651 0.00821561)
(0.0134172 0.563451 0.00679989)
(0.0140211 0.567618 0.00530959)
(0.0143283 0.561673 0.00410421)
(0.0129631 0.562557 0.00276882)
(0.0115912 0.559729 0.00142039)
(0.00972793 0.552385 0.000847213)
(0.0074374 0.540215 0.000990102)
(0.00503704 0.518607 0.000554111)
(0.00322285 0.491128 -0.000172825)
(0.00168773 0.460522 -0.000328025)
(0.00089903 0.427778 -0.000466251)
(0.000306809 0.384464 -0.000325181)
(0.000458054 0.337259 -0.000271052)
(5.20409e-05 0.308011 -1.21037e-05)
(-7.33126e-05 0.267108 -1.85444e-05)
(-0.00104926 0.214685 0.000371761)
(-0.00230394 0.135026 0.00128208)
(-0.00401581 0.0828757 0.00185816)
(-0.005461 0.0386535 0.00260313)
(-0.00627977 0.0248007 0.00231137)
(-0.00705878 0.0185175 0.00184556)
(-0.00734418 0.0179257 0.000311525)
(-0.00614816 0.0188242 -0.00180063)
(-0.0065611 0.0202913 -0.00590331)
(0.00653183 0.0153741 0.00797687)
(0.0193213 0.013424 0.0082184)
(0.000458883 0.00550514 0.00411899)
(0.00945739 0.0118952 0.00415239)
(0.00215956 0.00480705 0.00357826)
(0.00696687 0.00886537 0.00383599)
(0.00322141 0.00423066 0.00373115)
(0.00582651 0.00643347 0.00418607)
(0.0034976 0.00342782 0.0041204)
(0.00485566 0.00464537 0.00451785)
(0.00327826 0.00266923 0.00445109)
(0.00389674 0.00338251 0.0046883)
(0.0028486 0.00214154 0.00462432)
(0.00306065 0.00254472 0.00475644)
(0.0024019 0.00182509 0.0047173)
(0.00241186 0.00202444 0.00479626)
(0.00201724 0.00163923 0.00478226)
(0.00193624 0.00171425 0.00483385)
(0.00169896 0.00152324 0.00483912)
(0.00158737 0.0015345 0.00487536)
(0.00144085 0.00144922 0.00489333)
(0.00133647 0.0014319 0.00492293)
(0.00123285 0.00139451 0.00494588)
(0.00114471 0.00137564 0.00497226)
(0.00106383 0.00135673 0.00499717)
(0.000990399 0.00134303 0.00502187)
(0.000923106 0.00133168 0.00504596)
(0.000862169 0.00132223 0.00507039)
(0.000806818 0.00131637 0.00509527)
(0.000754399 0.00130257 0.0051206)
(0.000712385 0.00132264 0.00514655)
(0.000655935 0.00125592 0.00516766)
(0.000648499 0.00138017 0.00519642)
(0.000555553 0.00113446 0.00521165)
(0.000617137 0.00152946 0.00524564)
(0.000456997 0.00090009 0.0052517)
(0.000627116 0.00179912 0.00529328)
(0.000371267 0.000511801 0.00528347)
(0.000690015 0.00220605 0.00532936)
(0.000322906 -7.00218e-05 0.00528492)
(0.000823531 0.00274619 0.00532142)
(0.000350224 -0.00093928 0.00519629)
(0.00106274 0.00326551 0.00519609)
(0.000432269 -0.00251347 0.00498209)
(0.000846003 0.00312964 0.00505966)
(0.000239556 -0.00435832 0.00501111)
(0.000567785 0.0036897 0.00501764)
(0.000102384 -0.00620748 0.00501855)
(0.00237964 0.00332729 0.00552613)
(0.00804819 -0.01159 0.00363621)
(0.0158014 0.012676 0.00743823)
(0.0230366 0.00946885 0.0134896)
(0.0318547 0.043899 0.0231256)
(0.029831 0.0208298 0.0327034)
(0.0203474 0.0656597 0.0518176)
(0.00536778 -0.0258904 0.0470216)
(-0.00305451 0.0839379 0.0552399)
(-0.006346 -0.0956336 0.0405156)
(0.0137747 0.332268 0.0581285)
(0.011684 -0.0777448 0.0408101)
(0.0104863 0.507953 0.114318)
(-0.0137414 0.608423 0.0124395)
(-0.0143606 0.562568 0.0025261)
(-0.0164362 0.629366 -0.00302913)
(-0.010748 0.604696 0.0104434)
(-0.00608451 0.624765 0.0132667)
(-0.000731951 0.610462 0.018422)
(0.00282797 0.610359 0.0171856)
(0.00633244 0.592413 0.017563)
(0.00764422 0.580806 0.0157092)
(0.0106854 0.569836 0.0153971)
(0.0118701 0.545454 0.0134625)
(0.014467 0.542636 0.0130855)
(0.0148637 0.539724 0.0107735)
(0.0150282 0.542095 0.0100976)
(0.0132575 0.538757 0.00811596)
(0.0111966 0.532254 0.00661777)
(0.00841343 0.528652 0.00376167)
(0.00646756 0.531971 0.00179362)
(0.00461321 0.536404 0.000260123)
(0.00370998 0.541012 -0.00118491)
(0.00207141 0.550861 -0.002815)
(0.000521885 0.5753 -0.00440497)
(-0.00108364 0.575331 -0.00566318)
(-0.00240215 0.570307 -0.00691815)
(-0.00354337 0.565459 -0.0074429)
(-0.0044339 0.558754 -0.00755585)
(-0.00534052 0.54892 -0.00664578)
(-0.00653017 0.539566 -0.00607073)
(-0.00779365 0.530651 -0.00586501)
(-0.00894059 0.523424 -0.00590514)
(-0.00981951 0.514157 -0.00551271)
(-0.0108491 0.488709 -0.0057925)
(-0.0112229 0.428004 -0.0049919)
(-0.0114382 0.274876 -0.00518783)
(-0.0126252 0.16158 -0.0109126)
(-0.00110094 0.00971404 0.00739812)
(0.0180252 0.0166242 0.00786372)
(-0.00467997 0.00456124 0.00431937)
(0.00769864 0.0148215 0.00428542)
(-0.00116422 0.00434481 0.00429517)
(0.00480222 0.0101574 0.00440663)
(0.000196056 0.00363969 0.00470669)
(0.00317104 0.00678393 0.00505467)
(0.000363331 0.00278321 0.00521088)
(0.00180871 0.00460272 0.00560526)
(-4.51856e-05 0.00209866 0.00566719)
(0.00060255 0.00321185 0.00593494)
(-0.00060449 0.00168745 0.00595398)
(-0.000358014 0.0023627 0.00613575)
(-0.00109472 0.00151062 0.00615641)
(-0.00104491 0.00188787 0.00628378)
(-0.00146406 0.00145213 0.00631466)
(-0.00150679 0.00163189 0.00641004)
(-0.00173234 0.00143551 0.00645138)
(-0.00180438 0.00150447 0.0065258)
(-0.00192028 0.00143215 0.00657485)
(-0.00198509 0.00144641 0.00663509)
(-0.00204993 0.0014265 0.00668447)
(-0.00209564 0.00142634 0.00673709)
(-0.00213279 0.00142261 0.00678673)
(-0.00215997 0.00142234 0.00683615)
(-0.00217987 0.00142216 0.00688427)
(-0.00219519 0.00142242 0.0069308)
(-0.00220707 0.00142391 0.00697557)
(-0.0022156 0.00141976 0.00701969)
(-0.00221468 0.00144095 0.00706247)
(-0.0022236 0.0013947 0.00710202)
(-0.00218848 0.00150547 0.00714651)
(-0.00223281 0.00130314 0.00717931)
(-0.00212344 0.00166266 0.00722934)
(-0.00223742 0.00110698 0.00725187)
(-0.00200938 0.00194829 0.00730686)
(-0.00222201 0.00077096 0.00731297)
(-0.00183004 0.00238586 0.00736817)
(-0.00215065 0.000257721 0.00734244)
(-0.00153908 0.00296231 0.00738522)
(-0.00194481 -0.000545353 0.00729494)
(-0.0010637 0.00345057 0.00731712)
(-0.00166305 -0.0021512 0.0071685)
(-0.00209806 0.00314897 0.00702925)
(-0.00404874 -0.00510725 0.00670441)
(-0.00332239 0.0007768 0.0062187)
(-0.00208094 -0.0114603 0.00593871)
(0.00296955 -0.00388902 0.00532818)
(0.00346513 -0.0147611 0.00449869)
(0.00582619 0.014672 0.0104169)
(0.0100192 0.0193762 0.0154566)
(0.0194558 0.0582705 0.0209492)
(0.02577 0.049713 0.0277348)
(0.0338268 0.0888931 0.0454415)
(0.0271411 0.0274076 0.0545473)
(0.0409235 0.104594 0.0822106)
(0.0194079 -0.118399 0.0740492)
(0.0336684 0.288011 0.0365075)
(-0.00816509 -0.0412476 0.0257547)
(-0.0515344 0.564145 0.0626282)
(-0.0376811 0.661763 -0.00620758)
(-0.0328747 0.593968 -0.000666568)
(-0.0258638 0.647266 -0.00303695)
(-0.0159484 0.624871 0.00676834)
(-0.00635727 0.639677 0.00881155)
(0.000709813 0.620122 0.0140435)
(0.00780207 0.608841 0.0166795)
(0.0120402 0.596866 0.0207767)
(0.0148658 0.584755 0.0222041)
(0.0168908 0.570623 0.0228039)
(0.0184477 0.56439 0.021855)
(0.0205333 0.552804 0.0213762)
(0.0222691 0.532116 0.0203782)
(0.0237385 0.510813 0.0201886)
(0.0235938 0.508064 0.0196158)
(0.0222427 0.501573 0.0194884)
(0.0199113 0.496208 0.0186317)
(0.0170914 0.487454 0.0177267)
(0.0143092 0.476569 0.0170217)
(0.0120098 0.473027 0.0162725)
(0.010399 0.466313 0.0156663)
(0.00936711 0.45764 0.015452)
(0.00863578 0.448085 0.0150765)
(0.00791648 0.440529 0.0142437)
(0.00703351 0.433176 0.0130404)
(0.00521217 0.425644 0.0113197)
(0.00310734 0.413753 0.00964508)
(0.00137908 0.395453 0.00745825)
(-0.000421801 0.372601 0.00442529)
(-0.00259748 0.33974 -0.000204248)
(-0.00450512 0.331434 -0.00620569)
(-0.00803326 0.349386 -0.0159105)
(-0.0127164 0.393761 -0.0303371)
(-0.0176532 0.404668 -0.0488808)
(-0.0200672 0.397221 -0.0695568)
(-0.010762 0.00704733 -0.0032487)
(0.0161086 0.0217149 0.00587799)
(-0.0104488 0.00321699 -0.000323464)
(0.00569021 0.017821 0.000894923)
(-0.00454861 0.00328439 0.00127943)
(0.0023026 0.0111453 0.00151586)
(-0.00328755 0.00274463 0.00204771)
(-1.51298e-05 0.00700285 0.0024433)
(-0.00348092 0.00208966 0.00269615)
(-0.00193792 0.00455976 0.0031388)
(-0.00420104 0.00165224 0.00326701)
(-0.00356253 0.00314776 0.0035426)
(-0.00499863 0.00144227 0.00360981)
(-0.00480514 0.00232803 0.00377856)
(-0.00567154 0.00139478 0.00382925)
(-0.00566272 0.00188975 0.00395015)
(-0.00615792 0.00142509 0.00399408)
(-0.00622861 0.00167219 0.00408753)
(-0.00650026 0.00147073 0.00413283)
(-0.00659596 0.00157596 0.00420606)
(-0.00674012 0.00151205 0.00425561)
(-0.00682492 0.001545 0.00431552)
(-0.00690807 0.00153592 0.00436489)
(-0.00697028 0.00154544 0.00441701)
(-0.00702237 0.0015495 0.00446589)
(-0.00706359 0.0015561 0.00451418)
(-0.00709605 0.00156294 0.00456103)
(-0.00712001 0.00157012 0.00460668)
(-0.00713652 0.00157794 0.00465099)
(-0.00714786 0.00158026 0.00469429)
(-0.00715246 0.00160011 0.00473546)
(-0.00716065 0.00156681 0.0047766)
(-0.00713303 0.00166351 0.00481618)
(-0.00717355 0.0014926 0.00485448)
(-0.00707448 0.00181575 0.00489238)
(-0.00718082 0.00131989 0.00492984)
(-0.00696399 0.00209602 0.00496248)
(-0.00716449 0.00101549 0.00499717)
(-0.00678486 0.0025316 0.00502036)
(-0.00708376 0.000539148 0.00504487)
(-0.00647584 0.00308466 0.00505516)
(-0.00682984 -0.000248622 0.00506567)
(-0.00596157 0.0033736 0.00509117)
(-0.00648643 -0.00214399 0.00515813)
(-0.00566511 0.00188503 0.00480826)
(-0.00447616 -0.00692221 0.00384647)
(-0.00100415 -0.000952018 0.00393178)
(-0.000549751 -0.00929112 0.0018813)
(-0.00344554 0.00838064 0.00100615)
(-0.0108125 0.00888684 0.00427204)
(-0.0169351 0.0347475 0.00996191)
(-0.0132027 0.0332288 0.0189308)
(-0.00471331 0.064896 0.022745)
(0.00510034 0.0488994 0.0194737)
(0.0101259 0.101992 0.0332654)
(0.017482 0.0482889 0.039507)
(0.049285 0.128626 0.0595869)
(0.0368176 -0.0424274 0.079783)
(0.0421134 0.330874 0.0384283)
(-0.0366884 -0.0850164 0.0158286)
(-0.101922 0.53478 0.046312)
(-0.0448526 0.653401 -0.000848133)
(-0.0395161 0.588418 0.00128878)
(-0.0211222 0.641177 -0.000635152)
(-0.0140535 0.60314 0.00580885)
(-0.00354311 0.616706 0.00492209)
(0.00197234 0.596424 0.0062461)
(0.00947837 0.603051 0.00682753)
(0.0108302 0.593634 0.00685884)
(0.0121956 0.595219 0.00607315)
(0.0123365 0.58597 0.00559228)
(0.0141341 0.586735 0.00506942)
(0.0154479 0.579762 0.00471009)
(0.0181244 0.586508 0.00390886)
(0.0199275 0.584856 0.00426359)