/*--------------------------------*- C++ -*----------------------------------*\
| =========                 |                                                 |
| \\      /  F ield         | OpenFOAM: The Open Source CFD Toolbox           |
|  \\    /   O peration     | Version:  2.3.0                                 |
|   \\  /    A nd           | Web:      www.OpenFOAM.org                      |
|    \\/     M anipulation  |                                                 |
\*---------------------------------------------------------------------------*/
FoamFile
{
    version     2.0;
    format      ascii;
    class       volVectorField;
    location    "7";
    object      U.water;
}
// * * * * * * * * * * * * * * * * * * * * * * * * * * * * * * * * * * * * * //

dimensions      [0 1 -1 0 0 0 0];

internalField   nonuniform List<vector> 
6144
(
(0.00894898 0.0216698 -0.000755975)
(0.00843611 0.00534493 -0.000894886)
(0.00545172 0.00395441 -0.00203734)
(0.00540184 0.00196492 -0.00220009)
(0.00463648 0.00138083 -0.0023289)
(0.00466377 0.00141495 -0.0023746)
(0.00446709 0.00123073 -0.00243282)
(0.00456355 0.00127573 -0.00245186)
(0.00450426 0.00110807 -0.00256316)
(0.00463225 0.00102152 -0.00259674)
(0.00459073 0.000773452 -0.00272534)
(0.00469782 0.000647349 -0.00276779)
(0.00465834 0.000382424 -0.00287684)
(0.00472572 0.000276208 -0.00291655)
(0.00469281 5.81664e-05 -0.00299576)
(0.00472915 -1.18338e-05 -0.00302681)
(0.00470926 -0.000163234 -0.00307984)
(0.00472487 -0.000207359 -0.00310392)
(0.00471515 -0.000294696 -0.00313766)
(0.00472029 -0.000325915 -0.00315649)
(0.00471645 -0.00036849 -0.00317741)
(0.004717 -0.000389612 -0.00319192)
(0.00471561 -0.000409048 -0.00320538)
(0.00471507 -0.000421074 -0.00321623)
(0.00471431 -0.000429668 -0.00322566)
(0.00471371 -0.000436836 -0.0032336)
(0.00471266 -0.000438351 -0.00324075)
(0.00471193 -0.000450266 -0.00324615)
(0.00471345 -0.000435254 -0.00325165)
(0.00470944 -0.000481445 -0.00325417)
(0.00471487 -0.000422843 -0.00325994)
(0.00470809 -0.00053707 -0.00326122)
(0.00472136 -0.000411602 -0.00326617)
(0.00470923 -0.000629654 -0.00326796)
(0.00473196 -0.000420107 -0.00326984)
(0.00471509 -0.00077518 -0.00327411)
(0.00474562 -0.000482153 -0.00327229)
(0.00472934 -0.000988729 -0.00328146)
(0.00475466 -0.000635968 -0.0032752)
(0.004747 -0.00129974 -0.00329615)
(0.00476026 -0.000908433 -0.00328985)
(0.00473325 -0.00165271 -0.0033308)
(0.00472925 -0.00123585 -0.00333996)
(0.00465083 -0.00191027 -0.00340447)
(0.00461755 -0.00141312 -0.00340266)
(0.004465 -0.00198387 -0.00341778)
(0.004322 -0.00150873 -0.00324678)
(0.00386903 -0.00239995 -0.00311855)
(0.00303002 -0.00155527 -0.00237619)
(0.00221844 -0.00347978 -0.00179911)
(-0.00165734 0.00118755 -0.00296366)
(0.00322849 0.0141633 -0.00556998)
(0.0241625 0.0127665 -0.011675)
(0.0310516 -0.0300275 -0.0079748)
(0.0342856 -0.0449722 -0.00578946)
(0.033684 -0.0930571 -0.00303669)
(0.0205892 -0.0622365 -0.0193755)
(0.0218266 -0.115172 0.00959375)
(-0.0368876 -0.0166336 -0.0648787)
(0.030861 -0.0235633 0.0381729)
(0.148665 -0.301952 0.0838259)
(0.0974006 -0.144941 0.0432177)
(0.0615179 -0.192997 0.0245387)
(0.0467631 -0.207808 0.01479)
(0.0413212 -0.202329 0.0134225)
(0.0338627 -0.199839 0.0139252)
(0.0275255 -0.197588 0.0124983)
(0.021988 -0.198716 0.0137897)
(0.0188693 -0.194859 0.0133051)
(0.0161583 -0.190593 0.0151554)
(0.0142628 -0.186233 0.0171165)
(0.011768 -0.183482 0.0186066)
(0.00997238 -0.177306 0.0187436)
(0.00665341 -0.172922 0.0172319)
(0.00407185 -0.166768 0.0137598)
(-0.000921685 -0.164586 0.0128709)
(-0.00229745 -0.160292 0.00811434)
(-0.00162017 -0.161121 0.00697001)
(-0.00156786 -0.164668 0.00768864)
(-0.000475702 -0.170824 0.0103871)
(-0.00101894 -0.17827 0.0142676)
(-0.00152185 -0.180186 0.0166505)
(-0.00441822 -0.182078 0.0165417)
(-0.00951859 -0.18014 0.0172975)
(-0.0155208 -0.170382 0.0157996)
(-0.0343078 -0.144802 0.00685084)
(-0.0339887 -0.0621125 0.00465069)
(-0.0107171 -0.00395933 -0.005373)
(-0.00116268 0.047331 -0.011164)
(-0.000948237 0.0707801 -0.00934309)
(-0.000310029 0.0710654 0.00763899)
(0.00432973 0.0530175 0.0115911)
(0.00701058 0.0286081 0.00765284)
(0.00647656 0.0114304 0.00330919)
(0.00539923 0.00316251 0.000182432)
(0.00469521 0.000402498 -0.00107632)
(0.0174099 0.0206298 0.00392477)
(0.0174012 0.00702121 0.00336924)
(0.0105989 0.00501483 0.000821041)
(0.0108585 0.003865 0.000614663)
(0.00888074 0.00305109 0.000226602)
(0.00919276 0.00344021 0.000243478)
(0.0088057 0.00305841 0.000135291)
(0.00912349 0.00311459 0.00021649)
(0.00906038 0.00272748 7.6522e-05)
(0.00939909 0.00252762 0.000132444)
(0.00932941 0.00208903 -7.84013e-05)
(0.00960356 0.00183323 -7.16396e-05)
(0.00950574 0.00142721 -0.000273963)
(0.00968415 0.00121887 -0.000285246)
(0.00958952 0.000894302 -0.00044085)
(0.00968855 0.00075285 -0.000455458)
(0.00962086 0.000523468 -0.000557672)
(0.00966542 0.000433765 -0.000574709)
(0.00962824 0.000292524 -0.000632025)
(0.00964317 0.000232281 -0.000648034)
(0.00962697 0.000155268 -0.000677081)
(0.00962841 0.000113952 -0.000689512)
(0.00962213 7.34906e-05 -0.000702637)
(0.00961967 4.64399e-05 -0.000710143)
(0.00961654 2.47531e-05 -0.000715506)
(0.00961429 6.68546e-06 -0.000718172)
(0.00961214 -3.27651e-06 -0.000719397)
(0.0096104 -2.08533e-05 -0.000717976)
(0.00961323 -1.38775e-05 -0.000714524)
(0.00960722 -6.38685e-05 -0.000709817)
(0.00962071 -2.77522e-06 -0.000705348)
(0.00960496 -0.000137597 -0.000700267)
(0.00963731 1.72638e-05 -0.000692359)
(0.0096088 -0.000255136 -0.000689263)
(0.00966698 2.889e-05 -0.000673171)
(0.00962658 -0.000436528 -0.00067577)
(0.0097083 7.48303e-07 -0.000651329)
(0.00966487 -0.000700158 -0.000665068)
(0.00975494 -0.000105162 -0.000634851)
(0.00970787 -0.00106658 -0.000673521)
(0.00976781 -0.000334562 -0.000670796)
(0.0096767 -0.00146586 -0.000766753)
(0.00964887 -0.000615476 -0.000842644)
(0.00945325 -0.00166564 -0.00102831)
(0.00933826 -0.00065111 -0.00113141)
(0.0090458 -0.00146857 -0.00117535)
(0.00888672 -0.000602283 -0.000947006)
(0.0080615 -0.00232838 -0.000578999)
(0.00661279 -0.00138941 0.000380258)
(0.00424055 -0.00621097 0.00116343)
(0.000277668 -0.000708961 0.000794981)
(0.00638591 -0.0173595 0.00127083)
(0.0475815 -0.0307403 -0.00177843)
(0.0682561 -0.0679752 0.0122976)
(0.059116 -0.0760377 0.0240255)
(0.0477152 -0.1259 0.0298375)
(0.0227307 -0.0993338 0.014851)
(0.021876 -0.19421 0.0439927)
(-0.102781 0.00718416 -0.0856083)
(-0.000204243 -0.100067 -0.00465984)
(0.171678 -0.247428 0.121246)
(0.0834618 0.00346747 0.047577)
(0.015314 -0.0935841 0.0182583)
(0.022103 -0.0452152 0.0176523)
(0.0158451 -0.0616809 0.0148062)
(0.00818853 -0.066002 0.00916699)
(0.00420855 -0.0633479 0.0109756)
(0.000353029 -0.0474781 0.0132142)
(0.0031984 -0.0201724 0.0136859)
(0.00181867 -0.00447318 0.0160247)
(-0.00178833 0.00622641 0.0202406)
(-0.00266476 0.0184347 0.0232575)
(-0.00443264 0.0263165 0.0169938)
(-0.00341106 0.0318748 0.0131685)
(0.00425601 0.0238819 0.0117263)
(0.0124022 0.0112027 0.00710221)
(0.0275005 -0.00455304 -0.00229528)
(0.0384322 -0.0162333 -0.00177624)
(0.0387243 -0.0369448 0.00573487)
(0.0329574 -0.0586915 0.0147556)
(0.0227898 -0.0748626 0.0183284)
(0.0173342 -0.0771505 0.0117744)
(0.0114556 -0.0760014 0.0089656)
(0.00487595 -0.0812145 0.0165951)
(-0.0148665 -0.0930072 0.0176997)
(-0.0417003 -0.0821247 0.00639096)
(-0.050518 -0.0325386 0.00511256)
(-0.0276281 -0.00316033 -0.000622701)
(-0.0123109 0.037139 -0.00726927)
(-0.0119214 0.0607996 -0.000145264)
(-0.0146551 0.0590519 0.0178177)
(-0.00824033 0.0444166 0.0238993)
(0.00138563 0.0240145 0.0172452)
(0.00432781 0.00745995 0.00955511)
(0.00301115 0.000595477 0.00432334)
(0.00214445 -0.000402928 0.00174409)
(0.0197591 0.0185568 0.00578772)
(0.0211916 0.00831136 0.00579134)
(0.0116861 0.0044527 0.00319682)
(0.0124515 0.00457168 0.00302737)
(0.0095803 0.00279566 0.00277466)
(0.0100539 0.00370177 0.00282327)
(0.00950627 0.00307408 0.00289095)
(0.00994098 0.00330476 0.00304378)
(0.0098822 0.00282016 0.00300767)
(0.0103145 0.00268447 0.003114)
(0.0102632 0.00214726 0.00296498)
(0.0106099 0.00192595 0.00298145)
(0.0105154 0.00144496 0.00279755)
(0.0107453 0.00126312 0.00278277)
(0.0106417 0.000895409 0.00262517)
(0.0107707 0.000772272 0.0026096)
(0.0106896 0.000521816 0.00249905)
(0.0107478 0.000444799 0.00248844)
(0.0106973 0.000293152 0.00242669)
(0.0107139 0.000242572 0.00242337)
(0.0106866 0.000161809 0.00239859)
(0.0106829 0.000126343 0.00240203)
(0.0106667 8.61493e-05 0.00240083)
(0.0106553 6.2265e-05 0.00240963)
(0.0106419 4.21832e-05 0.00242032)
(0.0106293 2.72403e-05 0.0024351)
(0.0106164 1.77033e-05 0.00245193)
(0.010604 1.47076e-06 0.00247099)
(0.0105951 9.48464e-06 0.00249221)
(0.010579 -3.35726e-05 0.00251365)
(0.0105848 2.22535e-05 0.00253733)
(0.0105552 -9.7575e-05 0.00255933)
(0.0105857 4.63748e-05 0.00258716)
(0.0105413 -0.000203442 0.0026054)
(0.0106073 6.31363e-05 0.00264285)
(0.0105499 -0.000373293 0.00265186)
(0.0106529 3.99028e-05 0.0026997)
(0.0105904 -0.000634784 0.0026915)
(0.0107265 -6.80768e-05 0.00274269)
(0.0106667 -0.00101276 0.00269194)
(0.0108006 -0.000317791 0.00269433)
(0.0107194 -0.00148519 0.00253105)
(0.0107706 -0.000649852 0.0023556)
(0.010594 -0.00183319 0.00197272)
(0.0105259 -0.000741211 0.00157319)
(0.0104186 -0.00164318 0.00129131)
(0.0108274 -0.00107661 0.00139092)
(0.0105784 -0.00353311 0.00167442)
(0.0110927 -0.00548216 0.00233188)
(0.00792065 -0.014314 0.00332378)
(0.0117671 -0.0172648 0.00400802)
(0.0348205 -0.0448227 -0.00330317)
(0.0740481 -0.0540892 0.00139722)
(0.0843986 -0.0841728 0.0210096)
(0.071264 -0.0828891 0.0315621)
(0.0602403 -0.131948 0.0349923)
(0.0204904 -0.0921948 0.0145533)
(0.0346584 -0.224345 0.0558378)
(-0.111854 0.0446408 -0.068959)
(0.0262395 -0.156887 -0.0336421)
(0.168075 -0.205321 0.138925)
(0.0934912 0.0595486 0.0489283)
(0.0561371 -0.0735141 0.0418124)
(0.0479287 -0.00678534 0.00923719)
(0.0358557 -0.0352822 0.0173386)
(0.0286705 -0.0341942 0.0210794)
(0.0111183 -0.0295488 0.0299759)
(-0.00608442 -0.0220331 0.0304831)
(-0.00438064 -0.00747218 0.0259101)
(0.00243979 0.00744469 0.0133933)
(-0.00216405 0.0165952 -0.00141606)
(-0.0100503 0.0282594 -0.0126129)
(-0.0072399 0.0376661 -0.0104173)
(0.00756095 0.0449549 0.00398619)
(0.0248517 0.042471 0.00904524)
(0.0343885 0.0327308 0.00651769)
(0.0470191 0.0248166 0.00198296)
(0.0574562 0.0175197 0.00340813)
(0.0521882 -0.00540223 0.00830907)
(0.0356855 -0.0309218 0.021079)
(0.0112459 -0.0576893 0.032294)
(0.000753001 -0.0725594 0.0223009)
(0.00197881 -0.0677806 -0.0033831)
(-0.00229898 -0.0487434 -0.0124608)
(-0.0404307 -0.0294373 0.00218634)
(-0.0735208 -0.0129804 0.00214954)
(-0.0573833 -0.00312886 0.00423913)
(-0.0267564 0.0114953 -0.00332282)
(-0.013203 0.0382451 -0.0105667)
(-0.0124525 0.0560857 0.0017885)
(-0.0189468 0.0512316 0.0190255)
(-0.0196675 0.0364232 0.0268958)
(-0.0113677 0.0182893 0.0232157)
(-0.00342766 0.00396636 0.0142944)
(-0.00283987 -0.00182844 0.00815425)
(-0.00336189 -0.00107926 0.00492505)
(0.0195301 0.0173078 0.0066372)
(0.022851 0.0112849 0.00721056)
(0.011291 0.00536631 0.00457316)
(0.0130289 0.00684269 0.00369762)
(0.00913577 0.00346381 0.00369815)
(0.00976914 0.00489648 0.00348226)
(0.0089452 0.00368523 0.00371939)
(0.00950829 0.00414941 0.00384924)
(0.00938197 0.0034098 0.00397932)
(0.00990593 0.00334808 0.00412899)
(0.00978532 0.00258321 0.00413604)
(0.0101829 0.00238637 0.00417668)
(0.0100079 0.00173799 0.0041077)
(0.0102636 0.00157644 0.00410557)
(0.0100972 0.0011009 0.00402359)
(0.0102394 0.0010119 0.00402019)
(0.0101087 0.000695083 0.00396506)
(0.0101679 0.000642877 0.0039717)
(0.0100818 0.000454112 0.0039413)
(0.0100925 0.000417245 0.00395549)
(0.0100422 0.000318584 0.00394839)
(0.0100291 0.000289069 0.00396703)
(0.0099974 0.000242291 0.00397781)
(0.0099747 0.000219997 0.00399832)
(0.00994887 0.000197955 0.00401895)
(0.0099248 0.000183736 0.00404302)
(0.00990057 0.000172962 0.00406813)
(0.00987623 0.000160097 0.00409466)
(0.00985533 0.000165431 0.00412193)
(0.00982942 0.000130274 0.00414983)
(0.00982714 0.000179771 0.00417954)
(0.00978687 7.51718e-05 0.00420921)
(0.00981631 0.000210197 0.00424328)
(0.00976024 -2.15181e-05 0.00427322)
(0.00983613 0.000239437 0.00431353)
(0.00976765 -0.000177724 0.00434284)
(0.00989626 0.000235671 0.00438863)
(0.00982797 -0.000434708 0.00441509)
(0.0100104 0.00014262 0.00445154)
(0.0099542 -0.000836614 0.00445153)
(0.0101659 -0.000121867 0.00442139)
(0.0100935 -0.0013929 0.00428088)
(0.0102451 -0.000551564 0.00400534)
(0.0100242 -0.00192224 0.00352437)
(0.00997415 -0.000725146 0.00288558)
(0.0100302 -0.00158026 0.00247014)
(0.0110589 -0.0010934 0.00249035)
(0.0120381 -0.0035539 0.00288929)
(0.0152778 -0.0076508 0.00442755)
(0.0155856 -0.0179053 0.00857447)
(0.0205791 -0.0359267 0.00553008)
(0.0572143 -0.0630435 0.00169379)
(0.0774126 -0.0599753 0.0142716)
(0.0778348 -0.0764544 0.0373354)
(0.0517323 -0.0375174 0.0665791)
(0.0393962 -0.10432 0.0711838)
(0.033335 -0.00753648 0.117611)
(0.0824971 -0.221658 0.130547)
(-0.175341 0.191917 -0.0208754)
(0.00391732 -0.248058 0.0214613)
(0.103595 -0.17425 0.151151)
(0.0394629 0.0711734 0.0412684)
(0.0177736 -0.0451464 0.0491766)
(0.00376602 0.032385 -0.00934189)
(-0.00138451 0.00928989 0.019697)
(-0.0201126 0.0183054 0.0229737)
(-0.0293669 0.0107875 0.0286566)
(-0.0366178 0.0056867 0.0220747)
(-0.0359429 0.0155101 0.00633927)
(-0.0303687 0.0385555 0.000166482)
(-0.0238633 0.0554122 0.00400581)
(-0.0164883 0.062326 0.0103503)
(-0.0111589 0.0620917 0.0194829)
(-0.000814417 0.0555013 0.0201308)
(0.0192227 0.0517727 0.0158366)
(0.029016 0.041784 0.00964199)
(0.0445939 0.0367249 0.00181656)
(0.0535456 0.0334727 -0.00696859)
(0.0562836 0.035811 -0.0149378)
(0.0479116 0.03549 -0.0199491)
(0.0176671 0.0154858 -0.017447)
(-0.010415 0.00227316 -0.0203795)
(-0.0206909 0.0158818 -0.0228857)
(-0.0336909 0.0266013 -0.0142251)
(-0.0462084 0.0295959 -0.0121534)
(-0.0489923 0.0260256 -0.00999678)
(-0.0306615 0.0266032 -0.00999381)
(-0.0190804 0.0344234 -0.0198464)
(-0.00962154 0.0493304 -0.0130068)
(-0.012327 0.0537093 0.00481237)
(-0.0217624 0.046407 0.0201531)
(-0.0290806 0.0317371 0.028559)
(-0.0260913 0.0125535 0.0258989)
(-0.0170354 -0.000351034 0.015353)
(-0.0130054 -0.00474086 0.00831795)
(-0.0119479 -0.00242854 0.00481767)
(0.0166666 0.0167268 0.00666417)
(0.0237071 0.0133933 0.00807326)
(0.00936856 0.00576307 0.00493291)
(0.0129283 0.00928493 0.00346202)
(0.0079814 0.00401321 0.00370517)
(0.00886894 0.00594679 0.00292221)
(0.00749671 0.00381476 0.00340823)
(0.00805289 0.00464192 0.00349224)
(0.00772529 0.00362048 0.00390486)
(0.00820763 0.00377986 0.00425079)
(0.00801008 0.00285087 0.00446)
(0.00833232 0.00277038 0.00460421)
(0.00811003 0.00197928 0.00464942)
(0.00831487 0.00187798 0.00468514)
(0.00809993 0.0013064 0.00466879)
(0.00821464 0.00124722 0.0046841)
(0.00804764 0.000874731 0.00466384)
(0.00808898 0.00085193 0.00468527)
(0.00797114 0.000626174 0.00468453)
(0.00796519 0.000609399 0.00471632)
(0.00788748 0.000490566 0.00472628)
(0.00785933 0.000470102 0.00476067)
(0.007807 0.00041547 0.00478357)
(0.007768 0.000395817 0.00481686)
(0.00772508 0.000372031 0.00484889)
(0.00768505 0.000358425 0.00488553)
(0.00764554 0.000347788 0.0049222)
(0.00760715 0.000338193 0.00495855)
(0.00757076 0.000339623 0.00499474)
(0.00753239 0.000311628 0.00502835)
(0.00751649 0.000356185 0.0050617)
(0.00746632 0.000268659 0.00509642)
(0.00748406 0.000392497 0.00513691)
(0.00741605 0.00018997 0.00517377)
(0.00748756 0.000437626 0.00521571)
(0.00740969 6.11789e-05 0.00525795)
(0.00755517 0.000462314 0.00530004)
(0.00748971 -0.000157428 0.00534719)
(0.00773636 0.000406705 0.00536657)
(0.00772 -0.000522723 0.00539059)
(0.00809161 0.000185706 0.00528517)
(0.00815301 -0.00106118 0.00512011)
(0.00859672 -0.000300034 0.00463146)
(0.00845006 -0.00185047 0.00399269)
(0.00833541 -0.000967167 0.00316968)
(0.00853107 -0.00213661 0.00284379)
(0.00991156 -0.00247875 0.00319643)
(0.0122912 -0.00572262 0.00406671)
(0.0176391 -0.0102952 0.00768823)
(0.0247633 -0.0240269 0.0137325)
(0.0390618 -0.0476614 0.00642965)
(0.0716014 -0.0609531 0.0167956)
(0.0695639 -0.052444 0.0224896)
(0.0467776 -0.0685761 0.0318898)
(0.00532226 -0.0233236 0.0690292)
(0.0300956 -0.086924 0.0890412)
(0.0238804 0.0594959 0.126687)
(0.0410728 -0.0455709 0.060905)
(-0.0729284 0.422714 -0.00439987)
(0.0103521 -0.307392 0.0273952)
(0.069068 -0.149472 0.169885)
(0.0166375 0.0774611 0.0459886)
(0.0171513 -0.00391312 0.0429811)
(-0.000160158 0.0591982 0.00759149)
(0.00166476 0.0526766 0.0246217)
(-0.00588247 0.0592612 0.0289554)
(-0.0149517 0.0545137 0.0303338)
(-0.0336678 0.0509964 0.0191297)
(-0.040914 0.0565725 0.0118675)
(-0.0384668 0.0667432 0.0123294)
(-0.0312221 0.0779761 0.0203406)
(-0.0210011 0.0752073 0.0259019)
(-0.00773908 0.0724842 0.0272721)
(0.00558606 0.051313 0.021203)
(0.0260367 0.0478342 0.0178884)
(0.0401237 0.0387757 0.0115151)
(0.0546738 0.0375102 0.00633292)
(0.065426 0.0407156 -0.00299694)
(0.0717574 0.0501687 -0.0108458)
(0.0716714 0.0661007 -0.0169998)
(0.0570091 0.0748805 -0.0192821)
(0.0324116 0.0689808 -0.0197609)
(0.0151003 0.0609969 -0.0222435)
(0.00232939 0.0594754 -0.0233683)
(-0.00763704 0.0543361 -0.0235072)
(-0.0110961 0.048736 -0.0257803)
(-0.00460363 0.0459091 -0.0265969)
(-0.000377017 0.0499351 -0.0243361)
(-0.00182054 0.0552 -0.0109347)
(-0.00896892 0.052254 0.00684624)
(-0.0220979 0.043417 0.0191956)
(-0.0348869 0.0284867 0.0239985)
(-0.0368997 0.0111943 0.0195523)
(-0.0292122 -0.000594955 0.0111234)
(-0.0237545 -0.00325201 0.00616592)
(-0.0231224 -0.00164596 0.00431241)
(0.0132605 0.0148537 0.00619713)
(0.0244253 0.0152411 0.00833199)
(0.00682615 0.00495333 0.00392534)
(0.0131188 0.0117144 0.00190606)
(0.00727866 0.00392567 0.00213843)
(0.00860476 0.00682779 0.000698298)
(0.00644555 0.00331758 0.00156575)
(0.00687603 0.00471302 0.00175825)
(0.00622833 0.0033139 0.00268984)
(0.00652917 0.00383214 0.00341813)
(0.00618664 0.00282068 0.00401168)
(0.00632116 0.0029375 0.00443483)
(0.00599049 0.00204934 0.00468991)
(0.00603215 0.00206309 0.00486563)
(0.00574879 0.00142059 0.00496981)
(0.00577002 0.00142263 0.00505038)
(0.0055591 0.00101035 0.00509788)
(0.00556351 0.00101972 0.00515138)
(0.00542896 0.000769852 0.00518449)
(0.00541339 0.000780819 0.00523169)
(0.00533129 0.000649563 0.00525674)
(0.00530711 0.000641729 0.00529453)
(0.00526089 0.000582863 0.0053155)
(0.00523257 0.000568123 0.00534206)
(0.00520174 0.00054409 0.00536116)
(0.00517383 0.000532829 0.00537824)
(0.00514641 0.000524972 0.00539298)
(0.00512175 0.000520186 0.00540971)
(0.0050992 0.000523786 0.00542589)
(0.00507477 0.000507125 0.00544121)
(0.00507047 0.000548594 0.00545667)
(0.00504085 0.000478093 0.00546571)
(0.00506861 0.000594711 0.00547991)
(0.00502609 0.000428061 0.00548739)
(0.00511056 0.000667291 0.00549659)
(0.00506977 0.000352634 0.00550724)
(0.00523946 0.000749794 0.00550228)
(0.00523257 0.000241977 0.00550749)
(0.00553958 0.000831567 0.00544447)
(0.00562405 0.000107185 0.00538559)
(0.0061122 0.000939849 0.00510866)
(0.00635578 6.22409e-06 0.00475368)
(0.00705561 0.000898988 0.00395777)
(0.0071631 -0.000942956 0.00319487)
(0.00708976 -0.000930451 0.00268933)
(0.00741808 -0.00319814 0.00303985)
(0.00911544 -0.00414861 0.00449063)
(0.0108811 -0.00874414 0.00655214)
(0.0185547 -0.0110316 0.0124151)
(0.0269233 -0.0272386 0.0195144)
(0.0498943 -0.0403485 0.0296315)
(0.0523582 -0.0292375 0.0323178)
(0.051581 0.00180099 0.0407005)
(0.0320965 -0.0228088 0.0489586)
(-0.0386193 -0.0133256 0.0727539)
(-0.0325227 -0.121162 0.0918783)
(-0.0388459 0.0103916 0.10347)
(-0.00513204 -0.238399 0.064171)
(0.0840501 0.404638 0.0891095)
(0.00127227 -0.303463 0.0310761)
(-0.0246096 -0.128796 0.178377)
(-0.0281787 0.0731899 0.0320762)
(-0.0303859 0.0120355 0.0288271)
(-0.024858 0.0728825 0.00123944)
(-0.0336798 0.0652599 0.0158702)
(-0.0319612 0.0761412 0.022155)
(-0.0366764 0.0784632 0.0238101)
(-0.0445978 0.0772596 0.0192146)
(-0.0470891 0.0792256 0.0174038)
(-0.0438138 0.0778516 0.0168669)
(-0.0348796 0.078505 0.0207565)
(-0.0187902 0.0728712 0.020891)
(0.000480817 0.064972 0.0181207)
(0.0174131 0.0540029 0.0117295)
(0.0352008 0.0484818 0.00906308)
(0.0453397 0.0445061 0.00608376)
(0.0570545 0.0451972 0.0022602)
(0.0637292 0.0494186 -0.00350409)
(0.0652785 0.0612167 -0.00242642)
(0.0663925 0.0751416 0.00459275)
(0.064654 0.083991 0.00461388)
(0.0543221 0.0875322 -0.00278252)
(0.0362956 0.0788456 -0.00895636)
(0.0282788 0.0719622 -0.0170275)
(0.0231472 0.065987 -0.0214822)
(0.0196511 0.0606369 -0.0242544)
(0.0174762 0.0570749 -0.0230115)
(0.0103668 0.0563957 -0.0162608)
(0.00121051 0.0532059 -0.00317945)
(-0.0116672 0.0488767 0.0088418)
(-0.0275109 0.0403633 0.0169441)
(-0.0400004 0.0267009 0.018984)
(-0.0402146 0.0104363 0.0159003)
(-0.0330058 -0.000652661 0.0107599)
(-0.0283024 -0.00349507 0.0064879)
(-0.026632 -0.00146121 0.00394836)
(0.00783518 0.0112991 0.00741182)
(0.024083 0.0182015 0.0082816)
(0.00378385 0.00427909 0.00184396)
(0.0131703 0.0150148 0.000378712)
(0.0070906 0.00402386 3.8356e-05)
(0.00903413 0.00798464 -0.00122986)
(0.00600804 0.002651 -0.000301857)
(0.00613445 0.00443714 -0.000204511)
(0.00466514 0.00238451 0.000847539)
(0.00460558 0.00329617 0.00192921)
(0.00386571 0.00228368 0.00282674)
(0.00379243 0.00262547 0.00357457)
(0.00322807 0.00176308 0.00398639)
(0.00302515 0.00194533 0.0043282)
(0.0025698 0.00132121 0.00449515)
(0.00240376 0.00143932 0.00464861)
(0.00207034 0.00103401 0.00471721)
(0.00195571 0.00111737 0.00480116)
(0.00172677 0.00087115 0.00483274)
(0.00163172 0.000921678 0.00488472)
(0.00149431 0.000792084 0.00490905)
(0.00142146 0.000804875 0.00494267)
(0.00133595 0.00074978 0.00495346)
(0.00127805 0.000744496 0.00496875)
(0.00122394 0.000725294 0.0049737)
(0.00118169 0.000717673 0.00497697)
(0.00114662 0.000709679 0.00497573)
(0.00111669 0.000704543 0.00497081)
(0.00109289 0.000707671 0.0049638)
(0.00107363 0.000695645 0.00495703)
(0.00106906 0.000737442 0.00494868)
(0.00105284 0.000684835 0.00493546)
(0.00108265 0.000799365 0.00492833)
(0.00105879 0.00066848 0.004909)
(0.00114715 0.000909034 0.00489301)
(0.00113339 0.000662509 0.00486536)
(0.00131945 0.00108199 0.00482419)
(0.00134894 0.00071008 0.00475427)
(0.001696 0.00138041 0.00462497)
(0.00182349 0.000899107 0.0044376)
(0.00244488 0.00192919 0.00408507)
(0.00294253 0.0013026 0.00354037)
(0.00436853 0.00238664 0.00290431)
(0.00535687 0.000342254 0.00231674)
(0.0055445 -0.000334229 0.00259641)
(0.00554698 -0.00346045 0.00415683)
(0.00596139 -0.00465692 0.00659159)
(0.00645749 -0.00829428 0.0105098)
(0.0117677 -0.0115794 0.0194691)
(0.0223383 -0.0181334 0.0321273)
(0.0210236 -0.00800072 0.0420178)
(0.023488 0.0153765 0.0471225)
(0.0364684 0.0409189 0.0693615)
(0.0362276 0.0297729 0.092033)
(0.023267 0.0437415 0.108537)
(-0.0015295 -0.117074 0.101269)
(-0.0225146 0.0398079 0.068672)
(-0.0779978 -0.138459 0.051536)
(-0.123286 0.377156 0.0710724)
(-0.0154346 -0.280057 0.0382941)
(-0.0664367 -0.173716 0.175671)
(-0.0500786 0.0503172 0.061469)
(-0.0523941 -0.0426203 0.0431396)
(-0.028388 0.056893 -0.0161064)
(-0.0406436 0.0459572 0.0172984)
(-0.0361991 0.0650638 0.0213952)
(-0.0429688 0.0678904 0.0220129)
(-0.0502919 0.066846 0.0172977)
(-0.0509027 0.0682326 0.0159043)
(-0.0418834 0.0668857 0.0157661)
(-0.0317711 0.0631683 0.0204714)
(-0.0101989 0.0567945 0.0195393)
(0.0132328 0.047638 0.0158084)
(0.0313293 0.0431023 0.00370764)
(0.0434542 0.0389886 -0.00139674)
(0.0509559 0.0380231 0.00197137)
(0.0556471 0.0406772 0.00102)
(0.0577056 0.0472657 -0.00213829)
(0.0591927 0.0636437 0.00140023)
(0.0601477 0.0773759 0.0127763)
(0.0620217 0.0806038 0.0203465)
(0.0631665 0.0802631 0.0235039)
(0.0616037 0.0691149 0.0213904)
(0.0512212 0.0604071 0.00705334)
(0.0378235 0.0572605 -0.0103964)
(0.0290261 0.0570218 -0.0210936)
(0.0205774 0.0584428 -0.0225714)
(0.0109156 0.0585439 -0.0120202)
(-0.00237645 0.0537271 0.000568164)
(-0.01736 0.0488436 0.00985596)
(-0.0308251 0.040129 0.015024)
(-0.0406907 0.0270874 0.0167043)
(-0.0421688 0.0131993 0.0146667)
(-0.0397555 0.0042415 0.0101599)
(-0.0382463 0.00093047 0.00456683)
(-0.0388949 -0.000410521 0.000598689)
(-0.000446913 0.00298897 0.00325657)
(0.0200461 0.0233328 0.00816003)
(0.00148463 0.00368755 -0.00093417)
(0.0128838 0.0193004 0.000347628)
(0.008202 0.00491267 -0.000959326)
(0.0101015 0.00955775 -0.000820875)
(0.00670845 0.00248985 -0.000149573)
(0.0063848 0.00434788 -0.00018527)
(0.00439553 0.00131449 0.000794678)
(0.00397529 0.00247514 0.00201614)
(0.00287345 0.00138973 0.00291251)
(0.00265634 0.00192906 0.00375287)
(0.00173458 0.00103994 0.00412182)
(0.00141671 0.00138351 0.00456591)
(0.000818364 0.000856525 0.00474104)
(0.000608455 0.00114792 0.00495752)
(0.000212143 0.000825697 0.00503911)
(0.000100304 0.00103504 0.00516301)
(-0.000137137 0.000853035 0.00521725)
(-0.000196055 0.000996451 0.00530009)
(-0.000302311 0.000914357 0.0053437)
(-0.000326075 0.000991012 0.00540093)
(-0.000362434 0.000973394 0.00543154)
(-0.000362796 0.00100532 0.00547029)
(-0.000359099 0.00101407 0.00549877)
(-0.000340893 0.00103328 0.00552739)
(-0.000315382 0.00104838 0.00555198)
(-0.000283003 0.00106115 0.00557577)
(-0.000246138 0.001077 0.00559769)
(-0.000207716 0.001082 0.00562019)
(-0.000159501 0.00112957 0.00563979)
(-0.000114973 0.00110514 0.00565784)
(-3.72808e-05 0.00122184 0.00567847)
(-3.2235e-06 0.00114352 0.00569075)
(0.000134643 0.00138731 0.00571175)
(0.000170971 0.0012409 0.00570897)
(0.000402143 0.00168385 0.00570711)
(0.000472252 0.00148124 0.00564917)
(0.000888496 0.0021799 0.00556953)
(0.00108608 0.00194805 0.00535515)
(0.00184917 0.00303854 0.00503659)
(0.00253979 0.00257864 0.00440091)
(0.00429147 0.00355167 0.00397656)
(0.00553548 0.00137529 0.00368928)
(0.00502228 0.000128929 0.00485166)
(0.00296975 -0.00392103 0.00739463)
(0.00106633 -0.00548702 0.0104324)
(-0.0021408 -0.00984966 0.0147832)
(-0.00285293 -0.0138908 0.0260775)
(-0.00662731 -0.0170861 0.0428134)
(-0.00851438 -0.0035728 0.0463425)
(-0.00189669 0.028525 0.0373215)
(0.0179515 0.0718636 0.052371)
(0.0360229 0.0922895 0.0758143)
(0.0316749 0.0940715 0.10128)
(0.00824166 0.0527056 0.114705)
(-0.0198334 0.129745 0.165532)
(-0.0909243 -0.134585 0.0892966)
(0.0574708 0.381866 0.0326458)
(-0.0216748 -0.289199 0.0360079)
(-0.107218 -0.179174 0.163119)
(-0.0605643 0.0998113 0.0228538)
(-0.0609415 -0.0522135 0.0324535)
(-0.0576289 0.0603427 -0.0460848)
(-0.0719815 0.00765045 -0.00487161)
(-0.0554289 0.0406794 0.00645808)
(-0.0473471 0.0397162 0.0294216)
(-0.0443404 0.0443369 0.0253564)
(-0.0428121 0.0382286 0.0185032)
(-0.0320694 0.033253 0.0159513)
(-0.0211296 0.0279699 0.0131763)
(-0.00491529 0.0287572 0.00806399)
(0.0128191 0.029449 -0.0061053)
(0.0268828 0.035393 -0.0174369)
(0.0447002 0.0410324 -0.010066)
(0.0570991 0.0363833 0.00363344)
(0.0619064 0.0277759 0.00735818)
(0.0538564 0.0219749 0.00295355)
(0.0433612 0.0263174 -0.00113873)
(0.0538856 0.0442049 0.00987074)
(0.0696869 0.0522896 0.0194047)
(0.0760441 0.0570241 0.0231351)
(0.073368 0.0558212 0.0244651)
(0.0653236 0.0525061 0.0215264)
(0.0532912 0.0504691 0.0169607)
(0.0415269 0.0498053 0.0150725)
(0.0282076 0.0499432 0.0156847)
(0.0138863 0.0500709 0.0166402)
(0.00223908 0.0470847 0.0153828)
(-0.0108326 0.0412489 0.0173821)
(-0.0219327 0.0342151 0.0207589)
(-0.0292831 0.0221202 0.0214852)
(-0.031559 0.00936709 0.0176931)
(-0.0322764 0.00133943 0.0102184)
(-0.0346151 -0.00518312 -0.00671304)
(-0.0383024 -0.00206061 -0.0503937)
(-0.0101662 0.00818703 -0.00642949)
(0.0153367 0.0287773 0.00444148)
(-0.00189396 0.00485767 -0.00559452)
(0.010388 0.0225431 -0.000477235)
(0.00837252 0.00546644 -0.00291665)
(0.00905482 0.0105725 -0.00224106)
(0.00604735 0.00256842 -0.00276593)
(0.00500736 0.00416379 -0.00340468)
(0.00288958 9.85417e-05 -0.00296784)
(0.00167936 0.00139693 -0.0016217)
(0.000380905 0.000501188 -0.000526421)
(-4.7879e-05 0.00136401 0.000579314)
(-0.00113511 0.000708871 0.00104609)
(-0.0016688 0.00125612 0.00152685)
(-0.00240347 0.000816697 0.00172069)
(-0.00275884 0.00117683 0.00196411)
(-0.00322961 0.0009151 0.00206758)
(-0.00341829 0.00117146 0.00220377)
(-0.00369877 0.00101933 0.00227157)
(-0.00380398 0.00118611 0.00235896)
(-0.00394495 0.00112168 0.00241486)
(-0.00400698 0.00121346 0.00248161)
(-0.00407176 0.00120912 0.00252547)
(-0.00410318 0.0012492 0.00257647)
(-0.00412806 0.00126509 0.00261771)
(-0.00413898 0.00128834 0.00265925)
(-0.00414197 0.00130903 0.00269738)
(-0.00413771 0.00132846 0.00273333)
(-0.00413052 0.00135462 0.00276591)
(-0.00411827 0.00136702 0.00279694)
(-0.00410352 0.00140975 0.00282274)
(-0.00407915 0.00139445 0.00285426)
(-0.00404251 0.00150982 0.00287705)
(-0.00403455 0.00145283 0.00289903)
(-0.00395759 0.00169731 0.00291115)
(-0.00395336 0.00159564 0.00291858)
(-0.00380447 0.00204184 0.00290504)
(-0.00380014 0.00194184 0.00286379)
(-0.00354135 0.00274317 0.00276235)
(-0.00341741 0.00275308 0.00254517)
(-0.00278171 0.00400879 0.00222947)
(-0.00196491 0.00379106 0.00174483)
(-3.31124e-05 0.0046438 0.001779)
(0.0016565 0.0018361 0.00277348)
(0.000732795 -0.00103244 0.00434366)
(-0.00247611 -0.00721149 0.00509683)
(-0.00464665 -0.0107748 0.00737518)
(-0.00720511 -0.0178538 0.0100167)
(-0.0160487 -0.0230086 0.00947156)
(-0.0224151 -0.029348 0.014326)
(-0.0308748 -0.0264682 0.0184435)
(-0.0339212 -0.020713 0.0122153)
(-0.0295297 0.0197822 0.00703577)
(-0.00731463 0.0461526 0.0496843)
(0.000188924 0.0679816 0.0762391)
(0.0178484 -0.0287235 0.0684128)
(0.0954663 0.0928662 0.135752)
(-0.0547132 -0.223796 0.17666)
(0.0614283 0.191609 0.0778031)
(-0.0238096 -0.198196 0.0144074)
(-0.131732 -0.225948 0.155641)
(-0.0726637 0.102773 0.0264981)
(-0.0643253 -0.0790261 0.0245062)
(-0.0564611 0.0584627 -0.0459413)
(-0.0666737 -0.0350197 -0.00625872)
(-0.0634859 -0.00486029 -0.0246153)
(-0.0668737 -0.0149244 -9.69589e-05)
(-0.0481475 -0.0181056 0.0114809)
(-0.0328748 -0.0257386 0.00948595)
(-0.0246033 -0.024978 0.00466873)
(-0.0208515 -0.0190596 0.000136775)
(-0.0144644 -0.00725901 -0.00637952)
(-0.00296832 0.00941487 -0.0162198)
(0.0115788 0.0306084 -0.0223727)
(0.0369156 0.0420719 -0.00546491)