/*--------------------------------*- C++ -*----------------------------------*\
| =========                 |                                                 |
| \\      /  F ield         | OpenFOAM: The Open Source CFD Toolbox           |
|  \\    /   O peration     | Version:  2.3.0                                 |
|   \\  /    A nd           | Web:      www.OpenFOAM.org                      |
|    \\/     M anipulation  |                                                 |
\*---------------------------------------------------------------------------*/
FoamFile
{
    version     2.0;
    format      ascii;
    class       volVectorField;
    location    "7";
    object      U.water;
}
// * * * * * * * * * * * * * * * * * * * * * * * * * * * * * * * * * * * * * //

dimensions      [0 1 -1 0 0 0 0];

internalField   nonuniform List<vector> 
6144
(
(0.00917765 0.0228384 -0.00113338)
(0.00866509 0.00641249 -0.00128693)
(0.00577232 0.00493076 -0.00243377)
(0.00571727 0.00283933 -0.00257133)
(0.0049071 0.00218445 -0.00268342)
(0.00494466 0.00210199 -0.00273608)
(0.00470095 0.00185673 -0.00278967)
(0.00481727 0.0018312 -0.00281676)
(0.0047112 0.00159875 -0.00291518)
(0.00484488 0.00147936 -0.00294494)
(0.00476381 0.00118701 -0.00305437)
(0.00486803 0.00105106 -0.00308593)
(0.00479759 0.000755895 -0.00317508)
(0.00486024 0.000647404 -0.00320331)
(0.00480599 0.000407954 -0.00326484)
(0.00483715 0.000331265 -0.00328698)
(0.004805 0.000165361 -0.00332769)
(0.004815 0.000107315 -0.00334555)
(0.00479939 9.65929e-06 -0.0033708)
(0.00479892 -3.76664e-05 -0.00338527)
(0.00479156 -9.11922e-05 -0.00340083)
(0.00478812 -0.000126238 -0.00341222)
(0.00478409 -0.000157368 -0.00342258)
(0.00478109 -0.000181529 -0.00343119)
(0.0047785 -0.00020199 -0.0034387)
(0.00477648 -0.000219528 -0.00344522)
(0.00477489 -0.000235483 -0.003451)
(0.00477374 -0.000250737 -0.00345623)
(0.004773 -0.000266099 -0.00346103)
(0.00477272 -0.000283338 -0.00346549)
(0.00477333 -0.00029725 -0.00346986)
(0.0047734 -0.000334951 -0.00347309)
(0.00478023 -0.000319799 -0.00347793)
(0.00477421 -0.000431332 -0.00347895)
(0.00479117 -0.000341378 -0.00348733)
(0.00478217 -0.000577593 -0.00348571)
(0.00480599 -0.000391928 -0.00349705)
(0.00481184 -0.000764544 -0.00349766)
(0.00480968 -0.000524775 -0.00350739)
(0.00487597 -0.00102142 -0.0035116)
(0.00482938 -0.000770529 -0.00352637)
(0.00494624 -0.00138644 -0.00352865)
(0.00488699 -0.00118914 -0.00355627)
(0.00504738 -0.00193767 -0.00356252)
(0.00499087 -0.00178711 -0.00360788)
(0.00521742 -0.00278791 -0.0036358)
(0.00520337 -0.00237074 -0.00370762)
(0.00567981 -0.00400347 -0.00379994)
(0.00596647 -0.00248718 -0.00406426)
(0.00739182 -0.00542621 -0.00459322)
(0.0105272 -0.000737383 -0.00624832)
(0.00917064 -0.0126502 -0.00673634)
(0.011684 0.0115355 -0.00609188)
(0.00127362 -0.0155691 -0.00538471)
(-0.00723144 0.0421657 -0.00323526)
(-0.00120566 -0.0229874 -0.00800297)
(0.0128026 0.0679997 -0.00594148)
(0.00956457 -0.0600583 -0.0299299)
(-0.0310234 0.103911 -0.0887525)
(0.0461684 -0.0968161 -0.133027)
(0.122128 -0.251084 -0.0239075)
(0.0737393 -0.0690338 -0.00736664)
(0.0251794 -0.148404 0.00205765)
(0.0281897 -0.145514 0.00471791)
(0.0238661 -0.14732 0.00551151)
(0.0155557 -0.154463 0.00700507)
(0.00962867 -0.159908 0.00780172)
(0.00611907 -0.163203 0.00772785)
(0.00361329 -0.164688 0.00679329)
(0.00174002 -0.16415 0.00556521)
(0.000260677 -0.162405 0.0048415)
(-0.000857341 -0.159518 0.00384584)
(-0.00134999 -0.155848 0.00311743)
(-0.00152965 -0.152695 0.00225001)
(-0.00129463 -0.148462 0.000566923)
(-0.00105538 -0.144145 0.000369123)
(-0.00145752 -0.140307 -0.000800612)
(-0.0018274 -0.133204 -0.00177232)
(-0.00233217 -0.12672 -0.000886109)
(-0.00308836 -0.118423 -0.00374407)
(-0.00352565 -0.103734 -0.00387961)
(-0.00457196 -0.0926956 -0.00425123)
(-0.00653333 -0.076691 -0.0131897)
(-0.00573672 -0.0430659 -0.0110751)
(-0.00293445 -0.0180146 0.000611495)
(-0.000631433 -0.00408171 0.00407013)
(0.00158586 0.000877056 0.00208678)
(0.00428656 -0.00188448 -0.000302227)
(0.00603239 -0.0067683 -0.00172356)
(0.00616707 -0.0104067 -0.00338106)
(0.00589999 -0.0116029 -0.00447067)
(0.00582672 -0.0110708 -0.00474659)
(0.00592592 -0.00913057 -0.00456109)
(0.00592875 -0.0068915 -0.00444102)
(0.00596578 -0.00419636 -0.00442576)
(0.00597198 -0.00155042 -0.00443637)
(0.0180711 0.0218935 0.00373315)
(0.0179545 0.00765187 0.00310387)
(0.011202 0.005847 0.000303139)
(0.0115267 0.00470275 8.68755e-05)
(0.00952531 0.00386281 -0.000337765)
(0.00990785 0.00414223 -0.000284151)
(0.00944196 0.00366862 -0.000386987)
(0.00980618 0.00365751 -0.00029172)
(0.00964455 0.0031972 -0.000443207)
(0.0099897 0.00297175 -0.000372121)
(0.00982419 0.00248124 -0.000564846)
(0.0100941 0.00222948 -0.000529162)
(0.00991682 0.00178533 -0.000699329)
(0.0100886 0.00158346 -0.000683971)
(0.00993754 0.00123454 -0.000803793)
(0.010029 0.00109406 -0.000799115)
(0.00992722 0.00084843 -0.000878429)
(0.00996005 0.000749845 -0.000884527)
(0.00990479 0.000596231 -0.000927461)
(0.00990588 0.000521463 -0.000937593)
(0.00987908 0.000432897 -0.000957858)
(0.00986924 0.000376602 -0.000966519)
(0.00985518 0.000323891 -0.000974986)
(0.00984535 0.000283512 -0.00097961)
(0.00983649 0.000248779 -0.000982375)
(0.00982959 0.000219377 -0.00098315)
(0.00982417 0.000193121 -0.000982449)
(0.00982022 0.000168794 -0.000980552)
(0.00981786 0.000145192 -0.000977586)
(0.00981711 0.000120066 -0.00097355)
(0.00981822 9.6792e-05 -0.00096856)
(0.00981872 5.49517e-05 -0.000961347)
(0.00983098 5.59157e-05 -0.000951755)
(0.00982563 -5.96126e-05 -0.000942282)
(0.00985785 2.85447e-05 -0.000930961)
(0.00985003 -0.00024153 -0.000919767)
(0.00990092 -1.04208e-05 -0.000906879)
(0.00990915 -0.000498753 -0.000893324)
(0.00995143 -0.000108961 -0.000878426)
(0.0100371 -0.000837306 -0.000853364)
(0.0100179 -0.00034459 -0.000854682)
(0.0102376 -0.00127279 -0.000786345)
(0.0101426 -0.000756939 -0.000824621)
(0.010495 -0.00189658 -0.00072224)
(0.010357 -0.00133498 -0.000796367)
(0.0108254 -0.00277759 -0.000716858)
(0.0107208 -0.00176241 -0.000869179)
(0.0113955 -0.00363859 -0.00101768)
(0.0114854 -0.000833984 -0.00165431)
(0.012689 -0.00139296 -0.0032437)
(0.0153423 0.00746826 -0.00632662)
(0.00959653 0.0178703 -0.00633826)
(0.00514754 0.0312379 -0.0037805)
(-0.00253928 0.0246645 0.00292374)
(-0.00220927 0.048774 0.00941525)
(0.0262507 -0.0429105 0.00263172)
(-0.0130049 0.0272817 0.00513894)
(-0.0119056 -0.0278262 -0.0140169)
(0.0278479 0.158631 -0.0107969)
(0.167162 -0.132985 -0.0713429)
(0.175048 -0.208739 -0.0199155)
(0.0421202 0.113368 0.00647396)
(-0.0287636 -0.127357 0.0123492)
(-0.0123177 -0.0693933 0.0119106)
(-0.0163263 -0.0933828 0.0126655)
(-0.0201449 -0.113242 0.0148252)
(-0.020218 -0.121429 0.0142639)
(-0.01932 -0.128291 0.0129515)
(-0.0183616 -0.13331 0.0111817)
(-0.0173611 -0.135466 0.00944923)
(-0.0161079 -0.135908 0.00787712)
(-0.014791 -0.134689 0.00587896)
(-0.0129485 -0.132556 0.00440104)
(-0.0113998 -0.130587 0.00255957)
(-0.00973099 -0.127703 0.000930358)
(-0.00835437 -0.125134 0.00031963)
(-0.00885406 -0.122531 -0.00137585)
(-0.00892135 -0.117155 -0.00164972)
(-0.00924783 -0.111614 -0.00180502)
(-0.0118007 -0.10456 -0.00475457)
(-0.0105735 -0.0924435 -0.00340468)
(-0.00884377 -0.0814781 -0.00525202)
(-0.0151745 -0.0642717 -0.0138447)
(-0.0189862 -0.0346475 -0.00916929)
(-0.0130289 -0.0160222 0.00149879)
(-0.00795493 -0.00457898 0.00418739)
(-0.00440335 -0.000633023 0.00438888)
(0.000367883 -0.00224961 0.00539883)
(0.004804 -0.00636453 0.00526087)
(0.007209 -0.00990536 0.00351396)
(0.00715698 -0.0116274 0.00133176)
(0.0063709 -0.0116024 -0.000405577)
(0.00600629 -0.0101046 -0.00141887)
(0.00586526 -0.00773078 -0.00203953)
(0.0057607 -0.00468201 -0.00251837)
(0.00583288 -0.00175199 -0.00305143)
(0.0204971 0.0193789 0.00584375)
(0.021772 0.00818814 0.00568194)
(0.012313 0.0047526 0.00268707)
(0.013256 0.00506802 0.00263915)
(0.0105025 0.00342879 0.00231823)
(0.0111285 0.00431734 0.00240742)
(0.0105094 0.00363947 0.00239285)
(0.0110273 0.00380865 0.00258148)
(0.01085 0.0032355 0.00247041)
(0.0112923 0.00306653 0.00258417)
(0.0111216 0.00247335 0.00238415)
(0.0114528 0.00226331 0.00243175)
(0.0112561 0.00174634 0.00221958)
(0.0114673 0.00159258 0.00224213)
(0.0112849 0.00119296 0.00208354)
(0.0113981 0.00108396 0.00209494)
(0.0112628 0.000814746 0.00200037)
(0.0113025 0.000735466 0.00200642)
(0.011222 0.000571185 0.00195566)
(0.0112192 0.00050998 0.00195954)
(0.0111746 0.000418902 0.00194152)
(0.0111552 0.000370512 0.00194714)
(0.0111274 0.000319621 0.00194937)
(0.0111056 0.000283651 0.00195936)
(0.0110842 0.000251891 0.00197148)
(0.0110651 0.000225528 0.00198698)
(0.0110475 0.000201934 0.00200453)
(0.0110316 0.00018018 0.00202372)
(0.0110177 0.000159079 0.00204437)
(0.0110058 0.000136971 0.00206617)
(0.0109957 0.000115913 0.00208765)
(0.0109868 7.97592e-05 0.00210935)
(0.010986 8.08372e-05 0.00213193)
(0.0109741 -2.52195e-05 0.00215261)
(0.0109976 6.12158e-05 0.00217925)
(0.0109811 -0.000195004 0.00220158)
(0.0110317 3.75485e-05 0.00223427)
(0.0110248 -0.000439714 0.00225974)
(0.0110909 -2.65867e-05 0.00230012)
(0.0111429 -0.000769741 0.00233694)
(0.0111774 -0.000197161 0.00237498)
(0.0113792 -0.00119822 0.00246237)
(0.0113221 -0.00053532 0.00246048)
(0.0117165 -0.00180466 0.00260523)
(0.0115865 -0.00102731 0.00256716)
(0.0121311 -0.00266148 0.00270204)
(0.0119749 -0.00137415 0.00255655)
(0.0125579 -0.00331027 0.00237692)
(0.0121556 -0.000120798 0.00161983)
(0.0127277 0.000338967 -0.000315653)
(0.0127361 0.0106371 -0.00397553)
(0.0103664 0.024236 -0.00419264)
(0.00562187 0.0316441 -0.000512576)
(0.00143023 0.017664 0.0064315)
(0.0148407 0.0435867 0.0132891)
(0.03906 -0.0498183 0.00595631)
(-0.0449449 0.0528731 0.0187197)
(-0.0663484 -0.114931 -0.00362009)
(-0.0510263 0.131568 -0.0498359)
(0.166968 -0.118149 -0.0521524)
(0.190669 -0.157488 -0.021894)
(0.067265 0.144441 0.00606122)
(0.0767122 -0.107083 0.0171155)
(0.0218617 -0.02053 0.0175851)
(-0.000481288 -0.0636407 0.0165975)
(-0.00631096 -0.0799376 0.0156349)
(-0.0122484 -0.0891268 0.0128106)
(-0.0167013 -0.0964632 0.00895213)
(-0.0187269 -0.100678 0.00540059)
(-0.0190368 -0.101914 0.00262933)
(-0.0179869 -0.100956 0.000150617)
(-0.0154852 -0.0984374 -0.00203294)
(-0.0119641 -0.0955797 -0.00366586)
(-0.00715688 -0.0922985 -0.00550723)
(-0.00383708 -0.0876609 -0.00651537)
(-0.00291606 -0.0840815 -0.00679655)
(-0.00415277 -0.0808782 -0.00780027)
(-0.00552202 -0.0761581 -0.00669358)
(-0.00783124 -0.0716947 -0.00602386)
(-0.0120039 -0.0662759 -0.00915092)
(-0.0172264 -0.0532158 -0.0120992)
(-0.0228999 -0.0349759 -0.0128689)
(-0.0263015 -0.0177443 -0.0105782)
(-0.0211498 -0.00751219 -0.00463521)
(-0.0120341 -0.00159987 -0.000206393)
(-0.00665359 0.00417102 0.00274459)
(-0.00445566 0.00408317 0.00552034)
(-0.00224615 -0.000306884 0.00752298)
(0.00128737 -0.00551475 0.00768647)
(0.0041198 -0.00926081 0.00666896)
(0.00560071 -0.0110648 0.00502086)
(0.00578154 -0.0109537 0.00334816)
(0.00559851 -0.0095358 0.00226264)
(0.00530317 -0.00748846 0.00149854)
(0.00510087 -0.00482685 0.000823329)
(0.0052443 -0.00195097 -6.12615e-05)
(0.0202934 0.0179369 0.00681751)
(0.0233379 0.0109092 0.0074338)
(0.0117278 0.00525828 0.00416812)
(0.0136029 0.0070011 0.00358949)
(0.00993223 0.00385474 0.00348871)
(0.0107887 0.00543604 0.0033874)
(0.00998912 0.00421484 0.00352652)
(0.0106977 0.00463423 0.00371505)
(0.0104588 0.0037551 0.00374309)
(0.0110292 0.00364706 0.00387349)
(0.0107707 0.00281523 0.00379547)
(0.0111712 0.00263412 0.00384004)
(0.0108827 0.00194283 0.00371941)
(0.0111322 0.00182436 0.00373897)
(0.010881 0.00131728 0.00363135)
(0.0110068 0.00126211 0.00364659)
(0.0108222 0.000921642 0.0035811)
(0.0108628 0.000881838 0.00359821)
(0.0107442 0.000680681 0.00356388)
(0.0107344 0.000638771 0.00358103)
(0.0106648 0.000532464 0.00357314)
(0.0106339 0.000492306 0.00359082)
(0.0105891 0.000437719 0.00360172)
(0.010554 0.000404544 0.00362121)
(0.0105189 0.000373206 0.0036415)
(0.0104872 0.000348177 0.00366496)
(0.0104574 0.000325678 0.00368984)
(0.0104297 0.000305508 0.00371578)
(0.0104045 0.000286402 0.00374273)
(0.010382 0.000267062 0.00377075)
(0.0103628 0.000248253 0.00379991)
(0.0103465 0.000217943 0.0038308)
(0.0103385 0.000217615 0.00386256)
(0.0103216 0.000126636 0.00389443)
(0.0103443 0.000206987 0.00393025)
(0.0103179 -3.02953e-05 0.00396429)
(0.0103785 0.000204155 0.00400819)
(0.0103554 -0.000259607 0.00404327)
(0.0104467 0.00018071 0.00409867)
(0.0104703 -0.000580257 0.00414035)
(0.0105554 9.94586e-05 0.00421286)
(0.0107209 -0.00101749 0.00427164)
(0.0107187 -0.00013358 0.00435339)
(0.0111287 -0.00160862 0.0044561)
(0.0110064 -0.000560632 0.00452302)
(0.0116262 -0.00246582 0.00463773)
(0.0114149 -0.00103095 0.00467554)
(0.0120978 -0.0033809 0.00457474)
(0.0111985 -0.000598617 0.00424159)
(0.0114952 -0.00194294 0.00303927)
(0.00898203 0.00576708 0.000402937)
(0.00624571 0.0127155 -0.000201613)
(-0.00132465 0.0249167 0.00361539)
(-0.00668535 0.0135142 0.0134386)
(0.0131316 0.036602 0.0207881)
(0.0254898 -0.0362796 0.0102631)
(0.0128469 0.0919898 0.00705225)
(-0.0677165 -0.133932 0.0190089)
(-0.0524383 0.181427 -0.108805)
(0.170336 -0.219009 -0.0295005)
(0.204798 -0.132068 -0.023497)
(0.06196 0.12229 -0.0032324)
(0.0650325 0.00271617 0.0070743)
(-0.0226613 0.0552034 0.0189975)
(-0.00486817 -0.00973374 0.018456)
(-0.00784905 -0.0152793 0.00781202)
(-0.0107189 -0.0293835 -0.000570912)
(-0.0121305 -0.0351345 -0.0053927)
(-0.0124433 -0.0351595 -0.00866066)
(-0.0128437 -0.0333563 -0.0112379)
(-0.0125721 -0.0279905 -0.0134146)
(-0.0113139 -0.0183233 -0.0160875)
(-0.00903146 -0.00716959 -0.0165823)
(-0.0044963 0.010676 -0.0161381)
(-0.000961222 0.0225093 -0.0150218)
(0.000188481 0.0287067 -0.0133104)
(-0.00017399 0.0315908 -0.0117031)
(-0.0023434 0.0311389 -0.0106926)
(-0.0054183 0.0291473 -0.0108279)
(-0.00918902 0.0271951 -0.0112716)
(-0.0120517 0.0260838 -0.0112742)
(-0.0131237 0.0235948 -0.0102627)
(-0.0118678 0.0205549 -0.00778705)
(-0.00813851 0.0179052 -0.00436719)
(-0.00466896 0.0165434 -0.000616077)
(-0.00331916 0.0150486 0.00305881)
(-0.00364932 0.0104112 0.00633763)
(-0.00378294 0.00396488 0.00808392)
(-0.00230488 -0.00272473 0.00788076)
(8.72519e-06 -0.00758493 0.00655752)
(0.0015337 -0.0102594 0.00505731)
(0.00208228 -0.010845 0.00381051)
(0.00198764 -0.0101496 0.00307732)
(0.00183644 -0.00849962 0.00222221)
(0.00182336 -0.00635138 0.001406)
(0.00188457 -0.00300992 0.000461887)
(0.0171911 0.0172872 0.00750913)
(0.0237122 0.013398 0.00887499)
(0.00963836 0.00601205 0.0049956)
(0.0129937 0.0094947 0.00383729)
(0.00841391 0.00446545 0.00384036)
(0.00952549 0.00658755 0.00326886)
(0.00838775 0.00448832 0.00360622)
(0.00919408 0.00526655 0.00380919)
(0.00884129 0.00403007 0.00406666)
(0.00943258 0.00411301 0.00431327)
(0.00908496 0.00303319 0.00438854)
(0.00946943 0.00295827 0.00447853)
(0.00910582 0.00209796 0.00445116)
(0.00934145 0.0020435 0.00448411)
(0.00902678 0.00143247 0.0044324)
(0.00915081 0.00142235 0.00446142)
(0.00892191 0.00102538 0.00442285)
(0.00895542 0.00102838 0.00445452)
(0.00880065 0.000788195 0.00444625)
(0.00877706 0.000776215 0.00448218)
(0.00867722 0.000651258 0.00448834)
(0.00863054 0.000625177 0.00452323)
(0.0085622 0.000565868 0.004547)
(0.00850767 0.000537797 0.0045812)
(0.0084521 0.000507557 0.00461495)
(0.00840085 0.000485165 0.00465282)
(0.0083516 0.000464807 0.0046913)
(0.00830542 0.000447066 0.00472929)
(0.00826267 0.000430361 0.00476724)
(0.00822349 0.000413449 0.00480523)
(0.008188 0.000397048 0.00484273)
(0.00815594 0.00037182 0.00488046)
(0.00813097 0.00037209 0.0049191)
(0.00810278 0.00029561 0.00495792)
(0.0081092 0.000368119 0.00500332)
(0.00807005 0.000154882 0.00504171)
(0.00812299 0.000381335 0.00509506)
(0.00807854 -5.40513e-05 0.00512933)
(0.00818179 0.00038997 0.00519604)
(0.00816413 -0.000342467 0.00522656)
(0.0083037 0.000369466 0.0053155)
(0.00838805 -0.000755114 0.00534694)
(0.0085011 0.000277799 0.00546061)
(0.00884833 -0.00132444 0.00549332)
(0.00881671 2.29338e-06 0.00560842)
(0.0095601 -0.00210081 0.0055946)
(0.00934319 -0.00030314 0.00557403)
(0.0104355 -0.0029421 0.00524729)
(0.00958425 0.000200294 0.0047214)
(0.0100051 -0.0025968 0.00344156)
(0.00760674 0.00410991 0.000602442)
(0.00592407 0.00225677 -0.000379617)
(-0.00686743 0.0163758 0.000603846)
(-0.0159511 -0.00273014 0.0117133)
(0.0156728 0.0150274 0.0458101)
(0.0166361 -0.0546922 0.0427751)
(0.0232867 0.0249776 0.0691893)
(-0.0909513 -0.120638 0.0479985)
(0.0159827 0.128355 -0.189619)
(0.102087 -0.273403 -0.0165238)
(0.162903 -0.0717482 -0.0209121)
(0.0565844 0.12999 -0.0117899)
(0.0721805 0.0823604 -0.00375765)
(0.0271456 0.103966 -0.00250871)
(0.0175241 0.0897775 -0.00686047)
(0.0040896 0.0947263 -0.0103783)
(0.00195476 0.101554 -0.0126211)
(-0.00251337 0.106361 -0.0130596)
(-0.00324005 0.114915 -0.0132111)
(-0.0042076 0.119108 -0.0124416)
(-0.00290093 0.124222 -0.0111731)
(-0.000960229 0.12528 -0.00902511)
(0.00263061 0.125318 -0.00666499)
(0.00778 0.123645 -0.00412279)
(0.0122711 0.119028 -0.00241399)
(0.0152395 0.113259 -0.00123584)
(0.0167236 0.105999 -0.000336879)
(0.0163295 0.0972829 -9.7954e-05)
(0.0147878 0.0878924 -0.000177899)
(0.0122474 0.0772356 -0.000540971)
(0.00923732 0.066884 -0.000678825)
(0.00673901 0.0562497 -0.000311433)
(0.00504579 0.0466869 0.000784671)
(0.0041325 0.037889 0.0024756)
(0.00304859 0.0300404 0.00459768)
(0.00131261 0.0234392 0.00679536)
(-0.00119799 0.016228 0.00846733)
(-0.00302159 0.00836139 0.00897745)
(-0.00303194 0.00104554 0.00876635)
(-0.00183921 -0.00440126 0.00765563)
(-0.000973651 -0.00776673 0.00579619)
(-0.000694723 -0.00961962 0.0042075)
(-0.00069591 -0.00963016 0.0027425)
(-0.0011183 -0.00801403 0.000768204)
(-0.00199924 -0.00518123 -0.000660899)
(-0.00375531 -0.00239822 -0.00110201)
(0.0124724 0.0156275 0.00804178)
(0.0233651 0.0155841 0.009843)
(0.00665762 0.00568082 0.00472623)
(0.0124923 0.0120411 0.00311873)
(0.00704047 0.00463597 0.00318683)
(0.00855969 0.00766221 0.00210596)
(0.0067941 0.00424795 0.00278465)
(0.00756563 0.00558162 0.00302154)
(0.0069845 0.00392073 0.00365359)
(0.00745278 0.00435088 0.00416088)
(0.00697078 0.00303665 0.00449976)
(0.00719697 0.00317411 0.00476228)
(0.006743 0.00214178 0.00490013)
(0.00686445 0.00221628 0.00501207)
(0.00648524 0.0015036 0.00506699)
(0.00655086 0.00156438 0.00513439)
(0.00628016 0.00111225 0.00516267)
(0.00629464 0.00115507 0.00521763)
(0.00612319 0.00088461 0.00524264)
(0.00609914 0.000906028 0.00529308)
(0.00599492 0.00076536 0.00531766)
(0.00595599 0.000755414 0.00536192)
(0.00589261 0.000692046 0.00538942)
(0.00584791 0.000670741 0.00542416)
(0.00580286 0.000641582 0.00545335)
(0.00576354 0.000622951 0.00548299)
(0.00572652 0.000607623 0.0055113)
(0.00569343 0.000595657 0.00553744)
(0.00566484 0.000584397 0.00556081)
(0.00564125 0.000573345 0.00558317)
(0.00562241 0.000563094 0.00560527)
(0.00560772 0.000545944 0.00562688)
(0.00560002 0.00054988 0.00564791)
(0.00559126 0.000488746 0.0056636)
(0.00561257 0.000556331 0.00568266)
(0.00559381 0.000373745 0.00569203)
(0.00566577 0.000589544 0.00571671)
(0.00564088 0.0001993 0.00571821)
(0.00577752 0.000627365 0.00575068)
(0.00576888 -4.54108e-05 0.00574402)
(0.00597245 0.000655068 0.00578785)
(0.00603999 -0.000385786 0.00576616)
(0.00628287 0.000669721 0.00581517)
(0.00655317 -0.000907785 0.00575628)
(0.00674067 0.000681943 0.00578807)
(0.00737866 -0.00163071 0.00557414)
(0.00739097 0.000827247 0.00549224)
(0.00831476 -0.00235714 0.00481131)
(0.00789286 0.0019405 0.00419097)
(0.00852733 -0.00218267 0.00251086)
(0.00713931 0.00514518 0.00096437)
(0.00595493 -0.0008483 0.000440168)
(-0.00399384 0.0139175 0.0030697)
(-0.0209314 -0.00811767 0.0149983)
(0.00337539 0.00930398 0.0484203)
(-0.00191167 -0.0274395 0.0534897)
(0.0247108 0.0217562 0.115187)
(-0.0592575 -0.114541 0.0883272)
(0.0451335 -0.0241685 -0.180909)
(0.0525857 -0.264639 -0.00440721)
(0.116821 -0.00553235 -0.020804)
(0.0370465 0.163498 -0.0106831)
(0.035996 0.166493 0.0029078)
(0.0116576 0.189637 0.00249005)
(0.00690516 0.196538 0.00202872)
(0.00433363 0.20128 0.00053038)
(0.00295572 0.204651 0.000956616)
(0.00368034 0.206519 0.000721801)
(0.00448016 0.206496 0.00227439)
(0.00587418 0.204751 0.00311547)
(0.00812948 0.202156 0.00504022)
(0.0113416 0.1976 0.00637775)
(0.015768 0.191665 0.00772341)
(0.0192405 0.184462 0.00911155)
(0.0182785 0.176742 0.0100493)
(0.0233537 0.168753 0.0101495)
(0.023341 0.159276 0.0105978)
(0.0238056 0.148548 0.0106009)
(0.0226506 0.13593 0.0102556)
(0.0209261 0.12239 0.00957252)
(0.0176975 0.108364 0.00914075)
(0.0146594 0.0937346 0.00858167)
(0.0118516 0.0810031 0.00838187)
(0.00871963 0.067389 0.00851755)
(0.00509835 0.0545702 0.00874772)
(0.00150183 0.0426479 0.00918667)
(-0.00183232 0.0313054 0.00978333)
(-0.00406364 0.0202084 0.00982816)
(-0.00460289 0.0111446 0.00959668)
(-0.00435074 0.00330996 0.00892668)
(-0.00381435 -0.00196252 0.00781798)
(-0.00396494 -0.00519938 0.00607343)
(-0.00467738 -0.00700297 0.00391952)
(-0.00491591 -0.005712 0.00131675)
(-0.00529386 -0.00365425 -0.00334519)
(-0.00815807 -0.0024874 -0.00738398)
(0.0072598 0.0123503 0.00731761)
(0.0219833 0.0185346 0.00975603)
(0.00313159 0.00488831 0.00303582)
(0.0116359 0.0148565 0.00196591)
(0.00573319 0.00458187 0.00159681)
(0.00779484 0.00874974 0.000521736)
(0.00530141 0.00366165 0.00139061)
(0.00577464 0.00555548 0.00158873)
(0.00473488 0.00338384 0.00247268)
(0.00498622 0.00416448 0.00333282)
(0.00429756 0.00273928 0.00389471)
(0.00429742 0.00308926 0.00438946)
(0.0036737 0.00198922 0.00461634)
(0.00354543 0.0022119 0.00482634)
(0.0030275 0.00146387 0.00492681)
(0.00291339 0.00162168 0.00503741)
(0.00253081 0.00115011 0.00508199)
(0.0024381 0.0012578 0.00515608)
(0.00217408 0.000978229 0.00517692)
(0.00207881 0.00104098 0.00522629)
(0.00191917 0.000893654 0.00524512)
(0.00183646 0.000902797 0.00528128)
(0.0017362 0.000838149 0.00529747)
(0.00166516 0.000824406 0.00532177)
(0.00159902 0.000797624 0.0053388)
(0.00154176 0.000782557 0.00535457)
(0.00149034 0.000770349 0.00536519)
(0.00145013 0.000762121 0.00537368)
(0.00141727 0.000755293 0.00538089)
(0.00138905 0.000748809 0.00538548)
(0.00136693 0.000742958 0.005387)
(0.00135151 0.000731505 0.00538569)
(0.0013459 0.000740796 0.00538154)
(0.00134614 0.000693687 0.00537511)
(0.00137367 0.000760969 0.0053701)
(0.00136993 0.000606058 0.00535487)
(0.00145108 0.000816246 0.00534886)
(0.00144611 0.000471836 0.00532679)
(0.00160252 0.000888849 0.0053347)
(0.0016095 0.000278459 0.00531739)
(0.00185616 0.000969576 0.00533174)
(0.00192739 2.52079e-05 0.00528604)
(0.00227515 0.00108501 0.00528367)
(0.00250953 -0.000354064 0.0051945)
(0.00292057 0.00131682 0.00517761)
(0.00343402 -0.000935701 0.00496663)
(0.003905 0.00190159 0.00489733)
(0.00471007 -0.00155385 0.00430547)
(0.00487688 0.00341557 0.00375816)
(0.00563464 -0.00175713 0.00260126)
(0.00421437 0.00655957 0.00186357)
(0.00289519 -0.00192917 0.00266088)
(-0.00776642 0.0132634 0.00565039)
(-0.0221773 -0.00557861 0.0136845)
(-0.0203573 -0.00307205 0.0440814)
(-0.0380711 -0.0388972 0.0659377)
(-0.00190185 -0.035166 0.103077)
(0.00640785 -0.113657 0.0958195)
(0.0220223 -0.115121 -0.16527)
(0.0200773 -0.272325 0.00287731)
(0.0461963 0.0437788 -0.00973286)
(0.00719089 0.209544 -0.00839091)
(0.00891028 0.232218 0.00659783)
(0.000462775 0.250063 0.0091956)
(0.00202516 0.258248 0.0110285)
(0.000797678 0.262808 0.00937877)
(0.00227734 0.264445 0.0100455)
(0.00358367 0.263305 0.010015)
(0.00569192 0.259228 0.0116077)
(0.00787103 0.253876 0.0123523)
(0.010254 0.249789 0.0135392)
(0.0129987 0.24548 0.0136019)
(0.0163075 0.237098 0.0139135)
(0.0202468 0.228799 0.014951)
(0.0233731 0.222086 0.0176707)
(0.0252426 0.214265 0.0154556)
(0.0276446 0.207813 0.0171822)
(0.0290958 0.199811 0.0173165)
(0.029604 0.190014 0.0169132)
(0.0287229 0.180011 0.0159869)
(0.027187 0.168761 0.0157954)
(0.0247572 0.155598 0.0143734)
(0.0221101 0.141408 0.0129391)
(0.0187731 0.126054 0.011599)
(0.0144586 0.109815 0.00959258)
(0.010046 0.0930815 0.00926648)
(0.00531695 0.076775 0.00945085)
(0.000793053 0.0598911 0.00841264)
(-0.0020021 0.0463286 0.00743558)
(-0.00492061 0.0327263 0.00559638)
(-0.00701192 0.0216507 0.00294318)
(-0.00815612 0.0131134 -0.000550581)
(-0.0112935 0.00528943 -0.00409257)
(-0.0127349 -0.00033283 -0.00919321)
(-0.00838236 -0.00392575 -0.0179679)
(-0.00657982 -0.00431266 -0.0263622)
(-0.000712527 0.00523966 0.00622671)
(0.0182439 0.0221825 0.00865703)
(7.05464e-05 0.00449271 0.00112143)
(0.0107576 0.0184683 0.0016804)
(0.00558247 0.00508745 0.00110727)
(0.00786021 0.0101208 0.000686237)
(0.00488596 0.00333272 0.00151312)
(0.0050737 0.00552153 0.00166493)
(0.00357614 0.00266029 0.00246066)
(0.00363929 0.00365312 0.00352052)
(0.0026199 0.00208718 0.00407373)
(0.0024584 0.00258508 0.00469644)
(0.00159926 0.00142942 0.0049167)
(0.00137549 0.00181463 0.00525041)
(0.000746051 0.00108089 0.00535593)
(0.000603063 0.00140101 0.00554124)
(0.000178158 0.00096156 0.00560155)
(9.34578e-05 0.00118748 0.00572149)
(-0.000163231 0.000947094 0.00576943)
(-0.000214169 0.00108953 0.00585453)
(-0.000338161 0.000975655 0.00590241)
(-0.000367664 0.00104591 0.00596712)
(-0.000413355 0.00101435 0.00600581)
(-0.000420843 0.00103724 0.00605331)
(-0.000423254 0.00103897 0.00609112)
(-0.000413037 0.00105 0.00612935)
(-0.000394848 0.00105755 0.0061641)
(-0.000368199 0.00106436 0.0061962)
(-0.000334746 0.00107013 0.00622654)
(-0.000293734 0.00107642 0.00625621)
(-0.000246234 0.00108424 0.00628496)
(-0.000191304 0.00108883 0.00631277)
(-0.000128305 0.00110765 0.00633799)
(-5.69363e-05 0.00107977 0.00636535)
(3.32089e-05 0.00115393 0.00638896)
(0.000104608 0.00103583 0.0064118)
(0.000250668 0.0012443 0.00643631)
(0.000327151 0.000961871 0.00645671)
(0.000559556 0.00137156 0.00648849)
(0.000653296 0.000853315 0.00650607)
(0.000991295 0.00153 0.00653583)
(0.00113789 0.000715937 0.00653499)
(0.00161006 0.00171974 0.00655418)
(0.00190876 0.000463076 0.00653621)
(0.00252919 0.00202382 0.00653313)
(0.00302975 -2.60479e-05 0.00639974)
(0.00385647 0.00272643 0.00632907)
(0.0044085 -0.000902743 0.00576345)
(0.00507517 0.00431516 0.00541173)
(0.00529345 -0.0025369 0.00426331)
(0.00453947 0.00661604 0.00396713)
(0.00155729 -0.00675891 0.00288218)
(-0.00777903 0.00956752 0.00753048)
(-0.013419 -0.00748841 0.0141366)
(-0.0263604 -0.00617541 0.0451547)
(-0.0336918 -0.0495594 0.0662672)
(-0.014834 -0.04724 0.0956879)
(0.0487541 -0.0952735 0.082646)
(-0.0146183 -0.132016 -0.149612)
(-0.0195096 -0.284593 0.00789428)
(-0.0547715 0.06849 -0.0077818)
(-0.0365552 0.220084 -0.00797888)
(-0.0281353 0.244013 0.0124739)
(-0.015464 0.259872 0.013099)
(-0.0111687 0.266194 0.0166893)
(-0.0049666 0.267076 0.0146083)
(-0.00145819 0.266193 0.0157198)
(0.00255278 0.263251 0.0148557)
(0.00674682 0.258177 0.0166176)
(0.0101622 0.253019 0.016632)
(0.0128301 0.247099 0.0178016)
(0.0149152 0.240703 0.0178877)
(0.0169619 0.23456 0.0182755)
(0.0206535 0.227207 0.0182933)
(0.0255538 0.222788 0.0191567)
(0.0254553 0.216401 0.018941)
(0.0288588 0.211134 0.0201037)
(0.0303635 0.205885 0.0215804)
(0.0312156 0.200822 0.0225916)
(0.0311966 0.195309 0.0235652)
(0.031742 0.189681 0.0252625)
(0.0312154 0.182802 0.0258428)
(0.0303408 0.175096 0.0259585)
(0.0289362 0.16616 0.0254649)
(0.0265372 0.155526 0.0236044)
(0.0235778 0.144737 0.0220964)
(0.020112 0.133874 0.0202517)
(0.0173512 0.122244 0.0185702)
(0.0150827 0.109973 0.0161562)
(0.0131846 0.0951664 0.0126005)
(0.0113987 0.080571 0.00817202)
(0.00883453 0.0658625 0.00271377)
(0.00634845 0.0505056 -0.00514087)
(0.00265976 0.0323106 -0.0214351)
(-0.00338416 0.0147142 -0.0558378)
(-0.00977682 0.0082965 -0.087969)
(-0.0118797 0.00928898 -0.00492848)
(0.0145253 0.0284386 0.00484204)
(-0.00416916 0.00507828 -0.00391846)
(0.00861864 0.0217125 -0.000261047)
(0.00494983 0.005038 -0.00192034)
(0.00626875 0.0108455 -0.00192203)
(0.0036061 0.00285928 -0.00174436)
(0.00312316 0.00518843 -0.00171876)
(0.00153712 0.00176863 -0.000857525)
(0.0011891 0.00303444 0.000350802)
(-4.92375e-05 0.00159554 0.00107525)
(-0.000408581 0.00226458 0.00182442)
(-0.00147747 0.00124114 0.00208068)
(-0.00192133 0.00171182 0.00245108)
(-0.00267397 0.00106965 0.00258533)
(-0.0029584 0.00142267 0.00278285)
(-0.00345488 0.00103817 0.00286277)
(-0.00361646 0.00129679 0.00298814)
(-0.00391752 0.00107967 0.0030461)
(-0.00401579 0.00125206 0.00313582)
(-0.00417642 0.00115607 0.0031909)
(-0.00424165 0.00124427 0.00326084)
(-0.00431539 0.0012264 0.00330784)
(-0.0043528 0.00126014 0.00336299)
(-0.00438291 0.00127133 0.00340857)
(-0.00439791 0.0012897 0.00345449)
(-0.0044025 0.00130465 0.00349755)
(-0.00439698 0.00131892 0.00353826)
(-0.00438331 0.00133324 0.00357663)
(-0.00436266 0.00134518 0.00361249)
(-0.00433498 0.00135471 0.00364754)
(-0.00429961 0.00136232 0.00368178)
(-0.00425595 0.00138136 0.00371339)
(-0.00420034 0.00136272 0.0037473)
(-0.00413444 0.00143504 0.00377223)
(-0.00407963 0.00133847 0.00380025)
(-0.00396578 0.00153097 0.00381975)
(-0.00390334 0.00128639 0.00385012)
(-0.00371385 0.00166358 0.00387113)
(-0.00364205 0.00121215 0.00389765)
(-0.00335022 0.00182778 0.00391866)
(-0.00324091 0.0011175 0.00393545)
(-0.0028146 0.00203708 0.00396156)
(-0.00262205 0.00103081 0.00393448)
(-0.00197909 0.00245214 0.00394844)
(-0.00166409 0.000894301 0.00375645)
(-0.00065504 0.00340944 0.00372348)
(-0.000418185 0.000507543 0.00306774)
(0.00109862 0.00501832 0.00298253)
(0.00105049 -0.00215376 0.00237483)
(0.000836429 0.00544573 0.00188511)
(-0.0030096 -0.00779479 0.00140209)
(-0.0146593 0.00906956 0.00368385)
(-0.0116611 -0.0067554 0.00861775)
(-0.0323554 0.0018054 0.0355111)
(-0.0399453 -0.064563 0.0483036)
(-0.0500007 -0.0606675 0.0609466)
(0.0814521 -0.136145 0.05745)
(-0.0382092 -0.0342466 -0.173515)
(-0.0529705 -0.279424 -0.00381039)
(-0.152685 0.0121373 -0.0234666)
(-0.0688324 0.159632 -0.00969694)
(-0.0572055 0.153181 0.00963641)
(-0.0297602 0.152948 0.0111437)
(-0.0238845 0.137674 0.0110562)
(-0.01208 0.122259 0.00816468)
(-0.00764911 0.11394 0.00799819)
(-0.00284287 0.102425 0.0063154)