/*--------------------------------*- C++ -*----------------------------------*\
| =========                 |                                                 |
| \\      /  F ield         | OpenFOAM: The Open Source CFD Toolbox           |
|  \\    /   O peration     | Version:  2.3.0                                 |
|   \\  /    A nd           | Web:      www.OpenFOAM.org                      |
|    \\/     M anipulation  |                                                 |
\*---------------------------------------------------------------------------*/
FoamFile
{
    version     2.0;
    format      ascii;
    class       volVectorField;
    location    "7";
    object      Ur;
}
// * * * * * * * * * * * * * * * * * * * * * * * * * * * * * * * * * * * * * //

dimensions      [0 1 -1 0 0 0 0];

internalField   nonuniform List<vector> 
6144
(
(-1.27032e-07 0.00056505 2.09662e-07)
(-9.96688e-09 0.000563516 3.59397e-07)
(-7.28407e-08 0.000562771 2.61597e-07)
(-1.75945e-07 0.000562005 1.31323e-07)
(-2.38829e-07 0.000561494 3.90716e-08)
(-2.89514e-07 0.000561415 -2.64366e-08)
(-3.04643e-07 0.000561578 -5.6526e-08)
(-3.18601e-07 0.00056195 -7.78553e-08)
(-2.98223e-07 0.000562431 -8.54868e-08)
(-2.86528e-07 0.000562954 -9.07255e-08)
(-2.53312e-07 0.000563461 -9.16464e-08)
(-2.35327e-07 0.000563928 -9.44507e-08)
(-2.06167e-07 0.00056433 -9.54315e-08)
(-1.91003e-07 0.000564673 -9.72804e-08)
(-1.70762e-07 0.000564966 -9.78257e-08)
(-1.5998e-07 0.00056521 -9.84819e-08)
(-1.48546e-07 0.000565406 -9.85785e-08)
(-1.41441e-07 0.000565562 -9.85408e-08)
(-1.35582e-07 0.000565682 -9.85587e-08)
(-1.30585e-07 0.000565775 -9.74556e-08)
(-1.27778e-07 0.000565845 -9.72929e-08)
(-1.25487e-07 0.000565894 -9.67444e-08)
(-1.24045e-07 0.000565926 -9.63026e-08)
(-1.23128e-07 0.000565945 -9.58091e-08)
(-1.22494e-07 0.000565953 -9.53498e-08)
(-1.22281e-07 0.000565952 -9.50363e-08)
(-1.21987e-07 0.000565943 -9.46762e-08)
(-1.22021e-07 0.00056593 -9.44913e-08)
(-1.21743e-07 0.000565912 -9.42597e-08)
(-1.21662e-07 0.000565891 -9.42499e-08)
(-1.21219e-07 0.000565869 -9.41427e-08)
(-1.20781e-07 0.000565842 -9.41569e-08)
(-1.19902e-07 0.000565816 -9.44415e-08)
(-1.18369e-07 0.000565787 -9.48494e-08)
(-1.17599e-07 0.000565754 -9.53066e-08)
(-1.14915e-07 0.000565726 -9.60638e-08)
(-1.12615e-07 0.00056569 -9.64233e-08)
(-1.10687e-07 0.000565672 -9.82622e-08)
(-1.04757e-07 0.000565626 -9.86342e-08)
(-1.03707e-07 0.00056561 -1.00761e-07)
(-9.45436e-08 0.000565557 -1.00487e-07)
(-9.28638e-08 0.000565551 -1.0404e-07)
(-8.24507e-08 0.000565501 -1.01965e-07)
(-7.80834e-08 0.000565477 -1.04392e-07)
(-7.04969e-08 0.000565429 -9.55804e-08)
(-6.74739e-08 0.000565333 -8.79903e-08)
(-7.08405e-08 0.000565231 -5.27287e-08)
(-1.17667e-07 0.000565049 5.16308e-09)
(-1.90007e-07 0.000564719 1.52759e-07)
(-6.15145e-07 0.000566273 4.0747e-07)
(-1.28769e-06 0.000607691 1.04565e-06)
(-3.17097e-06 0.000747647 1.41152e-06)
(-2.56701e-06 0.00105444 2.04545e-06)
(-6.28102e-07 0.00146218 7.61048e-07)
(-1.77521e-06 0.00199528 -5.73353e-07)
(4.33997e-06 0.00270085 -2.15641e-05)
(6.13163e-05 0.00452718 -1.25541e-05)
(8.12038e-05 0.00813544 -2.20922e-05)
(0.000526214 0.0212343 0.00167437)
(0.00721025 0.13197 0.015952)
(-0.0338853 0.572635 0.0200553)
(-0.0344634 0.42457 0.00592722)
(-0.000710554 0.0231079 0.000646806)
(7.81217e-05 0.00908456 2.20824e-05)
(-6.01135e-05 0.00949094 6.30859e-06)
(-7.49875e-05 0.0094688 6.85309e-06)
(-4.57834e-05 0.00940643 -5.26002e-06)
(-2.79298e-05 0.00933791 -1.56911e-05)
(-2.00514e-05 0.00930069 -2.08126e-05)
(-1.42394e-05 0.00929148 -2.09598e-05)
(-8.22898e-06 0.00929393 -1.81252e-05)
(-2.747e-06 0.00929989 -1.58236e-05)
(2.0065e-06 0.0093044 -1.34359e-05)
(4.67986e-06 0.00930866 -1.24501e-05)
(5.0332e-06 0.00931426 -1.21993e-05)
(2.77836e-06 0.00931578 -9.2115e-06)
(-8.00645e-07 0.00931725 -8.23665e-06)
(-2.49549e-06 0.0093231 -6.9066e-06)
(-3.86452e-06 0.00932712 -5.76742e-06)
(-5.27822e-06 0.00933827 -9.21274e-06)
(-6.35408e-06 0.00935329 -1.00738e-05)
(-1.00557e-05 0.00938882 -1.37394e-05)
(-9.24789e-06 0.00958745 -1.93704e-05)
(-5.82821e-06 0.00998659 -1.68025e-05)
(-4.15695e-06 0.0103147 -1.09563e-05)
(-4.39077e-06 0.0104587 3.52873e-06)
(-4.86583e-06 0.0104845 4.01777e-06)
(-1.8645e-06 0.0104661 -1.34847e-06)
(4.8668e-07 0.0103478 -5.17763e-07)
(1.10667e-06 0.0100223 -1.4758e-06)
(8.01336e-07 0.00930102 -1.54515e-06)
(5.0401e-07 0.00800769 -1.26684e-06)
(1.04871e-07 0.00622761 -9.22656e-07)
(-7.27939e-08 0.00477013 -6.03984e-07)
(-1.46657e-07 0.0042982 -7.92836e-07)
(-2.11458e-07 0.00430529 -9.2303e-07)
(2.93985e-07 0.000557643 6.85663e-07)
(4.07027e-07 0.000558642 7.37815e-07)
(2.8953e-09 0.000561064 4.66779e-07)
(-2.81806e-07 0.000561558 2.30414e-07)
(-4.90146e-07 0.000561129 1.07867e-07)
(-6.11996e-07 0.000561154 1.58383e-08)
(-6.468e-07 0.000561377 -1.05249e-08)
(-6.5695e-07 0.000561796 -3.44952e-08)
(-5.94285e-07 0.000562316 -3.64476e-08)
(-5.41456e-07 0.000562859 -4.51675e-08)
(-4.48352e-07 0.000563379 -4.38903e-08)
(-3.8825e-07 0.000563845 -5.17092e-08)
(-3.09602e-07 0.000564242 -5.17689e-08)
(-2.63964e-07 0.000564575 -5.78807e-08)
(-2.10654e-07 0.000564863 -5.83707e-08)
(-1.81354e-07 0.000565103 -6.19253e-08)
(-1.50812e-07 0.000565295 -6.16749e-08)
(-1.33415e-07 0.000565447 -6.32179e-08)
(-1.18586e-07 0.000565567 -6.336e-08)
(-1.08491e-07 0.000565657 -6.36265e-08)
(-1.02468e-07 0.000565726 -6.3876e-08)
(-9.86154e-08 0.000565775 -6.37278e-08)
(-9.67447e-08 0.000565808 -6.38303e-08)
(-9.60949e-08 0.000565827 -6.3655e-08)
(-9.62074e-08 0.000565835 -6.37204e-08)
(-9.68938e-08 0.000565834 -6.3579e-08)
(-9.75822e-08 0.000565826 -6.37297e-08)
(-9.83717e-08 0.000565813 -6.36668e-08)
(-9.86432e-08 0.000565796 -6.39176e-08)
(-9.86006e-08 0.000565775 -6.39697e-08)
(-9.76668e-08 0.000565753 -6.41362e-08)
(-9.61422e-08 0.000565726 -6.4419e-08)
(-9.30885e-08 0.000565704 -6.50059e-08)
(-8.93155e-08 0.000565676 -6.52498e-08)
(-8.45811e-08 0.000565643 -6.61602e-08)
(-7.71609e-08 0.000565622 -6.67517e-08)
(-6.83897e-08 0.00056558 -6.76429e-08)
(-5.88587e-08 0.000565569 -6.8924e-08)
(-4.31153e-08 0.000565519 -6.94946e-08)
(-3.15796e-08 0.0005655 -7.23325e-08)
(-6.79012e-09 0.000565441 -7.06392e-08)
(8.88662e-09 0.000565438 -7.52216e-08)
(4.04941e-08 0.000565376 -7.08852e-08)
(6.51746e-08 0.000565356 -7.43762e-08)
(9.84945e-08 0.00056529 -6.20163e-08)
(1.25901e-07 0.000565205 -5.35299e-08)
(1.50942e-07 0.000565061 -1.36533e-08)
(1.16337e-07 0.000564858 5.77771e-08)
(6.1054e-08 0.000564129 2.31283e-07)
(-4.19867e-07 0.000569227 6.55921e-07)
(-1.54125e-06 0.00064853 1.46274e-06)
(-5.54882e-06 0.000913816 2.35439e-06)
(-5.09559e-06 0.00134245 -2.86823e-07)
(1.31437e-06 0.00172021 -3.83701e-06)
(-1.30522e-06 0.00218696 -2.44856e-07)
(3.50971e-05 0.0028275 -1.82409e-05)
(6.05041e-05 0.00486395 -4.22686e-06)
(-9.44912e-05 0.00866783 -0.000119092)
(-0.00137437 0.0235691 0.00166525)
(-0.00294492 0.122234 0.00915189)
(-0.0795631 0.564059 0.0171403)
(-0.0484302 0.318253 0.00354504)
(-0.000429585 0.0228122 7.44279e-06)
(7.5282e-05 0.00936779 -2.46426e-05)
(-7.11906e-05 0.00907181 3.19927e-07)
(-5.347e-05 0.00915708 -4.82895e-06)
(-3.22796e-05 0.00920959 -1.84403e-05)
(-2.35288e-05 0.00921371 -2.36012e-05)
(-1.84391e-05 0.00921604 -2.45417e-05)
(-1.1627e-05 0.00922267 -2.23633e-05)
(-3.09934e-06 0.00923175 -1.9316e-05)
(4.69089e-06 0.00924023 -1.70087e-05)
(1.07278e-05 0.00924504 -1.42091e-05)
(1.25015e-05 0.0092483 -1.2836e-05)
(1.05929e-05 0.00925097 -1.05618e-05)
(4.84003e-06 0.009252 -7.62083e-06)
(-2.37127e-06 0.0092606 -6.79958e-06)
(-6.56983e-06 0.00927536 -5.15694e-06)
(-1.07991e-05 0.00928391 -5.7293e-06)
(-1.413e-05 0.00929116 -8.15003e-06)
(-1.00069e-05 0.00929775 -6.61506e-06)
(-1.10828e-05 0.00936677 -9.44912e-06)
(-2.25934e-05 0.00965159 -1.64705e-05)
(-2.65635e-05 0.0100729 -1.35632e-05)
(-1.94644e-05 0.0103338 -7.81328e-06)
(-9.48945e-06 0.0104177 1.55447e-06)
(-5.46028e-06 0.0104313 7.87173e-07)
(-9.9209e-07 0.0103996 -1.65894e-06)
(3.87622e-06 0.0102731 4.61344e-07)
(5.24989e-06 0.00995363 5.39718e-07)
(3.8079e-06 0.00926099 -5.40355e-07)
(2.28805e-06 0.00801574 -1.3568e-06)
(1.1074e-06 0.00626448 -1.05785e-06)
(4.7626e-07 0.00479522 -1.84066e-07)
(2.20427e-07 0.00430309 -5.77022e-07)
(1.78332e-07 0.00430484 -4.11758e-07)
(3.95792e-07 0.000544363 2.22864e-06)
(3.10984e-07 0.000546377 1.49521e-06)
(-2.9675e-07 0.000555178 8.10786e-07)
(-5.68026e-07 0.000559979 3.62516e-07)
(-8.17143e-07 0.000560552 1.68344e-07)
(-9.12867e-07 0.000561048 5.53313e-08)
(-9.33421e-07 0.00056137 2.86961e-08)
(-9.02346e-07 0.000561861 4.67717e-09)
(-7.88201e-07 0.000562423 8.9642e-09)
(-6.75908e-07 0.000562985 4.9524e-09)
(-5.31904e-07 0.000563511 9.2124e-09)
(-4.24062e-07 0.000563968 3.07528e-09)
(-3.09741e-07 0.000564351 4.13783e-09)
(-2.32331e-07 0.000564667 -2.97865e-09)
(-1.57827e-07 0.000564938 -5.71504e-09)
(-1.11358e-07 0.00056516 -1.04512e-08)
(-7.10737e-08 0.000565341 -1.21046e-08)
(-4.61304e-08 0.000565483 -1.50277e-08)
(-2.7706e-08 0.000565595 -1.63995e-08)
(-1.62429e-08 0.000565679 -1.77133e-08)
(-1.05149e-08 0.000565744 -1.87678e-08)
(-7.53549e-09 0.000565791 -1.92829e-08)
(-7.82979e-09 0.000565822 -1.99292e-08)
(-9.25853e-09 0.000565839 -2.01436e-08)
(-1.18392e-08 0.000565846 -2.05118e-08)
(-1.46481e-08 0.000565845 -2.06898e-08)
(-1.73628e-08 0.000565837 -2.0981e-08)
(-1.96549e-08 0.000565824 -2.12029e-08)
(-2.09987e-08 0.000565807 -2.1467e-08)
(-2.13707e-08 0.000565788 -2.17004e-08)
(-2.02164e-08 0.000565768 -2.16211e-08)
(-1.75721e-08 0.000565742 -2.17223e-08)
(-1.24341e-08 0.000565721 -2.14987e-08)
(-6.25745e-09 0.000565693 -2.11321e-08)
(3.70997e-09 0.000565663 -2.1441e-08)
(1.60065e-08 0.000565644 -2.15074e-08)
(3.22785e-08 0.000565605 -2.18754e-08)
(5.147e-08 0.000565596 -2.23822e-08)
(7.66705e-08 0.000565548 -2.21467e-08)
(1.02576e-07 0.000565538 -2.36709e-08)
(1.41908e-07 0.000565484 -2.11784e-08)
(1.78251e-07 0.00056548 -2.34593e-08)
(2.30067e-07 0.000565424 -1.97167e-08)
(2.83569e-07 0.000565401 -2.10035e-08)
(3.49234e-07 0.000565336 -6.42231e-09)
(4.18092e-07 0.000565253 1.79405e-09)
(4.99422e-07 0.000565095 3.90311e-08)
(5.72944e-07 0.000564853 1.04736e-07)
(6.8617e-07 0.000564344 2.70868e-07)
(8.04942e-07 0.000563459 6.89349e-07)
(8.56938e-07 0.000623886 1.62469e-06)
(-5.03498e-07 0.000913415 2.525e-06)
(-3.81087e-06 0.00146371 3.73558e-07)
(-8.0485e-06 0.00197552 -6.18551e-06)
(1.05032e-05 0.00254951 -4.84401e-06)
(6.89633e-05 0.00296531 -3.09009e-05)
(-6.04606e-06 0.00433004 4.34546e-05)
(-0.000342879 0.00628571 2.06562e-05)
(-0.00222754 0.0173096 0.000822703)
(0.00352614 0.113275 0.00803317)
(-0.00911691 0.415211 0.00699175)
(-0.000453083 0.0355372 -0.000467506)
(0.000100082 0.00860974 3.91928e-05)
(-0.000222461 0.00993998 8.44745e-06)
(-0.00012998 0.00922589 -3.93631e-06)
(-4.14798e-05 0.00937164 -9.35145e-06)
(-4.31745e-05 0.00940478 -2.26666e-05)
(-3.32981e-05 0.00940924 -3.0555e-05)
(-1.69255e-05 0.00941284 -3.01492e-05)
(-2.33386e-06 0.00941491 -2.71517e-05)
(1.12216e-05 0.00940817 -2.41341e-05)
(2.51152e-05 0.00938764 -2.10229e-05)
(4.11715e-05 0.0093557 -1.7299e-05)
(4.37689e-05 0.00931086 -1.32241e-05)
(2.96783e-05 0.00925869 -8.4986e-06)
(1.49836e-05 0.0092278 -4.56634e-06)
(3.85336e-06 0.00922646 -2.68565e-06)
(-3.18647e-06 0.00923752 -1.52465e-06)
(-8.8144e-06 0.00927337 -2.91443e-06)
(-1.35368e-05 0.00939067 -7.7316e-06)
(-1.8385e-05 0.00962028 -1.31295e-05)
(-2.11109e-05 0.00992706 -1.52587e-05)
(-2.65083e-05 0.0102135 -1.40288e-05)
(-2.98597e-05 0.0103756 -1.36966e-05)
(-2.06608e-05 0.0104324 -8.90814e-06)
(-8.58556e-06 0.0104455 -4.85386e-06)
(-1.80666e-07 0.0104467 -2.91423e-06)
(4.10651e-06 0.0104136 -6.45032e-07)
(7.58059e-06 0.0102889 1.86059e-06)
(7.52838e-06 0.00995186 1.8577e-06)
(5.31511e-06 0.00921831 1.12918e-06)
(2.8742e-06 0.00794658 1.88775e-07)
(1.3004e-06 0.00621741 4.92678e-08)
(5.45925e-07 0.00478566 7.82711e-07)
(2.41031e-07 0.0043045 1.05874e-07)
(2.42876e-07 0.00430436 2.12141e-07)
(-6.61577e-07 0.000533271 3.07291e-06)
(-6.13785e-07 0.000533743 1.95192e-06)
(-1.06442e-06 0.000544037 9.42648e-07)
(-1.02983e-06 0.000552298 4.15559e-07)
(-1.21952e-06 0.000556714 1.99296e-07)
(-1.23623e-06 0.000559803 5.17454e-08)
(-1.24003e-06 0.000561095 2.26008e-08)
(-1.16329e-06 0.000561927 1.06599e-09)
(-9.9384e-07 0.000562575 1.69252e-08)
(-8.3228e-07 0.000563158 2.68096e-08)
(-6.34871e-07 0.000563693 3.86401e-08)
(-4.90586e-07 0.000564131 3.88647e-08)
(-3.37084e-07 0.000564502 4.32799e-08)
(-2.37963e-07 0.000564794 3.85259e-08)
(-1.40521e-07 0.000565041 3.99314e-08)
(-8.33455e-08 0.000565238 3.56397e-08)
(-2.95314e-08 0.000565402 3.50725e-08)
(-8.50235e-10 0.000565531 3.22769e-08)
(2.20826e-08 0.000565634 3.2783e-08)
(3.35677e-08 0.00056571 3.16088e-08)
(3.97154e-08 0.00056577 3.21764e-08)
(4.12571e-08 0.000565811 3.21035e-08)
(3.94575e-08 0.000565839 3.26259e-08)
(3.58528e-08 0.000565854 3.31125e-08)
(3.13205e-08 0.000565859 3.3676e-08)
(2.65428e-08 0.000565857 3.42404e-08)
(2.2056e-08 0.000565849 3.45855e-08)
(1.83691e-08 0.000565837 3.51068e-08)
(1.58021e-08 0.000565822 3.53286e-08)
(1.48434e-08 0.000565804 3.59526e-08)
(1.55678e-08 0.000565786 3.62058e-08)
(1.85837e-08 0.000565764 3.6741e-08)
(2.41044e-08 0.000565744 3.71157e-08)
(3.22548e-08 0.00056572 3.76278e-08)
(4.49327e-08 0.000565696 3.74062e-08)
(6.11405e-08 0.000565679 3.75435e-08)
(8.16868e-08 0.000565646 3.70378e-08)
(1.07625e-07 0.000565645 3.66854e-08)
(1.39497e-07 0.000565599 3.66537e-08)
(1.75347e-07 0.000565606 3.53088e-08)
(2.24987e-07 0.000565555 3.75277e-08)
(2.75e-07 0.000565564 3.24567e-08)
(3.48835e-07 0.000565515 4.03918e-08)
(4.21437e-07 0.000565508 3.56592e-08)
(5.21051e-07 0.00056545 5.35817e-08)
(6.25464e-07 0.000565378 5.84034e-08)
(7.75512e-07 0.00056524 9.31231e-08)
(9.53862e-07 0.00056503 1.39835e-07)
(1.24105e-06 0.000564637 2.61259e-07)
(1.77451e-06 0.000563631 5.66206e-07)
(2.86115e-06 0.000569132 1.25285e-06)
(4.2801e-06 0.000731276 2.78454e-06)
(1.65147e-06 0.00128104 2.07153e-06)
(-1.92447e-05 0.00204092 -5.2629e-06)
(1.11261e-06 0.00287097 -6.4118e-06)
(1.34229e-05 0.0031753 -4.90156e-05)
(6.02424e-05 0.00403246 -4.75173e-05)
(-0.000243736 0.00476635 8.41155e-05)
(-0.0025904 0.0179455 0.00108267)
(0.0158248 0.13507 0.00590949)
(0.00779762 0.442207 0.00389208)
(-0.000761616 0.0362961 -0.000617819)
(0.00101535 0.00977437 4.11993e-05)
(8.0728e-06 0.00991893 1.26481e-05)
(0.000225026 0.00952896 1.0787e-05)
(0.000104268 0.0093022 -1.2588e-05)
(9.74168e-05 0.00931258 -2.56011e-05)
(8.60858e-05 0.00935819 -2.29032e-05)
(4.5089e-05 0.00939472 -2.19274e-05)
(6.19314e-06 0.00945657 -2.12734e-05)
(-2.42529e-05 0.00956838 -2.12863e-05)
(-4.77247e-05 0.00976106 -2.06453e-05)
(-9.19526e-05 0.0100458 -2.5252e-05)
(-0.000138982 0.0105978 -2.40654e-05)
(-9.1914e-05 0.0111682 -1.17781e-05)
(-2.48655e-05 0.0112177 -7.69323e-06)
(1.00332e-05 0.0107365 -3.22189e-06)
(3.79552e-05 0.0102646 4.42563e-07)
(8.63524e-06 0.0100151 -4.18974e-08)
(4.94397e-06 0.0100071 -8.76749e-07)
(-4.8346e-06 0.0101023 -4.69648e-06)
(-1.23093e-05 0.0102112 -1.00357e-05)
(-1.7065e-05 0.0102965 -1.29106e-05)
(-1.97622e-05 0.010347 -1.43006e-05)
(-1.25448e-05 0.0103747 -1.45127e-05)
(-6.09445e-07 0.0103951 -1.04193e-05)
(7.6121e-06 0.0103973 -5.13104e-06)
(9.64168e-06 0.0103458 3.55948e-08)
(9.04414e-06 0.0101862 2.02893e-06)
(7.24036e-06 0.00982303 1.75933e-06)
(5.32692e-06 0.00911259 7.82691e-07)
(2.99409e-06 0.00791907 8.54055e-08)
(9.27673e-07 0.00626357 2.55002e-08)
(-7.50367e-08 0.00483674 1.18437e-06)
(-1.01222e-06 0.0043196 6.21469e-07)
(-1.53376e-06 0.00430318 6.50023e-07)
(-1.52579e-06 0.000524574 9.98199e-07)
(-1.3252e-06 0.000525192 1.12262e-06)
(-1.86823e-06 0.000533296 6.55605e-07)
(-1.4741e-06 0.000541459 3.21769e-07)
(-1.62886e-06 0.000548831 2.23902e-07)
(-1.52695e-06 0.000555769 4.22407e-08)
(-1.5184e-06 0.000559527 5.38279e-09)
(-1.40541e-06 0.000561593 -6.61689e-08)
(-1.2155e-06 0.000562712 -3.04149e-08)
(-1.03243e-06 0.000563375 -3.10144e-09)
(-8.06685e-07 0.000563909 2.73074e-08)
(-6.4253e-07 0.000564326 3.80295e-08)
(-4.66756e-07 0.000564676 4.95041e-08)
(-3.56446e-07 0.000564936 4.88068e-08)
(-2.45945e-07 0.000565159 5.23742e-08)
(-1.84113e-07 0.000565326 4.98172e-08)
(-1.25834e-07 0.000565472 5.08959e-08)
(-9.66752e-08 0.00056558 4.96066e-08)
(-7.15098e-08 0.000565672 4.90713e-08)
(-6.14956e-08 0.000565739 4.88183e-08)
(-5.75703e-08 0.000565791 4.869e-08)
(-5.86578e-08 0.000565827 4.92953e-08)
(-6.40818e-08 0.000565852 4.91942e-08)
(-7.08274e-08 0.000565865 4.98922e-08)
(-7.90146e-08 0.00056587 5.03535e-08)
(-8.69053e-08 0.000565869 5.1095e-08)
(-9.4182e-08 0.000565862 5.14312e-08)
(-1.00061e-07 0.000565852 5.14305e-08)
(-1.04208e-07 0.000565839 5.15354e-08)
(-1.06282e-07 0.000565824 5.11916e-08)
(-1.0578e-07 0.000565808 5.09867e-08)
(-1.02559e-07 0.00056579 5.01307e-08)
(-9.62612e-08 0.000565774 4.99537e-08)
(-8.70563e-08 0.000565754 4.96893e-08)
(-7.22908e-08 0.000565734 4.95736e-08)
(-5.37544e-08 0.000565721 4.87435e-08)
(-2.99705e-08 0.000565697 4.7651e-08)
(3.7495e-11 0.0005657 4.6497e-08)
(3.58023e-08 0.00056566 4.42661e-08)
(7.93075e-08 0.00056568 4.21988e-08)
(1.34327e-07 0.000565632 4.06198e-08)
(1.95315e-07 0.000565666 3.49773e-08)
(2.8613e-07 0.000565622 3.90465e-08)
(3.74328e-07 0.000565643 2.65007e-08)
(5.12849e-07 0.000565598 3.87985e-08)
(6.48752e-07 0.000565566 2.49176e-08)
(8.72458e-07 0.000565483 4.23875e-08)
(1.13729e-06 0.000565326 6.20122e-08)
(1.53709e-06 0.000565122 1.36383e-07)
(2.22761e-06 0.000564815 3.42476e-07)
(3.30723e-06 0.000563955 7.55348e-07)
(5.60649e-06 0.00057985 1.8338e-06)
(6.32912e-06 0.00086063 3.25211e-06)
(-7.87294e-06 0.00168177 -7.59646e-06)
(1.06108e-05 0.00297005 5.01869e-05)
(2.09066e-05 0.00368105 3.10331e-05)
(9.77883e-05 0.00441501 7.20209e-05)
(-0.000461843 0.00359726 0.000201739)
(-0.00227227 0.0244435 0.00154615)
(0.0167819 0.205917 0.0163673)
(-0.00976782 0.565014 0.00285889)
(-0.00163788 0.487882 0.00247531)
(-0.013962 0.495777 -0.000718717)
(-0.00567007 0.494318 -0.00278387)
(-0.00420545 0.49301 -0.00159929)
(-0.00416592 0.496768 -0.00189233)
(-0.00200802 0.504327 -0.000187696)
(-8.42182e-05 0.493661 1.56607e-05)
(-0.000191602 0.49962 0.000684593)
(0.00101054 0.503912 0.000704513)
(0.00100692 0.493072 0.000767288)
(0.00303672 0.498434 0.00182953)
(0.00212019 0.500251 0.000768889)
(0.00265159 0.49137 0.000835055)
(0.00147389 0.461785 0.000335949)
(0.000626126 0.360939 -1.6688e-05)
(9.82241e-05 0.303737 -0.000209936)
(0.000171311 0.212424 -0.00025929)
(3.4056e-05 0.031853 -0.000121067)
(3.18597e-05 0.0100375 -7.63753e-07)
(2.08764e-05 0.0100045 -9.27056e-06)
(1.38615e-05 0.00985542 -9.2174e-06)
(5.81812e-06 0.00978549 -1.33681e-05)
(1.40485e-05 0.00978642 -1.23665e-05)
(3.90501e-05 0.00995841 -1.1188e-05)
(1.31042e-05 0.0100986 -6.70634e-06)
(1.52014e-05 0.0101441 -1.7515e-06)
(1.17673e-05 0.010097 9.57134e-07)
(7.98212e-06 0.00990596 1.89022e-06)
(4.54915e-06 0.00950237 1.32228e-06)
(3.60194e-06 0.00877444 -9.57723e-07)
(1.88982e-06 0.00757006 -1.77512e-06)
(2.79449e-08 0.00596502 -9.14249e-07)
(-1.27393e-06 0.00469369 1.30694e-06)
(-2.56509e-06 0.00429586 1.67891e-06)
(-2.73206e-06 0.00430242 2.34603e-06)
(-1.56872e-06 0.000519935 3.25071e-07)
(-1.30873e-06 0.000520591 5.96983e-07)
(-2.34952e-06 0.000526207 2.78053e-07)
(-1.76687e-06 0.000533101 6.18516e-08)
(-1.91657e-06 0.000541631 2.10128e-08)
(-1.63332e-06 0.000550982 -1.37267e-07)
(-1.59773e-06 0.000556664 -1.55073e-07)
(-1.43216e-06 0.000560464 -2.29562e-07)
(-1.29878e-06 0.000562611 -1.90032e-07)
(-1.12891e-06 0.000563546 -1.3422e-07)
(-9.28775e-07 0.00056412 -7.3677e-08)
(-7.69457e-07 0.000564506 -3.5481e-08)
(-6.08014e-07 0.00056484 -7.55511e-09)
(-5.04724e-07 0.000565063 2.92926e-09)
(-4.03605e-07 0.000565262 1.35381e-08)
(-3.49567e-07 0.000565401 1.34721e-08)
(-2.97535e-07 0.000565528 1.79043e-08)
(-2.75317e-07 0.000565617 1.57169e-08)
(-2.54649e-07 0.000565696 1.79167e-08)
(-2.50614e-07 0.000565752 1.60377e-08)
(-2.50451e-07 0.000565796 1.67676e-08)
(-2.56599e-07 0.000565825 1.53416e-08)
(-2.65155e-07 0.000565844 1.46145e-08)
(-2.75168e-07 0.000565854 1.28218e-08)
(-2.85355e-07 0.000565857 1.09536e-08)
(-2.9508e-07 0.000565856 8.44179e-09)
(-3.03366e-07 0.000565849 6.49232e-09)
(-3.0975e-07 0.000565839 4.61528e-09)
(-3.13389e-07 0.000565827 2.04349e-09)
(-3.14077e-07 0.000565814 -4.12352e-10)
(-3.11888e-07 0.0005658 -3.35542e-09)
(-3.06242e-07 0.000565783 -6.1536e-09)
(-2.97243e-07 0.000565769 -9.84538e-09)
(-2.84345e-07 0.000565753 -1.35117e-08)
(-2.65634e-07 0.000565735 -1.75514e-08)
(-2.41901e-07 0.000565724 -2.11503e-08)
(-2.12262e-07 0.000565703 -2.5493e-08)
(-1.74948e-07 0.000565705 -2.89367e-08)
(-1.3176e-07 0.000565677 -3.41471e-08)
(-7.64472e-08 0.0005657 -3.83135e-08)
(-1.25618e-08 0.000565664 -4.4323e-08)
(6.72581e-08 0.000565716 -5.04959e-08)
(1.72477e-07 0.000565678 -5.35131e-08)
(2.89171e-07 0.000565729 -6.45966e-08)
(4.59463e-07 0.000565693 -6.15993e-08)
(6.42333e-07 0.000565719 -7.68548e-08)
(9.22732e-07 0.000565675 -7.30254e-08)
(1.26858e-06 0.000565658 -8.13778e-08)
(1.74256e-06 0.000565604 -7.04169e-08)
(2.50641e-06 0.000565472 6.144e-08)
(3.4717e-06 0.000567697 2.61831e-07)
(5.69403e-06 0.000568328 9.59457e-07)
(8.42447e-06 0.000687887 2.37352e-06)
(4.89695e-07 0.00148828 -9.31423e-07)
(1.30222e-05 0.00311318 4.46137e-05)
(-3.07631e-05 0.00381697 1.73941e-05)
(0.000107117 0.00400076 0.00019982)
(-7.99523e-05 0.00286662 0.000256497)
(-0.000480315 0.0253605 0.00318774)
(0.0139089 0.296941 0.019652)
(0.00582455 0.542229 -0.000203086)
(-0.0030165 0.480244 0.00236575)
(0.000341657 0.488206 -0.000396888)
(-0.0010834 0.498556 -0.000340335)
(-0.000389738 0.497277 -0.000132574)
(0.000336995 0.493159 0.000692672)
(2.18111e-05 0.465849 0.000314492)
(-0.000285149 0.435352 0.000707401)
(0.000106587 0.505255 0.000291871)
(0.00019779 0.476762 0.000258065)
(0.00109905 0.495318 0.000554991)
(0.000145483 0.464837 -9.11532e-05)
(-0.000180219 0.511682 -0.000301471)
(-0.000531761 0.493471 -0.000371321)
(0.000291793 0.499111 -0.000576306)
(-0.00181744 0.491961 -0.00052223)
(-0.000948987 0.489842 -0.000720368)
(-0.0012933 0.494728 -0.000857696)
(-0.00168024 0.474985 -0.000923741)
(-0.00281054 0.467421 -0.000846632)
(-0.00214721 0.431387 -0.00058409)
(-0.00168352 0.491425 -0.000451093)
(-0.00179368 0.472496 -0.000364508)
(-0.00176335 0.358208 -0.000343402)
(0.000219909 0.15746 -0.000295097)
(2.66841e-05 0.030267 -0.000139508)
(5.00497e-06 0.00611862 -1.11618e-05)
(3.70586e-06 0.00566992 -6.25468e-06)
(1.48578e-05 0.00580155 -2.34944e-06)
(-4.94562e-06 0.00619995 -0.000177594)
(7.84789e-06 0.00602702 -3.18819e-06)
(-3.54403e-06 0.00534391 -7.53268e-06)
(-4.06759e-06 0.00458209 -2.28715e-06)
(-3.62593e-06 0.00429721 5.797e-07)
(-7.98021e-06 0.00430209 1.11997e-06)
(-2.33384e-05 0.00430027 -5.59359e-07)
(-1.68783e-06 0.000517869 -4.70741e-08)
(-1.26294e-06 0.000518129 3.66019e-07)
(-2.70723e-06 0.000521688 -9.27157e-08)
(-2.01918e-06 0.000527776 -2.07734e-07)
(-2.06474e-06 0.00053611 -2.17163e-07)
(-1.66107e-06 0.000546005 -3.28212e-07)
(-1.56933e-06 0.000552998 -2.7581e-07)
(-1.33364e-06 0.000558721 -3.70744e-07)
(-1.23008e-06 0.000562117 -3.56477e-07)
(-1.08699e-06 0.000563606 -3.02606e-07)
(-9.338e-07 0.000564266 -2.06529e-07)
(-7.91196e-07 0.000564634 -1.33986e-07)
(-6.65444e-07 0.000564951 -8.8905e-08)
(-5.76801e-07 0.000565152 -6.29614e-08)
(-5.03479e-07 0.000565337 -5.02285e-08)
(-4.59315e-07 0.000565457 -4.19227e-08)
(-4.23713e-07 0.00056557 -3.80744e-08)
(-4.08176e-07 0.000565647 -3.55125e-08)
(-3.98002e-07 0.000565721 -3.57242e-08)
(-3.97283e-07 0.000565771 -3.46314e-08)
(-4.00326e-07 0.000565815 -3.5486e-08)
(-4.06526e-07 0.000565845 -3.5128e-08)
(-4.14191e-07 0.000565867 -3.69711e-08)
(-4.21729e-07 0.00056588 -3.85432e-08)
(-4.28987e-07 0.000565888 -4.19727e-08)
(-4.34482e-07 0.000565891 -4.54524e-08)
(-4.38219e-07 0.000565889 -4.97194e-08)
(-4.39843e-07 0.000565885 -5.42163e-08)
(-4.39071e-07 0.000565879 -5.87436e-08)
(-4.35028e-07 0.000565871 -6.31049e-08)
(-4.2719e-07 0.000565863 -6.68853e-08)
(-4.15154e-07 0.000565853 -7.1371e-08)
(-3.99027e-07 0.000565844 -7.67738e-08)
(-3.78416e-07 0.000565835 -8.29638e-08)
(-3.51973e-07 0.000565822 -8.80574e-08)
(-3.2049e-07 0.000565815 -9.37957e-08)
(-2.82675e-07 0.000565802 -9.97033e-08)
(-2.37484e-07 0.00056581 -1.06344e-07)
(-1.84724e-07 0.000565791 -1.13106e-07)
(-1.19898e-07 0.000565823 -1.18177e-07)
(-4.53065e-08 0.000565809 -1.27026e-07)
(4.89038e-08 0.000565868 -1.38563e-07)
(1.63213e-07 0.000565849 -1.42765e-07)
(2.91088e-07 0.000565933 -1.5025e-07)
(4.77847e-07 0.000565926 -1.47132e-07)
(6.7952e-07 0.000566033 -1.63054e-07)
(9.73925e-07 0.00056602 -1.74592e-07)
(1.33647e-06 0.000566124 -2.00928e-07)
(1.77047e-06 0.000566246 -2.55396e-07)
(2.53916e-06 0.000566352 -2.05006e-07)
(3.23894e-06 0.000570712 -2.72238e-07)
(5.44643e-06 0.000586996 3.63529e-07)
(8.29204e-06 0.000610485 1.15853e-06)
(8.39039e-06 0.00115534 2.06872e-06)
(-1.03864e-05 0.00272754 1.87636e-05)
(-0.000117011 0.00398673 5.29984e-05)
(4.40146e-05 0.00449687 0.00012912)
(0.0001205 0.00322586 1.65207e-05)
(0.00134324 0.0221572 0.00303424)
(0.00636148 0.363757 0.0180163)
(0.00204003 0.561145 -0.00358016)
(0.00200755 0.47157 0.00181987)
(-0.000457146 0.374648 -0.00312858)
(0.00182076 0.451472 -0.000710198)
(-0.000836281 0.382665 -0.000327759)
(-0.000613583 0.482323 0.00036427)
(-0.000708551 0.430354 0.000264905)
(-0.000677244 0.405576 0.000578315)
(-0.00119807 0.49222 -7.12586e-05)
(-0.00143174 0.482303 -0.000140673)
(-0.0015726 0.464583 -0.000360689)
(-0.000319226 0.44427 1.12909e-05)
(-0.000554715 0.367867 -0.000191962)
(-0.00122902 0.480888 -3.66466e-05)
(-0.00178638 0.464812 -0.000885509)
(0.00067166 0.480532 0.000977035)
(-0.000605105 0.499642 -0.000341359)
(-0.000861925 0.492008 -0.000705376)
(-0.00122434 0.498089 -0.00086822)
(-0.00206552 0.484645 -0.0013408)
(-0.00245299 0.465908 -0.00171098)
(-0.0019282 0.443303 -0.00140306)
(-0.00259367 0.490721 -0.00184587)
(-0.00324881 0.483574 -0.00220204)
(-0.00370753 0.48274 -0.00156708)
(-0.00319734 0.483202 -0.00110704)
(-0.00254472 0.496662 -0.00138357)
(-0.00303318 0.497036 -0.00144199)
(-0.00274411 0.483068 -0.00203114)
(-0.00150138 0.461661 -0.00195822)
(-0.00062523 0.455905 -0.00203169)
(-0.000912253 0.374706 -0.00144265)
(-9.25722e-05 0.0333585 -0.000250507)
(-8.09523e-05 0.00554189 -0.000246366)
(-3.17317e-05 0.0288877 -0.000217024)
(-0.000580528 0.264245 0.00107777)
(-1.89824e-06 0.00051607 -4.80921e-07)
(-1.84474e-06 0.000515826 2.89694e-07)
(-3.26535e-06 0.000518038 -5.03081e-07)
(-2.47446e-06 0.000523819 -3.06571e-07)
(-2.19596e-06 0.000530057 -3.43354e-07)
(-1.80669e-06 0.000539013 -2.7382e-07)
(-1.56951e-06 0.000547301 -1.88001e-07)
(-1.30769e-06 0.000555355 -2.61161e-07)
(-1.17348e-06 0.000560752 -3.03251e-07)
(-1.07217e-06 0.000563409 -2.8857e-07)
(-9.36541e-07 0.000564369 -2.06219e-07)
(-8.21805e-07 0.000564735 -1.4002e-07)
(-7.06965e-07 0.00056502 -1.01744e-07)
(-6.36991e-07 0.00056519 -7.70507e-08)
(-5.6959e-07 0.000565355 -6.51734e-08)
(-5.38673e-07 0.000565456 -5.83864e-08)
(-5.09517e-07 0.00056556 -5.55197e-08)
(-5.02541e-07 0.000565629 -5.4449e-08)
(-4.97385e-07 0.000565698 -5.3147e-08)
(-5.03093e-07 0.000565744 -5.33633e-08)
(-5.10659e-07 0.000565786 -5.36426e-08)
(-5.21329e-07 0.000565817 -5.51616e-08)
(-5.32752e-07 0.000565839 -5.67983e-08)
(-5.44061e-07 0.000565853 -5.86151e-08)
(-5.54812e-07 0.000565862 -6.05872e-08)
(-5.63669e-07 0.000565865 -6.27294e-08)
(-5.70237e-07 0.000565867 -6.6732e-08)
(-5.74008e-07 0.000565866 -7.03341e-08)
(-5.75482e-07 0.000565861 -7.17364e-08)
(-5.74056e-07 0.000565856 -7.29703e-08)
(-5.68555e-07 0.000565851 -7.46521e-08)
(-5.58852e-07 0.000565844 -7.60928e-08)
(-5.44588e-07 0.000565839 -7.79211e-08)
(-5.25827e-07 0.000565833 -7.9467e-08)
(-5.01501e-07 0.000565827 -8.13237e-08)
(-4.72265e-07 0.000565828 -8.31052e-08)
(-4.37057e-07 0.000565821 -8.50226e-08)
(-3.95819e-07 0.000565831 -8.6995e-08)
(-3.48748e-07 0.00056582 -8.8651e-08)
(-2.92104e-07 0.000565856 -9.03001e-08)
(-2.28238e-07 0.000565858 -9.43439e-08)
(-1.51824e-07 0.000565923 -9.68468e-08)
(-5.31127e-08 0.000565927 -9.40469e-08)
(6.16579e-08 0.000566035 -9.51334e-08)
(2.26639e-07 0.000566067 -9.26599e-08)
(4.00435e-07 0.000566199 -1.08706e-07)
(6.58055e-07 0.000566271 -1.19466e-07)
(9.69545e-07 0.000566433 -1.59782e-07)
(1.29509e-06 0.000566786 -1.94145e-07)
(1.95382e-06 0.000567267 -2.28483e-07)
(2.28363e-06 0.000572852 -2.43438e-07)
(4.3605e-06 0.00060144 5.79271e-08)
(6.7372e-06 0.000637424 5.9163e-07)
(1.28978e-05 0.000986684 3.34842e-06)
(7.24378e-06 0.00228664 1.05174e-05)
(-6.33241e-05 0.00378368 6.71595e-05)
(-0.000168541 0.00459401 7.71849e-05)
(6.2366e-05 0.00363553 6.0473e-05)
(0.00102234 0.0234191 0.00214946)
(-0.0121184 0.390933 0.0164335)
(-0.00944271 0.555514 -0.00627936)
(0.00231281 0.492776 0.00231896)
(-0.0019021 0.4894 0.000527126)
(-0.00142724 0.495975 0.000326304)
(-0.00214792 0.495245 -0.000223829)
(-0.00319069 0.488104 0.0012357)
(0.000632114 0.493134 0.000499939)
(-0.00153387 0.509553 0.00142012)
(-0.00187722 0.492547 0.000541104)
(-0.00124967 0.493983 0.001265)
(-0.00099634 0.49002 0.00109405)
(-0.000291757 0.497194 0.00126696)
(-0.000456272 0.495256 0.00119931)
(0.000556428 0.492749 0.00166687)
(-0.000734061 0.49874 0.00184572)
(0.000940263 0.498046 0.00261163)
(0.000284346 0.493582 0.00252733)
(0.000181856 0.497071 0.00255311)
(8.90068e-06 0.494323 0.00261484)
(0.000242499 0.495725 0.00257029)
(2.33898e-05 0.497016 0.00216157)
(-0.000103239 0.491726 0.00223649)
(-0.000192283 0.491486 0.00222408)
(-0.000843382 0.493563 0.00155869)
(-0.000555909 0.495204 0.00171655)
(-0.0007909 0.4973 0.00116317)
(-0.00104812 0.482033 2.7251e-05)
(-0.00114049 0.363679 -0.00108798)
(-0.000470963 0.257275 -0.00108627)
(-0.00121202 0.439291 -0.002999)
(-0.00113012 0.332007 -0.00301641)
(-0.00193597 0.435971 -0.00730442)
(-0.00296214 0.474543 -0.0135373)
(-0.00444689 0.423188 -0.0223595)
(-0.00209263 0.317787 -0.00340663)
(-0.00257979 0.359599 0.034408)
(-5.62104e-06 0.000270081 -3.35824e-06)
(-2.54298e-06 0.000529684 2.08592e-07)