/*--------------------------------*- C++ -*----------------------------------*\
| =========                 |                                                 |
| \\      /  F ield         | OpenFOAM: The Open Source CFD Toolbox           |
|  \\    /   O peration     | Version:  2.3.0                                 |
|   \\  /    A nd           | Web:      www.OpenFOAM.org                      |
|    \\/     M anipulation  |                                                 |
\*---------------------------------------------------------------------------*/
FoamFile
{
    version     2.0;
    format      ascii;
    class       volScalarField;
    location    "7";
    object      w1;
}
// * * * * * * * * * * * * * * * * * * * * * * * * * * * * * * * * * * * * * //

dimensions      [0 0 0 0 0 0 0];

internalField   nonuniform List<scalar> 
6144
(
0.518788
0.518788
0.518788
0.518788
0.518788
0.518788
0.518788
0.518788
0.518788
0.518788
0.518788
0.518788
0.518788
0.518788
0.518788
0.518788
0.518788
0.518788
0.518788
0.518788
0.518788
0.518788
0.518788
0.518788
0.518788
0.518788
0.518788
0.518788
0.518788
0.518788
0.518788
0.518788
0.518788
0.518788
0.518788
0.518788
0.518788
0.518788
0.518788
0.518788
0.518788
0.518788
0.518788
0.518788
0.518788
0.518788
0.518788
0.518788
0.518788
0.518788
0.518788
0.518788
0.518788
0.518788
0.518788
0.518788
0.518785
0.51854
0.482802
0.493376
0.824639
0.998935
0.999994
0.999178
0.996489
0.992919
0.987195
0.965135
0.986499
0.985692
0.984573
0.984867
0.981237
0.979014
0.970488
0.863428
0.938921
0.951686
0.956915
0.967328
0.982672
0.981616
0.996909
0.997579
0.992309
0.952091
0.929266
0.136706
0.988627
0.99633
0.998472
0.999228
0.999521
0.999349
0.984047
0.999861
0.518788
0.518788
0.518788
0.518788
0.518788
0.518788
0.518788
0.518788
0.518788
0.518788
0.518788
0.518788
0.518788
0.518788
0.518788
0.518788
0.518788
0.518788
0.518788
0.518788
0.518788
0.518788
0.518788
0.518788
0.518788
0.518788
0.518788
0.518788
0.518788
0.518788
0.518788
0.518788
0.518788
0.518788
0.518788
0.518788
0.518788
0.518788
0.518788
0.518788
0.518788
0.518788
0.518788
0.518788
0.518788
0.518788
0.518788
0.518788
0.518788
0.518788
0.518788
0.518788
0.518788
0.518788
0.518788
0.518788
0.518783
0.517993
0.484397
0.472939
0.887908
0.999749
0.999993
0.999286
0.99912
0.993519
0.991828
0.983163
0.991718
0.99023
0.978326
0.917066
0.980144
0.990907
0.989798
0.953696
0.901175
0.960837
0.786689
0.810517
0.979182
0.962698
0.997491
0.997802
0.99087
0.831983
0.938787
0.0566143
0.988851
0.996759
0.998536
0.999234
0.999535
0.999414
0.988195
0.999863
0.518788
0.518788
0.518788
0.518788
0.518788
0.518788
0.518788
0.518788
0.518788
0.518788
0.518788
0.518788
0.518788
0.518788
0.518788
0.518788
0.518788
0.518788
0.518788
0.518788
0.518788
0.518788
0.518788
0.518788
0.518788
0.518788
0.518788
0.518788
0.518788
0.518788
0.518788
0.518788
0.518788
0.518788
0.518788
0.518788
0.518788
0.518788
0.518788
0.518788
0.518788
0.518788
0.518788
0.518788
0.518788
0.518788
0.518788
0.518788
0.518788
0.518788
0.518788
0.518788
0.518788
0.518788
0.518788
0.518788
0.518787
0.518833
0.509567
0.52277
0.16485
0.999992
0.999248
0.998973
0.998722
0.997896
0.997655
0.995345
0.992096
0.985098
0.093778
0.980634
0.992329
0.986381
0.983592
0.987995
0.973894
0.877409
0.720314
0.995864
0.997345
0.996777
0.994994
0.987584
0.9411
0.938887
0.931226
0.805792
0.988314
0.996692
0.998539
0.999216
0.999511
0.999357
0.141419
0.999862
0.518788
0.518788
0.518788
0.518788
0.518788
0.518788
0.518788
0.518788
0.518788
0.518788
0.518788
0.518788
0.518788
0.518788
0.518788
0.518788
0.518788
0.518788
0.518788
0.518788
0.518788
0.518788
0.518788
0.518788
0.518788
0.518788
0.518788
0.518788
0.518788
0.518788
0.518788
0.518788
0.518788
0.518788
0.518788
0.518788
0.518788
0.518788
0.518788
0.518788
0.518788
0.518788
0.518788
0.518788
0.518788
0.518788
0.518788
0.518788
0.518788
0.518788
0.518788
0.518788
0.518788
0.518788
0.518788
0.518788
0.518787
0.5187
0.484976
0.464708
0.307626
0.999892
0.999826
0.999795
0.998653
0.996336
0.998524
0.998941
0.998844
0.999196
0.999219
0.999588
0.999583
0.999618
0.999507
0.99923
0.99937
0.999516
0.995127
0.939522
0.976905
0.978611
0.991317
0.988828
0.955888
0.883842
0.822968
0.934464
0.992718
0.997141
0.998558
0.999206
0.99951
0.999408
0.991659
0.999862
0.518788
0.518788
0.518788
0.518788
0.518788
0.518788
0.518788
0.518788
0.518788
0.518788
0.518788
0.518788
0.518788
0.518788
0.518788
0.518788
0.518788
0.518788
0.518788
0.518788
0.518788
0.518788
0.518788
0.518788
0.518788
0.518788
0.518788
0.518788
0.518788
0.518788
0.518788
0.518788
0.518788
0.518788
0.518788
0.518788
0.518788
0.518788
0.518788
0.518788
0.518788
0.518788
0.518788
0.518788
0.518788
0.518788
0.518788
0.518788
0.518788
0.518788
0.518788
0.518788
0.518788
0.518788
0.518788
0.518788
0.518788
0.51879
0.518525
0.479849
0.944439
0.994742
0.99775
0.00166271
2.54008e-07
0.0116094
0.997085
0.994593
0.987696
0.998314
0.000276237
0.000862931
0.00307879
0.999889
0.999958
0.99984
0.999975
0.999988
0.999985
0.988657
0.972866
0.990592
0.989145
0.995671
0.99633
0.979851
0.960158
0.980722
0.994513
0.997264
0.998563
0.999225
0.999506
0.999264
0.980896
0.999865
0.518788
0.518788
0.518788
0.518788
0.518788
0.518788
0.518788
0.518788
0.518788
0.518788
0.518788
0.518788
0.518788
0.518788
0.518788
0.518788
0.518788
0.518788
0.518788
0.518788
0.518788
0.518788
0.518788
0.518788
0.518788
0.518788
0.518788
0.518788
0.518788
0.518788
0.518788
0.518788
0.518788
0.518788
0.518788
0.518788
0.518788
0.518788
0.518788
0.518788
0.518788
0.518788
0.518788
0.518788
0.518788
0.518788
0.518788
0.518788
0.518788
0.518788
0.518788
0.518788
0.518788
0.518788
0.518788
0.518788
0.518788
0.518788
0.518774
0.454312
0.933205
0.446289
0.0925184
0.0216707
0.146481
0.124213
0.911462
0.918378
0.217231
3.3666e-06
0.00961871
0.589682
9.67582e-06
0.142415
0.146494
0.0490074
0.829331
0.151017
0.960021
0.995207
0.992
0.998412
0.999866
0.999966
6.2298e-08
0.999986
0.999236
0.999276
0.998153
0.999344
0.999397
0.999655
0.998889
0.916447
0.991986
0.999839
0.518788
0.518788
0.518788
0.518788
0.518788
0.518788
0.518788
0.518788
0.518788
0.518788
0.518788
0.518788
0.518788
0.518788
0.518788
0.518788
0.518788
0.518788
0.518788
0.518788
0.518788
0.518788
0.518788
0.518788
0.518788
0.518788
0.518788
0.518788
0.518788
0.518788
0.518788
0.518788
0.518788
0.518788
0.518788
0.518788
0.518788
0.518788
0.518788
0.518788
0.518788
0.518788
0.518788
0.518788
0.518788
0.518788
0.518788
0.518788
0.518788
0.518788
0.518788
0.518788
0.518788
0.518788
0.518788
0.518788
0.518807
0.518092
0.523836
0.452817
0.882167
0.0996967
0.146754
0.00597862
0.00337065
0.00108627
0.0013381
0.313848
0.00138303
0.117277
0.0234372
9.15279e-05
0.36654
2.94814e-07
6.11566e-05
0.374992
0.794235
0.581264
0.763067
0.110148
5.47424e-08
0.379498
0.868381
0.00023092
0.181007
0.205763
0.116446
0.975721
0.998225
0.999409
0.99989
0.999986
0.999991
0.999758
0.999995
0.99998
0.518788
0.518788
0.518788
0.518788
0.518788
0.518788
0.518788
0.518788
0.518788
0.518788
0.518788
0.518788
0.518788
0.518788
0.518788
0.518788
0.518788
0.518788
0.518788
0.518788
0.518788
0.518788
0.518788
0.518788
0.518788
0.518788
0.518788
0.518788
0.518788
0.518788
0.518788
0.518788
0.518788
0.518788
0.518788
0.518788
0.518788
0.518788
0.518788
0.518788
0.518788
0.518788
0.518788
0.518788
0.518788
0.518788
0.518788
0.518788
0.518788
0.518788
0.518788
0.518788
0.518788
0.518788
0.518788
0.518788
0.518786
0.518963
0.51606
0.471433
0.784405
5.06793e-10
0.882899
0.590499
0.00185881
0.15582
0.243553
0.000292907
0.09826
0.611802
0.748282
0.381398
0.638173
0.381565
0.366202
0.303021
0.307821
0.812589
2.13533e-05
0.235833
0.561272
0.211637
0.689208
0.311591
0.326547
0.0186048
0.000277901
0.286629
3.11094e-07
0.816539
0.000560048
2.07398e-05
0.0441144
0.968506
0.000817394
0.999901
0.518788
0.518788
0.518788
0.518788
0.518788
0.518788
0.518788
0.518788
0.518788
0.518788
0.518788
0.518788
0.518788
0.518788
0.518788
0.518788
0.518788
0.518788
0.518788
0.518788
0.518788
0.518788
0.518788
0.518788
0.518788
0.518788
0.518788
0.518788
0.518788
0.518788
0.518788
0.518788
0.518788
0.518788
0.518788
0.518788
0.518788
0.518788
0.518788
0.518788
0.518788
0.518788
0.518788
0.518788
0.518788
0.518788
0.518788
0.518788
0.518788
0.518788
0.518788
0.518788
0.518788
0.518788
0.518788
0.518787
0.51883
0.519856
0.516262
0.46048
0.852258
0.000263082
0.333091
0.574896
0.748909
0.821088
0.444036
0.904508
0.870052
0.818447
0.968701
0.150755
0.150022
0.146205
0.139023
0.000369501
2.22076e-07
0.00278603
1.95949e-05
0.173358
0.724242
0.950192
0.937979
0.664031
0.927422
0.690181
0.964302
0.934983
0.708026
0.967508
0.301997
0.986674
0.963904
0.998023
0.99967
0.999991
0.518788
0.518788
0.518788
0.518788
0.518788
0.518788
0.518788
0.518788
0.518788
0.518788
0.518788
0.518788
0.518788
0.518788
0.518788
0.518788
0.518788
0.518788
0.518788
0.518788
0.518788
0.518788
0.518788
0.518788
0.518788
0.518788
0.518788
0.518788
0.518788
0.518788
0.518788
0.518788
0.518788
0.518788
0.518788
0.518788
0.518788
0.518788
0.518788
0.518788
0.518788
0.518788
0.518788
0.518788
0.518788
0.518788
0.518788
0.518788
0.518788
0.518788
0.518788
0.518788
0.518788
0.518788
0.518788
0.518788
0.518787
0.518819
0.517282
0.428174
0.970335
0.817858
0.170825
0.998993
0.998621
0.999897
0.999983
0.999992
0.999774
0.999514
0.998716
0.996767
0.975548
0.982931
2.37507e-05
0.999364
0.00123156
0.999611
0.999377
0.998489
1.19289e-12
0.997237
0.989321
0.999472
0.999758
0.999807
0.999843
0.999855
0.99984
0.999698
0.999664
0.99964
0.999578
0.998977
0.99868
0.999902
0.518788
0.518788
0.518788
0.518788
0.518788
0.518788
0.518788
0.518788
0.518788
0.518788
0.518788
0.518788
0.518788
0.518788
0.518788
0.518788
0.518788
0.518788
0.518788
0.518788
0.518788
0.518788
0.518788
0.518788
0.518788
0.518788
0.518788
0.518788
0.518788
0.518788
0.518788
0.518788
0.518788
0.518788
0.518788
0.518788
0.518788
0.518788
0.518788
0.518788
0.518788
0.518788
0.518788
0.518788
0.518788
0.518788
0.518788
0.518788
0.518788
0.518788
0.518788
0.518788
0.518788
0.518788
0.518788
0.518788
0.518788
0.521502
0.405676
0.433143
0.889034
0.999982
0.999993
0.999093
0.999827
0.99937
0.999742
0.995756
0.991813
0.982295
0.990814
0.98978
0.958173
0.977376
0.989264
0.991793
0.992676
0.990568
0.994528
0.99645
0.995991
0.991584
0.985777
0.977299
0.992708
0.98967
0.99614
0.997962
0.99871
0.999038
0.999185
0.999124
0.997892
0.992183
0.990049
0.99986
0.518788
0.518788
0.518788
0.518788
0.518788
0.518788
0.518788
0.518788
0.518788
0.518788
0.518788
0.518788
0.518788
0.518788
0.518788
0.518788
0.518788
0.518788
0.518788
0.518788
0.518788
0.518788
0.518788
0.518788
0.518788
0.518788
0.518788
0.518788
0.518788
0.518788
0.518788
0.518788
0.518788
0.518788
0.518788
0.518788
0.518788
0.518788
0.518788
0.518788
0.518788
0.518788
0.518788
0.518788
0.518788
0.518788
0.518788
0.518788
0.518788
0.518788
0.518788
0.518788
0.518788
0.518788
0.518788
0.518788
0.518786
0.518743
0.521731
0.543381
0.520391
0.999996
0.982605
0.997834
0.996311
0.999171
0.993629
0.995498
0.99628
0.988722
0.977949
0.992107
0.988893
0.894812
0.972094
0.987437
0.991145
0.988316
0.878907
0.977387
0.983431
0.997512
0.99743
0.993872
0.949295
0.990591
0.994242
0.997541
0.998582
0.999037
0.999238
0.999267
0.998446
0.942393
0.932209
0.999861
0.518788
0.518788
0.518788
0.518788
0.518788
0.518788
0.518788
0.518788
0.518788
0.518788
0.518788
0.518788
0.518788
0.518788
0.518788
0.518788
0.518788
0.518788
0.518788
0.518788
0.518788
0.518788
0.518788
0.518788
0.518788
0.518788
0.518788
0.518788
0.518788
0.518788
0.518788
0.518788
0.518788
0.518788
0.518788
0.518788
0.518788
0.518788
0.518788
0.518788
0.518788
0.518788
0.518788
0.518788
0.518788
0.518788
0.518788
0.518788
0.518788
0.518788
0.518788
0.518788
0.518788
0.518788
0.518788
0.518788
0.518785
0.518786
0.518722
0.464026
0.680173
0.999993
0.99872
0.997619
0.999003
0.999069
0.990203
0.996289
0.991829
0.983461
0.992252
0.994746
0.992178
0.968244
0.884197
0.972045
0.91245
0.988864
0.987152
0.981537
0.954782
0.821053
0.996574
0.99713
0.986908
0.98946
0.995538
0.997653
0.998635
0.999041
0.99923
0.999164
0.996897
0.995938
0.99725
0.999855
0.518788
0.518788
0.518788
0.518788
0.518788
0.518788
0.518788
0.518788
0.518788
0.518788
0.518788
0.518788
0.518788
0.518788
0.518788
0.518788
0.518788
0.518788
0.518788
0.518788
0.518788
0.518788
0.518788
0.518788
0.518788
0.518788
0.518788
0.518788
0.518788
0.518788
0.518788
0.518788
0.518788
0.518788
0.518788
0.518788
0.518788
0.518788
0.518788
0.518788
0.518788
0.518788
0.518788
0.518788
0.518788
0.518788
0.518788
0.518788
0.518788
0.518788
0.518788
0.518788
0.518788
0.518788
0.518788
0.518788
0.518784
0.518784
0.518699
0.429335
0.791399
0.999982
0.999994
0.999536
0.99934
0.99645
0.998181
0.994578
0.97008
0.987887
0.99226
0.991641
0.989725
0.989372
0.984552
0.952798
0.97371
0.993132
0.995353
0.992612
0.969186
0.988351
0.994468
0.997519
0.992838
0.990494
0.996371
0.998147
0.998845
0.999183
0.999352
0.999335
0.998558
0.991154
0.987598
0.99986
0.518788
0.518788
0.518788
0.518788
0.518788
0.518788
0.518788
0.518788
0.518788
0.518788
0.518788
0.518788
0.518788
0.518788
0.518788
0.518788
0.518788
0.518788
0.518788
0.518788
0.518788
0.518788
0.518788
0.518788
0.518788
0.518788
0.518788
0.518788
0.518788
0.518788
0.518788
0.518788
0.518788
0.518788
0.518788
0.518788
0.518788
0.518788
0.518788
0.518788
0.518788
0.518788
0.518788
0.518788
0.518788
0.518788
0.518788
0.518788
0.518788
0.518788
0.518788
0.518788
0.518788
0.518788
0.518788
0.518788
0.518783
0.518785
0.514447
0.395947
0.883235
0.998847
0.999994
0.999486
0.999157
0.995125
0.996518
0.97078
0.991539
0.99211
0.978369
0.937276
0.967376
0.88422
0.895246
0.945557
0.949828
0.989709
0.995
0.996842
0.995527
0.882669
0.991531
0.997694
0.996001
0.992194
0.996896
0.997993
0.998642
0.998982
0.999165
0.999106
0.997645
0.794518
0.993499
0.999866
0.518788
0.518788
0.518788
0.518788
0.518788
0.518788
0.518788
0.518788
0.518788
0.518788
0.518788
0.518788
0.518788
0.518788
0.518788
0.518788
0.518788
0.518788
0.518788
0.518788
0.518788
0.518788
0.518788
0.518788
0.518788
0.518788
0.518788
0.518788
0.518788
0.518788
0.518788
0.518788
0.518788
0.518788
0.518788
0.518788
0.518788
0.518788
0.518788
0.518788
0.518788
0.518788
0.518788
0.518788
0.518788
0.518788
0.518788
0.518788
0.518788
0.518788
0.518788
0.518788
0.518788
0.518788
0.518788
0.518788
0.518784
0.51874
0.499209
0.46161
0.800503
0.0285336
0.999993
0.999994
0.998174
0.965795
0.995909
0.996936
0.99565
0.993417
0.994657
0.995535
0.993482
0.98891
0.98032
0.94753
0.921194
0.975492
0.991959
0.995196
0.993322
0.991391
0.954655
0.997685
0.996878
0.947856
0.996976
0.998253
0.998653
0.998897
0.999024
0.998937
0.996369
0.99672
0.997272
0.999855
0.518788
0.518788
0.518788
0.518788
0.518788
0.518788
0.518788
0.518788
0.518788
0.518788
0.518788
0.518788
0.518788
0.518788
0.518788
0.518788
0.518788
0.518788
0.518788
0.518788
0.518788
0.518788
0.518788
0.518788
0.518788
0.518788
0.518788
0.518788
0.518788
0.518788
0.518788
0.518788
0.518788
0.518788
0.518788
0.518788
0.518788
0.518788
0.518788
0.518788
0.518788
0.518788
0.518788
0.518788
0.518788
0.518788
0.518788
0.518788
0.518788
0.518788
0.518788
0.518788
0.518788
0.518788
0.518788
0.518788
0.518787
0.516833
0.470154
0.478068
0.797649
0.996866
0.999991
0.999972
0.997551
0.991395
0.995233
0.991658
0.977305
0.880232
0.785682
0.782921
0.770301
0.943072
0.967069
0.882398
0.961463
0.840209
0.96815
0.968896
0.970158
0.867019
0.993385
0.954977
0.99313
0.996919
0.987047
0.829809
0.98767
0.997084
0.998639
0.999276
0.999539
0.999352
0.968663
0.999863
0.518788
0.518788
0.518788
0.518788
0.518788
0.518788
0.518788
0.518788
0.518788
0.518788
0.518788
0.518788
0.518788
0.518788
0.518788
0.518788
0.518788
0.518788
0.518788
0.518788
0.518788
0.518788
0.518788
0.518788
0.518788
0.518788
0.518788
0.518788
0.518788
0.518788
0.518788
0.518788
0.518788
0.518788
0.518788
0.518788
0.518788
0.518788
0.518788
0.518788
0.518788
0.518788
0.518788
0.518788
0.518788
0.518788
0.518788
0.518788
0.518788
0.518788
0.518788
0.518788
0.518788
0.518788
0.518788
0.518788
0.518786
0.518748
0.519052
0.469542
0.843381
0.999608
0.999994
0.999383
0.998902
0.997506
0.991597
0.994315
0.994459
0.992022
0.986398
0.877372
0.967424
0.9845
0.983523
0.89293
0.839782
0.943754
0.930228
0.969779
0.980524
0.952311
0.993928
0.984904
0.993691
0.99184
0.986624
0.985916
0.987041
0.996528
0.998502
0.999251
0.999551
0.999444
0.991913
0.999863
0.518788
0.518788
0.518788
0.518788
0.518788
0.518788
0.518788
0.518788
0.518788
0.518788
0.518788
0.518788
0.518788
0.518788
0.518788
0.518788
0.518788
0.518788
0.518788
0.518788
0.518788
0.518788
0.518788
0.518788
0.518788
0.518788
0.518788
0.518788
0.518788
0.518788
0.518788
0.518788
0.518788
0.518788
0.518788
0.518788
0.518788
0.518788
0.518788
0.518788
0.518788
0.518788
0.518788
0.518788
0.518788
0.518788
0.518788
0.518788
0.518788
0.518788
0.518788
0.518788
0.518788
0.518788
0.518788
0.518788
0.518787
0.518784
0.534613
0.440819
0.628188
0.999994
0.995136
0.997497
0.998775
0.997067
0.991098
0.975373
0.988104
0.983776
0.968989
0.989197
0.99084
0.976857
0.707678
0.000191924
0.957378
0.932369
0.986422
0.889359
0.989268
0.988788
0.992096
0.993391
0.961809
0.973327
0.968262
0.108668
0.950286
0.991659
0.998003
0.999174
0.999534
0.999445
0.987797
0.999861
0.518788
0.518788
0.518788
0.518788
0.518788
0.518788
0.518788
0.518788
0.518788
0.518788
0.518788
0.518788
0.518788
0.518788
0.518788
0.518788
0.518788
0.518788
0.518788
0.518788
0.518788
0.518788
0.518788
0.518788
0.518788
0.518788
0.518788
0.518788
0.518788
0.518788
0.518788
0.518788
0.518788
0.518788
0.518788
0.518788
0.518788
0.518788
0.518788
0.518788
0.518788
0.518788
0.518788
0.518788
0.518788
0.518788
0.518788
0.518788
0.518788
0.518788
0.518788
0.518788
0.518788
0.518788
0.518788
0.518788
0.518787
0.518795
0.517993
0.490074
0.279333
0.999499
0.99525
0.999991
0.999307
0.999507
0.998211
0.998152
0.998149
0.864042
0.998011
0.99911
0.999179
0.999176
0.998955
0.998295
0.998074
0.998546
0.999023
0.943083
0.969773
0.960641
0.970929
0.968372
0.993826
0.993125
0.990475
0.94733
0.987796
0.992153
0.99803
0.999143
0.999528
0.999511
0.996933
0.999863
0.518788
0.518788
0.518788
0.518788
0.518788
0.518788
0.518788
0.518788
0.518788
0.518788
0.518788
0.518788
0.518788
0.518788
0.518788
0.518788
0.518788
0.518788
0.518788
0.518788
0.518788
0.518788
0.518788
0.518788
0.518788
0.518788
0.518788
0.518788
0.518788
0.518788
0.518788
0.518788
0.518788
0.518788
0.518788
0.518788
0.518788
0.518788
0.518788
0.518788
0.518788
0.518788
0.518788
0.518788
0.518788
0.518788
0.518788
0.518788
0.518788
0.518788
0.518788
0.518788
0.518788
0.518788
0.518788
0.518788
0.518788
0.518773
0.51861
0.446885
0.853379
0.297148
0.00014464
0.438697
8.43396e-07
0.126029
0.994297
0.986149
0.994226
0.984228
0.991683
0.993038
0.997696
3.40175e-05
0.99828
0.886466
2.69442e-06
5.64327e-08
1.01385e-12
0.999985
0.993511
0.99269
0.967117
0.998905
0.99772
0.915495
0.953449
0.00245915
0.977684
0.992248
0.997781
0.999062
0.99949
0.999473
0.996045
0.99986
0.518788
0.518788
0.518788
0.518788
0.518788
0.518788
0.518788
0.518788
0.518788
0.518788
0.518788
0.518788
0.518788
0.518788
0.518788
0.518788
0.518788
0.518788
0.518788
0.518788
0.518788
0.518788
0.518788
0.518788
0.518788
0.518788
0.518788
0.518788
0.518788
0.518788
0.518788
0.518788
0.518788
0.518788
0.518788
0.518788
0.518788
0.518788
0.518788
0.518788
0.518788
0.518788
0.518788
0.518788
0.518788
0.518788
0.518788
0.518788
0.518788
0.518788
0.518788
0.518788
0.518788
0.518788
0.518787
0.518789
0.518789
0.518789
0.51879
0.410682
1.4587e-06
0.0768703
0.000170141
0.000435937
0.146446
0.146446
7.1243e-08
0.725278
1.45289e-05
0.437629
0.00614688
0.0194126
0.000820469
0.140041
0.563577
0.0021639
0.145431
0.14637
0.0557664
0.0826027
0.858231
0.988913
0.990198
0.999481
0.999989
0.999987
3.73362e-08
0.999454
0.999984
0.999304
0.999982
0.999203
0.999738
0.999856
0.999897
0.999946
0.518788
0.518788
0.518788
0.518788
0.518788
0.518788
0.518788
0.518788
0.518788
0.518788
0.518788
0.518788
0.518788
0.518788
0.518788
0.518788
0.518788
0.518788
0.518788
0.518788
0.518788
0.518788
0.518788
0.518788
0.518788
0.518788
0.518788
0.518788
0.518788
0.518788
0.518788
0.518788
0.518788
0.518788
0.518788
0.518788
0.518788
0.518788
0.518788
0.518788
0.518788
0.518788
0.518788
0.518788
0.518788
0.518788
0.518788
0.518788
0.518788
0.518788
0.518788
0.518788
0.518788
0.518788
0.518788
0.518788
0.518789
0.518836
0.509638
0.385528
0.861668
0.477389
0.000443947
0.505456
0.227372
0.000130635
0.612417
0.128114
0.536508
0.412354
0.734109
0.522059
0.544183
0.22218
0.758231
0.693443
0.254067
0.119981
0.000732826
0.000310995
0.301571
0.496706
0.0363248
0.187359
0.262047
0.168117
0.173081
0.954774
0.994256
0.99494
0.994798
0.995785
0.972443
0.973613
0.924904
0.982798
0.518788
0.518788
0.518788
0.518788
0.518788
0.518788
0.518788
0.518788
0.518788
0.518788
0.518788
0.518788
0.518788
0.518788
0.518788
0.518788
0.518788
0.518788
0.518788
0.518788
0.518788
0.518788
0.518788
0.518788
0.518788
0.518788
0.518788
0.518788
0.518788
0.518788
0.518788
0.518788
0.518788
0.518788
0.518788
0.518788
0.518788
0.518788
0.518788
0.518788
0.518788
0.518788
0.518788
0.518788
0.518788
0.518788
0.518788
0.518788
0.518788
0.518788
0.518788
0.518788
0.518788
0.518788
0.518788
0.518787
0.518781
0.518735
0.516267
0.369099
0.798826
0.000100294
0.0796498
0.245996
0.76217
0.209999
0.523156
0.676893
0.619109
0.268723
0.740949
0.515087
0.642467
0.380838
0.418126
0.599554
0.138472
0.620429
0.393843
0.697741
0.477072
0.557934
0.633053
0.0011304
0.0327878
0.000237918
0.0213951
0.563697
0.619762
0.483263
0.656119
0.589753
0.64555
0.000400093
0.598399
3.1679e-08
0.518788
0.518788
0.518788
0.518788
0.518788
0.518788
0.518788
0.518788
0.518788
0.518788
0.518788
0.518788
0.518788
0.518788
0.518788
0.518788
0.518788
0.518788
0.518788
0.518788
0.518788
0.518788
0.518788
0.518788
0.518788
0.518788
0.518788
0.518788
0.518788
0.518788
0.518788
0.518788
0.518788
0.518788
0.518788
0.518788
0.518788
0.518788
0.518788
0.518788
0.518788
0.518788
0.518788
0.518788
0.518788
0.518788
0.518788
0.518788
0.518788
0.518788
0.518788
0.518788
0.518788
0.518788
0.518788
0.518788
0.518786
0.51876
0.515794
0.439917
0.644641
0.000709285
3.549e-05
0.618882
0.0216466
0.000222526
0.559097
0.646792
0.525147
0.609334
0.289196
0.135855
0.57794
0.82413
0.348145
0.0373293
1.49187e-05
0.716288
0.517742
0.445049
0.475155
0.446953
0.832566
1.33232e-05
0.0632207
0.125491
0.47144
0.143704
0.143727
0.00284051
0.550612
0.605903
0.782547
0.85853
0.965864
0.999735
0.518788
0.518788
0.518788
0.518788
0.518788
0.518788
0.518788
0.518788
0.518788
0.518788
0.518788
0.518788
0.518788
0.518788
0.518788
0.518788
0.518788
0.518788
0.518788
0.518788
0.518788
0.518788
0.518788
0.518788
0.518788
0.518788
0.518788
0.518788
0.518788
0.518788
0.518788
0.518788
0.518788
0.518788
0.518788
0.518788
0.518788
0.518788
0.518788
0.518788
0.518788
0.518788
0.518788
0.518788
0.518788
0.518788
0.518788
0.518788
0.518788
0.518788
0.518788
0.518788
0.518788
0.518788
0.518788
0.518788
0.518787
0.518782
0.518842
0.444188
0.959421
0.97391
0.981885
0.992984
0.988427
0.994478
0.99526
0.996724
0.99686
0.994579
0.99495
0.987283
0.998003
0.994734
0.987445
0.989609
0.991363
0.991697
0.995233
0.995848
0.978529
0.993548
0.996182
0.98976
0.977999
0.992092
0.998828
0.999911
0.999987
0.999992
0.997505
0.999473
0.999453
0.999762
0.999746
0.999933
0.518788
0.518788
0.518788
0.518788
0.518788
0.518788
0.518788
0.518788
0.518788
0.518788
0.518788
0.518788
0.518788
0.518788
0.518788
0.518788
0.518788
0.518788
0.518788
0.518788
0.518788
0.518788
0.518788
0.518788
0.518788
0.518788
0.518788
0.518788
0.518788
0.518788
0.518788
0.518788
0.518788
0.518788
0.518788
0.518788
0.518788
0.518788
0.518788
0.518788
0.518788
0.518788
0.518788
0.518788
0.518788
0.518788
0.518788
0.518788
0.518788
0.518788
0.518788
0.518788
0.518788
0.518788
0.518788
0.518788
0.518786
0.518786
0.53489
0.409794
0.631456
0.999965
0.999067
0.999995
0.999844
0.999546
0.99922
0.999508
0.999494
0.999522
0.999297
0.998459
0.995741
0.998781
0.998775
0.997512
0.979252
0.995208
0.988334
0.961974
0.98511
0.995071
0.977274
0.998744
0.999402
0.999329
0.997285
0.997477
0.998647
0.999128
0.99931
0.999285
0.998589
0.994923
0.996769
0.999862
0.518788
0.518788
0.518788
0.518788
0.518788
0.518788
0.518788
0.518788
0.518788
0.518788
0.518788
0.518788
0.518788
0.518788
0.518788
0.518788
0.518788
0.518788
0.518788
0.518788
0.518788
0.518788
0.518788
0.518788
0.518788
0.518788
0.518788
0.518788
0.518788
0.518788
0.518788
0.518788
0.518788
0.518788
0.518788
0.518788
0.518788
0.518788
0.518788
0.518788
0.518788
0.518788
0.518788
0.518788
0.518788
0.518788
0.518788
0.518788
0.518788
0.518788
0.518788
0.518788
0.518788
0.518788
0.518788
0.518788
0.518786
0.518786
0.513158
0.473219
0.269509
1.12339e-07
0.99929
0.999023
0.998501
0.997412
0.995271
0.994548
0.985977
0.94861
0.981402
0.990821
0.988736
0.965437
0.922891
0.986635
0.990366
0.978032
0.94531
0.974939
0.786089
0.99589
0.995261
0.992043
0.991851
0.990628
0.99466
0.997427
0.998697
0.999144
0.999364
0.999407
0.998926
0.996832
0.997962
0.999875
0.518788
0.518788
0.518788
0.518788
0.518788
0.518788
0.518788
0.518788
0.518788
0.518788
0.518788
0.518788
0.518788
0.518788
0.518788
0.518788
0.518788
0.518788
0.518788
0.518788
0.518788
0.518788
0.518788
0.518788
0.518788
0.518788
0.518788
0.518788
0.518788
0.518788
0.518788
0.518788
0.518788
0.518788
0.518788
0.518788
0.518788
0.518788
0.518788
0.518788
0.518788
0.518788
0.518788
0.518788
0.518788
0.518788
0.518788
0.518788
0.518788
0.518788
0.518788
0.518788
0.518788
0.518788
0.518788
0.518788
0.518786
0.51879
0.518837
0.431991
0.636183
0.999709
0.999457
0.993164
0.998796
0.998035
0.99681
0.993465
0.992788
0.993959
0.994168
0.995121
0.993815
0.981827
0.976443
0.980249
0.984282
0.992238
0.99315
0.993036
0.991435
0.982833
0.989354
0.990857
0.0626375
0.989964
0.995203
0.997923
0.998743
0.999145
0.999352
0.999364
0.99865
0.995102
0.997442
0.999872
0.518788
0.518788
0.518788
0.518788
0.518788
0.518788
0.518788
0.518788
0.518788
0.518788
0.518788
0.518788
0.518788
0.518788
0.518788
0.518788
0.518788
0.518788
0.518788
0.518788
0.518788
0.518788
0.518788
0.518788
0.518788
0.518788
0.518788
0.518788
0.518788
0.518788
0.518788
0.518788
0.518788
0.518788
0.518788
0.518788
0.518788
0.518788
0.518788
0.518788
0.518788
0.518788
0.518788
0.518788
0.518788
0.518788
0.518788
0.518788
0.518788
0.518788
0.518788
0.518788
0.518788
0.518788
0.518788
0.518788
0.518784
0.518846
0.516804
0.466543
0.461608
0.999958
0.999448
0.999615
0.999006
0.995411
0.997346
0.991828
0.960909
0.9889
0.990716
0.98401
0.841711
0.0042188
0.966594
0.991092
0.99336
0.988222
0.974039
0.99257
0.974149
0.934414
0.994176
0.99557
0.986435
0.995741
0.9976
0.998417
0.998833
0.999092
0.999282
0.999318
0.998818
0.996531
0.996655
0.999868
0.518788
0.518788
0.518788
0.518788
0.518788
0.518788
0.518788
0.518788
0.518788
0.518788
0.518788
0.518788
0.518788
0.518788
0.518788
0.518788
0.518788
0.518788
0.518788
0.518788
0.518788
0.518788
0.518788
0.518788
0.518788
0.518788
0.518788
0.518788
0.518788
0.518788
0.518788
0.518788
0.518788
0.518788
0.518788
0.518788
0.518788
0.518788
0.518788
0.518788
0.518788
0.518788
0.518788
0.518788
0.518788
0.518788
0.518788
0.518788
0.518788
0.518788
0.518788
0.518788
0.518788
0.518788
0.518788
0.518788
0.518784
0.517847
0.474512
0.626379
0.404133
0.997938
0.999993
0.999425
0.999243
0.998686
0.985978
0.993625
0.995808
0.992311
0.878245
0.927475
0.947156
0.96712
0.966438
0.88123
0.877546
0.987022
0.993693
0.997719
0.997548
0.995284
0.996892
0.99771
0.990964
0.991328
0.998037
0.998773
0.999053
0.999224
0.99936
0.999396
0.999046
0.998023
0.997495
0.999868
0.518788
0.518788
0.518788
0.518788
0.518788
0.518788
0.518788
0.518788
0.518788
0.518788
0.518788
0.518788
0.518788
0.518788
0.518788
0.518788
0.518788
0.518788
0.518788
0.518788
0.518788
0.518788
0.518788
0.518788
0.518788
0.518788
0.518788
0.518788
0.518788
0.518788
0.518788
0.518788
0.518788
0.518788
0.518788
0.518788
0.518788
0.518788
0.518788
0.518788
0.518788
0.518788
0.518788
0.518788
0.518788
0.518788
0.518788
0.518788
0.518788
0.518788
0.518788
0.518788
0.518788
0.518788
0.518788
0.518788
0.518785
0.518565
0.509509
0.403511
0.80415
0.897179
0.999988
0.999995
0.998932
0.832634
0.967412
0.993718
0.992055
0.992203
0.99459
0.996072
0.995817
0.993531
0.974023
0.983437
0.987857
0.979452
0.744333
0.995401
0.994759
0.969951
0.992815
0.997206
0.995602
0.990509
0.997506
0.99855
0.998933
0.999106
0.999217
0.999241
0.99862
0.994707
0.996475
0.999869
0.518788
0.518788
0.518788
0.518788
0.518788
0.518788
0.518788
0.518788
0.518788
0.518788
0.518788
0.518788
0.518788
0.518788
0.518788
0.518788
0.518788
0.518788
0.518788
0.518788
0.518788
0.518788
0.518788
0.518788
0.518788
0.518788
0.518788
0.518788
0.518788
0.518788
0.518788
0.518788
0.518788
0.518788
0.518788
0.518788
0.518788
0.518788
0.518788
0.518788
0.518788
0.518788
0.518788
0.518788
0.518788
0.518788
0.518788
0.518788
0.518788
0.518788
0.518788
0.518788
0.518788
0.518788
0.518788
0.518788
0.518785
0.518776
0.518682
0.377683
0.832579
0.995343
0.999991
0.999992
0.998272
0.980974
0.110164
6.67702e-08
0.985365
0.990178
0.989942
0.986071
0.978167
0.968994
0.966857
0.953227
0.92144
0.888569
0.483224
0.702139
0.799828
0.932546
0.970336
0.949518
0.969133
0.991304
0.990332
0.997342
0.991922
0.995338
0.998476
0.999264
0.999549
0.999417
0.989809
0.999864
0.518788
0.518788
0.518788
0.518788
0.518788
0.518788
0.518788
0.518788
0.518788
0.518788
0.518788
0.518788
0.518788
0.518788
0.518788
0.518788
0.518788
0.518788
0.518788
0.518788
0.518788
0.518788
0.518788
0.518788
0.518788
0.518788
0.518788
0.518788
0.518788
0.518788
0.518788
0.518788
0.518788
0.518788
0.518788
0.518788
0.518788
0.518788
0.518788
0.518788
0.518788
0.518788
0.518788
0.518788
0.518788
0.518788
0.518788
0.518788
0.518788
0.518788
0.518788
0.518788
0.518788
0.518788
0.518788
0.518788
0.518786
0.518785
0.51554
0.455201
0.770362
0.960289