/*--------------------------------*- C++ -*----------------------------------*\
| =========                 |                                                 |
| \\      /  F ield         | OpenFOAM: The Open Source CFD Toolbox           |
|  \\    /   O peration     | Version:  2.3.0                                 |
|   \\  /    A nd           | Web:      www.OpenFOAM.org                      |
|    \\/     M anipulation  |                                                 |
\*---------------------------------------------------------------------------*/
FoamFile
{
    version     2.0;
    format      ascii;
    class       surfaceScalarField;
    location    "30";
    object      phi.water;
}
// * * * * * * * * * * * * * * * * * * * * * * * * * * * * * * * * * * * * * //

dimensions      [0 3 -1 0 0 0 0];

internalField   nonuniform List<scalar> 
16448
(
-7.75163e-07
-2.56788e-06
4.47912e-07
1.11352e-06
-2.57558e-06
6.91727e-07
9.84212e-07
-1.05893e-06
1.19192e-06
8.85105e-07
-1.05959e-06
1.16166e-06
4.92199e-07
-6.29202e-07
1.0265e-06
2.51797e-07
-6.65823e-07
9.10888e-07
4.39169e-08
-4.89309e-07
7.0344e-07
-4.06163e-08
-4.75193e-07
5.65336e-07
-1.52387e-07
-3.5789e-07
4.72657e-07
-3.0557e-07
-2.86323e-07
4.39997e-07
-4.45113e-07
-2.42539e-07
3.82301e-07
-4.96714e-07
-2.70018e-07
3.21688e-07
-4.67418e-07
-3.22923e-07
2.93828e-07
-3.54679e-07
-3.78772e-07
2.66161e-07
-2.25332e-07
-4.10413e-07
2.81296e-07
-9.32116e-08
-4.35418e-07
3.03481e-07
1.06349e-08
-4.4525e-07
3.41664e-07
8.908e-08
-4.5639e-07
3.78179e-07
1.37323e-07
-4.65019e-07
4.17038e-07
1.63396e-07
-4.74257e-07
4.48427e-07
1.71707e-07
-4.79197e-07
4.71148e-07
1.68478e-07
-4.79939e-07
4.83417e-07
1.58189e-07
-4.76921e-07
4.87478e-07
1.44253e-07
-4.70827e-07
4.85024e-07
1.29036e-07
-4.62328e-07
4.77827e-07
1.14249e-07
-4.52003e-07
4.67065e-07
1.00636e-07
-4.39849e-07
4.53762e-07
8.8521e-08
-4.26088e-07
4.38496e-07
7.92733e-08
-4.12612e-07
4.22181e-07
7.54387e-08
-4.01235e-07
4.0538e-07
7.81048e-08
-3.89507e-07
3.87181e-07
8.60797e-08
-3.7611e-07
3.6846e-07
9.72847e-08
-3.60125e-07
3.49279e-07
1.13232e-07
-3.43204e-07
3.27599e-07
1.41215e-07
-3.28734e-07
3.01132e-07
1.90743e-07
-3.19938e-07
2.70773e-07
2.64595e-07
-3.17257e-07
2.43806e-07
3.51267e-07
-3.18166e-07
2.31869e-07
4.30685e-07
-3.18353e-07
2.39363e-07
4.73063e-07
-3.10741e-07
2.68773e-07
4.40844e-07
-2.88179e-07
3.20879e-07
2.9555e-07
-2.5102e-07
3.96798e-07
1.10386e-08
-1.99214e-07
4.84152e-07
-3.51439e-07
-1.72326e-07
5.36636e-07
-6.63152e-07
-2.56262e-07
5.77404e-07
-9.12002e-07
-4.64036e-07
7.34319e-07
-1.18457e-06
-8.04058e-07
1.11683e-06
-1.43489e-06
-1.53056e-06
1.8513e-06
-2.38724e-06
-1.49047e-06
2.53021e-06
-3.2621e-06
-1.47943e-06
2.45002e-06
-2.22189e-06
-4.37528e-06
3.46583e-06
-1.39686e-06
-5.82616e-06
5.06239e-06
2.1251e-07
-9.859e-06
8.2467e-06
3.95317e-06
-1.48712e-05
1.09939e-05
8.01294e-06
-1.45838e-05
1.05491e-05
1.06205e-05
-1.27022e-05
9.87249e-06
9.30164e-06
-5.86304e-06
7.28453e-06
1.06286e-05
-2.89381e-07
-1.83721e-06
6.01983e-08
1.24662e-05
7.83121e-06
3.03018e-05
-1.35264e-06
-7.42031e-06
2.48452e-05
-2.09435e-05
-2.35344e-06
3.07153e-05
-1.19983e-05
4.32361e-06
2.83901e-05
-2.76763e-06
5.08703e-06
2.95531e-05
-4.9763e-06
3.81329e-06
2.92666e-05
-3.1387e-06
3.42517e-06
2.93156e-05
-3.30018e-06
3.25115e-06
2.87544e-05
-2.65254e-06
3.21373e-06
2.76855e-05
-2.11592e-06
3.18488e-06
2.6575e-05
-1.94354e-06
3.05406e-06
2.5203e-05
-1.57161e-06
2.94357e-06
2.37936e-05
-1.48626e-06
2.89566e-06
2.2604e-05
-1.2602e-06
2.44977e-06
2.14648e-05
-9.25587e-07
2.06481e-06
1.95352e-05
5.74552e-07
1.35504e-06
1.63571e-05
1.94765e-06
1.23047e-06
1.1572e-05
3.3939e-06
1.39118e-06
5.66721e-06
3.70833e-06
2.19647e-06
3.40992e-08
2.81463e-06
2.81848e-06
-2.60449e-06
-7.87776e-09
2.64647e-06
-2.4455e-06
-3.1456e-06
2.9866e-06
-1.38998e-06
-4.70109e-06
3.64557e-06
-2.83487e-07
-5.07056e-06
3.96408e-06
6.89949e-07
-4.88546e-06
3.91202e-06
3.6442e-07
-3.37134e-06
3.69687e-06
-3.03339e-06
4.29025e-07
2.96879e-06
-7.14397e-06
1.49622e-06
2.61436e-06
-9.09447e-06
-6.38038e-08
2.0143e-06
-1.02287e-05
-1.24782e-06
2.38201e-06
-1.22251e-05
-1.425e-06
3.42143e-06
-1.53394e-05
-2.61256e-08
3.14045e-06
-1.74708e-05
1.27756e-06
8.5386e-07
-1.84394e-05
1.93075e-06
-9.62144e-07
-1.85561e-05
2.81277e-06
-2.69608e-06
-1.54157e-05
2.46544e-06
-5.60581e-06
-9.05107e-06
2.49005e-06
-8.85473e-06
3.53964e-06
-1.25907e-05
-1.55796e-06
-3.69669e-06
-1.34916e-07
-2.08844e-07
-3.90153e-06
-1.33824e-08
-1.08516e-07
-1.91727e-06
7.65096e-07
5.14935e-08
-1.80323e-06
5.87878e-07
1.00941e-07
-1.04517e-06
3.71386e-07
1.14889e-07
-8.86639e-07
2.11904e-07
7.35255e-08
-5.01103e-07
5.84581e-08
-6.90314e-08
-4.04901e-07
7.6278e-08
-2.93765e-07
-2.15199e-07
8.39933e-08
-5.16893e-07
-1.54839e-07
9.142e-08
-6.63293e-07
-1.3267e-07
3.63033e-08
-6.99568e-07
-2.0732e-07
-2.67785e-08
-6.53435e-07
-2.99757e-07
-6.94387e-08
-5.33004e-07
-3.96465e-07
-1.02904e-07
-3.88878e-07
-4.53636e-07
-1.00979e-07
-2.37495e-07
-4.97057e-07
-8.98474e-08
-1.09986e-07
-5.09884e-07
-6.2914e-08
-6.8868e-09
-5.22356e-07
-3.72043e-08
6.33474e-08
-5.2662e-07
-8.69397e-09
1.06506e-07
-5.29077e-07
1.16115e-08
1.29046e-07
-5.26376e-07
2.46151e-08
1.36371e-07
-5.19245e-07
3.19716e-08
1.3327e-07
-5.08168e-07
3.43439e-08
1.23687e-07
-4.93954e-07
3.2712e-08
1.10807e-07
-4.77642e-07
2.8194e-08
9.68751e-08
-4.59584e-07
2.15158e-08
8.34192e-08
-4.3978e-07
1.3378e-08
7.12216e-08
-4.18446e-07
4.54498e-09
6.33061e-08
-3.96949e-07
-7.7614e-09
6.23779e-08
-3.77849e-07
-2.24358e-08
6.96092e-08
-3.59122e-07
-3.75806e-08
8.37906e-08
-3.37736e-07
-5.24876e-08
1.0276e-07
-3.12038e-07
-6.6977e-08
1.26748e-07
-2.8527e-07
-8.18034e-08
1.6048e-07
-2.64771e-07
-9.75545e-08
2.08584e-07
-2.55284e-07
-1.12571e-07
2.70159e-07
-2.55816e-07
-1.2281e-07
3.35999e-07
-2.6057e-07
-1.23178e-07
3.88667e-07
-2.59074e-07
-1.11656e-07
4.05234e-07
-2.4223e-07
-8.47165e-08
3.58505e-07
-1.98953e-07
-4.21065e-08
2.26026e-07
-1.27602e-07
9.52157e-09
3.34847e-08
-4.73167e-08
4.12111e-08
-9.47246e-08
-5.66902e-08
1.67209e-08
-3.83903e-08
-2.55326e-07
-3.97719e-08
1.72712e-08
-5.68967e-07
8.46063e-08
-4.54805e-07
-8.96981e-07
6.13074e-07
-2.07575e-06
-1.51841e-06
1.64938e-06
-4.122e-06
-1.78989e-06
2.39945e-06
-3.93846e-06
-2.79063e-06
1.25514e-06
-2.86147e-06
-5.8353e-06
5.38474e-07
-4.61657e-06
-7.34129e-06
3.37728e-06
-6.39999e-06
-1.53198e-05
7.25338e-06
-5.52917e-06
-2.4745e-05
8.92852e-06
-3.09567e-06
-2.47994e-05
8.00826e-06
-4.38577e-06
-1.81201e-05
6.23445e-06
4.72538e-06
-1.41036e-05
-3.1146e-07
1.85261e-05
-6.50756e-06
-8.89306e-06
5.36335e-06
2.34649e-05
1.24059e-05
3.16184e-05
-1.97258e-06
-3.3608e-06
1.41591e-05
-2.74433e-05
-6.54332e-06
9.76405e-06
-1.59664e-05
7.33178e-06
3.05395e-06
-5.12269e-06
9.06401e-06
-3.05252e-06
-4.51122e-06
5.64139e-06
-5.42047e-06
-4.83805e-06
4.0673e-06
-8.60242e-06
-4.33119e-06
4.21297e-06
-1.148e-05
-3.80847e-06
4.0335e-06
-1.41766e-05
-3.35899e-06
3.93967e-06
-1.63914e-05
-4.19052e-06
4.46176e-06
-1.82112e-05
-4.15243e-06
4.40067e-06
-1.93661e-05
-4.16191e-06
3.8305e-06
-1.9054e-05
-4.41538e-06
2.84307e-06
-1.61149e-05
-4.64236e-06
7.77705e-07
-1.23214e-05
-3.15005e-06
-6.88506e-08
-1.03276e-05
-1.02429e-06
9.78074e-07
-9.61433e-06
6.76612e-07
2.00407e-06
-9.53739e-06
1.01611e-06
2.61528e-06
-9.09013e-06
-1.41579e-06
3.78316e-06
-7.76036e-06
-5.09744e-06
3.75979e-06
-7.12771e-06
-6.79903e-06
3.02078e-06
-6.10183e-06
-8.23639e-06
2.50942e-06
-4.64259e-06
-8.77058e-06
2.24078e-06
-3.36782e-06
-8.09559e-06
1.93536e-06
-2.05629e-06
-6.23822e-06
1.55535e-06
-1.81352e-06
-1.9938e-06
2.18004e-06
-4.19807e-06
5.50533e-07
3.33024e-06
-7.02821e-06
7.07252e-07
2.05909e-06
-9.18318e-06
1.18999e-07
7.88146e-07
-1.11069e-05
-8.54805e-07
1.3535e-06
-1.36888e-05
2.25655e-07
2.33014e-06
-1.59636e-05
2.45823e-06
1.09412e-06
-1.6911e-05
3.32666e-06
-4.48533e-07
-1.64666e-05
4.29518e-06
-1.9268e-06
-1.377e-05
4.75837e-06
-4.98946e-06
-8.86842e-06
5.89421e-06
-8.30576e-06
8.65284e-06
-1.39816e-05
-2.28876e-06
-4.0179e-06
-3.90732e-07
-1.15204e-06
-4.42856e-06
-5.97761e-07
-9.13899e-07
-2.32767e-06
1.80674e-07
-5.89274e-07
-2.13829e-06
1.44148e-08
-4.39945e-07
-1.12696e-06
-6.24256e-08
-1.6642e-07
-9.94182e-07
-1.61236e-07
-3.58322e-08
-4.12866e-07
-2.13493e-07
-1.0955e-07
-2.15417e-07
-1.12536e-07
-3.38185e-07
7.97487e-08
-6.44839e-08
-5.28446e-07
9.68992e-08
-6.11758e-08
-6.51235e-07
1.11588e-07
-1.21104e-07
-6.83707e-07
1.29956e-08
-1.87698e-07
-6.58473e-07
-8.00862e-08
-2.44779e-07
-5.86269e-07
-1.8778e-07
-2.80914e-07
-4.82318e-07
-2.57903e-07
-2.99716e-07
-3.63285e-07
-3.10013e-07
-3.06161e-07
-2.5309e-07
-3.21889e-07
-2.98222e-07
-1.547e-07
-3.31888e-07
-2.88913e-07
-7.35743e-08
-3.30711e-07
-2.77063e-07
-1.22213e-08
-3.23601e-07
-2.66855e-07
3.04513e-08
-3.10663e-07
-2.58383e-07
5.75951e-08
-2.93839e-07
-2.52543e-07
7.18878e-08
-2.73648e-07
-2.48785e-07
7.68278e-08
-2.5139e-07
-2.47473e-07
7.58864e-08
-2.28482e-07
-2.48169e-07
7.24e-08
-2.0547e-07
-2.50577e-07
6.906e-08
-1.82129e-07
-2.54242e-07
6.84021e-08
-1.58811e-07
-2.58907e-07
7.21727e-08
-1.3613e-07
-2.64495e-07
8.05005e-08
-1.15226e-07
-2.7085e-07
9.37809e-08
-9.52052e-08
-2.77066e-07
1.11255e-07
-7.25873e-08
-2.82485e-07
1.31835e-07
-4.59111e-08
-2.86529e-07
1.53979e-07
-1.89787e-08
-2.88238e-07
1.76174e-07
4.65312e-10
-2.87184e-07
1.91165e-07
1.32192e-08
-2.83242e-07
1.93331e-07
1.72145e-08
-2.74892e-07
1.79627e-07
1.85061e-08
-2.65056e-07
1.45103e-07
3.01384e-08
-2.54312e-07
9.00503e-08
5.90681e-08
-2.4585e-07
1.9598e-08
1.11684e-07
-2.39705e-07
-5.46123e-08
1.84094e-07
-2.36931e-07
-8.78067e-08
2.41358e-07
-2.54086e-07
4.02816e-09
1.88331e-07
-3.30024e-07
1.67425e-07
2.83553e-09
-4.01467e-07
1.88633e-07
-2.63062e-07
-2.91738e-07
7.21968e-08
-7.97021e-07
5.93327e-08
-8.00409e-07
-1.44244e-06
8.35367e-07
-2.11789e-06
-1.7076e-06
1.29624e-06
-1.83865e-06
-2.65533e-06
-3.07121e-07
-2.7741e-06
-4.71075e-06
-4.24917e-08
-5.92284e-06
-6.17198e-06
2.15361e-06
-1.02914e-05
-1.76326e-05
6.68223e-06
-1.43539e-05
-2.93636e-05
8.66006e-06
-1.67866e-05
-3.00282e-05
7.94093e-06
-1.26543e-05
-2.33746e-05
9.4647e-07
4.93076e-06
-1.80586e-05
-1.19608e-05
1.80172e-05
-3.62735e-06
-1.66333e-05
1.03337e-05
4.13155e-05
3.48602e-06
3.43452e-05
-2.99775e-06
-9.63108e-07
9.40209e-06
-2.82919e-05
-8.19238e-06
-5.67818e-07
-1.32992e-05
6.47011e-06
-4.17802e-06
-9.19815e-06
7.68514e-06
-1.18229e-05
-4.42993e-06
7.56356e-06
-1.60385e-05
-6.68587e-06
6.06349e-06
-1.99675e-05
-5.54881e-06
5.14654e-06
-2.35385e-05
-5.60853e-06
5.37105e-06
-2.61472e-05
-5.55388e-06
4.80365e-06
-2.78216e-05
-6.30411e-06
3.78799e-06
-2.89797e-05
-5.86785e-06
2.87356e-06
-2.97387e-05
-5.14638e-06
1.74346e-06
-2.94376e-05
-4.95173e-06
2.35196e-07
-2.8202e-05
-5.30661e-06
-5.71318e-07
-2.59964e-05
-5.16855e-06
-1.87048e-07
-2.28598e-05
-5.07877e-06
9.17791e-07
-1.91931e-05
-5.03894e-06
2.04889e-06
-1.51676e-05
-4.74857e-06
1.73916e-06
-1.24151e-05
-5.74161e-06
1.57334e-06
-1.09847e-05
-7.34174e-06
8.13947e-07
-8.89024e-06
-8.87028e-06
-2.32199e-08
-7.13711e-06
-9.75705e-06
-2.32472e-07
-5.13116e-06
-9.97215e-06
-8.04386e-07
-2.69164e-06
-8.56868e-06
-1.96643e-06
1.58208e-07
-6.31503e-06
-2.77304e-06
3.85124e-06
-2.79746e-06
-2.88936e-06
5.46881e-06
9.34533e-07
-2.00157e-06
3.66443e-06
3.34634e-06
-8.34715e-07
1.67183e-07
4.23547e-06
-6.19217e-07
-5.11215e-06
4.66398e-06
-2.39451e-07
-9.6317e-06
3.90237e-06
8.42826e-07
-1.21125e-05
5.10339e-06
-1.64335e-07
-1.34655e-05
6.13682e-06
-1.45723e-06
-1.31996e-05
6.80024e-06
-2.77089e-06
-1.08699e-05
8.44196e-06
-6.01333e-06
-7.36762e-06
1.16336e-05
-9.24164e-06
1.50492e-05
-1.3764e-05
-2.7115e-06
-4.0553e-06
-2.44073e-07
-1.54218e-06
-4.69806e-06
-8.88582e-07
-1.28979e-06
-2.6229e-06
5.30311e-08
-8.96318e-07
-2.43777e-06
-8.9362e-08
-7.4494e-07
-1.15562e-06
-1.17196e-07
-3.80103e-07
-1.10867e-06
-2.46274e-07
-9.49623e-08
-3.87664e-07
-3.04673e-07
-1.68937e-08
-1.13085e-07
-1.764e-07
-1.12345e-07
3.04303e-07
-1.26712e-07
-2.73686e-07
3.62809e-07
-1.03993e-07
-4.30329e-07
4.2578e-07
-1.5693e-07
-5.45861e-07
3.45721e-07
-2.16885e-07
-6.00616e-07
2.49501e-07
-2.74527e-07
-5.83302e-07
1.15246e-07
-3.20179e-07
-5.14124e-07
2.39804e-08
-3.50884e-07
-4.17902e-07
-3.26407e-08
-3.73437e-07
-3.24525e-07
-3.22346e-08
-3.82825e-07
-2.39039e-07
-2.72877e-08
-3.89872e-07
-1.60911e-07
-1.44633e-08
-3.94156e-07
-9.28536e-08
2.17318e-09
-3.93607e-07
-3.73603e-08
2.28869e-08
-3.88817e-07
4.61753e-09
4.64071e-08
-3.81975e-07
3.4225e-08
7.22113e-08
-3.75226e-07
5.28663e-08
9.98192e-08
-3.69584e-07
6.34627e-08
1.27158e-07
-3.6598e-07
6.95301e-08
1.53191e-07
-3.64446e-07
7.3626e-08
1.78337e-07
-3.64294e-07
7.79397e-08
2.02085e-07
-3.64913e-07
8.42191e-08
2.23715e-07
-3.65849e-07
9.32435e-08
2.43046e-07
-3.66994e-07
1.04258e-07
2.6181e-07
-3.67757e-07
1.15678e-07
2.83818e-07
-3.67527e-07
1.26006e-07
3.10017e-07
-3.65992e-07
1.33557e-07
3.35899e-07
-3.6213e-07
1.34393e-07
3.54761e-07
-3.54863e-07
1.22909e-07
3.67092e-07
-3.42058e-07
9.5247e-08
3.73572e-07
-3.28383e-07
5.44402e-08
3.78963e-07
-3.19271e-07
3.96354e-09
3.98486e-07
-3.1749e-07
-5.58879e-08
4.41152e-07
-3.21758e-07
-1.23129e-07
5.08643e-07
-3.29222e-07
-1.78545e-07
5.79217e-07
-3.38995e-07
-1.77454e-07
6.09099e-07
-3.66801e-07
-6.92608e-08
5.22823e-07
-4.34888e-07
6.58543e-08
3.75969e-07
-4.88668e-07
1.40335e-07
7.44233e-08
-3.79829e-07
4.00001e-07
-8.88998e-07
-1.27887e-07
7.30714e-07
-2.07645e-06
3.51937e-07
1.03655e-06
-2.42498e-06
5.35575e-07
1.26611e-06
-2.28256e-06
-5.07093e-07
-1.55227e-06
-2.13626e-06
3.92243e-07
-7.24318e-06
-2.829e-06
2.54811e-06
-1.68405e-05
-1.58175e-05
7.74068e-06
-2.73988e-05
-2.83032e-05
9.50478e-06
-3.4653e-05
-2.91922e-05
6.59136e-06
-2.88595e-05
-2.28607e-05
-6.12673e-06
-1.93605e-05
-1.51251e-05
-1.00809e-05
-1.53213e-05
1.32864e-06
-1.097e-05
1.75215e-05
3.50333e-05
-7.86397e-06
3.82998e-05
-2.3517e-06
-2.89571e-06
5.81033e-06
-2.51811e-05
-7.91098e-06
-9.89908e-06
-7.55345e-06
8.91829e-06
-1.83481e-05
-9.3674e-06
8.61539e-06
-2.2729e-05
-7.91231e-06
7.86141e-06
-2.84588e-05
-7.31963e-06
6.36253e-06
-3.22598e-05
-7.06871e-06
5.32034e-06
-3.41936e-05
-8.56874e-06
4.89353e-06
-3.46734e-05
-9.00193e-06
3.92731e-06
-3.44984e-05
-9.27323e-06
2.79363e-06
-3.38306e-05
-8.53751e-06
2.00143e-06
-3.30191e-05
-7.12004e-06
1.16195e-06
-3.18753e-05
-5.90097e-06
-1.94598e-07
-3.0469e-05
-5.13378e-06
-1.5791e-06
-2.85517e-05
-4.65334e-06
-2.4325e-06
-2.61022e-05
-4.71735e-06
-2.81084e-06
-2.31931e-05
-5.46403e-06
-2.48408e-06
-1.93523e-05
-6.49834e-06
-2.09101e-06
-1.59086e-05
-6.79867e-06
-2.38661e-06
-1.26905e-05
-6.76125e-06
-3.7986e-06
-9.93042e-06
-7.2806e-06
-4.34978e-06
-7.79958e-06
-7.63768e-06
-4.25021e-06
-5.54324e-06
-8.07476e-06
-4.15372e-06
-3.09142e-06
-6.58432e-06
-4.43618e-06
-1.09993e-06
-3.73367e-06
-4.57285e-06
1.29083e-06
-4.89021e-07
-4.6992e-06
2.76311e-06
3.76933e-06
-4.30708e-06
1.60354e-06
6.24886e-06
-1.74295e-06
-1.79762e-06
7.19376e-06
4.42861e-07
-5.87791e-06
7.23071e-06
1.51357e-06
-9.28021e-06
5.09254e-06
2.21212e-06
-1.20045e-05
5.21732e-06
2.61032e-06
-1.33064e-05
7.22018e-06
2.1862e-07
-1.25699e-05
8.24279e-06
-2.17911e-06
-9.46488e-06
1.13392e-05
-6.00223e-06
-5.82758e-06
1.65086e-05
-8.51228e-06
2.15381e-05
-1.23164e-05
-3.01829e-06
-4.01699e-06
2.53139e-09
-1.75539e-06
-4.87447e-06
-1.07651e-06
-1.48164e-06
-2.98103e-06
9.51622e-08
-9.83589e-07
-2.90117e-06
-2.81598e-08
-8.20588e-07
-1.23274e-06
-7.93247e-08
-5.24018e-07
-1.18369e-06
-2.17616e-07
-2.82446e-07
-3.17065e-07
-3.06646e-07
-5.55049e-08
-7.24934e-08
-2.63145e-07
8.36333e-08
4.00415e-07
-2.32289e-07
2.45258e-10
6.01865e-07
-1.54638e-07
-1.69439e-07
7.46378e-07
-1.49987e-07
-3.76497e-07
7.17965e-07
-1.64922e-07
-5.16572e-07
5.91215e-07
-2.01414e-07
-5.57566e-07
4.04039e-07
-2.4779e-07
-5.15029e-07
2.66382e-07
-2.84909e-07
-4.2766e-07
1.99135e-07
-3.1917e-07
-3.40899e-07
2.20947e-07
-3.39912e-07
-2.64085e-07
2.54569e-07
-3.58674e-07
-1.93429e-07
2.89697e-07
-3.74783e-07
-1.25638e-07
3.21151e-07
-3.86766e-07
-6.61597e-08
3.55419e-07
-3.91984e-07
-1.55406e-08
3.88525e-07
-3.92746e-07
2.47276e-08
4.22409e-07
-3.90455e-07
5.42918e-08
4.55933e-07
-3.85694e-07
7.47226e-08
4.86884e-07
-3.80147e-07
8.91033e-08
5.13892e-07
-3.75102e-07
9.973e-08
5.37746e-07
-3.70024e-07
1.08594e-07
5.58165e-07
-3.64957e-07
1.17247e-07
5.74775e-07
-3.59687e-07
1.24989e-07
5.89079e-07
-3.53769e-07
1.31123e-07
6.03015e-07
-3.4728e-07
1.34705e-07
6.20453e-07
-3.40173e-07
1.32987e-07
6.43363e-07
-3.3152e-07
1.23238e-07
6.66804e-07
-3.2107e-07
1.02712e-07
6.84313e-07
-3.08874e-07
6.82602e-08
6.9718e-07
-2.95503e-07
1.92245e-08
7.08402e-07
-2.85582e-07
-4.49164e-08
7.26299e-07
-2.83e-07
-1.22871e-07
7.63354e-07
-2.866e-07
-2.0505e-07
8.1822e-07
-2.94572e-07
-2.74858e-07
8.83302e-07
-3.04369e-07
-3.11391e-07
9.32607e-07
-3.16075e-07
-2.92995e-07
9.26413e-07
-3.33156e-07
-1.93651e-07
8.07669e-07
-3.76515e-07
-7.19924e-08
6.80761e-07
-4.0759e-07
7.51459e-08
2.55158e-07
-2.95008e-07
5.10306e-07
-1.21937e-06
-6.26253e-08
1.55138e-06
-3.33989e-06
2.9371e-07
2.58572e-06
-3.32653e-06
1.47833e-08
2.56358e-06
-1.59613e-06
-4.9083e-07
-4.59209e-08
1.64582e-07
4.99456e-07
-7.55318e-06
8.28479e-07
3.99939e-06
-2.01343e-05
-1.00334e-05
6.79627e-06
-3.27974e-05
-2.09408e-05
5.18352e-06
-4.30197e-05
-2.19335e-05
2.8262e-06
-4.60924e-05
-1.78026e-05
-2.00389e-06
-4.70515e-05
-1.15672e-05
-8.63296e-07
-3.72884e-05
-6.79855e-06
-4.52118e-06
2.08635e-05
8.51761e-06
-7.72993e-06
4.21369e-05
-3.22891e-06
-5.75696e-06
3.90704e-06
-1.6867e-05
-9.81412e-06
-1.24665e-05
-1.51335e-07
7.41021e-06
-2.32528e-05
-5.36813e-06
6.77227e-06
-3.0818e-05
-7.73736e-06
7.3651e-06
-3.94316e-05
-3.11416e-06
4.39303e-06
-4.49816e-05
-4.61585e-06
3.08842e-06
-4.76919e-05
-6.53915e-06
6.67691e-07
-4.86638e-05
-7.0852e-06
-9.56561e-07
-4.83421e-05
-7.59152e-06
-2.0137e-06
-4.6882e-05
-7.68183e-06
-2.32487e-06
-4.5097e-05
-6.89693e-06
-2.01532e-06
-4.37422e-05
-6.06839e-06
-1.19275e-06
-4.24069e-05
-5.19024e-06
-1.28274e-06
-4.06693e-05
-4.65404e-06
-1.73982e-06
-3.83679e-05
-4.36939e-06
-2.65165e-06
-3.5613e-05
-4.5864e-06
-3.63428e-06
-3.29542e-05
-5.16806e-06
-3.99074e-06
-2.99793e-05
-5.4347e-06
-4.34011e-06
-2.65268e-05
-6.39251e-06
-3.82212e-06
-2.33069e-05
-7.52422e-06
-2.9771e-06
-1.96423e-05
-9.15894e-06
-2.14406e-06
-1.64153e-05
-1.01671e-05
-1.13529e-06
-1.37816e-05
-9.32196e-06
1.03844e-07
-1.17839e-05
-6.42252e-06
6.91131e-07
-7.93579e-06
-3.53371e-06
-8.03465e-07
-3.55381e-06
1.02248e-06
-1.63514e-06
-2.65213e-06
5.75808e-06
-4.10898e-07
-4.16708e-06
7.34764e-06
1.36108e-06
-5.99209e-06
7.13301e-06
1.92271e-06
-8.4676e-06
4.98012e-06
2.58794e-06
-1.14728e-05
4.86391e-06
3.35858e-06
-1.24433e-05
7.16038e-06
1.0303e-06
-1.062e-05
8.50417e-06
-2.08464e-06
-7.28593e-06
1.38127e-05
-5.80754e-06
-4.03279e-06
2.15815e-05
-8.32607e-06
2.86531e-05
-1.11478e-05
-3.32576e-06
-3.84477e-06
2.9853e-07
-2.07705e-06
-5.08555e-06
-1.02991e-06
-1.75776e-06
-3.45413e-06
1.64143e-07
-9.76699e-07
-3.51977e-06
-1.53449e-07
-6.66689e-07
-1.55316e-06
1.90455e-08
-5.70818e-07
-1.11091e-06
-1.64891e-07
-4.87459e-07
-1.50631e-07
-2.44434e-07
-2.20903e-07
-3.16648e-08
-3.02977e-07
1.01101e-07
3.85682e-07
-3.03638e-07
1.68463e-07
7.25379e-07
-1.88824e-07
6.3436e-08
1.00921e-06
-1.56412e-07
-2.0646e-07
1.10531e-06
-1.16645e-07
-4.21913e-07
9.49239e-07
-1.42013e-07
-4.90085e-07
6.62343e-07
-1.8986e-07
-4.55198e-07
4.76949e-07
-2.45144e-07
-3.71988e-07
4.07774e-07
-2.91555e-07
-2.91238e-07
4.56405e-07
-3.15851e-07
-2.31649e-07
5.3044e-07
-3.35056e-07
-1.85127e-07
5.95811e-07
-3.52201e-07
-1.40578e-07
6.43706e-07
-3.66644e-07
-9.79026e-08
6.86868e-07
-3.73675e-07
-5.73761e-08
7.23424e-07
-3.74951e-07
-2.02313e-08
7.57431e-07
-3.71719e-07
1.19525e-08
7.89297e-07
-3.6507e-07
3.76896e-08
8.18314e-07
-3.56716e-07
5.59169e-08
8.43895e-07
-3.47737e-07
6.77097e-08
8.64476e-07
-3.38059e-07
7.45349e-08
8.7992e-07
-3.28073e-07
7.83804e-08
8.89409e-07
-3.18005e-07
8.04479e-08
8.95099e-07
-3.07568e-07
8.08104e-08
9.00837e-07
-2.97702e-07
7.70952e-08
9.12525e-07
-2.87817e-07
6.47492e-08
9.33309e-07
-2.7709e-07
4.06573e-08
9.57546e-07
-2.66074e-07
3.20538e-09
9.77383e-07
-2.5508e-07
-4.72947e-08
9.93698e-07
-2.45402e-07
-1.0574e-07
1.00798e-06
-2.4055e-07
-1.72999e-07
1.03346e-06
-2.39229e-07
-2.54482e-07
1.08576e-06
-2.40255e-07
-3.45666e-07
1.15192e-06
-2.41719e-07
-4.19866e-07
1.19866e-06
-2.40282e-07
-4.24881e-07
1.17318e-06
-2.34156e-07
-3.26444e-07
1.0581e-06
-2.27105e-07
-1.7792e-07
9.06868e-07
-2.39547e-07
-1.19882e-07
8.49981e-07
-2.07289e-07
-1.18734e-07
3.81645e-07
-9.12164e-08
-5.89041e-08
-1.32702e-06
9.92105e-08
-1.6283e-07
-3.6116e-06
4.20172e-07
6.90787e-07
-4.42907e-06
4.0511e-07
1.38271e-06
-1.44101e-06
-6.68563e-07
-3.58636e-07
3.58235e-06
-1.45195e-06
-6.26901e-06
5.25982e-06
1.63562e-06
-1.79846e-05
-3.07006e-06
4.7699e-06
-2.79956e-05
-1.37376e-05
2.77125e-06
-3.59542e-05
-1.59231e-05
1.86873e-06
-3.93429e-05
-1.5838e-05
1.33006e-06
-3.93298e-05
-1.23626e-05
2.50558e-06
-2.92783e-05
-1.65591e-05
-2.74093e-06
2.88497e-05
-1.75166e-05
-7.50038e-06
4.30566e-05
-2.05897e-07
-4.1758e-06
9.1125e-07
-5.38513e-06
-1.06864e-05
-1.33573e-05
4.86371e-06
8.06399e-06
-2.81208e-05
2.88369e-06
6.54245e-06
-4.43176e-05
6.52796e-07
7.79507e-06
-5.37384e-05
2.38474e-06
3.90926e-06
-5.82139e-05
-2.17949e-06
2.01622e-06
-5.96315e-05
-4.9195e-06
-2.58493e-07
-6.02697e-05
-5.61097e-06
-8.93218e-07
-6.00308e-05
-6.90942e-06
-9.84697e-07
-5.91938e-05
-7.72587e-06
-8.58713e-07
-5.7812e-05
-7.354e-06
-9.86476e-07
-5.63621e-05
-6.65501e-06
-9.18886e-07
-5.44215e-05
-5.97403e-06
-1.20596e-06
-5.1931e-05
-5.32219e-06
-1.86728e-06
-4.89741e-05
-4.97094e-06
-2.39754e-06
-4.55009e-05
-4.98302e-06
-3.11796e-06
-4.16691e-05
-5.49449e-06
-3.54695e-06
-3.75795e-05
-6.23137e-06
-3.3337e-06
-3.37237e-05
-7.68519e-06
-2.60375e-06
-2.99492e-05
-9.45162e-06
-1.88739e-06
-2.67535e-05
-1.14882e-05
-9.06054e-07
-2.42962e-05
-1.26125e-05
-4.71487e-08
-2.26489e-05
-1.20021e-05
1.00723e-06
-2.12957e-05
-9.84475e-06
2.05457e-06
-1.85288e-05
-8.51691e-06
2.20798e-06
-1.31276e-05
-5.79417e-06
1.41036e-06
-7.46071e-06
5.51186e-07
-4.60217e-07
-5.80417e-06
5.24423e-06
4.46907e-07
-5.69908e-06
5.91732e-06
1.1106e-06
-7.50207e-06
4.9419e-06
1.84121e-06
-1.00793e-05
5.15089e-06
2.29024e-06
-1.09999e-05
7.27463e-06
8.06424e-07
-9.45085e-06
9.29633e-06
-2.34125e-06
-7.41951e-06
1.61884e-05
-4.40706e-06
-4.51662e-06
2.56271e-05
-6.94846e-06
3.40362e-05
-9.89977e-06
-3.75133e-06
-3.52124e-06
6.66361e-07
-2.57574e-06
-5.18247e-06
-1.07356e-06
-2.19183e-06
-3.76486e-06
-6.44515e-08
-9.31387e-07
-4.06108e-06
-7.08196e-07
-2.22797e-07
-2.23356e-06
-1.83875e-08
-3.32877e-07
-8.80822e-07
-1.15521e-07
-4.75144e-07
1.76716e-07
-1.79879e-07
-3.66402e-07
1.55166e-07
-2.91276e-07
-4.65788e-08
4.23368e-07
-3.54034e-07
1.13139e-07
8.2436e-07
-2.56997e-07
1.16371e-07
1.20066e-06
-1.93417e-07
-1.19022e-07
1.42669e-06
-8.53623e-08
-3.2103e-07
1.25748e-06
-1.06107e-07
-3.83473e-07
9.01073e-07
-1.76569e-07
-3.6079e-07
7.01359e-07
-2.47266e-07
-2.92627e-07
6.37148e-07
-2.97774e-07
-2.22915e-07
7.04455e-07
-3.17953e-07
-1.77883e-07
8.10538e-07
-3.25385e-07
-1.54169e-07
9.01416e-07
-3.2953e-07
-1.38819e-07
9.62752e-07
-3.34642e-07
-1.27694e-07
1.01183e-06
-3.36284e-07
-1.15694e-07
1.04621e-06
-3.34998e-07
-1.00907e-07
1.07272e-06
-3.30242e-07
-8.48889e-08
1.09559e-06
-3.22499e-07
-7.07889e-08
1.1157e-06
-3.11629e-07
-5.97047e-08
1.13119e-06
-2.98542e-07
-5.28337e-08
1.14347e-06
-2.85969e-07
-5.11197e-08
1.15195e-06
-2.73855e-07
-5.35375e-08
1.15498e-06
-2.63208e-07
-5.67557e-08
1.15261e-06
-2.54363e-07
-6.1443e-08
1.15171e-06
-2.46201e-07
-7.34037e-08
1.1621e-06
-2.37653e-07
-9.92219e-08
1.18717e-06
-2.28021e-07
-1.40151e-07
1.21657e-06
-2.18072e-07
-1.93969e-07
1.24101e-06
-2.09689e-07
-2.54961e-07
1.2596e-06
-2.04773e-07
-3.10758e-07
1.27003e-06
-2.06021e-07
-3.52683e-07
1.28637e-06
-2.10737e-07
-3.90184e-07
1.33447e-06
-2.10838e-07
-4.41969e-07
1.40664e-06
-2.02514e-07
-4.95406e-07
1.44231e-06
-1.89619e-07
-4.81683e-07
1.34466e-06
-1.84175e-07
-3.6242e-07
1.12876e-06
-1.87349e-07
-2.59276e-07
9.71186e-07
-1.5997e-07
-3.24432e-07
1.00247e-06
-6.73415e-08
-5.44821e-07
6.17821e-07
2.16159e-08
-8.93479e-07
-9.036e-07
-2.4004e-08
-1.3558e-06
-3.0294e-06
-7.44788e-08
-1.54628e-06
-4.51843e-06
3.92352e-07
4.33023e-08
-2.18059e-06
-6.97342e-07
2.8976e-08
5.8084e-06
-1.96802e-06
-7.63742e-06
1.16605e-05
1.28868e-06
-2.15351e-05
7.09047e-06
3.79585e-06
-2.85446e-05
-7.31007e-06
5.49495e-07
-3.18085e-05
-1.26606e-05
1.62287e-08
-3.05543e-05
-1.70147e-05
-2.98562e-07
-2.71456e-05
-1.7541e-05
4.143e-06
-2.12078e-05
-2.84323e-05
4.48816e-06
2.77516e-05
-3.72637e-05
-4.19166e-06
4.52928e-05
3.26007e-06
-4.99878e-06
2.38926e-06
5.45184e-06
-1.04345e-05
-9.18403e-06
7.15331e-06
7.50514e-06
-2.658e-05
1.30355e-05
7.40802e-06
-5.37829e-05
1.59677e-05
1.19539e-05
-6.27843e-05
7.10945e-06
4.30027e-06
-6.57876e-05
-8.1482e-08
9.01715e-07
-6.68903e-05
-3.2503e-06
-5.95403e-07
-6.63875e-05
-5.13726e-06
-1.02772e-06
-6.5572e-05
-6.45306e-06
-1.32605e-06
-6.46308e-05
-6.87002e-06
-1.86876e-06
-6.33389e-05
-5.99953e-06
-2.72214e-06
-6.18859e-05
-5.20886e-06
-2.97119e-06
-6.01338e-05
-4.53957e-06
-3.26847e-06
-5.78993e-05
-4.30908e-06
-3.33534e-06
-5.50289e-05
-4.4328e-06
-3.50285e-06
-5.15793e-05
-4.87826e-06
-3.65462e-06
-4.76399e-05
-5.79529e-06
-3.74404e-06
-4.35214e-05
-7.15638e-06
-3.30473e-06
-3.97693e-05
-9.06948e-06
-2.48493e-06
-3.65706e-05
-1.11863e-05
-1.59804e-06
-3.44616e-05
-1.30889e-05
-6.62633e-07
-3.35264e-05
-1.38656e-05
1.45984e-07
-3.36365e-05
-1.32478e-05
1.18391e-06
-3.37766e-05
-1.18627e-05
2.00552e-06
-3.29426e-05
-1.12993e-05
1.80784e-06
-2.96065e-05
-1.0723e-05
1.45455e-06
-2.14562e-05
-7.90637e-06
1.824e-07
-1.36359e-05
-2.27361e-06
-3.73782e-07
-9.18744e-06
1.69353e-06
-2.49786e-07
-7.83449e-06
3.86591e-06
-2.87244e-07
-7.63111e-06
5.30529e-06
-3.73662e-07
-7.96715e-06
7.75155e-06
-1.61509e-07
-7.17539e-06
1.15254e-05
-3.04877e-06
-5.59631e-06
1.98305e-05
-5.24776e-06
-2.94921e-06
2.97964e-05
-6.83233e-06
3.96196e-05
-8.53269e-06
-3.88782e-06
-3.07724e-06
1.30013e-06
-3.0554e-06
-4.95147e-06
-1.06126e-06
-2.84713e-06
-3.86492e-06
-1.00167e-07
-1.33167e-06
-4.41277e-06
-1.15104e-06
-1.2018e-07
-3.23719e-06
-1.95989e-07
2.98097e-09
-1.01332e-06
1.51539e-08
-2.00079e-07
4.35351e-07
-5.08485e-08
-3.14462e-07
4.28133e-07
-1.53624e-07
-2.16393e-07
6.99506e-07
-3.70073e-07
-9.75299e-08
1.00133e-06
-2.93719e-07
1.32683e-08
1.35278e-06
-2.6102e-07
1.00667e-08
1.59453e-06
-1.6394e-07
-3.31551e-10
1.47453e-06
-2.06125e-07
-2.3954e-08
1.20163e-06
-2.76937e-07
-5.96691e-08
1.08872e-06
-3.51483e-07
-1.03329e-07
1.08923e-06
-4.08284e-07
-1.41013e-07
1.18825e-06
-4.45937e-07
-1.74673e-07
1.312e-06
-4.67626e-07
-2.09202e-07
1.41687e-06
-4.8071e-07
-2.28814e-07
1.47149e-06
-4.88944e-07
-2.38498e-07
1.51389e-06
-4.9225e-07
-2.40776e-07
1.54208e-06
-4.93491e-07
-2.36607e-07
1.56117e-06
-4.92586e-07
-2.28119e-07
1.57678e-06
-4.89665e-07
-2.18895e-07
1.59093e-06
-4.84513e-07
-2.10827e-07
1.60236e-06
-4.79322e-07
-2.05883e-07
1.61168e-06
-4.73303e-07
-2.04411e-07
1.61769e-06
-4.67363e-07
-2.06902e-07
1.6193e-06
-4.62008e-07
-2.10198e-07
1.61416e-06
-4.58423e-07
-2.17e-07
1.61296e-06
-4.54636e-07
-2.38032e-07
1.63092e-06
-4.4793e-07
-2.77075e-07
1.66572e-06
-4.39648e-07
-3.30456e-07
1.70235e-06
-4.32489e-07
-3.88644e-07
1.72756e-06
-4.28463e-07
-4.40135e-07
1.74079e-06
-4.29753e-07
-4.7395e-07
1.74088e-06
-4.37087e-07
-4.86894e-07
1.7463e-06
-4.46971e-07
-4.84695e-07
1.78351e-06
-4.51203e-07
-4.88161e-07
1.85618e-06
-4.45981e-07
-5.02086e-07
1.8976e-06
-4.41183e-07
-4.92454e-07
1.7887e-06
-4.53121e-07
-4.16365e-07
1.53258e-06
-4.78159e-07
-3.4034e-07
1.35785e-06
-4.56494e-07
-4.90207e-07
1.52866e-06
-3.58721e-07
-9.22049e-07
1.38251e-06
-2.97467e-07
-1.45089e-06
2.10394e-07
-5.29431e-07
-2.02717e-06
-1.57488e-06
-8.17462e-07
-3.23382e-06
-2.56408e-06
-6.8382e-07
-1.75737e-06
-2.76327e-06
-7.34279e-07
2.57757e-06
3.9828e-06
-2.24624e-06
2.44983e-06
1.32824e-05
-1.32909e-06
-1.20186e-05
1.7424e-05
4.23543e-06
-2.65011e-05
5.04554e-06
2.11414e-06
-3.43265e-05
-3.38743e-06
-1.18413e-06
-3.29211e-05
-1.14058e-05
-7.34608e-06
-3.17719e-05
-6.96582e-06
-8.59274e-06
-3.10484e-05
-2.39864e-05
-8.55817e-06
2.98911e-05
-5.54508e-05
-1.06349e-05
5.32727e-05
4.09324e-06
-6.20317e-06
-1.38613e-07
2.01753e-05
-1.05328e-05
-2.56431e-05
1.58891e-05
1.41815e-05
-4.7978e-05
2.35981e-05
1.18926e-05
-6.38975e-05
2.13067e-05
1.06743e-05
-6.45009e-05
9.71198e-06
-1.99879e-06
-6.30341e-05
4.3033e-06
-5.82547e-06
-6.07242e-05
1.14563e-06
-6.69104e-06
-5.95516e-05
-2.21918e-06
-4.09822e-06
-6.03425e-05
-3.1483e-06
-2.50618e-06
-6.09465e-05
-3.44069e-06
-2.82642e-06
-6.14016e-05
-1.97025e-06
-3.57441e-06
-6.17822e-05
-5.86636e-07
-4.26002e-06
-6.14074e-05
5.81348e-07
-5.54424e-06
-6.00918e-05
1.49304e-06
-7.18951e-06
-5.83177e-05
1.79197e-06
-8.10004e-06
-5.5921e-05
1.4462e-06
-8.84372e-06
-5.21903e-05
1.58477e-07
-9.82221e-06
-4.76762e-05
-2.22765e-06
-9.58508e-06
-4.38727e-05
-5.50077e-06
-7.49907e-06
-4.15869e-05
-8.63422e-06
-4.94745e-06
-4.09938e-05
-1.07121e-05
-3.07373e-06
-4.19272e-05
-1.13019e-05
-1.72558e-06
-4.44758e-05
-1.07926e-05
2.02065e-08
-4.59971e-05
-1.18653e-05
1.47618e-06
-4.69602e-05
-1.23085e-05
1.94111e-06
-4.7904e-05
-1.23747e-05
2.61272e-06
-4.69e-05
-1.20899e-05
3.20656e-06
-4.25932e-05
-9.97275e-06
3.40267e-06
-3.69352e-05
-6.99264e-06
3.03094e-06
-3.30722e-05
-2.073e-06
2.11119e-06
-2.9403e-05
1.18277e-06
5.27973e-07
-2.60464e-05
5.78371e-06
-1.34651e-06
-2.2799e-05
1.21426e-05
-3.94273e-06
-1.81291e-05
2.17041e-05
-6.7096e-06
-1.05389e-05
3.01963e-05
-8.49388e-06
3.5281e-05
-9.47211e-06
-3.63069e-06
-1.74073e-06
2.44323e-06
-3.4444e-06
-4.69105e-06
-4.5165e-07
-3.74228e-06
-3.69783e-06
1.3706e-07
-2.27362e-06
-4.62606e-06
-1.24269e-06
-7.65624e-07
-4.13851e-06
-5.90551e-07
1.55963e-07
-1.9939e-06
6.81929e-08
1.36801e-07
2.46745e-08
4.33349e-07
-2.01918e-07
2.42044e-07
5.30142e-07
-2.40153e-07
6.38217e-07
1.04475e-07
-1.67762e-07
8.52771e-07
7.83534e-08