/*--------------------------------*- C++ -*----------------------------------*\
| =========                 |                                                 |
| \\      /  F ield         | OpenFOAM: The Open Source CFD Toolbox           |
|  \\    /   O peration     | Version:  2.3.0                                 |
|   \\  /    A nd           | Web:      www.OpenFOAM.org                      |
|    \\/     M anipulation  |                                                 |
\*---------------------------------------------------------------------------*/
FoamFile
{
    version     2.0;
    format      ascii;
    class       surfaceScalarField;
    location    "30";
    object      phi.air;
}
// * * * * * * * * * * * * * * * * * * * * * * * * * * * * * * * * * * * * * //

dimensions      [0 3 -1 0 0 0 0];

internalField   nonuniform List<scalar> 
16448
(
-1.02754e-06
-2.54536e-06
5.48877e-07
5.32611e-07
-2.47139e-06
9.11243e-07
6.11642e-07
-1.23358e-06
1.15455e-06
6.09057e-07
-1.15229e-06
1.15488e-06
3.31241e-07
-7.48863e-07
1.02668e-06
8.39738e-08
-6.60073e-07
9.07342e-07
-1.77971e-07
-4.60054e-07
7.22001e-07
-3.28947e-07
-4.22766e-07
5.73746e-07
-5.06253e-07
-3.28942e-07
5.06255e-07
-6.87985e-07
-2.69703e-07
4.51445e-07
-7.97447e-07
-2.75112e-07
3.84586e-07
-7.85267e-07
-3.30791e-07
3.18624e-07
-6.89621e-07
-3.9087e-07
2.95236e-07
-5.32339e-07
-4.40348e-07
2.83076e-07
-3.78102e-07
-4.62922e-07
3.08697e-07
-2.35838e-07
-4.78939e-07
3.36687e-07
-1.33245e-07
-4.82625e-07
3.80048e-07
-5.72996e-08
-4.91527e-07
4.15597e-07
-8.56179e-09
-5.00757e-07
4.52037e-07
2.01634e-08
-5.05456e-07
4.76747e-07
3.18103e-08
-5.05945e-07
4.94317e-07
3.26843e-08
-5.03066e-07
5.0221e-07
2.68884e-08
-4.97495e-07
5.03309e-07
1.76562e-08
-4.89652e-07
4.98903e-07
7.42412e-09
-4.80042e-07
4.90293e-07
-1.79854e-09
-4.69399e-07
4.78641e-07
-8.73641e-09
-4.58119e-07
4.65076e-07
-1.30378e-08
-4.46207e-07
4.50527e-07
-1.46733e-08
-4.33916e-07
4.3557e-07
-1.41498e-08
-4.21822e-07
4.21317e-07
-9.88955e-09
-4.12549e-07
4.08307e-07
-4.84572e-09
-4.02465e-07
3.9744e-07
2.87897e-10
-3.9307e-07
3.87954e-07
8.40966e-10
-3.81352e-07
3.80818e-07
2.26942e-09
-3.72635e-07
3.71224e-07
-2.16561e-09
-3.59497e-07
3.63951e-07
3.82467e-10
-3.51766e-07
3.49236e-07
-3.74821e-09
-3.35868e-07
3.40018e-07
1.02409e-08
-3.32197e-07
3.18227e-07
1.53791e-08
-3.14103e-07
3.08985e-07
4.07461e-08
-3.17777e-07
2.9243e-07
3.96673e-08
-2.92469e-07
2.93569e-07
5.1198e-08
-3.05372e-07
2.93862e-07
5.9241e-09
-2.65306e-07
3.10602e-07
-3.56054e-08
-2.86529e-07
3.28079e-07
-1.30628e-07
-2.36665e-07
3.31711e-07
-2.67971e-07
-2.39083e-07
3.76449e-07
-3.80157e-07
-2.08482e-07
3.20693e-07
-5.8422e-07
-2.47515e-07
4.51602e-07
-7.38394e-07
-2.44917e-07
3.99118e-07
-7.02522e-07
-1.03293e-06
9.97086e-07
-4.68334e-07
-1.50759e-06
1.27343e-06
-2.00809e-06
-1.18592e-06
2.72568e-06
-2.94794e-06
-1.35522e-06
2.2951e-06
-2.0677e-06
-3.0373e-06
2.15706e-06
2.17687e-07
-5.60416e-06
3.31875e-06
-1.90961e-06
9.72605e-07
1.15417e-06
-2.79048e-06
-4.99403e-07
1.37826e-06
-5.96751e-06
-1.45828e-06
4.04867e-06
-3.292e-05
-1.35571e-05
8.34546e-06
-6.37173e-05
-1.38201e-05
2.60777e-06
-1.55103e-05
-7.88177e-06
6.45273e-06
2.56575e-05
-6.72228e-06
5.69189e-06
2.93861e-05
-8.70296e-06
4.76361e-06
3.32916e-05
-8.21313e-06
4.07473e-06
3.574e-05
-6.16862e-06
3.69266e-06
3.69627e-05
-4.48793e-06
3.28403e-06
3.71686e-05
-3.17512e-06
2.95219e-06
3.64048e-05
-1.87257e-06
2.60782e-06
3.47393e-05
-6.9367e-07
2.34305e-06
3.21888e-05
4.78275e-07
2.06459e-06
2.8751e-05
1.61364e-06
1.81433e-06
2.47999e-05
2.30502e-06
1.6209e-06
2.02772e-05
3.06428e-06
1.44069e-06
1.55214e-05
3.33146e-06
1.40543e-06
1.06429e-05
3.46515e-06
1.37755e-06
6.09615e-06
3.33754e-06
1.19396e-06
3.53778e-06
2.28872e-06
2.95583e-07
3.65053e-06
9.49326e-07
-1.06694e-06
5.41207e-06
3.42834e-07
-2.13365e-06
7.49143e-06
4.53523e-07
-2.5455e-06
8.98667e-06
9.12922e-07
-2.40719e-06
9.69622e-06
1.5781e-06
-2.27995e-06
9.83262e-06
2.23654e-06
-2.36755e-06
9.52792e-06
2.60048e-06
-2.27087e-06
8.86328e-06
2.61218e-06
-1.91386e-06
7.92397e-06
2.46908e-06
-1.50606e-06
7.17017e-06
1.92754e-06
-1.16104e-06
7.15829e-06
1.22947e-06
-1.22498e-06
7.74759e-06
5.95632e-07
-1.20753e-06
8.98681e-06
-3.52989e-07
-9.119e-07
9.71451e-06
-3.15418e-07
-4.23593e-07
9.02053e-06
4.80298e-07
2.24074e-07
7.50811e-06
1.41196e-06
1.1636e-07
4.03815e-06
2.73173e-06
9.00185e-07
3.53654e-06
1.63294e-06
-2.15756e-06
-3.78187e-06
-2.56589e-08
-1.13183e-06
-3.78423e-06
2.87107e-07
-8.13915e-07
-2.38964e-06
8.38151e-07
-3.9471e-07
-2.10601e-06
5.3451e-07
-2.22814e-07
-1.30954e-06
3.88778e-07
-1.23757e-07
-9.82816e-07
2.23686e-07
-2.05241e-07
-4.53057e-07
7.44883e-08
-3.9943e-07
-2.92762e-07
6.41898e-08
-7.03882e-07
-1.27488e-07
1.03009e-07
-9.42064e-07
-1.19464e-07
8.79564e-08
-1.04435e-06
-2.02182e-07
2.93743e-08
-1.00292e-06
-3.29418e-07
-4.27929e-08
-8.91006e-07
-4.31816e-07
-7.09483e-08
-7.23529e-07
-5.18681e-07
-8.91278e-08
-5.49935e-07
-5.6045e-07
-7.6046e-08
-3.84565e-07
-5.85587e-07
-5.8699e-08
-2.5392e-07
-5.84263e-07
-2.89831e-08
-1.54149e-07
-5.88615e-07
-2.65684e-09
-8.453e-08
-5.87368e-07
1.70195e-08
-3.9045e-08
-5.82978e-07
3.20651e-08
-1.51715e-08
-5.72982e-07
4.31921e-08
-5.64968e-09
-5.60343e-07
4.77844e-08
-5.52486e-09
-5.4563e-07
4.80398e-08
-1.10522e-08
-5.29283e-07
4.51874e-08
-1.89218e-08
-5.11824e-07
3.96808e-08
-2.65879e-08
-4.93743e-07
3.20389e-08
-3.27802e-08
-4.75275e-07
2.33774e-08
-3.70705e-08
-4.56288e-07
1.44002e-08
-3.9419e-08
-4.37235e-07
5.69594e-09
-3.97747e-08
-4.17842e-07
-3.59594e-09
-3.55561e-08
-4.01297e-07
-1.54418e-08
-3.0071e-08
-3.8309e-07
-2.48315e-08
-2.39868e-08
-3.66257e-07
-3.28677e-08
-2.17597e-08
-3.4402e-07
-3.95305e-08
-1.83207e-08
-3.28127e-07
-4.79174e-08
-1.98165e-08
-3.03468e-07
-5.45033e-08
-1.38199e-08
-2.91388e-07
-6.63448e-08
-1.41655e-08
-2.62892e-07
-7.25998e-08
4.48123e-09
-2.61571e-07
-8.92423e-08
6.0267e-09
-2.25996e-07
-8.96209e-08
2.86955e-08
-2.37707e-07
-1.02707e-07
6.82051e-09
-1.80313e-07
-9.02484e-08
8.73627e-09
-2.08293e-07
-9.89611e-08
-5.78614e-08
-1.22589e-07
-7.60851e-08
-1.05684e-07
-1.63129e-07
-7.55413e-08
-1.85669e-07
-7.95205e-08
-7.71246e-08
-2.82137e-07
-1.24417e-07
-1.81607e-08
-3.78297e-07
-4.12087e-08
-7.10748e-08
-6.71003e-07
-8.65467e-08
1.31779e-07
-6.56009e-07
-1.5608e-07
-1.03791e-07
-1.16507e-06
-1.17867e-06
6.54829e-07
-1.91171e-06
-1.80772e-06
1.04681e-06
-3.90055e-06
-9.79485e-07
1.78245e-06
-3.72665e-06
-2.2954e-06
7.66327e-07
-1.51335e-06
-5.48623e-06
2.35642e-07
2.63036e-06
-1.04875e-05
7.396e-07
-2.06519e-06
6.00139e-06
-3.33871e-07
-9.81081e-06
4.60033e-06
2.64268e-06
-9.82293e-06
-2.74181e-06
7.57771e-07
-3.29738e-05
-2.57981e-05
2.86186e-06
-7.17783e-05
-2.15079e-05
5.12311e-08
-2.52482e-05
-1.37646e-05
4.61801e-06
1.78177e-05
-1.52757e-05
5.92601e-06
2.24592e-05
-1.55398e-05
1.86311e-06
2.64713e-05
-1.31448e-05
1.02201e-06
2.97614e-05
-9.91263e-06
6.37214e-07
3.18139e-05
-6.84987e-06
3.71138e-07
3.25413e-05
-4.09968e-06
2.15658e-07
3.21247e-05
-1.44589e-06
1.04412e-08
3.05159e-05
1.05016e-06
-1.12566e-07
2.82444e-05
2.93981e-06
-1.66114e-07
2.53606e-05
4.71856e-06
-1.85141e-07
2.18301e-05
5.88439e-06
1.95584e-09
1.81848e-05
6.77285e-06
-5.67735e-08
1.42249e-05
7.26218e-06
1.62445e-08
1.00605e-05
7.06592e-06
5.46753e-07
6.5859e-06
6.5123e-06
2.7568e-07
5.10034e-06
4.83879e-06
-1.06212e-06
6.02873e-06
2.72022e-06
-2.69456e-06
8.05938e-06
2.52347e-06
-4.22522e-06
9.78816e-06
3.63379e-06
-4.93082e-06
1.05656e-05
4.72042e-06
-4.58122e-06
1.04968e-05
5.28024e-06
-3.63806e-06
1.01275e-05
5.42607e-06
-2.86602e-06
9.53948e-06
5.37187e-06
-2.22812e-06
8.6707e-06
5.07065e-06
-1.61804e-06
7.62675e-06
4.57955e-06
-1.08757e-06
6.68938e-06
3.57305e-06
-7.13913e-07
6.43598e-06
2.12753e-06
-6.28734e-07
7.33388e-06
1.83248e-07
-5.13267e-07
8.89911e-06
-1.79109e-06
-1.4979e-07
9.90671e-06
-1.98621e-06
6.58365e-07
9.42343e-06
-5.54943e-07
1.51541e-06
7.72793e-06
2.24383e-06
8.4311e-07
4.04358e-06
5.29803e-06
1.20777e-06
7.52986e-06
1.22631e-06
-2.96474e-06
-4.27656e-06
-3.08294e-07
-2.20809e-06
-4.36115e-06
-1.79731e-07
-1.94089e-06
-3.00618e-06
3.49349e-07
-1.3725e-06
-2.68348e-06
9.07841e-09
-9.17973e-07
-1.74825e-06
-1.58148e-08
-4.81439e-07
-1.29767e-06
-1.21684e-07
-3.26886e-07
-4.24448e-07
-1.83163e-07
-4.53235e-07
-7.86856e-08
-8.77238e-08
-7.61064e-07
2.12534e-07
-3.21834e-08
-9.64399e-07
1.37695e-07
-5.38084e-08
-1.02774e-06
-1.16878e-08
-1.2714e-07
-9.95099e-07
-1.55618e-07
-2.0642e-07
-9.12048e-07
-2.64809e-07
-2.50039e-07
-7.87594e-07
-3.64511e-07
-2.78606e-07
-6.48555e-07
-4.12299e-07
-2.87167e-07
-5.08473e-07
-4.39269e-07
-2.86376e-07
-3.84723e-07
-4.30704e-07
-2.77283e-07
-2.80153e-07
-4.25077e-07
-2.68083e-07
-2.00663e-07
-4.09943e-07
-2.56887e-07
-1.42615e-07
-3.92715e-07
-2.48283e-07
-1.03839e-07
-3.70979e-07
-2.40751e-07
-7.92941e-08
-3.48523e-07
-2.36337e-07
-6.61632e-08
-3.24593e-07
-2.34139e-07
-6.11339e-08
-2.99875e-07
-2.34409e-07
-6.1239e-08
-2.75429e-07
-2.36261e-07
-6.39458e-08
-2.51705e-07
-2.39303e-07
-6.75309e-08
-2.28597e-07
-2.43065e-07
-7.07347e-08
-2.05842e-07
-2.47214e-07
-7.24751e-08
-1.83879e-07
-2.51587e-07
-7.22103e-08
-1.62158e-07
-2.5592e-07
-7.00652e-08
-1.42424e-07
-2.6099e-07
-6.70764e-08
-1.20538e-07
-2.65512e-07
-6.22914e-08
-1.00505e-07
-2.7051e-07
-5.84668e-08
-7.34532e-08
-2.74362e-07
-5.27672e-08
-5.47192e-08
-2.79079e-07
-4.83465e-08
-2.57325e-08
-2.82128e-07
-4.01795e-08
-1.29372e-08
-2.86589e-07
-3.82353e-08
2.11874e-08
-2.85994e-07
-3.4682e-08
2.34442e-08
-2.88539e-07
-4.85779e-08
6.88e-08
-2.8087e-07
-6.50789e-08
6.04699e-08
-2.81646e-07
-1.05137e-07
1.308e-07
-2.71024e-07
-1.41267e-07
1.03498e-07
-2.7563e-07
-1.81451e-07
1.90438e-07
-2.72812e-07
-1.90144e-07
1.23248e-07
-2.77652e-07
-1.99057e-07
2.10691e-07
-2.81264e-07
-1.81446e-07
6.5329e-08
-2.07324e-07
-2.56101e-07
2.37568e-07
-2.04086e-07
-4.82284e-07
7.45733e-08
6.50985e-08
-3.61354e-07
2.10962e-08
-2.98068e-07
-1.25641e-06
-7.74153e-07
4.90571e-07
-2.18892e-06
-1.47282e-06
5.9764e-07
-1.74765e-06
-1.76089e-06
3.4016e-07
-4.83631e-07
-2.47241e-06
-1.08697e-06
2.19307e-06
-7.17998e-06
-9.82944e-07
4.67552e-06
-1.35589e-05
5.88947e-07
2.16181e-06
1.05552e-05
-2.04067e-06
-4.47257e-06
1.03612e-05
8.72563e-07
-7.36408e-06
-2.20898e-06
1.89564e-06
-3.34628e-05
-3.18816e-05
-1.19984e-06
-7.85576e-05
-2.93592e-05
-2.90661e-07
-3.29462e-05
-2.14471e-05
2.14561e-06
1.4501e-05
-2.44719e-05
3.07787e-06
1.88828e-05
-1.99457e-05
-5.32667e-07
2.26407e-05
-1.58488e-05
-9.33047e-07
2.55787e-05
-1.2333e-05
-5.93973e-07
2.71057e-05
-8.12655e-06
-4.26685e-07
2.75381e-05
-4.25552e-06
-4.20668e-07
2.72354e-05
-6.22623e-07
-5.56939e-07
2.58791e-05
3.23735e-06
-8.40209e-07
2.36987e-05
5.99467e-06
-9.08212e-07
2.12586e-05
8.20864e-06
-1.07887e-06
1.83329e-05
9.88663e-06
-1.10361e-06
1.48719e-05
1.06704e-05
-3.96049e-07
1.14134e-05
1.12413e-05
-4.8099e-07
8.01612e-06
1.15061e-05
-1.12366e-06
5.78935e-06
9.95747e-06
-1.22931e-06
6.07177e-06
7.35917e-06
-2.70617e-06
7.5892e-06
6.63628e-06
-5.41558e-06
8.80146e-06
7.71954e-06
-6.43979e-06
9.58681e-06
8.78633e-06
-5.91839e-06
9.79992e-06
9.14915e-06
-4.59076e-06
9.47263e-06
8.82009e-06
-3.1924e-06
8.83294e-06
8.23602e-06
-2.18394e-06
7.99661e-06
7.62453e-06
-1.44335e-06
6.96264e-06
6.97465e-06
-8.86374e-07
5.73224e-06
6.20384e-06
-3.87015e-07
4.43971e-06
4.98009e-06
-9.84007e-08
3.8437e-06
2.85506e-06
-1.43731e-07
4.85151e-06
-5.46208e-07
-3.64827e-07
7.1322e-06
-3.48929e-06
-6.37273e-07
8.76198e-06
-4.0786e-06
4.68587e-07
8.72485e-06
-2.39604e-06
1.89465e-06
7.60211e-06
1.96281e-06
1.45175e-06
4.09024e-06
7.32237e-06
1.70855e-06
1.15653e-05
1.35261e-06
-3.48583e-06
-4.52831e-06
-1.05126e-07
-2.66151e-06
-4.71776e-06
-4.67714e-07
-2.48717e-06
-3.34037e-06
1.59845e-07
-1.90162e-06
-3.12026e-06
-1.48776e-07
-1.45928e-06
-2.14334e-06
-4.72602e-08
-8.2068e-07
-1.79521e-06
-1.41076e-07
-3.20057e-07
-7.38756e-07
-1.86319e-07
-2.13786e-07
-1.28348e-07
-5.66026e-08
-4.67942e-07
4.66536e-07
1.64736e-10
-7.19125e-07
4.1516e-07
-2.62632e-08
-8.43116e-07
2.41186e-07
-1.28865e-07
-8.98421e-07
1.11211e-07
-2.11502e-07
-8.76443e-07
-7.89312e-09
-2.78875e-07
-7.91807e-07
-1.22195e-07
-3.26927e-07
-6.7455e-07
-1.78094e-07
-3.5144e-07
-5.51595e-07
-1.96972e-07
-3.65224e-07
-4.43548e-07
-1.66907e-07
-3.71818e-07
-3.51919e-07
-1.39795e-07
-3.7688e-07
-2.73391e-07
-1.0937e-07
-3.79072e-07
-2.08627e-07
-7.98508e-08
-3.77598e-07
-1.57589e-07
-4.81498e-08
-3.73838e-07
-1.20182e-07
-1.69583e-08
-3.6894e-07
-9.5263e-08
1.4307e-08
-3.63789e-07
-7.98108e-08
4.42019e-08
-3.59499e-07
-7.15179e-08
7.32252e-08
-3.56917e-07
-6.8226e-08
1.00757e-07
-3.55724e-07
-6.81042e-08
1.26889e-07
-3.55578e-07
-6.95716e-08
1.51725e-07
-3.5607e-07
-7.15547e-08
1.75002e-07
-3.56868e-07
-7.33116e-08
1.9723e-07
-3.57602e-07
-7.40062e-08
2.17258e-07
-3.58958e-07
-7.41683e-08
2.39518e-07
-3.59865e-07
-7.28147e-08
2.60364e-07
-3.62193e-07
-7.19802e-08
2.89325e-07
-3.63585e-07
-6.87861e-08
3.08106e-07
-3.6599e-07
-6.70817e-08
3.38709e-07
-3.66118e-07
-6.54026e-08
3.51507e-07
-3.66093e-07
-7.06625e-08
3.8661e-07
-3.60134e-07
-8.19345e-08
3.91169e-07
-3.56422e-07
-1.0387e-07
4.3684e-07
-3.46076e-07
-1.29787e-07
4.31996e-07
-3.45578e-07
-1.55347e-07
4.95479e-07
-3.39089e-07
-1.63696e-07
4.6121e-07
-3.49331e-07
-1.63405e-07
5.31967e-07
-3.41789e-07
-1.19019e-07
4.22855e-07
-3.4396e-07
-1.23427e-07
5.20867e-07
-3.05737e-07
-2.09887e-07
3.4452e-07
-1.92697e-07
-3.91328e-07
5.48946e-07
-1.29905e-07
-8.02717e-07
3.53168e-07
1.32831e-07
-9.61219e-07
3.37441e-07
-1.57809e-07
-2.31159e-06
2.56665e-07
3.19586e-07
-3.41455e-06
-6.23162e-07
2.53339e-07
-1.48969e-06
-3.26072e-06
-4.2499e-07
1.01429e-06
-2.83409e-06
-2.14227e-06
2.96339e-06
-7.35387e-06
-1.77521e-06
1.06064e-07
-1.19666e-05
1.26502e-06
2.52524e-06
1.06607e-05
-2.52546e-06
-1.5377e-06
1.56513e-05
-1.22722e-06
-5.35973e-06
-7.10503e-06
8.15834e-06
-3.50386e-05
-3.48216e-05
-3.28792e-06
-8.63649e-05
-3.40907e-05
9.81303e-07
-3.84107e-05
-2.56621e-05
2.71598e-06
8.18377e-06
-2.83465e-05
1.67248e-06
1.0535e-05
-2.23515e-05
2.65439e-07
1.45459e-05
-2.10463e-05
9.7092e-07
1.64352e-05
-1.63971e-05
2.02728e-06
1.67793e-05
-1.0956e-05
2.15638e-06
1.67447e-05
-5.95651e-06
1.79688e-06
1.64623e-05
-1.35499e-06
1.02591e-06
1.59652e-05
3.67788e-06
1.0751e-07
1.42915e-05
7.9351e-06
-1.69268e-07
1.21962e-05
1.09362e-05
-4.74675e-07
1.02415e-05
1.32732e-05
-1.33018e-06
7.81594e-06
1.48278e-05
-1.71856e-06
5.13047e-06
1.53029e-05
-1.3967e-06
3.68976e-06
1.41442e-05
-1.16271e-06
3.82566e-06
1.25644e-05
-2.63548e-06
5.23508e-06
1.22302e-05
-6.33095e-06
6.55129e-06
1.31237e-05
-7.84303e-06
7.62781e-06
1.34964e-05
-6.79008e-06
8.04576e-06
1.32721e-05
-4.82574e-06
7.85047e-06
1.24138e-05
-3.04711e-06
7.25699e-06
1.11593e-05
-1.76072e-06
6.48401e-06
9.88387e-06
-9.16039e-07
5.53846e-06
8.84991e-06
-3.32379e-07
4.26491e-06
8.06863e-06
1.35622e-07
2.56148e-06
7.33797e-06
5.2603e-07
7.95373e-07
5.96008e-06
7.23255e-07
-1.27068e-07
3.30165e-06
4.00289e-07
6.00373e-07
-2.70155e-07
-1.07791e-06
3.12422e-06
-3.32189e-06
-2.72077e-06
5.89084e-06
-4.38886e-06
-2.47374e-06
6.66248e-06
-2.78574e-06
-3.46545e-07
6.29386e-06
1.64412e-06
7.00257e-07
2.86838e-06
9.19824e-06
1.74905e-06
1.4775e-05
1.10416e-06
-3.76646e-06
-4.46432e-06
-6.06206e-08
-2.93339e-06
-4.93279e-06
-6.18029e-07
-2.76629e-06
-3.56483e-06
5.73566e-08
-2.10206e-06
-3.46919e-06
-3.15314e-07
-1.75691e-06
-2.41261e-06
-7.58811e-08
-1.1317e-06
-2.24163e-06
-1.78806e-07
-5.95592e-07
-1.16827e-06
-1.0659e-07
-1.54906e-07
-5.08748e-07
-6.02807e-08
-8.76436e-08
4.23734e-07
-2.44431e-08
-3.4688e-07
6.68488e-07
5.92453e-09
-5.68729e-07
5.40877e-07
-7.78182e-08
-7.41246e-07
4.18161e-07
-1.34414e-07
-8.07998e-07
2.61446e-07
-2.0256e-07
-7.74182e-07
1.08153e-07
-2.64142e-07
-6.70005e-07
1.86932e-08
-3.00935e-07
-5.4567e-07
4.65826e-09
-3.2594e-07
-4.45114e-07
7.38276e-08
-3.41261e-07
-3.66004e-07
1.37412e-07
-3.5629e-07
-2.97646e-07
1.9377e-07
-3.71468e-07
-2.35666e-07
2.4032e-07
-3.82122e-07
-1.81491e-07
2.84182e-07
-3.86476e-07
-1.35583e-07
3.23526e-07
-3.86363e-07
-1.00394e-07
3.62409e-07
-3.8326e-07
-7.62794e-08
3.98924e-07
-3.78807e-07
-6.1374e-08
4.32004e-07
-3.73654e-07
-5.31604e-08
4.61307e-07
-3.68734e-07
-4.9718e-08
4.87546e-07
-3.6407e-07
-4.94233e-08
5.10956e-07
-3.59497e-07
-5.07136e-08
5.31371e-07
-3.5505e-07
-5.23417e-08
5.4951e-07
-3.50624e-07
-5.46458e-08
5.65842e-07
-3.46252e-07
-5.75807e-08
5.8436e-07
-3.41878e-07
-5.91648e-08
6.00595e-07
-3.3862e-07
-6.139e-08
6.26097e-07
-3.34518e-07
-6.18286e-08
6.39937e-07
-3.31365e-07
-6.56494e-08
6.68943e-07
-3.26385e-07
-7.15945e-08
6.77689e-07
-3.20211e-07
-8.57527e-08
7.12184e-07
-3.11387e-07
-1.07525e-07
7.15515e-07
-3.02547e-07
-1.34815e-07
7.57529e-07
-2.93371e-07
-1.64522e-07
7.52043e-07
-2.90314e-07
-1.85497e-07
8.00241e-07
-2.83759e-07
-1.96222e-07
7.5815e-07
-2.86188e-07
-2.02595e-07
8.04353e-07
-2.65986e-07
-2.28092e-07
6.86981e-07
-2.38603e-07
-2.91927e-07
7.61234e-07
-1.76503e-07
-6.09955e-07
6.91009e-07
-2.84348e-08
-9.65064e-07
8.59621e-07
4.44651e-08
-1.8267e-06
9.21124e-07
2.93705e-07
-2.43042e-06
7.15756e-07
2.25448e-07
-3.18624e-06
4.91315e-07
5.21196e-07
-2.89732e-06
-1.18612e-06
2.74079e-07
-1.31918e-06
-3.91333e-06
-9.25498e-07
8.14427e-07
-2.1875e-06
-2.78016e-06
2.96559e-06
-6.83174e-06
-2.67332e-06
-1.95317e-06
-7.07073e-06
2.29553e-08
5.8787e-06
3.19633e-06
-3.68161e-07
9.60049e-06
1.78785e-05
-5.94909e-06
-1.05066e-09
-9.4589e-06
1.1127e-05
-3.85847e-05
-3.26952e-05
-3.13159e-06
-0.000105387
-3.59113e-05
1.04051e-06
-0.000100443
-2.69464e-05
3.83855e-06
-9.825e-05
-2.97947e-05
1.66987e-06
-8.33568e-05
-2.38561e-05
2.82599e-06
-3.16707e-05
-2.38833e-05
3.56139e-06
-2.44443e-05
-1.62002e-05
3.48956e-06
-2.43586e-05
-1.06521e-05
2.44565e-06
4.45847e-06
-5.35929e-06
1.45276e-06
4.94814e-06
-3.02027e-07
3.92719e-07
5.45958e-06
5.12597e-06
-2.60751e-07
4.96338e-06
1.02325e-05
-4.24167e-07
3.39722e-06
1.3927e-05
-4.97455e-07
1.3897e-06
1.64192e-05
-6.57498e-07
-2.17256e-07
1.77617e-05
-1.28705e-06
-9.31604e-07
1.85817e-05
-3.22525e-06
-4.70724e-07
1.9212e-05
-5.93035e-06
8.31792e-07
1.98449e-05
-7.80766e-06
2.51879e-06
1.99558e-05
-7.90949e-06
3.95586e-06
1.90845e-05
-5.59831e-06
4.80515e-06
1.7568e-05
-3.5912e-06
5.14508e-06
1.5263e-05
-1.49915e-06
5.06262e-06
1.30752e-05
-1.34407e-06
4.67614e-06
1.12705e-05
-3.59235e-07
3.9618e-06
9.89857e-06
9.36646e-07
2.86883e-06
8.93923e-06
1.36885e-06
1.31082e-06
8.21919e-06
1.62119e-06
-7.00181e-07
7.28859e-06
1.40215e-06
-2.78954e-06
5.75161e-06
1.53324e-06
-4.18536e-06
3.92315e-06
3.39237e-07
-4.02951e-06
1.94129e-06
-2.4404e-06
-2.06606e-06
2.86369e-08
-4.64061e-06
1.49105e-06
-8.23227e-07
-6.1697e-06
4.01398e-06
-5.94225e-07
-4.7296e-06
4.44205e-06
2.9875e-06
-1.68531e-06
2.4289e-06
1.06487e-05
8.35852e-07
1.82633e-05
3.79744e-07
-3.8908e-06
-4.0258e-06
-2.11162e-07
-2.97662e-06
-4.91049e-06
-9.36488e-07
-2.96005e-06
-3.47213e-06
-1.09293e-07
-2.22129e-06
-3.66177e-06
-5.46203e-07
-1.85744e-06
-2.58162e-06
-1.94855e-07
-1.23495e-06
-2.5313e-06
-3.3282e-07
-8.12609e-07
-1.42595e-06
-1.6467e-07
-2.95535e-07
-8.85675e-07
-1.4013e-07
1.08667e-07
1.33286e-07
-1.13742e-07
6.24944e-08
7.36052e-07
-2.13675e-08
-1.52857e-07
8.26609e-07
-7.03632e-08
-4.50829e-07
8.11008e-07
-9.48484e-08
-6.38629e-07
6.09895e-07
-1.60629e-07
-6.61249e-07
3.62758e-07
-2.31957e-07
-5.88578e-07
2.38101e-07
-2.92057e-07
-4.8004e-07
2.24934e-07
-3.28785e-07
-3.94328e-07
3.29006e-07
-3.40866e-07
-3.3675e-07
4.3242e-07
-3.52556e-07
-2.9098e-07
5.14347e-07
-3.6632e-07
-2.49874e-07
5.75878e-07
-3.76635e-07
-2.11451e-07
6.27144e-07
-3.81358e-07
-1.75704e-07
6.68991e-07
-3.81183e-07
-1.4376e-07
7.07172e-07
-3.7668e-07
-1.1859e-07
7.42657e-07
-3.68875e-07
-1.00023e-07
7.72885e-07
-3.59421e-07
-8.85539e-08
7.99367e-07
-3.49502e-07
-8.33947e-08
8.21637e-07
-3.39224e-07
-8.27196e-08
8.3943e-07
-3.29123e-07
-8.51526e-08
8.53254e-07
-3.19423e-07
-8.87075e-08
8.63275e-07
-3.10185e-07
-9.20431e-08
8.70622e-07
-3.01419e-07
-9.48474e-08
8.80556e-07
-2.93368e-07
-9.79065e-08
8.90468e-07
-2.86788e-07
-1.0268e-07
9.10409e-07
-2.79517e-07
-1.09973e-07
9.20437e-07
-2.73183e-07
-1.22718e-07
9.47141e-07
-2.6543e-07
-1.41167e-07
9.54036e-07
-2.57873e-07
-1.6351e-07
9.8412e-07
-2.49572e-07
-1.91307e-07
9.86177e-07
-2.42842e-07
-2.13136e-07
1.01642e-06
-2.37038e-07
-2.3437e-07
1.00765e-06
-2.34346e-07
-2.4178e-07
1.03497e-06
-2.27298e-07
-2.53005e-07
9.92198e-07
-2.22802e-07
-2.70671e-07
1.02208e-06
-2.00039e-07
-3.56732e-07
9.40085e-07
-1.67023e-07
-4.52385e-07
9.83496e-07
-1.26592e-07
-7.42716e-07
1.01258e-06
-3.1215e-08
-9.74515e-07
1.11013e-06
-1.86954e-08
-1.48244e-06
1.38343e-06
4.56411e-08
-1.85249e-06
9.5602e-07
1.29812e-07
-1.5727e-06
2.66037e-08
1.84951e-07
-4.4762e-07
-2.41088e-06
9.97033e-08
1.10201e-06
-4.30258e-06
-1.16035e-06
5.06119e-06
-2.68084e-06
-3.46584e-06
7.8899e-06
-6.5536e-06
-3.10691e-06
1.09805e-05
-6.5489e-06
-3.61244e-06
1.47251e-05
-7.95415e-07
2.46739e-07
1.70871e-05
2.37273e-05
-8.21081e-06
5.45319e-06
-9.41905e-06
1.01683e-05
-4.28144e-05
-2.63501e-05
-1.84131e-06
-0.000114234
-3.37491e-05
9.03753e-07
-0.000107566
-2.62913e-05
3.86872e-06
-0.000108715
-3.15143e-05
4.9064e-07
-0.000112251
-2.61919e-05
2.17149e-06
-0.000111533
-2.59554e-05
3.10146e-06
-0.000114109
-1.68764e-05
2.67199e-06
-0.00011706
-1.19292e-05
1.53818e-06
-0.000118302
-4.94301e-06
6.50499e-07
-0.000116929
1.08091e-06
9.43608e-09
-0.000115381
7.26179e-06
-1.37698e-07
-0.000114627
1.24504e-05
-4.29081e-07
-0.00011445
1.66523e-05
-1.63652e-06
-0.000114083
1.98011e-05
-3.26071e-06
-0.000113037
2.22058e-05
-5.59621e-06
-0.000110869
2.38072e-05
-7.17008e-06
-0.00010972
2.45199e-05
-7.76614e-06
-0.000107424
2.38858e-05
-6.65359e-06
-0.000104729
2.20657e-05
-4.68117e-06
-0.000106255
1.97137e-05
-1.87053e-06
-0.000107576
1.61662e-05
-1.46645e-07
-0.000108653
1.32861e-05
8.74298e-07
-0.000110322
1.13463e-05
1.59882e-06
-0.000111655
9.8963e-06
1.93695e-06
-0.00011337
8.84292e-06
2.00908e-06
-0.000115253
8.2877e-06
2.02563e-06
-0.000117365
7.63536e-06
1.9778e-06
-0.000120517
7.02912e-06
1.59898e-06
-0.000123357
6.15127e-06
7.94498e-07
-0.000122574
5.28524e-06
-1.34319e-06
-0.000110605
4.30287e-06
-3.3528e-06
-7.5173e-05
3.52441e-06
-5.78719e-06
-2.67824e-05
3.27104e-06
-7.94862e-06
1.28328e-06
5.16219e-06
-7.95573e-06
3.32122e-06
6.96827e-06
-5.98903e-06
1.05178e-06
1.43506e-05
-1.18675e-06
2.14217e-05
-5.48144e-07
-3.94377e-06
-3.35203e-06
-2.07403e-08
-3.00585e-06
-4.71564e-06
-1.13277e-06
-3.09024e-06
-3.06965e-06
-3.181e-07
-2.30038e-06
-3.64961e-06
-8.02043e-07
-1.85041e-06
-2.60393e-06
-4.27682e-07
-1.03687e-06
-2.68448e-06
-6.60361e-07
-6.11894e-07
-1.35074e-06
-5.00171e-07
-3.37445e-07
-8.69215e-07
-2.90901e-07
6.82469e-08
9.17886e-09
-2.81563e-07
2.15071e-07
7.45796e-07
-1.56554e-07
1.27281e-07
1.06769e-06
-1.53267e-07
-2.29608e-07
1.23942e-06
-7.15069e-08
-4.8019e-07
9.8111e-07
-1.20608e-07
-5.32774e-07
6.31768e-07
-2.16405e-07
-4.91276e-07
4.89122e-07
-2.92493e-07
-4.05005e-07
4.75077e-07
-3.36394e-07
-3.34294e-07
6.01306e-07
-3.42985e-07
-2.92003e-07
7.33984e-07
-3.43834e-07
-2.68027e-07
8.36462e-07
-3.46066e-07
-2.54498e-07
9.09597e-07
-3.47227e-07
-2.45645e-07
9.64674e-07
-3.46358e-07
-2.36726e-07
1.00361e-06
-3.43515e-07
-2.26539e-07
1.03437e-06
-3.37356e-07
-2.17763e-07
1.06134e-06
-3.27434e-07
-2.10354e-07
1.08183e-06
-3.16335e-07
-2.0524e-07
1.09729e-06
-3.03014e-07
-2.03398e-07
1.11039e-06
-2.90575e-07
-2.04704e-07
1.11875e-06
-2.77989e-07
-2.08783e-07
1.12381e-06
-2.66459e-07
-2.13583e-07
1.12483e-06
-2.56729e-07
-2.1704e-07
1.12278e-06
-2.48677e-07
-2.18205e-07
1.12332e-06
-2.41574e-07
-2.2217e-07
1.1291e-06
-2.34646e-07
-2.29511e-07
1.14486e-06
-2.27091e-07
-2.45377e-07
1.15562e-06
-2.19301e-07
-2.67109e-07
1.18009e-06
-2.112e-07
-2.97713e-07
1.18815e-06
-2.03496e-07
-3.27233e-07
1.21094e-06
-1.97285e-07
-3.59261e-07
1.21007e-06
-1.91853e-07
-3.75491e-07
1.22147e-06
-1.88808e-07
-3.87258e-07
1.20362e-06
-1.84197e-07
-3.76956e-07
1.20309e-06
-1.78409e-07
-3.79712e-07
1.15772e-06
-1.62753e-07
-3.85783e-07
1.17504e-06
-1.4688e-07
-4.69654e-07
1.12956e-06
-1.05593e-07
-5.19896e-07
1.13474e-06
-1.00993e-07
-6.35979e-07
1.18339e-06
-5.47275e-08
-5.91119e-07
1.16933e-06
-1.04051e-07
-3.20632e-07
1.30479e-06
-1.91838e-07
1.27038e-08
7.50221e-07
-1.27522e-07
3.75017e-07
-3.58819e-07
2.31179e-08
1.04628e-06
-2.84871e-06
-2.33424e-07
2.61453e-06
-5.20492e-06
-6.65902e-07
5.96205e-06
-3.01693e-06
-3.01143e-06
5.27691e-06
-1.99364e-06
-3.87497e-06
6.13428e-06
-1.5095e-06
-5.89678e-06
1.20894e-05
1.72386e-07
-6.92308e-06
2.03819e-05
2.43967e-05
-8.962e-06
4.16203e-06
-1.28731e-05
1.69216e-05
-5.58098e-05
-1.82093e-05
-6.20048e-07
-0.000130573
-2.79059e-05
6.9789e-07
-0.000113649
-2.4013e-05
3.16455e-06
-0.000112285
-2.88801e-05
-3.47768e-07
-0.000110324
-2.68898e-05
3.06123e-07
-0.000101886
-2.5815e-05
1.38328e-06
-0.000104136
-2.02669e-05
9.22647e-07
-0.000116246
-1.48285e-05
8.32282e-07
-0.000132964
-6.37435e-06
-7.66528e-07
-0.000134521
1.78824e-06
-1.63625e-06
-0.000135745
8.80458e-06
-2.79296e-06
-0.0001358
1.46436e-05
-4.04601e-06
-0.000132604
2.05776e-05
-5.33045e-06
-0.000132393
2.41543e-05
-6.60038e-06
-0.000131308
2.67853e-05
-7.24331e-06
-0.00012775
2.78639e-05
-6.89552e-06
-0.000126632
2.74489e-05
-4.87634e-06
-0.000126367
2.51662e-05
-2.57964e-06
-0.000124167
2.26428e-05
-1.47843e-07
-0.0001238
2.00523e-05
1.34914e-06
-0.000127225
1.52175e-05
2.4216e-06
-0.000127575
1.24608e-05
2.99856e-06
-0.000129009
1.06817e-05
3.1313e-06
-0.000130228
9.06555e-06
3.12852e-06
-0.00012948
7.75517e-06
3.13811e-06
-0.000130387
7.12458e-06
3.2169e-06
-0.00013593
6.52197e-06
3.17381e-06
-0.000138495
6.49771e-06
2.91544e-06
-0.000139396
6.40694e-06
2.15907e-06
-0.000137548
6.24623e-06
4.29639e-07
-0.000136388
6.23981e-06
-1.27554e-06
-0.000134353
6.89094e-06
-5.14609e-06
-0.000111508
7.98521e-06
-7.44087e-06
-4.84266e-05
1.06825e-05
-9.72401e-06
1.63995e-06
1.4278e-05
-8.52562e-06
1.26139e-06
2.25152e-05
-4.52966e-06
2.69614e-05
-2.66281e-06
-3.77591e-06
-2.48199e-06
4.5584e-07
-2.89611e-06
-4.31246e-06
-1.28299e-06
-3.09544e-06
-2.48859e-06
-3.81749e-07
-2.33129e-06
-3.50834e-06
-9.05443e-07
-1.8364e-06
-2.55403e-06
-5.44805e-07
-8.32342e-07
-2.76651e-06
-9.22032e-07
-2.29628e-07
-1.25877e-06
-6.94685e-07
-1.82726e-07
-5.65753e-07
-3.50345e-07
-7.20223e-08
2.95781e-07
-3.97293e-07
5.08632e-08
8.7529e-07
-2.52356e-07
1.91091e-07
1.19586e-06
-2.68382e-07
1.0713e-07
1.49282e-06
-1.69418e-07
-1.30871e-09
1.33378e-06
-2.44213e-07
-9.57602e-08
1.05159e-06
-3.25344e-07
-1.7013e-07
9.68153e-07
-4.04644e-07
-2.3455e-07
1.00503e-06
-4.65507e-07
-2.85044e-07
1.14272e-06
-4.90907e-07
-3.28888e-07
1.28169e-06
-5.03839e-07
-3.54126e-07
1.37174e-06
-5.10018e-07
-3.68317e-07
1.43546e-06
-5.11654e-07
-3.77785e-07
1.48506e-06
-5.10898e-07
-3.81913e-07
1.51747e-06
-5.09714e-07
-3.80925e-07
1.54018e-06
-5.06784e-07
-3.76568e-07
1.55881e-06
-5.01805e-07
-3.71749e-07
1.57264e-06
-4.95604e-07
-3.68489e-07
1.58295e-06
-4.88906e-07
-3.67613e-07
1.59112e-06
-4.81584e-07
-3.68489e-07
1.59498e-06
-4.75344e-07
-3.70557e-07
1.5954e-06
-4.69501e-07
-3.7185e-07
1.59099e-06
-4.64856e-07
-3.71242e-07
1.58386e-06
-4.61677e-07
-3.70534e-07
1.58178e-06
-4.59161e-07
-3.76768e-07
1.59037e-06
-4.55026e-07
-3.89088e-07
1.60706e-06
-4.49866e-07
-4.13086e-07
1.62355e-06
-4.43919e-07
-4.42988e-07
1.64784e-06
-4.37835e-07
-4.82808e-07
1.6608e-06
-4.32821e-07
-5.14821e-07
1.67306e-06
-4.30097e-07
-5.42546e-07
1.66624e-06
-4.2843e-07
-5.50493e-07
1.65825e-06
-4.28823e-07
-5.53904e-07
1.63482e-06
-4.27781e-07
-5.38342e-07
1.61563e-06
-4.28103e-07
-5.52063e-07
1.58694e-06
-4.15509e-07
-5.63139e-07
1.59188e-06
-4.05769e-07
-6.58541e-07
1.58136e-06
-3.56404e-07
-6.81459e-07
1.525e-06
-3.67344e-07
-6.93524e-07
1.52322e-06
-3.2777e-07
-5.21691e-07
1.37693e-06
-3.79437e-07
7.38612e-08
1.28429e-06
-5.75055e-07
5.59106e-07
6.57234e-07
-3.92263e-07
8.01847e-07
-3.36291e-07
-2.65267e-07
1.27545e-06
-2.6955e-06
-6.26822e-07
2.80172e-06
-5.84964e-06
-8.8155e-07
6.4377e-06
-3.48539e-06
-3.16757e-06
3.7029e-06
5.82023e-06
-5.07923e-06
1.2846e-06
1.09075e-05
-9.99877e-06
9.65789e-06
8.43669e-06
-1.66377e-05
2.60886e-05
1.98116e-05
-1.18455e-05
-2.58072e-06
-1.45644e-05
2.60626e-05
-7.39016e-05
-1.00305e-05
-1.00896e-06
-0.000160396
-1.5802e-05
1.8352e-06
-0.000163128
-1.73864e-05
1.80911e-06
-0.000160327
-2.15349e-05
-2.47527e-06
-0.000150484
-2.21436e-05
-3.14409e-06
-0.000130446
-2.04166e-05
-2.47249e-06
-0.000118935
-1.75367e-05
-3.20039e-06
-0.000129364
-1.16488e-05
-2.65672e-06
-0.000149775
-3.85151e-06
-3.34837e-06
-0.000168253
4.47876e-06
-3.72131e-06
-0.00016892
1.12467e-05
-4.46281e-06
-0.00016649
1.77077e-05
-4.6314e-06
-0.000170705
2.2414e-05
-4.72139e-06
-0.000167698
2.58127e-05
-4.0902e-06
-0.000163567
2.76574e-05
-2.31506e-06
-0.000159689
2.76833e-05
-1.35677e-07
-0.00016027
2.61046e-05
2.39563e-06
-0.000167978
2.37369e-05
5.24105e-06
-0.000169365
2.18845e-05
6.8453e-06
-0.000173296
1.99403e-05
8.24745e-06
-0.000184929
1.57547e-05
8.92498e-06
-0.00019142
1.24632e-05
8.51774e-06
-0.000195121
9.02049e-06
7.99578e-06
-0.000198364
5.74779e-06
7.44201e-06
-0.000200494
2.99594e-06
7.22517e-06
-0.000201758
1.77468e-06
7.32358e-06
-0.000202661
1.24173e-06
7.16506e-06
-0.000203622
1.43763e-06
6.71928e-06
-0.000206061
2.25091e-06
5.5017e-06
-0.000205049
3.16228e-06
3.54663e-06
-0.000201832
5.15221e-06
1.95723e-07
-0.000198745
8.13282e-06
-4.20748e-06
-0.00019557
1.04984e-05
-7.90914e-06
-0.000184045
1.39477e-05
-1.0954e-05
-0.000169888
1.75182e-05
-1.14134e-05
-0.000156559
2.16465e-05
-9.10364e-06
2.17254e-05
-4.57318e-06
-3.53199e-06
-5.34756e-07
1.67454e-06
-2.63489e-06
-3.82601e-06
-1.38356e-06
-2.87017e-06
-1.98349e-06
-2.69842e-07
-2.20237e-06
-3.31614e-06
-8.60033e-07
-1.71323e-06
-2.42914e-06
-6.14028e-07
-7.11461e-07
-2.7671e-06
-1.00118e-06
1.95294e-08
-1.35373e-06
-6.36024e-07
-5.46385e-08
-4.05659e-07
-8.59147e-08
-1.52432e-07
4.6206e-07
-6.84669e-08
-5.75546e-08
7.67552e-07
1.28779e-08
2.01664e-07
1.103e-06
-1.66338e-07
3.32853e-07
1.33094e-06