/*--------------------------------*- C++ -*----------------------------------*\
| =========                 |                                                 |
| \\      /  F ield         | OpenFOAM: The Open Source CFD Toolbox           |
|  \\    /   O peration     | Version:  2.3.0                                 |
|   \\  /    A nd           | Web:      www.OpenFOAM.org                      |
|    \\/     M anipulation  |                                                 |
\*---------------------------------------------------------------------------*/
FoamFile
{
    version     2.0;
    format      ascii;
    class       volVectorField;
    location    "30";
    object      U;
}
// * * * * * * * * * * * * * * * * * * * * * * * * * * * * * * * * * * * * * //

dimensions      [0 1 -1 0 0 0 0];

internalField   nonuniform List<vector> 
6144
(
(0.0109657 0.018812 0.000614161)
(0.0105938 -0.00689517 -0.000986667)
(0.00449738 -0.00645045 -0.00273898)
(0.00408871 -0.00549894 -0.00250379)
(0.00249197 -0.0041182 -0.00227998)
(0.00294459 -0.00131271 -0.00217256)
(0.00241049 -0.000433113 -0.0015022)
(0.00243249 0.00107573 -0.000723787)
(0.00187759 0.000965526 -0.000129658)
(0.0015447 0.00225975 0.00036732)
(0.00126538 0.00314089 0.000782682)
(0.00130478 0.00383362 0.00118256)
(0.00146997 0.00387649 0.00135137)
(0.00164435 0.0033797 0.00163853)
(0.00176664 0.00252881 0.00156508)
(0.00187472 0.00169093 0.00141271)
(0.00193915 0.00090903 0.00112127)
(0.00200671 0.000344084 0.000857568)
(0.00206627 -6.57001e-05 0.000571661)
(0.00211612 -0.000275305 0.000335282)
(0.00214319 -0.000385761 0.000186483)
(0.00215408 -0.00038619 0.000107461)
(0.0021487 -0.000341325 7.96303e-05)
(0.00213065 -0.000258327 9.33696e-05)
(0.00210156 -0.000164247 0.000138192)
(0.00206491 -6.66143e-05 0.000208204)
(0.00202002 2.33279e-05 0.000307976)
(0.00196793 0.000104814 0.000436671)
(0.00191534 0.000175577 0.000573627)
(0.00186515 0.000220562 0.000708626)
(0.00180978 0.000224606 0.000852486)
(0.00174565 0.000189417 0.000997635)
(0.00166948 0.000128826 0.00114318)
(0.00158481 5.18109e-05 0.00130633)
(0.00150211 -6.89445e-05 0.00150882)
(0.00143083 -0.000298125 0.00175033)
(0.00137736 -0.000687645 0.00198084)
(0.0013488 -0.00120943 0.00209867)
(0.00134011 -0.00174899 0.00203636)
(0.00133225 -0.00217915 0.00177266)
(0.00130912 -0.00225342 0.00130904)
(0.00125661 -0.00176369 0.000642179)
(0.00112348 -0.000447279 -3.7594e-05)
(0.00100615 0.00179488 -0.000556519)
(0.00123405 0.00424105 -0.000937725)
(0.00219028 0.00587718 -0.00156815)
(0.00437501 0.00786448 -0.00329416)
(0.00783912 0.00946288 -0.0064342)
(0.00621211 0.0128727 -0.00874638)
(0.00354813 0.0229139 -0.00847265)
(0.0226215 0.0227751 -0.0134315)
(0.0302679 0.00981076 -0.0203289)
(0.0419437 0.0148778 -0.0350096)
(0.060669 -0.011351 -0.0370905)
(0.0612457 -0.0207629 -0.0389817)
(0.0697711 -0.0793301 -0.026682)
(0.0180097 -0.0203856 -0.0210257)
(-0.00757732 -0.117763 0.0402223)
(-0.0571033 0.0265411 -0.0625439)
(0.0257484 0.101246 0.0459388)
(0.121212 -0.271997 0.0808286)
(0.0853927 -0.11563 0.0415057)
(0.0473839 -0.185011 0.0133029)
(0.0457358 -0.181969 0.0107699)
(0.0389128 -0.183389 0.0122557)
(0.036154 -0.177791 0.0110541)
(0.029434 -0.175434 0.00890019)
(0.0237124 -0.171614 0.0144356)
(0.0186518 -0.166433 0.0171054)
(0.0144581 -0.158945 0.0185592)
(0.011775 -0.145986 0.0179435)
(0.00794679 -0.140472 0.0172589)
(0.0062898 -0.129542 0.015174)
(0.00232167 -0.124878 0.0176935)
(-0.000201622 -0.113748 0.0149316)
(-0.00704069 -0.0897983 0.0127006)
(-0.0109703 -0.0557412 0.00462086)
(-0.0263725 -0.0129394 -0.00188447)
(-0.022257 0.0129063 -0.000526369)
(0.00375852 0.0184461 -0.00100897)
(0.0147701 0.0120865 -0.00527399)
(0.0163139 0.00515818 -0.0101635)
(0.0179979 -0.00159432 -0.0140633)
(0.0125962 -0.00598521 -0.015449)
(-0.00348038 0.000693207 -0.0058893)
(-0.0049699 0.0364224 -0.00701361)
(0.00247423 0.0511143 -0.00439371)
(0.00541867 0.0571947 -0.00817353)
(0.00300554 0.0629916 -0.0135888)
(-0.00359996 0.08113 -0.00367591)
(-0.0050726 0.104886 0.0245951)
(-0.00739563 0.109642 0.041354)
(-0.00935128 0.115787 0.0452319)
(-0.00469944 0.106054 0.0599136)
(-0.00375558 0.0716717 0.070817)
(-0.0103381 0.0251238 0.0800304)
(0.0217139 0.0183759 0.00363081)
(0.0230369 0.00319592 0.00260207)
(0.00973327 0.000755049 -0.00137203)
(0.0099323 0.0013832 -0.000987071)
(0.00585532 -0.000723926 4.11541e-05)
(0.00552269 0.000606674 0.0012862)
(0.00364719 -0.000724728 0.00233692)
(0.00338364 0.00104248 0.0024764)
(0.00247431 0.00139241 0.00258136)
(0.00191187 0.00355728 0.00282283)
(0.001653 0.00447335 0.0032663)
(0.00195911 0.00515419 0.0037782)
(0.00245059 0.00500236 0.00403418)
(0.00297096 0.00449009 0.0042294)
(0.00323931 0.0035579 0.00423333)
(0.00343984 0.00264717 0.00420312)
(0.003495 0.00172513 0.00411601)
(0.00356333 0.00102632 0.00403693)
(0.00360748 0.000468268 0.00395064)
(0.00366771 0.000143513 0.00382585)
(0.00369585 -6.15888e-05 0.00373782)
(0.00368739 -0.000135994 0.00370375)
(0.00364894 -0.000146454 0.00371504)
(0.00358549 -9.78046e-05 0.00376405)
(0.00350418 -2.54092e-05 0.00384068)
(0.00340849 6.1434e-05 0.00393908)
(0.00329948 0.000146935 0.00405384)
(0.00317864 0.000227937 0.00418124)
(0.00306138 0.000294169 0.00429333)
(0.00296799 0.000326305 0.00437547)
(0.00287684 0.000307547 0.00446141)
(0.00277499 0.000241391 0.00454414)
(0.0026549 0.000140183 0.00462373)
(0.00253381 1.63869e-05 0.00470614)
(0.0024437 -0.000145553 0.00479707)
(0.00241249 -0.000386904 0.0048961)
(0.00243957 -0.000718319 0.0049753)
(0.00248411 -0.00111473 0.00501853)
(0.00249728 -0.00148777 0.00500672)
(0.0024113 -0.00172506 0.00494954)
(0.00215584 -0.00167249 0.00485083)
(0.00174983 -0.00116902 0.00453845)
(0.00125813 -0.000100026 0.00386656)
(0.00113728 0.00116722 0.0034013)
(0.00213336 0.00148866 0.00297676)
(0.00389335 0.000602095 0.00170249)
(0.00569633 0.00155568 -0.000686596)
(0.00969412 0.00711939 -0.00459508)
(0.0108458 0.0229586 -0.00619218)
(0.015026 0.0303764 -0.0013063)
(0.0325856 0.0178157 -0.00209237)
(0.0415481 0.0211254 -0.0109088)
(0.0780847 0.0384804 -0.0213028)
(0.120711 0.0388334 -0.0213985)
(0.120465 0.0449241 -0.0177654)
(0.0794463 -0.0116804 -0.00080428)
(0.0601294 0.0928404 0.0295392)
(0.0117148 -0.156441 0.0832249)
(-0.107744 0.0322307 -0.0582238)
(0.0158001 0.0455618 0.0212082)
(0.146994 -0.258341 0.114314)
(0.0789986 0.0290144 0.0300845)
(-0.00252568 -0.0923262 0.00462506)
(0.0140515 0.04023 -0.000698897)
(0.00370688 0.00520114 0.00344299)
(0.00779252 0.0488203 0.00339993)
(0.00713479 0.0554476 -0.00369703)
(0.00558361 0.0731038 -0.00887702)
(0.00755008 0.0850685 -0.0200863)
(0.00685513 0.0980832 -0.0212427)
(0.00883736 0.108119 -0.0153356)
(0.0100339 0.111217 -0.0116537)
(0.00761421 0.105992 -0.00575886)
(-0.00675181 0.0791033 -0.00865177)
(-0.019119 0.0586929 -0.0178128)
(-0.0290393 0.0527147 -0.0164269)
(-0.0298854 0.0514893 -0.011765)
(-0.00792883 0.0528961 -0.00912933)
(0.0225622 0.0505884 -0.00452626)
(0.0340113 0.0395123 -0.00112798)
(0.0434503 0.0387792 0.000302076)
(0.0472457 0.0304543 -0.000605105)
(0.0432563 0.0220016 -0.0024444)
(0.0292258 0.0150819 -0.0083071)
(-0.00166301 0.0058083 -0.0219833)
(-0.012351 0.0145265 -0.0294597)
(-0.00214523 0.0338629 -0.0185982)
(0.0104157 0.0432049 -0.00736474)
(0.0144458 0.0548071 -0.00952268)
(0.00366715 0.0643912 -0.011217)
(-0.00869313 0.0840543 0.0117411)
(-0.0124079 0.0953921 0.0348428)
(-0.017703 0.0967544 0.0484741)
(-0.0162329 0.0822828 0.0618655)
(-0.0168591 0.0604868 0.0793053)
(-0.0226546 0.0253739 0.0936897)
(0.0249638 0.0195447 0.00494187)
(0.0264347 0.0104605 0.00514369)
(0.0139875 0.00564729 0.00252666)
(0.0126363 0.00623291 0.00289824)
(0.00702897 0.00296063 0.00360257)
(0.00561657 0.00328665 0.0039376)
(0.00262534 0.000345492 0.00402036)
(0.0018025 0.00125491 0.00359658)
(0.000326965 0.0016827 0.00345157)
(0.000152856 0.00375244 0.00372038)
(0.000125562 0.00434963 0.00412643)
(0.000739949 0.00501528 0.00458163)
(0.00133599 0.0048323 0.0047925)
(0.00198594 0.00461742 0.00493224)
(0.00239313 0.00396302 0.00489502)
(0.00270216 0.0033052 0.0048601)
(0.00277864 0.00254115 0.00480738)
(0.00284181 0.00192747 0.00477742)
(0.00283117 0.00135444 0.00475836)
(0.00278775 0.00093453 0.00476293)
(0.00271831 0.000613454 0.00478823)
(0.00263512 0.000413456 0.00482837)
(0.00253599 0.000289469 0.00487695)
(0.00242552 0.000240713 0.00493438)
(0.00230881 0.000233046 0.00499801)
(0.00218685 0.000252533 0.00506406)
(0.00205876 0.000277011 0.00513198)
(0.00192645 0.000293854 0.0052028)
(0.00179202 0.000286996 0.0052784)
(0.0016639 0.000253009 0.00536239)
(0.00153934 0.000191575 0.00544609)
(0.00139554 0.000101762 0.0055247)
(0.00122079 -6.84359e-06 0.00560115)
(0.00103615 -0.000132119 0.00567531)
(0.000895534 -0.000262765 0.00574734)
(0.000831735 -0.000377253 0.00580968)
(0.000825747 -0.000428491 0.00584693)
(0.000843137 -0.000398415 0.00585794)
(0.000805915 -0.000260074 0.00584713)
(0.000680351 1.03429e-06 0.00584453)
(0.000423974 0.000369773 0.0058381)
(3.74716e-07 0.000800248 0.00579096)
(-0.000447941 0.00121592 0.00566933)
(-0.000256571 0.00117192 0.00551257)
(0.000932645 0.000243987 0.0054293)
(0.0025584 -0.000422612 0.00484739)
(0.00452217 0.000509724 0.00343706)
(0.00801753 0.00149849 0.000209197)
(0.00916085 0.0122516 0.000293614)
(0.0163293 0.0142192 0.00721656)
(0.0339037 0.00975772 0.00357613)
(0.0430676 0.0274595 0.00169106)
(0.0968446 0.041359 -0.0139182)
(0.162565 0.0768875 -0.0223773)
(0.166444 0.100802 -0.0205843)
(0.140106 0.0750052 0.02215)
(0.117275 0.104499 0.0494468)
(0.079263 -0.154089 0.10021)
(-0.16921 0.0775803 -0.026477)
(0.0402268 0.0103432 -0.00370066)
(0.165811 -0.245588 0.119799)
(0.0899324 0.0912435 0.0180779)
(0.0495939 -0.0640543 -0.0339279)
(0.0291679 0.0892345 -0.0322599)
(0.0433577 0.057244 -0.0237276)
(0.0334621 0.103464 -0.0239787)
(0.0273405 0.116069 -0.0270508)
(0.0250423 0.132819 -0.021156)
(0.032913 0.142548 -0.0156324)
(0.0342945 0.151308 -0.0142852)
(0.0327839 0.156782 -0.00910408)
(0.033905 0.158444 -0.00213084)
(0.0380348 0.152615 0.0021008)
(0.0360032 0.14134 -0.00215552)
(0.0267959 0.126452 -0.00797127)
(0.0196299 0.107579 -0.00403273)
(0.0184291 0.0869582 0.00256135)
(0.0263084 0.07093 0.0104996)
(0.0398063 0.0613954 0.014592)
(0.0465672 0.0528331 0.0135054)
(0.0524522 0.0403464 0.0118184)
(0.0526902 0.0334689 0.00998727)
(0.0469694 0.0196406 0.00932371)
(0.037567 0.00699287 0.0105237)
(0.0213616 -0.00885423 0.00974489)
(0.00363442 -0.0308831 -0.00278472)
(-0.00912675 -0.0234303 -0.0159926)
(-0.0138487 -0.0119856 -0.0122098)
(-0.00848709 0.00980488 -0.0112115)
(-0.00865711 0.0407464 -0.0183587)
(-0.0185693 0.0552118 0.000434105)
(-0.0205173 0.0706639 0.0319859)
(-0.0235719 0.0717984 0.0495555)
(-0.0289324 0.0571373 0.0645161)
(-0.0386334 0.0442925 0.0793542)
(-0.0560637 0.0212907 0.0915679)
(0.0259533 0.0195383 0.00522035)
(0.0290511 0.0143127 0.00598608)
(0.0153565 0.0072926 0.0030505)
(0.0141336 0.00885053 0.00310792)
(0.00716457 0.00441566 0.00428054)
(0.00672782 0.00540121 0.00442277)
(0.00253995 0.000943672 0.00475717)
(0.000942231 0.00130019 0.00391604)
(-0.00124097 0.000412134 0.00372813)
(-0.00127284 0.0022191 0.00386935)
(-0.00136343 0.00268505 0.00437006)
(-0.000745401 0.00388882 0.00497547)
(-0.000141983 0.00420351 0.00515273)
(0.000569802 0.00442001 0.00527995)
(0.00103531 0.00400916 0.00518585)
(0.00136443 0.00353316 0.00514335)
(0.00142508 0.00288327 0.00510584)
(0.00147315 0.00237803 0.00510477)
(0.00145677 0.00186405 0.00509582)
(0.00140019 0.00143619 0.00509079)
(0.00130156 0.00105789 0.00509504)
(0.00117521 0.000775998 0.00511233)
(0.00102947 0.000563523 0.00514141)
(0.000875818 0.000428344 0.0051827)
(0.00072531 0.000347454 0.00523449)
(0.000582501 0.000305251 0.0052957)
(0.000444605 0.00028016 0.00536322)
(0.000312977 0.000260758 0.00543503)
(0.000191771 0.000233981 0.005509)
(8.59088e-05 0.000192348 0.00558449)
(-1.19264e-05 0.000136012 0.00565442)
(-0.000120987 7.29413e-05 0.00571792)
(-0.000247374 1.31538e-05 0.00578041)
(-0.000369993 -3.59868e-05 0.00583549)
(-0.000457122 -6.32188e-05 0.00586715)
(-0.000508628 -4.06183e-05 0.00585365)
(-0.000535369 7.13523e-05 0.0057976)
(-0.000558416 0.000267168 0.0057375)
(-0.000638258 0.000525064 0.00571251)
(-0.000815314 0.000821805 0.00576977)
(-0.00112005 0.00117811 0.00586952)
(-0.00147958 0.00154342 0.0059278)
(-0.0016512 0.00179055 0.00592631)
(-0.00124312 0.00156029 0.00595134)
(-0.000395061 0.000726462 0.00623595)
(0.00100094 0.000383418 0.00606549)
(0.00473754 0.000333896 0.00411655)
(0.00837143 -0.00231522 -0.00239628)
(0.011 -0.00152218 0.000379617)
(0.0139522 -0.00595552 0.0135796)
(0.0162161 -0.00228069 0.020553)
(0.0231687 0.0234325 0.0177417)
(0.0922284 0.0561081 -0.0129552)
(0.155701 0.128996 -0.0273443)
(0.156661 0.172862 -0.0291073)
(0.113091 0.18551 0.00601418)
(0.0733664 0.158052 0.00965809)
(-0.0221066 0.0269769 0.00111502)
(-0.262522 0.274989 -0.0495517)
(0.0370346 -0.0907092 0.0287386)
(0.143412 -0.204683 0.136171)
(0.0499383 0.110002 -0.00233446)
(0.0391687 0.0324566 -0.0268057)
(0.0202786 0.122259 -0.0304827)
(0.0292263 0.125012 -0.0208844)
(0.0289882 0.159342 -0.0188256)
(0.0354707 0.168591 -0.0228587)
(0.036618 0.17135 -0.0240775)
(0.0364104 0.172324 -0.0224805)
(0.029831 0.170557 -0.0200388)
(0.023776 0.16834 -0.0164882)
(0.0211804 0.161891 -0.00743867)
(0.0220799 0.154032 0.0101111)
(0.0226931 0.14356 0.0224883)
(0.0290584 0.129399 0.0273807)
(0.0322395 0.119914 0.0274258)
(0.0326641 0.105561 0.027582)
(0.0345587 0.0865456 0.0308282)
(0.0326925 0.0674811 0.0275728)
(0.0392804 0.0535947 0.0218047)
(0.0406751 0.0423514 0.0188642)
(0.0422855 0.0319665 0.0149244)
(0.0345561 0.0206137 0.0152396)
(0.0233812 0.00981974 0.0179035)
(0.00711097 0.00124202 0.023114)
(-0.0114589 -0.0133612 0.019231)
(-0.0249762 -0.013668 -0.00431361)
(-0.0302335 -0.00177694 -0.00949126)
(-0.0361334 0.018702 -0.0121934)
(-0.0292085 0.0350974 -0.016115)
(-0.0282472 0.0496343 -0.00760839)
(-0.0314127 0.0648221 0.0209054)
(-0.0324304 0.065412 0.0433381)
(-0.0414567 0.0466748 0.0596377)
(-0.0587599 0.0351381 0.0734916)
(-0.0721332 0.0126141 0.0869733)
(0.026021 0.0195177 0.00463698)
(0.0303519 0.0169845 0.00561624)
(0.0175861 0.00784182 0.000702858)
(0.0164389 0.0102327 0.000644761)
(0.00745215 0.0042067 0.00304182)
(0.00735627 0.00637841 0.00338219)
(0.00238867 0.00181404 0.00459237)
(0.000528825 0.0025835 0.00402326)
(-0.00243897 -0.000411979 0.00386779)
(-0.00309965 0.000699858 0.00380933)
(-0.00371526 0.000779774 0.00421621)
(-0.00330454 0.00258728 0.00492151)
(-0.00266901 0.00342578 0.00509472)
(-0.00171446 0.00408268 0.00524251)
(-0.00108243 0.00392479 0.00511452)
(-0.000730898 0.00352267 0.00508099)
(-0.000798227 0.00291705 0.00505093)
(-0.000898213 0.00246578 0.00507253)
(-0.00102088 0.00201504 0.00507022)
(-0.00114009 0.00161796 0.00504992)
(-0.00128784 0.00123377 0.00502627)
(-0.00143221 0.00091896 0.00500816)
(-0.0015779 0.000653383 0.00500144)
(-0.00173075 0.000457549 0.00500676)
(-0.00187795 0.000318656 0.00502447)
(-0.0020123 0.000226628 0.00505783)
(-0.00213606 0.000160973 0.00510308)
(-0.00224482 0.000112097 0.00515647)
(-0.0023348 6.70264e-05 0.00521182)
(-0.00240767 2.32588e-05 0.00525755)
(-0.00247774 -1.15669e-05 0.00529006)
(-0.00256655 -3.68138e-05 0.00531418)
(-0.00268646 -4.2648e-05 0.00533956)
(-0.00281301 -1.07532e-05 0.00535161)
(-0.00290493 7.09437e-05 0.00532394)
(-0.00296158 0.000217509 0.00523819)
(-0.00298181 0.000441515 0.00512222)
(-0.0029888 0.000743119 0.00501623)
(-0.00308225 0.00112863 0.00498)
(-0.00331797 0.001561 0.00506547)
(-0.00368345 0.00198676 0.00520293)
(-0.00402372 0.00226975 0.00527095)
(-0.0041335 0.00239245 0.00525592)
(-0.0036286 0.00211176 0.00541819)
(-0.00279568 0.00146327 0.00617807)
(-0.00093215 0.00113726 0.00646633)
(0.00569842 0.000240409 0.00434364)
(0.0144348 -0.00322306 -0.00189716)
(0.0151559 -0.0102909 0.00651791)
(0.0127244 -0.0108208 0.0313518)
(0.00948752 -0.010364 0.04595)
(0.00762356 0.0163517 0.0191204)
(0.0693043 0.066943 0.00812839)
(0.124846 0.144015 0.0161224)
(0.128303 0.194448 0.00989095)
(0.10688 0.242405 -0.0042861)
(0.0611164 0.249966 -0.0280559)
(0.00338514 0.173602 -0.0497089)
(-0.125355 0.374009 -0.070882)
(0.0309242 -0.123009 0.0487477)
(0.120459 -0.170616 0.145449)
(0.0295471 0.115318 0.00023723)
(0.0467345 0.0472104 -0.0162495)
(0.0484973 0.147096 -0.0175734)
(0.037105 0.167653 -0.0105197)
(0.0329203 0.208967 -0.00979345)
(0.0404736 0.22224 0.00253014)
(0.0441197 0.22685 0.0092744)
(0.0467998 0.227262 0.0182119)
(0.045992 0.222549 0.0226243)
(0.0394709 0.215801 0.0247205)
(0.0329041 0.210411 0.0238892)
(0.0276261 0.199142 0.0261544)
(0.0251565 0.189912 0.0300634)
(0.023977 0.179564 0.034063)
(0.0272421 0.166664 0.0330822)
(0.0310142 0.155822 0.030279)
(0.0301163 0.142188 0.0266305)
(0.031889 0.128901 0.0211935)
(0.0313657 0.113173 0.0134328)
(0.0357004 0.0966538 0.00474928)
(0.0373167 0.0795912 -0.00666016)
(0.0307076 0.0661383 -0.017718)
(0.0149841 0.0587051 -0.0182263)
(0.00042453 0.0481964 -0.00767263)
(-0.0181761 0.0203325 0.00276367)
(-0.0299071 0.00951819 -0.0046539)
(-0.0337553 0.0137803 -0.00493328)
(-0.0330517 0.0218538 -0.00750589)
(-0.022031 0.0291927 -0.00966705)
(-0.0221372 0.0433925 -0.00769811)
(-0.0296162 0.058034 0.0114316)
(-0.0317558 0.0551411 0.0385682)
(-0.0457529 0.0324637 0.0590459)
(-0.0717042 0.0263796 0.0681298)
(-0.101034 0.00385738 0.0788004)
(0.025215 0.0188273 0.00322016)
(0.0316307 0.0205566 0.00536884)
(0.0200243 0.00884553 -0.000934767)
(0.0197431 0.0121301 -0.00128823)
(0.00821883 0.00217961 -0.000199522)
(0.00744396 0.00640169 0.000835718)
(0.00170272 0.00246626 0.00330353)
(0.000525754 0.00427061 0.00360916)
(-0.00221925 -5.35251e-05 0.00360286)
(-0.00393603 0.00013873 0.00332531)
(-0.0050128 -0.000714769 0.00347352)
(-0.00496057 0.00131064 0.00421457)
(-0.00400924 0.00263865 0.00456216)
(-0.00268858 0.00364572 0.00500066)
(-0.00166284 0.00349314 0.00513974)
(-0.00119461 0.00315766 0.00527366)
(-0.00134096 0.00255308 0.00526501)
(-0.00158411 0.00218793 0.0052654)
(-0.00182117 0.00187065 0.00522417)
(-0.00202142 0.00162327 0.00515057)
(-0.00222527 0.00136239 0.00505586)
(-0.00241826 0.00112819 0.0049537)
(-0.00261661 0.000903993 0.00485449)
(-0.00280046 0.000710104 0.00477149)
(-0.00295707 0.000547887 0.00470709)
(-0.00307802 0.00042829 0.00466403)
(-0.00317155 0.000349017 0.00463977)
(-0.00324034 0.000302973 0.00462747)
(-0.00328545 0.000278143 0.0046183)
(-0.00332407 0.000265443 0.00460037)
(-0.00336202 0.000261112 0.00457761)
(-0.00341833 0.000269083 0.00455809)
(-0.00350081 0.00030878 0.00454609)
(-0.00358298 0.000403445 0.00451971)
(-0.00364058 0.000564928 0.00444908)
(-0.00369113 0.000796296 0.00432738)
(-0.00376442 0.0010823 0.00415568)
(-0.00391978 0.00139873 0.00395651)
(-0.0041765 0.00177724 0.00381382)
(-0.00445115 0.00222566 0.00380491)
(-0.00468547 0.00269823 0.00385208)
(-0.00480134 0.00291288 0.00379172)
(-0.00457435 0.00271161 0.00371933)
(-0.00371201 0.00197775 0.00423484)
(-0.003023 0.00140415 0.00523544)
(-0.000529885 0.00168876 0.00580518)
(0.00758815 0.00186246 0.00354501)
(0.0183209 0.000960904 -0.0013767)
(0.0198905 0.004834 0.00374526)
(0.00862913 -0.00798897 0.0247285)
(-0.00330966 0.00155321 0.0445665)
(-0.0104574 0.00823515 0.0310637)
(0.0299489 0.0585985 0.0116368)
(0.0842932 0.1233 0.0297463)
(0.0919484 0.15232 0.0410693)
(0.0733995 0.196054 0.0315958)
(0.0579215 0.218332 0.0186622)
(0.0672068 0.100941 0.0134707)
(0.0672473 0.381323 0.00590682)
(0.0199361 -0.127285 0.0452513)
(0.063804 -0.143361 0.162605)
(-0.0295614 0.123759 -0.0156205)
(0.00240141 0.0434518 -0.0161752)
(0.0272445 0.193545 -0.0140738)
(-0.00644248 0.232774 0.00282407)
(0.0109039 0.26315 0.0106447)
(0.0237969 0.26772 0.0217215)
(0.0277829 0.271296 0.0270681)
(0.0323421 0.269434 0.0297258)
(0.0354786 0.267455 0.0287737)
(0.034757 0.26057 0.0291934)
(0.0313754 0.253386 0.0277512)
(0.0271892 0.244258 0.0266649)
(0.0245497 0.232193 0.0272214)
(0.0232933 0.218247 0.0291229)
(0.0227627 0.203749 0.0308338)
(0.0251234 0.187608 0.0333664)
(0.0285895 0.169808 0.0357374)
(0.0337224 0.152488 0.033078)
(0.0398025 0.1361 0.0278664)
(0.0466668 0.118836 0.0194885)
(0.0502999 0.106311 0.0059936)
(0.0454218 0.0992037 -0.0102982)
(0.0326998 0.0912762 -0.0241121)
(0.0235835 0.0859599 -0.026408)
(0.00667643 0.0703724 -0.0191842)
(-0.0247895 0.0352134 -0.0111756)
(-0.0349509 0.0248119 -0.00916246)
(-0.0321083 0.0224073 -0.00885857)
(-0.0235258 0.024039 -0.00802551)
(-0.0230082 0.034996 -0.0122603)
(-0.0310702 0.0490727 -0.000895248)
(-0.0331133 0.0437719 0.031027)
(-0.0560394 0.0305604 0.0510927)
(-0.0889791 0.0265176 0.0620291)
(-0.113667 0.0056566 0.0762492)
(0.0231086 0.0183485 0.00219356)
(0.0329097 0.0252425 0.0062408)
(0.0228946 0.0110352 0.000523065)
(0.0235976 0.0147203 0.00105153)
(0.0107077 -0.00126343 -0.00296588)
(0.00628427 0.00455807 -0.00194169)
(0.000325762 0.00132633 0.00155265)
(3.60589e-05 0.00516847 0.00286482)
(-0.00242287 0.000837701 0.00289993)
(-0.00479462 0.000870125 0.0028443)
(-0.00701223 -0.00083462 0.00271993)
(-0.00810803 0.000836426 0.0034563)
(-0.00713856 0.00205748 0.00414606)
(-0.00498128 0.00299013 0.00521819)
(-0.00375397 0.00285545 0.00578367)
(-0.00334815 0.00263451 0.00614555)
(-0.00373123 0.00209721 0.00616575)
(-0.00430216 0.00180878 0.00608463)
(-0.00476667 0.00160186 0.00592414)
(-0.00505478 0.00151067 0.00571598)
(-0.00527876 0.00142718 0.00550208)
(-0.00543471 0.00136879 0.00530116)
(-0.00555479 0.00128722 0.00511783)
(-0.00566212 0.00119852 0.00497428)
(-0.00576177 0.0011115 0.00487155)
(-0.00585786 0.00103991 0.00479603)
(-0.00592471 0.000987718 0.00473098)
(-0.00595616 0.000963237 0.00468474)
(-0.00594554 0.000966916 0.00466192)
(-0.0059021 0.000984089 0.00465785)
(-0.00586184 0.000998398 0.00466552)
(-0.00586536 0.00103122 0.00468314)
(-0.0059338 0.00112162 0.00470407)
(-0.00603708 0.00129019 0.0046951)
(-0.00611976 0.0015329 0.0046378)
(-0.00617655 0.00182475 0.0045394)
(-0.00619476 0.0021277 0.00440764)
(-0.00625292 0.00237148 0.00422492)
(-0.00648666 0.00254003 0.0039621)
(-0.00682993 0.00273315 0.00369183)
(-0.00701316 0.00303182 0.00348464)
(-0.00658836 0.00318914 0.00331864)
(-0.00560525 0.00283351 0.0032712)
(-0.00483333 0.0021202 0.00367932)
(-0.00479 0.00203596 0.0044311)
(-0.00256585 0.00303408 0.00455101)
(0.00539065 0.00479217 0.00355787)
(0.0160072 0.00589673 0.00256799)
(0.0220966 0.0120321 -0.000771064)
(0.00809592 0.00431375 0.0157389)
(-0.0238854 0.00112891 0.0397817)
(-0.0379614 0.00418579 0.0242122)
(0.000468477 0.07598 -0.000779483)
(0.0520319 0.130536 0.0271929)
(0.0675359 0.14081 0.0404483)
(0.0837014 0.144952 0.031118)
(0.0696798 0.179753 0.00834702)
(0.100004 0.032169 -0.00729575)
(0.0949094 0.338546 -0.0151346)
(-0.0181519 -0.101463 0.053077)
(0.0158543 -0.143368 0.166655)
(-0.0169876 0.126344 0.0174116)
(-0.0314799 -0.000182526 -0.00308894)
(-0.0437475 0.223654 -0.0569462)
(-0.0193621 0.279143 -0.00961492)
(0.00996046 0.285588 0.00891059)
(0.0240249 0.293078 0.0128997)
(0.0293977 0.290764 0.0255862)
(0.0346732 0.285073 0.0288925)
(0.0369013 0.281392 0.0309868)
(0.033647 0.275052 0.034249)
(0.0305797 0.268539 0.0339335)
(0.02904 0.259754 0.0339147)
(0.0270034 0.250041 0.0352689)
(0.0258919 0.237183 0.0360021)
(0.0266112 0.222249 0.0382174)
(0.0290472 0.206582 0.0401748)
(0.0325037 0.189172 0.0411611)
(0.0392652 0.171939 0.0397669)
(0.0486517 0.157335 0.0369134)
(0.0571177 0.143244 0.0287152)
(0.0589349 0.136533 0.0162908)
(0.0532942 0.135307 -0.00151246)
(0.0450094 0.134393 -0.0156229)
(0.0412084 0.131247 -0.0207906)
(0.0360605 0.126777 -0.0206589)
(0.0185922 0.105465 -0.013738)
(-0.00455248 0.0639165 -0.00862711)
(-0.0141976 0.0384715 -0.00926781)
(-0.015804 0.0303361 -0.00586156)
(-0.0190817 0.0279587 -0.00919661)
(-0.025528 0.0322741 -0.00802587)
(-0.0323404 0.0310883 0.0107591)
(-0.0585136 0.0218335 0.0378948)
(-0.0947491 0.0188848 0.0472152)
(-0.130968 0.000951738 0.0603833)
(0.0239107 0.0146617 0.000454516)
(0.0327294 0.0288977 0.00716638)
(0.0243468 0.0142421 0.0017325)
(0.0266465 0.0187409 0.00270629)
(0.016429 -0.000587702 -0.0040138)
(0.00466633 0.00260476 -0.0050459)
(-0.00242745 -0.0011477 -0.000285183)
(-0.00171595 0.00432452 0.00189094)
(-0.00228695 0.00109288 0.00308946)
(-0.0045559 0.00245807 0.00322508)
(-0.00675455 0.000212693 0.00301164)
(-0.00823887 0.000895874 0.00393301)
(-0.00703419 0.000475498 0.0048933)
(-0.00480684 0.000874218 0.00628074)
(-0.00356186 0.000829076 0.00728897)
(-0.00309373 0.00118076 0.00803415)
(-0.00335868 0.00134048 0.00834427)
(-0.00388162 0.00156106 0.00838356)
(-0.00435106 0.00172285 0.00823789)
(-0.0046874 0.00187512 0.0079734)
(-0.00495938 0.00192321 0.0076738)
(-0.00513848 0.0019511 0.00739432)
(-0.00526526 0.00192974 0.00714322)
(-0.00536402 0.00188498 0.00692762)
(-0.0054426 0.00182492 0.00675358)
(-0.00548812 0.0017695 0.00662365)
(-0.00551582 0.00172673 0.00651808)
(-0.00551555 0.00170373 0.00643769)
(-0.00548659 0.0016973 0.00637344)
(-0.00542629 0.00170794 0.00632559)
(-0.00537065 0.00171555 0.0062915)
(-0.00538103 0.00176356 0.00626114)
(-0.00547768 0.0018977 0.00622364)
(-0.00559213 0.00211053 0.00615765)
(-0.00569075 0.00237028 0.00604348)
(-0.00576423 0.00262487 0.00589921)
(-0.00579677 0.00281699 0.00571294)
(-0.00585328 0.00290944 0.00547172)
(-0.00605888 0.00290556 0.00516321)
(-0.00638984 0.00286309 0.00483504)
(-0.00650263 0.00291751 0.00464986)
(-0.00591543 0.00294907 0.00462139)
(-0.00473068 0.00276794 0.00483171)
(-0.00385686 0.00229342 0.00532955)
(-0.00401572 0.00226379 0.00611658)
(-0.00232857 0.00393996 0.0066954)
(0.00411415 0.00659094 0.00700365)
(0.0132852 0.00857092 0.00642287)
(0.0192075 0.0128924 0.00545576)
(0.015712 0.017633 0.00804759)
(-0.0198705 0.000146239 0.0243761)
(-0.0580806 -0.017859 0.0311394)
(-0.0668161 0.00806485 -0.00319471)
(0.0205234 0.0976007 0.0161256)
(0.0623046 0.131646 0.0461042)
(0.0831764 0.12945 0.0559925)
(0.0866533 0.184965 0.0616032)
(0.140343 0.0330103 0.00892769)
(0.217505 0.39213 -0.0515131)
(-0.0251222 -0.12566 0.0498319)
(-0.0254692 -0.127247 0.166054)
(-0.050254 0.144302 -0.0343994)
(-0.0913286 0.113742 -0.0324643)
(-0.0948467 0.245433 -0.0375162)
(-0.0334255 0.260548 0.00660061)
(-0.00485362 0.24002 0.0213024)
(0.00985661 0.23371 0.0253858)
(0.0206288 0.227428 0.0224005)
(0.0283433 0.224793 0.0335975)
(0.0307797 0.225304 0.0397661)
(0.0282228 0.227082 0.0458364)
(0.0265469 0.230697 0.0516778)
(0.0225344 0.225914 0.0555907)
(0.0217621 0.220125 0.0570911)
(0.0232882 0.213669 0.05745)
(0.026732 0.20468 0.0560396)
(0.0328684 0.1921 0.0557251)
(0.041734 0.177737 0.0531206)
(0.0511096 0.162395 0.0485171)
(0.0574246 0.148631 0.045807)
(0.0608607 0.14234 0.0410969)
(0.0603635 0.143457 0.030246)
(0.0543313 0.148242 0.0104221)
(0.045534 0.153772 -0.0018539)
(0.0417837 0.156833 -0.00621045)
(0.0423372 0.160821 -0.00809242)
(0.0358413 0.160321 -0.0107282)
(0.017306 0.151976 -0.017905)
(-0.00249824 0.133053 -0.0247834)
(-0.0164021 0.114761 -0.0306723)
(-0.0244524 0.104266 -0.0294895)
(-0.0337075 0.096354 -0.0156208)
(-0.0465818 0.0864068 0.0101184)
(-0.0715259 0.0700609 0.0356941)
(-0.103105 0.0532812 0.0453228)
(-0.130558 0.0190689 0.0506987)
(0.0160948 0.0120281 -0.00265987)
(0.0308192 0.0301161 0.00634994)
(0.0239254 0.0189939 0.00137011)
(0.0285764 0.0247923 0.00306209)
(0.0235541 0.00549727 -0.00236855)
(0.00734723 0.0036261 -0.0089013)
(-0.00291697 -0.00407892 -0.00614327)
(-0.00329767 0.00344518 -0.00386379)
(-0.00560444 0.00074968 -0.00124085)
(-0.00679936 0.00308429 -0.000303815)
(-0.00861479 0.000531999 -0.000114988)
(-0.00961716 0.000512193 0.000942682)
(-0.00905517 -0.000946027 0.00181734)
(-0.00773277 -0.00057558 0.00286417)
(-0.00730664 -0.000416883 0.00379702)
(-0.007416 0.000345097 0.00464083)
(-0.00794768 0.00086734 0.00530632)
(-0.00855068 0.00140835 0.00569541)
(-0.00904613 0.00176089 0.00579689)
(-0.00915884 0.00202616 0.00571195)
(-0.00921551 0.00215667 0.00555362)
(-0.00920986 0.0022485 0.00538768)
(-0.00915842 0.00227699 0.00523916)
(-0.00909721 0.00226977 0.0051035)
(-0.00903654 0.00223954 0.00498461)
(-0.0089727 0.00220342 0.00488593)
(-0.00890507 0.00217198 0.00480189)
(-0.00882731 0.00215573 0.00472879)
(-0.00872975 0.0021605 0.0046588)
(-0.0085955 0.0021942 0.00459085)
(-0.00849698 0.00223689 0.00452693)
(-0.00852935 0.00232865 0.00446465)
(-0.00864829 0.00248619 0.00440256)
(-0.00877226 0.00269542 0.00431801)
(-0.00881265 0.00292927 0.00419555)
(-0.00877062 0.00313957 0.00404577)
(-0.00866231 0.00328709 0.00385774)
(-0.00860753 0.00333181 0.00363297)
(-0.00873992 0.00323234 0.00336793)
(-0.00910069 0.0029857 0.00308087)
(-0.0093011 0.0027899 0.00294297)
(-0.00867871 0.00257988 0.00303166)
(-0.00717312 0.00252887 0.00341538)
(-0.00605463 0.00239637 0.00397228)
(-0.00689286 0.00279065 0.00487972)
(-0.00668156 0.00422725 0.00543035)
(-0.00217595 0.00707238 0.0052141)
(0.0052028 0.00789554 0.00330915)
(0.00836977 0.0137532 0.00349258)
(0.0118928 0.0167833 0.00490478)
(-0.00875209 0.0261137 0.0154266)
(-0.0467053 -0.0179895 0.0349179)
(-0.0811981 -0.0291853 0.0189448)
(-0.0556836 -0.030807 0.00457509)
(-0.0135073 0.0656789 0.0237126)
(0.0510157 0.0635536 0.0759009)
(0.0414358 0.207181 0.12277)
(0.0903834 -0.173916 0.0874495)
(0.238049 0.427175 -0.0365124)
(-0.0365737 -0.118486 0.0433316)
(-0.0754064 -0.109441 0.113458)
(-0.102737 0.175197 -0.0529696)
(-0.121963 0.128944 -0.0309336)
(-0.0923897 0.204286 -0.014009)
(-0.0244742 0.169035 0.0415034)
(-0.00733318 0.126435 0.0449337)
(0.00192607 0.110555 0.0312348)
(0.0107048 0.0963094 0.00777939)
(0.0122065 0.0888985 0.00271819)
(0.0132038 0.0878059 0.00362366)
(0.00464833 0.0943551 0.00227461)
(-0.000362335 0.101141 0.00914985)
(-0.000246093 0.108569 0.0204025)
(0.00056618 0.105752 0.0349279)
(0.00110499 0.0990725 0.0417726)
(0.00124794 0.0916195 0.0430781)
(0.00509296 0.0801555 0.0441025)
(0.0141892 0.0721829 0.0474304)
(0.0258653 0.0610311 0.0464184)
(0.0414859 0.0533773 0.0465977)
(0.0521217 0.0502955 0.0453485)
(0.0535275 0.0523251 0.0472773)
(0.044952 0.0621522 0.0401311)
(0.0499721 0.0801422 0.02649)