/*--------------------------------*- C++ -*----------------------------------*\
| =========                 |                                                 |
| \\      /  F ield         | OpenFOAM: The Open Source CFD Toolbox           |
|  \\    /   O peration     | Version:  2.3.0                                 |
|   \\  /    A nd           | Web:      www.OpenFOAM.org                      |
|    \\/     M anipulation  |                                                 |
\*---------------------------------------------------------------------------*/
FoamFile
{
    version     2.0;
    format      ascii;
    class       volVectorField;
    location    "30";
    object      U.airMean;
}
// * * * * * * * * * * * * * * * * * * * * * * * * * * * * * * * * * * * * * //

dimensions      [0 1 -1 0 0 0 0];

internalField   nonuniform List<vector> 
6144
(
(0.00839143 0.0195985 -0.00126155)
(0.00850487 0.00289829 -0.00163475)
(0.00464667 0.00112459 -0.00230077)
(0.00457498 -0.00096714 -0.00227295)
(0.00301496 -0.00211613 -0.00183033)
(0.00296545 -0.00148257 -0.00161165)
(0.00237158 -0.00153374 -0.00134836)
(0.0024563 -0.000323962 -0.00122789)
(0.0023345 0.000423499 -0.00127872)
(0.00234002 0.00172948 -0.00100866)
(0.00234111 0.00247002 -0.000804481)
(0.00250397 0.00287503 -0.000525482)
(0.00264192 0.00263675 -0.000448414)
(0.00276782 0.00221564 -0.000392801)
(0.00281398 0.00164549 -0.000550537)
(0.00286617 0.0012235 -0.000668601)
(0.0028875 0.000837738 -0.00083798)
(0.00291582 0.000611006 -0.000948877)
(0.00293236 0.000411174 -0.00105523)
(0.00294106 0.000307022 -0.00111103)
(0.00294272 0.000220901 -0.00115163)
(0.0029401 0.000184323 -0.00116888)
(0.00293341 0.000158697 -0.0011749)
(0.00292512 0.000150389 -0.00116894)
(0.00291431 0.000148258 -0.00115582)
(0.00290266 0.000150233 -0.00113704)
(0.00289036 0.000154287 -0.00111463)
(0.0028781 0.000155553 -0.00108789)
(0.00286547 0.000158622 -0.00105847)
(0.00285222 0.000152386 -0.00103026)
(0.00284066 0.000164942 -0.00100035)
(0.00282658 0.000134809 -0.000978288)
(0.00281879 0.00018767 -0.000947601)
(0.00279853 9.56795e-05 -0.000936931)
(0.00280017 0.000257788 -0.000895039)
(0.00276934 1.18653e-05 -0.000894536)
(0.00277957 0.000392431 -0.000829349)
(0.00273875 -0.000163886 -0.000836954)
(0.00275033 0.000598242 -0.00073698)
(0.00270816 -0.000497426 -0.000744403)
(0.00271629 0.000839767 -0.000613901)
(0.00269771 -0.00109844 -0.000620568)
(0.00269178 0.00104217 -0.000515324)
(0.00275887 -0.00208196 -0.000569703)
(0.00267584 0.00128208 -0.000595289)
(0.00282563 -0.00335042 -0.000736211)
(0.00265346 0.00214262 -0.00101835)
(0.00270585 -0.00421356 -0.000984131)
(0.00268105 0.00436576 -0.00135268)
(0.00261409 -0.00456546 -0.00134205)
(0.00385924 0.00898901 -0.00198736)
(0.00301906 -0.00865571 -0.00223169)
(0.00412706 0.0164132 -0.00388942)
(0.00422265 -0.0104546 -0.00543039)
(0.00696304 0.0400826 -0.0073606)
(0.00481765 -0.0313367 -0.0116412)
(0.0137229 0.0679581 -0.0047359)
(0.00962178 -0.0543518 -0.0238166)
(-0.0389019 0.120159 -0.0820321)
(0.0381987 0.0368228 -0.111037)
(0.084495 0.331515 -0.000784936)
(0.0422606 0.375373 -0.00484453)
(0.0204028 -0.0530471 -0.000412557)
(0.0323511 -0.124738 -0.000982818)
(0.0270682 -0.138304 0.000365813)
(0.0180522 -0.138315 0.00252389)
(0.0120685 -0.146128 0.00347398)
(0.00797409 -0.143584 0.00345028)
(0.00512163 -0.143458 0.00294911)
(0.00280837 -0.136918 0.00227884)
(0.00104023 -0.132597 0.00160018)
(-0.000168009 -0.12435 0.00096355)
(-0.000820141 -0.117991 0.00035699)
(-0.00098215 -0.109955 -0.000189798)
(-0.000843671 -0.103634 -0.000633516)
(-0.000456211 -0.0970745 -0.000975906)
(5.53872e-05 -0.0920631 -0.00119513)
(0.000547007 -0.0875486 -0.00139659)
(0.0010051 -0.0840133 -0.00166703)
(0.00144477 -0.0809562 -0.00200221)
(0.00176375 -0.0778724 -0.00232631)
(0.00192462 -0.0744479 -0.00263899)
(0.00191338 -0.0706699 -0.00288402)
(0.00180803 -0.0661789 -0.00306995)
(0.00159606 -0.0612744 -0.00322516)
(0.00132652 -0.0557382 -0.00326661)
(0.000888453 -0.0496049 -0.00338957)
(0.000289972 -0.0424119 -0.00346576)
(-0.000588521 -0.0341407 -0.00363807)
(-0.00114165 -0.0241452 -0.00349975)
(-0.000511397 -0.0143657 -0.00362589)
(0.000256374 -0.00486157 -0.00556612)
(6.50777e-05 0.00591033 -0.00577523)
(-0.00108629 0.0156872 -0.00238358)
(-0.00105257 0.0209549 0.00637434)
(-0.000241829 0.0158852 0.014246)
(0.0172575 0.0229086 0.00238834)
(0.0178173 0.0108104 0.00216863)
(0.0105965 0.00784826 0.000226083)
(0.0106814 0.00528456 0.00109996)
(0.00660941 0.00189541 0.00149898)
(0.00639641 0.00151811 0.00176831)
(0.00442296 3.45216e-06 0.00205739)
(0.00429545 0.00120008 0.00175106)
(0.00389618 0.00181126 0.00151453)
(0.00408209 0.0032483 0.00161619)
(0.00429207 0.0037544 0.00176145)
(0.00482791 0.00403446 0.00212709)
(0.00514803 0.00357904 0.00224842)
(0.00545454 0.00311597 0.00234044)
(0.00551231 0.00242351 0.00225921)
(0.00560438 0.00191912 0.00220506)
(0.00559756 0.00142221 0.00210491)
(0.00563632 0.00112388 0.00203519)
(0.00564371 0.000851456 0.00195301)
(0.00564879 0.000701403 0.00191544)
(0.00563699 0.000575401 0.00188969)
(0.00562002 0.000513559 0.00188959)
(0.00559584 0.000468499 0.00190057)
(0.0055684 0.000448951 0.00192484)
(0.00553758 0.000439258 0.00195575)
(0.00550566 0.00043655 0.00199279)
(0.00547312 0.000437705 0.00203311)
(0.00544102 0.00043633 0.00207479)
(0.00540932 0.000438959 0.00211741)
(0.00537547 0.000432511 0.0021581)
(0.00534893 0.000444409 0.00219889)
(0.00531025 0.000413675 0.00223038)
(0.00529516 0.000468069 0.0022698)
(0.00523874 0.000371026 0.00228979)
(0.00525044 0.000544467 0.00233781)
(0.00516441 0.000267725 0.00234592)
(0.00520983 0.000693502 0.00241297)
(0.00508728 4.53633e-05 0.00240657)
(0.0051706 0.000924889 0.00250192)
(0.00502418 -0.000374774 0.00248365)
(0.00515226 0.00121675 0.00260618)
(0.00501829 -0.00109495 0.00257696)
(0.00518002 0.00156495 0.00269486)
(0.00511092 -0.00218123 0.00264613)
(0.00521709 0.00209617 0.00268644)
(0.00520051 -0.00358032 0.00256358)
(0.00510794 0.00311526 0.00233505)
(0.00497356 -0.0048524 0.00229948)
(0.00464255 0.00475148 0.00158125)
(0.00444097 -0.00542283 0.00181136)
(0.00630631 0.00820085 0.00055559)
(0.00537422 -0.00672565 0.00010031)
(0.00491761 0.0176464 -0.000205275)
(0.00403868 -0.00860876 -0.000496887)
(0.0198299 0.0410399 0.00254285)
(0.0314078 -0.0431905 -0.00152696)
(-0.0195039 0.0363123 0.00423807)
(-0.0139743 -0.0137511 -0.0136998)
(0.0165715 0.187063 -0.00997177)
(0.158977 0.000684908 -0.0635538)
(0.0922389 0.345519 0.00707434)
(0.00697631 0.428224 0.00625625)
(-0.0169502 -0.0854545 0.0057554)
(-0.00170881 -0.0549006 0.00842398)
(-0.00585051 -0.0783844 0.00999374)
(-0.0133488 -0.0922489 0.0114002)
(-0.0159023 -0.102577 0.0105403)
(-0.0166778 -0.103898 0.00923833)
(-0.0165672 -0.107931 0.00762902)
(-0.0162239 -0.105206 0.00604256)
(-0.0154311 -0.104097 0.00463972)
(-0.0143087 -0.0984888 0.00343934)
(-0.0127206 -0.0943264 0.00237085)
(-0.0108738 -0.0880759 0.00145095)
(-0.0088935 -0.0833371 0.000673667)
(-0.00690614 -0.0781052 0.000186615)
(-0.0046556 -0.0738933 -5.09426e-06)
(-0.00247373 -0.0697248 -2.29099e-05)
(-0.00108151 -0.0660056 -6.17114e-05)
(-0.000525673 -0.0622649 -0.000177596)
(-0.000445716 -0.0584111 -0.000335912)
(-0.000553914 -0.0544342 -0.00045676)
(-0.000664724 -0.0504187 -0.000461054)
(-0.000761991 -0.0461129 -0.000335089)
(-0.000964109 -0.0421952 -0.000124725)
(-0.00145633 -0.0383389 0.000138735)
(-0.00230497 -0.0344842 0.000264256)
(-0.0035183 -0.0302862 0.000226143)
(-0.00520795 -0.0256166 -0.000326779)
(-0.00640467 -0.0192187 -0.000538695)
(-0.00614018 -0.0119648 -0.000591857)
(-0.00522791 -0.00380542 -0.00216308)
(-0.00514228 0.00587198 -0.00246279)
(-0.00592841 0.0149514 0.00143723)
(-0.00665081 0.0193927 0.0109908)
(-0.00550754 0.0147756 0.0195643)
(0.0207991 0.0235043 0.0034783)
(0.0222624 0.0147783 0.00344437)
(0.0139101 0.0111868 0.00119452)
(0.0142369 0.00978232 0.00218356)
(0.00838085 0.00523605 0.00240498)
(0.00774417 0.00438973 0.00287847)
(0.00430522 0.00162404 0.0034086)
(0.00384516 0.00246637 0.00318905)
(0.00309643 0.00263623 0.00296369)
(0.00354609 0.00383264 0.00305813)
(0.00387846 0.0039207 0.00315438)
(0.00474808 0.00414551 0.00343973)
(0.00513959 0.00365809 0.00354681)
(0.00554766 0.00335976 0.00364153)
(0.00560591 0.00274089 0.0035992)
(0.00570405 0.00231168 0.00359326)
(0.00562621 0.00181058 0.00355446)
(0.00561604 0.00149998 0.0035555)
(0.00554213 0.0011953 0.00355074)
(0.00549764 0.001022 0.00356776)
(0.00543159 0.000868507 0.00358508)
(0.00537502 0.000786497 0.00361431)
(0.00531522 0.000723734 0.00364467)
(0.00526067 0.000692034 0.00368043)
(0.00520713 0.000674261 0.003717)
(0.00515684 0.000667358 0.0037552)
(0.00510892 0.000667067 0.00379351)
(0.00506287 0.000665266 0.00383224)
(0.00501809 0.000667645 0.00387066)
(0.00497288 0.000664409 0.00390874)
(0.00493373 0.000670492 0.00394717)
(0.00487891 0.000648533 0.00398103)
(0.00485008 0.000687295 0.00401904)
(0.00477293 0.00060374 0.00404647)
(0.00477913 0.000742681 0.00409282)
(0.00466087 0.000491016 0.00411075)
(0.00472348 0.000862703 0.0041686)
(0.00454437 0.000253866 0.00417459)
(0.00468735 0.00107109 0.00424817)
(0.00444488 -0.000159586 0.00423575)
(0.00470087 0.00140765 0.00432371)
(0.00439384 -0.000776138 0.00427566)
(0.00479155 0.00195867 0.00437319)
(0.00445785 -0.00159315 0.00427962)
(0.00491712 0.0028462 0.00438422)
(0.00460402 -0.00276797 0.00427915)
(0.00479859 0.00398436 0.00429414)
(0.00453231 -0.00442126 0.00431927)
(0.00406637 0.0051856 0.00358031)
(0.00425149 -0.00576372 0.00394842)
(0.00499707 0.00770364 0.002378)
(0.00441746 -0.00469412 0.0022077)
(0.00378918 0.0203276 0.00306195)
(0.0027779 -0.0193128 0.00466624)
(0.0288878 0.0241345 0.00621081)
(0.041363 -0.0544299 0.00209569)
(-0.0492003 0.0639844 0.0188892)
(-0.0632816 -0.105451 -0.00811932)
(-0.0537488 0.18259 -0.0370966)
(0.168424 -0.0169128 -0.0388372)
(0.159004 0.318063 0.00349376)
(0.0719497 0.355722 0.00245727)
(0.0712095 -0.0826765 0.0116784)
(0.0353132 -0.0220748 0.0156503)
(0.0108727 -0.0568125 0.0153854)
(0.00161443 -0.0654511 0.014275)
(-0.00562282 -0.0731091 0.01165)
(-0.0111812 -0.0731798 0.0090458)
(-0.0145032 -0.0760745 0.0063211)
(-0.0162805 -0.0723175 0.0039357)
(-0.016757 -0.0701288 0.00184655)
(-0.0160084 -0.0639033 0.000124239)
(-0.0139931 -0.0590559 -0.00147631)
(-0.0115327 -0.0517271 -0.00268566)
(-0.00924619 -0.0457275 -0.0029811)
(-0.00746744 -0.0391199 -0.00283227)
(-0.00593561 -0.0330678 -0.00222477)
(-0.00459951 -0.0265655 -0.00136739)
(-0.00328649 -0.021576 -0.000550338)
(-0.00221633 -0.0181319 0.000400004)
(-0.00156183 -0.0164357 0.00127882)
(-0.00126512 -0.0158976 0.00197679)
(-0.00123886 -0.0160832 0.00251216)
(-0.00143154 -0.0164177 0.00293123)
(-0.00186543 -0.0166279 0.00320385)
(-0.00259822 -0.0167105 0.00333843)
(-0.0037837 -0.016304 0.00331255)
(-0.00554272 -0.0153474 0.00293623)
(-0.0080355 -0.0137021 0.00176303)
(-0.0103636 -0.0104859 0.000624531)
(-0.0108821 -0.00581792 5.42805e-05)
(-0.0104519 0.00026068 -0.00110344)
(-0.011084 0.00809416 -0.000658448)
(-0.0132075 0.0153155 0.00379343)
(-0.0148032 0.0190071 0.0133494)
(-0.0151426 0.013616 0.0214247)
(0.0224977 0.0237865 0.00360391)
(0.025596 0.0172871 0.003944)
(0.015922 0.0124847 0.00083671)
(0.0176608 0.0127967 0.00139851)
(0.0109765 0.00736481 0.00120012)
(0.0103878 0.00688165 0.00203246)
(0.00472696 0.00226516 0.00285746)
(0.0034403 0.00268737 0.0028322)
(0.0020601 0.00210145 0.00287621)
(0.00281369 0.00360474 0.00310618)
(0.00312724 0.0034718 0.00333459)
(0.00401347 0.00387944 0.00377486)
(0.00434954 0.00350561 0.00393442)
(0.00476976 0.00341821 0.00405833)
(0.00481295 0.00288378 0.00401104)
(0.00491219 0.00255248 0.00401585)
(0.00480143 0.0020614 0.00398936)
(0.00477603 0.001769 0.00400558)
(0.00466797 0.00144318 0.00401183)
(0.00460005 0.00125287 0.00403958)
(0.00450843 0.00107379 0.00406616)
(0.00443369 0.00097323 0.00410399)
(0.0043548 0.000895517 0.0041399)
(0.00428156 0.000854677 0.00417824)
(0.00421208 0.000828654 0.00421673)
(0.00414856 0.000818048 0.00425598)
(0.00408965 0.000815366 0.00429459)
(0.00403422 0.00081416 0.00433293)
(0.00398064 0.000817205 0.00437044)
(0.00392879 0.000817132 0.00440697)
(0.00388162 0.00082522 0.00444309)
(0.00382585 0.000812017 0.00447564)
(0.00379062 0.000843636 0.00451277)
(0.00371738 0.0007742 0.00453779)
(0.00371741 0.000891791 0.00457946)
(0.00360373 0.000664782 0.00459465)
(0.00367193 0.0010031 0.0046466)
(0.0034904 0.000439513 0.00464799)
(0.00366097 0.00122009 0.004711)
(0.00339304 7.23738e-05 0.00468676)
(0.00369935 0.00160539 0.00475723)
(0.00333237 -0.000425808 0.00468861)
(0.00379078 0.00224878 0.00477097)
(0.00337402 -0.00105976 0.00465733)
(0.00399823 0.00321793 0.0048064)
(0.00352594 -0.00205089 0.00466486)
(0.00416341 0.00438196 0.00482903)
(0.00359314 -0.00364617 0.00470108)
(0.0035205 0.00563938 0.00430803)
(0.00344053 -0.00569878 0.00448677)
(0.00299127 0.00803861 0.00328553)
(0.00181336 -0.00698689 0.0035339)
(0.00745661 0.0162372 0.00539536)
(0.010138 -0.0263263 0.00517291)
(0.0303679 0.0136926 0.0106906)
(0.0278165 -0.0420788 0.00592435)
(-0.0140959 0.0877079 0.0175882)
(-0.0773001 -0.128991 0.00869739)
(-0.0560601 0.23058 -0.0902594)
(0.191079 -0.0657736 -0.018612)
(0.190094 0.333324 0.00227977)
(0.078405 0.294561 -0.00167565)
(0.0853102 -1.88173e-05 0.0105439)
(-0.00472644 0.0681836 0.0160225)
(-0.00785173 -0.0129987 0.0183771)
(-0.0125107 -0.0101884 0.0125593)
(-0.0168861 -0.025309 0.00692468)
(-0.0197184 -0.026814 0.00222018)
(-0.0203075 -0.0283525 -0.00139463)
(-0.0198914 -0.0222784 -0.00414979)
(-0.018966 -0.0169358 -0.00629533)
(-0.0176016 -0.00628351 -0.00756064)
(-0.0154662 0.00413984 -0.00769178)
(-0.0131049 0.0152315 -0.00589151)
(-0.0108973 0.0225208 -0.00384123)
(-0.00880879 0.0279431 -0.00169043)
(-0.00669176 0.0306204 0.000111952)
(-0.00445945 0.0315539 0.00137376)
(-0.00241235 0.0307593 0.00215637)
(-0.001123 0.028331 0.00297913)
(-0.000529795 0.0249422 0.00368583)
(-0.000614509 0.02092 0.00421027)
(-0.00115906 0.0168078 0.00452308)
(-0.00205639 0.0127906 0.00469729)
(-0.00323121 0.00907348 0.00468774)
(-0.00472399 0.00586745 0.0045263)
(-0.00666688 0.00330648 0.00405214)
(-0.00910646 0.00135806 0.00300248)
(-0.0116491 0.000153702 0.00160716)
(-0.0135203 0.000223401 0.000618356)
(-0.0143462 0.00179867 -4.84887e-05)
(-0.0148549 0.00558942 -0.000761559)
(-0.01632 0.0110804 0.000276887)
(-0.0186361 0.0159185 0.00509874)
(-0.0209837 0.018153 0.0144342)
(-0.0222161 0.0128175 0.0222051)
(0.0227207 0.0238845 0.00435727)
(0.0278866 0.0198177 0.00504633)
(0.0171172 0.0129 0.00101296)
(0.0202099 0.0145801 0.00149894)
(0.0134207 0.00789765 0.000156107)
(0.0136683 0.00884526 0.000816213)
(0.00671243 0.00331479 0.000988779)
(0.00425824 0.00359025 0.00165596)
(0.00110141 0.00114028 0.00211264)
(0.00142429 0.00264348 0.00265253)
(0.00166609 0.00231608 0.00306924)
(0.00244174 0.00317529 0.00376455)
(0.00263625 0.00303808 0.00397493)
(0.00303867 0.00322755 0.00414096)
(0.00305897 0.00280929 0.00407147)
(0.00311603 0.00257983 0.00409135)
(0.00291683 0.00212379 0.00406011)
(0.00280826 0.00187859 0.0040839)
(0.00262442 0.00156558 0.00408298)
(0.00250051 0.00138802 0.0041018)
(0.00235838 0.00120207 0.00411068)
(0.00224621 0.00109329 0.00412986)
(0.00214015 0.000999548 0.00414833)
(0.00205044 0.000945628 0.00417289)
(0.00196998 0.000910954 0.00419787)
(0.00190046 0.00089616 0.0042244)
(0.00184003 0.000889677 0.00425044)
(0.00178576 0.000887823 0.00427545)
(0.00173543 0.000889986 0.00429972)
(0.00168829 0.00089054 0.00432253)
(0.00164489 0.000898164 0.00434295)
(0.00159779 0.000888667 0.00435905)
(0.00156539 0.000917147 0.00437859)
(0.00150339 0.000858738 0.00438467)
(0.00150629 0.00096533 0.00441212)
(0.00140677 0.000756911 0.00440628)
(0.00147728 0.00107771 0.00444707)
(0.00130699 0.000557077 0.0044214)
(0.00148029 0.00131593 0.0044731)
(0.00121633 0.000257086 0.00441872)
(0.00151808 0.00174911 0.00447279)
(0.00115414 -0.000127738 0.00437662)
(0.00159751 0.00244056 0.0044391)
(0.00120199 -0.000599929 0.00431731)
(0.00181283 0.00341164 0.0044454)
(0.00142419 -0.00125712 0.00431597)
(0.00204877 0.00460133 0.00444067)
(0.00164402 -0.0023812 0.00422567)
(0.00205075 0.00612192 0.00387174)
(0.00194395 -0.00478262 0.00383758)
(0.00226754 0.00782751 0.00291445)
(0.00097593 -0.00960705 0.00517558)
(0.0105862 0.00997031 0.00877415)
(0.0132984 -0.0256211 0.0119724)
(0.0260561 0.0178169 0.0305945)
(0.0149592 -0.0506669 0.0296067)
(-0.00265846 0.0591106 0.0582876)
(-0.107213 -0.131826 0.0419432)
(-0.00959984 0.203898 -0.159748)
(0.147116 -0.0819191 0.00469553)
(0.16921 0.451219 0.00547075)
(0.0644308 0.588822 -0.00156942)
(0.0619685 0.507088 0.00737982)
(0.0164645 0.524537 0.00562117)
(0.0140087 0.427555 0.00433496)
(-0.00369732 0.362862 -0.0010262)
(-0.0079861 0.354169 -0.00472962)
(-0.0122365 0.352764 -0.00664423)
(-0.0141532 0.361817 -0.00813187)
(-0.0159276 0.374376 -0.00789909)
(-0.0163117 0.385793 -0.0068629)
(-0.0156689 0.395272 -0.00486632)
(-0.0137558 0.396965 -0.00271557)
(-0.0114296 0.393671 -0.000503332)
(-0.00886952 0.38148 0.00136455)
(-0.00655037 0.354684 0.00311565)
(-0.00406898 0.32132 0.00437124)
(-0.00164721 0.281076 0.00501226)
(0.000362977 0.238457 0.00540201)
(0.00168636 0.190067 0.00565526)
(0.00215398 0.149915 0.00577335)
(0.00200549 0.113631 0.00572154)
(0.00139632 0.0794916 0.00546376)
(0.000392931 0.0506887 0.00522388)
(-0.00100712 0.037434 0.00489278)
(-0.00270689 0.029694 0.00448917)
(-0.00468128 0.0236363 0.00364441)
(-0.0069565 0.0185605 0.00252256)
(-0.00963799 0.0149135 0.00152082)
(-0.012301 0.0128326 0.00100068)
(-0.0146444 0.0122467 0.000586831)
(-0.0168278 0.0132771 5.79997e-05)
(-0.0196348 0.0160616 0.00107308)
(-0.0235817 0.0182532 0.00578462)
(-0.028166 0.0186382 0.0141943)
(-0.0326282 0.0124651 0.0208866)
(0.0209221 0.0236812 0.00661814)
(0.0290245 0.0224725 0.00661505)
(0.0170536 0.0129466 0.00197059)
(0.0214427 0.016045 0.00312732)
(0.0146919 0.00677285 0.000724146)
(0.0156898 0.00933734 0.000692489)
(0.00908304 0.00318715 -0.000336212)
(0.00629021 0.00454985 0.000414888)
(0.00172871 0.000732701 0.00127362)
(0.00078142 0.00175011 0.00206204)
(0.000336708 0.000685526 0.00263628)
(0.000919411 0.00192728 0.00359386)
(0.00121125 0.00206391 0.00393469)
(0.00172413 0.00268709 0.00425843)
(0.00183413 0.00240898 0.00428043)
(0.00190289 0.00233928 0.00437425)
(0.00166343 0.00194815 0.00434979)
(0.00151176 0.00180807 0.00437363)
(0.00129001 0.00156483 0.00434058)
(0.00114416 0.00146041 0.00432293)
(0.00099041 0.00131877 0.00428549)
(0.000875044 0.00124362 0.00425781)
(0.000771001 0.00116854 0.00422882)
(0.000686349 0.00112678 0.00420637)
(0.000615591 0.00109716 0.00418594)
(0.000560636 0.00108558 0.00417092)
(0.000518342 0.00108057 0.0041595)
(0.000483174 0.00108282 0.00414984)
(0.000452576 0.00108854 0.00414177)
(0.000425855 0.00109376 0.00413421)
(0.000402636 0.00110427 0.00412688)
(0.000375699 0.00109873 0.0041173)
(0.000361169 0.00112629 0.00411322)
(0.000322004 0.00107553 0.0040974)
(0.0003451 0.00117919 0.00410837)
(0.000265694 0.000997069 0.00407627)
(0.000356634 0.00131238 0.00411203)
(0.000203392 0.000849984 0.00405281)
(0.000397982 0.00158336 0.00411902)
(0.000155084 0.000628336 0.00402472)
(0.00045887 0.00204251 0.00410606)
(0.000147591 0.000329461 0.00397203)
(0.000515802 0.00271699 0.00404847)
(0.000263622 -5.14153e-05 0.00392712)
(0.000625129 0.00362552 0.00400612)
(0.000550015 -0.000510439 0.00396502)
(0.000901216 0.00485466 0.00402789)
(0.000923835 -0.00148671 0.00392262)
(0.00164111 0.00635353 0.00382105)
(0.00170666 -0.00398435 0.00348699)
(0.00299473 0.00768132 0.00288361)
(0.00264567 -0.00924641 0.00600067)
(0.00948606 0.00771382 0.0114217)
(0.00751317 -0.0126471 0.019227)
(0.0133655 0.0244509 0.0430677)
(-0.00761434 -0.0268459 0.0535055)
(0.0139636 0.0405945 0.096142)
(-0.0877341 -0.125672 0.0787903)
(0.0314712 0.0815215 -0.164736)
(0.0938972 -0.0208018 0.0154383)
(0.16362 0.479852 9.68241e-05)
(0.0583152 0.591151 -0.00389627)
(0.0583434 0.55847 0.0048128)
(0.0215649 0.601089 0.00267923)
(0.0111166 0.586908 0.000834185)
(-0.0025841 0.594662 -0.00256056)
(-0.00737273 0.596932 -0.00366269)
(-0.0122933 0.593405 -0.00390239)
(-0.0149962 0.594461 -0.00283628)
(-0.0171002 0.598546 -0.00116358)
(-0.0175535 0.60959 0.00111093)
(-0.0166817 0.606269 0.00320399)
(-0.0143406 0.612538 0.00524065)
(-0.0115482 0.6233 0.00669631)
(-0.00835135 0.618417 0.00787315)
(-0.00469031 0.60934 0.00850238)
(-0.00105346 0.607935 0.00873274)
(0.00193184 0.598967 0.00864496)
(0.00408612 0.587289 0.00846894)
(0.00522887 0.578835 0.00808749)
(0.00505018 0.554127 0.00774251)
(0.00426511 0.535282 0.00733102)
(0.00322461 0.50527 0.00680719)
(0.00206113 0.464621 0.00626484)
(0.000671727 0.399812 0.00577204)
(-0.00149415 0.334833 0.00528979)
(-0.00442101 0.28278 0.00453078)
(-0.00749897 0.193878 0.0038233)
(-0.0106401 0.108269 0.00336877)
(-0.013956 0.0588193 0.0029548)
(-0.0166425 0.0339702 0.00253235)
(-0.0193098 0.021048 0.00240852)
(-0.0225295 0.0186545 0.00399614)
(-0.0261884 0.0173085 0.00763905)
(-0.030643 0.0162409 0.0140929)
(-0.0347705 0.0111362 0.0188228)
(0.0165366 0.0225891 0.00640098)
(0.0284358 0.0261174 0.00828462)
(0.0144494 0.0125079 0.00361004)
(0.0204374 0.0180425 0.00615938)
(0.0132635 0.00532244 0.00321309)
(0.0151268 0.00883778 0.00290579)
(0.00942838 0.00156981 0.000871252)
(0.00711594 0.00432578 0.000389143)
(0.00205869 0.00033773 0.00100409)
(0.000211472 0.00160926 0.00204483)
(-0.00129454 -0.000369969 0.00257044)
(-0.00167208 0.000938863 0.00346314)
(-0.0018253 0.00115343 0.00387131)
(-0.00120639 0.00204418 0.00444954)
(-0.00106541 0.00183923 0.00465707)
(-0.00101586 0.0019672 0.00485276)
(-0.00137785 0.0016895 0.00481968)
(-0.00165047 0.00170333 0.00480695)
(-0.00196423 0.00156161 0.00471989)
(-0.00216002 0.0015618 0.00465526)
(-0.00233966 0.00149369 0.00457091)
(-0.00245948 0.00148415 0.00450411)
(-0.00255559 0.00145461 0.00443993)
(-0.00262286 0.00144802 0.0043901)
(-0.00266956 0.00144129 0.00434848)
(-0.00269783 0.00144262 0.0043178)
(-0.00271176 0.00144598 0.0042943)
(-0.00271468 0.00145253 0.00427649)
(-0.00271063 0.00145995 0.00426266)
(-0.00270075 0.00146712 0.0042511)
(-0.00268774 0.00147708 0.00424152)
(-0.00267376 0.00147574 0.00423326)
(-0.00265782 0.00149627 0.00422967)
(-0.00265546 0.00145872 0.00422174)
(-0.00262041 0.00154991 0.00423144)
(-0.00264575 0.00140506 0.00421298)
(-0.00256978 0.00169111 0.00424991)
(-0.00263464 0.00130668 0.00421553)
(-0.0025004 0.00197318 0.00429232)
(-0.00259842 0.00114915 0.00423737)
(-0.00242837 0.00242792 0.00432455)
(-0.00251865 0.000894385 0.00424751)
(-0.0023801 0.00305754 0.00429776)
(-0.00233188 0.000467271 0.00424799)
(-0.00235925 0.00389508 0.00421111)
(-0.00201167 -8.76949e-05 0.00424642)
(-0.00205621 0.00506806 0.00415229)
(-0.00146642 -0.00113985 0.00428754)
(-0.00085755 0.00647369 0.00431298)
(-4.45492e-05 -0.0033161 0.00406129)
(0.00102435 0.00767639 0.00343438)
(0.00243522 -0.00789108 0.00544992)
(0.00089409 0.00691993 0.0104051)
(-0.00649336 -0.0141128 0.0153266)
(-0.00851394 0.0156898 0.0370552)
(-0.0244588 -0.0329093 0.0540955)
(0.00741978 -0.0064992 0.0915471)
(-0.0353038 -0.114453 0.0839222)
(0.0329299 -0.0427697 -0.165723)
(0.0532115 0.0618292 0.0181588)
(0.096757 0.568138 -0.00325769)
(0.0383939 0.642664 -0.0048957)
(0.0383659 0.600276 0.00488791)
(0.0201528 0.672749 0.00685884)
(0.0117475 0.638287 0.0073178)
(0.00103813 0.654438 0.00543882)
(-0.00495785 0.647746 0.00515553)
(-0.0107095 0.637029 0.00517109)
(-0.0145851 0.653284 0.00601333)
(-0.0171384 0.637657 0.00710213)
(-0.0177347 0.658113 0.00822785)
(-0.0170357 0.663544 0.00898833)
(-0.0146986 0.665595 0.00973537)
(-0.0117538 0.645908 0.0101888)
(-0.00788329 0.632941 0.010817)
(-0.00313198 0.650796 0.0109043)
(0.00117138 0.655697 0.010662)
(0.00522072 0.630662 0.010583)
(0.00936638 0.651675 0.0105135)
(0.0126909 0.640736 0.0101002)
(0.0137081 0.618025 0.00997142)
(0.0140443 0.623331 0.00977181)
(0.0133171 0.616047 0.00937999)
(0.0115067 0.60071 0.00862884)
(0.00921689 0.581838 0.00766457)
(0.00642395 0.550318 0.00708944)
(0.00281122 0.533566 0.00599666)
(-0.00120348 0.505217 0.00504311)
(-0.00609229 0.449034 0.00386994)
(-0.0105204 0.392496 0.00307269)
(-0.0152731 0.339496 0.00280338)
(-0.0200174 0.305761 0.00308967)
(-0.0255702 0.281841 0.00501374)
(-0.031532 0.237769 0.00837906)
(-0.0400069 0.227182 0.0122922)
(-0.0483115 0.297404 0.014533)
(0.012319 0.0177677 0.00455954)
(0.026618 0.0293429 0.00844441)
(0.010041 0.0116152 0.00447769)
(0.0176212 0.0205553 0.00797286)
(0.0104852 0.00501248 0.00523784)
(0.0126717 0.00924497 0.00498117)
(0.00728149 0.000260098 0.00308616)
(0.00610128 0.00389264 0.00168244)
(0.0013649 -0.000311869 0.00176952)
(-0.000479088 0.00160434 0.00269944)
(-0.00233759 -0.00085751 0.00324072)
(-0.00308498 0.000293371 0.00403187)
(-0.00317097 -0.000153805 0.00471242)
(-0.00239634 0.000754364 0.00547716)
(-0.00221086 0.000575462 0.00598381)
(-0.0021834 0.00114368 0.00636458)
(-0.00251435 0.00115319 0.00648537)
(-0.00271374 0.00150157 0.00654057)
(-0.00296155 0.0015513 0.00647624)
(-0.00308977 0.0017226 0.00641298)
(-0.00321361 0.0017565 0.0063232)
(-0.00327842 0.00182535 0.00625338)
(-0.00332477 0.0018426 0.0061877)
(-0.00334327 0.0018667 0.00614156)
(-0.00334198 0.00187902 0.00610631)
(-0.00332297 0.00189103 0.00608348)
(-0.00329429 0.00190054 0.00606699)
(-0.00325863 0.00190867 0.00605655)
(-0.00321986 0.00191472 0.00605085)
(-0.00317749 0.00191973 0.00604864)
(-0.00313345 0.00192589 0.00604925)
(-0.00308667 0.00192208 0.0060523)
(-0.0030442 0.00193511 0.00605813)
(-0.00300756 0.00190588 0.00606308)
(-0.00295687 0.0019887 0.00607696)
(-0.00294356 0.00187271 0.00606857)
(-0.00287213 0.00214247 0.00609282)
(-0.00288861 0.00180631 0.00605772)
(-0.00277821 0.00243144 0.00610331)
(-0.00280422 0.00167356 0.00603703)
(-0.00267203 0.00287185 0.0060966)
(-0.00263447 0.00141604 0.00600639)
(-0.00256199 0.00347554 0.00604915)
(-0.00234932 0.000917654 0.00597371)
(-0.00257278 0.00427151 0.00589861)
(-0.00197519 0.000111686 0.00592573)
(-0.00233627 0.00534593 0.00575111)
(-0.00141126 -0.0013301 0.00598403)
(-0.00126906 0.00681175 0.00629504)
(5.23891e-05 -0.00374836 0.00623678)
(0.000692113 0.00850025 0.00640978)
(0.0043463 -0.00798346 0.00742903)
(0.00139286 0.0084879 0.0118557)
(-0.00656395 -0.0158067 0.0152436)
(-0.0173182 0.0118626 0.0336955)
(-0.0244771 -0.040009 0.0511329)
(-0.00936089 -0.0230261 0.0876305)
(0.0114535 -0.0956287 0.0817154)
(0.00321708 -0.0812571 -0.151869)
(-0.00280114 0.105153 0.0156719)
(-0.00704666 0.609411 -0.00941213)
(0.000332441 0.701939 -0.00443406)
(0.00530525 0.714807 0.00889544)
(0.00586163 0.741779 0.0114981)
(0.00353239 0.742485 0.0127496)
(-0.00108818 0.738005 0.0118457)
(-0.0058205 0.745245 0.011514)
(-0.00907833 0.757167 0.0113364)
(-0.0123169 0.741424 0.0114677)
(-0.0140002 0.744883 0.0118371)
(-0.0141937 0.738427 0.0122482)
(-0.0132881 0.738498 0.0125412)
(-0.0109152 0.733567 0.0129203)
(-0.00720794 0.727334 0.0130648)
(-0.00237794 0.719053 0.0134788)
(0.00237689 0.710901 0.0136371)
(0.00758757 0.705352 0.0138192)
(0.0117866 0.705215 0.0139255)
(0.0160466 0.69972 0.0140159)
(0.0196097 0.695025 0.0140478)
(0.022 0.689982 0.0141641)
(0.022944 0.684991 0.0144197)
(0.0224119 0.678365 0.0148736)
(0.0208122 0.67089 0.015479)
(0.0186095 0.660752 0.0159128)
(0.0157101 0.644639 0.0164921)
(0.0124421 0.633285 0.0167921)
(0.00838026 0.620916 0.0170543)
(0.0043084 0.603913 0.0168779)
(-0.00116995 0.594646 0.0162252)
(-0.00711608 0.563685 0.0150811)
(-0.014376 0.541689 0.0129242)
(-0.021898 0.519793 0.00990265)
(-0.030393 0.484508 0.00413281)
(-0.0416616 0.473304 -0.00845112)
(-0.0494252 0.454258 -0.0263191)
(0.00125067 0.0140714 -0.00693925)
(0.0241314 0.0315452 0.00548614)
(0.00342227 0.0107675 0.00189469)
(0.0131142 0.0235149 0.00583704)
(0.0060606 0.00596575 0.00367647)
(0.00889894 0.0110636 0.00362371)
(0.00385549 0.000596863 0.00192484)
(0.00335157 0.00456441 0.000231968)
(-0.00071666 -3.05747e-05 -0.000653325)
(-0.00245471 0.00202119 -0.000418148)
(-0.00452497 -0.00085916 4.16555e-05)
(-0.00548842 0.000109588 0.000604303)
(-0.00640976 -0.00106386 0.00130103)
(-0.00607446 -0.000123806 0.00203378)
(-0.00638681 -0.000171702 0.00268087)
(-0.00649572 0.000697454 0.00313613)
(-0.00695506 0.000858802 0.0034222)
(-0.00718035 0.00138117 0.00359608)
(-0.00744335 0.00151902 0.00366069)
(-0.00755672 0.00178263 0.00369059)
(-0.00765574 0.00187655 0.00367969)
(-0.00769473 0.00199032 0.00367314)
(-0.00771224 0.00203861 0.003664)
(-0.00770582 0.00208163 0.0036658)
(-0.00768149 0.00210552 0.00367266)
(-0.00763893 0.00212572 0.00368633)
(-0.00757907 0.00214026 0.00370336)
(-0.00750639 0.00215186 0.00372356)
(-0.00743023 0.00216127 0.00374475)
(-0.00735044 0.00216937 0.00376548)
(-0.00726906 0.00217834 0.00378508)
(-0.00718491 0.00218111 0.00380333)
(-0.00711726 0.00219798 0.00382021)
(-0.00705371 0.00218222 0.00383505)
(-0.00700045 0.00225895 0.00384989)
(-0.00693915 0.00217171 0.00385312)
(-0.00689846 0.00241637 0.00386232)
(-0.00681225 0.00213265 0.0038488)
(-0.00679769 0.00271473 0.00385018)
(-0.00664335 0.00204032 0.00382066)
(-0.0067111 0.00317543 0.00381546)
(-0.00643271 0.00179118 0.00377476)
(-0.0066357 0.0037574 0.00375044)
(-0.00613347 0.00126394 0.00371145)
(-0.00656277 0.00455649 0.0035988)
(-0.00574977 0.000390129 0.00359473)
(-0.00616419 0.0056856 0.00339357)
(-0.00517004 -0.00128713 0.00351977)
(-0.00508756 0.00722026 0.00400413)
(-0.00375399 -0.00447945 0.00382837)
(-0.00361118 0.00885659 0.00458015)
(0.000887439 -0.00863596 0.00584165)
(-0.00490728 0.0112135 0.00819173)
(-0.0112262 -0.0168609 0.0105902)
(-0.024243 0.0179087 0.0250763)
(-0.0196256 -0.0524578 0.039884)
(-0.0289437 -0.0238645 0.0664972)
(0.0480866 -0.125588 0.0691445)
(-0.0333912 -0.0246766 -0.167646)
(-0.0534368 0.0485752 0.00627698)
(-0.117034 0.52668 -0.0231367)
(-0.0372222 0.611554 -0.00708789)
(-0.0287842 0.601738 0.00372692)
(-0.0104049 0.635556 0.00770269)
(-0.00760976 0.635335 0.00870582)
(-0.00694948 0.617881 0.00857695)
(-0.00979859 0.637478 0.00852222)
(-0.0118477 0.636898 0.00854878)