/*--------------------------------*- C++ -*----------------------------------*\
| =========                 |                                                 |
| \\      /  F ield         | OpenFOAM: The Open Source CFD Toolbox           |
|  \\    /   O peration     | Version:  2.3.0                                 |
|   \\  /    A nd           | Web:      www.OpenFOAM.org                      |
|    \\/     M anipulation  |                                                 |
\*---------------------------------------------------------------------------*/
FoamFile
{
    version     2.0;
    format      ascii;
    class       volVectorField;
    location    "30";
    object      U.air;
}
// * * * * * * * * * * * * * * * * * * * * * * * * * * * * * * * * * * * * * //

dimensions      [0 1 -1 0 0 0 0];

internalField   nonuniform List<vector> 
6144
(
(0.0109657 0.018812 0.000614161)
(0.0105938 -0.00689517 -0.000986667)
(0.00449738 -0.00645045 -0.00273898)
(0.00408871 -0.00549894 -0.00250379)
(0.00249197 -0.0041182 -0.00227998)
(0.00294459 -0.00131271 -0.00217256)
(0.00241049 -0.000433108 -0.0015022)
(0.00243249 0.00107574 -0.000723787)
(0.00187759 0.000965532 -0.000129658)
(0.0015447 0.00225975 0.00036732)
(0.00126538 0.00314089 0.000782682)
(0.00130478 0.00383363 0.00118256)
(0.00146997 0.00387649 0.00135137)
(0.00164435 0.00337971 0.00163853)
(0.00176664 0.00252881 0.00156508)
(0.00187472 0.00169093 0.00141271)
(0.00193915 0.000909037 0.00112127)
(0.00200671 0.000344091 0.000857568)
(0.00206627 -6.56931e-05 0.000571661)
(0.00211612 -0.000275298 0.000335282)
(0.00214319 -0.000385754 0.000186483)
(0.00215408 -0.000386183 0.000107461)
(0.0021487 -0.000341318 7.96303e-05)
(0.00213065 -0.00025832 9.33696e-05)
(0.00210156 -0.00016424 0.000138192)
(0.00206491 -6.66073e-05 0.000208204)
(0.00202002 2.33348e-05 0.000307976)
(0.00196793 0.000104821 0.000436671)
(0.00191534 0.000175584 0.000573627)
(0.00186515 0.000220569 0.000708626)
(0.00180978 0.000224613 0.000852486)
(0.00174565 0.000189424 0.000997635)
(0.00166948 0.000128833 0.00114318)
(0.00158481 5.18179e-05 0.00130633)
(0.00150211 -6.89375e-05 0.00150882)
(0.00143083 -0.000298118 0.00175033)
(0.00137736 -0.000687638 0.00198084)
(0.0013488 -0.00120943 0.00209867)
(0.00134011 -0.00174899 0.00203636)
(0.00133225 -0.00217914 0.00177266)
(0.00130912 -0.00225341 0.00130904)
(0.00125661 -0.00176368 0.000642179)
(0.00112348 -0.000447272 -3.7594e-05)
(0.00100615 0.00179489 -0.000556519)
(0.00123405 0.00424106 -0.000937725)
(0.00219028 0.00587719 -0.00156815)
(0.00437501 0.0078645 -0.00329416)
(0.00783912 0.00946291 -0.0064342)
(0.00621211 0.0128728 -0.00874638)
(0.00354813 0.022914 -0.00847265)
(0.0226215 0.0227753 -0.0134315)
(0.0302679 0.00981122 -0.0203289)
(0.0419436 0.0148783 -0.0350096)
(0.060669 -0.0113505 -0.0370905)
(0.0612457 -0.0207623 -0.0389817)
(0.0697711 -0.0793295 -0.026682)
(0.0180097 -0.020385 -0.0210257)
(-0.00757732 -0.117762 0.0402223)
(-0.0571036 0.0265617 -0.0625444)
(0.026255 0.108471 0.0460974)
(0.105293 0.318323 0.0570354)
(0.0493067 0.381107 0.00784149)
(0.0467463 -0.161902 0.01281)
(0.0457675 -0.174947 0.010738)
(0.0388321 -0.176826 0.0122728)
(0.0361207 -0.171182 0.0110444)
(0.0293854 -0.168826 0.00888459)
(0.0236692 -0.164976 0.0144339)
(0.0186177 -0.159761 0.0171001)
(0.0144229 -0.152221 0.0185419)
(0.0117387 -0.139209 0.0179208)
(0.00791413 -0.133642 0.0172432)
(0.00625974 -0.122635 0.0151736)
(0.00229447 -0.117873 0.0176979)
(-0.000230542 -0.106643 0.0149123)
(-0.00707082 -0.0826445 0.0126594)
(-0.0110012 -0.048628 0.00458302)
(-0.0263907 -0.00589044 -0.00190156)
(-0.0222616 0.0200148 -0.000518312)
(0.00373983 0.0255968 -0.00100805)
(0.0147444 0.0191437 -0.00528591)
(0.0162853 0.0121187 -0.0101846)
(0.0179713 0.00534445 -0.0140816)
(0.012577 0.000985371 -0.0154583)
(-0.00349572 0.00761064 -0.00590131)
(-0.00497466 0.0431222 -0.00702216)
(0.00246801 0.0575957 -0.00441321)
(0.00541307 0.0635555 -0.00819478)
(0.0030055 0.0692656 -0.0136239)
(-0.00359335 0.0873504 -0.00373664)
(-0.00506061 0.1111 0.0245363)
(-0.00738876 0.115902 0.0413438)
(-0.00936555 0.122102 0.0452289)
(-0.0047293 0.11232 0.0598951)
(-0.0037791 0.0777896 0.0707884)
(-0.0103683 0.0308926 0.0799999)
(0.0217139 0.0183759 0.00363081)
(0.0230369 0.00319593 0.00260207)
(0.00973327 0.000755052 -0.00137203)
(0.0099323 0.00138321 -0.000987071)
(0.00585532 -0.000723922 4.11541e-05)
(0.00552269 0.000606679 0.0012862)
(0.00364719 -0.000724722 0.00233692)
(0.00338364 0.00104249 0.0024764)
(0.00247431 0.00139241 0.00258136)
(0.00191187 0.00355729 0.00282283)
(0.001653 0.00447335 0.0032663)
(0.00195911 0.0051542 0.0037782)
(0.00245059 0.00500237 0.00403418)
(0.00297096 0.00449009 0.0042294)
(0.00323931 0.00355791 0.00423333)
(0.00343984 0.00264718 0.00420312)
(0.003495 0.00172514 0.00411601)
(0.00356333 0.00102633 0.00403693)
(0.00360748 0.000468275 0.00395064)
(0.00366771 0.00014352 0.00382585)
(0.00369585 -6.15819e-05 0.00373782)
(0.00368739 -0.000135987 0.00370375)
(0.00364894 -0.000146447 0.00371504)
(0.00358549 -9.77977e-05 0.00376405)
(0.00350418 -2.54022e-05 0.00384068)
(0.00340849 6.14409e-05 0.00393908)
(0.00329948 0.000146942 0.00405384)
(0.00317864 0.000227944 0.00418124)
(0.00306138 0.000294176 0.00429333)
(0.00296799 0.000326312 0.00437547)
(0.00287684 0.000307554 0.00446141)
(0.00277499 0.000241398 0.00454414)
(0.0026549 0.00014019 0.00462373)
(0.00253381 1.63939e-05 0.00470614)
(0.0024437 -0.000145547 0.00479707)
(0.00241249 -0.000386897 0.0048961)
(0.00243957 -0.000718312 0.0049753)
(0.00248411 -0.00111472 0.00501853)
(0.00249728 -0.00148776 0.00500672)
(0.0024113 -0.00172505 0.00494954)
(0.00215584 -0.00167248 0.00485083)
(0.00174983 -0.00116901 0.00453845)
(0.00125813 -0.000100019 0.00386656)
(0.00113728 0.00116722 0.0034013)
(0.00213336 0.00148867 0.00297676)
(0.00389335 0.000602108 0.00170249)
(0.00569633 0.00155571 -0.000686596)
(0.00969412 0.00711943 -0.00459508)
(0.0108458 0.0229586 -0.00619218)
(0.015026 0.0303765 -0.00130631)
(0.0325856 0.017816 -0.00209238)
(0.0415481 0.0211259 -0.0109088)
(0.0780847 0.0384809 -0.0213028)
(0.120711 0.0388339 -0.0213985)
(0.120465 0.0449247 -0.0177654)
(0.0794463 -0.0116796 -0.000804292)
(0.0601293 0.0928414 0.0295392)
(0.0117148 -0.15644 0.083225)
(-0.107744 0.0322405 -0.058224)
(0.0165725 0.0516887 0.0217176)
(0.107642 0.359702 0.0820788)
(0.0244345 0.443552 -0.00377402)
(-0.00306161 -0.0703831 0.00440343)
(0.0141086 0.0472406 -0.000676658)
(0.00369207 0.0123418 0.0034704)
(0.00778276 0.055947 0.00342252)
(0.00711898 0.0624995 -0.00369376)
(0.00556344 0.0801225 -0.00889182)
(0.00752654 0.0920139 -0.0201114)
(0.00682216 0.104958 -0.0212708)
(0.00880291 0.114989 -0.0153631)
(0.0100098 0.118114 -0.0116851)
(0.00761857 0.112969 -0.00576643)
(-0.00672594 0.086164 -0.00865441)
(-0.0190974 0.0659185 -0.0178476)
(-0.0290481 0.0601358 -0.0164744)
(-0.0299261 0.0590467 -0.0117866)
(-0.00798415 0.0604432 -0.00914376)
(0.0225037 0.057888 -0.00453729)
(0.0339506 0.0464832 -0.00113812)
(0.0433992 0.0455905 0.000284239)
(0.047204 0.0372389 -0.000628191)
(0.0432272 0.0288203 -0.00246831)
(0.0292051 0.0219743 -0.00833292)
(-0.00167994 0.0127434 -0.0219941)
(-0.0123516 0.0213615 -0.0294718)
(-0.00213752 0.0404983 -0.0186367)
(0.0104269 0.0496683 -0.00740384)
(0.0144635 0.0611491 -0.00955504)
(0.00368361 0.0706414 -0.0112716)
(-0.0086763 0.0902608 0.0116634)
(-0.0123928 0.1016 0.0348042)
(-0.0177155 0.103014 0.0484771)
(-0.0162635 0.0885805 0.0618595)
(-0.0168957 0.066681 0.0793017)
(-0.022715 0.0312874 0.0937054)
(0.0249638 0.0195447 0.00494187)
(0.0264347 0.0104605 0.00514369)
(0.0139875 0.0056473 0.00252666)
(0.0126363 0.00623292 0.00289824)
(0.00702897 0.00296064 0.00360257)
(0.00561657 0.00328665 0.0039376)
(0.00262534 0.000345498 0.00402036)
(0.0018025 0.00125491 0.00359658)
(0.000326965 0.00168271 0.00345157)
(0.000152856 0.00375245 0.00372038)
(0.000125562 0.00434963 0.00412643)
(0.000739949 0.00501529 0.00458163)
(0.00133599 0.00483231 0.0047925)
(0.00198594 0.00461743 0.00493224)
(0.00239313 0.00396302 0.00489502)
(0.00270216 0.00330521 0.0048601)
(0.00277864 0.00254116 0.00480738)
(0.00284181 0.00192748 0.00477742)
(0.00283117 0.00135444 0.00475836)
(0.00278775 0.000934537 0.00476293)
(0.00271831 0.000613461 0.00478823)
(0.00263512 0.000413463 0.00482837)
(0.00253599 0.000289476 0.00487695)
(0.00242552 0.00024072 0.00493438)
(0.00230881 0.000233053 0.00499801)
(0.00218685 0.00025254 0.00506406)
(0.00205876 0.000277018 0.00513198)
(0.00192645 0.000293861 0.0052028)
(0.00179202 0.000287003 0.0052784)
(0.0016639 0.000253016 0.00536239)
(0.00153934 0.000191582 0.00544609)
(0.00139554 0.000101769 0.0055247)
(0.00122079 -6.83661e-06 0.00560115)
(0.00103615 -0.000132112 0.00567531)
(0.000895534 -0.000262758 0.00574734)
(0.000831735 -0.000377246 0.00580968)
(0.000825747 -0.000428484 0.00584693)
(0.000843137 -0.000398408 0.00585794)
(0.000805915 -0.000260067 0.00584713)
(0.000680351 1.04131e-06 0.00584453)
(0.000423974 0.00036978 0.0058381)
(3.74738e-07 0.000800255 0.00579096)
(-0.000447941 0.00121593 0.00566933)
(-0.000256571 0.00117193 0.00551257)
(0.000932645 0.000243996 0.0054293)
(0.0025584 -0.000422598 0.00484739)
(0.00452217 0.000509748 0.00343706)
(0.00801753 0.00149853 0.000209197)
(0.00916085 0.0122516 0.000293613)
(0.0163293 0.0142193 0.00721656)
(0.0339037 0.00975794 0.00357613)
(0.0430676 0.02746 0.00169106)
(0.0968446 0.0413595 -0.0139182)
(0.162565 0.076888 -0.0223773)
(0.166444 0.100803 -0.0205843)
(0.140106 0.0750061 0.02215)
(0.117275 0.1045 0.0494468)
(0.0792631 -0.154087 0.10021)
(-0.169211 0.0775885 -0.026477)
(0.0415707 0.0194092 -0.00289154)
(0.143177 0.415934 0.0784191)
(0.0649283 0.524449 -0.0174302)
(0.0499667 -0.0398616 -0.0339319)
(0.0287869 0.0978836 -0.0322923)
(0.0432237 0.0656919 -0.0237337)
(0.0330982 0.112041 -0.023992)
(0.0269987 0.124622 -0.0270772)
(0.0247615 0.140804 -0.0211908)
(0.0327231 0.150171 -0.0156684)
(0.0341871 0.158865 -0.0143206)
(0.0327071 0.164507 -0.00912798)
(0.0339228 0.166477 -0.00213483)
(0.0380779 0.160872 0.00210541)
(0.0360746 0.149683 -0.00216108)
(0.0268646 0.134807 -0.00800672)
(0.019661 0.115879 -0.00407751)
(0.0184011 0.0950306 0.00252558)
(0.0262475 0.0785357 0.0104767)
(0.0397603 0.0685149 0.0145723)
(0.0465613 0.05969 0.0134804)
(0.0524663 0.0471295 0.0117991)
(0.0527053 0.0402755 0.00997189)
(0.0469877 0.026548 0.00931276)
(0.0375751 0.0140023 0.0105217)
(0.021348 -0.00186703 0.00974387)
(0.0036221 -0.0239299 -0.00279101)
(-0.00912312 -0.0164868 -0.0160086)
(-0.0138385 -0.00514647 -0.0122396)
(-0.00848555 0.0164059 -0.0112596)
(-0.00866153 0.0471103 -0.018421)
(-0.0185719 0.0614834 0.000358019)
(-0.0205141 0.0769287 0.0319363)
(-0.0235721 0.0781203 0.0495552)
(-0.0289435 0.063514 0.0645362)
(-0.0386787 0.0505266 0.0793737)
(-0.0561492 0.0271997 0.0915925)
(0.0259533 0.0195383 0.00522035)
(0.0290511 0.0143127 0.00598608)
(0.0153565 0.0072926 0.0030505)
(0.0141336 0.00885053 0.00310792)
(0.00716457 0.00441566 0.00428054)
(0.00672782 0.00540121 0.00442277)
(0.00253995 0.000943678 0.00475717)
(0.000942231 0.0013002 0.00391604)
(-0.00124097 0.000412141 0.00372813)
(-0.00127284 0.00221911 0.00386935)
(-0.00136343 0.00268506 0.00437006)
(-0.000745401 0.00388883 0.00497547)
(-0.000141983 0.00420352 0.00515273)
(0.000569802 0.00442002 0.00527995)
(0.00103531 0.00400917 0.00518585)
(0.00136443 0.00353317 0.00514335)
(0.00142508 0.00288327 0.00510584)
(0.00147315 0.00237803 0.00510477)
(0.00145677 0.00186406 0.00509582)
(0.00140019 0.0014362 0.00509079)
(0.00130156 0.0010579 0.00509504)
(0.00117521 0.000776005 0.00511233)
(0.00102947 0.00056353 0.00514141)
(0.000875818 0.000428351 0.0051827)
(0.00072531 0.000347461 0.00523449)
(0.000582501 0.000305258 0.0052957)
(0.000444605 0.000280167 0.00536322)
(0.000312977 0.000260765 0.00543503)
(0.000191771 0.000233988 0.005509)
(8.59088e-05 0.000192355 0.00558449)
(-1.19264e-05 0.000136019 0.00565442)
(-0.000120987 7.29483e-05 0.00571792)
(-0.000247374 1.31608e-05 0.00578041)
(-0.000369993 -3.59799e-05 0.00583549)
(-0.000457122 -6.32118e-05 0.00586715)
(-0.000508628 -4.06114e-05 0.00585365)
(-0.000535369 7.13593e-05 0.0057976)
(-0.000558416 0.000267175 0.0057375)
(-0.000638258 0.000525071 0.00571251)
(-0.000815314 0.000821812 0.00576977)
(-0.00112005 0.00117811 0.00586952)
(-0.00147958 0.00154343 0.0059278)
(-0.0016512 0.00179055 0.00592631)
(-0.00124312 0.0015603 0.00595134)
(-0.000395061 0.000726471 0.00623595)
(0.00100094 0.000383432 0.00606549)
(0.00473754 0.000333918 0.00411655)
(0.00837143 -0.00231518 -0.00239628)
(0.011 -0.00152211 0.000379617)
(0.0139522 -0.00595537 0.0135796)
(0.0162161 -0.00228048 0.020553)
(0.0231687 0.0234329 0.0177417)
(0.0922284 0.0561087 -0.0129552)
(0.155701 0.128997 -0.0273443)
(0.156661 0.172863 -0.0291073)
(0.113091 0.185511 0.0060142)
(0.0733667 0.158054 0.00965813)
(-0.022106 0.0269796 0.00111502)
(-0.262522 0.274995 -0.0495515)
(0.039083 -0.0787525 0.0298637)
(0.117289 0.495004 0.0765373)
(0.0382977 0.6611 -0.030688)
(0.036701 0.601374 -0.031358)
(0.0224856 0.669027 -0.0313095)
(0.0320642 0.677382 -0.0224213)
(0.0309264 0.707438 -0.0235393)
(0.0352007 0.7129 -0.0252284)
(0.0349992 0.713493 -0.0242312)
(0.0334903 0.70152 -0.01995)
(0.0277414 0.658812 -0.0161185)
(0.0242015 0.48705 -0.0114735)
(0.0214567 0.192614 -0.00750196)
(0.0222832 0.164762 0.0100156)
(0.0228039 0.155022 0.0224706)
(0.0290785 0.140906 0.0273818)
(0.0322311 0.131203 0.0274292)
(0.0326722 0.116387 0.0275812)
(0.0346117 0.0971311 0.0308281)
(0.0327181 0.0781365 0.0275759)
(0.0392547 0.0638396 0.021811)
(0.04064 0.0514752 0.0188626)
(0.0422348 0.039974 0.014937)
(0.0345573 0.0282402 0.0152682)
(0.0233556 0.0173684 0.0179299)
(0.00706749 0.00864838 0.0231299)
(-0.0115043 -0.00613662 0.0192346)
(-0.0250102 -0.00663112 -0.00431736)
(-0.030255 0.00505757 -0.00950038)
(-0.0361512 0.0252611 -0.0122136)
(-0.0292171 0.0414318 -0.0161461)
(-0.0282502 0.0558872 -0.00766141)
(-0.0314111 0.0710677 0.020842)
(-0.0324263 0.0717279 0.0433152)
(-0.0414737 0.0530404 0.0596305)
(-0.058826 0.0413348 0.0734987)
(-0.0722297 0.0184835 0.086996)
(0.026021 0.0195177 0.00463698)
(0.0303519 0.0169845 0.00561624)
(0.0175861 0.00784182 0.000702858)
(0.0164389 0.0102327 0.000644761)
(0.00745215 0.00420671 0.00304182)
(0.00735627 0.00637842 0.00338219)
(0.00238867 0.00181405 0.00459237)
(0.000528825 0.00258351 0.00402326)
(-0.00243897 -0.000411973 0.00386779)
(-0.00309965 0.000699864 0.00380933)
(-0.00371526 0.000779781 0.00421621)
(-0.00330454 0.00258729 0.00492151)
(-0.00266901 0.00342579 0.00509472)
(-0.00171446 0.00408269 0.00524251)
(-0.00108243 0.00392479 0.00511452)
(-0.000730898 0.00352268 0.00508099)
(-0.000798227 0.00291706 0.00505093)
(-0.000898213 0.00246579 0.00507253)
(-0.00102088 0.00201505 0.00507022)
(-0.00114009 0.00161797 0.00504992)
(-0.00128784 0.00123378 0.00502627)
(-0.00143221 0.000918967 0.00500816)
(-0.0015779 0.00065339 0.00500144)
(-0.00173075 0.000457556 0.00500676)
(-0.00187795 0.000318663 0.00502447)
(-0.0020123 0.000226635 0.00505783)
(-0.00213606 0.00016098 0.00510308)
(-0.00224482 0.000112104 0.00515647)
(-0.0023348 6.70334e-05 0.00521182)
(-0.00240767 2.32658e-05 0.00525755)
(-0.00247774 -1.15599e-05 0.00529006)
(-0.00256655 -3.68068e-05 0.00531418)
(-0.00268646 -4.2641e-05 0.00533956)
(-0.00281301 -1.07462e-05 0.00535161)
(-0.00290493 7.09507e-05 0.00532394)
(-0.00296158 0.000217516 0.00523819)
(-0.00298181 0.000441522 0.00512222)
(-0.0029888 0.000743126 0.00501623)
(-0.00308225 0.00112864 0.00498)
(-0.00331797 0.001561 0.00506547)
(-0.00368345 0.00198677 0.00520293)
(-0.00402372 0.00226976 0.00527095)
(-0.0041335 0.00239245 0.00525592)
(-0.0036286 0.00211177 0.00541819)
(-0.00279568 0.00146328 0.00617807)
(-0.00093215 0.00113728 0.00646633)
(0.00569842 0.000240431 0.00434364)
(0.0144348 -0.00322303 -0.00189716)
(0.0151559 -0.0102908 0.00651791)
(0.0127244 -0.0108206 0.0313518)
(0.00948752 -0.0103638 0.04595)
(0.00762357 0.0163522 0.0191204)
(0.0693043 0.0669435 0.00812838)
(0.124846 0.144015 0.0161224)
(0.128303 0.194449 0.00989091)
(0.10688 0.242406 -0.00428611)
(0.0611166 0.249968 -0.028056)
(0.00338542 0.173604 -0.0497091)
(-0.125355 0.374015 -0.070882)
(0.0325457 -0.105496 0.049889)
(0.110732 0.523328 0.095509)
(0.0365477 0.664907 -0.0209231)
(0.0489645 0.615849 -0.0184961)
(0.041494 0.702089 -0.0184594)
(0.0343425 0.721594 -0.00926853)
(0.0376198 0.756547 -0.00737916)
(0.0447351 0.764768 0.00583236)
(0.0454091 0.772077 0.00981624)
(0.0467326 0.76707 0.0188163)
(0.0429476 0.762252 0.0226221)
(0.0366032 0.75867 0.024517)
(0.0311472 0.752031 0.0250637)
(0.0276601 0.741329 0.0284931)
(0.0261284 0.732637 0.0313349)
(0.0259124 0.721063 0.032498)
(0.0287784 0.707623 0.0290301)
(0.0303197 0.695067 0.0257716)
(0.0298956 0.679066 0.0205659)
(0.0315737 0.661582 0.0127625)
(0.0316684 0.634437 0.00394383)
(0.0346699 0.578041 -0.0049051)
(0.0326649 0.403311 -0.0145812)
(0.0306074 0.096597 -0.0175124)
(0.0149328 0.0666432 -0.0180175)
(0.000391763 0.0552144 -0.00764146)
(-0.0182218 0.0270125 0.0027574)
(-0.0299312 0.0163104 -0.00466675)
(-0.0337712 0.0205997 -0.00494723)
(-0.0330531 0.0284861 -0.00751573)
(-0.0220226 0.0355924 -0.00967841)
(-0.0221215 0.0497003 -0.00772296)
(-0.0296038 0.0643463 0.0113714)
(-0.0317408 0.0615621 0.038529)
(-0.0457717 0.0389287 0.0590342)
(-0.0717811 0.0325958 0.0681301)
(-0.10113 0.00969446 0.07881)
(0.025215 0.0188273 0.00322016)
(0.0316307 0.0205566 0.00536884)
(0.0200243 0.00884554 -0.000934767)
(0.0197431 0.0121301 -0.00128823)
(0.00821883 0.00217962 -0.000199522)
(0.00744396 0.00640169 0.000835718)
(0.00170272 0.00246627 0.00330353)
(0.000525754 0.00427062 0.00360916)
(-0.00221925 -5.35189e-05 0.00360286)
(-0.00393603 0.000138736 0.00332531)
(-0.0050128 -0.000714762 0.00347352)
(-0.00496057 0.00131065 0.00421457)
(-0.00400924 0.00263865 0.00456216)
(-0.00268858 0.00364572 0.00500066)
(-0.00166284 0.00349314 0.00513974)
(-0.00119461 0.00315766 0.00527366)
(-0.00134096 0.00255309 0.00526501)
(-0.00158411 0.00218793 0.0052654)
(-0.00182117 0.00187066 0.00522417)
(-0.00202142 0.00162328 0.00515057)
(-0.00222527 0.0013624 0.00505586)
(-0.00241826 0.0011282 0.0049537)
(-0.00261661 0.000904 0.00485449)
(-0.00280046 0.000710111 0.00477149)
(-0.00295707 0.000547894 0.00470709)
(-0.00307802 0.000428297 0.00466403)
(-0.00317155 0.000349024 0.00463977)
(-0.00324034 0.00030298 0.00462747)
(-0.00328545 0.00027815 0.0046183)
(-0.00332407 0.00026545 0.00460037)
(-0.00336202 0.000261119 0.00457761)
(-0.00341833 0.00026909 0.00455809)
(-0.00350081 0.000308787 0.00454609)
(-0.00358298 0.000403452 0.00451971)
(-0.00364058 0.000564935 0.00444908)
(-0.00369113 0.000796303 0.00432738)
(-0.00376442 0.00108231 0.00415568)
(-0.00391978 0.00139873 0.00395651)
(-0.0041765 0.00177725 0.00381382)
(-0.00445115 0.00222567 0.00380491)
(-0.00468547 0.00269824 0.00385208)
(-0.00480134 0.00291289 0.00379172)
(-0.00457435 0.00271162 0.00371933)
(-0.00371201 0.00197775 0.00423484)
(-0.003023 0.00140416 0.00523544)
(-0.000529884 0.00168877 0.00580518)
(0.00758815 0.00186248 0.00354501)
(0.0183209 0.000960941 -0.0013767)
(0.0198905 0.00483406 0.00374526)
(0.00862913 -0.0079888 0.0247285)
(-0.00330966 0.00155349 0.0445665)
(-0.0104574 0.00823563 0.0310637)
(0.0299489 0.0585991 0.0116368)
(0.0842932 0.123301 0.0297463)
(0.0919484 0.152321 0.0410693)
(0.0733995 0.196054 0.0315958)
(0.0579215 0.218333 0.0186622)
(0.0672068 0.100942 0.0134707)
(0.0672472 0.381325 0.0059068)
(0.0196285 -0.104094 0.0466984)
(0.0440775 0.544948 0.108544)
(-0.00797479 0.665475 -0.0253462)
(0.010462 0.626853 -0.014444)
(0.0151051 0.753643 -0.0100149)
(-0.00241707 0.777557 0.0048121)
(0.0196343 0.801462 0.0126985)
(0.0259738 0.808586 0.0239591)
(0.029889 0.814695 0.0262509)
(0.0339704 0.809132 0.0286407)
(0.0358641 0.804238 0.0280014)
(0.0338043 0.797935 0.0281551)
(0.0304579 0.791814 0.0265149)
(0.0263667 0.781979 0.0264788)
(0.0239152 0.769077 0.0274875)
(0.0225971 0.754783 0.0291332)
(0.0229373 0.739218 0.0301416)
(0.0258888 0.721966 0.0313973)
(0.0292546 0.703935 0.0299864)
(0.0340935 0.687057 0.0237975)
(0.0384338 0.671388 0.0158387)
(0.041176 0.656409 0.0048194)
(0.038601 0.646305 -0.00753418)
(0.0298921 0.635929 -0.0173366)
(0.0178356 0.615468 -0.0222783)
(0.00713234 0.563323 -0.0192827)
(-0.0137995 0.37336 -0.0137204)
(-0.0249169 0.0625826 -0.011357)
(-0.0351508 0.0295635 -0.00942387)
(-0.0322053 0.0281236 -0.00918201)
(-0.0235504 0.03136 -0.00829091)
(-0.0230029 0.043533 -0.0125003)
(-0.0310818 0.0570413 -0.00139979)
(-0.0331838 0.0507872 0.0303064)
(-0.0560562 0.0368117 0.051089)
(-0.0890436 0.0323856 0.0620164)
(-0.113752 0.0112292 0.076238)
(0.0231086 0.0183485 0.00219356)
(0.0329097 0.0252425 0.0062408)
(0.0228946 0.0110352 0.000523065)
(0.0235976 0.0147203 0.00105153)
(0.0107077 -0.00126342 -0.00296588)
(0.00628427 0.00455807 -0.00194169)
(0.000325762 0.00132634 0.00155265)
(3.6059e-05 0.00516847 0.00286482)
(-0.00242287 0.000837707 0.00289993)
(-0.00479462 0.000870132 0.0028443)
(-0.00701223 -0.000834613 0.00271993)
(-0.00810803 0.000836433 0.0034563)
(-0.00713856 0.00205749 0.00414606)
(-0.00498128 0.00299014 0.00521819)
(-0.00375397 0.00285545 0.00578367)
(-0.00334815 0.00263452 0.00614555)
(-0.00373123 0.00209721 0.00616575)
(-0.00430216 0.00180879 0.00608463)
(-0.00476667 0.00160187 0.00592414)
(-0.00505478 0.00151068 0.00571598)
(-0.00527876 0.00142719 0.00550208)
(-0.00543471 0.00136879 0.00530116)
(-0.00555479 0.00128723 0.00511783)
(-0.00566212 0.00119852 0.00497428)
(-0.00576177 0.00111151 0.00487155)
(-0.00585786 0.00103992 0.00479603)
(-0.00592471 0.000987725 0.00473098)
(-0.00595616 0.000963244 0.00468474)
(-0.00594554 0.000966923 0.00466192)
(-0.0059021 0.000984096 0.00465785)
(-0.00586184 0.000998405 0.00466552)
(-0.00586536 0.00103123 0.00468314)
(-0.0059338 0.00112163 0.00470407)
(-0.00603708 0.00129019 0.0046951)
(-0.00611976 0.0015329 0.0046378)
(-0.00617655 0.00182476 0.0045394)
(-0.00619476 0.0021277 0.00440764)
(-0.00625292 0.00237149 0.00422492)
(-0.00648666 0.00254004 0.0039621)
(-0.00682993 0.00273316 0.00369183)
(-0.00701316 0.00303183 0.00348464)
(-0.00658836 0.00318915 0.00331864)
(-0.00560525 0.00283352 0.0032712)
(-0.00483333 0.0021202 0.00367932)
(-0.00478999 0.00203597 0.0044311)
(-0.00256585 0.0030341 0.00455101)
(0.00539065 0.00479219 0.00355787)
(0.0160072 0.00589677 0.00256799)
(0.0220966 0.0120321 -0.000771065)
(0.00809592 0.00431388 0.0157389)
(-0.0238854 0.00112917 0.0397817)
(-0.0379614 0.00418626 0.0242122)
(0.000468469 0.0759806 -0.000779481)
(0.0520319 0.130537 0.0271929)
(0.0675358 0.14081 0.0404483)
(0.0837013 0.144953 0.031118)
(0.0696797 0.179754 0.00834697)
(0.100004 0.0321706 -0.0072958)
(0.0949093 0.338547 -0.0151346)
(-0.0189549 -0.0742007 0.0552158)
(0.00626493 0.526974 0.11842)
(-0.0289063 0.651065 -0.0182662)
(-0.0367971 0.602911 -0.0259914)
(-0.037731 0.779746 -0.0441492)
(-0.00825383 0.809136 -0.000385071)
(0.0161985 0.816634 0.00719626)
(0.0261153 0.828866 0.0174463)
(0.0311626 0.824787 0.0270713)
(0.0357119 0.818914 0.030146)
(0.0359798 0.817614 0.0331132)
(0.0331038 0.809554 0.0350016)
(0.0299855 0.799786 0.0346586)
(0.0282852 0.792637 0.0351284)
(0.0263155 0.782364 0.0359264)
(0.025891 0.768521 0.0365967)
(0.0273306 0.753095 0.0385682)
(0.0303939 0.736652 0.0391522)
(0.034646 0.719375 0.037904)
(0.0413857 0.703961 0.0333992)
(0.0482556 0.691445 0.0262497)
(0.0516189 0.680836 0.0145296)
(0.0491701 0.678438 0.00219119)
(0.042877 0.677465 -0.0111419)
(0.0363687 0.675845 -0.017596)
(0.0304351 0.669189 -0.018066)
(0.0184321 0.656013 -0.0153565)
(6.30471e-05 0.62348 -0.0106807)
(-0.0126766 0.583212 -0.00985986)
(-0.0169452 0.563349 -0.00933912)
(-0.0182013 0.552378 -0.00421864)
(-0.0227622 0.532131 -0.00551633)
(-0.0290474 0.482598 0.000767318)
(-0.0380472 0.31637 0.0139354)
(-0.058752 0.0501708 0.036956)
(-0.0950523 0.0248943 0.0463778)
(-0.131022 0.00707404 0.0596568)
(0.0239107 0.0146617 0.000454516)
(0.0327294 0.0288977 0.00716638)
(0.0243468 0.0142421 0.0017325)
(0.0266465 0.0187409 0.00270629)
(0.016429 -0.000587699 -0.0040138)
(0.00466633 0.00260477 -0.0050459)
(-0.00242745 -0.0011477 -0.000285183)
(-0.00171595 0.00432453 0.00189094)
(-0.00228695 0.00109289 0.00308946)
(-0.0045559 0.00245807 0.00322508)
(-0.00675455 0.0002127 0.00301164)
(-0.00823887 0.00089588 0.00393301)
(-0.00703419 0.000475505 0.0048933)
(-0.00480684 0.000874225 0.00628074)
(-0.00356186 0.000829083 0.00728897)
(-0.00309373 0.00118076 0.00803415)
(-0.00335868 0.00134049 0.00834427)
(-0.00388162 0.00156107 0.00838356)
(-0.00435106 0.00172286 0.00823789)
(-0.0046874 0.00187513 0.0079734)
(-0.00495938 0.00192322 0.0076738)
(-0.00513848 0.00195111 0.00739432)
(-0.00526526 0.00192975 0.00714322)
(-0.00536402 0.00188499 0.00692762)
(-0.0054426 0.00182492 0.00675358)
(-0.00548812 0.00176951 0.00662365)
(-0.00551582 0.00172673 0.00651808)
(-0.00551555 0.00170374 0.00643769)
(-0.00548659 0.00169731 0.00637344)
(-0.00542629 0.00170795 0.00632559)
(-0.00537065 0.00171556 0.0062915)
(-0.00538103 0.00176357 0.00626114)
(-0.00547768 0.00189771 0.00622364)
(-0.00559213 0.00211054 0.00615765)
(-0.00569075 0.00237029 0.00604348)
(-0.00576423 0.00262488 0.00589921)
(-0.00579677 0.00281699 0.00571294)
(-0.00585328 0.00290945 0.00547172)
(-0.00605888 0.00290557 0.00516321)
(-0.00638984 0.0028631 0.00483504)
(-0.00650263 0.00291752 0.00464986)
(-0.00591543 0.00294908 0.00462139)
(-0.00473068 0.00276795 0.00483171)
(-0.00385686 0.00229342 0.00532955)
(-0.00401571 0.0022638 0.00611658)
(-0.00232857 0.00393997 0.0066954)
(0.00411415 0.00659096 0.00700365)
(0.0132852 0.00857095 0.00642287)
(0.0192075 0.0128924 0.00545576)
(0.015712 0.0176331 0.00804759)
(-0.0198705 0.000146431 0.0243761)
(-0.0580806 -0.0178587 0.0311394)
(-0.0668161 0.00806543 -0.0031947)
(0.0205234 0.0976013 0.0161256)
(0.0623046 0.131646 0.0461042)
(0.0831764 0.129451 0.0559925)
(0.0866531 0.184966 0.0616032)
(0.140342 0.0330123 0.00892782)
(0.217505 0.392134 -0.0515132)
(-0.0279859 -0.0976301 0.0519261)
(-0.0511961 0.551881 0.102129)
(-0.0818135 0.68929 -0.0454961)
(-0.0976256 0.678012 -0.0352876)
(-0.0814128 0.779517 -0.0259005)
(-0.0214119 0.779808 0.0131219)
(0.00240932 0.765863 0.0219755)
(0.0173761 0.765834 0.0259355)
(0.0243942 0.762313 0.0280789)
(0.0294473 0.761068 0.0393807)
(0.0302557 0.757939 0.044108)
(0.0271649 0.764797 0.0515852)
(0.0257554 0.766514 0.0544721)
(0.022907 0.757017 0.0577305)
(0.0234583 0.752013 0.0581666)
(0.0264236 0.742236 0.0571363)
(0.0312583 0.73406 0.0549139)
(0.0390454 0.719603 0.0531468)
(0.0476714 0.704804 0.0485779)
(0.0538624 0.693337 0.0427378)
(0.0561039 0.684134 0.0378396)
(0.0563911 0.680158 0.029576)
(0.0531298 0.685109 0.017476)
(0.0469651 0.690046 0.00271374)
(0.040916 0.694401 -0.00480662)
(0.0390783 0.695791 -0.00812905)
(0.0351362 0.698426 -0.0112964)
(0.0215111 0.692108 -0.0162495)
(0.00175303 0.678697 -0.023382)
(-0.0143601 0.658731 -0.0269755)
(-0.0255562 0.642631 -0.0275612)
(-0.0364033 0.629981 -0.0189899)
(-0.0508558 0.614161 -0.00190714)
(-0.0698893 0.589758 0.0191192)
(-0.0941433 0.546836 0.0368259)
(-0.118389 0.516165 0.0389214)
(-0.136782 0.457205 0.0363589)
(0.0160948 0.0120281 -0.00265987)
(0.0308192 0.0301161 0.00634994)
(0.0239254 0.0189939 0.00137011)
(0.0285764 0.0247923 0.00306209)
(0.0235541 0.00549727 -0.00236855)
(0.00734723 0.0036261 -0.0089013)
(-0.00291697 -0.00407891 -0.00614327)
(-0.00329767 0.00344519 -0.00386379)
(-0.00560444 0.000749686 -0.00124085)
(-0.00679936 0.0030843 -0.000303815)
(-0.00861479 0.000532006 -0.000114988)
(-0.00961716 0.0005122 0.000942682)
(-0.00905517 -0.00094602 0.00181734)
(-0.00773277 -0.000575573 0.00286417)
(-0.00730664 -0.000416876 0.00379702)
(-0.007416 0.000345104 0.00464083)
(-0.00794768 0.000867347 0.00530632)
(-0.00855068 0.00140836 0.00569541)
(-0.00904613 0.0017609 0.00579689)
(-0.00915884 0.00202617 0.00571195)
(-0.00921551 0.00215668 0.00555362)
(-0.00920986 0.0022485 0.00538768)
(-0.00915842 0.002277 0.00523916)
(-0.00909721 0.00226978 0.0051035)
(-0.00903654 0.00223954 0.00498461)
(-0.0089727 0.00220342 0.00488593)
(-0.00890507 0.00217198 0.00480189)
(-0.00882731 0.00215573 0.00472879)
(-0.00872975 0.00216051 0.0046588)
(-0.0085955 0.00219421 0.00459085)
(-0.00849698 0.0022369 0.00452693)
(-0.00852935 0.00232866 0.00446465)
(-0.00864829 0.0024862 0.00440256)
(-0.00877226 0.00269542 0.00431801)
(-0.00881265 0.00292928 0.00419555)
(-0.00877062 0.00313958 0.00404577)
(-0.00866231 0.00328709 0.00385774)
(-0.00860753 0.00333181 0.00363297)
(-0.00873992 0.00323235 0.00336793)
(-0.00910069 0.0029857 0.00308087)
(-0.0093011 0.00278991 0.00294297)
(-0.00867871 0.00257989 0.00303166)
(-0.00717312 0.00252887 0.00341538)
(-0.00605463 0.00239638 0.00397228)
(-0.00689286 0.00279066 0.00487972)
(-0.00668156 0.00422726 0.00543035)
(-0.00217595 0.00707239 0.0052141)
(0.0052028 0.00789557 0.00330915)
(0.00836977 0.0137533 0.00349258)
(0.0118928 0.0167834 0.00490478)
(-0.00875209 0.0261139 0.0154266)
(-0.0467053 -0.0179892 0.0349179)
(-0.0811981 -0.0291848 0.0189448)
(-0.0556836 -0.0308064 0.00457509)
(-0.0135073 0.0656795 0.0237126)
(0.0510157 0.0635541 0.0759009)
(0.0414357 0.207182 0.12277)
(0.0903833 -0.173914 0.0874495)
(0.238049 0.427181 -0.0365127)
(-0.0413758 -0.0877636 0.0446804)
(-0.113697 0.568008 0.0580603)
(-0.111266 0.706051 -0.0401285)
(-0.108244 0.667546 -0.0156227)
(-0.0619915 0.723304 0.0105718)
(-0.01203 0.687016 0.0402125)
(0.00139902 0.65554 0.0306571)
(0.00793074 0.645587 0.0130337)
(0.0101723 0.640249 0.00378348)
(0.0104474 0.636404 0.00253422)
(0.00975955 0.631975 0.00491677)
(0.00104449 0.633036 0.00938479)
(3.83083e-05 0.645767 0.0209253)
(0.000458633 0.648043 0.0320185)
(0.000825206 0.642545 0.0416669)
(0.00279741 0.634471 0.0445489)
(0.00657762 0.626619 0.0453563)
(0.0153616 0.614021 0.0462475)
(0.0280683 0.606512 0.0471096)
(0.0391679 0.59781 0.0451397)
(0.0488398 0.598595 0.0445514)
(0.0514889 0.594268 0.0434075)
(0.0490054 0.593033 0.0404333)
(0.0443423 0.615173 0.0296814)
(0.0497717 0.629582 0.0192315)
(0.0494427 0.639182 0.0165447)
(0.0473723 0.644334 0.00816624)