/*--------------------------------*- C++ -*----------------------------------*\
| =========                 |                                                 |
| \\      /  F ield         | OpenFOAM: The Open Source CFD Toolbox           |
|  \\    /   O peration     | Version:  2.3.0                                 |
|   \\  /    A nd           | Web:      www.OpenFOAM.org                      |
|    \\/     M anipulation  |                                                 |
\*---------------------------------------------------------------------------*/
FoamFile
{
    version     2.0;
    format      ascii;
    class       volVectorField;
    location    "30";
    object      U.water;
}
// * * * * * * * * * * * * * * * * * * * * * * * * * * * * * * * * * * * * * //

dimensions      [0 1 -1 0 0 0 0];

internalField   nonuniform List<vector> 
6144
(
(0.010966 0.0183554 0.000614267)
(0.0105941 -0.00738458 -0.000986462)
(0.00449741 -0.00697383 -0.00273876)
(0.00408844 -0.00604864 -0.00250364)
(0.00249151 -0.00469431 -0.00227992)
(0.002944 -0.00191788 -0.00217255)
(0.00240984 -0.00107131 -0.00150223)
(0.00243187 0.00040309 -0.000723822)
(0.00187705 0.00026872 -0.000129698)
(0.00154423 0.00155456 0.000367298)
(0.001265 0.00243576 0.000782665)
(0.00130449 0.0031302 0.00118253)
(0.00146977 0.00317471 0.00135135)
(0.00164422 0.00267938 0.00163851)
(0.00176657 0.00182974 0.00156506)
(0.0018747 0.000992908 0.0014127)
(0.00193917 0.000211848 0.00112126)
(0.00200676 -0.000352456 0.000857575)
(0.00206634 -0.00076175 0.000571675)
(0.00211622 -0.000970994 0.000335305)
(0.0021433 -0.0010812 0.000186511)
(0.00215421 -0.00108146 0.000107496)
(0.00214883 -0.00103651 7.96658e-05)
(0.0021308 -0.000953482 9.341e-05)
(0.0021017 -0.000859434 0.00013823)
(0.00206507 -0.000761882 0.000208248)
(0.00202018 -0.00067207 0.00030802)
(0.0019681 -0.000590755 0.000436722)
(0.0019155 -0.000520209 0.000573679)
(0.00186531 -0.000475477 0.000708688)
(0.00180993 -0.000471733 0.000852552)
(0.00174581 -0.000507269 0.000997718)
(0.00166962 -0.000568275 0.00114327)
(0.00158494 -0.000645773 0.00130645)
(0.00150222 -0.0007671 0.00150895)
(0.00143094 -0.000996951 0.0017505)
(0.00137742 -0.00138727 0.00198105)
(0.00134884 -0.00190999 0.00209893)
(0.00134009 -0.00245063 0.00203666)
(0.00133221 -0.00288204 0.00177303)
(0.00130899 -0.00295777 0.00130946)
(0.00125644 -0.00246977 0.000642671)
(0.00112324 -0.00115511 -3.70416e-05)
(0.00100589 0.00108048 -0.000555874)
(0.00123376 0.00349095 -0.00093701)
(0.00219 0.00502683 -0.00156725)
(0.00437452 0.00681629 -0.00329291)
(0.00783816 0.00805666 -0.00643175)
(0.00621213 0.0109426 -0.00874229)
(0.00355016 0.0204438 -0.00846917)
(0.0226317 0.0196872 -0.0134253)
(0.0302861 0.00598758 -0.0203123)
(0.0419698 0.0107272 -0.0349755)
(0.0607459 -0.0154027 -0.0370378)
(0.0613733 -0.024916 -0.038947)
(0.0698715 -0.0836282 -0.0266289)
(0.0183554 -0.0252842 -0.0209491)
(-0.00757992 -0.124377 0.0401258)
(-0.0568216 0.00753837 -0.0621043)
(0.0168663 -0.0254305 0.043158)
(0.121886 -0.296982 0.0818357)
(0.0854019 -0.115757 0.0415143)
(0.0473839 -0.185011 0.0133029)
(0.0457358 -0.181969 0.0107699)
(0.0389128 -0.183389 0.0122557)
(0.036154 -0.177791 0.0110541)
(0.029434 -0.175434 0.00890019)
(0.0237124 -0.171614 0.0144356)
(0.0186518 -0.166433 0.0171054)
(0.0144581 -0.158945 0.0185592)
(0.011775 -0.145986 0.0179435)
(0.00794679 -0.140472 0.0172589)
(0.0062898 -0.129542 0.015174)
(0.00232167 -0.124878 0.0176935)
(-0.000201622 -0.113748 0.0149316)
(-0.00704069 -0.0897983 0.0127006)
(-0.0109703 -0.0557412 0.00462086)
(-0.0263725 -0.0129394 -0.00188447)
(-0.022257 0.0129063 -0.000526369)
(0.00375852 0.0184461 -0.00100897)
(0.0147701 0.0120865 -0.00527399)
(0.0163139 0.00515818 -0.0101635)
(0.0179979 -0.00159433 -0.0140633)
(0.0125962 -0.00598522 -0.015449)
(-0.00348038 0.000693203 -0.0058893)
(-0.0049699 0.0364224 -0.00701361)
(0.00247423 0.0511143 -0.00439371)
(0.00541867 0.0571947 -0.00817353)
(0.00300554 0.0629916 -0.0135888)
(-0.00359996 0.08113 -0.00367591)
(-0.0050726 0.104886 0.0245951)
(-0.00739563 0.109642 0.041354)
(-0.00935128 0.115787 0.0452319)
(-0.00469944 0.106054 0.0599136)
(-0.00375558 0.0716717 0.070817)
(-0.0103381 0.0251238 0.0800304)
(0.0217142 0.0179456 0.00363085)
(0.0230368 0.00271273 0.00260229)
(0.00973268 0.000218412 -0.00137188)
(0.00993123 0.000814743 -0.000986965)
(0.00585382 -0.00131792 4.11712e-05)
(0.00552094 -1.43824e-05 0.00128617)
(0.00364537 -0.00137571 0.00233684)
(0.00338192 0.000362436 0.00247633)
(0.00247281 0.000693307 0.00258129)
(0.00191062 0.00285202 0.00282279)
(0.00165202 0.00376857 0.00326627)
(0.00195838 0.00445094 0.00377815)
(0.0024501 0.00430053 0.00403412)
(0.00297067 0.00378956 0.00422933)
(0.00323918 0.00285856 0.00423327)
(0.00343983 0.00194884 0.00420306)
(0.00349508 0.00102762 0.00411597)
(0.00356349 0.000329442 0.0040369)
(0.0036077 -0.000228117 0.00395062)
(0.00366799 -0.000552504 0.00382584)
(0.00369617 -0.000757344 0.00373782)
(0.00368775 -0.000831582 0.00370375)
(0.00364931 -0.000841952 0.00371505)
(0.00358589 -0.000793281 0.00376405)
(0.00350459 -0.000720924 0.00384069)
(0.00340892 -0.000634174 0.00393909)
(0.00329991 -0.000548815 0.00405385)
(0.00317908 -0.000468002 0.00418125)
(0.00306181 -0.000402002 0.00429336)
(0.00296842 -0.000370137 0.00437549)
(0.00287724 -0.000389213 0.00446144)
(0.00277537 -0.000455742 0.00454417)
(0.00265524 -0.000557383 0.00462378)
(0.0025341 -0.000681683 0.00470619)
(0.00244391 -0.000844213 0.00479714)
(0.00241262 -0.00108625 0.00489618)
(0.00243958 -0.00141847 0.00497543)
(0.00248397 -0.00181581 0.00501867)
(0.00249695 -0.00218991 0.00500692)
(0.00241074 -0.00242843 0.00494977)
(0.00215499 -0.00237726 0.00485115)
(0.00174868 -0.00187541 0.00453881)
(0.00125662 -0.000808215 0.00386699)
(0.00113542 0.000447638 0.00340173)
(0.00213109 0.000710563 0.00297722)
(0.00389066 -0.000328098 0.00170302)
(0.00569311 0.000373577 -0.000685475)
(0.00969065 0.00563795 -0.0045922)
(0.0108434 0.0211678 -0.00618735)
(0.0150251 0.0281376 -0.00130083)
(0.0325898 0.0147897 -0.00208664)
(0.0415511 0.0172847 -0.0109026)
(0.078073 0.0343928 -0.021275)
(0.120848 0.0347534 -0.021363)
(0.120709 0.0404635 -0.017731)
(0.0797982 -0.0162821 -0.0007337)
(0.060856 0.0870902 0.0295524)
(0.011895 -0.163726 0.0830976)
(-0.106906 0.0160313 -0.0580306)
(0.000539607 -0.0755018 0.0111423)
(0.147907 -0.272679 0.115062)
(0.0790016 0.0289921 0.0300863)
(-0.00252568 -0.0923262 0.00462506)
(0.0140515 0.04023 -0.000698897)
(0.00370688 0.00520114 0.00344299)
(0.00779252 0.0488203 0.00339993)
(0.00713479 0.0554476 -0.00369703)
(0.00558361 0.0731038 -0.00887702)
(0.00755008 0.0850685 -0.0200863)
(0.00685513 0.0980832 -0.0212427)
(0.00883736 0.108119 -0.0153356)
(0.0100339 0.111217 -0.0116537)
(0.00761421 0.105992 -0.00575886)
(-0.00675181 0.0791033 -0.00865177)
(-0.019119 0.0586929 -0.0178128)
(-0.0290393 0.0527146 -0.0164269)
(-0.0298854 0.0514893 -0.011765)
(-0.00792883 0.0528961 -0.00912933)
(0.0225622 0.0505884 -0.00452626)
(0.0340113 0.0395122 -0.00112798)
(0.0434503 0.0387792 0.000302076)
(0.0472457 0.0304543 -0.000605105)
(0.0432563 0.0220016 -0.0024444)
(0.0292258 0.0150819 -0.0083071)
(-0.00166301 0.0058083 -0.0219833)
(-0.012351 0.0145265 -0.0294597)
(-0.00214523 0.0338629 -0.0185982)
(0.0104157 0.0432049 -0.00736474)
(0.0144458 0.0548071 -0.00952268)
(0.00366715 0.0643912 -0.011217)
(-0.00869313 0.0840543 0.0117411)
(-0.0124079 0.0953921 0.0348428)
(-0.017703 0.0967544 0.0484741)
(-0.0162329 0.0822828 0.0618655)
(-0.0168591 0.0604868 0.0793053)
(-0.0226546 0.0253739 0.0936897)
(0.0249637 0.0191422 0.00494185)
(0.0264337 0.0100023 0.00514376)
(0.013986 0.00512308 0.00252679)
(0.0126343 0.00566846 0.00289829)
(0.00702652 0.00236825 0.00360249)
(0.00561384 0.00266552 0.00393747)
(0.0026226 -0.000305775 0.00402017)
(0.00179997 0.000577531 0.00359641)
(0.000324783 0.000989904 0.00345143)
(0.000151098 0.0030536 0.00372028)
(0.000124254 0.00364922 0.00412634)
(0.000739074 0.00431444 0.00458153)
(0.00133549 0.0041316 0.0047924)
(0.00198577 0.00391739 0.00493213)
(0.0023932 0.00326393 0.00489492)
(0.00270242 0.00260703 0.00486)
(0.00277903 0.00184376 0.00480729)
(0.00284232 0.00123068 0.00477734)
(0.00283176 0.000658113 0.00475828)
(0.00278842 0.000238555 0.00476286)
(0.00271903 -8.22782e-05 0.00478816)
(0.00263589 -0.00028212 0.0048283)
(0.0025368 -0.000406026 0.00487688)
(0.00242637 -0.000454765 0.00493431)
(0.00230968 -0.000462477 0.00499795)
(0.00218774 -0.000443087 0.005064)
(0.00205967 -0.000418754 0.00513192)
(0.00192736 -0.000402101 0.00520275)
(0.00179292 -0.000409197 0.00527834)
(0.00166478 -0.000443465 0.00536234)
(0.00154018 -0.000505232 0.00544604)
(0.00139633 -0.000595431 0.00552466)
(0.0012215 -0.000704486 0.00560112)
(0.00103676 -0.000830281 0.0056753)
(0.00089599 -0.000961532 0.00574734)
(0.000832017 -0.00107672 0.00580971)
(0.000825778 -0.00112876 0.00584698)
(0.000842879 -0.00109962 0.00585802)
(0.000805271 -0.00096237 0.00584725)
(0.000679272 -0.000702535 0.00584468)
(0.000422343 -0.000335299 0.00583829)
(-1.86662e-06 9.33437e-05 0.00579119)
(-0.000450924 0.000505014 0.0056696)
(-0.000260366 0.000440626 0.00551281)
(0.000927914 -0.00056031 0.00542949)
(0.0025527 -0.0013851 0.00484773)
(0.00451574 -0.000681958 0.00343822)
(0.00801241 4.68947e-05 0.000212812)
(0.0091569 0.0105007 0.000300704)
(0.0163166 0.0120233 0.0072253)
(0.033881 0.00679371 0.00357887)
(0.0430239 0.0236417 0.00169203)
(0.096786 0.037247 -0.0138928)
(0.162641 0.0727349 -0.0223586)
(0.166547 0.0962825 -0.0205191)
(0.140398 0.0703416 0.0220912)
(0.117434 0.0980108 0.049189)
(0.0789009 -0.162223 0.0998905)
(-0.168279 0.0611942 -0.02657)
(0.0202253 -0.124585 -0.0157426)
(0.166183 -0.256446 0.120478)
(0.0899329 0.0912344 0.0180786)
(0.0495939 -0.0640544 -0.0339279)
(0.0291679 0.0892345 -0.0322599)
(0.0433577 0.057244 -0.0237276)
(0.0334621 0.103464 -0.0239787)
(0.0273405 0.116069 -0.0270508)
(0.0250423 0.132819 -0.021156)
(0.032913 0.142548 -0.0156324)
(0.0342945 0.151308 -0.0142852)
(0.0327839 0.156782 -0.00910408)
(0.033905 0.158444 -0.00213084)
(0.0380348 0.152615 0.0021008)
(0.0360032 0.14134 -0.00215552)
(0.0267959 0.126452 -0.00797127)
(0.0196299 0.107579 -0.00403273)
(0.0184291 0.0869582 0.00256135)
(0.0263084 0.07093 0.0104996)
(0.0398063 0.0613954 0.014592)
(0.0465672 0.0528331 0.0135054)
(0.0524522 0.0403464 0.0118184)
(0.0526902 0.0334689 0.00998727)
(0.0469694 0.0196406 0.00932371)
(0.037567 0.00699286 0.0105237)
(0.0213616 -0.00885424 0.00974489)
(0.00363442 -0.0308831 -0.00278472)
(-0.00912675 -0.0234303 -0.0159926)
(-0.0138487 -0.0119856 -0.0122098)
(-0.00848709 0.00980488 -0.0112115)
(-0.00865711 0.0407464 -0.0183586)
(-0.0185693 0.0552118 0.000434105)
(-0.0205173 0.0706639 0.0319859)
(-0.0235719 0.0717984 0.0495555)
(-0.0289324 0.0571373 0.0645161)
(-0.0386334 0.0442925 0.0793542)
(-0.0560637 0.0212907 0.0915679)
(0.0259529 0.019157 0.00522032)
(0.0290492 0.0138823 0.00598602)
(0.0153542 0.00679239 0.00305058)
(0.0141307 0.00830201 0.00310785)
(0.00716129 0.00383561 0.00428037)
(0.00672432 0.00479305 0.00442255)
(0.0025365 0.000305987 0.00475692)
(0.000939073 0.000633438 0.0039158)
(-0.00124366 -0.000273867 0.00372793)
(-0.00127497 0.00152465 0.0038692)
(-0.00136495 0.00198745 0.00436995)
(-0.00074637 0.0031896 0.00497535)
(-0.000142442 0.00350378 0.00515261)
(0.000569759 0.00372066 0.00527983)
(0.0010356 0.0033106 0.00518574)
(0.00136498 0.00283544 0.00514324)
(0.00142583 0.00218626 0.00510574)
(0.00147406 0.00168159 0.00510467)
(0.00145781 0.00116805 0.00509573)
(0.00140133 0.000740509 0.0050907)
(0.00130279 0.000362437 0.00509496)
(0.0011765 8.06877e-05 0.00511224)
(0.00103083 -0.000131709 0.00514133)
(0.000877218 -0.000266872 0.00518261)
(0.000726755 -0.000347804 0.00523442)
(0.000583972 -0.000390104 0.00529561)
(0.000446103 -0.000415338 0.00536315)
(0.000314479 -0.000434932 0.00543496)
(0.000193274 -0.000461949 0.00550894)
(8.73832e-05 -0.000503878 0.00558442)
(-1.04885e-05 -0.000560566 0.00565438)
(-0.000119626 -0.000624055 0.00571787)
(-0.000246108 -0.000684329 0.00578039)
(-0.000368878 -0.000734038 0.00583547)
(-0.000456192 -0.000761928 0.00586716)
(-0.000507959 -0.000740097 0.00585367)
(-0.000535013 -0.000629016 0.00579767)
(-0.000558474 -0.000434231 0.00573757)
(-0.000638799 -0.000177532 0.00571264)
(-0.000816462 0.000117804 0.00576989)
(-0.0011219 0.0004725 0.0058697)
(-0.00148227 0.000835742 0.00592797)
(-0.00165484 0.00107695 0.00592651)
(-0.00124789 0.000822345 0.00595144)
(-0.000401079 -8.35952e-05 0.00623604)
(0.000993725 -0.00056786 0.00606587)
(0.0047294 -0.000814825 0.00411832)
(0.00836366 -0.00371282 -0.00239167)
(0.0109938 -0.00336332 0.0003912)
(0.01394 -0.00838626 0.0135936)
(0.0161829 -0.00528284 0.02056)
(0.0231016 0.019646 0.0177498)
(0.0921435 0.0519632 -0.0129101)
(0.155611 0.124804 -0.027223)
(0.156451 0.168371 -0.0288595)
(0.112859 0.180589 0.00593559)
(0.0723481 0.150138 0.0094841)
(-0.0241358 0.0181311 0.00111854)
(-0.26181 0.260462 -0.0500287)
(0.0117383 -0.238364 0.0148448)
(0.143862 -0.216745 0.137199)
(0.0499392 0.109958 -0.00233223)
(0.0391688 0.0324291 -0.0268055)
(0.0202785 0.122242 -0.0304827)
(0.0292262 0.125 -0.0208844)
(0.0289882 0.159333 -0.0188256)
(0.0354707 0.168585 -0.0228586)
(0.036618 0.171346 -0.0240775)
(0.0364104 0.172321 -0.0224805)
(0.0298311 0.170556 -0.0200388)
(0.023776 0.16834 -0.0164882)
(0.0211804 0.161891 -0.00743867)
(0.0220799 0.154032 0.0101111)
(0.0226931 0.14356 0.0224883)
(0.0290584 0.129399 0.0273807)
(0.0322395 0.119914 0.0274258)
(0.0326641 0.105561 0.027582)
(0.0345587 0.0865456 0.0308282)
(0.0326925 0.067481 0.0275728)
(0.0392804 0.0535947 0.0218047)
(0.0406751 0.0423514 0.0188642)
(0.0422855 0.0319665 0.0149244)
(0.0345561 0.0206137 0.0152396)
(0.0233812 0.00981974 0.0179035)
(0.00711097 0.00124201 0.023114)
(-0.0114589 -0.0133612 0.019231)
(-0.0249762 -0.013668 -0.00431361)
(-0.0302335 -0.00177695 -0.00949126)
(-0.0361334 0.018702 -0.0121934)
(-0.0292085 0.0350974 -0.016115)
(-0.0282472 0.0496343 -0.00760839)
(-0.0314127 0.0648221 0.0209054)
(-0.0324304 0.065412 0.0433381)
(-0.0414567 0.0466748 0.0596377)
(-0.0587599 0.0351381 0.0734916)
(-0.0721332 0.0126141 0.0869733)
(0.0260203 0.0191513 0.00463691)
(0.0303492 0.0165792 0.005616)
(0.017583 0.0073707 0.000702879)
(0.0164351 0.00970636 0.000644677)
(0.0074481 0.00363951 0.00304167)
(0.00735209 0.00577999 0.00338201)
(0.00238467 0.00118794 0.00459214)
(0.000525241 0.00192884 0.00402302)
(-0.00244198 -0.00108872 0.00386757)
(-0.00310199 1.08985e-05 0.00380917)
(-0.00371694 8.49551e-05 0.0042161)
(-0.00330557 0.00188926 0.00492143)
(-0.00266947 0.00272661 0.00509463)
(-0.00171442 0.00338369 0.00524241)
(-0.00108199 0.00322649 0.00511441)
(-0.000730119 0.00282513 0.0050809)
(-0.000797189 0.00222015 0.00505083)
(-0.000896957 0.00176938 0.00507244)
(-0.00101946 0.00131902 0.00507013)
(-0.00113851 0.00092221 0.00504984)
(-0.00128615 0.000538207 0.00502619)
(-0.00143043 0.000223514 0.0050081)
(-0.00157604 -4.20103e-05 0.00500137)
(-0.00172883 -0.000237843 0.00500671)
(-0.00187597 -0.000376789 0.00502441)
(-0.00201028 -0.000468918 0.00505779)
(-0.00213402 -0.000534721 0.00510304)
(-0.00224277 -0.000583792 0.00515645)
(-0.00233276 -0.000629109 0.00521179)
(-0.00240565 -0.000673174 0.00525754)
(-0.00247578 -0.000708357 0.00529005)
(-0.00256467 -0.000734025 0.0053142)
(-0.00268472 -0.00074036 0.00533957)
(-0.00281143 -0.000709055 0.00535167)
(-0.0029036 -0.00062806 0.005324)
(-0.00296055 -0.000482319 0.0052383)
(-0.00298117 -0.000259277 0.00512234)
(-0.00298864 4.12208e-05 0.0050164)
(-0.00308268 0.000425453 0.00498018)
(-0.00331911 0.000856342 0.00506571)
(-0.00368546 0.00128035 0.00520317)
(-0.00402672 0.00156057 0.00527121)
(-0.00413768 0.00167536 0.00525611)
(-0.00363412 0.001369 0.0054183)
(-0.00280271 0.000651621 0.00617813)
(-0.000940717 0.000189092 0.00646679)
(0.00568848 -0.000903126 0.00434583)
(0.0144232 -0.00463811 -0.00189171)
(0.0151456 -0.0122455 0.00653457)
(0.0127166 -0.0134374 0.031366)
(0.0094732 -0.0134637 0.0459654)
(0.0075941 0.0125544 0.0191485)
(0.0692437 0.0627239 0.00817585)
(0.124711 0.139734 0.0162769)
(0.128042 0.190063 0.0101292)
(0.106538 0.237516 -0.00423797)
(0.0604065 0.241828 -0.0278368)
(0.00237707 0.164841 -0.0489879)
(-0.124936 0.360082 -0.0710333)
(0.015723 -0.287186 0.0380485)
(0.12071 -0.18846 0.146733)
(0.0295381 0.11461 0.000264478)
(0.0467318 0.0465079 -0.0162467)
(0.0485043 0.146537 -0.0175725)
(0.0371073 0.167183 -0.0105208)
(0.0329167 0.208553 -0.00979528)
(0.040471 0.221906 0.0025281)
(0.044119 0.226579 0.00927413)
(0.0467998 0.227053 0.0182117)
(0.0459929 0.22239 0.0226243)
(0.0394716 0.215681 0.0247206)
(0.0329044 0.21032 0.023889)
(0.0276261 0.199072 0.0261541)
(0.0251564 0.189857 0.0300632)
(0.0239769 0.179522 0.0340631)
(0.027242 0.166632 0.0330824)
(0.0310143 0.155799 0.0302792)
(0.0301163 0.142173 0.0266307)
(0.031889 0.128892 0.0211937)
(0.0313657 0.113168 0.0134329)
(0.0357004 0.0966517 0.00474933)
(0.0373167 0.0795906 -0.00666014)
(0.0307076 0.0661383 -0.017718)
(0.0149841 0.0587051 -0.0182263)
(0.00042453 0.0481964 -0.00767263)
(-0.0181761 0.0203325 0.00276367)
(-0.0299071 0.00951818 -0.0046539)
(-0.0337553 0.0137803 -0.00493328)
(-0.0330517 0.0218538 -0.00750589)
(-0.022031 0.0291927 -0.00966705)
(-0.0221372 0.0433925 -0.00769811)
(-0.0296162 0.058034 0.0114316)
(-0.0317558 0.0551411 0.0385682)
(-0.0457529 0.0324637 0.0590459)
(-0.0717042 0.0263796 0.0681298)
(-0.101034 0.00385738 0.0788004)
(0.0252138 0.0184717 0.00322)
(0.0316271 0.0201721 0.00536836)
(0.0200201 0.00840597 -0.000934869)
(0.0197384 0.0116328 -0.00128833)
(0.00821396 0.00162836 -0.000199688)
(0.00743914 0.00581241 0.000835594)
(0.00169826 0.00184994 0.00330339)
(0.000521869 0.00362675 0.00360899)
(-0.00222244 -0.000720664 0.00360271)
(-0.00393851 -0.000543678 0.00332519)
(-0.00501454 -0.00140582 0.00347346)
(-0.00496163 0.000614537 0.00421452)
(-0.00400967 0.00194056 0.00456212)
(-0.00268847 0.00294762 0.00500059)
(-0.00166225 0.00279568 0.00513967)
(-0.00119364 0.00246088 0.00527358)
(-0.00133968 0.00185687 0.00526493)
(-0.00158259 0.00149217 0.00526532)
(-0.00181943 0.00117522 0.00522411)
(-0.00201952 0.000928074 0.0051505)
(-0.00222323 0.000667328 0.00505581)
(-0.00241611 0.000433204 0.00495364)
(-0.00261437 0.000209022 0.00485446)
(-0.00279815 1.50993e-05 0.00477146)
(-0.0029547 -0.000147197 0.00470708)
(-0.00307562 -0.000266921 0.00466401)
(-0.00316913 -0.000346366 0.00463978)
(-0.00323792 -0.000392633 0.00462747)
(-0.00328304 -0.000417736 0.00461834)
(-0.0033217 -0.000430768 0.0046004)
(-0.00335972 -0.000435491 0.00457768)
(-0.00341615 -0.000427989 0.00455815)
(-0.00349878 -0.000388843 0.0045462)
(-0.00358116 -0.000294834 0.00451982)
(-0.00363904 -0.000134123 0.00444925)
(-0.00368996 9.63321e-05 0.00432756)
(-0.00376371 0.000381275 0.00415592)
(-0.00391964 0.000696472 0.00395677)
(-0.00417707 0.00107357 0.00381415)
(-0.00445258 0.00152035 0.00380525)
(-0.00468789 0.00199106 0.00385248)
(-0.00480493 0.00220267 0.00379211)
(-0.00457932 0.00199314 0.0037197)
(-0.00371852 0.00123429 0.0042351)
(-0.00303131 0.00059287 0.00523568)
(-0.000540189 0.000736465 0.0058058)
(0.00757568 0.000694573 0.00354737)
(0.018306 -0.000456955 -0.00137105)
(0.0198743 0.00298323 0.00375695)
(0.00862015 -0.0105402 0.0247416)
(-0.00330951 -0.00165931 0.044566)
(-0.0104733 0.00435054 0.0310654)
(0.0299377 0.0543244 0.0116348)
(0.0842903 0.118949 0.0297754)
(0.091915 0.147948 0.0411484)
(0.0733192 0.191431 0.0316469)
(0.0581856 0.2111 0.0189396)
(0.0677714 0.0927435 0.0134985)
(0.0676651 0.370978 0.00601693)
(0.0222009 -0.298041 0.0345963)
(0.0642695 -0.159604 0.16388)
(-0.0296915 0.120495 -0.0155619)
(0.0023476 0.0395573 -0.0161867)
(0.0273257 0.1898 -0.0141009)
(-0.00646877 0.229216 0.00281108)
(0.0108472 0.259654 0.0106314)
(0.0237839 0.264494 0.0217082)
(0.0277713 0.268303 0.0270726)
(0.032334 0.266742 0.0297312)
(0.0354768 0.265059 0.0287771)
(0.0347608 0.25844 0.0291975)
(0.0313786 0.251491 0.0277556)
(0.0271917 0.242571 0.0266655)
(0.0245515 0.230689 0.0272206)
(0.0232951 0.216912 0.0291228)
(0.0227623 0.20258 0.0308353)
(0.025122 0.186608 0.0333701)
(0.0285885 0.168978 0.0357464)
(0.033722 0.151828 0.0330894)
(0.0398037 0.135608 0.0278775)
(0.0466702 0.118503 0.0194976)
(0.0503041 0.106117 0.00599846)
(0.0454245 0.09911 -0.010297)
(0.0327008 0.0912389 -0.0241123)
(0.0235839 0.0859481 -0.0264082)
(0.00667654 0.0703709 -0.0191842)
(-0.0247895 0.0352134 -0.0111756)
(-0.0349509 0.0248119 -0.00916246)
(-0.0321083 0.0224073 -0.00885857)
(-0.0235258 0.024039 -0.00802551)
(-0.0230082 0.034996 -0.0122603)
(-0.0310702 0.0490727 -0.000895248)
(-0.0331133 0.0437719 0.031027)
(-0.0560394 0.0305604 0.0510927)
(-0.0889791 0.0265176 0.0620291)
(-0.113667 0.0056566 0.0762492)
(0.0231071 0.0180022 0.00219322)
(0.0329048 0.0248757 0.00623988)
(0.0228893 0.0106257 0.000522701)
(0.023592 0.014254 0.00105124)
(0.0107021 -0.0017952 -0.00296622)
(0.00627894 0.00397871 -0.00194186)
(0.000320927 0.000717621 0.00155256)
(3.19251e-05 0.00453175 0.00286471)
(-0.00242615 0.000177286 0.00289985)
(-0.00479716 0.000193414 0.00284423)
(-0.00701402 -0.00152189 0.00271989)
(-0.00810918 0.000142192 0.00345627)
(-0.00713904 0.00136016 0.00414604)
(-0.00498112 0.00229244 0.00521815)
(-0.00375327 0.00215823 0.0057836)
(-0.00334703 0.00193786 0.00614546)
(-0.0037298 0.00140105 0.00616565)
(-0.00430047 0.00111302 0.00608455)
(-0.00476477 0.000906399 0.00592406)
(-0.00505272 0.000815437 0.00571593)
(-0.00527657 0.0007321 0.00550203)
(-0.00543242 0.000673789 0.00530114)
(-0.00555241 0.000592237 0.0051178)
(-0.00565968 0.000503496 0.00497428)
(-0.00575929 0.000416389 0.00487156)
(-0.00585536 0.000344671 0.00479606)
(-0.00592219 0.000292292 0.004731)
(-0.00595366 0.000267578 0.0046848)
(-0.00594308 0.000270963 0.00466197)
(-0.00589971 0.000287783 0.00465794)
(-0.00585953 0.000301663 0.00466561)
(-0.0058632 0.000333981 0.00468327)
(-0.00593184 0.000423774 0.00470422)
(-0.00603539 0.000591629 0.00469529)
(-0.00611842 0.000833495 0.00463801)
(-0.00617567 0.00112436 0.00453967)
(-0.00619443 0.00142614 0.00440794)
(-0.00625329 0.00166857 0.00422527)
(-0.00648787 0.00183557 0.00396248)
(-0.00683217 0.00202691 0.00369227)
(-0.0070166 0.00232354 0.00348512)
(-0.00659318 0.0024777 0.00331916)
(-0.00561162 0.00211432 0.00327174)
(-0.00484155 0.00137777 0.00367983)
(-0.00480029 0.00122763 0.0044316)
(-0.00257839 0.00208422 0.00455191)
(0.00537606 0.00362686 0.00356054)
(0.0159907 0.00447937 0.00257404)
(0.0220772 0.0102615 -0.000760498)
(0.00808673 0.00195573 0.0157531)
(-0.023872 -0.0020168 0.0397879)
(-0.0379479 0.000299917 0.0242154)
(0.000524181 0.0717111 -0.000787411)
(0.0521272 0.126195 0.0272017)
(0.06768 0.136416 0.0404855)
(0.083848 0.140428 0.0311057)
(0.0704676 0.172606 0.00867441)
(0.101048 0.0233341 -0.00701061)
(0.0957065 0.327969 -0.0153436)
(-0.0129375 -0.278481 0.0391893)
(0.0162284 -0.169523 0.168537)
(-0.0168276 0.1193 0.0178906)
(-0.0313944 -0.00987651 -0.00272081)
(-0.0438474 0.214422 -0.0571587)
(-0.0195487 0.270243 -0.00976991)
(0.009855 0.27661 0.00893957)
(0.0239901 0.284149 0.012824)
(0.0293693 0.282147 0.0255622)
(0.0346569 0.276697 0.0288728)
(0.0369152 0.273285 0.0309546)
(0.0336549 0.267281 0.0342381)
(0.030588 0.26112 0.0339234)
(0.0290501 0.252631 0.0338985)
(0.0270122 0.243258 0.0352605)
(0.0258919 0.230771 0.0359949)
(0.0266031 0.216238 0.0382134)
(0.0290331 0.201007 0.0401856)
(0.032483 0.18405 0.0411925)
(0.0392465 0.167259 0.0398229)
(0.0486548 0.153121 0.0369976)
(0.0571556 0.139541 0.0288129)
(0.0589911 0.133413 0.016372)
(0.053342 0.132818 -0.00146825)
(0.0450395 0.132503 -0.015616)
(0.0412352 0.129905 -0.0207974)
(0.0360877 0.125959 -0.0206671)
(0.0186054 0.105097 -0.0137402)
(-0.00455105 0.0638252 -0.00862689)
(-0.0141975 0.0384565 -0.00926781)
(-0.0158039 0.0303168 -0.00586162)
(-0.0190815 0.0279379 -0.00919676)
(-0.0255279 0.0322615 -0.00802611)
(-0.0323403 0.0310868 0.0107591)
(-0.0585136 0.0218335 0.0378948)
(-0.0947491 0.0188848 0.0472152)
(-0.130968 0.000951736 0.0603833)
(0.023908 0.0143246 0.000453543)
(0.032723 0.0285461 0.00716465)
(0.0243403 0.0138598 0.0017317)
(0.0266401 0.018305 0.00270565)
(0.0164232 -0.00109892 -0.00401427)
(0.00466056 0.0020347 -0.00504626)
(-0.00243261 -0.00174862 -0.000285266)
(-0.00172038 0.00369474 0.00189089)
(-0.0022903 0.000436461 0.00308939)
(-0.00455849 0.00178389 0.003225)
(-0.00675633 -0.000472464 0.00301158)
(-0.00824002 0.000203383 0.00393294)
(-0.00703458 -0.000220684 0.00489324)
(-0.00480657 0.000177301 0.00628064)
(-0.00356103 0.000132451 0.00728885)
(-0.00309245 0.000484579 0.00803401)
(-0.00335707 0.000644705 0.00834412)
(-0.00387973 0.000865611 0.00838338)
(-0.00434898 0.00102763 0.00823772)
(-0.00468515 0.00118004 0.00797323)
(-0.00495702 0.00122821 0.00767365)
(-0.00513602 0.00125613 0.00739418)
(-0.00526273 0.00123474 0.0071431)
(-0.00536143 0.00118991 0.00692751)
(-0.00543998 0.00112971 0.00675349)
(-0.00548549 0.00107413 0.00662357)
(-0.00551321 0.00103113 0.00651803)
(-0.00551296 0.00100786 0.00643765)
(-0.00548407 0.0010011 0.00637343)
(-0.00542386 0.00101134 0.00632559)
(-0.00536837 0.00101848 0.00629154)
(-0.00537893 0.00106592 0.0062612)
(-0.00547585 0.00119939 0.00622375)
(-0.00559064 0.00141142 0.00615779)
(-0.0056897 0.00167023 0.00604367)
(-0.00576374 0.00192371 0.00589946)
(-0.00579697 0.00211451 0.00571325)
(-0.00585431 0.00220545 0.00547208)
(-0.00606094 0.00219983 0.00516363)
(-0.0063931 0.0021554 0.00483552)
(-0.00650732 0.00220756 0.00465042)
(-0.00592172 0.002236 0.00462204)
(-0.00473881 0.00204849 0.00483244)
(-0.00386705 0.00155518 0.00533036)
(-0.00402824 0.00147049 0.00611741)
(-0.00234335 0.00302417 0.00669661)
(0.0040978 0.00547133 0.00700627)
(0.0132681 0.00718584 0.00642847)
(0.0191881 0.01122 0.00546501)
(0.0156974 0.0155645 0.00805597)
(-0.0198569 -0.00263808 0.0243866)
(-0.0580304 -0.0214764 0.0311576)
(-0.066762 0.00388864 -0.00319749)
(0.0205642 0.0933402 0.0161024)
(0.0624169 0.12739 0.046105)
(0.0833112 0.125286 0.0559499)
(0.0878263 0.178171 0.0613465)
(0.140965 0.0234891 0.008317)
(0.217113 0.379273 -0.0511619)
(-0.00672467 -0.305731 0.0363775)
(-0.0241786 -0.161317 0.169261)
(-0.0496682 0.134186 -0.0341934)
(-0.0911989 0.102127 -0.0324062)
(-0.095127 0.234286 -0.0377586)
(-0.0336764 0.249705 0.00646443)
(-0.00500582 0.229001 0.0212883)
(0.00969942 0.222586 0.0253743)
(0.0205504 0.216296 0.0222823)
(0.0283203 0.2136 0.0334768)
(0.0307906 0.214194 0.0396755)
(0.0282447 0.215966 0.0457175)
(0.0265631 0.21974 0.0516207)
(0.0225269 0.215206 0.0555475)
(0.0217287 0.209659 0.05707)
(0.0232287 0.203638 0.0574559)
(0.0266498 0.19506 0.05606)
(0.0327612 0.182949 0.0557698)
(0.0416357 0.169015 0.0531957)
(0.0510659 0.153961 0.0486089)
(0.057445 0.140381 0.0459298)
(0.060928 0.134234 0.0412705)
(0.0604705 0.135443 0.0304349)
(0.0544389 0.140328 0.0105347)
(0.0456015 0.145872 -0.00181075)
(0.0418231 0.148989 -0.00618253)
(0.0424433 0.152899 -0.00804521)
(0.0360602 0.152198 -0.0106439)
(0.0175505 0.143692 -0.0178188)
(-0.00230854 0.124646 -0.0247484)
(-0.0162531 0.106169 -0.0307229)
(-0.0242527 0.0954801 -0.0296649)
(-0.0334112 0.0874082 -0.0158577)
(-0.0461649 0.0774036 0.0099574)
(-0.0711108 0.061311 0.0356733)
(-0.102824 0.0447821 0.0454403)
(-0.130462 0.0123237 0.0509195)
(0.0160904 0.0118316 -0.00266242)
(0.0308111 0.0297674 0.00634722)
(0.023918 0.018639 0.00136912)
(0.0285695 0.024391 0.00306143)
(0.023548 0.00501259 -0.00236885)
(0.00734128 0.00306549 -0.00890171)
(-0.00292225 -0.00467661 -0.00614347)
(-0.00330232 0.002819 -0.00386385)
(-0.00560823 9.46884e-05 -0.00124081)
(-0.00680233 0.00241017 -0.000303733)
(-0.00861689 -0.000152465 -0.000114838)
(-0.00961857 -0.000178893 0.000942891)
(-0.00905589 -0.00164085 0.00181754)
(-0.00773294 -0.00127149 0.00286437)
(-0.00730633 -0.00111261 0.00379721)
(-0.00741533 -0.000350253 0.00464103)
(-0.00794669 0.000172303 0.00530652)
(-0.00854946 0.000713551 0.00569562)
(-0.00904471 0.00106624 0.0057971)
(-0.00915725 0.00133158 0.00571217)
(-0.00921378 0.00146211 0.00555383)
(-0.00920802 0.0015539 0.00538791)
(-0.00915649 0.00158233 0.00523938)
(-0.00909523 0.001575 0.00510373)
(-0.00903452 0.00154461 0.00498485)
(-0.00897068 0.00150829 0.00488618)
(-0.00890306 0.0014766 0.00480215)
(-0.00882535 0.00146004 0.00472907)
(-0.00872787 0.00146444 0.00465909)
(-0.00859375 0.00149769 0.00459115)
(-0.0084954 0.00153984 0.00452725)
(-0.00852803 0.00163096 0.004465)
(-0.00864729 0.00178774 0.00440293)
(-0.00877168 0.00199607 0.0043184)
(-0.00881259 0.00222885 0.00419596)
(-0.00877123 0.00243788 0.00404621)
(-0.00866373 0.0025839 0.00385819)
(-0.00860994 0.00262688 0.00363343)
(-0.00874352 0.00252544 0.00336841)
(-0.0091057 0.00227659 0.00308136)
(-0.00930776 0.00207835 0.00294349)
(-0.00868725 0.00186528 0.00303221)
(-0.00718373 0.00180874 0.00341597)
(-0.00606751 0.0016603 0.0039729)
(-0.00690824 0.00200798 0.00488043)
(-0.00669931 0.00334138 0.00543143)
(-0.00219529 0.00600796 0.00521612)
(0.00518326 0.00657035 0.0033128)
(0.00835025 0.0120904 0.00349885)
(0.0118756 0.0147762 0.00490973)
(-0.00875852 0.0236709 0.015426)
(-0.0466851 -0.021164 0.0349228)
(-0.0811833 -0.0330856 0.0189273)
(-0.0557485 -0.0350174 0.00457387)
(-0.0134943 0.0615238 0.0237169)
(0.0510969 0.0600422 0.075876)
(0.0423853 0.200625 0.121984)
(0.0907573 -0.185736 0.0873492)
(0.235364 0.409103 -0.0353559)
(-0.00852336 -0.297941 0.0354527)
(-0.073873 -0.13657 0.115676)
(-0.102633 0.168736 -0.0531259)
(-0.122121 0.122726 -0.0311103)
(-0.0926651 0.199585 -0.0142317)
(-0.0245677 0.165143 0.0415131)
(-0.00739453 0.122717 0.045034)
(0.00188462 0.106862 0.0313604)
(0.0107087 0.092334 0.00780859)
(0.0122201 0.0846805 0.00271961)
(0.0132314 0.0834448 0.0036133)
(0.00467791 0.0899333 0.00221625)
(-0.000365617 0.0966795 0.00905339)
(-0.000251768 0.104224 0.0203089)
(0.000564129 0.101502 0.0348746)
(0.00109192 0.094938 0.0417512)
(0.00120759 0.0875698 0.0430608)
(0.00501602 0.0761551 0.0440864)
(0.0140835 0.0681153 0.0474329)
(0.0257602 0.0567926 0.0464285)
(0.0414242 0.0488007 0.0466149)
(0.0521274 0.0453794 0.0453661)