/*--------------------------------*- C++ -*----------------------------------*\
| =========                 |                                                 |
| \\      /  F ield         | OpenFOAM: The Open Source CFD Toolbox           |
|  \\    /   O peration     | Version:  2.3.0                                 |
|   \\  /    A nd           | Web:      www.OpenFOAM.org                      |
|    \\/     M anipulation  |                                                 |
\*---------------------------------------------------------------------------*/
FoamFile
{
    version     2.0;
    format      ascii;
    class       volVectorField;
    location    "30";
    object      U.waterMean;
}
// * * * * * * * * * * * * * * * * * * * * * * * * * * * * * * * * * * * * * //

dimensions      [0 1 -1 0 0 0 0];

internalField   nonuniform List<vector> 
6144
(
(0.00865867 0.0191835 -0.000990874)
(0.00882329 0.00157118 -0.00161388)
(0.00481947 -3.86535e-05 -0.00234352)
(0.00470667 -0.00194347 -0.00229217)
(0.00303202 -0.00298421 -0.00186105)
(0.00294082 -0.00210762 -0.00159584)
(0.00233971 -0.00213076 -0.0012498)
(0.00241294 -0.000990894 -0.00103714)
(0.00230176 -0.000456466 -0.00107027)
(0.00229089 0.000698453 -0.000870171)
(0.00224529 0.0014409 -0.000698505)
(0.00237388 0.00198026 -0.000410732)
(0.00250555 0.00187965 -0.000326763)
(0.00264134 0.0015481 -0.000226716)
(0.00270293 0.00100088 -0.000356215)
(0.00276216 0.000570842 -0.000466145)
(0.00278822 0.000165683 -0.000638675)
(0.00281763 -7.81028e-05 -0.000752337)
(0.00283628 -0.00028703 -0.000872974)
(0.00284874 -0.000396366 -0.000943662)
(0.00285185 -0.00048306 -0.000991578)
(0.00284903 -0.000515551 -0.00101242)
(0.00284129 -0.000536034 -0.00101829)
(0.00283056 -0.000534089 -0.00100952)
(0.00281686 -0.000526925 -0.000990523)
(0.00280122 -0.000514069 -0.000963154)
(0.00278353 -0.000499193 -0.000928481)
(0.00276393 -0.000485103 -0.000887817)
(0.0027435 -0.000463565 -0.000843223)
(0.00272176 -0.000457541 -0.000795614)
(0.00270055 -0.000427177 -0.000741997)
(0.00267167 -0.000466458 -0.000677211)
(0.00264393 -0.000422401 -0.000597668)
(0.00260361 -0.000566317 -0.000497472)
(0.00257223 -0.000518753 -0.000368395)
(0.0025266 -0.000890337 -0.000215003)
(0.0025034 -0.000896892 -4.3688e-05)
(0.0024665 -0.00163755 0.000105803)
(0.00246444 -0.00167737 0.000197421)
(0.00245304 -0.00274112 0.000166678)
(0.0024654 -0.00253105 -3.65097e-05)
(0.00247855 -0.00348569 -0.000483798)
(0.00250508 -0.00230169 -0.00105747)
(0.00263154 -0.00246614 -0.00161674)
(0.00288172 -1.10288e-05 -0.00204423)
(0.00340953 -0.000582246 -0.00228118)
(0.00414226 0.00103185 -0.00279593)
(0.0043196 -0.000705397 -0.00372404)
(0.00254515 0.00443237 -0.004951)
(0.00294934 0.00858514 -0.0070812)
(0.0122969 0.0158172 -0.0100631)
(0.0232636 0.00125651 -0.0110766)
(0.0307514 -0.00503558 -0.0121468)
(0.0331843 -0.04252 -0.0124542)
(0.032014 -0.0371839 -0.0153226)
(0.031347 -0.0831262 -0.0112615)
(0.0146252 -0.0425245 -0.0205018)
(0.011051 -0.0997847 0.015665)
(-0.0295296 0.00514011 -0.0529223)
(0.0232229 -0.0352549 0.0398707)
(0.129806 -0.29101 0.0717455)
(0.089676 -0.113869 0.0342987)
(0.0597258 -0.186402 0.01211)
(0.0492185 -0.19268 0.00658449)
(0.0402211 -0.196259 0.00596812)
(0.033375 -0.186467 0.0055186)
(0.0273395 -0.188668 0.00445284)
(0.022893 -0.181534 0.00369792)
(0.0201082 -0.180855 0.00363776)
(0.0183194 -0.173748 0.00388343)
(0.0171951 -0.171591 0.00447415)
(0.0159223 -0.165395 0.00475595)
(0.0141799 -0.160584 0.00517186)
(0.0115169 -0.152576 0.00515042)
(0.00772141 -0.143624 0.00514107)
(0.00472107 -0.131482 0.0046867)
(0.0028972 -0.119198 0.00343828)
(0.000459851 -0.104814 0.00247964)
(-0.00125462 -0.0889653 0.0025271)
(0.000389978 -0.0735029 0.00268442)
(0.00332407 -0.0610188 0.00224853)
(0.00523886 -0.0510241 0.00203988)
(0.00594106 -0.0446423 0.00317853)
(0.00476686 -0.0405247 0.00367617)
(0.00378282 -0.0352717 0.00336787)
(0.00356471 -0.0296386 0.00286119)
(0.0032463 -0.0238765 0.00307749)
(0.00238922 -0.0173361 0.00208755)
(0.00102663 -0.00997466 -1.92294e-05)
(-0.00029524 -1.00154e-05 -0.00200321)
(0.000549857 0.0101298 -0.0019765)
(0.00139629 0.017889 -6.12037e-05)
(0.00176399 0.0228108 0.00344693)
(0.00263926 0.023712 0.00740029)
(0.00459553 0.0201783 0.0107248)
(0.00602192 0.00915025 0.0150886)
(0.0175457 0.0216073 0.00254271)
(0.0183404 0.00918091 0.00212564)
(0.010579 0.0064532 -4.82354e-05)
(0.0108157 0.0045045 0.000776884)
(0.00660949 0.00114933 0.00132379)
(0.00622466 0.000935384 0.00176275)
(0.00429706 -0.000562054 0.00214624)
(0.00420301 0.000546195 0.00197924)
(0.00382461 0.000949996 0.00178867)
(0.00393628 0.00222861 0.00183309)
(0.004019 0.00274052 0.00191388)
(0.00447262 0.00315273 0.00225423)
(0.00480178 0.0028376 0.00238851)
(0.00515018 0.00245946 0.00250995)
(0.00525286 0.00179496 0.00245019)
(0.00536362 0.00128349 0.00240506)
(0.0053658 0.000763475 0.00231073)
(0.00540081 0.00044028 0.00225587)
(0.00541048 0.000152347 0.00217634)
(0.00542079 -8.47961e-06 0.00213529)
(0.00541076 -0.000139557 0.00210743)
(0.00539205 -0.000200376 0.00210728)
(0.00536365 -0.000241998 0.00212067)
(0.00532978 -0.000252639 0.0021496)
(0.00529151 -0.000253997 0.00218706)
(0.0052501 -0.000245644 0.00223167)
(0.00520563 -0.000233628 0.00228078)
(0.00515745 -0.00022178 0.00233396)
(0.00510722 -0.000204167 0.00238933)
(0.00505731 -0.000203921 0.00243832)
(0.00501306 -0.000184322 0.00248654)
(0.00495627 -0.000245871 0.00253968)
(0.00491184 -0.000221813 0.0025998)
(0.00484683 -0.000413209 0.00266627)
(0.00482382 -0.000383114 0.00274837)
(0.0047776 -0.000823377 0.00283691)
(0.00480964 -0.000808969 0.00293727)
(0.00479928 -0.00162181 0.00301912)
(0.00487583 -0.00155896 0.00307394)
(0.00486881 -0.00270476 0.00304992)
(0.00488131 -0.00230534 0.00292147)
(0.00480934 -0.00340019 0.00253967)
(0.00478406 -0.00198709 0.00183633)
(0.00474374 -0.00248709 0.00107214)
(0.00516317 8.80815e-05 0.00056701)
(0.00623938 -0.000951287 0.000303356)
(0.00691546 0.00151943 -0.00060697)
(0.00589527 0.00184085 -0.00183301)
(0.00409869 0.00822021 -0.00230431)
(0.00750846 0.0056921 -0.00294428)
(0.0253288 0.00364632 -0.00450384)
(0.041213 -0.0129546 -0.00436626)
(0.0555575 -0.0142887 -0.00137525)
(0.0592773 -0.0444271 0.00106057)
(0.054897 -0.0318254 0.0051323)
(0.0580256 -0.0940631 0.0143258)
(0.0188071 -0.0479605 0.0111403)
(0.0108678 -0.165217 0.0402408)
(-0.0798723 0.0235138 -0.0867353)
(0.00418809 -0.0809241 0.0128423)
(0.166197 -0.263817 0.114036)
(0.0859044 -0.00151253 0.0473281)
(0.025277 -0.114174 0.0110056)
(0.0258027 -0.0528406 0.0131785)
(0.0149315 -0.0729093 0.0134943)
(0.00756643 -0.0565504 0.0115583)
(0.0045875 -0.0590693 0.00966703)
(0.0049724 -0.0511052 0.0100603)
(0.00632845 -0.0510262 0.0107618)
(0.00599104 -0.0459628 0.00969394)
(0.00446325 -0.0461305 0.0103184)
(0.00216045 -0.043991 0.011094)
(0.000180913 -0.0456439 0.0111097)
(-0.00248507 -0.0457987 0.00981642)
(-0.00478276 -0.0466937 0.00839496)
(-0.00575254 -0.0452115 0.00763944)
(-0.00619087 -0.0425527 0.00614787)
(-0.00805526 -0.0380559 0.00631561)
(-0.00863908 -0.0330281 0.00623918)
(-0.00639025 -0.0281276 0.00624019)
(-0.00367568 -0.0229335 0.0058539)
(-0.000911003 -0.0177103 0.00692956)
(0.000888512 -0.0168302 0.00916272)
(3.73382e-05 -0.0180344 0.00976072)
(-0.00193904 -0.0181312 0.00893115)
(-0.00255843 -0.0175884 0.00895711)
(-0.00297261 -0.0155949 0.00897531)
(-0.00386215 -0.0126368 0.0082645)
(-0.00416421 -0.0090595 0.00624989)
(-0.00396319 -0.00462654 0.00265674)
(-0.00310528 0.000918919 0.00130152)
(-0.00178399 0.00682057 0.000677872)
(-0.000969638 0.0134782 0.00326818)
(0.000796167 0.015521 0.00894679)
(0.00333326 0.0138938 0.014016)
(0.00508128 0.00544088 0.0193177)
(0.0210253 0.0218484 0.00369943)
(0.0225414 0.0129733 0.00345391)
(0.0138735 0.00944654 0.00111907)
(0.0143108 0.00881958 0.00200338)
(0.00840792 0.00443227 0.002409)
(0.00748818 0.0037162 0.00288666)
(0.0040618 0.00100781 0.00339854)
(0.00368407 0.00181689 0.00326398)
(0.0030011 0.00192795 0.00311486)
(0.00338662 0.00300388 0.00321886)
(0.00351538 0.00304327 0.00326571)
(0.0042498 0.00333826 0.00353004)
(0.00464206 0.00293734 0.00364444)
(0.00510151 0.00270636 0.00375892)
(0.0052248 0.00212724 0.00372706)
(0.00535833 0.00170378 0.00372261)
(0.00530289 0.00119083 0.00368365)
(0.00530316 0.000859132 0.00368189)
(0.00523313 0.000532984 0.00367756)
(0.00518975 0.000342049 0.00369516)
(0.00512052 0.000175296 0.00371432)
(0.00505996 8.54593e-05 0.00374553)
(0.00499407 1.86578e-05 0.00377819)
(0.00493094 -1.07368e-05 0.00381626)
(0.00486792 -2.61803e-05 0.0038558)
(0.00480634 -2.82786e-05 0.00389671)
(0.00474453 -2.58476e-05 0.00393783)
(0.00468161 -2.48066e-05 0.00397965)
(0.0046183 -2.49276e-05 0.00402243)
(0.00455206 -4.72054e-05 0.00406738)
(0.00449086 -5.60533e-05 0.00411491)
(0.00441728 -0.000140914 0.00416387)
(0.00436042 -0.000149119 0.00421539)
(0.00427835 -0.000353315 0.00426742)
(0.00425732 -0.000330581 0.00432533)
(0.00420969 -0.000718489 0.00438045)
(0.00426943 -0.00061021 0.00443888)
(0.00426925 -0.00122238 0.00447697)
(0.00439179 -0.000894552 0.00449619)
(0.00439816 -0.00167019 0.00446022)
(0.00449052 -0.000883805 0.00435984)
(0.004373 -0.00171971 0.00415852)
(0.0042824 -0.000269326 0.00383244)
(0.00423414 -0.00118086 0.0033644)
(0.00478737 0.000762463 0.00290369)
(0.00587042 -0.0005525 0.00256379)
(0.00631411 0.00256173 0.00177349)
(0.0057031 0.00175198 0.000743575)
(0.00602787 0.00632853 0.000697798)
(0.0151017 -0.00263144 0.000270924)
(0.0380921 -0.00450188 -0.000844716)
(0.0593464 -0.015751 0.00140428)
(0.071514 -0.0101128 0.00713059)
(0.0787877 -0.0323876 0.0100589)
(0.0800282 -0.0145321 0.0186554)
(0.0843704 -0.0806422 0.0292915)
(0.0346932 -0.0212423 0.0380085)
(0.0432132 -0.183993 0.0721333)
(-0.0879544 0.0652828 -0.072025)
(0.0251945 -0.115622 -0.0207035)
(0.190117 -0.242104 0.122959)
(0.103963 0.0464495 0.0541822)
(0.0671871 -0.0915734 0.0275182)
(0.0458911 -0.00568046 0.0136168)
(0.0302604 -0.0331355 0.0126117)
(0.0186987 -0.0108497 0.0121909)
(0.0173768 -0.0168619 0.0135229)
(0.0149415 -0.0085683 0.0118006)
(0.0159884 -0.00658268 0.0100835)
(0.0159828 -0.0013655 0.0104852)
(0.014341 -0.00462728 0.0112355)
(0.0116474 -0.00544722 0.0115844)
(0.00951459 -0.00958169 0.0105343)
(0.00698449 -0.00995392 0.00911305)
(0.00377438 -0.0106985 0.00703984)
(0.000101759 -0.00908922 0.00557838)
(-0.00260239 -0.00712371 0.0060889)
(-0.00425545 -0.00572203 0.00770519)
(-0.00507064 -0.00569816 0.00829303)
(-0.00448442 -0.0051148 0.00833467)
(-0.00299891 -0.00357887 0.00783505)
(-0.00039497 -0.00269891 0.00931121)
(0.00139664 -0.0037368 0.0126227)
(-0.00150476 -0.00578952 0.0129266)
(-0.00492142 -0.00783306 0.0118538)
(-0.00685717 -0.00853994 0.0115416)
(-0.0075256 -0.00691717 0.00992499)
(-0.00788149 -0.00483726 0.00799186)
(-0.00767722 -0.00180499 0.0069719)
(-0.00637864 0.0014225 0.00446516)
(-0.00453526 0.00545997 0.00289178)
(-0.00413403 0.00905037 0.00407468)
(-0.00290615 0.012121 0.0070167)
(-0.00095232 0.0120794 0.0114586)
(-4.83465e-05 0.00984369 0.0162761)
(-0.000659479 0.00181189 0.0209406)
(0.0224457 0.0220053 0.00398403)
(0.025721 0.0154867 0.00412266)
(0.0154092 0.0104419 0.00100321)
(0.017237 0.011409 0.0014404)
(0.0106769 0.00619313 0.00141759)
(0.0100201 0.00608806 0.00205966)
(0.0044275 0.00154208 0.00288577)
(0.00324098 0.00196328 0.00289254)
(0.00189047 0.00136625 0.00301481)
(0.0025942 0.00275527 0.003266)
(0.00273551 0.00254758 0.00342586)
(0.00345206 0.00301189 0.00383881)
(0.00376744 0.00273626 0.00400899)
(0.00423335 0.00273646 0.00415222)
(0.00435533 0.00225965 0.00411342)
(0.00449829 0.00194623 0.00411768)
(0.00441845 0.00145118 0.00408868)
(0.0044034 0.00114139 0.00410375)
(0.00430234 0.000799354 0.00410922)
(0.00423648 0.000590571 0.00413562)
(0.00414259 0.000396285 0.00416105)
(0.00405954 0.0002837 0.00419709)
(0.00396919 0.000194156 0.00423278)
(0.00388533 0.000146312 0.00427257)
(0.00380473 0.000116295 0.0043131)
(0.00372891 0.000103195 0.00435515)
(0.00365652 9.6048e-05 0.00439759)
(0.00358689 8.92779e-05 0.00444033)
(0.00352061 8.0461e-05 0.00448321)
(0.00345771 5.21147e-05 0.00452678)
(0.00340444 3.23765e-05 0.0045714)
(0.00334461 -5.24801e-05 0.00461658)
(0.00330801 -6.38015e-05 0.00466167)
(0.00325038 -0.000243067 0.00470344)
(0.00326073 -0.000192621 0.00474085)
(0.00323026 -0.000502586 0.00476548)
(0.00331172 -0.000294405 0.00477706)
(0.00329522 -0.000731265 0.00475904)
(0.00341039 -0.000187178 0.00471449)
(0.0033706 -0.000678827 0.00462991)
(0.00349093 0.000419479 0.00451176)
(0.00347848 -0.000197937 0.00435676)
(0.00368759 0.00119087 0.0041639)
(0.00374957 -0.000210138 0.00395377)
(0.00403074 0.00123249 0.00382227)
(0.00458407 -0.000509684 0.00371378)
(0.00540212 0.00241473 0.0032369)
(0.00572991 0.000153296 0.00262374)
(0.00867171 0.00208483 0.00303432)
(0.0189676 -0.00960664 0.00183807)
(0.0419876 -0.0086295 0.00195234)
(0.0631892 -0.0103551 0.0088853)
(0.0765186 0.00392238 0.0167429)
(0.0835318 -0.00650873 0.0223474)
(0.0844108 0.0222155 0.0378182)
(0.0851339 -0.0417911 0.0503579)
(0.0361063 0.0530968 0.0922537)
(0.0668854 -0.19485 0.124908)
(-0.104021 0.191181 -0.0445699)
(0.0251999 -0.207825 0.00838069)
(0.168756 -0.206079 0.133725)
(0.0749504 0.0723108 0.0420894)
(0.044182 -0.0556341 0.0276617)
(0.0116811 0.0408648 0.00257407)
(0.00768574 0.0169349 0.00912161)
(0.00154632 0.0399233 0.00981469)
(0.00284456 0.0362695 0.0102704)
(0.00279577 0.0456454 0.00877064)
(0.0059024 0.0436367 0.0076556)
(0.00747846 0.0473445 0.00736198)
(0.00774979 0.0430657 0.00719872)
(0.00663347 0.0426048 0.00558935)
(0.00457089 0.039888 0.00418721)
(0.001486 0.0397379 0.00363185)
(-0.00066542 0.0389201 0.00375173)
(-0.00355193 0.0366354 0.00593742)
(-0.00661482 0.0317055 0.00818291)
(-0.00905511 0.0277295 0.0103834)
(-0.0104861 0.0232538 0.0116011)
(-0.0102285 0.021854 0.0111142)
(-0.00913201 0.0206961 0.0115432)
(-0.00876737 0.0207632 0.0113825)
(-0.00861682 0.020525 0.0127109)
(-0.0091059 0.0182191 0.0126609)
(-0.0119964 0.015936 0.0118253)
(-0.0141235 0.0134734 0.0106481)
(-0.0136693 0.0138845 0.00709216)
(-0.0131862 0.015096 0.00590617)
(-0.0121266 0.0144745 0.00534811)
(-0.00975584 0.0149329 0.00320438)
(-0.00781931 0.0163369 0.00302913)
(-0.00644525 0.0165724 0.00519296)
(-0.0054274 0.0158602 0.00896556)
(-0.00392636 0.0127285 0.0143671)
(-0.0053854 0.00919456 0.0180447)
(-0.00832232 0.0009632 0.021363)
(0.0224902 0.0220864 0.00447688)
(0.0278882 0.0181141 0.0051745)
(0.0163775 0.0107509 0.00107057)
(0.0193891 0.0130223 0.00151498)
(0.0125515 0.00637306 0.000560566)
(0.0129012 0.00768729 0.000981346)
(0.00617945 0.0022257 0.00128676)
(0.00395166 0.00263246 0.001898)
(0.000899895 0.000289988 0.00237136)
(0.00125345 0.00172959 0.00287469)
(0.00124514 0.00134872 0.00315265)
(0.00181203 0.00223921 0.00379835)
(0.00195877 0.00221913 0.00402114)
(0.00242315 0.00252393 0.00421248)
(0.00254352 0.00218446 0.00414851)
(0.00265955 0.0019739 0.00416513)
(0.0025043 0.00151123 0.0041311)
(0.00240501 0.00124499 0.00415423)
(0.00222447 0.000917415 0.00415215)
(0.00210049 0.000720805 0.00416807)
(0.0019556 0.000515559 0.00417404)
(0.00183762 0.000385942 0.00419123)
(0.00172281 0.000276407 0.00420825)
(0.00162269 0.000211757 0.00423109)
(0.00153269 0.000166673 0.00425586)
(0.00145276 0.000141067 0.00428406)
(0.00137984 0.000124062 0.00431347)
(0.00131431 0.000109704 0.00434442)
(0.0012563 9.31414e-05 0.00437643)
(0.00120471 6.16651e-05 0.00440774)
(0.00116276 3.93417e-05 0.00443713)
(0.00111585 -3.21963e-05 0.00446351)
(0.0010884 -3.05299e-05 0.00448756)
(0.00103822 -0.000164184 0.00450466)
(0.00105857 -6.68877e-05 0.0045137)
(0.0010381 -0.000278608 0.00449969)
(0.00113307 2.83837e-05 0.00446308)
(0.00110579 -0.000237727 0.00438129)
(0.00120662 0.000479648 0.00426596)
(0.00111132 0.000209361 0.00411445)
(0.00129248 0.00144441 0.00397738)
(0.0014563 0.000867859 0.00387546)
(0.00203532 0.00212644 0.00379692)
(0.00230521 0.0004451 0.00375544)
(0.00255435 0.00156087 0.00383852)
(0.00285291 -0.000638126 0.00392772)
(0.00389151 0.00180276 0.00398151)
(0.0056752 -0.0011059 0.00438591)
(0.0106576 -0.00113224 0.00527985)
(0.0217751 -0.013239 0.00499642)
(0.0403799 -0.0076843 0.00822656)
(0.0587365 0.000351429 0.0195833)
(0.0693222 0.0254397 0.0266837)
(0.0745513 0.0248941 0.031653)
(0.071938 0.0585982 0.0532782)
(0.0713667 0.0073809 0.0657637)
(0.0507758 0.120255 0.110116)
(0.0819876 -0.14664 0.12818)
(-0.0642381 0.312724 -0.0054936)
(0.0187025 -0.266881 0.018973)
(0.145499 -0.173621 0.138409)
(0.0547177 0.0838364 0.0355038)
(0.0421465 -0.0153593 0.0281072)
(0.0101718 0.0710536 3.03598e-05)
(0.0133048 0.0556817 0.00788314)
(0.00546041 0.0771145 0.00784648)
(0.00622599 0.0759093 0.00857322)
(0.00566123 0.0852587 0.0073124)
(0.00856702 0.0841051 0.00715387)
(0.0100936 0.0888532 0.00669811)
(0.010889 0.0870429 0.00636555)
(0.0100748 0.0886121 0.00583367)
(0.00915156 0.087079 0.00617923)
(0.00679027 0.0854275 0.0070673)
(0.00438172 0.081463 0.00872508)
(0.000851221 0.0762514 0.00979903)
(-0.00229823 0.0710946 0.0106074)
(-0.00536212 0.0661244 0.0107049)
(-0.00739294 0.0620467 0.0108656)
(-0.00759579 0.0594694 0.0108472)
(-0.00801614 0.0571841 0.0112831)
(-0.00859248 0.0528808 0.01232)
(-0.00813914 0.0473827 0.0135933)
(-0.00867702 0.0421967 0.0116964)
(-0.0102357 0.037801 0.00799233)
(-0.0112878 0.0353879 0.00379762)
(-0.0103508 0.0342601 0.0015962)
(-0.00900762 0.0324838 0.000960237)
(-0.00826025 0.0297732 0.000942035)
(-0.00754031 0.0275739 0.00204064)
(-0.00748491 0.0257144 0.00413987)
(-0.00716888 0.0230473 0.0065639)
(-0.00718345 0.0205741 0.0111398)
(-0.00743495 0.0141908 0.0163143)
(-0.0104131 0.0106837 0.0199137)
(-0.0163933 0.000635997 0.0208252)
(0.0209461 0.0218033 0.00570624)
(0.0293033 0.0210252 0.00667956)
(0.0163927 0.0107068 0.00180127)
(0.0206519 0.0144673 0.00284542)
(0.0134984 0.00505606 0.0010677)
(0.0146147 0.0079237 0.000990437)
(0.00821768 0.00182717 0.000316431)
(0.00555207 0.00338004 0.000905929)
(0.00125114 -0.000297623 0.00165808)
(0.000425976 0.000851172 0.00235399)
(-6.23662e-05 -0.000201353 0.00269705)
(0.000264419 0.00100436 0.0035441)
(0.000481197 0.00126678 0.00389808)
(0.00107984 0.00201906 0.00426275)
(0.00134047 0.00180776 0.00430916)
(0.00150067 0.00174498 0.00441639)
(0.00131447 0.00134036 0.00439419)
(0.00116598 0.00117193 0.00441639)
(0.000940551 0.000914765 0.00438069)
(0.000789057 0.000793621 0.00435888)
(0.000628235 0.000638664 0.00431571)
(0.000503212 0.000547819 0.00428134)
(0.000385992 0.000458264 0.00424554)
(0.000288177 0.000402311 0.00421815)
(0.000206825 0.000358216 0.00419551)
(0.000141478 0.000329934 0.00418057)
(8.96535e-05 0.00031062 0.00417233)
(5.03416e-05 0.000296839 0.00417055)
(2.17203e-05 0.000285089 0.00417361)
(2.27545e-06 0.000266123 0.00418052)
(-7.43068e-06 0.000259313 0.00419004)
(-1.77916e-05 0.000219637 0.00419988)
(-8.97832e-06 0.000254094 0.00421247)
(-1.79014e-05 0.000189477 0.0042173)
(3.48344e-05 0.000358067 0.00420972)
(3.83295e-05 0.000273165 0.00416952)
(0.000120395 0.000689008 0.00409128)
(4.32561e-05 0.000571663 0.00394696)
(7.50584e-05 0.00134384 0.0037548)
(-3.85027e-05 0.00109425 0.00354533)
(0.000207182 0.00217371 0.00339512)
(0.000513062 0.00146861 0.003343)
(0.00131134 0.00258036 0.00341624)
(0.00163742 0.000754432 0.00357986)
(0.00178082 0.00173678 0.0037271)
(0.00163317 -0.000544219 0.00363279)
(0.00264423 0.00197318 0.00383067)
(0.00513896 -0.00163222 0.0054338)
(0.0118556 -0.00287948 0.00679486)
(0.0213979 -0.0140871 0.00848294)
(0.0325324 -0.00406051 0.015078)
(0.0415073 0.00831478 0.0289287)
(0.0529331 0.0362763 0.0382002)
(0.0583911 0.0398198 0.043289)
(0.0565524 0.075264 0.0612656)
(0.0555405 0.0199539 0.0659948)
(0.0521172 0.121521 0.0879986)
(0.0698774 -0.121738 0.0850139)
(0.00798458 0.359375 0.0358191)
(0.0176684 -0.303773 0.0262272)
(0.0830763 -0.134442 0.129291)
(0.0193798 0.104033 0.016654)
(0.0117072 0.0341709 0.0147104)
(-0.00755525 0.108041 -0.00212332)
(-0.00485637 0.105796 0.00833784)
(-0.00703441 0.123626 0.00971724)
(-0.0026976 0.122546 0.0111048)
(0.000912805 0.129906 0.0103686)
(0.00575318 0.127934 0.0102751)
(0.00930352 0.132068 0.0101938)
(0.0124908 0.130775 0.0105144)
(0.0133111 0.131481 0.0107305)
(0.0135792 0.128741 0.0111876)
(0.0121784 0.127073 0.0120814)
(0.0102942 0.122503 0.0130751)
(0.00748192 0.117645 0.013804)
(0.00482848 0.111388 0.0141804)
(0.00196753 0.104964 0.013912)
(-0.000444444 0.0985651 0.0134735)
(-0.00198619 0.0916225 0.0133753)
(-0.00318452 0.0843914 0.0131343)
(-0.004187 0.0764752 0.0129552)
(-0.00446172 0.0686497 0.0110136)
(-0.0050675 0.0618598 0.00582891)
(-0.00647885 0.0574082 0.00038212)
(-0.00732239 0.0551054 -0.00240015)
(-0.00701673 0.0527557 -0.00305617)
(-0.00667711 0.0505846 -0.00279602)
(-0.00627274 0.0480671 -0.000348493)
(-0.00713132 0.0443127 0.00396405)
(-0.0083143 0.0388 0.00613294)
(-0.00949638 0.033443 0.00886467)
(-0.0104186 0.0277958 0.0134849)
(-0.0118452 0.0188964 0.01782)
(-0.0162949 0.013503 0.0200369)
(-0.0209004 0.000857067 0.0176827)
(0.0167597 0.0203839 0.00581739)
(0.0289718 0.0245555 0.00858484)
(0.014207 0.0100374 0.0033434)
(0.0199283 0.0163164 0.0054135)
(0.0121937 0.00342334 0.00300154)
(0.0138136 0.00740032 0.00284407)
(0.00808238 0.000330678 0.00149352)
(0.00608862 0.00326594 0.00107071)
(0.0013317 -0.00069928 0.00150271)
(-0.000374839 0.000728765 0.00229117)
(-0.001758 -0.00112212 0.00255537)
(-0.00231407 0.000156321 0.00335734)
(-0.00255799 0.000427181 0.00376944)
(-0.00181615 0.00139956 0.00443123)
(-0.00148037 0.00123622 0.00469712)
(-0.00133827 0.0013647 0.00492437)
(-0.00163715 0.00105894 0.00490807)
(-0.001925 0.00103724 0.00489373)
(-0.00225879 0.000882275 0.00479817)
(-0.00246782 0.000869716 0.00472281)
(-0.00265752 0.000797316 0.00462698)
(-0.00278645 0.000780961 0.00454979)
(-0.00289069 0.000744836 0.00447671)
(-0.0029659 0.000727987 0.00442154)
(-0.00301917 0.000708803 0.00437799)
(-0.0030559 0.000695691 0.00434914)
(-0.00308093 0.000684398 0.00432966)
(-0.00309058 0.000677379 0.00432018)
(-0.00308633 0.00067488 0.00432003)
(-0.00307007 0.000671865 0.00432841)
(-0.00304678 0.000686639 0.00434509)
(-0.00302563 0.00068566 0.00436628)
(-0.00300262 0.000765087 0.00439086)
(-0.00301056 0.000781183 0.00440238)
(-0.00297008 0.00102322 0.00439892)
(-0.0029712 0.00104212 0.00436352)
(-0.00287174 0.00150618 0.00430773)
(-0.00287556 0.0014156 0.00419915)
(-0.00272978 0.00204564 0.00403907)
(-0.00272165 0.00157191 0.00381259)
(-0.00237951 0.00229728 0.00360922)
(-0.00203314 0.00130789 0.00346531)
(-0.00113623 0.00226527 0.00354139)
(-0.0007682 0.000505487 0.00372915)
(-0.000682904 0.00162649 0.00384358)
(-0.00111577 -0.000385496 0.00341865)
(0.000376086 0.00189104 0.00357979)
(0.00390048 -0.00293919 0.00557015)
(0.0113451 -0.00548994 0.0070943)
(0.0183989 -0.0117771 0.0104558)
(0.0178969 0.00429828 0.0193093)
(0.0207877 0.021569 0.033349)
(0.0272237 0.050815 0.0439229)
(0.0339475 0.0622223 0.0514054)
(0.0429976 0.0957829 0.0649176)
(0.0486502 0.0413695 0.0674666)
(0.0640074 0.136067 0.0790239)
(0.0595276 -0.111322 0.0635119)
(0.0291703 0.341236 0.0633502)
(0.00940144 -0.312472 0.0313819)
(0.0227513 -0.101002 0.113312)
(-0.00913795 0.119165 0.0166343)
(-0.011913 0.0720342 0.0101971)
(-0.0196839 0.140773 -0.00259215)
(-0.0126775 0.136171 0.00992564)
(-0.00938484 0.150378 0.0108626)
(-0.00364489 0.145886 0.0114115)
(0.00157387 0.152579 0.0110015)
(0.00636199 0.151278 0.0119549)
(0.00974799 0.155775 0.0125736)
(0.0132389 0.154629 0.0135876)
(0.0149993 0.157164 0.0140851)
(0.0166677 0.155263 0.0154284)
(0.0158513 0.153344 0.0155766)
(0.0149827 0.148275 0.0165102)
(0.0124885 0.142702 0.0161324)
(0.0102431 0.136332 0.0156177)
(0.00720266 0.129121 0.014472)
(0.00490368 0.122039 0.0137379)
(0.0033046 0.114594 0.013868)
(0.00318961 0.106805 0.0138887)
(0.00361645 0.0981584 0.0119844)
(0.00441449 0.0903111 0.0082857)
(0.00378763 0.0840071 0.00320693)
(0.00229547 0.0794813 -0.0017736)
(0.000935525 0.0747072 -0.00570495)
(-0.000110324 0.0714529 -0.00726997)
(-0.00124117 0.0676535 -0.00686377)
(-0.0023705 0.0625661 -0.00485045)
(-0.00292509 0.0583489 -0.00115988)
(-0.00404785 0.0513598 0.00146988)
(-0.00700627 0.0444251 0.00368702)
(-0.0092936 0.0365556 0.00665612)
(-0.0123654 0.026299 0.0113542)
(-0.017404 0.0176837 0.0145716)
(-0.0263081 0.000163716 0.0105329)
(0.0123521 0.0150767 0.00443494)
(0.0275158 0.0278511 0.00909497)
(0.0104313 0.00888133 0.0040816)
(0.017707 0.0187846 0.0067867)
(0.010154 0.00261652 0.00431263)
(0.011439 0.00753956 0.00420931)
(0.0058554 -0.000863362 0.00318013)
(0.00482814 0.00319185 0.00216318)
(0.000521736 -0.0010364 0.00218142)
(-0.00127085 0.000996315 0.00283517)
(-0.0028326 -0.00132916 0.00318318)
(-0.00366687 -0.00021566 0.00394402)
(-0.00379233 -0.000735372 0.00460675)
(-0.00289859 0.000125724 0.00546059)
(-0.00250391 -6.24e-05 0.00603998)
(-0.00236795 0.000474215 0.00647519)
(-0.00263549 0.000483266 0.00663397)
(-0.00285727 0.000816089 0.00669483)
(-0.00312847 0.000866566 0.00662745)
(-0.00327844 0.00103083 0.00654996)
(-0.00341783 0.00106012 0.00644332)
(-0.00349603 0.00112048 0.00635717)
(-0.00355268 0.00113083 0.00627678)
(-0.00357836 0.001144 0.00621832)
(-0.00358272 0.00114309 0.00617409)
(-0.00356797 0.00114248 0.00614652)
(-0.00354221 0.00114005 0.00613092)
(-0.00350492 0.00114107 0.00612628)
(-0.00345985 0.00114715 0.00612944)
(-0.00340743 0.00115847 0.00614034)
(-0.00335425 0.00118977 0.00615631)
(-0.0033094 0.00121955 0.00617361)
(-0.0032737 0.00133385 0.00619067)
(-0.00326805 0.00141028 0.00619772)
(-0.00321057 0.00168839 0.0061937)
(-0.00319005 0.00175293 0.00616188)
(-0.00305811 0.00218336 0.00611408)
(-0.00300608 0.00205595 0.00601643)
(-0.00273998 0.00256092 0.00588876)
(-0.00259943 0.00198717 0.00569709)
(-0.00217761 0.00250318 0.00549874)
(-0.00193862 0.00134167 0.00529293)
(-0.00128107 0.00209032 0.0052677)
(-0.00116539 0.000322183 0.00539792)
(-0.00143922 0.00152566 0.00543692)
(-0.00214923 -0.000703028 0.00487017)
(-0.000214042 0.000177271 0.00465431)
(0.00445482 -0.00559067 0.00573596)
(0.0097864 -0.00532001 0.00754042)
(0.00633551 0.000152079 0.0156457)
(-0.00466878 0.0192114 0.0268169)
(-0.0078125 0.0391235 0.0376594)
(-0.00228112 0.0659852 0.0445728)
(0.0105621 0.0835206 0.0497102)
(0.0298998 0.118316 0.0639278)
(0.0550113 0.0956288 0.0719494)
(0.0847754 0.165359 0.0909267)
(0.0790061 -0.0371342 0.0818408)
(0.072677 0.370145 0.0404245)
(-0.00983678 -0.331299 0.029255)
(-0.0563467 -0.0740049 0.0818213)
(-0.0426586 0.152836 -0.00853029)
(-0.0437789 0.106725 0.00093652)
(-0.0336972 0.165603 -0.00638974)
(-0.0252942 0.15059 0.00592345)
(-0.0129154 0.157579 0.0051799)
(-0.00637825 0.150575 0.00533521)
(0.000337958 0.155446 0.00471572)
(0.00540178 0.155625 0.00546027)
(0.0100436 0.16045 0.00745116)
(0.0135782 0.160777 0.00890632)
(0.0157714 0.164113 0.0101645)
(0.0177914 0.165026 0.0118768)
(0.0189414 0.167123 0.0131654)
(0.0195594 0.165479 0.0148447)
(0.0190735 0.161997 0.0162111)
(0.0180676 0.156701 0.0170331)
(0.016644 0.150455 0.0175095)
(0.0149553 0.143028 0.0175988)
(0.013978 0.134861 0.0172625)
(0.0135187 0.126563 0.0164872)
(0.0139218 0.118655 0.0149029)
(0.0137462 0.112672 0.0122837)
(0.0129994 0.108641 0.00812872)
(0.0121168 0.10588 0.00529485)
(0.00897509 0.103079 0.00258303)
(0.0063706 0.10088 -1.60327e-05)
(0.0050638 0.09708 -0.00196945)
(0.00420567 0.0938641 -0.00215517)
(0.00396153 0.0892468 -4.91159e-05)
(0.00278713 0.0833783 0.00315442)
(-0.000188875 0.0764685 0.00669182)
(-0.00231786 0.0668936 0.00973606)
(-0.00509317 0.053633 0.0114003)
(-0.00977927 0.0346549 0.00766325)
(-0.0164132 0.00720367 -0.00685945)
(0.00161036 0.0104743 -0.00479077)
(0.0248757 0.0300616 0.00650823)
(0.00475986 0.0082743 0.0013883)
(0.0142863 0.0220538 0.00442734)
(0.00711207 0.00351714 0.00256522)
(0.00788353 0.00898477 0.0021408)
(0.0023501 -0.000517489 0.00116298)
(0.00217132 0.00410739 -9.70366e-05)
(-0.00152838 -0.000370337 -0.000670082)
(-0.00323498 0.00168661 -0.000388088)
(-0.00506323 -0.00107642 -7.16696e-06)
(-0.00600529 -0.000214901 0.000647587)
(-0.00679672 -0.00150664 0.00132251)
(-0.00639578 -0.000709163 0.00208749)
(-0.00656361 -0.000826649 0.00277151)
(-0.00662643 9.26988e-06 0.00325838)
(-0.00706272 0.000176918 0.00358977)
(-0.00731203 0.000697328 0.00378661)
(-0.00760332 0.000841813 0.00385913)
(-0.00772191 0.00109893 0.00388292)
(-0.00782598 0.00119036 0.00386095)
(-0.00787136 0.00129987 0.00384072)
(-0.00789107 0.00134421 0.00381845)
(-0.00788507 0.001379 0.00380806)
(-0.00786218 0.00139285 0.00380453)
(-0.00782475 0.0014032 0.00380983)
(-0.00777679 0.00141075 0.00382093)
(-0.00771807 0.00142157 0.00383673)
(-0.00765022 0.00143945 0.00385443)
(-0.00757654 0.00146726 0.00387289)
(-0.007509 0.00151418 0.00389009)
(-0.00745802 0.00156711 0.00390391)
(-0.0074334 0.00169255 0.0039134)
(-0.00744055 0.00177838 0.00391596)
(-0.00738527 0.00203434 0.00390633)
(-0.00733482 0.00209285 0.00388506)
(-0.0071444 0.00249476 0.00384538)
(-0.00700505 0.00240151 0.003775)
(-0.00669693 0.00290407 0.00364867)
(-0.00651627 0.00238427 0.00346543)
(-0.00606329 0.00289441 0.00323236)
(-0.00578551 0.00173717 0.0029975)
(-0.00507218 0.002249 0.00290764)
(-0.0049616 0.000298765 0.00308158)
(-0.00508019 0.00110624 0.00303039)
(-0.00477368 -0.00153453 0.00222289)
(-0.00158007 -0.0009345 0.00228125)
(0.00131962 -0.00455068 0.00217026)
(-0.00215887 0.0015709 0.00372915)
(-0.0117217 0.00851831 0.0123474)
(-0.0277154 0.019231 0.0251369)
(-0.0312678 0.0254059 0.0345809)
(-0.027273 0.0456936 0.037528)
(-0.0165492 0.0483139 0.03519)
(-0.00367685 0.0957393 0.0454157)
(0.0269267 0.0494091 0.0463693)
(0.0731282 0.160331 0.0693593)
(0.0900803 -0.0423258 0.0755613)
(0.156281 0.397115 0.0235)
(-0.0128331 -0.308959 0.0237926)
(-0.11681 -0.121193 0.0692965)
(-0.0657214 0.143223 -0.0109686)
(-0.0635615 0.059671 0.00294317)
(-0.0340961 0.122426 -0.00145426)
(-0.0278909 0.0841245 0.0112261)
(-0.011106 0.090729 0.00856016)
(-0.0063426 0.0759361 0.00707184)
(-0.000669768 0.077772 0.0047157)
(0.0021136 0.0742217 0.00292136)
(0.00647929 0.0769997 0.00339404)
(0.00858269 0.0748927 0.00270566)
(0.00964323 0.0778327 0.00252544)