/*--------------------------------*- C++ -*----------------------------------*\
| =========                 |                                                 |
| \\      /  F ield         | OpenFOAM: The Open Source CFD Toolbox           |
|  \\    /   O peration     | Version:  2.3.0                                 |
|   \\  /    A nd           | Web:      www.OpenFOAM.org                      |
|    \\/     M anipulation  |                                                 |
\*---------------------------------------------------------------------------*/
FoamFile
{
    version     2.0;
    format      ascii;
    class       volScalarField;
    location    "30";
    object      w2;
}
// * * * * * * * * * * * * * * * * * * * * * * * * * * * * * * * * * * * * * //

dimensions      [0 0 0 0 0 0 0];

internalField   nonuniform List<scalar> 
6144
(
0.452838
0.452838
0.452838
0.452838
0.452838
0.452838
0.452838
0.452838
0.452838
0.452838
0.452838
0.452838
0.452838
0.452838
0.452838
0.452838
0.452838
0.452838
0.452838
0.452838
0.452838
0.452838
0.452838
0.452838
0.452838
0.452838
0.452838
0.452838
0.452838
0.452838
0.452838
0.452838
0.452838
0.452838
0.452838
0.452838
0.452838
0.452838
0.452838
0.452838
0.452838
0.452838
0.452838
0.452838
0.452838
0.452838
0.452838
0.452838
0.452838
0.452838
0.452838
0.452838
0.452838
0.452838
0.452838
0.452839
0.452841
0.453035
0.486416
0.487597
0.108902
0.000342909
4.23916e-06
0.000812658
0.000745253
0.00620708
0.00919159
0.0102443
0.00597021
0.0106451
0.0221676
0.0172705
0.0069077
0.0097471
0.0091358
0.00490929
0.0114583
0.00705761
0.0351276
0.00615598
0.0155024
0.246176
0.0233101
0.0353118
0.00723895
0.00521038
0.00725063
0.0134303
0.0223316
0.00745253
0.00659508
0.0149254
0.0172948
0.0113859
0.00107035
0.000119928
0.452838
0.452838
0.452838
0.452838
0.452838
0.452838
0.452838
0.452838
0.452838
0.452838
0.452838
0.452838
0.452838
0.452838
0.452838
0.452838
0.452838
0.452838
0.452838
0.452838
0.452838
0.452838
0.452838
0.452838
0.452838
0.452838
0.452838
0.452838
0.452838
0.452838
0.452838
0.452838
0.452838
0.452838
0.452838
0.452838
0.452838
0.452838
0.452838
0.452838
0.452838
0.452838
0.452838
0.452838
0.452838
0.452838
0.452838
0.452838
0.452838
0.452838
0.452838
0.452838
0.452838
0.452838
0.452838
0.452838
0.452846
0.454133
0.505771
0.484665
0.135081
0.000409521
4.4913e-06
0.000560126
0.00181903
0.0010114
0.0030568
0.0101949
0.00940168
0.00864493
0.00814024
0.0053441
0.00369386
0.0324385
0.0138342
0.0109832
0.00777053
0.0926972
0.0444323
0.0134901
0.00872334
0.0541828
0.0354374
0.00392858
0.0039935
0.00630784
0.0084661
0.0297492
0.0113626
0.00634711
0.00780842
0.0354002
0.0538233
0.0089361
0.00204668
0.000125768
0.452838
0.452838
0.452838
0.452838
0.452838
0.452838
0.452838
0.452838
0.452838
0.452838
0.452838
0.452838
0.452838
0.452838
0.452838
0.452838
0.452838
0.452838
0.452838
0.452838
0.452838
0.452838
0.452838
0.452838
0.452838
0.452838
0.452838
0.452838
0.452838
0.452838
0.452838
0.452838
0.452838
0.452838
0.452838
0.452838
0.452838
0.452838
0.452838
0.452838
0.452838
0.452838
0.452838
0.452838
0.452838
0.452838
0.452838
0.452838
0.452838
0.452838
0.452838
0.452838
0.452838
0.452838
0.452838
0.452838
0.452839
0.453038
0.47376
0.436648
0.836662
0.00027748
4.67158e-06
0.000358927
0.00165919
0.0026829
0.00120952
0.00155441
0.00628492
0.0239536
0.00666177
0.00758495
0.00792528
0.00516328
0.00522014
0.0025244
0.0184257
0.00212018
0.0115088
0.00619401
0.00954525
0.0034138
0.00826947
0.0119797
0.0063095
0.0107656
0.0281615
0.0118032
0.0150336
0.00225667
0.00376241
0.0373271
0.0132486
0.00438638
0.000900186
0.00012111
0.452838
0.452838
0.452838
0.452838
0.452838
0.452838
0.452838
0.452838
0.452838
0.452838
0.452838
0.452838
0.452838
0.452838
0.452838
0.452838
0.452838
0.452838
0.452838
0.452838
0.452838
0.452838
0.452838
0.452838
0.452838
0.452838
0.452838
0.452838
0.452838
0.452838
0.452838
0.452838
0.452838
0.452838
0.452838
0.452838
0.452838
0.452838
0.452838
0.452838
0.452838
0.452838
0.452838
0.452838
0.452838
0.452838
0.452838
0.452838
0.452838
0.452838
0.452838
0.452838
0.452838
0.452838
0.452838
0.452838
0.45284
0.452847
0.456149
0.500818
0.92236
0.000746486
4.6677e-06
0.00100028
0.00101425
0.00157807
0.000800948
0.00423101
0.024119
0.00517328
0.00259423
0.00151354
0.0022294
0.0168011
0.0103761
0.00635788
0.00203297
0.00427581
0.00526546
0.00305626
0.00228868
0.00775261
0.0112676
0.00424153
0.003473
0.00435345
0.0045694
0.00321074
0.00281803
0.00304222
0.00766635
0.0129402
0.00660949
0.0185157
0.00109094
0.00011277
0.452838
0.452838
0.452838
0.452838
0.452838
0.452838
0.452838
0.452838
0.452838
0.452838
0.452838
0.452838
0.452838
0.452838
0.452838
0.452838
0.452838
0.452838
0.452838
0.452838
0.452838
0.452838
0.452838
0.452838
0.452838
0.452838
0.452838
0.452838
0.452838
0.452838
0.452838
0.452838
0.452838
0.452838
0.452838
0.452838
0.452838
0.452838
0.452838
0.452838
0.452838
0.452838
0.452838
0.452838
0.452838
0.452838
0.452838
0.452838
0.452838
0.452838
0.452838
0.452838
0.452838
0.452838
0.452838
0.452838
0.452839
0.45284
0.45281
0.475668
0.149624
0.00471114
0.00456832
0.000103186
1.16855e-05
2.99965e-05
0.000125636
6.73846e-06
0.0001084
0.000123926
0.000153647
0.00022886
0.000442364
0.00559756
0.000324439
0.000536985
0.000278402
0.000155064
0.000126629
0.000161933
0.000228831
0.000236037
0.000285845
0.00076894
0.000500758
0.000862409
0.00029515
0.000293972
0.000575797
0.00344337
0.00036208
0.000253625
0.0155126
0.00285732
0.000849038
0.000118516
0.452838
0.452838
0.452838
0.452838
0.452838
0.452838
0.452838
0.452838
0.452838
0.452838
0.452838
0.452838
0.452838
0.452838
0.452838
0.452838
0.452838
0.452838
0.452838
0.452838
0.452838
0.452838
0.452838
0.452838
0.452838
0.452838
0.452838
0.452838
0.452838
0.452838
0.452838
0.452838
0.452838
0.452838
0.452838
0.452838
0.452838
0.452838
0.452838
0.452838
0.452838
0.452838
0.452838
0.452838
0.452838
0.452838
0.452838
0.452838
0.452838
0.452838
0.452838
0.452838
0.452838
0.452838
0.452839
0.452838
0.452839
0.452839
0.452848
0.47776
0.22447
0.0378682
0.943067
0.970758
0.017433
0.0281956
0.003466
0.0289463
0.00233571
0.00173937
0.00254176
0.00632007
0.0175987
0.0767626
0.0471577
0.0116556
0.0268392
0.110186
0.00266376
0.00119209
0.00111182
0.0014167
0.00366554
0.00488546
0.00677327
0.00490021
0.00223097
0.00154099
0.00236908
0.000150802
1.76766e-05
9.54806e-06
9.35199e-06
0.0080033
0.000954443
0.000110065
0.452838
0.452838
0.452838
0.452838
0.452838
0.452838
0.452838
0.452838
0.452838
0.452838
0.452838
0.452838
0.452838
0.452838
0.452838
0.452838
0.452838
0.452838
0.452838
0.452838
0.452838
0.452838
0.452838
0.452838
0.452838
0.452838
0.452838
0.452838
0.452838
0.452838
0.452838
0.452838
0.452838
0.452838
0.452838
0.452838
0.452838
0.452838
0.452838
0.452838
0.452838
0.452838
0.452838
0.452838
0.452838
0.452838
0.452838
0.452838
0.452838
0.452838
0.452838
0.452838
0.452838
0.452838
0.452839
0.452838
0.452839
0.452811
0.449953
0.538261
0.0670361
0.142519
0.848474
0.856417
0.0859365
0.0622767
0.0226735
0.0106903
0.0770219
0.0921856
0.0880131
0.204342
0.0806063
0.141829
0.855157
0.178452
0.43413
0.959727
0.564667
0.0878909
0.107648
0.264889
0.153511
0.0844137
0.634992
0.69706
0.834816
0.342778
0.177128
0.32445
0.0886945
0.999506
0.00098614
4.75113e-05
1
0.000102193
0.452838
0.452838
0.452838
0.452838
0.452838
0.452838
0.452838
0.452838
0.452838
0.452838
0.452838
0.452838
0.452838
0.452838
0.452838
0.452838
0.452838
0.452838
0.452838
0.452838
0.452838
0.452838
0.452838
0.452838
0.452838
0.452838
0.452838
0.452838
0.452838
0.452838
0.452838
0.452838
0.452838
0.452838
0.452838
0.452838
0.452838
0.452838
0.452838
0.452838
0.452838
0.452838
0.452838
0.452838
0.452838
0.452838
0.452838
0.452838
0.452838
0.452838
0.452838
0.452838
0.452838
0.452838
0.452839
0.452838
0.452838
0.452764
0.454632
0.519164
0.10602
0.876791
0.995596
0.388809
0.929116
0.555133
0.143627
0.103154
0.111557
0.821746
0.959674
0.998438
1
0.155231
0.236021
0.905906
0.85607
0.810895
0.0950538
0.514062
0.997381
0.312813
0.23149
0.447286
0.372101
0.182642
0.553692
0.856655
0.912331
0.892
0.580504
0.839219
0.999958
0.999875
0.616923
0.958642
0.452838
0.452838
0.452838
0.452838
0.452838
0.452838
0.452838
0.452838
0.452838
0.452838
0.452838
0.452838
0.452838
0.452838
0.452838
0.452838
0.452838
0.452838
0.452838
0.452838
0.452838
0.452838
0.452838
0.452838
0.452838
0.452838
0.452838
0.452838
0.452838
0.452838
0.452838
0.452838
0.452838
0.452838
0.452838
0.452838
0.452838
0.452838
0.452838
0.452838
0.452838
0.452838
0.452838
0.452838
0.452838
0.452838
0.452838
0.452838
0.452838
0.452838
0.452838
0.452838
0.452838
0.452838
0.452839
0.452838
0.45284
0.452835
0.453414
0.532658
0.245726
0.897121
0.999997
0.00803743
0.853706
0.805619
0.309735
0.849779
0.977112
0.997871
0.281021
4.0482e-05
0.0347734
0.961127
0.00251833
0.139667
0.980049
0.756342
0.853491
0.874923
0.862707
0.621053
0.771555
0.999287
0.797352
0.999962
0.914144
0.209438
0.299871
0.470825
0.431678
0.615796
0.393977
0.502034
0.783236
0.00518889
0.452838
0.452838
0.452838
0.452838
0.452838
0.452838
0.452838
0.452838
0.452838
0.452838
0.452838
0.452838
0.452838
0.452838
0.452838
0.452838
0.452838
0.452838
0.452838
0.452838
0.452838
0.452838
0.452838
0.452838
0.452838
0.452838
0.452838
0.452838
0.452838
0.452838
0.452838
0.452838
0.452838
0.452838
0.452838
0.452838
0.452838
0.452838
0.452838
0.452838
0.452838
0.452838
0.452838
0.452838
0.452838
0.452838
0.452838
0.452838
0.452838
0.452838
0.452838
0.452838
0.452838
0.452838
0.452839
0.452839
0.452839
0.452829
0.453135
0.528693
0.0667002
0.266437
0.99471
0.870687
0.604381
0.843136
0.999146
0.972167
0.0168497
0.994116
0.248033
0.86526
0.923719
0.0124308
0.00363375
0.352623
0.804848
0.435487
0.00962296
0.992675
0.829406
0.50619
0.190393
0.98195
0.817151
0.744696
0.250235
0.323055
0.00800485
0.919073
0.617599
0.302547
0.621086
0.187787
0.76994
0.0008302
0.452838
0.452838
0.452838
0.452838
0.452838
0.452838
0.452838
0.452838
0.452838
0.452838
0.452838
0.452838
0.452838
0.452838
0.452838
0.452838
0.452838
0.452838
0.452838
0.452838
0.452838
0.452838
0.452838
0.452838
0.452838
0.452838
0.452838
0.452838
0.452838
0.452838
0.452838
0.452838
0.452838
0.452838
0.452838
0.452838
0.452838
0.452838
0.452838
0.452838
0.452838
0.452838
0.452838
0.452838
0.452838
0.452838
0.452838
0.452838
0.452838
0.452838
0.452838
0.452838
0.452838
0.452838
0.452838
0.452838
0.452838
0.450663
0.493948
0.503806
0.929063
0.258068
0.859306
4.94061e-05
0.968862
0.495397
0.999349
0.372221
0.945898
0.950597
0.272299
0.812584
0.976576
0.749531
0.743252
0.229454
0.191475
0.885934
0.819838
0.0127194
0.0555421
0.0240473
0.0119264
0.0229698
0.0189471
0.0201118
0.0123281
0.0319131
0.993048
0.00671384
0.00666339
0.00661616
0.00649777
0.000733607
1.67159e-05
6.89255e-06
0.452838
0.452838
0.452838
0.452838
0.452838
0.452838
0.452838
0.452838
0.452838
0.452838
0.452838
0.452838
0.452838
0.452838
0.452838
0.452838
0.452838
0.452838
0.452838
0.452838
0.452838
0.452838
0.452838
0.452838
0.452838
0.452838
0.452838
0.452838
0.452838
0.452838
0.452838
0.452838
0.452838
0.452838
0.452838
0.452838
0.452838
0.452838
0.452838
0.452838
0.452838
0.452838
0.452838
0.452838
0.452838
0.452838
0.452838
0.452838
0.452838
0.452838
0.452838
0.452838
0.452838
0.452838
0.452838
0.452838
0.452838
0.452793
0.454134
0.51474
0.0468802
0.060727
0.710665
0.170916
0.499309
0.954043
0.66016
0.202539
0.974569
0.870043
0.112164
0.991087
0.432636
0.218944
0.962358
0.012386
0.00185009
0.000102652
8.82056e-06
3.78619e-06
0.000140658
0.000163014
0.00019652
0.00101621
0.000264722
0.00011768
8.3046e-05
0.000107068
0.000361233
0.000133846
0.000106754
0.000165289
0.000209897
0.000305056
0.000757111
0.000118185
0.452838
0.452838
0.452838
0.452838
0.452838
0.452838
0.452838
0.452838
0.452838
0.452838
0.452838
0.452838
0.452838
0.452838
0.452838
0.452838
0.452838
0.452838
0.452838
0.452838
0.452838
0.452838
0.452838
0.452838
0.452838
0.452838
0.452838
0.452838
0.452838
0.452838
0.452838
0.452838
0.452838
0.452838
0.452838
0.452838
0.452838
0.452838
0.452838
0.452838
0.452838
0.452838
0.452838
0.452838
0.452838
0.452838
0.452838
0.452838
0.452838
0.452838
0.452838
0.452838
0.452838
0.452838
0.452838
0.452838
0.452839
0.452848
0.452475
0.535753
0.00766344
0.0309882
0.102689
0.0386634
0.0557298
0.633541
0.137288
0.352311
0.863882
0.0533055
0.0270234
0.945599
0.00111736
5.60094e-05
0.999992
7.03581e-06
0.000717595
0.00147058
0.00138659
0.00853429
0.00251064
0.00517514
0.0140531
0.00418643
0.00282709
0.00262021
0.00163246
0.00104973
0.000973474
0.000762139
0.000542883
0.00867472
0.00173972
0.0017249
0.0118978
0.000143417
0.452838
0.452838
0.452838
0.452838
0.452838
0.452838
0.452838
0.452838
0.452838
0.452838
0.452838
0.452838
0.452838
0.452838
0.452838
0.452838
0.452838
0.452838
0.452838
0.452838
0.452838
0.452838
0.452838
0.452838
0.452838
0.452838
0.452838
0.452838
0.452838
0.452838
0.452838
0.452838
0.452838
0.452838
0.452838
0.452838
0.452838
0.452838
0.452838
0.452838
0.452838
0.452838
0.452838
0.452838
0.452838
0.452838
0.452838
0.452838
0.452838
0.452838
0.452838
0.452838
0.452838
0.452838
0.452839
0.452838
0.452839
0.452839
0.45285
0.516222
0.0234775
0.000216425
0.00184033
0.00140644
0.00129027
0.00140435
0.00210925
0.000303821
6.231e-05
9.43336e-06
8.88059e-06
0.00186444
0.000700916
0.00227951
0.000445698
0.0015454
0.00352933
0.00230182
0.00411205
0.00351685
0.0135193
0.00592923
0.00222008
0.00206623
0.00165679
0.00249529
0.00225027
0.00158446
0.00128038
0.0148889
0.000436043
0.00198248
0.00156934
0.000667038
0.00102385
0.000129742
0.452838
0.452838
0.452838
0.452838
0.452838
0.452838
0.452838
0.452838
0.452838
0.452838
0.452838
0.452838
0.452838
0.452838
0.452838
0.452838
0.452838
0.452838
0.452838
0.452838
0.452838
0.452838
0.452838
0.452838
0.452838
0.452838
0.452838
0.452838
0.452838
0.452838
0.452838
0.452838
0.452838
0.452838
0.452838
0.452838
0.452838
0.452838
0.452838
0.452838
0.452838
0.452838
0.452838
0.452838
0.452838
0.452838
0.452838
0.452838
0.452838
0.452838
0.452838
0.452838
0.452838
0.452838
0.452838
0.452838
0.452839
0.452839
0.45467
0.554969
0.0572535
5.22536e-05
1.18267e-05
1.17249e-05
1.39248e-05
5.09301e-06
0.000105558
0.00015093
0.00012929
0.000295662
0.00146612
0.00136796
0.00149939
0.00199329
0.00274689
0.00233483
0.00662329
0.00804003
0.0657576
0.0139197
0.00505312
0.00446618
0.00255679
0.00297077
0.019261
0.00158119
0.00161087
0.0049709
0.00284429
0.0160231
0.000569299
0.00114053
0.00106131
0.000885765
0.000798516
0.000113093
0.452838
0.452838
0.452838
0.452838
0.452838
0.452838
0.452838
0.452838
0.452838
0.452838
0.452838
0.452838
0.452838
0.452838
0.452838
0.452838
0.452838
0.452838
0.452838
0.452838
0.452838
0.452838
0.452838
0.452838
0.452838
0.452838
0.452838
0.452838
0.452838
0.452838
0.452838
0.452838
0.452838
0.452838
0.452838
0.452838
0.452838
0.452838
0.452838
0.452838
0.452838
0.452838
0.452838
0.452838
0.452838
0.452838
0.452838
0.452838
0.452838
0.452838
0.452838
0.452838
0.452838
0.452838
0.452838
0.452838
0.452839
0.452837
0.458394
0.513131
0.128703
0.00757527
2.35222e-06
0.00011191
0.000128255
0.000712991
0.00333428
0.00286173
0.000979086
0.000876143
0.00133462
0.00453554
0.0137121
0.0351925
0.0129342
0.0790423
0.0405125
0.0111528
0.00568588
0.0028702
0.00314521
0.00890488
0.00268485
0.00382209
0.00706672
0.00350119
0.00271427
0.0014794
0.00157745
0.00501292
0.000625348
0.000711294
0.00450919
0.000999272
0.00198197
0.00013176
0.452838
0.452838
0.452838
0.452838
0.452838
0.452838
0.452838
0.452838
0.452838
0.452838
0.452838
0.452838
0.452838
0.452838
0.452838
0.452838
0.452838
0.452838
0.452838
0.452838
0.452838
0.452838
0.452838
0.452838
0.452838
0.452838
0.452838
0.452838
0.452838
0.452838
0.452838
0.452838
0.452838
0.452838
0.452838
0.452838
0.452838
0.452838
0.452838
0.452838
0.452838
0.452838
0.452838
0.452838
0.452838
0.452838
0.452838
0.452838
0.452838
0.452838
0.452838
0.452838
0.452838
0.452838
0.452838
0.452839
0.452839
0.454082
0.487835
0.49927
0.168293
0.00131104
4.30487e-06
0.000748623
0.00129208
0.00392794
0.00297025
0.00622806
0.233892
0.0992516
0.0258938
0.0298998
0.0174695
0.104604
0.0146785
0.0603291
0.00689503
0.00350972
0.00475317
0.0166543
0.00688482
0.00348243
0.00228771
0.00156186
0.00116565
0.0015155
0.00827912
0.0994386
0.00466265
0.00195205
0.00287435
0.0139184
0.0285487
0.0107331
0.00175122
0.00012288
0.452838
0.452838
0.452838
0.452838
0.452838
0.452838
0.452838
0.452838
0.452838
0.452838
0.452838
0.452838
0.452838
0.452838
0.452838
0.452838
0.452838
0.452838
0.452838
0.452838
0.452838
0.452838
0.452838
0.452838
0.452838
0.452838
0.452838
0.452838
0.452838
0.452838
0.452838
0.452838
0.452838
0.452838
0.452838
0.452838
0.452838
0.452838
0.452838
0.452838
0.452838
0.452838
0.452838
0.452838
0.452838
0.452838
0.452838
0.452838
0.452838
0.452838
0.452838
0.452838
0.452838
0.452838
0.452838
0.452839
0.452841
0.452883
0.453282
0.504148
0.134929
0.000145265
4.80493e-06
0.000371885
0.00119416
0.000952884
0.00291268
0.0060471
0.00664567
0.00503788
0.00534973
0.00906236
0.0137387
0.0232083
0.011957
0.00965421
0.0317743
0.00379643
0.00407252
0.00240297
0.000934188
0.000614002
0.00112294
0.00378526
0.0149987
0.00414322
0.00252568
0.00206143
0.00148221
0.00109423
0.00248914
0.00464626
0.00476449
0.00974766
0.00198707
0.000126776
0.452838
0.452838
0.452838
0.452838
0.452838
0.452838
0.452838
0.452838
0.452838
0.452838
0.452838
0.452838
0.452838
0.452838
0.452838
0.452838
0.452838
0.452838
0.452838
0.452838
0.452838
0.452838
0.452838
0.452838
0.452838
0.452838
0.452838
0.452838
0.452838
0.452838
0.452838
0.452838
0.452838
0.452838
0.452838
0.452838
0.452838
0.452838
0.452838
0.452838
0.452838
0.452838
0.452838
0.452838
0.452838
0.452838
0.452838
0.452838
0.452838
0.452838
0.452838
0.452838
0.452838
0.452838
0.452838
0.452839
0.45284
0.452855
0.431829
0.533508
0.32271
5.72326e-06
0.000261327
0.00128918
0.000732773
0.00242295
0.0121124
0.00558009
0.00551309
0.00446302
0.00308921
0.00630154
0.00911258
0.047794
0.00839218
0.00726286
0.00278226
0.00183563
0.00116777
0.000633729
0.000557677
0.000880544
0.00323935
0.00324259
0.0021284
0.00293014
0.00583747
0.00490967
0.00153649
0.00133841
0.00263093
0.00491809
0.00405647
0.00331666
0.00105062
0.000118397
0.452838
0.452838
0.452838
0.452838
0.452838
0.452838
0.452838
0.452838
0.452838
0.452838
0.452838
0.452838
0.452838
0.452838
0.452838
0.452838
0.452838
0.452838
0.452838
0.452838
0.452838
0.452838
0.452838
0.452838
0.452838
0.452838
0.452838
0.452838
0.452838
0.452838
0.452838
0.452838
0.452838
0.452838
0.452838
0.452838
0.452838
0.452838
0.452838
0.452838
0.452838
0.452838
0.452838
0.452838
0.452838
0.452838
0.452838
0.452838
0.452838
0.452838
0.452838
0.452838
0.452838
0.452838
0.452838
0.452838
0.45284
0.452842
0.453487
0.500367
0.715095
8.30507e-05
4.27041e-05
8.81126e-06
0.000216428
0.000112617
0.000107948
0.000124431
0.000129025
0.000131567
0.000147626
0.000181681
0.00028599
0.000472372
0.000420937
0.000306386
0.000272959
0.000420435
0.000801943
0.00113705
0.000595743
0.0025047
0.00411891
0.000312516
0.000303397
0.000414476
0.00346716
0.00274587
0.0029114
0.00137785
0.00626679
0.003948
0.00398089
0.003925
0.000968536
0.000117915
0.452838
0.452838
0.452838
0.452838
0.452838
0.452838
0.452838
0.452838
0.452838
0.452838
0.452838
0.452838
0.452838
0.452838
0.452838
0.452838
0.452838
0.452838
0.452838
0.452838
0.452838
0.452838
0.452838
0.452838
0.452838
0.452838
0.452838
0.452838
0.452838
0.452838
0.452838
0.452838
0.452838
0.452838
0.452838
0.452838
0.452838
0.452838
0.452838
0.452838
0.452838
0.452838
0.452838
0.452838
0.452838
0.452838
0.452838
0.452838
0.452838
0.452838
0.452838
0.452838
0.452838
0.452838
0.452838
0.452838
0.45284
0.452841
0.45281
0.515737
0.111715
0.0095948
0.0270064
0.00183219
0.00082088
0.000713049
0.000558685
0.000328374
0.00029894
0.000319067
0.000398304
0.000447582
0.00107542
0.0299032
0.000493166
0.00205479
0.000506486
0.00173866
0.00142451
6.79354e-05
8.12459e-06
7.44238e-06
8.47975e-06
1.15908e-05
0.000105144
1.71516e-05
7.03083e-06
3.16387e-05
1.23266e-05
3.29668e-05
1.03601e-05
9.48029e-05
0.000124572
0.00128327
0.000717168
0.000109883
0.452838
0.452838
0.452838
0.452838
0.452838
0.452838
0.452838
0.452838
0.452838
0.452838
0.452838
0.452838
0.452838
0.452838
0.452838
0.452838
0.452838
0.452838
0.452838
0.452838
0.452838
0.452838
0.452838
0.452838
0.452838
0.452838
0.452838
0.452838
0.452838
0.452838
0.452838
0.452838
0.452838
0.452838
0.452838
0.452838
0.452838
0.452838
0.452838
0.452838
0.452838
0.452838
0.452838
0.452838
0.452838
0.452838
0.452838
0.452838
0.452838
0.452838
0.452838
0.452838
0.452838
0.452838
0.452839
0.452839
0.452839
0.452843
0.452866
0.553692
0.972849
0.909204
0.916667
0.169636
0.898556
0.0359182
0.0141893
0.0153908
0.0176235
0.035208
0.0796788
0.0325056
0.818897
0.0214288
0.268302
0.971837
0.113946
0.756916
0.0467722
0.0382761
0.5162
0.0913097
0.991671
0.00607516
0.999859
0.063247
0.658534
0.790455
0.995066
0.0887671
0.0160977
0.999713
3.00584e-05
4.49302e-06
6.31686e-05
4.43776e-05
0.452838
0.452838
0.452838
0.452838
0.452838
0.452838
0.452838
0.452838
0.452838
0.452838
0.452838
0.452838
0.452838
0.452838
0.452838
0.452838
0.452838
0.452838
0.452838
0.452838
0.452838
0.452838
0.452838
0.452838
0.452838
0.452838
0.452838
0.452838
0.452838
0.452838
0.452838
0.452838
0.452838
0.452838
0.452838
0.452838
0.452838
0.452838
0.452838
0.452838
0.452838
0.452838
0.452838
0.452838
0.452838
0.452838
0.452838
0.452838
0.452838
0.452838
0.452838
0.452838
0.452838
0.452838
0.452839
0.452839
0.45284
0.452859
0.448745
0.583351
0.974036
1.10703e-05
0.000707451
0.893432
0.999952
0.891418
0.988463
0.152119
0.255346
0.0574535
0.226493
0.0894075
0.37959
0.418534
0.325156
0.889889
0.980263
0.570919
0.203559
0.999872
0.999612
0.752913
0.7558
0.442141
0.959929
0.986156
0.51938
0.180516
0.0251223
0.198641
0.921661
0.999368
0.321844
0.0254307
0.0153858
0.00145069
0.452838
0.452838
0.452838
0.452838
0.452838
0.452838
0.452838
0.452838
0.452838
0.452838
0.452838
0.452838
0.452838
0.452838
0.452838
0.452838
0.452838
0.452838
0.452838
0.452838
0.452838
0.452838
0.452838
0.452838
0.452838
0.452838
0.452838
0.452838
0.452838
0.452838
0.452838
0.452838
0.452838
0.452838
0.452838
0.452838
0.452838
0.452838
0.452838
0.452838
0.452838
0.452838
0.452838
0.452838
0.452838
0.452838
0.452838
0.452838
0.452838
0.452838
0.452838
0.452838
0.452838
0.452838
0.452839
0.452838
0.452835
0.452848
0.452784
0.542126
0.305748
1.02561e-11
0.250389
2.5236e-07
0.556734
0.490081
0.409152
0.42309
0.471045
0.981241
0.999911
0.818014
0.877304
0.471948
0.473534
0.444856
0.99829
0.885913
0.550991
0.96767
0.617115
0.172326
0.512212
0.873172
0.634859
0.68062
0.727171
0.831699
0.992104
0.736448
0.923036
0.293911
0.222767
0.967548
0.982747
0.999762
0.452838
0.452838
0.452838
0.452838
0.452838
0.452838
0.452838
0.452838
0.452838
0.452838
0.452838
0.452838
0.452838
0.452838
0.452838
0.452838
0.452838
0.452838
0.452838
0.452838
0.452838
0.452838
0.452838
0.452838
0.452838
0.452838
0.452838
0.452838
0.452838
0.452838
0.452838
0.452838
0.452838
0.452838
0.452838
0.452838
0.452838
0.452838
0.452838
0.452838
0.452838
0.452838
0.452838
0.452838
0.452838
0.452838
0.452838
0.452838
0.452838
0.452838
0.452838
0.452838
0.452838
0.452838
0.452838
0.452838
0.452838
0.452833
0.452738
0.523488
0.992499
1.27241e-08
0.000690381
0.856895
0.995789
0.856936
0.555436
0.916237
0.598438
0.740235
0.727477
0.925825
0.786886
0.542866
0.641391
0.914332
0.923041
0.532439
0.80246
0.9509
0.255348
0.841402
0.999489
0.99681
1
0.793526
0.780945
0.999524
0.608791
0.406651
0.564069
0.731075
0.45014
0.367176
0.995036
0.907462
0.452838
0.452838
0.452838
0.452838
0.452838
0.452838
0.452838
0.452838
0.452838
0.452838
0.452838
0.452838
0.452838
0.452838
0.452838
0.452838
0.452838
0.452838
0.452838
0.452838
0.452838
0.452838
0.452838
0.452838
0.452838
0.452838
0.452838
0.452838
0.452838
0.452838
0.452838
0.452838
0.452838
0.452838
0.452838
0.452838
0.452838
0.452838
0.452838
0.452838
0.452838
0.452838
0.452838
0.452838
0.452838
0.452838
0.452838
0.452838
0.452838
0.452838
0.452838
0.452838
0.452838
0.452838
0.452838
0.452838
0.452838
0.452831
0.452697
0.529516
0.760632
1.27644e-08
1.55752e-06
0.219533
0.903618
0.819271
0.999688
0.928711
0.9659
0.998613
0.00149833
0.341854
0.000466725
0.848374
0.66021
0.963347
0.406436
0.861914
0.526709
0.779818
0.314026
0.401708
0.250014
0.995775
0.269534
0.59262
0.982621
0.980568
0.653958
0.974647
0.165912
0.164411
0.334288
0.918178
0.977276
0.00559438
0.452838
0.452838
0.452838
0.452838
0.452838
0.452838
0.452838
0.452838
0.452838
0.452838
0.452838
0.452838
0.452838
0.452838
0.452838
0.452838
0.452838
0.452838
0.452838
0.452838
0.452838
0.452838
0.452838
0.452838
0.452838
0.452838
0.452838
0.452838
0.452838
0.452838
0.452838
0.452838
0.452838
0.452838
0.452838
0.452838
0.452838
0.452838
0.452838
0.452838
0.452838
0.452838
0.452838
0.452838
0.452838
0.452838
0.452838
0.452838
0.452838
0.452838
0.452838
0.452838
0.452839
0.452838
0.452838
0.452838
0.452838
0.452896
0.435729
0.542629
0.973118
0.901097
0.219605
0.936607
0.297151
1
0.945511
0.998716
0.867562
0.592231
0.231751
0.283869
0.336606
0.0620296
0.145455
0.203322
0.872219
0.989621
0.0076562
0.00639672
0.00419601
0.00465646
0.007694
0.23879
0.0732816
0.0343334
0.247553
0.0233111
0.0317944
0.00425995
0.00961561
0.0237638
0.00548906
0.00273842
0.000671767
6.98977e-06
0.452838
0.452838
0.452838
0.452838
0.452838
0.452838
0.452838
0.452838
0.452838
0.452838
0.452838
0.452838
0.452838
0.452838
0.452838
0.452838
0.452838
0.452838
0.452838
0.452838
0.452838
0.452838
0.452838
0.452838
0.452838
0.452838
0.452838
0.452838
0.452838
0.452838
0.452838
0.452838
0.452838
0.452838
0.452838
0.452838
0.452838
0.452838
0.452838
0.452838
0.452838
0.452838
0.452838
0.452838
0.452838
0.452838
0.452838
0.452838
0.452838
0.452838
0.452838
0.452838
0.452838
0.452838
0.452838
0.452838
0.452839
0.452851
0.409543
0.536877
0.993457
0.0183746
0.0855404
0.0397457
0.0571028
0.116305
0.140234
0.049645
0.120618
0.138329
0.0623108
0.117662
0.0038363
0.00168413
0.00084702
0.000113156
0.999992
1.91608e-05
0.000165178
0.000204261
0.000249528
0.000294595
0.000359133
0.0016101
0.000642374
0.000274381
0.000216079
0.000363708
0.000708744
0.000277919
0.000586758
0.000233815
0.000309572
7.56819e-05
3.749e-05
8.0948e-05
0.452838
0.452838
0.452838
0.452838
0.452838
0.452838
0.452838
0.452838
0.452838
0.452838
0.452838
0.452838
0.452838
0.452838
0.452838
0.452838
0.452838
0.452838
0.452838
0.452838
0.452838
0.452838
0.452838
0.452838
0.452838
0.452838
0.452838
0.452838
0.452838
0.452838
0.452838
0.452838
0.452838
0.452838
0.452838
0.452838
0.452838
0.452838
0.452838
0.452838
0.452838
0.452838
0.452838
0.452838
0.452838
0.452838
0.452838
0.452838
0.452838
0.452838
0.452838
0.452838
0.452838
0.452838
0.452839
0.452838
0.452839
0.452866
0.488808
0.524633
0.018952
0.000711618
0.0090003
0.00742599
0.00667539
0.0405566
0.0753492
0.0436281
0.0252205
0.0183414
0.00065526
5.75485e-05
8.90767e-06
7.77435e-06
0.000664279
0.00070848
0.000408806
0.0135135
0.00240853
0.00231153
0.00443941
0.0185418
0.00554737
0.00171096
0.00133811
0.00143493
0.00148462
0.00159765
0.00322013
0.00161751
0.000673064
0.0145803
0.000250774
0.00020936
0.00233342
9.33796e-05
0.452838
0.452838
0.452838
0.452838
0.452838
0.452838
0.452838
0.452838
0.452838
0.452838
0.452838
0.452838
0.452838
0.452838
0.452838
0.452838
0.452838
0.452838
0.452838
0.452838
0.452838
0.452838
0.452838
0.452838
0.452838
0.452838
0.452838
0.452838
0.452838
0.452838
0.452838
0.452838
0.452838
0.452838
0.452838
0.452838
0.452838
0.452838
0.452838
0.452838
0.452838
0.452838
0.452838
0.452838
0.452838
0.452838
0.452838
0.452838
0.452838
0.452838
0.452838
0.452838
0.452838
0.452838
0.452838
0.452838
0.452839
0.452861
0.45245
0.498753
0.67107
7.87461e-05
0.00409032
6.28669e-06
9.77714e-06
9.29335e-06
3.58927e-05
1.01252e-05
6.67802e-06
0.000664029
0.00102792
0.00117794
0.00680548
0.00155537
0.0020685
0.00196114
0.00493765
0.576031
0.0091331
0.00807173
0.0545766
0.00680453
0.00275327
0.00152382
0.00120395
0.00142121
0.000984408
0.00103526
0.00154312
0.0039717
0.000796992
0.00100355
0.000629295
0.000258771
0.000309172
9.8062e-05
0.452838
0.452838
0.452838
0.452838
0.452838
0.452838
0.452838
0.452838
0.452838
0.452838
0.452838
0.452838
0.452838
0.452838
0.452838
0.452838
0.452838
0.452838
0.452838
0.452838
0.452838
0.452838
0.452838
0.452838
0.452838
0.452838
0.452838
0.452838
0.452838
0.452838
0.452838
0.452838
0.452838
0.452838
0.452838
0.452838
0.452838
0.452838
0.452838
0.452838
0.452838
0.452838
0.452838
0.452838
0.452838
0.452838
0.452838
0.452838
0.452838
0.452838
0.452838
0.452838
0.452838
0.452838
0.452838
0.452838
0.452839
0.453087
0.47579
0.470117
0.654896
4.06589e-06
7.70751e-05
0.000248257
0.00157703
0.00122054
0.00772582
0.000409285
0.000868335
0.00115585
0.00266115
0.00989658
0.00949965
0.0589535
0.00769227
0.0054681
0.00565723
0.00457732
0.00323374
0.00251955
0.00335753
0.00482264
0.0938832
0.0510724
0.00785026
0.0062305
0.00285054
0.00149191
0.00585123
0.00395309
0.000896152
0.000894012
0.00190342
0.000478036
0.00033859
0.000100981
0.452838
0.452838
0.452838
0.452838
0.452838
0.452838
0.452838
0.452838
0.452838
0.452838
0.452838
0.452838
0.452838
0.452838
0.452838
0.452838
0.452838
0.452838
0.452838
0.452838
0.452838
0.452838
0.452838
0.452838
0.452838
0.452838
0.452838
0.452838
0.452838
0.452838
0.452838
0.452838
0.452838
0.452838
0.452838
0.452838
0.452838
0.452838
0.452838
0.452838
0.452838
0.452838
0.452838
0.452838
0.452838
0.452838
0.452838
0.452838
0.452838
0.452838
0.452838
0.452838
0.452838
0.452838
0.452838
0.452838
0.452839
0.452919
0.457356
0.545117
0.130832
0.0017285
2.39455e-06
0.000290489
0.000436231
0.00143492
0.00453675
0.029004
0.00277407
0.00160545
0.00165358
0.00250994
0.00353361
0.00578424
0.0153547
0.0110789
0.00415301
0.00438913
0.00475879
0.00750537
0.0170028
0.0052529
0.00526187
0.00814658
0.00800866
0.00289814
0.00112966
0.000785964
0.00214116
0.00639295
0.000610678
0.00097404
0.010138
0.000817015