/*--------------------------------*- C++ -*----------------------------------*\
| =========                 |                                                 |
| \\      /  F ield         | OpenFOAM: The Open Source CFD Toolbox           |
|  \\    /   O peration     | Version:  2.3.0                                 |
|   \\  /    A nd           | Web:      www.OpenFOAM.org                      |
|    \\/     M anipulation  |                                                 |
\*---------------------------------------------------------------------------*/
FoamFile
{
    version     2.0;
    format      ascii;
    class       volScalarField;
    location    "61";
    object      alpha.water;
}
// * * * * * * * * * * * * * * * * * * * * * * * * * * * * * * * * * * * * * //

dimensions      [0 0 0 0 0 0 0];

internalField   nonuniform List<scalar> 
6144
(
3.75866e-06
4.41069e-06
4.81786e-06
5.21839e-06
5.66193e-06
6.4816e-06
7.52305e-06
8.52662e-06
9.38487e-06
9.85715e-06
9.95898e-06
9.97236e-06
9.97574e-06
9.98072e-06
9.98342e-06
9.98571e-06
9.9863e-06
9.987e-06
9.98661e-06
9.9866e-06
9.9866e-06
9.98661e-06
9.98638e-06
9.98595e-06
9.98533e-06
9.98478e-06
9.98446e-06
9.98396e-06
9.98319e-06
9.98248e-06
9.98178e-06
9.98115e-06
9.98035e-06
9.97952e-06
9.9786e-06
9.97781e-06
9.97693e-06
9.9761e-06
9.97471e-06
9.9735e-06
9.9735e-06
1.00515e-05
1.07363e-05
1.26552e-05
1.65467e-05
2.27387e-05
3.13301e-05
4.26696e-05
5.64466e-05
7.46649e-05
9.99621e-05
0.000123822
0.000138293
0.000155393
0.000159142
0.000172968
0.000168599
0.000174648
0.00133983
0.0687378
0.970532
0.999842
0.999999
1
1
1
1
1
1
1
1
1
1
1
1
1
1
1
1
1
1
0.999999
0.999999
0.999999
0.999999
0.999999
0.999999
0.999999
0.999999
0.999999
0.999999
0.999999
0.999999
1
1
1
3.41062e-06
4.22247e-06
4.96439e-06
5.42353e-06
6.07917e-06
6.77367e-06
7.67985e-06
8.61179e-06
9.42483e-06
9.85225e-06
9.95211e-06
9.96991e-06
9.97589e-06
9.98355e-06
9.98879e-06
9.99252e-06
9.99393e-06
9.99441e-06
9.9938e-06
9.99345e-06
9.99346e-06
9.99328e-06
9.99287e-06
9.99244e-06
9.99198e-06
9.99165e-06
9.99182e-06
9.99151e-06
9.99102e-06
9.99064e-06
9.99032e-06
9.98987e-06
9.98918e-06
9.98824e-06
9.98711e-06
9.9859e-06
9.9847e-06
9.98335e-06
9.98178e-06
9.98045e-06
9.98965e-06
1.01766e-05
1.09261e-05
1.28299e-05
1.65306e-05
2.20022e-05
2.90167e-05
3.74914e-05
5.07364e-05
7.25108e-05
9.33733e-05
0.000112698
0.000132066
0.000161375
0.000168562
0.000178576
0.000168582
0.000187283
0.000420869
0.0807053
0.991738
0.99999
1
1
1
1
1
0.999999
0.999999
0.999999
0.999999
1
1
1
0.999999
1
1
1
1
0.999999
0.999999
0.999999
0.999999
0.999999
0.999999
0.999999
0.999999
0.999999
0.999999
0.999999
0.999999
1
1
1
1
1
3.21577e-06
3.89748e-06
4.75021e-06
5.3771e-06
6.20174e-06
6.90462e-06
7.819e-06
8.66509e-06
9.27907e-06
9.68436e-06
9.85941e-06
9.92314e-06
9.95502e-06
9.97337e-06
9.98254e-06
9.989e-06
9.99219e-06
9.9931e-06
9.99325e-06
9.99354e-06
9.99329e-06
9.99329e-06
9.9931e-06
9.99275e-06
9.99226e-06
9.99182e-06
9.991e-06
9.99034e-06
9.98997e-06
9.98967e-06
9.98907e-06
9.98815e-06
9.98687e-06
9.98543e-06
9.98385e-06
9.98234e-06
9.98093e-06
9.97976e-06
9.97934e-06
9.98176e-06
1.00367e-05
1.03182e-05
1.09702e-05
1.24312e-05
1.54709e-05
2.01697e-05
2.61223e-05
3.36426e-05
4.76467e-05
7.20785e-05
9.41443e-05
0.000113837
0.000144799
0.000173137
0.000172886
0.000179347
0.000158663
0.000204069
0.000147227
0.106841
0.99344
0.999951
0.999962
0.999967
0.999964
0.999961
0.999961
0.999973
0.999982
0.999991
0.999996
0.999998
0.999999
0.999999
0.999999
0.999999
0.999999
0.999999
0.999999
0.999999
0.999999
0.999999
0.999999
0.999999
0.999999
0.999999
0.999999
0.999999
0.999999
0.999999
0.999999
0.999999
0.999999
1
1
1
3.10612e-06
3.59958e-06
4.43394e-06
5.01465e-06
5.94183e-06
6.79299e-06
7.83044e-06
8.54622e-06
9.15331e-06
9.5794e-06
9.79442e-06
9.89609e-06
9.94443e-06
9.96797e-06
9.97797e-06
9.9853e-06
9.98863e-06
9.98925e-06
9.98907e-06
9.98902e-06
9.98886e-06
9.98866e-06
9.98845e-06
9.98796e-06
9.98735e-06
9.98661e-06
9.98601e-06
9.98548e-06
9.98518e-06
9.9849e-06
9.98472e-06
9.98416e-06
9.9833e-06
9.98207e-06
9.98086e-06
9.97956e-06
9.97849e-06
9.97822e-06
9.97866e-06
9.98783e-06
1.00818e-05
1.03845e-05
1.10455e-05
1.23444e-05
1.477e-05
1.86517e-05
2.37958e-05
3.20415e-05
4.70332e-05
7.14405e-05
9.19392e-05
0.000121118
0.000160931
0.000176218
0.000172528
0.000177762
0.000162204
0.000204421
0.000155746
0.11688
0.980315
0.999005
0.999029
0.99906
0.998966
0.998882
0.998833
0.998981
0.999257
0.999497
0.999695
0.999829
0.999911
0.999953
0.999974
0.999986
0.999993
0.999996
0.999998
0.999999
0.999999
0.999999
0.999999
0.999999
0.999999
0.999999
0.999999
0.999999
0.999999
0.999999
0.999999
0.999999
0.999999
0.999999
1
1
2.99777e-06
3.36222e-06
4.11563e-06
4.6548e-06
5.56776e-06
6.32604e-06
7.58162e-06
8.46051e-06
9.05201e-06
9.49091e-06
9.74287e-06
9.87878e-06
9.94175e-06
9.96982e-06
9.98102e-06
9.98888e-06
9.99222e-06
9.99294e-06
9.99291e-06
9.99304e-06
9.99299e-06
9.99298e-06
9.99272e-06
9.99233e-06
9.99163e-06
9.99091e-06
9.99011e-06
9.98944e-06
9.9887e-06
9.98805e-06
9.98726e-06
9.98631e-06
9.98505e-06
9.98369e-06
9.98228e-06
9.98092e-06
9.97954e-06
9.97851e-06
9.98006e-06
1.0006e-05
1.01128e-05
1.0387e-05
1.10636e-05
1.24248e-05
1.47516e-05
1.82662e-05
2.33489e-05
3.26468e-05
4.85994e-05
7.09117e-05
9.28219e-05
0.000145913
0.000173271
0.000175288
0.000170674
0.000178346
0.000174842
0.000198592
0.000161854
0.13419
0.971109
0.994841
0.994312
0.994149
0.99385
0.993516
0.993357
0.993612
0.994683
0.995622
0.996588
0.997375
0.99805
0.998568
0.998958
0.999254
0.999483
0.999659
0.99979
0.999884
0.999945
0.999978
0.999992
0.999998
0.999999
0.999999
0.999999
0.999999
0.999999
0.999999
0.999999
0.999999
0.999999
0.999999
0.999999
1
2.87662e-06
3.19246e-06
3.7967e-06
4.26861e-06
5.24323e-06
5.9567e-06
7.04888e-06
8.32914e-06
8.9432e-06
9.40611e-06
9.69038e-06
9.85777e-06
9.93388e-06
9.96534e-06
9.97567e-06
9.98278e-06
9.98613e-06
9.98671e-06
9.9867e-06
9.98675e-06
9.98687e-06
9.98694e-06
9.98695e-06
9.98678e-06
9.98636e-06
9.98577e-06
9.98527e-06
9.98472e-06
9.9842e-06
9.98363e-06
9.98301e-06
9.98211e-06
9.98101e-06
9.97971e-06
9.97846e-06
9.97732e-06
9.97671e-06
9.97665e-06
9.97666e-06
1.00035e-05
1.00982e-05
1.0333e-05
1.09535e-05
1.22706e-05
1.45775e-05
1.81619e-05
2.40731e-05
3.46741e-05
5.0907e-05
6.82019e-05
0.000106843
0.000167063
0.000175332
0.000171607
0.000168495
0.000169543
0.000161602
0.000223608
0.000147227
0.1947
0.976582
0.989219
0.988183
0.987777
0.987394
0.986914
0.986818
0.986861
0.987801
0.988802
0.989913
0.990984
0.991991
0.992981
0.993859
0.994697
0.995509
0.996292
0.997055
0.997774
0.998438
0.998993
0.999406
0.999673
0.999835
0.99993
0.999975
0.999993
0.999999
1
1
1
1
1
1
1
2.74657e-06
3.06004e-06
3.53745e-06
3.93198e-06
4.9549e-06
5.72162e-06
6.66959e-06
8.0719e-06
8.81337e-06
9.3285e-06
9.64207e-06
9.84152e-06
9.9325e-06
9.96749e-06
9.97857e-06
9.9869e-06
9.99053e-06
9.99121e-06
9.99109e-06
9.99116e-06
9.9911e-06
9.99047e-06
9.98992e-06
9.98944e-06
9.98876e-06
9.98793e-06
9.9871e-06
9.98641e-06
9.98579e-06
9.98516e-06
9.98441e-06
9.9834e-06
9.98214e-06
9.98075e-06
9.97938e-06
9.97823e-06
9.97759e-06
9.97742e-06
9.97779e-06
9.99892e-06
1.00755e-05
1.02721e-05
1.08331e-05
1.20793e-05
1.43728e-05
1.83568e-05
2.5216e-05
3.66058e-05
5.21136e-05
6.73268e-05
0.000125654
0.00017377
0.000175198
0.000170879
0.000167729
0.000166681
0.000158129
0.000233742
0.000492563
0.176216
0.968328
0.985662
0.984821
0.984722
0.984728
0.984449
0.984448
0.98444
0.984496
0.98491
0.985289
0.985721
0.98612
0.986635
0.987333
0.988051
0.98884
0.989755
0.990687
0.991638
0.992564
0.993402
0.994213
0.995064
0.995969
0.996902
0.997827
0.998642
0.999299
0.999646
0.999747
0.999756
0.999795
0.999857
0.999934
1
2.56796e-06
2.94016e-06
3.34879e-06
3.68374e-06
4.71439e-06
5.57824e-06
6.62145e-06
7.67762e-06
8.6244e-06
9.25849e-06
9.62177e-06
9.8343e-06
9.92942e-06
9.96714e-06
9.97689e-06
9.98628e-06
9.99034e-06
9.99115e-06
9.991e-06
9.99104e-06
9.99105e-06
9.99127e-06
9.9914e-06
9.99144e-06
9.99131e-06
9.99109e-06
9.99078e-06
9.99046e-06
9.99015e-06
9.98967e-06
9.98888e-06
9.9878e-06
9.9865e-06
9.98511e-06
9.98389e-06
9.98294e-06
9.98241e-06
9.98225e-06
9.98347e-06
9.99618e-06
1.00476e-05
1.0197e-05
1.07405e-05
1.2062e-05
1.44732e-05
1.86377e-05
2.59777e-05
3.69929e-05
4.87938e-05
6.17623e-05
0.000130971
0.000173827
0.000174178
0.000170066
0.000166379
0.000163896
0.00015821
0.000311904
0.00113513
0.143011
0.96393
0.987956
0.987433
0.987602
0.987627
0.98767
0.987075
0.986702
0.986056
0.985426
0.984841
0.984499
0.984409
0.984264
0.98467
0.985221
0.98599
0.986911
0.987875
0.988712
0.989206
0.989276
0.988801
0.988342
0.987765
0.987282
0.986966
0.986818
0.98762
0.988356
0.989641
0.991234
0.993073
0.994934
0.998114
1
2.31937e-06
2.79448e-06
3.14111e-06
3.48231e-06
4.48867e-06
5.47262e-06
6.70393e-06
7.23459e-06
8.38726e-06
9.18547e-06
9.59706e-06
9.81788e-06
9.9193e-06
9.95982e-06
9.96897e-06
9.97931e-06
9.98406e-06
9.98544e-06
9.98523e-06
9.98527e-06
9.98545e-06
9.98597e-06
9.98629e-06
9.98645e-06
9.98646e-06
9.98638e-06
9.98618e-06
9.98595e-06
9.9857e-06
9.98534e-06
9.98473e-06
9.98382e-06
9.98264e-06
9.98142e-06
9.98049e-06
9.98017e-06
9.98017e-06
9.98018e-06
9.98018e-06
9.9889e-06
1.00207e-05
1.01441e-05
1.07009e-05
1.20926e-05
1.4606e-05
1.9021e-05
2.63643e-05
3.55251e-05
4.37525e-05
5.52986e-05
0.000111252
0.000171116
0.000174325
0.000167898
0.000160997
0.000159594
0.000155136
0.000176322
0.00057754
0.0909614
0.967152
0.995344
0.995536
0.995851
0.995848
0.996293
0.995914
0.995562
0.995021
0.99444
0.993961
0.993581
0.993343
0.993215
0.993182
0.993474
0.993714
0.994039
0.994435
0.994933
0.995469
0.995907
0.996026
0.995846
0.995676
0.995563
0.995518
0.995793
0.996526
0.997038
0.997713
0.998409
0.999273
0.999797
0.999999
0.999992
2.07793e-06
2.45756e-06
2.79306e-06
3.15581e-06
4.1936e-06
5.32705e-06
6.73632e-06
7.34831e-06
8.33768e-06
9.19382e-06
9.60606e-06
9.81699e-06
9.91428e-06
9.96024e-06
9.97212e-06
9.98367e-06
9.98952e-06
9.99128e-06
9.99082e-06
9.9907e-06
9.99064e-06
9.99083e-06
9.99086e-06
9.99067e-06
9.9903e-06
9.98982e-06
9.98925e-06
9.98868e-06
9.98809e-06
9.98739e-06
9.98642e-06
9.98507e-06
9.98346e-06
9.98198e-06
9.9809e-06
9.9804e-06
9.98019e-06
9.98018e-06
9.98018e-06
9.98215e-06
9.99978e-06
1.01091e-05
1.06603e-05
1.20381e-05
1.4552e-05
1.91448e-05
2.6343e-05
3.39408e-05
4.10677e-05
5.28702e-05
0.00010053
0.000165339
0.000174155
0.000169933
0.000161031
0.0001612
0.000155076
0.000157621
0.000322305
0.0594653
0.973897
0.999013
0.999122
0.999151
0.999139
0.999201
0.999085
0.998959
0.998791
0.998599
0.998465
0.998404
0.998384
0.998369
0.998407
0.998463
0.998508
0.998543
0.998584
0.998623
0.998665
0.998771
0.998884
0.998919
0.998873
0.998852
0.998875
0.999065
0.999179
0.999589
0.999786
0.999918
0.999997
0.999991
0.999999
0.999998
1.85898e-06
2.14937e-06
2.39223e-06
2.73688e-06
3.78489e-06
5.06682e-06
6.7745e-06
7.87957e-06
8.339e-06
9.19321e-06
9.63212e-06
9.82104e-06
9.90301e-06
9.95131e-06
9.96528e-06
9.97791e-06
9.98445e-06
9.987e-06
9.98709e-06
9.9875e-06
9.98789e-06
9.98839e-06
9.98874e-06
9.98885e-06
9.98887e-06
9.98874e-06
9.98851e-06
9.98819e-06
9.98778e-06
9.98726e-06
9.98654e-06
9.98535e-06
9.98391e-06
9.98257e-06
9.9817e-06
9.98134e-06
9.98112e-06
9.98106e-06
9.98116e-06
9.98229e-06
9.99171e-06
1.01104e-05
1.06867e-05
1.2006e-05
1.42645e-05
1.87233e-05
2.57408e-05
3.25567e-05
3.91429e-05
5.29253e-05
8.9581e-05
0.000150298
0.000172092
0.00017241
0.000164202
0.000164728
0.000158404
0.000160698
0.000237199
0.0450025
0.976362
0.999864
0.999917
0.99992
0.99992
0.999926
0.999912
0.999895
0.999873
0.999849
0.999833
0.999829
0.999835
0.999843
0.999855
0.999874
0.999889
0.999898
0.999901
0.9999
0.999896
0.999893
0.999899
0.999905
0.999905
0.9999
0.999898
0.999913
0.999925
0.999946
0.999974
0.99999
0.999998
0.999998
0.999999
0.999999
1.74098e-06
1.91481e-06
2.00206e-06
2.19431e-06
3.06497e-06
4.31941e-06
6.23126e-06
7.75853e-06
8.44718e-06
9.21367e-06
9.68283e-06
9.8397e-06
9.89885e-06
9.93707e-06
9.95308e-06
9.97125e-06
9.9837e-06
9.98775e-06
9.98791e-06
9.98828e-06
9.98863e-06
9.98906e-06
9.98934e-06
9.98944e-06
9.98946e-06
9.98939e-06
9.9892e-06
9.98893e-06
9.98849e-06
9.98812e-06
9.9879e-06
9.98713e-06
9.98614e-06
9.98523e-06
9.98476e-06
9.98463e-06
9.98449e-06
9.98454e-06
9.98463e-06
9.98542e-06
9.99452e-06
1.01362e-05
1.07869e-05
1.21367e-05
1.42895e-05
1.7991e-05
2.43609e-05
3.07037e-05
3.66582e-05
5.2522e-05
7.92675e-05
0.000127715
0.000162467
0.000171759
0.000168349
0.000167479
0.000160248
0.000163785
0.000200209
0.0375747
0.975439
0.999952
0.999997
0.999997
0.999997
0.999997
0.999997
0.999997
0.999997
0.999996
0.999996
0.999996
0.999996
0.999997
0.999997
0.999998
0.999998
0.999999
0.999999
0.999999
0.999998
0.999998
0.999998
0.999998
0.999997
0.999996
0.999996
0.999996
0.999996
0.999996
0.999998
0.999999
0.999999
0.999999
0.999999
0.999999
1.63836e-06
1.81556e-06
1.80773e-06
1.84252e-06
2.33091e-06
3.26809e-06
5.04079e-06
6.99333e-06
8.59623e-06
9.25355e-06
9.7242e-06
9.86921e-06
9.91588e-06
9.94311e-06
9.95684e-06
9.97696e-06
9.98883e-06
9.99331e-06
9.99292e-06
9.99276e-06
9.99281e-06
9.99288e-06
9.9929e-06
9.99284e-06
9.99269e-06
9.99242e-06
9.99203e-06
9.99156e-06
9.99094e-06
9.99034e-06
9.98981e-06
9.98883e-06
9.98784e-06
9.98701e-06
9.98659e-06
9.98636e-06
9.98613e-06
9.98627e-06
9.98645e-06
9.98771e-06
9.99782e-06
1.01509e-05
1.08222e-05
1.23166e-05
1.45182e-05
1.77815e-05
2.26578e-05
2.82022e-05
3.4024e-05
4.97092e-05
7.17158e-05
0.000102115
0.000141582
0.000166525
0.000166525
0.000165863
0.000158798
0.000166255
0.000375457
0.0397194
0.959015
0.999898
1
0.999999
0.999999
0.999999
0.999999
0.999999
0.999999
0.999999
0.999999
0.999999
0.999999
0.999999
0.999999
0.999999
0.999999
0.999999
0.999999
0.999999
0.999999
0.999999
0.999999
0.999999
0.999999
0.999999
0.999999
0.999999
0.999999
0.999999
0.999999
0.999999
0.999999
0.999999
0.999999
0.999999
1.63533e-06
1.84413e-06
1.7868e-06
1.78525e-06
1.9369e-06
2.56917e-06
3.93233e-06
5.97443e-06
8.3442e-06
9.36841e-06
9.76476e-06
9.8697e-06
9.90995e-06
9.93797e-06
9.95258e-06
9.9753e-06
9.99635e-06
9.99683e-06
9.99683e-06
9.99683e-06
9.99683e-06
9.99683e-06
9.99683e-06
9.99683e-06
9.9965e-06
9.99596e-06
9.99528e-06
9.99455e-06
9.99375e-06
9.99295e-06
9.992e-06
9.99083e-06
9.9897e-06
9.98884e-06
9.98834e-06
9.98809e-06
9.98794e-06
9.98825e-06
9.98863e-06
9.98998e-06
1.00007e-05
1.01498e-05
1.08147e-05
1.23465e-05
1.47552e-05
1.78163e-05
2.14783e-05
2.59485e-05
3.15114e-05
4.37769e-05
6.39118e-05
9.69103e-05
0.00012214
0.000151153
0.00015847
0.000157642
0.000152208
0.000160627
0.000454455
0.0345771
0.951343
0.99975
0.999999
0.999999
0.999999
0.999999
0.999999
0.999999
0.999999
0.999999
0.999999
0.999999
0.999999
0.999999
0.999999
0.999999
0.999999
0.999999
0.999999
0.999999
0.999999
0.999999
0.999999
0.999999
0.999999
0.999999
0.999999
0.999999
0.999999
0.999999
0.999999
0.999999
0.999999
0.999999
0.999999
0.999999
1.67649e-06
2.105e-06
2.14533e-06
2.10497e-06
2.03086e-06
2.40938e-06
3.23474e-06
4.87834e-06
7.79629e-06
9.44553e-06
9.76152e-06
9.85494e-06
9.88791e-06
9.92159e-06
9.94189e-06
9.96693e-06
9.99247e-06
9.99512e-06
9.9952e-06
9.9953e-06
9.99535e-06
9.99532e-06
9.99523e-06
9.99514e-06
9.99474e-06
9.99417e-06
9.99352e-06
9.99283e-06
9.99212e-06
9.99137e-06
9.99043e-06
9.9893e-06
9.9883e-06
9.9876e-06
9.98722e-06
9.98703e-06
9.98695e-06
9.98709e-06
9.98741e-06
9.98852e-06
1.00009e-05
1.01413e-05
1.07796e-05
1.23226e-05
1.47874e-05
1.78332e-05
2.1055e-05
2.44242e-05
2.86657e-05
3.66332e-05
5.85507e-05
0.00010393
0.00011977
0.000136457
0.000139633
0.000140526
0.000155341
0.000182163
0.000324956
0.043187
0.961246
0.999852
1
0.999999
0.999999
0.999999
0.999999
0.999999
0.999999
0.999999
0.999999
0.999999
0.999999
0.999999
0.999999
0.999999
0.999999
0.999999
0.999999
0.999999
0.999999
0.999999
0.999999
0.999999
0.999999
0.999999
0.999999
0.999999
0.999999
0.999999
0.999999
0.999999
0.999999
0.999999
0.999999
1
1.40942e-06
1.49274e-06
2.29512e-06
2.59016e-06
2.57944e-06
2.66823e-06
3.30422e-06
4.55397e-06
7.36725e-06
9.43122e-06
9.74062e-06
9.82169e-06
9.86238e-06
9.90385e-06
9.93358e-06
9.96894e-06
1.00003e-05
1.0002e-05
1.0002e-05
1.0002e-05
1.0002e-05
1.0002e-05
1.0002e-05
1.0002e-05
1.00017e-05
1.00011e-05
1.00005e-05
9.99984e-06
9.99921e-06
9.99854e-06
9.99761e-06
9.99653e-06
9.99551e-06
9.99478e-06
9.99438e-06
9.99424e-06
9.99423e-06
9.99431e-06
9.99468e-06
9.99563e-06
1.00094e-05
1.01268e-05
1.06948e-05
1.2286e-05
1.50001e-05
1.82384e-05
2.1435e-05
2.45914e-05
2.84956e-05
3.60178e-05
5.57688e-05
0.000102245
0.000123574
0.000135558
0.000133289
0.000138498
0.000163703
0.000227849
0.000602037
0.0492432
0.966092
0.999849
1
0.999999
0.999999
0.999999
0.999999
0.999999
0.999999
0.999999
0.999999
0.999999
0.999999
0.999999
0.999999
0.999999
0.999999
0.999999
0.999999
0.999999
0.999999
0.999999
0.999999
0.999999
0.999999
0.999999
0.999999
0.999999
0.999999
0.999999
0.999999
1
1
1
1
1
3.19237e-06
4.24905e-06
4.83991e-06
5.27296e-06
5.74397e-06
6.675e-06
7.74611e-06
8.72994e-06
9.50658e-06
9.83122e-06
9.89984e-06
9.93592e-06
9.96732e-06
9.98649e-06
9.99725e-06
1.00067e-05
1.00067e-05
1.00067e-05
1.00067e-05
1.00067e-05
1.00063e-05
1.00057e-05
1.00051e-05
1.00045e-05
1.00039e-05
1.00036e-05
1.00034e-05
1.00034e-05
1.00033e-05
1.00031e-05
1.00027e-05
1.0002e-05
1.0001e-05
9.9999e-06
9.99873e-06
9.99769e-06
9.9967e-06
9.99563e-06
9.99437e-06
9.99724e-06
1.00141e-05
1.0111e-05
1.07045e-05
1.25647e-05
1.66801e-05
2.35378e-05
3.27667e-05
4.41112e-05
5.74954e-05
7.54614e-05
0.000100392
0.000123617
0.000137864
0.000148991
0.000151737
0.000165832
0.000163986
0.000176692
0.00081993
0.0691827
0.976991
0.999958
1
1
1
1
1
1
1
1
1
0.999999
0.999999
0.999999
0.999999
0.999999
1
1
1
1
1
1
0.999999
0.999999
0.999999
0.999999
0.999999
0.999999
0.999999
0.999999
0.999999
0.999999
0.999999
1
1
1
2.45993e-06
3.76098e-06
5.20202e-06
5.75506e-06
6.39877e-06
7.12862e-06
8.03377e-06
8.8045e-06
9.29336e-06
9.54714e-06
9.72814e-06
9.85358e-06
9.93084e-06
9.9686e-06
9.98336e-06
9.99553e-06
1.00023e-05
1.00036e-05
1.00034e-05
1.00035e-05
1.00034e-05
1.00035e-05
1.00036e-05
1.00035e-05
1.0003e-05
1.00023e-05
1.00015e-05
1.0001e-05
1.00005e-05
9.99996e-06
9.99917e-06
9.99798e-06
9.99654e-06
9.99511e-06
9.99381e-06
9.9928e-06
9.99204e-06
9.99167e-06
9.993e-06
1.00041e-05
1.0062e-05
1.03525e-05
1.11864e-05
1.28481e-05
1.61382e-05
2.2041e-05
3.00189e-05
3.9728e-05
5.25585e-05
7.31119e-05
9.22913e-05
0.000111358
0.000121073
0.000139927
0.000149004
0.000163905
0.000160221
0.000175855
0.0004443
0.080071
0.980918
0.999999
0.999999
1
1
1
0.999999
0.999999
0.999999
0.999999
0.999999
0.999999
0.999999
0.999999
0.999999
0.999999
0.999999
0.999999
1
0.999999
0.999999
0.999999
0.999999
0.999999
0.999999
0.999999
0.999999
0.999999
0.999999
0.999999
0.999999
0.999999
1
1
1
1
2.17814e-06
3.02068e-06
4.78261e-06
5.54417e-06
6.23654e-06
6.86139e-06
7.62597e-06
8.37668e-06
8.95169e-06
9.34694e-06
9.62776e-06
9.81553e-06
9.91534e-06
9.96266e-06
9.97798e-06
9.99139e-06
9.99936e-06
1.00005e-05
1.00004e-05
1.00005e-05
1.00005e-05
1.00004e-05
1.00003e-05
1.00001e-05
9.99949e-06
9.99888e-06
9.9983e-06
9.99774e-06
9.99718e-06
9.99662e-06
9.99582e-06
9.99461e-06
9.99323e-06
9.99189e-06
9.9908e-06
9.99008e-06
9.98974e-06
9.9897e-06
9.99333e-06
1.00056e-05
1.00682e-05
1.04022e-05
1.13628e-05
1.30836e-05
1.54597e-05
1.90128e-05
2.53908e-05
3.50699e-05
4.98351e-05
7.41486e-05
9.41381e-05
0.00010715
0.000125334
0.000151767
0.000158534
0.000167226
0.000153388
0.000174119
0.000220561
0.101469
0.996174
0.999982
0.999984
0.999991
0.99999
0.999991
0.999994
0.999996
0.999997
0.999999
0.999999
0.999999
0.999999
1
1
1
0.999999
0.999999
0.999999
0.999999
0.999999
0.999999
0.999999
0.999999
0.999999
0.999999
0.999999
0.999999
0.999999
0.999999
0.999999
0.999999
0.999999
1
1
1
2.06331e-06
2.39811e-06
4.02391e-06
4.86587e-06
5.64587e-06
6.37209e-06
7.19594e-06
8.02827e-06
8.73491e-06
9.2539e-06
9.589e-06
9.80239e-06
9.90914e-06
9.95973e-06
9.97461e-06
9.98827e-06
9.99677e-06
9.99774e-06
9.9975e-06
9.99739e-06
9.99724e-06
9.99707e-06
9.99688e-06
9.99658e-06
9.99599e-06
9.9954e-06
9.99486e-06
9.99437e-06
9.9939e-06
9.9934e-06
9.99268e-06
9.99155e-06
9.9902e-06
9.98889e-06
9.98785e-06
9.98725e-06
9.98703e-06
9.98709e-06
9.99084e-06
1.00033e-05
1.00475e-05
1.02924e-05
1.11575e-05
1.29031e-05
1.5476e-05
1.88243e-05
2.39861e-05
3.36406e-05
5.00679e-05
7.54081e-05
9.5761e-05
0.000107901
0.000141312
0.000160949
0.000163616
0.000166433
0.000159285
0.00016375
0.000147227
0.146718
0.995397
0.999467
0.999509
0.999572
0.999566
0.999551
0.999551
0.999669
0.999769
0.999862
0.999927
0.999966
0.999985
0.999994
0.999997
0.999999
0.999999
0.999998
0.999999
0.999999
0.999999
0.999999
0.999999
0.999999
0.999999
0.999999
0.999999
0.999999
0.999999
0.999999
0.999999
0.999999
0.999999
0.999999
1
1
1.98298e-06
1.99563e-06
3.36361e-06
4.30844e-06
5.19294e-06
6.01723e-06
6.90164e-06
7.79907e-06
8.59419e-06
9.19889e-06
9.56775e-06
9.79607e-06
9.9062e-06
9.95841e-06
9.97305e-06
9.98664e-06
9.99552e-06
9.99635e-06
9.99609e-06
9.99594e-06
9.99574e-06
9.99551e-06
9.99527e-06
9.99498e-06
9.99438e-06
9.99377e-06
9.99326e-06
9.9928e-06
9.99237e-06
9.99189e-06
9.99121e-06
9.99009e-06
9.98877e-06
9.98748e-06
9.98647e-06
9.98591e-06
9.98578e-06
9.9861e-06
9.9904e-06
1.0003e-05
1.00405e-05
1.02235e-05
1.09336e-05
1.25461e-05
1.52326e-05
1.90072e-05
2.4754e-05
3.51059e-05
5.21891e-05
7.39921e-05
9.10493e-05
0.000125311
0.000160483
0.000165157
0.000164295
0.000161381
0.000158644
0.000159751
0.000147227
0.184459
0.988349
0.99589
0.995882
0.995983
0.995851
0.995584
0.995457
0.995815
0.99662
0.997263
0.997918
0.998482
0.998889
0.999189
0.999427
0.999604
0.999732
0.999824
0.999891
0.999943
0.999976
0.999992
0.999997
0.999999
0.999999
0.999999
0.999999
0.999999
0.999999
0.999999
0.999999
0.999999
0.999999
0.999999
0.999999
1
1.89771e-06
1.73919e-06
2.76109e-06
3.76658e-06
4.77872e-06
5.73167e-06
6.69912e-06
7.65015e-06
8.5055e-06
9.16788e-06
9.55805e-06
9.79372e-06
9.90499e-06
9.95759e-06
9.97198e-06
9.98547e-06
9.99451e-06
9.99517e-06
9.99488e-06
9.99468e-06
9.99445e-06
9.99419e-06
9.99392e-06
9.99362e-06
9.99301e-06
9.99243e-06
9.99193e-06
9.9915e-06
9.99113e-06
9.99071e-06
9.99007e-06
9.98901e-06
9.98773e-06
9.98648e-06
9.98548e-06
9.98488e-06
9.98469e-06
9.9853e-06
9.98969e-06
1.00019e-05
1.00362e-05
1.01941e-05
1.08433e-05
1.24075e-05
1.50182e-05
1.90399e-05
2.5557e-05
3.66779e-05
5.20427e-05
6.50338e-05
9.64137e-05
0.000151367
0.00016691
0.000165059
0.000160753
0.000158752
0.000158017
0.000157892
0.000147227
0.250599
0.97993
0.988477
0.987644
0.987144
0.986684
0.986239
0.986056
0.986339
0.987305
0.987988
0.988608
0.989329
0.990243
0.991098
0.992048
0.993071
0.994105
0.995185
0.996284
0.997336
0.998275
0.999039
0.999548
0.999841
0.999957
0.999992
0.999999
0.999999
0.999999
0.999999
0.999999
0.999999
1
1
1
1
1.83792e-06
1.55484e-06
2.28425e-06
3.21474e-06
4.39794e-06
5.47515e-06
6.54277e-06
7.54893e-06
8.45125e-06
9.1517e-06
9.55398e-06
9.79278e-06
9.90457e-06
9.95725e-06
9.97153e-06
9.98501e-06
9.9941e-06
9.99463e-06
9.99435e-06
9.99415e-06
9.99395e-06
9.99372e-06
9.99344e-06
9.99316e-06
9.99258e-06
9.99202e-06
9.99155e-06
9.99113e-06
9.99079e-06
9.99039e-06
9.98979e-06
9.98875e-06
9.98748e-06
9.98623e-06
9.98523e-06
9.98461e-06
9.98436e-06
9.98477e-06
9.98928e-06
1.00015e-05
1.00335e-05
1.01782e-05
1.07912e-05
1.23533e-05
1.49267e-05
1.87929e-05
2.51019e-05
3.62747e-05
5.09279e-05
5.88932e-05
0.000122205
0.000169552
0.0001681
0.000167796
0.000164887
0.00016396
0.00016108
0.000160894
0.000147227
0.282999
0.972101
0.982089
0.980716
0.98021
0.979931
0.97962
0.979534
0.979444
0.979757
0.979778
0.979282
0.978563
0.97821
0.977944
0.977543
0.977285
0.977217
0.977639
0.978665
0.979944
0.981848
0.984493
0.987465
0.990681
0.993548
0.995869
0.997138
0.997783
0.998408
0.998857
0.998623
0.998352
0.998025
0.99776
0.997584
0.997423
1.7814e-06
1.4409e-06
1.90956e-06
2.62847e-06
3.87741e-06
5.14762e-06
6.39503e-06
7.46763e-06
8.41454e-06
9.14404e-06
9.55291e-06
9.79414e-06
9.90646e-06
9.95814e-06
9.97139e-06
9.98481e-06
9.99386e-06
9.99437e-06
9.99419e-06
9.99408e-06
9.99398e-06
9.99405e-06
9.99398e-06
9.99387e-06
9.99339e-06
9.99291e-06
9.99246e-06
9.99202e-06
9.99163e-06
9.99118e-06
9.9905e-06
9.9894e-06
9.98806e-06
9.98678e-06
9.98577e-06
9.98503e-06
9.98446e-06
9.98481e-06
9.98992e-06
1.00035e-05
1.00332e-05
1.01678e-05
1.0745e-05
1.22981e-05
1.48921e-05
1.86146e-05
2.44313e-05
3.54518e-05
4.81195e-05
5.35346e-05
0.000146036
0.000171387
0.000169246
0.000167334
0.000166618
0.00016777
0.000171431
0.00017758
0.000175171
0.2448
0.967667
0.981696
0.980082
0.979487
0.979139
0.978556
0.978272
0.977789
0.977316
0.976628
0.975529
0.97381
0.971854
0.970288
0.968402
0.96629
0.964034
0.961679
0.959232
0.956962
0.955072
0.95381
0.952886
0.951505
0.95049
0.949445
0.948545
0.946869
0.941321
0.933908
0.924922
0.914023
0.898904
0.875759
0.816749
0.603765
1.68968e-06
1.3769e-06
1.62782e-06
2.06409e-06
3.17886e-06
4.62247e-06
6.17781e-06
7.38712e-06
8.38524e-06
9.14228e-06
9.56236e-06
9.79933e-06
9.91083e-06
9.96072e-06
9.97325e-06
9.98677e-06
9.99575e-06
9.99586e-06
9.99563e-06
9.99544e-06
9.99533e-06
9.9952e-06
9.99513e-06
9.99509e-06
9.99466e-06
9.99421e-06
9.99379e-06
9.99341e-06
9.99307e-06
9.99268e-06
9.99205e-06
9.99099e-06
9.98971e-06
9.98848e-06
9.98749e-06
9.98684e-06
9.98647e-06
9.98722e-06
9.99282e-06
1.0006e-05
1.00359e-05
1.01653e-05
1.07272e-05
1.22734e-05
1.49283e-05
1.85581e-05
2.39132e-05
3.37317e-05
4.38742e-05
4.93045e-05
0.000136315
0.000171296
0.00016977
0.000166291
0.000164009
0.000163235
0.000165822
0.000188276
0.000257598
0.18491
0.975128
0.990427
0.990418
0.99112
0.991388
0.991499
0.990856
0.990347
0.989382
0.988391
0.98744
0.986337
0.984994
0.983988
0.983138
0.981932
0.980429
0.978178
0.975034
0.970768
0.965259
0.958951
0.953116
0.947825
0.942696
0.937536
0.932681
0.929245
0.927217
0.925278
0.923324
0.920947
0.919094
0.918441
0.9235
0.930896
1.57928e-06
1.32638e-06
1.415e-06
1.63414e-06
2.41563e-06
3.93342e-06
5.86292e-06
7.30372e-06
8.36974e-06
9.14514e-06
9.57079e-06
9.80655e-06
9.91754e-06
9.96338e-06
9.97442e-06
9.9883e-06
9.99739e-06
9.99747e-06
9.99735e-06
9.99723e-06
9.99715e-06
9.99711e-06
9.99706e-06
9.99702e-06
9.99659e-06
9.99612e-06
9.99567e-06
9.99522e-06
9.99481e-06
9.99434e-06
9.99363e-06
9.99247e-06
9.99108e-06
9.98975e-06
9.98863e-06
9.9878e-06
9.98727e-06
9.98817e-06
9.99392e-06
1.0007e-05
1.00377e-05
1.01651e-05
1.07237e-05
1.22625e-05
1.49037e-05
1.84577e-05
2.33868e-05
3.17826e-05
4.11702e-05
4.98113e-05
0.000107521
0.000168423
0.000172817
0.000169919
0.000164693
0.000161009
0.000155182
0.000157495
0.000157896
0.141284
0.98685
0.997552
0.997698
0.997957
0.998076
0.998194
0.998012
0.997846
0.997596
0.997427
0.997275
0.997162
0.997012
0.996948
0.996875
0.996823
0.996513
0.996074
0.99538
0.99431
0.992681
0.990488
0.987901
0.984924
0.981129
0.977108
0.973749
0.971615
0.970458
0.970038
0.972556
0.976907
0.982531
0.988919
0.994577
0.997694
1.48801e-06
1.28151e-06
1.28581e-06
1.34002e-06
1.83636e-06
3.15181e-06
5.29712e-06
7.0802e-06
8.34303e-06
9.14356e-06
9.57825e-06
9.81638e-06
9.92337e-06
9.96436e-06
9.97439e-06
9.98844e-06
9.99769e-06
9.99767e-06
9.99769e-06
9.99767e-06
9.99769e-06
9.99767e-06
9.99767e-06
9.99762e-06
9.99725e-06
9.99682e-06
9.9964e-06
9.99599e-06
9.99563e-06
9.99524e-06
9.99464e-06
9.99356e-06
9.99225e-06
9.99102e-06
9.99004e-06
9.98937e-06
9.98895e-06
9.98984e-06
9.99523e-06
1.00084e-05
1.00389e-05
1.01652e-05
1.07193e-05
1.22626e-05
1.48862e-05
1.83437e-05
2.29002e-05
3.02636e-05
3.92952e-05
5.15029e-05
7.01927e-05
0.000147441
0.000169318
0.000174005
0.00017261
0.000172644
0.000158455
0.000162388
0.000147228
0.1097
0.994599
0.999696
0.999726
0.999767
0.999787
0.999814
0.999787
0.999759
0.999723
0.999708
0.999717
0.999729
0.999739
0.999743
0.999749
0.999757
0.999741
0.999713
0.999669
0.999598
0.999486
0.99933
0.999158
0.999024
0.998924
0.998768
0.998664
0.998628
0.998586
0.99876
0.998968
0.999232
0.999581
0.999832
0.999955
0.999987
1.43876e-06
1.24074e-06
1.21802e-06
1.20565e-06
1.48604e-06
2.54048e-06
4.55949e-06
6.74524e-06
8.35398e-06
9.21012e-06
9.60926e-06
9.83409e-06
9.9299e-06
9.96468e-06
9.97176e-06
9.98532e-06
9.99569e-06
9.99768e-06
9.99767e-06
9.99768e-06
9.99768e-06
9.99768e-06
9.99767e-06
9.99747e-06
9.99714e-06
9.99676e-06
9.99637e-06
9.99601e-06
9.9957e-06
9.99534e-06
9.99473e-06
9.99365e-06
9.99234e-06
9.99112e-06
9.99016e-06
9.9895e-06
9.98911e-06
9.99004e-06
9.99519e-06
1.00084e-05
1.00383e-05
1.01573e-05
1.07084e-05
1.22826e-05
1.49122e-05
1.83396e-05
2.26391e-05
2.89482e-05
3.64858e-05
4.71922e-05
6.77606e-05
9.58181e-05
0.000139276
0.000164206
0.000169097
0.000168347
0.000158694
0.000172624
0.000147228
0.115666
0.997736
0.999983
0.999985
0.999987
0.999988
0.99999
0.999988
0.999986
0.999985
0.999983
0.999982
0.999985
0.999987
0.999989
0.999991
0.999993
0.999993
0.999993
0.999993
0.999992
0.999991
0.999989
0.999988
0.999988
0.99999
0.999991
0.999993
0.999995
0.999996
0.999996
0.999997
0.999998
0.999999
0.999999
0.999999
0.999999
1.43688e-06
1.30389e-06
1.20498e-06
1.17601e-06
1.18473e-06
1.66436e-06
3.10358e-06
5.55927e-06
8.06996e-06
9.27771e-06
9.64323e-06
9.85002e-06
9.93211e-06
9.95789e-06
9.96615e-06
9.98332e-06
9.99448e-06
9.99673e-06
9.99698e-06
9.99743e-06
9.99768e-06
9.9976e-06
9.99739e-06
9.99747e-06
9.9972e-06
9.99686e-06
9.99651e-06
9.99615e-06
9.99577e-06
9.99534e-06
9.99438e-06
9.99279e-06
9.99121e-06
9.98985e-06
9.98896e-06
9.98852e-06
9.98828e-06
9.98833e-06
9.99166e-06
1.00014e-05
1.00268e-05
1.01417e-05
1.06961e-05
1.23282e-05
1.50466e-05
1.83747e-05
2.2312e-05
2.7481e-05
3.32603e-05
4.1308e-05
6.13415e-05
9.20921e-05
0.000105949
0.000134278
0.000149589
0.000145294
0.000154643
0.000204237
0.000216647
0.115263
0.993475
0.999998
0.999999
0.999999
0.999999
0.999999
0.999999
0.999998
0.999999
0.999999
0.999999
0.999999
0.999999
0.999999
0.999999
0.999999
0.999999
0.999999
0.999999
0.999999
0.999999
0.999999
0.999999
0.999999
0.999999