/*--------------------------------*- C++ -*----------------------------------*\
| =========                 |                                                 |
| \\      /  F ield         | OpenFOAM: The Open Source CFD Toolbox           |
|  \\    /   O peration     | Version:  2.3.0                                 |
|   \\  /    A nd           | Web:      www.OpenFOAM.org                      |
|    \\/     M anipulation  |                                                 |
\*---------------------------------------------------------------------------*/
FoamFile
{
    version     2.0;
    format      ascii;
    class       volScalarField;
    location    "61";
    object      alpha.airMean;
}
// * * * * * * * * * * * * * * * * * * * * * * * * * * * * * * * * * * * * * //

dimensions      [0 0 0 0 0 0 0];

internalField   nonuniform List<scalar> 
6144
(
0.999994
0.999994
0.999993
0.999993
0.999992
0.999992
0.999991
0.999991
0.99999
0.99999
0.99999
0.99999
0.99999
0.99999
0.99999
0.99999
0.99999
0.99999
0.99999
0.99999
0.99999
0.99999
0.99999
0.99999
0.99999
0.99999
0.99999
0.99999
0.99999
0.99999
0.99999
0.99999
0.99999
0.99999
0.99999
0.99999
0.99999
0.99999
0.99999
0.99999
0.99999
0.99999
0.99999
0.99999
0.999988
0.999986
0.999981
0.999972
0.999957
0.999939
0.999925
0.999913
0.999908
0.999903
0.9999
0.999894
0.999893
0.999888
0.998654
0.934326
0.0368239
0.00023841
9.97102e-07
6.77305e-07
6.77161e-07
6.73929e-07
6.75454e-07
6.7356e-07
6.75906e-07
6.74713e-07
6.75117e-07
6.73735e-07
6.72735e-07
6.71121e-07
6.69167e-07
6.67156e-07
6.66295e-07
6.65514e-07
6.65423e-07
6.65786e-07
6.64489e-07
6.61215e-07
6.58058e-07
6.52692e-07
6.4364e-07
6.2839e-07
6.12999e-07
5.999e-07
5.83591e-07
5.60475e-07
5.32905e-07
5.09434e-07
4.79157e-07
4.4694e-07
4.15317e-07
3.88612e-07
0.999995
0.999994
0.999993
0.999993
0.999992
0.999992
0.999991
0.999991
0.99999
0.99999
0.99999
0.99999
0.99999
0.99999
0.99999
0.99999
0.99999
0.99999
0.99999
0.99999
0.99999
0.99999
0.99999
0.99999
0.99999
0.99999
0.99999
0.99999
0.99999
0.99999
0.99999
0.99999
0.99999
0.99999
0.99999
0.99999
0.99999
0.99999
0.99999
0.99999
0.99999
0.99999
0.99999
0.999989
0.999988
0.999985
0.99998
0.999972
0.99996
0.999946
0.999927
0.999912
0.999905
0.999898
0.999895
0.999888
0.999889
0.99988
0.999343
0.949054
0.0313694
0.00012971
7.48396e-07
7.08901e-07
7.05146e-07
7.0811e-07
7.10227e-07
7.10936e-07
7.13846e-07
7.07758e-07
7.04692e-07
6.99013e-07
6.96451e-07
6.91964e-07
6.88048e-07
6.85501e-07
6.85752e-07
6.8807e-07
6.92739e-07
6.93465e-07
6.86885e-07
6.77988e-07
6.67614e-07
6.58096e-07
6.45361e-07
6.30926e-07
6.17967e-07
6.07653e-07
5.9725e-07
5.81869e-07
5.61435e-07
5.34409e-07
5.00336e-07
4.71831e-07
4.41857e-07
4.00738e-07
0.999995
0.999994
0.999993
0.999993
0.999992
0.999992
0.999991
0.999991
0.99999
0.99999
0.99999
0.99999
0.99999
0.99999
0.99999
0.99999
0.99999
0.99999
0.99999
0.99999
0.99999
0.99999
0.99999
0.99999
0.99999
0.99999
0.99999
0.99999
0.99999
0.99999
0.99999
0.99999
0.99999
0.99999
0.99999
0.99999
0.99999
0.99999
0.99999
0.99999
0.99999
0.99999
0.99999
0.999989
0.999988
0.999985
0.999981
0.999973
0.999961
0.999945
0.999922
0.999906
0.999898
0.999891
0.999888
0.999882
0.999885
0.999875
0.999564
0.941587
0.0274034
8.72912e-05
1.87092e-06
1.76338e-06
1.79272e-06
1.8188e-06
1.75341e-06
1.6059e-06
1.3515e-06
1.11115e-06
9.19298e-07
8.04814e-07
7.53131e-07
7.34978e-07
7.34589e-07
7.33399e-07
7.3346e-07
7.29397e-07
7.21758e-07
7.13376e-07
7.04237e-07
6.91426e-07
6.76736e-07
6.6132e-07
6.46999e-07
6.34844e-07
6.26558e-07
6.22909e-07
6.16984e-07
6.0426e-07
5.88286e-07
5.62218e-07
5.24916e-07
4.89476e-07
4.58683e-07
4.10568e-07
0.999995
0.999995
0.999994
0.999993
0.999992
0.999992
0.999991
0.999991
0.99999
0.99999
0.99999
0.99999
0.99999
0.99999
0.99999
0.99999
0.99999
0.99999
0.99999
0.99999
0.99999
0.99999
0.99999
0.99999
0.99999
0.99999
0.99999
0.99999
0.99999
0.99999
0.99999
0.99999
0.99999
0.99999
0.99999
0.99999
0.99999
0.99999
0.99999
0.99999
0.99999
0.99999
0.99999
0.999989
0.999988
0.999985
0.999981
0.999973
0.999961
0.999941
0.999916
0.999899
0.999891
0.999885
0.999882
0.999878
0.999881
0.999867
0.999698
0.916948
0.0207152
8.7094e-05
4.50397e-05
4.03046e-05
3.9937e-05
3.97394e-05
3.90172e-05
3.6655e-05
3.16697e-05
2.46864e-05
1.78376e-05
1.21475e-05
8.22266e-06
5.85948e-06
4.57693e-06
3.77458e-06
3.15188e-06
2.5112e-06
1.87217e-06
1.35399e-06
1.01359e-06
8.35989e-07
7.52636e-07
7.17034e-07
7.03644e-07
6.94343e-07
6.82989e-07
6.76135e-07
6.61513e-07
6.38366e-07
6.18581e-07
5.93609e-07
5.53151e-07
5.12346e-07
4.75519e-07
4.21787e-07
0.999995
0.999995
0.999994
0.999994
0.999993
0.999992
0.999991
0.999991
0.99999
0.99999
0.99999
0.99999
0.99999
0.99999
0.99999
0.99999
0.99999
0.99999
0.99999
0.99999
0.99999
0.99999
0.99999
0.99999
0.99999
0.99999
0.99999
0.99999
0.99999
0.99999
0.99999
0.99999
0.99999
0.99999
0.99999
0.99999
0.99999
0.99999
0.99999
0.99999
0.99999
0.99999
0.99999
0.999989
0.999988
0.999985
0.999981
0.999972
0.999959
0.999936
0.99991
0.999893
0.999886
0.999881
0.999878
0.999875
0.999876
0.99986
0.999732
0.882898
0.0209249
0.000607222
0.000553379
0.000490829
0.000473631
0.000452703
0.000429468
0.000399231
0.000362297
0.000320099
0.000274305
0.000230558
0.00019283
0.000162411
0.000138711
0.00011907
0.000101685
8.50837e-05
6.92363e-05
5.47636e-05
4.25483e-05
3.31822e-05
2.6339e-05
2.11855e-05
1.76644e-05
1.50208e-05
1.26848e-05
1.03648e-05
8.19217e-06
5.86406e-06
3.54811e-06
1.97646e-06
1.09059e-06
6.74156e-07
5.25987e-07
4.54335e-07
0.999995
0.999995
0.999994
0.999994
0.999993
0.999993
0.999992
0.999991
0.999991
0.99999
0.99999
0.99999
0.99999
0.99999
0.99999
0.99999
0.99999
0.99999
0.99999
0.99999
0.99999
0.99999
0.99999
0.99999
0.99999
0.99999
0.99999
0.99999
0.99999
0.99999
0.99999
0.99999
0.99999
0.99999
0.99999
0.99999
0.99999
0.99999
0.99999
0.99999
0.99999
0.99999
0.99999
0.999989
0.999988
0.999985
0.99998
0.999971
0.999956
0.999932
0.999906
0.999889
0.999883
0.999879
0.999877
0.999875
0.999877
0.999857
0.999729
0.838698
0.0223477
0.00292446
0.00295758
0.00276949
0.00272657
0.00262378
0.00252339
0.00240959
0.00229382
0.00217511
0.00205013
0.00192814
0.00180596
0.00168605
0.001572
0.00146545
0.00136295
0.00125877
0.00115279
0.00104303
0.00092956
0.00081536
0.000702932
0.000597334
0.000508492
0.000440245
0.000384884
0.000335676
0.0002851
0.000227377
0.000166691
0.00011047
6.45e-05
3.12325e-05
1.18861e-05
4.70504e-06
0.999995
0.999995
0.999995
0.999994
0.999993
0.999993
0.999992
0.999991
0.999991
0.99999
0.99999
0.99999
0.99999
0.99999
0.99999
0.99999
0.99999
0.99999
0.99999
0.99999
0.99999
0.99999
0.99999
0.99999
0.99999
0.99999
0.99999
0.99999
0.99999
0.99999
0.99999
0.99999
0.99999
0.99999
0.99999
0.99999
0.99999
0.99999
0.99999
0.99999
0.99999
0.99999
0.99999
0.999989
0.999987
0.999985
0.999979
0.999969
0.999954
0.999929
0.999903
0.999887
0.999881
0.999878
0.999877
0.999876
0.999879
0.999863
0.999798
0.789307
0.0255351
0.00762978
0.00795231
0.00777303
0.00771031
0.00760828
0.00750196
0.00741459
0.00732475
0.00723885
0.00716424
0.00708661
0.00702263
0.00694723
0.00685143
0.00672938
0.00658977
0.0064093
0.00619873
0.00594793
0.0056622
0.005336
0.00497575
0.00458265
0.0041693
0.00374016
0.00330502
0.00285621
0.00239681
0.00196448
0.00156994
0.00123639
0.000954875
0.000691179
0.000427253
0.00022827
0.999995
0.999995
0.999995
0.999995
0.999994
0.999993
0.999992
0.999992
0.999991
0.999991
0.99999
0.99999
0.99999
0.99999
0.99999
0.99999
0.99999
0.99999
0.99999
0.99999
0.99999
0.99999
0.99999
0.99999
0.99999
0.99999
0.99999
0.99999
0.99999
0.99999
0.99999
0.99999
0.99999
0.99999
0.99999
0.99999
0.99999
0.99999
0.99999
0.99999
0.99999
0.99999
0.99999
0.999989
0.999988
0.999984
0.999978
0.999968
0.999951
0.999927
0.9999
0.999886
0.99988
0.999879
0.999879
0.99988
0.999881
0.999868
0.999808
0.766392
0.0280052
0.0119428
0.0125893
0.0126016
0.0125598
0.0125667
0.0125773
0.0126565
0.0127469
0.0128558
0.0129782
0.013101
0.0132137
0.0133087
0.0133822
0.0134299
0.0134547
0.0134458
0.0134142
0.0133672
0.013326
0.0133093
0.013352
0.0134586
0.0136198
0.013819
0.0140103
0.0141716
0.0142836
0.0143468
0.0143113
0.0141232
0.0136716
0.0128712
0.0114208
0.00937751
0.999996
0.999995
0.999995
0.999995
0.999994
0.999993
0.999992
0.999992
0.999991
0.999991
0.99999
0.99999
0.99999
0.99999
0.99999
0.99999
0.99999
0.99999
0.99999
0.99999
0.99999
0.99999
0.99999
0.99999
0.99999
0.99999
0.99999
0.99999
0.99999
0.99999
0.99999
0.99999
0.99999
0.99999
0.99999
0.99999
0.99999
0.99999
0.99999
0.99999
0.99999
0.99999
0.99999
0.999989
0.999988
0.999984
0.999977
0.999967
0.999951
0.999929
0.999904
0.999888
0.999883
0.999881
0.999882
0.999883
0.999886
0.999873
0.9998
0.824891
0.025685
0.0071888
0.00709237
0.00654186
0.00623801
0.00602251
0.00591913
0.00584152
0.00579143
0.00575015
0.00571837
0.0056798
0.00564064
0.00560304
0.00556333
0.00552621
0.00549674
0.00546475
0.00542079
0.0053706
0.00532294
0.00526779
0.00521665
0.00515549
0.00510371
0.00506846
0.005029
0.00496191
0.00485041
0.0046911
0.004476
0.00411805
0.00361348
0.00291765
0.00189244
0.00102809
0.999996
0.999995
0.999995
0.999995
0.999994
0.999993
0.999992
0.999992
0.999991
0.999991
0.99999
0.99999
0.99999
0.99999
0.99999
0.99999
0.99999
0.99999
0.99999
0.99999
0.99999
0.99999
0.99999
0.99999
0.99999
0.99999
0.99999
0.99999
0.99999
0.99999
0.99999
0.99999
0.99999
0.99999
0.99999
0.99999
0.99999
0.99999
0.99999
0.99999
0.99999
0.99999
0.99999
0.999989
0.999987
0.999984
0.999977
0.999968
0.999954
0.999935
0.999911
0.999894
0.999886
0.999882
0.999883
0.999882
0.999888
0.999877
0.999838
0.886835
0.0212573
0.00228395
0.00206157
0.00170177
0.00153729
0.00140996
0.00134096
0.00127636
0.00122955
0.00118633
0.00115303
0.00112257
0.00109703
0.00108125
0.00107644
0.00107991
0.00109336
0.00111745
0.0011612
0.00121936
0.0012876
0.00134787
0.00140136
0.00144339
0.00147883
0.00150702
0.00151561
0.00149213
0.00144053
0.00133951
0.00118093
0.000968085
0.000718241
0.000450211
0.000208997
9.56196e-05
0.999996
0.999996
0.999995
0.999995
0.999994
0.999993
0.999992
0.999991
0.999991
0.999991
0.99999
0.99999
0.99999
0.99999
0.99999
0.99999
0.99999
0.99999
0.99999
0.99999
0.99999
0.99999
0.99999
0.99999
0.99999
0.99999
0.99999
0.99999
0.99999
0.99999
0.99999
0.99999
0.99999
0.99999
0.99999
0.99999
0.99999
0.99999
0.99999
0.99999
0.99999
0.99999
0.99999
0.999989
0.999987
0.999984
0.999979
0.999969
0.999956
0.99994
0.99992
0.999902
0.999892
0.999886
0.999885
0.999883
0.999889
0.999878
0.999854
0.93106
0.0231213
0.000371751
0.000272669
0.000196147
0.000169973
0.00014802
0.000139614
0.000132814
0.000128437
0.0001237
0.000120255
0.000116614
0.000113838
0.00011223
0.000113346
0.000116538
0.000122836
0.000133386
0.000149229
0.00016867
0.000190481
0.000209837
0.000227775
0.000246754
0.000270895
0.000293072
0.000304685
0.000306238
0.00029344
0.000259032
0.000206337
0.000144434
8.47742e-05
3.8217e-05
1.43247e-05
6.36456e-06
0.999997
0.999996
0.999996
0.999996
0.999995
0.999994
0.999992
0.999991
0.999991
0.99999
0.99999
0.99999
0.99999
0.99999
0.99999
0.99999
0.99999
0.99999
0.99999
0.99999
0.99999
0.99999
0.99999
0.99999
0.99999
0.99999
0.99999
0.99999
0.99999
0.99999
0.99999
0.99999
0.99999
0.99999
0.99999
0.99999
0.99999
0.99999
0.99999
0.99999
0.99999
0.99999
0.99999
0.999989
0.999988
0.999985
0.99998
0.99997
0.999958
0.999943
0.999927
0.999911
0.999901
0.999891
0.999889
0.999885
0.999891
0.999877
0.999823
0.957004
0.0328866
9.63163e-05
1.65226e-05
1.09892e-05
9.24639e-06
7.95137e-06
7.61152e-06
7.29021e-06
7.10083e-06
6.99554e-06
6.96819e-06
6.8723e-06
6.76227e-06
6.74035e-06
7.17816e-06
7.91804e-06
9.06055e-06
1.06125e-05
1.25996e-05
1.47962e-05
1.70016e-05
1.8813e-05
2.0788e-05
2.36997e-05
2.7546e-05
3.00467e-05
3.13142e-05
3.10607e-05
2.88343e-05
2.42364e-05
1.75781e-05
1.06967e-05
5.2633e-06
2.18083e-06
1.03705e-06
6.73016e-07
0.999997
0.999997
0.999996
0.999996
0.999995
0.999994
0.999993
0.999992
0.999991
0.99999
0.99999
0.99999
0.99999
0.99999
0.99999
0.99999
0.99999
0.99999
0.99999
0.99999
0.99999
0.99999
0.99999
0.99999
0.99999
0.99999
0.99999
0.99999
0.99999
0.99999
0.99999
0.99999
0.99999
0.99999
0.99999
0.99999
0.99999
0.99999
0.99999
0.99999
0.99999
0.99999
0.99999
0.999989
0.999988
0.999985
0.99998
0.999972
0.999959
0.999944
0.99993
0.999918
0.999908
0.999898
0.999894
0.999889
0.999893
0.999875
0.999731
0.969211
0.0467143
0.000150277
1.26657e-06
1.056e-06
9.86498e-07
9.36566e-07
9.14604e-07
9.03417e-07
9.01223e-07
8.93883e-07
8.92461e-07
8.86266e-07
8.8013e-07
8.73535e-07
8.83517e-07
9.07181e-07
9.48948e-07
1.00718e-06
1.07134e-06
1.1347e-06
1.17237e-06
1.20477e-06
1.24746e-06
1.33645e-06
1.4169e-06
1.42701e-06
1.39394e-06
1.34627e-06
1.24961e-06
1.11539e-06
9.43603e-07
7.78875e-07
6.47735e-07
5.79473e-07
5.27077e-07
4.59505e-07
0.999997
0.999997
0.999997
0.999996
0.999996
0.999995
0.999994
0.999992
0.999991
0.99999
0.99999
0.99999
0.99999
0.99999
0.99999
0.99999
0.99999
0.99999
0.99999
0.99999
0.99999
0.99999
0.99999
0.99999
0.99999
0.99999
0.99999
0.99999
0.99999
0.99999
0.99999
0.99999
0.99999
0.99999
0.99999
0.99999
0.99999
0.99999
0.99999
0.99999
0.99999
0.99999
0.99999
0.999989
0.999988
0.999985
0.99998
0.999972
0.999959
0.999945
0.999931
0.999919
0.999912
0.999903
0.999898
0.999892
0.999892
0.999863
0.999623
0.967646
0.0564399
0.000279491
1.09451e-06
7.90084e-07
7.80182e-07
7.86425e-07
7.90591e-07
7.87133e-07
7.8329e-07
7.77805e-07
7.71121e-07
7.64083e-07
7.59393e-07
7.54922e-07
7.49976e-07
7.44288e-07
7.38521e-07
7.35373e-07
7.32935e-07
7.31349e-07
7.28835e-07
7.29123e-07
7.27661e-07
7.25433e-07
7.22626e-07
7.17958e-07
7.09415e-07
6.97914e-07
6.79663e-07
6.53605e-07
6.27396e-07
6.07531e-07
5.82844e-07
5.61394e-07
5.24109e-07
4.50782e-07
0.999997
0.999997
0.999997
0.999996
0.999996
0.999996
0.999995
0.999993
0.999991
0.99999
0.99999
0.99999
0.99999
0.99999
0.99999
0.99999
0.99999
0.99999
0.99999
0.99999
0.99999
0.99999
0.99999
0.99999
0.99999
0.99999
0.99999
0.99999
0.99999
0.99999
0.99999
0.99999
0.99999
0.99999
0.99999
0.99999
0.99999
0.99999
0.99999
0.99999
0.99999
0.99999
0.99999
0.999989
0.999988
0.999986
0.999981
0.999972
0.99996
0.999945
0.999931
0.99992
0.999914
0.999907
0.999902
0.999893
0.999888
0.999861
0.999546
0.961653
0.0563484
0.000281001
1.05721e-06
7.67992e-07
7.62015e-07
7.6053e-07
7.61381e-07
7.59888e-07
7.59739e-07
7.57009e-07
7.55842e-07
7.52037e-07
7.47859e-07
7.44148e-07
7.40639e-07
7.36678e-07
7.32677e-07
7.3116e-07
7.29945e-07
7.28153e-07
7.2554e-07
7.24602e-07
7.22608e-07
7.19413e-07
7.16046e-07
7.13005e-07
7.05872e-07
6.93102e-07
6.72566e-07
6.45848e-07
6.21256e-07
5.99387e-07
5.79363e-07
5.55357e-07
5.15229e-07
4.46788e-07
0.999998
0.999997
0.999997
0.999996
0.999996
0.999996
0.999995
0.999993
0.999991
0.99999
0.99999
0.99999
0.99999
0.99999
0.99999
0.99999
0.99999
0.99999
0.99999
0.99999
0.99999
0.99999
0.99999
0.99999
0.99999
0.99999
0.99999
0.99999
0.99999
0.99999
0.99999
0.99999
0.99999
0.99999
0.99999
0.99999
0.99999
0.99999
0.99999
0.99999
0.99999
0.99999
0.99999
0.999989
0.999988
0.999986
0.999981
0.999972
0.99996
0.999944
0.999929
0.999919
0.999914
0.999907
0.999905
0.999893
0.999893
0.999868
0.999212
0.953392
0.0627882
0.000580045
1.86956e-06
7.62638e-07
7.60299e-07
7.55749e-07
7.53461e-07
7.49881e-07
7.49529e-07
7.4676e-07
7.45431e-07
7.43166e-07
7.41043e-07
7.39011e-07
7.37051e-07
7.35002e-07
7.3215e-07
7.30084e-07
7.28263e-07
7.26714e-07
7.25101e-07
7.24433e-07
7.22793e-07
7.2005e-07
7.16687e-07
7.14709e-07
7.10354e-07
6.99574e-07
6.80765e-07
6.54931e-07
6.24819e-07
5.95309e-07
5.70081e-07
5.39063e-07
5.01902e-07
4.35168e-07
0.999995
0.999994
0.999993
0.999993
0.999992
0.999992
0.999991
0.999991
0.99999
0.99999
0.99999
0.99999
0.99999
0.99999
0.99999
0.99999
0.99999
0.99999
0.99999
0.99999
0.99999
0.99999
0.99999
0.99999
0.99999
0.99999
0.99999
0.99999
0.99999
0.99999
0.99999
0.99999
0.99999
0.99999
0.99999
0.99999
0.99999
0.99999
0.99999
0.99999
0.99999
0.99999
0.99999
0.99999
0.999988
0.999986
0.999981
0.999972
0.999958
0.99994
0.999926
0.999914
0.999909
0.999904
0.999902
0.999896
0.999896
0.999874
0.999156
0.944526
0.036031
0.000140007
7.59957e-07
6.78353e-07
6.75685e-07
6.70322e-07
6.70532e-07
6.6718e-07
6.6775e-07
6.65872e-07
6.66428e-07
6.6518e-07
6.65059e-07
6.63827e-07
6.6267e-07
6.60956e-07
6.59887e-07
6.59372e-07
6.58551e-07
6.58364e-07
6.58695e-07
6.57119e-07
6.52986e-07
6.44707e-07
6.37034e-07
6.29381e-07
6.20444e-07
6.10852e-07
5.98709e-07
5.80972e-07
5.5872e-07
5.35829e-07
5.06989e-07
4.77763e-07
4.43804e-07
4.01527e-07
0.999995
0.999994
0.999993
0.999993
0.999992
0.999992
0.999991
0.999991
0.999991
0.99999
0.99999
0.99999
0.99999
0.99999
0.99999
0.99999
0.99999
0.99999
0.99999
0.99999
0.99999
0.99999
0.99999
0.99999
0.99999
0.99999
0.99999
0.99999
0.99999
0.99999
0.99999
0.99999
0.99999
0.99999
0.99999
0.99999
0.99999
0.99999
0.99999
0.99999
0.99999
0.99999
0.99999
0.999989
0.999988
0.999986
0.999981
0.999972
0.999961
0.999945
0.999929
0.999914
0.999906
0.9999
0.999897
0.999892
0.999892
0.999866
0.999547
0.920388
0.0168956
1.3525e-05
6.84817e-07
7.22935e-07
7.10351e-07
7.10761e-07
7.13376e-07
7.09494e-07
7.10682e-07
7.06414e-07
7.04667e-07
6.98612e-07
6.9233e-07
6.86011e-07
6.81997e-07
6.78616e-07
6.77585e-07
6.77916e-07
6.80841e-07
6.8559e-07
6.85576e-07
6.79827e-07
6.67586e-07
6.53598e-07
6.41489e-07
6.29921e-07
6.1897e-07
6.09679e-07
6.00256e-07
5.8788e-07
5.72565e-07
5.51888e-07
5.21473e-07
4.95612e-07
4.7056e-07
4.21453e-07
0.999995
0.999995
0.999993
0.999993
0.999992
0.999992
0.999991
0.999991
0.999991
0.99999
0.99999
0.99999
0.99999
0.99999
0.99999
0.99999
0.99999
0.99999
0.99999
0.99999
0.99999
0.99999
0.99999
0.99999
0.99999
0.99999
0.99999
0.99999
0.99999
0.99999
0.99999
0.99999
0.99999
0.99999
0.99999
0.99999
0.99999
0.99999
0.99999
0.99999
0.99999
0.99999
0.99999
0.999989
0.999988
0.999985
0.999981
0.999973
0.999962
0.999946
0.999925
0.999908
0.999898
0.999892
0.99989
0.999887
0.99989
0.999863
0.999688
0.904846
0.0162097
3.93327e-06
3.40031e-06
2.87594e-06
2.81343e-06
2.37335e-06
1.99771e-06
1.54364e-06
1.23727e-06
1.01715e-06
8.9054e-07
8.15101e-07
7.82726e-07
7.68282e-07
7.6131e-07
7.56267e-07
7.54368e-07
7.4563e-07
7.40147e-07
7.38185e-07
7.28768e-07
7.13892e-07
6.94715e-07
6.76564e-07
6.61064e-07
6.4661e-07
6.34087e-07
6.23146e-07
6.14561e-07
6.04958e-07
5.95246e-07
5.76449e-07
5.44353e-07
5.16002e-07
4.8839e-07
4.36393e-07
0.999996
0.999995
0.999994
0.999993
0.999993
0.999992
0.999992
0.999991
0.999991
0.999991
0.99999
0.99999
0.99999
0.99999
0.99999
0.99999
0.99999
0.99999
0.99999
0.99999
0.99999
0.99999
0.99999
0.99999
0.99999
0.99999
0.99999
0.99999
0.99999
0.99999
0.99999
0.99999
0.99999
0.99999
0.99999
0.99999
0.99999
0.99999
0.99999
0.99999
0.99999
0.99999
0.99999
0.999989
0.999988
0.999985
0.99998
0.999974
0.999962
0.999943
0.999918
0.999898
0.999888
0.999885
0.999883
0.999877
0.999874
0.99985
0.999768
0.855388
0.00757454
0.000158941
0.000140403
0.000114621
0.000106386
8.95482e-05
7.36241e-05
5.71435e-05
4.28496e-05
3.07815e-05
2.17399e-05
1.54261e-05
1.13719e-05
8.97816e-06
7.63645e-06
6.77925e-06
6.21001e-06
5.6538e-06
5.10255e-06
4.55399e-06
4.02494e-06
3.53174e-06
3.05348e-06
2.58963e-06
2.22408e-06
1.92353e-06
1.64822e-06
1.40978e-06
1.10319e-06
8.57584e-07
7.19276e-07
6.55455e-07
6.17031e-07
5.70221e-07
5.25739e-07
4.59236e-07
0.999996
0.999996
0.999994
0.999994
0.999993
0.999993
0.999992
0.999991
0.999991
0.999991
0.99999
0.99999
0.99999
0.99999
0.99999
0.99999
0.99999
0.99999
0.99999
0.99999
0.99999
0.99999
0.99999
0.99999
0.99999
0.99999
0.99999
0.99999
0.99999
0.99999
0.99999
0.99999
0.99999
0.99999
0.99999
0.99999
0.99999
0.99999
0.99999
0.99999
0.99999
0.99999
0.99999
0.999989
0.999988
0.999985
0.99998
0.999973
0.99996
0.999937
0.999908
0.99989
0.999881
0.999877
0.999873
0.999864
0.999857
0.999842
0.999833
0.782544
0.00914318
0.00247134
0.0023271
0.0020561
0.00190838
0.00169641
0.00150434
0.00130804
0.00112219
0.000949799
0.000803289
0.000681983
0.000586295
0.000512633
0.000457832
0.000417827
0.000388637
0.000365823
0.000348591
0.000334663
0.000321507
0.000302575
0.000273066
0.000242315
0.000210899
0.000182986
0.000158537
0.000129826
9.73351e-05
6.49184e-05
3.73933e-05
1.8133e-05
7.53034e-06
2.83524e-06
1.13923e-06
6.58134e-07
0.999996
0.999996
0.999995
0.999994
0.999993
0.999993
0.999992
0.999992
0.999991
0.999991
0.99999
0.99999
0.99999
0.99999
0.99999
0.99999
0.99999
0.99999
0.99999
0.99999
0.99999
0.99999
0.99999
0.99999
0.99999
0.99999
0.99999
0.99999
0.99999
0.99999
0.99999
0.99999
0.99999
0.99999
0.99999
0.99999
0.99999
0.99999
0.99999
0.99999
0.99999
0.99999
0.99999
0.999989
0.999988
0.999985
0.99998
0.999972
0.999957
0.99993
0.9999
0.999884
0.999876
0.99987
0.999864
0.999858
0.999855
0.999849
0.999834
0.674104
0.0188794
0.0115422
0.0117456
0.0115049
0.0112806
0.010988
0.0106745
0.0103332
0.00993621
0.00950717
0.00903206
0.00854094
0.00805457
0.0075769
0.0071215
0.00671084
0.00634383
0.00602168
0.00574185
0.00549435
0.00524502
0.00494274
0.0045928
0.00425126
0.00389249
0.00351621
0.00315072
0.00278579
0.00242305
0.00203055
0.00162352
0.00119714
0.000783556
0.000431862
0.000184555
6.85232e-05
0.999996
0.999996
0.999996
0.999995
0.999994
0.999993
0.999992
0.999992
0.999991
0.999991
0.99999
0.99999
0.99999
0.99999
0.99999
0.99999
0.99999
0.99999
0.99999
0.99999
0.99999
0.99999
0.99999
0.99999
0.99999
0.99999
0.99999
0.99999
0.99999
0.99999
0.99999
0.99999
0.99999
0.99999
0.99999
0.99999
0.99999
0.99999
0.99999
0.99999
0.99999
0.99999
0.99999
0.999989
0.999988
0.999985
0.999979
0.999969
0.999953
0.999925
0.999895
0.99988
0.999873
0.999868
0.999864
0.999861
0.999862
0.999855
0.999667
0.6011
0.0284647
0.0219493
0.0228656
0.0232701
0.0235751
0.0239852
0.0243629
0.02477
0.0251141
0.0254531
0.0257477
0.0260286
0.0262421
0.0263972
0.0264675
0.0264832
0.0264258
0.0263109
0.0261094
0.0258174
0.0254241
0.0249373
0.0244381
0.0238698
0.0231661
0.0223278
0.0212798
0.0200805
0.0188858
0.0177095
0.0165367
0.0153262
0.013927
0.0120678
0.0099206
0.00813905
0.999996
0.999997
0.999996
0.999995
0.999994
0.999993
0.999992
0.999992
0.999991
0.999991
0.99999
0.99999
0.99999
0.99999
0.99999
0.99999
0.99999
0.99999
0.99999
0.99999
0.99999
0.99999
0.99999
0.99999
0.99999
0.99999
0.99999
0.99999
0.99999
0.99999
0.99999
0.99999
0.99999
0.99999
0.99999
0.99999
0.99999
0.99999
0.99999
0.99999
0.99999
0.99999
0.99999
0.999989
0.999988
0.999985
0.999978
0.999968
0.99995
0.999922
0.999893
0.999878
0.999873
0.999872
0.999871
0.99987
0.999872
0.999867
0.999467
0.68283
0.0315114
0.0204965
0.021281
0.0215404
0.0219592
0.0226558
0.0235096
0.0244674
0.0254897
0.0265943
0.0277788
0.0290844
0.0304865
0.0319574
0.0335148
0.0351645
0.0369489
0.0388626
0.0408695
0.0429695
0.0451948
0.0476039
0.050244
0.053128
0.0563451
0.0598833
0.0637619
0.0681513
0.0733171
0.0795796
0.0873388
0.0971896
0.110564
0.132323
0.182072
0.377672
0.999996
0.999997
0.999996
0.999996
0.999995
0.999994
0.999992
0.999992
0.999991
0.999991
0.99999
0.99999
0.99999
0.99999
0.99999
0.99999
0.99999
0.99999
0.99999
0.99999
0.99999
0.99999
0.99999
0.99999
0.99999
0.99999
0.99999
0.99999
0.99999
0.99999
0.99999
0.99999
0.99999
0.99999
0.99999
0.99999
0.99999
0.99999
0.99999
0.99999
0.99999
0.99999
0.99999
0.999989
0.999988
0.999984
0.999978
0.999968
0.999953
0.999928
0.9999
0.999884
0.999877
0.999875
0.999875
0.999873
0.999876
0.999871
0.999846
0.814616
0.0219801
0.00698084
0.00662082
0.00582571
0.00551311
0.00523856
0.00508412
0.00500368
0.00501379
0.00506926
0.00518164
0.00531039
0.00548382
0.00571204
0.0060126
0.00638266
0.00684517
0.00739779
0.0080337
0.00873092
0.00947632
0.0102676
0.0110932
0.0119472
0.0128011
0.0136824
0.0146115
0.0156092
0.0166974
0.017762
0.0187356
0.0198679
0.021204
0.0223839
0.0229856
0.0216572
0.999997
0.999997
0.999997
0.999996
0.999996
0.999994
0.999993
0.999992
0.999991
0.999991
0.99999
0.99999
0.99999
0.99999
0.99999
0.99999
0.99999
0.99999
0.99999
0.99999
0.99999
0.99999
0.99999
0.99999
0.99999
0.99999
0.99999
0.99999
0.99999
0.99999
0.99999
0.99999
0.99999
0.99999
0.99999
0.99999
0.99999
0.99999
0.99999
0.99999
0.99999
0.99999
0.99999
0.999989
0.999988
0.999985
0.999978
0.999969
0.999957
0.999938
0.999912
0.999892
0.999884
0.999879
0.999877
0.999875
0.999878
0.999869
0.999881
0.879253
0.0131987
0.00142105
0.00125478
0.000996216
0.000903024
0.000814864
0.000779937
0.000759426
0.000769577
0.000790771
0.000827583
0.000873175
0.000925357
0.000983322
0.00104959
0.00113138
0.00124509
0.00140299
0.00161035
0.00190464
0.00226578
0.00270614
0.00317742
0.00365061
0.00413218
0.00459176
0.00501181
0.00536746
0.00566962
0.0058862
0.00590399
0.00570241
0.00515588
0.00398508
0.00239732
0.00114231
0.999997
0.999997
0.999997
0.999997
0.999996
0.999995
0.999993
0.999992
0.999991
0.999991
0.99999
0.99999
0.99999
0.99999
0.99999
0.99999
0.99999
0.99999
0.99999
0.99999
0.99999
0.99999
0.99999
0.99999
0.99999
0.99999
0.99999
0.99999
0.99999
0.99999
0.99999
0.99999
0.99999
0.99999
0.99999
0.99999
0.99999
0.99999
0.99999
0.99999
0.99999
0.99999
0.99999
0.999989
0.999988
0.999985
0.99998
0.99997
0.999958
0.999943
0.999924
0.999905
0.999893
0.999887
0.999885
0.999881
0.999881
0.999864
0.999872
0.922187
0.0151554
0.000184142
0.000163348
0.000123975
0.000113975
0.000102297
0.000100532
9.91958e-05
0.000101171
0.000104571
0.000110705
0.000118169
0.000126083
0.000134347
0.000144284
0.000159399
0.00018112
0.00021721
0.000270609
0.00034836
0.000448639
0.000574624
0.000728795
0.000915707
0.00112286
0.00131981
0.00145976
0.00153945
0.00156049
0.00147256
0.00127412
0.00093986
0.000570677
0.000268981
9.36183e-05
3.44167e-05
0.999997
0.999997
0.999997
0.999997
0.999996
0.999995
0.999993
0.999992
0.999991
0.999991
0.99999
0.99999
0.99999
0.99999
0.99999
0.99999
0.99999
0.99999
0.99999
0.99999
0.99999
0.99999
0.99999
0.99999
0.99999
0.99999
0.99999
0.99999
0.99999
0.99999
0.99999
0.99999
0.99999
0.99999
0.99999
0.99999
0.99999
0.99999
0.99999
0.99999
0.99999
0.99999
0.99999
0.999989
0.999988
0.999985
0.999981
0.999972
0.99996
0.999945
0.999929
0.999915
0.999903
0.999894
0.999892
0.999887
0.999885
0.999857
0.999822
0.948664
0.0223367
1.52932e-05
1.48498e-05
1.03121e-05
9.75069e-06
8.73815e-06
8.75896e-06
8.85773e-06
9.17024e-06
9.62946e-06
1.03333e-05
1.10164e-05
1.15901e-05
1.2151e-05
1.30327e-05
1.4863e-05
1.76504e-05
2.2325e-05
2.90755e-05
3.86538e-05
5.09298e-05
6.64937e-05
8.67401e-05
0.000111227
0.000138641
0.000164973
0.000179647
0.000180564
0.000165931
0.00013479
9.11741e-05
4.83099e-05
1.91961e-05
6.07382e-06
1.90643e-06
1.00546e-06
0.999997
0.999997
0.999997
0.999997
0.999997
0.999996
0.999994
0.999992
0.999991
0.999991
0.99999
0.99999
0.99999
0.99999
0.99999
0.99999
0.99999
0.99999
0.99999
0.99999
0.99999
0.99999
0.99999
0.99999
0.99999
0.99999
0.99999
0.99999
0.99999
0.99999
0.99999
0.99999
0.99999
0.99999
0.99999
0.99999
0.99999
0.99999
0.99999
0.99999
0.99999
0.99999
0.99999
0.999989
0.999988
0.999986
0.999981
0.999973
0.999961
0.999946
0.999931
0.999918
0.999909
0.999899
0.999895
0.999886
0.999881
0.999844
0.999732
0.959283
0.0326082
9.29172e-06
1.60916e-06
1.22105e-06
1.21517e-06
1.14696e-06
1.13307e-06
1.13873e-06
1.1582e-06
1.17357e-06
1.19775e-06
1.21614e-06
1.22556e-06
1.24007e-06
1.26487e-06
1.34616e-06
1.47788e-06
1.69726e-06
2.00308e-06
2.37889e-06
2.78426e-06
3.26539e-06
3.97457e-06
4.72842e-06
5.50049e-06
5.95664e-06
5.73526e-06
4.8691e-06
3.95108e-06
2.91893e-06
1.77532e-06
1.05616e-06
7.04772e-07
5.85217e-07
5.25671e-07
4.46445e-07
0.999997
0.999997
0.999997
0.999997
0.999997
0.999997
0.999996
0.999993
0.999991
0.999991
0.99999
0.99999
0.99999
0.99999
0.99999
0.99999
0.99999
0.99999
0.99999
0.99999
0.99999
0.99999
0.99999
0.99999
0.99999
0.99999
0.99999
0.99999
0.99999
0.99999
0.99999
0.99999
0.99999
0.99999
0.99999
0.99999
0.99999
0.99999
0.99999
0.99999
0.99999
0.99999
0.99999
0.999989
0.999988
0.999986
0.999981
0.999972
0.99996
0.999946
0.999931
0.999919
0.999911
0.999901
0.999893
0.999883
0.99987
0.99982
0.999596
0.955187
0.0388264
2.72525e-05
8.58628e-07
8.15608e-07
8.03185e-07
8.05354e-07
8.06514e-07
8.00986e-07
7.95597e-07
7.88595e-07
7.84014e-07
7.77114e-07
7.72351e-07
7.66825e-07
7.61664e-07
7.56407e-07
7.50527e-07
7.44434e-07
7.44026e-07
7.45089e-07
7.42811e-07
7.42152e-07
7.44766e-07
7.45055e-07
7.43628e-07
7.37183e-07
7.20592e-07
7.00947e-07
6.80312e-07
6.4992e-07
6.17974e-07
5.95104e-07
5.78884e-07
5.60539e-07
5.21057e-07
4.37463e-07
0.999997
0.999997
0.999997
0.999997
0.999997
0.999997
0.999996
0.999995
0.999992
0.999991
0.99999
0.99999
0.99999
0.99999
0.99999
0.99999
0.99999
0.99999
0.99999
0.99999
0.99999
0.99999
0.99999
0.99999
0.99999
0.99999
0.99999
0.99999
0.99999
0.99999
0.99999
0.99999
0.99999
0.99999
0.99999
0.99999
0.99999
0.99999
0.99999
0.99999
0.99999
0.99999
0.99999
0.999989
0.999988
0.999986
0.999981
0.999972
0.99996
0.999945
0.999931
0.99992
0.999911
0.9999
0.99989
0.999875
0.999858
0.99981
0.999545
0.937415
0.0360645
5.5239e-05
8.72716e-07
7.74948e-07
7.66029e-07
7.6295e-07
7.64384e-07
7.61576e-07
7.60816e-07
7.5843e-07
7.57689e-07
7.54349e-07
7.51506e-07
7.47416e-07
7.44093e-07
7.40802e-07
7.37617e-07
7.35159e-07
7.31508e-07
7.2853e-07
7.26466e-07
7.24098e-07
7.2079e-07
7.16575e-07
7.12914e-07
7.10122e-07
7.02802e-07
6.88998e-07
6.67168e-07
6.36043e-07
6.0474e-07
5.80598e-07
5.66468e-07
5.46728e-07
5.08249e-07
4.34037e-07
0.999998
0.999998
0.999997
0.999997
0.999997
0.999997
0.999997
0.999995
0.999992
0.999991
0.99999
0.99999
0.99999
0.99999
0.99999
0.99999
0.99999
0.99999
0.99999
0.99999
0.99999
0.99999
0.99999
0.99999
0.99999
0.99999
0.99999
0.99999
0.99999
0.99999
0.99999
0.99999
0.99999
0.99999
0.99999
0.99999
0.99999
0.99999
0.99999
0.99999
0.99999
0.99999
0.99999
0.999989
0.999988
0.999986
0.999981
0.999972
0.99996
0.999944
0.999929
0.999919
0.999913
0.999906
0.999897
0.999881
0.999873
0.999824
0.999359
0.952786
0.05656
0.000447055
1.49284e-06
7.63983e-07
7.59804e-07
7.53197e-07
7.52184e-07
7.48271e-07
7.47179e-07
7.43814e-07
7.42496e-07
7.39884e-07
7.38723e-07
7.37019e-07
7.36146e-07
7.35633e-07
7.35449e-07
7.34618e-07
7.3159e-07
7.29228e-07
7.27468e-07