/*--------------------------------*- C++ -*----------------------------------*\
| =========                 |                                                 |
| \\      /  F ield         | OpenFOAM: The Open Source CFD Toolbox           |
|  \\    /   O peration     | Version:  2.3.0                                 |
|   \\  /    A nd           | Web:      www.OpenFOAM.org                      |
|    \\/     M anipulation  |                                                 |
\*---------------------------------------------------------------------------*/
FoamFile
{
    version     2.0;
    format      ascii;
    class       surfaceScalarField;
    location    "61";
    object      phi.water;
}
// * * * * * * * * * * * * * * * * * * * * * * * * * * * * * * * * * * * * * //

dimensions      [0 3 -1 0 0 0 0];

internalField   nonuniform List<scalar> 
16448
(
-1.15175e-06
-2.43341e-06
5.97632e-07
6.17991e-07
-2.55331e-06
7.8818e-07
6.60161e-07
-1.2391e-06
1.20059e-06
6.08409e-07
-1.03712e-06
1.09221e-06
2.81769e-07
-5.58743e-07
8.91393e-07
1.70243e-07
-6.55958e-07
7.76373e-07
1.63915e-07
-6.69618e-07
6.85344e-07
1.62789e-07
-6.45528e-07
6.54814e-07
7.39017e-08
-4.90499e-07
5.85137e-07
-1.17614e-07
-3.353e-07
5.29105e-07
-3.38177e-07
-2.45569e-07
4.66688e-07
-4.59326e-07
-2.55151e-07
3.76405e-07
-4.66347e-07
-2.95992e-07
3.03264e-07
-3.79214e-07
-3.41293e-07
2.54345e-07
-2.6691e-07
-3.60993e-07
2.48955e-07
-1.43193e-07
-3.81356e-07
2.57869e-07
-2.86353e-08
-3.96161e-07
2.81881e-07
7.14739e-08
-4.11071e-07
3.11222e-07
1.49937e-07
-4.23998e-07
3.45815e-07
2.0474e-07
-4.33865e-07
3.79336e-07
2.33228e-07
-4.39273e-07
4.11072e-07
2.39255e-07
-4.43424e-07
4.37674e-07
2.30736e-07
-4.4623e-07
4.55035e-07
2.1422e-07
-4.44191e-07
4.60985e-07
1.94182e-07
-4.36971e-07
4.57301e-07
1.75122e-07
-4.25865e-07
4.45216e-07
1.61478e-07
-4.13312e-07
4.27267e-07
1.57598e-07
-4.03734e-07
4.07922e-07
1.63934e-07
-3.9406e-07
3.88054e-07
1.7726e-07
-3.83458e-07
3.7046e-07
1.94617e-07
-3.72536e-07
3.55533e-07
2.14889e-07
-3.6262e-07
3.42695e-07
2.37616e-07
-3.54281e-07
3.31926e-07
2.63342e-07
-3.48492e-07
3.2313e-07
2.93974e-07
-3.46557e-07
3.1632e-07
3.29382e-07
-3.48203e-07
3.13184e-07
3.62633e-07
-3.49757e-07
3.1693e-07
3.74409e-07
-3.43915e-07
3.3256e-07
3.41889e-07
-3.2972e-07
3.62714e-07
2.43769e-07
-3.2368e-07
4.2227e-07
8.23017e-08
-3.41673e-07
5.03863e-07
-4.19264e-08
-4.48579e-07
5.76175e-07
-5.22848e-08
-6.24579e-07
6.45668e-07
-8.01004e-08
-6.8738e-07
7.36973e-07
-3.85705e-07
-4.35459e-07
7.75637e-07
-8.12566e-07
-9.55698e-08
5.6876e-07
-1.07931e-06
2.71143e-08
2.97337e-07
-8.00841e-07
-5.63593e-07
3.51794e-07
1.84965e-07
-1.85727e-06
9.52145e-07
5.04747e-07
-1.97282e-06
1.72658e-06
-1.05536e-06
-8.75093e-07
2.53059e-06
-2.47612e-06
-9.77444e-07
2.43983e-06
5.1517e-07
-6.59483e-06
3.71304e-06
5.08231e-06
-1.08927e-05
6.2198e-06
9.57438e-06
-1.22078e-05
7.81519e-06
1.53461e-05
-1.4963e-05
8.8843e-06
1.25376e-05
-6.35879e-06
9.54755e-06
1.61898e-05
-1.39981e-05
9.39355e-06
2.33378e-06
1.30292e-05
1.12361e-05
3.03333e-05
-4.97655e-06
-2.49336e-06
2.42256e-05
-2.35304e-05
7.56718e-07
2.933e-05
-8.47778e-06
2.1031e-06
2.73023e-05
-1.64174e-07
2.18833e-06
3.04919e-05
-4.08137e-06
8.91772e-07
3.11583e-05
-1.5003e-06
8.33866e-07
3.05674e-05
-6.99291e-07
1.29027e-06
2.9285e-05
-6.46222e-07
1.92858e-06
2.85801e-05
-1.53881e-06
2.2437e-06
2.87747e-05
-3.1282e-06
2.93363e-06
3.0163e-05
-4.7864e-06
3.39808e-06
3.20541e-05
-5.07287e-06
3.18176e-06
3.39472e-05
-4.38426e-06
2.49117e-06
3.48385e-05
-2.47647e-06
1.58511e-06
3.47572e-05
-9.15689e-07
9.97043e-07
3.4351e-05
-2.25599e-07
6.31764e-07
3.30534e-05
5.49138e-07
7.48466e-07
3.0196e-05
1.9877e-06
8.69654e-07
2.7241e-05
1.71847e-06
1.23657e-06
2.27887e-05
2.36326e-06
2.08906e-06
1.78151e-05
3.11903e-06
1.85456e-06
1.43825e-05
-4.26916e-07
3.85947e-06
1.11844e-05
-2.17313e-06
5.37124e-06
8.0648e-06
-2.67667e-06
5.79628e-06
5.22423e-06
-2.54955e-06
5.39011e-06
2.44002e-06
-1.53669e-06
4.3209e-06
1.22337e-06
-3.17871e-06
4.39537e-06
1.89507e-06
-4.92619e-06
4.25448e-06
2.05628e-06
-4.08981e-06
3.9286e-06
1.77224e-06
-3.46658e-06
3.75063e-06
1.89466e-06
-4.06249e-06
3.94007e-06
2.27484e-06
-4.64568e-06
4.2655e-06
2.6049e-06
-4.66548e-06
4.33541e-06
1.36259e-06
-2.99683e-06
4.23914e-06
-1.01026e-06
-4.36324e-07
2.80918e-06
-1.33681e-06
-3.06368e-07
6.32918e-07
2.41105e-07
-1.57791e-06
-1.85789e-06
-3.44575e-06
-1.92734e-07
-4.42242e-07
-3.78568e-06
-1.75223e-07
-8.74514e-08
-2.29937e-06
7.12073e-07
3.07362e-07
-1.88097e-06
4.54685e-07
3.94563e-07
-9.32566e-07
2.93346e-07
3.24582e-07
-8.11527e-07
2.32947e-07
2.2341e-07
-6.94889e-07
1.34867e-07
1.24195e-07
-6.2701e-07
8.82341e-08
-3.1231e-08
-3.97573e-07
6.74834e-08
-2.68195e-07
-1.96667e-07
9.98927e-08
-5.02983e-07
-1.07168e-07
9.65967e-08
-6.12859e-07
-1.68846e-07
2.32906e-08
-6.17244e-07
-2.50355e-07
-4.13333e-08
-5.33092e-07
-3.31758e-07
-9.37733e-08
-4.14548e-07
-3.7031e-07
-1.09238e-07
-2.81432e-07
-4.03689e-07
-1.10816e-07
-1.54385e-07
-4.25331e-07
-9.7874e-08
-4.01396e-08
-4.45235e-07
-8.00947e-08
5.42711e-08
-4.60672e-07
-5.77404e-08
1.26071e-07
-4.70894e-07
-3.47787e-08
1.72616e-07
-4.73645e-07
-1.21983e-08
1.95407e-07
-4.71801e-07
5.56132e-09
2.02089e-07
-4.66739e-07
1.38149e-08
1.98267e-07
-4.56674e-07
1.63065e-08
1.8835e-07
-4.41175e-07
1.41233e-08
1.76231e-07
-4.21957e-07
8.21471e-09
1.65495e-07
-4.01885e-07
-6.99751e-10
1.6161e-07
-3.84666e-07
-1.51596e-08
1.66393e-07
-3.68827e-07
-2.99725e-08
1.7823e-07
-3.51883e-07
-4.33384e-08
1.94819e-07
-3.34266e-07
-5.4771e-08
2.14589e-07
-3.18432e-07
-6.38411e-08
2.35764e-07
-3.05321e-07
-7.00024e-08
2.56758e-07
-2.95863e-07
-7.34576e-08
2.7761e-07
-2.92673e-07
-7.45469e-08
2.98565e-07
-2.96194e-07
-7.27323e-08
3.13337e-07
-2.99162e-07
-6.51055e-08
3.01747e-07
-2.86265e-07
-4.57539e-08
2.33707e-07
-2.53584e-07
-7.78023e-09
1.02562e-07
-2.2964e-07
3.75155e-08
-4.55981e-08
-2.75318e-07
8.30545e-08
-1.58187e-07
-4.45263e-07
1.13741e-07
-3.05473e-07
-6.17962e-07
1.52191e-07
-6.00944e-07
-5.93629e-07
2.23693e-07
-8.66148e-07
-3.63255e-07
2.28126e-07
-7.3978e-07
-1.38251e-07
-4.10151e-08
2.05847e-07
-3.01304e-07
-5.64861e-07
1.82039e-06
-1.24578e-06
-8.73219e-07
2.99645e-06
-2.80444e-06
-1.40694e-07
2.6258e-06
-2.63491e-06
1.10808e-06
1.56266e-06
-1.69451e-06
1.98367e-06
3.10303e-06
-3.74331e-06
1.29344e-06
8.95709e-06
-1.44183e-05
2.1237e-06
1.34552e-05
-1.94643e-05
4.02341e-06
1.61336e-05
-1.9163e-05
4.44067e-06
2.06318e-05
-2.45335e-05
4.82244e-06
2.11669e-05
-9.6311e-06
3.82167e-06
2.54755e-05
-2.33554e-05
3.16786e-06
1.72299e-05
2.29637e-05
1.36313e-05
3.0892e-05
-5.55553e-06
4.11153e-06
4.99931e-07
-2.42065e-05
3.97356e-07
-2.52089e-07
-8.85987e-06
7.85384e-07
9.3246e-06
-3.97664e-06
-5.76442e-06
8.31161e-06
2.49671e-06
-5.56509e-06
9.36919e-06
3.45182e-06
-6.00971e-06
8.02699e-06
4.33207e-06
-3.68916e-06
3.80629e-06
4.58591e-06
-1.0114e-06
6.77703e-08
5.86113e-07
1.61365e-06
-8.6236e-07
-5.72696e-06
3.52889e-06
9.58803e-07
-9.89803e-06
3.29045e-06
4.25154e-06
-1.04739e-05
2.10826e-06
8.07554e-06
-8.80439e-06
5.96119e-07
1.11232e-05
-4.44217e-06
-1.08192e-06
1.30434e-05
-3.63366e-07
-2.47255e-06
1.46038e-05
1.72991e-06
-3.5159e-06
1.61752e-05
3.10084e-06
-4.12314e-06
1.64092e-05
4.47534e-06
-2.72167e-06
1.37451e-05
5.03893e-06
-6.56322e-07
1.001e-05
5.13044e-06
9.67908e-07
4.3154e-06
5.80737e-06
3.00628e-06
-1.60416e-06
-4.00482e-07
5.89313e-06
-3.74864e-06
-5.68563e-06
5.65698e-06
-4.99361e-06
-7.57762e-06
6.14592e-06
-5.60219e-06
-8.55925e-06
6.61827e-06
-4.62066e-06
-9.41787e-06
6.89966e-06
-2.81059e-06
-1.10835e-05
6.09474e-06
-1.10935e-06
-1.20922e-05
5.46474e-06
9.08617e-07
-1.13068e-05
5.19906e-06
1.82583e-06
-9.95939e-06
5.57559e-06
1.95484e-06
-9.49968e-06
5.30817e-06
1.78898e-06
-8.36147e-06
3.88165e-06
1.40407e-06
-7.77629e-06
3.49573e-06
-1.28329e-07
-6.52356e-06
5.05913e-06
-2.08709e-06
-2.7837e-06
4.30614e-06
-2.21124e-06
-1.57825e-06
1.39603e-06
-1.80423e-07
-1.78971e-06
-2.37622e-06
-3.71391e-06
-4.53751e-07
-1.23692e-06
-4.24126e-06
-6.75256e-07
-8.19439e-07
-2.91772e-06
2.08493e-07
-2.24446e-07
-2.53429e-06
6.56069e-08
1.28899e-07
-1.2779e-06
-8.96494e-10
1.49359e-07
-8.16329e-07
-8.54723e-09
5.65591e-08
-4.43494e-07
-1.50932e-07
-5.78962e-08
-3.38561e-07
-1.67968e-07
-1.68616e-07
-1.00557e-07
-1.82087e-07
-2.85299e-07
6.82555e-08
-1.46134e-07
-4.18593e-07
1.4794e-07
-1.20887e-07
-5.01982e-07
7.1084e-08
-1.56312e-07
-5.32947e-07
-1.03706e-08
-2.08764e-07
-5.07911e-07
-1.00904e-07
-2.55795e-07
-4.47699e-07
-1.51946e-07
-2.78468e-07
-3.64073e-07
-1.93551e-07
-2.93718e-07
-2.75236e-07
-2.17931e-07
-2.96178e-07
-1.88824e-07
-2.37589e-07
-2.94036e-07
-1.11514e-07
-2.50221e-07
-2.87728e-07
-4.47476e-08
-2.57318e-07
-2.8032e-07
1.08375e-08
-2.56533e-07
-2.72663e-07
5.48178e-08
-2.48659e-07
-2.67086e-07
8.66926e-08
-2.35572e-07
-2.62987e-07
1.08369e-07
-2.18322e-07
-2.5997e-07
1.22606e-07
-1.97211e-07
-2.58125e-07
1.31762e-07
-1.73782e-07
-2.5725e-07
1.38117e-07
-1.50451e-07
-2.57688e-07
1.42879e-07
-1.29478e-07
-2.59836e-07
1.48095e-07
-1.10784e-07
-2.63115e-07
1.54811e-07
-9.15212e-08
-2.6692e-07
1.6237e-07
-7.18341e-08
-2.69803e-07
1.69588e-07
-5.43803e-08
-2.71069e-07
1.74355e-07
-3.95234e-08
-2.70326e-07
1.73704e-07
-2.79775e-08
-2.6698e-07
1.64679e-07
-2.20505e-08
-2.61304e-07
1.45603e-07
-2.25505e-08
-2.5425e-07
1.12798e-07
-2.09582e-08
-2.4503e-07
5.87219e-08
-1.35179e-10
-2.31664e-07
-2.66582e-08
4.32557e-08
-2.11023e-07
-1.19692e-07
5.347e-08
-1.89403e-07
-1.45742e-07
-6.89187e-08
-1.78368e-07
-1.27446e-07
-2.91564e-07
-1.67395e-07
-2.36826e-07
-3.92292e-07
-1.06885e-07
-4.19127e-07
-3.22012e-07
-6.98055e-08
-3.44487e-07
-2.46815e-07
-1.58451e-07
3.17005e-07
-2.25429e-07
-5.33825e-07
1.78132e-06
-6.11776e-07
-1.10496e-06
3.59754e-06
-1.73348e-06
-1.26902e-06
4.39646e-06
-3.03295e-06
-4.66714e-07
4.10749e-06
-2.79835e-06
5.4525e-07
4.88005e-06
-3.40882e-06
1.07277e-06
8.29055e-06
-7.75991e-06
6.57399e-07
1.06425e-05
-1.85254e-05
1.96387e-06
9.42818e-06
-2.2705e-05
4.37683e-06
1.10527e-05
-2.25909e-05
1.85999e-06
6.28776e-06
-2.53334e-05
4.92183e-06
1.77566e-05
-1.44373e-05
-2.00142e-06
1.73502e-05
-2.66761e-05
3.04963e-06
2.45387e-05
1.78273e-05
1.56672e-05
3.46594e-05
-3.17184e-06
5.14247e-07
-6.58612e-06
-1.92958e-05
1.77127e-06
-9.52286e-06
-8.04905e-06
1.7663e-06
-7.61896e-06
-6.79344e-06
9.10038e-07
-5.88039e-06
3.94951e-06
-3.19192e-06
-7.38306e-06
5.22368e-06
-2.68969e-07
-1.0928e-05
8.72839e-06
-8.49934e-07
-1.59752e-05
8.42766e-06
1.20854e-06
-1.81484e-05
-1.2236e-06
3.98394e-06
-1.91167e-05
-1.02594e-05
5.49992e-06
-1.99611e-05
-1.3794e-05
4.73924e-06
-1.96302e-05
-1.48536e-05
4.04804e-06
-1.78368e-05
-1.39099e-05
3.31176e-06
-1.67109e-05
-8.98449e-06
3.41626e-06
-1.48581e-05
-3.81032e-06
1.59414e-06
-1.31034e-05
-2.69748e-07
2.45032e-07
-1.37431e-05
1.63458e-06
2.10592e-06
-1.48876e-05
2.3165e-06
3.30336e-06
-1.51318e-05
1.37755e-06
3.90557e-06
-1.49841e-05
-4.12083e-07
5.39491e-06
-1.19903e-05
-3.91589e-06
6.72943e-06
-9.64572e-06
-8.10478e-06
5.35972e-06
-8.11936e-06
-1.19678e-05
4.75578e-06
-6.79002e-06
-1.34798e-05
4.5728e-06
-5.97697e-06
-1.42731e-05
4.90081e-06
-4.82086e-06
-1.54336e-05
4.85967e-06
-4.12212e-06
-1.62602e-05
4.47795e-06
-3.07703e-06
-1.67465e-05
3.60919e-06
-1.35442e-06
-1.60891e-05
3.05965e-06
-2.78211e-07
-1.36934e-05
2.65779e-06
3.87843e-07
-1.25133e-05
2.34754e-06
1.77013e-06
-9.35273e-06
-3.9102e-07
4.09796e-06
-8.32737e-06
-1.77676e-06
3.50901e-06
-7.86366e-06
1.92905e-06
-3.24116e-07
-5.12436e-06
6.17378e-06
-2.25013e-06
-2.63137e-06
2.97914e-06
-1.61887e-06
-8.11679e-07
-2.85838e-06
-3.77254e-06
-2.31467e-07
-1.76275e-06
-4.47122e-06
-8.58226e-07
-1.43451e-06
-3.30836e-06
7.00249e-08
-8.08941e-07
-3.20778e-06
5.53729e-08
-3.07856e-07
-1.91597e-06
1.45699e-07
-4.46275e-08
-1.1414e-06
7.04401e-08
-3.58688e-08
-2.93998e-07
-1.50742e-07
-1.13735e-07
-6.83521e-08
-1.87107e-07
-1.47878e-07
1.5243e-07
-2.14543e-07
-1.98545e-07
3.1184e-07
-1.90556e-07
-2.57749e-07
4.09485e-07
-2.01151e-07
-3.34966e-07
3.74587e-07
-2.25807e-07
-4.15149e-07
3.28154e-07
-2.57948e-07
-4.45324e-07
2.2619e-07
-2.96703e-07
-4.32804e-07
1.58572e-07
-3.22797e-07
-3.86522e-07
1.07056e-07
-3.46659e-07
-3.22332e-07
7.92015e-08
-3.61084e-07
-2.53892e-07
6.65777e-08
-3.72371e-07
-1.88625e-07
6.38125e-08
-3.79052e-07
-1.28726e-07
6.60182e-08
-3.82971e-07
-7.39015e-08
7.35761e-08
-3.84668e-07
-2.43271e-08
8.61057e-08
-3.84057e-07
1.88595e-08
1.02441e-07
-3.80925e-07
5.46695e-08
1.22278e-07
-3.76118e-07
8.24107e-08
1.45927e-07
-3.70594e-07
1.02252e-07
1.71856e-07
-3.65174e-07
1.15703e-07
1.96405e-07
-3.6001e-07
1.24981e-07
2.17302e-07
-3.55743e-07
1.30613e-07
2.36384e-07
-3.52501e-07
1.3218e-07
2.57037e-07
-3.49808e-07
1.28566e-07
2.79434e-07
-3.47362e-07
1.19613e-07
2.9929e-07
-3.44407e-07
1.06479e-07
3.14684e-07
-3.40781e-07
8.97693e-08
3.25428e-07
-3.36371e-07
6.81261e-08
3.30844e-07
-3.30935e-07
3.80689e-08
3.32448e-07
-3.24573e-07
-4.7969e-09
3.40014e-07
-3.17714e-07
-6.51877e-08
3.71026e-07
-3.1031e-07
-1.35324e-07
4.1292e-07
-2.99039e-07
-1.74719e-07
3.82818e-07
-2.88989e-07
-1.28993e-07
1.73293e-07
-2.85579e-07
-3.4478e-08
-1.05821e-07
-2.75208e-07
3.72482e-08
-2.06493e-07
-2.47983e-07
1.82836e-07
-1.75285e-07
-2.75066e-07
6.34539e-07
-2.14947e-07
-4.55076e-07
1.5424e-06
-2.8064e-07
-8.15512e-07
3.02116e-06
-7.51445e-07
-1.28669e-06
4.53506e-06
-1.91883e-06
-1.26071e-06
5.04099e-06
-2.78106e-06
-6.4188e-07
5.07737e-06
-2.60767e-06
-1.36181e-07
6.85067e-06
-5.19729e-06
1.82144e-07
1.0352e-05
-1.21444e-05
9.05143e-07
7.52974e-06
-1.9089e-05
3.55153e-06
5.63096e-07
-1.95623e-05
3.70185e-06
1.21654e-06
-2.19362e-05
-1.3485e-06
-1.03033e-05
-1.99153e-05
5.24835e-06
2.73866e-06
-2.04403e-05
-1.74321e-06
-6.09886e-06
-2.21963e-05
2.76572e-06
2.49379e-05
8.74982e-07
6.25228e-06
3.87535e-05
-2.26492e-06
-3.91733e-06
-6.7914e-06
-1.20769e-05
1.39331e-06
-1.56716e-05
-4.27124e-06
3.96462e-06
-2.0606e-05
-2.73537e-06
8.64168e-07
-2.09423e-05
3.70901e-06
5.7802e-07
-2.3627e-05
6.65241e-06
1.26457e-06
-2.51559e-05
8.78835e-06
1.48158e-06
-2.72222e-05
7.27851e-06
3.22923e-06
-2.96205e-05
-3.1025e-06
4.2697e-06
-3.22039e-05
-1.19684e-05
4.26788e-06
-3.37898e-05
-1.67255e-05
4.4922e-06
-3.45509e-05
-1.82226e-05
4.11015e-06
-3.50674e-05
-1.81514e-05
4.74434e-06
-3.49697e-05
-1.53434e-05
6.25305e-06
-3.42824e-05
-1.23615e-05
7.86016e-06
-3.33789e-05
-1.03811e-05
9.20601e-06
-3.24894e-05
-9.11553e-06
9.85967e-06
-3.03484e-05
-8.69861e-06
8.87372e-06
-2.72517e-05
-9.35791e-06
7.63861e-06
-2.36273e-05
-1.05694e-05
6.5328e-06
-1.97342e-05
-1.27863e-05
4.97734e-06
-1.57003e-05
-1.47445e-05
2.60578e-06
-1.24109e-05
-1.57247e-05
4.67511e-07
-8.9319e-06
-1.61124e-05
-8.46378e-07
-6.53127e-06
-1.55905e-05
-1.08323e-06
-4.27947e-06
-1.62884e-05
-1.39702e-06
-2.57481e-06
-1.64232e-05
-1.54165e-06
-1.24383e-06
-1.66026e-05
-1.47488e-06
-2.46071e-07
-1.58826e-05
-1.20422e-06
1.2343e-06
-1.3638e-05
-1.53575e-06
2.22104e-06
-1.10165e-05
-2.4835e-06
4.60483e-06
-7.16714e-06
-4.56937e-06
7.52134e-06
-5.67815e-06
-5.56574e-06
8.72145e-06
-4.97667e-06
-4.0871e-06
6.94607e-06
-4.51399e-06
1.165e-06
2.03797e-06
-2.9054e-06
5.18212e-06
-1.67819e-06
2.09729e-06
-3.3167e-06
-3.68028e-06
9.69001e-09
-2.26031e-06
-4.61557e-06
-9.06127e-07
-1.96202e-06
-3.55124e-06
-4.82017e-08
-1.28537e-06
-3.75382e-06
-1.23455e-07
-7.58262e-07
-2.73605e-06
3.01206e-07
-2.39741e-07
-1.87354e-06
2.23107e-07
-6.01768e-08
-3.48392e-07
-1.15739e-07
-1.21029e-07
1.59374e-07
-1.60913e-07
-9.83287e-08
3.46214e-07
-2.1223e-07
-1.00903e-07
5.19555e-07
-2.02485e-07
-1.14509e-07
6.41358e-07
-2.16711e-07
-1.89609e-07
6.67568e-07
-2.17221e-07
-3.03206e-07
6.68212e-07
-2.26071e-07
-3.78257e-07
5.53632e-07
-2.52284e-07
-3.9689e-07
4.53592e-07
-2.76282e-07
-3.71666e-07
3.8391e-07
-3.02029e-07
-3.233e-07
3.52765e-07
-3.21882e-07
-2.6911e-07
3.5194e-07
-3.39539e-07
-2.15564e-07
3.6409e-07
-3.53788e-07
-1.64113e-07
3.79855e-07
-3.65272e-07
-1.13341e-07
3.97171e-07
-3.74337e-07
-6.27302e-08
4.16315e-07
-3.80813e-07
-1.48251e-08
4.38182e-07
-3.83625e-07
2.83299e-08
4.61875e-07
-3.82751e-07
6.5121e-08
4.87137e-07
-3.77984e-07
9.45372e-08
5.1276e-07
-3.70322e-07
1.16727e-07
5.3544e-07
-3.61201e-07
1.31841e-07
5.53957e-07
-3.51757e-07
1.38129e-07
5.72023e-07
-3.41875e-07
1.3442e-07
5.92748e-07
-3.31954e-07
1.20599e-07
6.15906e-07
-3.22551e-07
9.81312e-08
6.36275e-07
-3.14419e-07
6.9413e-08
6.51779e-07
-3.08226e-07
3.60201e-08
6.6314e-07
-3.04168e-07
-3.67148e-09
6.71806e-07
-3.01043e-07
-5.44749e-08
6.81624e-07
-2.9816e-07
-1.17447e-07
6.98558e-07
-2.95265e-07
-1.80276e-07
7.2763e-07
-2.93441e-07
-2.11747e-07
7.34651e-07
-2.89742e-07
-1.76588e-07
6.26907e-07
-2.78222e-07
-7.54457e-08
3.2787e-07
-2.5341e-07
7.19185e-08
-5.63856e-09
-2.42595e-07
2.59761e-07
-1.3515e-07
-2.48964e-07
6.23812e-07
-1.65805e-07
-3.55693e-07
1.35163e-06
-2.77358e-07
-6.38201e-07
2.45614e-06
-3.67644e-07
-9.81027e-07
3.77664e-06
-7.64958e-07
-1.25114e-06
4.80009e-06
-1.73587e-06
-1.12883e-06
5.27597e-06
-2.26153e-06
-8.77318e-07
5.45092e-06
-2.06376e-06
-6.34564e-07
6.8523e-06
-6.45783e-06
9.56233e-08
6.95058e-06
-1.4807e-05
2.61353e-06
1.77651e-07
-1.70441e-05
4.83126e-06
-3.25168e-06
-1.52725e-05
-1.08726e-06
-2.84705e-06
-2.06706e-05
-1.55988e-06
-9.09717e-06
-1.90773e-05
4.83591e-06
-1.33914e-05
-1.32413e-05
-1.72778e-06
-2.39731e-05
-1.44924e-05
1.56038e-06
2.64625e-05
-2.59372e-05
2.44856e-06
4.22355e-05
-3.99442e-06
-3.90875e-06
-5.29013e-06
-3.55476e-06
8.13903e-09
-1.81125e-05
2.39583e-06
4.60709e-06
-2.24149e-05
1.29487e-06
2.95958e-07
-2.37291e-05
4.7323e-06
3.23764e-07
-2.54665e-05
8.15796e-06
2.67814e-07
-2.62663e-05
9.46697e-06
1.73662e-07
-2.79857e-05
8.27873e-06
7.60573e-07
-3.17914e-05
-1.17914e-06
1.85274e-06
-3.62739e-05
-1.13481e-05
3.77461e-06
-3.87859e-05
-1.84456e-05
4.13277e-06
-4.03796e-05
-2.01489e-05
3.41664e-06
-4.13217e-05
-2.02528e-05
2.95948e-06
-4.16582e-05
-1.91159e-05
4.04008e-06
-4.13496e-05
-1.736e-05
4.63793e-06
-4.06474e-05
-1.57397e-05
4.61666e-06
-3.99467e-05
-1.49701e-05
5.12259e-06
-3.84243e-05
-1.4897e-05
4.65033e-06
-3.56847e-05
-1.46835e-05
2.56625e-06
-3.14397e-05
-1.46348e-05
-1.93922e-07
-2.68722e-05
-1.52023e-05
-2.16149e-06
-2.21799e-05
-1.59962e-05
-3.44705e-06
-1.74252e-05
-1.55467e-05
-4.93631e-06
-1.25188e-05
-1.47894e-05
-6.23094e-06
-7.81275e-06
-1.3085e-05
-7.21215e-06
-3.96362e-06
-1.27571e-05
-7.38063e-06
-1.09528e-06
-1.19507e-05
-7.34092e-06
6.94918e-07
-1.16355e-05
-6.75729e-06
2.79362e-06
-1.19439e-05
-6.03743e-06
4.73635e-06
-1.04687e-05
-5.11202e-06
6.18444e-06
-7.5473e-06
-4.91731e-06
9.30449e-06
-3.96926e-06
-6.31793e-06
1.22796e-05
-1.45297e-06
-7.20025e-06
1.41107e-05
-5.84239e-07
-6.22362e-06
1.26026e-05
4.12909e-08
-3.04716e-06
6.58341e-06
3.20738e-07
2.79307e-06
1.35896e-06
3.54627e-06
-3.75344e-06
-3.49375e-06
3.92838e-07
-2.77235e-06
-4.78442e-06
-8.08196e-07
-2.45492e-06
-3.70429e-06
-1.57819e-07
-1.56314e-06
-4.03285e-06
-6.05256e-07
-9.98824e-07
-3.39053e-06
9.87543e-08
-3.30879e-07
-2.71057e-06
1.77356e-07
-1.76798e-08
-6.20592e-07
-3.01971e-08
-6.65461e-08
2.89686e-07
-7.30868e-08
-7.61546e-09
4.84374e-07
-1.92498e-07
-4.77353e-10
6.95304e-07
-1.7995e-07
1.01417e-08
8.33516e-07
-2.00688e-07
-7.45457e-08
9.41493e-07
-1.88208e-07
-2.21494e-07
9.95495e-07
-1.79631e-07
-3.26219e-07
8.57209e-07
-1.98446e-07
-3.50151e-07
7.08268e-07
-2.30341e-07
-3.23533e-07
6.22134e-07
-2.64441e-07
-2.76446e-07
5.98299e-07
-2.92219e-07
-2.31936e-07
6.21019e-07
-3.13167e-07
-1.94908e-07
6.56838e-07
-3.29338e-07
-1.62449e-07
6.89712e-07
-3.41845e-07
-1.30012e-07
7.16656e-07
-3.51455e-07
-9.5078e-08
7.3965e-07
-3.57781e-07
-5.93247e-08
7.62388e-07
-3.59488e-07
-2.45294e-08
7.84812e-07
-3.57244e-07
6.11936e-09
8.08215e-07
-3.51261e-07
3.01669e-08
8.31243e-07
-3.42035e-07
4.94524e-08
8.46409e-07
-3.29783e-07
6.34991e-08
8.56252e-07
-3.15841e-07
7.03688e-08
8.66599e-07
-3.00968e-07
6.7014e-08
8.82557e-07
-2.85939e-07
5.14698e-08
9.04107e-07
-2.72159e-07
2.43546e-08
9.24462e-07
-2.60533e-07
-1.26238e-08
9.41023e-07
-2.51744e-07
-5.6897e-08
9.5351e-07
-2.45524e-07
-1.07415e-07
9.63735e-07
-2.40853e-07
-1.65402e-07
9.77321e-07
-2.37078e-07
-2.25956e-07
9.94872e-07
-2.35132e-07
-2.62648e-07
1.00216e-06
-2.37123e-07
-2.41148e-07
9.50892e-07
-2.36863e-07
-1.31376e-07
7.51486e-07
-2.32947e-07
4.65765e-08
3.75998e-07
-2.23718e-07
2.53225e-07
2.36251e-08
-2.30939e-07
5.3688e-07
-1.53797e-07
-2.54756e-07
9.73291e-07
-2.15476e-07
-3.68206e-07
1.72375e-06
-3.284e-07
-6.70742e-07
2.80107e-06
-4.00293e-07
-1.00258e-06
3.899e-06
-6.57772e-07
-1.14115e-06
4.51604e-06
-1.22429e-06
-1.03994e-06
4.82649e-06
-1.39411e-06
-1.07787e-06
5.25557e-06
-1.36061e-06
-9.89559e-07
4.8141e-06
-6.91831e-06
1.13219e-06
-1.8919e-06
-1.26421e-05
4.63505e-06
-9.78072e-06
-1.27872e-05
3.71552e-06
-1.02154e-05
-1.09857e-05
-3.92968e-06
-1.1262e-05
-1.57789e-05
-3.58666e-06
-1.30769e-05
-1.59447e-05
-1.87352e-06
-5.8818e-08
-1.16112e-05
-1.05206e-05
-5.40485e-06
-5.40741e-06
-4.53786e-06
3.25916e-05
-3.09975e-05
-5.67539e-06
3.88413e-05
-1.74986e-06
-1.1968e-06
-1.57208e-05
1.21364e-05
8.00774e-07
-2.15372e-05
4.43656e-06
2.93264e-06
-2.61724e-05
6.92011e-06
-9.33865e-07
-2.58758e-05
5.95127e-06
-1.46475e-06
-2.5516e-05
9.50786e-06
-1.68154e-06
-2.33429e-05
9.06706e-06
-1.71436e-06
-2.15474e-05
8.09387e-06
-1.5688e-06
-2.32236e-05
3.63753e-07
1.20199e-07
-3.01726e-05
-7.53808e-06
3.07591e-06
-3.84007e-05
-1.56045e-05
5.29011e-06
-4.2763e-05
-2.05826e-05
4.66733e-06
-4.4564e-05
-2.00608e-05
1.47907e-06
-4.52264e-05
-1.91153e-05
5.38748e-07
-4.4936e-05
-1.75678e-05
-2.04877e-07
-4.41267e-05
-1.60088e-05
-6.51396e-07
-4.33425e-05
-1.48078e-05
-1.0503e-06
-4.2368e-05
-1.44025e-05
-1.57091e-06
-4.02699e-05
-1.43353e-05
-2.54517e-06
-3.75675e-05
-1.41011e-05
-3.33067e-06
-3.42214e-05
-1.44162e-05
-4.21962e-06
-3.10495e-05
-1.48478e-05
-4.39877e-06
-2.71279e-05
-1.42875e-05
-5.24367e-06
-2.22139e-05
-1.29227e-05
-6.82595e-06
-1.62267e-05
-1.13074e-05
-7.79314e-06
-1.01961e-05
-1.08162e-05
-7.98959e-06
-4.27883e-06
-9.61891e-06
-8.2597e-06
-3.33975e-08
-8.00683e-06
-7.87889e-06
3.49163e-06
-7.85873e-06
-7.61295e-06
6.28647e-06
-5.51194e-06
-7.75292e-06
9.14483e-06
-2.71324e-06
-7.69278e-06
1.35887e-05
-3.04377e-07
-8.10902e-06
1.77126e-05
2.79891e-06
-8.37612e-06
1.97246e-05
5.41116e-06
-8.00777e-06
1.79357e-05
8.57995e-06
-6.7499e-06
1.21277e-05
9.64717e-06
-3.51857e-06
1.0919e-05
2.56768e-06
-4.1037e-06
-3.17005e-06
8.42684e-07
-3.28503e-06
-4.82096e-06
-7.79971e-07
-2.97616e-06
-3.67635e-06
-3.31296e-07
-1.78148e-06
-4.03189e-06
-1.18818e-06
-1.04386e-06
-3.6596e-06
-4.59333e-07
-2.50592e-07
-3.16846e-06
-3.27926e-07
1.02403e-07
-8.57809e-07
-1.05732e-07
1.75061e-09
4.40041e-07
-3.9758e-08
8.05309e-08
6.3388e-07
-2.23317e-07
6.29831e-08
9.00664e-07
-1.84688e-07
6.76079e-08
1.0364e-06
-2.05667e-07
-2.27436e-08
1.18694e-06
-1.5419e-07
-1.51311e-07
1.25933e-06
-1.34863e-07
-2.30446e-07
1.09635e-06
-1.60087e-07
-2.40453e-07
9.32481e-07
-2.14328e-07
-2.12606e-07
8.50455e-07
-2.56374e-07
-1.77369e-07
8.48268e-07
-2.85395e-07
-1.55359e-07
8.99392e-07
-3.00613e-07
-1.47065e-07
9.58002e-07
-3.09671e-07
-1.45968e-07
1.00468e-06
-3.16308e-07
-1.46565e-07
1.03815e-06
-3.2113e-07
-1.44864e-07
1.06154e-06
-3.23838e-07
-1.39431e-07
1.07948e-06
-3.2275e-07
-1.31038e-07
1.09367e-06
-3.1749e-07
-1.23635e-07
1.10838e-06
-3.07782e-07
-1.19908e-07
1.12125e-06
-2.93948e-07
-1.14435e-07
1.12217e-06
-2.81385e-07
-1.07228e-07
1.11799e-06
-2.69083e-07
-1.00525e-07
1.11649e-06
-2.56688e-07
-9.9761e-08
1.12587e-06
-2.44169e-07
-1.10041e-07
1.14689e-06
-2.32545e-07
-1.32019e-07
1.16898e-06
-2.22586e-07
-1.62772e-07
1.18663e-06
-2.14844e-07
-1.96386e-07
1.19686e-06
-2.09711e-07
-2.26229e-07
1.20087e-06
-2.07193e-07
-2.49043e-07
1.20564e-06
-2.05391e-07
-2.61729e-07
1.21092e-06
-2.0315e-07
-2.52726e-07
1.19544e-06
-2.02045e-07
-2.00467e-07
1.10026e-06
-2.01184e-07
-8.05041e-08
8.36351e-07
-2.03998e-07
9.9201e-08
4.00596e-07
-2.02576e-07
3.3505e-07
7.24093e-09
-2.15188e-07
6.85086e-07
-2.3385e-07
-2.60178e-07
1.17837e-06
-3.31558e-07
-3.58763e-07
1.88063e-06
-4.441e-07
-5.55269e-07
2.71331e-06
-4.07206e-07
-7.77809e-07
3.41569e-06
-3.65268e-07
-9.22759e-07
3.85131e-06
-5.5972e-07
-1.00606e-06
4.00495e-06
-3.3751e-07
-1.1285e-06
3.92913e-06
-1.56572e-07
-9.26343e-07
-1.46726e-06
-3.29117e-06
1.89807e-06
-1.27318e-05
-5.16867e-06
3.916e-06
-1.98116e-05
-4.04728e-06
-1.71681e-06
-2.04688e-05
-4.17989e-06
-6.27961e-06
-1.91143e-05
-8.96551e-06
-8.06142e-06
-1.6268e-05
-9.91006e-06
-9.85476e-06
9.60889e-06
-1.43795e-05
-1.78035e-05
1.06742e-05
-3.63483e-07
-1.02321e-05
2.75236e-05
-2.59821e-05
3.29201e-06
4.15235e-05
1.18948e-06
-4.53123e-07
-8.9933e-06
2.27793e-05
-1.05215e-06
-1.95403e-05
8.02648e-06
5.71552e-06
-2.27407e-05
9.88988e-06
2.83288e-07
-2.22746e-05
5.51445e-06
5.28414e-10
-2.14246e-05
9.88192e-06
-1.22325e-06
-1.61174e-05
4.80526e-06
-1.01454e-06
-1.09214e-05
4.30455e-06
-1.41054e-06
-7.83654e-06
-3.08894e-06
3.57793e-07
-9.7394e-06
-7.87201e-06
2.21943e-06
-1.85121e-05
-1.18747e-05
5.02571e-06
-3.22997e-05
-1.4343e-05
7.53315e-06
-4.04948e-05
-1.4827e-05
2.91367e-06
-4.29223e-05
-1.54457e-05
-1.2987e-06
-4.45512e-05
-1.33692e-05
-2.63572e-06
-4.46721e-05
-1.26493e-05
-3.32718e-06
-4.44498e-05
-1.17656e-05
-3.35656e-06
-4.34923e-05
-1.16417e-05
-3.81527e-06
-4.16873e-05
-1.22597e-05
-3.99168e-06
-3.86329e-05
-1.29117e-05
-4.36036e-06
-3.54496e-05
-1.34518e-05
-4.26879e-06
-3.33969e-05
-1.45347e-05
-2.47775e-06
-3.22137e-05
-1.47952e-05
-7.81731e-07
-3.13403e-05
-1.43781e-05
4.72222e-07
-2.99927e-05
-1.38064e-05
1.0352e-06
-2.75298e-05
-1.32563e-05
-1.5161e-07
-2.2506e-05
-1.25443e-05
-2.23756e-06
-1.54078e-05
-1.05617e-05
-4.67931e-06
-8.20745e-06
-8.90663e-06
-6.2779e-06
1.51402e-08
-5.60269e-06
-8.22838e-06
8.10181e-06
-1.9174e-06
-8.94161e-06
1.56894e-05
1.47696e-06
-9.40813e-06
2.11617e-05
7.16602e-06
-9.87112e-06
2.30049e-05
1.27951e-05
-9.25714e-06
2.16192e-05
1.93416e-05
-9.40307e-06
1.50871e-05
2.30419e-05
-6.8863e-06
2.58088e-05
1.91244e-07
-4.02168e-06
-2.72311e-06
1.49372e-06
-3.60686e-06
-4.48254e-06
-7.52136e-07
-3.5911e-06
-3.44131e-06
-2.45918e-07
-2.30228e-06
-3.89471e-06
-1.41838e-06
-1.27257e-06
-3.76968e-06
-9.09228e-07
-1.85855e-07
-3.37147e-06
-8.74599e-07
2.21208e-07
-1.13051e-06
-1.25068e-07
1.18412e-07
5.07138e-07
4.50573e-08
1.55834e-07
8.81957e-07
-2.78801e-07
5.94744e-08
1.19313e-06
-1.92054e-07
4.27671e-08
1.2784e-06
-2.22881e-07
5.20094e-09
1.40139e-06
-1.75895e-07
-5.92353e-09
1.46358e-06
-1.92543e-07
-7.52267e-09
1.34938e-06
-2.51477e-07
-9.15508e-09
1.25614e-06
-3.21832e-07
-2.14242e-08
1.23822e-06
-3.75393e-07
-4.67128e-08
1.28615e-06
-4.12428e-07
-8.31142e-08
1.36864e-06
-4.32694e-07
-1.26072e-07
1.4483e-06
-4.47181e-07
-1.74004e-07
1.51183e-06
-4.59039e-07
-2.17561e-07
1.55016e-06
-4.68288e-07
-2.49954e-07
1.56874e-06
-4.74665e-07
-2.72546e-07
1.58019e-06
-4.78026e-07
-2.8631e-07
1.58638e-06
-4.78895e-07
-2.92315e-07
1.59139e-06
-4.77029e-07
-2.91994e-07
1.59395e-06
-4.73108e-07
-2.89955e-07
1.58842e-06
-4.68459e-07
-2.84345e-07
1.57687e-06
-4.64681e-07
-2.75705e-07
1.56767e-06
-4.60052e-07
-2.71114e-07
1.57423e-06
-4.53196e-07
-2.78823e-07
1.59923e-06
-4.44896e-07
-2.95918e-07
1.62306e-06
-4.37231e-07
-3.16739e-07
1.63893e-06
-4.31736e-07
-3.34433e-07
1.64326e-06
-4.28944e-07
-3.40889e-07
1.63578e-06
-4.28702e-07
-3.30735e-07
1.62385e-06
-4.28578e-07
-2.98367e-07
1.60519e-06
-4.26862e-07
-2.37682e-07
1.56152e-06
-4.26936e-07
-1.42141e-07
1.43994e-06
-4.35301e-07
-5.47201e-09
1.1608e-06
-4.60772e-07
1.65286e-07
7.35307e-07
-5.04409e-07
3.61609e-07
3.69115e-07
-5.5416e-07
6.92165e-07
9.46559e-08
-6.47904e-07
1.24214e-06
-9.04518e-08
-7.69323e-07
1.90689e-06
-1.77758e-07
-8.95819e-07
2.4096e-06
6.82327e-08
-9.23393e-07
2.56833e-06
4.17735e-07
-8.59623e-07
2.82825e-06
5.4283e-07
-1.2722e-06
3.3818e-06
1.03422e-06
-1.85379e-06
3.1102e-06
1.9578e-06
-1.63458e-06
-4.11036e-06
3.40401e-06
7.66413e-07
-1.70365e-05
6.39115e-06
1.4357e-06
-2.66506e-05
1.01049e-05
-4.63603e-06
-2.97878e-05
8.85675e-06
-1.00937e-05
-2.98768e-05
4.91606e-06
-1.36642e-05
-2.10685e-05
-4.31231e-06
-1.49972e-05
-1.55672e-06
-9.2808e-06
-1.98977e-05
-4.73929e-06
7.4092e-06
-1.02809e-05
2.60596e-05
-3.0008e-05
4.5581e-06
4.88147e-05
2.65799e-07
-2.43137e-06
-7.93216e-06
3.72752e-05
-5.59995e-06
-2.14042e-05
1.05417e-05
8.99088e-06
-2.0854e-05
1.01262e-05
-7.87383e-07
-1.62604e-05
9.62744e-07
-5.61995e-08
-1.25191e-05
8.22689e-06
-2.12784e-06
-3.6171e-06
-4.6451e-06
5.58175e-07
3.20778e-06
-3.50593e-06
1.01427e-06
5.44925e-06
-7.32817e-06
2.0276e-06
3.40071e-06
-1.02997e-05
4.54448e-06
-3.06402e-06
-1.17944e-05
6.45679e-06
-1.59194e-05
-1.03981e-05
8.98078e-06
-2.94022e-05
-8.82843e-06
7.55564e-06
-3.65776e-05
-8.05031e-06
-2.10194e-07
-3.99601e-05
-6.51909e-06
-3.48097e-06
-4.19075e-05
-4.73198e-06
-6.04126e-06
-4.16159e-05
-4.88017e-06
-7.28072e-06
-3.86728e-05
-6.71415e-06
-8.01482e-06
-3.40422e-05
-9.19294e-06
-7.86916e-06
-2.83306e-05
-1.19022e-05
-6.89427e-06
-2.24711e-05
-1.41464e-05
-5.32086e-06
-1.84351e-05
-1.59662e-05
-2.69969e-06
-1.87123e-05
-1.49692e-05
4.57971e-07
-2.30228e-05
-1.30179e-05
3.02219e-06
-2.88592e-05
-1.21614e-05
4.27001e-06
-3.38927e-05
-1.26678e-05
4.54072e-06
-3.53395e-05
-1.36776e-05
2.67403e-06
-3.22324e-05
-1.25761e-05
-1.0284e-06
-2.7427e-05
-9.41255e-06
-4.34454e-06
-2.14462e-05
-5.65342e-06
-6.07853e-06
-1.39517e-05
-2.79318e-06
-6.82829e-06
-3.94058e-06
-1.25494e-06
-7.61993e-06
5.73474e-06
4.82368e-06
-7.81178e-06
9.18203e-06
1.49537e-05
-6.14936e-06
1.19992e-05
2.27741e-05
-7.10411e-06
1.0272e-05
2.76124e-05
-3.91776e-06
3.11203e-05
5.23355e-06
-3.43911e-06
-1.60595e-06
2.4729e-06
-3.75169e-06
-4.0847e-06
-8.77887e-08
-4.23601e-06
-3.16362e-06
2.11341e-07
-3.07771e-06
-3.90597e-06
-1.13864e-06
-1.86024e-06
-3.97214e-06
-1.00308e-06
-3.94586e-07
-3.70165e-06
-1.12374e-06
1.99077e-07
-1.62459e-06
-9.20676e-08
8.87507e-08
2.47339e-07
3.77284e-07
1.04817e-07
8.24413e-07
5.03116e-08
9.18011e-09
1.14785e-06
1.46098e-07
3.66313e-08
1.18087e-06
7.3194e-08
8.08835e-08