/*--------------------------------*- C++ -*----------------------------------*\
| =========                 |                                                 |
| \\      /  F ield         | OpenFOAM: The Open Source CFD Toolbox           |
|  \\    /   O peration     | Version:  2.3.0                                 |
|   \\  /    A nd           | Web:      www.OpenFOAM.org                      |
|    \\/     M anipulation  |                                                 |
\*---------------------------------------------------------------------------*/
FoamFile
{
    version     2.0;
    format      ascii;
    class       volVectorField;
    location    "61";
    object      U.airMean;
}
// * * * * * * * * * * * * * * * * * * * * * * * * * * * * * * * * * * * * * //

dimensions      [0 1 -1 0 0 0 0];

internalField   nonuniform List<vector> 
6144
(
(0.00999831 0.0201859 -0.000592792)
(0.0102849 -0.000841013 -0.00159472)
(0.00455869 -0.00233618 -0.00257751)
(0.00407045 -0.00280491 -0.00245296)
(0.00254042 -0.00244868 -0.00192469)
(0.00300148 -0.00058908 -0.00165245)
(0.00276172 -0.000736865 -0.00130238)
(0.00270859 0.000262611 -0.00104536)
(0.00231672 0.000342012 -0.000895521)
(0.00202083 0.00157563 -0.00053948)
(0.00177906 0.00250772 -0.000192823)
(0.00182024 0.00332762 0.000278063)
(0.00194437 0.00336467 0.00051345)
(0.00207843 0.00297707 0.000772079)
(0.0021434 0.002282 0.000726701)
(0.00222119 0.0016454 0.000629362)
(0.00227193 0.0010095 0.000424618)
(0.00232674 0.000537864 0.000237707)
(0.00237192 0.00015252 4.0217e-05)
(0.00240665 -8.14868e-05 -0.000119278)
(0.00242802 -0.000222608 -0.000250249)
(0.00244218 -0.000257702 -0.0003425)
(0.00244353 -0.000241373 -0.000386527)
(0.00243265 -0.000186997 -0.000385515)
(0.00240988 -0.000118804 -0.000347197)
(0.00237841 -4.66212e-05 -0.000277479)
(0.00234291 1.69058e-05 -0.000187745)
(0.00230723 6.01365e-05 -9.14679e-05)
(0.00226963 8.17121e-05 7.13544e-06)
(0.00222986 7.67096e-05 0.00010094)
(0.00218928 7.33199e-05 0.000192462)
(0.00214451 2.84642e-05 0.000288714)
(0.00209984 1.56931e-05 0.000396198)
(0.0020493 -0.000104939 0.000521881)
(0.00200547 -0.000159148 0.000670119)
(0.00195956 -0.000460932 0.000830281)
(0.00193134 -0.000627876 0.00098025)
(0.00190461 -0.00118353 0.00107363)
(0.00190381 -0.00137206 0.00106434)
(0.00191018 -0.00197766 0.000879938)
(0.00193225 -0.00176344 0.00049729)
(0.00198088 -0.00182777 -8.39373e-05)
(0.0021181 -0.000598767 -0.000656675)
(0.00250305 -0.000128623 -0.00108863)
(0.00311312 0.00108405 -0.00150922)
(0.00377879 0.000689999 -0.00205928)
(0.00419859 0.00168136 -0.00275013)
(0.00377586 0.00214874 -0.00381155)
(0.00331537 0.00765192 -0.00554622)
(0.0061932 0.0116671 -0.00748049)
(0.0168656 0.0134725 -0.0100525)
(0.0253997 -0.00567788 -0.0103577)
(0.0293487 -0.015784 -0.0107459)
(0.0281499 -0.051514 -0.00986342)
(0.0248762 -0.045498 -0.0104913)
(0.0212397 -0.088283 -0.0067681)
(0.0031594 -0.0413247 -0.0126511)
(0.00519055 -0.0953302 0.023841)
(-0.0366288 0.0122842 -0.0481462)
(0.0329864 0.113685 0.0398439)
(0.110588 0.317404 0.0338693)
(0.0466371 0.387496 -0.00847721)
(0.045608 -0.091624 -0.000871796)
(0.0507099 -0.181489 0.00431083)
(0.0425873 -0.186771 0.00510305)
(0.0354243 -0.181353 0.00507146)
(0.029362 -0.180007 0.00435687)
(0.0249437 -0.174895 0.00393034)
(0.0218666 -0.171434 0.00402441)
(0.0191966 -0.165018 0.00437579)
(0.0166969 -0.160136 0.00482759)
(0.0140924 -0.152489 0.00535151)
(0.0117062 -0.144764 0.00593591)
(0.00871854 -0.135556 0.00642349)
(0.00528508 -0.125305 0.00649985)
(0.0026891 -0.112138 0.0051651)
(0.00166586 -0.0984091 0.00288649)
(0.00100458 -0.0848352 0.00159007)
(0.000542598 -0.0716794 0.00149617)
(0.00206573 -0.0594763 0.00198994)
(0.00395989 -0.0498865 0.00225078)
(0.00459723 -0.0428787 0.00277338)
(0.00466619 -0.038141 0.0035382)
(0.00348689 -0.0346921 0.00380869)
(0.00280076 -0.0303426 0.00348754)
(0.0030388 -0.0252258 0.00299166)
(0.0034965 -0.0205465 0.00278261)
(0.00335767 -0.0156078 0.00220929)
(0.00256664 -0.0105483 0.00135624)
(0.00132529 -0.00344501 0.000807699)
(0.00123276 0.0036735 0.0012673)
(0.00153791 0.0105707 0.00208534)
(0.00105886 0.016889 0.00307267)
(0.000357796 0.0222189 0.00660276)
(0.000985022 0.0241202 0.0114364)
(0.00409612 0.0162423 0.0181826)
(0.0193969 0.0211613 0.0030305)
(0.0206581 0.00719906 0.00242152)
(0.0106248 0.00367654 -0.000778272)
(0.00995283 0.00243377 5.20026e-05)
(0.00562671 -0.000555166 0.000994744)
(0.00570328 0.000551805 0.00151892)
(0.00459734 -0.000296017 0.00210437)
(0.00437419 0.00113101 0.00218357)
(0.00359051 0.00132591 0.0021882)
(0.00310209 0.00290554 0.00224698)
(0.00287967 0.00375045 0.00241762)
(0.00320724 0.00445936 0.00292467)
(0.00357678 0.00430764 0.00320617)
(0.00397411 0.00391402 0.00341316)
(0.00411345 0.00314218 0.00341239)
(0.00425717 0.00245291 0.00338459)
(0.00429992 0.00171901 0.00329922)
(0.00435816 0.00116745 0.00323089)
(0.00439148 0.000687423 0.0031514)
(0.00441239 0.000367702 0.00309963)
(0.0044118 0.000145044 0.00305952)
(0.00440573 4.36444e-05 0.00302812)
(0.00438066 2.83557e-06 0.00302726)
(0.0043356 1.33493e-05 0.00306004)
(0.00427099 4.82916e-05 0.00311904)
(0.00419364 9.86265e-05 0.00319768)
(0.00411405 0.000150136 0.00328043)
(0.00404189 0.000189396 0.0033526)
(0.00397018 0.000210035 0.00342579)
(0.0038956 0.000204704 0.00349404)
(0.00382159 0.000195939 0.00356007)
(0.00374205 0.000135219 0.00362776)
(0.00367188 0.000102091 0.00369941)
(0.00359979 -5.59848e-05 0.00377544)
(0.00356261 -0.000130111 0.00385964)
(0.00353116 -0.000465486 0.0039443)
(0.00355097 -0.000602501 0.00402554)
(0.0035511 -0.00115373 0.00408072)
(0.00357699 -0.00123724 0.00409189)
(0.00354759 -0.00181145 0.00398172)
(0.00350952 -0.00144917 0.00369535)
(0.00350163 -0.00165846 0.0032051)
(0.00373313 -0.000611091 0.00258985)
(0.00436163 -0.000711485 0.00204459)
(0.00541905 0.000561741 0.00146273)
(0.00636787 0.000516066 0.000673672)
(0.00627157 0.00292224 -0.00044582)
(0.0055853 0.00454483 -0.00190162)
(0.00715676 0.0094094 -0.00351504)
(0.0156906 0.0076055 -0.00452854)
(0.0360604 0.00306895 -0.00584722)
(0.0496105 -0.0135959 -0.00543711)
(0.0566926 -0.0174917 -0.00361462)
(0.0529953 -0.0469877 -0.00108889)
(0.0428191 -0.0352269 0.00402591)
(0.0427123 -0.0934792 0.011557)
(0.00230186 -0.0427465 0.0109937)
(0.00189253 -0.155985 0.0446515)
(-0.090203 0.0394183 -0.0733343)
(0.0222204 0.0454407 0.0216831)
(0.123059 0.350689 0.0775223)
(0.0258848 0.427336 0.00363099)
(0.02204 -0.0712418 0.00545413)
(0.0269516 -0.0424273 0.0159635)
(0.0135662 -0.0579714 0.0173599)
(0.00544658 -0.048927 0.0152797)
(0.00207245 -0.0482139 0.012569)
(0.00139047 -0.0415144 0.0117518)
(0.0023741 -0.0380868 0.0122187)
(0.0020775 -0.0332107 0.0114944)
(0.000153002 -0.0326299 0.0123259)
(-0.00177128 -0.0324451 0.0130221)
(-0.00289812 -0.0346778 0.0132297)
(-0.00513987 -0.0365144 0.0125957)
(-0.00818636 -0.0381377 0.0113074)
(-0.00955809 -0.036612 0.00980239)
(-0.00940975 -0.0346128 0.00823897)
(-0.00923112 -0.0311612 0.00708092)
(-0.00836251 -0.0274132 0.00634106)
(-0.00588091 -0.0240319 0.00600869)
(-0.00297478 -0.0209674 0.00584538)
(-0.00136865 -0.0186351 0.00626819)
(-0.00028197 -0.0183392 0.00713584)
(-0.000647262 -0.0198992 0.0073192)
(-0.0013075 -0.0205154 0.00649171)
(-0.000635479 -0.0205439 0.00560815)
(2.74535e-05 -0.0189133 0.00416977)
(-0.000407575 -0.0157845 0.00287055)
(-0.00124321 -0.0119862 0.00178843)
(-0.00240088 -0.00722461 0.00114694)
(-0.00293365 -0.00214885 0.00195251)
(-0.00300295 0.00293768 0.00254275)
(-0.00434667 0.0103772 0.00370636)
(-0.00527947 0.0151724 0.00878311)
(-0.00510295 0.0181086 0.0151518)
(-0.00201751 0.0110804 0.0229513)
(0.0226575 0.0211171 0.00415195)
(0.0247249 0.0120641 0.00404972)
(0.0149004 0.00734437 0.00116216)
(0.0135726 0.00668246 0.00215862)
(0.00695674 0.00200813 0.0029519)
(0.00598509 0.00260459 0.00315129)
(0.00359109 0.000870865 0.00377069)
(0.00316368 0.00221591 0.00368864)
(0.00216674 0.00220208 0.00361665)
(0.0019522 0.00342136 0.00367305)
(0.00181156 0.00365875 0.00374088)
(0.0024476 0.00420894 0.00403755)
(0.00290124 0.00399992 0.00423863)
(0.00340318 0.00386997 0.00440573)
(0.00359071 0.00333496 0.00440127)
(0.0037814 0.00287596 0.0043896)
(0.00381154 0.0022873 0.00434093)
(0.00386279 0.00183302 0.00431587)
(0.00385436 0.00138938 0.00429311)
(0.00383829 0.00106534 0.00429499)
(0.00378546 0.000790755 0.0043095)
(0.00371649 0.000606083 0.00434367)
(0.00363558 0.000475881 0.0043861)
(0.00354679 0.000402778 0.00443463)
(0.00344839 0.000363169 0.00448621)
(0.00334621 0.000347952 0.00453954)
(0.00324342 0.000342962 0.00459449)
(0.00314128 0.000341311 0.00465315)
(0.00304104 0.000338898 0.00471451)
(0.00293586 0.000320436 0.00477767)
(0.00283096 0.000300855 0.00484166)
(0.00272392 0.000234081 0.00490586)
(0.00263293 0.000195846 0.00497007)
(0.00254206 5.41232e-05 0.00503155)
(0.00249985 2.2146e-05 0.00509092)
(0.00246534 -0.000205546 0.00514135)
(0.00250036 -0.000171355 0.00518238)
(0.00251184 -0.000459108 0.00519777)
(0.002572 -0.000227824 0.00517753)
(0.00255703 -0.000460077 0.00508209)
(0.00262361 0.000136263 0.00487505)
(0.00272498 -0.000158581 0.00458765)
(0.00303998 0.000523352 0.00432786)
(0.00367705 -6.06456e-05 0.00410657)
(0.00463468 0.00121365 0.00359098)
(0.00555288 0.00129975 0.00300444)
(0.00576641 0.00369925 0.00213612)
(0.0066364 0.00338673 0.000801978)
(0.0114758 0.00640973 -0.000601358)
(0.0257074 0.000780032 -0.000451638)
(0.0503316 -0.0009979 -0.00126369)
(0.0669305 -0.0104002 6.17904e-05)
(0.0720755 -0.00540888 0.0030278)
(0.0677113 -0.0254412 0.00587475)
(0.0605579 -0.010644 0.0144655)
(0.0575942 -0.0769582 0.0224938)
(0.00358122 -0.0118146 0.0313885)
(0.0174501 -0.179534 0.0622823)
(-0.109254 0.0824117 -0.059796)
(0.0528108 0.0217036 -0.00410848)
(0.17009 0.370782 0.0914498)
(0.0763267 0.446103 0.0253107)
(0.0704133 -0.00193641 0.0199642)
(0.0467933 0.0574586 0.0156487)
(0.0305779 0.0229961 0.01213)
(0.0202558 0.0374359 0.0126645)
(0.0168522 0.032658 0.0139851)
(0.0130261 0.0369445 0.0116506)
(0.0121245 0.0385126 0.00938241)
(0.0120857 0.039143 0.00966999)
(0.0107229 0.0332716 0.0122083)
(0.00706909 0.026091 0.0145204)
(0.00381877 0.0168292 0.0152761)
(0.000271513 0.0109643 0.0144514)
(-0.00329676 0.00834178 0.0124184)
(-0.00505433 0.00830143 0.00979522)
(-0.00510499 0.00927623 0.00813192)
(-0.00487159 0.0101124 0.00710803)
(-0.00470986 0.00889552 0.00753848)
(-0.00295706 0.00645148 0.00802069)
(-0.000351749 0.00459965 0.00847037)
(0.00180912 0.00270635 0.00926651)
(0.00304763 -0.000211518 0.0103972)
(0.00147505 -0.00325673 0.00972142)
(5.62613e-05 -0.00581475 0.00894848)
(-9.91562e-05 -0.0077897 0.00772063)
(-4.18426e-05 -0.00814611 0.00595997)
(-0.000614294 -0.00796384 0.00403297)
(-0.00131437 -0.0069948 0.00175895)
(-0.00271669 -0.00369828 0.000605841)
(-0.00408466 -0.000306483 0.00306872)
(-0.00591971 0.0027822 0.00535476)
(-0.00758578 0.00712656 0.00649952)
(-0.00919794 0.0103567 0.0101211)
(-0.0111793 0.0143364 0.0170228)
(-0.0109045 0.0080979 0.0245183)
(0.0237882 0.0211922 0.00437212)
(0.0272791 0.0154415 0.00453642)
(0.0170445 0.00919455 0.000932043)
(0.0166426 0.00997002 0.00134333)
(0.00886518 0.00400018 0.00196445)
(0.00713778 0.00464216 0.00249607)
(0.00307159 0.00140411 0.0035698)
(0.00217722 0.00250598 0.00359472)
(0.00084001 0.00176541 0.00369033)
(0.000841649 0.00292342 0.00379467)
(0.000721517 0.0027936 0.00393954)
(0.00133456 0.00341342 0.0043321)
(0.00170249 0.00341961 0.00454621)
(0.00222893 0.00359748 0.00471406)
(0.00245289 0.00327305 0.00469547)
(0.0026668 0.00300566 0.00469983)
(0.00268794 0.00252112 0.00467294)
(0.00272409 0.00215003 0.00467809)
(0.00268685 0.00174686 0.00467337)
(0.00264809 0.00143967 0.0046827)
(0.00256754 0.00115403 0.00469438)
(0.00247457 0.000936816 0.00471825)
(0.00236436 0.000756807 0.00474846)
(0.00224814 0.000629572 0.00478517)
(0.00212897 0.000541153 0.004826)
(0.00201221 0.000487561 0.00487059)
(0.00190192 0.00045652 0.00491657)
(0.00180033 0.000437487 0.00496382)
(0.00170523 0.000422961 0.0050136)
(0.00161176 0.000400263 0.00506616)
(0.00152472 0.000382582 0.00512061)
(0.00144098 0.000333882 0.00517339)
(0.00137667 0.000323056 0.00522049)
(0.0013141 0.0002345 0.0052567)
(0.00130053 0.000270016 0.00527865)
(0.00128345 0.000149067 0.00528098)
(0.00133434 0.000316004 0.00526344)
(0.001335 0.000210895 0.0052157)
(0.00138659 0.000651922 0.0051322)
(0.00138634 0.000629104 0.00498858)
(0.00160037 0.00133607 0.00477351)
(0.0019084 0.000989885 0.00454533)
(0.00235549 0.00144644 0.00435556)
(0.00273877 0.000612847 0.00420378)
(0.00337041 0.00139951 0.00400475)
(0.00417626 0.000862413 0.00392949)
(0.00510921 0.00255424 0.00365859)
(0.00713093 0.00036511 0.00263406)
(0.0143809 0.00153091 0.00164523)
(0.0294927 -0.00501508 0.00171809)
(0.0535929 -0.00172121 0.00184519)
(0.069827 0.000114197 0.00445221)
(0.0768294 0.0139492 0.00815736)
(0.0743562 0.00508997 0.011448)
(0.0676779 0.0274303 0.0234612)
(0.063363 -0.0335068 0.0382034)
(0.020149 0.0556649 0.0707678)
(0.0361402 -0.191738 0.0987237)
(-0.143579 0.204849 -0.0412207)
(0.0569041 -0.0433879 0.0216404)
(0.153269 0.453735 0.0903171)
(0.0521466 0.573598 0.0162067)
(0.0368926 0.385579 0.0148093)
(0.0127399 0.426969 0.00268703)
(0.00836519 0.381274 0.0080899)
(0.000684134 0.364663 0.00844826)
(0.000501132 0.341731 0.00950258)
(0.000334748 0.323045 0.00901047)
(0.00187146 0.30147 0.0083153)
(0.00238363 0.281802 0.00833021)
(0.00200301 0.254715 0.00923764)
(0.000173898 0.230679 0.00911281)
(-0.00250717 0.20501 0.00891432)
(-0.00498165 0.179073 0.00820469)
(-0.00630019 0.154453 0.0069138)
(-0.00684025 0.138785 0.00629557)
(-0.00655438 0.125555 0.00635097)
(-0.00570218 0.112885 0.00640232)
(-0.0047319 0.0964756 0.00791237)
(-0.00333514 0.0812517 0.00932354)
(-0.0018813 0.0703659 0.0111639)
(-0.00161952 0.0612118 0.0110297)
(-0.00165538 0.0504476 0.011499)
(-0.00241766 0.0356358 0.0108519)
(-0.0039946 0.0285888 0.0101719)
(-0.00470168 0.0234337 0.00926256)
(-0.00445083 0.0192065 0.00630857)
(-0.0040815 0.0164522 0.00438851)
(-0.0055099 0.0130093 0.00239963)
(-0.00705535 0.0117138 0.00115555)
(-0.00874527 0.0107005 0.00465373)
(-0.0109725 0.00954975 0.00740397)
(-0.0131572 0.00999647 0.00880988)
(-0.0160189 0.0098533 0.0116679)
(-0.0203287 0.0129537 0.0178472)
(-0.0219958 0.0069296 0.0252963)
(0.023798 0.021355 0.00446717)
(0.0290678 0.0185771 0.00513841)
(0.018736 0.0106253 0.000877166)
(0.0198623 0.0123908 0.000920449)
(0.0113384 0.00500384 0.000168761)
(0.00916735 0.00628898 0.000778269)
(0.00346458 0.00160943 0.00224974)
(0.00185889 0.00295803 0.00277274)
(-0.000344757 0.00101574 0.00313675)
(-0.000544604 0.00207944 0.00348669)
(-0.000936185 0.00166002 0.00372227)
(-0.000598294 0.00251052 0.00426005)
(-0.000416602 0.00274601 0.00447655)
(0.000151952 0.00322422 0.00467176)
(0.000420068 0.00307395 0.00462688)
(0.000637841 0.00292246 0.00465122)
(0.000608673 0.00250328 0.00464118)
(0.000555108 0.0022045 0.00467224)
(0.00043186 0.00185651 0.00467366)
(0.000328772 0.00159118 0.00467414)
(0.000204033 0.00131866 0.00466039)
(8.58772e-05 0.00109174 0.00465235)
(-3.5227e-05 0.000887512 0.00464843)
(-0.000155963 0.000729807 0.00465248)
(-0.000278652 0.000607896 0.00466203)
(-0.000393747 0.000522079 0.0046774)
(-0.000495566 0.000462489 0.00469762)
(-0.000582182 0.000420176 0.00472131)
(-0.000659196 0.00039072 0.00474574)
(-0.000735095 0.000367024 0.00477116)
(-0.000808199 0.000359277 0.00479658)
(-0.00087971 0.000338357 0.00481805)
(-0.000933646 0.000366608 0.00483206)
(-0.000986085 0.000346891 0.00483054)
(-0.000988133 0.000466931 0.00480945)
(-0.000997568 0.000473346 0.00476102)
(-0.000945463 0.000785285 0.00468484)
(-0.000959673 0.000867848 0.00457131)
(-0.000900357 0.00148168 0.00443078)
(-0.000832219 0.00159631 0.0042703)
(-0.000408187 0.00231198 0.00413499)
(0.000101968 0.00188066 0.00403307)
(0.000727483 0.00218372 0.00389553)
(0.00124133 0.00104365 0.00372574)
(0.00197834 0.00138019 0.00378016)
(0.00266523 0.00020957 0.00400573)
(0.00399102 0.00105344 0.0044376)
(0.00732371 -0.00217825 0.00401007)
(0.0163312 -0.00304064 0.00390201)
(0.0305999 -0.00666456 0.00530041)
(0.0486258 0.00315444 0.00709506)
(0.0631543 0.015051 0.0116995)
(0.0696155 0.0398917 0.0145024)
(0.067984 0.0445969 0.0179157)
(0.0633797 0.0750911 0.0331182)
(0.0556787 0.0311233 0.0485996)
(0.0258521 0.123519 0.0829434)
(0.0350011 -0.116783 0.104153)
(-0.113801 0.306737 -0.0122398)
(0.0445782 -0.072807 0.0272702)
(0.142449 0.502245 0.0971854)
(0.0464243 0.621007 0.0161626)
(0.0368742 0.54804 0.0166605)
(0.0123501 0.603267 0.0023521)
(0.00983272 0.593863 0.00762903)
(0.00226829 0.606014 0.00709332)
(0.00295087 0.601876 0.00827501)
(0.00133322 0.600774 0.00818534)
(0.00215658 0.595223 0.00839724)
(0.0025415 0.591319 0.00905279)
(0.00292334 0.585808 0.00981983)
(0.00221617 0.578589 0.00980725)
(0.00211272 0.569601 0.00942917)
(0.00184092 0.55819 0.00885696)
(0.00202908 0.542709 0.00854069)
(0.00195918 0.51996 0.00798435)
(0.00187101 0.500572 0.00806659)
(0.00105689 0.481428 0.00871181)
(0.000580204 0.463043 0.0107339)
(0.000233209 0.445121 0.012132)
(-0.000311485 0.425248 0.0126544)
(-0.000804854 0.394336 0.0133698)
(-0.000834546 0.352667 0.0124953)
(-0.000927032 0.30213 0.00994264)
(-0.000184918 0.254655 0.00691135)
(0.00105656 0.215572 0.00321187)
(0.00145284 0.171994 0.00188103)
(0.00100733 0.13676 0.00161724)
(-0.00133167 0.113074 0.00139083)
(-0.00368482 0.0951683 0.00400172)
(-0.00803646 0.0800721 0.00725298)
(-0.0117718 0.0603476 0.0091514)
(-0.0153413 0.0466604 0.0120548)
(-0.0204719 0.0306489 0.0141287)
(-0.027408 0.0221101 0.0175678)
(-0.0337393 0.0101595 0.0239375)
(0.0224765 0.0209706 0.00491269)
(0.0303715 0.0220706 0.00642146)
(0.0194913 0.011862 0.00184295)
(0.0220908 0.0144929 0.00229465)
(0.0141342 0.00470565 -0.000270053)
(0.0116954 0.00694081 -0.000385561)
(0.00451723 0.000922452 0.000756277)
(0.00201184 0.00326046 0.00155839)
(-0.00059366 0.000378964 0.00222791)
(-0.00151943 0.00138609 0.002832)
(-0.00217053 0.000438128 0.00311768)
(-0.00203111 0.00149981 0.00381322)
(-0.00180621 0.00196291 0.0041109)
(-0.00105118 0.00278363 0.00449044)
(-0.000565729 0.00269499 0.00459828)
(-0.000263673 0.00260639 0.0047572)
(-0.000306741 0.00220686 0.00480295)
(-0.000429138 0.00198571 0.00485262)
(-0.000612066 0.00173458 0.0048354)
(-0.000754774 0.00158091 0.00479949)
(-0.000904757 0.00140435 0.00472841)
(-0.00104048 0.00125289 0.0046496)
(-0.00118221 0.00109749 0.00456908)
(-0.0013138 0.000965456 0.00449729)
(-0.00142997 0.000855253 0.00443462)
(-0.00152617 0.000775544 0.00438101)
(-0.00160087 0.000716931 0.00433616)
(-0.0016586 0.000672596 0.00430082)
(-0.00171063 0.000639398 0.00427497)
(-0.00175948 0.000615998 0.00426091)
(-0.00180367 0.000617866 0.0042564)
(-0.00184348 0.000627251 0.00425295)
(-0.00186943 0.0007007 0.00424297)
(-0.00189913 0.000757287 0.0042124)
(-0.00189725 0.000962505 0.00415411)
(-0.00192229 0.00108111 0.00405914)
(-0.00190553 0.00148255 0.00393143)
(-0.00195361 0.00164401 0.0037737)
(-0.00189467 0.00223119 0.00362239)
(-0.00174247 0.00224638 0.00353783)
(-0.0011807 0.00280043 0.00359571)
(-0.000542073 0.00232832 0.00373731)
(0.000208467 0.00258818 0.00376446)
(0.000769446 0.00137863 0.00374183)
(0.00145564 0.0016035 0.00408254)
(0.00196298 0.000121512 0.00456091)
(0.00367958 -0.000240034 0.0048615)
(0.00849663 -0.00385334 0.00450323)
(0.0157628 -0.00500336 0.00552324)
(0.0250118 -0.00590944 0.00992232)
(0.0355911 0.00753485 0.0144121)
(0.0436606 0.0277847 0.0194106)
(0.0520408 0.059987 0.0239499)
(0.0542333 0.0739744 0.0309603)
(0.0537736 0.1041 0.0471274)
(0.0501508 0.0664261 0.0567921)
(0.0374847 0.146281 0.0782184)
(0.0544043 -0.0892817 0.0827374)
(-0.0351898 0.351701 0.0179601)
(0.0344362 -0.0791862 0.0325139)
(0.0932597 0.540104 0.0945616)
(0.0193696 0.640554 0.0110739)
(0.0142173 0.598781 0.0148089)
(-0.00462933 0.652886 0.00409098)
(-0.00339804 0.651486 0.0111441)
(-0.00628741 0.665453 0.01107)
(-0.00275842 0.665961 0.0130381)
(-0.00112932 0.67044 0.0133088)
(0.0016767 0.669972 0.0140899)
(0.00365461 0.670017 0.0140842)
(0.00552718 0.665407 0.0134573)
(0.00629158 0.662777 0.0127411)
(0.00724211 0.660942 0.0119108)
(0.00718777 0.659789 0.0115602)
(0.00650133 0.657248 0.0117672)
(0.00533969 0.655385 0.0121096)
(0.00427451 0.652172 0.0129021)
(0.00285068 0.64704 0.0140511)
(0.0012707 0.639565 0.0146992)
(0.000266578 0.628501 0.0148281)
(-0.000484286 0.616146 0.0142249)
(-0.000610279 0.601232 0.0124457)
(0.00038179 0.585276 0.00955749)
(0.00126168 0.566103 0.00580631)
(0.00134849 0.546161 0.00211981)
(0.00114329 0.521763 -0.000456642)
(0.000130341 0.480911 -0.000454776)
(-0.000978861 0.41932 0.00141994)
(-0.00377965 0.363109 0.00459099)
(-0.0072314 0.310022 0.00756894)
(-0.0116582 0.258093 0.00861676)
(-0.0164606 0.206484 0.0103132)
(-0.0211708 0.175424 0.0136068)
(-0.0270691 0.137758 0.0158149)
(-0.0342981 0.0960342 0.019024)
(-0.0404221 0.0671951 0.0217463)
(0.019146 0.0194369 0.00511144)
(0.0304956 0.025874 0.00854054)
(0.0185515 0.0126069 0.0038655)
(0.0221082 0.0167263 0.00503342)
(0.0151039 0.00385516 0.00149521)
(0.0129523 0.0066489 0.000610525)
(0.00483049 -0.000505415 0.000631874)
(0.00188639 0.00314846 0.00101704)
(-0.00112472 -2.36927e-05 0.00161857)
(-0.00249762 0.00127841 0.00241024)
(-0.00382599 -0.000172731 0.00260225)
(-0.00452128 0.00092926 0.00336609)
(-0.00469008 0.00128992 0.00378652)
(-0.00370787 0.00218354 0.00455476)
(-0.00307922 0.00205487 0.00497633)
(-0.00278859 0.00207947 0.00533197)
(-0.00297292 0.0017619 0.00543257)
(-0.00329796 0.00167193 0.00545848)
(-0.00364475 0.00154754 0.00537947)
(-0.00387856 0.00153809 0.00527686)
(-0.00405961 0.00150097 0.00513281)
(-0.00418258 0.00148614 0.0049834)
(-0.00428292 0.00144646 0.00483486)
(-0.00436716 0.0014056 0.0047045)
(-0.00445172 0.00136519 0.00459975)
(-0.00451059 0.00133805 0.00451379)
(-0.00453592 0.00131272 0.00444382)
(-0.00453398 0.00128572 0.00439885)
(-0.00452276 0.00125802 0.00437802)
(-0.00451986 0.00123666 0.0043783)
(-0.00453033 0.00124648 0.00439349)
(-0.00454786 0.00128157 0.0044092)
(-0.00456619 0.00139395 0.00441326)
(-0.00459142 0.00150934 0.00438976)
(-0.00458097 0.00175866 0.00433598)
(-0.00458139 0.00190879 0.00424647)
(-0.00451924 0.00227331 0.00413283)
(-0.00448796 0.00233091 0.0040001)
(-0.00432186 0.00269257 0.00389263)
(-0.00408951 0.00242673 0.00386138)
(-0.00355199 0.0027122 0.00396556)
(-0.00299374 0.00214909 0.00410914)
(-0.00216208 0.00253678 0.0041562)
(-0.0014875 0.00157766 0.00428167)
(-0.00080279 0.00177577 0.00466868)
(0.000104052 9.00357e-05 0.00502366)
(0.00300402 -0.000791613 0.00497483)
(0.00788234 -0.00348561 0.00478507)
(0.0135399 -0.00321211 0.00639491)
(0.0162091 0.000164229 0.0131143)
(0.01452 0.017847 0.021397)
(0.0181501 0.0400579 0.0262974)
(0.0251358 0.0753721 0.0317798)
(0.0303408 0.0969057 0.0400743)
(0.0388054 0.12395 0.0528123)
(0.0457172 0.0904291 0.0594644)
(0.0529353 0.162976 0.0720485)
(0.0498881 -0.0706832 0.0637919)
(0.0122277 0.348926 0.0471395)
(0.0124329 -0.0656078 0.0335394)
(0.0366666 0.570391 0.0828273)
(-0.0031044 0.659203 0.0100836)
(-0.0037165 0.636244 0.0131578)
(-0.0131427 0.684977 0.00584886)
(-0.00810607 0.682611 0.0137937)
(-0.00682605 0.695031 0.0127979)
(-0.00281784 0.694594 0.0145164)
(-0.000350055 0.699152 0.0147516)
(0.00275649 0.699573 0.0156964)
(0.00551642 0.699592 0.0157417)
(0.00778746 0.698601 0.0152254)
(0.00876452 0.697042 0.0148615)
(0.0094317 0.697201 0.0148079)
(0.00916551 0.696547 0.0148745)
(0.00877007 0.695239 0.0154794)
(0.00783843 0.690865 0.0160339)
(0.0070547 0.684342 0.0165814)
(0.00620236 0.676535 0.0168679)
(0.00585606 0.669534 0.0168157)
(0.00555165 0.661095 0.0166764)
(0.00587308 0.651732 0.0150716)
(0.00681425 0.643074 0.0121063)
(0.00848583 0.637541 0.00811162)
(0.00937159 0.632173 0.00330646)
(0.00942081 0.623249 -0.000632088)
(0.00803875 0.610733 -0.00329313)
(0.00542053 0.598824 -0.0025337)
(0.00246298 0.582489 6.31896e-07)
(-0.00138899 0.551994 0.00214459)
(-0.0066002 0.519095 0.00347298)
(-0.0136375 0.489083 0.00426509)
(-0.0216817 0.459365 0.00648069)
(-0.0293274 0.423561 0.00920542)
(-0.0367556 0.371554 0.0105316)
(-0.0433764 0.308673 0.0139126)
(-0.0513007 0.27476 0.0156401)
(0.0163813 0.0141804 0.00429693)
(0.0294003 0.0289024 0.0095489)
(0.016264 0.0129342 0.00459898)
(0.0210943 0.0198858 0.00595573)
(0.0150045 0.00427238 0.00260838)
(0.0126073 0.00675873 0.00170565)
(0.00366034 -0.00179412 0.00112953)
(0.000264679 0.00281656 0.00103336)
(-0.0017939 -0.000731957 0.00208184)
(-0.00332626 0.00151796 0.00278483)
(-0.00451197 -0.000251149 0.00304601)
(-0.00524366 0.000740325 0.00389974)
(-0.0052257 0.000229022 0.00458951)
(-0.00407142 0.000821347 0.00562979)
(-0.00341235 0.000597692 0.00636888)
(-0.00314627 0.000977453 0.00699412)
(-0.00332938 0.00103194 0.00729482)
(-0.00361758 0.00132917 0.00741095)
(-0.00391988 0.00145999 0.00736275)
(-0.00411021 0.00167006 0.00725479)
(-0.00426215 0.00179639 0.00708649)
(-0.00435863 0.00190696 0.00690584)
(-0.00443159 0.0019569 0.00672709)
(-0.00448163 0.00198408 0.00656837)
(-0.00452079 0.00198117 0.00643055)
(-0.00453493 0.00196434 0.00631944)
(-0.00451783 0.00194152 0.00623765)
(-0.004475 0.00191467 0.00618346)
(-0.00442826 0.00188406 0.00615267)
(-0.0043985 0.00186281 0.006142)
(-0.00439447 0.00188144 0.00614136)
(-0.00440689 0.00193979 0.00613538)
(-0.00442963 0.00207903 0.00611302)
(-0.00445613 0.00222488 0.00606443)
(-0.00444467 0.00247044 0.00598798)
(-0.00443974 0.0025887 0.00588211)
(-0.00435096 0.00284084 0.00576667)
(-0.00425881 0.00274747 0.00565196)
(-0.00399149 0.00288788 0.00558311)
(-0.00368535 0.00245007 0.00559464)
(-0.00318828 0.00255138 0.00572588)
(-0.00278073 0.00198023 0.00589019)
(-0.00209874 0.00244433 0.00596416)
(-0.00140905 0.00157991 0.00611719)
(-0.00079256 0.00187284 0.00638107)
(0.000220774 -0.000145864 0.00621417)
(0.00264629 0.000178717 0.00518903)
(0.00588422 0.000274085 0.00529191)
(0.00776166 0.00377914 0.00755262)
(0.00259742 0.0118284 0.0172352)
(-0.00617078 0.02815 0.0281131)
(-0.0104084 0.0474473 0.0324738)
(-0.00617605 0.0792168 0.0341306)
(0.00729477 0.105237 0.0383789)
(0.0258776 0.137186 0.0501306)
(0.0532173 0.122182 0.0585548)
(0.0775177 0.183066 0.074462)
(0.0853722 -0.0147415 0.0694538)
(0.0907656 0.385738 0.0361561)
(-0.0224431 -0.0753237 0.027615)
(-0.0491871 0.604572 0.0467974)
(-0.0351467 0.689482 -0.00674262)
(-0.0318142 0.668382 0.0031595)
(-0.0242501 0.709632 0.000245093)
(-0.016883 0.70343 0.0072382)
(-0.00882353 0.712133 0.00601359)
(-0.00465135 0.709536 0.00731718)
(0.00121039 0.710567 0.00747078)
(0.00536814 0.71169 0.00903612)
(0.00923449 0.711147 0.00994427)
(0.0113394 0.711052 0.0104453)
(0.0123752 0.712024 0.0111284)
(0.0133829 0.711168 0.0122722)
(0.0141389 0.709074 0.0136696)
(0.0147159 0.705122 0.0153267)
(0.015416 0.701015 0.0170099)
(0.0166668 0.694877 0.0185708)
(0.0177222 0.686696 0.0198148)
(0.0182103 0.676588 0.0203935)
(0.0186408 0.665168 0.0200829)
(0.0189569 0.654911 0.0190211)
(0.0194687 0.641597 0.0165516)
(0.0195548 0.628805 0.0133442)
(0.0189098 0.621363 0.00924282)
(0.0171824 0.616243 0.00598829)
(0.0145825 0.608778 0.0035618)
(0.0121048 0.600731 0.00290389)
(0.00950966 0.59213 0.00325777)
(0.00616265 0.583247 0.00496969)
(0.000868253 0.571627 0.00774662)
(-0.00686973 0.553139 0.0107564)
(-0.0155425 0.529865 0.013175)
(-0.0237974 0.506555 0.0139024)
(-0.0329216 0.486043 0.0108549)
(-0.0409688 0.463064 0.00310701)
(-0.0479722 0.444456 -0.0118645)
(0.00737628 0.00846813 -0.00188152)
(0.0267262 0.0304858 0.0079668)
(0.0125221 0.0135463 0.00235142)
(0.0192341 0.0240155 0.00368241)
(0.0145054 0.00676364 0.00143338)
(0.0121764 0.00840707 0.000615291)
(0.00222985 -0.00217647 -0.0022429)
(-0.000993604 0.00302748 -0.00250677)
(-0.00418526 -0.000665798 -0.0012555)
(-0.00553478 0.00201209 -0.000422306)
(-0.00673463 -0.000157504 -5.92184e-05)
(-0.00742975 0.000595095 0.000794185)
(-0.00782579 -0.000621457 0.00151661)
(-0.00726826 -0.000137163 0.00240147)
(-0.00720739 -0.00027323 0.00313024)
(-0.00728175 0.000387628 0.00376433)
(-0.00768009 0.000654047 0.00424476)
(-0.00803421 0.00115745 0.0045508)
(-0.00838836 0.00141434 0.00468265)
(-0.0085962 0.00172641 0.00471094)
(-0.00869058 0.00192307 0.00465391)
(-0.0086858 0.00209538 0.00456622)
(-0.00865325 0.00219829 0.00447018)
(-0.00860074 0.00226457 0.00438318)
(-0.00853929 0.00229056 0.00430502)
(-0.00846243 0.00229271 0.00423904)
(-0.00836705 0.00228291 0.00418746)
(-0.00825877 0.00227229 0.00415109)
(-0.00815735 0.00226506 0.00412823)
(-0.00810233 0.00226903 0.00411597)
(-0.00810139 0.00230589 0.00410793)
(-0.00811881 0.0023756 0.00409211)
(-0.00814177 0.00250784 0.004061)
(-0.00814399 0.00263367 0.00400787)
(-0.00807156 0.00283433 0.00393089)
(-0.00796357 0.00291071 0.00383776)
(-0.00775075 0.00310778 0.00373692)
(-0.00754668 0.00298745 0.00364183)
(-0.0072567 0.0030763 0.00356484)
(-0.00702152 0.00262076 0.00353811)
(-0.00666408 0.00269424 0.00357818)
(-0.00640976 0.00208377 0.00364047)
(-0.00571293 0.00237575 0.00358201)
(-0.00496694 0.00134497 0.00363848)
(-0.00418919 0.00147197 0.00367414)
(-0.00355112 -0.000601828 0.00287399)
(-0.00199016 0.00160002 0.00206246)
(-7.78547e-05 0.00201362 0.0023757)
(-0.00176793 0.00773171 0.00498078)
(-0.0111884 0.0136205 0.0140656)
(-0.0265153 0.0231916 0.027143)
(-0.0329816 0.0311788 0.0323759)
(-0.0329708 0.0527653 0.0305891)
(-0.0203911 0.0649617 0.0261597)
(-0.000961972 0.110619 0.0348529)
(0.0377365 0.081907 0.0425552)
(0.0757275 0.181475 0.0626856)
(0.0974903 -0.0360113 0.0687732)
(0.170366 0.405812 0.0319591)
(-0.0459917 -0.0986533 0.0194624)
(-0.119567 0.574177 0.0269515)
(-0.0518754 0.674525 -0.00733628)
(-0.0466096 0.62967 0.00274564)
(-0.0233178 0.669175 0.0031744)
(-0.0173318 0.646604 0.00784124)
(-0.00530622 0.649149 0.00444136)
(-0.00420804 0.638911 0.00329804)
(0.000169147 0.637935 0.00168051)
(0.00267563 0.63656 0.00159834)
(0.00631134 0.636936 0.0011577)
(0.0079602 0.637481 0.000323082)
(0.00943488 0.639788 0.000545767)
(0.0103454 0.640034 0.00128193)
(0.0117178 0.640901 0.0024982)
(0.0132677 0.641472 0.00403335)
(0.0148044 0.640733 0.00597192)