/*--------------------------------*- C++ -*----------------------------------*\
| =========                 |                                                 |
| \\      /  F ield         | OpenFOAM: The Open Source CFD Toolbox           |
|  \\    /   O peration     | Version:  2.3.0                                 |
|   \\  /    A nd           | Web:      www.OpenFOAM.org                      |
|    \\/     M anipulation  |                                                 |
\*---------------------------------------------------------------------------*/
FoamFile
{
    version     2.0;
    format      ascii;
    class       volVectorField;
    location    "61";
    object      U.air;
}
// * * * * * * * * * * * * * * * * * * * * * * * * * * * * * * * * * * * * * //

dimensions      [0 1 -1 0 0 0 0];

internalField   nonuniform List<vector> 
6144
(
(0.0108105 0.0193369 -0.000849681)
(0.0111347 -0.00282959 -0.00233165)
(0.00462841 -0.00411124 -0.00313365)
(0.00377575 -0.00381973 -0.00282956)
(0.00220423 -0.00259024 -0.00199181)
(0.00299839 -0.000196955 -0.0014433)
(0.00323288 -0.000744172 -0.00107748)
(0.0031493 -0.000217631 -0.00110311)
(0.00246885 -0.000460771 -0.000939595)
(0.00182438 0.000865855 -0.000471095)
(0.00132074 0.00213343 8.68233e-05)
(0.00124688 0.0034721 0.000813267)
(0.00134897 0.00377596 0.00126329)
(0.00146894 0.00346893 0.00170845)
(0.00152975 0.00274367 0.00178042)
(0.00161681 0.00200524 0.00171824)
(0.00169435 0.00121523 0.00153149)
(0.00177832 0.000537842 0.00130528)
(0.00185572 -3.80585e-05 0.00106116)
(0.00192136 -0.000457111 0.00082802)
(0.00196776 -0.000722545 0.000608944)
(0.00200569 -0.000818523 0.000421399)
(0.00203085 -0.000799719 0.000293317)
(0.00203235 -0.00071281 0.000249464)
(0.00201 -0.000591494 0.000279621)
(0.00196861 -0.000462119 0.000376487)
(0.00191844 -0.000351656 0.00051891)
(0.00187356 -0.000291165 0.000668472)
(0.00182433 -0.000301988 0.000823975)
(0.00177148 -0.000368856 0.000962495)
(0.00171772 -0.00046728 0.00107793)
(0.0016684 -0.000585339 0.00117368)
(0.0016257 -0.000719458 0.00125024)
(0.0015933 -0.000867813 0.00130879)
(0.00157452 -0.00104024 0.00135004)
(0.00156871 -0.00124954 0.00136233)
(0.00156708 -0.00147943 0.00132314)
(0.00155488 -0.00165717 0.00120069)
(0.00154385 -0.00161973 0.000984357)
(0.00156868 -0.00125592 0.000542575)
(0.00165201 -0.000380839 -1.41019e-06)
(0.00209581 0.00077214 -0.000458988)
(0.00291927 0.0012461 -0.000796618)
(0.00339093 0.0010159 -0.00121688)
(0.00237944 0.00211728 -0.00152351)
(0.000313354 0.00551071 -0.00110922)
(-0.000637595 0.00828844 -0.000451815)
(0.00135573 0.00907841 -0.000645665)
(0.00760473 0.00550921 -0.00291267)
(0.00957463 -0.00347893 -0.00612166)
(0.00388394 0.0037921 -0.00970882)
(0.00143326 0.0152418 -0.01053)
(0.0137909 0.0281034 -0.0163077)
(0.0393435 -0.0275972 -0.0271891)
(0.0630076 -0.0188025 -0.0285844)
(0.0667736 -0.0991284 -0.034898)
(0.0285037 -0.0520165 -0.040808)
(0.0457573 -0.126891 -0.0189503)
(-0.0601072 -0.0198467 -0.0601866)
(0.0443098 0.124313 0.0241618)
(0.129397 0.308306 0.0456275)
(0.0550585 0.37425 0.0268081)
(0.0474339 -0.155495 0.0256902)
(0.0551594 -0.180168 0.0279124)
(0.0483983 -0.186614 0.0292751)
(0.0374341 -0.187982 0.0285576)
(0.0315528 -0.179551 0.0226143)
(0.0273841 -0.174594 0.0193721)
(0.0285054 -0.167463 0.012062)
(0.0246748 -0.16978 0.00567276)
(0.0244849 -0.177529 0.00348607)
(0.0200344 -0.191329 0.00417639)
(0.0140817 -0.19958 0.00733423)
(0.00721137 -0.208214 0.00957058)
(0.00104014 -0.208494 0.0116598)
(-0.00391725 -0.202886 0.0114741)
(-0.0137635 -0.188258 0.0105662)
(-0.0121545 -0.172653 0.00998509)
(-0.0202247 -0.141953 0.00794735)
(-0.00334609 -0.123607 0.00827429)
(0.0202532 -0.0872998 -0.00555101)
(0.0119656 -0.0674717 -0.0158395)
(0.00974202 -0.0473865 -0.0174461)
(0.00385405 -0.0311597 -0.0129124)
(-0.0118281 -0.017378 -0.00113877)
(-0.00829755 0.002675 -0.00963002)
(0.0026851 -0.000572121 -0.018056)
(2.16374e-05 -0.00598807 -0.0169082)
(-0.000863708 -0.00458502 -0.0130641)
(0.00663241 -0.00231772 -0.0122689)
(0.0136273 -0.00577934 -0.0173211)
(0.0153103 -0.00887668 -0.0172972)
(0.00817045 -0.00981705 -0.0141146)
(0.000603488 0.00417632 -0.00484952)
(-0.00113249 0.0184909 0.0159651)
(0.000438943 0.00542689 0.0215164)
(0.0203156 0.0198484 0.00323887)
(0.022007 0.00522057 0.00231698)
(0.0117699 0.00140339 -0.0020717)
(0.00988288 0.000328689 -0.000570829)
(0.00509031 -0.00302447 0.00089172)
(0.00522596 -0.00120919 0.00163453)
(0.00507894 -0.00154559 0.00232852)
(0.00483189 -0.000150566 0.0025225)
(0.00353687 -4.45015e-05 0.0026764)
(0.00223092 0.00175431 0.00266816)
(0.00163405 0.00315343 0.00281307)
(0.0018346 0.00444658 0.00349915)
(0.00224226 0.00464491 0.00397736)
(0.00268589 0.00439594 0.00427995)
(0.00286583 0.00364542 0.00435938)
(0.00302765 0.00288181 0.00435454)
(0.00312998 0.00202283 0.00429179)
(0.00322749 0.0012822 0.00421929)
(0.00330669 0.000620174 0.00414559)
(0.0033594 0.000106065 0.00408735)
(0.00337542 -0.000264639 0.00404578)
(0.00338281 -0.000465173 0.00399829)
(0.00338534 -0.000543403 0.00395503)
(0.00335287 -0.000543807 0.00396571)
(0.00328136 -0.000495562 0.00402363)
(0.00318212 -0.00042119 0.00412026)
(0.00307508 -0.000343433 0.00423777)
(0.00299854 -0.000289239 0.00431653)
(0.00292626 -0.00029204 0.00440364)
(0.00284663 -0.000344326 0.00448805)
(0.00276467 -0.000431741 0.00456221)
(0.00269136 -0.000541738 0.00462141)
(0.0026318 -0.00066673 0.00466306)
(0.00259342 -0.000793521 0.00468739)
(0.0025886 -0.000915282 0.00469849)
(0.00261413 -0.00104026 0.00470239)
(0.00263451 -0.00116092 0.0047034)
(0.00257492 -0.00120716 0.00470138)
(0.00241022 -0.0010132 0.00466709)
(0.00229522 -0.000397435 0.00433105)
(0.00241649 0.00057635 0.00380176)
(0.00325916 0.00139966 0.00334954)
(0.00457105 0.00204446 0.00277542)
(0.00479049 0.00338335 0.00193771)
(0.00272443 0.00620552 0.00125129)
(0.000753834 0.00654999 0.00166196)
(0.000304178 0.00535834 0.00277818)
(0.00535685 -0.00491521 0.00400604)
(0.0152944 -0.0131787 0.000970962)
(0.0146562 -0.0185814 -0.00408115)
(0.00661125 -0.00433524 -0.00712514)
(0.0114384 -0.00799543 -0.00373512)
(0.0676975 -0.0176599 -0.00477584)
(0.0954303 -0.081545 -0.0173826)
(0.0896351 -0.0563387 -0.0118447)
(0.123307 -0.135301 -0.00644609)
(0.0531041 -0.0577992 0.000123886)
(0.111581 -0.202448 0.0292628)
(-0.125071 0.0617197 -0.0540971)
(0.0459488 -0.0069426 -0.0208129)
(0.0834142 0.421139 0.0417248)
(-0.0223244 0.471715 0.0137943)
(-0.0369932 -0.111704 0.0158577)
(-0.0133565 -0.00627138 0.0220448)
(-0.0267894 -0.0547979 0.0300438)
(-0.0256035 -0.0497697 0.0247334)
(-0.0216313 -0.0340171 0.0148952)
(-0.0110242 0.0222862 0.010394)
(0.00659698 0.211583 0.000769835)
(0.0352452 0.0331952 -0.000372774)
(0.0409878 -0.00679276 0.00412687)
(0.0390187 -0.0235366 0.00747139)
(0.0220873 -0.0492411 0.0145416)
(0.00798209 -0.0686882 0.0176408)
(0.00423397 -0.0710609 0.0221294)
(0.00123358 -0.0813308 0.0233176)
(-0.00487523 -0.0901375 0.0126081)
(-0.00670382 -0.0830907 0.00659686)
(-0.0115308 -0.0608807 0.00814473)
(-0.0413631 -0.0449647 0.00153153)
(-0.0193751 0.0140571 -0.0165717)
(0.00914404 0.024277 -0.0297082)
(0.0188208 0.0336867 -0.028332)
(0.0237898 0.0373171 -0.0289694)
(0.0278871 0.0367578 -0.0292706)
(0.0426406 0.0267039 -0.0245847)
(0.0518749 0.019824 -0.0189839)
(0.0456506 0.00666495 -0.0158078)
(0.0419149 -0.0016923 -0.0182137)
(0.0422979 -0.00382814 -0.0193992)
(0.0426357 -0.00394389 -0.0103262)
(0.0414637 -0.00192369 -0.00889889)
(0.0256439 -0.00279924 -0.0206759)
(0.00313383 0.0145512 -0.0137621)
(0.00623547 0.0197205 0.012794)
(-0.00155851 0.0117117 0.0205002)
(0.0231837 0.0200963 0.00442993)
(0.0258171 0.0110324 0.00439661)
(0.0169272 0.00578353 0.000646653)
(0.0138528 0.00477477 0.0020187)
(0.00669591 -0.00072864 0.00339856)
(0.00497291 2.91148e-05 0.00345489)
(0.00356741 -0.000636337 0.004324)
(0.00297693 0.00110581 0.0043423)
(0.00145478 0.00106472 0.00431445)
(0.000336501 0.00228472 0.00422756)
(-0.000202411 0.00275837 0.00424669)
(0.00035682 0.0037323 0.00450856)
(0.000938175 0.00390334 0.0048163)
(0.00148973 0.00399853 0.00504563)
(0.00176908 0.00362954 0.00509696)
(0.00199928 0.00321427 0.00508146)
(0.00214189 0.00263028 0.00502692)
(0.00226725 0.00210456 0.00497757)
(0.002357 0.0015884 0.00493156)
(0.00241216 0.00115598 0.00490717)
(0.00241655 0.000781817 0.00490433)
(0.00237831 0.000481884 0.00492749)
(0.00230958 0.000254041 0.0049735)
(0.00221804 9.85725e-05 0.00502597)
(0.00210335 -3.53604e-06 0.00508331)
(0.00197384 -6.75249e-05 0.00514335)
(0.001844 -0.000109781 0.00520457)
(0.00172115 -0.000138622 0.00527599)
(0.00161177 -0.000162668 0.00535442)
(0.00149754 -0.000195793 0.00543462)
(0.00137801 -0.000236762 0.00550886)
(0.00127052 -0.000279446 0.00557085)
(0.00117932 -0.000316438 0.00561439)
(0.00110915 -0.000331181 0.00563719)
(0.00107863 -0.000302456 0.00564406)
(0.00109583 -0.000219412 0.00564612)
(0.00110645 -7.55841e-05 0.00565254)
(0.00101029 0.000155692 0.00566195)
(0.000791055 0.000539727 0.00562966)
(0.00062117 0.00114741 0.00548592)
(0.000996575 0.00163005 0.00522465)
(0.00206491 0.00150009 0.00476397)
(0.00264782 0.00150201 0.00414921)
(0.00219146 0.0029767 0.00401391)
(0.00157447 0.0038785 0.00457624)
(0.00108331 0.00190968 0.00582373)
(0.00332636 -0.00304958 0.00786424)
(0.00928523 -0.0154834 0.00845315)
(0.0176245 -0.0217275 0.00346247)
(0.0158487 -0.0238714 -0.00149305)
(0.0130531 -0.01347 -0.00217049)
(0.0318195 -0.0373626 0.00145741)
(0.0970941 -0.0413032 -0.00662277)
(0.126007 -0.0737995 -0.0149524)
(0.129583 -0.00785659 0.024947)
(0.154292 -0.127201 0.0127124)
(0.0636688 0.0984148 0.0697539)
(0.153713 -0.233932 0.0690482)
(-0.111849 0.348117 -0.0161684)
(0.0510333 -0.108368 -0.000372634)
(0.105226 0.550808 0.0263477)
(0.0467228 0.658201 0.0148199)
(0.0327117 0.545655 0.00550868)
(-0.0173881 0.597043 0.0048345)
(-0.0185059 0.567938 0.00636704)
(-0.023529 0.603167 0.0181101)
(-0.00723979 0.620962 -0.0067091)
(0.0235357 0.646593 -0.0254355)
(0.0520877 0.634179 -0.0228159)
(0.0586411 0.627585 -0.0168264)
(0.0519587 0.592308 -0.0136449)
(0.0365347 0.502502 -0.0113887)
(0.0235982 0.366216 -0.0125305)
(-0.0044437 0.113936 -0.00419185)
(-0.026113 0.0792588 -0.00391891)
(-0.0399246 0.0755157 -0.00658041)
(-0.0492088 0.0824171 -0.00731647)
(-0.0481387 0.09065 -0.0132169)
(-0.0396975 0.0870817 -0.0248041)
(-0.0149072 0.0816244 -0.0278956)
(0.0241087 0.0660436 -0.0237413)
(0.0545524 0.0564695 -0.0134668)
(0.0667351 0.0459906 -0.00763686)
(0.0726522 0.0386252 -0.00782714)
(0.0789901 0.034536 -0.00546741)
(0.083657 0.0294705 -0.00367888)
(0.0855001 0.0270233 0.0015946)
(0.0822685 0.0175834 0.00435018)
(0.0704314 0.0113929 0.00688199)
(0.0643909 0.00598811 0.0015661)
(0.0526462 0.0034849 0.0133757)
(0.0467136 -0.00831548 0.0158249)
(0.0473017 -0.0179325 -0.000272696)
(0.0260446 -0.00767903 -0.025286)
(0.0101622 0.021512 -0.00154339)
(0.0062881 0.0111332 0.0181506)
(0.0240053 0.020464 0.00449858)
(0.0276372 0.0153567 0.00471012)
(0.019657 0.00872692 0.000686766)
(0.0177988 0.00919411 0.000859647)
(0.00941114 0.00231065 0.00147771)
(0.00547918 0.00213228 0.00233476)
(0.00212064 -0.000246494 0.00421756)
(0.00130262 0.00178929 0.0043486)
(-8.56098e-05 0.00106871 0.00444139)
(-0.00106632 0.00199159 0.00435803)
(-0.00152334 0.00190047 0.00443817)
(-0.00107989 0.00258127 0.00474366)
(-0.000645754 0.00296094 0.00504785)
(-3.53809e-05 0.00341808 0.00526248)
(0.000334267 0.00336293 0.00529499)
(0.000626827 0.0032112 0.00529909)
(0.000785897 0.00281242 0.00527007)
(0.000900381 0.00241884 0.00525734)
(0.000961444 0.00199813 0.00523771)
(0.00098849 0.00162891 0.00522574)
(0.000970292 0.00128489 0.00522099)
(0.000909748 0.000975053 0.00522828)
(0.00081884 0.000700028 0.00524762)
(0.000704911 0.000468479 0.00527543)
(0.000572085 0.000283425 0.00531059)
(0.000430214 0.000147985 0.00534934)
(0.000292243 5.71198e-05 0.00539047)
(0.000175442 -3.42962e-06 0.0054353)
(7.3822e-05 -4.27298e-05 0.00548734)
(-2.81159e-05 -6.25553e-05 0.00554654)
(-0.000129164 -5.52409e-05 0.005605)
(-0.000216773 -1.61382e-05 0.00564755)
(-0.000291112 4.87584e-05 0.00566468)
(-0.000349331 0.00013363 0.00565553)
(-0.000381967 0.000238716 0.00562779)
(-0.000386394 0.000377227 0.00559903)
(-0.000405437 0.000575327 0.00558947)
(-0.000535826 0.000848458 0.00559421)
(-0.000780158 0.00123231 0.00554958)
(-0.000725925 0.00163545 0.00541317)
(0.000250251 0.0017083 0.00507285)
(0.001647 0.00117876 0.00454141)
(0.00210884 0.000753171 0.0039092)
(0.00169994 0.000459407 0.00378871)
(0.00157414 -0.000676964 0.00521807)
(0.00196451 -0.00450265 0.00757478)
(0.00446373 -0.0104605 0.0105444)
(0.0109616 -0.0209369 0.0103273)
(0.0160223 -0.0235489 0.00644368)
(0.014454 -0.0264539 0.00115724)
(0.0240551 -0.0186266 0.0022407)
(0.0519635 -0.0521501 -0.000464132)
(0.101277 -0.0425699 -0.0167925)
(0.116559 -0.0339627 0.00239887)
(0.120957 0.0420931 0.0715927)
(0.116166 -0.0571375 0.0711166)
(0.107098 0.204982 0.161834)
(0.132738 -0.176922 0.0822104)
(-0.0859917 0.55889 -0.0132466)
(0.0175275 -0.148465 0.0263886)
(0.0704388 0.57199 0.0226266)
(0.0145596 0.678686 -0.000174369)
(-0.00219237 0.612897 0.00524278)
(-0.0312683 0.667394 0.00209029)
(-0.0358239 0.664112 0.00154054)
(-0.0393054 0.671921 -0.00165772)
(-0.0118357 0.670487 -0.0199921)
(0.0323903 0.694932 -0.021024)
(0.0591896 0.704153 -0.0180997)
(0.0686697 0.714911 -0.0199548)
(0.0725569 0.712617 -0.0205755)
(0.0650184 0.709098 -0.02907)
(0.0458578 0.714746 -0.0332824)
(0.0331979 0.710938 -0.0376981)
(0.0257503 0.70873 -0.0372755)
(0.0235465 0.699992 -0.0341561)
(0.0277222 0.689 -0.0268367)
(0.0354969 0.661316 -0.0234509)
(0.0450285 0.600782 -0.0177519)
(0.0568175 0.427567 -0.013149)
(0.061653 0.138342 -0.00571937)
(0.0707242 0.250616 0.00720135)
(0.0763501 0.0827045 0.0150241)
(0.0782981 0.0421202 0.0225221)
(0.0828194 0.0336607 0.026982)
(0.0850171 0.022456 0.026526)
(0.0873688 0.0153947 0.024405)
(0.0840714 0.0105757 0.0281823)
(0.0693792 0.00641125 0.0316143)
(0.0571899 -0.00309477 0.0296587)
(0.0379156 -0.00487274 0.0351492)
(0.0337483 -0.0234863 0.0331697)
(0.027668 -0.0293589 0.025986)
(0.0224885 -0.0387107 -6.98981e-05)
(0.0135224 -0.0163112 -0.0203149)
(0.0110478 0.00718373 0.00715466)
(0.0239756 0.0209618 0.00425853)
(0.0288035 0.0194819 0.00502309)
(0.02179 0.0115493 0.00101867)
(0.0222442 0.012533 0.000639299)
(0.0141889 0.00505574 -0.000870033)
(0.00861096 0.00461092 -0.000354343)
(0.00175013 -0.000279242 0.0028761)
(-0.000286709 0.00207386 0.00347909)
(-0.00161226 0.000851841 0.00371109)
(-0.00255107 0.00157684 0.00394267)
(-0.00325315 0.00108543 0.0041788)
(-0.00324368 0.00162863 0.00461691)
(-0.00310283 0.00211467 0.00489846)
(-0.00245125 0.00285999 0.00511902)
(-0.00198699 0.00303786 0.00512166)
(-0.00165511 0.00302967 0.0051389)
(-0.00148102 0.00273519 0.00514666)
(-0.00143394 0.00243662 0.00517518)
(-0.00145118 0.00209905 0.00517772)
(-0.00149316 0.0017954 0.00516386)
(-0.00155269 0.00149445 0.00513459)
(-0.00162702 0.00119828 0.0051023)
(-0.0017128 0.000910101 0.00507759)
(-0.00181338 0.000647598 0.00506132)
(-0.00193602 0.000419468 0.00505019)
(-0.00207184 0.000232734 0.00504403)
(-0.00218992 9.10014e-05 0.00504797)
(-0.00228008 -1.19021e-05 0.00506137)
(-0.00235763 -7.02302e-05 0.00507746)
(-0.00244537 -7.46683e-05 0.00509308)
(-0.00254451 -2.28279e-05 0.00510597)
(-0.00263332 8.22134e-05 0.00510709)
(-0.00269284 0.000226793 0.00509211)
(-0.00271955 0.00039748 0.00505744)
(-0.0027157 0.000590874 0.00500594)
(-0.00269947 0.000826541 0.0049626)
(-0.00273455 0.0011347 0.00495394)
(-0.00290947 0.0014893 0.00497271)
(-0.00308888 0.00178884 0.0049624)
(-0.00279397 0.00184089 0.00484896)
(-0.00153013 0.00147007 0.00450326)
(-2.64833e-05 0.00076786 0.0040564)
(0.000533394 2.65641e-06 0.00363339)
(0.00062591 -0.00116252 0.00390788)
(0.00134567 -0.00378039 0.00576345)
(0.00196783 -0.00884361 0.0086517)
(0.00473497 -0.0151877 0.0114141)
(0.01042 -0.0222475 0.0102266)
(0.0136503 -0.0224887 0.0066962)
(0.0127487 -0.0271475 0.00506711)
(0.0309217 -0.0198065 0.0037539)
(0.0737886 -0.0458645 -0.00837361)
(0.0917661 -0.0087494 -0.0205605)
(0.0869588 0.0137468 0.063729)
(0.116634 0.0388377 0.0976256)
(0.106051 -0.0149519 0.0886263)
(0.109827 0.145572 0.167818)
(0.100765 -0.0438346 0.100353)
(0.0791208 0.512082 0.000726417)
(0.0226706 -0.11916 0.0277591)
(0.0437555 0.56403 0.0434374)
(-0.000413112 0.684227 0.00519318)
(0.000372614 0.618517 0.0155445)
(-0.0209838 0.669886 0.0095791)
(-0.0279779 0.660594 0.010148)
(-0.0276503 0.66424 0.007921)
(-0.00252934 0.674311 -0.00210031)
(0.0430916 0.692991 -0.00876204)
(0.0720107 0.710564 -0.0165934)
(0.0888844 0.730192 -0.0116991)
(0.0930335 0.737192 -0.00929542)
(0.0943275 0.729428 -0.00901767)
(0.0860177 0.732946 -0.0142116)
(0.0794323 0.737839 -0.0157121)
(0.0712014 0.728161 -0.0155527)
(0.0647978 0.725387 -0.0156327)
(0.0618421 0.720314 -0.00996507)
(0.0622394 0.706713 -0.00196745)
(0.0644107 0.689192 0.00433506)
(0.0680988 0.669289 0.0116381)
(0.0719104 0.645812 0.0200593)
(0.0707243 0.619406 0.0272145)
(0.0722888 0.58218 0.0351969)
(0.068051 0.44214 0.0434676)
(0.0672217 0.0568483 0.041634)
(0.0663393 0.0179802 0.0447052)
(0.065697 0.00864206 0.0448434)
(0.0629717 0.00182791 0.0435815)
(0.0587393 -0.00992111 0.0477157)
(0.0469031 -0.0174956 0.0437214)
(0.0338148 -0.0240491 0.0475232)
(0.0241918 -0.0403898 0.0414967)
(0.022429 -0.0493966 0.0365612)
(0.021129 -0.055267 0.021601)
(0.0119285 -0.0412818 -0.0103339)
(0.00537375 -0.0078412 -0.00575685)
(0.0231123 0.0208138 0.00392834)
(0.0300848 0.0238489 0.00614224)
(0.0231002 0.0143835 0.00240845)
(0.0247432 0.0151298 0.0022691)
(0.0195367 0.00614087 -0.000906526)
(0.0141567 0.0061897 -0.00193797)
(0.00261319 -0.000776009 0.000456486)
(-0.00150271 0.00201368 0.00161002)
(-0.00241345 0.000221563 0.00227564)
(-0.00352669 0.001101 0.00296757)
(-0.00421814 0.000326446 0.00336878)
(-0.00444835 0.000884041 0.00398437)
(-0.00450058 0.00146515 0.00426823)
(-0.00371623 0.00248734 0.00461019)
(-0.00294592 0.0027302 0.00477208)
(-0.00241084 0.00271434 0.00495181)
(-0.00217567 0.00241913 0.00508672)
(-0.00216459 0.00215045 0.0051952)
(-0.0022398 0.00190296 0.00522599)
(-0.0023325 0.00170912 0.00520061)
(-0.00242736 0.00152307 0.00512314)
(-0.00252964 0.0013292 0.00501375)
(-0.00265131 0.00112408 0.00489618)
(-0.00277799 0.000923028 0.00478175)
(-0.00289837 0.000736644 0.00467771)
(-0.00300765 0.000585717 0.00458337)
(-0.00310084 0.000468659 0.00449371)
(-0.0031754 0.00037715 0.00441379)
(-0.00325722 0.000319267 0.00434672)
(-0.00335589 0.000308322 0.004297)
(-0.00346666 0.000359373 0.00425905)
(-0.00355719 0.000476067 0.00421721)
(-0.00362547 0.000649109 0.00415158)
(-0.00368481 0.000865811 0.00404976)
(-0.00374849 0.00111104 0.00391966)
(-0.00383572 0.00139089 0.00379213)
(-0.00394017 0.00170222 0.00371337)
(-0.00402056 0.00201116 0.00372399)
(-0.00385862 0.00206609 0.00379206)
(-0.00298857 0.00175966 0.00389766)
(-0.00112515 0.000976816 0.00406108)
(0.000706417 8.43394e-06 0.00417599)
(0.00151339 -0.00113058 0.00408429)
(0.00181175 -0.00277247 0.00452388)
(0.00256702 -0.00550776 0.00647129)
(0.00332829 -0.0103877 0.009488)
(0.00492204 -0.0160895 0.0111879)
(0.00851789 -0.0201494 0.00894768)
(0.0103144 -0.0197522 0.00799487)
(0.00931502 -0.0221096 0.0068957)
(0.0346919 -0.0231356 0.00201396)
(0.0720364 -0.0176292 -0.0193716)
(0.0793928 0.0500546 0.00266393)
(0.0816164 0.0470597 0.0754426)
(0.107083 0.0710016 0.100937)
(0.103071 0.0202579 0.106336)
(0.0627516 0.157843 0.163363)
(0.064991 -0.135105 0.109034)
(0.1773 0.455229 -0.00307537)
(-0.00536901 -0.100009 0.0284234)
(-0.0236993 0.604614 0.0518476)
(-0.024931 0.682538 0.0205209)
(-0.0223034 0.635825 0.029721)
(-0.0270958 0.668974 0.0257021)
(-0.034479 0.651124 0.0263797)
(-0.0287549 0.643436 0.0250644)
(-0.00985083 0.64049 0.0204983)
(0.0312594 0.64512 0.00684516)
(0.069338 0.673129 -0.0144891)
(0.0908015 0.716871 -0.0195189)
(0.0933932 0.738406 -0.00927098)
(0.0935516 0.735317 0.00100622)
(0.0858704 0.739001 0.00410289)
(0.0810078 0.742277 0.00262281)
(0.0734899 0.733202 0.00504064)
(0.0685388 0.730064 0.00775305)
(0.0650255 0.725525 0.00862837)
(0.0624336 0.716395 0.0134837)
(0.0616927 0.704965 0.015688)
(0.0628706 0.689371 0.0165478)
(0.0623531 0.676595 0.0168767)
(0.0584338 0.660096 0.0191897)
(0.0528151 0.638769 0.0269287)
(0.0476704 0.610029 0.0354544)
(0.0453075 0.59018 0.039056)
(0.0415302 0.553531 0.0440707)
(0.0410044 0.52514 0.0461942)
(0.0388137 0.492353 0.0471443)
(0.0263194 0.323806 0.0505895)
(0.0239309 -0.0041351 0.0472245)
(0.00883056 -0.0396519 0.0538527)
(-0.00233373 -0.0571208 0.0540591)
(-0.00822584 -0.0744293 0.05106)
(-0.0140609 -0.0721859 0.0454137)
(-0.0147938 -0.0658231 0.0241769)
(-0.020992 -0.0262423 -0.00668013)
(0.0210421 0.0194482 0.00415514)
(0.0308562 0.0282625 0.00845765)
(0.0234268 0.0172414 0.00493459)
(0.0250031 0.0178599 0.0051124)
(0.0220152 0.0063331 0.00155248)
(0.0186888 0.00630919 -0.000122975)
(0.00471834 -0.00194958 -0.0012544)
(-0.00200764 0.00179602 -0.000125726)
(-0.00351108 -0.000445904 0.00100854)
(-0.00481265 0.000739392 0.00205457)
(-0.00572531 -7.9157e-05 0.002417)
(-0.006634 0.000614318 0.00317324)
(-0.00714811 0.00110418 0.00363127)
(-0.00624003 0.00199287 0.00437947)
(-0.00521166 0.00207464 0.00495456)
(-0.00467278 0.00204443 0.00541572)
(-0.00456406 0.00177892 0.00568637)
(-0.00476989 0.00161994 0.00583672)
(-0.00504203 0.0015263 0.00585528)
(-0.00526224 0.00150725 0.00579354)
(-0.00541219 0.00150613 0.00565218)
(-0.00550896 0.00150125 0.0054573)
(-0.00558233 0.00147659 0.00524287)
(-0.00564515 0.00143032 0.00502994)
(-0.00572282 0.00137749 0.00484449)
(-0.00580581 0.00134451 0.0046922)
(-0.00581904 0.00131971 0.00455482)
(-0.00579162 0.00128101 0.00445549)
(-0.00576436 0.00123548 0.0043963)
(-0.0057775 0.00120423 0.00437294)
(-0.00583313 0.00122263 0.00436865)
(-0.00589345 0.00130469 0.00434951)
(-0.0059367 0.00144179 0.0042901)
(-0.00594881 0.00161013 0.0041855)
(-0.00593595 0.00177143 0.00404353)
(-0.00593428 0.00189984 0.0038828)
(-0.00594761 0.00199085 0.00372446)
(-0.00587411 0.00202098 0.00364113)
(-0.00543871 0.00189063 0.00371914)
(-0.00419172 0.0014668 0.00404735)
(-0.0021429 0.000707977 0.00464266)
(-0.000228102 -0.000255349 0.00541952)
(0.000736074 -0.00159728 0.00562187)
(0.00108698 -0.00362961 0.00564278)
(0.00173756 -0.00629571 0.00666332)
(0.00217984 -0.0104068 0.00858093)
(0.00331164 -0.0136401 0.00869593)
(0.00461253 -0.0159374 0.00625106)
(0.0042582 -0.0160945 0.00626326)
(0.00427432 -0.0147896 0.00608133)
(0.0293545 -0.0169728 0.00387656)
(0.043144 0.0396896 -0.00161718)
(0.0403015 0.0908568 0.0393766)
(0.0320256 0.0984903 0.0808788)
(0.0521134 0.105368 0.0992778)
(0.0562444 0.0469348 0.118759)
(0.0741219 0.158709 0.198512)
(0.00461427 -0.207933 0.151993)
(0.112591 0.281391 -0.0266131)
(-0.0196229 -0.046593 0.031116)
(-0.0715636 0.562744 0.0665847)
(-0.0356574 0.675514 0.00836605)
(-0.0409942 0.612657 0.0235529)
(-0.0342371 0.647927 0.0165507)
(-0.0406909 0.621906 0.0210702)
(-0.0171514 0.606126 0.0197336)
(-0.000649273 0.590001 0.0208243)
(0.0282109 0.576085 0.0125677)
(0.0474268 0.588383 0.00462616)
(0.0685298 0.618675 -0.0189456)
(0.0843613 0.685515 -0.0236869)
(0.0834758 0.718863 0.00749759)
(0.0810794 0.718278 0.0237511)
(0.0702828 0.727604 0.0279795)
(0.0666896 0.731273 0.027828)
(0.0607466 0.722828 0.0283239)
(0.0584347 0.716765 0.0277211)
(0.0579586 0.710865 0.0281802)
(0.0561468 0.699698 0.029024)
(0.0560847 0.686519 0.0229104)
(0.0563357 0.678199 0.0113088)
(0.0547737 0.674013 0.00224754)
(0.050949 0.670189 -0.00335076)
(0.0470554 0.661307 -0.0029917)
(0.0441139 0.651927 0.00420014)
(0.0379499 0.630475 0.0186063)
(0.0309811 0.600024 0.0369319)
(0.0253832 0.573397 0.0508288)
(0.013725 0.541316 0.0576106)
(0.00414234 0.507166 0.0586727)
(-0.00717138 0.47562 0.0619686)
(-0.0257308 0.444877 0.0518621)
(-0.0422807 0.427389 0.041866)
(-0.057187 0.404586 0.035903)
(-0.0667728 0.279747 0.011893)
(-0.0650293 -0.0102329 0.0101017)
(0.0211536 0.0142269 0.0039201)
(0.0303139 0.0308131 0.0100539)
(0.0229099 0.0195736 0.00576535)
(0.0251139 0.0221779 0.00594333)
(0.0231334 0.00834467 0.00262933)
(0.0203376 0.00664401 0.00205589)
(0.00588983 -0.00308161 -0.00245299)
(-0.00337609 0.00130724 -0.00136005)
(-0.00383037 -0.00141465 0.00120663)
(-0.00561927 0.000795333 0.00211779)
(-0.00616377 -4.60317e-05 0.00246278)
(-0.00695084 0.000842968 0.00329871)
(-0.00715782 0.000549236 0.00408819)
(-0.00596233 0.00086139 0.00526377)
(-0.00486583 0.000658792 0.00621058)
(-0.00428549 0.000802747 0.00704786)
(-0.00422026 0.000836549 0.00756742)
(-0.00446278 0.00104318 0.00784265)
(-0.00473239 0.00124032 0.00792104)
(-0.0049284 0.00149004 0.00788062)
(-0.00506547 0.00173217 0.00773029)
(-0.00516264 0.00192383 0.00750185)
(-0.0052352 0.00205168 0.00724077)
(-0.00528811 0.0021317 0.00697727)
(-0.00534184 0.00216636 0.00672794)
(-0.00538494 0.00216327 0.00650643)
(-0.00538111 0.00214611 0.00632774)
(-0.00533208 0.00211695 0.00619738)
(-0.00529032 0.00206378 0.00610529)
(-0.00530732 0.00200865 0.00604671)
(-0.00539203 0.00200298 0.00600402)
(-0.00548375 0.00205777 0.00594283)
(-0.005553 0.00214268 0.00584674)
(-0.00558497 0.00223152 0.00571406)
(-0.00558638 0.00228273 0.00554355)
(-0.00558983 0.00226647 0.00534468)
(-0.00558309 0.00216432 0.00513628)
(-0.00544103 0.00195231 0.00499083)
(-0.00483593 0.0016054 0.00506626)
(-0.00332431 0.00108756 0.00555218)
(-0.000878948 0.000353389 0.00654116)
(0.00139127 -0.000400034 0.00777239)
(0.00276653 -0.00134729 0.00827757)
(0.00336579 -0.00329228 0.00827134)
(0.0039222 -0.00603327 0.00872798)
(0.00342459 -0.0086035 0.00949377)
(0.0015817 -0.00907541 0.007961)
(0.00144561 -0.00968409 0.00662052)
(-0.000260585 -0.0101804 0.00691458)
(-0.00175011 -0.0127973 0.0109496)
(0.00164504 -0.00543772 0.0156349)
(-0.000209976 0.0479023 0.0171894)
(0.00250344 0.101819 0.0582406)
(0.0219021 0.120702 0.0921411)
(0.0522587 0.133664 0.111143)
(0.0685961 0.0857 0.138546)
(0.0927827 0.13429 0.204483)
(0.034274 -0.112364 0.168105)
(0.130913 0.257739 -0.0240663)
(-0.0286927 -0.046244 0.0264524)
(-0.0999324 0.539582 0.0808079)
(-0.0357523 0.677071 -0.0146971)
(-0.0253173 0.588481 0.00916346)
(-0.00995058 0.614605 -0.00374841)
(-0.0158763 0.573379 0.00167471)
(0.0109483 0.557151 -0.00927013)
(0.0108124 0.53307 -0.0105334)
(0.0333848 0.524347 -0.00873575)
(0.0442973 0.532851 -0.0150032)
(0.0407747 0.562806 -0.0230516)
(0.0353389 0.599206 -0.0431465)
(0.0409269 0.654796 -0.0330033)
(0.050512 0.675867 0.0113464)
(0.048642 0.678977 0.0308023)
(0.0515809 0.68743 0.0374143)
(0.0540075 0.680968 0.0438947)
(0.0581894 0.673769 0.043791)
(0.0604592 0.656457 0.0420757)
(0.0641529 0.642123 0.0417951)
(0.0631769 0.624593 0.036321)
(0.0614415 0.609234 0.025472)
(0.0530366 0.608854 0.00735617)
(0.0479663 0.624119 -0.00704468)
(0.0479831 0.644512 -0.0125295)
(0.0468766 0.654555 -0.0131681)
(0.0414368 0.65553 -0.0101917)
(0.0306771 0.64738 0.00108184)
(0.0181773 0.628299 0.0185922)
(0.0012904 0.607538 0.0274269)
(-0.0187151 0.580367 0.031072)
(-0.0419934 0.55669 0.0320997)
(-0.0671847 0.51721 0.0268907)
(-0.0918215 0.506365 0.0130249)
(-0.107417 0.478465 0.0208689)
(-0.120257 0.374272 -0.0109911)
(-0.122934 0.13123 -0.00507163)
(0.0142859 0.00813412 0.000581197)
(0.0270639 0.031302 0.00956744)
(0.0207059 0.0220404 0.00357771)
(0.0244945 0.027681 0.00369202)
(0.0240479 0.012831 0.00193987)
(0.0216693 0.00928528 0.00206053)
(0.0076289 -0.00303035 -0.00544375)
(-0.00288914 0.00143624 -0.00590989)
(-0.00641102 -0.00127271 -0.00266668)
(-0.00808654 0.00126861 -0.00113045)
(-0.00838726 9.50269e-05 -0.00073527)
(-0.00877212 0.000734206 0.000209057)
(-0.00894968 -0.000254609 0.00117016)
(-0.0084145 -0.000216064 0.002271)
(-0.00807641 -0.000384961 0.00313831)
(-0.00808698 7.92109e-06 0.00393986)
(-0.00836592 0.000322443 0.00458893)
(-0.00876326 0.000766507 0.00504481)
(-0.00913905 0.0011209 0.00530503)
(-0.00943473 0.00148361 0.00542407)
(-0.00954015 0.00181048 0.00541113)
(-0.00949398 0.00208285 0.00530475)
(-0.00940912 0.00229439 0.00515109)
(-0.00929424 0.00244344 0.00498675)
(-0.00917098 0.00253269 0.00482341)
(-0.00903618 0.00256975 0.00466994)
(-0.00886593 0.00257646 0.00453848)
(-0.00866973 0.00257123 0.00444024)
(-0.0084806 0.00255447 0.00437268)
(-0.00839135 0.00252876 0.00433209)
(-0.00842328 0.00253208 0.00430397)
(-0.00844255 0.00257347 0.00425831)
(-0.00841549 0.002623 0.00418007)
(-0.00832546 0.00266551 0.00406605)
(-0.00816954 0.0026634 0.00391315)
(-0.0079867 0.00258866 0.00373414)
(-0.00776213 0.00241643 0.00354878)
(-0.00741697 0.00208969 0.00341134)
(-0.00669826 0.00156912 0.00346343)
(-0.00520946 0.000937417 0.00386596)
(-0.00305964 0.000295574 0.00472628)
(-0.00122503 -0.000105515 0.00586324)
(0.000194048 -0.000594745 0.00640126)
(0.00132613 -0.00220051 0.00649667)
(0.00189254 -0.00446786 0.00687388)
(0.000262155 -0.00595177 0.00649641)
(-0.00194146 -0.0056676 0.0042171)
(-0.00304855 -0.00605766 0.00416448)
(-0.00500511 -0.0110117 0.00583897)
(-0.00907716 -0.0170649 0.00926634)
(-0.0215201 -0.020845 0.0142109)
(-0.040265 0.0198237 0.0216513)
(-0.0588131 0.0436872 0.0386692)
(-0.0524339 0.0637421 0.048873)
(-0.0344428 0.102308 0.0770116)
(0.0484246 0.0643219 0.133271)
(0.118456 0.164326 0.196706)
(0.0513739 -0.236609 0.311558)
(0.116573 0.185687 0.0426936)
(-0.0201827 -0.0131553 0.00949067)
(-0.116061 0.467981 0.0960748)
(-0.0370436 0.657315 -0.013672)
(-0.0173731 0.53313 0.0125584)
(0.00371947 0.576973 0.0042207)
(0.00870667 0.531058 0.0242763)
(0.0435632 0.529281 0.0127673)
(0.0413278 0.496117 0.00564495)
(0.0450515 0.487658 0.000849309)
(0.0409716 0.48707 -0.010249)
(0.0336101 0.508129 -0.0137816)
(0.0216256 0.534833 -0.0245329)
(0.0168576 0.5732 -0.0304075)
(0.0162845 0.593906 -0.0206823)
(0.0200494 0.601619 -0.00381935)
(0.024164 0.605495 0.0196839)
(0.034959 0.600444 0.028221)
(0.043859 0.597764 0.0305979)
(0.0555602 0.585304 0.0310998)
(0.0644253 0.580083 0.0303163)
(0.0703559 0.571106 0.0273925)
(0.069671 0.558123 0.025082)
(0.0607838 0.549462 0.0216841)
(0.050933 0.54082 0.0152753)
(0.0428943 0.54623 0.00198457)