/*--------------------------------*- C++ -*----------------------------------*\
| =========                 |                                                 |
| \\      /  F ield         | OpenFOAM: The Open Source CFD Toolbox           |
|  \\    /   O peration     | Version:  2.3.0                                 |
|   \\  /    A nd           | Web:      www.OpenFOAM.org                      |
|    \\/     M anipulation  |                                                 |
\*---------------------------------------------------------------------------*/
FoamFile
{
    version     2.0;
    format      ascii;
    class       volVectorField;
    location    "61";
    object      U.water;
}
// * * * * * * * * * * * * * * * * * * * * * * * * * * * * * * * * * * * * * //

dimensions      [0 1 -1 0 0 0 0];

internalField   nonuniform List<vector> 
6144
(
(0.0108107 0.0189718 -0.000849605)
(0.0111348 -0.00322471 -0.00233148)
(0.0046282 -0.00453718 -0.00313352)
(0.00377532 -0.00427041 -0.0028295)
(0.00220363 -0.00307146 -0.0019918)
(0.00299771 -0.000723284 -0.00144329)
(0.00323219 -0.00132544 -0.00107746)
(0.00314863 -0.000851394 -0.0011031)
(0.00246823 -0.00113562 -0.000939621)
(0.00182382 0.000168325 -0.000471126)
(0.00132025 0.00142977 8.68109e-05)
(0.00124647 0.00276902 0.000813261)
(0.00134864 0.00307427 0.00126328)
(0.00146869 0.00276845 0.00170844)
(0.00152955 0.00204426 0.00178041)
(0.00161667 0.00130677 0.00171824)
(0.00169424 0.00051758 0.00153149)
(0.00177824 -0.000159103 0.00130529)
(0.00185566 -0.000734387 0.00106118)
(0.00192132 -0.00115291 0.000828045)
(0.00196773 -0.00141791 0.000608975)
(0.00200567 -0.00151351 0.000421437)
(0.00203084 -0.00149437 0.000293358)
(0.00203234 -0.00140716 0.000249513)
(0.00200998 -0.00128557 0.000279672)
(0.00196859 -0.00115596 0.000376546)
(0.00191841 -0.0010453 0.000518973)
(0.00187352 -0.000984634 0.000668544)
(0.00182427 -0.0009953 0.000824053)
(0.00177141 -0.00106204 0.000962587)
(0.00171761 -0.00116037 0.00107803)
(0.00166828 -0.00127838 0.00117381)
(0.00162554 -0.00141249 0.00125038)
(0.00159311 -0.00156089 0.00130896)
(0.00157427 -0.00173343 0.00135024)
(0.00156842 -0.00194291 0.00136256)
(0.00156672 -0.0021731 0.00132341)
(0.00155445 -0.0023512 0.00120102)
(0.00154332 -0.00231424 0.000984728)
(0.00156805 -0.00195099 0.000543006)
(0.00165123 -0.00107709 -9.29015e-07)
(0.00209486 6.59723e-05 -0.000458422)
(0.00291806 0.000499332 -0.000795927)
(0.0033894 0.0001704 -0.00121601)
(0.00237725 0.00109661 -0.00152235)
(0.000310207 0.00424048 -0.00110757)
(-0.000641685 0.00670523 -0.000449541)
(0.00135129 0.00713054 -0.000642449)
(0.00760261 0.00314637 -0.00290927)
(0.0095752 -0.00633618 -0.00611968)
(0.00388318 0.000366612 -0.00970777)
(0.00143615 0.0113329 -0.0105268)
(0.0137881 0.0237979 -0.0162885)
(0.0393622 -0.0321787 -0.0271309)
(0.0630444 -0.0236315 -0.0285103)
(0.0668776 -0.104112 -0.0347905)
(0.0289248 -0.0581492 -0.0406745)
(0.0457669 -0.135023 -0.0187262)
(-0.05971 -0.0409113 -0.0599145)
(0.0325 -0.0266287 0.0200943)
(0.14737 -0.293847 0.0492046)
(0.0931166 -0.105639 0.0368394)
(0.0481732 -0.177972 0.0258618)
(0.0550341 -0.186341 0.0278961)
(0.0484515 -0.192157 0.0292614)
(0.0374686 -0.193644 0.0285695)
(0.0315689 -0.185222 0.0226411)
(0.0273653 -0.180222 0.0194)
(0.0283961 -0.173041 0.0120896)
(0.024704 -0.175267 0.00569841)
(0.0245252 -0.182961 0.00349349)
(0.0200935 -0.196783 0.00416407)
(0.0141561 -0.205108 0.00731787)
(0.00727079 -0.213828 0.00956507)
(0.00108743 -0.214181 0.0116662)
(-0.0038684 -0.208634 0.0114937)
(-0.013725 -0.194052 0.0105836)
(-0.0121349 -0.178472 0.00999658)
(-0.0202294 -0.147773 0.00795152)
(-0.00341946 -0.129471 0.00828439)
(0.0201929 -0.0934227 -0.00550941)
(0.01199 -0.074191 -0.0157976)
(0.00977748 -0.0548168 -0.0174202)
(0.0038917 -0.0391066 -0.0128922)
(-0.0117996 -0.0255474 -0.00110828)
(-0.00827408 -0.00539504 -0.00959065)
(0.00270892 -0.00838352 -0.0180162)
(4.83519e-05 -0.0136125 -0.0168746)
(-0.000836436 -0.0119405 -0.0130466)
(0.00665902 -0.00928054 -0.0122529)
(0.0136504 -0.012513 -0.0173094)
(0.0153344 -0.0155314 -0.0172835)
(0.00818469 -0.0158825 -0.0141024)
(0.000602761 -0.000879462 -0.00484319)
(-0.001135 0.0138974 0.0159728)
(0.000435101 0.000821728 0.0215198)
(0.0203156 0.0195052 0.00323888)
(0.0220065 0.00483544 0.00231714)
(0.0117689 0.000971957 -0.00207161)
(0.00988147 -0.000137675 -0.000570791)
(0.00508851 -0.00352674 0.000891693)
(0.00522394 -0.00175305 0.00163449)
(0.0050769 -0.00213649 0.00232848)
(0.00482995 -0.000789149 0.00252246)
(0.00353512 -0.000721283 0.00267636)
(0.00222938 0.00105676 0.00266812)
(0.00163274 0.00245028 0.00281303)
(0.00183353 0.00374382 0.00349912)
(0.00224141 0.00394336 0.00397732)
(0.00268523 0.00369545 0.00427989)
(0.00286533 0.00294585 0.00435933)
(0.00302727 0.00218308 0.00435448)
(0.0031297 0.00132487 0.00429175)
(0.00322729 0.000584934 0.00421926)
(0.00330654 -7.64717e-05 0.00414557)
(0.00335929 -0.000590053 0.00408733)
(0.00337534 -0.000960319 0.00404578)
(0.00338274 -0.00116048 0.00399829)
(0.00338527 -0.00123837 0.00395505)
(0.00335281 -0.00123849 0.00396572)
(0.00328127 -0.00118999 0.00402365)
(0.00318201 -0.0011154 0.00412028)
(0.00307494 -0.00103747 0.0042378)
(0.00299836 -0.000983123 0.00431655)
(0.00292602 -0.000985786 0.00440367)
(0.00284632 -0.00103797 0.00448809)
(0.00276428 -0.00112531 0.00456226)
(0.00269088 -0.00123528 0.00462147)
(0.0026312 -0.00136028 0.00466314)
(0.00259269 -0.00148712 0.00468747)
(0.0025877 -0.00160899 0.00469861)
(0.00261304 -0.00173416 0.00470253)
(0.00263319 -0.00185511 0.00470359)
(0.00257333 -0.00190173 0.00470159)
(0.00240828 -0.00170826 0.00466737)
(0.00229289 -0.00109311 0.00433136)
(0.00241365 -0.000122106 0.00380213)
(0.0032557 0.000687267 0.00334994)
(0.00456675 0.00128847 0.00277588)
(0.00478506 0.00253023 0.00193819)
(0.00271728 0.00518815 0.00125204)
(0.000744782 0.00531052 0.00166322)
(0.000293239 0.00385897 0.00278039)
(0.00534537 -0.00672129 0.00400949)
(0.0152859 -0.0154095 0.000974344)
(0.0146504 -0.0213536 -0.00408004)
(0.00660252 -0.00762343 -0.00712668)
(0.0114236 -0.0117168 -0.00373973)
(0.0676825 -0.021858 -0.00476007)
(0.0954179 -0.0861965 -0.0173371)
(0.089591 -0.0612109 -0.0117652)
(0.123316 -0.139952 -0.00632844)
(0.0546114 -0.0643968 0.000182035)
(0.111752 -0.212156 0.0297106)
(-0.124308 0.0454214 -0.0543535)
(0.0268199 -0.174035 -0.0325576)
(0.149183 -0.204311 0.0430601)
(0.0279042 0.15998 0.0217301)
(-0.0379278 -0.132802 0.0157903)
(-0.013234 -0.0119095 0.0220721)
(-0.0267363 -0.0602282 0.0300498)
(-0.0259608 -0.055516 0.0247237)
(-0.0218981 -0.0405237 0.0148912)
(-0.0111806 -0.00853203 0.0104498)
(0.00502205 0.00769986 0.00108985)
(0.0353946 0.00413476 -0.000390395)
(0.0412031 -0.0139446 0.00411478)
(0.0391314 -0.0296116 0.00744113)
(0.0220021 -0.0550841 0.0144987)
(0.00797264 -0.0747334 0.0176144)
(0.00422932 -0.0773463 0.0221317)
(0.00122554 -0.0876246 0.0233475)
(-0.00486608 -0.0962849 0.0126517)
(-0.00666747 -0.0890872 0.00663254)
(-0.0114658 -0.0670299 0.00817288)
(-0.041283 -0.0521655 0.00157215)
(-0.0192748 0.00562921 -0.0165288)
(0.00926392 0.0158801 -0.0297076)
(0.0189353 0.0259485 -0.0283151)
(0.0238918 0.0299928 -0.0289436)
(0.0279801 0.0296409 -0.0292335)
(0.0427332 0.019624 -0.0245441)
(0.0519642 0.0125454 -0.0189417)
(0.0457309 -0.000807029 -0.0157737)
(0.0419842 -0.00890762 -0.0181919)
(0.0423585 -0.0104914 -0.0193833)
(0.042689 -0.0102851 -0.0103104)
(0.0415086 -0.00813706 -0.00888195)
(0.0256862 -0.0085197 -0.0206634)
(0.00314251 0.00961425 -0.0137538)
(0.00622812 0.0151215 0.0128033)
(-0.00156905 0.00710471 0.0205067)
(0.0231833 0.0197684 0.00442987)
(0.0258158 0.010665 0.0043966)
(0.0169253 0.00536498 0.000646726)
(0.0138503 0.00431084 0.00201867)
(0.00669295 -0.00123651 0.00339845)
(0.00496972 -0.000522716 0.00345476)
(0.00356425 -0.001234 0.00432386)
(0.00297396 0.000465806 0.00434218)
(0.00145213 0.000393925 0.00431433)
(0.000334234 0.00159531 0.00422745)
(-0.000204294 0.00206071 0.00424659)
(0.000355334 0.00303244 0.00450847)
(0.000937052 0.00320329 0.00481621)
(0.00148892 0.00329888 0.00504554)
(0.00176851 0.0029305 0.00509686)
(0.00199892 0.00251589 0.00508137)
(0.00214167 0.00193255 0.00502683)
(0.00226715 0.00140746 0.00497749)
(0.00235698 0.000891859 0.00493148)
(0.0024122 0.000459925 0.0049071)
(0.00241662 8.61807e-05 0.00490426)
(0.0023784 -0.000213396 0.00492743)
(0.00230967 -0.000440933 0.00497344)
(0.00221811 -0.000596129 0.00502591)
(0.00210339 -0.000697999 0.00508325)
(0.00197384 -0.000761777 0.0051433)
(0.00184393 -0.000803843 0.00520452)
(0.00172101 -0.000832526 0.00527594)
(0.00161153 -0.000856456 0.00535438)
(0.00149718 -0.000889499 0.00543459)
(0.00137749 -0.000930411 0.00550884)
(0.00126983 -0.000973066 0.00557084)
(0.00117841 -0.00101007 0.00561439)
(0.001108 -0.00102487 0.00563721)
(0.00107716 -0.000996274 0.0056441)
(0.00109403 -0.000913448 0.00564618)
(0.00110423 -0.000769954 0.00565262)
(0.00100759 -0.000539137 0.00566208)
(0.000787736 -0.000155713 0.00562983)
(0.000617145 0.000450658 0.00548612)
(0.000991672 0.000927796 0.00522488)
(0.00205895 0.000781326 0.00476423)
(0.00264049 0.000745571 0.00414951)
(0.00218238 0.00214172 0.00401427)
(0.00156321 0.00290443 0.00457669)
(0.00106981 0.000740646 0.00582467)
(0.00331086 -0.00444988 0.00786638)
(0.00926901 -0.0171782 0.0084571)
(0.0176085 -0.0238803 0.00346539)
(0.0158315 -0.0266234 -0.00149091)
(0.0130314 -0.0167731 -0.00217023)
(0.0317657 -0.0411471 0.00146706)
(0.0970403 -0.0456985 -0.00659729)
(0.125896 -0.0786283 -0.0148894)
(0.129453 -0.0127345 0.0250899)
(0.154083 -0.130946 0.0130051)
(0.0645874 0.0903061 0.0694164)
(0.152939 -0.252116 0.0704299)
(-0.111314 0.332547 -0.0158438)
(0.033384 -0.292914 -0.00459746)
(0.117974 -0.139862 0.0254166)
(0.0593651 0.159892 0.0215678)
(0.0686947 -0.0129987 0.00723048)
(-0.00995519 0.0678366 0.00751185)
(-0.013211 0.011025 0.00552474)
(-0.0281408 0.056503 0.0325541)
(-0.0358474 0.0638458 0.0233619)
(0.00145617 0.0964731 -0.0259098)
(0.0534219 0.0996383 -0.0277074)
(0.0676879 0.107236 -0.023634)
(0.0695533 0.106844 -0.0187024)
(0.0539115 0.107153 -0.0124182)
(0.0229111 0.0876804 -0.014515)
(-0.0049299 0.0800651 -0.00423647)
(-0.0264631 0.0700602 -0.00389569)
(-0.0401812 0.066639 -0.00653712)
(-0.0492788 0.0731838 -0.0072774)
(-0.0480354 0.0805644 -0.0132308)
(-0.0393474 0.0759191 -0.0248177)
(-0.0140745 0.0706022 -0.0278382)
(0.0243751 0.0563984 -0.0236751)
(0.0553093 0.0478573 -0.0133708)
(0.066876 0.0383492 -0.00755904)
(0.0727586 0.0313855 -0.00775117)
(0.079081 0.0275029 -0.00539393)
(0.0837398 0.0224343 -0.00360092)
(0.085571 0.0196812 0.00167839)
(0.0823283 0.00997596 0.00443156)
(0.0704781 0.00405592 0.00695654)
(0.0644166 -0.000867253 0.00162692)
(0.0526565 -0.00320538 0.0134286)
(0.0467127 -0.0149702 0.0158725)
(0.0473139 -0.0243075 -0.000214711)
(0.0260659 -0.0133502 -0.0252668)
(0.0101533 0.0166265 -0.00153512)
(0.0062696 0.0065327 0.0181594)
(0.0240046 0.0201456 0.00449846)
(0.027635 0.0150059 0.00470992)
(0.0196541 0.00832908 0.000686743)
(0.0177952 0.0087504 0.000859512)
(0.00940705 0.00181774 0.0014775)
(0.00547484 0.00158702 0.00233455)
(0.00211647 -0.000841667 0.00421736)
(0.00129876 0.00115437 0.00434843)
(-8.89969e-05 0.000404844 0.00444125)
(-0.00106918 0.00130795 0.00435791)
(-0.00152567 0.00120669 0.00443806)
(-0.00108169 0.0018835 0.00474355)
(-0.000647076 0.00226196 0.00504775)
(-3.62936e-05 0.0027191 0.00526237)
(0.000333691 0.00266442 0.00529489)
(0.000626519 0.00251325 0.00529899)
(0.000785802 0.00211506 0.00526998)
(0.000900447 0.00172207 0.00525724)
(0.000961634 0.00130191 0.00523762)
(0.000988763 0.000933156 0.00522565)
(0.000970622 0.000589523 0.00522091)
(0.000910103 0.000280025 0.00522819)
(0.0008192 5.28924e-06 0.00524754)
(0.000705248 -0.000226005 0.00527535)
(0.000572386 -0.000410831 0.00531052)
(0.00043045 -0.000546075 0.00534927)
(0.000292399 -0.000636777 0.00539041)
(0.000175486 -0.000697202 0.00543524)
(7.37353e-05 -0.000736416 0.00548729)
(-2.83725e-05 -0.000756198 0.00554649)
(-0.000129616 -0.000748879 0.00560497)
(-0.000217471 -0.000709809 0.00564752)
(-0.000292091 -0.000644983 0.00566468)
(-0.000350657 -0.00056024 0.00565553)
(-0.000383686 -0.000455358 0.00562783)
(-0.000388595 -0.00031715 0.00559906)
(-0.000408186 -0.00011948 0.00558955)
(-0.000539235 0.000153045 0.0055943)
(-0.000784349 0.000536073 0.00554971)
(-0.000731055 0.000937098 0.0054133)
(0.000244035 0.00100283 0.00507302)
(0.00163945 0.000455265 0.00454159)
(0.00209971 -7.33087e-06 0.00390947)
(0.00168882 -0.000369943 0.00378908)
(0.00156071 -0.00162225 0.00521864)
(0.00194871 -0.00561341 0.00757572)
(0.00444594 -0.0117888 0.0105463)
(0.0109429 -0.0225817 0.0103307)
(0.0160006 -0.0256808 0.00644736)
(0.0144297 -0.0291833 0.00116033)
(0.0240267 -0.021934 0.00224375)
(0.0519006 -0.0560942 -0.000444229)
(0.10119 -0.0472038 -0.0167529)
(0.116448 -0.0388693 0.00250635)
(0.120857 0.0372256 0.0717729)
(0.115917 -0.0610916 0.0714699)
(0.10564 0.19671 0.161368)
(0.132399 -0.195329 0.0842679)
(-0.0835147 0.544777 -0.012178)
(0.0024917 -0.328761 0.0233823)
(0.0797277 -0.133223 0.0341963)
(0.0308809 0.154176 0.000456232)
(0.0127158 0.0553302 0.00949488)
(-0.0255121 0.120019 0.00649684)
(-0.0370085 0.10844 0.00780593)
(-0.0500497 0.121975 0.00906885)
(-0.0411929 0.124051 -0.00921716)
(0.0112816 0.142836 -0.0239899)
(0.0573438 0.154669 -0.016968)
(0.0768625 0.16641 -0.0176097)
(0.0826942 0.171498 -0.0153733)
(0.079961 0.175293 -0.0231449)
(0.0586966 0.172877 -0.029931)
(0.0378486 0.167828 -0.035904)
(0.0266178 0.165123 -0.0363912)
(0.020568 0.159411 -0.0362211)
(0.022126 0.151935 -0.0306585)
(0.0302204 0.138953 -0.0247971)
(0.0401966 0.120766 -0.018247)
(0.0546545 0.107336 -0.0137588)
(0.0619352 0.0852185 -0.00574125)
(0.0730429 0.0672372 0.00861427)
(0.0763304 0.0518597 0.0150615)
(0.0781155 0.0339399 0.0226039)
(0.0827855 0.0265368 0.0270868)
(0.0849981 0.0153795 0.0266075)
(0.0873574 0.00810592 0.0244757)
(0.0840625 0.00312255 0.0282523)
(0.0693646 -0.000793013 0.0316589)
(0.0571589 -0.0100893 0.0297017)
(0.0378664 -0.0118797 0.0351931)
(0.0337037 -0.0304631 0.0332089)
(0.02764 -0.0362006 0.0260549)
(0.0224936 -0.0451293 1.24841e-05)
(0.0135268 -0.0218945 -0.0202866)
(0.011027 0.00235504 0.00715695)
(0.0239747 0.0206515 0.00425834)
(0.0288004 0.0191453 0.00502273)
(0.0217861 0.0111713 0.00101858)
(0.0222394 0.0121112 0.000639161)
(0.0141837 0.00458665 -0.000870275)
(0.00860553 0.00408906 -0.000354603)
(0.00174498 -0.000859267 0.00287588)
(-0.000291362 0.00144604 0.00347891)
(-0.00161629 0.000193481 0.00371095)
(-0.00255443 0.000898248 0.00394255)
(-0.00325584 0.000394993 0.0041787)
(-0.00324575 0.000932547 0.00461682)
(-0.00310434 0.00141645 0.00489837)
(-0.00245227 0.00216139 0.00511893)
(-0.00198761 0.00233956 0.00512156)
(-0.00165539 0.00233184 0.00513881)
(-0.00148104 0.00203788 0.00514657)
(-0.00143374 0.00173985 0.0051751)
(-0.00145083 0.00140277 0.00517763)
(-0.00149268 0.00109953 0.00516379)
(-0.00155214 0.000798929 0.00513452)
(-0.00162642 0.00050306 0.00510224)
(-0.00171219 0.000215136 0.00507753)
(-0.00181278 -4.71411e-05 0.00506126)
(-0.00193547 -0.000275071 0.00505013)
(-0.00207136 -0.000461634 0.00504399)
(-0.00218955 -0.000603228 0.00504792)
(-0.00227984 -0.000706027 0.00506135)
(-0.00235756 -0.000764289 0.00507743)
(-0.0024455 -0.000768698 0.00509307)
(-0.00254489 -0.000716874 0.00510596)
(-0.002634 -0.00061189 0.0051071)
(-0.00269387 -0.000467422 0.00509212)
(-0.00272098 -0.000296916 0.00505749)
(-0.00271762 -0.0001038 0.00500598)
(-0.00270195 0.000131483 0.00496268)
(-0.0027377 0.000439128 0.00495402)
(-0.0029134 0.000793037 0.00497283)
(-0.00309375 0.00109139 0.00496253)
(-0.00279991 0.00114047 0.00484912)
(-0.00153734 0.000762097 0.00450342)
(-3.51121e-05 4.21388e-05 0.00405665)
(0.00052299 -0.000761186 0.00363371)
(0.000613544 -0.00199657 0.00390839)
(0.00133114 -0.00472532 0.00576423)
(0.0019511 -0.00994376 0.00865287)
(0.00471623 -0.0165096 0.0114161)
(0.0103997 -0.023914 0.0102293)
(0.0136259 -0.0246511 0.00669933)
(0.0127245 -0.029877 0.00507129)
(0.030888 -0.0232181 0.0037618)
(0.0737413 -0.0501425 -0.00835353)
(0.091701 -0.0136158 -0.020554)
(0.0869293 0.00884175 0.0637783)
(0.116618 0.0339046 0.0977057)
(0.10604 -0.0199534 0.0889607)
(0.109438 0.138423 0.167832)
(0.101295 -0.0539757 0.100607)
(0.0798243 0.500034 0.000244664)
(0.0232176 -0.317801 0.0230813)
(0.0539747 -0.149118 0.055982)
(0.0051214 0.160246 0.00423904)
(0.0118025 0.0625483 0.0197637)
(-0.0152175 0.123726 0.0112655)
(-0.0326824 0.115072 0.0126727)
(-0.0407282 0.122323 0.0135808)
(-0.0336008 0.125095 0.00427929)
(0.0176987 0.141851 -0.00445255)
(0.0604375 0.159359 -0.0179514)
(0.0859235 0.175823 -0.017573)
(0.0943051 0.187524 -0.0088522)
(0.0964602 0.190607 -0.00504443)
(0.0919273 0.193026 -0.00865773)
(0.0816243 0.191736 -0.0139777)
(0.0732167 0.18704 -0.01252)
(0.0678305 0.184806 -0.014266)
(0.064437 0.179909 -0.0106619)
(0.0645775 0.167947 -0.000975887)
(0.0664739 0.150883 0.0069042)
(0.0689783 0.131275 0.0135524)
(0.0724945 0.110658 0.0202566)
(0.0704795 0.0871507 0.0250781)
(0.071401 0.0709856 0.0313724)
(0.0653182 0.0408909 0.0393834)
(0.0669463 0.0269491 0.0415854)
(0.0660266 0.00941691 0.0447289)
(0.0653088 6.01085e-05 0.0448883)
(0.0626005 -0.00645369 0.0436275)
(0.0583893 -0.017223 0.0477616)
(0.0468224 -0.0244749 0.0437543)
(0.0337644 -0.0310689 0.0475472)
(0.0241575 -0.0474307 0.0415243)
(0.0223961 -0.0563942 0.0366107)
(0.0211102 -0.0620957 0.0216829)
(0.0119155 -0.0474779 -0.0102681)
(0.00534643 -0.0130906 -0.00573175)
(0.023111 0.0205106 0.00392806)
(0.0300806 0.0235239 0.00614168)
(0.023095 0.0140249 0.00240827)
(0.0247371 0.0147307 0.00226894)
(0.0195304 0.00569317 -0.000906716)
(0.0141504 0.0056917 -0.00193819)
(0.00260712 -0.00133241 0.000456248)
(-0.00150815 0.00139866 0.00160986)
(-0.00241803 -0.000430653 0.00227551)
(-0.00353048 0.000427586 0.00296748)
(-0.00422114 -0.00036049 0.0033687)
(-0.00445064 0.000189935 0.0039843)
(-0.00450225 0.00076803 0.00426817)
(-0.00371735 0.00178953 0.00461011)
(-0.00294658 0.00203262 0.00477201)
(-0.00241111 0.00201717 0.00495173)
(-0.00217562 0.00172242 0.00508664)
(-0.0021643 0.00145422 0.00519511)
(-0.00223931 0.00120716 0.00522591)
(-0.00233187 0.00101369 0.00520054)
(-0.00242663 0.000827943 0.00512308)
(-0.00252885 0.000634319 0.00501369)
(-0.0026505 0.000429408 0.00489614)
(-0.00277721 0.000228537 0.00478171)
(-0.00289763 4.23081e-05 0.00467769)
(-0.00300701 -0.000108494 0.00458334)
(-0.00310032 -0.00022546 0.00449371)
(-0.00317504 -0.000316915 0.00441379)
(-0.00325706 -0.00037478 0.00434673)
(-0.00335597 -0.000385751 0.00429701)
(-0.00346703 -0.000334771 0.00425908)
(-0.00355791 -0.000218202 0.00421725)
(-0.00362658 -4.53408e-05 0.00415164)
(-0.00368639 0.000171096 0.00404983)
(-0.00375062 0.00041596 0.00391977)
(-0.0038385 0.000695302 0.00379223)
(-0.00394371 0.00100595 0.00371352)
(-0.004025 0.00131405 0.00372415)
(-0.00386409 0.00136764 0.00379227)
(-0.00299525 0.00105816 0.00389788)
(-0.0011332 0.000268346 0.00406136)
(0.000696838 -0.000716231 0.0041763)
(0.00150203 -0.00189127 0.00408477)
(0.00179849 -0.0036018 0.00452454)
(0.00255183 -0.00644784 0.0064722)
(0.00331122 -0.0114919 0.00948921)
(0.00490304 -0.0174433 0.0111899)
(0.00849647 -0.0218806 0.00895006)
(0.0102887 -0.0219492 0.00799833)
(0.00928943 -0.0248732 0.00690012)
(0.0346458 -0.0267901 0.00203438)
(0.0719704 -0.0221961 -0.0193343)
(0.0793096 0.0451779 0.00271515)
(0.0816123 0.0422284 0.0754827)
(0.107088 0.0662088 0.100913)
(0.103274 0.0159759 0.10643)
(0.0640942 0.150281 0.162636)
(0.0660377 -0.148097 0.10912)
(0.175193 0.441116 -0.00335762)
(0.0193832 -0.339763 0.0198354)
(-0.0179421 -0.0674546 0.0566165)
(-0.0197206 0.153364 0.0176653)
(-0.0172245 0.0855339 0.0302472)
(-0.0209383 0.129277 0.0250891)
(-0.0359645 0.113741 0.0268404)
(-0.0403152 0.110979 0.0276417)
(-0.0371129 0.101899 0.0282287)
(-0.00392777 0.097012 0.0234937)
(0.0451638 0.111043 -0.00301744)
(0.0828119 0.149733 -0.0268945)
(0.0904518 0.184577 -0.021912)
(0.0922124 0.194989 -0.000345431)
(0.0877493 0.196836 0.00730045)
(0.0811208 0.198388 0.00731848)
(0.0730667 0.192626 0.00883932)
(0.0683795 0.189177 0.0138108)
(0.0648868 0.184701 0.0138515)
(0.0622741 0.175805 0.0177465)
(0.0610001 0.165446 0.0212874)
(0.0636203 0.15023 0.0202721)
(0.0666873 0.136234 0.016643)
(0.0644018 0.124194 0.0137668)
(0.057867 0.106521 0.0180104)
(0.0507826 0.0774154 0.028888)
(0.0474814 0.0570039 0.0344328)
(0.042266 0.0280685 0.0413083)
(0.0396229 0.00687118 0.0435374)
(0.0450164 -0.00653016 0.045715)
(0.0376226 -0.0207762 0.0499579)
(0.0240527 -0.0316012 0.0475077)
(0.00902464 -0.0444854 0.0542081)
(-0.00218138 -0.0617569 0.0540787)
(-0.00806445 -0.0790359 0.0510881)
(-0.0138875 -0.0768147 0.0454452)
(-0.0146373 -0.070475 0.0242153)
(-0.0209808 -0.0308587 -0.00664854)
(0.0210402 0.0191514 0.00415474)
(0.0308507 0.0279466 0.0084567)
(0.0234203 0.0168989 0.00493414)
(0.0249956 0.0174809 0.00511205)
(0.0220078 0.00590356 0.00155228)
(0.0186816 0.00582838 -0.000123112)
(0.00471158 -0.00248697 -0.00125467)
(-0.00201371 0.00119619 -0.000125882)
(-0.0035161 -0.00108945 0.00100841)
(-0.00481678 7.11715e-05 0.00205448)
(-0.00572855 -0.000762764 0.00241692)
(-0.00663652 -7.79807e-05 0.00317317)
(-0.00714998 0.000407916 0.00363121)
(-0.00624129 0.00129555 0.00437941)
(-0.00521237 0.00137737 0.00495448)
(-0.00467305 0.00134745 0.00541563)
(-0.00456399 0.00108229 0.00568627)
(-0.00476954 0.000923717 0.00583663)
(-0.00504148 0.000830455 0.00585519)
(-0.00526155 0.00081172 0.00579347)
(-0.00541141 0.000810868 0.00565211)
(-0.00550812 0.000806227 0.00545725)
(-0.00558148 0.000781758 0.00524282)
(-0.00564434 0.000735652 0.00502992)
(-0.00572208 0.00068295 0.00484447)
(-0.00580517 0.000650074 0.00469219)
(-0.00581855 0.000625334 0.00455482)
(-0.00579131 0.000586664 0.00445551)
(-0.00576427 0.000541109 0.00439632)
(-0.00577768 0.000509782 0.00437299)
(-0.00583363 0.000528061 0.00436869)
(-0.00589434 0.000609941 0.00434959)
(-0.00593803 0.000746794 0.00429018)
(-0.00595067 0.000914791 0.00418561)
(-0.00593842 0.00107562 0.00404365)
(-0.00593748 0.00120341 0.00388298)
(-0.00595166 0.00129361 0.00372465)
(-0.00587915 0.00132272 0.00364138)
(-0.0054449 0.0011909 0.00371942)
(-0.00419921 0.000764164 0.0040477)
(-0.00215185 -8.59309e-07 0.00464307)
(-0.000238744 -0.000978646 0.00542001)
(0.000723733 -0.00235404 0.00562246)
(0.00107281 -0.00445257 0.00564351)
(0.00172156 -0.00723239 0.00666413)
(0.00216206 -0.0115252 0.00858183)
(0.00329193 -0.0150372 0.00869708)
(0.00458913 -0.0177267 0.00625266)
(0.00423067 -0.0183158 0.006266)
(0.00424707 -0.0176315 0.00608483)
(0.0293247 -0.020887 0.00389799)
(0.0430737 0.0349591 -0.00159048)
(0.0402207 0.0859797 0.0394459)
(0.0320008 0.093711 0.0809187)
(0.0521502 0.100693 0.0992628)
(0.0564405 0.0432628 0.118727)
(0.0742032 0.151121 0.197227)
(0.00530311 -0.222806 0.151529)
(0.112258 0.262314 -0.0259087)
(-0.000160126 -0.286945 0.0200031)
(-0.0687127 -0.120189 0.0792315)
(-0.0244299 0.153498 0.000524868)
(-0.0408953 0.0591152 0.025693)
(-0.0314759 0.112114 0.0143636)
(-0.04678 0.0932652 0.0207107)
(-0.03666 0.0821132 0.0211159)
(-0.0279443 0.0616089 0.0262753)
(0.00585515 0.035088 0.0190949)
(0.024695 0.0333803 0.0218418)
(0.0482103 0.0439788 -0.00167463)
(0.0739269 0.10474 -0.0430645)
(0.0752561 0.166367 -0.0119673)
(0.0774663 0.174761 0.0227323)
(0.0691754 0.179428 0.0321771)
(0.0634107 0.185425 0.0322225)
(0.0582888 0.183911 0.0331893)
(0.0568751 0.178652 0.032802)
(0.058468 0.171068 0.0318487)
(0.0579469 0.161237 0.034369)
(0.058347 0.147541 0.0311311)
(0.0598722 0.134267 0.0181005)
(0.0594424 0.128831 0.00583411)
(0.0549173 0.126666 -0.00389354)
(0.050677 0.120129 -0.00646388)
(0.0500279 0.113651 -0.00231516)
(0.0466206 0.100293 0.0057556)
(0.0386759 0.0726691 0.0225095)
(0.0350238 0.0480054 0.0396007)
(0.0254655 0.0170974 0.0525991)
(0.015261 -0.0173405 0.0556169)
(0.0110706 -0.0447335 0.0648333)
(-0.00208213 -0.0711765 0.0634951)
(-0.0201484 -0.0862865 0.050712)
(-0.0392521 -0.0853617 0.0528284)
(-0.0523528 -0.080345 0.0345199)
(-0.0645635 -0.0380563 0.0113602)
(0.0211503 0.0139384 0.00391918)
(0.0303067 0.0305052 0.0100521)
(0.022902 0.019243 0.00576441)
(0.0251053 0.0218143 0.00594258)
(0.0231251 0.00792965 0.00262893)
(0.0203297 0.00617219 0.00205568)
(0.00588252 -0.00360978 -0.00245336)
(-0.00338272 0.000723236 -0.00136023)
(-0.00383572 -0.00204547 0.0012065)
(-0.00562367 0.000132439 0.0021177)
(-0.00616721 -0.000727282 0.00246271)
(-0.0069535 0.000151963 0.00329863)
(-0.00715975 -0.000146114 0.0040881)
(-0.00596358 0.000164786 0.00526365)
(-0.00486649 -3.7875e-05 0.00621044)
(-0.00428567 0.000106238 0.00704769)
(-0.00422007 0.000140269 0.00756725)
(-0.00446231 0.000347216 0.00784246)
(-0.00473173 0.000544669 0.00792085)
(-0.00492759 0.000794639 0.00788044)
(-0.00506457 0.00103697 0.00773012)
(-0.00516168 0.00122879 0.00750167)
(-0.00523424 0.00135676 0.00724062)
(-0.00528718 0.00143687 0.00697712)
(-0.005341 0.00147159 0.00672782)
(-0.00538421 0.00146852 0.00650631)
(-0.00538052 0.00145136 0.00632765)
(-0.00533169 0.00142215 0.0061973)
(-0.00529016 0.0013689 0.00610524)
(-0.00530745 0.00131363 0.00604667)
(-0.00539251 0.00130777 0.006004)
(-0.00548464 0.00136231 0.00594284)
(-0.00555439 0.00144688 0.00584678)
(-0.00558693 0.00153527 0.00571413)
(-0.00558903 0.00158589 0.00554366)
(-0.00559326 0.00156886 0.00534483)
(-0.00558746 0.00146574 0.00513649)
(-0.00544648 0.00125251 0.00499109)
(-0.00484262 0.000904011 0.0050666)
(-0.00333236 0.000383545 0.00555261)
(-0.000888502 -0.0003557 0.0065417)
(0.00138006 -0.00112188 0.00777304)
(0.00275356 -0.00210259 0.00827829)
(0.00335097 -0.00411717 0.00827211)
(0.00390556 -0.00697745 0.00872875)
(0.00340615 -0.00973905 0.00949444)
(0.00156088 -0.0104998 0.0079619)
(0.00142207 -0.0114737 0.00662252)
(-0.000284743 -0.0123211 0.0069166)
(-0.00176798 -0.0155595 0.0109465)
(0.00166383 -0.0093997 0.0156293)
(-0.00017682 0.0431234 0.0171765)
(0.00254696 0.0969601 0.0582707)
(0.0219888 0.115983 0.0921774)
(0.0524857 0.129074 0.111065)
(0.0688537 0.0817532 0.138306)
(0.0923092 0.127176 0.202898)
(0.0348651 -0.124073 0.166452)
(0.131178 0.233651 -0.0229071)
(-0.00758701 -0.2689 0.0165654)
(-0.105222 -0.148035 0.109999)
(-0.0426442 0.167292 -0.030138)
(-0.0318224 0.0382876 0.0158543)
(-0.00834735 0.0881094 -0.00327447)
(-0.0263284 0.0501457 0.00811069)
(0.00498458 0.0320381 0.000376923)
(-0.00647375 -0.00264081 -0.00704201)
(0.0196595 -0.0189425 -0.003762)
(0.0376577 -0.0199414 -0.00818161)
(0.0447512 -0.00384586 -0.00769867)
(0.0326768 0.0232894 -0.0342927)
(0.0269006 0.0834439 -0.0642245)
(0.0402767 0.127873 -0.0156088)
(0.0406613 0.129994 0.02264)
(0.0438926 0.145501 0.0357733)
(0.0461306 0.14656 0.0434691)
(0.0516066 0.138656 0.0466236)
(0.0554715 0.121111 0.0435849)
(0.0624637 0.104895 0.0437115)
(0.0654532 0.0860412 0.0428714)
(0.0683566 0.0638956 0.0376601)
(0.0618539 0.0534024 0.0227991)
(0.051552 0.0653321 0.00247234)
(0.048575 0.0859663 -0.00977133)
(0.0504509 0.103946 -0.0130016)
(0.0510111 0.112488 -0.011786)
(0.0455915 0.109508 -0.00221721)
(0.0374565 0.0950435 0.0165029)
(0.0250241 0.0772773 0.0294067)
(0.00996289 0.0528242 0.0348538)
(-0.0081153 0.0355786 0.0393951)
(-0.0327371 -0.00900599 0.0414358)
(-0.0592982 -0.0247351 0.0207991)
(-0.0829044 -0.032136 0.0372168)
(-0.0989624 -0.0417974 0.0215961)
(-0.119563 -0.0263863 -0.0293416)
(0.014281 0.00796309 0.000578898)
(0.0270548 0.0309978 0.00956482)
(0.0206965 0.0217231 0.00357643)
(0.0244849 0.0273317 0.00369109)
(0.0240387 0.0124291 0.0019394)
(0.0216609 0.00881936 0.0020603)
(0.00762124 -0.00355313 -0.00544402)
(-0.00289605 0.000868693 -0.00591007)
(-0.00641685 -0.00188835 -0.00266667)
(-0.00809135 0.00061185 -0.00113036)
(-0.00839112 -0.000583596 -0.000735149)
(-0.00877515 4.49376e-05 0.000209215)
(-0.00895196 -0.000948607 0.00117032)
(-0.00841616 -0.000911602 0.00227117)
(-0.00807755 -0.00108071 0.00313847)
(-0.0080877 -0.000687798 0.00394003)
(-0.0083663 -0.000373183 0.00458912)
(-0.00876339 7.10921e-05 0.00504501)
(-0.00913899 0.000425722 0.00530523)
(-0.00943454 0.000788628 0.00542428)
(-0.00953985 0.00111563 0.00541135)
(-0.00949363 0.00138811 0.00530496)
(-0.00940875 0.00159971 0.00515129)
(-0.00929389 0.0017488 0.00498696)
(-0.00917068 0.00183806 0.00482362)
(-0.00903598 0.0018751 0.00467015)
(-0.00886586 0.00188175 0.0045387)
(-0.00866984 0.00187643 0.00444047)
(-0.00848093 0.00185952 0.00437291)
(-0.00839198 0.0018336 0.00433234)
(-0.00842426 0.00183665 0.00430422)
(-0.00844397 0.00187769 0.00425859)
(-0.00841741 0.00192679 0.00418035)
(-0.008328 0.00196874 0.00406635)
(-0.00817278 0.0019659 0.00391347)
(-0.00799078 0.00189021 0.00373449)
(-0.00776719 0.00171682 0.00354913)
(-0.00742318 0.0013887 0.00341173)
(-0.00670575 0.000866423 0.00346385)
(-0.00521838 0.000232262 0.00386644)
(-0.00307013 -0.000413902 0.00472681)
(-0.00123727 -0.000827116 0.00586382)
(0.00017992 -0.00135093 0.00640189)
(0.00131009 -0.00302953 0.00649736)
(0.00187466 -0.00542196 0.00687458)
(0.000242296 -0.00710473 0.00649691)
(-0.00196328 -0.00709908 0.00421793)
(-0.00307127 -0.0077961 0.00416697)
(-0.00502501 -0.0130264 0.00584122)
(-0.00908611 -0.0196086 0.00926461)
(-0.0214831 -0.0245167 0.0142003)
(-0.0401323 0.0151728 0.0216353)
(-0.0586029 0.0388482 0.0387517)
(-0.0522246 0.0590935 0.0490037)
(-0.0341759 0.0977686 0.0770134)
(0.0486009 0.0603902 0.133165)
(0.117767 0.157897 0.195533)
(0.0516388 -0.246741 0.310496)
(0.115762 0.16588 0.0432735)
(0.00620788 -0.187374 -0.00604166)
(-0.133584 -0.233141 0.142584)
(-0.0629054 0.154088 -0.0266456)
(-0.0405594 -0.0259941 0.0173721)
(-0.00690533 0.0592051 -0.0120269)
(-0.0280213 -0.00331142 0.0364385)
(0.0406301 0.00283445 0.0231297)
(0.0375207 -0.0349473 0.0154816)
(0.0458712 -0.0528642 0.0145969)
(0.0476976 -0.0616296 0.00148621)
(0.0461597 -0.0524979 -0.00297548)
(0.0333838 -0.0325725 -0.0122665)
(0.0206085 0.00900148 -0.0282939)
(0.0143525 0.0436477 -0.031392)
(0.0137685 0.0559628 -0.0262774)
(0.0132799 0.0646906 0.00647551)
(0.0202274 0.0636282 0.0246167)