/*--------------------------------*- C++ -*----------------------------------*\
| =========                 |                                                 |
| \\      /  F ield         | OpenFOAM: The Open Source CFD Toolbox           |
|  \\    /   O peration     | Version:  2.3.0                                 |
|   \\  /    A nd           | Web:      www.OpenFOAM.org                      |
|    \\/     M anipulation  |                                                 |
\*---------------------------------------------------------------------------*/
FoamFile
{
    version     2.0;
    format      ascii;
    class       volVectorField;
    location    "61";
    object      Ur;
}
// * * * * * * * * * * * * * * * * * * * * * * * * * * * * * * * * * * * * * //

dimensions      [0 1 -1 0 0 0 0];

internalField   nonuniform List<vector> 
6144
(
(-1.80046e-07 0.000365044 -7.68553e-08)
(-9.05986e-08 0.000395127 -1.68076e-07)
(2.14528e-07 0.00042594 -1.30639e-07)
(4.2748e-07 0.000450681 -6.21166e-08)
(6.04401e-07 0.000481219 -8.72581e-09)
(6.85628e-07 0.000526329 -1.28809e-08)
(6.95238e-07 0.000581267 -1.32226e-08)
(6.67362e-07 0.000633763 -6.48984e-09)
(6.22576e-07 0.00067485 2.63845e-08)
(5.60421e-07 0.00069753 3.17643e-08)
(4.87057e-07 0.00070366 1.24007e-08)
(4.07977e-07 0.000703079 6.31672e-09)
(3.26397e-07 0.000701691 1.06863e-08)
(2.55938e-07 0.000700472 4.65282e-09)
(1.98429e-07 0.000699412 3.84817e-09)
(1.47865e-07 0.000698471 -1.28096e-09)
(1.1304e-07 0.000697654 -5.14418e-09)
(8.01088e-08 0.000696945 -1.24002e-08)
(5.93301e-08 0.000696328 -1.76135e-08)
(3.75295e-08 0.000695802 -2.57348e-08)
(2.80206e-08 0.000695362 -3.06481e-08)
(1.53161e-08 0.000694982 -3.81201e-08)
(1.48732e-08 0.000694649 -4.12729e-08)
(9.36019e-09 0.000694348 -4.81864e-08)
(1.72949e-08 0.000694079 -5.10622e-08)
(1.81169e-08 0.000693844 -5.89873e-08)
(3.34743e-08 0.000693646 -6.26817e-08)
(3.92776e-08 0.000693469 -7.24463e-08)
(6.19966e-08 0.000693312 -7.79371e-08)
(7.34772e-08 0.000693182 -9.19523e-08)
(1.0499e-07 0.000693091 -1.02026e-07)
(1.22958e-07 0.000693037 -1.2292e-07)
(1.64692e-07 0.00069303 -1.39908e-07)
(1.91035e-07 0.000693073 -1.70945e-07)
(2.46223e-07 0.000693186 -1.97639e-07)
(2.85161e-07 0.000693376 -2.39655e-07)
(3.60292e-07 0.000693661 -2.75227e-07)
(4.22177e-07 0.000694036 -3.27316e-07)
(5.29602e-07 0.00069451 -3.71511e-07)
(6.27225e-07 0.000695071 -4.30672e-07)
(7.86047e-07 0.000696249 -4.81174e-07)
(9.47236e-07 0.000706168 -5.65895e-07)
(1.20401e-06 0.000746764 -6.90687e-07)
(1.53577e-06 0.000845498 -8.65979e-07)
(2.19589e-06 0.00102067 -1.16196e-06)
(3.14677e-06 0.00127024 -1.65304e-06)
(4.08958e-06 0.00158321 -2.27414e-06)
(4.44051e-06 0.00194788 -3.21643e-06)
(2.11885e-06 0.00236283 -3.39531e-06)
(-5.62376e-07 0.00285725 -1.98416e-06)
(7.66876e-07 0.00342549 -1.05134e-06)
(-2.89754e-06 0.00390889 -3.23298e-06)
(2.75636e-06 0.00430554 -1.92392e-05)
(-1.87416e-05 0.00458153 -5.81736e-05)
(-3.68114e-05 0.00482898 -7.4006e-05)
(-0.000104024 0.00498354 -0.000107549)
(-0.000421128 0.00613266 -0.000133577)
(-9.59697e-06 0.00813171 -0.000224093)
(-0.000397268 0.0210646 -0.000272171)
(0.0118098 0.150941 0.00406747)
(-0.0179728 0.602153 -0.00357711)
(-0.0380581 0.47989 -0.0100313)
(-0.000739308 0.0224768 -0.000171625)
(0.00012532 0.0061727 1.6292e-05)
(-5.32139e-05 0.0055435 1.36461e-05)
(-3.45084e-05 0.00566141 -1.18648e-05)
(-1.61314e-05 0.00567059 -2.67887e-05)
(1.88311e-05 0.00562848 -2.79659e-05)
(0.000109234 0.00557822 -2.76252e-05)
(-2.91747e-05 0.005487 -2.565e-05)
(-4.03277e-05 0.00543234 -7.42546e-06)
(-5.907e-05 0.00545437 1.23226e-05)
(-7.44553e-05 0.00552837 1.63645e-05)
(-5.94248e-05 0.00561365 5.51046e-06)
(-4.72928e-05 0.0056873 -6.34027e-06)
(-4.88518e-05 0.00574789 -1.95979e-05)
(-3.84369e-05 0.00579437 -1.73049e-05)
(-1.95876e-05 0.00581937 -1.14923e-05)
(4.69494e-06 0.00581981 -4.16502e-06)
(7.33637e-05 0.00586326 -1.00969e-05)
(6.03242e-05 0.00612295 -4.16035e-05)
(-2.4426e-05 0.00671929 -4.18977e-05)
(-3.54653e-05 0.0074303 -2.59545e-05)
(-3.76555e-05 0.00794688 -2.01957e-05)
(-2.85505e-05 0.00816943 -3.04911e-05)
(-2.34732e-05 0.00807004 -3.93653e-05)
(-2.38265e-05 0.0078114 -3.98406e-05)
(-2.67145e-05 0.00762447 -3.36281e-05)
(-2.72728e-05 0.00735552 -1.75416e-05)
(-2.66115e-05 0.00696282 -1.60268e-05)
(-2.30586e-05 0.00673362 -1.16693e-05)
(-2.40477e-05 0.00665471 -1.36687e-05)
(-1.42331e-05 0.00606543 -1.21909e-05)
(7.26825e-07 0.00505578 -6.33211e-06)
(2.50925e-06 0.0045935 -7.6618e-06)
(3.84238e-06 0.00460516 -3.38028e-06)
(5.06025e-09 0.000343124 -7.2276e-09)
(4.37191e-07 0.000385129 -1.64425e-07)
(9.76494e-07 0.000431435 -9.57156e-08)
(1.40753e-06 0.000466363 -3.76726e-08)
(1.79955e-06 0.000502276 2.72007e-08)
(2.02143e-06 0.000543862 4.14973e-08)
(2.04035e-06 0.000590908 4.14148e-08)
(1.93945e-06 0.000638583 3.89956e-08)
(1.7574e-06 0.000676782 4.05357e-08)
(1.53902e-06 0.000697555 4.27784e-08)
(1.30381e-06 0.00070315 3.68305e-08)
(1.07674e-06 0.000702761 3.27479e-08)
(8.54039e-07 0.00070155 3.91987e-08)
(6.56156e-07 0.000700488 5.35357e-08)
(4.99589e-07 0.000699566 5.2817e-08)
(3.73198e-07 0.000698727 5.1977e-08)
(2.80122e-07 0.000697962 4.12426e-08)
(2.0537e-07 0.000697266 3.50298e-08)
(1.52554e-07 0.000696645 2.14969e-08)
(1.10865e-07 0.000696118 1.49028e-08)
(8.6615e-08 0.000695681 8.44963e-10)
(6.80391e-08 0.000695303 -3.07163e-09)
(6.37168e-08 0.000694972 -1.29251e-08)
(6.48672e-08 0.00069468 -1.23495e-08)
(8.23643e-08 0.000694424 -2.15371e-08)
(1.04183e-07 0.000694212 -1.94218e-08)
(1.4278e-07 0.000694039 -2.98619e-08)
(1.82125e-07 0.000693884 -2.52277e-08)
(2.40548e-07 0.000693746 -3.65164e-08)
(3.02847e-07 0.000693642 -3.40092e-08)
(3.88843e-07 0.000693574 -5.13825e-08)
(4.80447e-07 0.000693541 -5.30261e-08)
(6.01988e-07 0.000693546 -7.87053e-08)
(7.32327e-07 0.000693598 -8.60382e-08)
(9.00359e-07 0.00069371 -1.21113e-07)
(1.08383e-06 0.0006939 -1.35988e-07)
(1.31977e-06 0.000694183 -1.83795e-07)
(1.59438e-06 0.000694564 -2.12438e-07)
(1.93438e-06 0.000695061 -2.81344e-07)
(2.32531e-06 0.000695678 -3.17353e-07)
(2.83336e-06 0.000698456 -3.74073e-07)
(3.45591e-06 0.000712396 -3.9733e-07)
(4.29424e-06 0.000755995 -4.64706e-07)
(5.42731e-06 0.000853124 -4.75586e-07)
(7.14602e-06 0.00101737 -7.43443e-07)
(9.05223e-06 0.00123947 -1.25847e-06)
(1.09386e-05 0.00149937 -2.20361e-06)
(1.14888e-05 0.00180607 -3.45018e-06)
(8.41606e-06 0.00223082 -3.38154e-06)
(5.78047e-06 0.00277218 -1.11677e-06)
(8.73297e-06 0.00328819 1.54482e-06)
(1.48092e-05 0.00372137 4.61223e-06)
(1.50314e-05 0.00419807 -1.57679e-05)
(1.2472e-05 0.00465148 -4.54895e-05)
(4.40703e-05 0.00487215 -7.94698e-05)
(-9.34123e-06 0.00465104 -0.000117647)
(-0.00150734 0.00659763 -5.81493e-05)
(-0.000170839 0.00970797 -0.000447784)
(-0.000762933 0.0162983 0.000256322)
(0.0191289 0.167092 0.0117447)
(-0.0657685 0.625449 -0.00133533)
(-0.0502286 0.311736 -0.00793585)
(0.000934637 0.021098 6.73754e-05)
(-0.000122409 0.0056381 -2.7333e-05)
(-5.30802e-05 0.00543027 -5.99119e-06)
(0.000357275 0.0057463 9.72552e-06)
(0.000266829 0.00650664 3.98768e-06)
(0.000156386 0.0308183 -5.57683e-05)
(0.00157493 0.203883 -0.000320014)
(-0.000149385 0.0290605 1.76213e-05)
(-0.000215356 0.00715182 1.2088e-05)
(-0.000112687 0.00607498 3.02577e-05)
(8.51717e-05 0.005843 4.28502e-05)
(9.44843e-06 0.00604525 2.6396e-05)
(4.64987e-06 0.00628542 -2.35981e-06)
(8.0389e-06 0.00629378 -2.99909e-05)
(-9.1578e-06 0.0061474 -4.3568e-05)
(-3.63464e-05 0.00599642 -3.56834e-05)
(-6.50312e-05 0.00614919 -2.81551e-05)
(-8.01118e-05 0.00720079 -4.0628e-05)
(-0.000100335 0.00842792 -4.29603e-05)
(-0.000119888 0.00839689 -6.20472e-07)
(-0.000114484 0.00773816 -1.69519e-05)
(-0.000101968 0.00732429 -2.58289e-05)
(-9.29316e-05 0.00711692 -3.71602e-05)
(-9.25826e-05 0.00707987 -4.05444e-05)
(-8.92991e-05 0.00727856 -4.21939e-05)
(-8.03156e-05 0.00747198 -3.41239e-05)
(-6.92715e-05 0.00721532 -2.182e-05)
(-6.06006e-05 0.00666322 -1.58976e-05)
(-5.32383e-05 0.00634121 -1.58153e-05)
(-4.49791e-05 0.00621336 -1.69488e-05)
(-4.23181e-05 0.00572047 -1.24742e-05)
(-8.68271e-06 0.00493698 -8.22841e-06)
(7.35048e-06 0.00459902 -9.23522e-06)
(1.05441e-05 0.00460696 -6.48816e-06)
(3.59698e-07 0.00032794 6.65131e-08)
(1.33335e-06 0.000367395 3.60735e-09)
(1.93383e-06 0.000418551 -7.30962e-08)
(2.49511e-06 0.000463936 2.38727e-08)
(2.9512e-06 0.000507867 1.0651e-07)
(3.18921e-06 0.000551831 1.37249e-07)
(3.15228e-06 0.000597665 1.33554e-07)
(2.97219e-06 0.000640005 1.1721e-07)
(2.65003e-06 0.000670791 1.19319e-07)
(2.26735e-06 0.000689412 1.07986e-07)
(1.88391e-06 0.000697661 9.25597e-08)
(1.48572e-06 0.000699856 8.83676e-08)
(1.12349e-06 0.000700049 9.02745e-08)
(8.09081e-07 0.000699657 9.50317e-08)
(5.6259e-07 0.000699035 9.57389e-08)
(3.63282e-07 0.000698377 9.23814e-08)
(2.16414e-07 0.000697731 8.7962e-08)
(1.00223e-07 0.000697101 8.18429e-08)
(2.04858e-08 0.000696537 7.68935e-08)
(-3.94191e-08 0.000696053 7.12749e-08)
(-7.10504e-08 0.000695636 6.76258e-08)
(-9.05542e-08 0.00069528 6.32356e-08)
(-8.6943e-08 0.000694974 6.05681e-08)
(-7.51365e-08 0.000694702 5.71658e-08)
(-4.08209e-08 0.000694463 5.50222e-08)
(4.68871e-10 0.000694252 5.11874e-08)
(6.67756e-08 0.000694062 4.85252e-08)
(1.41447e-07 0.000693904 4.34501e-08)
(2.46155e-07 0.000693788 3.8876e-08)
(3.62328e-07 0.000693705 3.14271e-08)
(5.17075e-07 0.00069365 2.36486e-08)
(6.88832e-07 0.000693621 1.19894e-08)
(9.09954e-07 0.000693629 2.5671e-10)
(1.15554e-06 0.000693688 -1.70491e-08)
(1.46251e-06 0.000693818 -3.62649e-08)
(1.80489e-06 0.000694036 -6.1863e-08)
(2.22761e-06 0.00069437 -8.94474e-08)
(2.70963e-06 0.000694829 -1.29722e-07)
(3.31893e-06 0.00069544 -1.63358e-07)
(4.02491e-06 0.000696753 -1.99801e-07)
(4.90264e-06 0.000702249 -2.30188e-07)
(5.95958e-06 0.000718759 -2.60283e-07)
(7.32432e-06 0.000756444 -3.07082e-07)
(9.08731e-06 0.000834977 -3.57493e-07)
(1.12542e-05 0.000974068 -4.47843e-07)
(1.35006e-05 0.00116903 -9.4299e-07)
(1.55049e-05 0.0014003 -2.14725e-06)
(1.6215e-05 0.00169482 -3.94148e-06)
(1.60042e-05 0.00215278 -2.92009e-06)
(1.71747e-05 0.00275206 -2.14313e-06)
(2.17253e-05 0.00330313 -2.63698e-07)
(5.38547e-05 0.00378453 -9.64862e-06)
(5.37489e-05 0.00439525 -2.54806e-05)
(0.000110996 0.00482873 -6.30211e-05)
(0.000129254 0.00487791 -0.00014292)
(0.000208996 0.0037448 -0.000292697)
(-0.00091855 0.00810871 0.000337479)
(0.000774131 0.018184 -0.00138165)
(-0.000534948 0.0155701 -0.000324549)
(0.0176493 0.184546 0.00422482)
(-0.0127475 0.69067 0.000931114)
(-0.0126422 0.498309 -0.00674781)
(-0.035983 0.558654 -0.0017218)
(-0.00743293 0.529207 -0.00267735)
(-0.00529489 0.556913 0.000842297)
(0.00461172 0.546664 -0.014444)
(0.0286076 0.557116 -0.030071)
(0.0220795 0.55012 0.000474308)
(-0.00133422 0.534541 0.00489157)
(-0.00904681 0.520348 0.00680761)
(-0.0175946 0.485464 0.00505741)
(-0.0173767 0.395348 0.00102942)
(0.000687154 0.278536 0.00198449)
(0.000486202 0.0338706 4.46226e-05)
(0.000350181 0.00919861 -2.32201e-05)
(0.000256615 0.00887665 -4.32904e-05)
(6.9934e-05 0.00923327 -3.90663e-05)
(-0.000103285 0.0100856 1.38757e-05)
(-0.000350116 0.0111625 1.36243e-05)
(-0.000832721 0.0110222 -5.74454e-05)
(-0.000266337 0.00964522 -6.61926e-05)
(-0.00075691 0.00861215 -9.59882e-05)
(-0.000140812 0.00764138 -7.7817e-05)
(-0.000106428 0.00723968 -7.5974e-05)
(-9.09501e-05 0.00703309 -7.34748e-05)
(-8.27909e-05 0.00703619 -7.79589e-05)
(-7.09175e-05 0.00734213 -8.3789e-05)
(-5.98707e-05 0.00760747 -8.13784e-05)
(-4.67783e-05 0.00733696 -7.4553e-05)
(-2.57263e-05 0.00685536 -6.08209e-05)
(-1.03721e-05 0.00669028 -5.28494e-05)
(8.70123e-07 0.00665473 -4.7623e-05)
(-1.21444e-05 0.00637495 -5.79844e-05)
(-2.12404e-05 0.00567121 -1.92418e-05)
(8.94661e-06 0.00488544 -8.27638e-06)
(1.84976e-05 0.00460047 -8.75622e-06)
(6.5842e-07 0.00031843 1.21852e-07)
(2.22147e-06 0.000350823 1.94079e-07)
(2.93703e-06 0.000397842 2.31087e-08)
(3.6152e-06 0.000443714 1.34704e-07)
(4.09257e-06 0.000492904 2.16106e-07)
(4.33938e-06 0.000545266 2.14819e-07)
(4.17785e-06 0.000595174 1.9375e-07)
(3.85588e-06 0.000634921 1.71987e-07)
(3.38713e-06 0.00066387 1.48205e-07)
(2.86895e-06 0.00068364 1.27644e-07)
(2.32693e-06 0.000693781 1.12612e-07)
(1.80043e-06 0.000697771 1.10222e-07)
(1.32188e-06 0.00069898 1.03856e-07)
(9.12685e-07 0.000698982 1.10653e-07)
(5.76446e-07 0.000698511 1.03776e-07)
(3.08054e-07 0.000697946 1.05132e-07)
(9.52429e-08 0.000697362 9.57151e-08)
(-6.60218e-08 0.000696766 9.69457e-08)
(-1.89742e-07 0.000696221 8.75165e-08)
(-2.73123e-07 0.000695757 8.95053e-08)
(-3.29985e-07 0.000695364 8.01116e-08)
(-3.54355e-07 0.000695028 8.34949e-08)
(-3.59813e-07 0.000694739 7.37987e-08)
(-3.37585e-07 0.000694484 7.80751e-08)
(-3.00519e-07 0.000694256 6.68668e-08)
(-2.35802e-07 0.00069406 7.15901e-08)
(-1.55791e-07 0.000693897 5.7853e-08)
(-4.37347e-08 0.000693773 6.21543e-08)
(8.67048e-08 0.000693686 4.47691e-08)
(2.56614e-07 0.000693643 4.84017e-08)
(4.5195e-07 0.000693638 2.63712e-08)
(6.98181e-07 0.000693671 2.89264e-08)
(9.79283e-07 0.000693742 1.28974e-09)
(1.3256e-06 0.00069387 1.65518e-09)
(1.71908e-06 0.000694074 -3.32072e-08)
(2.20124e-06 0.000694376 -3.67095e-08)
(2.7482e-06 0.000694807 -7.80661e-08)
(3.40871e-06 0.000695413 -8.3138e-08)
(4.1903e-06 0.000696233 -1.38558e-07)
(5.13068e-06 0.000698352 -1.35873e-07)
(6.21576e-06 0.000705461 -1.74608e-07)
(7.55225e-06 0.000723493 -1.73134e-07)
(9.13237e-06 0.000760502 -2.6365e-07)
(1.11227e-05 0.00082935 -3.66605e-07)
(1.34328e-05 0.000945288 -5.76085e-07)
(1.57983e-05 0.00111076 -9.39869e-07)
(1.77816e-05 0.00132834 -1.95827e-06)
(1.87903e-05 0.00164487 -3.34982e-06)
(2.17414e-05 0.00213186 -3.68464e-06)
(2.42681e-05 0.00272935 -3.0926e-06)
(2.8424e-05 0.00330743 -3.05347e-06)
(6.28873e-05 0.00394414 -1.99036e-05)
(8.66583e-05 0.00463392 -3.96553e-05)
(0.000110828 0.00490658 -0.000107473)
(9.97804e-05 0.00486746 -0.000180209)
(0.000248562 0.00395417 -0.000353328)
(0.00145811 0.00827232 0.000466922)
(0.000339639 0.0184072 -0.00205743)
(-0.00247709 0.0141127 -0.00106863)
(0.0150358 0.180296 0.00300628)
(-0.00928893 0.705214 -0.0115697)
(-0.0163213 0.52451 -0.000630601)
(-0.0149082 0.557567 -0.0042521)
(-0.00575616 0.547375 -0.00440655)
(0.00118451 0.555673 -0.00626539)
(0.0107443 0.549946 -0.0107266)
(0.0293572 0.546435 -0.010775)
(0.0211087 0.552096 0.00296589)
(0.00184587 0.549484 -0.00113173)
(-0.00819274 0.548501 -0.00234502)
(-0.0101373 0.541119 -0.00520222)
(-0.0149426 0.533805 -0.0059251)
(-0.0128388 0.541869 -0.00335138)
(-0.0046507 0.54311 -0.00179406)
(-0.000867509 0.543607 -0.000884321)
(0.00297849 0.540581 0.00206497)
(0.00559618 0.537065 0.00382181)
(0.00527645 0.522364 0.00134621)
(0.00483197 0.480017 0.000495084)
(0.00216304 0.32023 0.000609786)
(-0.000282269 0.0531231 2.18812e-05)
(-0.00231869 0.183379 -0.00141292)
(1.96935e-05 0.0308449 -3.74148e-05)
(0.000182636 0.00818035 -8.17769e-05)
(3.39467e-05 0.00712386 -0.000104767)
(1.89915e-05 0.00707657 -8.15115e-05)
(1.14318e-05 0.00728873 -7.06646e-05)
(8.90279e-06 0.00745314 -6.9943e-05)
(1.46467e-05 0.00720427 -4.46118e-05)
(3.1053e-05 0.00699456 -4.29946e-05)
(4.9144e-05 0.00700697 -4.38447e-05)
(4.46065e-05 0.00697685 -3.91933e-05)
(2.8003e-05 0.00684166 -6.89075e-05)
(-5.12465e-06 0.00641856 -8.23821e-05)
(-4.48072e-06 0.00558332 -2.82565e-05)
(2.0775e-05 0.00482869 -2.29413e-06)
(9.51691e-07 0.000310369 1.93458e-07)
(3.11533e-06 0.000336614 3.61787e-07)
(3.98329e-06 0.000377969 8.40356e-08)
(4.7981e-06 0.000421827 1.37662e-07)
(5.19317e-06 0.000469087 2.41526e-07)
(5.42727e-06 0.000521864 2.59399e-07)
(5.15074e-06 0.000580024 2.19483e-07)
(4.65227e-06 0.000627818 1.80523e-07)
(4.02802e-06 0.000658361 1.48078e-07)
(3.36141e-06 0.000678587 1.14864e-07)
(2.69291e-06 0.000690433 1.0697e-07)
(2.06573e-06 0.000696083 9.6824e-08)
(1.51104e-06 0.000698226 9.65724e-08)
(1.02087e-06 0.000698601 9.17876e-08)
(6.20608e-07 0.000698295 9.54086e-08)
(2.85072e-07 0.000697827 8.70015e-08)
(1.91702e-08 0.000697311 8.94506e-08)
(-1.95443e-07 0.000696773 8.10452e-08)
(-3.55512e-07 0.000696284 8.4139e-08)
(-4.76933e-07 0.000695869 7.38376e-08)
(-5.54528e-07 0.00069552 7.60157e-08)
(-6.02582e-07 0.000695222 6.39219e-08)
(-6.13454e-07 0.000694966 6.63687e-08)
(-5.99824e-07 0.000694739 5.30401e-08)
(-5.51254e-07 0.00069454 5.61591e-08)
(-4.79762e-07 0.000694368 4.09455e-08)
(-3.72248e-07 0.00069423 4.43664e-08)
(-2.41244e-07 0.000694125 2.64116e-08)
(-6.9423e-08 0.000694058 3.02536e-08)
(1.31849e-07 0.00069403 8.66894e-09)
(3.8339e-07 0.000694046 1.1571e-08)
(6.73349e-07 0.000694103 -1.42367e-08)
(1.02572e-06 0.000694216 -1.20481e-08)
(1.42916e-06 0.000694396 -4.41193e-08)
(1.9148e-06 0.000694674 -4.28256e-08)
(2.47284e-06 0.000695058 -8.35547e-08)
(3.14642e-06 0.000695576 -8.37025e-08)
(3.9344e-06 0.000696267 -1.24755e-07)
(4.86884e-06 0.000697447 -1.26027e-07)
(5.94668e-06 0.000700424 -1.65037e-07)
(7.21018e-06 0.000707971 -1.61463e-07)
(8.62883e-06 0.000725721 -2.49265e-07)
(1.0404e-05 0.000763842 -3.17876e-07)
(1.23655e-05 0.000834046 -5.12941e-07)
(1.45328e-05 0.000944929 -7.79451e-07)
(1.67382e-05 0.00110015 -1.16897e-06)
(1.87399e-05 0.00132185 -2.07515e-06)
(2.0229e-05 0.00166648 -2.75793e-06)
(2.43131e-05 0.00216241 -3.12599e-06)
(2.41563e-05 0.00272949 -4.18286e-06)
(3.36933e-05 0.0034116 -7.8996e-06)
(4.72605e-05 0.00427807 -2.00822e-05)
(6.51512e-05 0.00486635 -6.48756e-06)
(2.95411e-05 0.00490509 -4.92847e-05)
(1.57259e-05 0.00493303 -8.01131e-05)
(1.08717e-05 0.0050015 -0.000334475)
(0.00038981 0.00714853 -1.3965e-05)
(-0.000530312 0.0101411 -0.000254082)
(-0.000703481 0.0120477 0.000481754)
(-0.000546993 0.198641 0.00467782)
(-0.0102192 0.713148 -0.0125446)
(-0.00553451 0.523981 0.000954143)
(-0.0114298 0.555969 -0.00421921)
(-0.00576629 0.54616 -0.0016864)
(0.00470443 0.545522 -0.00252477)
(0.0130779 0.541917 -0.00565981)
(0.0310715 0.549217 -0.0063796)
(0.0253929 0.551139 -0.0043095)
(0.0115732 0.551205 0.00135798)
(0.00296095 0.554369 0.00587394)
(-0.00127162 0.549668 -0.000443221)
(-0.00213268 0.538821 -0.00397324)
(-0.00590965 0.53992 -0.00555386)
(-0.002192 0.546102 -0.00173448)
(-0.00201529 0.541122 -0.00303274)
(-0.00303275 0.540581 -0.00136664)
(-0.00259489 0.540405 0.000696821)
(-0.00233817 0.538766 -0.000991561)
(-0.00206321 0.538309 -0.00256914)
(-0.000879433 0.538014 -0.00191434)
(-0.000584077 0.535155 -0.00019727)
(0.000244791 0.532255 0.0021364)
(0.000887766 0.511195 0.0038245)
(0.00273282 0.401249 0.00408417)
(0.000275341 0.0298992 4.85664e-05)
(0.000312634 0.0085633 -2.37202e-05)
(0.000388127 0.00858195 -4.48338e-05)
(0.000371207 0.0082816 -4.60465e-05)
(0.000349956 0.00730193 -4.59231e-05)
(8.07585e-05 0.0069793 -3.29237e-05)
(5.0338e-05 0.00701976 -2.39859e-05)
(3.4342e-05 0.00704087 -2.75581e-05)
(3.29003e-05 0.0069976 -4.94845e-05)
(1.88409e-05 0.00682869 -8.19058e-05)
(1.29404e-05 0.00619609 -6.58589e-05)
(2.73286e-05 0.00524945 -2.50985e-05)
(1.33408e-06 0.000303172 2.80163e-07)
(4.13996e-06 0.000324984 5.5861e-07)
(5.14997e-06 0.000358578 1.82303e-07)
(6.1254e-06 0.000399111 1.5859e-07)
(6.29612e-06 0.000447703 1.89474e-07)
(6.36435e-06 0.000497997 2.18946e-07)
(6.07269e-06 0.000556405 2.38512e-07)
(5.43082e-06 0.000615021 1.63053e-07)
(4.58443e-06 0.000652216 1.26145e-07)
(3.79475e-06 0.000673409 9.578e-08)
(2.99679e-06 0.000686936 7.37255e-08)
(2.28791e-06 0.000694106 7.63198e-08)
(1.66557e-06 0.000697116 6.27102e-08)
(1.12229e-06 0.000697804 7.44615e-08)
(6.56486e-07 0.000697584 7.31275e-08)
(2.70441e-07 0.000697165 8.29657e-08)
(-4.65715e-08 0.000696711 7.51706e-08)
(-2.95911e-07 0.000696232 8.15607e-08)
(-4.90366e-07 0.000695795 7.12321e-08)
(-6.315e-07 0.00069543 7.40164e-08)
(-7.29908e-07 0.000695128 5.94113e-08)
(-7.84976e-07 0.000694879 5.96402e-08)
(-8.03554e-07 0.000694669 4.23655e-08)
(-7.83407e-07 0.000694491 4.23249e-08)
(-7.31807e-07 0.000694336 2.40049e-08)
(-6.43006e-07 0.000694211 2.54301e-08)
(-5.20408e-07 0.000694119 5.42587e-09)
(-3.58016e-07 0.000694065 7.59285e-09)
(-1.59502e-07 0.000694047 -1.44777e-08)
(8.43201e-08 0.000694074 -1.15395e-08)
(3.70785e-07 0.000694145 -3.66816e-08)
(7.12783e-07 0.000694268 -3.41967e-08)
(1.11053e-06 0.00069445 -6.53655e-08)
(1.58245e-06 0.000694715 -6.55215e-08)
(2.13227e-06 0.000695083 -1.03291e-07)
(2.77887e-06 0.00069559 -1.07349e-07)
(3.54062e-06 0.000696264 -1.52793e-07)
(4.43661e-06 0.000697111 -1.61083e-07)
(5.47368e-06 0.000698445 -2.12177e-07)
(6.68216e-06 0.000701499 -2.19014e-07)
(8.05306e-06 0.00070847 -2.7929e-07)
(9.57917e-06 0.000724665 -3.08337e-07)
(1.13622e-05 0.000760692 -4.84999e-07)
(1.32516e-05 0.000829325 -6.56442e-07)
(1.51903e-05 0.000940084 -9.17041e-07)
(1.70702e-05 0.00110415 -1.21181e-06)
(1.89934e-05 0.00135377 -1.95264e-06)
(2.14186e-05 0.00173115 -2.38221e-06)
(2.57726e-05 0.00219698 -3.46627e-06)
(2.55854e-05 0.00276354 -4.41524e-06)
(4.60685e-05 0.00365447 -2.04174e-05)
(6.60348e-05 0.0045669 -3.7279e-05)
(8.32956e-05 0.00487672 -5.12293e-05)
(4.06796e-06 0.00483132 -4.01225e-05)
(-5.39836e-06 0.00479274 2.36804e-05)
(-0.000203103 0.00428206 -9.39394e-05)
(-0.00134261 0.0075627 0.0007276)
(-0.0010467 0.012992 -8.62689e-05)
(0.00210701 0.0141127 0.000282246)
(-0.0247522 0.239754 0.00858802)
(-0.00575725 0.672068 -0.00476899)
(-0.0052104 0.529174 0.00285554)
(-0.00507892 0.550291 -0.000526153)
(-0.00615755 0.539697 0.000613006)
(0.00148551 0.537383 -0.000460719)
(0.0115603 0.532457 -0.00257731)
(0.027262 0.538591 -0.0077304)
(0.0351872 0.548108 -0.0166486)
(0.0241742 0.562086 -0.0114717)
(0.0079896 0.567139 0.00737551)
(0.00294139 0.553829 0.0126411)
(0.00133924 0.540328 0.00135165)
(-0.0018789 0.542165 -0.00319756)
(-0.000113006 0.543889 -0.00469567)
(0.000423214 0.540576 -0.00379867)
(0.000159313 0.540888 -0.00605778)
(0.000138726 0.540824 -0.00522318)
(0.000159516 0.54059 -0.00426277)
(0.000692592 0.539518 -0.00559941)
(-0.000749787 0.539142 -0.00372433)
(-0.00433421 0.540362 0.000233712)
(-0.00596796 0.535902 0.00542297)
(-0.00505194 0.532248 0.00891828)
(-0.00311221 0.532614 0.00656639)
(-0.00217389 0.533176 0.00462316)
(-0.000735793 0.525462 0.00276236)
(0.00138144 0.518268 0.0026568)
(-0.00620275 0.498883 0.0014293)
(-0.0113032 0.344583 0.000631516)
(-0.000121753 0.0274661 -0.000283175)
(-0.000194078 0.00483346 -0.000355384)
(-0.00015235 0.00463606 -1.96175e-05)
(-0.000161388 0.00460658 -2.81054e-05)
(-0.000173337 0.00462885 -3.14474e-05)
(-0.000156568 0.00465189 -3.83908e-05)
(-1.11923e-05 0.00461634 -3.15923e-05)
(1.88209e-06 0.000296719 4.03933e-07)
(5.53402e-06 0.00031594 9.43254e-07)
(6.49913e-06 0.000342576 4.53779e-07)
(7.42157e-06 0.000379075 3.51108e-07)
(7.3885e-06 0.000429544 2.05227e-07)
(7.14471e-06 0.000480807 1.37383e-07)
(6.75362e-06 0.000537391 2.71893e-07)
(6.06634e-06 0.000599827 1.55836e-07)
(5.02017e-06 0.000643547 1.24906e-07)
(4.13196e-06 0.000668221 8.70759e-08)
(3.24222e-06 0.000683607 7.78774e-08)
(2.51781e-06 0.000692299 6.57283e-08)
(1.8674e-06 0.000696266 6.25778e-08)
(1.26031e-06 0.000697319 5.9828e-08)
(7.11541e-07 0.000697266 8.05757e-08)
(2.73086e-07 0.000696978 8.59763e-08)
(-7.7695e-08 0.000696627 9.66923e-08)
(-3.43832e-07 0.000696222 8.99706e-08)
(-5.44377e-07 0.000695846 8.91912e-08)
(-6.88508e-07 0.000695531 7.22027e-08)
(-7.83962e-07 0.000695264 6.65002e-08)
(-8.33337e-07 0.000695027 4.74342e-08)
(-8.4251e-07 0.000694829 4.19632e-08)
(-8.10569e-07 0.000694669 2.32991e-08)
(-7.41905e-07 0.000694539 1.99694e-08)
(-6.32445e-07 0.000694436 1.14912e-09)
(-4.91063e-07 0.000694372 -1.68544e-09)
(-3.08456e-07 0.000694348 -2.17677e-08)
(-8.85856e-08 0.000694373 -2.33258e-08)
(1.82096e-07 0.000694444 -4.54395e-08)
(5.00761e-07 0.000694569 -4.76184e-08)
(8.83775e-07 0.000694748 -7.44452e-08)
(1.32947e-06 0.000695 -8.06348e-08)
(1.8588e-06 0.000695342 -1.16229e-07)
(2.47162e-06 0.000695809 -1.29462e-07)
(3.19858e-06 0.000696429 -1.74598e-07)
(4.04702e-06 0.000697243 -1.94868e-07)
(5.04348e-06 0.000698259 -2.51789e-07)
(6.18499e-06 0.000699728 -2.83963e-07)
(7.4948e-06 0.000702637 -3.55689e-07)
(8.95805e-06 0.000708836 -4.12791e-07)
(1.06425e-05 0.000723297 -4.85663e-07)
(1.23414e-05 0.000756758 -5.93799e-07)
(1.41725e-05 0.000822951 -7.31539e-07)
(1.59964e-05 0.000936677 -8.06355e-07)
(1.77869e-05 0.00111848 -8.98761e-07)
(1.97082e-05 0.00139711 -1.15248e-06)
(2.34009e-05 0.00178933 -1.60524e-06)
(2.75252e-05 0.0022213 -2.74422e-06)
(2.72443e-05 0.00284184 -3.49275e-06)
(2.97777e-05 0.00391423 -2.1427e-05)
(7.03015e-05 0.00473052 -2.6696e-05)
(8.08236e-05 0.00487708 -6.92166e-05)
(2.47563e-05 0.00477923 -3.99358e-05)
(-3.67718e-05 0.00467551 1.49768e-05)
(-0.000196057 0.00367203 3.21237e-05)
(-8.13444e-05 0.00758716 0.00128528)
(-0.000688841 0.014873 0.000463796)
(0.000332679 0.0190763 -0.00070436)
(-0.0194627 0.240352 0.0111129)
(-0.00285086 0.682933 -0.0126467)
(-0.0112275 0.522015 0.00784118)
(-9.88879e-05 0.553541 -0.0021401)
(-0.00276119 0.535813 0.00218711)
(0.00608903 0.528641 0.000359539)
(0.0195085 0.524013 -0.0013823)
(0.027295 0.528392 -0.00545105)
(0.0223557 0.540997 -0.00652718)
(0.0227318 0.555003 -0.0172157)
(0.0203195 0.574697 -0.017271)
(0.0104344 0.580775 0.0193776)
(0.00821969 0.552497 0.0194649)
(0.00361315 0.543518 0.00101876)
(0.00110736 0.548176 -0.00419756)
(0.00327895 0.545848 -0.00439447)
(0.00245777 0.538917 -0.00486543)
(0.00155953 0.538113 -0.00508084)
(-0.000509429 0.539797 -0.00366853)
(-0.00180013 0.538461 -0.00534504)
(-0.0022623 0.538978 -0.0082207)
(-0.00353656 0.543932 -0.00679169)
(-0.00466871 0.545182 -0.00358657)
(-0.00396826 0.543524 0.000542784)
(-0.00362156 0.541178 0.00347218)
(-0.00591404 0.538276 0.00651531)
(-0.00867069 0.530182 0.0128507)
(-0.00769483 0.527355 0.0144224)
(-0.00964055 0.525392 0.0112281)
(-0.0117405 0.524219 0.00501146)
(-0.0111187 0.524506 0.00305579)
(-0.018242 0.520354 -0.00286469)
(-0.0236486 0.516054 -0.0116331)
(-0.0221323 0.513676 -0.00884602)
(-0.0179349 0.489947 -0.0169255)
(-0.0144201 0.360092 -0.0226269)
(-0.000465786 0.0278234 -0.00125848)
(3.35155e-06 0.000288484 9.14939e-07)
(7.24457e-06 0.000307925 1.74324e-06)
(7.97874e-06 0.00033059 9.34656e-07)
(8.58258e-06 0.000363638 7.46155e-07)
(8.36368e-06 0.00041502 4.05805e-07)
(7.85829e-06 0.000471818 2.08356e-07)
(7.30582e-06 0.000528164 3.61629e-07)
(6.6265e-06 0.000584006 1.75738e-07)
(5.34589e-06 0.000630822 1.31151e-07)
(4.40202e-06 0.000662893 8.46362e-08)
(3.43665e-06 0.000681251 7.27475e-08)
(2.66475e-06 0.000691004 7.63637e-08)
(1.93449e-06 0.00069535 9.38064e-08)
(1.24871e-06 0.000696604 1.20734e-07)
(6.56433e-07 0.000696667 1.42814e-07)
(1.76995e-07 0.000696509 1.63827e-07)
(-1.90639e-07 0.00069628 1.70678e-07)
(-4.67145e-07 0.000695963 1.81791e-07)
(-6.67759e-07 0.000695654 1.81173e-07)
(-8.14307e-07 0.000695399 1.85662e-07)
(-9.04378e-07 0.000695198 1.76607e-07)
(-9.53633e-07 0.000695042 1.71287e-07)
(-9.5538e-07 0.000694924 1.54586e-07)
(-9.23342e-07 0.000694835 1.44221e-07)
(-8.46669e-07 0.000694774 1.2335e-07)
(-7.3759e-07 0.000694743 1.11226e-07)
(-5.84333e-07 0.000694747 8.91337e-08)
(-3.97831e-07 0.000694792 7.69971e-08)
(-1.58929e-07 0.000694881 5.35232e-08)
(1.26036e-07 0.000695019 4.06235e-08)
(4.80052e-07 0.000695208 1.35283e-08)
(8.92737e-07 0.000695462 -3.23405e-09)
(1.38892e-06 0.000695798 -3.83068e-08)
(1.96146e-06 0.000696246 -6.48482e-08)
(2.64426e-06 0.000696837 -1.1254e-07)
(3.43381e-06 0.000697608 -1.51015e-07)
(4.37107e-06 0.000698584 -2.11104e-07)
(5.44628e-06 0.000699795 -2.61963e-07)
(6.68346e-06 0.000701393 -3.41111e-07)
(8.04387e-06 0.000704011 -4.2381e-07)
(9.55404e-06 0.000709089 -5.37936e-07)
(1.12104e-05 0.000721844 -6.47451e-07)
(1.29746e-05 0.000755294 -7.20917e-07)
(1.48179e-05 0.000824887 -7.75361e-07)
(1.6641e-05 0.000944184 -7.70218e-07)
(1.84445e-05 0.00113555 -6.74383e-07)
(2.0822e-05 0.00142434 -9.00306e-07)
(2.35432e-05 0.00178963 -2.00579e-06)
(2.41585e-05 0.00214074 -2.02528e-06)
(1.78618e-05 0.00276224 3.02528e-06)
(-1.87898e-05 0.00396199 5.62298e-06)
(-3.31562e-05 0.00477887 1.29107e-05)
(-4.35215e-05 0.00485872 -3.00795e-05)
(-8.66614e-05 0.00471937 -3.62814e-05)
(-0.000226999 0.00458979 7.76109e-05)
(-0.000257552 0.00394685 0.000240112)
(0.000473561 0.00711446 0.00158505)
(-0.000591078 0.0117087 0.00165328)
(-0.000264559 0.0240877 -0.00115919)
(-0.0211057 0.222656 0.00988707)
(0.00528992 0.687616 -0.0291911)
(0.00689189 0.509779 0.0154409)
(0.00650502 0.550193 -0.00669089)
(-0.00160323 0.526496 -0.000473946)
(0.0104522 0.523234 -0.00643597)
(0.00596374 0.525113 -0.00964706)
(0.0172862 0.535711 -0.00349142)
(0.0137252 0.54329 -0.00497374)
(0.00663965 0.552792 -0.00682162)
(-0.00397643 0.566652 -0.015353)
(0.0026621 0.575916 -0.00885379)
(0.0140263 0.571352 0.0312212)
(0.0102353 0.547993 0.0269552)
(0.00798072 0.548983 0.00816231)
(0.00768832 0.541929 0.00164098)
(0.00787684 0.534408 0.00042558)
(0.00658272 0.535113 -0.00283255)
(0.00498777 0.535346 -0.00150918)
(0.00168912 0.537228 -0.00191644)
(-0.00227632 0.538551 -0.00655046)
(-0.00691517 0.545339 -0.0121881)
(-0.00881729 0.555452 -0.015443)
(-0.00358569 0.558787 -0.00951701)
(-0.000591968 0.558546 -0.00275812)
(-0.00357433 0.550609 -0.00016648)
(-0.00957436 0.543041 0.00159429)
(-0.0149145 0.537872 0.00329905)
(-0.0192792 0.533255 0.00208926)
(-0.0237337 0.530261 -0.00197974)
(-0.028678 0.527543 -0.00378175)
(-0.0338781 0.521111 -0.00729547)
(-0.0344476 0.526216 -0.0145451)
(-0.0325233 0.5311 -0.00777425)
(-0.0245123 0.510601 -0.0163478)
(-0.0212941 0.416069 -0.0325872)
(-0.00337076 0.157616 0.02427)
(4.93174e-06 0.000171023 2.29921e-06)
(9.06613e-06 0.00030424 2.62694e-06)
(9.35339e-06 0.000317277 1.28071e-06)
(9.59684e-06 0.00034929 9.38365e-07)
(9.12274e-06 0.000401869 4.69863e-07)
(8.4157e-06 0.000465917 2.35829e-07)
(7.65759e-06 0.00052278 2.75066e-07)
(6.9044e-06 0.000567542 1.73752e-07)
(5.82303e-06 0.000615644 -1.93469e-08)
(4.81072e-06 0.00065676 -8.91136e-08)
(3.85722e-06 0.000678623 -1.20553e-07)
(3.02686e-06 0.000689268 -1.5838e-07)
(2.28501e-06 0.000693998 -1.6776e-07)
(1.66021e-06 0.000695538 -1.66738e-07)
(1.13672e-06 0.000695747 -1.63666e-07)
(7.21145e-07 0.000695719 -1.74693e-07)
(3.8254e-07 0.000695626 -1.85445e-07)