/*--------------------------------*- C++ -*----------------------------------*\
| =========                 |                                                 |
| \\      /  F ield         | OpenFOAM: The Open Source CFD Toolbox           |
|  \\    /   O peration     | Version:  2.3.0                                 |
|   \\  /    A nd           | Web:      www.OpenFOAM.org                      |
|    \\/     M anipulation  |                                                 |
\*---------------------------------------------------------------------------*/
FoamFile
{
    version     2.0;
    format      ascii;
    class       volScalarField;
    location    "63";
    object      alpha.water;
}
// * * * * * * * * * * * * * * * * * * * * * * * * * * * * * * * * * * * * * //

dimensions      [0 0 0 0 0 0 0];

internalField   nonuniform List<scalar> 
6144
(
3.68562e-06
4.32038e-06
4.73063e-06
5.13664e-06
5.57223e-06
6.32684e-06
7.32195e-06
8.33663e-06
9.26428e-06
9.82608e-06
9.95576e-06
9.97141e-06
9.97476e-06
9.97992e-06
9.98275e-06
9.98516e-06
9.98592e-06
9.98665e-06
9.98629e-06
9.98626e-06
9.98626e-06
9.98627e-06
9.9861e-06
9.98571e-06
9.98512e-06
9.98455e-06
9.98422e-06
9.98376e-06
9.983e-06
9.9823e-06
9.9816e-06
9.98097e-06
9.98017e-06
9.97932e-06
9.97833e-06
9.97744e-06
9.97651e-06
9.97558e-06
9.97419e-06
9.97251e-06
9.97252e-06
1.00271e-05
1.04362e-05
1.14978e-05
1.36265e-05
1.74444e-05
2.33345e-05
3.17992e-05
4.06e-05
5.33693e-05
7.42141e-05
9.91074e-05
0.000120255
0.000136319
0.000141635
0.00014685
0.000146942
0.000152447
0.00102857
0.0617435
0.950239
0.999671
0.999999
1
1
1
1
1
1
1
1
1
1
1
1
0.999999
0.999999
0.999999
0.999999
0.999999
0.999999
0.999999
0.999999
0.999999
0.999999
0.999999
0.999999
0.999999
0.999999
0.999999
1
1
1
1
1
1
3.35012e-06
4.13179e-06
4.85964e-06
5.32481e-06
5.9562e-06
6.61726e-06
7.48862e-06
8.45179e-06
9.31646e-06
9.82837e-06
9.94972e-06
9.96881e-06
9.97509e-06
9.98283e-06
9.98816e-06
9.99201e-06
9.99357e-06
9.99409e-06
9.99351e-06
9.99316e-06
9.99314e-06
9.99299e-06
9.99263e-06
9.99224e-06
9.99178e-06
9.99141e-06
9.99156e-06
9.99128e-06
9.9908e-06
9.9904e-06
9.99006e-06
9.98956e-06
9.98882e-06
9.98782e-06
9.98664e-06
9.98536e-06
9.98409e-06
9.98274e-06
9.98143e-06
9.98045e-06
9.99154e-06
1.01505e-05
1.06547e-05
1.18435e-05
1.43621e-05
1.88307e-05
2.52324e-05
3.33481e-05
4.57821e-05
5.97372e-05
7.2086e-05
0.000100619
0.000130863
0.000146751
0.000149598
0.000149824
0.000148185
0.000152738
0.000552853
0.060672
0.963213
0.999867
1
1
0.999999
0.999999
0.999999
0.999999
0.999999
0.999999
0.999999
0.999999
0.999999
0.999999
0.999999
0.999999
0.999999
0.999999
0.999999
0.999999
0.999999
0.999999
0.999999
0.999999
0.999999
0.999999
0.999999
0.999999
0.999999
0.999999
0.999999
1
1
1
1
1
3.16089e-06
3.80865e-06
4.63287e-06
5.23098e-06
6.06209e-06
6.73846e-06
7.66089e-06
8.54897e-06
9.22006e-06
9.66112e-06
9.85252e-06
9.92061e-06
9.95383e-06
9.97272e-06
9.98193e-06
9.98853e-06
9.99183e-06
9.99276e-06
9.99292e-06
9.99323e-06
9.99303e-06
9.99302e-06
9.99284e-06
9.99253e-06
9.99204e-06
9.9916e-06
9.99073e-06
9.98998e-06
9.98957e-06
9.98925e-06
9.98867e-06
9.98774e-06
9.98642e-06
9.985e-06
9.9835e-06
9.9821e-06
9.98084e-06
9.97991e-06
9.98036e-06
9.9838e-06
1.00293e-05
1.02475e-05
1.08148e-05
1.21566e-05
1.48069e-05
1.88474e-05
2.47655e-05
3.39512e-05
4.53493e-05
5.77096e-05
7.47734e-05
0.000118341
0.00014681
0.000154539
0.000154316
0.000155766
0.000151152
0.000154338
0.000601026
0.0628707
0.971495
0.999909
1
1
0.999999
0.999999
0.999999
0.999999
0.999999
0.999999
0.999999
0.999999
0.999999
0.999999
0.999999
0.999999
0.999999
0.999999
0.999999
0.999999
0.999999
0.999999
0.999999
0.999999
0.999999
0.999999
0.999999
0.999999
0.999999
0.999999
1
0.999999
1
1
1
1
3.05521e-06
3.50997e-06
4.33389e-06
4.90931e-06
5.80444e-06
6.60165e-06
7.6887e-06
8.45956e-06
9.10726e-06
9.56128e-06
9.78813e-06
9.89327e-06
9.94321e-06
9.96733e-06
9.97753e-06
9.98497e-06
9.98834e-06
9.98898e-06
9.98879e-06
9.98873e-06
9.98857e-06
9.98838e-06
9.98818e-06
9.98775e-06
9.98715e-06
9.9864e-06
9.98579e-06
9.98524e-06
9.98493e-06
9.9846e-06
9.9844e-06
9.98384e-06
9.98297e-06
9.98178e-06
9.98066e-06
9.97948e-06
9.97853e-06
9.97832e-06
9.97931e-06
9.98711e-06
1.00541e-05
1.02907e-05
1.09249e-05
1.23423e-05
1.4795e-05
1.83596e-05
2.39057e-05
3.24667e-05
4.1893e-05
4.91839e-05
8.70766e-05
0.000141035
0.000155499
0.000158633
0.00015945
0.000164155
0.000158814
0.000161442
0.000240623
0.103212
0.990758
0.99999
0.999997
0.999997
0.999998
0.999998
0.999999
0.999999
0.999999
0.999999
0.999999
0.999999
0.999999
0.999999
0.999999
0.999999
0.999999
0.999999
0.999999
0.999999
0.999999
0.999999
0.999999
0.999999
0.999999
0.999999
0.999999
0.999999
0.999999
0.999999
1
1
1
1
1
1
2.95942e-06
3.27949e-06
4.02087e-06
4.55533e-06
5.47256e-06
6.21351e-06
7.43826e-06
8.38038e-06
9.00991e-06
9.47249e-06
9.73549e-06
9.87495e-06
9.93997e-06
9.96883e-06
9.98042e-06
9.98846e-06
9.9919e-06
9.99264e-06
9.99262e-06
9.99276e-06
9.99271e-06
9.99271e-06
9.99247e-06
9.99212e-06
9.99144e-06
9.99072e-06
9.98992e-06
9.98924e-06
9.9885e-06
9.98782e-06
9.98698e-06
9.98597e-06
9.98465e-06
9.98327e-06
9.98186e-06
9.98061e-06
9.97932e-06
9.97797e-06
9.97917e-06
9.99955e-06
1.00856e-05
1.03279e-05
1.09781e-05
1.23557e-05
1.46501e-05
1.79892e-05
2.30529e-05
3.15178e-05
4.23734e-05
5.45792e-05
0.000108943
0.000153146
0.000157721
0.000160543
0.000161594
0.000168573
0.000161331
0.000168251
0.000147205
0.167131
0.998135
0.999674
0.999671
0.999692
0.999718
0.999758
0.999803
0.999845
0.999888
0.999926
0.999955
0.999975
0.999987
0.999993
0.999997
0.999998
0.999999
0.999999
0.999999
0.999999
0.999999
0.999999
0.999999
0.999999
0.999999
0.999999
0.999999
0.999999
1
1
1
1
1
1
1
1
2.8634e-06
3.1296e-06
3.71938e-06
4.17977e-06
5.16553e-06
5.87348e-06
6.94734e-06
8.25283e-06
8.89785e-06
9.38413e-06
9.68095e-06
9.85356e-06
9.93227e-06
9.96453e-06
9.97525e-06
9.98246e-06
9.98583e-06
9.98642e-06
9.98641e-06
9.98642e-06
9.98653e-06
9.98663e-06
9.98664e-06
9.98651e-06
9.98609e-06
9.98549e-06
9.98498e-06
9.98443e-06
9.9839e-06
9.98329e-06
9.98262e-06
9.98165e-06
9.98047e-06
9.9791e-06
9.9778e-06
9.9766e-06
9.97592e-06
9.97583e-06
9.97583e-06
9.99902e-06
1.00879e-05
1.03093e-05
1.08868e-05
1.21299e-05
1.43436e-05
1.77705e-05
2.27197e-05
3.036e-05
4.1262e-05
6.44709e-05
0.000119127
0.000155617
0.000158667
0.000159632
0.000161505
0.000166986
0.000161128
0.000163852
0.000147205
0.167419
0.989076
0.996607
0.996135
0.996012
0.996192
0.996446
0.996797
0.997133
0.99754
0.997946
0.998381
0.998793
0.999148
0.999421
0.999624
0.999761
0.999854
0.999908
0.99994
0.999959
0.999973
0.999985
0.999993
0.999996
0.999995
0.999994
0.999996
0.999998
0.999997
0.999999
1
1
1
1
1
1
2.76354e-06
3.0269e-06
3.48317e-06
3.85619e-06
4.88969e-06
5.65101e-06
6.62026e-06
7.99904e-06
8.75309e-06
9.29556e-06
9.62626e-06
9.83396e-06
9.93021e-06
9.96667e-06
9.97822e-06
9.98653e-06
9.99025e-06
9.99094e-06
9.99082e-06
9.99088e-06
9.99082e-06
9.99022e-06
9.98968e-06
9.98924e-06
9.98856e-06
9.98769e-06
9.98682e-06
9.98611e-06
9.98547e-06
9.98482e-06
9.98403e-06
9.98299e-06
9.98168e-06
9.98025e-06
9.97885e-06
9.97763e-06
9.97692e-06
9.9769e-06
9.97765e-06
1.00022e-05
1.00823e-05
1.02712e-05
1.07778e-05
1.18947e-05
1.38901e-05
1.71762e-05
2.22409e-05
2.98506e-05
3.61627e-05
6.95511e-05
0.000125705
0.000155339
0.000158544
0.000159683
0.000160756
0.000161675
0.000160187
0.000165128
0.000147205
0.135812
0.966353
0.990112
0.988351
0.987887
0.987789
0.987992
0.988421
0.988695
0.98929
0.9901
0.991085
0.992116
0.993223
0.994279
0.995247
0.996125
0.996914
0.997561
0.998063
0.99836
0.998488
0.998552
0.998589
0.9986
0.998488
0.998376
0.998323
0.998329
0.998639
0.999042
0.999571
0.999832
0.999824
0.999815
0.999852
0.999895
2.61604e-06
2.94537e-06
3.32259e-06
3.62381e-06
4.66377e-06
5.51547e-06
6.58011e-06
7.62411e-06
8.55737e-06
9.21784e-06
9.6006e-06
9.82475e-06
9.92673e-06
9.96592e-06
9.97665e-06
9.98572e-06
9.98996e-06
9.9908e-06
9.99069e-06
9.99073e-06
9.99076e-06
9.99094e-06
9.99109e-06
9.99117e-06
9.99106e-06
9.99083e-06
9.99052e-06
9.99021e-06
9.9899e-06
9.98942e-06
9.98865e-06
9.98758e-06
9.98629e-06
9.98496e-06
9.9838e-06
9.98293e-06
9.98254e-06
9.98276e-06
9.98554e-06
1.00041e-05
1.00617e-05
1.022e-05
1.07599e-05
1.19693e-05
1.3998e-05
1.71517e-05
2.23531e-05
3.075e-05
3.75043e-05
8.07735e-05
0.000139862
0.000156415
0.000157742
0.000159153
0.000160881
0.00016154
0.000160684
0.000207017
0.00037734
0.124625
0.959096
0.986053
0.984031
0.983581
0.983133
0.982832
0.982728
0.982831
0.982727
0.983325
0.983929
0.984709
0.985632
0.986777
0.987868
0.98891
0.989878
0.990976
0.992279
0.993725
0.994654
0.995011
0.994703
0.994312
0.993854
0.993442
0.993056
0.992717
0.992301
0.991512
0.990248
0.988895
0.988232
0.987901
0.987699
0.990291
2.37686e-06
2.84347e-06
3.14801e-06
3.44534e-06
4.4599e-06
5.42784e-06
6.69148e-06
7.21527e-06
8.31905e-06
9.13899e-06
9.57508e-06
9.80926e-06
9.91664e-06
9.95862e-06
9.96865e-06
9.97859e-06
9.98353e-06
9.98495e-06
9.98478e-06
9.98484e-06
9.98506e-06
9.98558e-06
9.98591e-06
9.98609e-06
9.9861e-06
9.98601e-06
9.9858e-06
9.98556e-06
9.98532e-06
9.98491e-06
9.98426e-06
9.98329e-06
9.98204e-06
9.98076e-06
9.9798e-06
9.97962e-06
9.97962e-06
9.97962e-06
9.98038e-06
9.99685e-06
1.00379e-05
1.01868e-05
1.07606e-05
1.20121e-05
1.40195e-05
1.73663e-05
2.38652e-05
3.35629e-05
4.20814e-05
7.7994e-05
0.000138385
0.000156824
0.000157168
0.000158761
0.000160518
0.000160816
0.000155359
0.000204936
0.000493032
0.0978992
0.961613
0.992709
0.993677
0.99565
0.996331
0.996431
0.99638
0.996434
0.996362
0.99634
0.996369
0.996371
0.996296
0.996235
0.996189
0.996112
0.996027
0.995979
0.995958
0.995931
0.996044
0.996206
0.996314
0.996297
0.996154
0.996284
0.996436
0.996658
0.997079
0.997359
0.997326
0.997333
0.997804
0.998229
0.998906
0.999481
2.11893e-06
2.50031e-06
2.81663e-06
3.1425e-06
4.19038e-06
5.3124e-06
6.73552e-06
7.33682e-06
8.28281e-06
9.14784e-06
9.58343e-06
9.80762e-06
9.91101e-06
9.95899e-06
9.9716e-06
9.98293e-06
9.98902e-06
9.9909e-06
9.99048e-06
9.99036e-06
9.99031e-06
9.99052e-06
9.99057e-06
9.9904e-06
9.99003e-06
9.98953e-06
9.98895e-06
9.98838e-06
9.9878e-06
9.98707e-06
9.98602e-06
9.98468e-06
9.98316e-06
9.98167e-06
9.9806e-06
9.98028e-06
9.98015e-06
9.98007e-06
9.98021e-06
9.9882e-06
1.00171e-05
1.01548e-05
1.07499e-05
1.20581e-05
1.42914e-05
1.86775e-05
2.77081e-05
3.75799e-05
4.72779e-05
6.99904e-05
0.00013122
0.000156242
0.000155462
0.000156152
0.000157301
0.000157537
0.000151045
0.000173374
0.000243003
0.0632383
0.971596
0.99886
0.999387
0.999722
0.999744
0.999713
0.999702
0.999692
0.999689
0.99969
0.999686
0.999686
0.999685
0.999686
0.999683
0.999669
0.999654
0.999637
0.999615
0.999581
0.999541
0.999505
0.999525
0.999633
0.999708
0.999753
0.999824
0.99989
0.9999
0.999894
0.99989
0.999945
0.999976
0.999983
0.999995
0.999998
1.88116e-06
2.18123e-06
2.42027e-06
2.73471e-06
3.80192e-06
5.07467e-06
6.77699e-06
7.87427e-06
8.281e-06
9.14097e-06
9.60987e-06
9.81247e-06
9.89885e-06
9.95011e-06
9.9647e-06
9.97702e-06
9.98385e-06
9.98659e-06
9.98672e-06
9.98714e-06
9.98752e-06
9.98804e-06
9.9884e-06
9.98851e-06
9.98851e-06
9.98838e-06
9.98815e-06
9.98783e-06
9.98741e-06
9.98689e-06
9.98605e-06
9.98479e-06
9.98333e-06
9.98195e-06
9.98103e-06
9.98068e-06
9.98052e-06
9.98049e-06
9.98056e-06
9.98401e-06
1.00013e-05
1.0157e-05
1.08117e-05
1.22564e-05
1.49211e-05
2.06071e-05
3.01997e-05
3.9547e-05
4.70737e-05
5.68188e-05
0.000114391
0.000153647
0.000155287
0.000153523
0.000152231
0.000154204
0.000150936
0.000156051
0.000187035
0.0371228
0.975042
0.999924
0.999992
0.999999
0.999999
0.999999
0.999999
0.999999
0.999999
0.999999
0.999999
0.999999
0.999999
0.999998
0.999998
0.999999
0.999999
0.999999
0.999998
0.999998
0.999997
0.999997
0.999997
0.999998
0.999999
0.999999
0.999999
0.999999
0.999999
0.999999
0.999999
0.999999
0.999999
0.999999
0.999999
0.999999
1.73721e-06
1.9185e-06
2.01326e-06
2.18669e-06
3.08744e-06
4.36933e-06
6.30656e-06
7.78648e-06
8.40814e-06
9.1653e-06
9.66582e-06
9.83614e-06
9.89886e-06
9.93796e-06
9.95344e-06
9.97074e-06
9.98319e-06
9.98739e-06
9.98757e-06
9.98794e-06
9.98829e-06
9.98874e-06
9.98903e-06
9.98913e-06
9.98915e-06
9.98907e-06
9.98888e-06
9.98862e-06
9.98822e-06
9.98797e-06
9.98778e-06
9.9869e-06
9.98576e-06
9.98478e-06
9.98424e-06
9.98405e-06
9.98402e-06
9.98436e-06
9.98484e-06
9.98729e-06
1.00066e-05
1.0213e-05
1.10509e-05
1.28254e-05
1.61318e-05
2.25849e-05
3.15602e-05
4.07224e-05
5.03168e-05
6.35265e-05
9.11901e-05
0.000141619
0.000154791
0.000153933
0.000151854
0.000153104
0.000150875
0.000156076
0.000313861
0.0269863
0.965532
0.999888
1
1
0.999999
0.999999
0.999999
0.999999
0.999999
0.999999
0.999999
0.999999
0.999999
0.999999
0.999999
0.999999
0.999999
0.999999
0.999999
0.999999
0.999999
0.999999
0.999999
0.999999
0.999999
0.999999
0.999999
0.999999
0.999999
0.999999
0.999999
0.999999
0.999999
0.999999
0.999999
1
1.62413e-06
1.79445e-06
1.78722e-06
1.82511e-06
2.3468e-06
3.31114e-06
5.18e-06
7.20888e-06
8.67107e-06
9.22238e-06
9.71195e-06
9.86782e-06
9.91617e-06
9.94422e-06
9.95791e-06
9.97697e-06
9.9884e-06
9.99297e-06
9.9926e-06
9.99247e-06
9.99251e-06
9.99259e-06
9.99262e-06
9.99256e-06
9.99241e-06
9.99214e-06
9.99175e-06
9.99129e-06
9.99071e-06
9.99021e-06
9.9897e-06
9.98859e-06
9.98738e-06
9.98643e-06
9.98591e-06
9.98567e-06
9.98553e-06
9.98592e-06
9.98671e-06
9.98991e-06
1.00149e-05
1.02795e-05
1.13293e-05
1.3588e-05
1.76369e-05
2.43537e-05
3.27087e-05
4.22248e-05
5.31845e-05
6.60421e-05
8.13697e-05
0.00011935
0.000148356
0.0001545
0.000152164
0.000150828
0.00015083
0.000153387
0.000308382
0.0242497
0.940473
0.999627
0.999999
1
1
0.999999
0.999999
0.999999
0.999999
0.999999
0.999999
0.999999
0.999999
0.999999
0.999999
0.999999
0.999999
0.999999
0.999999
0.999999
0.999999
0.999999
0.999999
0.999999
0.999999
0.999999
0.999999
0.999999
0.999999
0.999999
0.999999
0.999999
0.999999
0.999999
0.999999
1
1.60173e-06
1.81032e-06
1.75297e-06
1.74939e-06
1.94922e-06
2.59118e-06
4.08491e-06
6.27824e-06
8.56734e-06
9.3637e-06
9.76878e-06
9.87289e-06
9.91226e-06
9.93955e-06
9.95401e-06
9.97538e-06
9.99589e-06
9.99651e-06
9.99651e-06
9.99651e-06
9.99651e-06
9.99651e-06
9.99651e-06
9.99651e-06
9.99618e-06
9.99564e-06
9.99496e-06
9.99422e-06
9.99343e-06
9.99262e-06
9.99168e-06
9.99041e-06
9.98913e-06
9.98814e-06
9.98757e-06
9.98728e-06
9.9871e-06
9.98743e-06
9.98808e-06
9.99098e-06
1.00177e-05
1.03112e-05
1.14813e-05
1.41645e-05
1.89197e-05
2.55967e-05
3.37374e-05
4.40126e-05
5.70318e-05
7.19293e-05
8.59054e-05
0.000102569
0.000132127
0.000150556
0.000151637
0.000154129
0.000151913
0.000155711
0.000265108
0.032824
0.939794
0.999638
0.999999
1
1
0.999999
0.999999
0.999999
0.999999
0.999999
0.999999
0.999999
0.999999
0.999999
0.999999
0.999999
0.999999
0.999999
0.999999
0.999999
0.999999
0.999999
0.999999
0.999999
0.999999
0.999999
0.999999
0.999999
0.999999
0.999999
0.999999
0.999999
0.999999
0.999999
0.999999
1
1.64018e-06
2.0848e-06
2.13599e-06
2.11097e-06
2.03031e-06
2.44958e-06
3.34876e-06
5.18861e-06
8.10955e-06
9.4819e-06
9.7761e-06
9.86367e-06
9.89456e-06
9.92471e-06
9.94379e-06
9.96716e-06
9.99193e-06
9.99476e-06
9.99484e-06
9.99495e-06
9.99498e-06
9.99498e-06
9.99489e-06
9.99481e-06
9.9944e-06
9.99384e-06
9.99317e-06
9.99247e-06
9.99173e-06
9.99094e-06
9.99e-06
9.98882e-06
9.98778e-06
9.98704e-06
9.9866e-06
9.98637e-06
9.98628e-06
9.98648e-06
9.98693e-06
9.98963e-06
1.00213e-05
1.03599e-05
1.17027e-05
1.48185e-05
1.98595e-05
2.62428e-05
3.42716e-05
4.50213e-05
5.96822e-05
7.778e-05
9.35608e-05
0.000104472
0.00011938
0.000139118
0.000146502
0.000152966
0.000150595
0.000155193
0.000251993
0.0309828
0.94491
0.999752
0.999999
0.999999
0.999999
0.999999
0.999999
0.999999
0.999999
0.999999
0.999999
0.999999
0.999999
0.999999
0.999999
0.999999
0.999999
0.999999
0.999999
0.999999
0.999999
0.999999
0.999999
0.999999
0.999999
0.999999
0.999999
0.999999
0.999999
0.999999
0.999999
0.999999
0.999999
0.999999
0.999999
1
1.39853e-06
1.42758e-06
2.26177e-06
2.65414e-06
2.67769e-06
2.73867e-06
3.36861e-06
4.85482e-06
7.66291e-06
9.48767e-06
9.76215e-06
9.83331e-06
9.86835e-06
9.9069e-06
9.93572e-06
9.96911e-06
9.99982e-06
1.00017e-05
1.00017e-05
1.00017e-05
1.00017e-05
1.00017e-05
1.00017e-05
1.00017e-05
1.00013e-05
1.00008e-05
1.00001e-05
9.99944e-06
9.99877e-06
9.99801e-06
9.99703e-06
9.99592e-06
9.99491e-06
9.99418e-06
9.99376e-06
9.99358e-06
9.99355e-06
9.99367e-06
9.99409e-06
9.99633e-06
1.00326e-05
1.03815e-05
1.18732e-05
1.53119e-05
2.01932e-05
2.59334e-05
3.36819e-05
4.42562e-05
5.77138e-05
7.51351e-05
9.69721e-05
0.000111869
0.000121143
0.000133408
0.000138711
0.000147864
0.00014421
0.000156728
0.000486275
0.0352888
0.949883
0.999756
0.999999
0.999999
0.999999
0.999999
0.999999
0.999999
0.999999
0.999999
0.999999
0.999999
0.999999
0.999999
0.999999
0.999999
0.999999
0.999999
0.999999
0.999999
0.999999
0.999999
0.999999
0.999999
0.999999
0.999999
0.999999
0.999999
0.999999
0.999999
0.999999
0.999999
0.999999
0.999999
1
1
3.14962e-06
4.17794e-06
4.7595e-06
5.19861e-06
5.66315e-06
6.51789e-06
7.55153e-06
8.55429e-06
9.41463e-06
9.81687e-06
9.90004e-06
9.93599e-06
9.96682e-06
9.98605e-06
9.99698e-06
1.00064e-05
1.00064e-05
1.00064e-05
1.00064e-05
1.00064e-05
1.00061e-05
1.00055e-05
1.00049e-05
1.00044e-05
1.00038e-05
1.00034e-05
1.00033e-05
1.00032e-05
1.00032e-05
1.0003e-05
1.00025e-05
1.00018e-05
1.00008e-05
9.9997e-06
9.99857e-06
9.99765e-06
9.99683e-06
9.99602e-06
9.99571e-06
1.00001e-05
1.00186e-05
1.01097e-05
1.04493e-05
1.13144e-05
1.3063e-05
1.64742e-05
2.22058e-05
3.10938e-05
4.02082e-05
5.20619e-05
7.1079e-05
9.60766e-05
0.000110887
0.000122973
0.000129918
0.000136735
0.000138388
0.000152125
0.000530843
0.0745075
0.969229
0.999973
1
1
1
1
1
1
1
1
1
1
1
1
1
0.999999
0.999999
0.999999
0.999999
0.999999
0.999999
0.999999
0.999999
0.999999
0.999999
0.999999
0.999999
0.999999
0.999999
0.999999
1
1
1
1
1
1
2.43469e-06
3.71851e-06
5.09748e-06
5.65034e-06
6.29328e-06
6.99335e-06
7.90699e-06
8.74421e-06
9.27873e-06
9.55048e-06
9.73296e-06
9.85563e-06
9.9317e-06
9.96903e-06
9.98362e-06
9.99548e-06
1.00021e-05
1.00033e-05
1.00032e-05
1.00032e-05
1.00032e-05
1.00033e-05
1.00034e-05
1.00034e-05
1.00029e-05
1.00022e-05
1.00014e-05
1.00009e-05
1.00004e-05
9.99984e-06
9.99905e-06
9.99788e-06
9.99651e-06
9.99526e-06
9.99424e-06
9.99361e-06
9.99331e-06
9.99338e-06
9.99698e-06
1.00082e-05
1.00398e-05
1.01605e-05
1.05628e-05
1.1549e-05
1.34215e-05
1.73293e-05
2.41592e-05
3.27928e-05
4.49653e-05
6.07527e-05
7.60603e-05
9.03332e-05
0.000102114
0.000115701
0.000124537
0.000130784
0.000128144
0.000143218
0.000316812
0.118403
0.993224
0.999995
1
0.999999
0.999999
0.999999
0.999999
0.999999
0.999999
0.999999
0.999999
0.999999
0.999999
0.999999
0.999999
0.999999
0.999999
0.999999
0.999999
0.999999
0.999999
0.999999
0.999999
0.999999
0.999999
0.999999
0.999999
0.999999
0.999999
1
1
1
1
1
1
1
2.14616e-06
2.96813e-06
4.64905e-06
5.38797e-06
6.11418e-06
6.78651e-06
7.58972e-06
8.36321e-06
8.94826e-06
9.34896e-06
9.6303e-06
9.81596e-06
9.91606e-06
9.96312e-06
9.97826e-06
9.9915e-06
9.99906e-06
1.00002e-05
1.00001e-05
1.00001e-05
1.00001e-05
1.00001e-05
1e-05
9.99978e-06
9.99924e-06
9.99865e-06
9.99808e-06
9.99751e-06
9.99696e-06
9.99633e-06
9.99551e-06
9.99432e-06
9.99297e-06
9.99173e-06
9.99081e-06
9.99024e-06
9.99004e-06
9.99057e-06
9.99595e-06
1.00091e-05
1.00389e-05
1.01707e-05
1.07457e-05
1.21961e-05
1.45438e-05
1.75796e-05
2.29215e-05
3.22208e-05
4.49328e-05
5.93082e-05
7.01285e-05
9.22787e-05
0.000120486
0.000143144
0.000154502
0.000155119
0.000145036
0.000150895
0.000295301
0.112353
0.992809
1
0.999999
0.999999
0.999999
0.999999
0.999999
0.999999
0.999999
0.999999
0.999999
0.999999
0.999999
0.999999
0.999999
0.999999
0.999999
0.999999
0.999999
0.999999
0.999999
0.999999
0.999999
0.999999
0.999999
0.999999
0.999999
1
1
1
1
1
1
1
1
1
2.02841e-06
2.33927e-06
3.92704e-06
4.75871e-06
5.55221e-06
6.30598e-06
7.15675e-06
8.00947e-06
8.72454e-06
9.24696e-06
9.5874e-06
9.80054e-06
9.90921e-06
9.95996e-06
9.97491e-06
9.98844e-06
9.99643e-06
9.99735e-06
9.99711e-06
9.99701e-06
9.99683e-06
9.99669e-06
9.99653e-06
9.99629e-06
9.99571e-06
9.9951e-06
9.99455e-06
9.99405e-06
9.99357e-06
9.99301e-06
9.9922e-06
9.99101e-06
9.98966e-06
9.98843e-06
9.98747e-06
9.98686e-06
9.98658e-06
9.98769e-06
9.9941e-06
1.0008e-05
1.00428e-05
1.02232e-05
1.09584e-05
1.26526e-05
1.53423e-05
1.86665e-05
2.20516e-05
2.87613e-05
3.9711e-05
5.24703e-05
7.05715e-05
0.000116505
0.00014703
0.000163161
0.000165443
0.000169867
0.000163923
0.000187333
0.000192483
0.185001
0.999546
0.99997
0.999971
0.999975
0.999976
0.999978
0.99998
0.999984
0.999989
0.999994
0.999996
0.999998
0.999999
0.999999
0.999999
0.999999
0.999999
0.999999
0.999999
0.999999
0.999999
0.999999
0.999999
0.999999
0.999999
0.999999
0.999999
0.999999
0.999999
0.999999
1
1
1
1
1
1
1.94947e-06
1.94091e-06
3.27861e-06
4.21546e-06
5.10552e-06
5.94847e-06
6.84921e-06
7.76014e-06
8.57023e-06
9.18416e-06
9.56347e-06
9.79271e-06
9.90577e-06
9.95856e-06
9.97335e-06
9.98686e-06
9.99516e-06
9.99595e-06
9.99568e-06
9.99554e-06
9.99533e-06
9.99512e-06
9.99491e-06
9.99465e-06
9.99405e-06
9.99344e-06
9.99291e-06
9.99243e-06
9.99198e-06
9.99145e-06
9.99066e-06
9.98947e-06
9.9881e-06
9.98682e-06
9.98583e-06
9.98523e-06
9.985e-06
9.98676e-06
9.99396e-06
1.00094e-05
1.00532e-05
1.02728e-05
1.10817e-05
1.28346e-05
1.55925e-05
1.93075e-05
2.37352e-05
2.91612e-05
3.76737e-05
4.86169e-05
9.93185e-05
0.00014545
0.000161575
0.000166499
0.000166165
0.000169438
0.000177274
0.000184432
0.000147206
0.217516
0.996615
0.99853
0.998485
0.998492
0.998489
0.998566
0.99866
0.998849
0.999077
0.99934
0.999549
0.999717
0.999838
0.999914
0.999959
0.999983
0.999994
0.999998
0.999999
0.999999
0.999999
0.999999
0.999999
0.999999
0.999999
0.999999
0.999999
0.999999
0.999999
1
1
1
1
1
1
1
1.86796e-06
1.69256e-06
2.68461e-06
3.68512e-06
4.68938e-06
5.6529e-06
6.63007e-06
7.59045e-06
8.4667e-06
9.14685e-06
9.55192e-06
9.78952e-06
9.90421e-06
9.9577e-06
9.9723e-06
9.98569e-06
9.99414e-06
9.99477e-06
9.99447e-06
9.99428e-06
9.99406e-06
9.9938e-06
9.99355e-06
9.9933e-06
9.99269e-06
9.9921e-06
9.99159e-06
9.99115e-06
9.99078e-06
9.99034e-06
9.98963e-06
9.9885e-06
9.98718e-06
9.98594e-06
9.98499e-06
9.98448e-06
9.9844e-06
9.98655e-06
9.99527e-06
1.00115e-05
1.00595e-05
1.03079e-05
1.11885e-05
1.30302e-05
1.585e-05
1.96177e-05
2.45045e-05
3.08565e-05
3.6853e-05
6.44476e-05
0.000135988
0.000159685
0.000162607
0.000160429
0.000161723
0.000172905
0.000181959
0.000190068
0.000147205
0.354819
0.984122
0.988586
0.98742
0.987047
0.986782
0.986708
0.98722
0.988056
0.989169
0.990726
0.992355
0.993841
0.995267
0.996522
0.997559
0.998368
0.998982
0.999427
0.999715
0.99987
0.999946
0.999978
0.999992
0.999996
0.999997
0.999999
0.999999
0.999999
0.999999
0.999999
1
1
1
1
1
1
1.82077e-06
1.51424e-06
2.21632e-06
3.13574e-06
4.31362e-06
5.39017e-06
6.46342e-06
7.4765e-06
8.40088e-06
9.12626e-06
9.54658e-06
9.78821e-06
9.90363e-06
9.95737e-06
9.97186e-06
9.9852e-06
9.99372e-06
9.99423e-06
9.99395e-06
9.99376e-06
9.99359e-06
9.99335e-06
9.99309e-06
9.99286e-06
9.99228e-06
9.99171e-06
9.99124e-06
9.99083e-06
9.99051e-06
9.99011e-06
9.98945e-06
9.98835e-06
9.98707e-06
9.98586e-06
9.98496e-06
9.98455e-06
9.98457e-06
9.98742e-06
9.99633e-06
1.00131e-05
1.00645e-05
1.03357e-05
1.12841e-05
1.32406e-05
1.62196e-05
2.0131e-05
2.52768e-05
3.1888e-05
4.02935e-05
0.000106076
0.000157987
0.000157503
0.000157458
0.000160132
0.000167024
0.000175171
0.000178159
0.000180823
0.000147206
0.394097
0.96645
0.973881
0.971762
0.971167
0.970832
0.970339
0.970036
0.970209
0.971064
0.971515
0.972434
0.973421
0.974807
0.976598
0.978434
0.980067
0.981647
0.983647
0.986003
0.98864
0.991012
0.99275
0.994032
0.994832
0.995159
0.995123
0.995057
0.995621
0.99639
0.99714
0.997787
0.997289
0.996891
0.99631
0.995698
0.995282
1.78017e-06
1.40412e-06
1.84761e-06
2.54369e-06
3.78346e-06
5.04526e-06
6.30509e-06
7.38938e-06
8.35668e-06
9.11587e-06
9.54484e-06
9.78808e-06
9.90524e-06
9.95813e-06
9.9717e-06
9.98495e-06
9.99347e-06
9.99397e-06
9.9938e-06
9.99371e-06
9.99364e-06
9.99373e-06
9.99365e-06
9.99359e-06
9.99313e-06
9.99266e-06
9.9922e-06
9.99177e-06
9.99139e-06
9.99092e-06
9.99022e-06
9.98905e-06
9.98771e-06
9.98645e-06
9.98559e-06
9.9852e-06
9.98516e-06
9.98813e-06
9.99724e-06
1.00142e-05
1.00679e-05
1.03576e-05
1.13756e-05
1.34744e-05
1.66899e-05
2.09625e-05
2.65483e-05
3.3829e-05
4.25202e-05
0.000126663
0.000155904
0.000156312
0.000157519
0.000159122
0.000161264
0.00016285
0.000162846
0.000162546
0.000147206
0.312333
0.959725
0.973504
0.972033
0.971673
0.971573
0.970271
0.968891
0.967062
0.965758
0.96369
0.961863
0.960424
0.959394
0.958449
0.956478
0.953139
0.948458
0.943613
0.939763
0.936865
0.935192
0.934113
0.932914
0.930557
0.928013
0.925177
0.92165
0.917711
0.912779
0.906738
0.899246
0.889482
0.876404
0.858197
0.814676
0.624215
1.69402e-06
1.34235e-06
1.57618e-06
1.99047e-06
3.07779e-06
4.51354e-06
6.0849e-06
7.30749e-06
8.32256e-06
9.11248e-06
9.55174e-06
9.79357e-06
9.90961e-06
9.96078e-06
9.9737e-06
9.98682e-06
9.99537e-06
9.9955e-06
9.99527e-06
9.99508e-06
9.99497e-06
9.99485e-06
9.99479e-06
9.99479e-06
9.99437e-06
9.99393e-06
9.99351e-06
9.99313e-06
9.99281e-06
9.99239e-06
9.99174e-06
9.9906e-06
9.98932e-06
9.98811e-06
9.98724e-06
9.98683e-06
9.98685e-06
9.99017e-06
9.99928e-06
1.00163e-05
1.00714e-05
1.03763e-05
1.14585e-05
1.36928e-05
1.71492e-05
2.18053e-05
2.7844e-05
3.59948e-05
4.24725e-05
0.00010275
0.000155774
0.000154645
0.000152303
0.000150943
0.000150933
0.00015428
0.000167265
0.000189767
0.000190058
0.17641
0.972607
0.993099
0.994566
0.995708
0.995737
0.995763
0.995677
0.995542
0.995468
0.995362
0.995235
0.995199
0.995294
0.994833
0.994397
0.993703
0.992764
0.991527
0.98997
0.988165
0.98603
0.98365
0.981373
0.979746
0.978326
0.975511
0.972617
0.970124
0.968252
0.965515
0.963514
0.961788
0.96093
0.962314
0.967278
0.974311
1.57479e-06
1.29184e-06
1.37064e-06
1.57321e-06
2.32791e-06
3.8302e-06
5.78642e-06
7.23465e-06
8.30931e-06
9.1156e-06
9.55798e-06
9.79967e-06
9.91611e-06
9.96351e-06
9.97497e-06
9.98829e-06
9.99703e-06
9.99711e-06
9.99699e-06
9.99687e-06
9.9968e-06
9.99676e-06
9.99672e-06
9.99671e-06
9.99629e-06
9.99583e-06
9.99538e-06
9.99495e-06
9.99453e-06
9.99403e-06
9.99333e-06
9.9921e-06
9.99071e-06
9.98943e-06
9.98846e-06
9.98795e-06
9.98795e-06
9.99134e-06
1.00001e-05
1.0017e-05
1.00727e-05
1.03921e-05
1.15515e-05
1.39455e-05
1.76196e-05
2.24994e-05
2.89715e-05
3.69648e-05
4.57609e-05
6.01209e-05
0.000135946
0.000154598
0.00015307
0.000151535
0.000150943
0.00015386
0.000152296
0.000161282
0.000147898
0.107923
0.986658
0.999521
0.999672
0.999729
0.999734
0.99974
0.999741
0.999742
0.999736
0.999732
0.999726
0.999719
0.999708
0.999685
0.999655
0.999614
0.999556
0.999483
0.999388
0.999274
0.999141
0.999045
0.999022
0.999194
0.999254
0.999187
0.999105
0.999015
0.998958
0.998927
0.999062
0.999474
0.999638
0.999619
0.999823
0.999913
1.47445e-06
1.24367e-06
1.2414e-06
1.29293e-06
1.78472e-06
3.08471e-06
5.26943e-06
7.05524e-06
8.28875e-06
9.11367e-06
9.56257e-06
9.80842e-06
9.9218e-06
9.96458e-06
9.97502e-06
9.98841e-06
9.99733e-06
9.99731e-06
9.99733e-06
9.99731e-06
9.99733e-06
9.99731e-06
9.99731e-06
9.9973e-06
9.99693e-06
9.99651e-06
9.99608e-06
9.99569e-06
9.9953e-06
9.99487e-06
9.99426e-06
9.9931e-06
9.99178e-06
9.99057e-06
9.98968e-06
9.98923e-06
9.98924e-06
9.99246e-06
1.00011e-05
1.00177e-05
1.00727e-05
1.04025e-05
1.16587e-05
1.42965e-05
1.83005e-05
2.34094e-05
3.00119e-05
3.75603e-05
4.6755e-05
6.2162e-05
9.13851e-05
0.000141515
0.000152674
0.000152347
0.000152058
0.000150307
0.000153274
0.000172976
0.000148005
0.0848185
0.993377
0.999991
0.99999
0.999993
0.999994
0.999994
0.999995
0.999996
0.999996
0.999996
0.999996
0.999996
0.999995
0.999995
0.999995
0.999995
0.999994
0.999994
0.999993
0.999993
0.999993
0.999993
0.999995
0.999996
0.999997
0.999998
0.999999
0.999999
0.999999
0.999999
0.999999
0.999999
0.999999
0.999999
0.999999
1
1.4151e-06
1.19942e-06
1.17136e-06
1.15873e-06
1.45037e-06
2.53002e-06
4.64203e-06
6.81952e-06
8.32314e-06
9.18245e-06
9.59083e-06
9.82452e-06
9.92837e-06
9.96498e-06
9.97236e-06
9.98541e-06
9.99534e-06
9.99732e-06
9.99731e-06
9.99732e-06
9.99731e-06
9.99731e-06
9.99731e-06
9.99715e-06
9.99682e-06
9.99644e-06
9.99604e-06
9.99567e-06
9.99531e-06
9.9949e-06
9.99428e-06
9.99312e-06
9.99178e-06
9.99054e-06
9.98962e-06
9.98912e-06
9.98908e-06
9.99191e-06
9.99981e-06
1.00162e-05
1.00675e-05
1.03993e-05
1.1752e-05
1.46545e-05
1.89644e-05
2.42953e-05
3.08364e-05
3.82803e-05
4.77741e-05
6.70217e-05
8.80141e-05
0.000108874
0.000138127
0.000149026
0.000147028
0.000142847
0.000155615
0.000175912
0.000242583
0.0477281
0.985824
1
0.999999
0.999999
0.999999
0.999999
0.999999
0.999999
0.999999
0.999999
0.999999
0.999999
0.999999
0.999999
0.999999
0.999999
0.999999
0.999999
0.999999
0.999999
0.999999
0.999999
0.999999
1
1
0.999999
0.999999
0.999999
0.999999
0.999999
0.999999
0.999999
0.999999
0.999999
1
1
1.41989e-06
1.28474e-06
1.1579e-06
1.12561e-06
1.15416e-06
1.66499e-06
3.24368e-06
5.81422e-06
8.19866e-06
9.25622e-06
9.61961e-06
9.83897e-06
9.93071e-06
9.95906e-06
9.96738e-06
9.98345e-06
9.99416e-06
9.99638e-06
9.99659e-06
9.99706e-06
9.99731e-06
9.99729e-06
9.99709e-06
9.99713e-06
9.99687e-06
9.99653e-06
9.99617e-06
9.9958e-06
9.9954e-06
9.99485e-06
9.99364e-06
9.99209e-06
9.99049e-06
9.98922e-06
9.98838e-06
9.98792e-06
9.98777e-06
9.98947e-06
9.99511e-06
1.00076e-05
1.00554e-05
1.03986e-05
1.18964e-05
1.51025e-05
1.96717e-05
2.52461e-05
3.1914e-05
3.93811e-05
4.8102e-05
6.50224e-05
9.28411e-05
0.000109034
0.000119027
0.000128486
0.00012463
0.000140904
0.000173929
0.000177182
0.0003506
0.0378225
0.972685
1
0.999999
0.999999
0.999999
0.999999
0.999999
0.999999
0.999999
0.999999
0.999999
0.999999
0.999999
0.999999
0.999999
0.999999
0.999999
0.999999
0.999999
0.999999
0.999999
0.999999
1
1
1
0.999999
0.999999
0.999999
0.999999
0.999999
0.999999
0.999999
0.999999
0.999999
1
1
1.5348e-06
1.71384e-06
1.45525e-06
1.37401e-06
1.10547e-06
1.11345e-06
1.69794e-06