/*--------------------------------*- C++ -*----------------------------------*\
| =========                 |                                                 |
| \\      /  F ield         | OpenFOAM: The Open Source CFD Toolbox           |
|  \\    /   O peration     | Version:  2.3.0                                 |
|   \\  /    A nd           | Web:      www.OpenFOAM.org                      |
|    \\/     M anipulation  |                                                 |
\*---------------------------------------------------------------------------*/
FoamFile
{
    version     2.0;
    format      ascii;
    class       volScalarField;
    location    "63";
    object      alpha.air;
}
// * * * * * * * * * * * * * * * * * * * * * * * * * * * * * * * * * * * * * //

dimensions      [0 0 0 0 0 0 0];

internalField   nonuniform List<scalar> 
6144
(
0.999996
0.999996
0.999995
0.999995
0.999994
0.999994
0.999993
0.999992
0.999991
0.99999
0.99999
0.99999
0.99999
0.99999
0.99999
0.99999
0.99999
0.99999
0.99999
0.99999
0.99999
0.99999
0.99999
0.99999
0.99999
0.99999
0.99999
0.99999
0.99999
0.99999
0.99999
0.99999
0.99999
0.99999
0.99999
0.99999
0.99999
0.99999
0.99999
0.99999
0.99999
0.99999
0.99999
0.999989
0.999986
0.999983
0.999977
0.999968
0.999959
0.999947
0.999926
0.999901
0.99988
0.999864
0.999858
0.999853
0.999853
0.999848
0.998971
0.938256
0.0497613
0.00032858
7.64284e-07
4.44496e-07
4.51385e-07
4.65607e-07
4.75451e-07
4.82589e-07
4.85885e-07
4.87302e-07
4.89125e-07
4.89178e-07
4.88758e-07
4.86854e-07
4.96164e-07
5.3526e-07
5.68574e-07
5.70822e-07
5.67196e-07
5.59244e-07
5.56075e-07
5.55572e-07
5.52407e-07
5.43303e-07
5.19286e-07
5.12656e-07
5.61415e-07
5.67598e-07
5.55776e-07
5.46405e-07
4.99433e-07
3.81633e-07
3.22463e-07
3.22526e-07
3.22676e-07
3.22687e-07
0.999997
0.999996
0.999995
0.999995
0.999994
0.999993
0.999993
0.999992
0.999991
0.99999
0.99999
0.99999
0.99999
0.99999
0.99999
0.99999
0.99999
0.99999
0.99999
0.99999
0.99999
0.99999
0.99999
0.99999
0.99999
0.99999
0.99999
0.99999
0.99999
0.99999
0.99999
0.99999
0.99999
0.99999
0.99999
0.99999
0.99999
0.99999
0.99999
0.99999
0.99999
0.99999
0.999989
0.999988
0.999986
0.999981
0.999975
0.999967
0.999954
0.99994
0.999928
0.999899
0.999869
0.999853
0.99985
0.99985
0.999852
0.999847
0.999447
0.939328
0.0367867
0.000132785
4.39702e-07
4.55504e-07
5.83714e-07
6.75411e-07
6.41196e-07
6.1657e-07
5.82955e-07
5.76901e-07
5.78213e-07
5.85686e-07
5.92113e-07
5.96639e-07
5.98619e-07
5.97883e-07
5.89743e-07
5.74893e-07
5.61673e-07
5.5733e-07
5.61816e-07
5.58301e-07
5.51558e-07
5.38518e-07
5.2768e-07
5.56539e-07
5.69177e-07
5.39321e-07
5.29159e-07
5.20931e-07
5.09624e-07
4.49291e-07
3.69906e-07
3.25055e-07
3.22687e-07
3.22706e-07
0.999997
0.999996
0.999995
0.999995
0.999994
0.999993
0.999992
0.999991
0.999991
0.99999
0.99999
0.99999
0.99999
0.99999
0.99999
0.99999
0.99999
0.99999
0.99999
0.99999
0.99999
0.99999
0.99999
0.99999
0.99999
0.99999
0.99999
0.99999
0.99999
0.99999
0.99999
0.99999
0.99999
0.99999
0.99999
0.99999
0.99999
0.99999
0.99999
0.99999
0.99999
0.99999
0.999989
0.999988
0.999985
0.999981
0.999975
0.999966
0.999955
0.999942
0.999925
0.999882
0.999853
0.999845
0.999846
0.999844
0.999849
0.999846
0.999399
0.937129
0.0285051
9.0818e-05
4.39703e-07
4.94028e-07
6.89271e-07
7.77015e-07
7.65993e-07
7.00828e-07
6.6901e-07
6.5581e-07
6.43484e-07
6.28203e-07
6.12491e-07
6.03084e-07
6.01482e-07
6.02338e-07
6.02615e-07
5.89898e-07
5.68849e-07
5.64927e-07
5.65308e-07
5.61557e-07
5.5909e-07
5.61224e-07
5.65387e-07
5.64876e-07
5.42379e-07
5.28971e-07
5.13355e-07
5.01078e-07
4.91101e-07
5.03836e-07
4.80002e-07
3.97949e-07
3.22733e-07
3.22774e-07
0.999997
0.999996
0.999996
0.999995
0.999994
0.999993
0.999992
0.999992
0.999991
0.99999
0.99999
0.99999
0.99999
0.99999
0.99999
0.99999
0.99999
0.99999
0.99999
0.99999
0.99999
0.99999
0.99999
0.99999
0.99999
0.99999
0.99999
0.99999
0.99999
0.99999
0.99999
0.99999
0.99999
0.99999
0.99999
0.99999
0.99999
0.99999
0.99999
0.99999
0.99999
0.99999
0.999989
0.999988
0.999985
0.999982
0.999976
0.999968
0.999958
0.999951
0.999913
0.999859
0.999845
0.999841
0.999841
0.999836
0.999841
0.999839
0.999759
0.896788
0.00924227
1.01348e-05
2.96869e-06
2.57574e-06
1.80638e-06
1.54723e-06
1.46218e-06
1.41657e-06
1.14173e-06
7.95978e-07
7.52453e-07
7.73692e-07
6.36723e-07
6.01071e-07
6.01071e-07
6.01071e-07
6.03246e-07
5.98269e-07
5.64368e-07
5.58029e-07
5.57419e-07
5.63463e-07
5.65811e-07
5.65597e-07
5.54297e-07
5.40627e-07
5.32309e-07
5.27195e-07
5.22495e-07
5.12069e-07
4.78494e-07
4.63388e-07
4.84431e-07
4.62708e-07
3.53701e-07
3.22924e-07
0.999997
0.999997
0.999996
0.999995
0.999995
0.999994
0.999993
0.999992
0.999991
0.999991
0.99999
0.99999
0.99999
0.99999
0.99999
0.99999
0.99999
0.99999
0.99999
0.99999
0.99999
0.99999
0.99999
0.99999
0.99999
0.99999
0.99999
0.99999
0.99999
0.99999
0.99999
0.99999
0.99999
0.99999
0.99999
0.99999
0.99999
0.99999
0.99999
0.99999
0.99999
0.99999
0.999989
0.999988
0.999985
0.999982
0.999977
0.999968
0.999958
0.999945
0.999891
0.999847
0.999842
0.999839
0.999838
0.999831
0.999839
0.999832
0.999853
0.832869
0.00186496
0.000325888
0.000329004
0.000307974
0.000282171
0.000241998
0.00019726
0.000155185
0.000111661
7.39934e-05
4.51597e-05
2.52622e-05
1.32146e-05
6.85623e-06
3.47875e-06
1.76953e-06
9.85438e-07
7.99731e-07
7.92827e-07
5.87475e-07
5.45083e-07
5.45083e-07
5.45082e-07
5.45082e-07
5.4658e-07
5.41134e-07
5.2368e-07
5.03389e-07
4.80473e-07
4.94018e-07
4.77373e-07
4.60572e-07
4.58885e-07
4.56092e-07
3.78678e-07
3.22935e-07
0.999997
0.999997
0.999996
0.999996
0.999995
0.999994
0.999993
0.999992
0.999991
0.999991
0.99999
0.99999
0.99999
0.99999
0.99999
0.99999
0.99999
0.99999
0.99999
0.99999
0.99999
0.99999
0.99999
0.99999
0.99999
0.99999
0.99999
0.99999
0.99999
0.99999
0.99999
0.99999
0.99999
0.99999
0.99999
0.99999
0.99999
0.99999
0.99999
0.99999
0.99999
0.99999
0.999989
0.999988
0.999986
0.999982
0.999977
0.99997
0.999959
0.999936
0.999881
0.999844
0.999841
0.99984
0.999838
0.999833
0.999839
0.999836
0.999853
0.832581
0.0109238
0.00339316
0.00386467
0.00398772
0.00380769
0.00355397
0.00320317
0.00286686
0.00246017
0.00205396
0.00161925
0.00120729
0.000852396
0.000579322
0.00037647
0.000238511
0.000145799
9.16058e-05
5.98915e-05
4.09888e-05
2.66223e-05
1.53741e-05
7.05419e-06
3.65295e-06
5.28312e-06
6.49021e-06
4.12806e-06
2.23476e-06
3.28991e-06
5.26505e-07
3.2327e-07
3.23205e-07
3.23184e-07
3.23173e-07
3.23022e-07
3.22955e-07
0.999997
0.999997
0.999997
0.999996
0.999995
0.999994
0.999993
0.999992
0.999991
0.999991
0.99999
0.99999
0.99999
0.99999
0.99999
0.99999
0.99999
0.99999
0.99999
0.99999
0.99999
0.99999
0.99999
0.99999
0.99999
0.99999
0.99999
0.99999
0.99999
0.99999
0.99999
0.99999
0.99999
0.99999
0.99999
0.99999
0.99999
0.99999
0.99999
0.99999
0.99999
0.99999
0.999989
0.999988
0.999986
0.999983
0.999978
0.99997
0.999964
0.99993
0.999874
0.999845
0.999841
0.99984
0.999839
0.999838
0.99984
0.999835
0.999853
0.864188
0.0336473
0.00988833
0.0116492
0.0121134
0.0122111
0.0120076
0.0115788
0.0113046
0.01071
0.00990024
0.00891543
0.00788444
0.00677741
0.00572144
0.00475256
0.00387517
0.0030859
0.00243871
0.00193666
0.00164037
0.00151152
0.00144774
0.00141082
0.00140015
0.00151169
0.00162355
0.00167726
0.00167147
0.00136137
0.000957742
0.000428528
0.000167943
0.000176322
0.000184889
0.000148137
0.000105186
0.999997
0.999997
0.999997
0.999996
0.999995
0.999994
0.999993
0.999992
0.999991
0.999991
0.99999
0.99999
0.99999
0.99999
0.99999
0.99999
0.99999
0.99999
0.99999
0.99999
0.99999
0.99999
0.99999
0.99999
0.99999
0.99999
0.99999
0.99999
0.99999
0.99999
0.99999
0.99999
0.99999
0.99999
0.99999
0.99999
0.99999
0.99999
0.99999
0.99999
0.99999
0.99999
0.999989
0.999988
0.999986
0.999983
0.999978
0.999969
0.999962
0.999919
0.99986
0.999844
0.999842
0.999841
0.999839
0.999838
0.999839
0.999793
0.999623
0.875375
0.0409042
0.0139469
0.0159686
0.0164193
0.0168673
0.0171682
0.0172716
0.0171688
0.0172726
0.0166746
0.0160714
0.0152907
0.0143675
0.0132235
0.0121321
0.01109
0.0101218
0.00902415
0.00772077
0.00627488
0.0053461
0.00498863
0.0052968
0.00568825
0.0061459
0.00655819
0.00694394
0.00728288
0.00769902
0.00848769
0.00975169
0.0111051
0.0117683
0.0120992
0.0123013
0.00970913
0.999998
0.999997
0.999997
0.999997
0.999996
0.999995
0.999993
0.999993
0.999992
0.999991
0.99999
0.99999
0.99999
0.99999
0.99999
0.99999
0.99999
0.99999
0.99999
0.99999
0.99999
0.99999
0.99999
0.99999
0.99999
0.99999
0.99999
0.99999
0.99999
0.99999
0.99999
0.99999
0.99999
0.99999
0.99999
0.99999
0.99999
0.99999
0.99999
0.99999
0.99999
0.99999
0.999989
0.999988
0.999986
0.999983
0.999976
0.999966
0.999958
0.999922
0.999862
0.999843
0.999843
0.999841
0.999839
0.999839
0.999845
0.999795
0.999507
0.902101
0.0383867
0.00729101
0.00632308
0.00434998
0.00366854
0.0035691
0.00361976
0.00356592
0.00363808
0.00365955
0.00363084
0.0036286
0.00370443
0.00376451
0.00381086
0.00388802
0.00397334
0.00402123
0.00404159
0.0040694
0.00395569
0.00379353
0.00368604
0.00370279
0.00384575
0.0037158
0.00356426
0.00334242
0.00292082
0.00264098
0.00267387
0.00266699
0.00219552
0.00177071
0.00109419
0.000518623
0.999998
0.999997
0.999997
0.999997
0.999996
0.999995
0.999993
0.999993
0.999992
0.999991
0.99999
0.99999
0.99999
0.99999
0.99999
0.99999
0.99999
0.99999
0.99999
0.99999
0.99999
0.99999
0.99999
0.99999
0.99999
0.99999
0.99999
0.99999
0.99999
0.99999
0.99999
0.99999
0.99999
0.99999
0.99999
0.99999
0.99999
0.99999
0.99999
0.99999
0.99999
0.99999
0.999989
0.999988
0.999986
0.999981
0.999972
0.999962
0.999953
0.99993
0.999869
0.999844
0.999845
0.999844
0.999843
0.999842
0.999849
0.999827
0.999757
0.936762
0.0284035
0.00113952
0.0006131
0.000277965
0.000255648
0.000287398
0.000297966
0.000307776
0.000310643
0.000310127
0.000313913
0.000313824
0.000315386
0.000314287
0.000316652
0.000330817
0.000346058
0.000362575
0.000384773
0.000419202
0.00045946
0.000495314
0.000475237
0.000366947
0.000291619
0.000247425
0.000176054
0.000109786
9.98981e-05
0.00010648
0.000110258
5.50003e-05
2.41201e-05
1.67284e-05
5.3769e-06
1.78601e-06
0.999998
0.999998
0.999998
0.999997
0.999996
0.999995
0.999993
0.999992
0.999992
0.999991
0.99999
0.99999
0.99999
0.99999
0.99999
0.99999
0.99999
0.99999
0.99999
0.99999
0.99999
0.99999
0.99999
0.99999
0.99999
0.99999
0.99999
0.99999
0.99999
0.99999
0.99999
0.99999
0.99999
0.99999
0.99999
0.99999
0.99999
0.99999
0.99999
0.99999
0.99999
0.99999
0.999989
0.999988
0.999985
0.999979
0.99997
0.99996
0.999953
0.999943
0.999886
0.999846
0.999845
0.999846
0.999848
0.999846
0.999849
0.999844
0.999813
0.962877
0.0249579
7.59322e-05
7.72561e-06
1.01675e-06
5.07161e-07
5.07162e-07
5.07162e-07
6.73513e-07
1.01962e-06
5.9377e-07
5.75682e-07
5.75683e-07
7.32584e-07
2.10317e-06
2.23324e-06
1.22485e-06
1.0478e-06
1.26782e-06
1.8501e-06
2.38007e-06
2.96889e-06
3.46464e-06
3.05389e-06
1.70406e-06
1.04499e-06
9.43087e-07
1.06637e-06
5.39316e-07
5.26182e-07
5.26182e-07
5.26182e-07
5.26183e-07
8.45955e-07
6.85399e-07
6.85102e-07
6.28638e-07
0.999998
0.999998
0.999998
0.999998
0.999997
0.999996
0.999994
0.999992
0.999992
0.999991
0.99999
0.99999
0.99999
0.99999
0.99999
0.99999
0.99999
0.99999
0.99999
0.99999
0.99999
0.99999
0.99999
0.99999
0.99999
0.99999
0.99999
0.99999
0.99999
0.99999
0.99999
0.99999
0.99999
0.99999
0.99999
0.99999
0.99999
0.99999
0.99999
0.99999
0.99999
0.99999
0.999989
0.999987
0.999984
0.999977
0.999968
0.999959
0.99995
0.999936
0.999909
0.999858
0.999845
0.999846
0.999848
0.999847
0.999849
0.999844
0.999686
0.973014
0.0344685
0.000112373
4.96665e-07
4.96799e-07
5.21262e-07
5.75646e-07
6.26246e-07
6.4095e-07
6.46206e-07
6.55202e-07
6.43788e-07
6.21368e-07
6.06975e-07
6.12368e-07
6.39629e-07
6.78688e-07
6.95743e-07
6.68929e-07
6.37049e-07
6.36593e-07
6.43438e-07
6.5837e-07
6.81572e-07
7.13598e-07
7.79079e-07
8.10017e-07
8.27515e-07
8.06713e-07
7.73999e-07
7.05863e-07
6.19805e-07
6.40367e-07
7.77842e-07
7.52104e-07
6.16874e-07
4.65684e-07
0.999998
0.999998
0.999998
0.999998
0.999998
0.999997
0.999995
0.999993
0.999991
0.999991
0.99999
0.99999
0.99999
0.99999
0.99999
0.99999
0.99999
0.99999
0.99999
0.99999
0.99999
0.99999
0.99999
0.99999
0.99999
0.99999
0.99999
0.99999
0.99999
0.99999
0.99999
0.99999
0.99999
0.99999
0.99999
0.99999
0.99999
0.99999
0.99999
0.99999
0.99999
0.99999
0.999989
0.999986
0.999982
0.999976
0.999967
0.999958
0.999947
0.999934
0.999919
0.999881
0.999852
0.999846
0.999848
0.999849
0.999849
0.999847
0.999692
0.97575
0.0595267
0.000373284
9.61102e-07
4.96665e-07
4.97762e-07
5.46242e-07
6.08349e-07
6.58866e-07
6.77506e-07
6.74317e-07
6.61007e-07
6.58682e-07
6.61511e-07
6.59698e-07
6.43191e-07
6.09408e-07
5.82179e-07
5.77508e-07
5.81372e-07
5.89655e-07
6.00475e-07
5.97553e-07
5.82017e-07
5.66806e-07
5.57526e-07
5.61035e-07
5.7331e-07
5.92174e-07
6.00426e-07
5.9348e-07
5.76336e-07
6.10714e-07
7.24253e-07
7.60553e-07
6.37262e-07
4.23222e-07
0.999998
0.999998
0.999998
0.999998
0.999998
0.999997
0.999996
0.999994
0.999991
0.999991
0.99999
0.99999
0.99999
0.99999
0.99999
0.99999
0.99999
0.99999
0.99999
0.99999
0.99999
0.99999
0.99999
0.99999
0.99999
0.99999
0.99999
0.99999
0.99999
0.99999
0.99999
0.99999
0.99999
0.99999
0.99999
0.99999
0.99999
0.99999
0.99999
0.99999
0.99999
0.99999
0.999989
0.999986
0.999981
0.999974
0.999966
0.999956
0.999943
0.999928
0.999914
0.999897
0.999868
0.999849
0.999848
0.999846
0.999848
0.999844
0.999735
0.967176
0.0602064
0.000361584
9.94439e-07
4.96665e-07
4.97283e-07
5.03847e-07
5.15619e-07
5.34696e-07
5.6227e-07
5.91505e-07
6.17015e-07
6.35911e-07
6.42246e-07
6.42126e-07
6.38661e-07
6.22437e-07
5.9034e-07
5.63058e-07
5.53443e-07
5.52002e-07
5.53709e-07
5.62079e-07
5.6255e-07
5.57868e-07
5.50093e-07
5.502e-07
5.52728e-07
5.58416e-07
5.64233e-07
5.63472e-07
5.63265e-07
6.15547e-07
7.32412e-07
7.61853e-07
6.43293e-07
4.12297e-07
0.999998
0.999998
0.999998
0.999998
0.999998
0.999998
0.999997
0.999995
0.999992
0.999991
0.99999
0.99999
0.99999
0.99999
0.99999
0.99999
0.99999
0.99999
0.99999
0.99999
0.99999
0.99999
0.99999
0.99999
0.99999
0.99999
0.99999
0.99999
0.99999
0.99999
0.99999
0.99999
0.99999
0.99999
0.99999
0.99999
0.99999
0.99999
0.99999
0.99999
0.99999
0.99999
0.999988
0.999985
0.99998
0.999974
0.999966
0.999955
0.99994
0.999922
0.999906
0.999896
0.999881
0.999861
0.999853
0.999847
0.999849
0.999845
0.999748
0.969017
0.0550901
0.000248114
6.15673e-07
5.11802e-07
5.03081e-07
5.0022e-07
5.01419e-07
5.03516e-07
5.07524e-07
5.18145e-07
5.38692e-07
5.61581e-07
5.71733e-07
5.72096e-07
5.70705e-07
5.67007e-07
5.58146e-07
5.40842e-07
5.23733e-07
5.20209e-07
5.21e-07
5.25748e-07
5.36796e-07
5.46933e-07
5.44802e-07
5.45374e-07
5.48084e-07
5.5213e-07
5.59147e-07
5.62141e-07
5.55595e-07
5.68538e-07
7.1571e-07
7.5236e-07
6.25318e-07
3.93967e-07
0.999999
0.999999
0.999998
0.999997
0.999997
0.999997
0.999997
0.999995
0.999992
0.999991
0.99999
0.99999
0.99999
0.99999
0.99999
0.99999
0.99999
0.99999
0.99999
0.99999
0.99999
0.99999
0.99999
0.99999
0.99999
0.99999
0.99999
0.99999
0.99999
0.99999
0.99999
0.99999
0.99999
0.99999
0.99999
0.99999
0.99999
0.99999
0.99999
0.99999
0.99999
0.99999
0.999988
0.999985
0.99998
0.999974
0.999966
0.999956
0.999942
0.999925
0.999903
0.999888
0.999879
0.999867
0.999861
0.999852
0.999856
0.999843
0.999514
0.964711
0.0501172
0.00024389
5.13738e-07
5.07088e-07
5.10712e-07
5.10524e-07
5.11197e-07
5.12063e-07
5.12701e-07
5.13334e-07
5.15482e-07
5.20951e-07
5.28929e-07
5.35186e-07
5.37628e-07
5.38116e-07
5.37677e-07
5.35386e-07
5.30582e-07
5.26033e-07
5.21788e-07
5.16782e-07
5.15943e-07
5.17926e-07
5.1916e-07
5.20392e-07
5.23933e-07
5.29105e-07
5.38348e-07
5.50433e-07
5.4701e-07
5.28047e-07
5.99156e-07
6.28477e-07
4.70522e-07
3.38344e-07
0.999997
0.999996
0.999995
0.999995
0.999994
0.999993
0.999992
0.999991
0.999991
0.99999
0.99999
0.99999
0.99999
0.99999
0.99999
0.99999
0.99999
0.99999
0.99999
0.99999
0.99999
0.99999
0.99999
0.99999
0.99999
0.99999
0.99999
0.99999
0.99999
0.99999
0.99999
0.99999
0.99999
0.99999
0.99999
0.99999
0.99999
0.99999
0.99999
0.99999
0.99999
0.99999
0.99999
0.999989
0.999987
0.999984
0.999978
0.999969
0.99996
0.999948
0.999929
0.999904
0.999889
0.999877
0.99987
0.999863
0.999862
0.999848
0.999469
0.925492
0.0307712
2.70636e-05
4.39702e-07
4.50102e-07
4.50134e-07
4.52354e-07
4.55862e-07
4.56726e-07
4.58334e-07
4.60387e-07
4.62558e-07
4.65479e-07
4.68531e-07
4.72018e-07
4.85345e-07
5.20663e-07
5.56684e-07
5.66701e-07
5.66242e-07
5.66506e-07
5.67737e-07
5.70384e-07
5.73933e-07
5.72991e-07
5.6181e-07
5.29587e-07
5.53826e-07
5.74124e-07
5.58018e-07
5.46922e-07
4.99181e-07
3.90734e-07
3.26839e-07
3.23992e-07
3.2269e-07
3.22707e-07
0.999998
0.999996
0.999995
0.999994
0.999994
0.999993
0.999992
0.999991
0.999991
0.99999
0.99999
0.99999
0.99999
0.99999
0.99999
0.99999
0.99999
0.99999
0.99999
0.99999
0.99999
0.99999
0.99999
0.99999
0.99999
0.99999
0.99999
0.99999
0.99999
0.99999
0.99999
0.99999
0.99999
0.99999
0.99999
0.99999
0.99999
0.99999
0.99999
0.99999
0.99999
0.99999
0.999989
0.999988
0.999987
0.999983
0.999976
0.999967
0.999955
0.999939
0.999924
0.99991
0.999898
0.999884
0.999875
0.999869
0.999872
0.999857
0.999683
0.881597
0.00677582
5.42104e-06
4.39701e-07
5.05371e-07
5.4984e-07
6.19006e-07
6.60644e-07
6.48999e-07
5.99954e-07
5.8007e-07
5.76413e-07
5.77273e-07
5.7951e-07
5.80984e-07
5.87615e-07
5.91177e-07
5.85998e-07
5.77931e-07
5.74197e-07
5.73823e-07
5.69233e-07
5.66984e-07
5.68151e-07
5.72475e-07
5.62741e-07
5.3933e-07
5.64531e-07
5.45385e-07
5.15159e-07
4.79767e-07
4.26205e-07
3.71675e-07
3.43042e-07
3.36144e-07
3.4331e-07
3.29449e-07
0.999998
0.999997
0.999995
0.999995
0.999994
0.999993
0.999992
0.999992
0.999991
0.999991
0.99999
0.99999
0.99999
0.99999
0.99999
0.99999
0.99999
0.99999
0.99999
0.99999
0.99999
0.99999
0.99999
0.99999
0.99999
0.99999
0.99999
0.99999
0.99999
0.99999
0.99999
0.99999
0.99999
0.99999
0.99999
0.99999
0.99999
0.99999
0.99999
0.99999
0.99999
0.99999
0.999989
0.999988
0.999985
0.999982
0.999977
0.999968
0.999955
0.999941
0.99993
0.999908
0.99988
0.999857
0.999845
0.999845
0.999855
0.999849
0.999705
0.887647
0.0071906
4.49896e-07
1.30774e-06
8.52601e-07
5.49905e-07
6.36963e-07
7.13426e-07
8.06262e-07
8.49378e-07
8.12193e-07
7.13645e-07
6.59083e-07
6.37567e-07
6.28107e-07
6.22769e-07
6.03485e-07
5.81394e-07
5.72384e-07
5.70731e-07
5.73046e-07
5.72135e-07
5.6833e-07
5.64581e-07
5.63981e-07
5.56578e-07
5.50466e-07
5.38044e-07
4.93276e-07
4.70403e-07
4.49331e-07
4.20503e-07
3.88802e-07
3.75832e-07
3.69474e-07
3.72731e-07
3.37361e-07
0.999998
0.999998
0.999996
0.999995
0.999994
0.999994
0.999993
0.999992
0.999991
0.999991
0.99999
0.99999
0.99999
0.99999
0.99999
0.99999
0.99999
0.99999
0.99999
0.99999
0.99999
0.99999
0.99999
0.99999
0.99999
0.99999
0.99999
0.99999
0.99999
0.99999
0.99999
0.99999
0.99999
0.99999
0.99999
0.99999
0.99999
0.99999
0.99999
0.99999
0.99999
0.99999
0.999989
0.999987
0.999985
0.999981
0.999978
0.999971
0.99996
0.999948
0.999929
0.999883
0.999853
0.999837
0.999835
0.99983
0.999836
0.999813
0.999808
0.814999
0.000453815
2.98021e-05
2.86439e-05
2.48267e-05
2.36418e-05
2.20972e-05
1.96258e-05
1.58006e-05
1.09981e-05
6.48645e-06
3.72895e-06
1.93188e-06
1.13197e-06
1.03328e-06
1.06271e-06
7.21305e-07
5.67299e-07
5.49171e-07
5.49357e-07
5.59037e-07
5.60168e-07
5.6166e-07
5.59314e-07
5.52262e-07
5.4632e-07
5.40155e-07
5.27717e-07
5.20406e-07
5.16922e-07
5.10078e-07
4.82152e-07
4.20698e-07
3.73141e-07
3.70508e-07
3.82469e-07
3.46478e-07
0.999998
0.999998
0.999997
0.999996
0.999995
0.999994
0.999993
0.999992
0.999991
0.999991
0.99999
0.99999
0.99999
0.99999
0.99999
0.99999
0.99999
0.99999
0.99999
0.99999
0.99999
0.99999
0.99999
0.99999
0.99999
0.99999
0.99999
0.99999
0.99999
0.99999
0.99999
0.99999
0.99999
0.99999
0.99999
0.99999
0.99999
0.99999
0.99999
0.99999
0.99999
0.99999
0.999989
0.999987
0.999984
0.999981
0.999976
0.999971
0.999962
0.999951
0.999901
0.999855
0.999838
0.999834
0.999834
0.999831
0.999823
0.999816
0.999853
0.782484
0.00338494
0.00147024
0.00151477
0.00150772
0.00151094
0.00143426
0.00133989
0.00115144
0.00092272
0.000660075
0.000451426
0.000283269
0.000162458
8.63152e-05
4.13907e-05
1.73972e-05
6.05754e-06
1.92604e-06
9.52958e-07
8.27247e-07
6.75791e-07
5.77578e-07
5.99554e-07
6.76972e-07
7.12656e-07
7.06315e-07
6.40884e-07
6.40935e-07
6.11001e-07
4.8827e-07
4.54953e-07
4.34885e-07
4.00462e-07
3.90055e-07
4.01281e-07
3.55568e-07
0.999998
0.999998
0.999997
0.999996
0.999995
0.999994
0.999993
0.999992
0.999992
0.999991
0.99999
0.99999
0.99999
0.99999
0.99999
0.99999
0.99999
0.99999
0.99999
0.99999
0.99999
0.99999
0.99999
0.99999
0.99999
0.99999
0.99999
0.99999
0.99999
0.99999
0.99999
0.99999
0.99999
0.99999
0.99999
0.99999
0.99999
0.99999
0.99999
0.99999
0.99999
0.99999
0.999989
0.999987
0.999984
0.99998
0.999975
0.999969
0.999963
0.999936
0.999864
0.99984
0.999837
0.99984
0.999838
0.999827
0.999818
0.99981
0.999853
0.645181
0.015878
0.011414
0.0125804
0.0129529
0.0132182
0.0132921
0.0127798
0.0119445
0.0108311
0.00927369
0.00764526
0.00615902
0.0047333
0.00347773
0.00244137
0.00163234
0.00101796
0.000572933
0.00028492
0.000129884
5.44935e-05
2.21129e-05
8.18907e-06
3.85581e-06
2.81616e-06
1.38276e-06
1.03789e-06
9.60117e-07
6.10864e-07
6.79143e-07
3.31713e-07
4.28559e-07
4.61399e-07
4.90659e-07
3.60923e-07
3.42345e-07
0.999998
0.999998
0.999998
0.999997
0.999996
0.999995
0.999994
0.999993
0.999992
0.999991
0.99999
0.99999
0.99999
0.99999
0.99999
0.99999
0.99999
0.99999
0.99999
0.99999
0.99999
0.99999
0.99999
0.99999
0.99999
0.99999
0.99999
0.99999
0.99999
0.99999
0.99999
0.99999
0.99999
0.99999
0.99999
0.99999
0.99999
0.99999
0.99999
0.99999
0.99999
0.99999
0.999989
0.999987
0.999984
0.99998
0.999975
0.999968
0.99996
0.999894
0.999842
0.999842
0.999843
0.99984
0.999833
0.999825
0.999822
0.999819
0.999853
0.605903
0.0335502
0.0261192
0.0282381
0.0288333
0.0291682
0.0296613
0.0299642
0.0297909
0.0289364
0.0284854
0.0275664
0.0265786
0.0251934
0.0234017
0.0215656
0.0199335
0.0183534
0.0163535
0.0139966
0.0113602
0.00898752
0.0072501
0.00596753
0.00516768
0.00484106
0.00487661
0.00494305
0.00437948
0.00360994
0.00286028
0.00221262
0.00271146
0.00310866
0.00368999
0.00430182
0.00471829
0.999998
0.999999
0.999998
0.999997
0.999996
0.999995
0.999994
0.999993
0.999992
0.999991
0.99999
0.99999
0.99999
0.99999
0.99999
0.99999
0.99999
0.99999
0.99999
0.99999
0.99999
0.99999
0.99999
0.99999
0.99999
0.99999
0.99999
0.99999
0.99999
0.99999
0.99999
0.99999
0.99999
0.99999
0.99999
0.99999
0.99999
0.99999
0.99999
0.99999
0.99999
0.99999
0.999989
0.999987
0.999983
0.999979
0.999973
0.999966
0.999957
0.999873
0.999844
0.999844
0.999842
0.999841
0.999839
0.999837
0.999837
0.999837
0.999853
0.687667
0.0402755
0.0264956
0.0279672
0.0283269
0.0284269
0.0297286
0.0311092
0.0329382
0.034242
0.0363102
0.0381374
0.0395762
0.0406064
0.0415515
0.0435217
0.0468608
0.0515422
0.0563868
0.0602366
0.0631353
0.0648076
0.0658874
0.0670862
0.0694425
0.0719869
0.0748234
0.0783504
0.0822893
0.0872205
0.0932616
0.100754
0.110518
0.123596
0.141803
0.185324
0.375785
0.999998
0.999999
0.999998
0.999998
0.999997
0.999995
0.999994
0.999993
0.999992
0.999991
0.99999
0.99999
0.99999
0.99999
0.99999
0.99999
0.99999
0.99999
0.99999
0.99999
0.99999
0.99999
0.99999
0.99999
0.99999
0.99999
0.99999
0.99999
0.99999
0.99999
0.99999
0.99999
0.99999
0.99999
0.99999
0.99999
0.99999
0.99999
0.99999
0.99999
0.99999
0.99999
0.999989
0.999986
0.999983
0.999978
0.999972
0.999964
0.999958
0.999897
0.999844
0.999845
0.999848
0.999849
0.999849
0.999846
0.999833
0.99981
0.99981
0.82359
0.0273934
0.00690103
0.0054336
0.00429209
0.00426255
0.00423671
0.0043227
0.00445769
0.00453194
0.00463795
0.00476513
0.00480072
0.00470588
0.00516701
0.00560276
0.0062972
0.007236
0.00847339
0.01003
0.0118351
0.0139701
0.0163495
0.0186267
0.0202536
0.0216738
0.0244889
0.0273826
0.0298755
0.0317477
0.0344852
0.0364858
0.0382122
0.0390705
0.0376863
0.0327218
0.0256891
0.999998
0.999999
0.999999
0.999998
0.999998
0.999996
0.999994
0.999993
0.999992
0.999991
0.99999
0.99999
0.99999
0.99999
0.99999
0.99999
0.99999
0.99999
0.99999
0.99999
0.99999
0.99999
0.99999
0.99999
0.99999
0.99999
0.99999
0.99999
0.99999
0.99999
0.99999
0.99999
0.99999
0.99999
0.99999
0.99999
0.99999
0.99999
0.99999
0.99999
0.99999
0.99999
0.999988
0.999986
0.999982
0.999978
0.999971
0.999963
0.999954
0.99994
0.999864
0.999845
0.999847
0.999848
0.999849
0.999846
0.999848
0.999839
0.999852
0.892077
0.0133419
0.000479488
0.000327539
0.00027076
0.000265851
0.000260369
0.000258761
0.000257726
0.000264125
0.000268295
0.000273567
0.000280926
0.000292279
0.000314856
0.000345035
0.000385931
0.000443767
0.000517491
0.000611965
0.000726396
0.000858861
0.000955476
0.000977615
0.000805552
0.000746351
0.000812927
0.000895185
0.000985121
0.00104167
0.00107286
0.000938067
0.000526207
0.000361756
0.000380562
0.000176599
8.72864e-05
0.999999
0.999999
0.999999
0.999999
0.999998
0.999997
0.999995
0.999993
0.999992
0.999991
0.99999
0.99999
0.99999
0.99999
0.99999
0.99999
0.99999
0.99999
0.99999
0.99999
0.99999
0.99999
0.99999
0.99999
0.99999
0.99999
0.99999
0.99999
0.99999
0.99999
0.99999
0.99999
0.99999
0.99999
0.99999
0.99999
0.99999
0.99999
0.99999
0.99999
0.99999
0.99999
0.999988
0.999986
0.999982
0.999977
0.99997
0.999962
0.999953
0.999938
0.999909
0.999858
0.999847
0.999848
0.999848
0.99985
0.999847
0.999827
0.999852
0.915181
0.00662345
8.61206e-06
1.04621e-05
6.75194e-06
6.3654e-06
5.52808e-06
5.09283e-06
4.45615e-06
4.09155e-06
3.80098e-06
3.65321e-06
4.26885e-06
4.86958e-06
5.14939e-06
5.23835e-06
5.20948e-06
5.65251e-06
6.20732e-06
6.7126e-06
7.18282e-06
7.45636e-06
7.01819e-06
5.36268e-06
3.56704e-06
2.61986e-06
2.00102e-06
1.49988e-06
1.31822e-06
1.15337e-06
1.02039e-06
9.60027e-07
8.64018e-07
7.54795e-07
7.54677e-07
7.27219e-07
4.73584e-07
0.999999
0.999999
0.999999
0.999999
0.999999
0.999997
0.999995
0.999993
0.999992
0.999991
0.99999
0.99999
0.99999
0.99999
0.99999
0.99999
0.99999
0.99999
0.99999
0.99999
0.99999
0.99999
0.99999
0.99999
0.99999
0.99999
0.99999
0.99999
0.99999
0.99999
0.99999
0.99999
0.99999
0.99999
0.99999
0.99999
0.99999
0.99999
0.99999
0.99999
0.99999
0.99999
0.999988
0.999985
0.999981
0.999976
0.999969
0.999962
0.999952
0.999933
0.999912
0.999891
0.999862
0.999851
0.999853
0.999857
0.999844
0.999824
0.999757
0.952272
0.0141755
4.96618e-07
9.86124e-07
5.76746e-07
9.69413e-07
6.9398e-07
6.88025e-07
6.41415e-07
6.66413e-07
7.31965e-07
6.45498e-07
6.01178e-07
6.01206e-07
6.21879e-07
6.86567e-07
6.8581e-07
6.61509e-07
6.23782e-07
6.24552e-07
6.43735e-07
6.39213e-07
5.8376e-07
5.19545e-07
4.79849e-07
4.82843e-07
5.28925e-07
6.19427e-07
6.33507e-07
6.22834e-07
5.97407e-07
6.082e-07
6.768e-07
7.78974e-07
7.64452e-07
4.55775e-07
2.97815e-07
0.999999
0.999999
0.999999
0.999999
0.999999
0.999998
0.999997
0.999994
0.999992
0.999991
0.99999
0.99999
0.99999
0.99999
0.99999
0.99999
0.99999
0.99999
0.99999
0.99999
0.99999
0.99999
0.99999
0.99999
0.99999
0.99999
0.99999
0.99999
0.99999
0.99999
0.99999
0.99999
0.99999
0.99999
0.99999
0.99999
0.99999
0.99999
0.99999
0.99999
0.99999
0.99999
0.999988
0.999985
0.99998
0.999975
0.999968
0.999961
0.999952
0.999935
0.999907
0.999891
0.999881
0.999872
0.999875
0.999859
0.999826
0.999823
0.999649
0.962177
0.0273152
4.96618e-07
9.61855e-07
6.26362e-07
6.67772e-07
6.62525e-07
7.18504e-07
7.48162e-07
7.53455e-07
7.2771e-07
6.71527e-07
6.3633e-07
6.28923e-07
6.17914e-07
5.92142e-07
5.65056e-07
5.6279e-07
5.701e-07
5.8027e-07
5.86932e-07
5.67197e-07
5.10499e-07
4.74169e-07
4.80702e-07
4.95954e-07
5.07706e-07
5.3067e-07
5.69027e-07
5.86161e-07
5.82531e-07
5.81185e-07
6.14024e-07
6.72152e-07
7.227e-07
4.91379e-07
3.48779e-07
0.999998
0.999998
0.999999
0.999999
0.999999
0.999999
0.999998
0.999996
0.999993
0.999991
0.99999
0.99999
0.99999
0.99999
0.99999
0.99999
0.99999
0.99999
0.99999
0.99999
0.99999
0.99999
0.99999
0.99999
0.99999
0.99999
0.99999
0.99999
0.99999
0.99999
0.99999
0.99999
0.99999
0.99999
0.99999
0.99999
0.99999
0.99999
0.99999
0.99999
0.99999
0.99999
0.999988
0.999985
0.99998
0.999974
0.999967
0.999958
0.999947
0.999932
0.99991
0.999889
0.999883
0.999873
0.999875
0.999822
0.999822
0.999817
0.999711
0.919709
0.0162127
1.47765e-05
4.96606e-07
5.12054e-07
5.01517e-07
5.05936e-07
5.28523e-07
5.70669e-07
6.16313e-07
6.39408e-07
6.41429e-07
6.36037e-07
6.2059e-07
6.01663e-07
5.82871e-07
5.60185e-07
5.45143e-07
5.40211e-07
5.36896e-07
5.38953e-07
5.46962e-07
5.40599e-07
5.10235e-07
4.94285e-07
5.05036e-07
5.17427e-07
5.32328e-07
5.52767e-07
5.57164e-07
5.61433e-07
5.67385e-07
6.00975e-07
6.56117e-07
7.13708e-07
5.44398e-07
3.77537e-07
0.999998
0.999998
0.999998
0.999998
0.999999
0.999999
0.999999
0.999998
0.999994
0.999991
0.99999
0.99999
0.99999
0.99999
0.99999
0.99999
0.99999
0.99999
0.99999
0.99999
0.99999
0.99999
0.99999
0.99999
0.99999
0.99999
0.99999
0.99999
0.99999
0.99999
0.99999
0.99999
0.99999
0.99999
0.99999
0.99999
0.99999
0.99999
0.99999
0.99999
0.99999
0.99999
0.999988
0.999984
0.99998
0.999974
0.999966
0.999955
0.999942
0.999926
0.99991
0.999893
0.999886
0.999873
0.99987
0.999846
0.999819
0.999818
0.999811
0.935005
0.0178355
1.73986e-05
4.96606e-07
5.09213e-07
4.96732e-07
4.96731e-07
4.97163e-07
4.98313e-07
5.01375e-07
5.06159e-07
5.14608e-07
5.24301e-07
5.28591e-07
5.28186e-07
5.26688e-07
5.2224e-07
5.13549e-07
5.08089e-07
5.08058e-07
5.08896e-07
5.12616e-07
5.20056e-07
5.20395e-07
4.99244e-07
5.03136e-07
5.15483e-07
5.34241e-07
5.55546e-07
5.59693e-07
5.62171e-07
5.54336e-07
5.51543e-07
6.55321e-07
7.00257e-07
5.37458e-07
3.70712e-07
0.999999
0.999999
0.999998
0.999998
0.999999
0.999999
0.999999
0.999998
0.999995
0.999991
0.99999
0.99999
0.99999
0.99999
0.99999
0.99999
0.99999
0.99999
0.99999
0.99999
0.99999
0.99999
0.99999
0.99999
0.99999
0.99999
0.99999
0.99999
0.99999
0.99999
0.99999
0.99999
0.99999
0.99999
0.99999
0.99999
0.99999
0.99999
0.99999
0.99999
0.99999
0.99999
0.999988
0.999984
0.99998
0.999974
0.999967
0.999956
0.999943
0.999926
0.999907
0.999889
0.999879
0.999868
0.999867
0.999842
0.999831
0.999813
0.999738
0.962004
0.0310481
7.23801e-05
4.96607e-07
5.06807e-07