/*--------------------------------*- C++ -*----------------------------------*\
| =========                 |                                                 |
| \\      /  F ield         | OpenFOAM: The Open Source CFD Toolbox           |
|  \\    /   O peration     | Version:  2.3.0                                 |
|   \\  /    A nd           | Web:      www.OpenFOAM.org                      |
|    \\/     M anipulation  |                                                 |
\*---------------------------------------------------------------------------*/
FoamFile
{
    version     2.0;
    format      ascii;
    class       surfaceScalarField;
    location    "63";
    object      phi;
}
// * * * * * * * * * * * * * * * * * * * * * * * * * * * * * * * * * * * * * //

dimensions      [0 3 -1 0 0 0 0];

internalField   nonuniform List<scalar> 
16448
(
-1.24691e-06
-2.4388e-06
5.92502e-07
5.3866e-07
-2.56869e-06
7.8311e-07
5.97782e-07
-1.2641e-06
1.20498e-06
5.55141e-07
-1.05471e-06
1.09735e-06
2.1915e-07
-5.50938e-07
8.86927e-07
7.79425e-08
-6.31005e-07
7.72212e-07
3.83628e-08
-6.42989e-07
6.82568e-07
2.16977e-08
-6.42169e-07
6.58833e-07
-5.84959e-08
-5.08073e-07
5.88264e-07
-2.37243e-07
-3.57913e-07
5.36658e-07
-4.5451e-07
-2.63691e-07
4.80955e-07
-5.79392e-07
-2.68085e-07
3.92965e-07
-5.94592e-07
-3.03803e-07
3.19001e-07
-5.12477e-07
-3.49432e-07
2.67315e-07
-4.01355e-07
-3.69246e-07
2.58122e-07
-2.77776e-07
-3.88084e-07
2.64502e-07
-1.62898e-07
-4.01078e-07
2.86198e-07
-6.24738e-08
-4.14191e-07
3.13764e-07
1.6325e-08
-4.25459e-07
3.46658e-07
7.15953e-08
-4.34071e-07
3.78798e-07
1.00449e-07
-4.38337e-07
4.09482e-07
1.0585e-07
-4.41066e-07
4.35664e-07
9.55015e-08
-4.428e-07
4.53147e-07
7.57859e-08
-4.39694e-07
4.59409e-07
5.1174e-08
-4.31352e-07
4.55964e-07
2.59104e-08
-4.1876e-07
4.44024e-07
4.25007e-09
-4.043e-07
4.25961e-07
-9.09444e-09
-3.92686e-07
4.06032e-07
-1.35107e-08
-3.80821e-07
3.85239e-07
-1.24547e-08
-3.67863e-07
3.66809e-07
-9.85463e-09
-3.54278e-07
3.5168e-07
-8.14767e-09
-3.41189e-07
3.39485e-07
-9.43064e-09
-3.28976e-07
3.30261e-07
-1.50433e-08
-3.18166e-07
3.23783e-07
-2.46678e-08
-3.0961e-07
3.19237e-07
-3.81362e-08
-3.03105e-07
3.16579e-07
-5.99221e-08
-2.95407e-07
3.17196e-07
-1.03754e-07
-2.79801e-07
3.23638e-07
-1.84507e-07
-2.54442e-07
3.35197e-07
-3.09998e-07
-2.28889e-07
3.54385e-07
-4.5192e-07
-2.27425e-07
3.69351e-07
-5.00162e-07
-3.08776e-07
3.57024e-07
-3.60082e-07
-4.71327e-07
3.31249e-07
-6.1184e-08
-6.47494e-07
3.48602e-07
2.38031e-07
-7.88841e-07
4.89626e-07
3.52235e-07
-8.78484e-07
7.64286e-07
1.83665e-08
-6.93468e-07
1.02734e-06
-8.18558e-07
-2.51367e-07
1.0883e-06
-1.71088e-06
-3.92322e-08
9.31554e-07
-2.46361e-06
4.12145e-08
7.11531e-07
-3.06452e-06
-3.01093e-07
9.02007e-07
-1.1865e-07
-5.16748e-06
2.22161e-06
6.87576e-06
-1.11184e-05
4.12396e-06
1.31071e-05
-1.10825e-05
4.85115e-06
1.60181e-05
-8.41992e-06
5.50892e-06
1.86304e-05
-6.54504e-06
3.93264e-06
1.66097e-05
-4.46022e-06
6.48085e-06
1.49037e-05
-1.80631e-06
3.51225e-06
-6.90897e-06
7.00557e-06
1.48069e-05
5.89206e-07
-2.34666e-06
-5.15161e-06
2.16865e-05
-1.30514e-05
-8.04581e-06
2.74091e-05
-8.36213e-06
2.63954e-06
2.44782e-05
-2.74184e-06
5.67274e-06
2.53648e-05
-1.75948e-06
8.72858e-07
2.63404e-05
-2.51343e-06
1.53784e-06
2.6585e-05
-2.36766e-06
2.12305e-06
2.64605e-05
-2.27762e-06
2.40209e-06
2.61484e-05
-2.10516e-06
2.41727e-06
2.54372e-05
-2.01342e-06
2.72466e-06
2.43583e-05
-1.8796e-06
2.95844e-06
2.31866e-05
-1.7033e-06
2.87505e-06
2.12728e-05
-1.11387e-06
3.02763e-06
1.90836e-05
-9.50756e-07
3.13993e-06
1.56566e-05
2.5832e-07
3.1687e-06
1.07332e-05
1.21053e-06
3.71282e-06
7.45575e-06
-1.38736e-06
4.66485e-06
6.7865e-06
-4.54086e-06
5.21011e-06
8.21559e-06
-6.22472e-06
4.79563e-06
1.0777e-05
-6.26269e-06
3.70123e-06
1.27981e-05
-4.27768e-06
2.25667e-06
1.49473e-05
-2.6561e-06
5.06867e-07
1.60535e-05
-3.28879e-07
-7.77362e-07
1.41083e-05
2.27706e-06
-3.31867e-07
1.04671e-05
3.33928e-06
3.01946e-07
7.18094e-06
2.41309e-06
8.73053e-07
3.4374e-06
2.62175e-06
1.12179e-06
-2.14896e-07
6.03483e-07
3.04881e-06
-1.43133e-06
-2.17222e-06
3.38866e-06
-1.89002e-06
-3.31423e-06
3.77292e-06
-1.96054e-06
-3.8344e-06
3.90492e-06
-2.49577e-06
-2.99891e-06
3.53414e-06
-3.38069e-06
-1.84514e-06
2.73005e-06
-4.23437e-06
-1.50133e-06
2.35501e-06
-4.20973e-06
-2.14036e-06
2.11573e-06
-3.27824e-06
-2.80742e-06
1.87593e-06
-2.23572e-06
-1.04253e-06
-1.97871e-06
-3.45239e-06
-1.76079e-07
-5.8952e-07
-3.80075e-06
-1.57126e-07
-2.37878e-07
-2.32283e-06
7.07084e-07
1.72792e-07
-1.91671e-06
4.51335e-07
2.8595e-07
-9.52574e-07
2.88479e-07
2.22897e-07
-8.03412e-07
2.35461e-07
1.10589e-07
-6.74759e-07
1.44078e-07
-8.60114e-10
-6.25968e-07
9.52475e-08
-1.47916e-07
-4.24298e-07
6.32794e-08
-3.76444e-07
-2.24545e-07
9.51588e-08
-6.15152e-07
-1.25892e-07
1.00906e-07
-7.3343e-07
-1.81017e-07
3.12096e-08
-7.4561e-07
-2.60354e-07
-3.12703e-08
-6.66141e-07
-3.43653e-07
-8.52499e-08
-5.49175e-07
-3.83443e-07
-1.0277e-07
-4.15827e-07
-4.15358e-07
-1.06076e-07
-2.88161e-07
-4.34194e-07
-9.45515e-08
-1.73604e-07
-4.50765e-07
-7.7985e-08
-7.91918e-08
-4.63097e-07
-5.67753e-08
-7.60563e-09
-4.70871e-07
-3.47864e-08
3.89222e-08
-4.71614e-07
-1.32515e-08
6.08189e-08
-4.67651e-07
4.68834e-09
6.57625e-08
-4.60479e-07
1.27355e-08
5.9132e-08
-4.48266e-07
1.52042e-08
4.51578e-08
-4.30357e-07
1.29814e-08
2.73965e-08
-4.07993e-07
6.99614e-09
9.44848e-09
-3.83934e-07
-2.41448e-09
-2.89085e-09
-3.62484e-07
-1.78591e-08
-8.22376e-09
-3.42211e-07
-3.3273e-08
-8.58263e-09
-3.20298e-07
-4.72006e-08
-7.17631e-09
-2.96815e-07
-5.88642e-08
-6.64577e-09
-2.73524e-07
-6.81897e-08
-9.3667e-09
-2.51292e-07
-7.49562e-08
-1.76977e-08
-2.30522e-07
-7.9307e-08
-3.3102e-08
-2.122e-07
-8.19983e-08
-5.59819e-08
-1.96355e-07
-8.38639e-08
-8.97418e-08
-1.77575e-07
-8.40651e-08
-1.45813e-07
-1.43455e-07
-8.02686e-08
-2.39072e-07
-9.01106e-08
-7.10657e-08
-3.56665e-07
-4.51695e-08
-6.61211e-08
-4.29555e-07
-7.06457e-08
-8.38825e-08
-3.87047e-07
-2.19914e-07
-1.31366e-07
-2.63604e-07
-4.25758e-07
-1.69006e-07
-7.87831e-08
-6.60748e-07
-1.71564e-07
1.29917e-07
-9.16337e-07
-8.11998e-08
-9.5817e-08
-9.08085e-07
2.55337e-07
-9.02937e-07
-4.55475e-07
5.69133e-07
-1.62201e-06
-3.22209e-08
4.99934e-07
-1.90332e-06
2.01155e-08
2.21967e-07
-2.01176e-06
3.63932e-07
-2.14274e-07
2.02217e-06
-3.29534e-06
-1.03968e-06
9.87784e-06
-1.25962e-05
-4.26969e-07
1.47386e-05
-1.57186e-05
-2.6058e-07
1.87017e-05
-1.39635e-05
-1.08216e-06
2.0308e-05
-8.54298e-06
-1.4833e-06
2.31545e-05
-6.12307e-06
-3.26854e-06
2.28788e-05
-3.22973e-06
-9.54813e-07
2.1697e-05
1.12984e-06
-1.7545e-06
-4.21431e-06
1.3168e-05
1.97485e-05
6.20978e-07
-3.24088e-06
-3.94125e-06
1.51618e-05
-1.80566e-05
-9.5357e-06
1.52693e-05
-1.003e-05
1.56041e-06
1.28926e-05
-1.02667e-06
6.61535e-07
7.97594e-06
2.29257e-06
8.64621e-07
-1.56486e-06
-1.16169e-06
8.18907e-06
-5.1311e-06
-1.00563e-06
2.20421e-06
-8.26555e-06
-1.79006e-06
2.6469e-06
-1.16793e-05
-1.91467e-06
3.2233e-06
-1.37722e-05
-3.27167e-06
3.35111e-06
-1.54349e-05
-3.65635e-06
3.43951e-06
-1.64866e-05
-4.50883e-06
3.8572e-06
-1.69661e-05
-4.73314e-06
4.09873e-06
-1.71159e-05
-4.96293e-06
4.16201e-06
-1.63981e-05
-4.76916e-06
4.30971e-06
-1.452e-05
-5.21992e-06
4.55237e-06
-1.30297e-05
-7.43803e-06
4.56035e-06
-1.20781e-05
-9.2787e-06
3.78619e-06
-1.06382e-05
-1.03949e-05
2.73038e-06
-8.03536e-06
-1.07577e-05
1.89219e-06
-5.02272e-06
-7.88835e-06
5.98038e-07
-8.87706e-07
-4.26846e-06
-2.52265e-06
3.93935e-06
-5.53699e-07
-4.60223e-06
6.33332e-06
4.30532e-06
-4.42223e-06
3.29577e-06
7.26533e-06
-8.88503e-07
-1.45081e-06
6.94409e-06
2.15588e-07
-3.38356e-06
3.92918e-06
6.25318e-07
-3.38641e-06
-3.19997e-07
9.26334e-07
-3.23535e-06
-2.90643e-06
5.83146e-07
-3.52387e-06
-4.03316e-06
1.00745e-06
-4.13115e-06
-4.52513e-06
1.29801e-06
-4.52689e-06
-3.84611e-06
1.24294e-06
-4.33502e-06
-3.18867e-06
1.15167e-06
-4.74198e-06
-2.70196e-06
1.60759e-06
-5.16652e-06
-3.46063e-06
1.74481e-06
-4.10953e-06
-4.09659e-06
2.3218e-07
-3.06049e-06
-3.28475e-06
-2.50011e-06
-3.7263e-06
-4.2377e-07
-1.39457e-06
-4.26759e-06
-6.38695e-07
-9.87199e-07
-2.93986e-06
2.0966e-07
-3.91626e-07
-2.58962e-06
7.73417e-08
-1.89478e-08
-1.33404e-06
8.79376e-09
2.34016e-08
-8.49048e-07
3.28922e-09
-5.79249e-08
-4.50067e-07
-1.43365e-07
-1.80853e-07
-3.43359e-07
-1.59681e-07
-3.01484e-07
-1.22102e-07
-1.81567e-07
-4.20745e-07
4.69804e-08
-1.52267e-07
-5.52302e-07
1.31356e-07
-1.25694e-07
-6.3697e-07
5.97935e-08
-1.56146e-07
-6.6744e-07
-2.3016e-08
-2.06871e-07
-6.42408e-07
-1.15805e-07
-2.52883e-07
-5.81627e-07
-1.68196e-07
-2.7603e-07
-4.96817e-07
-2.08613e-07
-2.91558e-07
-4.06853e-07
-2.29676e-07
-2.94484e-07
-3.19871e-07
-2.45081e-07
-2.92668e-07
-2.42873e-07
-2.534e-07
-2.86697e-07
-1.77207e-07
-2.56873e-07
-2.79665e-07
-1.23479e-07
-2.53056e-07
-2.72287e-07
-8.16893e-08
-2.42206e-07
-2.67234e-07
-5.22351e-08
-2.26239e-07
-2.63693e-07
-3.35024e-08
-2.05841e-07
-2.61157e-07
-2.31986e-08
-1.80953e-07
-2.59706e-07
-1.89895e-08
-1.52862e-07
-2.59337e-07
-1.89086e-08
-1.23884e-07
-2.60127e-07
-2.23586e-08
-9.64671e-08
-2.62562e-07
-2.79378e-08
-7.04811e-08
-2.66146e-07
-3.54779e-08
-4.26221e-08
-2.70131e-07
-4.51728e-08
-1.31815e-08
-2.73932e-07
-5.84221e-08
1.70419e-08
-2.7731e-07
-7.70691e-08
4.74993e-08
-2.80138e-07
-1.02074e-07
7.68163e-08
-2.82326e-07
-1.35842e-07
1.05452e-07
-2.83877e-07
-1.80996e-07
1.34368e-07
-2.85561e-07
-2.38949e-07
1.68729e-07
-2.88344e-07
-3.10981e-07
2.21128e-07
-2.92542e-07
-3.97981e-07
2.9608e-07
-2.99183e-07
-4.73624e-07
3.44527e-07
-3.14045e-07
-4.91708e-07
2.89427e-07
-3.41983e-07
-4.81324e-07
1.36583e-07
-3.66873e-07
-5.521e-07
2.04067e-09
-3.57019e-07
-6.73305e-07
-1.74184e-07
-3.65352e-07
-8.11102e-07
-4.46101e-07
-3.32435e-07
-1.16979e-06
-4.04067e-07
-1.45321e-07
-1.63638e-06
-7.29985e-08
8.41145e-08
-1.78723e-06
4.54815e-08
7.31572e-08
-1.36906e-06
-1.02391e-07
-2.95662e-07
4.18671e-07
8.42876e-08
-1.50808e-06
7.23165e-06
-7.49994e-06
-2.60839e-06
1.40571e-05
-1.77411e-05
-1.68058e-06
1.58195e-05
-1.69024e-05
-5.78563e-07
1.77789e-05
-1.25244e-05
-3.3986e-06
1.85601e-05
-3.03435e-06
-6.28982e-06
2.16142e-05
-1.65705e-06
-7.52018e-06
2.26982e-05
2.58318e-06
-6.8969e-06
2.56354e-05
5.74916e-06
-7.55677e-06
-5.87338e-06
2.62581e-05
1.84183e-05
8.19072e-07
-7.99917e-06
-1.9344e-06
1.68217e-05
-2.33918e-05
-1.06674e-05
1.38109e-05
-7.93576e-06
9.16473e-07
8.54647e-06
1.21428e-06
3.02349e-06
1.46011e-06
4.46856e-06
4.91037e-06
-7.20517e-06
-1.9267e-07
7.69626e-06
-1.3485e-05
-6.78249e-07
5.95249e-06
-1.69887e-05
-2.53564e-06
4.24926e-06
-1.90865e-05
-3.30079e-06
3.4839e-06
-2.01996e-05
-5.53072e-06
3.37213e-06
-2.10948e-05
-6.26095e-06
3.49983e-06
-2.20055e-05
-7.2655e-06
3.66744e-06
-2.281e-05
-7.74594e-06
3.81723e-06
-2.32092e-05
-8.23533e-06
3.67159e-06
-2.28739e-05
-8.75623e-06
3.65177e-06
-2.17845e-05
-9.52353e-06
3.21422e-06
-2.0536e-05
-1.1339e-05
2.65239e-06
-1.96332e-05
-1.24536e-05
2.27219e-06
-1.85785e-05
-1.31903e-05
1.74068e-06
-1.74327e-05
-1.32365e-05
1.3329e-06
-1.61278e-05
-1.10331e-05
1.83993e-06
-1.50122e-05
-7.77571e-06
2.39163e-06
-1.4002e-05
-4.7523e-06
3.1884e-06
-1.32025e-05
-1.22857e-07
3.62869e-06
-1.21407e-05
2.54253e-06
3.66104e-06
-1.00707e-05
3.03771e-06
1.83641e-06
-7.20927e-06
4.92054e-07
5.75661e-07
-5.56164e-06
-1.44485e-06
-5.22773e-07
-4.8306e-06
-2.59174e-06
-1.04573e-06
-4.42707e-06
-3.50411e-06
-9.32579e-07
-3.96546e-06
-3.78045e-06
-1.20629e-06
-2.94764e-06
-3.19158e-06
-1.67235e-06
-2.05707e-06
-3.24885e-06
-8.30387e-07
-2.12322e-06
-2.932e-06
2.96182e-07
-3.59642e-06
-3.22988e-06
1.24245e-06
-3.64928e-06
-2.72939e-06
-1.31434e-06
-3.22009e-06
-3.48968e-06
-2.97383e-06
-3.78824e-06
-1.92071e-07
-1.88801e-06
-4.51941e-06
-8.33997e-07
-1.57194e-06
-3.35176e-06
9.58361e-08
-9.57727e-07
-3.28249e-06
7.86519e-08
-4.7626e-07
-1.99252e-06
1.77009e-07
-1.97949e-07
-1.22134e-06
9.39793e-08
-1.74144e-07
-3.30743e-07
-1.43127e-07
-2.48419e-07
-8.60372e-08
-1.83048e-07
-2.88907e-07
1.30533e-07
-2.12149e-07
-3.43545e-07
2.95319e-07
-1.93704e-07
-4.02728e-07
3.93438e-07
-2.02902e-07
-4.75905e-07
3.60729e-07
-2.27763e-07
-5.50705e-07
3.10905e-07
-2.59125e-07
-5.7827e-07
2.08076e-07
-2.9632e-07
-5.63651e-07
1.39395e-07
-3.22213e-07
-5.15873e-07
8.91362e-08
-3.4553e-07
-4.50751e-07
6.51868e-08
-3.59988e-07
-3.82017e-07
5.74755e-08
-3.71292e-07
-3.17403e-07
5.99525e-08
-3.77968e-07
-2.59027e-07
6.66852e-08
-3.81936e-07
-2.06607e-07
7.82913e-08
-3.83768e-07
-1.59802e-07
9.45403e-08
-3.83551e-07
-1.19439e-07
1.14507e-07
-3.81107e-07
-8.66169e-08
1.38339e-07
-3.77e-07
-6.21811e-08
1.66749e-07
-3.72135e-07
-4.63743e-08
1.98541e-07
-3.67206e-07
-3.82125e-08
2.30353e-07
-3.62395e-07
-3.61948e-08
2.59866e-07
-3.58346e-07
-4.0174e-08
2.88968e-07
-3.55464e-07
-5.1152e-08
3.21764e-07
-3.53402e-07
-7.03855e-08
3.58617e-07
-3.52557e-07
-9.66368e-08
3.95552e-07
-3.52252e-07
-1.27813e-07
4.31119e-07
-3.52434e-07
-1.62318e-07
4.65367e-07
-3.54038e-07
-1.99945e-07
5.00353e-07
-3.57262e-07
-2.43301e-07
5.39196e-07
-3.61464e-07
-2.94494e-07
5.87303e-07
-3.67369e-07
-3.50107e-07
6.53154e-07
-3.76405e-07
-3.992e-07
7.32476e-07
-3.87291e-07
-4.27646e-07
7.69628e-07
-3.96649e-07
-4.58826e-07
7.09112e-07
-3.88493e-07
-5.74931e-07
5.99791e-07
-3.47099e-07
-8.41358e-07
5.60112e-07
-2.91633e-07
-1.17127e-06
4.50358e-07
-2.9463e-07
-1.45031e-06
2.08992e-07
-3.76041e-07
-1.64704e-06
2.38465e-07
-4.45801e-07
-1.77027e-06
4.41346e-07
-3.91103e-07
-1.64015e-06
2.5824e-07
-3.42876e-07
-9.27315e-07
-1.92485e-07
-6.22726e-07
3.64291e-06
-1.75172e-06
-2.73422e-06
1.06058e-05
-1.14873e-05
-2.97557e-06
1.07041e-05
-1.81284e-05
2.89028e-07
1.02842e-05
-1.59056e-05
-5.76884e-07
1.26042e-05
-9.25703e-06
-5.58746e-06
1.53677e-05
2.65108e-06
-8.44898e-06
2.01698e-05
4.67676e-06
-1.11359e-05
2.62912e-05
1.09856e-05
-1.45238e-05
3.2595e-05
6.56648e-06
-7.12121e-06
1.67428e-07
4.0287e-05
1.83977e-05
7.3776e-07
-5.42626e-06
-3.14346e-06
5.81182e-06
-2.11034e-05
-7.36242e-06
-6.36485e-06
9.20567e-08
4.14886e-06
-1.15789e-05
3.988e-06
2.44036e-06
-1.81963e-05
6.00045e-06
5.08547e-06
-2.15682e-05
-7.8498e-07
3.96422e-06
-2.28937e-05
-2.32819e-06
2.97552e-06
-2.45051e-05
-4.06671e-06
3.14247e-06
-2.57247e-05
-5.53322e-06
3.45203e-06
-2.69549e-05
-7.82559e-06
3.52508e-06
-2.79547e-05
-8.77968e-06
3.51849e-06
-2.84273e-05
-1.00685e-05
3.27561e-06
-2.86774e-05
-1.05537e-05
3.05793e-06
-2.82716e-05
-1.09302e-05
2.28899e-06
-2.70814e-05
-1.1581e-05
1.63464e-06
-2.53558e-05
-1.17005e-05
4.51364e-07
-2.34843e-05
-1.20364e-05
-1.174e-06
-2.19079e-05
-1.18686e-05
-2.16139e-06
-2.07562e-05
-1.17716e-05
-2.57046e-06
-1.98428e-05
-1.16143e-05
-2.53556e-06
-1.958e-05
-1.088e-05
-4.16064e-07
-1.90814e-05
-9.51103e-06
1.23676e-06
-1.85877e-05
-7.59243e-06
2.34646e-06
-1.72629e-05
-4.56853e-06
3.12085e-06
-1.56998e-05
-1.4067e-06
2.38614e-06
-1.31445e-05
4.70274e-07
1.21636e-08
-1.1005e-05
3.24909e-07
-1.97245e-06
-8.35441e-06
-6.07147e-07
-3.48825e-06
-4.55771e-06
-1.25436e-06
-5.13409e-06
-1.65663e-06
-6.28995e-07
-5.77619e-06
-1.10379e-07
3.77519e-07
-5.70422e-06
-2.53414e-07
2.42335e-06
-5.4719e-06
-1.32467e-06
1.99219e-06
-4.16979e-06
-2.18439e-06
-4.27956e-07
-1.64432e-06
-3.09608e-06
-2.04307e-06
-2.75114e-07
-2.53393e-06
-9.24963e-07
-2.36657e-06
-1.73575e-06
-4.01828e-06
-3.40936e-06
-3.69267e-06
4.02211e-08
-2.34999e-06
-4.67977e-06
-8.99016e-07
-2.07088e-06
-3.59691e-06
-3.39451e-08
-1.40266e-06
-3.83871e-06
-1.1199e-07
-8.91603e-07
-2.82266e-06
3.1909e-07
-3.83751e-07
-1.97654e-06
2.47353e-07
-2.12476e-07
-4.0137e-07
-1.00648e-07
-2.62333e-07
1.26552e-07
-1.62734e-07
-2.34311e-07
3.16065e-07
-2.13558e-07
-2.39484e-07
5.07242e-07
-2.06755e-07
-2.56528e-07
6.29922e-07
-2.19445e-07
-3.31128e-07
6.55587e-07
-2.20263e-07
-4.41109e-07
6.50483e-07
-2.29601e-07
-5.13768e-07
5.35346e-07
-2.54615e-07
-5.29425e-07
4.32948e-07
-2.779e-07
-5.01867e-07
3.64159e-07
-3.02584e-07
-4.51496e-07
3.36679e-07
-3.21867e-07
-3.96288e-07
3.41228e-07
-3.38963e-07
-3.43033e-07
3.59417e-07
-3.52721e-07
-2.92835e-07
3.80437e-07
-3.63952e-07
-2.44321e-07
4.0263e-07
-3.72853e-07
-1.96411e-07
4.26094e-07
-3.79463e-07
-1.51342e-07
4.52051e-07
-3.82611e-07
-1.10995e-07
4.80133e-07
-3.82139e-07
-7.71406e-08
5.10848e-07
-3.77951e-07
-5.12418e-08
5.4328e-07
-3.70634e-07
-3.35476e-08
5.7418e-07
-3.61516e-07
-2.4288e-08
6.02472e-07
-3.5186e-07
-2.54929e-08
6.32176e-07
-3.41997e-07
-3.80744e-08
6.67098e-07
-3.32745e-07
-6.1597e-08
7.06905e-07
-3.24758e-07
-9.41484e-08
7.46919e-07
-3.18805e-07
-1.32814e-07
7.85341e-07
-3.15548e-07
-1.75251e-07
8.23038e-07
-3.15222e-07
-2.21717e-07
8.63847e-07
-3.17019e-07
-2.74009e-07
9.11802e-07
-3.203e-07
-3.3303e-07
9.70298e-07
-3.23965e-07
-3.88626e-07
1.03802e-06
-3.29253e-07
-4.25846e-07
1.09924e-06
-3.29536e-07
-4.47376e-07
1.09975e-06
-3.08575e-07
-5.06569e-07
1.01255e-06
-2.44242e-07
-6.66865e-07
9.13766e-07
-1.53665e-07
-9.50336e-07
9.26508e-07
-8.29238e-08
-1.31398e-06
9.34155e-07
-1.20137e-07
-1.60247e-06
8.04528e-07
-3.07047e-07
-1.59206e-06
8.57481e-07
-6.29414e-07
-1.39863e-06
1.07276e-06
-8.24839e-07
-1.10678e-06
7.47044e-07
-7.80641e-07
-6.57045e-07
2.61294e-07
-9.0352e-07
4.49398e-06
-4.08701e-06
-2.81572e-06
7.63644e-06
-1.24416e-05
-2.18821e-06
2.56385e-06
-1.38683e-05
8.12523e-07
3.35589e-06
-1.46397e-05
-2.05802e-06
6.22481e-06
-4.28557e-06
-7.84038e-06
9.04151e-06
9.25992e-06
-9.42558e-06
5.03242e-06
1.51245e-05
-6.43862e-06
1.50218e-05
1.84537e-05
-1.74573e-05
1.61984e-05
1.38412e-05
-8.45155e-06
2.52374e-06
4.59456e-05
8.0149e-06
-4.748e-07
1.00698e-06
-3.43459e-06
-1.08605e-05
-6.966e-06
-3.75171e-06
-2.12876e-05
5.36353e-06
5.15578e-06
-2.58683e-05
6.2789e-06
2.28978e-06
-2.83466e-05
5.25292e-06
3.22598e-06
-2.99379e-05
-2.40396e-06
3.21028e-06
-3.16251e-05
-4.1147e-06
3.47373e-06
-3.36061e-05
-5.13785e-06
3.05226e-06
-3.53293e-05
-6.9609e-06
3.15092e-06
-3.67952e-05
-9.05237e-06
2.6927e-06
-3.71021e-05
-1.0484e-05
2.01119e-06
-3.69407e-05
-1.14765e-05
1.24661e-06
-3.5882e-05
-1.2033e-05
4.2059e-07
-3.49243e-05
-1.19806e-05
9.27137e-08
-3.37548e-05
-1.24478e-05
-3.02695e-07
-3.14638e-05
-1.15676e-05
-2.42384e-06
-2.8299e-05
-1.10506e-05
-4.15061e-06
-2.54575e-05
-1.00623e-05
-4.64779e-06
-2.32273e-05
-9.05265e-06
-4.94916e-06
-2.18801e-05
-8.45599e-06
-4.50547e-06
-2.12203e-05
-8.23771e-06
-3.30205e-06
-2.01123e-05
-7.66398e-06
-2.95506e-06
-1.87802e-05
-6.44589e-06
-2.47861e-06
-1.74817e-05
-4.07696e-06
-1.79006e-06
-1.5251e-05
-5.61442e-07
-3.07597e-06
-1.17801e-05
2.58514e-06
-5.58575e-06
-7.86152e-06
4.96225e-06
-8.55596e-06
-4.56711e-06
5.4877e-06
-9.38925e-06
-1.42055e-06
3.6535e-06
-8.05442e-06
1.50116e-06
3.32661e-06
-6.87731e-06
3.55716e-06
4.54754e-06
-6.22602e-06
4.92145e-06
7.46372e-06
-6.40465e-06
4.97778e-06
7.40159e-06
-5.46574e-06
2.45804e-06
5.3447e-06
-3.25291e-06
-1.79052e-06
2.95362e-06
-7.48132e-07
-1.72969e-06
1.48741e-06
-2.47321e-06
8.86733e-07
-4.35217e-06
-3.82543e-06
-3.47989e-06
4.12419e-07
-2.83614e-06
-4.84578e-06
-8.23279e-07
-2.53743e-06
-3.73675e-06
-1.58863e-07
-1.65557e-06
-4.10272e-06
-6.17844e-07
-1.11297e-06
-3.45671e-06
9.14517e-08
-4.58172e-07
-2.80622e-06
1.74887e-07
-1.58168e-07
-6.82883e-07
-1.84918e-08
-2.05439e-07
2.49647e-07
-7.58282e-08
-1.36179e-07
4.47951e-07
-2.0115e-07
-1.25686e-07
6.84589e-07
-1.87846e-07
-1.19342e-07
8.28043e-07
-2.0447e-07
-2.06632e-07
9.32608e-07
-1.89737e-07
-3.56321e-07
9.84099e-07
-1.83932e-07
-4.61195e-07
8.42281e-07
-2.02066e-07
-4.8298e-07
6.88847e-07
-2.34119e-07
-4.54316e-07
6.02706e-07
-2.67214e-07
-4.0511e-07
5.81365e-07
-2.93896e-07
-3.59298e-07
6.0901e-07
-3.13597e-07
-3.22426e-07
6.5111e-07
-3.28567e-07
-2.90914e-07
6.89268e-07
-3.40343e-07
-2.59709e-07
7.21047e-07
-3.49624e-07
-2.26617e-07
7.48614e-07
-3.55611e-07
-1.92922e-07
7.75642e-07
-3.57286e-07
-1.60118e-07
8.02642e-07
-3.55311e-07
-1.32238e-07
8.3236e-07
-3.49389e-07
-1.11213e-07
8.62159e-07
-3.399e-07
-9.54958e-08
8.85771e-07
-3.27302e-07
-8.50362e-08
9.05185e-07
-3.13167e-07
-8.2194e-08
9.27245e-07
-2.97903e-07
-8.95235e-08
9.57591e-07
-2.83157e-07
-1.08451e-07
9.95891e-07
-2.70048e-07
-1.37414e-07
1.03518e-06
-2.59287e-07
-1.74288e-07
1.07326e-06
-2.51033e-07
-2.17077e-07
1.11069e-06
-2.44855e-07
-2.64932e-07
1.15145e-06
-2.39732e-07
-3.18862e-07
1.20112e-06
-2.35383e-07
-3.80618e-07
1.26213e-06
-2.3006e-07
-4.42326e-07
1.32246e-06
-2.22729e-07
-4.94763e-07
1.35588e-06
-2.04186e-07
-5.40702e-07
1.30897e-06
-1.63279e-07
-6.13802e-07
1.17664e-06
-9.0977e-08
-7.48639e-07
1.07451e-06
-2.59101e-08
-9.40671e-07
1.11023e-06
8.31909e-09
-1.18129e-06
1.21746e-06
-4.26915e-08
-1.3509e-06
1.22281e-06
-2.48658e-07
-1.21514e-06
1.33573e-06
-6.14009e-07
-5.46473e-07
1.45594e-06
-1.05183e-06
4.72837e-07
8.54428e-07
-1.1267e-06
1.96167e-06
3.83393e-07
-1.61092e-06
5.57995e-06
-4.55355e-06
-3.15175e-06
5.25613e-06
-8.90637e-06
-3.21138e-06
1.71418e-07
-7.1038e-06
-1.67984e-06
-3.96182e-06
-8.10758e-06
-2.39882e-06
-5.38508e-06
7.14723e-07
-3.57702e-06
-9.27606e-06
1.42987e-05
-1.14775e-06
-1.39906e-05
2.34794e-05
-3.64035e-06
-1.16738e-05
2.55763e-05
-9.43913e-06
-1.55414e-05
2.77753e-05
-1.00668e-05
2.86993e-06
3.94842e-05
-1.19513e-05
3.70178e-07
2.1814e-06
1.32569e-06
-1.1163e-05
8.54743e-06
-3.97976e-06
-2.15902e-05
9.28921e-06
6.50223e-06
-2.96889e-05
1.27418e-05
1.63651e-06
-3.56285e-05
8.95146e-06
2.24185e-06
-3.93034e-05
-1.64678e-06
2.91843e-06
-4.1754e-05
-5.04793e-06
3.38456e-06
-4.36012e-05
-5.78247e-06
2.49245e-06
-4.53242e-05
-7.94967e-06
2.71236e-06
-4.66125e-05
-9.34483e-06
1.58131e-06
-4.59473e-05
-1.06969e-05
-4.51816e-07
-4.46725e-05
-1.10235e-05
-1.72747e-06
-4.28828e-05
-1.17015e-05
-2.12093e-06
-4.09477e-05
-1.15007e-05
-2.41492e-06
-3.92167e-05
-1.16438e-05
-2.53493e-06
-3.66415e-05
-1.11307e-05
-3.01207e-06
-3.30978e-05
-1.13628e-05
-3.23149e-06
-2.98194e-05
-1.06769e-05
-2.66375e-06
-2.70699e-05
-9.3676e-06
-2.43454e-06
-2.5596e-05
-7.56134e-06
-2.36847e-06
-2.489e-05
-6.06822e-06
-2.87547e-06
-2.41176e-05
-4.72386e-06
-3.71254e-06
-2.21127e-05
-4.07116e-06
-4.3796e-06
-1.94592e-05
-2.65949e-06
-4.07101e-06
-1.66328e-05
1.02815e-06
-4.41594e-06
-1.32241e-05
4.04649e-06
-4.8701e-06
-1.05879e-05
6.23917e-06
-3.91313e-06
-8.81909e-06
4.78067e-06
-1.06177e-06
-5.93697e-06
5.30303e-07
2.41079e-07
-1.92013e-06
-1.83512e-06
1.14489e-06
2.81114e-06
-5.57844e-07
3.74123e-07
5.58699e-06
6.72499e-06
-2.03712e-06
7.13699e-06
7.6435e-06
-1.79192e-06
5.90175e-06
6.10482e-06
4.75126e-07
2.12456e-06
5.83621e-06
8.94597e-07
-1.76475e-07
6.15071e-06
-2.36227e-06
6.01828e-06
-5.30802e-06
-4.15732e-06
-3.09573e-06
8.39074e-07
-3.3235e-06
-4.86599e-06
-8.13603e-07
-3.04288e-06
-3.67797e-06
-3.39394e-07
-1.86418e-06
-4.08001e-06
-1.2014e-06
-1.14471e-06
-3.71038e-06
-4.65791e-07
-3.53933e-07
-3.2451e-06
-3.51895e-07
-7.57655e-10
-9.29862e-07
-1.062e-07
-1.17459e-07
4.00753e-07
-3.44094e-08
-3.49676e-08
5.99164e-07
-2.33712e-07
-4.95677e-08
8.97547e-07
-1.98364e-07
-5.08992e-08
1.04421e-06
-2.14844e-07
-1.53926e-07
1.19793e-06
-1.623e-07
-2.95769e-07
1.26562e-06
-1.39689e-07
-3.75645e-07
1.09295e-06
-1.70797e-07
-3.83716e-07
9.18995e-07
-2.22083e-07
-3.52525e-07
8.33349e-07
-2.61839e-07
-3.13589e-07
8.31107e-07
-2.88683e-07
-2.88398e-07
8.85736e-07
-3.0192e-07
-2.78512e-07
9.50484e-07
-3.09262e-07
-2.76676e-07
1.00238e-06
-3.14951e-07
-2.76992e-07
1.04065e-06
-3.19285e-07
-2.75593e-07
1.06872e-06
-3.21501e-07
-2.71048e-07
1.09112e-06
-3.20025e-07
-2.63982e-07
1.11011e-06
-3.14537e-07
-2.58945e-07
1.13098e-06
-3.03652e-07
-2.57776e-07
1.15072e-06
-2.8973e-07
-2.55142e-07
1.16003e-06
-2.76894e-07
-2.50707e-07
1.1655e-06
-2.64739e-07
-2.45987e-07
1.17529e-06
-2.52755e-07
-2.46145e-07
1.19845e-06
-2.40687e-07
-2.56422e-07
1.23512e-06
-2.28941e-07
-2.76316e-07
1.27347e-06
-2.18384e-07
-3.03461e-07
1.30943e-06
-2.09019e-07
-3.34688e-07
1.34257e-06
-2.00636e-07
-3.67086e-07
1.37673e-06
-1.92872e-07
-4.02868e-07
1.42077e-06
-1.83849e-07
-4.50663e-07
1.48007e-06
-1.7014e-07
-5.14013e-07
1.53748e-06
-1.51643e-07
-5.83328e-07
1.55151e-06
-1.26314e-07
-6.43457e-07
1.46175e-06
-9.26279e-08
-6.85502e-07
1.27396e-06
-5.52726e-08
-7.38989e-07
1.16121e-06
-3.31945e-08
-8.1436e-07
1.20708e-06
-2.14814e-08
-8.89411e-07
1.34365e-06
-5.11266e-08
-9.24085e-07
1.42901e-06
-1.71539e-07
-7.68932e-07
1.6514e-06
-4.70809e-07
-1.55764e-08
1.56844e-06
-8.65855e-07
1.39241e-06
5.94419e-07
-1.14796e-06
4.15568e-06
-6.37491e-07
-1.7424e-06
6.86848e-06
-3.32857e-06
-3.93777e-06
6.87017e-06
-4.20303e-06
-4.70505e-06
1.45188e-07
-1.40331e-07
-2.38463e-07
-1.42367e-05
2.97344e-06
3.30089e-06
-2.314e-05
7.56649e-06
2.05159e-06
-2.87646e-05
1.73471e-05
2.57622e-06
-2.9197e-05
2.41562e-05
-2.44297e-07
-2.91412e-05
2.72468e-05
-1.72604e-06
-2.46528e-05
3.23045e-05
-9.01769e-06
-4.14419e-07
3.04991e-05
-1.52547e-05
1.14798e-06
4.13792e-07
2.0561e-07
-5.99974e-07
1.8837e-05
-8.54014e-06
-1.98315e-05
2.18587e-05
6.66415e-06
-2.9767e-05
2.24998e-05
1.79558e-07
-3.56899e-05
1.41232e-05
7.53608e-07
-4.27313e-05
3.58104e-06
1.81615e-06
-4.76098e-05
-2.53789e-06
2.37099e-06
-5.14947e-05
-2.66192e-06
7.66936e-07
-5.17083e-05
-7.68366e-06
-4.98881e-08
-5.15616e-05
-7.5339e-06
-1.95527e-06
-5.12029e-05
-7.9242e-06
-3.1292e-06
-4.99897e-05
-8.97882e-06
-3.25584e-06
-4.79824e-05
-1.02247e-05
-3.48239e-06
-4.52393e-05
-1.11278e-05
-3.11452e-06
-4.25439e-05
-1.12024e-05
-3.13547e-06
-3.93345e-05
-1.11264e-05
-3.21273e-06
-3.53645e-05
-1.19998e-05
-3.33213e-06
-3.07046e-05
-1.26529e-05
-2.68331e-06
-2.54984e-05
-1.27082e-05
-1.86514e-06
-2.07543e-05
-1.18198e-05
-4.85389e-07
-1.71684e-05
-1.08076e-05
1.15384e-06
-1.46799e-05
-9.39294e-06
2.18087e-06
-1.3342e-05
-8.80364e-06
3.39485e-06
-1.20958e-05
-7.45341e-06
3.54796e-06
-1.12326e-05
-2.36106e-06
2.52627e-06
-1.05238e-05
7.7649e-07
2.56155e-06
-1.19966e-05
3.52181e-06
4.19041e-06
-1.42013e-05
1.16771e-06
5.81801e-06
-1.46586e-05
-6.02619e-06
7.01408e-06
-1.2205e-05
-1.15315e-05
7.24307e-06
-5.98039e-06
-1.39645e-05
7.18221e-06
1.5185e-06
-7.37136e-06
6.59753e-06
5.26056e-06
1.79159e-07
3.72232e-06
5.3012e-06
3.17048e-06
2.89373e-06
3.16724e-06
5.69765e-06
2.27254e-06
7.78854e-07
1.00281e-05
-1.48897e-06
1.19619e-05
-5.16474e-06
-4.07372e-06
-2.55786e-06
1.48262e-06
-3.64182e-06
-4.50354e-06
-7.94354e-07
-3.65247e-06
-3.40863e-06
-2.58678e-07
-2.38177e-06
-3.91611e-06
-1.43459e-06
-1.36e-06
-3.80057e-06
-9.3158e-07
-2.6335e-07
-3.42707e-06
-9.1469e-07
1.48153e-07
-1.20469e-06
-1.36684e-07
2.3844e-08
4.69182e-07
5.58731e-08
4.7808e-08
8.64193e-07
-2.88999e-07
-5.06965e-08
1.20179e-06
-2.0575e-07
-7.61795e-08
1.30601e-06
-2.36324e-07
-1.20366e-07
1.43146e-06
-1.89354e-07
-1.3847e-07
1.48826e-06
-2.04541e-07
-1.46589e-07
1.36075e-06
-2.5969e-07
-1.49498e-07
1.25199e-06
-3.30091e-07
-1.62564e-07
1.22717e-06
-3.80755e-07
-1.87739e-07
1.27266e-06
-4.16379e-07
-2.23149e-07
1.35679e-06
-4.35642e-07
-2.64717e-07
1.44115e-06
-4.49106e-07
-3.11432e-07
1.50927e-06
-4.60175e-07
-3.53525e-07
1.55153e-06
-4.68793e-07
-3.85523e-07
1.57535e-06
-4.74638e-07
-4.08863e-07
1.59215e-06
-4.7769e-07
-4.2452e-07
1.60407e-06
-4.78299e-07
-4.32491e-07
1.61525e-06
-4.76294e-07
-4.35112e-07
1.62536e-06
-4.72011e-07
-4.35843e-07
1.62796e-06
-4.6719e-07
-4.31495e-07
1.62477e-06
-4.6362e-07
-4.22382e-07
1.62525e-06
-4.59068e-07
-4.16326e-07
1.64488e-06
-4.52483e-07
-4.20894e-07
1.68386e-06
-4.44169e-07
-4.33561e-07
1.7226e-06
-4.36465e-07
-4.50929e-07
1.75676e-06
-4.29949e-07
-4.69784e-07
1.78611e-06
-4.24678e-07
-4.87189e-07
1.81436e-06
-4.2021e-07
-5.03354e-07
1.85151e-06
-4.14562e-07
-5.23509e-07
1.90283e-06
-4.02587e-07
-5.54355e-07
1.95005e-06
-3.81726e-07
-5.91399e-07
1.94582e-06
-3.57244e-07
-6.18122e-07
1.82719e-06
-3.38716e-07
-6.17464e-07
1.60963e-06
-3.36317e-07
-5.99878e-07
1.48384e-06
-3.40228e-07
-5.3664e-07
1.4886e-06
-3.44757e-07
-4.11056e-07
1.58798e-06
-3.6992e-07
-3.2804e-07
1.75652e-06
-4.10516e-07
-1.48545e-07
2.01027e-06
-5.38371e-07
6.62553e-07
1.51466e-06
-7.57307e-07
2.24116e-06
-1.66882e-07
-8.17311e-07
5.33481e-06
-1.78632e-06
-1.9448e-06
5.63163e-06
1.29749e-06
-4.92288e-06
-9.52211e-07
4.42448e-06
-2.04365e-06
-1.35498e-05
9.1351e-06
3.32222e-06
-2.6242e-05
1.28517e-05
2.81403e-06
-3.47245e-05
1.52267e-05
8.22295e-07
-3.71146e-05
1.87564e-05
9.80923e-07
-3.15042e-05
2.02036e-05
-1.65771e-06
-2.93981e-05
3.06133e-05
-5.47236e-06
-2.79082e-05
3.18158e-05
-1.00142e-06
-1.51859e-06
-7.01588e-06
1.11238e-05
-4.81401e-07
5.13691e-06
-5.75979e-06
-5.82547e-06
3.50889e-05
-1.09054e-05
-2.01899e-05
2.79037e-05
8.32259e-06
-2.36385e-05
2.67807e-05
-8.29197e-07
-2.45214e-05
1.23189e-05
2.6907e-06
-2.86653e-05
3.04136e-06
4.68737e-06
-3.71848e-05
-3.04265e-06
9.02816e-06
-4.75711e-05
9.69266e-07
6.7593e-06
-5.25972e-05
-3.01826e-06
3.64989e-07
-5.43018e-05
-1.83271e-06
-3.99231e-06
-5.50173e-05
-9.86705e-07
-6.21766e-06
-5.46081e-05
-1.71718e-06
-7.6667e-06
-5.38135e-05
-3.51844e-06
-7.49687e-06
-5.20118e-05
-4.59721e-06
-8.32864e-06
-5.01626e-05
-4.74292e-06
-8.30519e-06
-4.7565e-05
-5.59101e-06
-8.12995e-06
-4.46517e-05
-7.11784e-06
-7.79251e-06
-4.09926e-05
-8.85066e-06
-7.45884e-06
-3.70017e-05
-9.635e-06
-7.06189e-06
-3.0623e-05
-1.12395e-05
-6.95717e-06
-2.33906e-05
-1.34537e-05
-4.58484e-06
-1.54633e-05
-1.47135e-05
-2.60562e-06
-9.53069e-06
-1.47462e-05
1.11276e-08
-6.32032e-06
-1.24964e-05
1.83374e-06
-6.34281e-06
-5.60904e-06
3.27171e-06
-9.81335e-06
6.96805e-07
3.55157e-06
-1.42395e-05
5.18191e-06
2.76754e-06
-1.90839e-05
4.40227e-06
1.61147e-06
-2.17581e-05
-3.84809e-06
4.97782e-07
-2.2941e-05
-1.29188e-05
2.572e-06
-2.25142e-05
-1.94535e-05
5.06425e-06
-1.71229e-05
-1.98667e-05
7.10631e-06
-1.50658e-05
-7.84752e-06
5.97222e-06
-1.56719e-05
2.04807e-06
1.73133e-06
-1.53104e-05
6.11338e-06
-7.74398e-07
-1.03675e-05
8.25072e-06
-3.163e-06
7.22481e-06
-5.62933e-06
-3.42386e-06
-1.47335e-06
2.45678e-06
-3.76409e-06
-4.07738e-06
-8.59218e-08
-4.26684e-06
-3.10421e-06
1.98338e-07
-3.13189e-06
-3.89902e-06
-1.15202e-06
-1.92969e-06
-3.98115e-06
-1.02162e-06
-4.40841e-07
-3.74639e-06
-1.16953e-06
1.73597e-07
-1.70845e-06
-1.10685e-07
3.86119e-08
1.99053e-07
4.05107e-07
1.32355e-08