/*--------------------------------*- C++ -*----------------------------------*\
| =========                 |                                                 |
| \\      /  F ield         | OpenFOAM: The Open Source CFD Toolbox           |
|  \\    /   O peration     | Version:  2.3.0                                 |
|   \\  /    A nd           | Web:      www.OpenFOAM.org                      |
|    \\/     M anipulation  |                                                 |
\*---------------------------------------------------------------------------*/
FoamFile
{
    version     2.0;
    format      ascii;
    class       surfaceScalarField;
    location    "63";
    object      phi.air;
}
// * * * * * * * * * * * * * * * * * * * * * * * * * * * * * * * * * * * * * //

dimensions      [0 3 -1 0 0 0 0];

internalField   nonuniform List<scalar> 
16448
(
-1.24692e-06
-2.4388e-06
5.92502e-07
5.3866e-07
-2.56869e-06
7.8311e-07
5.97782e-07
-1.2641e-06
1.20498e-06
5.5514e-07
-1.05471e-06
1.09735e-06
2.1915e-07
-5.50938e-07
8.86927e-07
7.79419e-08
-6.31005e-07
7.72212e-07
3.8362e-08
-6.42989e-07
6.82568e-07
2.16968e-08
-6.42169e-07
6.58833e-07
-5.84969e-08
-5.08073e-07
5.88264e-07
-2.37244e-07
-3.57913e-07
5.36658e-07
-4.54511e-07
-2.63691e-07
4.80955e-07
-5.79393e-07
-2.68085e-07
3.92965e-07
-5.94593e-07
-3.03803e-07
3.19001e-07
-5.12478e-07
-3.49432e-07
2.67315e-07
-4.01356e-07
-3.69246e-07
2.58122e-07
-2.77777e-07
-3.88084e-07
2.64502e-07
-1.629e-07
-4.01078e-07
2.86198e-07
-6.2475e-08
-4.14191e-07
3.13764e-07
1.63239e-08
-4.25459e-07
3.46658e-07
7.15942e-08
-4.34071e-07
3.78798e-07
1.00448e-07
-4.38337e-07
4.09482e-07
1.05849e-07
-4.41066e-07
4.35664e-07
9.55004e-08
-4.428e-07
4.53147e-07
7.57847e-08
-4.39694e-07
4.59409e-07
5.11729e-08
-4.31352e-07
4.55964e-07
2.59093e-08
-4.1876e-07
4.44024e-07
4.24896e-09
-4.043e-07
4.25961e-07
-9.09555e-09
-3.92686e-07
4.06032e-07
-1.35118e-08
-3.80821e-07
3.85239e-07
-1.24558e-08
-3.67863e-07
3.66809e-07
-9.85574e-09
-3.54278e-07
3.5168e-07
-8.14878e-09
-3.41189e-07
3.39485e-07
-9.43175e-09
-3.28976e-07
3.30261e-07
-1.50444e-08
-3.18166e-07
3.23783e-07
-2.46689e-08
-3.0961e-07
3.19237e-07
-3.81373e-08
-3.03105e-07
3.16579e-07
-5.99233e-08
-2.95407e-07
3.17196e-07
-1.03756e-07
-2.79801e-07
3.23638e-07
-1.84508e-07
-2.54442e-07
3.35197e-07
-3.09999e-07
-2.28889e-07
3.54385e-07
-4.51922e-07
-2.27425e-07
3.69351e-07
-5.00163e-07
-3.08776e-07
3.57024e-07
-3.60084e-07
-4.71327e-07
3.31249e-07
-6.11857e-08
-6.47494e-07
3.48602e-07
2.38028e-07
-7.88841e-07
4.89626e-07
3.52231e-07
-8.78484e-07
7.64286e-07
1.83601e-08
-6.93468e-07
1.02734e-06
-8.18568e-07
-2.51367e-07
1.0883e-06
-1.71089e-06
-3.92322e-08
9.31554e-07
-2.46364e-06
4.12144e-08
7.11531e-07
-3.06457e-06
-3.01093e-07
9.02007e-07
-1.18719e-07
-5.16748e-06
2.22162e-06
6.87567e-06
-1.11184e-05
4.12396e-06
1.3107e-05
-1.10825e-05
4.85115e-06
1.6018e-05
-8.41992e-06
5.50892e-06
1.86303e-05
-6.54504e-06
3.93264e-06
1.66096e-05
-4.46021e-06
6.48086e-06
1.49037e-05
-1.80631e-06
3.51224e-06
-7.24809e-06
7.00568e-06
1.48071e-05
-3.05113e-05
-2.43948e-06
-5.19007e-06
-6.3764e-05
-1.05812e-05
-3.08729e-06
-1.6876e-05
-4.11939e-06
6.05728e-06
2.34947e-05
-2.72138e-06
5.67987e-06
2.44981e-05
-1.77052e-06
8.77685e-07
2.53203e-05
-2.55901e-06
1.52322e-06
2.55759e-05
-2.39974e-06
2.10529e-06
2.55024e-05
-2.29838e-06
2.40236e-06
2.51656e-05
-2.12242e-06
2.43656e-06
2.44182e-05
-2.03169e-06
2.74451e-06
2.3334e-05
-1.89916e-06
2.97884e-06
2.21639e-05
-1.72128e-06
2.88197e-06
2.02484e-05
-1.12693e-06
3.02285e-06
1.80967e-05
-9.62447e-07
3.13506e-06
1.46963e-05
2.63343e-07
3.15472e-06
9.67092e-06
1.22675e-06
3.69376e-06
6.29373e-06
-1.35997e-06
4.63913e-06
5.61325e-06
-4.53474e-06
5.17642e-06
7.03105e-06
-6.24666e-06
4.76702e-06
9.58991e-06
-6.30235e-06
3.69689e-06
1.16804e-05
-4.3237e-06
2.2744e-06
1.38464e-05
-2.69339e-06
5.12261e-07
1.49006e-05
-3.30038e-07
-7.66521e-07
1.29967e-05
2.25916e-06
-3.24474e-07
9.38727e-06
3.36465e-06
3.07533e-07
6.11249e-06
2.42862e-06
8.77127e-07
2.30761e-06
2.62597e-06
1.11541e-06
-1.38578e-06
6.10505e-07
3.02966e-06
-2.58935e-06
-2.1801e-06
3.37107e-06
-3.03246e-06
-3.32418e-06
3.75395e-06
-3.05957e-06
-3.84882e-06
3.89111e-06
-3.4247e-06
-3.0127e-06
3.53117e-06
-4.14312e-06
-1.85206e-06
2.7274e-06
-4.93836e-06
-1.50922e-06
2.34784e-06
-4.94177e-06
-2.15242e-06
2.10365e-06
-3.96696e-06
-2.82135e-06
1.86818e-06
-2.22964e-06
-1.05236e-06
-1.97871e-06
-3.45239e-06
-1.76079e-07
-5.89521e-07
-3.80075e-06
-1.57126e-07
-2.37878e-07
-2.32283e-06
7.07084e-07
1.72791e-07
-1.91671e-06
4.51335e-07
2.8595e-07
-9.52574e-07
2.88479e-07
2.22896e-07
-8.03412e-07
2.35461e-07
1.10588e-07
-6.74759e-07
1.44078e-07
-8.61036e-10
-6.25968e-07
9.52475e-08
-1.47917e-07
-4.24298e-07
6.32794e-08
-3.76446e-07
-2.24545e-07
9.51588e-08
-6.15153e-07
-1.25892e-07
1.00906e-07
-7.33431e-07
-1.81017e-07
3.12096e-08
-7.45612e-07
-2.60354e-07
-3.12703e-08
-6.66142e-07
-3.43653e-07
-8.52499e-08
-5.49176e-07
-3.83443e-07
-1.0277e-07
-4.15828e-07
-4.15358e-07
-1.06076e-07
-2.88162e-07
-4.34194e-07
-9.45515e-08
-1.73605e-07
-4.50765e-07
-7.7985e-08
-7.91929e-08
-4.63097e-07
-5.67753e-08
-7.60676e-09
-4.70871e-07
-3.47864e-08
3.89211e-08
-4.71614e-07
-1.32515e-08
6.08178e-08
-4.67651e-07
4.68834e-09
6.57614e-08
-4.60479e-07
1.27355e-08
5.91309e-08
-4.48266e-07
1.52042e-08
4.51567e-08
-4.30357e-07
1.29814e-08
2.73954e-08
-4.07993e-07
6.99614e-09
9.44734e-09
-3.83934e-07
-2.41448e-09
-2.89199e-09
-3.62484e-07
-1.78591e-08
-8.2249e-09
-3.42211e-07
-3.3273e-08
-8.58377e-09
-3.20298e-07
-4.72006e-08
-7.17746e-09
-2.96815e-07
-5.88642e-08
-6.64692e-09
-2.73524e-07
-6.81897e-08
-9.36785e-09
-2.51292e-07
-7.49562e-08
-1.76988e-08
-2.30522e-07
-7.9307e-08
-3.31032e-08
-2.122e-07
-8.19983e-08
-5.59831e-08
-1.96355e-07
-8.38639e-08
-8.97429e-08
-1.77575e-07
-8.40651e-08
-1.45814e-07
-1.43455e-07
-8.02686e-08
-2.39073e-07
-9.01106e-08
-7.10657e-08
-3.56666e-07
-4.51695e-08
-6.61211e-08
-4.29556e-07
-7.06457e-08
-8.38825e-08
-3.87049e-07
-2.19914e-07
-1.31366e-07
-2.63605e-07
-4.25758e-07
-1.69006e-07
-7.8785e-08
-6.60748e-07
-1.71564e-07
1.29914e-07
-9.16337e-07
-8.11998e-08
-9.58216e-08
-9.08085e-07
2.55337e-07
-9.02945e-07
-4.55475e-07
5.69133e-07
-1.62203e-06
-3.22209e-08
4.99934e-07
-1.90334e-06
2.01154e-08
2.21967e-07
-2.01179e-06
3.63932e-07
-2.14274e-07
2.02212e-06
-3.29534e-06
-1.03968e-06
9.87776e-06
-1.25962e-05
-4.26969e-07
1.47385e-05
-1.57186e-05
-2.6058e-07
1.87016e-05
-1.39635e-05
-1.08216e-06
2.03079e-05
-8.54298e-06
-1.4833e-06
2.31544e-05
-6.12307e-06
-3.26854e-06
2.28786e-05
-3.22972e-06
-9.54805e-07
2.16971e-05
1.12984e-06
-1.75451e-06
-4.6026e-06
1.3168e-05
1.97487e-05
-3.2487e-05
-3.38757e-06
-4.12718e-06
-7.43038e-05
-1.39828e-05
-6.29981e-06
-2.81796e-05
-3.38745e-06
6.74578e-06
1.20449e-05
-9.63684e-07
6.78875e-07
6.76107e-06
2.3255e-06
8.54496e-07
-2.88434e-06
-1.12769e-06
8.11456e-06
-6.54789e-06
-9.76479e-07
2.23656e-06
-9.61879e-06
-1.75332e-06
2.687e-06
-1.29742e-05
-1.87983e-06
3.26456e-06
-1.5041e-05
-3.22331e-06
3.38945e-06
-1.66998e-05
-3.60555e-06
3.47301e-06
-1.77625e-05
-4.4527e-06
3.88723e-06
-1.82825e-05
-4.67918e-06
4.10883e-06
-1.8387e-05
-4.90508e-06
4.14432e-06
-1.76413e-05
-4.7336e-06
4.28061e-06
-1.58489e-05
-5.24493e-06
4.52076e-06
-1.43646e-05
-7.48502e-06
4.53098e-06
-1.33699e-05
-9.33319e-06
3.76151e-06
-1.19053e-05
-1.04389e-05
2.72049e-06
-9.30682e-06
-1.073e-05
1.91016e-06
-6.26811e-06
-7.83281e-06
6.10295e-07
-2.14323e-06
-4.22897e-06
-2.53057e-06
2.70692e-06
-5.50062e-07
-4.62812e-06
5.13338e-06
4.26932e-06
-4.42959e-06
2.06269e-06
7.21161e-06
-8.88637e-07
-2.67848e-06
6.92074e-06
2.17061e-07
-4.65775e-06
3.94139e-06
6.21401e-07
-4.66257e-06
-3.18449e-07
9.19479e-07
-4.43953e-06
-2.92277e-06
5.74444e-07
-4.7241e-06
-4.06241e-06
9.96048e-07
-5.32115e-06
-4.55683e-06
1.29023e-06
-5.62079e-06
-3.86893e-06
1.24131e-06
-5.29251e-06
-3.19902e-06
1.14795e-06
-5.58695e-06
-2.68949e-06
1.59895e-06
-5.97383e-06
-3.44793e-06
1.73368e-06
-4.86219e-06
-4.0796e-06
2.29067e-07
-3.05945e-06
-3.30679e-06
-2.50011e-06
-3.7263e-06
-4.2377e-07
-1.39457e-06
-4.26759e-06
-6.38695e-07
-9.87199e-07
-2.93986e-06
2.0966e-07
-3.91627e-07
-2.58962e-06
7.73417e-08
-1.89483e-08
-1.33404e-06
8.79376e-09
2.3401e-08
-8.49048e-07
3.28922e-09
-5.79257e-08
-4.50067e-07
-1.43365e-07
-1.80854e-07
-3.43359e-07
-1.59681e-07
-3.01485e-07
-1.22102e-07
-1.81567e-07
-4.20746e-07
4.69804e-08
-1.52267e-07
-5.52304e-07
1.31356e-07
-1.25694e-07
-6.36971e-07
5.97935e-08
-1.56146e-07
-6.67441e-07
-2.3016e-08
-2.06871e-07
-6.42409e-07
-1.15805e-07
-2.52883e-07
-5.81628e-07
-1.68196e-07
-2.7603e-07
-4.96818e-07
-2.08613e-07
-2.91558e-07
-4.06854e-07
-2.29676e-07
-2.94484e-07
-3.19873e-07
-2.45081e-07
-2.92668e-07
-2.42874e-07
-2.534e-07
-2.86697e-07
-1.77208e-07
-2.56873e-07
-2.79665e-07
-1.2348e-07
-2.53056e-07
-2.72287e-07
-8.16904e-08
-2.42206e-07
-2.67234e-07
-5.22363e-08
-2.26239e-07
-2.63693e-07
-3.35035e-08
-2.05841e-07
-2.61157e-07
-2.31998e-08
-1.80953e-07
-2.59706e-07
-1.89906e-08
-1.52862e-07
-2.59337e-07
-1.89098e-08
-1.23884e-07
-2.60127e-07
-2.23598e-08
-9.64671e-08
-2.62562e-07
-2.79389e-08
-7.04811e-08
-2.66146e-07
-3.54791e-08
-4.26221e-08
-2.70131e-07
-4.5174e-08
-1.31815e-08
-2.73932e-07
-5.84233e-08
1.70419e-08
-2.7731e-07
-7.70703e-08
4.74993e-08
-2.80138e-07
-1.02075e-07
7.68163e-08
-2.82326e-07
-1.35843e-07
1.05452e-07
-2.83877e-07
-1.80997e-07
1.34368e-07
-2.85561e-07
-2.3895e-07
1.68729e-07
-2.88344e-07
-3.10982e-07
2.21128e-07
-2.92542e-07
-3.97982e-07
2.9608e-07
-2.99183e-07
-4.73625e-07
3.44527e-07
-3.14045e-07
-4.91709e-07
2.89427e-07
-3.41983e-07
-4.81326e-07
1.36583e-07
-3.66873e-07
-5.52102e-07
2.04066e-09
-3.57019e-07
-6.73307e-07
-1.74184e-07
-3.65352e-07
-8.11105e-07
-4.46101e-07
-3.32435e-07
-1.1698e-06
-4.04067e-07
-1.45321e-07
-1.63639e-06
-7.29985e-08
8.41145e-08
-1.78724e-06
4.54815e-08
7.31573e-08
-1.36908e-06
-1.02391e-07
-2.95662e-07
4.18639e-07
8.42875e-08
-1.50808e-06
7.23158e-06
-7.49994e-06
-2.60839e-06
1.4057e-05
-1.77411e-05
-1.68058e-06
1.58194e-05
-1.69024e-05
-5.78564e-07
1.77788e-05
-1.25244e-05
-3.3986e-06
1.856e-05
-3.03435e-06
-6.28982e-06
2.16141e-05
-1.65705e-06
-7.52018e-06
2.2698e-05
2.58319e-06
-6.89688e-06
2.56355e-05
5.74917e-06
-7.55678e-06
-6.2632e-06
2.62583e-05
1.84185e-05
-3.48347e-05
-8.33058e-06
-2.15385e-06
-7.76032e-05
-1.76018e-05
-9.20044e-06
-3.16598e-05
-2.18321e-06
-9.97027e-07
7.51173e-06
2.57997e-06
5.33075e-06
6.93731e-08
4.21057e-06
4.77979e-06
-8.85293e-06
-2.53306e-09
7.62415e-06
-1.5264e-05
-6.36328e-07
5.93251e-06
-1.86801e-05
-2.77237e-06
4.26637e-06
-2.06707e-05
-3.56672e-06
3.50784e-06
-2.17383e-05
-5.62979e-06
3.39221e-06
-2.25945e-05
-6.28718e-06
3.51092e-06
-2.34752e-05
-7.30862e-06
3.66408e-06
-2.42462e-05
-7.79091e-06
3.8095e-06
-2.46146e-05
-8.27931e-06
3.65768e-06
-2.42565e-05
-8.79288e-06
3.6339e-06
-2.31871e-05
-9.53547e-06
3.19532e-06
-2.19695e-05
-1.13302e-05
2.6388e-06
-2.10401e-05
-1.24285e-05
2.28715e-06
-1.99776e-05
-1.31706e-05
1.77389e-06
-1.88122e-05
-1.32285e-05
1.36426e-06
-1.74887e-05
-1.10581e-05
1.87229e-06
-1.64038e-05
-7.77383e-06
2.38421e-06
-1.53779e-05
-4.73011e-06
3.15728e-06
-1.45185e-05
-1.31015e-07
3.6048e-06
-1.34821e-05
2.56055e-06
3.64169e-06
-1.14436e-05
3.01029e-06
1.82603e-06
-8.5926e-06
4.86045e-07
5.68688e-07
-6.9026e-06
-1.46606e-06
-5.31863e-07
-6.13583e-06
-2.61519e-06
-1.06175e-06
-5.67996e-06
-3.4833e-06
-9.44465e-07
-5.20323e-06
-3.74684e-06
-1.21734e-06
-4.19918e-06
-3.16023e-06
-1.68591e-06
-3.28616e-06
-3.22819e-06
-8.37497e-07
-3.25683e-06
-2.94552e-06
2.93731e-07
-4.54619e-06
-3.23994e-06
1.23221e-06
-4.48037e-06
-2.73925e-06
-1.31743e-06
-3.22532e-06
-3.51101e-06
-2.97383e-06
-3.78824e-06
-1.92071e-07
-1.88801e-06
-4.51941e-06
-8.33997e-07
-1.57194e-06
-3.35176e-06
9.58361e-08
-9.57728e-07
-3.28249e-06
7.86519e-08
-4.7626e-07
-1.99252e-06
1.77009e-07
-1.97949e-07
-1.22134e-06
9.39793e-08
-1.74145e-07
-3.30743e-07
-1.43127e-07
-2.4842e-07
-8.60372e-08
-1.83048e-07
-2.88908e-07
1.30533e-07
-2.12149e-07
-3.43546e-07
2.95319e-07
-1.93704e-07
-4.0273e-07
3.93438e-07
-2.02902e-07
-4.75907e-07
3.60729e-07
-2.27763e-07
-5.50706e-07
3.10905e-07
-2.59125e-07
-5.78271e-07
2.08076e-07
-2.9632e-07
-5.63652e-07
1.39395e-07
-3.22213e-07
-5.15874e-07
8.91362e-08
-3.4553e-07
-4.50752e-07
6.51868e-08
-3.59988e-07
-3.82018e-07
5.74755e-08
-3.71292e-07
-3.17404e-07
5.99525e-08
-3.77968e-07
-2.59028e-07
6.66852e-08
-3.81936e-07
-2.06608e-07
7.82913e-08
-3.83768e-07
-1.59803e-07
9.45403e-08
-3.83551e-07
-1.19441e-07
1.14507e-07
-3.81107e-07
-8.66181e-08
1.38339e-07
-3.77e-07
-6.21823e-08
1.66749e-07
-3.72135e-07
-4.63755e-08
1.98541e-07
-3.67206e-07
-3.82137e-08
2.30353e-07
-3.62395e-07
-3.6196e-08
2.59866e-07
-3.58346e-07
-4.01753e-08
2.88968e-07
-3.55464e-07
-5.11532e-08
3.21764e-07
-3.53402e-07
-7.03867e-08
3.58617e-07
-3.52557e-07
-9.66381e-08
3.95552e-07
-3.52252e-07
-1.27814e-07
4.31119e-07
-3.52434e-07
-1.62319e-07
4.65367e-07
-3.54038e-07
-1.99947e-07
5.00353e-07
-3.57262e-07
-2.43302e-07
5.39196e-07
-3.61464e-07
-2.94495e-07
5.87303e-07
-3.67369e-07
-3.50109e-07
6.53154e-07
-3.76405e-07
-3.99201e-07
7.32476e-07
-3.87291e-07
-4.27648e-07
7.69628e-07
-3.96649e-07
-4.58827e-07
7.09112e-07
-3.88493e-07
-5.74933e-07
5.99791e-07
-3.47099e-07
-8.4136e-07
5.60112e-07
-2.91633e-07
-1.17127e-06
4.50358e-07
-2.9463e-07
-1.45031e-06
2.08992e-07
-3.76041e-07
-1.64704e-06
2.38465e-07
-4.45801e-07
-1.77027e-06
4.41346e-07
-3.91103e-07
-1.64016e-06
2.5824e-07
-3.42876e-07
-9.27333e-07
-1.92485e-07
-6.22726e-07
3.64287e-06
-1.75172e-06
-2.73422e-06
1.06057e-05
-1.14873e-05
-2.97557e-06
1.0704e-05
-1.81284e-05
2.89026e-07
1.0284e-05
-1.59056e-05
-5.76885e-07
1.26041e-05
-9.25703e-06
-5.58746e-06
1.53676e-05
2.65108e-06
-8.44898e-06
2.01697e-05
4.67675e-06
-1.11359e-05
2.62909e-05
1.09856e-05
-1.45238e-05
3.25949e-05
6.56646e-06
-7.12125e-06
-9.20497e-07
4.02871e-05
1.83978e-05
-4.4439e-05
-6.19152e-06
-3.46883e-06
-0.000113516
-1.46112e-05
-3.34551e-06
-0.000115782
2.07318e-06
4.95089e-06
-0.000120004
3.23047e-06
3.6857e-06
-0.000126317
3.35847e-06
4.80215e-06
-0.000127954
-1.16588e-06
3.90545e-06
-0.000127696
-2.33139e-06
3.39301e-06
-0.000125121
-4.07656e-06
3.92237e-06
-0.000114368
-5.52833e-06
4.11829e-06
-6.72979e-05
-7.58747e-06
4.12128e-06
-2.99248e-05
-9.07643e-06
4.57415e-06
-3.04311e-05
-1.01495e-05
4.0798e-06
-3.05551e-05
-1.04864e-05
3.67041e-06
-2.99983e-05
-1.08536e-05
2.68735e-06
-2.88076e-05
-1.11999e-05
1.64359e-06
-2.70644e-05
-1.10163e-05
1.09631e-06
-2.51291e-05
-1.11349e-05
-1.16637e-06
-2.34688e-05
-1.079e-05
-2.13622e-06
-2.22521e-05
-1.1758e-05
-2.56653e-06
-2.13103e-05
-1.15903e-05
-2.54619e-06
-2.10168e-05
-1.08934e-05
-4.21134e-07
-2.05475e-05
-9.55686e-06
1.22046e-06
-2.00393e-05
-7.65754e-06
2.32454e-06
-1.87289e-05
-4.62898e-06
3.10002e-06
-1.71308e-05
-1.42388e-06
2.3736e-06
-1.4615e-05
4.72996e-07
2.39623e-08
-1.24381e-05
3.3158e-07
-2.00176e-06
-9.74308e-06
-5.91884e-07
-3.53343e-06
-5.97432e-06
-1.23113e-06
-5.18883e-06
-3.03767e-06
-6.17514e-07
-5.82943e-06
-1.45256e-06
3.70905e-07
-5.74491e-06
-1.54225e-06
2.39945e-06
-5.49183e-06
-2.62193e-06
1.97752e-06
-4.14897e-06
-3.47627e-06
-4.22575e-07
-1.63849e-06
-4.24024e-06
-2.03363e-06
-2.76122e-07
-3.48366e-06
-9.21094e-07
-2.37939e-06
-1.72714e-06
-4.0447e-06
-3.40936e-06
-3.69267e-06
4.02211e-08
-2.34999e-06
-4.67977e-06
-8.99016e-07
-2.07088e-06
-3.59691e-06
-3.39451e-08
-1.40266e-06
-3.83871e-06
-1.1199e-07
-8.91603e-07
-2.82266e-06
3.1909e-07
-3.83752e-07
-1.97654e-06
2.47353e-07
-2.12477e-07
-4.0137e-07
-1.00648e-07
-2.62334e-07
1.26552e-07
-1.62734e-07
-2.34312e-07
3.16065e-07
-2.13558e-07
-2.39485e-07
5.07242e-07
-2.06755e-07
-2.56529e-07
6.29922e-07
-2.19445e-07
-3.31129e-07
6.55587e-07
-2.20263e-07
-4.4111e-07
6.50483e-07
-2.29601e-07
-5.13769e-07
5.35346e-07
-2.54615e-07
-5.29426e-07
4.32948e-07
-2.779e-07
-5.01868e-07
3.64159e-07
-3.02584e-07
-4.51497e-07
3.36679e-07
-3.21867e-07
-3.96289e-07
3.41228e-07
-3.38963e-07
-3.43034e-07
3.59417e-07
-3.52721e-07
-2.92836e-07
3.80437e-07
-3.63952e-07
-2.44322e-07
4.0263e-07
-3.72853e-07
-1.96412e-07
4.26094e-07
-3.79463e-07
-1.51344e-07
4.52051e-07
-3.82611e-07
-1.10997e-07
4.80133e-07
-3.82139e-07
-7.71418e-08
5.10848e-07
-3.77951e-07
-5.12431e-08
5.4328e-07
-3.70634e-07
-3.35489e-08
5.7418e-07
-3.61516e-07
-2.42892e-08
6.02472e-07
-3.5186e-07
-2.54941e-08
6.32176e-07
-3.41997e-07
-3.80757e-08
6.67098e-07
-3.32745e-07
-6.15982e-08
7.06905e-07
-3.24758e-07
-9.41497e-08
7.46919e-07
-3.18805e-07
-1.32816e-07
7.85341e-07
-3.15548e-07
-1.75252e-07
8.23038e-07
-3.15222e-07
-2.21718e-07
8.63847e-07
-3.17019e-07
-2.7401e-07
9.11802e-07
-3.203e-07
-3.33032e-07
9.70298e-07
-3.23965e-07
-3.88627e-07
1.03802e-06
-3.29253e-07
-4.25847e-07
1.09924e-06
-3.29536e-07
-4.47377e-07
1.09975e-06
-3.08575e-07
-5.0657e-07
1.01255e-06
-2.44242e-07
-6.66866e-07
9.13766e-07
-1.53665e-07
-9.50338e-07
9.26508e-07
-8.29238e-08
-1.31399e-06
9.34155e-07
-1.20137e-07
-1.60248e-06
8.04528e-07
-3.07047e-07
-1.59206e-06
8.57481e-07
-6.29414e-07
-1.39864e-06
1.07276e-06
-8.24839e-07
-1.1068e-06
7.47044e-07
-7.80641e-07
-6.57065e-07
2.61294e-07
-9.0352e-07
4.49392e-06
-4.08701e-06
-2.81572e-06
7.63634e-06
-1.24416e-05
-2.18821e-06
2.56372e-06
-1.38683e-05
8.12522e-07
3.35574e-06
-1.46397e-05
-2.05802e-06
6.22466e-06
-4.28556e-06
-7.84038e-06
9.04134e-06
9.25993e-06
-9.42557e-06
5.03229e-06
1.51245e-05
-6.43861e-06
1.50213e-05
1.84537e-05
-1.74573e-05
1.61981e-05
1.38411e-05
-8.45164e-06
7.32607e-08
4.59456e-05
8.01489e-06
-5.45014e-05
6.89002e-08
-3.4884e-06
-0.000135618
-4.65714e-06
-3.61494e-07
-0.000136871
4.49859e-06
5.37956e-06
-0.000139348
4.64087e-06
3.31858e-06
-0.000143023
2.923e-06
3.77061e-06
-0.000144198
-2.25798e-06
3.68535e-06
-0.000146568
-3.77678e-06
3.9576e-06
-0.000149133
-5.25776e-06
3.91812e-06
-0.00015178
-7.55425e-06
4.13025e-06
-0.000153382
-9.49597e-06
3.72827e-06
-0.00015342
-1.04491e-05
3.32647e-06
-0.000153039
-1.11203e-05
2.55959e-06
-0.000152613
-1.15533e-05
1.43487e-06
-0.000151453
-1.14614e-05
6.87917e-07
-0.000148505
-1.14864e-05
-3.69683e-07
-0.000140732
-1.046e-05
-2.62313e-06
-0.000119099
-1.00219e-05
-3.72488e-06
-6.53982e-05
-8.97964e-06
-4.2635e-06
-2.54567e-05
-7.9457e-06
-5.25214e-06
-2.39161e-05
-7.33542e-06
-4.52703e-06
-2.29345e-05
-6.93516e-06
-3.33204e-06
-2.17737e-05
-6.25029e-06
-2.97583e-06
-2.04013e-05
-4.87645e-06
-2.49628e-06
-1.90254e-05
-2.52768e-06
-1.80657e-06
-1.6762e-05
7.72403e-07
-3.09891e-06
-1.33017e-05
3.79009e-06
-5.61658e-06
-9.35974e-06
5.97884e-06
-8.60289e-06
-6.02428e-06
6.13337e-06
-9.45834e-06
-2.85054e-06
4.44745e-06
-8.11668e-06
8.5711e-08
4.67925e-06
-6.92946e-06
2.13398e-06
4.54051e-06
-6.26877e-06
3.53375e-06
7.50483e-06
-6.44709e-06
3.64156e-06
7.42948e-06
-5.4931e-06
1.09178e-06
5.33001e-06
-3.24869e-06
-3.04283e-06
2.94718e-06
-7.45981e-07
-2.79126e-06
1.48534e-06
-2.49159e-06
8.83136e-07
-4.38817e-06
-3.82543e-06
-3.47989e-06
4.12419e-07
-2.83614e-06
-4.84578e-06
-8.23279e-07
-2.53743e-06
-3.73675e-06
-1.58863e-07
-1.65557e-06
-4.10272e-06
-6.17844e-07
-1.11297e-06
-3.45671e-06
9.14517e-08
-4.58173e-07
-2.80622e-06
1.74887e-07
-1.58169e-07
-6.82883e-07
-1.84918e-08
-2.0544e-07
2.49647e-07
-7.58282e-08
-1.3618e-07
4.47951e-07
-2.0115e-07
-1.25687e-07
6.84589e-07
-1.87846e-07
-1.19343e-07
8.28043e-07
-2.0447e-07
-2.06633e-07
9.32608e-07
-1.89737e-07
-3.56322e-07
9.84099e-07
-1.83932e-07
-4.61196e-07
8.42281e-07
-2.02066e-07
-4.82981e-07
6.88847e-07
-2.34119e-07
-4.54317e-07
6.02706e-07
-2.67214e-07
-4.05111e-07
5.81365e-07
-2.93896e-07
-3.59299e-07
6.0901e-07
-3.13597e-07
-3.22427e-07
6.5111e-07
-3.28567e-07
-2.90916e-07
6.89268e-07
-3.40343e-07
-2.5971e-07
7.21047e-07
-3.49624e-07
-2.26618e-07
7.48614e-07
-3.55611e-07
-1.92923e-07
7.75642e-07
-3.57286e-07
-1.60119e-07
8.02642e-07
-3.55311e-07
-1.32239e-07
8.3236e-07
-3.49389e-07
-1.11214e-07
8.62159e-07
-3.399e-07
-9.54971e-08
8.85771e-07
-3.27302e-07
-8.50375e-08
9.05185e-07
-3.13167e-07
-8.21953e-08
9.27245e-07
-2.97903e-07
-8.95248e-08
9.57591e-07
-2.83157e-07
-1.08453e-07
9.95891e-07
-2.70048e-07
-1.37415e-07
1.03518e-06
-2.59287e-07
-1.7429e-07
1.07326e-06
-2.51033e-07
-2.17079e-07
1.11069e-06
-2.44855e-07
-2.64933e-07
1.15145e-06
-2.39732e-07
-3.18864e-07
1.20112e-06
-2.35383e-07
-3.80619e-07
1.26213e-06
-2.3006e-07
-4.42327e-07
1.32246e-06
-2.22729e-07
-4.94764e-07
1.35588e-06
-2.04186e-07
-5.40704e-07
1.30897e-06
-1.63279e-07
-6.13803e-07
1.17664e-06
-9.0977e-08
-7.48641e-07
1.07451e-06
-2.59101e-08
-9.40672e-07
1.11023e-06
8.3191e-09
-1.1813e-06
1.21746e-06
-4.26915e-08
-1.3509e-06
1.22281e-06
-2.48658e-07
-1.21514e-06
1.33573e-06
-6.14009e-07
-5.46481e-07
1.45594e-06
-1.05183e-06
4.72825e-07
8.54428e-07
-1.1267e-06
1.96165e-06
3.83393e-07
-1.61092e-06
5.57988e-06
-4.55355e-06
-3.15175e-06
5.25601e-06
-8.90637e-06
-3.21138e-06
1.71272e-07
-7.1038e-06
-1.67984e-06
-3.96196e-06
-8.10759e-06
-2.39882e-06
-5.38522e-06
7.14718e-07
-3.57702e-06
-9.27624e-06
1.42987e-05
-1.14774e-06
-1.39907e-05
2.34794e-05
-3.64034e-06
-1.16744e-05
2.55763e-05
-9.43915e-06
-1.55418e-05
2.77753e-05
-1.00668e-05
2.53085e-07
3.94842e-05
-1.19513e-05
-5.61259e-05
1.74511e-06
1.94485e-06
-0.000141863
1.03114e-05
-1.14886e-06
-0.000143383
9.9646e-06
6.63474e-06
-0.000149359
1.04403e-05
2.82409e-06
-0.000156217
4.75141e-06
3.29026e-06
-0.000159334
-2.70031e-06
3.38022e-06
-0.000163045
-4.61619e-06
3.57137e-06
-0.000165312
-6.0504e-06
3.1231e-06
-0.000167097
-8.20802e-06
3.5182e-06
-0.000168064
-9.4707e-06
2.20832e-06
-0.000167924
-1.06859e-05
5.4335e-07
-0.000167135
-1.10515e-05
-6.54865e-07
-0.000166098
-1.17022e-05
-1.18733e-06
-0.000164826
-1.13728e-05
-1.77872e-06
-0.000163312
-1.12607e-05
-1.93465e-06
-0.000161127
-1.05763e-05
-2.71085e-06
-0.000158191
-1.03178e-05
-2.79993e-06
-0.000155809
-8.99108e-06
-2.38501e-06
-0.000154296
-7.23643e-06
-2.17818e-06
-0.000153439
-5.48811e-06
-2.24876e-06
-0.000153235
-4.30983e-06
-2.93764e-06
-0.000152363
-3.17653e-06
-3.50399e-06
-0.000150124
-2.2054e-06
-3.45182e-06
-0.000147311
9.58943e-08
-3.13599e-06
-0.000143491
2.54833e-06
-3.40345e-06
-0.000139479
4.50472e-06
-3.05863e-06
-0.000135967
4.93554e-06
-1.3806e-06
-0.000129772
3.28861e-06
2.79587e-07
-0.000107384
1.03179e-06
1.36342e-06
-4.63636e-05
1.59698e-06
6.9241e-07
1.46456e-06
2.58715e-07
4.10676e-07
4.54755e-06
5.74463e-06
-2.02138e-06
6.06207e-06
6.16725e-06
-1.73942e-06
4.85394e-06
5.50951e-06
5.00075e-07
1.05454e-06
6.8288e-06
9.008e-07
-1.24151e-06
7.35924e-06
-2.38227e-06
7.97915e-06
-5.34857e-06
-4.15732e-06
-3.09573e-06
8.39074e-07
-3.3235e-06
-4.86599e-06
-8.13603e-07
-3.04288e-06
-3.67797e-06
-3.39394e-07
-1.86418e-06
-4.08001e-06
-1.2014e-06
-1.14471e-06
-3.71038e-06
-4.65791e-07
-3.53934e-07
-3.2451e-06
-3.51895e-07
-7.58335e-10
-9.29862e-07
-1.062e-07
-1.1746e-07
4.00753e-07
-3.44094e-08
-3.49686e-08
5.99164e-07
-2.33712e-07
-4.95688e-08
8.97547e-07
-1.98364e-07
-5.09004e-08
1.04421e-06
-2.14844e-07
-1.53927e-07
1.19793e-06
-1.623e-07
-2.9577e-07
1.26562e-06
-1.39689e-07
-3.75646e-07
1.09295e-06
-1.70797e-07
-3.83717e-07
9.18995e-07
-2.22083e-07
-3.52526e-07
8.33349e-07
-2.61839e-07
-3.1359e-07
8.31107e-07
-2.88683e-07
-2.884e-07
8.85736e-07
-3.0192e-07
-2.78513e-07
9.50484e-07
-3.09262e-07
-2.76677e-07
1.00238e-06
-3.14951e-07
-2.76993e-07
1.04065e-06
-3.19285e-07
-2.75594e-07
1.06872e-06
-3.21501e-07
-2.7105e-07
1.09112e-06
-3.20025e-07
-2.63983e-07
1.11011e-06
-3.14537e-07
-2.58946e-07
1.13098e-06
-3.03652e-07
-2.57777e-07
1.15072e-06
-2.8973e-07
-2.55143e-07
1.16003e-06
-2.76894e-07
-2.50709e-07
1.1655e-06
-2.64739e-07
-2.45989e-07
1.17529e-06
-2.52755e-07
-2.46147e-07
1.19845e-06
-2.40687e-07
-2.56424e-07
1.23512e-06
-2.28941e-07
-2.76318e-07
1.27347e-06
-2.18384e-07
-3.03462e-07
1.30943e-06
-2.09019e-07
-3.3469e-07
1.34257e-06
-2.00636e-07
-3.67087e-07
1.37673e-06
-1.92872e-07
-4.02869e-07
1.42077e-06
-1.83849e-07
-4.50664e-07
1.48007e-06
-1.7014e-07
-5.14015e-07
1.53748e-06
-1.51643e-07
-5.83329e-07
1.55151e-06
-1.26314e-07
-6.43459e-07
1.46175e-06
-9.26279e-08
-6.85504e-07
1.27396e-06
-5.52726e-08
-7.3899e-07
1.16121e-06
-3.31945e-08
-8.14362e-07
1.20708e-06
-2.14814e-08
-8.89413e-07
1.34365e-06
-5.11266e-08
-9.24088e-07
1.42901e-06
-1.71539e-07
-7.68937e-07
1.6514e-06
-4.70809e-07
-1.55842e-08
1.56844e-06
-8.65855e-07
1.39239e-06
5.94419e-07
-1.14796e-06
4.15566e-06
-6.37491e-07
-1.7424e-06
6.86841e-06
-3.32857e-06
-3.93777e-06
6.87004e-06
-4.20303e-06
-4.70505e-06
1.45034e-07
-1.40335e-07
-2.38463e-07
-1.42369e-05
2.97344e-06
3.30089e-06
-2.31402e-05
7.56649e-06
2.0516e-06
-2.87647e-05
1.73471e-05
2.57623e-06
-2.91971e-05
2.41562e-05
-2.44295e-07
-2.91417e-05
2.72468e-05
-1.72603e-06
-2.46531e-05
3.23045e-05
-9.01772e-06
-2.38192e-06
3.04993e-05
-1.52547e-05
-5.55992e-05
4.7498e-07
1.06291e-06
-0.0001403
2.46423e-05
-4.46615e-06
-0.000145937
2.06061e-05
6.72254e-06
-0.000154274
1.84263e-05
9.31128e-07
-0.000163808
9.26314e-06
1.64916e-06
-0.000169778
1.45273e-06
1.57767e-06
-0.000175154
-3.22742e-06
1.94944e-06
-0.000177498
-4.34545e-06
8.4874e-07
-0.000178649
-7.64522e-06
5.36984e-07
-0.00017929
-7.9266e-06
-1.29796e-06
-0.000179358
-9.14401e-06
-2.1856e-06
-0.000178376
-1.0012e-05
-2.45774e-06
-0.000176889
-1.09159e-05
-2.638e-06
-0.000175014
-1.15067e-05
-2.39441e-06
-0.000172746
-1.16291e-05
-2.33535e-06
-0.000169855
-1.18294e-05
-2.5348e-06
-0.000165977
-1.24168e-05
-2.37797e-06
-0.000161796
-1.22459e-05
-1.45989e-06
-0.000157766
-1.16465e-05
-2.33874e-07
-0.000154318
-1.04634e-05
1.30212e-06
-0.000152301
-9.43951e-06
2.47913e-06
-0.000151028
-7.78223e-06
3.20016e-06
-0.000150413
-6.4304e-06
4.00297e-06
-0.000150639
-3.45637e-06
3.91128e-06
-0.000150312
-5.59457e-07
3.80791e-06
-0.000150297
1.28261e-06
4.53497e-06
-0.000152922
1.03779e-06
6.0119e-06
-0.000154966
-2.7335e-06
7.02544e-06
-0.000153443
-7.04522e-06
7.73639e-06
-0.000149625
-8.65196e-06
7.52448e-06
-0.000143083
-6.37134e-06
6.9644e-06
-0.00013726
-9.9178e-07
5.67425e-06
-0.000135811
3.02294e-06
3.34318e-06
-0.000137229
5.41153e-06
2.18178e-06
-0.000139854
8.73264e-06
-8.13207e-08
-0.000139099
1.06563e-05
-3.64341e-06
1.21e-05
-6.22291e-06
-4.07372e-06
-2.55786e-06
1.48262e-06
-3.64182e-06
-4.50354e-06
-7.94354e-07
-3.65247e-06
-3.40863e-06
-2.58678e-07
-2.38177e-06
-3.91611e-06
-1.43459e-06
-1.36e-06
-3.80057e-06
-9.3158e-07
-2.63351e-07
-3.42707e-06
-9.1469e-07
1.48153e-07
-1.20469e-06
-1.36684e-07
2.38432e-08
4.69182e-07
5.58731e-08
4.7807e-08
8.64193e-07
-2.88999e-07
-5.06976e-08
1.20179e-06
-2.0575e-07
-7.61806e-08
1.30601e-06
-2.36324e-07
-1.20367e-07
1.43146e-06
-1.89354e-07
-1.38471e-07
1.48826e-06
-2.04541e-07
-1.4659e-07
1.36075e-06
-2.5969e-07
-1.49499e-07
1.25199e-06
-3.30091e-07
-1.62565e-07
1.22717e-06
-3.80755e-07
-1.8774e-07
1.27266e-06
-4.16379e-07
-2.23151e-07
1.35679e-06
-4.35642e-07
-2.64719e-07
1.44115e-06
-4.49106e-07
-3.11434e-07
1.50927e-06
-4.60175e-07
-3.53527e-07
1.55153e-06
-4.68793e-07
-3.85524e-07
1.57535e-06
-4.74638e-07
-4.08865e-07
1.59215e-06
-4.7769e-07
-4.24521e-07
1.60407e-06
-4.78299e-07
-4.32492e-07
1.61525e-06
-4.76294e-07
-4.35113e-07
1.62536e-06
-4.72011e-07
-4.35844e-07
1.62796e-06
-4.6719e-07
-4.31497e-07
1.62477e-06
-4.6362e-07
-4.22383e-07
1.62525e-06
-4.59068e-07
-4.16327e-07
1.64488e-06
-4.52483e-07
-4.20895e-07
1.68386e-06
-4.44169e-07
-4.33562e-07
1.7226e-06
-4.36465e-07
-4.5093e-07
1.75676e-06
-4.29949e-07
-4.69786e-07
1.78611e-06
-4.24678e-07
-4.87191e-07
1.81436e-06
-4.2021e-07
-5.03356e-07
1.85151e-06
-4.14562e-07
-5.23511e-07
1.90283e-06
-4.02587e-07
-5.54356e-07
1.95005e-06
-3.81726e-07
-5.914e-07
1.94582e-06
-3.57244e-07
-6.18124e-07
1.82719e-06
-3.38716e-07
-6.17466e-07
1.60963e-06
-3.36317e-07
-5.9988e-07
1.48384e-06
-3.40228e-07
-5.36642e-07
1.4886e-06
-3.44757e-07
-4.11059e-07
1.58798e-06
-3.6992e-07
-3.28044e-07
1.75652e-06
-4.10516e-07
-1.4855e-07
2.01027e-06
-5.38371e-07
6.62544e-07
1.51466e-06
-7.57307e-07
2.24115e-06
-1.66882e-07
-8.17311e-07
5.33477e-06
-1.78632e-06
-1.9448e-06
5.63154e-06
1.29749e-06
-4.92288e-06
-9.52371e-07
4.42448e-06
-2.04365e-06
-1.355e-05
9.1351e-06
3.32222e-06
-2.62422e-05
1.28516e-05
2.81403e-06
-3.47247e-05
1.52267e-05
8.22298e-07
-3.71148e-05
1.87564e-05
9.80924e-07
-3.15044e-05
2.02036e-05
-1.65771e-06
-2.93988e-05
3.06133e-05
-5.4724e-06
-2.79084e-05
3.18158e-05
-1.00149e-06
-3.53438e-06
-7.01593e-06
1.11239e-05
-6.28063e-05
5.61097e-06
-6.13801e-06
-0.00016187
3.97854e-05
-5.69437e-06
-0.000162041
2.46506e-05
7.72228e-06
-0.000166055
1.94123e-05
1.38328e-06
-0.0001714
7.73428e-06
4.4518e-06
-0.000177661
2.39086e-06
5.7238e-06
-0.000189593
-1.47707e-06
7.99016e-06
-0.000198054
3.24875e-07
3.21049e-06
-0.000201547
-2.39409e-06
-1.38705e-06
-0.000204147
-1.59559e-06
-4.44456e-06
-0.000205849
-2.11906e-06
-6.38543e-06
-0.000206123
-3.33139e-06
-6.92879e-06
-0.000206257
-4.50597e-06
-6.92891e-06
-0.000205997
-5.14319e-06
-7.62216e-06
-0.000204928
-5.52209e-06
-7.70591e-06
-0.000203252
-6.83689e-06
-7.74016e-06
-0.00020092
-8.38001e-06
-7.55109e-06
-0.000198333
-9.54301e-06
-7.32063e-06
-0.000194856
-1.03338e-05
-6.77555e-06
-0.000188899
-1.19684e-05
-5.80344e-06
-0.000182676
-1.32544e-05
-3.11124e-06
-0.000176786
-1.29006e-05
-7.54564e-07
-0.000173563
-1.08157e-05
2.344e-06
-0.000173135
-6.30148e-06
4.0413e-06
-0.000175133
-1.08015e-06
4.77857e-06
-0.000180357
2.42563e-06
4.42271e-06
-0.000186198
2.82677e-06
3.49843e-06
-0.000191406
-1.55195e-06
2.34457e-06
-0.000194039
-8.65449e-06
2.40081e-06
-0.0001953
-1.48338e-05
4.72057e-06
-0.000194639
-1.56356e-05
6.67188e-06
-0.000191565
-9.94206e-06
7.8108e-06
-0.000191293
-4.35191e-07
5.43018e-06
-0.000192026
4.34741e-06
1.23998e-06
-0.00019081
6.82128e-06
-8.1808e-07
-0.000183032
7.19068e-06
-2.60371e-06
5.76117e-06
-3.52763e-06
-3.42386e-06
-1.47335e-06
2.45678e-06
-3.76409e-06
-4.07738e-06
-8.59217e-08
-4.26684e-06
-3.10421e-06
1.98338e-07
-3.13189e-06
-3.89902e-06
-1.15202e-06
-1.92969e-06
-3.98115e-06
-1.02162e-06
-4.40842e-07
-3.74639e-06
-1.16953e-06
1.73597e-07
-1.70845e-06
-1.10685e-07
3.86111e-08
1.99053e-07
4.05107e-07