/*--------------------------------*- C++ -*----------------------------------*\
| =========                 |                                                 |
| \\      /  F ield         | OpenFOAM: The Open Source CFD Toolbox           |
|  \\    /   O peration     | Version:  2.3.0                                 |
|   \\  /    A nd           | Web:      www.OpenFOAM.org                      |
|    \\/     M anipulation  |                                                 |
\*---------------------------------------------------------------------------*/
FoamFile
{
    version     2.0;
    format      ascii;
    class       surfaceScalarField;
    location    "63";
    object      phi.water;
}
// * * * * * * * * * * * * * * * * * * * * * * * * * * * * * * * * * * * * * //

dimensions      [0 3 -1 0 0 0 0];

internalField   nonuniform List<scalar> 
16448
(
-1.18793e-06
-2.43856e-06
5.92144e-07
6.02494e-07
-2.56867e-06
7.82843e-07
6.65761e-07
-1.26433e-06
1.2048e-06
6.26734e-07
-1.05483e-06
1.09724e-06
2.96383e-07
-5.50926e-07
8.86992e-07
1.63173e-07
-6.3081e-07
7.72368e-07
1.32427e-07
-6.42716e-07
6.82765e-07
1.23909e-07
-6.41877e-07
6.58996e-07
4.97476e-08
-5.07779e-07
5.88403e-07
-1.26563e-07
-3.5764e-07
5.36733e-07
-3.4346e-07
-2.63461e-07
4.81011e-07
-4.68545e-07
-2.67881e-07
3.93067e-07
-4.83809e-07
-3.0362e-07
3.19138e-07
-4.01825e-07
-3.49266e-07
2.67469e-07
-2.90747e-07
-3.69094e-07
2.58285e-07
-1.67239e-07
-3.87946e-07
2.64672e-07
-5.23793e-08
-4.00949e-07
2.86369e-07
4.80228e-08
-4.14073e-07
3.13933e-07
1.26826e-07
-4.25347e-07
3.46825e-07
1.82105e-07
-4.33966e-07
3.7896e-07
2.10987e-07
-4.38236e-07
4.09639e-07
2.16419e-07
-4.40969e-07
4.35813e-07
2.06114e-07
-4.42703e-07
4.53292e-07
1.86439e-07
-4.39599e-07
4.5955e-07
1.61879e-07
-4.31256e-07
4.56104e-07
1.36665e-07
-4.18666e-07
4.44165e-07
1.15069e-07
-4.04202e-07
4.26104e-07
1.01781e-07
-3.92588e-07
4.06177e-07
9.74355e-08
-3.80719e-07
3.85386e-07
9.85583e-08
-3.67761e-07
3.66956e-07
1.01244e-07
-3.54172e-07
3.51826e-07
1.03033e-07
-3.41082e-07
3.39626e-07
1.01855e-07
-3.28862e-07
3.30398e-07
9.63454e-08
-3.18052e-07
3.23912e-07
8.68545e-08
-3.09487e-07
3.1936e-07
7.35215e-08
-3.02981e-07
3.16689e-07
5.19097e-08
-2.95272e-07
3.17299e-07
8.25185e-09
-2.79664e-07
3.2373e-07
-7.22745e-08
-2.54293e-07
3.35284e-07
-1.9755e-07
-2.28739e-07
3.54474e-07
-3.39026e-07
-2.27259e-07
3.69463e-07
-3.85166e-07
-3.08603e-07
3.57162e-07
-2.38762e-07
-4.71175e-07
3.31341e-07
7.29532e-08
-6.47485e-07
3.48569e-07
3.94568e-07
-7.8909e-07
4.89356e-07
5.41296e-07
-8.78904e-07
7.63416e-07
2.51843e-07
-6.93582e-07
1.02615e-06
-5.38149e-07
-2.51712e-07
1.0874e-06
-1.37442e-06
-3.98227e-08
9.31021e-07
-2.05812e-06
4.16655e-08
7.11292e-07
-2.543e-06
-3.03353e-07
9.01628e-07
5.07234e-07
-5.17589e-06
2.2151e-06
7.59073e-06
-1.11459e-05
4.10494e-06
1.38014e-05
-1.11097e-05
4.82312e-06
1.67849e-05
-8.43767e-06
5.48676e-06
1.93191e-05
-6.55663e-06
3.92416e-06
1.75612e-05
-4.48419e-06
6.43062e-06
1.48496e-05
-1.80879e-06
3.56096e-06
3.55791e-06
6.8661e-06
1.44855e-05
3.096e-05
-9.23125e-07
-4.62695e-06
2.38818e-05
-1.31634e-05
-8.2525e-06
2.74164e-05
-8.36311e-06
2.63894e-06
2.44782e-05
-2.74184e-06
5.67274e-06
2.53648e-05
-1.75948e-06
8.72858e-07
2.63404e-05
-2.51343e-06
1.53784e-06
2.6585e-05
-2.36766e-06
2.12305e-06
2.64605e-05
-2.27762e-06
2.40209e-06
2.61484e-05
-2.10516e-06
2.41727e-06
2.54372e-05
-2.01342e-06
2.72466e-06
2.43583e-05
-1.8796e-06
2.95844e-06
2.31866e-05
-1.7033e-06
2.87505e-06
2.12728e-05
-1.11387e-06
3.02763e-06
1.90836e-05
-9.50756e-07
3.13993e-06
1.56566e-05
2.5832e-07
3.1687e-06
1.07332e-05
1.21053e-06
3.71282e-06
7.45575e-06
-1.38736e-06
4.66485e-06
6.7865e-06
-4.54086e-06
5.21011e-06
8.21559e-06
-6.22472e-06
4.79563e-06
1.0777e-05
-6.26269e-06
3.70123e-06
1.27981e-05
-4.27768e-06
2.25667e-06
1.49473e-05
-2.6561e-06
5.06867e-07
1.60535e-05
-3.28879e-07
-7.77362e-07
1.41083e-05
2.27706e-06
-3.31867e-07
1.04671e-05
3.33928e-06
3.01946e-07
7.18095e-06
2.41309e-06
8.73053e-07
3.4374e-06
2.62175e-06
1.12179e-06
-2.14895e-07
6.03483e-07
3.04881e-06
-1.43133e-06
-2.17222e-06
3.38866e-06
-1.89002e-06
-3.31423e-06
3.77292e-06
-1.96054e-06
-3.8344e-06
3.90492e-06
-2.49577e-06
-2.99891e-06
3.53414e-06
-3.38068e-06
-1.84514e-06
2.73005e-06
-4.23437e-06
-1.50133e-06
2.35501e-06
-4.20973e-06
-2.14036e-06
2.11573e-06
-3.27824e-06
-2.80742e-06
1.87593e-06
-2.23572e-06
-1.04253e-06
-1.92267e-06
-3.4522e-06
-1.76553e-07
-5.25623e-07
-3.8004e-06
-1.57407e-07
-1.67932e-07
-2.32234e-06
7.06947e-07
2.47866e-07
-1.91634e-06
4.5135e-07
3.67053e-07
-9.5224e-07
2.88614e-07
3.10739e-07
-8.03027e-07
2.35635e-07
2.06575e-07
-6.74315e-07
1.44257e-07
1.02964e-07
-6.25558e-07
9.53236e-08
-3.83888e-08
-4.23982e-07
6.3186e-08
-2.64603e-07
-2.24349e-07
9.49554e-08
-5.0279e-07
-1.25731e-07
1.00733e-07
-6.21126e-07
-1.80887e-07
3.10636e-08
-6.33223e-07
-2.60244e-07
-3.13699e-08
-5.53731e-07
-3.4357e-07
-8.52817e-08
-4.36675e-07
-3.83381e-07
-1.02783e-07
-3.03265e-07
-4.15312e-07
-1.0608e-07
-1.75493e-07
-4.34158e-07
-9.45639e-08
-6.08369e-08
-4.50734e-07
-7.80104e-08
3.36991e-08
-4.63069e-07
-5.68207e-08
1.05422e-07
-4.70845e-07
-3.4853e-08
1.52096e-07
-4.71591e-07
-1.33489e-08
1.74149e-07
-4.6763e-07
4.57447e-09
1.79253e-07
-4.60462e-07
1.2633e-08
1.7279e-07
-4.48251e-07
1.5106e-08
1.58988e-07
-4.30345e-07
1.28791e-08
1.41407e-07
-4.07981e-07
6.88535e-09
1.23645e-07
-3.83923e-07
-2.53907e-09
1.11491e-07
-3.62472e-07
-1.79523e-08
1.0635e-07
-3.42198e-07
-3.33503e-08
1.06189e-07
-3.2028e-07
-4.72624e-08
1.07801e-07
-2.96791e-07
-5.89209e-08
1.08545e-07
-2.73491e-07
-6.82386e-08
1.06046e-07
-2.5125e-07
-7.50074e-08
9.79487e-08
-2.30464e-07
-7.9356e-08
8.27936e-08
-2.12125e-07
-8.20553e-08
6.01808e-08
-1.96255e-07
-8.39222e-08
2.6711e-08
-1.77447e-07
-8.41357e-08
-2.90466e-08
-1.43291e-07
-8.03454e-08
-1.21954e-07
-8.99139e-08
-7.1161e-08
-2.39159e-07
-4.49296e-08
-6.62149e-08
-3.10953e-07
-7.03406e-08
-8.39578e-08
-2.65263e-07
-2.19508e-07
-1.31431e-07
-1.34296e-07
-4.25214e-07
-1.69133e-07
6.58945e-08
-6.60043e-07
-1.71816e-07
3.01786e-07
-9.15443e-07
-8.19101e-08
1.12519e-07
-9.07353e-07
2.54188e-07
-6.49974e-07
-4.55136e-07
5.6796e-07
-1.30923e-06
-3.14432e-08
4.98985e-07
-1.51491e-06
2.11032e-08
2.21385e-07
-1.57297e-06
3.64413e-07
-2.13958e-07
2.62484e-06
-3.29554e-06
-1.0361e-06
1.05597e-05
-1.26255e-05
-4.2518e-07
1.55169e-05
-1.57259e-05
-2.59566e-07
1.94607e-05
-1.39625e-05
-1.07879e-06
2.11362e-05
-8.54876e-06
-1.4802e-06
2.38718e-05
-6.12418e-06
-3.25417e-06
2.4016e-05
-3.25213e-06
-1.01603e-06
2.14129e-05
1.12701e-06
-1.68467e-06
8.08491e-06
1.31943e-05
1.93218e-05
3.22007e-05
-1.0124e-06
-2.10331e-06
1.68449e-05
-1.81942e-05
-9.6036e-06
1.52722e-05
-1.00308e-05
1.56008e-06
1.28926e-05
-1.02667e-06
6.61535e-07
7.97594e-06
2.29257e-06
8.64621e-07
-1.56486e-06
-1.16169e-06
8.18907e-06
-5.1311e-06
-1.00563e-06
2.20421e-06
-8.26555e-06
-1.79006e-06
2.6469e-06
-1.16793e-05
-1.91467e-06
3.2233e-06
-1.37722e-05
-3.27167e-06
3.35111e-06
-1.54349e-05
-3.65635e-06
3.43951e-06
-1.64866e-05
-4.50883e-06
3.8572e-06
-1.69661e-05
-4.73314e-06
4.09873e-06
-1.71159e-05
-4.96293e-06
4.16201e-06
-1.63981e-05
-4.76916e-06
4.30971e-06
-1.452e-05
-5.21992e-06
4.55237e-06
-1.30297e-05
-7.43803e-06
4.56035e-06
-1.20781e-05
-9.2787e-06
3.78619e-06
-1.06382e-05
-1.03949e-05
2.73038e-06
-8.03535e-06
-1.07577e-05
1.89219e-06
-5.02272e-06
-7.88835e-06
5.98038e-07
-8.87705e-07
-4.26846e-06
-2.52265e-06
3.93935e-06
-5.53699e-07
-4.60223e-06
6.33333e-06
4.30532e-06
-4.42223e-06
3.29577e-06
7.26533e-06
-8.88503e-07
-1.45081e-06
6.94409e-06
2.15588e-07
-3.38356e-06
3.92918e-06
6.25318e-07
-3.38641e-06
-3.19997e-07
9.26334e-07
-3.23535e-06
-2.90643e-06
5.83146e-07
-3.52387e-06
-4.03316e-06
1.00745e-06
-4.13115e-06
-4.52513e-06
1.29801e-06
-4.52689e-06
-3.84611e-06
1.24294e-06
-4.33502e-06
-3.18867e-06
1.15167e-06
-4.74198e-06
-2.70196e-06
1.60759e-06
-5.16652e-06
-3.46063e-06
1.74481e-06
-4.10953e-06
-4.09659e-06
2.3218e-07
-3.06049e-06
-3.28475e-06
-2.44709e-06
-3.72617e-06
-4.24196e-07
-1.33333e-06
-4.26714e-06
-6.38834e-07
-9.18442e-07
-2.93933e-06
2.09456e-07
-3.15902e-07
-2.58895e-06
7.72685e-08
6.37385e-08
-1.33347e-06
8.68462e-09
1.13303e-07
-8.48586e-07
3.15621e-09
4.00317e-08
-4.49598e-07
-1.43478e-07
-7.6226e-08
-3.42895e-07
-1.59867e-07
-1.92064e-07
-1.21732e-07
-1.81787e-07
-3.08831e-07
4.72854e-08
-1.52528e-07
-4.39231e-07
1.31606e-07
-1.25927e-07
-5.23512e-07
5.9953e-08
-1.56301e-07
-5.53616e-07
-2.29261e-08
-2.06962e-07
-5.28366e-07
-1.15793e-07
-2.52932e-07
-4.67339e-07
-1.68242e-07
-2.76064e-07
-3.82318e-07
-2.08706e-07
-2.91582e-07
-2.92115e-07
-2.29801e-07
-2.94506e-07
-2.04907e-07
-2.45231e-07
-2.92694e-07
-1.27654e-07
-2.53566e-07
-2.86727e-07
-6.173e-08
-2.57052e-07
-2.79699e-07
-7.72807e-09
-2.53241e-07
-2.72323e-07
3.43406e-08
-2.42395e-07
-2.67273e-07
6.40836e-08
-2.26426e-07
-2.63732e-07
8.31067e-08
-2.06028e-07
-2.61197e-07
9.37085e-08
-1.81136e-07
-2.59745e-07
9.82156e-08
-1.53044e-07
-2.59375e-07
9.85995e-08
-1.24058e-07
-2.60164e-07
9.54574e-08
-9.66341e-08
-2.62599e-07
9.01965e-08
-7.0633e-08
-2.6618e-07
8.29777e-08
-4.276e-08
-2.70164e-07
7.36119e-08
-1.32916e-08
-2.73965e-07
6.06936e-08
1.69484e-08
-2.77342e-07
4.23945e-08
4.7425e-08
-2.80172e-07
1.77445e-08
7.67615e-08
-2.82362e-07
-1.56462e-08
1.05433e-07
-2.83917e-07
-6.04061e-08
1.34381e-07
-2.85606e-07
-1.17931e-07
1.68788e-07
-2.88394e-07
-1.89508e-07
2.21227e-07
-2.926e-07
-2.75998e-07
2.96229e-07
-2.99245e-07
-3.50956e-07
3.44719e-07
-3.14104e-07
-3.67347e-07
2.89692e-07
-3.4205e-07
-3.53041e-07
1.36945e-07
-3.67011e-07
-4.15156e-07
2.58789e-09
-3.57203e-07
-5.19116e-07
-1.73568e-07
-3.65496e-07
-6.30073e-07
-4.45234e-07
-3.32748e-07
-9.5357e-07
-4.02891e-07
-1.46229e-07
-1.36894e-06
-7.15583e-08
8.29509e-08
-1.45353e-06
4.69744e-08
7.2214e-08
-9.69594e-07
-1.00974e-07
-2.96028e-07
8.99405e-07
8.64141e-08
-1.5065e-06
7.93466e-06
-7.51338e-06
-2.60678e-06
1.48118e-05
-1.7756e-05
-1.66175e-06
1.66603e-05
-1.69094e-05
-5.71379e-07
1.85846e-05
-1.25456e-05
-3.38924e-06
1.94563e-05
-3.02454e-06
-6.27989e-06
2.2368e-05
-1.64507e-06
-7.52406e-06
2.40052e-05
2.53472e-06
-6.96945e-06
2.54541e-05
5.6612e-06
-7.5147e-06
6.02537e-06
2.57526e-05
1.79585e-05
3.413e-05
-4.33069e-06
2.59295e-07
1.81919e-05
-2.35037e-05
-1.06918e-05
1.3813e-05
-7.93605e-06
9.16548e-07
8.54647e-06
1.21427e-06
3.02348e-06
1.46011e-06
4.46856e-06
4.91037e-06
-7.20517e-06
-1.9267e-07
7.69626e-06
-1.3485e-05
-6.78249e-07
5.95249e-06
-1.69887e-05
-2.53564e-06
4.24926e-06
-1.90865e-05
-3.30079e-06
3.4839e-06
-2.01996e-05
-5.53072e-06
3.37213e-06
-2.10948e-05
-6.26095e-06
3.49983e-06
-2.20055e-05
-7.2655e-06
3.66744e-06
-2.281e-05
-7.74594e-06
3.81723e-06
-2.32092e-05
-8.23533e-06
3.67159e-06
-2.28739e-05
-8.75623e-06
3.65177e-06
-2.17845e-05
-9.52353e-06
3.21422e-06
-2.0536e-05
-1.1339e-05
2.65239e-06
-1.96332e-05
-1.24536e-05
2.27219e-06
-1.85785e-05
-1.31903e-05
1.74068e-06
-1.74327e-05
-1.32365e-05
1.3329e-06
-1.61278e-05
-1.10331e-05
1.83993e-06
-1.50122e-05
-7.77571e-06
2.39163e-06
-1.4002e-05
-4.7523e-06
3.1884e-06
-1.32025e-05
-1.22857e-07
3.62869e-06
-1.21407e-05
2.54253e-06
3.66104e-06
-1.00707e-05
3.03771e-06
1.83641e-06
-7.20927e-06
4.92054e-07
5.75661e-07
-5.56164e-06
-1.44485e-06
-5.22773e-07
-4.8306e-06
-2.59174e-06
-1.04573e-06
-4.42707e-06
-3.50411e-06
-9.32579e-07
-3.96546e-06
-3.78045e-06
-1.20629e-06
-2.94764e-06
-3.19158e-06
-1.67235e-06
-2.05707e-06
-3.24885e-06
-8.30387e-07
-2.12322e-06
-2.932e-06
2.96182e-07
-3.59642e-06
-3.22988e-06
1.24245e-06
-3.64928e-06
-2.72939e-06
-1.31434e-06
-3.22009e-06
-3.48968e-06
-2.92272e-06
-3.78811e-06
-1.92858e-07
-1.82985e-06
-4.51891e-06
-8.3393e-07
-1.506e-06
-3.35109e-06
9.55369e-08
-8.84425e-07
-3.28166e-06
7.84265e-08
-3.94748e-07
-1.99159e-06
1.76775e-07
-1.07824e-07
-1.22047e-06
9.36681e-08
-7.56038e-08
-3.3018e-07
-1.43568e-07
-1.4382e-07
-8.55148e-08
-1.83445e-07
-1.79392e-07
1.30966e-07
-2.1251e-07
-2.31161e-07
2.95648e-07
-1.94056e-07
-2.88774e-07
3.93667e-07
-2.032e-07
-3.61203e-07
3.60878e-07
-2.28e-07
-4.35402e-07
3.10987e-07
-2.59319e-07
-4.62592e-07
2.08093e-07
-2.9648e-07
-4.47587e-07
1.39356e-07
-3.22363e-07
-3.99454e-07
8.9059e-08
-3.45669e-07
-3.33971e-07
6.50768e-08
-3.60122e-07
-2.64883e-07
5.73386e-08
-3.71423e-07
-1.99896e-07
5.97914e-08
-3.78098e-07
-1.41133e-07
6.651e-08
-3.82063e-07
-8.83186e-08
7.81025e-08
-3.83896e-07
-4.11073e-08
9.43471e-08
-3.83676e-07
-3.37543e-10
1.14307e-07
-3.81233e-07
3.29024e-08
1.38141e-07
-3.77124e-07
5.77536e-08
1.6655e-07
-3.72261e-07
7.39868e-08
1.98348e-07
-3.67331e-07
8.25751e-08
2.30162e-07
-3.62524e-07
8.5032e-08
2.59683e-07
-3.58474e-07
8.14914e-08
2.88786e-07
-3.55598e-07
7.09674e-08
3.21592e-07
-3.53535e-07
5.21891e-08
3.58444e-07
-3.52697e-07
2.64089e-08
3.95393e-07
-3.52392e-07
-4.29983e-09
4.30969e-07
-3.52583e-07
-3.83055e-08
4.65246e-07
-3.54187e-07
-7.543e-08
5.00256e-07
-3.57419e-07
-1.18246e-07
5.39144e-07
-3.61619e-07
-1.68877e-07
5.87291e-07
-3.67535e-07
-2.2388e-07
6.53205e-07
-3.76571e-07
-2.7232e-07
7.32585e-07
-3.87469e-07
-2.99814e-07
7.69835e-07
-3.96828e-07
-3.28983e-07
7.0943e-07
-3.88731e-07
-4.40552e-07
6.00288e-07
-3.47433e-07
-6.97178e-07
5.60819e-07
-2.91999e-07
-1.00949e-06
4.51185e-07
-2.94926e-07
-1.26275e-06
2.09898e-07
-3.76186e-07
-1.42443e-06
2.39564e-07
-4.45685e-07
-1.49658e-06
4.42492e-07
-3.91697e-07
-1.30272e-06
2.59097e-07
-3.43677e-07
-5.42704e-07
-1.92228e-07
-6.2297e-07
4.221e-06
-1.7577e-06
-2.73337e-06
1.13524e-05
-1.15028e-05
-2.96776e-06
1.15271e-05
-1.81141e-05
3.03058e-07
1.11558e-05
-1.5912e-05
-5.71749e-07
1.34709e-05
-9.27092e-06
-5.57303e-06
1.63315e-05
2.63117e-06
-8.44728e-06
2.09277e-05
4.71025e-06
-1.11347e-05
2.82194e-05
1.09714e-05
-1.45438e-05
3.31374e-05
6.67877e-06
-6.93714e-06
2.01238e-05
3.97992e-05
1.81962e-05
3.81911e-05
-5.18328e-07
-1.32495e-06
6.36674e-06
-2.11399e-05
-7.37859e-06
-6.36413e-06
9.17266e-08
4.14884e-06
-1.15786e-05
3.98812e-06
2.44033e-06
-1.8196e-05
6.00085e-06
5.08547e-06
-2.1568e-05
-7.84926e-07
3.96422e-06
-2.28936e-05
-2.32819e-06
2.97552e-06
-2.4505e-05
-4.0667e-06
3.14246e-06
-2.57246e-05
-5.53322e-06
3.45202e-06
-2.69549e-05
-7.8256e-06
3.52507e-06
-2.79547e-05
-8.77967e-06
3.51849e-06
-2.84273e-05
-1.00685e-05
3.27561e-06
-2.86774e-05
-1.05537e-05
3.05793e-06
-2.82716e-05
-1.09302e-05
2.28899e-06
-2.70814e-05
-1.1581e-05
1.63464e-06
-2.53558e-05
-1.17005e-05
4.51363e-07
-2.34843e-05
-1.20364e-05
-1.174e-06
-2.19079e-05
-1.18686e-05
-2.16139e-06
-2.07562e-05
-1.17716e-05
-2.57046e-06
-1.98428e-05
-1.16143e-05
-2.53556e-06
-1.958e-05
-1.088e-05
-4.16064e-07
-1.90814e-05
-9.51103e-06
1.23676e-06
-1.85877e-05
-7.59243e-06
2.34646e-06
-1.72629e-05
-4.56853e-06
3.12085e-06
-1.56998e-05
-1.4067e-06
2.38614e-06
-1.31445e-05
4.70274e-07
1.21636e-08
-1.1005e-05
3.24909e-07
-1.97245e-06
-8.35441e-06
-6.07147e-07
-3.48825e-06
-4.55771e-06
-1.25436e-06
-5.13409e-06
-1.65663e-06
-6.28995e-07
-5.77619e-06
-1.10378e-07
3.77519e-07
-5.70422e-06
-2.53413e-07
2.42335e-06
-5.4719e-06
-1.32467e-06
1.99219e-06
-4.16979e-06
-2.18439e-06
-4.27956e-07
-1.64432e-06
-3.09608e-06
-2.04307e-06
-2.75114e-07
-2.53393e-06
-9.24963e-07
-2.36657e-06
-1.73575e-06
-4.01828e-06
-3.35958e-06
-3.69258e-06
3.91805e-08
-2.29469e-06
-4.67932e-06
-8.98939e-07
-2.00802e-06
-3.59627e-06
-3.43187e-08
-1.33239e-06
-3.83781e-06
-1.12274e-07
-8.12986e-07
-2.8216e-06
3.18831e-07
-2.95883e-07
-1.97539e-06
2.47057e-07
-1.14692e-07
-4.00568e-07
-1.0113e-07
-1.57604e-07
1.27165e-07
-1.63278e-07
-1.2464e-07
3.16556e-07
-2.14032e-07
-1.26595e-07
5.07607e-07
-2.07204e-07
-1.41623e-07
6.3016e-07
-2.1985e-07
-2.15128e-07
6.55703e-07
-2.20632e-07
-3.24287e-07
6.5049e-07
-2.29942e-07
-3.96406e-07
5.35267e-07
-2.54933e-07
-4.11536e-07
4.328e-07
-2.7821e-07
-3.83487e-07
3.63949e-07
-3.02887e-07
-3.32621e-07
3.3642e-07
-3.22162e-07
-2.76933e-07
3.40919e-07
-3.39256e-07
-2.23169e-07
3.5907e-07
-3.53009e-07
-1.7246e-07
3.80054e-07
-3.6424e-07
-1.23418e-07
4.02222e-07
-3.73138e-07
-7.49812e-08
4.25662e-07
-3.7975e-07
-2.93729e-08
4.51608e-07
-3.82896e-07
1.151e-08
4.79676e-07
-3.82427e-07
4.59119e-08
5.10389e-07
-3.78238e-07
7.23555e-08
5.42817e-07
-3.70927e-07
9.06085e-08
5.73726e-07
-3.6181e-07
1.00423e-07
6.02024e-07
-3.52162e-07
9.97895e-08
6.31749e-07
-3.42302e-07
8.77765e-08
6.66684e-07
-3.3306e-07
6.48418e-08
7.06521e-07
-3.25077e-07
3.28752e-08
7.46557e-07
-3.19137e-07
-5.18095e-09
7.85021e-07
-3.15884e-07
-4.70048e-08
8.2275e-07
-3.15572e-07
-9.28202e-08
8.63615e-07
-3.17372e-07
-1.44453e-07
9.11615e-07
-3.20669e-07
-2.02767e-07
9.70186e-07
-3.24337e-07
-2.57639e-07
1.03798e-06
-3.29639e-07
-2.9399e-07
1.09931e-06
-3.29926e-07
-3.14257e-07
1.09995e-06
-3.09007e-07
-3.71094e-07
1.01294e-06
-2.44762e-07
-5.26424e-07
9.1434e-07
-1.54344e-07
-7.99674e-07
9.27257e-07
-8.36777e-08
-1.14577e-06
9.34959e-07
-1.20939e-07
-1.40824e-06
8.05328e-07
-3.07868e-07
-1.36294e-06
8.58211e-07
-6.29734e-07
-1.11765e-06
1.07346e-06
-8.24635e-07
-7.59145e-07
7.47681e-07
-7.80226e-07
-2.41037e-07
2.6126e-07
-9.03279e-07
5.1981e-06
-4.08712e-06
-2.81409e-06
8.41101e-06
-1.24276e-05
-2.18827e-06
3.44568e-06
-1.38389e-05
8.15082e-07
4.26716e-06
-1.46237e-05
-2.04656e-06
7.12084e-06
-4.30669e-06
-7.83882e-06
1.00886e-05
9.18425e-06
-9.46851e-06
5.86223e-06
1.506e-05
-6.50233e-06
1.75224e-05
1.83913e-05
-1.73697e-05
1.80139e-05
1.43518e-05
-7.94492e-06
2.93915e-05
4.61112e-05
8.10896e-06
3.82719e-05
5.67698e-06
-3.21712e-06
-1.07236e-05
-6.98077e-06
-3.76126e-06
-2.12498e-05
5.36513e-06
5.15555e-06
-2.58321e-05
6.28231e-06
2.28868e-06
-2.83128e-05
5.2579e-06
3.2254e-06
-2.99079e-05
-2.40426e-06
3.20978e-06
-3.15998e-05
-4.11534e-06
3.47325e-06
-3.35858e-05
-5.13764e-06
3.05146e-06
-3.53138e-05
-6.96001e-06
3.15015e-06
-3.67844e-05
-9.05181e-06
2.69205e-06
-3.70952e-05
-1.0484e-05
2.0106e-06
-3.69366e-05
-1.14768e-05
1.24621e-06
-3.58798e-05
-1.20333e-05
4.20397e-07
-3.49231e-05
-1.19809e-05
9.26486e-08
-3.37542e-05
-1.24481e-05
-3.02691e-07
-3.14635e-05
-1.15678e-05
-2.42384e-06
-2.82989e-05
-1.10508e-05
-4.15062e-06
-2.54575e-05
-1.00624e-05
-4.64779e-06
-2.32273e-05
-9.0527e-06
-4.94916e-06
-2.18801e-05
-8.45602e-06
-4.50547e-06
-2.12203e-05
-8.23774e-06
-3.30205e-06
-2.01123e-05
-7.664e-06
-2.95506e-06
-1.87802e-05
-6.4459e-06
-2.47861e-06
-1.74817e-05
-4.07697e-06
-1.79006e-06
-1.5251e-05
-5.61445e-07
-3.07597e-06
-1.17801e-05
2.58514e-06
-5.58575e-06
-7.86152e-06
4.96225e-06
-8.55596e-06
-4.56711e-06
5.48769e-06
-9.38925e-06
-1.42055e-06
3.6535e-06
-8.05442e-06
1.50116e-06
3.32661e-06
-6.87731e-06
3.55717e-06
4.54754e-06
-6.22602e-06
4.92145e-06
7.46372e-06
-6.40465e-06
4.97779e-06
7.40159e-06
-5.46574e-06
2.45804e-06
5.3447e-06
-3.25291e-06
-1.79052e-06
2.95362e-06
-7.48132e-07
-1.72969e-06
1.48741e-06
-2.47321e-06
8.86733e-07
-4.35217e-06
-3.77637e-06
-3.47962e-06
4.10938e-07
-2.78325e-06
-4.84515e-06
-8.23675e-07
-2.47772e-06
-3.73589e-06
-1.59425e-07
-1.58839e-06
-4.10153e-06
-6.18096e-07
-1.03695e-06
-3.45551e-06
9.11465e-08
-3.73738e-07
-2.80499e-06
1.74533e-07
-6.27401e-08
-6.81823e-07
-1.89349e-08
-1.00834e-07
2.50415e-07
-7.64129e-08
-2.6448e-08
4.48616e-07
-2.01684e-07
-1.23595e-08
6.85103e-07
-1.88393e-07
-3.49176e-09
8.28441e-07
-2.04995e-07
-8.93887e-08
9.32886e-07
-1.90247e-07
-2.38034e-07
9.84294e-07
-1.84437e-07
-3.42224e-07
8.42412e-07
-2.02546e-07
-3.63357e-07
6.8892e-07
-2.34585e-07
-3.34068e-07
6.02723e-07
-2.67661e-07
-2.84244e-07
5.81329e-07
-2.94334e-07
-2.37815e-07
6.08936e-07
-3.14027e-07
-2.00311e-07
6.51002e-07
-3.28998e-07
-1.68152e-07
6.89138e-07
-3.40773e-07
-1.36295e-07
7.20891e-07
-3.50061e-07
-1.02541e-07
7.48444e-07
-3.56052e-07
-6.81831e-08
7.75455e-07
-3.57736e-07
-3.47085e-08
8.02451e-07
-3.55766e-07
-6.16213e-09
8.32161e-07
-3.49855e-07
1.55477e-08
8.61968e-07
-3.40371e-07
3.19423e-08
8.85585e-07
-3.27786e-07
4.30953e-08
9.05021e-07
-3.13658e-07
4.66259e-08
9.27099e-07
-2.9841e-07
4.00065e-08
9.57482e-07
-2.83671e-07
2.17846e-08
9.9581e-07
-2.70577e-07
-6.44739e-09
1.03515e-06
-2.59824e-07
-4.25957e-08
1.07327e-06
-2.51587e-07
-8.46214e-08
1.11077e-06
-2.45418e-07
-1.31707e-07
1.15158e-06
-2.40316e-07
-1.84821e-07
1.20135e-06
-2.35978e-07
-2.45743e-07
1.26244e-06
-2.30682e-07
-3.06566e-07
1.3229e-06
-2.23363e-07
-3.57987e-07
1.35645e-06
-2.04851e-07
-4.02402e-07
1.3097e-06
-1.63993e-07
-4.73029e-07
1.17752e-06
-9.18287e-08
-6.0298e-07
1.07556e-06
-2.67994e-08
-7.85207e-07
1.11142e-06
7.39307e-09
-1.00838e-06
1.21885e-06
-4.37382e-08
-1.15059e-06
1.22429e-06
-2.49929e-07
-9.77534e-07
1.33724e-06
-6.15303e-07
-2.55107e-07
1.45729e-06
-1.05264e-06
8.26508e-07
8.57073e-07
-1.1262e-06
2.43478e-06
3.86456e-07
-1.60967e-06
6.29301e-06
-4.54909e-06
-3.15423e-06
6.11527e-06
-8.89496e-06
-3.21729e-06
1.10039e-06
-7.10235e-06
-1.68119e-06
-3.03317e-06
-8.07285e-06
-2.40375e-06
-4.4999e-06
7.46513e-07
-3.60586e-06
-8.17868e-06
1.43897e-05
-1.19091e-06
-1.32403e-05
2.3474e-05
-3.68639e-06
-8.13579e-06
2.56919e-05
-9.29934e-06
-1.29639e-05
2.77395e-05
-9.86709e-06
3.15112e-05
3.94212e-05
-1.20216e-05
4.16308e-05
4.62034e-06
-2.02825e-07
-1.02202e-05
8.50739e-06
-4.02034e-06
-2.11466e-05
9.28471e-06
6.50108e-06
-2.92172e-05
1.27597e-05
1.62506e-06
-3.51567e-05
8.9854e-06
2.23142e-06
-3.88599e-05
-1.63831e-06
2.91378e-06
-4.13428e-05
-5.0513e-06
3.38268e-06
-4.32306e-05
-5.78049e-06
2.48639e-06
-4.49989e-05
-7.94784e-06
2.70513e-06
-4.63377e-05
-9.344e-06
1.57624e-06
-4.57229e-05
-1.0697e-05
-4.58705e-07
-4.44992e-05
-1.10234e-05
-1.73357e-06
-4.27558e-05
-1.17015e-05
-2.12518e-06
-4.08589e-05
-1.15011e-05
-2.41714e-06
-3.91574e-05
-1.1645e-05
-2.53646e-06
-3.66032e-05
-1.11321e-05
-3.0126e-06
-3.30738e-05
-1.13649e-05
-3.232e-06
-2.98044e-05
-1.06797e-05
-2.66395e-06
-2.70602e-05
-9.37027e-06
-2.43465e-06
-2.55896e-05
-7.56339e-06
-2.36849e-06
-2.48857e-05
-6.06968e-06
-2.87546e-06
-2.41149e-05
-4.72504e-06
-3.71255e-06
-2.21113e-05
-4.07251e-06
-4.37962e-06
-1.94585e-05
-2.66143e-06
-4.07101e-06
-1.66323e-05
1.0271e-06
-4.41594e-06
-1.32234e-05
4.04615e-06
-4.8701e-06
-1.05872e-05
6.24022e-06
-3.91314e-06
-8.8187e-06
4.78192e-06
-1.06177e-06
-5.93669e-06
5.29887e-07
2.41077e-07
-1.92004e-06
-1.83744e-06
1.1449e-06
2.81114e-06
-5.58231e-07
3.74122e-07
5.58699e-06
6.7252e-06
-2.03712e-06
7.13699e-06
7.64363e-06
-1.79192e-06
5.90175e-06
6.10487e-06
4.75126e-07
2.12456e-06
5.83612e-06
8.94597e-07
-1.76474e-07
6.15062e-06
-2.36227e-06
6.01817e-06
-5.30802e-06
-4.10866e-06
-3.09582e-06
8.37043e-07
-3.27244e-06
-4.86511e-06
-8.14668e-07
-2.98574e-06
-3.67699e-06
-3.40283e-07
-1.79971e-06
-4.07882e-06
-1.20132e-06
-1.07069e-06
-3.70921e-06
-4.66004e-07
-2.71634e-07
-3.24408e-06
-3.52372e-07
9.22582e-08
-9.29022e-07
-1.06672e-07
-1.39199e-08
4.01582e-07
-3.50436e-08
7.45882e-08
5.99678e-07
-2.34413e-07
6.42209e-08
8.97919e-07
-1.99131e-07
6.57808e-08
1.04441e-06
-2.15584e-07
-3.54294e-08
1.19804e-06
-1.63015e-07
-1.75971e-07
1.26566e-06
-1.40396e-07
-2.55021e-07
1.09285e-06
-1.71465e-07
-2.62283e-07
9.1876e-07
-2.22708e-07
-2.30339e-07
8.33013e-07
-2.62433e-07
-1.90638e-07
8.30698e-07
-2.89259e-07
-1.64702e-07
8.85266e-07
-3.02497e-07
-1.54043e-07
9.49972e-07
-3.09844e-07
-1.51438e-07
1.00183e-06
-3.15549e-07
-1.50972e-07
1.04009e-06
-3.199e-07
-1.48795e-07
1.06815e-06
-3.22141e-07
-1.43456e-07
1.09057e-06
-3.20689e-07
-1.35602e-07
1.10958e-06
-3.15234e-07
-1.29765e-07
1.13049e-06
-3.04395e-07
-1.27793e-07
1.15028e-06
-2.90521e-07
-1.24348e-07
1.15967e-06
-2.777e-07
-1.19102e-07
1.16518e-06
-2.65561e-07
-1.13553e-07
1.17502e-06
-2.53583e-07
-1.12886e-07
1.19821e-06
-2.41525e-07
-1.22314e-07
1.23494e-06
-2.29781e-07
-1.41362e-07
1.27334e-06
-2.19235e-07
-1.6763e-07
1.30937e-06
-2.09876e-07
-1.97976e-07
1.34258e-06
-2.01509e-07
-2.29447e-07
1.37683e-06
-1.93756e-07
-2.64292e-07
1.42098e-06
-1.84754e-07
-3.11088e-07
1.48041e-06
-1.71057e-07
-3.73416e-07
1.53794e-06
-1.52583e-07
-4.41514e-07
1.55213e-06
-1.27264e-07
-4.99975e-07
1.46251e-06
-9.36076e-08
-5.39517e-07
1.27488e-06
-5.62879e-08
-5.88357e-07
1.16226e-06
-3.42344e-08
-6.54213e-07
1.20828e-06
-2.25107e-08
-7.12514e-07
1.34491e-06
-5.22242e-08
-7.20095e-07
1.43034e-06
-1.72662e-07
-5.27153e-07
1.6528e-06
-4.71778e-07
2.85198e-07
1.57007e-06
-8.66851e-07
1.7398e-06
5.94998e-07
-1.14896e-06
4.6781e-06
-6.36068e-07
-1.74408e-06
7.57838e-06
-3.32122e-06
-3.93773e-06
7.80734e-06
-4.17154e-06
-4.69372e-06
1.12812e-06
-1.11309e-07
-2.40047e-07
-1.3289e-05
3.01489e-06
3.28907e-06
-2.21712e-05
7.60406e-06
2.02018e-06
-2.76931e-05
1.73949e-05
2.51601e-06
-2.83046e-05
2.4205e-05
-2.57875e-07
-2.60701e-05
2.72919e-05
-1.74224e-06
-2.2952e-05
3.19701e-05
-8.89585e-06
2.65861e-05
2.98156e-05
-1.51982e-05
4.74431e-05
6.41461e-09
-1.71282e-06
2.51017e-06
1.86137e-05
-8.68171e-06
-1.84588e-05
2.18736e-05
6.6629e-06
-2.82699e-05
2.25562e-05
1.61947e-07
-3.41125e-05
1.41928e-05
7.32063e-07
-4.1174e-05
3.61208e-06
1.82197e-06
-4.60877e-05
-2.52781e-06
2.3814e-06
-5.00363e-05
-2.63764e-06
7.64905e-07
-5.02955e-05
-7.68421e-06
-6.43687e-08
-5.02316e-05
-7.52843e-06
-1.97099e-06
-4.99857e-05
-7.9081e-06
-3.15125e-06
-4.89021e-05
-8.96604e-06
-3.27375e-06
-4.70304e-05
-1.02168e-05
-3.5005e-06
-4.44231e-05
-1.11238e-05
-3.12902e-06
-4.18584e-05
-1.11984e-05
-3.15032e-06
-3.87689e-05
-1.11207e-05
-3.22423e-06
-3.49083e-05
-1.19967e-05
-3.34696e-06
-3.03415e-05
-1.26555e-05
-2.70067e-06
-2.52084e-05
-1.2714e-05
-1.88565e-06
-2.05149e-05
-1.1826e-05
-5.04565e-07
-1.69551e-05
-1.08128e-05
1.14226e-06
-1.44779e-05
-9.39821e-06
2.17375e-06
-1.31458e-05
-8.81092e-06
3.39139e-06
-1.19008e-05
-7.46616e-06
3.54623e-06
-1.10298e-05
-2.36711e-06
2.52091e-06
-1.03044e-05
7.74654e-07
2.55371e-06
-1.17636e-05
3.53144e-06
4.18305e-06
-1.39652e-05
1.18362e-06
5.81305e-06
-1.44478e-05
-6.02188e-06
7.01141e-06
-1.20454e-05
-1.15438e-05
7.24221e-06
-5.88526e-06
-1.39977e-05
7.18273e-06
1.55991e-06
-7.40105e-06
6.59917e-06
5.28484e-06
1.64602e-07
3.72311e-06
5.32694e-06
3.15834e-06
2.89543e-06
3.19106e-06
5.68075e-06
2.27924e-06
7.96576e-07
1.00246e-05
-1.48183e-06
1.19613e-05
-5.16089e-06
-4.02562e-06
-2.55745e-06
1.48022e-06
-3.59197e-06
-4.50255e-06
-7.95798e-07
-3.59687e-06
-3.40759e-06
-2.59923e-07
-2.31896e-06
-3.91516e-06
-1.43405e-06
-1.28676e-06
-3.79961e-06
-9.31347e-07
-1.80401e-07
-3.42627e-06
-9.14921e-07
2.40982e-07
-1.20395e-06
-1.37072e-07
1.26771e-07
4.69772e-07
5.51825e-08
1.58553e-07
8.6441e-07
-2.89716e-07
6.54572e-08
1.20185e-06
-2.06552e-07
4.36025e-08
1.3059e-06
-2.37089e-07
1.63084e-09
1.43121e-06
-1.9009e-07
-1.47193e-08
1.48784e-06
-2.05245e-07
-2.16888e-08
1.3602e-06
-2.60335e-07
-2.33808e-08
1.25133e-06
-3.30698e-07
-3.53314e-08
1.22642e-06
-3.81324e-07
-5.93603e-08
1.27183e-06
-4.16927e-07
-9.36567e-08
1.35589e-06
-4.36177e-07
-1.34095e-07
1.44021e-06
-4.49639e-07
-1.79658e-07
1.50829e-06
-4.60708e-07
-2.20594e-07
1.55052e-06
-4.69337e-07
-2.51422e-07
1.57432e-06
-4.75198e-07
-2.73589e-07
1.5911e-06
-4.78273e-07
-2.88056e-07
1.603e-06
-4.78902e-07
-2.94838e-07
1.61416e-06
-4.76923e-07
-2.96259e-07
1.62428e-06
-4.72662e-07
-2.95782e-07
1.62688e-06
-4.67865e-07
-2.90206e-07
1.62371e-06
-4.64311e-07
-2.79864e-07
1.6242e-06
-4.59777e-07
-2.72558e-07
1.64386e-06
-4.53204e-07
-2.75866e-07
1.68288e-06
-4.44905e-07
-2.87247e-07
1.72168e-06
-4.37213e-07
-3.03318e-07
1.75589e-06
-4.30717e-07
-3.20833e-07
1.78531e-06
-4.25463e-07
-3.36871e-07
1.81364e-06
-4.2102e-07
-3.5161e-07
1.85089e-06
-4.15392e-07
-3.70307e-07
1.90233e-06
-4.03449e-07
-3.99608e-07
1.94971e-06
-3.82618e-07
-4.34963e-07
1.94565e-06
-3.58179e-07
-4.59596e-07
1.82722e-06
-3.3971e-07
-4.56127e-07
1.60988e-06
-3.37416e-07
-4.32934e-07
1.48432e-06
-3.41427e-07
-3.57792e-07
1.48929e-06
-3.45926e-07
-2.12304e-07
1.58885e-06
-3.70847e-07
-9.96155e-08
1.75756e-06
-4.10794e-07
1.23478e-07
2.01137e-06
-5.37915e-07
1.00571e-06
1.51514e-06
-7.57275e-07
2.6433e-06
-1.65979e-07
-8.18144e-07
5.96072e-06
-1.78701e-06
-1.9465e-06
6.45493e-06
1.29973e-06
-4.89437e-06
1.24688e-07
4.4276e-06
-2.01636e-06
-1.2411e-05
9.15982e-06
3.31845e-06
-2.51851e-05
1.28681e-05
2.79642e-06
-3.35979e-05
1.52508e-05
8.05331e-07
-3.5888e-05
1.88089e-05
9.70514e-07
-3.04791e-05
2.03173e-05
-1.63713e-06
-2.57596e-05
3.0344e-05
-5.21769e-06
-2.71756e-05
3.17085e-05
-6.06176e-07
2.87579e-05
-6.89854e-06
1.0859e-05
5.23249e-05
1.30936e-06
-4.63396e-06
-1.42241e-06
3.48955e-05
-1.11253e-05
-1.80361e-05
2.79377e-05
8.33641e-06
-2.12943e-05
2.68608e-05
-8.84013e-07
-2.20355e-05
1.23646e-05
2.64628e-06
-2.60859e-05
3.04774e-06
4.66097e-06
-3.45143e-05
-3.05811e-06
9.05572e-06
-4.49343e-05
9.75675e-07
6.85737e-06
-4.99873e-05
-3.02442e-06
4.15784e-07
-5.17144e-05
-1.83507e-06
-3.97872e-06
-5.25066e-05
-9.75759e-07
-6.21238e-06
-5.21943e-05
-1.70207e-06
-7.69082e-06
-5.15188e-05
-3.50956e-06
-7.51595e-06
-4.98576e-05
-4.59251e-06
-8.35278e-06
-4.81753e-05
-4.73661e-06
-8.32594e-06
-4.5736e-05
-5.58151e-06
-8.14394e-06
-4.29764e-05
-7.10877e-06
-7.80175e-06
-3.94717e-05
-8.84596e-06
-7.46461e-06
-3.56687e-05
-9.63059e-06
-7.07488e-06
-2.95074e-05
-1.12353e-05
-7.01274e-06
-2.24596e-05
-1.34547e-05
-4.65886e-06
-1.46253e-05
-1.47218e-05
-2.70091e-06
-8.68279e-06
-1.47633e-05
-1.11199e-07
-5.39906e-06
-1.25238e-05
1.71522e-06
-5.33817e-06
-5.62992e-06
3.18742e-06
-8.72317e-06
6.88343e-07
3.50072e-06
-1.30708e-05
5.19369e-06
2.7229e-06
-1.78494e-05
4.43259e-06
1.56428e-06
-2.04579e-05
-3.82349e-06
3.68275e-07
-2.15348e-05
-1.29091e-05
2.41587e-06
-2.09302e-05
-1.94735e-05
4.93817e-06
-1.52847e-05
-1.99246e-05
7.04592e-06
-1.30271e-05
-7.89521e-06
6.02384e-06
-1.3542e-05
2.03322e-06
1.78435e-06
-1.31429e-05
6.10888e-06
-7.68901e-07
-8.4459e-06
8.25714e-06
-3.2584e-06
7.23151e-06
-6.50019e-06
-3.37465e-06
-1.47269e-06
2.4547e-06
-3.71641e-06
-4.07609e-06
-8.82794e-08
-4.2137e-06
-3.10291e-06
1.96861e-07
-3.07193e-06
-3.89768e-06
-1.15106e-06
-1.85901e-06
-3.97978e-06
-1.02074e-06
-3.58803e-07
-3.7452e-06
-1.16927e-06
2.63116e-07
-1.70745e-06
-1.10732e-07
1.3559e-07
1.9986e-07
4.04254e-07
1.19251e-07
8.1942e-07
7.00965e-08
1.6068e-08
1.14431e-06
1.66203e-07
3.43529e-08
1.201e-06