/*--------------------------------*- C++ -*----------------------------------*\
| =========                 |                                                 |
| \\      /  F ield         | OpenFOAM: The Open Source CFD Toolbox           |
|  \\    /   O peration     | Version:  2.3.0                                 |
|   \\  /    A nd           | Web:      www.OpenFOAM.org                      |
|    \\/     M anipulation  |                                                 |
\*---------------------------------------------------------------------------*/
FoamFile
{
    version     2.0;
    format      ascii;
    class       volVectorField;
    location    "63";
    object      U;
}
// * * * * * * * * * * * * * * * * * * * * * * * * * * * * * * * * * * * * * //

dimensions      [0 1 -1 0 0 0 0];

internalField   nonuniform List<vector> 
6144
(
(0.0108621 0.0196306 -0.000851406)
(0.011269 -0.00266497 -0.0023164)
(0.00478585 -0.00411127 -0.00315033)
(0.00387006 -0.00390688 -0.00284108)
(0.00214434 -0.00273484 -0.00196946)
(0.00282916 -0.000267766 -0.00143233)
(0.00308055 -0.00059443 -0.00107196)
(0.00312466 2.8976e-05 -0.00111675)
(0.0025372 -0.000254187 -0.000964545)
(0.00191983 0.000949154 -0.000563944)
(0.00141548 0.00216467 -3.2854e-05)
(0.00131212 0.00351245 0.000687636)
(0.00139168 0.00386014 0.00114827)
(0.00151321 0.00360636 0.0015948)
(0.00156954 0.00289419 0.00170559)
(0.00164781 0.00215828 0.00166857)
(0.00171641 0.00136837 0.00150147)
(0.00179242 0.000688604 0.00129026)
(0.00186265 0.000110444 0.00105851)
(0.00192293 -0.000311934 0.000834876)
(0.00196443 -0.000580243 0.000622981)
(0.00199685 -0.000676546 0.000439018)
(0.00201865 -0.000650035 0.000310725)
(0.00201691 -0.000547461 0.000265056)
(0.00199124 -0.000401967 0.000294084)
(0.00194589 -0.00023919 0.000390586)
(0.00189047 -8.48162e-05 0.000535862)
(0.00183985 3.03181e-05 0.000691716)
(0.00178414 8.30781e-05 0.000857012)
(0.00172433 8.67436e-05 0.00100571)
(0.00166341 7.05324e-05 0.00112813)
(0.00160633 5.41194e-05 0.00122617)
(0.00155576 4.96103e-05 0.00129911)
(0.00151369 7.0308e-05 0.00134836)
(0.00148194 0.000119919 0.00138021)
(0.00145906 0.000190923 0.0013965)
(0.00143526 0.000289449 0.0013896)
(0.00139404 0.000464556 0.00134563)
(0.00133454 0.000840893 0.0012749)
(0.00127489 0.00146668 0.00114726)
(0.00125114 0.00242106 0.0010885)
(0.00153587 0.0031991 0.00128207)
(0.00225045 0.00297073 0.00156078)
(0.0031685 0.00138814 0.00156043)
(0.00365458 -0.000707613 0.00079545)
(0.00423887 -0.00238375 -0.000597401)
(0.0041122 -0.00172364 -0.00201414)
(0.00242445 0.0016853 -0.00236715)
(0.000842192 0.00917487 -0.00277664)
(0.000732345 0.0122809 -0.00286571)
(-0.00207983 0.0205241 -0.0040674)
(0.00895963 0.0161966 -0.00883736)
(0.0504549 -0.0153789 -0.0137349)
(0.0583704 -0.0733287 -0.0160307)
(0.0471281 -0.0826779 -0.0208048)
(0.0381285 -0.119172 -0.0149774)
(0.0282127 -0.0919315 -0.0267088)
(0.0156987 -0.148333 -0.000653284)
(-0.0360676 0.00976718 -0.0686616)
(0.0214282 0.0753927 0.0324514)
(0.0789853 -0.254454 0.0906044)
(0.0606682 -0.108003 0.0543278)
(0.0446412 -0.160311 0.0128093)
(0.0425139 -0.160599 0.0173956)
(0.0380264 -0.15637 0.0117963)
(0.033461 -0.15641 0.00774298)
(0.0313747 -0.162279 0.00427799)
(0.0270481 -0.161995 0.00266631)
(0.0236742 -0.156999 0.000865179)
(0.0219756 -0.149975 -0.00092904)
(0.0166957 -0.143575 0.000845585)
(0.00916482 -0.136363 0.000669169)
(0.00546432 -0.120444 -0.00340952)
(-0.0118216 -0.113984 -0.00176028)
(-0.0324501 -0.0831729 -0.000306667)
(-0.0187336 -0.0477328 -0.0116189)
(0.0071152 -0.0386337 -0.0181512)
(0.0245439 -0.041004 -0.0172638)
(0.0308922 -0.0541174 -0.00976344)
(0.0274779 -0.0707434 -0.00457094)
(0.0187342 -0.0857818 0.00420676)
(0.00137295 -0.0990163 0.00876976)
(-0.00707048 -0.0938074 0.00724028)
(-0.00653561 -0.0795073 0.00849332)
(0.0087255 -0.0503953 0.00688503)
(-0.00295072 -0.0377938 0.00088603)
(-0.007045 -0.00222061 -0.0135952)
(0.0111888 0.00538627 -0.0147638)
(0.0171905 0.0114749 -0.0139771)
(0.0207213 0.0111793 -0.0136046)
(0.0166863 0.0130766 -0.0146218)
(0.00935635 0.0157495 -0.0119294)
(0.00578626 0.0239156 -0.00871111)
(0.00818799 0.0259651 -0.00510286)
(0.0126858 0.0265168 -0.00397577)
(0.0114725 0.0101629 0.00269471)
(0.0203362 0.0201628 0.00322146)
(0.0220703 0.00576492 0.00238222)
(0.0119322 0.00189656 -0.00196426)
(0.0100141 0.0007868 -0.000511053)
(0.00505644 -0.00277156 0.000954973)
(0.00509063 -0.00112965 0.00161062)
(0.00489714 -0.00146541 0.00227267)
(0.00481105 -3.96661e-05 0.00246026)
(0.0036883 6.14475e-05 0.00268311)
(0.00241286 0.00173037 0.00264869)
(0.00175793 0.00313202 0.00275266)
(0.00192424 0.0044728 0.00339877)
(0.00229193 0.00472626 0.00390452)
(0.00273926 0.00451647 0.00422273)
(0.00292603 0.0037839 0.00432332)
(0.00307816 0.00302016 0.00433495)
(0.00316732 0.00215793 0.0042826)
(0.00325073 0.00141233 0.00421709)
(0.00331678 0.000749092 0.00414811)
(0.00335925 0.000234337 0.00409337)
(0.00336614 -0.000136994 0.00405472)
(0.00336183 -0.000336273 0.00401203)
(0.0033543 -0.000407552 0.00396991)
(0.00331176 -0.000394802 0.00398049)
(0.00322977 -0.000326684 0.00403934)
(0.00311642 -0.000224373 0.00413936)
(0.00299109 -0.000108945 0.00426027)
(0.00289539 -8.52349e-06 0.00434426)
(0.00280333 4.36755e-05 0.00443917)
(0.00270265 5.64824e-05 0.00453252)
(0.00259621 4.86102e-05 0.00461661)
(0.00249183 3.95465e-05 0.00468939)
(0.00239163 4.23022e-05 0.00475015)
(0.00230033 7.25139e-05 0.00479754)
(0.00222647 0.000143528 0.00483438)
(0.00216915 0.000257371 0.00487066)
(0.00209855 0.000419766 0.00491676)
(0.00194974 0.000662012 0.00497958)
(0.00170205 0.00109239 0.00504831)
(0.00145361 0.00176608 0.0050905)
(0.00146359 0.00249555 0.00517706)
(0.00217484 0.00257568 0.00540577)
(0.00349459 0.00200122 0.0054366)
(0.00492557 0.00101043 0.00530509)
(0.00638827 -0.000166428 0.0047372)
(0.00683898 -0.00147131 0.00245547)
(0.00434858 0.00290175 -0.000129547)
(0.000793042 0.00860727 -0.00119462)
(-0.000220345 0.0112763 -0.00116791)
(-0.0013142 0.0102205 0.000391921)
(0.00662435 0.0158729 0.00610772)
(0.055182 -0.0434902 0.00539855)
(0.0864687 -0.0708622 0.00303946)
(0.0789438 -0.105237 0.00280949)
(0.0563865 -0.106401 0.00515751)
(0.0419379 -0.136458 0.0165676)
(0.0258937 -0.111648 -0.00167746)
(0.00730616 -0.190561 0.0252012)
(-0.0448985 0.0450446 -0.0575468)
(0.00715329 0.0310814 0.0102499)
(0.0886061 -0.23135 0.108692)
(0.0494258 -0.0224267 0.0512339)
(-0.00616463 -0.100166 0.00252095)
(-0.0204178 -0.0720177 0.00269861)
(-0.00361494 -0.0103979 -0.0184272)
(-0.00167686 0.0261752 0.0206205)
(-0.00280573 0.03491 -0.000958703)
(-0.000769966 0.0605095 -0.0084017)
(0.00192835 0.0727226 -0.0107962)
(0.00237158 0.0848489 -0.0130531)
(0.00574084 0.0908808 -0.0158273)
(0.0061903 0.0961655 -0.017706)
(0.00807095 0.0981579 -0.0181932)
(0.0098943 0.0905677 -0.01694)
(0.0185844 0.084855 -0.0139327)
(0.0338204 0.0785309 -0.00825988)
(0.046915 0.0708486 -0.000440447)
(0.0519993 0.0660354 0.00468582)
(0.0478503 0.0549451 0.00405709)
(0.028439 0.0388608 -0.00323095)
(0.0180326 0.0177699 0.00790001)
(0.00516135 -0.00742479 0.0195376)
(-0.0161976 -0.0384951 0.0131979)
(-0.0354137 -0.0362558 -0.00447176)
(-0.0392929 0.00108302 -0.0123041)
(-0.0283451 0.0140131 -0.00442659)
(-0.000594058 0.0233987 0.00706238)
(0.0151239 0.0162813 0.00918224)
(0.0225839 0.0182247 0.00872202)
(0.0254593 0.0205664 0.00730779)
(0.0193162 0.0254493 0.000722078)
(0.0123572 0.0223225 -0.00340886)
(0.0120569 0.0240415 -0.00583777)
(0.0176104 0.0284517 -0.00549871)
(0.0210457 0.0298031 -0.00307405)
(0.0142016 0.0118227 0.0106064)
(0.0232453 0.020395 0.00434248)
(0.0259415 0.0116671 0.0043561)
(0.0170157 0.00638169 0.000806431)
(0.014108 0.00538186 0.00204843)
(0.00696138 -0.000175173 0.00338965)
(0.00502442 0.000331455 0.0034341)
(0.00349506 -0.000547651 0.00429647)
(0.00297851 0.00120067 0.00430142)
(0.00161346 0.00119929 0.00432102)
(0.000493509 0.00244103 0.00422937)
(-9.41163e-05 0.00289103 0.00422184)
(0.000417206 0.00386117 0.0044665)
(0.00100822 0.00403758 0.00477202)
(0.00157914 0.00412275 0.00500657)
(0.00186705 0.00375716 0.00506777)
(0.00208978 0.00332998 0.00506201)
(0.00221138 0.002739 0.00501611)
(0.00231036 0.00220447 0.00497303)
(0.00237559 0.00168667 0.0049315)
(0.00241152 0.00125633 0.00491036)
(0.00240063 0.000889963 0.00490984)
(0.00234796 0.000600588 0.00493473)
(0.00226412 0.000384898 0.0049834)
(0.00215707 0.000243014 0.00503994)
(0.00202353 0.000158311 0.00510045)
(0.00186993 0.0001181 0.00516308)
(0.00171092 0.000106794 0.00522857)
(0.00155671 0.000117774 0.00530556)
(0.00141365 0.000146353 0.00539074)
(0.00126043 0.000184088 0.00547801)
(0.00109391 0.00023321 0.0055618)
(0.000930983 0.000298363 0.00563948)
(0.000777421 0.000388748 0.00571067)
(0.000631556 0.000512325 0.0057733)
(0.000495914 0.000677948 0.00582647)
(0.000371751 0.000901647 0.00588006)
(0.000225945 0.00119623 0.00594798)
(-1.9034e-05 0.00156161 0.00602937)
(-0.000383472 0.00201741 0.00611552)
(-0.000643174 0.00253934 0.00623752)
(-0.000354628 0.00288411 0.00641824)
(0.000642945 0.00271045 0.00651043)
(0.00162985 0.00280192 0.00629205)
(0.00286782 0.0035448 0.0061839)
(0.00430535 0.00421972 0.00640975)
(0.00389671 0.00524202 0.00578529)
(0.0012565 0.00872387 0.0034772)
(-0.00037423 0.0103411 0.00180489)
(-6.7415e-05 0.00926972 0.00197176)
(-0.00276761 0.00621956 0.0071347)
(0.0318194 -0.0119821 0.013758)
(0.0919562 -0.0730752 0.00424034)
(0.092829 -0.0803579 0.00230604)
(0.0786062 -0.0978226 0.0159431)
(0.0423092 -0.0909975 0.0377982)
(0.0296756 -0.122959 0.0442165)
(0.0109917 -0.0928121 0.0307064)
(-0.0184183 -0.191496 0.0416039)
(-0.120576 0.0110586 -0.0556033)
(0.0312641 0.0510807 -0.00463344)
(0.129148 -0.247002 0.121459)
(0.0723054 -0.0148671 0.069024)
(0.0173303 -0.086374 0.02389)
(-0.00803515 -0.0264218 -0.00303603)
(0.0105898 0.0138795 -0.0196142)
(0.010112 0.064815 -0.0141879)
(0.0190925 0.0839501 -0.0102591)
(0.0185573 0.0974684 -0.0049778)
(0.0299732 0.104368 -0.00139395)
(0.0330237 0.110707 -0.00240397)
(0.0383326 0.113482 -0.0011054)
(0.0399889 0.118902 -0.00694691)
(0.0400342 0.120418 -0.00843456)
(0.0390702 0.121307 -0.00560708)
(0.0434483 0.114386 0.00423562)
(0.0560599 0.111213 0.011424)
(0.0636094 0.103623 0.0150759)
(0.0685387 0.0998148 0.0157593)
(0.067991 0.0945836 0.0135887)
(0.0508829 0.0879498 -0.000364176)
(0.0227865 0.0789758 -0.0112273)
(-0.000366483 0.0788393 -0.0177684)
(-0.0269994 0.0663795 -0.0216232)
(-0.0380492 0.0632093 -0.018695)
(-0.0332051 0.0564174 -0.00597798)
(-0.0137072 0.0447645 0.00727046)
(0.00615161 0.0307081 0.0161175)
(0.0197945 0.0276536 0.0191054)
(0.0254007 0.0225411 0.0199542)
(0.0276644 0.0210949 0.0204871)
(0.0252081 0.018288 0.0214411)
(0.0234081 0.0114471 0.0150797)
(0.0155676 0.00814782 0.00828695)
(0.0172082 0.0140567 -0.00255657)
(0.0201694 0.0223762 -0.00188176)
(0.0188899 0.0118134 0.00424923)
(0.0240988 0.0206503 0.00436401)
(0.027812 0.0158836 0.0046713)
(0.0198686 0.00910407 0.000711533)
(0.0182287 0.00966678 0.00077059)
(0.00978138 0.0028147 0.00130075)
(0.00583077 0.00265103 0.00217384)
(0.00227859 3.45802e-05 0.00421097)
(0.00135795 0.00197377 0.00433402)
(2.01681e-05 0.00125817 0.00443404)
(-0.000964906 0.00218762 0.00435404)
(-0.00143375 0.0021057 0.00442009)
(-0.00100903 0.00275766 0.00471082)
(-0.000557125 0.00310108 0.00501405)
(5.73585e-05 0.00352835 0.00522327)
(0.000435895 0.0034618 0.00525925)
(0.000721625 0.00329349 0.00526616)
(0.000861419 0.00288733 0.00524554)
(0.000950634 0.00248603 0.00524118)
(0.000983991 0.00206482 0.00522871)
(0.000986748 0.00169903 0.00522217)
(0.000947819 0.00136481 0.00522101)
(0.000866827 0.00106843 0.00523255)
(0.000757215 0.000807207 0.00525625)
(0.000621843 0.000589707 0.00528815)
(0.000463889 0.000419975 0.00532702)
(0.000291808 0.000302709 0.00537062)
(0.00011679 0.000234693 0.00541713)
(-4.37745e-05 0.000205767 0.0054675)
(-0.000197058 0.000210397 0.00552533)
(-0.000362558 0.00025082 0.00558946)
(-0.000537903 0.000335503 0.00565789)
(-0.00070943 0.000465332 0.00572082)
(-0.000876844 0.000628722 0.00577223)
(-0.00104405 0.000813163 0.00581456)
(-0.00121518 0.00101039 0.00585502)
(-0.00139935 0.00122733 0.00590606)
(-0.00161765 0.00148572 0.00598669)
(-0.00193123 0.00177773 0.00609584)
(-0.00236366 0.00208625 0.00621498)
(-0.0025857 0.0023004 0.0063376)
(-0.0021973 0.00243134 0.00638049)
(-0.00149501 0.00266042 0.00604572)
(-0.00110883 0.00377461 0.00524301)
(-0.000285489 0.00560429 0.00468238)
(0.0011883 0.00741265 0.0051402)
(0.000985994 0.00848812 0.00645284)
(-0.000139288 0.0097435 0.00632308)
(0.000108109 0.00975801 0.00451544)
(0.00140768 0.00721216 0.00470343)
(0.00309961 0.00178327 0.0136937)
(0.0529475 -0.0457675 0.0118538)
(0.102449 -0.0675247 -0.00830032)
(0.0917932 -0.0426092 0.001424)
(0.06249 -0.0652759 0.0379368)
(-0.00726105 -0.0621906 0.0564652)
(-0.00644455 -0.10943 0.0656979)
(-0.0326695 -0.0769809 0.0784157)
(-0.0239825 -0.218124 0.102852)
(-0.1588 0.0908874 0.000918168)
(0.0521522 -0.0298276 0.0250178)
(0.134636 -0.210993 0.11133)
(0.0213833 0.104849 0.0196348)
(-0.0251325 -0.00828644 -0.00149759)
(-0.038768 0.0992989 -0.0207658)
(-0.00894127 0.101564 -0.00972624)
(-0.00145111 0.114579 -0.00280993)
(0.0110197 0.116399 0.00332089)
(0.0193362 0.127286 0.00253246)
(0.0320914 0.132337 0.000588879)
(0.0372296 0.139406 -0.00336725)
(0.0429184 0.139695 -0.00635444)
(0.0453027 0.140534 -0.00866224)
(0.0497473 0.138381 -0.00690943)
(0.0556595 0.135614 -0.000163063)
(0.0580818 0.128245 0.00934553)
(0.0627521 0.118061 0.0199043)
(0.0645568 0.109376 0.0248843)
(0.066927 0.102557 0.0282646)
(0.0678501 0.0985906 0.0286112)
(0.0635645 0.0946754 0.0228015)
(0.0547717 0.0931799 0.0183735)
(0.0444302 0.0907871 0.0148111)
(0.0268666 0.0851639 0.00788198)
(0.0105284 0.0782369 0.00745113)
(0.00742466 0.0672355 0.0168214)
(0.0137708 0.0590528 0.0295778)
(0.015214 0.0453318 0.0349446)
(0.0127552 0.0309691 0.0389286)
(0.0114783 0.0126238 0.036828)
(0.0105229 0.00198674 0.0366489)
(0.00761484 -0.000849044 0.0373423)
(0.010126 0.00361748 0.0310975)
(0.016761 0.00880495 0.0217882)
(0.0156502 0.0107276 0.0108125)
(0.00694627 0.0179238 0.00393091)
(0.0129964 0.00398765 0.00129558)
(0.0240981 0.0210318 0.00416332)
(0.0292407 0.0198188 0.00505254)
(0.0221175 0.0117299 0.00101902)
(0.0227833 0.0128691 0.000620873)
(0.014788 0.00532488 -0.00104702)
(0.00922221 0.00498185 -0.000597851)
(0.00203879 6.13446e-05 0.00277259)
(-0.000130551 0.00236103 0.00346921)
(-0.00146044 0.00101865 0.00368276)
(-0.00246006 0.00172381 0.00391492)
(-0.0031518 0.00125406 0.00416262)
(-0.00314592 0.00178983 0.00460926)
(-0.00297944 0.0022573 0.0048928)
(-0.0023223 0.00297417 0.00509761)
(-0.00185853 0.00313743 0.00509517)
(-0.00153739 0.00310752 0.00510769)
(-0.00138972 0.00279811 0.00511849)
(-0.00137509 0.00248616 0.0051534)
(-0.00142647 0.00214419 0.00516278)
(-0.00149751 0.00184151 0.00515458)
(-0.00158376 0.00154821 0.00512886)
(-0.00168078 0.00126379 0.00510104)
(-0.00178942 0.000988392 0.00507971)
(-0.00191382 0.000738866 0.00506677)
(-0.00206486 0.000523286 0.00506074)
(-0.00223596 0.000350928 0.00505984)
(-0.00239781 0.000227387 0.00506742)
(-0.00253997 0.000149231 0.00508122)
(-0.00267655 0.000123826 0.00509562)
(-0.00283465 0.000161288 0.00511463)
(-0.00301633 0.000261625 0.00513891)
(-0.00320076 0.000417907 0.00516249)
(-0.00337427 0.000614545 0.00518058)
(-0.00353387 0.000834531 0.00519241)
(-0.00369611 0.00106933 0.0052024)
(-0.00388511 0.00132593 0.00523033)
(-0.00413499 0.0016209 0.00529939)
(-0.00447207 0.00194013 0.00541519)
(-0.00482932 0.00220094 0.00553962)
(-0.00494279 0.00232773 0.00556985)
(-0.00465498 0.00245301 0.00527197)
(-0.00426231 0.00295946 0.00443687)
(-0.00440158 0.00417429 0.00318934)
(-0.00406025 0.00604035 0.0024715)
(-0.0028556 0.00801735 0.00309728)
(-0.00280932 0.00855809 0.00480967)
(-0.00377484 0.00787038 0.0059306)
(-0.00202205 0.00634112 0.00571205)
(0.00145942 0.00524903 0.00662737)
(0.0187962 0.000765396 0.015077)
(0.0687914 -0.0508793 0.00877549)
(0.0828998 -0.0252775 -0.0150296)
(0.0750997 0.00172528 0.00864814)
(0.0418644 -0.0357311 0.0702769)
(-0.00775842 -0.0188231 0.0787489)
(-0.0372312 -0.0871022 0.0479704)
(-0.065382 0.0568386 0.126911)
(-0.0320643 -0.205037 0.123667)
(-0.256911 0.260271 -0.0120425)
(0.00932499 -0.0953557 0.0387324)
(0.0739256 -0.12093 0.0856058)
(-0.0221527 0.171743 -0.0061577)
(-0.0217812 0.0805564 0.00639396)
(-0.0210737 0.140649 -0.00425327)
(0.0141143 0.139009 0.00036865)
(0.0211748 0.149315 0.00290887)
(0.0256984 0.152477 0.00436429)
(0.0318108 0.16674 -0.00187529)
(0.0441692 0.171083 -0.0032635)
(0.048936 0.174918 -0.00143662)
(0.0530251 0.1717 0.00134909)
(0.0528034 0.167107 0.0017689)
(0.0533344 0.164371 0.00246989)
(0.0545826 0.158094 0.00331031)
(0.0517217 0.150799 0.0107521)
(0.050412 0.135445 0.0218912)
(0.0474848 0.12174 0.0224381)
(0.0453648 0.109312 0.028156)
(0.04407 0.10212 0.0290014)
(0.0437826 0.0973909 0.0289023)
(0.0418382 0.09353 0.0304221)
(0.035357 0.0880389 0.0331023)
(0.0240437 0.0806513 0.0375528)
(0.00788393 0.0736672 0.0434625)
(-0.00590217 0.0593658 0.0533799)
(-0.00868832 0.0431942 0.0644651)
(-0.00169025 0.0244469 0.0637404)
(0.00559958 0.0143104 0.0522145)
(0.00145134 -0.00106513 0.0438962)
(-0.00531417 -0.0116081 0.0406876)
(-0.0192685 -0.01832 0.0417694)
(-0.0198311 -0.0231274 0.0365931)
(-0.0081647 -0.0213022 0.0287771)
(0.00433493 0.00091026 0.0124443)
(0.00205249 0.0141764 0.00646362)
(0.00222549 -0.000427286 0.00399481)
(0.0231305 0.0206874 0.00386044)
(0.0304942 0.0240986 0.00625813)
(0.0233579 0.0143766 0.00249243)
(0.0252266 0.0153406 0.00233923)
(0.0200174 0.00628929 -0.00098655)
(0.0148189 0.00647447 -0.00206989)
(0.00294424 -0.000521615 0.000226973)
(-0.00126601 0.00227264 0.00150419)
(-0.002213 0.000378398 0.00217553)
(-0.00347768 0.00116065 0.00288041)
(-0.00419229 0.000413257 0.00333537)
(-0.0044065 0.00096424 0.00398002)
(-0.00441699 0.00156177 0.00428773)
(-0.00363333 0.0025869 0.00461671)
(-0.00283313 0.00281803 0.00477984)
(-0.00229872 0.00278406 0.00495124)
(-0.00207969 0.00247288 0.00508294)
(-0.00209789 0.00218906 0.00518933)
(-0.00220773 0.00193519 0.00521985)
(-0.00233081 0.00174091 0.00519493)
(-0.00245387 0.00155749 0.00511717)
(-0.00258116 0.00136882 0.00500983)
(-0.00272462 0.00117106 0.00489509)
(-0.00287488 0.000977444 0.00478426)
(-0.00302551 0.000800037 0.0046836)
(-0.00317309 0.000660907 0.00458987)
(-0.0033112 0.000557825 0.00450035)
(-0.00343871 0.000482087 0.00441822)
(-0.00358513 0.000440863 0.00434647)
(-0.00376278 0.000447736 0.00429492)
(-0.00396478 0.00051536 0.00426253)
(-0.00416255 0.000642676 0.00423379)
(-0.0043505 0.000816603 0.00419472)
(-0.00454096 0.00102533 0.00413936)
(-0.00475807 0.00125706 0.00407086)
(-0.00501681 0.00151313 0.00401507)
(-0.0053153 0.0018087 0.00400079)
(-0.00561289 0.00214093 0.00403858)
(-0.00582339 0.00243626 0.00407984)
(-0.00567409 0.0026539 0.00400166)
(-0.00509068 0.00288398 0.00362769)
(-0.00457833 0.003399 0.00275047)
(-0.00470109 0.00426687 0.00144898)
(-0.00508817 0.00540629 0.000797922)
(-0.00468237 0.00671734 0.0020136)
(-0.00481965 0.00669729 0.00425471)
(-0.00575116 0.00513424 0.00571304)
(-0.00422186 -0.000578166 0.00598985)
(-0.00275923 -0.00377814 0.00772085)
(0.0244457 -0.0175491 0.018364)
(0.0553311 -0.0394178 0.0226275)
(0.0493991 -0.0141642 -0.00443423)
(0.0687299 0.0136943 0.0050631)
(0.0126781 0.0251458 0.045354)
(-0.062389 0.0367461 0.0528447)
(-0.0939117 0.0328549 0.0487651)
(-0.0955399 0.13198 0.093751)
(-0.0917786 -0.0516169 0.0851052)
(-0.204244 0.394796 0.0201141)
(-0.0125288 -0.139969 0.0257844)
(0.00419392 -0.104168 0.104108)
(-0.029461 0.157286 -0.00709974)
(-0.0383123 0.0847499 0.00737125)
(-0.0295844 0.161804 -0.00343572)
(0.00790576 0.164709 -0.00604364)
(0.0188602 0.184432 -0.00173629)
(0.026863 0.193483 0.0125102)
(0.0392892 0.202156 0.0100097)
(0.0452641 0.205109 0.0135526)
(0.0514424 0.204637 0.0163184)
(0.052583 0.198718 0.0212152)
(0.0570344 0.191008 0.0212414)
(0.0547402 0.183874 0.0215219)
(0.0561634 0.173774 0.0192697)
(0.0519434 0.164951 0.0200851)
(0.0510878 0.151574 0.0234777)
(0.0458371 0.132368 0.021914)
(0.0390901 0.121905 0.0199024)
(0.0336438 0.110546 0.0183143)
(0.030124 0.10673 0.0169508)
(0.0273667 0.104802 0.0212305)
(0.0236334 0.0977635 0.026807)
(0.0164052 0.0859498 0.0335076)
(0.00606033 0.0760639 0.0411832)
(-0.00614328 0.0609689 0.0447532)
(-0.0191838 0.050926 0.0442901)
(-0.03088 0.0368066 0.0262389)
(-0.0267893 0.0333949 0.00296711)
(-0.0219462 0.0166089 -0.00143317)
(-0.0293956 -0.00218044 0.00665777)
(-0.0397867 -0.0191348 0.01368)
(-0.0384749 -0.0269366 0.012139)
(-0.0311686 -0.0292677 0.00641362)
(-0.0270115 -0.0190454 -0.000751919)
(-0.0125302 0.00230236 0.00645155)
(-0.0078365 -0.00112728 0.00748817)
(0.0208416 0.0191514 0.00417333)
(0.0312185 0.02843 0.00863883)
(0.0235446 0.0170607 0.00506535)
(0.0253801 0.0180685 0.00527094)
(0.0223593 0.00640859 0.00155799)
(0.0192109 0.00652145 -7.68434e-05)
(0.00511871 -0.00190352 -0.00140142)
(-0.0017854 0.0018961 -0.000300923)
(-0.00328255 -0.00035551 0.000895582)
(-0.00474411 0.000710174 0.00197841)
(-0.0056925 -6.67382e-05 0.00245455)
(-0.00659097 0.000621814 0.00323292)
(-0.00711445 0.00125428 0.00367247)
(-0.00614638 0.00212305 0.00447306)
(-0.00509853 0.00222237 0.0050199)
(-0.00455752 0.00215378 0.00546338)
(-0.00446281 0.00186949 0.00571676)
(-0.00469796 0.00168181 0.00585192)
(-0.00500875 0.00157184 0.00585955)
(-0.00525918 0.00154221 0.00579264)
(-0.00543529 0.00153392 0.00564825)
(-0.00555788 0.00152476 0.0054545)
(-0.00565658 0.00149893 0.00524112)
(-0.00574597 0.00145415 0.00502884)
(-0.0058619 0.00140713 0.00484511)
(-0.0059796 0.00138322 0.00468765)
(-0.00604062 0.00136826 0.00454241)
(-0.00606467 0.00134075 0.00443501)
(-0.00609706 0.0013038 0.00436614)
(-0.00618341 0.00127598 0.00433066)
(-0.00632481 0.00129236 0.00431476)
(-0.00647644 0.00136596 0.00428999)
(-0.00662342 0.00148213 0.00423591)
(-0.0067612 0.00162816 0.0041496)
(-0.00690739 0.00178186 0.00404)
(-0.00710214 0.00193757 0.00391357)
(-0.00736837 0.00212867 0.00377635)
(-0.00762177 0.00240237 0.00365605)
(-0.00768518 0.00273786 0.00357741)
(-0.00729957 0.00305061 0.00348565)
(-0.00650854 0.00327113 0.00327336)
(-0.00600583 0.00346563 0.00294737)
(-0.00632452 0.00383108 0.00210095)
(-0.00703553 0.00417404 0.00157701)
(-0.00722807 0.00454998 0.0024641)
(-0.00766918 0.00408289 0.00466319)
(-0.00729862 0.00359155 0.00606016)
(-0.00349735 -0.00363124 0.00610588)
(0.000249143 -0.00918329 0.00787529)
(0.0225592 -0.0344572 0.0254766)
(0.0354441 -0.0292067 0.0414289)
(0.0195289 -0.0358466 0.00228952)
(0.00458518 0.0343024 -0.0040974)
(-0.0150015 0.10145 0.0221296)
(-0.0747926 0.113522 0.0281825)
(-0.112588 0.133564 0.0500688)
(-0.122263 0.164772 0.0566321)
(-0.151579 0.0404089 0.0487318)
(-0.18589 0.345943 0.0210006)
(-0.000240342 -0.0999692 0.0386391)
(-0.046566 -0.164828 0.1698)
(-0.0634412 0.142567 -0.00709777)
(-0.073019 0.0749186 0.0162516)
(-0.0476204 0.157314 0.00325656)
(0.00790262 0.156985 -0.00956993)
(0.0317636 0.200971 -0.00451373)
(0.0333606 0.215396 0.00997894)
(0.0357923 0.218543 0.012975)
(0.0381693 0.216373 0.022834)
(0.0447634 0.217644 0.0280873)
(0.0490428 0.212572 0.028958)
(0.0511126 0.202341 0.0285587)
(0.0515185 0.193191 0.0258472)
(0.0506289 0.181029 0.0295382)
(0.0506791 0.168409 0.0327047)
(0.0542175 0.153789 0.0375103)
(0.0540433 0.132518 0.0375955)
(0.0495433 0.114553 0.0328041)
(0.0390976 0.0941223 0.0257173)
(0.0274514 0.0725203 0.0094622)
(0.0163046 0.0627262 -0.00446222)
(0.0144442 0.053855 -0.00999187)
(0.0103714 0.0486686 -0.00927329)
(-0.00720027 0.0457639 0.00576517)
(-0.016841 0.0432027 0.0140331)
(-0.0203756 0.0425375 0.0127695)
(-0.00614955 0.0480535 -0.0105466)
(0.0199667 0.0578113 -0.0151693)
(0.0318521 0.0540403 -0.0164389)
(0.0312135 0.0425223 -0.0278517)
(-0.0104689 0.0037465 -0.0237456)
(-0.0178435 -0.0164368 -0.0159367)
(-0.0138646 -0.02205 -0.0106904)
(-0.0178291 -0.0186835 -0.0110857)
(-0.0329957 -0.00376543 -0.00303175)
(-0.0381282 -0.00304093 0.00885837)
(0.0203087 0.0137808 0.0040224)
(0.0305072 0.0311233 0.010295)
(0.0227997 0.0192515 0.0057998)
(0.0253298 0.0224517 0.00595901)
(0.0233909 0.00835878 0.0027073)
(0.0206953 0.00675381 0.00212541)
(0.00637194 -0.0032573 -0.00249104)
(-0.00317088 0.00121847 -0.00151491)
(-0.0036484 -0.00140876 0.00115868)
(-0.00565204 0.000746103 0.0021161)
(-0.00627791 -7.28498e-05 0.00259741)
(-0.00708733 0.000862633 0.00344571)
(-0.00724952 0.000564143 0.00423994)
(-0.0059955 0.000946295 0.0053605)
(-0.00480519 0.000737585 0.00631214)
(-0.00419254 0.000879862 0.00712066)
(-0.00411684 0.000912192 0.00761568)
(-0.00437231 0.00110649 0.00787117)
(-0.00467431 0.00129094 0.0079332)
(-0.00489951 0.00152735 0.00788495)
(-0.00506432 0.00175549 0.00773144)
(-0.00518657 0.00193479 0.0075054)
(-0.00528166 0.00205784 0.00725001)
(-0.00535865 0.00213898 0.00699159)
(-0.00544012 0.00217754 0.0067426)
(-0.00552112 0.00218082 0.00651673)
(-0.00555903 0.00217285 0.00632731)
(-0.00555804 0.00214832 0.00618354)
(-0.00557077 0.00209119 0.00607512)
(-0.00565343 0.0020252 0.00599774)
(-0.0058103 0.00200185 0.00593501)
(-0.00597173 0.00203226 0.00586075)
(-0.0061151 0.00208969 0.00576115)
(-0.00624125 0.00216346 0.00563552)
(-0.00637121 0.00223265 0.00548666)
(-0.00655488 0.0022884 0.00530884)
(-0.00681883 0.00234753 0.00510271)
(-0.00706089 0.00244614 0.00490911)
(-0.00703855 0.00259094 0.00478481)
(-0.00642077 0.00273202 0.00478665)
(-0.00524084 0.00275847 0.00490483)
(-0.00452534 0.00271768 0.00493052)
(-0.00460044 0.00260427 0.00454429)
(-0.00502862 0.00204478 0.00438153)
(-0.00530819 0.00157596 0.00522129)
(-0.00655015 0.00115893 0.00641732)
(-0.00601844 2.58079e-05 0.00637071)
(-0.000134081 -0.00630428 0.00529708)
(0.0081519 -0.013762 0.00968004)
(0.0135973 -0.0342967 0.0351782)
(0.00846526 -0.00967241 0.0448007)
(-0.017713 0.0175106 0.0331141)
(-0.0319257 0.0872824 0.0419927)
(-0.0472753 0.132382 0.0629031)
(-0.0702074 0.145959 0.0712739)
(-0.0901858 0.13465 0.0735878)
(-0.110959 0.144266 0.0922873)
(-0.106542 0.0386678 0.0733852)
(-0.0550355 0.353343 -0.0174378)
(0.00629992 -0.112578 0.0469238)
(-0.0825552 -0.134741 0.161712)
(-0.118594 0.150921 -0.014762)
(-0.107662 0.0437427 0.0364121)
(-0.0682679 0.108032 0.0157387)
(-0.0389181 0.085751 0.00843264)
(-0.0220172 0.11041 -0.0231499)
(-0.020237 0.165439 -0.0157812)
(0.0264652 0.18518 0.0106529)
(0.0301359 0.192591 0.0312284)
(0.0313467 0.197723 0.0376549)
(0.0354819 0.193779 0.0424448)
(0.0404563 0.187044 0.0375803)
(0.0449716 0.185521 0.034367)
(0.0510701 0.179255 0.0362985)
(0.0527857 0.168785 0.0381523)
(0.0574491 0.158712 0.041147)
(0.0625736 0.141794 0.0468879)
(0.0674445 0.133727 0.0524122)
(0.0723735 0.117689 0.0564875)
(0.0757726 0.0892485 0.0524445)
(0.0744844 0.0658049 0.0476946)
(0.0682737 0.0347216 0.0383888)
(0.0560051 0.023518 0.0211302)
(0.0308476 0.0180384 0.00359045)
(0.0157425 0.0250649 0.000359494)
(-0.00496775 0.0385019 0.00558635)
(-0.00261346 0.0536632 0.0159405)
(0.0331038 0.070646 0.0304827)
(0.0659959 0.0694171 0.0210189)
(0.0779796 0.072174 0.000234627)
(0.0609714 0.0604719 -0.0261975)
(0.00865391 0.0461615 -0.0497558)
(-0.0198062 0.048363 -0.0336524)
(-0.0330411 0.0485732 -0.0226984)
(-0.0439511 0.045584 -0.020256)
(-0.0494911 0.0122906 -0.0335134)
(0.013282 0.00679291 0.0006391)
(0.0270747 0.0316985 0.00976754)
(0.0203859 0.0214324 0.00368564)
(0.0245361 0.0278471 0.00370618)
(0.0241778 0.0127356 0.00199042)
(0.0219889 0.00931346 0.00218246)
(0.008026 -0.00351008 -0.00537223)
(-0.00264684 0.00106806 -0.00604028)
(-0.00639837 -0.00140999 -0.00277014)
(-0.00814068 0.00119332 -0.00113966)
(-0.00856781 8.20101e-05 -0.000624711)
(-0.00895734 0.000773375 0.000343771)
(-0.00909603 -0.000195639 0.00131689)
(-0.00848907 -0.000171259 0.0023612)
(-0.00806498 -0.000352448 0.00320376)
(-0.0080355 4.37094e-05 0.00397886)
(-0.00830134 0.000358846 0.00460913)
(-0.00870713 0.000797833 0.00505404)
(-0.00910527 0.00114525 0.00530623)
(-0.00942332 0.00149662 0.00542183)
(-0.00954465 0.00181139 0.00540797)
(-0.00952964 0.00207167 0.00530273)
(-0.00947834 0.00227582 0.00515049)
(-0.00939894 0.00242245 0.0049852)
(-0.00931239 0.00251303 0.00481815)
(-0.00921881 0.00255241 0.00465772)
(-0.00909209 0.00256079 0.00451503)
(-0.00893684 0.00255101 0.00439896)
(-0.00879961 0.00252155 0.00430997)
(-0.00878637 0.00247558 0.00424523)
(-0.00889469 0.00244299 0.0041878)
(-0.0089982 0.00244151 0.00411764)
(-0.00908006 0.00244548 0.0040262)
(-0.0091399 0.00245906 0.00390902)
(-0.00919549 0.00247183 0.00376353)
(-0.00930037 0.00247842 0.00357852)
(-0.0094821 0.00248014 0.00335667)
(-0.00965272 0.00247499 0.00312385)
(-0.00956936 0.00245063 0.00292239)
(-0.00893808 0.00242513 0.00278342)
(-0.00790554 0.00237927 0.00266678)
(-0.00735558 0.00231487 0.00247089)
(-0.00739815 0.00210974 0.00210661)
(-0.00787513 0.00155167 0.00204933)
(-0.00868199 0.0011575 0.00293841)
(-0.00923766 6.82203e-05 0.00374169)
(-0.00549534 -0.00160348 0.00187251)
(0.00305152 -0.0080603 0.000518324)
(0.0127647 -0.00838939 0.00563003)
(-0.00857784 -0.0322288 0.0259275)
(-0.0227641 -0.00789482 0.0450639)
(-0.0505296 0.0223703 0.0217406)
(-0.0632632 0.0829011 0.0283666)
(-0.0570228 0.135369 0.0540514)
(-0.059072 0.147146 0.0826461)
(-0.053391 0.120236 0.101681)
(-0.077927 0.164841 0.139964)
(-0.104183 -0.162799 0.170496)
(0.108133 0.249292 0.0560539)
(-0.0252602 -0.0732269 0.0372315)
(-0.117453 -0.16712 0.157972)
(-0.131306 0.131286 -0.0187578)
(-0.0975695 -0.00502857 0.0277636)
(-0.0322233 0.0809556 0.00254797)
(0.00767137 0.000782016 -0.00278917)
(0.0377471 0.0331901 -0.00940474)
(0.00905142 -0.00459786 -0.000585694)
(0.00354173 -0.00131047 -0.0130429)
(-0.00967332 -0.00215849 -0.0200667)
(-0.0148138 0.00357818 -0.0165748)
(-0.00551172 0.0138903 3.98602e-05)
(0.00798359 0.0185075 0.0107726)
(0.0165202 0.0221832 0.0234021)
(0.0140492 0.0250232 0.0286979)
(0.0161734 0.0193085 0.0267289)
(0.0213139 0.0121567 0.020445)
(0.0314691 0.0100243 0.0192381)
(0.0416315 0.0245622 0.0409488)
(0.0537098 0.0265501 0.0573574)
(0.0650129 0.0230894 0.0625309)