/*--------------------------------*- C++ -*----------------------------------*\
| =========                 |                                                 |
| \\      /  F ield         | OpenFOAM: The Open Source CFD Toolbox           |
|  \\    /   O peration     | Version:  2.3.0                                 |
|   \\  /    A nd           | Web:      www.OpenFOAM.org                      |
|    \\/     M anipulation  |                                                 |
\*---------------------------------------------------------------------------*/
FoamFile
{
    version     2.0;
    format      ascii;
    class       volVectorField;
    location    "63";
    object      Ur;
}
// * * * * * * * * * * * * * * * * * * * * * * * * * * * * * * * * * * * * * //

dimensions      [0 1 -1 0 0 0 0];

internalField   nonuniform List<vector> 
6144
(
(-1.90669e-07 0.000359908 -1.0157e-07)
(-1.07714e-07 0.000389595 -1.90428e-07)
(1.91493e-07 0.000420532 -1.48613e-07)
(3.99705e-07 0.00044565 -7.59268e-08)
(5.76076e-07 0.000475316 -1.7909e-08)
(6.5728e-07 0.000517858 -1.9039e-08)
(6.6923e-07 0.000570963 -1.49313e-08)
(6.38371e-07 0.000624507 -1.32349e-08)
(5.93107e-07 0.000669239 2.40973e-08)
(5.30044e-07 0.000695862 3.09916e-08)
(4.55119e-07 0.000703917 1.4092e-08)
(3.7625e-07 0.000703693 6.75892e-09)
(2.96081e-07 0.000702347 1.2026e-08)
(2.2577e-07 0.000701171 8.08953e-09)
(1.6888e-07 0.000700157 8.05322e-09)
(1.19024e-07 0.000699264 3.98138e-09)
(8.48267e-08 0.000698493 7.43005e-10)
(5.20682e-08 0.000697826 -6.03175e-09)
(3.11005e-08 0.000697246 -1.06516e-08)
(8.65191e-09 0.000696754 -1.80428e-08)
(-2.04685e-09 0.000696346 -2.20564e-08)
(-1.68052e-08 0.000695997 -2.84701e-08)
(-1.97724e-08 0.000695694 -3.03827e-08)
(-2.87909e-08 0.000695421 -3.59086e-08)
(-2.52452e-08 0.000695179 -3.721e-08)
(-3.00485e-08 0.000694968 -4.34041e-08)
(-2.11685e-08 0.000694796 -4.52864e-08)
(-2.33762e-08 0.000694646 -5.25266e-08)
(-9.76583e-09 0.000694521 -5.70904e-08)
(-9.92064e-09 0.000694428 -6.79864e-08)
(8.12755e-09 0.000694381 -7.47201e-08)
(1.02067e-08 0.000694382 -9.20458e-08)
(3.38606e-08 0.000694443 -1.03978e-07)
(3.82191e-08 0.000694569 -1.28187e-07)
(6.73891e-08 0.000694784 -1.46306e-07)
(7.39607e-08 0.000695103 -1.79059e-07)
(1.10057e-07 0.000695552 -2.02602e-07)
(1.21266e-07 0.000696136 -2.40651e-07)
(1.67619e-07 0.00069687 -2.64842e-07)
(1.83815e-07 0.000697755 -2.9542e-07)
(2.40369e-07 0.000699273 -2.96815e-07)
(2.50564e-07 0.000706376 -3.25855e-07)
(2.72581e-07 0.000731252 -3.59184e-07)
(2.38075e-07 0.000788828 -4.11757e-07)
(2.60432e-07 0.000895852 -3.98507e-07)
(1.6508e-07 0.0010669 -4.29033e-07)
(-1.40104e-07 0.00130864 -4.63963e-07)
(-5.2955e-07 0.00160114 -2.61556e-07)
(-1.48053e-06 0.00191737 1.26582e-07)
(-5.70016e-07 0.00231945 9.07895e-07)
(-3.82891e-06 0.00286489 2.28853e-06)
(-1.97197e-06 0.00345624 -4.71047e-06)
(-2.70876e-05 0.00395968 -2.31729e-05)
(-4.2429e-05 0.00427678 -3.83364e-05)
(-3.54147e-05 0.00444698 -3.03209e-05)
(-2.80236e-05 0.00455867 -7.28123e-06)
(-6.50168e-05 0.00492707 -0.000107026)
(-8.5443e-06 0.00626461 7.78197e-05)
(-0.000245846 0.0184952 -0.000439187)
(0.00780574 0.140117 0.0082257)
(-0.00885658 0.610679 -0.0160261)
(-0.0164883 0.487471 -0.0322076)
(-0.00020576 0.0236126 -0.000647272)
(-8.90527e-06 0.006209 4.98588e-05)
(-3.28448e-05 0.0057177 -3.87422e-05)
(-1.12327e-05 0.00578884 -3.60701e-05)
(-1.41191e-06 0.00590531 -1.43622e-05)
(-1.0909e-05 0.00599636 -7.48679e-06)
(-1.86405e-05 0.00605408 -7.01475e-06)
(-1.93274e-05 0.00608508 -6.06775e-06)
(-3.07783e-05 0.0061044 -1.23315e-06)
(-4.4326e-05 0.00613581 -7.00889e-06)
(-4.76577e-05 0.00615744 -1.24944e-05)
(-5.64806e-05 0.00619706 -1.02264e-05)
(-5.6976e-05 0.00637226 -1.81245e-05)
(-3.73808e-05 0.00665739 -3.54764e-05)
(-2.80782e-05 0.00688759 -4.31857e-05)
(-2.58222e-05 0.00694033 -2.84745e-05)
(-2.64426e-05 0.00689529 -1.66759e-06)
(-3.29637e-05 0.00686687 2.44916e-05)
(-4.36029e-05 0.00687988 3.21347e-05)
(-5.6625e-05 0.00690299 1.65198e-05)
(-3.43566e-05 0.00690525 1.50685e-06)
(1.58698e-06 0.0068114 -7.92604e-06)
(-5.35805e-07 0.00662153 -5.40835e-06)
(-1.0043e-05 0.0066141 -4.73327e-06)
(-6.38171e-06 0.00685533 -8.50896e-06)
(-6.85436e-06 0.00697557 -6.58085e-06)
(-6.9582e-06 0.00690044 -1.02971e-05)
(-7.50759e-06 0.00669555 -1.15937e-05)
(-5.74509e-06 0.00607942 -7.01627e-06)
(-3.39417e-06 0.00509654 -2.6341e-06)
(-1.44758e-06 0.00440447 -1.60496e-06)
(-1.34707e-06 0.00423447 -3.36754e-06)
(-4.42218e-07 0.00423958 -5.0357e-06)
(3.34292e-06 0.00423629 -5.67639e-06)
(-1.22819e-08 0.000338546 -5.53331e-08)
(4.09085e-07 0.000379446 -1.9496e-07)
(9.2086e-07 0.000425167 -1.22834e-07)
(1.33416e-06 0.000460049 -5.45324e-08)
(1.71398e-06 0.000495105 1.40307e-08)
(1.92151e-06 0.000535081 3.05997e-08)
(1.94795e-06 0.000581384 3.38574e-08)
(1.84661e-06 0.00063054 3.21634e-08)
(1.66996e-06 0.000672007 4.15923e-08)
(1.44863e-06 0.000696232 3.86828e-08)
(1.21047e-06 0.000703508 3.67435e-08)
(9.8228e-07 0.000703376 3.27801e-08)
(7.63572e-07 0.000702209 3.85988e-08)
(5.67127e-07 0.000701192 5.4003e-08)
(4.11703e-07 0.000700314 5.45702e-08)
(2.86268e-07 0.000699523 5.49524e-08)
(1.93297e-07 0.000698803 4.50908e-08)
(1.17535e-07 0.000698149 3.97283e-08)
(6.23667e-08 0.000697565 2.688e-08)
(1.69991e-08 0.000697071 2.10919e-08)
(-1.26532e-08 0.000696665 7.74106e-09)
(-3.85143e-08 0.000696318 4.91285e-09)
(-5.24047e-08 0.000696015 -4.11968e-09)
(-6.33573e-08 0.00069575 -2.18999e-09)
(-6.0583e-08 0.000695517 -1.04048e-08)
(-5.66723e-08 0.000695327 -7.33254e-09)
(-3.93179e-08 0.000695178 -1.68631e-08)
(-2.53759e-08 0.000695048 -1.08952e-08)
(3.79638e-09 0.00069494 -2.07284e-08)
(3.06384e-08 0.000694869 -1.6135e-08)
(7.50639e-08 0.000694841 -3.17399e-08)
(1.16767e-07 0.000694858 -3.07919e-08)
(1.8027e-07 0.000694926 -5.35033e-08)
(2.41681e-07 0.000695055 -5.68171e-08)
(3.28212e-07 0.000695265 -8.75792e-08)
(4.12985e-07 0.000695578 -9.60034e-08)
(5.28797e-07 0.000696015 -1.36236e-07)
(6.46214e-07 0.000696597 -1.51299e-07)
(8.0322e-07 0.000697343 -2.02739e-07)
(9.6239e-07 0.000698316 -2.12006e-07)
(1.17209e-06 0.000701367 -2.42288e-07)
(1.37535e-06 0.000712628 -2.37531e-07)
(1.62179e-06 0.000742519 -2.68121e-07)
(1.89104e-06 0.000807882 -2.34659e-07)
(2.2217e-06 0.000930785 -2.36643e-07)
(2.41357e-06 0.00112251 -1.90917e-07)
(2.24573e-06 0.00136989 -1.55183e-07)
(2.24642e-06 0.00167505 1.86544e-07)
(1.51572e-06 0.00205429 1.00204e-06)
(1.68444e-06 0.00243633 2.75007e-06)
(-5.2965e-08 0.00286459 7.82836e-06)
(-1.46718e-05 0.00349238 5.98876e-06)
(-5.41891e-05 0.00412236 -8.13024e-06)
(-5.65412e-05 0.00444445 -1.89824e-05)
(-5.20797e-05 0.00456637 -1.43983e-05)
(-3.44497e-05 0.00456735 1.91761e-05)
(-0.000136298 0.00512773 -0.000197059)
(-3.88152e-05 0.00599563 0.000138819)
(-0.000338638 0.0158557 -0.000246713)
(0.010831 0.141054 0.0146482)
(-0.027424 0.615994 -0.0195534)
(-0.0409691 0.439967 -0.0414573)
(-0.000339935 0.0223412 -0.000315139)
(-1.20236e-05 0.00595994 -4.0842e-05)
(8.6212e-06 0.00705766 -0.000119145)
(1.74883e-05 0.00779098 6.49556e-06)
(8.31768e-06 0.00775237 2.27233e-05)
(-7.02745e-07 0.00743615 1.33914e-05)
(-1.36585e-05 0.00717803 8.15849e-06)
(-2.28297e-05 0.00706714 1.02656e-05)
(-2.77565e-05 0.0070886 5.0225e-06)
(-3.23273e-05 0.00717665 -5.7283e-06)
(-4.41173e-05 0.00728122 -1.7489e-05)
(-6.54167e-05 0.00739356 -2.90475e-05)
(-0.000106702 0.00743181 -3.72541e-05)
(-0.000136862 0.00732655 -4.61068e-05)
(-0.000120227 0.00717693 -4.66026e-05)
(-8.07313e-05 0.00700839 -2.96072e-05)
(-3.66843e-05 0.0068714 -5.20547e-06)
(-7.55778e-07 0.00684294 1.0488e-05)
(9.14988e-06 0.0069012 -7.56946e-07)
(-1.72977e-05 0.00694222 -1.31026e-05)
(-4.22991e-05 0.00692526 -2.78119e-05)
(-3.60322e-05 0.00681615 -3.34122e-05)
(-3.12828e-05 0.00677651 -1.65179e-05)
(-2.78222e-05 0.00690549 7.24997e-07)
(-2.60472e-05 0.00693591 3.36144e-06)
(-2.36146e-05 0.00675842 -1.14962e-05)
(-1.9674e-05 0.00660421 -1.69963e-05)
(-1.44615e-05 0.00650687 -1.69046e-05)
(-7.98673e-06 0.00626383 -1.15808e-05)
(-1.70496e-06 0.00566812 -6.11456e-06)
(2.58865e-06 0.00489202 -4.86451e-07)
(2.49494e-06 0.00438655 -2.05118e-06)
(5.37154e-06 0.0042479 -5.59111e-06)
(5.82918e-06 0.00423899 -3.52984e-06)
(3.40985e-07 0.000323592 3.54389e-08)
(1.29287e-06 0.00036157 -1.89359e-08)
(1.84271e-06 0.000411038 -1.04239e-07)
(2.37686e-06 0.000455544 4.32412e-09)
(2.80225e-06 0.000499292 8.46879e-08)
(3.03049e-06 0.000543012 1.19569e-07)
(2.98958e-06 0.000589613 1.26192e-07)
(2.81073e-06 0.000634366 1.10971e-07)
(2.49585e-06 0.000667982 1.17802e-07)
(2.11111e-06 0.000688612 1.07618e-07)
(1.72672e-06 0.000697823 9.23402e-08)
(1.33083e-06 0.000700364 8.80849e-08)
(9.71666e-07 0.000700679 9.0539e-08)
(6.59178e-07 0.000700355 9.54813e-08)
(4.14414e-07 0.000699782 9.71671e-08)
(2.15581e-07 0.000699169 9.45376e-08)
(6.80658e-08 0.000698568 9.1012e-08)
(-5.07263e-08 0.000697978 8.56076e-08)
(-1.35392e-07 0.000697449 8.13535e-08)
(-2.03001e-07 0.000696998 7.63026e-08)
(-2.4531e-07 0.000696611 7.31363e-08)
(-2.78737e-07 0.000696282 6.9474e-08)
(-2.93001e-07 0.000696 6.73632e-08)
(-3.02533e-07 0.000695751 6.41934e-08)
(-2.94892e-07 0.000695533 6.29102e-08)
(-2.85461e-07 0.00069534 6.04127e-08)
(-2.56934e-07 0.000695166 5.8842e-08)
(-2.27339e-07 0.000695024 5.46593e-08)
(-1.74998e-07 0.000694928 5.11258e-08)
(-1.20576e-07 0.000694872 4.45274e-08)
(-3.82091e-08 0.000694849 3.8268e-08)
(4.95607e-08 0.000694859 2.94579e-08)
(1.70551e-07 0.000694919 2.00127e-08)
(2.96057e-07 0.000695046 5.6636e-09)
(4.62306e-07 0.000695264 -8.99286e-09)
(6.35693e-07 0.000695593 -2.87559e-08)
(8.57477e-07 0.000696061 -4.89138e-08)
(1.09291e-06 0.000696701 -7.58817e-08)
(1.38731e-06 0.000697564 -1.01214e-07)
(1.70403e-06 0.000699088 -1.29943e-07)
(2.08731e-06 0.000703902 -1.544e-07)
(2.48928e-06 0.000717966 -1.91791e-07)
(3.01283e-06 0.000751921 -2.19918e-07)
(3.67694e-06 0.000823447 -1.6371e-07)
(4.51947e-06 0.000946562 -3.40952e-08)
(5.50648e-06 0.00112317 2.24752e-07)
(6.34484e-06 0.0013647 4.16042e-07)
(6.85021e-06 0.00168103 6.57429e-07)
(6.09152e-06 0.00203748 1.33063e-06)
(2.03949e-06 0.00240919 2.63035e-06)
(8.00484e-06 0.00295313 3.01454e-06)
(-3.00594e-05 0.00377577 1.37847e-05)
(-2.99823e-05 0.00437783 6.99293e-06)
(-5.57096e-05 0.0045541 1.15938e-05)
(-3.21252e-05 0.0046221 1.76622e-05)
(-1.30871e-06 0.00458915 1.08424e-05)
(-0.000230037 0.0053196 -0.000144835)
(-0.000162587 0.00660833 9.82518e-06)
(-0.00112179 0.016119 -0.000124299)
(0.0184796 0.139647 0.0198443)
(-0.0235596 0.613389 -0.00550359)
(-0.0388005 0.434659 -0.0277359)
(-0.000701853 0.0227681 -0.00135019)
(-0.000213656 0.00649921 -9.95852e-05)
(-0.000489276 0.00802076 -9.03034e-05)
(-0.000508257 0.00896334 -6.52245e-05)
(-0.000434996 0.00913842 -3.43152e-05)
(-0.000383177 0.00872228 -1.81464e-05)
(-0.000409072 0.00829849 -1.6859e-05)
(-5.92375e-05 0.00788556 -2.71123e-06)
(-6.72611e-05 0.00775755 -7.57791e-06)
(-5.47958e-05 0.00763392 -1.43692e-05)
(-4.855e-05 0.00750424 -3.52143e-05)
(-6.83317e-05 0.00742493 -4.30032e-05)
(-0.000117333 0.00740553 -4.55083e-05)
(-0.000133422 0.007393 -4.56883e-05)
(-0.00010394 0.00735145 -3.7497e-05)
(-5.00285e-05 0.00721743 -2.36099e-05)
(9.46633e-06 0.00704631 -4.37861e-06)
(5.58403e-05 0.00696794 7.60063e-06)
(8.51842e-05 0.00695233 5.46189e-06)
(8.86832e-05 0.00694844 2.63802e-07)
(5.0525e-05 0.00699632 -2.11985e-05)
(-1.14929e-05 0.0070606 -4.84602e-05)
(-3.91269e-05 0.00706447 -3.4835e-05)
(-5.30134e-05 0.00697576 -1.57711e-05)
(-4.4369e-05 0.00678273 -1.75505e-05)
(-1.5875e-05 0.00659245 -1.99251e-05)
(2.58546e-06 0.00644177 -1.80449e-05)
(1.64217e-05 0.00630775 -1.86533e-05)
(1.99043e-05 0.00625578 -1.43975e-05)
(1.01291e-05 0.00624332 -6.55764e-06)
(4.71543e-06 0.0059121 -5.62806e-06)
(7.21894e-06 0.00514282 -3.74368e-06)
(9.90838e-06 0.00445751 -6.72144e-06)
(6.87322e-06 0.0042346 -3.27922e-06)
(6.27302e-07 0.000314173 9.31255e-08)
(2.15844e-06 0.000345101 1.70551e-07)
(2.79857e-06 0.000391371 -8.03858e-09)
(3.43149e-06 0.00043691 1.11068e-07)
(3.87109e-06 0.000484523 1.93838e-07)
(4.11083e-06 0.000535773 1.99163e-07)
(3.94116e-06 0.000587622 1.82497e-07)
(3.62734e-06 0.000630555 1.67427e-07)
(3.16065e-06 0.000661849 1.46607e-07)
(2.64319e-06 0.000683114 1.28033e-07)
(2.10281e-06 0.000693995 1.12021e-07)
(1.58203e-06 0.000698265 1.1003e-07)
(1.10887e-06 0.000699599 1.03407e-07)
(7.05024e-07 0.000699677 1.10528e-07)
(3.7246e-07 0.000699259 1.04444e-07)
(1.05875e-07 0.00069874 1.06638e-07)
(-1.07513e-07 0.000698197 9.79884e-08)
(-2.72133e-07 0.000697637 1.00132e-07)
(-4.02731e-07 0.000697125 9.12778e-08)
(-4.96707e-07 0.00069669 9.39157e-08)
(-5.68633e-07 0.000696321 8.48496e-08)
(-6.12348e-07 0.000696009 8.89958e-08)
(-6.42491e-07 0.00069574 7.99398e-08)
(-6.5035e-07 0.000695503 8.466e-08)
(-6.50067e-07 0.00069529 7.4381e-08)
(-6.2927e-07 0.000695106 7.99426e-08)
(-6.01133e-07 0.000694954 6.69623e-08)
(-5.50091e-07 0.00069484 7.24815e-08)
(-4.91392e-07 0.000694766 5.60056e-08)
(-4.05543e-07 0.000694737 6.09039e-08)
(-3.09391e-07 0.000694751 4.00366e-08)
(-1.79049e-07 0.00069481 4.288e-08)
(-3.59298e-08 0.000694913 1.55953e-08)
(1.47134e-07 0.000695087 1.87432e-08)
(3.47602e-07 0.000695354 -1.36375e-08)
(5.97642e-07 0.000695739 -1.23697e-08)
(8.72409e-07 0.000696269 -5.25664e-08)
(1.21015e-06 0.000696988 -5.55183e-08)
(1.58282e-06 0.00069796 -1.02647e-07)
(2.04314e-06 0.000699932 -1.09877e-07)
(2.55148e-06 0.000705661 -1.77707e-07)
(3.16146e-06 0.000721316 -2.04338e-07)
(3.86564e-06 0.00075841 -2.36411e-07)
(4.70247e-06 0.00083093 -1.54753e-07)
(5.65211e-06 0.000945353 5.98569e-09)
(6.88592e-06 0.00110631 5.54626e-07)
(7.86333e-06 0.00133313 1.09804e-06)
(7.66983e-06 0.0016278 1.61844e-06)
(4.8362e-06 0.00190923 1.29113e-06)
(2.73229e-06 0.00230322 1.57949e-06)
(-2.57675e-06 0.00317119 4.89453e-06)
(2.83611e-06 0.0040948 1.80634e-05)
(-1.32892e-05 0.00449517 2.04514e-05)
(-6.36058e-05 0.00458285 3.17386e-05)
(-3.14175e-05 0.00468428 5.74844e-06)
(6.8547e-05 0.00453813 3.42705e-05)
(-0.000191892 0.00590749 3.03143e-05)
(-1.5478e-05 0.00772975 9.42762e-05)
(-0.00158092 0.015099 0.000360147)
(0.0254162 0.184398 0.0133273)
(-0.0418593 0.690792 -0.0308486)
(-0.0282511 0.535047 -0.0200204)
(0.00178726 0.573756 -0.00512696)
(0.0136869 0.540278 0.00542568)
(0.0066322 0.540043 0.00518571)
(0.00453343 0.532756 0.00334427)
(0.00495645 0.517898 -0.000198935)
(0.00151024 0.488991 -0.00242631)
(-0.00146168 0.372817 -0.00226314)
(-0.000311887 0.0292453 -0.000190704)
(-0.00030777 0.00948089 -0.000314927)
(-0.00022691 0.00966179 -0.000440045)
(-0.000200839 0.00905493 -0.000440838)
(-0.000129725 0.00863148 -3.31357e-05)
(-8.7374e-05 0.00846258 -0.000479544)
(-1.79653e-06 0.00832391 -3.36835e-05)
(9.27822e-05 0.00775683 -3.61174e-05)
(2.97181e-05 0.00730477 -3.15791e-05)
(5.52241e-05 0.00705797 -3.60878e-06)
(6.19859e-05 0.00692017 7.00315e-06)
(8.22819e-05 0.00691838 -1.26232e-05)
(8.99943e-05 0.00697352 -1.13625e-05)
(8.43921e-05 0.00701014 -3.83608e-05)
(4.3027e-05 0.00699631 -4.81966e-05)
(1.15952e-05 0.00690245 -3.71151e-05)
(4.12585e-06 0.00677443 -2.09699e-05)
(1.30003e-05 0.00668005 -1.39702e-05)
(2.61684e-05 0.00661493 -2.00927e-05)
(2.88748e-05 0.00654133 -2.24701e-05)
(2.162e-05 0.00637241 -1.80975e-05)
(1.46287e-05 0.00609593 -7.51869e-06)
(9.54864e-06 0.00597132 4.96553e-06)
(6.90619e-06 0.00600249 5.48418e-06)
(4.36827e-06 0.00563231 -6.20278e-06)
(8.31698e-06 0.00483531 -1.09843e-05)
(8.07795e-06 0.00431915 -3.99893e-06)
(9.04416e-07 0.000306866 1.76004e-07)
(3.0041e-06 0.000331296 3.4366e-07)
(3.78267e-06 0.000371656 5.403e-08)
(4.54244e-06 0.000415685 1.11111e-07)
(4.88076e-06 0.000463186 2.20821e-07)
(5.10639e-06 0.000515357 2.40685e-07)
(4.83155e-06 0.000573489 2.07032e-07)
(4.34183e-06 0.000623564 1.7336e-07)
(3.72413e-06 0.000656531 1.44575e-07)
(3.06433e-06 0.000678072 1.12991e-07)
(2.40254e-06 0.000690586 1.04768e-07)
(1.78613e-06 0.00069652 9.47328e-08)
(1.2408e-06 0.000698807 9.42895e-08)
(7.59625e-07 0.000699273 8.98184e-08)
(3.65865e-07 0.000699029 9.46248e-08)
(3.39584e-08 0.00069861 8.69941e-08)
(-2.30883e-07 0.000698136 9.06692e-08)
(-4.48651e-07 0.000697633 8.28994e-08)
(-6.16161e-07 0.000697173 8.68433e-08)
(-7.50088e-07 0.000696784 7.69761e-08)
(-8.45413e-07 0.000696456 7.98195e-08)
(-9.17146e-07 0.000696176 6.81191e-08)
(-9.57768e-07 0.000695935 7.13325e-08)
(-9.81909e-07 0.000695719 5.83351e-08)
(-9.77843e-07 0.000695528 6.19744e-08)
(-9.59375e-07 0.00069536 4.69871e-08)
(-9.14294e-07 0.000695224 5.08788e-08)
(-8.56508e-07 0.00069512 3.26263e-08)
(-7.70973e-07 0.000695054 3.54842e-08)
(-6.71489e-07 0.000695025 1.25855e-08)
(-5.394e-07 0.000695041 1.44335e-08)
(-3.91383e-07 0.000695101 -1.38333e-08)
(-2.05383e-07 0.00069522 -1.37789e-08)
(2.54479e-09 0.000695416 -4.87433e-08)
(2.57103e-07 0.000695718 -5.11024e-08)
(5.44359e-07 0.000696142 -9.27854e-08)
(8.96999e-07 0.000696708 -9.77348e-08)
(1.30055e-06 0.000697445 -1.45075e-07)
(1.78856e-06 0.000698629 -1.51707e-07)
(2.3594e-06 0.00070129 -2.16901e-07)
(3.04211e-06 0.000707891 -2.56682e-07)
(3.79661e-06 0.000724262 -3.612e-07)
(4.66438e-06 0.000761583 -3.87603e-07)
(5.47661e-06 0.000831735 -3.98465e-07)
(6.24333e-06 0.000940119 -2.28389e-07)
(7.04441e-06 0.0010906 1.89608e-07)
(7.79856e-06 0.00130514 1.05978e-06)
(7.76872e-06 0.00160285 2.48006e-06)
(4.14855e-06 0.00193337 2.99944e-06)
(6.38822e-06 0.00248669 2.40502e-06)
(-4.72688e-08 0.00353536 1.32731e-05)
(5.93634e-05 0.00429019 3.10634e-05)
(3.41952e-05 0.00449662 4.95905e-05)
(-4.63381e-05 0.00455651 8.52165e-06)
(-0.000148376 0.00473292 -9.72165e-05)
(-3.02902e-05 0.0046213 -0.000129604)
(-0.000201328 0.00620499 0.000171575)
(0.00112239 0.00824822 0.000595171)
(-0.000457728 0.0138675 0.000545518)
(0.0347411 0.232014 0.00919307)
(-0.0141967 0.694581 -0.0233328)
(0.00789798 0.529234 0.00293198)
(0.0105268 0.561158 -0.00272868)
(0.0126422 0.548173 0.00194627)
(-0.000426303 0.542726 0.000372898)
(-0.00101173 0.541013 -0.000962393)
(-0.00141981 0.545988 -0.00451438)
(0.0015525 0.542006 -0.00331896)
(8.14001e-05 0.548616 -0.00146383)
(-0.00152965 0.54745 -0.00299366)
(-0.0015517 0.54122 -0.00411647)
(-0.000962579 0.540725 -0.0028905)
(-4.0583e-05 0.54034 -0.000383177)
(-0.00150976 0.535253 0.00261731)
(-0.00129606 0.52146 0.0036586)
(-0.000991971 0.481355 -0.00117733)
(-0.00108138 0.328027 -0.00148322)
(6.2957e-05 0.0301801 -0.000346239)
(0.000104191 0.00925785 -9.63934e-06)
(0.000179642 0.00838253 6.18841e-06)
(0.000249517 0.00753529 1.74304e-05)
(0.000345579 0.00729376 1.2216e-05)
(0.000370862 0.0070517 2.53671e-06)
(0.000317532 0.00679358 -5.37376e-06)
(0.000200807 0.00680251 7.21859e-07)
(4.34595e-05 0.00673877 1.08113e-06)
(-6.74012e-05 0.00656706 -1.7614e-05)
(-0.000118469 0.00632355 -3.66593e-05)
(-0.00011934 0.00615977 -4.07851e-05)
(-7.36854e-06 0.00612678 -2.86058e-05)
(-1.10485e-05 0.00602498 -2.49898e-05)
(-3.13635e-06 0.00588336 -1.5885e-05)
(7.89192e-06 0.00583354 -8.54332e-06)
(5.98273e-06 0.00560056 -1.22305e-05)
(3.37443e-06 0.00496777 -1.65362e-05)
(2.65929e-06 0.00439096 -7.41107e-06)
(1.27184e-06 0.000301398 2.81354e-07)
(3.99191e-06 0.000321024 5.51657e-07)
(4.87884e-06 0.000353202 1.52934e-07)
(5.77941e-06 0.000393681 1.29614e-07)
(5.88936e-06 0.000442799 1.64603e-07)
(5.94078e-06 0.000493168 1.96958e-07)
(5.66323e-06 0.000551525 2.25808e-07)
(5.03212e-06 0.000611336 1.55695e-07)
(4.1986e-06 0.000650245 1.2373e-07)
(3.42697e-06 0.000672716 9.46526e-08)
(2.64689e-06 0.000686979 7.1245e-08)
(1.95942e-06 0.000694509 7.1845e-08)
(1.34918e-06 0.000697699 5.80261e-08)
(8.19221e-07 0.000698482 7.16304e-08)
(3.6276e-07 0.000698322 7.10485e-08)
(-1.83084e-08 0.000697948 8.21231e-08)
(-3.32846e-07 0.00069753 7.48472e-08)
(-5.84397e-07 0.000697082 8.16907e-08)
(-7.8634e-07 0.000696669 7.14676e-08)
(-9.40875e-07 0.000696323 7.4723e-08)
(-1.05904e-06 0.000696037 6.04068e-08)
(-1.14046e-06 0.000695799 6.10966e-08)
(-1.19285e-06 0.000695596 4.39185e-08)
(-1.21439e-06 0.000695421 4.41139e-08)
(-1.21269e-06 0.000695266 2.56425e-08)
(-1.18321e-06 0.000695135 2.70463e-08)
(-1.13101e-06 0.000695034 5.99922e-09)
(-1.05129e-06 0.000694968 6.78803e-09)
(-9.49687e-07 0.000694936 -1.74734e-08)
(-8.19192e-07 0.000694945 -1.62882e-08)
(-6.65329e-07 0.000694997 -4.40152e-08)
(-4.78045e-07 0.0006951 -4.40359e-08)
(-2.61365e-07 0.000695261 -7.84143e-08)
(-1.54398e-09 0.000695508 -8.21251e-08)
(2.9937e-07 0.000695863 -1.25136e-07)
(6.58874e-07 0.00069636 -1.33646e-07)
(1.0777e-06 0.00069703 -1.86172e-07)
(1.57512e-06 0.000697884 -2.00441e-07)
(2.15533e-06 0.000699181 -2.65735e-07)
(2.8291e-06 0.000702079 -3.0258e-07)
(3.58035e-06 0.000708714 -4.14118e-07)
(4.406e-06 0.000723878 -4.99982e-07)
(5.26771e-06 0.000757618 -6.09018e-07)
(6.16883e-06 0.00082276 -5.60598e-07)
(6.91173e-06 0.000929289 -4.67058e-07)
(7.48082e-06 0.00108159 -1.08986e-07)
(8.07929e-06 0.00128978 5.62915e-07)
(9.47655e-06 0.00156595 2.05404e-06)
(7.71906e-06 0.00196053 2.96332e-06)
(1.3234e-05 0.00268066 5.45437e-06)
(3.16289e-05 0.00373067 2.04299e-05)
(7.27025e-05 0.00435865 4.39369e-05)
(8.77283e-05 0.00445676 2.67399e-05)
(3.49039e-05 0.00442432 -3.60591e-05)
(1.84565e-05 0.00461977 -0.000105058)
(-7.75727e-05 0.00454751 -0.00011626)
(0.000171042 0.00752097 0.00030417)
(0.00106922 0.0114332 0.000394924)
(4.55211e-05 0.0126758 -0.000126142)
(0.021447 0.222787 0.0105151)
(-0.0073979 0.695211 -0.0237248)
(0.00105113 0.534008 0.000165752)
(0.00688471 0.563206 -0.00377292)
(0.0106669 0.549353 -0.000338817)
(0.000120163 0.545241 0.00363368)
(-0.00178998 0.54541 0.00685275)
(0.000878855 0.545637 -0.00105214)
(0.000227631 0.54285 -0.00354584)
(0.000830623 0.54127 -0.00282231)
(-0.000297275 0.540499 -0.00373949)
(2.12153e-05 0.54013 -0.004099)
(-0.00112623 0.540385 -0.00408565)
(-0.00140305 0.539217 -0.0032229)
(-0.00277706 0.53974 -0.00235322)
(-0.00425855 0.537991 -0.000242191)
(-0.00565545 0.537318 -0.00264972)
(-0.00727224 0.539054 -0.00351588)
(-0.00737653 0.540681 -0.00296637)
(-0.00555247 0.543493 -0.00125493)
(-0.00510596 0.541976 0.00247515)
(-0.00545493 0.54156 0.00429841)
(-0.00776675 0.53818 0.00332976)
(-0.00947246 0.536065 0.0018838)
(-0.0112203 0.531335 -0.00314133)
(-0.0112186 0.524186 -0.00882004)
(-0.00855202 0.518981 -0.0166613)
(0.000133852 0.514443 -0.0172906)
(0.00134439 0.481202 -0.00533136)
(-0.00477016 0.325354 0.00608579)
(-0.000132665 0.0278275 1.45956e-05)
(-0.000114284 0.00447497 -4.35479e-05)
(-2.68066e-05 0.00424311 -3.01302e-05)
(-1.77806e-05 0.00425574 -1.78156e-05)
(-1.69861e-05 0.00426084 -2.04553e-05)
(-6.07653e-05 0.00425497 -2.58758e-05)
(-2.88937e-05 0.00422907 -1.22086e-05)
(1.80919e-06 0.000297174 4.29244e-07)
(5.32054e-06 0.000313904 9.48523e-07)
(6.11512e-06 0.000338598 4.2194e-07)
(6.9486e-06 0.000374493 3.27417e-07)
(6.8632e-06 0.000425278 1.7357e-07)
(6.62038e-06 0.000477246 1.13979e-07)
(6.2407e-06 0.000534341 2.55167e-07)
(5.58854e-06 0.000596739 1.52621e-07)
(4.54972e-06 0.00064098 1.25465e-07)
(3.69457e-06 0.000666941 8.82251e-08)
(2.83036e-06 0.000683307 7.5796e-08)
(2.1338e-06 0.000692537 6.16986e-08)
(1.50826e-06 0.000696779 6.49694e-08)
(9.16229e-07 0.000697996 5.81041e-08)
(3.84588e-07 0.000698002 7.98311e-08)
(-4.51466e-08 0.000697756 8.45141e-08)
(-3.90328e-07 0.000697438 9.60302e-08)
(-6.56973e-07 0.000697061 8.82826e-08)
(-8.64016e-07 0.000696705 8.74966e-08)
(-1.02178e-06 0.000696405 7.07692e-08)
(-1.13792e-06 0.000696148 6.60358e-08)
(-1.21521e-06 0.000695916 4.7477e-08)
(-1.25997e-06 0.000695718 4.30829e-08)
(-1.27216e-06 0.000695553 2.45664e-08)
(-1.25612e-06 0.000695413 2.13491e-08)
(-1.2103e-06 0.000695293 2.33663e-09)
(-1.14469e-06 0.000695206 2.68952e-10)
(-1.05102e-06 0.000695157 -2.01949e-08)
(-9.34289e-07 0.000695152 -2.1934e-08)
(-7.84488e-07 0.000695189 -4.45248e-08)
(-6.0732e-07 0.000695276 -4.73151e-08)
(-3.89001e-07 0.000695414 -7.50884e-08)
(-1.35536e-07 0.000695622 -8.16642e-08)
(1.71006e-07 0.000695918 -1.17232e-07)
(5.24666e-07 0.000696337 -1.29739e-07)
(9.50361e-07 0.000696906 -1.75188e-07)
(1.44343e-06 0.000697667 -1.95771e-07)
(2.02946e-06 0.000698628 -2.52094e-07)
(2.68991e-06 0.000700079 -2.86548e-07)
(3.43685e-06 0.000703047 -3.74686e-07)
(4.21984e-06 0.000709216 -4.64211e-07)
(5.09421e-06 0.000722719 -5.95848e-07)
(5.97296e-06 0.00075303 -6.96962e-07)
(6.9438e-06 0.000812119 -6.96208e-07)
(7.78201e-06 0.000911166 -5.50445e-07)
(8.41102e-06 0.00106031 -2.15672e-07)
(8.99231e-06 0.00127556 3.39997e-07)
(9.95903e-06 0.00151602 3.43284e-07)
(1.20223e-05 0.00189438 6.7805e-08)
(1.19712e-05 0.00276597 7.35544e-06)
(5.18088e-05 0.00382685 2.64283e-05)
(9.58667e-05 0.00441803 3.2971e-05)
(0.00014786 0.00449634 2.36638e-05)
(0.000130521 0.00445185 -4.69993e-05)
(0.000205838 0.0045482 -0.000132884)
(9.36769e-05 0.00463324 -5.50446e-05)
(0.000306718 0.00714416 -0.00019427)
(-0.000302461 0.00927727 1.77528e-05)
(-0.000250756 0.0117209 0.000335988)
(0.00807411 0.203109 0.0156234)
(-0.0193415 0.713584 -0.0404012)
(-0.000913502 0.536426 -0.000129451)
(0.0132007 0.556571 -0.00495343)
(0.0254807 0.552645 -0.00463454)
(0.01029 0.55971 0.00677983)
(-0.00296763 0.552466 0.00902738)
(-0.00132968 0.542263 0.00373407)
(0.000633033 0.542434 0.00105378)
(0.00308106 0.543937 7.23787e-05)
(0.00247109 0.541702 -0.00231413)
(0.000715443 0.539897 -0.00171595)
(0.000603986 0.539616 -0.00143714)
(-0.000292053 0.53856 0.00114636)
(-0.000614644 0.537495 0.0014475)
(-0.000605849 0.536685 -6.03853e-05)
(-0.00411678 0.533552 -0.00318619)
(-0.00928207 0.532798 -0.00820277)
(-0.0140039 0.531477 -0.0123066)
(-0.0160497 0.533022 -0.0169427)
(-0.0127117 0.538618 -0.0131599)
(-0.00843868 0.543006 -0.00559017)
(-0.00802453 0.541252 0.000770821)
(-0.0126212 0.543731 0.00668438)
(-0.00179322 0.550183 -0.0026498)
(0.00439762 0.542038 -0.00974095)
(0.0129643 0.543538 -0.0192595)
(0.0101034 0.553228 -0.0080833)
(-0.00555285 0.540571 -0.00612506)
(-0.019452 0.526551 -0.00830726)
(-0.0316592 0.521999 0.000306515)
(-0.00575159 0.52289 0.00439306)
(0.00183312 0.531969 0.00421126)
(-0.00312458 0.532845 0.00248819)
(-0.0111248 0.538738 0.00887833)
(-0.00189704 0.534581 0.00622018)
(-0.00224215 0.50814 0.00713133)
(3.26679e-06 0.00029144 9.79347e-07)
(6.97676e-06 0.000308318 1.74637e-06)
(7.43709e-06 0.000328419 8.94033e-07)
(7.9491e-06 0.000360175 7.06712e-07)
(7.6963e-06 0.000411522 3.59051e-07)
(7.2179e-06 0.000468792 1.91127e-07)
(6.68208e-06 0.000525726 3.48586e-07)
(6.05728e-06 0.000581507 1.72777e-07)
(4.80421e-06 0.000628186 1.35473e-07)
(3.90695e-06 0.000661222 9.59466e-08)
(2.9825e-06 0.00068069 8.02599e-08)
(2.24804e-06 0.000691127 8.33825e-08)
(1.5493e-06 0.000695838 9.84981e-08)
(8.91884e-07 0.000697272 1.27786e-07)
(3.13399e-07 0.000697407 1.44519e-07)
(-1.53211e-07 0.000697283 1.64295e-07)
(-5.15287e-07 0.000697082 1.7045e-07)
(-7.92616e-07 0.000696789 1.81349e-07)
(-9.99969e-07 0.000696496 1.80951e-07)
(-1.16038e-06 0.00069625 1.85921e-07)
(-1.27123e-06 0.000696051 1.77358e-07)
(-1.34884e-06 0.000695892 1.72811e-07)
(-1.38676e-06 0.000695765 1.56277e-07)
(-1.39945e-06 0.000695664 1.46671e-07)
(-1.37697e-06 0.000695583 1.26413e-07)
(-1.33239e-06 0.000695525 1.15323e-07)
(-1.2566e-06 0.000695494 9.40021e-08)
(-1.16066e-06 0.000695501 8.30261e-08)
(-1.02725e-06 0.000695545 5.98291e-08)
(-8.66906e-07 0.000695633 4.82698e-08)
(-6.58417e-07 0.000695765 2.28298e-08)
(-4.16155e-07 0.000695956 7.25031e-09)
(-1.17734e-07 0.000696223 -2.62116e-08)
(2.25089e-07 0.000696598 -4.98199e-08)
(6.4159e-07 0.000697108 -9.34194e-08)
(1.12122e-06 0.00069779 -1.26646e-07)
(1.6984e-06 0.00069867 -1.8123e-07)
(2.35577e-06 0.000699786 -2.27314e-07)
(3.11051e-06 0.000701356 -3.04085e-07)
(3.91331e-06 0.000704045 -3.90479e-07)
(4.77032e-06 0.000709219 -5.24381e-07)
(5.69863e-06 0.00072206 -6.48512e-07)
(6.68499e-06 0.000754157 -7.76167e-07)
(7.61116e-06 0.000816777 -8.36633e-07)
(8.48313e-06 0.000916283 -7.22769e-07)
(9.29881e-06 0.0010634 -2.59812e-07)
(1.0035e-05 0.00128684 3.57192e-07)
(1.13249e-05 0.00154335 4.91631e-07)
(1.44005e-05 0.00198489 1.52971e-07)
(1.8216e-05 0.00299886 5.78018e-06)
(4.99774e-05 0.00407671 2.48642e-05)
(0.000112691 0.00451546 1.76973e-05)
(0.000110761 0.00447809 -6.30343e-07)
(0.000119602 0.00446028 -1.98167e-05)
(0.000175902 0.00455436 -3.32259e-05)
(0.000239963 0.00457886 5.15575e-05)
(-0.000316776 0.00713325 0.000659263)
(-0.000441834 0.00986657 0.00139222)
(0.000121409 0.0149678 -0.000290752)
(-0.0096703 0.204759 0.015277)
(-0.0402229 0.696036 -0.039674)
(0.00526792 0.514421 0.010782)
(0.0154908 0.552292 -0.0128127)
(0.0129709 0.544325 -0.0105539)
(0.00648444 0.553969 -0.011021)
(0.0146301 0.568485 0.0032054)
(0.0237371 0.560484 0.0211174)
(0.00527285 0.547715 0.00953278)
(0.00257116 0.543354 0.00362728)
(0.00690644 0.543166 0.00158423)
(0.00734173 0.544132 -0.00109733)
(0.00643637 0.54483 -0.000694584)
(0.00684673 0.541351 0.00187051)
(0.0046996 0.540381 0.00362506)
(0.00545619 0.539858 0.00456762)
(0.0065484 0.538561 0.00646761)
(0.00530706 0.539115 0.0060097)
(0.00449589 0.536135 0.00300054)
(0.00209385 0.530294 -0.00209874)
(-0.00313311 0.530007 -0.00644774)
(-0.00996743 0.530859 -0.0108512)
(-0.0160109 0.536596 -0.0153567)
(-0.0209356 0.5436 -0.0127843)
(-0.0128854 0.545161 -0.00224057)
(-0.00937699 0.547785 0.00165306)
(0.00558444 0.550175 0.00366891)
(0.0209089 0.549992 0.000561537)
(0.00962254 0.54432 -0.0149472)
(-0.0104486 0.542766 -0.0250195)
(-0.0308196 0.541741 -0.0246897)
(-0.043047 0.53931 -0.0167865)
(-0.0232351 0.545474 0.00297563)
(-0.0111757 0.543595 -0.00055577)
(-0.00845353 0.53956 -0.0107273)
(-0.00492966 0.533655 -0.0215181)
(-0.00359883 0.516236 -0.0268193)
(4.98344e-06 0.000173238 2.553e-06)
(8.70441e-06 0.000307418 2.60234e-06)
(8.5955e-06 0.000317325 1.1871e-06)
(8.7642e-06 0.000347453 8.5852e-07)
(8.30409e-06 0.000399689 4.09754e-07)
(7.65004e-06 0.000464195 1.99499e-07)
(6.94057e-06 0.000521998 2.52119e-07)
(6.26506e-06 0.000566477 1.77654e-07)
(5.24018e-06 0.00061333 -4.03061e-09)
(4.29302e-06 0.000654871 -7.01705e-08)
(3.38907e-06 0.000677997 -1.09191e-07)
(2.60733e-06 0.000689423 -1.45011e-07)
(1.90105e-06 0.000694522 -1.62815e-07)