/*--------------------------------*- C++ -*----------------------------------*\
| =========                 |                                                 |
| \\      /  F ield         | OpenFOAM: The Open Source CFD Toolbox           |
|  \\    /   O peration     | Version:  2.3.0                                 |
|   \\  /    A nd           | Web:      www.OpenFOAM.org                      |
|    \\/     M anipulation  |                                                 |
\*---------------------------------------------------------------------------*/
FoamFile
{
    version     2.0;
    format      ascii;
    class       volScalarField;
    location    "56";
    object      alpha.airMean;
}
// * * * * * * * * * * * * * * * * * * * * * * * * * * * * * * * * * * * * * //

dimensions      [0 0 0 0 0 0 0];

internalField   nonuniform List<scalar> 
6144
(
0.999994
0.999993
0.999993
0.999993
0.999992
0.999992
0.999991
0.999991
0.99999
0.99999
0.99999
0.99999
0.99999
0.99999
0.99999
0.99999
0.99999
0.99999
0.99999
0.99999
0.99999
0.99999
0.99999
0.99999
0.99999
0.99999
0.99999
0.99999
0.99999
0.99999
0.99999
0.99999
0.99999
0.99999
0.99999
0.99999
0.99999
0.99999
0.99999
0.99999
0.99999
0.99999
0.99999
0.99999
0.999989
0.999986
0.999982
0.999972
0.999958
0.999941
0.999927
0.999915
0.99991
0.999905
0.999903
0.999898
0.999896
0.999891
0.998619
0.933609
0.0370994
0.000244477
1.03413e-06
6.97238e-07
6.96892e-07
6.9338e-07
6.95055e-07
6.9297e-07
6.9545e-07
6.94016e-07
6.94351e-07
6.92669e-07
6.91358e-07
6.89398e-07
6.87093e-07
6.84569e-07
6.83268e-07
6.82259e-07
6.80974e-07
6.77665e-07
6.72453e-07
6.66113e-07
6.59931e-07
6.52476e-07
6.42334e-07
6.27129e-07
6.12104e-07
5.98755e-07
5.81861e-07
5.57772e-07
5.29259e-07
5.07154e-07
4.80513e-07
4.50898e-07
4.17358e-07
3.88858e-07
0.999994
0.999994
0.999993
0.999993
0.999992
0.999992
0.999991
0.999991
0.99999
0.99999
0.99999
0.99999
0.99999
0.99999
0.99999
0.99999
0.99999
0.99999
0.99999
0.99999
0.99999
0.99999
0.99999
0.99999
0.99999
0.99999
0.99999
0.99999
0.99999
0.99999
0.99999
0.99999
0.99999
0.99999
0.99999
0.99999
0.99999
0.99999
0.99999
0.99999
0.99999
0.99999
0.99999
0.99999
0.999988
0.999986
0.999981
0.999973
0.999962
0.999948
0.999929
0.999913
0.999906
0.9999
0.999897
0.999892
0.999892
0.999883
0.99933
0.948958
0.0315807
0.000132173
7.74602e-07
7.31843e-07
7.2791e-07
7.30262e-07
7.31578e-07
7.31327e-07
7.31573e-07
7.24496e-07
7.21226e-07
7.15411e-07
7.12311e-07
7.07841e-07
7.04433e-07
7.01295e-07
7.00236e-07
6.99423e-07
6.96838e-07
6.91527e-07
6.8402e-07
6.75562e-07
6.65804e-07
6.56069e-07
6.43864e-07
6.29511e-07
6.15975e-07
6.0531e-07
5.94859e-07
5.79596e-07
5.58809e-07
5.32517e-07
5.03532e-07
4.78311e-07
4.45992e-07
4.02068e-07
0.999995
0.999994
0.999993
0.999993
0.999992
0.999992
0.999991
0.999991
0.99999
0.99999
0.99999
0.99999
0.99999
0.99999
0.99999
0.99999
0.99999
0.99999
0.99999
0.99999
0.99999
0.99999
0.99999
0.99999
0.99999
0.99999
0.99999
0.99999
0.99999
0.99999
0.99999
0.99999
0.99999
0.99999
0.99999
0.99999
0.99999
0.99999
0.99999
0.99999
0.99999
0.99999
0.99999
0.999989
0.999988
0.999986
0.999982
0.999974
0.999963
0.999947
0.999923
0.999907
0.999899
0.999893
0.99989
0.999886
0.999888
0.999879
0.999563
0.941105
0.0272629
8.48487e-05
1.33536e-06
1.33381e-06
1.31309e-06
1.28538e-06
1.15668e-06
1.01951e-06
8.92572e-07
8.04318e-07
7.67072e-07
7.5045e-07
7.42332e-07
7.35221e-07
7.33791e-07
7.31759e-07
7.29852e-07
7.23949e-07
7.15024e-07
7.06582e-07
6.98206e-07
6.85803e-07
6.71705e-07
6.55933e-07
6.42016e-07
6.30971e-07
6.22824e-07
6.19714e-07
6.14524e-07
6.0292e-07
5.86665e-07
5.59747e-07
5.24324e-07
4.94482e-07
4.64011e-07
4.12799e-07
0.999995
0.999994
0.999994
0.999993
0.999992
0.999992
0.999991
0.999991
0.99999
0.99999
0.99999
0.99999
0.99999
0.99999
0.99999
0.99999
0.99999
0.99999
0.99999
0.99999
0.99999
0.99999
0.99999
0.99999
0.99999
0.99999
0.99999
0.99999
0.99999
0.99999
0.99999
0.99999
0.99999
0.99999
0.99999
0.99999
0.99999
0.99999
0.99999
0.99999
0.99999
0.99999
0.99999
0.999989
0.999988
0.999986
0.999982
0.999975
0.999963
0.999942
0.999917
0.9999
0.999893
0.999887
0.999885
0.999882
0.999885
0.999872
0.999695
0.916316
0.0208621
6.64101e-05
2.55535e-05
2.17111e-05
2.02423e-05
1.8495e-05
1.62174e-05
1.31319e-05
9.76789e-06
6.61725e-06
4.20226e-06
2.5827e-06
1.68698e-06
1.28432e-06
1.12275e-06
1.02638e-06
9.43615e-07
8.70426e-07
8.18205e-07
7.83244e-07
7.67055e-07
7.53671e-07
7.30419e-07
7.07876e-07
6.96062e-07
6.92707e-07
6.83012e-07
6.77062e-07
6.63026e-07
6.4056e-07
6.19962e-07
5.93608e-07
5.52496e-07
5.15119e-07
4.80955e-07
4.24878e-07
0.999995
0.999995
0.999994
0.999993
0.999993
0.999992
0.999991
0.999991
0.99999
0.99999
0.99999
0.99999
0.99999
0.99999
0.99999
0.99999
0.99999
0.99999
0.99999
0.99999
0.99999
0.99999
0.99999
0.99999
0.99999
0.99999
0.99999
0.99999
0.99999
0.99999
0.99999
0.99999
0.99999
0.99999
0.99999
0.99999
0.99999
0.99999
0.99999
0.99999
0.99999
0.99999
0.99999
0.999989
0.999988
0.999986
0.999982
0.999974
0.99996
0.999937
0.99991
0.999894
0.999888
0.999883
0.999882
0.999879
0.999879
0.999865
0.999733
0.881671
0.0211907
0.000496904
0.00043676
0.0003692
0.000344844
0.000312642
0.000279824
0.000242388
0.000207374
0.000172907
0.000141025
0.000113762
9.2067e-05
7.64408e-05
6.59576e-05
5.81882e-05
5.18744e-05
4.61302e-05
4.09443e-05
3.6147e-05
3.19597e-05
2.83827e-05
2.50802e-05
2.15935e-05
1.87059e-05
1.61705e-05
1.37317e-05
1.12303e-05
8.87065e-06
6.3378e-06
3.81418e-06
2.10143e-06
1.13693e-06
6.88141e-07
5.33085e-07
4.59895e-07
0.999995
0.999995
0.999994
0.999994
0.999993
0.999992
0.999992
0.999991
0.999991
0.99999
0.99999
0.99999
0.99999
0.99999
0.99999
0.99999
0.99999
0.99999
0.99999
0.99999
0.99999
0.99999
0.99999
0.99999
0.99999
0.99999
0.99999
0.99999
0.99999
0.99999
0.99999
0.99999
0.99999
0.99999
0.99999
0.99999
0.99999
0.99999
0.99999
0.99999
0.99999
0.99999
0.99999
0.999989
0.999988
0.999985
0.999981
0.999972
0.999957
0.999933
0.999907
0.999891
0.999885
0.999881
0.99988
0.999879
0.999881
0.999863
0.999746
0.835518
0.0219338
0.00274242
0.00275494
0.00255717
0.00249634
0.00236363
0.00223658
0.00209801
0.00196615
0.0018372
0.00171108
0.00159507
0.00148569
0.00138531
0.00129583
0.00121773
0.00114781
0.0010782
0.00100821
0.00093519
0.000857564
0.00077602
0.000691412
0.000605835
0.00052948
0.000467681
0.00041432
0.000363997
0.000310129
0.000247575
0.000181529
0.000120293
7.02168e-05
3.39818e-05
1.2911e-05
5.09155e-06
0.999995
0.999995
0.999994
0.999994
0.999993
0.999993
0.999992
0.999991
0.999991
0.99999
0.99999
0.99999
0.99999
0.99999
0.99999
0.99999
0.99999
0.99999
0.99999
0.99999
0.99999
0.99999
0.99999
0.99999
0.99999
0.99999
0.99999
0.99999
0.99999
0.99999
0.99999
0.99999
0.99999
0.99999
0.99999
0.99999
0.99999
0.99999
0.99999
0.99999
0.99999
0.99999
0.99999
0.999989
0.999988
0.999985
0.999979
0.99997
0.999954
0.99993
0.999904
0.999889
0.999883
0.999881
0.999881
0.99988
0.999883
0.99987
0.999813
0.783205
0.024957
0.00748503
0.00777772
0.0076047
0.0075289
0.00739796
0.0072587
0.00714294
0.00703013
0.00692554
0.0068392
0.00675505
0.0066919
0.00662503
0.00654778
0.00645099
0.0063448
0.00620381
0.0060373
0.00583339
0.0055966
0.0053178
0.00500665
0.00466239
0.00429251
0.00389606
0.00348251
0.00304159
0.00257688
0.00212715
0.00170592
0.00134405
0.00103738
0.000750286
0.000463152
0.000246835
0.999995
0.999995
0.999995
0.999994
0.999994
0.999993
0.999992
0.999991
0.999991
0.999991
0.99999
0.99999
0.99999
0.99999
0.99999
0.99999
0.99999
0.99999
0.99999
0.99999
0.99999
0.99999
0.99999
0.99999
0.99999
0.99999
0.99999
0.99999
0.99999
0.99999
0.99999
0.99999
0.99999
0.99999
0.99999
0.99999
0.99999
0.99999
0.99999
0.99999
0.99999
0.99999
0.99999
0.999989
0.999988
0.999985
0.999978
0.999969
0.999951
0.999927
0.999902
0.999889
0.999884
0.999883
0.999884
0.999884
0.999886
0.999874
0.999812
0.761297
0.0279114
0.0119872
0.0126277
0.0126627
0.012634
0.0126357
0.0126332
0.0126964
0.0127712
0.0128641
0.012973
0.0130816
0.0131827
0.0132686
0.0133403
0.013397
0.0134423
0.0134657
0.0134744
0.013481
0.0134965
0.0135409
0.0136445
0.013824
0.0140671
0.0143551
0.0146401
0.0148961
0.0151023
0.015248
0.0152304
0.0149917
0.0144211
0.0134495
0.0117886
0.00953958
0.999995
0.999995
0.999995
0.999995
0.999994
0.999993
0.999992
0.999992
0.999991
0.999991
0.99999
0.99999
0.99999
0.99999
0.99999
0.99999
0.99999
0.99999
0.99999
0.99999
0.99999
0.99999
0.99999
0.99999
0.99999
0.99999
0.99999
0.99999
0.99999
0.99999
0.99999
0.99999
0.99999
0.99999
0.99999
0.99999
0.99999
0.99999
0.99999
0.99999
0.99999
0.99999
0.99999
0.999989
0.999988
0.999984
0.999978
0.999968
0.999952
0.999929
0.999906
0.999892
0.999887
0.999885
0.999887
0.999887
0.999891
0.999879
0.999811
0.822699
0.0255573
0.00707873
0.00695933
0.00640524
0.00610702
0.00588894
0.00577391
0.00567812
0.00560572
0.00553794
0.00547751
0.00540535
0.00532704
0.00524665
0.00516586
0.00509325
0.00503248
0.00497704
0.00492145
0.00486794
0.00482611
0.00478755
0.00475395
0.00471753
0.00469154
0.00468533
0.00468232
0.00466339
0.00460369
0.00449118
0.00430663
0.00396518
0.00344182
0.00269943
0.00171765
0.000907993
0.999996
0.999995
0.999995
0.999995
0.999994
0.999993
0.999992
0.999992
0.999991
0.999991
0.99999
0.99999
0.99999
0.99999
0.99999
0.99999
0.99999
0.99999
0.99999
0.99999
0.99999
0.99999
0.99999
0.99999
0.99999
0.99999
0.99999
0.99999
0.99999
0.99999
0.99999
0.99999
0.99999
0.99999
0.99999
0.99999
0.99999
0.99999
0.99999
0.99999
0.99999
0.99999
0.99999
0.999989
0.999988
0.999984
0.999978
0.999968
0.999955
0.999936
0.999912
0.999896
0.99989
0.999887
0.999887
0.999886
0.999892
0.999882
0.999853
0.88699
0.0211392
0.00212886
0.00189647
0.00155137
0.00139911
0.00128453
0.00122219
0.00115818
0.00110629
0.00105286
0.00100458
0.00095688
0.000911457
0.00087275
0.000843575
0.000822949
0.000811767
0.000807517
0.000817281
0.000841571
0.000878838
0.000929469
0.000982413
0.00102135
0.00104945
0.00107436
0.00108677
0.00107914
0.00105146
0.000985948
0.000871742
0.000707747
0.000506282
0.00029869
0.000136857
6.10076e-05
0.999996
0.999995
0.999995
0.999995
0.999994
0.999993
0.999992
0.999991
0.999991
0.999991
0.99999
0.99999
0.99999
0.99999
0.99999
0.99999
0.99999
0.99999
0.99999
0.99999
0.99999
0.99999
0.99999
0.99999
0.99999
0.99999
0.99999
0.99999
0.99999
0.99999
0.99999
0.99999
0.99999
0.99999
0.99999
0.99999
0.99999
0.99999
0.99999
0.99999
0.99999
0.99999
0.99999
0.999989
0.999988
0.999985
0.999979
0.999969
0.999957
0.999941
0.999921
0.999904
0.999895
0.99989
0.999889
0.999887
0.999893
0.999882
0.999865
0.93251
0.0234726
0.000298347
0.000202103
0.000138944
0.000121341
0.000107347
0.000103573
9.84019e-05
9.36943e-05
8.74602e-05
8.16203e-05
7.54742e-05
6.99451e-05
6.46947e-05
6.03389e-05
5.66101e-05
5.42223e-05
5.39092e-05
5.66588e-05
6.1898e-05
6.94894e-05
7.8448e-05
8.80141e-05
9.72507e-05
0.000106697
0.000115673
0.000120524
0.000119703
0.00011296
9.95103e-05
7.84823e-05
5.32419e-05
2.9999e-05
1.37677e-05
5.77133e-06
2.69983e-06
0.999996
0.999996
0.999996
0.999995
0.999995
0.999993
0.999992
0.999991
0.999991
0.99999
0.99999
0.99999
0.99999
0.99999
0.99999
0.99999
0.99999
0.99999
0.99999
0.99999
0.99999
0.99999
0.99999
0.99999
0.99999
0.99999
0.99999
0.99999
0.99999
0.99999
0.99999
0.99999
0.99999
0.99999
0.99999
0.99999
0.99999
0.99999
0.99999
0.99999
0.99999
0.99999
0.99999
0.999989
0.999988
0.999985
0.99998
0.999971
0.999959
0.999944
0.999929
0.999913
0.999903
0.999894
0.999893
0.999889
0.999894
0.999881
0.999828
0.958602
0.0341501
8.83071e-05
6.23276e-06
3.60732e-06
3.33371e-06
3.21797e-06
3.35193e-06
3.24236e-06
3.01803e-06
2.82428e-06
2.65946e-06
2.47687e-06
2.29416e-06
2.11373e-06
1.96984e-06
1.87611e-06
1.88208e-06
1.98731e-06
2.24069e-06
2.60632e-06
3.08877e-06
3.70066e-06
4.44135e-06
5.3375e-06
6.29571e-06
6.91746e-06
6.92799e-06
6.22377e-06
5.53137e-06
4.62131e-06
3.52387e-06
2.44839e-06
1.58703e-06
9.92065e-07
6.63132e-07
5.05691e-07
0.999997
0.999996
0.999996
0.999996
0.999995
0.999994
0.999993
0.999991
0.999991
0.99999
0.99999
0.99999
0.99999
0.99999
0.99999
0.99999
0.99999
0.99999
0.99999
0.99999
0.99999
0.99999
0.99999
0.99999
0.99999
0.99999
0.99999
0.99999
0.99999
0.99999
0.99999
0.99999
0.99999
0.99999
0.99999
0.99999
0.99999
0.99999
0.99999
0.99999
0.99999
0.99999
0.99999
0.999989
0.999988
0.999986
0.99998
0.999972
0.99996
0.999946
0.999932
0.99992
0.999911
0.9999
0.999897
0.999892
0.999897
0.999878
0.999738
0.970787
0.0485506
0.000157267
9.35413e-07
8.38173e-07
8.35095e-07
8.36482e-07
8.35407e-07
8.36255e-07
8.32239e-07
8.20689e-07
8.16415e-07
8.10769e-07
8.04924e-07
7.96985e-07
7.87722e-07
7.804e-07
7.80709e-07
7.86401e-07
7.95742e-07
8.08317e-07
8.20529e-07
8.35431e-07
8.51161e-07
8.70661e-07
8.88861e-07
8.88437e-07
8.56772e-07
8.18615e-07
7.77558e-07
7.33392e-07
6.83724e-07
6.35058e-07
5.83605e-07
5.45953e-07
5.01995e-07
4.33194e-07
0.999997
0.999997
0.999996
0.999996
0.999996
0.999995
0.999994
0.999992
0.999991
0.99999
0.99999
0.99999
0.99999
0.99999
0.99999
0.99999
0.99999
0.99999
0.99999
0.99999
0.99999
0.99999
0.99999
0.99999
0.99999
0.99999
0.99999
0.99999
0.99999
0.99999
0.99999
0.99999
0.99999
0.99999
0.99999
0.99999
0.99999
0.99999
0.99999
0.99999
0.99999
0.99999
0.99999
0.99999
0.999988
0.999986
0.999981
0.999973
0.99996
0.999947
0.999933
0.999922
0.999914
0.999905
0.999901
0.999896
0.999896
0.999868
0.999636
0.968539
0.0576994
0.000286507
1.13261e-06
8.05671e-07
7.97463e-07
8.01271e-07
8.03872e-07
8.01394e-07
7.98916e-07
7.94429e-07
7.89179e-07
7.8277e-07
7.78497e-07
7.74072e-07
7.68975e-07
7.62961e-07
7.57223e-07
7.54647e-07
7.5226e-07
7.49758e-07
7.4582e-07
7.43166e-07
7.40617e-07
7.36975e-07
7.30318e-07
7.20732e-07
7.06605e-07
6.89635e-07
6.66926e-07
6.38177e-07
6.10132e-07
5.89525e-07
5.64197e-07
5.44177e-07
5.09116e-07
4.34732e-07
0.999997
0.999997
0.999996
0.999996
0.999996
0.999996
0.999995
0.999992
0.999991
0.99999
0.99999
0.99999
0.99999
0.99999
0.99999
0.99999
0.99999
0.99999
0.99999
0.99999
0.99999
0.99999
0.99999
0.99999
0.99999
0.99999
0.99999
0.99999
0.99999
0.99999
0.99999
0.99999
0.99999
0.99999
0.99999
0.99999
0.99999
0.99999
0.99999
0.99999
0.99999
0.99999
0.99999
0.99999
0.999989
0.999986
0.999981
0.999972
0.999961
0.999947
0.999934
0.999923
0.999917
0.999909
0.999905
0.999897
0.999892
0.999865
0.999553
0.962619
0.0577368
0.000289248
1.09891e-06
7.90432e-07
7.84198e-07
7.82508e-07
7.83274e-07
7.81577e-07
7.8128e-07
7.78009e-07
7.76385e-07
7.72297e-07
7.67847e-07
7.63523e-07
7.59324e-07
7.54835e-07
7.50629e-07
7.48962e-07
7.47573e-07
7.45799e-07
7.42845e-07
7.3939e-07
7.35978e-07
7.31741e-07
7.26076e-07
7.19999e-07
7.09592e-07
6.93715e-07
6.70318e-07
6.40681e-07
6.13672e-07
5.90037e-07
5.69428e-07
5.46059e-07
5.06768e-07
4.37333e-07
0.999998
0.999997
0.999997
0.999996
0.999996
0.999996
0.999995
0.999993
0.999991
0.99999
0.99999
0.99999
0.99999
0.99999
0.99999
0.99999
0.99999
0.99999
0.99999
0.99999
0.99999
0.99999
0.99999
0.99999
0.99999
0.99999
0.99999
0.99999
0.99999
0.99999
0.99999
0.99999
0.99999
0.99999
0.99999
0.99999
0.99999
0.99999
0.99999
0.99999
0.99999
0.99999
0.99999
0.99999
0.999989
0.999986
0.999981
0.999972
0.99996
0.999946
0.999932
0.999922
0.999917
0.999911
0.999908
0.999898
0.999897
0.999873
0.999221
0.954483
0.0647647
0.000610148
1.96935e-06
7.84959e-07
7.82554e-07
7.77661e-07
7.75175e-07
7.71243e-07
7.70844e-07
7.67822e-07
7.66358e-07
7.63854e-07
7.61492e-07
7.59164e-07
7.56778e-07
7.54266e-07
7.51568e-07
7.49228e-07
7.4692e-07
7.45019e-07
7.42639e-07
7.39222e-07
7.36057e-07
7.31907e-07
7.26658e-07
7.22936e-07
7.1721e-07
7.05365e-07
6.8543e-07
6.58046e-07
6.26243e-07
5.95505e-07
5.70064e-07
5.38861e-07
5.01676e-07
4.32769e-07
0.999994
0.999994
0.999993
0.999993
0.999992
0.999992
0.999991
0.999991
0.99999
0.99999
0.99999
0.99999
0.99999
0.99999
0.99999
0.99999
0.99999
0.99999
0.99999
0.99999
0.99999
0.99999
0.99999
0.99999
0.99999
0.99999
0.99999
0.99999
0.99999
0.99999
0.99999
0.99999
0.99999
0.99999
0.99999
0.99999
0.99999
0.99999
0.99999
0.99999
0.99999
0.99999
0.99999
0.99999
0.999989
0.999987
0.999982
0.999973
0.999958
0.999941
0.999928
0.999917
0.999911
0.999906
0.999904
0.9999
0.9999
0.999879
0.99914
0.944916
0.0360355
0.000146549
7.87791e-07
6.98088e-07
6.95251e-07
6.89557e-07
6.8974e-07
6.85996e-07
6.86478e-07
6.84303e-07
6.84751e-07
6.83136e-07
6.82686e-07
6.81202e-07
6.79945e-07
6.78044e-07
6.76708e-07
6.75932e-07
6.74521e-07
6.71956e-07
6.69069e-07
6.64762e-07
6.57501e-07
6.46345e-07
6.36612e-07
6.28341e-07
6.19691e-07
6.10531e-07
5.98722e-07
5.80848e-07
5.57969e-07
5.3495e-07
5.07386e-07
4.79029e-07
4.45494e-07
4.02687e-07
0.999995
0.999994
0.999993
0.999992
0.999992
0.999991
0.999991
0.999991
0.999991
0.99999
0.99999
0.99999
0.99999
0.99999
0.99999
0.99999
0.99999
0.99999
0.99999
0.99999
0.99999
0.99999
0.99999
0.99999
0.99999
0.99999
0.99999
0.99999
0.99999
0.99999
0.99999
0.99999
0.99999
0.99999
0.99999
0.99999
0.99999
0.99999
0.99999
0.99999
0.99999
0.99999
0.99999
0.99999
0.999989
0.999986
0.999981
0.999973
0.999962
0.999947
0.99993
0.999916
0.999908
0.999902
0.9999
0.999896
0.999896
0.999871
0.999543
0.921792
0.0172255
1.3978e-05
7.05843e-07
7.46896e-07
7.33332e-07
7.33428e-07
7.35482e-07
7.3011e-07
7.30216e-07
7.23987e-07
7.20239e-07
7.11656e-07
7.05803e-07
7.0001e-07
6.96361e-07
6.92862e-07
6.90812e-07
6.89575e-07
6.87977e-07
6.86623e-07
6.84356e-07
6.79442e-07
6.6822e-07
6.5426e-07
6.41342e-07
6.29593e-07
6.18892e-07
6.09872e-07
6.00756e-07
5.88839e-07
5.73288e-07
5.51832e-07
5.22373e-07
4.98945e-07
4.7497e-07
4.23889e-07
0.999995
0.999994
0.999993
0.999993
0.999992
0.999992
0.999991
0.999991
0.999991
0.99999
0.99999
0.99999
0.99999
0.99999
0.99999
0.99999
0.99999
0.99999
0.99999
0.99999
0.99999
0.99999
0.99999
0.99999
0.99999
0.99999
0.99999
0.99999
0.99999
0.99999
0.99999
0.99999
0.99999
0.99999
0.99999
0.99999
0.99999
0.99999
0.99999
0.99999
0.99999
0.99999
0.99999
0.999989
0.999988
0.999986
0.999982
0.999974
0.999963
0.999948
0.999926
0.999909
0.9999
0.999894
0.999893
0.999891
0.999893
0.999867
0.999688
0.903559
0.0158847
3.87186e-06
3.35717e-06
2.9101e-06
2.83025e-06
2.34193e-06
1.94417e-06
1.49029e-06
1.19405e-06
9.82452e-07
8.76908e-07
8.12184e-07
7.8417e-07
7.72306e-07
7.63881e-07
7.53818e-07
7.49825e-07
7.43066e-07
7.37188e-07
7.34541e-07
7.25693e-07
7.11451e-07
6.93707e-07
6.74141e-07
6.57233e-07
6.43646e-07
6.31094e-07
6.20597e-07
6.12246e-07
6.04072e-07
5.9548e-07
5.76387e-07
5.4372e-07
5.17401e-07
4.91843e-07
4.39005e-07
0.999995
0.999995
0.999994
0.999993
0.999993
0.999992
0.999992
0.999991
0.999991
0.999991
0.99999
0.99999
0.99999
0.99999
0.99999
0.99999
0.99999
0.99999
0.99999
0.99999
0.99999
0.99999
0.99999
0.99999
0.99999
0.99999
0.99999
0.99999
0.99999
0.99999
0.99999
0.99999
0.99999
0.99999
0.99999
0.99999
0.99999
0.99999
0.99999
0.99999
0.99999
0.99999
0.99999
0.999989
0.999988
0.999986
0.999981
0.999975
0.999963
0.999944
0.999918
0.999899
0.99989
0.999887
0.999886
0.999881
0.999877
0.999852
0.999764
0.853671
0.00784744
0.000156877
0.000138379
0.000112316
0.000103033
8.43625e-05
6.67655e-05
4.93844e-05
3.51675e-05
2.41476e-05
1.66625e-05
1.17915e-05
8.8916e-06
7.2528e-06
6.3581e-06
5.76116e-06
5.3968e-06
5.02822e-06
4.67696e-06
4.30346e-06
3.93715e-06
3.5606e-06
3.15621e-06
2.7126e-06
2.34162e-06
2.02283e-06
1.72589e-06
1.46907e-06
1.14002e-06
8.78492e-07
7.30042e-07
6.61385e-07
6.20908e-07
5.72856e-07
5.28148e-07
4.62228e-07
0.999996
0.999995
0.999994
0.999993
0.999993
0.999992
0.999992
0.999991
0.999991
0.999991
0.99999
0.99999
0.99999
0.99999
0.99999
0.99999
0.99999
0.99999
0.99999
0.99999
0.99999
0.99999
0.99999
0.99999
0.99999
0.99999
0.99999
0.99999
0.99999
0.99999
0.99999
0.99999
0.99999
0.99999
0.99999
0.99999
0.99999
0.99999
0.99999
0.99999
0.99999
0.99999
0.99999
0.999989
0.999988
0.999985
0.999981
0.999974
0.999961
0.999937
0.999908
0.99989
0.999882
0.999879
0.999876
0.999867
0.999859
0.999842
0.999832
0.779279
0.00933602
0.00249528
0.00234399
0.00205654
0.00189074
0.00165418
0.00143945
0.00122445
0.00102949
0.000854512
0.00071166
0.000598117
0.000512535
0.000450658
0.000407486
0.000379102
0.00036119
0.000348616
0.000340745
0.000334894
0.000328497
0.000314525
0.000287762
0.000258381
0.000226987
0.00019822
0.000172341
0.0001413
0.000105963
7.06623e-05
4.06815e-05
1.97014e-05
8.1513e-06
3.03813e-06
1.19342e-06
6.76261e-07
0.999996
0.999996
0.999995
0.999994
0.999993
0.999993
0.999992
0.999992
0.999991
0.999991
0.99999
0.99999
0.99999
0.99999
0.99999
0.99999
0.99999
0.99999
0.99999
0.99999
0.99999
0.99999
0.99999
0.99999
0.99999
0.99999
0.99999
0.99999
0.99999
0.99999
0.99999
0.99999
0.99999
0.99999
0.99999
0.99999
0.99999
0.99999
0.99999
0.99999
0.99999
0.99999
0.99999
0.999989
0.999988
0.999985
0.999981
0.999973
0.999958
0.99993
0.9999
0.999885
0.999878
0.999872
0.999866
0.99986
0.999857
0.999851
0.999835
0.667452
0.0190787
0.0117751
0.0119816
0.0117146
0.0114604
0.0111217
0.010765
0.0103833
0.0099555
0.00950024
0.00900668
0.00850398
0.00801559
0.00754752
0.00711147
0.00673124
0.00640433
0.00612773
0.00589403
0.00568806
0.00547122
0.00518951
0.00485073
0.00451812
0.00416293
0.00378189
0.00340584
0.00302281
0.00263525
0.00221065
0.00176822
0.00130396
0.000853476
0.000470379
0.000200991
7.46057e-05
0.999996
0.999996
0.999995
0.999994
0.999994
0.999993
0.999992
0.999992
0.999991
0.999991
0.99999
0.99999
0.99999
0.99999
0.99999
0.99999
0.99999
0.99999
0.99999
0.99999
0.99999
0.99999
0.99999
0.99999
0.99999
0.99999
0.99999
0.99999
0.99999
0.99999
0.99999
0.99999
0.99999
0.99999
0.99999
0.99999
0.99999
0.99999
0.99999
0.99999
0.99999
0.99999
0.99999
0.999989
0.999988
0.999986
0.99998
0.99997
0.999953
0.999925
0.999896
0.999882
0.999876
0.999872
0.999868
0.999864
0.999864
0.999858
0.999651
0.595345
0.0288283
0.0224262
0.0233763
0.0237952
0.0241165
0.024528
0.0249128
0.0253219
0.0256804
0.0260365
0.0263547
0.026663
0.0269081
0.0270977
0.0272078
0.0272681
0.0272665
0.027221
0.0271012
0.0268937
0.0265793
0.0261635
0.0257268
0.0252093
0.0245536
0.0237406
0.0227039
0.0215131
0.0203241
0.0191445
0.0179279
0.0166139
0.0150626
0.012999
0.0106074
0.00861825
0.999996
0.999996
0.999996
0.999995
0.999994
0.999993
0.999992
0.999992
0.999991
0.999991
0.99999
0.99999
0.99999
0.99999
0.99999
0.99999
0.99999
0.99999
0.99999
0.99999
0.99999
0.99999
0.99999
0.99999
0.99999
0.99999
0.99999
0.99999
0.99999
0.99999
0.99999
0.99999
0.99999
0.99999
0.99999
0.99999
0.99999
0.99999
0.99999
0.99999
0.99999
0.99999
0.99999
0.999989
0.999988
0.999985
0.999979
0.999968
0.999951
0.999922
0.999895
0.999882
0.999877
0.999876
0.999875
0.999874
0.999875
0.99987
0.999433
0.681727
0.0316557
0.0205956
0.0213724
0.0216295
0.022074
0.0228025
0.0236949
0.0246966
0.0257781
0.0269442
0.0281993
0.0295843
0.0310739
0.0326358
0.0342864
0.0360148
0.0378642
0.0398378
0.0419224
0.0441239
0.0464893
0.0490955
0.0519929
0.0551687
0.0587108
0.0625933
0.0668023
0.0714855
0.0768703
0.0831506
0.090866
0.100611
0.113823
0.135306
0.184573
0.379911
0.999996
0.999997
0.999996
0.999996
0.999995
0.999994
0.999992
0.999992
0.999991
0.999991
0.99999
0.99999
0.99999
0.99999
0.99999
0.99999
0.99999
0.99999
0.99999
0.99999
0.99999
0.99999
0.99999
0.99999
0.99999
0.99999
0.99999
0.99999
0.99999
0.99999
0.99999
0.99999
0.99999
0.99999
0.99999
0.99999
0.99999
0.99999
0.99999
0.99999
0.99999
0.99999
0.99999
0.999989
0.999988
0.999985
0.999978
0.999968
0.999954
0.999928
0.999902
0.999888
0.999882
0.99988
0.999879
0.999877
0.99988
0.999874
0.999846
0.817076
0.0215626
0.00643125
0.00600772
0.00516933
0.00483382
0.00451454
0.00430536
0.00416796
0.00411498
0.00409991
0.00413019
0.00416713
0.00424685
0.00438751
0.00460723
0.00488859
0.00524546
0.00567016
0.00614143
0.00665344
0.00720575
0.00780705
0.00847713
0.00917842
0.00987697
0.0106175
0.0113848
0.0121748
0.0129851
0.0137099
0.0143471
0.0150667
0.0159134
0.0166943
0.0169238
0.0156859
0.999997
0.999997
0.999996
0.999996
0.999995
0.999994
0.999993
0.999992
0.999991
0.999991
0.99999
0.99999
0.99999
0.99999
0.99999
0.99999
0.99999
0.99999
0.99999
0.99999
0.99999
0.99999
0.99999
0.99999
0.99999
0.99999
0.99999
0.99999
0.99999
0.99999
0.99999
0.99999
0.99999
0.99999
0.99999
0.99999
0.99999
0.99999
0.99999
0.99999
0.99999
0.99999
0.99999
0.999989
0.999988
0.999985
0.999978
0.999969
0.999957
0.999939
0.999913
0.999896
0.999889
0.999884
0.999882
0.99988
0.999883
0.999872
0.999884
0.881608
0.012803
0.0011209
0.000957793
0.000725404
0.000637474
0.000553943
0.000500067
0.000458562
0.000434013
0.000416938
0.000406685
0.000404078
0.000410118
0.000427716
0.000453393
0.000488555
0.000538952
0.000605633
0.000685799
0.000767897
0.000859291
0.00096857
0.00110464
0.00126999
0.00145925
0.00163865
0.00182058
0.00200388
0.00219317
0.00235513
0.00247052
0.00248475
0.00237172
0.00192438
0.00117076
0.000541008
0.999997
0.999997
0.999997
0.999996
0.999996
0.999995
0.999993
0.999992
0.999991
0.999991
0.99999
0.99999
0.99999
0.99999
0.99999
0.99999
0.99999
0.99999
0.99999
0.99999
0.99999
0.99999
0.99999
0.99999
0.99999
0.99999
0.99999
0.99999
0.99999
0.99999
0.99999
0.99999
0.99999
0.99999
0.99999
0.99999
0.99999
0.99999
0.99999
0.99999
0.99999
0.99999
0.99999
0.999989
0.999988
0.999986
0.99998
0.999971
0.999958
0.999944
0.999926
0.999907
0.999897
0.999891
0.999889
0.999885
0.999886
0.999868
0.999875
0.925635
0.0157061
0.000112071
9.83684e-05
6.95443e-05
6.2705e-05
5.44565e-05
4.95113e-05
4.35989e-05
3.84117e-05
3.37942e-05
3.0595e-05
2.85663e-05
2.80731e-05
2.91499e-05
3.09192e-05
3.41506e-05
3.97977e-05
4.88193e-05
6.09225e-05
7.35174e-05
8.75886e-05
0.000103647
0.000122775
0.000147691
0.000176914
0.000200412
0.000218783
0.000238133
0.000259737
0.000271439
0.000263757
0.000212122
0.000145123
7.50064e-05
2.81866e-05
1.02862e-05
0.999997
0.999997
0.999997
0.999997
0.999996
0.999995
0.999993
0.999992
0.999991
0.999991
0.99999
0.99999
0.99999
0.99999
0.99999
0.99999
0.99999
0.99999
0.99999
0.99999
0.99999
0.99999
0.99999
0.99999
0.99999
0.99999
0.99999
0.99999
0.99999
0.99999
0.99999
0.99999
0.99999
0.99999
0.99999
0.99999
0.99999
0.99999
0.99999
0.99999
0.99999
0.99999
0.99999
0.99999
0.999988
0.999986
0.999981
0.999973
0.99996
0.999946
0.999932
0.999917
0.999906
0.999897
0.999895
0.999891
0.999888
0.999862
0.999824
0.952807
0.0239249
5.27407e-06
6.09675e-06
3.41261e-06
3.32157e-06
2.85695e-06
2.68897e-06
2.42811e-06
2.19954e-06
2.0155e-06
1.90417e-06
1.8017e-06
1.72529e-06
1.70946e-06
1.78785e-06
2.02622e-06
2.46205e-06
3.1481e-06
3.87788e-06
4.42302e-06
5.04122e-06
5.90225e-06
6.92656e-06
8.09465e-06
9.0726e-06
9.30584e-06
8.91748e-06
9.30144e-06
9.91318e-06
9.72784e-06
8.32731e-06
6.08033e-06
3.16688e-06
1.47499e-06
7.84485e-07
5.46019e-07
0.999997
0.999997
0.999997
0.999997
0.999997
0.999996
0.999994
0.999992
0.999991
0.999991
0.99999
0.99999
0.99999
0.99999
0.99999
0.99999
0.99999
0.99999
0.99999
0.99999
0.99999
0.99999
0.99999
0.99999
0.99999
0.99999
0.99999
0.99999
0.99999
0.99999
0.99999
0.99999
0.99999
0.99999
0.99999
0.99999
0.99999
0.99999
0.99999
0.99999
0.99999
0.99999
0.99999
0.99999
0.999988
0.999986
0.999981
0.999973
0.999962
0.999948
0.999934
0.999921
0.999912
0.999902
0.999897
0.99989
0.999884
0.999851
0.999736
0.963198
0.0347069
9.40126e-06
1.0135e-06
8.53703e-07
8.82399e-07
8.65785e-07
8.58122e-07
8.46673e-07
8.41161e-07
8.26426e-07
8.20042e-07
8.14794e-07
8.11044e-07
8.05275e-07
7.98474e-07
7.94044e-07
7.97028e-07
8.06275e-07
8.11158e-07
8.07919e-07
8.08108e-07
8.15549e-07
8.22297e-07
8.21858e-07
8.09688e-07
7.78511e-07
7.44153e-07
7.23058e-07
7.01643e-07
6.74758e-07
6.3777e-07
6.10762e-07
5.79841e-07
5.49342e-07
5.02986e-07
4.26657e-07
0.999997
0.999997
0.999997
0.999997
0.999997
0.999997
0.999995
0.999993
0.999991
0.999991
0.99999
0.99999
0.99999
0.99999
0.99999
0.99999
0.99999
0.99999
0.99999
0.99999
0.99999
0.99999
0.99999
0.99999
0.99999
0.99999
0.99999
0.99999
0.99999
0.99999
0.99999
0.99999
0.99999
0.99999
0.99999
0.99999
0.99999
0.99999
0.99999
0.99999
0.99999
0.99999
0.99999
0.99999
0.999988
0.999986
0.999981
0.999973
0.999961
0.999947
0.999934
0.999922
0.999914
0.999903
0.999895
0.999886
0.999876
0.99983
0.999602
0.957338
0.0398093
2.93921e-05
8.68705e-07
8.29784e-07
8.15742e-07
8.17432e-07
8.17357e-07
8.11148e-07
8.06117e-07
7.99146e-07
7.93554e-07
7.85256e-07
7.80259e-07
7.75049e-07
7.69617e-07
7.6369e-07
7.58841e-07
7.555e-07
7.51973e-07
7.49024e-07
7.45334e-07
7.41998e-07
7.39665e-07
7.36522e-07
7.30922e-07
7.21861e-07
7.05592e-07
6.86635e-07
6.65409e-07
6.35622e-07
6.04866e-07
5.8306e-07
5.68029e-07
5.51916e-07
5.14981e-07
4.31112e-07
0.999997
0.999997
0.999997
0.999997
0.999997
0.999997
0.999996
0.999994
0.999992
0.999991
0.99999
0.99999
0.99999
0.99999
0.99999
0.99999
0.99999
0.99999
0.99999
0.99999
0.99999
0.99999
0.99999
0.99999
0.99999
0.99999
0.99999
0.99999
0.99999
0.99999
0.99999
0.99999
0.99999
0.99999
0.99999
0.99999
0.99999
0.99999
0.99999
0.99999
0.99999
0.99999
0.99999
0.99999
0.999989
0.999986
0.999981
0.999973
0.999961
0.999947
0.999934
0.999923
0.999914
0.999903
0.999893
0.999879
0.999864
0.999818
0.999548
0.94109
0.0381138
5.93514e-05
9.0542e-07
7.9765e-07
7.88529e-07
7.85207e-07
7.86483e-07
7.83207e-07
7.82053e-07
7.78684e-07
7.76774e-07
7.72137e-07
7.68163e-07
7.63283e-07
7.59535e-07
7.55762e-07
7.52784e-07
7.50969e-07
7.4752e-07
7.44162e-07
7.41458e-07
7.38535e-07
7.35874e-07
7.32297e-07
7.26833e-07
7.19636e-07
7.07603e-07
6.90581e-07
6.67149e-07
6.34558e-07
6.02149e-07
5.78286e-07
5.66211e-07
5.49018e-07
5.11747e-07
4.34486e-07
0.999998
0.999997
0.999997
0.999997
0.999997
0.999997
0.999997
0.999995
0.999992
0.999991
0.99999
0.99999
0.99999
0.99999
0.99999
0.99999
0.99999
0.99999
0.99999
0.99999
0.99999
0.99999
0.99999
0.99999
0.99999
0.99999
0.99999
0.99999
0.99999
0.99999
0.99999
0.99999
0.99999
0.99999
0.99999
0.99999
0.99999
0.99999
0.99999
0.99999
0.99999
0.99999
0.99999
0.99999
0.999989
0.999986
0.999981
0.999972
0.999961
0.999946
0.999933
0.999922
0.999916
0.999909
0.999901
0.999886
0.999879
0.999831
0.999355
0.955046
0.0594805
0.000483895
1.58178e-06
7.86441e-07
7.82135e-07
7.75208e-07
7.74075e-07
7.69765e-07
7.6857e-07
7.64888e-07
7.63378e-07
7.60413e-07
7.58963e-07
7.5681e-07
7.55444e-07
7.5421e-07