/*--------------------------------*- C++ -*----------------------------------*\
| =========                 |                                                 |
| \\      /  F ield         | OpenFOAM: The Open Source CFD Toolbox           |
|  \\    /   O peration     | Version:  2.3.0                                 |
|   \\  /    A nd           | Web:      www.OpenFOAM.org                      |
|    \\/     M anipulation  |                                                 |
\*---------------------------------------------------------------------------*/
FoamFile
{
    version     2.0;
    format      ascii;
    class       volScalarField;
    location    "56";
    object      alpha.water;
}
// * * * * * * * * * * * * * * * * * * * * * * * * * * * * * * * * * * * * * //

dimensions      [0 0 0 0 0 0 0];

internalField   nonuniform List<scalar> 
6144
(
3.65122e-06
4.33011e-06
4.77526e-06
5.20926e-06
5.69007e-06
6.65273e-06
7.74443e-06
8.7628e-06
9.52419e-06
9.88876e-06
9.96327e-06
9.97417e-06
9.97765e-06
9.9826e-06
9.98516e-06
9.98723e-06
9.98753e-06
9.98808e-06
9.98765e-06
9.98765e-06
9.98765e-06
9.9876e-06
9.9872e-06
9.9867e-06
9.98607e-06
9.98558e-06
9.98518e-06
9.98464e-06
9.98391e-06
9.98327e-06
9.9826e-06
9.982e-06
9.98128e-06
9.98055e-06
9.97975e-06
9.97903e-06
9.97819e-06
9.9775e-06
9.97649e-06
9.97548e-06
9.97548e-06
9.98925e-06
1.05128e-05
1.25878e-05
1.65625e-05
2.22353e-05
2.95593e-05
3.93172e-05
5.38707e-05
8.38705e-05
8.48254e-05
9.1563e-05
0.000101617
0.000113392
0.000119082
0.000123494
0.000124969
0.000130336
0.000778377
0.0580633
0.973568
0.999903
1
1
1
1
1
1
1
1
1
1
1
1
1
0.999999
0.999999
0.999999
0.999999
1
1
0.999999
0.999999
0.999999
1
1
1
1
0.999999
0.999999
0.999999
0.999999
0.999999
0.999999
0.999999
1
3.31348e-06
4.17694e-06
4.98526e-06
5.47628e-06
6.19717e-06
6.91574e-06
7.87997e-06
8.83283e-06
9.55153e-06
9.87129e-06
9.95097e-06
9.97035e-06
9.97834e-06
9.98573e-06
9.99072e-06
9.99414e-06
9.99504e-06
9.99538e-06
9.99472e-06
9.99444e-06
9.99455e-06
9.99415e-06
9.99366e-06
9.99322e-06
9.99278e-06
9.99255e-06
9.99271e-06
9.99237e-06
9.99194e-06
9.99163e-06
9.99141e-06
9.99108e-06
9.9906e-06
9.9899e-06
9.9891e-06
9.98822e-06
9.98729e-06
9.98626e-06
9.98517e-06
9.98372e-06
9.98237e-06
9.99628e-06
1.03789e-05
1.22254e-05
1.66933e-05
2.35221e-05
3.3275e-05
4.90941e-05
6.81903e-05
7.5394e-05
7.28394e-05
8.64917e-05
0.000100494
0.000116534
0.000123158
0.000126708
0.000126274
0.000132814
0.000424736
0.0516976
0.974984
0.999935
1
1
1
1
1
1
1
1
0.999999
0.999999
0.999999
0.999999
0.999999
0.999999
0.999999
0.999999
0.999999
0.999999
0.999999
1
1
1
1
1
1
1
1
1
1
1
1
0.999999
0.999999
1
3.09664e-06
3.80156e-06
4.7858e-06
5.48679e-06
6.35389e-06
7.07805e-06
8.0154e-06
8.8389e-06
9.39483e-06
9.727e-06
9.87082e-06
9.929e-06
9.9591e-06
9.97594e-06
9.98479e-06
9.99097e-06
9.99331e-06
9.99409e-06
9.99425e-06
9.99449e-06
9.99418e-06
9.99415e-06
9.99391e-06
9.99352e-06
9.99305e-06
9.99268e-06
9.99205e-06
9.99159e-06
9.99128e-06
9.991e-06
9.99049e-06
9.98971e-06
9.98856e-06
9.98729e-06
9.98588e-06
9.98455e-06
9.98326e-06
9.98198e-06
9.98072e-06
9.98e-06
9.98127e-06
1.00478e-05
1.04769e-05
1.19767e-05
1.57297e-05
2.19982e-05
3.10922e-05
4.30809e-05
5.46149e-05
6.31623e-05
7.1787e-05
9.31261e-05
0.000112252
0.000128736
0.000134772
0.000136863
0.00013414
0.00013692
0.000420433
0.0531317
0.975817
0.999939
1
1
1
0.999999
0.999999
1
1
1
1
1
1
0.999999
0.999999
0.999999
0.999999
0.999999
1
1
1
1
1
1
1
1
1
1
1
1
1
1
1
0.999999
0.999999
1
2.98639e-06
3.45414e-06
4.45424e-06
5.11532e-06
6.15905e-06
7.09713e-06
8.02987e-06
8.70759e-06
9.26036e-06
9.62538e-06
9.81276e-06
9.90491e-06
9.94935e-06
9.97066e-06
9.98018e-06
9.98721e-06
9.98963e-06
9.99017e-06
9.98998e-06
9.98995e-06
9.98974e-06
9.98957e-06
9.98929e-06
9.98874e-06
9.98813e-06
9.98744e-06
9.9869e-06
9.98642e-06
9.98619e-06
9.98595e-06
9.98586e-06
9.98551e-06
9.98491e-06
9.98393e-06
9.98292e-06
9.98174e-06
9.98053e-06
9.97961e-06
9.97961e-06
9.97962e-06
9.99519e-06
1.01561e-05
1.06527e-05
1.18883e-05
1.49022e-05
2.00992e-05
2.664e-05
3.42023e-05
4.31681e-05
5.47727e-05
7.12294e-05
0.000107515
0.000132147
0.000142349
0.000141942
0.00014315
0.000140199
0.000142083
0.000322294
0.0612334
0.971967
0.99993
0.999999
0.999999
0.999999
0.999999
0.999999
1
1
1
1
0.999999
0.999999
0.999999
0.999999
0.999999
0.999999
0.999999
0.999999
0.999999
0.999999
0.999999
0.999999
1
1
1
1
1
1
1
1
1
1
0.999999
0.999999
1
2.90973e-06
3.18369e-06
4.12941e-06
4.73834e-06
5.70645e-06
6.58726e-06
7.84293e-06
8.59905e-06
9.14008e-06
9.53409e-06
9.76437e-06
9.88958e-06
9.94758e-06
9.97308e-06
9.98355e-06
9.99097e-06
9.99341e-06
9.99398e-06
9.9939e-06
9.99402e-06
9.99394e-06
9.99389e-06
9.99361e-06
9.99313e-06
9.99242e-06
9.99173e-06
9.99099e-06
9.99037e-06
9.98968e-06
9.98912e-06
9.98844e-06
9.98767e-06
9.9866e-06
9.98546e-06
9.98416e-06
9.98278e-06
9.98145e-06
9.98082e-06
9.98056e-06
9.98591e-06
1.00364e-05
1.02322e-05
1.07859e-05
1.2012e-05
1.4502e-05
1.87555e-05
2.41011e-05
2.96905e-05
3.72268e-05
5.16526e-05
8.37061e-05
0.000130011
0.000145578
0.000145707
0.000143308
0.000149553
0.000143367
0.000146218
0.000402375
0.0850919
0.987968
0.999893
0.99993
0.999948
0.999955
0.999955
0.999948
0.999944
0.999942
0.999941
0.999937
0.999934
0.999932
0.999939
0.999945
0.999956
0.999967
0.999977
0.999985
0.999992
0.999996
0.999998
0.999999
0.999999
0.999999
0.999999
1
1
1
1
1
1
1
0.999999
0.999999
1
2.84789e-06
3.01705e-06
3.80028e-06
4.35373e-06
5.33342e-06
6.09759e-06
7.33171e-06
8.43981e-06
9.0127e-06
9.445e-06
9.71279e-06
9.86806e-06
9.9383e-06
9.96722e-06
9.97704e-06
9.98419e-06
9.98688e-06
9.98742e-06
9.98742e-06
9.98751e-06
9.98767e-06
9.98775e-06
9.98776e-06
9.98755e-06
9.98712e-06
9.9866e-06
9.98615e-06
9.98564e-06
9.98516e-06
9.98463e-06
9.98409e-06
9.98333e-06
9.98239e-06
9.98127e-06
9.98014e-06
9.97908e-06
9.97867e-06
9.97867e-06
9.97867e-06
9.9802e-06
1.00349e-05
1.02256e-05
1.08247e-05
1.21066e-05
1.43365e-05
1.78453e-05
2.26554e-05
2.8021e-05
3.60093e-05
5.38965e-05
0.000101096
0.000144203
0.000149695
0.000147024
0.000144951
0.000164198
0.000142951
0.000157117
0.000641488
0.110479
0.975909
0.998551
0.998687
0.998996
0.999055
0.999048
0.998983
0.998909
0.998838
0.998766
0.998692
0.998641
0.998613
0.998592
0.998663
0.998797
0.998968
0.999173
0.999377
0.999569
0.99972
0.999823
0.999896
0.999945
0.999975
0.999992
0.999997
0.999999
0.999999
1
1
1
1
1
1
1
2.78404e-06
2.93256e-06
3.51778e-06
4.00159e-06
5.04e-06
5.79935e-06
6.81545e-06
8.18747e-06
8.89647e-06
9.37695e-06
9.67367e-06
9.85581e-06
9.93903e-06
9.97083e-06
9.98087e-06
9.98917e-06
9.99187e-06
9.99235e-06
9.99211e-06
9.99213e-06
9.99202e-06
9.9914e-06
9.9908e-06
9.99029e-06
9.98962e-06
9.98885e-06
9.9881e-06
9.9875e-06
9.98697e-06
9.98645e-06
9.9858e-06
9.98495e-06
9.9838e-06
9.9825e-06
9.98113e-06
9.98005e-06
9.97947e-06
9.97935e-06
9.97955e-06
9.98335e-06
1.00266e-05
1.01943e-05
1.07859e-05
1.21284e-05
1.41824e-05
1.72327e-05
2.1805e-05
2.79277e-05
3.8286e-05
5.93835e-05
0.000110854
0.000148422
0.000154369
0.000155528
0.000168675
0.000181104
0.000158782
0.000193246
0.000501807
0.133038
0.97449
0.993852
0.993959
0.994739
0.994942
0.995164
0.995133
0.994931
0.994748
0.994587
0.994357
0.994153
0.994032
0.993995
0.994052
0.994233
0.994594
0.995205
0.99592
0.996705
0.997505
0.998159
0.998691
0.999121
0.99943
0.999692
0.999856
0.999933
0.999963
0.999976
0.999987
0.999989
0.999995
0.999999
0.999999
0.999997
2.68138e-06
2.89135e-06
3.31248e-06
3.70816e-06
4.7829e-06
5.63652e-06
6.66071e-06
7.73822e-06
8.7094e-06
9.30824e-06
9.65212e-06
9.84681e-06
9.93566e-06
9.96988e-06
9.97861e-06
9.9885e-06
9.99166e-06
9.99226e-06
9.99203e-06
9.99201e-06
9.99201e-06
9.99219e-06
9.9923e-06
9.99229e-06
9.99221e-06
9.99201e-06
9.99174e-06
9.99145e-06
9.99113e-06
9.99067e-06
9.98994e-06
9.98896e-06
9.98777e-06
9.98657e-06
9.98555e-06
9.98499e-06
9.98485e-06
9.98476e-06
9.9856e-06
9.98845e-06
1.00103e-05
1.01228e-05
1.06544e-05
1.19661e-05
1.39379e-05
1.69435e-05
2.14637e-05
2.90879e-05
4.23266e-05
6.10216e-05
0.000104484
0.000150081
0.000168775
0.000183645
0.000196564
0.000200879
0.000178452
0.000209472
0.000163916
0.251211
0.974614
0.986365
0.986351
0.98719
0.987857
0.988545
0.989234
0.989537
0.989673
0.9899
0.990123
0.990238
0.990336
0.990363
0.990332
0.990287
0.990405
0.990699
0.991218
0.991994
0.99307
0.994306
0.995415
0.996422
0.997071
0.997628
0.998211
0.998685
0.999109
0.999322
0.999496
0.999446
0.999519
0.999483
1
0.999665
2.48163e-06
2.85042e-06
3.10175e-06
3.45098e-06
4.51426e-06
5.50552e-06
6.72882e-06
7.27857e-06
8.39024e-06
9.22286e-06
9.61863e-06
9.83046e-06
9.92411e-06
9.96059e-06
9.96955e-06
9.98085e-06
9.98488e-06
9.98619e-06
9.98599e-06
9.98605e-06
9.98631e-06
9.98679e-06
9.98709e-06
9.9872e-06
9.98723e-06
9.98714e-06
9.98696e-06
9.98672e-06
9.98641e-06
9.98605e-06
9.98549e-06
9.98469e-06
9.98366e-06
9.98271e-06
9.98223e-06
9.98222e-06
9.98222e-06
9.98222e-06
9.98222e-06
9.98241e-06
9.99177e-06
1.00751e-05
1.05434e-05
1.1762e-05
1.36577e-05
1.65835e-05
2.12836e-05
3.15134e-05
4.85441e-05
6.38107e-05
9.52029e-05
0.000145027
0.00016935
0.000181641
0.000171456
0.000153415
0.000151447
0.000164377
0.000163916
0.25109
0.976379
0.987359
0.987408
0.988423
0.989304
0.989934
0.990599
0.991198
0.991833
0.992364
0.992797
0.99304
0.993095
0.992764
0.992264
0.991946
0.991646
0.991462
0.991367
0.991342
0.991958
0.992598
0.993711
0.995095
0.995825
0.995875
0.996152
0.996373
0.997167
0.998
0.999162
0.999474
0.999393
0.999322
0.999181
0.998777
2.2228e-06
2.52078e-06
2.7832e-06
3.09421e-06
4.15357e-06
5.31581e-06
6.75588e-06
7.31069e-06
8.23827e-06
9.18263e-06
9.61951e-06
9.82577e-06
9.91929e-06
9.96219e-06
9.97382e-06
9.98591e-06
9.99078e-06
9.99221e-06
9.99169e-06
9.99158e-06
9.99155e-06
9.9917e-06
9.9917e-06
9.99148e-06
9.99115e-06
9.99072e-06
9.99021e-06
9.98968e-06
9.9891e-06
9.98846e-06
9.98763e-06
9.98656e-06
9.98531e-06
9.98413e-06
9.98331e-06
9.98283e-06
9.98239e-06
9.98239e-06
9.98252e-06
9.98261e-06
9.99023e-06
1.00639e-05
1.04171e-05
1.13937e-05
1.3093e-05
1.59052e-05
2.07827e-05
3.32766e-05
5.61907e-05
7.29938e-05
7.95766e-05
0.000126749
0.000163024
0.000177251
0.000166925
0.000164593
0.000151692
0.000171936
0.000658855
0.164203
0.976461
0.992217
0.992598
0.993674
0.994419
0.995143
0.995819
0.996497
0.997
0.997321
0.997494
0.997544
0.997377
0.997105
0.996724
0.996362
0.996077
0.995733
0.995528
0.995465
0.995429
0.995435
0.995647
0.996506
0.997113
0.997117
0.996996
0.996961
0.996913
0.997318
0.997748
0.99868
0.999528
0.999511
0.999511
0.99961
2.01814e-06
2.26356e-06
2.42682e-06
2.70329e-06
3.75121e-06
5.00277e-06
6.71513e-06
7.7943e-06
8.28447e-06
9.1998e-06
9.63654e-06
9.82052e-06
9.90407e-06
9.95162e-06
9.96625e-06
9.97974e-06
9.9856e-06
9.98779e-06
9.98788e-06
9.98832e-06
9.98872e-06
9.9892e-06
9.98951e-06
9.98959e-06
9.98962e-06
9.9895e-06
9.98929e-06
9.98895e-06
9.98851e-06
9.98799e-06
9.98733e-06
9.98634e-06
9.98526e-06
9.98432e-06
9.98384e-06
9.98349e-06
9.98323e-06
9.98305e-06
9.98338e-06
9.98384e-06
9.99369e-06
1.00679e-05
1.03331e-05
1.11403e-05
1.28648e-05
1.5696e-05
2.03102e-05
3.26923e-05
6.19098e-05
8.21776e-05
8.02257e-05
0.000102744
0.0001455
0.000169068
0.000158663
0.000159661
0.000150214
0.000158793
0.000380995
0.072778
0.97661
0.997816
0.998126
0.998635
0.99886
0.9991
0.999275
0.999432
0.999535
0.999596
0.999623
0.999627
0.99957
0.999487
0.99936
0.999226
0.999092
0.998918
0.998742
0.998647
0.998588
0.998559
0.99865
0.998856
0.998963
0.998845
0.998823
0.998878
0.998846
0.998927
0.999096
0.999436
0.999713
0.999802
0.999847
0.999926
1.92403e-06
2.07627e-06
2.10463e-06
2.22256e-06
3.10542e-06
4.3565e-06
6.33088e-06
7.93971e-06
8.39668e-06
9.25972e-06
9.69274e-06
9.83515e-06
9.89384e-06
9.93284e-06
9.95164e-06
9.97219e-06
9.98481e-06
9.98863e-06
9.98873e-06
9.98912e-06
9.98944e-06
9.98987e-06
9.99011e-06
9.99021e-06
9.99024e-06
9.99017e-06
9.98998e-06
9.98971e-06
9.98929e-06
9.98896e-06
9.98871e-06
9.98806e-06
9.98728e-06
9.98672e-06
9.98665e-06
9.98666e-06
9.98676e-06
9.98653e-06
9.98687e-06
9.98721e-06
9.9998e-06
1.00745e-05
1.03412e-05
1.1306e-05
1.34197e-05
1.6491e-05
2.07595e-05
3.23374e-05
6.3842e-05
8.70432e-05
9.17173e-05
9.51197e-05
0.000120534
0.000153933
0.000149815
0.000149726
0.000134711
0.000149884
0.000352382
0.0466102
0.979274
0.999747
0.999829
0.99988
0.9999
0.999919
0.999933
0.999946
0.999955
0.999963
0.999967
0.999969
0.999969
0.999961
0.999945
0.999923
0.999896
0.999864
0.999835
0.999819
0.999815
0.999815
0.999835
0.999847
0.999844
0.999825
0.999829
0.999831
0.999828
0.999842
0.999866
0.999901
0.999939
0.999969
0.999988
0.999996
1.80622e-06
2.01106e-06
1.97891e-06
1.96704e-06
2.46176e-06
3.40897e-06
5.19473e-06
7.20786e-06
8.64917e-06
9.30692e-06
9.73644e-06
9.86375e-06
9.91548e-06
9.93942e-06
9.95418e-06
9.97771e-06
9.99031e-06
9.99436e-06
9.99381e-06
9.99359e-06
9.99358e-06
9.99366e-06
9.99371e-06
9.99366e-06
9.99353e-06
9.99327e-06
9.99287e-06
9.99243e-06
9.99191e-06
9.99148e-06
9.991e-06
9.99013e-06
9.98913e-06
9.98831e-06
9.98805e-06
9.98799e-06
9.98819e-06
9.98828e-06
9.98891e-06
9.98938e-06
1.00036e-05
1.00861e-05
1.04398e-05
1.18582e-05
1.46164e-05
1.81229e-05
2.22199e-05
3.2896e-05
6.31416e-05
8.96395e-05
9.78217e-05
9.99912e-05
0.000106353
0.000134203
0.000138452
0.000142154
0.000124713
0.000156724
0.000380195
0.0343501
0.969484
0.999895
0.999997
0.999998
0.999997
0.999993
0.999992
0.999993
0.999996
0.999997
0.999998
0.999998
0.999998
0.999998
0.999998
0.999997
0.999996
0.999994
0.999992
0.99999
0.99999
0.99999
0.999991
0.999992
0.999992
0.999993
0.999993
0.999994
0.999994
0.999995
0.999996
0.999997
0.999998
0.999999
0.999999
0.999999
1.81511e-06
2.08721e-06
2.01028e-06
2.0029e-06
2.11139e-06
2.81702e-06
4.15319e-06
6.2191e-06
8.63289e-06
9.36708e-06
9.73606e-06
9.85317e-06
9.90334e-06
9.93199e-06
9.94913e-06
9.97558e-06
9.99769e-06
9.99769e-06
9.99769e-06
9.99769e-06
9.99768e-06
9.99768e-06
9.99768e-06
9.99768e-06
9.99736e-06
9.99683e-06
9.99616e-06
9.99549e-06
9.99485e-06
9.99428e-06
9.9935e-06
9.99247e-06
9.99127e-06
9.99018e-06
9.98963e-06
9.98944e-06
9.98949e-06
9.98949e-06
9.99004e-06
9.99082e-06
1.0007e-05
1.00992e-05
1.05776e-05
1.24073e-05
1.55827e-05
1.92712e-05
2.36473e-05
3.4371e-05
6.53012e-05
9.35946e-05
0.000102843
0.00010521
0.000106071
0.00011716
0.000123264
0.000134657
0.000132244
0.000164322
0.000375869
0.037853
0.950701
0.999723
0.999999
1
1
0.999999
0.999999
0.999999
0.999999
0.999999
0.999999
0.999999
0.999999
1
1
1
1
1
1
1
1
1
1
0.999999
0.999999
0.999999
0.999999
0.999999
0.999999
0.999999
0.999999
0.999999
0.999999
0.999999
0.999999
0.999999
1.94812e-06
2.53154e-06
2.53116e-06
2.55655e-06
2.31663e-06
2.73084e-06
3.52387e-06
5.14184e-06
7.97137e-06
9.39275e-06
9.74008e-06
9.83145e-06
9.88023e-06
9.91459e-06
9.93765e-06
9.96666e-06
9.99369e-06
9.99593e-06
9.99604e-06
9.99613e-06
9.99617e-06
9.99615e-06
9.99606e-06
9.99597e-06
9.99558e-06
9.99503e-06
9.9944e-06
9.99378e-06
9.99322e-06
9.99268e-06
9.99195e-06
9.991e-06
9.98997e-06
9.98911e-06
9.98854e-06
9.98833e-06
9.98831e-06
9.98833e-06
9.98868e-06
9.98978e-06
1.00104e-05
1.01309e-05
1.07669e-05
1.27078e-05
1.59e-05
1.98378e-05
2.47475e-05
3.66274e-05
7.37679e-05
0.000100302
0.000111059
0.000116714
0.000109291
0.000117374
0.000121752
0.000134952
0.000138858
0.000157647
0.000417436
0.0569021
0.9649
0.999857
1
0.999999
1
1
1
0.999999
0.999999
0.999999
0.999999
0.999999
0.999999
0.999999
0.999999
0.999999
0.999999
0.999999
1
1
1
0.999999
0.999999
0.999999
0.999999
0.999999
1
1
1
1
1
1
1
0.999999
0.999999
1
1.68561e-06
1.69144e-06
2.16477e-06
3.24826e-06
3.19529e-06
3.14931e-06
3.81291e-06
4.92298e-06
7.53313e-06
9.44875e-06
9.74669e-06
9.82137e-06
9.86272e-06
9.89785e-06
9.92812e-06
9.96858e-06
1.00019e-05
1.00029e-05
1.00029e-05
1.00029e-05
1.00029e-05
1.00029e-05
1.00029e-05
1.00029e-05
1.00025e-05
1.00019e-05
1.00013e-05
1.00008e-05
1.00003e-05
9.99973e-06
9.999e-06
9.99808e-06
9.99711e-06
9.99626e-06
9.99562e-06
9.99528e-06
9.99511e-06
9.99507e-06
9.99527e-06
9.99646e-06
1.00212e-05
1.01999e-05
1.10075e-05
1.31037e-05
1.67652e-05
2.18327e-05
2.91704e-05
4.75999e-05
8.25118e-05
0.000101504
0.000110543
0.000117449
0.000122915
0.000128527
0.000126813
0.00014142
0.000120311
0.000153522
0.000893439
0.0659516
0.971607
0.999894
1
0.999999
0.999999
0.999999
0.999999
0.999999
0.999999
0.999999
0.999999
0.999999
0.999999
0.999999
0.999999
0.999999
0.999999
0.999999
1
1
1
1
0.999999
0.999999
0.999999
0.999999
0.999999
1
1
1
1
1
1
1
1
1
3.25043e-06
4.26981e-06
4.82594e-06
5.27053e-06
5.75836e-06
6.80293e-06
7.94378e-06
8.95074e-06
9.62298e-06
9.86536e-06
9.91571e-06
9.94614e-06
9.97336e-06
9.99065e-06
1.0001e-05
1.00077e-05
1.00077e-05
1.00077e-05
1.00077e-05
1.00077e-05
1.00071e-05
1.00065e-05
1.00058e-05
1.00052e-05
1.00047e-05
1.00044e-05
1.00044e-05
1.00044e-05
1.00044e-05
1.00043e-05
1.0004e-05
1.00036e-05
1.00029e-05
1.00021e-05
1.00013e-05
1.00004e-05
9.99948e-06
9.99842e-06
9.99723e-06
9.99575e-06
9.99969e-06
1.00078e-05
1.04557e-05
1.2607e-05
1.65089e-05
2.15778e-05
2.81007e-05
3.69354e-05
5.27735e-05
8.56072e-05
9.16964e-05
0.000100723
0.000118972
0.00013464
0.000136889
0.000136331
0.000130937
0.00014078
0.000379691
0.0649376
0.977333
0.999968
1
1
1
1
1
1
1
1
1
1
1
1
1
1
1
1
1
1
1
1
1
0.999999
0.999999
0.999999
0.999999
0.999999
0.999999
0.999999
0.999999
0.999999
0.999999
0.999999
0.999999
1
2.55817e-06
3.94272e-06
5.27077e-06
5.83683e-06
6.50674e-06
7.25889e-06
8.24331e-06
8.98786e-06
9.40378e-06
9.60304e-06
9.75628e-06
9.86824e-06
9.93881e-06
9.9721e-06
9.98612e-06
9.99852e-06
1.00034e-05
1.00043e-05
1.00041e-05
1.00042e-05
1.00041e-05
1.00044e-05
1.00045e-05
1.00043e-05
1.00038e-05
1.00031e-05
1.00024e-05
1.0002e-05
1.00015e-05
1.0001e-05
1.00004e-05
9.9994e-06
9.99809e-06
9.99669e-06
9.99528e-06
9.99408e-06
9.9932e-06
9.99253e-06
9.99195e-06
9.99509e-06
1.00297e-05
1.01616e-05
1.04498e-05
1.19408e-05
1.52026e-05
2.00768e-05
2.93685e-05
4.47838e-05
6.47138e-05
8.39095e-05
8.36511e-05
9.90466e-05
0.000120632
0.000137944
0.000137566
0.000137562
0.000132559
0.000147224
0.000248521
0.0894373
0.990568
0.999996
1
1
1
1
1
1
1
1
1
1
1
1
1
1
1
1
1
0.999999
0.999999
0.999999
1
1
1
1
1
1
1
1
1
1
1
0.999999
0.999999
1
2.22281e-06
3.15953e-06
4.93448e-06
5.75992e-06
6.52457e-06
7.16799e-06
7.88726e-06
8.55154e-06
9.05619e-06
9.39568e-06
9.65218e-06
9.82801e-06
9.92308e-06
9.96572e-06
9.97999e-06
9.99427e-06
1.00003e-05
1.00012e-05
1.00011e-05
1.00012e-05
1.00012e-05
1.00012e-05
1.00011e-05
1.00007e-05
1.00001e-05
9.99962e-06
9.99909e-06
9.99854e-06
9.99804e-06
9.99755e-06
9.99684e-06
9.99581e-06
9.99452e-06
9.99324e-06
9.992e-06
9.99098e-06
9.99038e-06
9.9902e-06
9.99026e-06
9.99667e-06
1.00432e-05
1.02436e-05
1.07561e-05
1.17115e-05
1.37595e-05
1.78676e-05
2.70376e-05
4.31184e-05
6.34121e-05
8.03919e-05
8.30565e-05
9.71498e-05
0.0001185
0.000136695
0.000135348
0.000136568
0.000133464
0.00014625
0.000303419
0.0832466
0.975834
1
0.999999
1
1
0.999999
1
1
1
1
1
1
1
1
1
0.999999
0.999999
0.999999
0.999999
1
1
1
1
1
0.999999
0.999999
0.999999
0.999999
1
1
1
1
1
1
0.999999
1
2.09064e-06
2.48717e-06
4.18886e-06
5.0629e-06
5.87025e-06
6.63943e-06
7.44128e-06
8.20124e-06
8.84253e-06
9.3022e-06
9.61217e-06
9.81407e-06
9.9166e-06
9.96254e-06
9.97627e-06
9.99103e-06
9.99768e-06
9.99846e-06
9.99821e-06
9.99812e-06
9.99794e-06
9.99779e-06
9.99762e-06
9.99722e-06
9.99666e-06
9.99611e-06
9.9956e-06
9.99514e-06
9.99469e-06
9.99425e-06
9.99361e-06
9.99261e-06
9.99138e-06
9.99019e-06
9.98911e-06
9.98824e-06
9.98763e-06
9.98735e-06
9.98741e-06
9.99241e-06
1.0028e-05
1.02068e-05
1.07299e-05
1.17264e-05
1.35208e-05
1.72194e-05
2.47077e-05
3.62142e-05
5.10266e-05
6.63236e-05
7.45278e-05
9.91669e-05
0.000129967
0.000138756
0.000134163
0.000137448
0.000135859
0.000149401
0.000252909
0.0960598
0.99304
0.999989
0.999989
0.999995
0.999996
0.999997
0.999997
0.999998
0.999997
0.999997
0.999996
0.999996
0.999996
0.999997
0.999998
0.999998
0.999998
0.999998
0.999999
0.999999
0.999999
0.999999
0.999999
0.999999
0.999999
0.999999
0.999999
0.999999
0.999999
0.999999
0.999999
1
1
1
0.999999
1
2.00367e-06
2.04577e-06
3.51293e-06
4.52084e-06
5.39392e-06
6.25088e-06
7.12554e-06
7.96706e-06
8.70749e-06
9.25168e-06
9.59274e-06
9.80833e-06
9.91364e-06
9.96099e-06
9.97447e-06
9.98925e-06
9.99642e-06
9.9971e-06
9.99683e-06
9.99668e-06
9.99647e-06
9.99624e-06
9.99603e-06
9.99561e-06
9.99503e-06
9.99448e-06
9.99399e-06
9.99355e-06
9.99314e-06
9.99274e-06
9.99214e-06
9.99119e-06
9.98998e-06
9.98878e-06
9.9877e-06
9.98686e-06
9.98625e-06
9.98587e-06
9.98594e-06
9.99051e-06
1.00186e-05
1.01648e-05
1.0651e-05
1.17073e-05
1.36025e-05
1.7307e-05
2.39098e-05
3.28411e-05
4.36322e-05
5.43411e-05
7.58667e-05
0.000125355
0.000144022
0.000138899
0.00013087
0.00013798
0.000135894
0.000157583
0.000267935
0.133809
0.994384
0.999228
0.999291
0.999456
0.999489
0.999444
0.999397
0.999361
0.999332
0.999302
0.999292
0.999336
0.999395
0.999503
0.99962
0.99972
0.999789
0.999842
0.999896
0.999938
0.999967
0.999984
0.999992
0.999996
0.999997
0.999998
0.999999
0.999999
0.999999
0.999999
0.999999
1
1
1
0.999999
1
1.91588e-06
1.7721e-06
2.87631e-06
3.9932e-06
4.99492e-06
5.96786e-06
6.92773e-06
7.82699e-06
8.62817e-06
9.22536e-06
9.58425e-06
9.8065e-06
9.91234e-06
9.95995e-06
9.97324e-06
9.98784e-06
9.99539e-06
9.99594e-06
9.99565e-06
9.99545e-06
9.99522e-06
9.99495e-06
9.9947e-06
9.99427e-06
9.9937e-06
9.99316e-06
9.9927e-06
9.9923e-06
9.99196e-06
9.99165e-06
9.99115e-06
9.99028e-06
9.98911e-06
9.98792e-06
9.98682e-06
9.98597e-06
9.98532e-06
9.98484e-06
9.98506e-06
9.98906e-06
1.00123e-05
1.01413e-05
1.06326e-05
1.17232e-05
1.37574e-05
1.7879e-05
2.37552e-05
3.22085e-05
4.34543e-05
5.28413e-05
9.79293e-05
0.000144487
0.000147176
0.000139523
0.00013573
0.000137064
0.000138304
0.000191862
0.00036338
0.222812
0.983508
0.991934
0.991849
0.992027
0.992106
0.991803
0.991542
0.991246
0.99104
0.990978
0.991214
0.991551
0.992265
0.993155
0.994114
0.995043
0.995853
0.996556
0.997279
0.997976
0.998593
0.999093
0.99945
0.99967
0.999776
0.999839
0.999903
0.999952
0.999979
0.999995
1
1
1
1
1
1
1.86631e-06
1.57716e-06
2.34775e-06
3.407e-06
4.63487e-06
5.73224e-06
6.79535e-06
7.74768e-06
8.58802e-06
9.21445e-06
9.5813e-06
9.80597e-06
9.91188e-06
9.95946e-06
9.9727e-06
9.98719e-06
9.99499e-06
9.99544e-06
9.99516e-06
9.99497e-06
9.99479e-06
9.99451e-06
9.99426e-06
9.99385e-06
9.99329e-06
9.99278e-06
9.99236e-06
9.99197e-06
9.99168e-06
9.9914e-06
9.99095e-06
9.99012e-06
9.989e-06
9.98782e-06
9.98672e-06
9.98584e-06
9.98516e-06
9.98454e-06
9.98435e-06
9.98808e-06
1.00069e-05
1.01248e-05
1.06264e-05
1.18377e-05
1.41423e-05
1.86908e-05
2.4546e-05
3.314e-05
4.75138e-05
6.2154e-05
0.000115373
0.000153018
0.000153981
0.000149717
0.000149175
0.000161557
0.000189163
0.000233478
0.000233011
0.31364
0.972166
0.981185
0.980689
0.980543
0.980469
0.980325
0.980259
0.979531
0.979045
0.978886
0.979044
0.979156
0.979699
0.980431
0.981292
0.982398
0.983526
0.984702
0.986027
0.987485
0.989122
0.991004
0.993019
0.99482
0.996161
0.996908
0.997405
0.997886
0.998534
0.999272
0.999715
0.999778
0.999864
0.999905
0.999785
0.99952
1.84222e-06
1.45412e-06
1.92833e-06
2.759e-06
4.08038e-06
5.39735e-06
6.68229e-06
7.69472e-06
8.56741e-06
9.21095e-06
9.58115e-06
9.80849e-06
9.91352e-06
9.95966e-06
9.9725e-06
9.98684e-06
9.99477e-06
9.9952e-06
9.99504e-06
9.99493e-06
9.99491e-06
9.99494e-06
9.99487e-06
9.99461e-06
9.99416e-06
9.99372e-06
9.99329e-06
9.99288e-06
9.99252e-06
9.99218e-06
9.99169e-06
9.99081e-06
9.98965e-06
9.98843e-06
9.98727e-06
9.98631e-06
9.98545e-06
9.98454e-06
9.98427e-06
9.98788e-06
1.00047e-05
1.01144e-05
1.06313e-05
1.20326e-05
1.48048e-05
1.98189e-05
2.56428e-05
3.42289e-05
5.02187e-05
7.12916e-05
0.000119373
0.000162276
0.000166392
0.000175084
0.000191987
0.00020498
0.000209751
0.000220494
0.000173046
0.311365
0.967589
0.977709
0.976544
0.976276
0.97629
0.976113
0.975863
0.975649
0.975702
0.975696
0.975436
0.975254
0.975126
0.97497
0.974815
0.974713
0.974395
0.973735
0.973185
0.972816
0.972707
0.972752
0.97377
0.975283
0.977068
0.978265
0.978762
0.978894
0.978904
0.980615
0.980709
0.971481
0.958633
0.935791
0.870164
0.653934
1.76652e-06
1.38351e-06
1.62427e-06
2.14103e-06
3.35038e-06
4.87184e-06
6.50503e-06
7.65285e-06
8.55754e-06
9.21912e-06
9.59419e-06
9.81471e-06
9.91791e-06
9.96227e-06
9.97396e-06
9.9883e-06
9.99661e-06
9.9967e-06
9.99648e-06
9.9963e-06
9.99618e-06
9.99607e-06
9.99603e-06
9.99584e-06
9.99543e-06
9.99501e-06
9.99463e-06
9.99426e-06
9.99395e-06
9.99364e-06
9.99322e-06
9.99237e-06
9.99126e-06
9.99011e-06
9.98907e-06
9.98811e-06
9.98723e-06
9.98668e-06
9.98639e-06
9.98968e-06
1.0004e-05
1.01147e-05
1.0687e-05
1.22258e-05
1.54127e-05
2.08187e-05
2.64691e-05
3.52681e-05
5.33547e-05
7.95756e-05
9.72349e-05
0.000154349
0.000171801
0.000191731
0.000193838
0.000193718
0.000197408
0.000210068
0.000178572
0.237593
0.97239
0.984631
0.984527
0.985179
0.985495
0.985598
0.985698
0.985304
0.984943
0.984377
0.983336
0.981686
0.979833
0.978273
0.977271
0.976099
0.974991
0.973394
0.971094
0.968813
0.966623
0.964887
0.963007
0.960176
0.957547
0.955787
0.953055
0.949837
0.946701
0.943884
0.937032
0.928901
0.919766
0.907718
0.893443
0.883477
1.65253e-06
1.33802e-06
1.40619e-06
1.65657e-06
2.50919e-06
4.16072e-06
6.23405e-06
7.62924e-06
8.57316e-06
9.2407e-06
9.60606e-06
9.82448e-06
9.9246e-06
9.96444e-06
9.97506e-06
9.98961e-06
9.99828e-06
9.99834e-06
9.99822e-06
9.9981e-06
9.99803e-06
9.99799e-06
9.99797e-06
9.99778e-06
9.99736e-06
9.99692e-06
9.99651e-06
9.9961e-06
9.99573e-06
9.99538e-06
9.99494e-06
9.99401e-06
9.99281e-06
9.99152e-06
9.99036e-06
9.9892e-06
9.988e-06
9.98748e-06
9.98726e-06
9.99033e-06
1.00054e-05
1.01289e-05
1.07245e-05
1.23484e-05
1.57896e-05
2.15037e-05
2.75585e-05
3.74438e-05
5.72033e-05
8.52221e-05
9.20247e-05
0.000129199
0.000163693
0.000186805
0.000189295
0.00018018
0.000190126
0.00022947
0.000294257
0.172579
0.980444
0.993459
0.993876
0.994781
0.995213
0.995545
0.995676
0.995711
0.995768
0.995788
0.995339
0.994686
0.993787
0.992744
0.991637
0.990362
0.988695
0.986888
0.984816
0.982391
0.979986
0.977568
0.974564
0.970247
0.965058
0.961645
0.958467
0.954692
0.951179
0.948523
0.94679
0.945448
0.944728
0.95507
0.971044
0.985152
1.57307e-06
1.29534e-06
1.28548e-06
1.34403e-06
1.83794e-06
3.26802e-06
5.66387e-06
7.45825e-06
8.58743e-06
9.26592e-06
9.62085e-06
9.83684e-06
9.93019e-06
9.96491e-06
9.97422e-06
9.98958e-06
9.99858e-06
9.99856e-06
9.99858e-06
9.99856e-06
9.99857e-06
9.99856e-06
9.99856e-06
9.9984e-06
9.99802e-06
9.99763e-06
9.99723e-06
9.99686e-06
9.99653e-06
9.9962e-06
9.99582e-06
9.9949e-06
9.99369e-06
9.99246e-06
9.99146e-06
9.99054e-06
9.98974e-06
9.9891e-06
9.98901e-06
9.99181e-06
1.00101e-05
1.01455e-05
1.07819e-05
1.24545e-05
1.60111e-05
2.22051e-05
2.9275e-05
4.04787e-05
6.132e-05
8.85201e-05
9.90411e-05
0.000108753
0.000141204
0.000170667
0.00018532
0.000185328
0.000184069
0.000221737
0.000282267
0.130253
0.988685
0.998605
0.998823
0.999112
0.999207
0.999317
0.999354
0.999384
0.999394
0.999395
0.999302
0.999194
0.999047
0.998851
0.998609
0.998264
0.997723
0.996954
0.99615
0.995325
0.994567
0.993655
0.992479
0.990694
0.988271
0.986278
0.9847
0.983163
0.98178
0.981144
0.982152
0.984729
0.989285
0.994661
0.99809
0.999319
1.53027e-06
1.26313e-06
1.2341e-06
1.22502e-06
1.47291e-06
2.61753e-06
4.87018e-06
7.16548e-06
8.62658e-06
9.32272e-06
9.65507e-06
9.85472e-06
9.93463e-06
9.96359e-06
9.97166e-06
9.98576e-06
9.99699e-06
9.99857e-06
9.99856e-06
9.99857e-06
9.99856e-06
9.99856e-06
9.9985e-06
9.99826e-06
9.99793e-06
9.99757e-06
9.99721e-06
9.99688e-06
9.99659e-06
9.99624e-06
9.99585e-06
9.99486e-06
9.99356e-06
9.9923e-06
9.99136e-06
9.99058e-06
9.98994e-06
9.98936e-06
9.98963e-06
9.99233e-06
1.0013e-05
1.01712e-05
1.09112e-05
1.27172e-05
1.64071e-05
2.31688e-05
3.12791e-05
4.31002e-05
6.47012e-05
9.05599e-05
0.000103116
0.000108558
0.000121768
0.000143872
0.000165168
0.00016714
0.000149628
0.000249944
0.000405404
0.102136
0.99129
0.999873
0.9999
0.999934
0.999942
0.999951
0.999954
0.999955
0.999956
0.999957
0.999951
0.999943
0.999934
0.999918
0.999894
0.999857
0.999797
0.999702
0.999605
0.999536
0.999483
0.999408
0.999307
0.999169
0.99902
0.998904
0.998814
0.998684
0.998611
0.998722
0.998905
0.999256
0.999657
0.999881
0.999966
0.999988
1.55041e-06
1.36637e-06
1.23953e-06
1.2174e-06
1.21678e-06
1.75675e-06
3.37704e-06
5.97501e-06
8.43263e-06
9.37563e-06
9.68879e-06
9.86602e-06
9.9351e-06
9.95624e-06
9.96477e-06
9.98328e-06
9.99575e-06
9.99764e-06
9.99792e-06
9.99836e-06
9.99856e-06
9.99846e-06
9.99831e-06
9.99829e-06
9.99801e-06
9.99768e-06
9.99733e-06
9.99699e-06
9.99664e-06
9.99624e-06
9.99544e-06
9.99398e-06
9.99247e-06
9.99086e-06
9.98956e-06
9.98886e-06
9.98848e-06
9.98899e-06
9.9898e-06
9.99249e-06
1.00143e-05
1.0203e-05
1.10801e-05
1.3116e-05
1.69178e-05
2.40686e-05
3.30052e-05
4.43398e-05
6.76609e-05
9.31207e-05
0.000104428
0.000110357
0.000117808
0.000130771
0.000143939
0.000152564
0.000146186
0.000284308
0.000499192
0.0612346
0.963386
0.999995
0.999995
0.999997
0.999998
0.999998
0.999998
0.999998
0.999999
0.999999
0.999998
0.999998
0.999998
0.999997
0.999996
0.999995
0.999993
0.99999
0.999988
0.999989
0.99999
0.99999
0.99999
0.999989
0.999989
0.999991
0.999991
0.99999
0.999989
0.999991
0.999993
0.999995
0.999998
0.999999
0.999999
0.999999
1.68656e-06
1.83789e-06
1.57763e-06
1.54032e-06
1.20082e-06
1.22471e-06
1.80762e-06
3.74546e-06
7.33619e-06
9.44088e-06
9.74178e-06
9.87173e-06
9.91434e-06
9.93305e-06
9.94485e-06
9.97191e-06
9.99245e-06
9.9949e-06
9.99512e-06
9.99533e-06
9.99547e-06
9.99551e-06
9.99545e-06
9.99527e-06
9.99485e-06
9.99426e-06
9.99357e-06
9.99281e-06
9.99205e-06
9.9912e-06
9.99014e-06
9.98862e-06
9.98706e-06
9.98571e-06
9.98473e-06
9.98451e-06
9.98446e-06
9.9844e-06
9.98449e-06
9.98656e-06
1.00142e-05
1.02469e-05
1.1257e-05
1.35004e-05
1.73608e-05
2.42682e-05
3.28357e-05
4.34151e-05
7.55698e-05
9.72566e-05
0.000105259
0.000110867
0.000114633
0.00012292
0.000130247
0.000138997
0.00021141
0.000303065
0.000400203
0.0822675
0.982239
0.999993
1
1
1
1
0.999999
0.999999
0.999999
0.999999