/*--------------------------------*- C++ -*----------------------------------*\
| =========                 |                                                 |
| \\      /  F ield         | OpenFOAM: The Open Source CFD Toolbox           |
|  \\    /   O peration     | Version:  2.3.0                                 |
|   \\  /    A nd           | Web:      www.OpenFOAM.org                      |
|    \\/     M anipulation  |                                                 |
\*---------------------------------------------------------------------------*/
FoamFile
{
    version     2.0;
    format      ascii;
    class       surfaceScalarField;
    location    "56";
    object      phi;
}
// * * * * * * * * * * * * * * * * * * * * * * * * * * * * * * * * * * * * * //

dimensions      [0 3 -1 0 0 0 0];

internalField   nonuniform List<scalar> 
16448
(
-1.37e-06
-2.45334e-06
6.15847e-07
3.72277e-07
-2.53145e-06
7.89165e-07
4.05226e-07
-1.20099e-06
1.16804e-06
3.4194e-07
-1.00395e-06
1.06724e-06
-1.81791e-09
-5.32799e-07
8.76562e-07
-1.33232e-07
-6.70528e-07
8.01948e-07
-1.50469e-07
-7.01062e-07
7.18304e-07
-1.44544e-07
-6.74886e-07
6.68966e-07
-2.22299e-07
-5.24522e-07
6.02279e-07
-3.93487e-07
-3.71936e-07
5.43127e-07
-5.91021e-07
-2.73131e-07
4.70669e-07
-6.85938e-07
-2.79268e-07
3.74188e-07
-6.69029e-07
-3.14679e-07
2.97774e-07
-5.58267e-07
-3.5861e-07
2.47854e-07
-4.29064e-07
-3.72398e-07
2.432e-07
-2.90033e-07
-3.91168e-07
2.52144e-07
-1.64176e-07
-4.04199e-07
2.78348e-07
-5.73993e-08
-4.17238e-07
3.10469e-07
2.29511e-08
-4.28355e-07
3.48013e-07
7.6442e-08
-4.368e-07
3.83318e-07
1.01508e-07
-4.40705e-07
4.15649e-07
1.03529e-07
-4.44409e-07
4.42398e-07
9.08272e-08
-4.45123e-07
4.57836e-07
7.00156e-08
-4.40809e-07
4.61634e-07
4.51171e-08
-4.31033e-07
4.55945e-07
2.03052e-08
-4.1745e-07
4.42277e-07
-1.39188e-10
-4.02956e-07
4.23416e-07
-1.24383e-08
-3.90997e-07
4.03313e-07
-1.72725e-08
-3.78148e-07
3.83e-07
-1.80625e-08
-3.63724e-07
3.64533e-07
-1.60768e-08
-3.48923e-07
3.46957e-07
-9.7635e-09
-3.35153e-07
3.28862e-07
4.08593e-09
-3.23289e-07
3.09461e-07
3.02295e-08
-3.15191e-07
2.89072e-07
7.22553e-08
-3.11701e-07
2.697e-07
1.26692e-07
-3.1139e-07
2.5698e-07
1.83969e-07
-3.12658e-07
2.55407e-07
2.28652e-07
-3.13806e-07
2.6915e-07
2.27683e-07
-3.09243e-07
3.1024e-07
1.4285e-07
-3.14353e-07
3.99216e-07
-6.68385e-08
-3.42486e-07
5.52205e-07
-3.35721e-07
-4.578e-07
7.26716e-07
-5.11003e-07
-7.18243e-07
8.93557e-07
-4.56513e-07
-1.09099e-06
1.03653e-06
-8.09416e-08
-1.49964e-06
1.1241e-06
7.05556e-07
-1.9621e-06
1.17563e-06
1.66794e-06
-2.22348e-06
1.26113e-06
2.0846e-06
-1.85147e-06
1.43484e-06
1.11761e-06
-5.91916e-07
1.55894e-06
-7.08639e-07
2.48883e-07
1.57739e-06
-8.20317e-07
-2.74108e-06
2.85278e-06
3.64354e-07
-3.11208e-06
1.92743e-06
3.7009e-06
-1.99608e-06
-1.34045e-06
9.4813e-06
-1.77437e-06
-4.00602e-06
1.53862e-05
-2.26412e-06
-3.64084e-06
1.52824e-05
1.33602e-06
-1.2322e-06
1.03568e-05
3.55971e-06
1.36586e-06
1.27991e-05
2.96568e-06
-5.40809e-06
-5.5368e-06
9.14121e-06
9.19436e-06
2.79143e-07
-1.48785e-07
-5.66735e-06
2.18664e-05
-1.252e-05
-9.06718e-06
3.01354e-05
-7.31954e-06
-9.49485e-07
2.91653e-05
-3.72658e-06
4.69671e-06
3.10631e-05
-4.31902e-06
2.42113e-06
3.29723e-05
-3.52583e-06
1.61669e-06
3.36757e-05
-2.34432e-06
1.64093e-06
3.37178e-05
-2.3781e-06
2.33598e-06
3.33578e-05
-2.33932e-06
2.69934e-06
3.26919e-05
-2.65102e-06
3.31685e-06
3.15218e-05
-2.856e-06
4.02614e-06
2.84633e-05
-1.14814e-06
4.20657e-06
2.48326e-05
-8.47771e-07
4.47847e-06
2.10385e-05
-1.50928e-06
5.30345e-06
1.7035e-05
-1.9053e-06
5.90873e-06
1.35167e-05
-2.50441e-06
6.0227e-06
1.12249e-05
-2.75886e-06
5.05072e-06
1.08562e-05
-2.99944e-06
3.36811e-06
1.17781e-05
-2.78572e-06
1.86379e-06
1.41777e-05
-2.57514e-06
1.75593e-07
1.62313e-05
-1.13506e-06
-9.18613e-07
1.56743e-05
6.36625e-07
-7.96084e-08
1.28957e-05
1.43666e-06
1.342e-06
1.06448e-05
-3.76199e-07
2.62706e-06
9.8251e-06
-2.78114e-06
3.60085e-06
1.07282e-05
-4.83368e-06
3.93062e-06
1.24418e-05
-5.39581e-06
3.68214e-06
1.40758e-05
-4.74878e-06
3.11484e-06
1.56311e-05
-3.79577e-06
2.24043e-06
1.73164e-05
-2.90269e-06
1.21735e-06
1.8416e-05
-1.81142e-06
7.11826e-07
1.83251e-05
-5.15247e-07
6.06191e-07
1.72271e-05
5.54177e-07
5.43837e-07
1.37244e-05
2.62376e-06
8.78926e-07
8.68373e-06
5.50537e-06
-4.64709e-07
3.41935e-06
7.31045e-06
-2.04607e-06
8.03176e-06
-4.61241e-06
-2.13612e-06
-3.52525e-06
-1.13652e-07
-7.35756e-07
-3.81809e-06
-1.13715e-07
-3.60023e-07
-2.27844e-06
7.01728e-07
6.73964e-08
-1.87759e-06
4.46233e-07
1.2309e-07
-8.996e-07
3.1112e-07
-1.49183e-08
-8.02718e-07
2.70211e-07
-1.26106e-07
-7.42879e-07
1.53015e-07
-2.2066e-07
-6.70435e-07
9.01119e-08
-3.77828e-07
-4.51366e-07
8.40202e-08
-5.97433e-07
-2.67386e-07
1.15064e-07
-7.94622e-07
-1.76901e-07
1.00968e-07
-8.62565e-07
-2.32861e-07
2.1545e-08
-8.30781e-07
-2.99268e-07
-4.71846e-08
-7.19241e-07
-3.7074e-07
-9.93989e-08
-5.83486e-07
-3.95004e-07
-1.13136e-07
-4.36387e-07
-4.23458e-07
-1.14796e-07
-2.99066e-07
-4.40488e-07
-1.01017e-07
-1.77459e-07
-4.56973e-07
-8.18566e-08
-7.91966e-08
-4.68764e-07
-5.78366e-08
-6.79421e-09
-4.75668e-07
-3.35155e-08
3.75342e-08
-4.75098e-07
-9.91507e-09
5.69601e-08
-4.70937e-07
7.12395e-09
5.9864e-08
-4.62546e-07
1.45427e-08
5.17731e-08
-4.4879e-07
1.60966e-08
3.66872e-08
-4.29008e-07
1.30877e-08
1.8284e-08
-4.05564e-07
6.54631e-09
6.27542e-10
-3.81605e-07
-3.66358e-09
-1.15724e-08
-3.5989e-07
-1.88748e-08
-1.7538e-08
-3.38176e-07
-3.39718e-08
-1.89025e-08
-3.14148e-07
-4.81752e-08
-1.6077e-08
-2.89805e-07
-6.19053e-08
-8.13624e-09
-2.6769e-07
-7.53651e-08
7.19256e-09
-2.50173e-07
-8.84026e-08
3.33431e-08
-2.41491e-07
-9.98078e-08
7.27576e-08
-2.42622e-07
-1.08449e-07
1.22644e-07
-2.50193e-07
-1.11037e-07
1.73977e-07
-2.59556e-07
-1.04387e-07
2.0438e-07
-2.64271e-07
-7.98881e-08
1.69067e-07
-2.52919e-07
-2.0959e-08
2.30273e-08
-2.36043e-07
6.77821e-08
-2.46076e-07
-2.66607e-07
1.9328e-07
-5.57645e-07
-4.55511e-07
3.09336e-07
-8.6723e-07
-8.30743e-07
4.22143e-07
-1.11618e-06
-1.45617e-06
6.14187e-07
-1.15968e-06
-2.2685e-06
8.12422e-07
-8.19367e-07
-3.20834e-06
9.05983e-07
-4.10305e-07
-3.68048e-06
1.04799e-06
-7.10026e-07
-2.87336e-06
1.32167e-06
-1.90584e-06
-1.15786e-06
1.76181e-06
-2.50625e-06
-7.75904e-07
1.62525e-06
-2.03514e-06
-4.54895e-06
1.33681e-06
-1.522e-07
-5.62482e-06
6.29849e-07
5.66232e-06
-5.38983e-06
-2.42073e-06
1.39872e-05
-5.6538e-06
-4.44545e-06
1.98742e-05
-5.80714e-06
-2.34399e-06
2.02948e-05
3.92641e-07
5.22846e-07
1.60333e-05
4.6179e-06
3.20326e-06
1.61461e-05
8.48936e-06
-5.63656e-06
-2.59305e-06
1.17546e-05
1.61253e-05
6.27263e-07
-1.11396e-07
-3.25794e-06
1.68793e-05
-1.77443e-05
-1.10278e-05
2.05861e-05
-1.3439e-05
2.41268e-06
1.88586e-05
-8.3624e-06
6.36332e-06
1.98243e-05
-7.39902e-06
2.11435e-06
1.9054e-05
-5.60187e-06
2.84637e-06
1.65162e-05
-3.68585e-06
3.87929e-06
1.23714e-05
-3.24046e-06
5.00722e-06
7.65013e-06
-2.68582e-06
5.06773e-06
2.59929e-06
-3.17938e-06
5.5792e-06
-2.58958e-06
-3.8663e-06
6.19917e-06
-6.59901e-06
-2.28307e-06
5.14437e-06
-9.48232e-06
-2.653e-06
4.68854e-06
-9.24446e-06
-4.40438e-06
2.65725e-06
-7.98771e-06
-4.71019e-06
1.54815e-06
-7.75683e-06
-3.80724e-06
1.07194e-06
-7.0506e-06
-4.14254e-06
6.77456e-07
-5.51231e-06
-4.89747e-06
3.59745e-07
-3.25314e-06
-4.66319e-06
-3.81688e-07
-8.85819e-07
-3.47515e-06
-1.46732e-06
1.62306e-06
-2.40254e-06
-1.2414e-06
3.12424e-06
-1.55116e-06
6.86606e-07
3.13914e-06
-1.90366e-06
3.32542e-06
3.05335e-06
-4.7026e-06
4.41219e-06
4.05829e-06
-7.66549e-06
3.87941e-06
5.99447e-06
-1.01832e-05
3.41334e-06
8.41137e-06
-9.38996e-06
1.57725e-06
1.07675e-05
-6.95565e-06
-1.49238e-07
1.29106e-05
-4.97885e-06
-9.60091e-07
1.50762e-05
-3.42595e-06
-1.6423e-06
1.61288e-05
-1.48419e-06
-1.37982e-06
1.57921e-05
9.7439e-07
-1.15292e-06
1.42113e-05
2.83098e-06
-6.96061e-07
1.01518e-05
6.17027e-06
5.13047e-07
6.29069e-06
1.11849e-05
-1.81845e-06
3.10363e-06
1.52016e-05
-4.70411e-06
1.75371e-05
-6.40173e-06
-2.64931e-06
-3.79964e-06
-4.02822e-07
-1.53744e-06
-4.33435e-06
-5.9559e-07
-1.07486e-06
-2.95992e-06
2.18903e-07
-4.38376e-07
-2.58042e-06
6.63681e-08
-1.34292e-07
-1.22145e-06
1.77741e-08
-1.55526e-07
-7.94836e-07
1.33623e-08
-2.68171e-07
-4.91155e-07
-1.39069e-07
-3.5354e-07
-4.13222e-07
-1.71836e-07
-4.56161e-07
-1.76649e-07
-1.72089e-07
-5.6022e-07
-2.84111e-08
-1.3491e-07
-6.7611e-07
4.9482e-08
-1.10485e-07
-7.2874e-07
-2.65831e-08
-1.53639e-07
-7.31919e-07
-8.66453e-08
-2.09435e-07
-6.84477e-07
-1.61087e-07
-2.57083e-07
-6.09248e-07
-1.90994e-07
-2.79229e-07
-5.16573e-07
-2.21648e-07
-2.94471e-07
-4.22364e-07
-2.37345e-07
-2.97338e-07
-3.3115e-07
-2.52044e-07
-2.96129e-07
-2.49895e-07
-2.59941e-07
-2.90062e-07
-1.8043e-07
-2.62672e-07
-2.82443e-07
-1.24272e-07
-2.57042e-07
-2.74195e-07
-8.17178e-08
-2.4503e-07
-2.68441e-07
-5.24951e-08
-2.27631e-07
-2.64115e-07
-3.45881e-08
-2.05652e-07
-2.61021e-07
-2.52943e-08
-1.79369e-07
-2.58908e-07
-2.1787e-08
-1.50895e-07
-2.5815e-07
-2.18076e-08
-1.22695e-07
-2.58861e-07
-2.43679e-08
-9.59871e-08
-2.61313e-07
-2.72101e-08
-7.00632e-08
-2.65239e-07
-2.89186e-08
-4.24878e-08
-2.69918e-07
-2.85912e-08
-1.56405e-08
-2.74457e-07
-2.67203e-08
8.22728e-09
-2.77751e-07
-2.64089e-08
2.8463e-08
-2.78909e-07
-2.82256e-08
3.83583e-08
-2.77992e-07
-3.21977e-08
3.55013e-08
-2.74109e-07
-3.8417e-08
2.26424e-08
-2.66572e-07
-5.2859e-08
6.38672e-09
-2.51456e-07
-9.81322e-08
1.04182e-09
-2.19992e-07
-2.05287e-07
1.79204e-08
-1.63637e-07
-3.86998e-07
2.53196e-08
-7.95997e-08
-5.78738e-07
-8.539e-08
1.05739e-08
-7.23014e-07
-3.88178e-07
7.69961e-08
-1.01441e-06
-7.09101e-07
1.69811e-07
-1.61851e-06
-1.1894e-06
3.37384e-07
-2.46714e-06
-1.95568e-06
5.35867e-07
-3.55867e-06
-2.86819e-06
7.51445e-07
-4.99315e-06
-3.28303e-06
1.03709e-06
-6.31877e-06
-2.8721e-06
1.32442e-06
-6.12244e-06
-2.2408e-06
8.86673e-07
-4.20502e-06
-2.54496e-06
-1.48308e-07
-1.22157e-06
-6.04107e-06
-1.49127e-06
3.36177e-06
-8.54322e-06
-1.66489e-06
1.06888e-05
-1.01443e-05
-2.57247e-06
1.94535e-05
-1.01063e-05
-4.31223e-06
2.49782e-05
-8.88613e-06
-2.44572e-06
2.68979e-05
-3.19228e-06
1.66524e-06
2.17002e-05
4.37311e-06
5.44242e-06
2.05857e-05
1.05212e-05
-9.17457e-07
-3.83816e-06
1.51415e-05
2.10364e-05
4.22012e-07
-4.84597e-06
4.74126e-07
1.74798e-05
-2.1023e-05
-1.3779e-05
1.90556e-05
-1.41322e-05
-8.82572e-07
1.71325e-05
-8.67019e-06
2.23082e-06
1.72936e-05
-7.95625e-06
3.9616e-07
1.24216e-05
-6.46765e-06
5.73776e-06
8.49256e-06
-4.69221e-06
4.93543e-06
5.28326e-06
-4.1439e-06
4.11273e-06
2.8046e-06
-3.53002e-06
3.32287e-06
-1.33872e-06
-3.31194e-06
4.27588e-06
-5.45914e-06
-2.92264e-06
3.17677e-06
-5.22143e-06
-1.23485e-06
-1.28594e-06
-2.02783e-06
7.17368e-07
-6.56396e-06
-1.23551e-06
7.79069e-07
-5.97577e-06
-3.06413e-06
-4.25266e-07
-2.45631e-06
-7.1268e-06
-7.35393e-07
9.9083e-07
-1.03797e-05
-1.75387e-06
8.64251e-07
-1.16221e-05
-3.18825e-06
-4.66794e-07
-1.00541e-05
-4.81939e-06
-1.4118e-06
-7.87076e-06
-5.24132e-06
-4.17202e-07
-5.84642e-06
-5.3728e-06
9.45914e-07
-3.96243e-06
-5.49519e-06
2.06005e-06
-2.0079e-06
-6.13208e-06
2.27388e-06
-2.74345e-08
-7.15011e-06
4.67046e-07
2.14993e-06
-9.08807e-06
-7.54779e-07
4.69038e-06
-1.16913e-05
-1.03238e-06
7.83319e-06
-1.03556e-05
-2.17713e-06
1.07699e-05
-5.80865e-06
-4.08375e-06
1.29053e-05
-2.2774e-06
-4.83676e-06
1.48217e-05
-9.15437e-07
-4.42701e-06
1.50896e-05
7.62308e-07
-2.51436e-06
1.30363e-05
3.1393e-06
-1.11586e-07
9.03512e-06
4.7692e-06
2.06293e-06
5.02104e-06
8.55276e-06
1.63159e-06
2.49705e-06
1.5363e-05
-1.6541e-06
8.98233e-07
2.19497e-05
-5.14923e-06
2.58678e-05
-7.43242e-06
-3.12203e-06
-3.85337e-06
-1.75059e-07
-2.04687e-06
-4.57575e-06
-8.33759e-07
-1.71109e-06
-3.38424e-06
8.85486e-08
-1.04575e-06
-3.2823e-06
3.65428e-08
-5.65313e-07
-1.84653e-06
1.44657e-07
-3.56758e-07
-1.07098e-06
6.76019e-08
-3.71653e-07
-3.28713e-07
-1.47539e-07
-3.93428e-07
-1.81034e-07
-2.10407e-07
-3.84607e-07
3.99034e-08
-2.25366e-07
-4.06989e-07
1.85983e-07
-1.92006e-07
-4.6356e-07
2.94951e-07
-1.88892e-07
-5.28666e-07
2.53324e-07
-2.14794e-07
-5.91032e-07
2.23319e-07
-2.4759e-07
-6.03422e-07
1.42142e-07
-2.9083e-07
-5.79634e-07
1.02562e-07
-3.17333e-07
-5.27103e-07
6.86668e-08
-3.42833e-07
-4.61889e-07
5.64389e-08
-3.58984e-07
-3.92955e-07
5.14376e-08
-3.724e-07
-3.26774e-07
5.45716e-08
-3.80678e-07
-2.65349e-07
6.14617e-08
-3.8554e-07
-2.0905e-07
7.3973e-08
-3.87296e-07
-1.58848e-07
9.10382e-08
-3.86249e-07
-1.16785e-07
1.12634e-07
-3.82306e-07
-8.39926e-08
1.38203e-07
-3.76624e-07
-6.02636e-08
1.67447e-07
-3.7052e-07
-4.51734e-08
1.98787e-07
-3.64746e-07
-3.69251e-08
2.2876e-07
-3.59674e-07
-3.32425e-08
2.56184e-07
-3.55824e-07
-3.24701e-08
2.82897e-07
-3.53701e-07
-3.42877e-08
3.11732e-07
-3.52369e-07
-3.99263e-08
3.41138e-07
-3.51104e-07
-5.06935e-08
3.67574e-07
-3.48543e-07
-6.82289e-08
3.89002e-07
-3.42964e-07
-9.68302e-08
4.00864e-07
-3.33865e-07
-1.38716e-07
3.99714e-07
-3.22285e-07
-1.95647e-07
3.88668e-07
-3.09052e-07
-2.76092e-07
3.78699e-07
-2.91821e-07
-4.01796e-07
3.89243e-07
-2.62452e-07
-5.86772e-07
4.16759e-07
-2.13813e-07
-7.6981e-07
3.63337e-07
-1.54931e-07
-8.40861e-07
9.29481e-08
-1.07235e-07
-7.96097e-07
-3.26975e-07
-1.05916e-07
-9.41016e-07
-5.43622e-07
-2.0506e-08
-1.56727e-06
-7.13032e-07
1.49942e-07
-2.75057e-06
-1.18641e-06
4.14081e-07
-4.57093e-06
-1.80442e-06
7.56643e-07
-6.69086e-06
-2.14974e-06
9.86698e-07
-8.00971e-06
-2.43836e-06
8.8518e-07
-6.79941e-06
-3.19344e-06
-2.57595e-07
-3.38735e-06
-4.33444e-06
-1.62251e-06
8.14127e-07
-7.82866e-06
-2.41384e-06
6.48848e-06
-1.13748e-05
-2.8427e-06
1.42434e-05
-1.50615e-05
-2.83776e-06
2.18388e-05
-1.35658e-05
-4.13585e-06
2.55949e-05
-1.08407e-05
-1.80156e-06
2.92532e-05
-1.00754e-05
3.22482e-06
2.52923e-05
3.21284e-06
5.1212e-06
2.50101e-05
7.50871e-06
3.29451e-06
-2.46183e-06
1.31579e-05
2.94549e-05
1.40189e-06
-5.1374e-06
-3.57266e-06
1.56456e-05
-2.15908e-05
-1.3676e-05
1.58135e-05
-1.16051e-05
-2.69488e-06
1.51381e-05
-7.58742e-06
-4.07417e-07
1.36275e-05
-7.72702e-06
1.28134e-06
8.94142e-06
-5.60289e-06
3.82138e-06
4.62055e-06
-2.47879e-06
2.10745e-06
2.19545e-07
8.06978e-07
-5.49862e-07
-3.50446e-06
2.22619e-06
-2.03221e-06
-6.69473e-06
2.26852e-06
-2.39019e-06
-9.29455e-06
2.74564e-06
-3.06847e-06
-1.15554e-05
3.90702e-06
-2.88101e-06
-1.37288e-05
5.64601e-06
-2.75529e-06
-1.78676e-05
5.08258e-06
-1.64693e-07
-2.10352e-05
1.35738e-06
1.38496e-06
-2.16111e-05
-2.16532e-06
2.00585e-06
-2.02762e-05
-3.6191e-06
5.30321e-07
-1.75245e-05
-4.48542e-06
-1.45451e-06
-1.47253e-05
-5.62125e-06
-1.9974e-06
-1.22851e-05
-6.49165e-06
-1.18984e-06
-9.45514e-06
-6.98931e-06
-1.21343e-06
-6.55947e-06
-6.64327e-06
-1.74759e-06
-3.33275e-06
-5.84168e-06
-3.51711e-06
-5.20866e-07
-5.32873e-06
-4.63326e-06
1.97136e-06
-7.68129e-06
-3.899e-06
4.611e-06
-1.19435e-05
-2.38742e-06
7.96735e-06
-1.27231e-05
-9.88875e-07
1.16155e-05
-6.48579e-06
-2.97106e-06
1.43095e-05
-4.07777e-07
-4.56361e-06
1.72847e-05
1.30711e-06
-5.19777e-06
1.91801e-05
3.20487e-06
-4.33795e-06
1.76122e-05
7.38693e-06
-2.67969e-06
1.15684e-05
1.0259e-05
5.53984e-07
5.83265e-06
1.36827e-05
6.05785e-07
2.86345e-06
2.10036e-05
-2.67146e-06
5.96935e-07
2.8541e-05
-4.32483e-06
3.31226e-05
-6.65791e-06
-3.52229e-06
-3.74895e-06
4.51205e-08
-2.47288e-06
-4.7158e-06
-9.09344e-07
-2.22662e-06
-3.58418e-06
-4.62988e-08
-1.55225e-06
-3.80888e-06
-1.47777e-07
-1.05278e-06
-2.64051e-06
2.94517e-07
-5.468e-07
-1.76389e-06
1.86934e-07
-3.84975e-07
-3.71412e-07
-1.1912e-07
-3.95157e-07
1.41088e-08
-1.84956e-07
-3.24595e-07
2.1036e-07
-2.41014e-07
-2.90013e-07
3.7035e-07
-2.18944e-07
-2.96764e-07
5.13818e-07
-2.12112e-07
-3.65559e-07
5.26279e-07
-2.04154e-07
-4.64242e-07
5.31868e-07
-2.09858e-07
-5.18664e-07
4.34721e-07
-2.38148e-07
-5.25931e-07
3.7204e-07
-2.62202e-07
-4.96458e-07
3.29242e-07
-2.90038e-07
-4.49154e-07
3.214e-07
-3.12254e-07
-3.98137e-07
3.33517e-07
-3.33082e-07
-3.47437e-07
3.5403e-07
-3.50144e-07
-2.97464e-07
3.75401e-07
-3.63897e-07
-2.4645e-07
3.97669e-07
-3.74692e-07
-1.95878e-07
4.2194e-07
-3.81456e-07
-1.48926e-07
4.49445e-07
-3.83743e-07
-1.08123e-07
4.79148e-07
-3.81727e-07
-7.46646e-08
5.10279e-07
-3.76267e-07
-4.95261e-08
5.4163e-07
-3.67957e-07
-3.17857e-08
5.69487e-07
-3.58442e-07
-2.07067e-08
5.93998e-07
-3.48866e-07
-1.75859e-08
6.19019e-07
-3.39214e-07
-2.26259e-08
6.46441e-07
-3.29638e-07
-3.69289e-08
6.74992e-07
-3.19519e-07
-6.22878e-08
7.01536e-07
-3.08569e-07
-1.02248e-07
7.25656e-07
-2.9666e-07
-1.60835e-07
7.44332e-07
-2.84843e-07
-2.45018e-07
7.57483e-07
-2.7355e-07
-3.64183e-07
7.70045e-07
-2.62172e-07
-5.25422e-07
7.89235e-07
-2.49259e-07
-7.27868e-07
8.21896e-07
-2.30163e-07
-9.47111e-07
8.35695e-07
-1.99652e-07
-1.10347e-06
6.9524e-07
-1.75499e-07
-1.10473e-06
2.86833e-07
-1.92578e-07
-9.91817e-07
-1.4524e-07
-2.94607e-07
-9.72895e-07
-2.69555e-07
-2.92945e-07
-1.37967e-06
-2.35639e-07
-7.05738e-08
-2.38301e-06
-4.32932e-07
2.49913e-07
-4.06926e-06
-7.59567e-07
6.41448e-07
-6.10882e-06
-9.52124e-07
8.42002e-07
-7.43806e-06
-1.51512e-06
4.06052e-07
-6.3972e-06
-3.55379e-06
-6.80453e-07
-2.6438e-06
-6.0748e-06
-2.01299e-06
1.82895e-06
-9.52874e-06
-2.77263e-06
6.31767e-06
-1.31706e-05
-2.69288e-06
1.11703e-05
-1.58133e-05
-4.10083e-06
1.63676e-05
-1.21124e-05
-6.65057e-06
1.9181e-05
-1.03371e-05
-3.31704e-06
2.40909e-05
-1.89182e-05
3.93287e-06
2.19028e-05
2.38185e-06
3.01923e-06
2.364e-05
5.88306e-07
5.18307e-06
-2.3768e-06
6.22732e-06
3.29463e-05
2.81462e-07
-5.0207e-06
-2.77525e-06
1.39797e-05
-2.17098e-05
-1.35792e-05
1.26859e-05
-6.8797e-06
-3.43158e-06
1.32892e-05
-5.92666e-06
-2.26409e-06
1.26454e-05
-7.08846e-06
5.24184e-09
1.12533e-05
-4.98195e-06
7.71164e-07
8.05018e-06
9.84975e-08
6.25876e-07
1.32375e-06
5.89838e-06
1.63504e-06
-6.77063e-06
7.44329e-06
2.8773e-06
-1.25463e-05
5.92249e-06
2.12172e-06
-1.55711e-05
4.67294e-06
1.09755e-06
-1.82576e-05
5.28486e-06
1.30864e-06
-2.05753e-05
6.10829e-06
1.8554e-06
-2.27602e-05
4.6076e-06
2.65994e-06
-2.48258e-05
9.62881e-07
2.46006e-06
-2.49132e-05
-2.96278e-06
8.84951e-07
-2.30028e-05
-4.96163e-06
-5.67924e-07
-2.05927e-05
-6.40269e-06
-4.92761e-07
-1.85725e-05
-7.38061e-06
-2.609e-07
-1.58563e-05
-8.45817e-06
-7.49652e-07
-1.20757e-05
-9.338e-06
-1.43188e-06
-7.57652e-06
-7.99863e-06
-3.14384e-06
-2.16126e-06
-6.65235e-06
-4.60459e-06
2.22565e-06
-6.61011e-06
-3.10553e-06
4.04587e-06
-9.51842e-06
1.69084e-08
4.34804e-06
-1.50456e-05
2.79993e-06
6.2074e-06
-1.94924e-05
4.90988e-06
9.52468e-06
-1.24943e-05
2.69127e-06
1.22834e-05
-1.85477e-06
-1.31168e-06
1.59646e-05
8.90008e-07
-3.2641e-06
1.95288e-05
2.66282e-06
-3.02218e-06
1.90249e-05
8.78804e-06
-8.9724e-07
1.32042e-05
1.36602e-05
2.41956e-06
7.43748e-06
1.85105e-05
9.38892e-07
5.19489e-06
2.66511e-05
-3.40485e-06
2.37444e-06
3.44946e-05
-3.13315e-06
4.07054e-05
-5.20835e-06
-3.90747e-06
-3.481e-06
3.87581e-07
-2.92057e-06
-4.84489e-06
-8.5781e-07
-2.65036e-06
-3.68664e-06
-1.6774e-07
-1.79504e-06
-4.04136e-06
-6.22829e-07
-1.29584e-06
-3.25721e-06
1.17504e-07
-6.10141e-07
-2.58442e-06
1.34844e-07
-3.00544e-07
-6.38684e-07
-4.23222e-08
-3.30171e-07
1.4568e-07
-1.01942e-07
-2.50584e-07
3.57554e-07
-2.2678e-07
-1.99708e-07
5.23318e-07
-2.03841e-07
-1.76608e-07
6.92036e-07
-2.01316e-07
-2.50097e-07
7.77088e-07
-1.77317e-07
-3.71591e-07
8.19752e-07
-1.66385e-07
-4.4586e-07
6.96726e-07
-1.87731e-07
-4.56034e-07
6.01124e-07
-2.18903e-07
-4.27711e-07
5.53747e-07
-2.52821e-07
-3.85416e-07
5.60505e-07
-2.81391e-07
-3.48554e-07
6.00768e-07
-3.04104e-07
-3.18476e-07
6.46631e-07
-3.22669e-07
-2.91316e-07
6.85689e-07
-3.37437e-07
-2.6152e-07
7.17002e-07
-3.49116e-07
-2.28239e-07
7.44733e-07
-3.5606e-07
-1.93652e-07
7.72472e-07
-3.57598e-07
-1.60093e-07
8.0051e-07
-3.54905e-07
-1.31882e-07
8.30395e-07
-3.4831e-07
-1.10011e-07
8.58172e-07
-3.38395e-07
-9.22791e-08
8.7772e-07
-3.25945e-07
-7.86924e-08
8.92907e-07
-3.12475e-07
-7.2128e-08
9.10549e-07
-2.98073e-07
-7.69785e-08
9.35127e-07
-2.83813e-07
-9.78453e-08
9.66197e-07
-2.70314e-07
-1.37971e-07
9.99499e-07
-2.57813e-07
-2.00866e-07
1.03499e-06
-2.46408e-07
-2.90124e-07
1.06962e-06
-2.36001e-07
-4.11102e-07
1.1045e-06
-2.26006e-07
-5.66477e-07
1.14172e-06
-2.16269e-07
-7.48401e-07
1.1786e-06
-2.07407e-07
-9.27611e-07
1.20155e-06
-2.00412e-07
-1.06549e-06
1.16582e-06
-1.92216e-07
-1.14018e-06
9.75227e-07
-2.05269e-07
-1.18228e-06
6.14658e-07
-2.85689e-07
-1.16955e-06
3.11273e-07
-4.69216e-07
-1.11748e-06
2.43166e-07
-5.64757e-07
-1.31092e-06
3.37808e-07
-3.79984e-07
-2.07734e-06
3.55973e-07
-2.24509e-08
-3.53729e-06
3.35843e-07
3.64566e-07
-5.30349e-06
2.37881e-07
5.76237e-07
-6.22077e-06
-6.8232e-07
8.45174e-08
-5.27993e-06
-3.52486e-06
-9.69731e-07
-2.51736e-06
-6.68036e-06
-2.15698e-06
-9.04577e-07
-8.4857e-06
-2.65578e-06
-1.21796e-06
-9.84309e-06
-3.01413e-06
7.31243e-07
-9.02986e-06
-8.7326e-06
3.26579e-06
-6.85014e-06
-7.79676e-06
7.77709e-06
-1.08552e-05
-3.9931e-06
9.84813e-06
-2.09815e-05
-7.60908e-09
1.28974e-05
3.00509e-06
-3.67224e-06
1.23128e-05
-1.44633e-06
2.61911e-06
-2.6509e-06
-5.48905e-06
2.66785e-05
8.8163e-07
-2.79644e-06
-5.75673e-06
7.62042e-06
-1.62084e-05
-1.22399e-05
7.14309e-06
-3.94308e-06
-2.45905e-06
1.20618e-05
-7.44888e-06
-3.3963e-06
7.98985e-06
-2.64897e-06
-3.67425e-07
4.76857e-06
-1.79372e-06
3.31991e-08
8.45973e-07
3.4226e-06
5.98643e-07
-4.17506e-06
8.86076e-06
2.05882e-06
-1.07172e-05
1.03995e-05
3.58616e-06
-1.6547e-05
8.06609e-06
3.68638e-06
-2.32849e-05
7.4284e-06
3.9827e-06
-3.03617e-05
8.13586e-06
4.226e-06
-3.39591e-05
6.94815e-06
2.75786e-06
-3.23101e-05
2.01058e-06
9.48308e-07
-3.05411e-05
-1.63182e-06
8.2596e-07
-2.97105e-05
-4.76035e-06
9.6718e-07
-2.80501e-05
-7.22288e-06
6.01087e-07
-2.51799e-05
-9.07618e-06
-1.96529e-07
-2.1641e-05
-9.80832e-06
-1.11102e-06
-1.75451e-05
-9.76249e-06
-2.79139e-06
-1.2201e-05
-1.12538e-05
-3.42828e-06
-5.68122e-06
-1.11994e-05
-3.31898e-06
1.26841e-06
-1.10834e-05
-2.51857e-06
7.23562e-06
-1.16982e-05
-8.79147e-07
9.84134e-06
-1.24631e-05
3.3895e-07
8.79884e-06
-1.71095e-05
3.10644e-06
6.49482e-06
-2.2396e-05
5.20767e-06
7.14711e-06
-1.85299e-05
5.38324e-06
9.30574e-06
-5.0005e-06
9.87093e-07
1.40686e-05
-1.82616e-06
-2.04665e-06
1.86844e-05
4.51241e-07
-2.40427e-06
1.80002e-05
8.16587e-06
1.30637e-06
1.16535e-05
1.52213e-05
4.78568e-06
6.47762e-06
2.15185e-05
2.16778e-06
5.42126e-06
3.08586e-05
-3.15122e-06
3.22845e-06
3.96033e-05
-2.91585e-06
4.90821e-05
-5.14822e-06
-4.22606e-06
-3.01995e-06
7.88946e-07
-3.36845e-06
-4.84042e-06
-8.62079e-07
-3.10153e-06
-3.57812e-06
-3.75424e-07
-1.95956e-06
-3.99322e-06
-1.19011e-06
-1.29439e-06
-3.50677e-06
-4.15607e-07
-4.67777e-07
-3.02248e-06
-3.88554e-07
-1.22866e-07
-8.6745e-07
-1.16148e-07
-2.45174e-07
3.32411e-07
-6.44258e-08
-1.89432e-07
5.40616e-07
-2.38806e-07
-1.75761e-07
7.21571e-07
-2.11926e-07
-1.44295e-07
8.83015e-07
-2.22446e-07
-1.94127e-07
9.92804e-07
-1.65885e-07
-2.82252e-07
1.04899e-06
-1.41108e-07
-3.2786e-07
9.0533e-07
-1.62997e-07
-3.24634e-07
8.08815e-07
-2.10915e-07
-2.99391e-07
7.75754e-07
-2.4725e-07
-2.7396e-07
8.09874e-07
-2.74797e-07
-2.62552e-07
8.80109e-07
-2.90747e-07
-2.63412e-07
9.49242e-07
-3.01747e-07
-2.6986e-07
1.00231e-06
-3.10169e-07
-2.75473e-07
1.03948e-06
-3.16857e-07
-2.77081e-07
1.06684e-06
-3.20494e-07
-2.73611e-07
1.08899e-06
-3.19983e-07
-2.6627e-07
1.10809e-06
-3.1491e-07
-2.59934e-07
1.12904e-06
-3.04973e-07
-2.55779e-07
1.14596e-06
-2.91933e-07
-2.48922e-07
1.15157e-06
-2.80693e-07
-2.4034e-07
1.15432e-06
-2.69982e-07
-2.33554e-07
1.16324e-06
-2.59467e-07
-2.37706e-07
1.18764e-06
-2.48349e-07
-2.62135e-07
1.22776e-06
-2.3712e-07
-3.10058e-07
1.27464e-06
-2.27205e-07
-3.81259e-07
1.32396e-06
-2.17757e-07
-4.73409e-07
1.37181e-06
-2.10027e-07
-5.8294e-07
1.4181e-06
-2.04064e-07
-7.00459e-07
1.45949e-06
-2.0024e-07
-8.08971e-07
1.48415e-06
-1.97032e-07
-8.84468e-07
1.4743e-06
-1.97243e-07
-9.17121e-07
1.39432e-06
-1.95835e-07
-9.33798e-07
1.20439e-06
-2.12476e-07
-1.02613e-06
9.68217e-07
-2.61219e-07
-1.19122e-06
8.36958e-07
-3.60585e-07
-1.3493e-06
8.13797e-07
-4.12548e-07
-1.56326e-06
8.4606e-07
-2.94285e-07
-2.0753e-06
9.41524e-07
-7.35107e-08
-3.12904e-06
1.20022e-06
1.89373e-07
-4.67365e-06
1.37694e-06
4.05556e-07
-5.37179e-06
3.45601e-09
1.23734e-08
-4.58816e-06
-3.54631e-06
-7.62175e-07
-3.31032e-06
-5.96365e-06
-1.99453e-06
-5.30678e-06
-3.88856e-06
-2.60066e-06
-8.742e-06
-9.19636e-07
-5.48821e-06
-8.69243e-06
2.49932e-06
-1.15787e-05
-7.50854e-06
1.9151e-06
-9.94908e-06
-6.94119e-06
-3.18579e-06
-8.23676e-06
-1.24368e-05
-9.73795e-06
-5.74787e-06
6.84219e-06
-4.14253e-06
-1.21309e-05
1.68559e-05
-4.95123e-06
-6.50909e-06
-1.67338e-06
-9.61892e-07
1.40001e-05
3.16366e-07
1.22647e-06
-6.01269e-06
7.25591e-06
-1.116e-05
-1.1987e-05
5.08399e-06
1.06202e-06
-2.83214e-06
1.55868e-06
-8.68707e-07
-3.05398e-06
-1.03934e-05
7.77119e-06
1.53283e-06
-1.45933e-05
4.33635e-06
-1.92926e-06
-1.72688e-05
6.31456e-06
-2.15571e-07
-2.17694e-05
1.06931e-05
2.66916e-06
-3.11174e-05
1.43148e-05
5.4338e-06
-3.96069e-05
1.16276e-05
4.92901e-06
-4.27381e-05
8.20864e-06
2.3521e-06
-4.24991e-05
6.01677e-06
1.88139e-06
-4.13273e-05
3.95573e-06
1.82189e-06
-3.95008e-05
-8.66097e-07
1.05146e-06
-3.69826e-05
-4.66533e-06
5.16574e-07
-3.47164e-05
-7.25596e-06
2.30622e-07
-3.24664e-05
-8.96769e-06
-5.0395e-07
-2.84764e-05
-1.10749e-05
-1.9902e-06
-2.33565e-05
-1.22118e-05
-2.71549e-06
-1.80183e-05
-1.13614e-05
-3.73855e-06
-1.21762e-05
-1.28043e-05
-4.29086e-06
-5.55818e-06
-1.42232e-05
-3.59376e-06
1.39389e-06
-1.51494e-05
-2.88577e-06
8.97421e-06
-1.71964e-05
-2.08182e-06
1.3716e-05
-1.72116e-05
6.89927e-09
1.3503e-05
-1.95023e-05
2.60581e-06
1.04317e-05
-2.37965e-05
4.47191e-06
7.70003e-06
-2.1386e-05
5.58782e-06
6.77135e-06
-7.87215e-06
3.80035e-06
9.94861e-06
-3.78024e-06
-1.22318e-06
1.54374e-05
-2.03984e-06
-2.99773e-06
1.60707e-05
6.00909e-06
1.5235e-06
9.65864e-06
1.45083e-05
7.12501e-06
6.11333e-06
2.23742e-05
2.68969e-06
5.80002e-06
3.56042e-05
-4.43226e-06
2.73907e-06
4.4969e-05
-2.30474e-06
5.4363e-05
-2.54185e-06
-4.13976e-06
-2.41218e-06
1.44584e-06
-3.66957e-06
-4.4756e-06
-8.35004e-07
-3.68096e-06
-3.3048e-06
-2.61922e-07
-2.42862e-06
-3.82603e-06
-1.41953e-06
-1.45414e-06
-3.61829e-06
-8.62957e-07
-3.19926e-07
-3.24655e-06
-9.10152e-07
9.63855e-08
-1.15732e-06
-1.26449e-07
-4.1511e-08
4.32112e-07
3.81902e-08
-4.71293e-08
8.42204e-07
-2.95976e-07
-1.66325e-07
1.09008e-06
-2.49321e-07
-1.46491e-07
1.14789e-06
-2.84718e-07
-1.49128e-07
1.24932e-06
-2.53882e-07
-1.34096e-07
1.2961e-06
-2.6215e-07
-1.2407e-07
1.19957e-06
-3.04272e-07
-1.22498e-07
1.16151e-06
-3.54273e-07
-1.38241e-07
1.18294e-06
-3.91447e-07
-1.68187e-07
1.25794e-06
-4.18122e-07
-2.08957e-07
1.35451e-06
-4.33633e-07
-2.55991e-07
1.44301e-06
-4.46737e-07
-3.0782e-07
1.51217e-06
-4.58032e-07
-3.535e-07
1.55246e-06
-4.67306e-07
-3.87593e-07
1.5751e-06
-4.74165e-07
-4.11009e-07
1.59053e-06
-4.78125e-07
-4.24276e-07
1.60118e-06
-4.79829e-07
-4.28161e-07
1.61192e-06
-4.78997e-07
-4.25431e-07
1.61978e-06
-4.76555e-07
-4.19943e-07
1.62046e-06
-4.74382e-07
-4.1143e-07
1.61888e-06
-4.73079e-07
-4.04272e-07
1.6262e-06
-4.70119e-07
-4.0942e-07
1.65675e-06
-4.63958e-07
-4.37739e-07
1.71201e-06
-4.55932e-07
-4.89977e-07
1.77396e-06
-4.47083e-07
-5.61978e-07
1.83639e-06
-4.40432e-07
-6.43306e-07
1.89045e-06
-4.37315e-07
-7.20852e-07
1.93258e-06
-4.36927e-07
-7.76869e-07
1.95457e-06
-4.3907e-07
-7.84403e-07
1.93802e-06
-4.4634e-07
-7.35166e-07
1.88578e-06
-4.60729e-07
-6.28862e-07
1.77051e-06
-4.82503e-07
-5.20142e-07
1.61015e-06
-5.14494e-07
-5.74022e-07
1.56295e-06
-5.4087e-07
-9.07421e-07
1.72601e-06
-5.55667e-07
-1.30033e-06
1.75573e-06
-5.49041e-07
-1.58622e-06
1.59291e-06
-4.60986e-07
-1.90887e-06
1.54902e-06
-2.84869e-07
-2.64301e-06
1.98826e-06
-5.39316e-08
-4.08083e-06
2.41561e-06
3.99128e-07
-4.82755e-06
7.69494e-07
-1.93387e-08
-4.30561e-06
-3.24894e-06
-8.19323e-07
-3.3949e-06
-4.7392e-06
-2.13518e-06
-3.73623e-06
1.35911e-06
-4.90635e-06
-4.35952e-06
7.68434e-06
-7.98068e-06
-4.78646e-06
1.22714e-05
-9.34511e-06
-6.99319e-06
1.11053e-05
-6.9835e-06
-9.25268e-06
6.45345e-06
-7.37972e-06
-1.27659e-05
-3.91948e-07
-5.83273e-06
7.65469e-06
-8.44301e-06
-1.61196e-05
1.6197e-05
-3.68661e-06
-9.80727e-06
4.60402e-07
6.03482e-06
8.73781e-06
-3.27662e-06
8.60708e-06
-3.64277e-06
-2.47957e-05
1.22184e-05
-1.85686e-06
-3.64657e-05
8.55693e-06
4.17837e-06
-4.77309e-05
9.11248e-06
1.28706e-06
-4.93199e-05
8.72609e-06
6.3724e-07
-5.16792e-05
1.02598e-05
-3.56111e-06
-5.43626e-05
1.37019e-05
-4.701e-06
-5.67097e-05
1.64613e-05
-3.41827e-06
-5.67657e-05
1.54652e-05
-1.09158e-06
-5.53377e-05
1.1944e-05
-1.74168e-06
-5.21855e-05
8.37347e-06
-3.31443e-06
-4.95019e-05
6.15965e-06
-2.82396e-06
-4.62835e-05
3.0597e-06
-2.31999e-06
-4.34106e-05
-1.6123e-06
-2.12426e-06
-4.18757e-05
-4.566e-06
-1.63185e-06
-4.02731e-05
-7.08491e-06
-1.77126e-06
-3.65642e-05
-9.83119e-06
-2.84296e-06
-3.05274e-05
-1.30485e-05
-4.06098e-06
-2.23273e-05
-1.48892e-05
-5.5206e-06
-1.3688e-05
-1.3578e-05
-6.42072e-06
-7.40162e-06
-1.22843e-05
-6.80468e-06
-4.13997e-07
-1.3969e-05
-7.24045e-06
6.78261e-06
-1.71463e-05
-5.1985e-06
1.22213e-05
-1.86556e-05
-3.9787e-06
1.63694e-05
-1.99856e-05
-1.37344e-06
1.64406e-05
-2.24928e-05
2.91989e-06
1.27571e-05
-2.48979e-05
4.78547e-06
6.45639e-06
-2.11034e-05
6.01844e-06
1.7686e-06
-9.64606e-06
6.46198e-06
3.49778e-06
-7.09958e-06
1.59036e-06
7.51677e-06
-4.7922e-06
-1.26649e-06
7.54115e-06
2.43417e-06
3.55065e-06
2.59971e-06
1.05577e-05
8.89215e-06
1.29977e-06
2.30548e-05
6.19447e-07
4.08188e-06
3.52515e-05
-2.42934e-06
1.55988e-06
4.34824e-05
4.00857e-06
5.13043e-05
4.61862e-06
-3.35802e-06
-1.37467e-06
2.45564e-06
-3.74688e-06
-4.00787e-06
-7.88694e-08
-4.24041e-06
-3.01856e-06
2.07285e-07
-3.11997e-06
-3.82557e-06
-1.12089e-06
-1.96092e-06
-3.85222e-06
-9.25129e-07
-4.48779e-07
-3.62501e-06
-1.13369e-06
2.03314e-07
-1.73952e-06
-6.99004e-08
6.96584e-08
1.73717e-07
3.92041e-07
-2.96766e-08
8.61349e-07
8.01808e-08
-1.62926e-07
1.13703e-06
8.62928e-08
-1.17348e-07
1.13097e-06
-2.86623e-08
-7.19914e-08
1.18617e-06
1.7777e-08