/*--------------------------------*- C++ -*----------------------------------*\
| =========                 |                                                 |
| \\      /  F ield         | OpenFOAM: The Open Source CFD Toolbox           |
|  \\    /   O peration     | Version:  2.3.0                                 |
|   \\  /    A nd           | Web:      www.OpenFOAM.org                      |
|    \\/     M anipulation  |                                                 |
\*---------------------------------------------------------------------------*/
FoamFile
{
    version     2.0;
    format      ascii;
    class       surfaceScalarField;
    location    "56";
    object      phi.water;
}
// * * * * * * * * * * * * * * * * * * * * * * * * * * * * * * * * * * * * * //

dimensions      [0 3 -1 0 0 0 0];

internalField   nonuniform List<scalar> 
16448
(
-1.31174e-06
-2.45313e-06
6.15556e-07
4.35837e-07
-2.53149e-06
7.88898e-07
4.73295e-07
-1.20128e-06
1.16788e-06
4.13949e-07
-1.00414e-06
1.06712e-06
7.68882e-08
-5.32822e-07
8.76599e-07
-4.50482e-08
-6.70333e-07
8.02055e-07
-5.3111e-08
-7.00831e-07
7.1847e-07
-4.00185e-08
-6.74635e-07
6.69114e-07
-1.13333e-07
-5.24286e-07
6.02394e-07
-2.83237e-07
-3.71729e-07
5.43198e-07
-4.80615e-07
-2.7297e-07
4.70738e-07
-5.75755e-07
-2.79132e-07
3.7431e-07
-5.58922e-07
-3.1456e-07
2.97924e-07
-4.48295e-07
-3.58507e-07
2.48016e-07
-3.19118e-07
-3.72307e-07
2.43368e-07
-1.80147e-07
-3.91089e-07
2.52315e-07
-5.4279e-08
-4.04128e-07
2.7852e-07
5.25058e-08
-4.17175e-07
3.10639e-07
1.32899e-07
-4.28297e-07
3.48181e-07
1.86439e-07
-4.36749e-07
3.83481e-07
2.11579e-07
-4.40657e-07
4.15805e-07
2.13678e-07
-4.44366e-07
4.42547e-07
2.01069e-07
-4.45081e-07
4.57981e-07
1.8035e-07
-4.40772e-07
4.61775e-07
1.55562e-07
-4.30997e-07
4.56087e-07
1.30859e-07
-4.17417e-07
4.42419e-07
1.1054e-07
-4.02923e-07
4.23562e-07
9.83635e-08
-3.90969e-07
4.03461e-07
9.36688e-08
-3.7812e-07
3.83151e-07
9.30177e-08
-3.63701e-07
3.64684e-07
9.51646e-08
-3.489e-07
3.47108e-07
1.01639e-07
-3.35136e-07
3.29009e-07
1.15677e-07
-3.23271e-07
3.09606e-07
1.42011e-07
-3.1518e-07
2.8921e-07
1.8426e-07
-3.11689e-07
2.69831e-07
2.38923e-07
-3.11383e-07
2.57099e-07
2.9647e-07
-3.12647e-07
2.55517e-07
3.4142e-07
-3.13799e-07
2.69245e-07
3.40788e-07
-3.09227e-07
3.10322e-07
2.56303e-07
-3.14329e-07
3.99273e-07
4.69513e-08
-3.42431e-07
5.52232e-07
-2.19839e-07
-4.57708e-07
7.26692e-07
-3.84602e-07
-7.1811e-07
8.93451e-07
-3.06109e-07
-1.091e-06
1.03643e-06
1.04311e-07
-1.50009e-06
1.12383e-06
9.342e-07
-1.96405e-06
1.17492e-06
1.94334e-06
-2.22774e-06
1.25947e-06
2.4202e-06
-1.85673e-06
1.43213e-06
1.5432e-06
-5.88052e-07
1.55563e-06
-2.01793e-07
2.53135e-07
1.5735e-06
-2.93617e-07
-2.73892e-06
2.84902e-06
9.32547e-07
-3.11662e-06
1.92591e-06
4.33556e-06
-2.00125e-06
-1.34972e-06
1.01246e-05
-1.78064e-06
-4.0262e-06
1.60693e-05
-2.27582e-06
-3.65499e-06
1.59243e-05
1.33049e-06
-1.23333e-06
1.12859e-05
3.54666e-06
1.33724e-06
1.31454e-05
2.98522e-06
-5.34145e-06
4.21141e-06
9.01422e-06
8.96432e-06
3.02291e-05
1.3739e-06
-5.09126e-06
2.30421e-05
-1.25854e-05
-9.18278e-06
3.01376e-05
-7.31991e-06
-9.49863e-07
2.91653e-05
-3.72658e-06
4.69671e-06
3.10631e-05
-4.31902e-06
2.42113e-06
3.29723e-05
-3.52583e-06
1.61669e-06
3.36757e-05
-2.34432e-06
1.64093e-06
3.37178e-05
-2.3781e-06
2.33598e-06
3.33578e-05
-2.33932e-06
2.69934e-06
3.26919e-05
-2.65102e-06
3.31685e-06
3.15218e-05
-2.856e-06
4.02614e-06
2.84633e-05
-1.14814e-06
4.20657e-06
2.48326e-05
-8.47771e-07
4.47847e-06
2.10385e-05
-1.50928e-06
5.30345e-06
1.7035e-05
-1.9053e-06
5.90873e-06
1.35167e-05
-2.50441e-06
6.0227e-06
1.12249e-05
-2.75886e-06
5.05072e-06
1.08562e-05
-2.99944e-06
3.36811e-06
1.17781e-05
-2.78572e-06
1.86379e-06
1.41777e-05
-2.57514e-06
1.75593e-07
1.62313e-05
-1.13506e-06
-9.18613e-07
1.56743e-05
6.36625e-07
-7.96084e-08
1.28957e-05
1.43666e-06
1.342e-06
1.06448e-05
-3.76199e-07
2.62706e-06
9.8251e-06
-2.78114e-06
3.60085e-06
1.07282e-05
-4.83368e-06
3.93062e-06
1.24418e-05
-5.39581e-06
3.68214e-06
1.40758e-05
-4.74878e-06
3.11484e-06
1.56311e-05
-3.79577e-06
2.24043e-06
1.73164e-05
-2.90269e-06
1.21735e-06
1.8416e-05
-1.81142e-06
7.11826e-07
1.83251e-05
-5.15247e-07
6.06191e-07
1.72271e-05
5.54177e-07
5.43837e-07
1.37244e-05
2.62376e-06
8.78926e-07
8.68373e-06
5.50537e-06
-4.64709e-07
3.41935e-06
7.31045e-06
-2.04607e-06
8.03176e-06
-4.61241e-06
-2.08058e-06
-3.52503e-06
-1.14134e-07
-6.71471e-07
-3.81773e-06
-1.13992e-07
-2.89141e-07
-2.27802e-06
7.01599e-07
1.43928e-07
-1.87735e-06
4.46243e-07
2.06164e-07
-8.99336e-07
3.11231e-07
7.56383e-08
-8.0243e-07
2.7035e-07
-2.71874e-08
-7.42508e-07
1.53154e-07
-1.14846e-07
-6.70148e-07
9.01154e-08
-2.67767e-07
-4.51177e-07
8.38818e-08
-4.86139e-07
-2.67304e-07
1.14874e-07
-6.82944e-07
-1.76857e-07
1.00807e-07
-7.50937e-07
-2.32844e-07
2.14014e-08
-7.19078e-07
-2.99277e-07
-4.72618e-08
-6.07523e-07
-3.70775e-07
-9.94145e-08
-4.71662e-07
-3.95057e-07
-1.13137e-07
-3.24487e-07
-4.23522e-07
-1.14791e-07
-1.87034e-07
-4.40557e-07
-1.01023e-07
-6.52979e-08
-4.57045e-07
-8.18779e-08
3.31272e-08
-4.68838e-07
-5.78805e-08
1.05708e-07
-4.75744e-07
-3.35827e-08
1.50228e-07
-4.75177e-07
-1.00177e-08
1.69855e-07
-4.71021e-07
7.01699e-09
1.72971e-07
-4.62639e-07
1.44445e-08
1.65102e-07
-4.4889e-07
1.6002e-08
1.50247e-07
-4.29117e-07
1.29884e-08
1.32085e-07
-4.0568e-07
6.43809e-09
1.14677e-07
-3.8173e-07
-3.78339e-09
1.0273e-07
-3.60024e-07
-1.89618e-08
9.70267e-08
-3.38319e-07
-3.40429e-08
9.59348e-08
-3.14298e-07
-4.823e-08
9.90439e-08
-2.89963e-07
-6.19523e-08
1.0728e-07
-2.67853e-07
-7.54005e-08
1.22919e-07
-2.50345e-07
-8.84351e-08
1.49395e-07
-2.41666e-07
-9.98334e-08
1.89153e-07
-2.42797e-07
-1.08478e-07
2.39404e-07
-2.50359e-07
-1.11068e-07
2.91125e-07
-2.59707e-07
-1.04434e-07
3.21937e-07
-2.64396e-07
-7.99581e-08
2.87091e-07
-2.53009e-07
-2.11007e-08
1.41541e-07
-2.36084e-07
6.7665e-08
-1.27036e-07
-2.66579e-07
1.93211e-07
-4.36859e-07
-4.55354e-07
3.09339e-07
-7.37313e-07
-8.30364e-07
4.22094e-07
-9.60857e-07
-1.45547e-06
6.13958e-07
-9.61918e-07
-2.26732e-06
8.11339e-07
-5.6613e-07
-3.20639e-06
9.03738e-07
-9.03287e-08
-3.67722e-06
1.04507e-06
-3.00822e-07
-2.86885e-06
1.31802e-06
-1.42714e-06
-1.15069e-06
1.7559e-06
-2.01841e-06
-7.70251e-07
1.62124e-06
-1.51048e-06
-4.54823e-06
1.32934e-06
4.38485e-07
-5.62368e-06
6.20858e-07
6.35153e-06
-5.39399e-06
-2.44547e-06
1.46697e-05
-5.66129e-06
-4.47813e-06
2.06121e-05
-5.81788e-06
-2.36523e-06
2.09691e-05
3.83829e-07
5.12829e-07
1.7169e-05
4.61336e-06
3.15543e-06
1.62228e-05
8.46097e-06
-5.48732e-06
8.69589e-06
1.17904e-05
1.58613e-05
3.14179e-05
2.13268e-06
-1.73915e-06
1.8028e-05
-1.77989e-05
-1.11106e-05
2.05876e-05
-1.34394e-05
2.41248e-06
1.88586e-05
-8.3624e-06
6.36332e-06
1.98243e-05
-7.39902e-06
2.11435e-06
1.9054e-05
-5.60187e-06
2.84637e-06
1.65162e-05
-3.68585e-06
3.87929e-06
1.23714e-05
-3.24046e-06
5.00722e-06
7.65013e-06
-2.68582e-06
5.06773e-06
2.59929e-06
-3.17938e-06
5.5792e-06
-2.58958e-06
-3.8663e-06
6.19917e-06
-6.59901e-06
-2.28307e-06
5.14437e-06
-9.48232e-06
-2.653e-06
4.68854e-06
-9.24445e-06
-4.40438e-06
2.65725e-06
-7.98771e-06
-4.71019e-06
1.54815e-06
-7.75682e-06
-3.80724e-06
1.07194e-06
-7.0506e-06
-4.14254e-06
6.77456e-07
-5.51231e-06
-4.89747e-06
3.59745e-07
-3.25314e-06
-4.66319e-06
-3.81688e-07
-8.85818e-07
-3.47515e-06
-1.46732e-06
1.62306e-06
-2.40254e-06
-1.2414e-06
3.12424e-06
-1.55116e-06
6.86606e-07
3.13914e-06
-1.90366e-06
3.32542e-06
3.05335e-06
-4.7026e-06
4.41219e-06
4.05829e-06
-7.66549e-06
3.87941e-06
5.99447e-06
-1.01832e-05
3.41334e-06
8.41137e-06
-9.38996e-06
1.57725e-06
1.07675e-05
-6.95565e-06
-1.49238e-07
1.29106e-05
-4.97885e-06
-9.60091e-07
1.50762e-05
-3.42595e-06
-1.6423e-06
1.61288e-05
-1.48419e-06
-1.37982e-06
1.57921e-05
9.7439e-07
-1.15292e-06
1.42113e-05
2.83098e-06
-6.96061e-07
1.01518e-05
6.17027e-06
5.13047e-07
6.29069e-06
1.11849e-05
-1.81845e-06
3.10363e-06
1.52016e-05
-4.70411e-06
1.75371e-05
-6.40173e-06
-2.5973e-06
-3.79952e-06
-4.03255e-07
-1.47587e-06
-4.33388e-06
-5.95735e-07
-1.00443e-06
-2.9594e-06
2.18742e-07
-3.60461e-07
-2.57982e-06
6.63295e-08
-4.90575e-08
-1.2211e-06
1.77302e-08
-6.30693e-08
-7.9452e-07
1.32598e-08
-1.67842e-07
-4.90819e-07
-1.39214e-07
-2.47516e-07
-4.12917e-07
-1.72062e-07
-3.46368e-07
-1.76451e-07
-1.72342e-07
-4.48679e-07
-2.82845e-08
-1.35186e-07
-5.63636e-07
4.95469e-08
-1.10723e-07
-6.15948e-07
-2.66036e-08
-1.53791e-07
-6.18782e-07
-8.67478e-08
-2.09519e-07
-5.71135e-07
-1.61261e-07
-2.57125e-07
-4.95644e-07
-1.91216e-07
-2.79257e-07
-4.02748e-07
-2.21911e-07
-2.94491e-07
-3.08274e-07
-2.37633e-07
-2.97358e-07
-2.16803e-07
-2.52354e-07
-2.96151e-07
-1.35256e-07
-2.60264e-07
-2.90089e-07
-6.54939e-08
-2.63007e-07
-2.82474e-07
-9.01839e-09
-2.57383e-07
-2.74229e-07
3.38624e-08
-2.45378e-07
-2.68477e-07
6.34247e-08
-2.27982e-07
-2.64152e-07
8.16762e-08
-2.06011e-07
-2.61058e-07
9.13262e-08
-1.79732e-07
-2.58944e-07
9.51934e-08
-1.51266e-07
-2.58185e-07
9.55426e-08
-1.23071e-07
-2.58895e-07
9.33592e-08
-9.63702e-08
-2.61345e-07
9.09072e-08
-7.04469e-08
-2.65269e-07
8.95943e-08
-4.28752e-08
-2.69946e-07
9.03309e-08
-1.60204e-08
-2.74483e-07
9.26151e-08
7.84826e-09
-2.77776e-07
9.33616e-08
2.80807e-08
-2.78937e-07
9.19906e-08
3.79749e-08
-2.78025e-07
8.84925e-08
3.51341e-08
-2.74149e-07
8.27675e-08
2.22929e-08
-2.66621e-07
6.88524e-08
6.07598e-09
-2.51519e-07
2.41303e-08
7.67288e-10
-2.20079e-07
-8.2418e-08
1.77024e-08
-1.63759e-07
-2.63509e-07
2.51837e-08
-7.97795e-08
-4.54322e-07
-8.54012e-08
1.03328e-08
-5.96006e-07
-3.88047e-07
7.68767e-08
-8.79013e-07
-7.08761e-07
1.69773e-07
-1.46188e-06
-1.18879e-06
3.3716e-07
-2.27258e-06
-1.95487e-06
5.34764e-07
-3.31233e-06
-2.86712e-06
7.48459e-07
-4.68549e-06
-3.28285e-06
1.03308e-06
-5.9381e-06
-2.87001e-06
1.32024e-06
-5.67049e-06
-2.2357e-06
8.82234e-07
-3.71898e-06
-2.53937e-06
-1.50187e-07
-6.3616e-07
-6.0406e-06
-1.49998e-06
4.02802e-06
-8.55205e-06
-1.67148e-06
1.14535e-05
-1.01605e-05
-2.58873e-06
2.01966e-05
-1.01214e-05
-4.33799e-06
2.57918e-05
-8.90476e-06
-2.46445e-06
2.76466e-05
-3.20042e-06
1.6475e-06
2.29599e-05
4.34136e-06
5.37133e-06
2.08115e-05
1.0476e-05
-8.0083e-07
7.08023e-06
1.50128e-05
2.07948e-05
3.30974e-05
-2.18846e-06
3.02485e-06
1.86461e-05
-2.107e-05
-1.37892e-05
1.9057e-05
-1.41324e-05
-8.82551e-07
1.71325e-05
-8.67019e-06
2.23082e-06
1.72936e-05
-7.95625e-06
3.9616e-07
1.24216e-05
-6.46765e-06
5.73776e-06
8.49256e-06
-4.69221e-06
4.93543e-06
5.28326e-06
-4.1439e-06
4.11273e-06
2.8046e-06
-3.53002e-06
3.32287e-06
-1.33872e-06
-3.31194e-06
4.27588e-06
-5.45914e-06
-2.92264e-06
3.17677e-06
-5.22143e-06
-1.23485e-06
-1.28594e-06
-2.02783e-06
7.17368e-07
-6.56396e-06
-1.23551e-06
7.79068e-07
-5.97577e-06
-3.06413e-06
-4.25266e-07
-2.45631e-06
-7.1268e-06
-7.35393e-07
9.9083e-07
-1.03797e-05
-1.75387e-06
8.64251e-07
-1.16221e-05
-3.18825e-06
-4.66794e-07
-1.00541e-05
-4.81939e-06
-1.4118e-06
-7.87076e-06
-5.24132e-06
-4.17202e-07
-5.84642e-06
-5.3728e-06
9.45914e-07
-3.96243e-06
-5.49519e-06
2.06005e-06
-2.0079e-06
-6.13208e-06
2.27388e-06
-2.74341e-08
-7.15011e-06
4.67046e-07
2.14993e-06
-9.08807e-06
-7.54779e-07
4.69038e-06
-1.16913e-05
-1.03238e-06
7.83319e-06
-1.03556e-05
-2.17713e-06
1.07699e-05
-5.80865e-06
-4.08375e-06
1.29053e-05
-2.2774e-06
-4.83676e-06
1.48217e-05
-9.15437e-07
-4.42701e-06
1.50896e-05
7.62308e-07
-2.51436e-06
1.30363e-05
3.1393e-06
-1.11586e-07
9.03512e-06
4.7692e-06
2.06293e-06
5.02104e-06
8.55276e-06
1.63159e-06
2.49705e-06
1.5363e-05
-1.6541e-06
8.98234e-07
2.19497e-05
-5.14923e-06
2.58678e-05
-7.43242e-06
-3.07235e-06
-3.85325e-06
-1.75741e-07
-1.98888e-06
-4.57526e-06
-8.33671e-07
-1.64392e-06
-3.38366e-06
8.82795e-08
-9.7008e-07
-3.28158e-06
3.63316e-08
-4.80185e-07
-1.84572e-06
1.44419e-07
-2.63368e-07
-1.07034e-06
6.7212e-08
-2.71047e-07
-3.28394e-07
-1.47995e-07
-2.87706e-07
-1.8077e-07
-2.1081e-07
-2.74823e-07
4.01098e-08
-2.25729e-07
-2.94961e-07
1.86088e-07
-1.92354e-07
-3.50178e-07
2.94964e-07
-1.89192e-07
-4.14634e-07
2.53264e-07
-2.1503e-07
-4.76425e-07
2.23204e-07
-2.47783e-07
-4.88455e-07
1.41966e-07
-2.90985e-07
-4.64266e-07
1.02328e-07
-3.1748e-07
-4.11373e-07
6.8392e-08
-3.42966e-07
-3.45771e-07
5.61286e-08
-3.59115e-07
-2.76454e-07
5.11019e-08
-3.72527e-07
-2.09862e-07
5.42115e-08
-3.80806e-07
-1.48012e-07
6.10868e-08
-3.85664e-07
-9.12749e-08
7.35812e-08
-3.8742e-07
-4.06205e-08
9.06376e-08
-3.8637e-07
1.89873e-09
1.1222e-07
-3.82429e-07
3.51624e-08
1.37782e-07
-3.76744e-07
5.93637e-08
1.67014e-07
-3.70644e-07
7.4942e-08
1.98347e-07
-3.64867e-07
8.3681e-08
2.28304e-07
-3.59801e-07
8.78709e-08
2.55719e-07
-3.55949e-07
8.91532e-08
2.82413e-07
-3.53831e-07
8.78649e-08
3.11237e-07
-3.52498e-07
8.276e-08
3.40622e-07
-3.51239e-07
7.25489e-08
3.67049e-07
-3.48679e-07
5.55713e-08
3.88464e-07
-3.43112e-07
2.75586e-08
4.00336e-07
-3.34019e-07
-1.37272e-08
3.99192e-07
-3.22456e-07
-7.00201e-08
3.88176e-07
-3.09231e-07
-1.49805e-07
3.7824e-07
-2.9202e-07
-2.748e-07
3.88858e-07
-2.62663e-07
-4.59021e-07
4.16444e-07
-2.14055e-07
-6.41229e-07
3.63122e-07
-1.55197e-07
-7.1065e-07
9.28265e-08
-1.07532e-07
-6.62123e-07
-3.26868e-07
-1.06217e-07
-7.98805e-07
-5.43228e-07
-2.0913e-08
-1.40696e-06
-7.12289e-07
1.49592e-07
-2.5575e-06
-1.18549e-06
4.13178e-07
-4.33523e-06
-1.80374e-06
7.5393e-07
-6.4057e-06
-2.14926e-06
9.83219e-07
-7.66683e-06
-2.43658e-06
8.82556e-07
-6.3693e-06
-3.18675e-06
-2.58901e-07
-2.89494e-06
-4.32951e-06
-1.62401e-06
1.47805e-06
-7.83216e-06
-2.41634e-06
7.25862e-06
-1.13777e-05
-2.8437e-06
1.50821e-05
-1.5063e-05
-2.84969e-06
2.26296e-05
-1.35605e-05
-4.16331e-06
2.64847e-05
-1.08238e-05
-1.83013e-06
3.0028e-05
-1.0081e-05
3.19399e-06
2.68157e-05
3.11696e-06
5.07947e-06
2.53996e-05
7.40875e-06
3.48554e-06
1.1139e-05
1.29994e-05
2.902e-05
3.6831e-05
-1.90003e-06
-8.50707e-07
1.70879e-05
-2.16346e-05
-1.37381e-05
1.58152e-05
-1.16055e-05
-2.69497e-06
1.51381e-05
-7.58747e-06
-4.07429e-07
1.36276e-05
-7.72707e-06
1.28134e-06
8.94142e-06
-5.60294e-06
3.82138e-06
4.62055e-06
-2.47885e-06
2.10745e-06
2.19546e-07
8.06924e-07
-5.49861e-07
-3.50446e-06
2.22616e-06
-2.03221e-06
-6.69473e-06
2.2685e-06
-2.39019e-06
-9.29455e-06
2.74564e-06
-3.06847e-06
-1.15554e-05
3.90702e-06
-2.88101e-06
-1.37287e-05
5.64603e-06
-2.7553e-06
-1.78675e-05
5.08265e-06
-1.64696e-07
-2.10352e-05
1.35743e-06
1.38496e-06
-2.16111e-05
-2.1653e-06
2.00585e-06
-2.02762e-05
-3.61909e-06
5.3032e-07
-1.75245e-05
-4.48541e-06
-1.45451e-06
-1.47253e-05
-5.62124e-06
-1.9974e-06
-1.22851e-05
-6.49165e-06
-1.18984e-06
-9.45513e-06
-6.98931e-06
-1.21343e-06
-6.55947e-06
-6.64327e-06
-1.74759e-06
-3.33275e-06
-5.84168e-06
-3.51711e-06
-5.20865e-07
-5.32873e-06
-4.63326e-06
1.97136e-06
-7.68129e-06
-3.899e-06
4.611e-06
-1.19435e-05
-2.38742e-06
7.96735e-06
-1.27231e-05
-9.88875e-07
1.16155e-05
-6.48579e-06
-2.97106e-06
1.43095e-05
-4.07777e-07
-4.56361e-06
1.72847e-05
1.30711e-06
-5.19777e-06
1.91801e-05
3.20487e-06
-4.33795e-06
1.76122e-05
7.38693e-06
-2.67969e-06
1.15684e-05
1.0259e-05
5.53984e-07
5.83265e-06
1.36827e-05
6.05785e-07
2.86345e-06
2.10036e-05
-2.67146e-06
5.96935e-07
2.8541e-05
-4.32483e-06
3.31226e-05
-6.65791e-06
-3.47407e-06
-3.74884e-06
4.42194e-08
-2.41807e-06
-4.71541e-06
-9.09215e-07
-2.16268e-06
-3.5837e-06
-4.66395e-08
-1.48041e-06
-3.8082e-06
-1.48072e-07
-9.7167e-07
-2.63964e-06
2.94284e-07
-4.55785e-07
-1.76294e-06
1.86609e-07
-2.84864e-07
-3.70948e-07
-1.19632e-07
-2.89579e-07
1.44366e-08
-1.85494e-07
-2.14767e-07
2.10534e-07
-2.4147e-07
-1.77476e-07
3.70405e-07
-2.19379e-07
-1.82412e-07
5.13751e-07
-2.12515e-07
-2.50229e-07
5.26107e-07
-2.04525e-07
-3.48114e-07
5.31603e-07
-2.10205e-07
-4.02026e-07
4.34378e-07
-2.3847e-07
-4.08748e-07
3.71641e-07
-2.62515e-07
-3.78775e-07
3.28787e-07
-2.90341e-07
-3.30951e-07
3.20902e-07
-3.12548e-07
-2.79427e-07
3.32971e-07
-3.33374e-07
-2.28183e-07
3.53449e-07
-3.50429e-07
-1.77661e-07
3.74781e-07
-3.64182e-07
-1.26079e-07
3.97022e-07
-3.74974e-07
-7.4935e-08
4.21261e-07
-3.8174e-07
-2.73957e-08
4.48747e-07
-3.84025e-07
1.3995e-08
4.78425e-07
-3.82013e-07
4.80566e-08
5.09541e-07
-3.76552e-07
7.37994e-08
5.40871e-07
-3.68248e-07
9.21622e-08
5.68719e-07
-3.58734e-07
1.03861e-07
5.93214e-07
-3.49166e-07
1.07625e-07
6.18231e-07
-3.39516e-07
1.03228e-07
6.45641e-07
-3.29951e-07
8.95922e-08
6.74194e-07
-3.19836e-07
6.49016e-08
7.00731e-07
-3.08901e-07
2.56412e-08
7.24864e-07
-2.96999e-07
-3.22403e-08
7.43543e-07
-2.852e-07
-1.15679e-07
7.5672e-07
-2.73915e-07
-2.34086e-07
7.69298e-07
-2.62557e-07
-3.94505e-07
7.88531e-07
-2.49651e-07
-5.96113e-07
8.21222e-07
-2.30575e-07
-8.14445e-07
8.35078e-07
-2.00074e-07
-9.69602e-07
6.94684e-07
-1.75942e-07
-9.68665e-07
2.86399e-07
-1.9303e-07
-8.51166e-07
-1.45569e-07
-2.95064e-07
-8.23057e-07
-2.69735e-07
-2.93419e-07
-1.21266e-06
-2.35553e-07
-7.12197e-08
-2.18702e-06
-4.32625e-07
2.49092e-07
-3.83536e-06
-7.59345e-07
6.39669e-07
-5.83203e-06
-9.5181e-07
8.39789e-07
-7.11134e-06
-1.51449e-06
4.05518e-07
-5.9771e-06
-3.55231e-06
-6.7931e-07
-2.09161e-06
-6.07328e-06
-2.01265e-06
2.60342e-06
-9.52156e-06
-2.77586e-06
7.17191e-06
-1.31376e-05
-2.69512e-06
1.20579e-05
-1.57864e-05
-4.11745e-06
1.7202e-05
-1.20803e-05
-6.67515e-06
2.01245e-05
-1.03127e-05
-3.38869e-06
2.48144e-05
-1.88716e-05
3.85344e-06
2.38363e-05
2.31761e-06
2.97413e-06
2.39962e-05
7.99917e-07
5.52568e-06
1.52447e-05
5.56488e-06
3.23189e-05
3.89446e-05
-2.50351e-06
7.77918e-07
1.47131e-05
-2.17653e-05
-1.36068e-05
1.26959e-05
-6.88127e-06
-3.43286e-06
1.32961e-05
-5.92722e-06
-2.26508e-06
1.2651e-05
-7.08993e-06
4.74856e-09
1.12585e-05
-4.98483e-06
7.70826e-07
8.05583e-06
9.5651e-08
6.2541e-07
1.33011e-06
5.89741e-06
1.63449e-06
-6.76397e-06
7.44395e-06
2.87725e-06
-1.25395e-05
5.92293e-06
2.12178e-06
-1.5564e-05
4.67271e-06
1.09726e-06
-1.82501e-05
5.28491e-06
1.3082e-06
-2.05674e-05
6.10947e-06
1.855e-06
-2.27526e-05
4.60983e-06
2.65981e-06
-2.48189e-05
9.64767e-07
2.46016e-06
-2.49074e-05
-2.9617e-06
8.85002e-07
-2.29982e-05
-4.96107e-06
-5.68054e-07
-2.05894e-05
-6.40233e-06
-4.92877e-07
-1.85702e-05
-7.3804e-06
-2.60939e-07
-1.5855e-05
-8.45818e-06
-7.49675e-07
-1.2075e-05
-9.33824e-06
-1.43188e-06
-7.57617e-06
-7.99878e-06
-3.14385e-06
-2.16111e-06
-6.65232e-06
-4.60462e-06
2.22569e-06
-6.61002e-06
-3.10555e-06
4.04587e-06
-9.51837e-06
1.6903e-08
4.34804e-06
-1.50456e-05
2.79993e-06
6.2074e-06
-1.94924e-05
4.90988e-06
9.52468e-06
-1.24943e-05
2.69127e-06
1.22834e-05
-1.85477e-06
-1.31168e-06
1.59646e-05
8.90007e-07
-3.2641e-06
1.95288e-05
2.66282e-06
-3.02218e-06
1.90249e-05
8.78804e-06
-8.9724e-07
1.32042e-05
1.36602e-05
2.41956e-06
7.43748e-06
1.85105e-05
9.38892e-07
5.19489e-06
2.66511e-05
-3.40485e-06
2.37444e-06
3.44946e-05
-3.13315e-06
4.07054e-05
-5.20835e-06
-3.85984e-06
-3.48076e-06
3.86305e-07
-2.86844e-06
-4.84436e-06
-8.58039e-07
-2.58977e-06
-3.68596e-06
-1.68246e-07
-1.7267e-06
-4.04045e-06
-6.23161e-07
-1.21839e-06
-3.25632e-06
1.17182e-07
-5.232e-07
-2.58348e-06
1.3444e-07
-2.02927e-07
-6.37967e-07
-4.27718e-08
-2.24966e-07
1.46033e-07
-1.02535e-07
-1.4077e-07
3.57858e-07
-2.27314e-07
-8.67102e-08
5.23507e-07
-2.0437e-07
-6.13472e-08
6.92139e-07
-2.01834e-07
-1.33541e-07
7.77095e-07
-1.77825e-07
-2.54029e-07
8.19685e-07
-1.66895e-07
-3.27636e-07
6.96595e-07
-1.88214e-07
-3.37139e-07
6.00929e-07
-2.19375e-07
-3.08176e-07
5.535e-07
-2.53271e-07
-2.6524e-07
5.60207e-07
-2.81832e-07
-2.27732e-07
6.00436e-07
-3.04535e-07
-1.96989e-07
6.46262e-07
-3.231e-07
-1.69144e-07
6.85296e-07
-3.37866e-07
-1.38659e-07
7.16577e-07
-3.49552e-07
-1.0467e-07
7.44286e-07
-3.56499e-07
-6.9376e-08
7.71997e-07
-3.58048e-07
-3.50962e-08
8.00019e-07
-3.55359e-07
-6.16478e-09
8.2988e-07
-3.48775e-07
1.64498e-08
8.57647e-07
-3.38864e-07
3.49193e-08
8.77177e-07
-3.26427e-07
4.92641e-08
8.92363e-07
-3.12964e-07
5.65847e-08
9.09995e-07
-2.98577e-07
5.25171e-08
9.34578e-07
-2.84324e-07
3.24335e-08
9.6564e-07
-2.70839e-07
-6.88022e-09
9.98949e-07
-2.58346e-07
-6.89572e-08
1.03443e-06
-2.46958e-07
-1.5736e-07
1.06908e-06
-2.3656e-07
-2.77472e-07
1.10396e-06
-2.26587e-07
-4.31926e-07
1.1412e-06
-2.16863e-07
-6.12898e-07
1.17809e-06
-2.08022e-07
-7.91105e-07
1.20108e-06
-2.01033e-07
-9.27947e-07
1.16541e-06
-1.92848e-07
-1.00128e-06
9.74895e-07
-2.05897e-07
-1.04106e-06
6.14361e-07
-2.86333e-07
-1.02318e-06
3.11005e-07
-4.6989e-07
-9.60621e-07
2.42937e-07
-5.65499e-07
-1.13649e-06
3.37783e-07
-3.80815e-07
-1.8765e-06
3.56142e-07
-2.35813e-08
-3.3014e-06
3.35991e-07
3.63257e-07
-5.02499e-06
2.38106e-07
5.74599e-07
-5.88596e-06
-6.80841e-07
8.31721e-08
-4.84768e-06
-3.52216e-06
-9.69456e-07
-1.88947e-06
-6.67208e-06
-2.156e-06
-5.44498e-08
-8.45806e-06
-2.65644e-06
-3.08147e-07
-9.80908e-06
-3.00882e-06
1.66796e-06
-8.97141e-06
-8.73313e-06
4.15272e-06
-6.77609e-06
-7.85005e-06
8.85848e-06
-1.07391e-05
-4.07815e-06
1.06196e-05
-2.07798e-05
-1.2678e-07
1.52584e-05
2.67158e-06
-3.62022e-06
1.1213e-05
-1.43491e-06
3.02298e-06
1.98006e-05
-5.28442e-06
2.58476e-05
4.24982e-05
-1.4498e-06
-2.75674e-06
9.22909e-06
-1.62128e-05
-1.22967e-05
7.30373e-06
-3.94793e-06
-2.46842e-06
1.22004e-05
-7.46176e-06
-3.40654e-06
8.10771e-06
-2.65617e-06
-3.74662e-07
4.88396e-06
-1.81049e-06
2.62374e-08
9.67817e-07
3.40775e-06
5.89334e-07
-4.04314e-06
8.85487e-06
2.04976e-06
-1.05753e-05
1.04013e-05
3.58088e-06
-1.6395e-05
8.06629e-06
3.68156e-06
-2.31233e-05
7.42771e-06
3.97806e-06
-3.0194e-05
8.14102e-06
4.22651e-06
-3.3789e-05
6.95949e-06
2.75833e-06
-3.21368e-05
2.0194e-06
9.42518e-07
-3.03694e-05
-1.62631e-06
8.19673e-07
-2.95511e-05
-4.75563e-06
9.63541e-07
-2.79102e-05
-7.22046e-06
5.99473e-07
-2.50634e-05
-9.07488e-06
-1.97466e-07
-2.155e-05
-9.8073e-06
-1.11189e-06
-1.74791e-05
-9.76026e-06
-2.7934e-06
-1.21565e-05
-1.12535e-05
-3.43051e-06
-5.65262e-06
-1.12e-05
-3.32066e-06
1.28617e-06
-1.10833e-05
-2.52004e-06
7.2459e-06
-1.16976e-05
-8.80122e-07
9.84655e-06
-1.24623e-05
3.38347e-07
8.80095e-06
-1.71097e-05
3.10626e-06
6.49545e-06
-2.2397e-05
5.20774e-06
7.14728e-06
-1.85307e-05
5.38342e-06
9.30583e-06
-5.00063e-06
9.8713e-07
1.40686e-05
-1.82624e-06
-2.04667e-06
1.86844e-05
4.51189e-07
-2.40427e-06
1.80002e-05
8.16584e-06
1.30637e-06
1.16535e-05
1.52213e-05
4.78568e-06
6.47762e-06
2.15185e-05
2.16778e-06
5.42126e-06
3.08586e-05
-3.15122e-06
3.22845e-06
3.96033e-05
-2.91585e-06
4.90821e-05
-5.14822e-06
-4.17841e-06
-3.02002e-06
7.87136e-07
-3.31843e-06
-4.83965e-06
-8.62862e-07
-3.044e-06
-3.57744e-06
-3.76157e-07
-1.89415e-06
-3.99242e-06
-1.19013e-06
-1.21935e-06
-3.50603e-06
-4.15905e-07
-3.84342e-07
-3.0219e-06
-3.89186e-07
-2.85108e-08
-8.67032e-07
-1.16682e-07
-1.40753e-07
3.32789e-07
-6.51212e-08
-7.95117e-08
5.40713e-07
-2.39565e-07
-6.21945e-08
7.21564e-07
-2.12665e-07
-2.80377e-08
8.82848e-07
-2.23191e-07
-7.62772e-08
9.92556e-07
-1.66598e-07
-1.63167e-07
1.04866e-06
-1.41819e-07
-2.07991e-07
9.049e-07
-1.63675e-07
-2.03928e-07
8.08276e-07
-2.11554e-07
-1.77927e-07
7.75126e-07
-2.47857e-07
-1.51705e-07
8.09183e-07
-2.75383e-07
-1.39528e-07
8.79362e-07
-2.9133e-07
-1.39585e-07
9.48456e-07
-3.02333e-07
-1.45231e-07
1.00149e-06
-3.1077e-07
-1.50024e-07
1.03864e-06
-3.17474e-07
-1.50814e-07
1.06599e-06
-3.21135e-07
-1.46505e-07
1.08814e-06
-3.20649e-07
-1.38329e-07
1.10724e-06
-3.15608e-07
-1.31141e-07
1.12822e-06
-3.05715e-07
-1.26128e-07
1.14516e-06
-2.92722e-07
-1.18401e-07
1.15081e-06
-2.81496e-07
-1.08946e-07
1.15358e-06
-2.708e-07
-1.01264e-07
1.16251e-06
-2.6029e-07
-1.04522e-07
1.18691e-06
-2.4918e-07
-1.28027e-07
1.22703e-06
-2.37953e-07
-1.75022e-07
1.27392e-06
-2.28047e-07
-2.45259e-07
1.32326e-06
-2.18602e-07
-3.36437e-07
1.37114e-06
-2.10887e-07
-4.44946e-07
1.41748e-06
-2.04937e-07
-5.61429e-07
1.45892e-06
-2.01137e-07
-6.68829e-07
1.48366e-06
-1.97949e-07
-7.43178e-07
1.47385e-06
-1.98193e-07
-7.74596e-07
1.39393e-06
-1.96797e-07
-7.89833e-07
1.20404e-06
-2.13448e-07
-8.7988e-07
9.67956e-07
-2.6222e-07
-1.03985e-06
8.36757e-07
-3.61665e-07
-1.18647e-06
8.13642e-07
-4.13739e-07
-1.38209e-06
8.45921e-07
-2.95692e-07
-1.86868e-06
9.41326e-07
-7.4999e-08
-2.88884e-06
1.19992e-06
1.87963e-07
-4.38777e-06
1.37656e-06
4.0381e-07
-5.01369e-06
3.73764e-09
1.02227e-08
-4.11989e-06
-3.54654e-06
-7.63748e-07
-2.63142e-06
-5.96454e-06
-1.99115e-06
-4.42507e-06
-3.89775e-06
-2.59042e-06
-7.76104e-06
-9.25093e-07
-5.46832e-06
-7.6817e-06
2.50518e-06
-1.15656e-05
-6.54725e-06
1.96092e-06
-9.9803e-06
-5.70469e-06
-3.10692e-06
-8.30382e-06
-1.20043e-05
-9.53656e-06
-5.88581e-06
1.15392e-05
-3.56249e-06
-1.17586e-05
1.78433e-05
-4.81125e-06
-6.26709e-06
2.31278e-05
-1.74921e-06
1.33878e-05
4.38687e-05
2.21327e-06
-4.19717e-06
9.36074e-06
-1.12133e-05
-1.20675e-05
5.85665e-06
1.04466e-06
-2.85804e-06
2.29252e-06
-9.03647e-07
-3.07937e-06
-9.73692e-06
7.77227e-06
1.54473e-06
-1.39644e-05
4.31396e-06
-1.95215e-06
-1.66366e-05
6.28058e-06
-2.50107e-07
-2.11054e-05
1.0676e-05
2.63664e-06
-3.04254e-05
1.43217e-05
5.42082e-06
-3.89059e-05
1.16427e-05
4.93208e-06
-4.20202e-05
8.21717e-06
2.33564e-06
-4.17535e-05
6.02649e-06
1.85743e-06
-4.05576e-05
3.97513e-06
1.8078e-06
-3.87168e-05
-8.4956e-07
1.03717e-06
-3.61969e-05
-4.65691e-06
5.01483e-07
-3.39427e-05
-7.25077e-06
2.2148e-07
-3.17295e-05
-8.96334e-06
-5.06838e-07
-2.78041e-05
-1.10736e-05
-1.9943e-06
-2.27692e-05
-1.22137e-05
-2.72038e-06
-1.75304e-05
-1.13547e-05
-3.74628e-06
-1.17936e-05
-1.27948e-05
-4.30509e-06
-5.27162e-06
-1.42169e-05
-3.6074e-06
1.60359e-06
-1.51448e-05
-2.89866e-06
9.12305e-06
-1.71951e-05
-2.09508e-06
1.38164e-05
-1.72114e-05
-3.93719e-09
1.35646e-05
-1.9504e-05
2.60182e-06
1.04636e-05
-2.38038e-05
4.4712e-06
7.71487e-06
-2.13963e-05
5.59016e-06
6.77852e-06
-7.87591e-06
3.8036e-06
9.95277e-06
-3.78277e-06
-1.22458e-06
1.54399e-05
-2.0429e-06
-3.00017e-06
1.60723e-05
6.00665e-06
1.5225e-06
9.65966e-06
1.45057e-05
7.12517e-06
6.1137e-06
2.23719e-05
2.69005e-06
5.80017e-06
3.56024e-05
-4.43233e-06
2.73922e-06
4.4969e-05
-2.30504e-06
5.43629e-05
-2.54181e-06
-4.09204e-06
-2.41162e-06
1.44364e-06
-3.621e-06
-4.47467e-06
-8.36157e-07
-3.6257e-06
-3.30414e-06
-2.63006e-07
-2.36532e-06
-3.82556e-06
-1.41906e-06
-1.38015e-06
-3.61787e-06
-8.62894e-07
-2.36557e-07
-3.24627e-06
-9.10708e-07
1.8943e-07
-1.15706e-06
-1.27034e-07
6.20099e-08
4.32248e-07
3.74526e-08
6.40263e-08
8.41949e-07
-2.9672e-07
-5.03727e-08
1.0897e-06
-2.50077e-07
-2.70993e-08
1.14737e-06
-2.85468e-07
-2.77574e-08
1.24867e-06
-2.5458e-07
-1.10537e-08
1.2953e-06
-2.62827e-07
2.44846e-11
1.19868e-06
-3.04902e-07
2.87901e-09
1.16053e-06
-3.54878e-07
-1.17534e-08
1.18189e-06
-3.92018e-07
-4.05364e-08
1.25681e-06
-4.18676e-07
-8.01695e-08
1.35333e-06
-4.34175e-07
-1.26047e-07
1.44178e-06
-4.47277e-07
-1.76692e-07
1.51091e-06
-4.58572e-07
-2.21181e-07
1.55116e-06
-4.67858e-07
-2.54065e-07
1.57377e-06
-4.74733e-07
-2.76267e-07
1.58917e-06
-4.78717e-07
-2.88298e-07
1.59979e-06
-4.80442e-07
-2.90945e-07
1.6105e-06
-4.79636e-07
-2.86961e-07
1.61834e-06
-4.77216e-07
-2.8021e-07
1.619e-06
-4.75065e-07
-2.70409e-07
1.61741e-06
-4.73775e-07
-2.61955e-07
1.62471e-06
-4.70831e-07
-2.65784e-07
1.65525e-06
-4.64679e-07
-2.92772e-07
1.71051e-06
-4.56665e-07
-3.43642e-07
1.77247e-06
-4.47824e-07
-4.14257e-07
1.8349e-06
-4.41193e-07
-4.94149e-07
1.88898e-06
-4.38095e-07
-5.70228e-07
1.93112e-06
-4.37738e-07
-6.24707e-07
1.95314e-06
-4.39908e-07
-6.3068e-07
1.93663e-06
-4.47217e-07
-5.7978e-07
1.88447e-06
-4.61645e-07
-4.71791e-07
1.76928e-06
-4.83454e-07
-3.61118e-07
1.60903e-06
-5.15459e-07
-4.12574e-07
1.56192e-06
-5.4185e-07
-7.40665e-07
1.72508e-06
-5.56677e-07
-1.12098e-06
1.75488e-06
-5.50191e-07
-1.38628e-06
1.59206e-06
-4.6256e-07
-1.67975e-06
1.54811e-06
-2.86531e-07
-2.37664e-06
1.987e-06
-5.52429e-08
-3.75793e-06
2.41406e-06
3.97105e-07
-4.40491e-06
7.68093e-07
-2.21858e-08
-3.76061e-06
-3.24961e-06
-8.22985e-07
-2.64277e-06
-4.74081e-06
-2.12763e-06
-2.72921e-06
1.3452e-06
-4.88114e-06
-3.23583e-06
7.65973e-06
-7.95128e-06
-3.5345e-06
1.22426e-05
-9.34512e-06
-5.79038e-06
1.10747e-05
-7.03965e-06
-7.64875e-06
6.38891e-06
-7.43049e-06
-1.17012e-05
-5.74558e-07
-5.9608e-06
1.14339e-05
-8.97766e-06
-1.59342e-05
1.88533e-05
-3.73645e-06
-9.0751e-06
3.73092e-05
6.54296e-06
9.0169e-06
4.43466e-05
7.70822e-06
-3.43499e-06
-2.17626e-05
1.22083e-05
-1.92116e-06
-3.44462e-05
8.53678e-06
4.20647e-06
-4.58257e-05
9.09099e-06
1.30895e-06
-4.74844e-05
8.69731e-06
6.69017e-07
-4.99226e-05
1.02241e-05
-3.56971e-06
-5.26853e-05
1.36853e-05
-4.73248e-06
-5.5116e-05
1.64638e-05
-3.46508e-06
-5.52057e-05
1.54762e-05
-1.11999e-06
-5.37968e-05
1.19583e-05
-1.76246e-06
-5.06685e-05
8.38386e-06
-3.3587e-06
-4.80044e-05
6.17596e-06
-2.87543e-06
-4.47863e-05
3.08499e-06
-2.35808e-06
-4.19056e-05
-1.59498e-06
-2.15426e-06
-4.03585e-05
-4.54996e-06
-1.64995e-06
-3.8749e-05
-7.07056e-06
-1.77472e-06
-3.50474e-05
-9.82272e-06
-2.83775e-06
-2.90418e-05
-1.30538e-05
-4.05279e-06
-2.08959e-05
-1.4906e-05
-5.52076e-06
-1.2348e-05
-1.35862e-05
-6.43e-06
-6.20419e-06
-1.22736e-05
-6.82532e-06
6.04201e-07
-1.39518e-05
-7.29338e-06
7.61958e-06
-1.71382e-05
-5.2537e-06
1.28942e-05
-1.86493e-05
-4.03702e-06
1.69145e-05
-1.99836e-05
-1.44221e-06
1.68936e-05
-2.24984e-05
2.87621e-06
1.31184e-05
-2.49211e-05
4.75386e-06
6.72547e-06
-2.11346e-05
5.99759e-06
1.95645e-06
-9.65638e-06
6.48231e-06
3.6312e-06
-7.10985e-06
1.58073e-06
7.61895e-06
-4.80239e-06
-1.33681e-06
7.63383e-06
2.4274e-06
3.47535e-06
2.68806e-06
1.05516e-05
8.91814e-06
1.37226e-06
2.30484e-05
6.06219e-07
4.0987e-06
3.52466e-05
-2.68554e-06
1.56683e-06
4.34815e-05
3.60205e-06
5.13037e-05
4.81637e-06
-3.30812e-06
-1.37379e-06
2.45392e-06
-3.7006e-06
-4.007e-06
-8.11724e-08
-4.18839e-06
-3.01779e-06
2.05892e-07
-3.06032e-06
-3.82484e-06
-1.12006e-06
-1.89006e-06
-3.85143e-06
-9.24527e-07
-3.66714e-07
-3.62442e-06
-1.13395e-06
2.92736e-07
-1.73906e-06
-7.03899e-08
1.66591e-07
1.74046e-07
3.91047e-07
7.63381e-08
8.61697e-07
7.93271e-08
-5.121e-08
1.13726e-06
8.54334e-08
-2.28864e-09
1.13109e-06
-2.95364e-08
4.46537e-08
1.18621e-06
1.6901e-08
1.22325e-07
1.17984e-06
3.88706e-08
1.35645e-07
1.10391e-06
8.21669e-08