/*--------------------------------*- C++ -*----------------------------------*\
| =========                 |                                                 |
| \\      /  F ield         | OpenFOAM: The Open Source CFD Toolbox           |
|  \\    /   O peration     | Version:  2.3.0                                 |
|   \\  /    A nd           | Web:      www.OpenFOAM.org                      |
|    \\/     M anipulation  |                                                 |
\*---------------------------------------------------------------------------*/
FoamFile
{
    version     2.0;
    format      ascii;
    class       volVectorField;
    location    "56";
    object      U.air;
}
// * * * * * * * * * * * * * * * * * * * * * * * * * * * * * * * * * * * * * //

dimensions      [0 1 -1 0 0 0 0];

internalField   nonuniform List<vector> 
6144
(
(0.0108311 0.0203567 -0.000991333)
(0.0109302 -0.00176808 -0.0020644)
(0.00438588 -0.00285733 -0.00291027)
(0.00356868 -0.00266139 -0.00265256)
(0.00212967 -0.00132328 -0.00189726)
(0.00311801 0.00131764 -0.00164206)
(0.00333835 0.000544393 -0.00131765)
(0.00327109 0.00122354 -0.00116964)
(0.00261068 0.000733152 -0.000922734)
(0.00194516 0.00199363 -0.00036033)
(0.00138628 0.00312404 0.000229835)
(0.00129617 0.00427267 0.000939531)
(0.0013993 0.00443729 0.00138348)
(0.00153219 0.00397232 0.00178106)
(0.0015729 0.00311667 0.00184667)
(0.0016527 0.00228257 0.00178246)
(0.00172389 0.00140372 0.00157483)
(0.00180197 0.000669398 0.00132227)
(0.00187435 6.68956e-05 0.00105333)
(0.00193648 -0.000352037 0.00080577)
(0.00197799 -0.000600485 0.000580889)
(0.00201307 -0.000671254 0.000387903)
(0.0020295 -0.000626894 0.000272748)
(0.00202222 -0.000513522 0.000244542)
(0.00199062 -0.000364362 0.000290018)
(0.0019406 -0.000202247 0.000399353)
(0.0018834 -5.2677e-05 0.000549324)
(0.00182999 5.37269e-05 0.000706231)
(0.00176985 0.000101911 0.000867243)
(0.00170405 0.000115241 0.0010152)
(0.00163599 0.000112062 0.00115581)
(0.00156936 8.99138e-05 0.00130047)
(0.00150667 3.24141e-05 0.00145668)
(0.00145231 -8.52797e-05 0.00162452)
(0.00141037 -0.000297502 0.00178708)
(0.00138199 -0.000609393 0.00189414)
(0.00136638 -0.000971004 0.00190417)
(0.00136396 -0.00132133 0.00179164)
(0.00137566 -0.0015014 0.00146522)
(0.00144839 -0.00132685 0.00076883)
(0.00162112 -0.000440429 -0.000269444)
(0.00219628 0.00127732 -0.00139203)
(0.00333316 0.00301351 -0.00222148)
(0.00487432 0.00345838 -0.00252542)
(0.00614117 0.00199857 -0.00286205)
(0.00753009 -0.00123526 -0.003118)
(0.00911798 -0.00828031 -0.00325486)
(0.00907874 -0.0120635 -0.00431998)
(0.00439228 -0.0136134 -0.00412483)
(-0.00232858 0.000484683 -0.00208503)
(0.0113975 0.00914606 -0.00764117)
(0.0153526 0.000771721 -0.00591362)
(0.00711098 -0.00611227 0.00419107)
(0.00469283 -0.0427302 0.0131652)
(0.00676412 -0.0709651 0.00985119)
(-0.00594601 -0.116211 0.0067131)
(-0.0138681 -0.0547146 -0.000647052)
(0.000113758 -0.104001 0.0433144)
(-0.0429828 -0.00250678 -0.0345858)
(0.0202397 0.0799128 0.0452775)
(0.056633 0.341528 0.0638306)
(0.0161523 0.3811 0.0093323)
(0.0269175 -0.158417 0.0164619)
(0.0250626 -0.192896 0.0148014)
(0.0222125 -0.190447 0.0119999)
(0.0191137 -0.195238 0.00892179)
(0.0172674 -0.200294 0.00509061)
(0.0170002 -0.198936 0.00401725)
(0.0155232 -0.195384 -0.00112739)
(0.0170119 -0.185726 -0.00335409)
(0.0146834 -0.176201 -0.00407069)
(0.0116662 -0.161527 -0.00425416)
(0.00563859 -0.13648 -0.00843753)
(0.00342388 -0.109054 -0.0112745)
(0.00859019 -0.0798915 -0.0111042)
(0.00482246 -0.0659589 -0.00493398)
(0.002629 -0.0576602 0.00739778)
(0.00562183 -0.0606697 0.015651)
(0.00921055 -0.0710978 0.0227408)
(0.00243778 -0.0895971 0.024957)
(-0.00935079 -0.0940181 0.0186657)
(-0.0163529 -0.0832355 0.00600647)
(-0.00819569 -0.0611646 0.00114528)
(0.00659773 -0.0503093 0.00576717)
(0.0173312 -0.0539342 0.00577054)
(0.0247998 -0.0607054 0.00109343)
(0.0245929 -0.0735594 0.000268418)
(0.0207547 -0.0843452 -0.0017439)
(0.0182677 -0.0910741 -0.0011198)
(0.0156625 -0.100867 0.000232207)
(0.0139778 -0.103546 0.00398326)
(0.0117321 -0.100384 0.00706404)
(0.00515586 -0.0893808 0.00671173)
(-0.00799387 -0.0655134 0.0146079)
(-0.0222602 -0.0282007 0.0195795)
(-0.0227072 -0.00488148 0.0368663)
(0.0206873 0.0211434 0.00292641)
(0.0219593 0.00668864 0.00201813)
(0.0115217 0.00281549 -0.00200612)
(0.00970226 0.00133235 -0.000522786)
(0.00481373 -0.00205741 0.000739943)
(0.00525571 0.000321193 0.00124583)
(0.00538701 -6.42016e-05 0.00202414)
(0.00507636 0.00153621 0.00232281)
(0.00382746 0.00140336 0.00242456)
(0.00257256 0.00323416 0.00252266)
(0.00191494 0.00442009 0.00277739)
(0.00208893 0.00542286 0.00349316)
(0.00242615 0.0053746 0.0040354)
(0.00283883 0.00493065 0.00433846)
(0.00296483 0.00404228 0.00440337)
(0.00311416 0.00318723 0.00439352)
(0.00320036 0.00225023 0.0043227)
(0.00328003 0.00145449 0.00424086)
(0.00334138 0.000756365 0.00415761)
(0.00337963 0.000226858 0.00409316)
(0.00338198 -0.000139026 0.00404816)
(0.00338633 -0.000318779 0.00398666)
(0.0033718 -0.000377461 0.00395145)
(0.00332005 -0.000354027 0.00397146)
(0.00322634 -0.000278703 0.00404007)
(0.00310542 -0.000170428 0.00414593)
(0.00298144 -5.29751e-05 0.00426309)
(0.00288432 4.46997e-05 0.00434434)
(0.0027846 9.61362e-05 0.00443489)
(0.00267188 0.000116703 0.00452364)
(0.00255772 0.000112815 0.00460808)
(0.00245555 8.23728e-05 0.00468924)
(0.00237355 1.572e-05 0.00476812)
(0.00233066 -0.000104203 0.00484449)
(0.00233288 -0.000300776 0.00490991)
(0.00236048 -0.000577011 0.00494941)
(0.0023938 -0.000893868 0.00495208)
(0.00241074 -0.00118128 0.00490038)
(0.00233942 -0.00122903 0.00474037)
(0.00230723 -0.000775837 0.00418903)
(0.00243271 0.000513016 0.00303103)
(0.00320447 0.00238432 0.00181553)
(0.00524646 0.00436838 0.000804243)
(0.00861005 0.00618265 -0.000285193)
(0.0126707 0.00725922 -0.00100215)
(0.0175679 0.00630712 -0.00114768)
(0.0197651 0.00254245 -0.0016822)
(0.0149986 0.00307788 -0.00426977)
(0.00195426 0.00622717 -0.00576884)
(-0.00147068 0.0158243 -0.00413472)
(0.0220348 0.0142362 -0.00349284)
(0.0238794 0.00828498 -0.00541118)
(0.0188291 -0.00688213 0.00353214)
(0.0185442 -0.062969 0.0177261)
(0.0224608 -0.094281 0.00365377)
(-0.0093607 -0.136671 -0.00244783)
(-0.0282572 -0.0787979 -0.0105513)
(-0.0337067 -0.142878 0.046022)
(-0.0646961 0.0469904 -0.0536752)
(-0.0173074 0.0279816 0.00831266)
(0.070932 0.362449 0.0912682)
(0.0255546 0.406295 0.0129377)
(0.0279301 -0.108598 0.00797022)
(0.0297964 -0.106727 0.016447)
(0.0235018 -0.104007 0.0117191)
(0.0119636 -0.097282 -0.00339057)
(0.0121296 -0.0786907 -0.00670103)
(0.00917849 -0.0507849 -0.00262753)
(0.0134588 -0.0257116 -0.00782679)
(0.0157332 0.0103933 -0.0220268)
(-0.000302443 0.0334895 -0.0213613)
(0.000985912 0.0543896 -0.0163861)
(0.0176306 0.0626571 -0.00273351)
(0.0253618 0.0510317 0.00915481)
(0.027362 0.0545215 0.0219865)
(0.032871 0.0484845 0.0312327)
(0.0365825 0.0446951 0.0354578)
(0.0276016 0.0308467 0.0344378)
(0.0204959 0.018775 0.0306817)
(0.0108138 0.00441858 0.025684)
(0.00130343 -0.0105113 0.0149563)
(-0.00213431 -0.0134363 -0.00154078)
(0.0135442 -0.00812152 -0.0190685)
(0.0301867 -0.0131693 -0.0232686)
(0.0445155 -0.0231472 -0.0266495)
(0.0429379 -0.0320448 -0.025106)
(0.0344086 -0.049739 -0.0175158)
(0.0261838 -0.0597507 -0.0110591)
(0.0175818 -0.0716565 -0.00410433)
(0.00651216 -0.0802184 -0.00582782)
(-0.00774017 -0.0826546 -0.00605068)
(-0.0178724 -0.0771974 -0.00340246)
(-0.0330187 -0.0594349 -0.0049936)
(-0.0510223 -0.0410114 0.0082523)
(-0.0610431 -0.0199698 0.0176863)
(-0.0665882 -0.00502986 0.0415325)
(0.0237398 0.0212175 0.00413376)
(0.0263267 0.0124993 0.00401905)
(0.0169342 0.00714573 0.000526541)
(0.0140437 0.00567968 0.00202418)
(0.00653041 0.00013503 0.00311512)
(0.00489417 0.00134436 0.00317053)
(0.00382648 0.00080042 0.0041243)
(0.00328445 0.00240537 0.00422232)
(0.00181661 0.00218721 0.00412517)
(0.000864329 0.00335291 0.00406969)
(0.000385076 0.00373527 0.00414084)
(0.00088996 0.00453238 0.00447069)
(0.00136 0.00449786 0.00480476)
(0.00181989 0.00444971 0.00504949)
(0.00197421 0.0039525 0.00509157)
(0.00215445 0.00347104 0.00507942)
(0.00225463 0.00284301 0.00502812)
(0.002355 0.00228774 0.00498165)
(0.00241736 0.00174144 0.00493672)
(0.00244657 0.00128627 0.00491331)
(0.00242435 0.000899213 0.00491077)
(0.00236159 0.00060114 0.0049408)
(0.00227047 0.000384284 0.00499035)
(0.00215463 0.000246186 0.00504537)
(0.00201104 0.000167222 0.00510376)
(0.00185288 0.000133109 0.005165)
(0.00169405 0.000124062 0.00522881)
(0.00153813 0.000133736 0.00530127)
(0.00138527 0.000152981 0.00538048)
(0.00121922 0.000167089 0.00546169)
(0.00105224 0.000171869 0.00553976)
(0.00090325 0.000162236 0.00561155)
(0.000792514 0.000152398 0.00567524)
(0.000747344 0.000156023 0.00572298)
(0.000771844 0.000173372 0.00575656)
(0.000841708 0.000200536 0.00577832)
(0.000920303 0.000242879 0.00578489)
(0.000957498 0.000371187 0.00575694)
(0.000884706 0.000768654 0.00564987)
(0.000696665 0.001595 0.00531918)
(0.000869312 0.0028608 0.00461843)
(0.00218936 0.00373746 0.00349867)
(0.00432086 0.00461119 0.00246798)
(0.00795592 0.0072432 0.00156316)
(0.0131099 0.0118598 0.000779092)
(0.0188597 0.0172653 0.000757936)
(0.0215733 0.024343 -0.000390729)
(0.0167458 0.0344564 -0.0028533)
(0.0108521 0.0382729 -0.00166325)
(0.0111687 0.0268661 0.0056991)
(0.03056 0.0200407 0.00865503)
(0.0401193 -0.00852767 0.00349069)
(0.0433864 -0.0302687 0.00415888)
(0.047236 -0.0903867 0.0217588)
(0.0438132 -0.117173 0.00691439)
(0.00498741 -0.15913 -0.00447333)
(-0.0268869 -0.116814 -0.0168186)
(-0.0557553 -0.155552 0.0266705)
(-0.0840043 0.0201237 -0.0806799)
(0.0195448 0.0481208 -0.0406289)
(0.112971 0.351018 0.117297)
(0.0689578 0.413406 0.038346)
(0.0585221 -0.0975303 0.0267314)
(0.0519449 -0.0861531 0.0247575)
(0.0391041 -0.0773336 -0.0105162)
(0.0267909 -0.0470978 -0.0177559)
(0.0261084 -0.0280687 -0.0208683)
(0.0241863 -0.0159868 -0.0181814)
(0.0254853 -0.00331267 -0.0249832)
(0.0306844 0.0306426 -0.0194489)
(0.0285131 0.0435227 0.00947058)
(0.0245782 0.0193916 0.0330474)
(0.0224138 0.0117899 0.026707)
(0.0171824 0.0135129 0.0112825)
(0.00870086 0.0371174 0.0225159)
(0.0102036 0.0546972 0.0378943)
(0.0165867 0.0686134 0.0366129)
(0.0228364 0.0657866 0.0138293)
(0.0197631 0.0511767 0.00268241)
(0.0186521 0.0420655 -0.0037115)
(0.0184963 0.0296004 -0.0113526)
(0.0252199 0.0208419 -0.0151873)
(0.0365848 0.0106718 -0.0136891)
(0.046811 -0.000175268 -0.0136579)
(0.0579659 -0.0128476 -0.0139239)
(0.0509074 -0.0242303 -0.0113791)
(0.0346232 -0.0455616 0.00591003)
(0.0225318 -0.0541783 0.0159301)
(0.0157655 -0.064692 0.0165407)
(0.00702655 -0.0713385 0.00732574)
(-0.00415783 -0.0670457 0.00448584)
(-0.0131411 -0.0522827 -0.00399925)
(-0.0351907 -0.0226756 -0.00329031)
(-0.0651859 -0.015814 0.00607333)
(-0.0903445 0.000894182 0.0187452)
(-0.107657 0.000135319 0.0466668)
(0.0245544 0.0214395 0.00417252)
(0.0281781 0.0169319 0.00440991)
(0.02014 0.0100456 0.000483706)
(0.0181872 0.0104135 0.000812961)
(0.00902386 0.0031241 0.00131992)
(0.0052642 0.00343144 0.00225266)
(0.00240937 0.00132572 0.00405907)
(0.00190058 0.00305986 0.0043762)
(0.000483076 0.00198063 0.00439733)
(-0.000406882 0.00262494 0.00427285)
(-0.000894008 0.00246389 0.00434458)
(-0.000415414 0.00313115 0.00469185)
(-9.77921e-05 0.00338157 0.00498841)
(0.000394098 0.0037283 0.00521426)
(0.000623523 0.00356944 0.00525656)
(0.000828614 0.00337368 0.0052799)
(0.000921977 0.00294828 0.00526753)
(0.000999005 0.00255522 0.00526681)
(0.0010279 0.00212621 0.00525311)
(0.00102603 0.00174734 0.00524245)
(0.000974336 0.00139061 0.00523474)
(0.000887645 0.00107114 0.00524223)
(0.000767655 0.000793955 0.00526259)
(0.00062209 0.000572579 0.00528927)
(0.000457395 0.000406075 0.00532285)
(0.000285069 0.000293799 0.00536272)
(0.000118894 0.00022821 0.00540421)
(-3.17239e-05 0.000195914 0.00544867)
(-0.000174542 0.000184771 0.00550269)
(-0.000323861 0.00018669 0.00556501)
(-0.000467053 0.000205823 0.0056289)
(-0.000587918 0.000249487 0.00568314)
(-0.000681241 0.000324562 0.00571223)
(-0.000731878 0.000448172 0.00571019)
(-0.000713881 0.000643253 0.00568042)
(-0.000633192 0.000913996 0.00564472)
(-0.000529073 0.00127569 0.00561364)
(-0.000504542 0.00180081 0.00555185)
(-0.000620692 0.00267026 0.00539539)
(-0.000556141 0.00381295 0.00498544)
(0.00044029 0.00468058 0.00428547)
(0.00240323 0.00450455 0.00342313)
(0.00375558 0.00430592 0.00259224)
(0.00532778 0.00624984 0.00176692)
(0.00854297 0.0115443 0.00112451)
(0.0127306 0.0196239 0.00105065)
(0.0150762 0.0317847 0.000916899)
(0.0148219 0.042347 0.00144758)
(0.0135532 0.0449839 0.00506064)
(0.0173135 0.0224783 0.0136968)
(0.037819 0.01238 0.0158184)
(0.0559764 -0.023053 0.0142795)
(0.0701903 -0.0470884 0.00838256)
(0.0678402 -0.103619 0.0227977)
(0.0562308 -0.115645 0.000472024)
(0.0298754 -0.158643 -0.0066936)
(-0.0226229 -0.122942 -0.011438)
(-0.0516986 -0.175399 0.0384404)
(-0.0803733 0.0396006 -0.0975214)
(0.0314395 0.0277324 0.0102966)
(0.105452 0.36773 0.100309)
(0.0489909 0.432075 0.0326894)
(0.0405369 -0.0652521 0.0258979)
(0.0374842 0.0567962 0.0125042)
(0.0259617 -0.0267433 -0.013576)
(0.0152205 -0.0271986 -0.0174894)
(0.00897199 -0.00494392 -0.0132597)
(0.00601716 0.0164109 0.000463593)
(0.00225323 0.030473 0.0037712)
(-0.00658407 0.047405 0.00814829)
(-0.0178606 0.0621503 0.0092089)
(-0.0276704 0.0883682 0.0139718)
(-0.0170612 0.373124 0.0248617)
(-0.00786541 0.129354 0.0209657)
(0.00432711 0.114783 0.00980595)
(0.0147819 0.113289 0.0140147)
(0.0223935 0.102674 0.0251307)
(0.0308217 0.0902443 0.0274319)
(0.0347857 0.0751721 0.023185)
(0.0347931 0.0624437 0.0185532)
(0.0339258 0.0450825 0.0146312)
(0.0320063 0.0315261 0.0138786)
(0.0306877 0.0159335 0.0145359)
(0.038587 0.00204415 0.00473941)
(0.0522563 -0.0106099 -0.0041826)
(0.0475087 -0.0219274 -0.0102951)
(0.024673 -0.0420182 0.00580558)
(0.00501212 -0.0557765 0.0231401)
(-0.00153229 -0.0670153 0.0295246)
(-0.011516 -0.0799086 0.0200313)
(-0.0261394 -0.0834759 0.00991888)
(-0.0356008 -0.0674629 0.00166881)
(-0.0516067 -0.0246712 0.00195382)
(-0.0872575 -0.0185735 0.00806853)
(-0.122427 0.00444192 0.0195872)
(-0.131216 0.000262452 0.0463051)
(0.0245267 0.0216736 0.00398226)
(0.0295967 0.0205154 0.00482796)
(0.0222422 0.0126264 0.000831141)
(0.0227493 0.0138592 0.000535226)
(0.0136801 0.00625353 -0.00116492)
(0.0079741 0.00597738 -0.000290833)
(0.00189573 0.00115641 0.00273871)
(0.00053518 0.00332714 0.00353268)
(-0.000836491 0.00169392 0.00378352)
(-0.00170453 0.00212632 0.00393793)
(-0.00252602 0.00147693 0.00407955)
(-0.00247017 0.00204257 0.00448864)
(-0.00242779 0.00243522 0.00473349)
(-0.001908 0.00305946 0.00497968)
(-0.00163466 0.00312238 0.00501367)
(-0.00141424 0.00307828 0.00507686)
(-0.00134864 0.00276784 0.00511733)
(-0.00135082 0.0024868 0.00516746)
(-0.00140442 0.00216427 0.0051815)
(-0.00147243 0.00187133 0.00517229)
(-0.00155723 0.00156932 0.00514054)
(-0.00165879 0.00126749 0.0051058)
(-0.00177722 0.000978365 0.00507528)
(-0.00191265 0.000722278 0.00505353)
(-0.00206733 0.000506931 0.00504083)
(-0.00223351 0.000339106 0.00503288)
(-0.00238383 0.000218972 0.00503234)
(-0.00251365 0.000136725 0.00503874)
(-0.00263559 9.62688e-05 0.00504887)
(-0.00276891 0.000100736 0.00506725)
(-0.00290856 0.000152156 0.00508503)
(-0.00303379 0.000257189 0.00508775)
(-0.00313529 0.000430139 0.00506071)
(-0.0031858 0.000689962 0.00499689)
(-0.00316833 0.00106274 0.00491301)
(-0.00311054 0.00159694 0.00482679)
(-0.00310118 0.00233882 0.00472628)
(-0.00326119 0.00330473 0.00457535)
(-0.003466 0.00448596 0.00434276)
(-0.00298123 0.00562782 0.00393184)
(-0.00108102 0.00607424 0.00333941)
(0.00129076 0.00553339 0.00273303)
(0.00204721 0.00488303 0.00188552)
(0.00212074 0.00553917 0.00092984)
(0.00389682 0.00945396 0.000114475)
(0.00660337 0.0163674 0.000437934)
(0.00815004 0.027589 0.00149612)
(0.0112466 0.0372599 0.00429081)
(0.020152 0.0397867 0.00954438)
(0.0303 0.0206383 0.0175203)
(0.0477488 0.00416721 0.0202758)
(0.0661534 -0.0254292 0.0141885)
(0.0894877 -0.0373754 0.018306)
(0.0773512 -0.0755346 0.0281858)
(0.0555948 -0.0789899 0.00791592)
(0.0773468 -0.122338 0.0136426)
(-0.00706548 -0.0843162 0.0129426)
(-0.0109544 -0.171534 0.0721816)
(-0.0712966 0.0766084 -0.0752057)
(0.0241317 0.0161677 0.00448148)
(0.1075 0.423797 0.105329)
(0.034492 0.553236 0.0302626)
(0.0269594 0.442765 0.0177422)
(0.0216285 0.49624 -0.000107504)
(0.00655068 0.483547 -0.00739142)
(-0.017522 0.501148 -0.00280631)
(-0.0276392 0.530348 -4.50709e-05)
(-0.0234351 0.57033 0.00840971)
(-0.0164258 0.598732 0.0226102)
(-0.0131499 0.610785 0.0265274)
(-0.0151568 0.621418 0.0235035)
(-0.0201538 0.632382 0.0218323)
(-0.00862252 0.648811 0.0180197)
(0.00969857 0.662809 0.0201801)
(0.0211494 0.660026 0.0295084)
(0.0243813 0.650175 0.0321268)
(0.029091 0.638723 0.0258962)
(0.0325521 0.62961 0.0227909)
(0.0341779 0.616506 0.0222194)
(0.0333195 0.594619 0.0192871)
(0.0282725 0.567672 0.019004)
(0.0274746 0.511203 0.0178924)
(0.0318578 0.351469 0.00873731)
(0.0374278 0.0131727 0.00479467)
(0.061382 -0.00674437 -0.00716254)
(0.0700831 -0.011317 -0.0228318)
(0.0365691 -0.0254163 -0.0186955)
(0.00307237 -0.0435787 0.0134667)
(-0.00406812 -0.0543662 0.0242623)
(-0.0117908 -0.0692349 0.0176651)
(-0.0367122 -0.0836637 -0.00147084)
(-0.0542538 -0.0691426 -0.0131221)
(-0.0670681 -0.0293129 -0.000350471)
(-0.097565 -0.0259766 0.0120148)
(-0.130645 -0.00433343 0.0105934)
(-0.153771 -0.00670409 0.0363975)
(0.0233201 0.0210288 0.00367387)
(0.030603 0.0246949 0.00610363)
(0.0231664 0.0148861 0.00235174)
(0.0249036 0.016174 0.00228879)
(0.0187879 0.00730163 -0.00123524)
(0.0134149 0.00761232 -0.00181814)
(0.00278806 0.000274007 0.000476899)
(-0.000596929 0.00313515 0.00190391)
(-0.00152106 0.00109363 0.00263724)
(-0.00254556 0.00176961 0.00317952)
(-0.00338684 0.000721742 0.003332)
(-0.00351824 0.00131535 0.00381676)
(-0.00355397 0.00174305 0.00404974)
(-0.0028547 0.0025782 0.0044582)
(-0.00234171 0.00266189 0.00466432)
(-0.00201353 0.00262534 0.0048984)
(-0.00194204 0.00232642 0.00506499)
(-0.00203158 0.00210642 0.00518517)
(-0.00216645 0.00189457 0.00522211)
(-0.00229719 0.00173511 0.00519772)
(-0.00242332 0.00156661 0.00511542)
(-0.00255636 0.0013797 0.00500081)
(-0.00270884 0.00117786 0.00487687)
(-0.00286791 0.000978499 0.00475578)
(-0.00302114 0.000798649 0.00464537)
(-0.00316329 0.000657705 0.00454268)
(-0.00328098 0.000547248 0.00444633)
(-0.00338078 0.000457905 0.00436272)
(-0.00349228 0.000397306 0.00429528)
(-0.00361509 0.00038487 0.00425444)
(-0.00374168 0.000447126 0.00423006)
(-0.00386195 0.000603227 0.00419538)
(-0.00398343 0.000868406 0.00412546)
(-0.00410139 0.00125991 0.00400445)
(-0.00423333 0.00179717 0.00382227)
(-0.00440351 0.00251223 0.00358638)
(-0.00459517 0.00339574 0.00332732)
(-0.00475039 0.00436037 0.00309285)
(-0.00464326 0.00522226 0.00300168)
(-0.00361826 0.00573481 0.00314447)
(-0.00126981 0.00596625 0.00362111)
(0.000837447 0.0060951 0.00413077)
(0.00133369 0.00574716 0.00397816)
(0.000712857 0.00562204 0.00280316)
(0.000809052 0.00797407 0.00137617)
(0.00153485 0.0135534 0.00109306)
(0.00210343 0.0230658 0.00124249)
(0.00521994 0.0308745 0.00330242)
(0.0177716 0.0294697 0.00976379)
(0.034338 0.0184976 0.0200033)
(0.0506504 0.00478975 0.0245026)
(0.0641415 0.00192834 0.0166648)
(0.0710595 0.0114265 0.0418034)
(0.0477277 -0.0198917 0.051228)
(0.0584561 -0.00320379 0.07208)
(0.122329 -0.0858583 0.0645343)
(-0.00447981 0.0287833 0.0827285)
(0.020248 -0.199341 0.140741)
(0.0133095 0.199597 -0.0193806)
(0.0291518 -0.0247662 0.0329064)
(0.0890495 0.459919 0.116662)
(0.0180147 0.572699 0.0271261)
(0.027903 0.453657 0.0282603)
(0.0216415 0.514206 0.00371107)
(-0.0140409 0.51108 0.000869601)
(-0.0350809 0.542588 0.0133054)
(-0.0417298 0.560655 0.0123527)
(-0.0307881 0.594142 0.0118834)
(-0.0263047 0.621827 0.0119974)
(-0.0288623 0.649275 0.0103756)
(-0.0297422 0.677495 0.00937583)
(-0.0155888 0.693183 0.0231384)
(0.0016966 0.68619 0.0318142)
(0.0125174 0.674482 0.0307806)
(0.0277521 0.674149 0.0278439)
(0.0364882 0.664549 0.0288746)
(0.0416697 0.651533 0.0306251)
(0.0442931 0.635103 0.030445)
(0.0467519 0.617454 0.0298194)
(0.045772 0.593625 0.0317659)
(0.0396075 0.565908 0.0317059)
(0.0405594 0.535091 0.0253463)
(0.0440979 0.511761 0.0146212)
(0.0580752 0.501942 -0.000305396)
(0.0667464 0.498862 -0.0136926)
(0.0612939 0.481574 -0.0195766)
(0.016826 0.406416 -0.0200962)
(0.00559088 0.280319 -0.00701705)
(-0.00847327 0.284998 0.00227379)
(-0.0106988 -0.0392075 -0.000145575)
(-0.041336 -0.0763348 -0.0173973)
(-0.065525 -0.0620694 -0.02482)
(-0.086084 -0.0200504 -0.00313336)
(-0.115936 -0.0251882 0.0124154)
(-0.14763 -0.0056539 0.00937565)
(-0.172964 -0.0127234 0.0331411)
(0.0207354 0.0194365 0.00413776)
(0.0311454 0.0288815 0.00855688)
(0.0230787 0.0172215 0.00496047)
(0.0249539 0.0185809 0.00525442)
(0.0210937 0.00717404 0.00125106)
(0.0178107 0.00748087 0.000370058)
(0.00473978 -0.00140547 -0.000936855)
(-0.00108508 0.00272909 0.000533912)
(-0.00285735 0.000432566 0.00163266)
(-0.0037458 0.00167731 0.00250183)
(-0.00492222 0.000514711 0.00251567)
(-0.0057046 0.00110954 0.00317728)
(-0.00611266 0.00125332 0.00351239)
(-0.00527641 0.00196124 0.00429992)
(-0.00459628 0.00185949 0.00486628)
(-0.00429455 0.00183408 0.00534993)
(-0.00437234 0.00159464 0.00564483)
(-0.00467789 0.00150353 0.00580821)
(-0.00500397 0.00145836 0.00583356)
(-0.00525527 0.00148539 0.00577052)
(-0.00542253 0.00151421 0.00562201)
(-0.00554137 0.00152665 0.00542295)
(-0.00563935 0.00151238 0.00520651)
(-0.00573228 0.00146813 0.00499041)
(-0.00584861 0.00141729 0.00480846)
(-0.00595111 0.00138257 0.00465653)
(-0.00598896 0.00134707 0.00452634)
(-0.00599609 0.0012969 0.00443982)
(-0.00601702 0.00123996 0.00439981)
(-0.00609562 0.00121226 0.00439955)
(-0.00623358 0.00127295 0.00441724)
(-0.00639699 0.00145269 0.00441627)
(-0.00658321 0.00175079 0.00435377)
(-0.00676645 0.00216026 0.0042177)
(-0.00694188 0.00266713 0.00399751)
(-0.00710257 0.00323909 0.00371604)
(-0.00723277 0.00383087 0.0033729)
(-0.00726058 0.00428324 0.00309003)
(-0.00693926 0.00453786 0.00306785)
(-0.00591439 0.0045526 0.00360368)
(-0.00440539 0.00470625 0.00479278)
(-0.00319144 0.00547544 0.00628273)
(-0.00285581 0.00633058 0.00665359)
(-0.00333867 0.0069388 0.00545046)
(-0.00393867 0.00850725 0.00344426)
(-0.00455049 0.011873 0.00193207)
(-0.00414506 0.0192643 0.000823811)
(0.00163717 0.0264772 0.000984551)
(0.017489 0.0230544 0.00785084)
(0.0318842 0.0177656 0.0214219)
(0.0318872 0.0126309 0.0304935)
(0.0310903 0.0343307 0.036586)
(0.0188185 0.0461006 0.0633462)
(0.0223738 0.0307909 0.069051)
(0.0486877 0.0495038 0.0815977)
(0.072284 -0.00980973 0.0802731)
(0.00633139 0.167105 0.150676)
(0.0300788 -0.220865 0.196693)
(0.0246441 0.233459 0.0213598)
(0.0068197 -0.0301623 0.037714)
(0.086909 0.477073 0.131305)
(0.0152565 0.57336 0.0419734)
(0.0142031 0.503396 0.0342258)
(-0.0180079 0.593822 0.0123927)
(-0.0143563 0.594367 0.0376544)
(-0.0338742 0.616576 0.0293729)
(-0.0509218 0.635294 0.00335337)
(-0.0565947 0.67699 -0.0153514)
(-0.0436805 0.715119 -0.00466375)
(-0.0345799 0.719657 0.0112029)
(-0.0231691 0.718523 0.0149004)
(-0.00976594 0.709834 0.019522)
(0.0102077 0.706247 0.023585)
(0.0226147 0.694043 0.0275482)
(0.0314895 0.682407 0.0246213)
(0.0384531 0.673763 0.0274827)
(0.0468636 0.656021 0.0319761)
(0.0503491 0.634452 0.0358595)
(0.0526463 0.614435 0.035286)
(0.0596565 0.586541 0.0354218)
(0.0591449 0.562164 0.0324537)
(0.0589754 0.527894 0.0245747)
(0.0634114 0.510612 0.0146457)
(0.0590087 0.489376 -0.000391464)
(0.0633316 0.488833 -0.0171931)
(0.0655076 0.497036 -0.0204581)
(0.0327407 0.51444 -0.0281301)
(0.000733178 0.511919 -0.0276513)
(-0.0090618 0.491757 -0.010319)
(-0.0364976 0.46798 -0.02232)
(-0.0639942 0.442646 -0.0306345)
(-0.0956596 0.452916 -0.0205034)
(-0.115254 0.46473 0.00641992)
(-0.154698 0.420447 0.0142806)
(-0.178598 0.356373 0.00703969)
(-0.195585 0.174506 0.025915)
(0.0193535 0.0140109 0.00405411)
(0.0302497 0.0315739 0.0102639)
(0.0220911 0.0192194 0.0055005)
(0.0247377 0.0227673 0.00566207)
(0.0221503 0.00869904 0.00236669)
(0.0193727 0.0074709 0.00254565)
(0.00598596 -0.00324731 -0.00211798)
(-0.00301948 0.00187794 -0.000730918)
(-0.00332735 -0.00125618 0.00211546)
(-0.00453138 0.00169917 0.00307329)
(-0.00513183 0.000385218 0.00304588)
(-0.00554378 0.00117628 0.00391456)
(-0.0056809 0.000600189 0.00454084)
(-0.00466677 0.000850307 0.00563246)
(-0.00404296 0.000580441 0.00641181)
(-0.00380343 0.000741601 0.00716193)
(-0.00397405 0.000788232 0.00761648)
(-0.00433592 0.00101811 0.00786293)
(-0.00467129 0.00122838 0.00792708)
(-0.00490858 0.00149704 0.00787504)
(-0.00507025 0.00174804 0.00771415)
(-0.00518942 0.00194175 0.00748029)
(-0.00528376 0.00207136 0.00721815)
(-0.00535931 0.0021463 0.00696038)
(-0.00544019 0.00216679 0.00672063)
(-0.0055022 0.00214737 0.00651355)
(-0.00551163 0.00210918 0.00636155)
(-0.00548805 0.00205625 0.00626162)
(-0.00548875 0.00199095 0.00621051)
(-0.00557685 0.00195082 0.00619092)
(-0.00575998 0.002013 0.00617781)
(-0.00599029 0.00219031 0.00613172)
(-0.00623341 0.00247486 0.00604275)
(-0.00648048 0.00282882 0.00587557)
(-0.0067377 0.00319047 0.00561061)
(-0.00697166 0.00349821 0.00526501)
(-0.00706817 0.00364426 0.00492978)
(-0.00687513 0.00353059 0.00471903)
(-0.00627264 0.00313263 0.00485578)
(-0.00519131 0.00257263 0.00561199)
(-0.00408505 0.0020776 0.00715655)
(-0.00363235 0.0031237 0.00912114)
(-0.00351664 0.00507681 0.00966065)
(-0.0033621 0.00649026 0.00854348)
(-0.00385676 0.00754834 0.00641953)
(-0.00598045 0.00887718 0.00399402)
(-0.00858787 0.0147189 0.000306716)
(-0.00171026 0.021137 -0.000411654)
(0.0170531 0.0187571 0.00463173)
(0.0278005 0.0159455 0.0182584)
(0.0104489 0.011121 0.0352795)
(-0.0155351 0.0160812 0.0467954)
(-0.0314027 0.0217727 0.0420435)
(-0.0288977 0.0137215 0.0465691)
(-0.00627951 0.0559924 0.0704549)
(0.0197075 -0.00842732 0.0844918)
(0.0534195 0.147082 0.159688)
(0.0549647 -0.231353 0.219293)
(-0.00644258 0.309816 0.0656436)
(-0.00834128 -0.0259779 0.0301496)
(0.0018233 0.607071 0.03712)
(-0.0372665 0.704116 -0.00673251)
(-0.0353234 0.686567 0.00481903)
(-0.0430333 0.724082 0.00675338)
(-0.039608 0.719638 0.0143852)
(-0.0511436 0.740824 0.0154282)
(-0.0558232 0.748775 0.00840075)
(-0.0549185 0.74064 0.00306899)
(-0.032941 0.734937 0.00509887)
(-0.0177203 0.726999 0.0107345)
(-0.0102081 0.710911 0.0058388)
(0.00495646 0.701926 0.0113824)
(0.0217701 0.690651 0.0137215)
(0.0319541 0.684714 0.0130162)
(0.0402514 0.678893 0.0136947)
(0.0468779 0.664494 0.0198174)
(0.0532672 0.643022 0.029861)
(0.055634 0.615006 0.0360321)
(0.0559739 0.587672 0.0346793)
(0.0653375 0.558965 0.0309056)
(0.0746745 0.544208 0.0294696)
(0.0797252 0.513687 0.0216451)
(0.082562 0.50059 0.017694)
(0.0799642 0.486028 0.00918319)
(0.0778785 0.484698 -0.00953978)
(0.0661993 0.499191 -0.0210937)
(0.0338734 0.521668 -0.0355832)
(0.00402248 0.533346 -0.0516901)
(-0.0146754 0.523466 -0.0449405)
(-0.0251308 0.514549 -0.0330018)
(-0.0661909 0.511154 -0.0378074)
(-0.0913301 0.518659 -0.019199)
(-0.12226 0.507815 0.0147952)
(-0.157684 0.345761 0.0208747)
(-0.165732 0.0441175 0.0112174)
(-0.196875 0.210085 0.00627577)
(0.0124908 0.00566673 0.000591402)
(0.0267138 0.0320049 0.0098012)
(0.0197819 0.0210058 0.00344155)
(0.0239766 0.02786 0.00336349)
(0.0231795 0.0126809 0.0014471)
(0.0211218 0.00968891 0.00253199)
(0.00782804 -0.00377975 -0.00511245)
(-0.00228013 0.00093423 -0.00522507)
(-0.0063161 -0.00159641 -0.00153326)
(-0.00773813 0.00186276 0.000270832)
(-0.00771664 0.000261633 0.000411311)
(-0.00820378 0.00100721 0.00114646)
(-0.00831546 -8.44309e-05 0.00178702)
(-0.00785565 1.99652e-05 0.00268168)
(-0.00773262 -0.000195111 0.00336219)
(-0.0078854 0.00018261 0.00406302)
(-0.00825695 0.000429603 0.00465157)
(-0.00870487 0.00083974 0.00507953)
(-0.00911936 0.0011679 0.00532682)
(-0.00944069 0.00152104 0.0054316)
(-0.00954847 0.00183514 0.00540415)
(-0.00952614 0.00209245 0.00529117)
(-0.00946166 0.00229174 0.00513663)
(-0.00936857 0.00242206 0.00497883)
(-0.00927496 0.00248612 0.00482604)
(-0.00917178 0.00249587 0.00468715)
(-0.00904225 0.00247632 0.00457789)
(-0.00891133 0.00245155 0.00450262)
(-0.00883511 0.00242584 0.00446283)
(-0.00890364 0.0024237 0.00444699)
(-0.00912718 0.00249992 0.0044387)
(-0.0093789 0.00265008 0.00439894)
(-0.00963013 0.00286811 0.00430996)
(-0.00981595 0.00311169 0.0041513)
(-0.0099059 0.00330567 0.00391868)
(-0.00985397 0.00338233 0.00364369)
(-0.00956719 0.00329194 0.00339203)
(-0.00919158 0.00287179 0.00325553)
(-0.00848964 0.00204591 0.00338663)
(-0.00758339 0.00118176 0.00397686)
(-0.00739115 0.000783881 0.00526621)
(-0.00832476 0.00206095 0.00696744)
(-0.00835271 0.00438084 0.00735981)
(-0.00748236 0.00615013 0.00608074)
(-0.00750355 0.00697413 0.0042761)
(-0.0105829 0.00784926 0.0015524)
(-0.0141975 0.0121171 -0.00382495)
(-0.00647328 0.0182399 -0.00530397)
(0.0141279 0.0182602 7.40272e-06)
(0.022861 0.0140408 0.0073191)
(-0.00407354 0.00843062 0.028807)
(-0.030102 -0.000678189 0.0360216)
(-0.0578362 0.00835344 0.026931)
(-0.0448246 0.00269849 0.0379139)
(-0.0134751 0.0500536 0.0638779)
(0.0344701 0.00793002 0.078889)
(0.121085 0.147513 0.133093)
(0.0867569 -0.23762 0.152722)
(-0.0145497 0.304217 0.0195068)
(-0.0472018 -0.0228293 0.0304367)
(-0.0891715 0.618423 0.00309262)
(-0.0553158 0.716438 -0.0259119)
(-0.0586307 0.690992 -0.0189037)
(-0.0497287 0.739656 -0.01219)
(-0.0639665 0.748526 -0.002229)
(-0.0654117 0.753233 0.0049045)
(-0.0668771 0.734485 0.0167918)
(-0.051286 0.722729 0.02398)
(-0.0376683 0.705807 0.0262392)
(-0.0261642 0.689747 0.0198716)
(-0.0167035 0.668673 0.00405171)
(0.00126235 0.649867 -0.00374594)
(0.014808 0.634287 -0.00605939)
(0.0266385 0.630272 -0.0065676)
(0.0373625 0.633437 -0.00374398)
(0.0508568 0.638805 0.00345665)
(0.0653987 0.627302 0.018503)
(0.072095 0.600086 0.0285284)
(0.067514 0.563581 0.0271268)
(0.0640978 0.532288 0.0260227)
(0.0743308 0.513883 0.0257606)
(0.0807611 0.49954 0.0238066)
(0.088236 0.492471 0.0283574)
(0.0924073 0.487405 0.0266463)