/*--------------------------------*- C++ -*----------------------------------*\
| =========                 |                                                 |
| \\      /  F ield         | OpenFOAM: The Open Source CFD Toolbox           |
|  \\    /   O peration     | Version:  2.3.0                                 |
|   \\  /    A nd           | Web:      www.OpenFOAM.org                      |
|    \\/     M anipulation  |                                                 |
\*---------------------------------------------------------------------------*/
FoamFile
{
    version     2.0;
    format      ascii;
    class       volVectorField;
    location    "56";
    object      U.airMean;
}
// * * * * * * * * * * * * * * * * * * * * * * * * * * * * * * * * * * * * * //

dimensions      [0 1 -1 0 0 0 0];

internalField   nonuniform List<vector> 
6144
(
(0.00993077 0.0202403 -0.000561353)
(0.0102297 -0.000712858 -0.00154255)
(0.00456845 -0.002242 -0.00253963)
(0.00410833 -0.00277312 -0.00242843)
(0.00256999 -0.00249959 -0.00192179)
(0.00299228 -0.00069208 -0.00166154)
(0.00271042 -0.000791896 -0.00131353)
(0.00266378 0.000247427 -0.00103781)
(0.00229849 0.000366667 -0.00089491)
(0.00203625 0.00159126 -0.00055468)
(0.00182036 0.00249821 -0.000228919)
(0.0018718 0.00328112 0.000219756)
(0.00199714 0.0033015 0.000436611)
(0.00213204 0.00291509 0.000680756)
(0.0021981 0.00222845 0.000626536)
(0.0022751 0.0016048 0.000527018)
(0.00232347 0.000986066 0.000322235)
(0.00237569 0.000534697 0.000140366)
(0.00241798 0.000167066 -5.15485e-05)
(0.00244994 -5.08817e-05 -0.000203567)
(0.00246915 -0.000182125 -0.000326144)
(0.0024812 -0.000213407 -0.000409559)
(0.0024807 -0.00019888 -0.000446505)
(0.00246902 -0.000148992 -0.000442057)
(0.00244657 -8.71808e-05 -0.000403578)
(0.00241631 -2.19736e-05 -0.000336718)
(0.0023824 3.52203e-05 -0.000251942)
(0.00234788 7.44074e-05 -0.000160596)
(0.00231179 9.56451e-05 -6.71277e-05)
(0.0022738 9.17835e-05 2.24485e-05)
(0.0022351 9.1597e-05 0.000110851)
(0.0021916 4.77482e-05 0.000204983)
(0.00214779 4.09385e-05 0.000311563)
(0.00209666 -8.00131e-05 0.000438051)
(0.00205155 -0.00012293 0.000590082)
(0.0020028 -0.00042889 0.000759039)
(0.00197234 -0.000584227 0.000923503)
(0.00194317 -0.00116468 0.00103597)
(0.00194129 -0.00136239 0.00105006)
(0.00194261 -0.00204298 0.000900945)
(0.00195534 -0.001883 0.000548905)
(0.00196566 -0.00207543 -2.19746e-05)
(0.00204385 -0.000821009 -0.000609398)
(0.0024112 -0.000307004 -0.00105606)
(0.0031093 0.00102343 -0.00148113)
(0.00387599 0.00052023 -0.00204827)
(0.00430586 0.00157912 -0.00276745)
(0.00365509 0.00208656 -0.00385749)
(0.00286229 0.00818578 -0.00557931)
(0.00623567 0.0125354 -0.00756115)
(0.0181701 0.0133079 -0.00997247)
(0.027258 -0.00806199 -0.0102365)
(0.0316837 -0.020169 -0.0109625)
(0.029688 -0.056517 -0.0101549)
(0.0246496 -0.051801 -0.0107686)
(0.0205884 -0.0904725 -0.00709704)
(0.00175585 -0.0432809 -0.0125043)
(0.00513743 -0.0933411 0.0234899)
(-0.0371426 0.0118275 -0.0454012)
(0.0335079 0.115352 0.0395829)
(0.112735 0.31608 0.0324245)
(0.0466983 0.387935 -0.00876632)
(0.0451155 -0.0861177 -0.000874579)
(0.051324 -0.180975 0.00452693)
(0.0429231 -0.186962 0.00516958)
(0.0357027 -0.181183 0.0052458)
(0.0294789 -0.180054 0.00457534)
(0.0247731 -0.175103 0.00420886)
(0.0215532 -0.171973 0.00425749)
(0.018763 -0.165505 0.0045062)
(0.0162406 -0.160433 0.00482542)
(0.0137304 -0.152343 0.00526575)
(0.0115899 -0.144318 0.00577358)
(0.00896937 -0.134766 0.00621274)
(0.00586285 -0.124419 0.00636483)
(0.00345887 -0.111713 0.00504573)
(0.00243049 -0.0988646 0.00265655)
(0.00147092 -0.0862909 0.00129464)
(0.000633787 -0.0736133 0.0012673)
(0.0017105 -0.061589 0.00204135)
(0.0032405 -0.0517859 0.00274474)
(0.00384051 -0.0440226 0.00351168)
(0.00391883 -0.0389711 0.00453728)
(0.00296753 -0.0352631 0.00474599)
(0.00246851 -0.0309391 0.00419967)
(0.00261296 -0.0257082 0.00348087)
(0.00277273 -0.0201776 0.00318797)
(0.00246808 -0.014117 0.00248183)
(0.00165151 -0.00818282 0.00151133)
(0.000366883 -0.00023842 0.000901594)
(0.000518599 0.00738558 0.00159098)
(0.00114106 0.0140339 0.00267318)
(0.0011794 0.0188141 0.0038904)
(0.000966149 0.0221315 0.0063327)
(0.00173784 0.0228997 0.0101537)
(0.00459818 0.0154138 0.0162156)
(0.0193059 0.0212429 0.00302729)
(0.0205507 0.00732583 0.00244879)
(0.0105375 0.00382571 -0.000665321)
(0.00996992 0.00258676 0.000103042)
(0.00568239 -0.000376981 0.00101219)
(0.00574032 0.000641256 0.00152576)
(0.00453464 -0.000252108 0.00209353)
(0.00432329 0.0011722 0.00215885)
(0.00358624 0.0013864 0.002153)
(0.00317053 0.00294315 0.00221264)
(0.00298295 0.00374756 0.00238065)
(0.00332249 0.00441908 0.00286925)
(0.00369067 0.00424795 0.00313144)
(0.00408546 0.00385081 0.00333057)
(0.00422372 0.00308325 0.00332403)
(0.0043661 0.00240431 0.00329502)
(0.0044039 0.00168451 0.00320837)
(0.00445895 0.00115163 0.00314106)
(0.00448855 0.000689019 0.00306162)
(0.00450694 0.000386946 0.00301082)
(0.00450524 0.000176946 0.00297111)
(0.00449792 8.30971e-05 0.00294165)
(0.00447089 4.43984e-05 0.00294434)
(0.0044254 5.44944e-05 0.00297878)
(0.00436224 8.67098e-05 0.0030375)
(0.00428769 0.0001331 0.00311422)
(0.00421125 0.000180229 0.00319389)
(0.00414036 0.000215883 0.00326547)
(0.00406999 0.000235751 0.00333742)
(0.00399748 0.000230817 0.00340415)
(0.00392583 0.000224694 0.00346914)
(0.00384738 0.000164103 0.00353673)
(0.00377748 0.000135681 0.00360956)
(0.00370252 -2.66317e-05 0.00368816)
(0.00366174 -9.44496e-05 0.00377668)
(0.00362426 -0.000442821 0.00386678)
(0.00364192 -0.000572575 0.00395438)
(0.00364237 -0.00115715 0.00401561)
(0.00367908 -0.00125325 0.00403308)
(0.003648 -0.00192428 0.00395032)
(0.00359149 -0.00162414 0.00370659)
(0.00350859 -0.00195326 0.00323018)
(0.00362051 -0.000866377 0.00259359)
(0.00418056 -0.000990205 0.0020506)
(0.00530832 0.000398734 0.00148379)
(0.00631359 0.000480365 0.000684013)
(0.00610973 0.00331874 -0.000490067)
(0.00514006 0.00536769 -0.0019227)
(0.00666066 0.0104729 -0.00335581)
(0.016221 0.00783587 -0.0042424)
(0.0385219 0.0016218 -0.00566844)
(0.0524894 -0.0153171 -0.00568832)
(0.0592731 -0.0200427 -0.00349175)
(0.0544358 -0.0479256 -0.00081109)
(0.0416947 -0.0370095 0.00469328)
(0.0398097 -0.0937002 0.0121828)
(-0.00119825 -0.0421596 0.0120405)
(-0.00196341 -0.156399 0.0438905)
(-0.0965401 0.0387732 -0.07356)
(0.0228929 0.0452778 0.023092)
(0.12401 0.35024 0.0764018)
(0.0239454 0.428537 0.00392473)
(0.0199908 -0.0683369 0.00592339)
(0.0255106 -0.0382271 0.0158131)
(0.0127438 -0.0549781 0.0170401)
(0.00532633 -0.0456575 0.0151501)
(0.00212794 -0.0467598 0.0125979)
(0.0016782 -0.0421745 0.0119445)
(0.00263062 -0.0409695 0.0113795)
(0.00206259 -0.0365458 0.01017)
(0.000134633 -0.0364798 0.0110439)
(-0.00215932 -0.0362745 0.0121832)
(-0.00332963 -0.0381436 0.0129428)
(-0.00538445 -0.0395782 0.0123355)
(-0.00812808 -0.0407459 0.0109607)
(-0.00919057 -0.0389959 0.0096004)
(-0.00884158 -0.0371743 0.0082694)
(-0.0092354 -0.0348522 0.00765922)
(-0.00908782 -0.0317165 0.00743864)
(-0.00744017 -0.0289438 0.00773036)
(-0.00546121 -0.0255251 0.00775515)
(-0.00387921 -0.022188 0.00820163)
(-0.00292846 -0.0214135 0.0091666)
(-0.00291006 -0.0221872 0.0091442)
(-0.00330065 -0.0223006 0.00783422)
(-0.00295258 -0.021399 0.00665615)
(-0.00266885 -0.0185266 0.00517825)
(-0.00297523 -0.0141846 0.00373048)
(-0.00360896 -0.00941147 0.00247434)
(-0.00439982 -0.00370525 0.00166843)
(-0.00416877 0.00185846 0.00262209)
(-0.00307977 0.00682551 0.00383183)
(-0.00347239 0.0124405 0.00562012)
(-0.00400577 0.0149972 0.00921329)
(-0.00355801 0.01681 0.0141069)
(-0.000858077 0.0104734 0.0208289)
(0.0225979 0.0211746 0.00413804)
(0.0246223 0.0121119 0.00403585)
(0.0147275 0.00743527 0.0012178)
(0.0135506 0.0068256 0.00216992)
(0.00698999 0.00221504 0.00292266)
(0.00607949 0.00277791 0.00313296)
(0.00357731 0.000938826 0.00372646)
(0.00316661 0.00225917 0.00363103)
(0.00221809 0.00225764 0.0035594)
(0.00207874 0.00348251 0.00362756)
(0.00197072 0.00370207 0.00369755)
(0.00261535 0.00422204 0.0039944)
(0.00306271 0.00398732 0.00418489)
(0.00356505 0.00384248 0.00434623)
(0.00374968 0.00329789 0.00433752)
(0.00393878 0.00283716 0.00432655)
(0.0039601 0.00224951 0.00427868)
(0.00400499 0.00180229 0.00425594)
(0.00398825 0.00136598 0.0042354)
(0.00396635 0.00105221 0.00423972)
(0.00390918 0.000786799 0.00425586)
(0.00383812 0.000612108 0.00429079)
(0.0037568 0.000489933 0.0043328)
(0.00366909 0.00042317 0.00438091)
(0.00357324 0.00038787 0.00443196)
(0.00347459 0.000375476 0.00448468)
(0.00337535 0.000372135 0.00453901)
(0.00327649 0.000370978 0.00459658)
(0.00317905 0.000368267 0.00465649)
(0.00307705 0.000348702 0.00471816)
(0.00297571 0.000328843 0.00478115)
(0.00287065 0.000258116 0.00484516)
(0.00278077 0.000217833 0.00491067)
(0.00268709 6.2565e-05 0.00497504)
(0.00264078 2.31187e-05 0.00503854)
(0.00259748 -0.000233165 0.00509266)
(0.00262898 -0.000207869 0.00513636)
(0.0026424 -0.00054156 0.00515262)
(0.00271986 -0.000328982 0.00513354)
(0.00271541 -0.000647239 0.00504318)
(0.00275448 -6.67504e-05 0.00484578)
(0.00273985 -0.000386911 0.00457521)
(0.00293977 0.000409941 0.00431865)
(0.00351221 -0.000221887 0.00409649)
(0.00445071 0.00116687 0.00356627)
(0.00530846 0.00135773 0.00297068)
(0.00539698 0.00405 0.00209199)
(0.00614949 0.00376875 0.00086334)
(0.0111782 0.00673111 -0.000390119)
(0.0270032 -3.3365e-05 -0.000321924)
(0.0529651 -0.00291753 -0.00173963)
(0.07033 -0.0102998 -0.000844946)
(0.0745723 -0.00475453 0.0026961)
(0.0685358 -0.0224748 0.00605463)
(0.0587917 -0.00882716 0.015301)
(0.0532968 -0.0739996 0.0236469)
(-0.00123515 -0.0102548 0.0340571)
(0.0121937 -0.179945 0.063009)
(-0.116264 0.0836926 -0.0607758)
(0.0523034 0.0200391 -0.00348182)
(0.171557 0.37082 0.0907653)
(0.0761159 0.443578 0.0254099)
(0.0707664 -0.00826183 0.0207007)
(0.0465074 0.0523868 0.0150671)
(0.0310603 0.0161875 0.0118849)
(0.0215353 0.0285671 0.0126294)
(0.0186758 0.0212552 0.0130603)
(0.0144999 0.0234883 0.010915)
(0.0129167 0.0236359 0.0096888)
(0.0124146 0.0231877 0.0104095)
(0.0107106 0.0166809 0.0128934)
(0.00713022 0.0103109 0.0151856)
(0.00421813 0.00410477 0.0159881)
(0.00102594 0.00160639 0.0151639)
(-0.00226286 -0.00154394 0.0129658)
(-0.00408734 -0.00224762 0.0106127)
(-0.00469514 -0.00166128 0.00949084)
(-0.00564011 -0.000506898 0.00885138)
(-0.00682573 -0.000475419 0.00937872)
(-0.00631378 -0.0012002 0.00975309)
(-0.00468121 -0.0012398 0.00983224)
(-0.00277294 -0.00164551 0.0105693)
(-0.00159015 -0.00343029 0.0117274)
(-0.00278197 -0.00525239 0.0109851)
(-0.00380971 -0.00682351 0.00993251)
(-0.00429569 -0.00768293 0.00861432)
(-0.00429636 -0.00693232 0.00649735)
(-0.00436191 -0.00560356 0.00402545)
(-0.00451719 -0.00360919 0.00126857)
(-0.00504915 0.000859425 -0.000189726)
(-0.00543672 0.00479679 0.00253854)
(-0.00595427 0.00809021 0.00553274)
(-0.0065544 0.0111834 0.00842807)
(-0.0073858 0.0116777 0.011782)
(-0.00910597 0.0132832 0.0164646)
(-0.00911194 0.00783736 0.0223771)
(0.0237602 0.021227 0.00437051)
(0.0272424 0.0154095 0.00453224)
(0.0168018 0.00919543 0.000970593)
(0.0165424 0.0100032 0.00139034)
(0.00884197 0.00412183 0.00201233)
(0.00730159 0.00482024 0.00250757)
(0.0031436 0.00148573 0.00351801)
(0.00222698 0.00251858 0.00352329)
(0.000898899 0.00179229 0.0036222)
(0.000986152 0.00298656 0.00374509)
(0.000899064 0.00285634 0.00389651)
(0.00152652 0.0034711 0.00429518)
(0.00189446 0.0034473 0.00450159)
(0.00241878 0.0036035 0.00466481)
(0.00263561 0.00325836 0.00464137)
(0.00284601 0.00298165 0.00464527)
(0.00285694 0.00249011 0.0046183)
(0.00288691 0.00212059 0.00462494)
(0.00284147 0.00171907 0.00462162)
(0.0027974 0.00141757 0.00463301)
(0.0027122 0.00113754 0.00464645)
(0.00261707 0.000928896 0.00467192)
(0.0025061 0.000757286 0.00470318)
(0.00239083 0.000638698 0.00474079)
(0.00227406 0.00055784 0.00478223)
(0.00216069 0.000510255 0.00482735)
(0.00205397 0.000483095 0.00487384)
(0.00195524 0.000466185 0.00492142)
(0.00186261 0.000452215 0.00497103)
(0.00177195 0.000427776 0.00502297)
(0.00168807 0.000406663 0.00507705)
(0.00160612 0.000349032 0.00513084)
(0.00154377 0.000329724 0.00518109)
(0.00148081 0.000222044 0.00522227)
(0.00146692 0.00024458 0.00524979)
(0.00144432 9.07363e-05 0.0052558)
(0.00149501 0.000242551 0.00523836)
(0.00150081 8.60484e-05 0.00518716)
(0.00157308 0.000502052 0.00510059)
(0.00156268 0.000400509 0.00496083)
(0.0016944 0.00113324 0.00475699)
(0.00184897 0.000822558 0.0045359)
(0.00222083 0.00143422 0.00434165)
(0.00258864 0.000598779 0.00417784)
(0.00321959 0.00147194 0.00395373)
(0.00397479 0.000846883 0.00384504)
(0.00479648 0.0025685 0.00351321)
(0.00670007 0.000201314 0.00253503)
(0.0144673 0.00111946 0.00162967)
(0.031075 -0.00634569 0.00170753)
(0.056315 -0.00288335 0.00103039)
(0.0726428 0.00182106 0.00365881)
(0.0789558 0.0170949 0.00811309)
(0.0750844 0.0109334 0.0122553)
(0.0652851 0.0312283 0.0245952)
(0.0580238 -0.0269842 0.0402467)
(0.015191 0.0586485 0.0746644)
(0.0312131 -0.189868 0.100836)
(-0.151282 0.207952 -0.0424738)
(0.0563874 -0.0447472 0.0217392)
(0.153882 0.454125 0.0905939)
(0.0516897 0.571615 0.0169721)
(0.0375839 0.382647 0.0156404)
(0.0127623 0.4259 0.00245583)
(0.00987402 0.378771 0.00769284)
(0.00265134 0.357521 0.0081874)
(0.00269765 0.330887 0.00969668)
(0.0018439 0.308888 0.00937509)
(0.00281969 0.284989 0.00877554)
(0.00279951 0.263261 0.00881305)
(0.002002 0.2338 0.00998531)
(-0.000124537 0.207061 0.0101148)
(-0.00294978 0.17842 0.0103189)
(-0.00561195 0.150235 0.00991358)
(-0.00737169 0.124661 0.00867251)
(-0.00851363 0.109868 0.00803848)
(-0.00917614 0.0980655 0.00794654)
(-0.00940758 0.0873631 0.00777744)
(-0.0094597 0.0729424 0.00898071)
(-0.00886903 0.0597422 0.0101016)
(-0.00800194 0.0521373 0.0118193)
(-0.00798756 0.0472008 0.0116192)
(-0.00800805 0.041863 0.0121932)
(-0.00822811 0.0345455 0.0115384)
(-0.00929313 0.0295822 0.0107092)
(-0.00993571 0.0258257 0.00963891)
(-0.00926966 0.0227169 0.00628707)
(-0.0079712 0.0211934 0.00372552)
(-0.0083384 0.0187593 0.0012875)
(-0.00854842 0.0182304 -0.000246937)
(-0.00873346 0.0176417 0.00366687)
(-0.00945464 0.0160993 0.006938)
(-0.0106089 0.0153984 0.00967996)
(-0.0129492 0.0126438 0.0135113)
(-0.0172937 0.0127087 0.0171984)
(-0.0195794 0.00692094 0.0227031)
(0.0237749 0.0213705 0.00449494)
(0.0290902 0.018476 0.00516101)
(0.0184633 0.0105138 0.000879323)
(0.019655 0.0123396 0.000957325)
(0.0111249 0.00495497 0.000272736)
(0.0092565 0.00639573 0.0008699)
(0.00361588 0.00172383 0.00219777)
(0.00201466 0.00299157 0.00270616)
(-0.000262974 0.000998412 0.0030809)
(-0.000399324 0.00210632 0.00344382)
(-0.00075586 0.00170098 0.0036841)
(-0.000388766 0.0025786 0.00423249)
(-0.000197967 0.00279398 0.00444476)
(0.000369165 0.0032518 0.00463622)
(0.000627279 0.00307583 0.00458554)
(0.000839265 0.00291195 0.00460862)
(0.000795347 0.00248153 0.00459581)
(0.000733857 0.00218144 0.00462654)
(0.000601735 0.00183163 0.00462769)
(0.000493558 0.00156907 0.0046295)
(0.000363521 0.00129904 0.0046174)
(0.000242228 0.00107848 0.00461174)
(0.000119086 0.000881665 0.00460997)
(-2.12187e-06 0.000732853 0.00461612)
(-0.00012355 0.000619594 0.00462765)
(-0.000235544 0.000541619 0.0046451)
(-0.000334552 0.000487959 0.00466706)
(-0.000419069 0.000449624 0.00469205)
(-0.000493903 0.000421451 0.00471757)
(-0.000566519 0.000395016 0.00474397)
(-0.000635073 0.000380893 0.00477073)
(-0.000702783 0.00034708 0.00479473)
(-0.000753593 0.000361674 0.00481277)
(-0.000806214 0.000318656 0.00481665)
(-0.00080826 0.000421325 0.00480109)
(-0.000820898 0.000390631 0.0047551)
(-0.00076125 0.000679285 0.00467671)
(-0.000757387 0.000705691 0.00455637)
(-0.000669396 0.0013015 0.00440954)
(-0.00063054 0.00136663 0.00425087)
(-0.000327031 0.00214944 0.00412548)
(2.47883e-05 0.00175632 0.00401948)
(0.000610832 0.00219865 0.00386178)
(0.00116377 0.00106151 0.00365504)
(0.00194911 0.00144759 0.00364153)
(0.00263619 0.000105226 0.0038023)
(0.00391928 0.000793915 0.00423812)
(0.00719086 -0.00294984 0.00391607)
(0.0167251 -0.00412472 0.00387801)
(0.0317417 -0.00797533 0.00533202)
(0.0502746 0.00327248 0.00656363)
(0.0650593 0.0183657 0.0115009)
(0.0708915 0.0452284 0.0149347)
(0.0680705 0.0522766 0.0188114)
(0.0594866 0.0811426 0.0343122)
(0.04844 0.0407266 0.0503559)
(0.017473 0.129846 0.0851817)
(0.0258727 -0.108161 0.102806)
(-0.122884 0.316465 -0.0140595)
(0.0452115 -0.0763851 0.0281429)
(0.143331 0.504233 0.0968498)
(0.04607 0.620836 0.0163062)
(0.0375928 0.549229 0.015954)
(0.0133888 0.602445 0.00162027)
(0.0118316 0.592944 0.00728738)
(0.00469701 0.603975 0.00673735)
(0.005221 0.598599 0.00790503)
(0.0027783 0.596471 0.00777831)
(0.0027734 0.589747 0.00832954)
(0.00227813 0.584738 0.00945338)
(0.0018631 0.577901 0.0106058)
(0.000449539 0.569242 0.0108056)
(-0.000191754 0.558947 0.0105051)
(-0.000843935 0.546328 0.00995557)
(-0.00101584 0.529533 0.00958619)
(-0.00156817 0.505188 0.00892331)
(-0.00230513 0.484762 0.00879764)
(-0.00393986 0.464816 0.00915518)
(-0.00512458 0.446134 0.0109944)
(-0.00602065 0.428733 0.012233)
(-0.00694086 0.41088 0.0127602)
(-0.00758809 0.382081 0.0136303)
(-0.00742814 0.341765 0.012935)
(-0.00691858 0.297049 0.0104499)
(-0.00536815 0.252936 0.00724325)
(-0.00393745 0.220457 0.00348664)
(-0.00311105 0.182272 0.00180049)
(-0.00251955 0.151948 0.00118787)
(-0.00374135 0.128227 0.000626405)
(-0.00451869 0.109991 0.00331039)
(-0.00708131 0.0940523 0.00685766)
(-0.00891324 0.0722774 0.00922251)
(-0.0111724 0.0559647 0.0128934)
(-0.0156148 0.0366458 0.0161778)
(-0.0232047 0.0238975 0.0179258)
(-0.0300178 0.011228 0.0216258)
(0.0224219 0.0209798 0.00501131)
(0.030408 0.0218933 0.0064577)
(0.0191829 0.0116225 0.0018053)
(0.0218715 0.0144066 0.00230773)
(0.0136973 0.00453501 -0.000198011)
(0.0115213 0.00696582 -0.000254855)
(0.00468696 0.00103941 0.000779884)
(0.00228669 0.00333587 0.00154077)
(-0.000467679 0.000360199 0.00220704)
(-0.00138346 0.00138535 0.00280845)
(-0.00202204 0.000434588 0.00309618)
(-0.00185091 0.00154124 0.00380496)
(-0.00159888 0.00199997 0.00410677)
(-0.000842586 0.00280972 0.00448664)
(-0.000371864 0.0026968 0.00458756)
(-8.1869e-05 0.0026016 0.00474212)
(-0.00014397 0.00219211 0.0047784)
(-0.000274992 0.00197242 0.00482227)
(-0.000466021 0.0017192 0.00480047)
(-0.000612307 0.00156751 0.00476358)
(-0.000766402 0.00139102 0.00469322)
(-0.000904099 0.001243 0.00461734)
(-0.00104639 0.00109177 0.00454037)
(-0.001177 0.000965596 0.00447267)
(-0.00129135 0.000861658 0.00441402)
(-0.0013849 0.000787552 0.00436447)
(-0.0014567 0.000733411 0.00432402)
(-0.00151164 0.000692699 0.00429283)
(-0.00155954 0.000661177 0.00427065)
(-0.00160254 0.000635905 0.00425961)
(-0.00163951 0.000631926 0.0042579)
(-0.00167289 0.000628861 0.00425796)
(-0.00169224 0.000688087 0.00425356)
(-0.00171573 0.000721295 0.00423075)
(-0.00170352 0.000908548 0.00418143)
(-0.00171703 0.000992082 0.00409341)
(-0.00168148 0.00137464 0.0039667)
(-0.00171648 0.00149423 0.00379915)
(-0.00165523 0.00209281 0.00362769)
(-0.00157601 0.00209998 0.00351229)
(-0.0011622 0.00273444 0.00352475)
(-0.000655212 0.00227653 0.00361759)
(8.52207e-05 0.00264016 0.00361038)
(0.000737471 0.00140562 0.00357327)
(0.00156815 0.00165087 0.00388777)
(0.00216794 -5.41727e-05 0.00435836)
(0.00399752 -0.000694906 0.00477908)
(0.00886068 -0.00486008 0.00455461)
(0.0162645 -0.00614679 0.00567514)
(0.0253703 -0.00668779 0.00993113)
(0.0358044 0.00865039 0.0138701)
(0.0440734 0.0318052 0.019303)
(0.0524688 0.0656676 0.0249437)
(0.0533765 0.0811565 0.0325743)
(0.0488607 0.109989 0.0488884)
(0.0418563 0.0739831 0.0584373)
(0.028098 0.149702 0.080008)
(0.0445203 -0.0828353 0.0803145)
(-0.0349245 0.356817 0.0170951)
(0.0348023 -0.0809655 0.0322116)
(0.0928873 0.542797 0.0933439)
(0.0185183 0.641382 0.0106541)
(0.0145629 0.602637 0.013369)
(-0.00348873 0.655732 0.00312991)
(-0.00129079 0.654849 0.0107075)
(-0.00388347 0.667876 0.0110246)
(-0.000631539 0.667581 0.0130465)
(0.000416841 0.67164 0.0134151)
(0.00252694 0.67054 0.0145686)
(0.00357237 0.669743 0.0148658)
(0.00452928 0.663977 0.0144372)
(0.00446528 0.660381 0.0138105)
(0.00473575 0.657727 0.0130013)
(0.00401391 0.655951 0.0125092)
(0.00266138 0.653064 0.0124759)
(0.000838301 0.651346 0.0124316)
(-0.000862796 0.648458 0.0128632)
(-0.00293544 0.643838 0.0136836)
(-0.00510783 0.636978 0.0141596)
(-0.00650119 0.626406 0.01419)
(-0.00748646 0.614479 0.0136205)
(-0.00770073 0.599966 0.0119114)
(-0.00651057 0.584339 0.00897788)
(-0.00501522 0.565772 0.00532928)
(-0.00415819 0.546343 0.00181153)
(-0.00360881 0.522445 -0.000668556)
(-0.00362441 0.483836 -0.000758887)
(-0.00385294 0.430795 0.00138376)
(-0.00573069 0.383698 0.00476402)
(-0.00775561 0.337084 0.0078856)
(-0.0102087 0.286656 0.00897474)
(-0.0126941 0.231807 0.0109349)
(-0.0159383 0.196502 0.0146339)
(-0.0212184 0.153374 0.0177009)
(-0.0286966 0.104578 0.0192346)
(-0.0354084 0.0731913 0.0194617)
(0.0189871 0.0194325 0.00520064)
(0.0304777 0.0256428 0.00855947)
(0.0181375 0.0121822 0.00378203)
(0.0218722 0.0166015 0.00504033)
(0.0145314 0.003604 0.00150283)
(0.0124836 0.00664604 0.000660037)
(0.00484338 -0.000392718 0.000791021)
(0.002194 0.00323853 0.00109141)
(-0.000935342 -2.00196e-05 0.00164706)
(-0.00233826 0.00128719 0.00242332)
(-0.00369164 -0.000205631 0.00261842)
(-0.00437015 0.000937249 0.00338675)
(-0.00450983 0.00130498 0.00380998)
(-0.00351588 0.00220622 0.00457818)
(-0.00290848 0.00206662 0.00498512)
(-0.00263007 0.0020943 0.00532974)
(-0.00283348 0.00177021 0.00541322)
(-0.0031658 0.00168234 0.00542694)
(-0.00351807 0.00155259 0.0053384)
(-0.00375239 0.00154167 0.00523185)
(-0.00393578 0.00149984 0.00508757)
(-0.00406027 0.00148318 0.00494232)
(-0.00416194 0.00144154 0.00479979)
(-0.00424674 0.00140086 0.00467695)
(-0.00433032 0.00136123 0.00457931)
(-0.00438596 0.00133441 0.00449924)
(-0.00441113 0.00130919 0.00443487)
(-0.00440963 0.00128355 0.0043941)
(-0.00439711 0.00125747 0.00437577)
(-0.00438955 0.00123624 0.00437709)
(-0.00439174 0.00124304 0.00439291)
(-0.00439952 0.00126945 0.00441149)
(-0.0044074 0.00137223 0.00442183)
(-0.00442383 0.0014721 0.00440669)
(-0.00440219 0.00171417 0.00436327)
(-0.00439205 0.00184708 0.00428348)
(-0.0043131 0.00221583 0.00417769)
(-0.00427208 0.0022603 0.00404584)
(-0.00411176 0.00265267 0.0039191)
(-0.00395235 0.00238857 0.00383263)
(-0.00353373 0.00273005 0.00384438)
(-0.00306978 0.00215046 0.00387197)
(-0.00220516 0.00260359 0.00386863)
(-0.00139293 0.00160177 0.00404848)
(-0.000524883 0.00179212 0.00451888)
(0.000545289 -0.000104156 0.00496443)
(0.00362507 -0.00134936 0.00509962)
(0.00846268 -0.0043644 0.00501454)
(0.0137673 -0.00405839 0.00668872)
(0.0159298 0.000209503 0.0129053)
(0.0137936 0.0198767 0.0203352)
(0.0174231 0.0444713 0.0256244)
(0.0245102 0.081736 0.0326712)
(0.029215 0.103936 0.0415356)
(0.0350539 0.129253 0.0543375)
(0.03958 0.0950046 0.0603383)
(0.0452488 0.165549 0.0739842)
(0.0415816 -0.0717221 0.0626564)
(0.00800881 0.351844 0.0452034)
(0.0126584 -0.0661297 0.0329181)
(0.0351645 0.574653 0.0810711)
(-0.0038275 0.660493 0.0101529)
(-0.00369475 0.641095 0.0118795)
(-0.0116616 0.688834 0.00514877)
(-0.00589952 0.686581 0.0135803)
(-0.00419829 0.698442 0.0134804)
(-0.00055381 0.697621 0.0152985)
(0.0010115 0.701876 0.0155775)
(0.00323423 0.702288 0.0165306)
(0.00504474 0.702337 0.0165965)
(0.00653789 0.701039 0.0162513)
(0.00683987 0.698965 0.0159586)
(0.0069044 0.698704 0.0159701)
(0.00599317 0.697418 0.0158978)
(0.00493652 0.695358 0.0162019)
(0.003283 0.690267 0.0161453)
(0.00190957 0.683284 0.0161277)
(0.000528616 0.675386 0.0159221)
(-0.000324015 0.668735 0.0156265)
(-0.000917082 0.660875 0.0154197)
(-0.0006565 0.652066 0.0138651)
(0.000318186 0.644176 0.0111527)
(0.0021477 0.639472 0.00738434)
(0.00346008 0.635263 0.00292688)
(0.00419446 0.627624 -0.000843302)
(0.00360153 0.615687 -0.00331105)
(0.00203259 0.604745 -0.00256458)
(0.000511168 0.589822 0.000208064)
(-0.0012832 0.562351 0.00277514)
(-0.00469924 0.537888 0.00496184)
(-0.00959276 0.514531 0.00608647)
(-0.0158067 0.485319 0.0080656)
(-0.0222554 0.443691 0.0103959)
(-0.0294679 0.385212 0.0122165)
(-0.0368877 0.314901 0.0139827)
(-0.045143 0.279203 0.0128374)
(0.0159928 0.0141722 0.00432995)
(0.0293359 0.0287122 0.00951076)
(0.0156978 0.0123323 0.0045083)
(0.0207601 0.0196665 0.00596662)
(0.0143179 0.00389324 0.00261907)
(0.0119536 0.00674412 0.00165823)
(0.00345578 -0.00167475 0.00144637)
(0.000571881 0.00293213 0.00122103)
(-0.00163396 -0.000676766 0.00212412)
(-0.00317539 0.0015438 0.00280738)
(-0.00441632 -0.000288019 0.0030801)
(-0.005157 0.000717651 0.00393535)
(-0.00511854 0.000200567 0.00462212)
(-0.00395622 0.000821207 0.00565297)
(-0.00331365 0.000598117 0.00638047)
(-0.00306016 0.000998056 0.00698894)
(-0.0032554 0.00105354 0.00727164)
(-0.00354294 0.00135754 0.00737388)
(-0.00384627 0.00148149 0.00731413)
(-0.00403496 0.00168689 0.00720004)
(-0.00418761 0.00180207 0.00703005)
(-0.00428329 0.00190486 0.00685371)
(-0.00435533 0.00194752 0.00668228)
(-0.00440394 0.00197006 0.00653266)
(-0.00444047 0.00196426 0.00640438)
(-0.00445098 0.00194677 0.00630244)
(-0.00443191 0.00192426 0.00622787)
(-0.0043883 0.00189861 0.00617879)
(-0.00433849 0.0018703 0.00615144)
(-0.00430095 0.00185102 0.00614283)
(-0.00428382 0.00186897 0.00614406)
(-0.00428245 0.00192205 0.00614119)
(-0.00429257 0.00205776 0.00612424)
(-0.00430719 0.00219796 0.0060839)
(-0.00428061 0.00244881 0.00601926)
(-0.00426127 0.00256701 0.0059273)
(-0.00415483 0.00284065 0.00582619)
(-0.00405845 0.00275533 0.00571666)
(-0.00380734 0.00294562 0.00563049)
(-0.00357991 0.00252307 0.00557696)
(-0.00319942 0.00269292 0.00558782)
(-0.00287715 0.00206717 0.00560615)
(-0.00217427 0.00252142 0.00562316)
(-0.00133819 0.00156684 0.00585062)
(-0.000484806 0.00185887 0.00624654)
(0.000822655 -0.000383733 0.00620123)
(0.0034809 -0.000258906 0.00532951)
(0.00641362 -0.000142337 0.0054459)
(0.00756061 0.00380087 0.00794851)
(0.00149689 0.0127601 0.0173707)
(-0.00739555 0.0316643 0.0268928)
(-0.0120204 0.0526937 0.0310618)
(-0.00747181 0.0862049 0.0339465)
(0.00696226 0.112834 0.039434)
(0.0241477 0.143036 0.0508306)
(0.049511 0.127142 0.0582048)
(0.0739906 0.185397 0.0746681)
(0.0818716 -0.0159599 0.0696335)
(0.0908516 0.3832 0.0346992)
(-0.024311 -0.0741048 0.0268994)
(-0.0522121 0.607026 0.0449821)
(-0.0358103 0.690779 -0.00729146)
(-0.0320885 0.672065 0.00196932)
(-0.0230949 0.71276 -0.000362302)
(-0.0152282 0.706719 0.00730529)
(-0.00727755 0.715293 0.00660122)
(-0.0036092 0.713441 0.00792165)
(0.00145712 0.715067 0.00812085)
(0.00471712 0.716845 0.00957271)
(0.00784018 0.716557 0.0105005)
(0.00928336 0.716594 0.0110551)
(0.0099879 0.717583 0.0118779)
(0.0109168 0.716602 0.0132211)
(0.0117434 0.714096 0.0146862)
(0.0123363 0.709536 0.0161681)
(0.0127651 0.704746 0.0174226)
(0.0132062 0.697324 0.0184463)
(0.0133373 0.688146 0.0191954)
(0.0131461 0.677446 0.0193984)
(0.0130504 0.665715 0.0188584)
(0.0131483 0.655576 0.0176183)
(0.0135081 0.642288 0.0153915)
(0.0133954 0.629133 0.0123802)
(0.0126662 0.621957 0.0088312)
(0.0113582 0.617615 0.00613613)
(0.0095885 0.610886 0.00421041)
(0.00823814 0.603661 0.00372838)
(0.0069911 0.596209 0.00420844)
(0.00561918 0.588858 0.00634276)
(0.00300498 0.578445 0.00924116)
(-0.00160977 0.559573 0.0122841)
(-0.00801953 0.535698 0.0148412)
(-0.0152502 0.512243 0.0153402)
(-0.0244192 0.490188 0.0118045)
(-0.0328156 0.465274 0.00272398)
(-0.0393193 0.447538 -0.014462)
(0.00678542 0.00853358 -0.00209253)
(0.0267137 0.0303961 0.00782566)
(0.0118093 0.0127876 0.00225428)
(0.0187828 0.0236797 0.00369348)
(0.0136814 0.00621934 0.00140429)
(0.0113429 0.00831447 0.000471283)
(0.0017251 -0.00208391 -0.001969)
(-0.000853761 0.00318155 -0.00223418)
(-0.00399625 -0.000605827 -0.00117705)
(-0.00533033 0.00205096 -0.000418022)
(-0.00662479 -0.000189948 -3.92975e-05)
(-0.00734371 0.000572902 0.000815161)
(-0.00775826 -0.000660276 0.00153114)
(-0.00719158 -0.000138242 0.0024026)
(-0.00714387 -0.000270007 0.00312516)
(-0.00721613 0.000415599 0.0037471)
(-0.00762061 0.000680404 0.00421405)
(-0.00796865 0.00119057 0.0045072)
(-0.00831955 0.00143965 0.00462752)
(-0.00851871 0.00174726 0.00464789)
(-0.00861142 0.00193255 0.00458726)
(-0.00860955 0.00209638 0.00450132)
(-0.00858092 0.00219 0.00441035)
(-0.00853302 0.00224971 0.00432995)
(-0.00847573 0.00227124 0.00425888)
(-0.00840249 0.00227161 0.00420001)
(-0.00831174 0.00226168 0.00415433)
(-0.00820807 0.00225163 0.00412202)
(-0.00810885 0.00224576 0.00410132)
(-0.0080496 0.00225146 0.00408964)
(-0.00803651 0.0022883 0.00408145)
(-0.00804239 0.00235583 0.00406667)
(-0.00805606 0.00248806 0.00403875)
(-0.00805193 0.0026124 0.00399179)
(-0.00797269 0.0028228 0.00392464)
(-0.00785911 0.00290676 0.00384422)
(-0.00764065 0.00313462 0.00375652)
(-0.00744461 0.00303923 0.00366683)
(-0.00717813 0.00320094 0.0035765)
(-0.00701107 0.00277661 0.00349841)
(-0.00671363 0.00290018 0.00343126)
(-0.0064621 0.00218841 0.00335445)
(-0.00571046 0.00241671 0.0032445)
(-0.0048494 0.00125514 0.00337548)
(-0.00385265 0.00138203 0.00352837)
(-0.00290612 -0.000917823 0.00281971)
(-0.00123112 0.00143266 0.00212394)
(0.000298774 0.00188132 0.00242944)
(-0.00246727 0.00840978 0.00524182)
(-0.0134565 0.014495 0.0147269)
(-0.0285546 0.0261416 0.0265776)
(-0.0341439 0.0356555 0.0308841)
(-0.0335925 0.0587745 0.0292697)
(-0.0196243 0.0720152 0.0259574)
(-0.000190839 0.116755 0.0345158)
(0.0366701 0.0852019 0.0413244)
(0.0745761 0.183663 0.0608997)
(0.0970354 -0.0348942 0.0690447)
(0.171779 0.407108 0.0334692)
(-0.0486137 -0.0995456 0.0183323)
(-0.123151 0.575434 0.0252802)
(-0.0521097 0.67458 -0.00689969)
(-0.0465373 0.631004 0.00284665)
(-0.0223909 0.670315 0.00353035)
(-0.0165169 0.647858 0.00833522)
(-0.00499135 0.650776 0.00489793)
(-0.00431677 0.641276 0.00352428)
(-0.000690332 0.64108 0.00168327)
(0.00124943 0.64029 0.00141147)
(0.00418686 0.640975 0.000865486)
(0.00526468 0.641312 -0.000154659)
(0.00615633 0.643325 -4.2544e-05)
(0.00686196 0.643464 0.000872471)
(0.00841602 0.644553 0.00260552)
(0.010346 0.645012 0.00445806)