/*--------------------------------*- C++ -*----------------------------------*\
| =========                 |                                                 |
| \\      /  F ield         | OpenFOAM: The Open Source CFD Toolbox           |
|  \\    /   O peration     | Version:  2.3.0                                 |
|   \\  /    A nd           | Web:      www.OpenFOAM.org                      |
|    \\/     M anipulation  |                                                 |
\*---------------------------------------------------------------------------*/
FoamFile
{
    version     2.0;
    format      ascii;
    class       volVectorField;
    location    "56";
    object      U.waterMean;
}
// * * * * * * * * * * * * * * * * * * * * * * * * * * * * * * * * * * * * * //

dimensions      [0 1 -1 0 0 0 0];

internalField   nonuniform List<vector> 
6144
(
(0.00993105 0.0197544 -0.000561333)
(0.01023 -0.00122229 -0.00154247)
(0.00456862 -0.00277805 -0.00253953)
(0.00410846 -0.00333124 -0.00242833)
(0.00257006 -0.00308232 -0.00192171)
(0.00299233 -0.00130514 -0.00166146)
(0.00271046 -0.00143669 -0.00131345)
(0.0026638 -0.000425807 -0.00103774)
(0.00229851 -0.00032705 -0.000894854)
(0.00203626 0.000887754 -0.000554625)
(0.00182037 0.00179207 -0.000228857)
(0.00187182 0.00257453 0.000219814)
(0.00199717 0.00259476 0.000436665)
(0.00213208 0.00220823 0.00068081)
(0.00219813 0.00152152 0.000626591)
(0.00227514 0.000897826 0.000527075)
(0.00232351 0.000279057 0.000322297)
(0.00237573 -0.000172351 0.000140431)
(0.00241802 -0.000540025 -5.14791e-05)
(0.00244998 -0.000758023 -0.000203494)
(0.00246919 -0.000889322 -0.000326068)
(0.00248124 -0.000920662 -0.000409481)
(0.00248074 -0.000906195 -0.000446427)
(0.00246906 -0.000856372 -0.000441978)
(0.00244661 -0.000794633 -0.0004035)
(0.00241636 -0.000729506 -0.000336639)
(0.00238244 -0.000672402 -0.000251863)
(0.00234793 -0.000633312 -0.000160516)
(0.00231183 -0.000612181 -6.70484e-05)
(0.00227385 -0.000616159 2.2529e-05)
(0.00223514 -0.000616473 0.000110932)
(0.00219165 -0.000660462 0.000205066)
(0.00214784 -0.000667427 0.000311647)
(0.00209671 -0.00078855 0.000438138)
(0.0020516 -0.000831658 0.000590172)
(0.00200284 -0.00113784 0.000759135)
(0.00197238 -0.00129341 0.000923605)
(0.00194321 -0.00187413 0.00103608)
(0.00194131 -0.00207214 0.00105018)
(0.00194262 -0.00275305 0.00090109)
(0.00195533 -0.00259342 0.000549074)
(0.00196561 -0.00278646 -2.17778e-05)
(0.00204375 -0.001536 -0.000609173)
(0.00241104 -0.00103998 -0.0010558)
(0.00310906 0.000240721 -0.00148081)
(0.0038756 -0.000367613 -0.00204787)
(0.00430516 0.000492278 -0.00276698)
(0.00365401 0.000670962 -0.00385687)
(0.002862 0.00632935 -0.00557817)
(0.00624016 0.0102266 -0.00755893)
(0.0181835 0.0106361 -0.00996765)
(0.0272793 -0.0109795 -0.0102285)
(0.0317077 -0.0232196 -0.0109509)
(0.0297062 -0.0596501 -0.0101391)
(0.024662 -0.0550264 -0.0107524)
(0.0205675 -0.0937031 -0.00708818)
(0.0017618 -0.0465527 -0.0125033)
(0.00520143 -0.0982296 0.0234263)
(-0.036188 -0.00753834 -0.0445337)
(0.0241409 -0.0309483 0.0380013)
(0.137061 -0.294599 0.0617016)
(0.0931975 -0.121019 0.0274555)
(0.0608704 -0.189009 0.00771424)
(0.0514022 -0.200772 0.0045758)
(0.0430142 -0.201184 0.00518351)
(0.0357567 -0.194335 0.00526052)
(0.0295322 -0.193785 0.00459153)
(0.0248151 -0.188196 0.00422595)
(0.0215892 -0.185223 0.00427527)
(0.0187972 -0.178418 0.00452418)
(0.0162756 -0.173325 0.00484265)
(0.0137646 -0.164969 0.00528309)
(0.0116235 -0.156866 0.0057916)
(0.00900186 -0.147162 0.00623088)
(0.00589301 -0.136598 0.00638157)
(0.00348539 -0.123741 0.00505938)
(0.00245433 -0.110756 0.0026672)
(0.00149246 -0.097996 0.00130382)
(0.000654002 -0.0851828 0.00127604)
(0.00172936 -0.0729963 0.00205195)
(0.00325813 -0.0629735 0.00275699)
(0.00385713 -0.0550213 0.003525)
(0.00393391 -0.0497983 0.00455246)
(0.00297993 -0.0458585 0.00476294)
(0.00247843 -0.041285 0.00421728)
(0.00262114 -0.0358042 0.0034982)
(0.00278079 -0.0300189 0.00320523)
(0.0024766 -0.0236674 0.00249737)
(0.00166009 -0.0174643 0.00152589)
(0.000374365 -0.00923159 0.000915898)
(0.000524822 -0.00123764 0.00160541)
(0.0011463 0.00569153 0.00268744)
(0.00118434 0.0107817 0.00390544)
(0.000972052 0.0144486 0.00634558)
(0.00174562 0.0155328 0.0101661)
(0.00460286 0.00837446 0.0162212)
(0.0193062 0.0207781 0.00302722)
(0.020551 0.00682797 0.00244881)
(0.0105377 0.00328944 -0.000665271)
(0.00997007 0.00202156 0.00010312)
(0.00568245 -0.000970765 0.00101224)
(0.00574034 1.81238e-05 0.00152581)
(0.00453464 -0.000903098 0.00209356)
(0.00432328 0.000495906 0.00215888)
(0.00358624 0.000691981 0.00215303)
(0.00317053 0.00223996 0.00221267)
(0.00298296 0.00304172 0.00238068)
(0.0033225 0.00371254 0.00286927)
(0.0036907 0.0035411 0.00313145)
(0.00408549 0.00314375 0.00333058)
(0.00422375 0.00237606 0.00332403)
(0.00436613 0.00169705 0.00329503)
(0.00440392 0.000977214 0.00320839)
(0.00445897 0.000444304 0.00314108)
(0.00448856 -1.83367e-05 0.00306165)
(0.00450695 -0.000320451 0.00301085)
(0.00450525 -0.000530499 0.00297114)
(0.00449793 -0.000624398 0.00294168)
(0.00447091 -0.000663154 0.00294438)
(0.00442542 -0.000653123 0.00297882)
(0.00436226 -0.000620983 0.00303754)
(0.00428771 -0.00057468 0.00311426)
(0.00421127 -0.000527647 0.00319393)
(0.00414038 -0.000492098 0.00326551)
(0.00407002 -0.000472345 0.00333746)
(0.00399751 -0.000477403 0.00340418)
(0.00392587 -0.000483664 0.00346918)
(0.00384741 -0.000544406 0.00353677)
(0.00377752 -0.000572994 0.0036096)
(0.00370256 -0.000735488 0.00368819)
(0.00366177 -0.000803504 0.00377672)
(0.00362428 -0.0011521 0.00386682)
(0.00364192 -0.00128209 0.00395442)
(0.00364235 -0.00186693 0.00401566)
(0.00367901 -0.00196332 0.00403315)
(0.00364786 -0.00263466 0.0039504)
(0.00359125 -0.00233485 0.0037067)
(0.00350823 -0.00266477 0.00323033)
(0.00361997 -0.00158359 0.00259375)
(0.00417974 -0.0017301 0.00205079)
(0.00530711 -0.000396444 0.00148403)
(0.00631186 -0.000424897 0.000684321)
(0.00610722 0.00221984 -0.000489701)
(0.00513658 0.00398421 -0.00192208)
(0.0066574 0.00873503 -0.00335469)
(0.0162206 0.00568358 -0.00424002)
(0.0385298 -0.000983172 -0.00566334)
(0.0525038 -0.0182613 -0.00567859)
(0.0592877 -0.023179 -0.00347825)
(0.0544377 -0.0511769 -0.000791492)
(0.0416667 -0.0403826 0.00471336)
(0.039699 -0.097052 0.0121928)
(-0.00125988 -0.0456257 0.0120243)
(-0.00184203 -0.160685 0.0437884)
(-0.09524 0.023822 -0.0730698)
(0.00601616 -0.083937 0.0125846)
(0.17569 -0.262149 0.101209)
(0.0871233 0.0064485 0.0434635)
(0.0254762 -0.11414 0.00984143)
(0.0255652 -0.0566716 0.0158526)
(0.0128174 -0.0728618 0.0170972)
(0.00532245 -0.0618969 0.0152048)
(0.00213863 -0.0627909 0.0126362)
(0.00171512 -0.0566483 0.0119634)
(0.00266739 -0.0549805 0.0113981)
(0.00209317 -0.0498773 0.0101884)
(0.000158931 -0.0496736 0.0110619)
(-0.00214229 -0.0491518 0.0122003)
(-0.00331285 -0.050913 0.0129581)
(-0.0053649 -0.052177 0.0123505)
(-0.0081045 -0.0531073 0.0109754)
(-0.00916389 -0.0512099 0.00961191)
(-0.00881154 -0.0492576 0.00827658)
(-0.00920318 -0.0467315 0.00766527)
(-0.00905638 -0.043464 0.00744545)
(-0.00741071 -0.040499 0.00774024)
(-0.00543509 -0.0368259 0.00776766)
(-0.00385821 -0.0333006 0.00821611)
(-0.00291333 -0.0323135 0.00918208)
(-0.00289829 -0.0328142 0.00916043)
(-0.00328985 -0.0326758 0.00785064)
(-0.0029416 -0.0315317 0.00667347)
(-0.00265563 -0.0284051 0.00519642)
(-0.00295978 -0.0238218 0.00374804)
(-0.00359261 -0.0188459 0.00249126)
(-0.00438522 -0.0129307 0.00168397)
(-0.00415709 -0.00706697 0.00263769)
(-0.00307 -0.00180752 0.00384745)
(-0.00346381 0.00413036 0.00563592)
(-0.00399722 0.00701475 0.0092264)
(-0.00354647 0.00916174 0.0141173)
(-0.000848962 0.00322698 0.0208309)
(0.0225981 0.0207265 0.00413782)
(0.0246223 0.0116322 0.00403568)
(0.0147276 0.00691357 0.0012178)
(0.0135507 0.00626843 0.00216992)
(0.00699002 0.00162408 0.00292264)
(0.00607949 0.00215557 0.00313294)
(0.00357732 0.000288258 0.00372642)
(0.00316661 0.00158505 0.00363099)
(0.00221812 0.00156819 0.00355936)
(0.00207877 0.00278436 0.00362753)
(0.00197077 0.00299942 0.00369753)
(0.00261544 0.0035171 0.00399437)
(0.00306282 0.00328113 0.00418485)
(0.00356517 0.00313566 0.00434619)
(0.0037498 0.00259079 0.00433748)
(0.0039389 0.00212993 0.00432651)
(0.00396021 0.00154222 0.00427864)
(0.00400509 0.00109495 0.00425591)
(0.00398833 0.000658608 0.00423537)
(0.00396643 0.000344789 0.00423969)
(0.00390925 7.93343e-05 0.00425583)
(0.00383819 -9.54084e-05 0.00429077)
(0.00375688 -0.000217641 0.00433277)
(0.00366917 -0.000284469 0.00438088)
(0.00357332 -0.000319842 0.00443194)
(0.00347468 -0.000332319 0.00448465)
(0.00337544 -0.000335752 0.00453898)
(0.00327659 -0.00033701 0.00459656)
(0.00317915 -0.000339835 0.00465646)
(0.00307715 -0.000359524 0.00471814)
(0.00297582 -0.000379519 0.00478112)
(0.00287076 -0.000450394 0.00484514)
(0.00278087 -0.000490836 0.00491065)
(0.00268718 -0.000646276 0.00497502)
(0.00264085 -0.000685913 0.00503852)
(0.00259753 -0.00094241 0.00509265)
(0.00262898 -0.000917346 0.00513636)
(0.00264235 -0.0012513 0.00515263)
(0.00271971 -0.00103902 0.00513356)
(0.00271514 -0.00135764 0.00504321)
(0.00275403 -0.000777609 0.00484583)
(0.00273917 -0.00109931 0.00457528)
(0.00293877 -0.000310275 0.00431875)
(0.00351076 -0.000967056 0.00409662)
(0.00444865 0.000366004 0.00356646)
(0.00530562 0.000450729 0.00297095)
(0.00539304 0.00296263 0.00209232)
(0.00614395 0.0024162 0.000864055)
(0.0111712 0.00502343 -0.000388666)
(0.026993 -0.00221022 -0.000319351)
(0.0529499 -0.00562558 -0.00173262)
(0.0703111 -0.0133839 -0.000829594)
(0.0745459 -0.00804607 0.00271911)
(0.0684918 -0.025891 0.00608336)
(0.0587 -0.0123873 0.0153378)
(0.0530864 -0.0775282 0.0236757)
(-0.00138161 -0.0139207 0.0340431)
(0.0122654 -0.184279 0.0629119)
(-0.11477 0.0700894 -0.0603508)
(0.0294294 -0.116364 -0.0184633)
(0.199136 -0.237566 0.104457)
(0.107286 0.0559164 0.0481896)
(0.0743617 -0.0881449 0.0246274)
(0.0469568 -0.00422014 0.0162379)
(0.0306021 -0.0328661 0.0122246)
(0.0206383 -0.0154078 0.0127056)
(0.0183309 -0.0197871 0.0131601)
(0.0142909 -0.0139611 0.0110674)
(0.0127525 -0.0109352 0.00981315)
(0.0124175 -0.00573692 0.0105083)
(0.0107129 -0.00625344 0.0129732)
(0.00716187 -0.00703803 0.0152328)
(0.00424815 -0.0108093 0.0160062)
(0.00106397 -0.0125144 0.015181)
(-0.00223049 -0.0150999 0.012981)
(-0.00405554 -0.0153783 0.010627)
(-0.00465747 -0.0143015 0.00950443)
(-0.00560289 -0.0127665 0.00886365)
(-0.00679585 -0.0124834 0.00939085)
(-0.0062926 -0.0128855 0.00976656)
(-0.0046657 -0.0127033 0.00984861)
(-0.00275956 -0.012902 0.0105888)
(-0.00157821 -0.0143586 0.0117483)
(-0.0027702 -0.0158905 0.0110049)
(-0.00379681 -0.0172133 0.00995126)
(-0.00428205 -0.0178132 0.00863391)
(-0.00428151 -0.016879 0.00651799)
(-0.00434546 -0.0154118 0.00404621)
(-0.00449967 -0.01327 0.00128892)
(-0.00503286 -0.00860858 -0.000172457)
(-0.00542092 -0.00444502 0.00255473)
(-0.00594046 -0.000854378 0.0055488)
(-0.00654169 0.0026719 0.00844404)
(-0.00737401 0.00348626 0.0117944)
(-0.00909402 0.00547583 0.0164726)
(-0.00909921 0.000484301 0.0223787)
(0.0237604 0.0207919 0.0043703)
(0.0272423 0.014948 0.004532)
(0.016802 0.00869361 0.000970555)
(0.0165425 0.00946362 0.00139028)
(0.00884204 0.00354475 0.00201226)
(0.00730161 0.0042079 0.00250751)
(0.00314365 0.000841841 0.00351794)
(0.00222702 0.00184881 0.00352323)
(0.000898974 0.0011062 0.00362215)
(0.000986238 0.00229115 0.00374504)
(0.000899186 0.00215557 0.00389647)
(0.00152668 0.00276709 0.00429513)
(0.00189465 0.00274149 0.00450154)
(0.002419 0.00289687 0.00466475)
(0.00263584 0.00255141 0.00464131)
(0.00284624 0.00227456 0.00464521)
(0.00285717 0.00178295 0.00461824)
(0.00288713 0.00141339 0.00462489)
(0.00284169 0.00101183 0.00462156)
(0.00279761 0.000710292 0.00463296)
(0.00271241 0.000430221 0.0046464)
(0.00261727 0.000221533 0.00467187)
(0.00250631 4.98727e-05 0.00470313)
(0.00239105 -6.87716e-05 0.00474074)
(0.00227428 -0.000149695 0.00478218)
(0.00216091 -0.000197354 0.0048273)
(0.0020542 -0.000224599 0.0048738)
(0.00195547 -0.000241607 0.00492137)
(0.00186285 -0.000255689 0.00497098)
(0.00177219 -0.000280255 0.00502293)
(0.00168831 -0.000301511 0.00507701)
(0.00160636 -0.000359299 0.0051308)
(0.001544 -0.000378779 0.00518106)
(0.00148102 -0.000486646 0.00522224)
(0.00146709 -0.000464318 0.00524977)
(0.00144445 -0.000618394 0.00525578)
(0.00149508 -0.000466841 0.00523835)
(0.00150078 -0.000623642 0.00518716)
(0.00157294 -0.000207981 0.00510061)
(0.00156237 -0.000309935 0.00496086)
(0.00169388 0.000422145 0.00475704)
(0.00184817 0.000109285 0.00453595)
(0.00221966 0.0007123 0.00434172)
(0.00258696 -0.000148244 0.00417792)
(0.00321721 0.000668412 0.00395387)
(0.00397148 -6.15008e-05 0.00384526)
(0.00479176 0.00148772 0.00351349)
(0.00669355 -0.00114299 0.00253558)
(0.0144587 -0.000617218 0.00163072)
(0.031059 -0.00863106 0.00171019)
(0.0562872 -0.00574912 0.00104082)
(0.0726043 -0.00142765 0.00368079)
(0.0788994 0.0136491 0.00814811)
(0.074998 0.00737463 0.0123031)
(0.0651369 0.0275048 0.0246641)
(0.0577671 -0.030691 0.0403284)
(0.0149488 0.0546812 0.0745996)
(0.0310546 -0.194549 0.100722)
(-0.14989 0.195019 -0.042143)
(0.030074 -0.208955 0.00819163)
(0.183313 -0.200807 0.113145)
(0.0794597 0.0824411 0.0354746)
(0.0523862 -0.0432687 0.0240669)
(0.0156983 0.0446056 0.00367994)
(0.0119085 0.0225815 0.00694955)
(0.00245356 0.0418177 0.00813906)
(0.00152537 0.038804 0.00984609)
(0.000607289 0.0447575 0.0100492)
(0.00203395 0.0427973 0.00939095)
(0.00246006 0.045325 0.00884152)
(0.00175948 0.0431544 0.00988053)
(0.000110894 0.0406761 0.0101568)
(-0.00245078 0.0362382 0.0105388)
(-0.00540268 0.0332107 0.0103626)
(-0.00771806 0.0291591 0.00907331)
(-0.00888586 0.0269989 0.00851364)
(-0.00947869 0.0240405 0.00827792)
(-0.00956542 0.0226748 0.00803349)
(-0.00954662 0.0199904 0.00922452)
(-0.00896127 0.0187673 0.0103075)
(-0.00818178 0.0173964 0.0119171)
(-0.00808537 0.0164589 0.0116419)
(-0.00799607 0.0153548 0.0122322)
(-0.00815742 0.0123521 0.0116302)
(-0.00926011 0.00944695 0.010819)
(-0.00996841 0.00665113 0.0097369)
(-0.00933956 0.00458139 0.00638321)
(-0.00802182 0.00445126 0.00379355)
(-0.00835897 0.00350803 0.00134047)
(-0.00852571 0.00553244 -0.000217354)
(-0.00870508 0.00717674 0.00369066)
(-0.0094267 0.00666534 0.00696162)
(-0.0105835 0.00654141 0.00969865)
(-0.0129265 0.00422317 0.0135262)
(-0.0172737 0.0047015 0.0172073)
(-0.0195609 -0.000538149 0.0227056)
(0.0237752 0.0209465 0.00449485)
(0.0290899 0.0180308 0.00516078)
(0.0184635 0.0100317 0.000879324)
(0.0196549 0.0118202 0.000957327)
(0.011125 0.00439766 0.000272689)
(0.0092565 0.00580086 0.000869838)
(0.00361594 0.0010933 0.00219769)
(0.00201473 0.0023304 0.00270609)
(-0.00026286 0.000316535 0.00308084)
(-0.000399197 0.00141282 0.00344377)
(-0.000755691 0.0010014 0.00368406)
(-0.000388566 0.00187512 0.00423245)
(-0.000197735 0.00208824 0.00444471)
(0.000369424 0.00254509 0.00463617)
(0.000627553 0.00236876 0.00458548)
(0.000839555 0.00220472 0.00460857)
(0.000795646 0.00177423 0.00459576)
(0.000734167 0.00147409 0.00462648)
(0.000602053 0.00112424 0.00462763)
(0.000493883 0.000861627 0.00462945)
(0.000363851 0.000591556 0.00461735)
(0.000242561 0.000370941 0.00461169)
(0.000119422 0.000174072 0.00460993)
(-1.78287e-06 2.52026e-05 0.00461608)
(-0.00012321 -8.81197e-05 0.00462761)
(-0.000235202 -0.000166167 0.00464507)
(-0.000334211 -0.000219908 0.00466702)
(-0.000418727 -0.000258335 0.00469202)
(-0.000493564 -0.000286612 0.00471754)
(-0.000566183 -0.000313163 0.00474394)
(-0.000634746 -0.000327418 0.00477071)
(-0.000702468 -0.000361376 0.00479471)
(-0.0007533 -0.000346946 0.00481276)
(-0.00080595 -0.000390148 0.00481664)
(-0.00080804 -0.000287687 0.00480109)
(-0.000820736 -0.000318618 0.00475512)
(-0.000761167 -3.02339e-05 0.00467673)
(-0.000757406 -4.13861e-06 0.00455641)
(-0.000669548 0.000591315 0.00440959)
(-0.00063086 0.000655983 0.00425093)
(-0.000327562 0.00143796 0.00412555)
(2.39882e-05 0.00104224 0.00401955)
(0.000609676 0.00147531 0.00386186)
(0.00116212 0.000310808 0.00365512)
(0.0019468 0.000635219 0.00364162)
(0.00263291 -0.000815193 0.00380246)
(0.00391446 -0.000300221 0.00423839)
(0.00718401 -0.00432422 0.00391624)
(0.016715 -0.00594008 0.00387886)
(0.0317242 -0.0103996 0.00533493)
(0.050244 0.000248858 0.00657557)
(0.0650124 0.0149705 0.011528)
(0.070821 0.041654 0.0149805)
(0.0679629 0.0485954 0.0188734)
(0.0593179 0.0772916 0.0344039)
(0.0482116 0.0368717 0.050478)
(0.017218 0.125666 0.0851082)
(0.0255413 -0.112737 0.102654)
(-0.122168 0.304071 -0.0139357)
(0.0175902 -0.269216 0.0152629)
(0.159133 -0.163929 0.116169)
(0.0615617 0.0948288 0.0299664)
(0.0527213 -0.00174333 0.0274902)
(0.017825 0.0763208 0.0027337)
(0.0172992 0.0644733 0.00808379)
(0.00799414 0.0812676 0.00846115)
(0.00761046 0.0801112 0.00941826)
(0.00509901 0.0862499 0.00862838)
(0.00475272 0.0855058 0.00860391)
(0.00397272 0.0880245 0.00944071)
(0.00386905 0.0854101 0.0112563)
(0.00246163 0.0840102 0.0116713)
(0.00125866 0.0810099 0.0116747)
(0.000256016 0.0776196 0.0112028)
(-0.00018741 0.0734549 0.0110575)
(-0.00118286 0.0696063 0.0103011)
(-0.00176295 0.0669608 0.00943688)
(-0.00331164 0.0649614 0.00882956)
(-0.00489354 0.0634102 0.0105903)
(-0.00596636 0.0617701 0.0122997)
(-0.00686963 0.0592072 0.0128979)
(-0.00789949 0.0544818 0.0142983)
(-0.00805136 0.0482098 0.0149066)
(-0.00806246 0.0415538 0.0130643)
(-0.00795071 0.035297 0.0099108)
(-0.00692306 0.030585 0.00588582)
(-0.00536322 0.0274186 0.00282756)
(-0.00401908 0.0259563 0.00141488)
(-0.00456417 0.0248015 0.000535492)
(-0.00485834 0.0237316 0.0031429)
(-0.00729235 0.020987 0.00683694)
(-0.00905043 0.0172622 0.00923404)
(-0.0111485 0.0145107 0.0128823)
(-0.015523 0.00819576 0.0162021)
(-0.0230261 0.00687015 0.0180302)
(-0.0299712 -0.000526369 0.0216526)
(0.0224223 0.0205651 0.00501127)
(0.0304077 0.021462 0.00645751)
(0.0191831 0.0111595 0.00180538)
(0.0218714 0.0139079 0.00230786)
(0.0136973 0.00399741 -0.000197937)
(0.0115213 0.0063893 -0.000254835)
(0.00468704 0.000425122 0.000779862)
(0.00228677 0.00268709 0.00154072)
(-0.000467525 -0.00031395 0.002207)
(-0.0013833 0.000695605 0.00280842)
(-0.00202183 -0.000263387 0.00309616)
(-0.00185068 0.000838459 0.00380493)
(-0.00159862 0.00129455 0.00410675)
(-0.000842299 0.00210325 0.0044866)
(-0.000371543 0.00198998 0.00458751)
(-8.1519e-05 0.00189464 0.00474206)
(-0.000143596 0.00148508 0.00477834)
(-0.000274598 0.00126535 0.00482221)
(-0.00046561 0.00101209 0.00480042)
(-0.000611882 0.000860359 0.00476353)
(-0.000765967 0.000683807 0.00469317)
(-0.000903659 0.000535728 0.0046173)
(-0.00104595 0.000384432 0.00454034)
(-0.00117656 0.000258195 0.00447264)
(-0.00129091 0.000154185 0.00441399)
(-0.00138447 7.99999e-05 0.00436444)
(-0.00145627 2.57696e-05 0.004324)
(-0.00151122 -1.50409e-05 0.00429281)
(-0.00155913 -4.66722e-05 0.00427064)
(-0.00160215 -7.20672e-05 0.0042596)
(-0.00163913 -7.61842e-05 0.0042579)
(-0.00167253 -7.94028e-05 0.00425796)
(-0.00169191 -2.03491e-05 0.00425357)
(-0.00171544 1.26642e-05 0.00423077)
(-0.00170328 0.000199695 0.00418145)
(-0.00171686 0.000282974 0.00409344)
(-0.00168139 0.000665235 0.00396674)
(-0.0017165 0.000784487 0.0037992)
(-0.00165538 0.00138267 0.00362775)
(-0.00157631 0.00138934 0.00351236)
(-0.00116269 0.00202292 0.00352482)
(-0.000655925 0.00156201 0.00361767)
(8.4205e-05 0.00191472 0.00361044)
(0.00073605 0.000649514 0.00357331)
(0.00156616 0.000829198 0.00388781)
(0.00216511 -0.000990589 0.0043585)
(0.00399338 -0.0018178 0.00477939)
(0.00885482 -0.00628374 0.00455467)
(0.0162553 -0.00804257 0.00567556)
(0.0253553 -0.0092155 0.00993452)
(0.0357806 0.0055201 0.0138818)
(0.0440357 0.0283119 0.019327)
(0.0524097 0.0620113 0.0249824)
(0.0532943 0.0774027 0.0326283)
(0.0487429 0.106084 0.0489517)
(0.0417199 0.0701197 0.0585376)
(0.0279836 0.145481 0.0799598)
(0.0443128 -0.0873278 0.0802467)
(-0.0346976 0.34467 0.0169899)
(0.0196234 -0.306915 0.0224357)
(0.101996 -0.123478 0.110579)
(0.0266406 0.110721 0.0187595)
(0.0232343 0.0455569 0.0210261)
(-0.000923104 0.111788 0.00302239)
(0.000661205 0.110159 0.0107255)
(-0.00292579 0.12445 0.0119032)
(-0.00067896 0.123953 0.0135119)
(0.000378525 0.129535 0.0135423)
(0.00271164 0.127929 0.0143113)
(0.0041826 0.129217 0.0152291)
(0.00548041 0.126124 0.0155305)
(0.00549668 0.125024 0.0151176)
(0.00563012 0.121801 0.0144611)
(0.00528164 0.120455 0.0138142)
(0.00445948 0.118259 0.0137693)
(0.0027426 0.115884 0.0134726)
(0.00130173 0.113692 0.0133998)
(-0.000238561 0.111114 0.0142376)
(-0.00219715 0.106905 0.0152105)
(-0.00395926 0.100599 0.0157858)
(-0.00540426 0.0932536 0.0163906)
(-0.00662117 0.084096 0.0162168)
(-0.00625999 0.0750178 0.0140732)
(-0.00510497 0.0665089 0.0100165)
(-0.00423409 0.0603404 0.00533425)
(-0.0033137 0.0562433 0.00139293)
(-0.00286085 0.0532581 -0.000864812)
(-0.00316725 0.0509848 -0.00065208)
(-0.00444574 0.0474845 0.0021061)
(-0.00643924 0.0421154 0.00665373)
(-0.00948402 0.0354347 0.00848587)
(-0.0122395 0.0294767 0.0111192)
(-0.0151229 0.0240847 0.0153708)
(-0.0202217 0.0156703 0.0187646)
(-0.0282301 0.011466 0.0199282)
(-0.035144 0.000455474 0.0196595)
(0.0189877 0.0190245 0.00520075)
(0.0304772 0.0252219 0.00855923)
(0.0181377 0.0117359 0.00378212)
(0.0218721 0.0161221 0.00504043)
(0.0145316 0.00308408 0.00150298)
(0.0124837 0.00608555 0.000660149)
(0.00484356 -0.000991868 0.000791072)
(0.00219416 0.00260186 0.00109142)
(-0.000935073 -0.000684757 0.00164704)
(-0.00233801 0.000603589 0.0024233)
(-0.00369135 -0.000901022 0.0026184)
(-0.00436991 0.000235166 0.00338673)
(-0.00450957 0.000599577 0.00380996)
(-0.00351557 0.0014996 0.00457814)
(-0.0029081 0.00135961 0.00498506)
(-0.00262964 0.00138713 0.00532966)
(-0.00283302 0.00106297 0.00541314)
(-0.00316533 0.000975059 0.00542685)
(-0.00351758 0.00084527 0.00533832)
(-0.00375189 0.000834315 0.00523178)
(-0.00393527 0.000792435 0.0050875)
(-0.00405976 0.000775738 0.00494227)
(-0.00416144 0.00073405 0.00479974)
(-0.00424624 0.000693304 0.00467691)
(-0.00432983 0.000653614 0.00457928)
(-0.00438548 0.000626716 0.00449922)
(-0.00441067 0.000601411 0.00443485)
(-0.00440918 0.000575681 0.00439408)
(-0.00439667 0.000549492 0.00437575)
(-0.00438914 0.000528137 0.00437708)
(-0.00439135 0.000534794 0.0043929)
(-0.00439916 0.000561044 0.00441148)
(-0.00440707 0.000663648 0.00442183)
(-0.00442355 0.000763327 0.0044067)
(-0.00440196 0.00100517 0.00436329)
(-0.00439188 0.00113782 0.0042835)
(-0.00431302 0.00150626 0.00417773)
(-0.00427208 0.00155037 0.00404588)
(-0.00411188 0.00194231 0.00391916)
(-0.00395259 0.00167769 0.00383269)
(-0.00353412 0.00201818 0.00384443)
(-0.00307036 0.00143501 0.00387202)
(-0.00220595 0.00187576 0.00386866)
(-0.00139398 0.000841337 0.00404847)
(-0.000526294 0.000965597 0.00451887)
(0.00054332 -0.00105437 0.0049645)
(0.00362193 -0.00250865 0.0050998)
(0.00845699 -0.00584292 0.00501507)
(0.0137597 -0.00602494 0.00668932)
(0.015919 -0.00239383 0.0129084)
(0.0137787 0.0166813 0.0203437)
(0.017407 0.0409249 0.0256414)
(0.0244862 0.0780397 0.0326977)
(0.0291881 0.10017 0.0415748)
(0.0350355 0.12536 0.0543738)
(0.0395982 0.0911822 0.0603943)
(0.0452684 0.161354 0.0739878)
(0.0415222 -0.076107 0.0626726)
(0.0079638 0.340393 0.0448909)
(0.00822331 -0.324162 0.0282917)
(0.0405382 -0.0826133 0.0960296)
(0.000322063 0.125699 0.0189341)
(0.000801171 0.0880047 0.0172464)
(-0.0115908 0.146805 0.00416928)
(-0.00605481 0.144773 0.0136717)
(-0.00459316 0.15683 0.0143321)
(-0.00112412 0.155133 0.0153405)
(0.00027085 0.160369 0.0153383)
(0.00216035 0.161048 0.0163035)
(0.0041113 0.163779 0.0168744)
(0.00641108 0.162374 0.0169602)
(0.00707381 0.164054 0.0165209)
(0.00779848 0.163337 0.0167936)
(0.00715276 0.163125 0.0167443)
(0.0066454 0.161475 0.0172007)
(0.00514349 0.158554 0.0172465)
(0.00385061 0.154161 0.0173848)
(0.00238538 0.148267 0.0174419)
(0.00138201 0.141625 0.017266)
(0.000604186 0.133351 0.0179196)
(0.000230341 0.12367 0.0179644)
(0.000396522 0.113678 0.0162157)
(0.00192736 0.104866 0.0129666)
(0.00353802 0.0979721 0.00845983)
(0.00487534 0.0936191 0.00378647)
(0.00531996 0.0895412 -0.0011114)
(0.00416495 0.0863155 -0.00319538)
(0.00289025 0.0814766 -0.000837954)
(0.00196131 0.0735357 0.00201685)
(-0.000234401 0.0643148 0.00469496)
(-0.00415613 0.0528944 0.00606631)
(-0.0096436 0.0425666 0.00775806)
(-0.0153183 0.0331414 0.0109088)
(-0.0223422 0.0221079 0.0136205)
(-0.0312167 0.0145655 0.0159904)
(-0.0427657 0.000513864 0.0137669)
(0.0159933 0.0137694 0.0043302)
(0.0293354 0.0282966 0.0095103)
(0.0156982 0.0118973 0.00450827)
(0.0207601 0.0192024 0.00596649)
(0.0143182 0.00338768 0.00261915)
(0.0119538 0.00619501 0.00165828)
(0.0034561 -0.00226359 0.0014464)
(0.00057211 0.00230454 0.00122105)
(-0.00163357 -0.00133417 0.0021241)
(-0.00317506 0.000865565 0.00280735)
(-0.00441592 -0.000980594 0.00308006)
(-0.00515666 1.65227e-05 0.0039353)
(-0.00511813 -0.00050458 0.00462204)
(-0.00395575 0.000114676 0.00565287)
(-0.00331309 -0.000108841 0.00638034)
(-0.00305954 0.000290912 0.00698879)
(-0.00325474 0.000346306 0.00727148)
(-0.00354226 0.000650261 0.00737371)
(-0.00384557 0.000774169 0.00731396)
(-0.00403425 0.000979513 0.00719987)
(-0.00418688 0.00109463 0.00702988)
(-0.00428256 0.00119735 0.00685355)
(-0.0043546 0.00123994 0.00668212)
(-0.00440321 0.00126241 0.0065325)
(-0.00443974 0.00125652 0.00640424)
(-0.00445025 0.00123894 0.0063023)
(-0.0044312 0.00121632 0.00622774)
(-0.00438759 0.00119057 0.00617866)
(-0.00433779 0.00116214 0.00615132)
(-0.00430027 0.00114272 0.00614272)
(-0.00428315 0.00116053 0.00614396)
(-0.00428181 0.00121344 0.00614109)
(-0.00429197 0.00134898 0.00612415)
(-0.00430662 0.00148897 0.00608382)
(-0.00428009 0.00173958 0.00601919)
(-0.00426081 0.0018575 0.00592724)
(-0.00415443 0.00213083 0.00582614)
(-0.00405813 0.00204513 0.00571662)
(-0.00380711 0.00223499 0.00563046)
(-0.00357977 0.00181189 0.00557693)
(-0.0031994 0.00198054 0.0055878)
(-0.00287725 0.00135072 0.00560611)
(-0.0021745 0.00179228 0.00562309)
(-0.00133851 0.000806606 0.00585051)
(-0.000485208 0.00103307 0.00624641)
(0.000822081 -0.0013437 0.00620118)
(0.00347929 -0.00145052 0.00532954)
(0.00641048 -0.00168311 0.00544581)
(0.00755702 0.00175049 0.00794844)
(0.00149466 0.0100886 0.0173722)
(-0.00739181 0.0284311 0.0268954)
(-0.0120079 0.0491382 0.031071)
(-0.00744372 0.0825226 0.0339646)
(0.00700275 0.109119 0.0394689)
(0.0242389 0.13925 0.0508645)
(0.0496109 0.123452 0.0582482)
(0.0740467 0.181348 0.0746706)
(0.0818973 -0.0195495 0.0695893)
(0.0908067 0.371816 0.0344915)
(-0.00414815 -0.344304 0.0280476)
(-0.044484 -0.0501509 0.0661346)
(-0.0357521 0.158814 -0.00564089)
(-0.0332968 0.126296 0.00483497)
(-0.0247773 0.176697 -0.00152204)
(-0.0177735 0.169652 0.00848824)
(-0.00967508 0.176189 0.00823136)
(-0.00591329 0.173774 0.00852199)
(-0.00143057 0.177555 0.00831042)
(0.00211011 0.179069 0.00938302)
(0.0061898 0.180924 0.0104754)
(0.00846915 0.18138 0.010826)
(0.00916005 0.183129 0.0112013)
(0.00991509 0.183623 0.0124625)
(0.0109047 0.184676 0.0140145)
(0.0117671 0.183677 0.015655)
(0.0123223 0.180606 0.0169864)
(0.0129661 0.175939 0.0181331)
(0.0133446 0.169377 0.0190525)
(0.0133479 0.162071 0.0198695)
(0.0133275 0.15367 0.0201478)
(0.0132957 0.145639 0.0198459)
(0.0136731 0.136844 0.0186126)
(0.0139629 0.129536 0.0161235)
(0.0137561 0.124598 0.011951)
(0.0129989 0.122124 0.00832013)
(0.0111303 0.121138 0.00568522)
(0.00927611 0.119802 0.00437382)
(0.00825083 0.117515 0.00386963)
(0.00794473 0.113999 0.00512293)
(0.00676985 0.108503 0.00768391)
(0.00351107 0.0996384 0.0106887)
(-0.00192473 0.0885706 0.0138579)
(-0.00736735 0.0751284 0.0166354)
(-0.0149449 0.0571335 0.0172908)
(-0.0249746 0.0362788 0.0124288)
(-0.0343575 0.00787989 -0.00198768)
(0.0067871 0.00830178 -0.00209083)
(0.0267129 0.0299729 0.00782516)
(0.0118099 0.0123597 0.00225432)
(0.0187828 0.0232262 0.0036933)
(0.0136818 0.00572493 0.00140442)
(0.0113432 0.00777129 0.000471394)
(0.00172532 -0.00267024 -0.00196893)
(-0.0008536 0.00255807 -0.00223409)
(-0.00399608 -0.00125859 -0.00117693)
(-0.00533022 0.00137636 -0.000417894)
(-0.00662466 -0.000879963 -3.91456e-05)
(-0.00734362 -0.000126843 0.00081533)
(-0.00775816 -0.00136474 0.00153131)
(-0.00719147 -0.000844385 0.00240275)
(-0.00714372 -0.00097663 0.00312531)
(-0.00721596 -0.000291225 0.00374725)
(-0.00762041 -2.65209e-05 0.00421421)
(-0.00796843 0.000483592 0.00450736)
(-0.00831931 0.000732622 0.00462768)
(-0.00851844 0.00104016 0.00464805)
(-0.00861113 0.00122539 0.00458742)
(-0.00860924 0.00138914 0.00450148)
(-0.00858058 0.00148267 0.00441051)
(-0.00853266 0.0015423 0.00433011)
(-0.00847534 0.00156373 0.00425903)
(-0.00840209 0.00156401 0.00420017)
(-0.00831132 0.00155397 0.0041545)
(-0.00820764 0.00154381 0.00412218)
(-0.00810841 0.00153782 0.00410148)
(-0.00804916 0.00154338 0.00408981)
(-0.00803608 0.00158006 0.00408163)
(-0.00804198 0.00164742 0.00406686)
(-0.00805566 0.00177946 0.00403895)
(-0.00805156 0.00190359 0.00399199)
(-0.00797234 0.00211374 0.00392484)
(-0.00785879 0.00219742 0.00384443)
(-0.00764037 0.00242493 0.00375672)
(-0.00744437 0.00232916 0.00366703)
(-0.00717794 0.00249042 0.00357669)
(-0.00701095 0.00206553 0.00349859)
(-0.00671358 0.0021878 0.00343143)
(-0.00646211 0.0014718 0.0033546)
(-0.00571048 0.00168755 0.0032446)
(-0.00484933 0.00049631 0.00337555)
(-0.00385244 0.000553412 0.00352844)
(-0.00290561 -0.00189271 0.00281978)
(-0.00122971 0.000215775 0.00212458)
(0.00030159 0.000312616 0.00243032)
(-0.00246072 0.00635996 0.00524338)
(-0.0134415 0.0118699 0.0147301)
(-0.0285245 0.022983 0.026583)
(-0.034096 0.0321742 0.030898)
(-0.0335158 0.0551538 0.0292984)
(-0.0195328 0.0683696 0.0260086)
(-4.67649e-05 0.113013 0.0345862)
(0.0367639 0.0814716 0.0414107)
(0.0746762 0.179672 0.0609836)
(0.0971663 -0.039045 0.0690097)
(0.171467 0.395521 0.0333769)
(-0.0114583 -0.325322 0.0221912)
(-0.115463 -0.0906588 0.0472003)
(-0.0580005 0.148932 -0.00919571)
(-0.0553188 0.0821536 0.00394076)
(-0.0268783 0.136753 0.00164508)
(-0.0229995 0.109352 0.0113555)
(-0.00812973 0.112184 0.00916114)
(-0.00574203 0.100183 0.00695934)