/*--------------------------------*- C++ -*----------------------------------*\
| =========                 |                                                 |
| \\      /  F ield         | OpenFOAM: The Open Source CFD Toolbox           |
|  \\    /   O peration     | Version:  2.3.0                                 |
|   \\  /    A nd           | Web:      www.OpenFOAM.org                      |
|    \\/     M anipulation  |                                                 |
\*---------------------------------------------------------------------------*/
FoamFile
{
    version     2.0;
    format      ascii;
    class       volVectorField;
    location    "56";
    object      Ur;
}
// * * * * * * * * * * * * * * * * * * * * * * * * * * * * * * * * * * * * * //

dimensions      [0 1 -1 0 0 0 0];

internalField   nonuniform List<vector> 
6144
(
(-2.40358e-07 0.000353778 -2.29288e-07)
(-1.67296e-07 0.000386233 -3.4308e-07)
(1.34298e-07 0.000420038 -2.29414e-07)
(3.27538e-07 0.000447265 -1.10513e-07)
(5.07316e-07 0.000481691 -2.33741e-08)
(5.55463e-07 0.000532444 -2.95874e-08)
(5.2739e-07 0.000590733 -1.42971e-08)
(4.68235e-07 0.000642397 -7.51909e-09)
(4.00339e-07 0.000678945 2.00125e-08)
(3.2343e-07 0.000696604 1.93863e-08)
(2.4585e-07 0.000700483 2.96006e-09)
(1.69722e-07 0.000699494 8.80434e-09)
(9.26738e-08 0.00069807 1.59943e-08)
(2.65378e-08 0.00069689 1.47067e-08)
(-2.38508e-08 0.00069592 1.01451e-08)
(-6.84559e-08 0.000695117 2.74844e-09)
(-9.57114e-08 0.000694482 -1.58427e-09)
(-1.2403e-07 0.000693997 -8.89883e-09)
(-1.4072e-07 0.000693638 -1.30437e-08)
(-1.6237e-07 0.000693396 -2.04636e-08)
(-1.72515e-07 0.00069326 -2.36778e-08)
(-1.89939e-07 0.0006932 -2.88749e-08)
(-1.95679e-07 0.000693201 -2.91386e-08)
(-2.10518e-07 0.000693253 -3.35413e-08)
(-2.13041e-07 0.000693359 -3.28765e-08)
(-2.26749e-07 0.000693517 -3.74467e-08)
(-2.27313e-07 0.000693728 -3.691e-08)
(-2.4149e-07 0.000693978 -4.28469e-08)
(-2.41017e-07 0.000694275 -4.33045e-08)
(-2.5613e-07 0.000694623 -5.2076e-08)
(-2.54273e-07 0.000695036 -5.54523e-08)
(-2.70298e-07 0.000695516 -6.9078e-08)
(-2.66271e-07 0.000696077 -7.73031e-08)
(-2.81955e-07 0.000696725 -9.83161e-08)
(-2.74054e-07 0.000697482 -1.14351e-07)
(-2.86562e-07 0.000698361 -1.45477e-07)
(-2.68946e-07 0.000699386 -1.70713e-07)
(-2.69586e-07 0.000700568 -2.14956e-07)
(-2.30392e-07 0.000701929 -2.51993e-07)
(-2.02094e-07 0.000703511 -3.09951e-07)
(-1.18229e-07 0.000705111 -3.62757e-07)
(-5.05408e-08 0.000712311 -4.12574e-07)
(4.85211e-08 0.000750859 -4.45272e-07)
(6.52893e-08 0.000854973 -5.34002e-07)
(7.21103e-08 0.00103218 -5.74471e-07)
(-3.65937e-07 0.00126442 -7.85477e-07)
(-9.7925e-07 0.00154109 -1.40509e-06)
(-1.71612e-06 0.00187563 -2.48146e-06)
(4.55525e-06 0.00238256 -5.25869e-06)
(1.05595e-05 0.0029502 -1.11713e-05)
(-3.80621e-06 0.00317828 -1.368e-05)
(-8.91922e-06 0.00335142 -1.30374e-05)
(-8.37224e-06 0.003625 -7.75541e-06)
(-7.8218e-06 0.00387616 -5.00901e-06)
(-1.92569e-05 0.00405738 -1.14878e-05)
(-1.10683e-05 0.00421096 -1.71814e-05)
(-3.03966e-05 0.00474466 -9.54074e-05)
(2.01811e-05 0.0059639 8.51737e-05)
(-0.000105865 0.0164088 -0.000138419)
(0.00632737 0.137551 0.00518676)
(-0.0214462 0.618328 -0.0270517)
(-0.0307145 0.491679 -0.0381924)
(-0.000294614 0.0208819 -0.00046105)
(-2.0281e-05 0.0056325 -1.15704e-05)
(-3.607e-05 0.00593984 -2.93438e-05)
(-3.37764e-05 0.00590743 -3.53789e-05)
(-1.39523e-05 0.00591727 -1.89145e-05)
(1.06478e-07 0.00594134 -6.23004e-06)
(-3.86135e-06 0.00594113 -2.45199e-05)
(-6.53451e-06 0.00596184 -1.97483e-05)
(-2.86991e-05 0.00603524 -1.76846e-05)
(-7.00259e-05 0.00612651 -4.50942e-05)
(-8.68935e-05 0.00617343 -7.30898e-05)
(-6.49532e-05 0.00621441 -8.00469e-05)
(-3.86692e-05 0.00624511 -7.08993e-05)
(-1.4134e-05 0.00627035 -4.41133e-05)
(3.51403e-07 0.00631482 -1.27243e-05)
(1.40879e-05 0.0063379 6.99165e-06)
(2.34807e-05 0.00631171 2.27404e-05)
(1.64575e-05 0.00623413 3.03602e-05)
(9.42579e-07 0.00623971 1.50587e-05)
(-1.59456e-05 0.00640406 -2.39491e-05)
(-2.76786e-05 0.00652591 -4.03989e-05)
(-2.89557e-05 0.00637142 -2.1613e-05)
(-2.82219e-05 0.00608456 -7.41164e-06)
(-2.4446e-05 0.00591257 -4.61489e-06)
(-1.47312e-05 0.00592916 -1.01345e-05)
(-1.22266e-05 0.00608455 -1.31689e-05)
(-1.35773e-05 0.00628592 -1.28936e-05)
(-1.63675e-05 0.0064601 -8.54725e-06)
(-1.67302e-05 0.00659494 -4.72478e-07)
(-2.20846e-05 0.00669092 5.01465e-06)
(-5.29068e-05 0.00676455 6.73419e-06)
(-6.83166e-05 0.00681969 2.07329e-05)
(-5.6378e-05 0.00658051 3.73178e-05)
(-5.01764e-05 0.00603614 3.91484e-05)
(-7.28392e-08 0.000332595 -2.64181e-07)
(2.90148e-07 0.000378516 -3.69096e-07)
(7.28918e-07 0.000429131 -2.16878e-07)
(1.07785e-06 0.000467351 -8.54976e-08)
(1.43729e-06 0.000506115 8.40555e-09)
(1.57218e-06 0.000549901 2.35174e-08)
(1.52382e-06 0.000598914 4.02411e-08)
(1.34803e-06 0.000646283 3.94194e-08)
(1.11222e-06 0.000680116 4.08908e-08)
(8.5963e-07 0.000696009 4.42045e-08)
(6.19554e-07 0.00069962 3.4065e-08)
(3.98836e-07 0.000699063 3.80634e-08)
(1.89105e-07 0.000697919 4.34491e-08)
(5.0931e-09 0.000696913 5.84243e-08)
(-1.33503e-07 0.000696075 5.49892e-08)
(-2.42406e-07 0.000695372 5.36653e-08)
(-3.18343e-07 0.000694783 4.1395e-08)
(-3.81463e-07 0.000694307 3.56392e-08)
(-4.27882e-07 0.000693943 2.14648e-08)
(-4.71095e-07 0.0006937 1.62713e-08)
(-5.03004e-07 0.000693566 2.48212e-09)
(-5.38312e-07 0.000693503 2.23145e-09)
(-5.64747e-07 0.000693503 -6.37171e-09)
(-5.94409e-07 0.000693563 -2.69073e-09)
(-6.14084e-07 0.00069368 -1.01908e-08)
(-6.38566e-07 0.000693859 -4.87592e-09)
(-6.54198e-07 0.000694092 -1.27839e-08)
(-6.78758e-07 0.000694361 -4.80308e-09)
(-6.9301e-07 0.000694671 -1.27351e-08)
(-7.14503e-07 0.00069504 -5.78315e-09)
(-7.23366e-07 0.000695472 -1.82428e-08)
(-7.40066e-07 0.00069597 -1.39776e-08)
(-7.39323e-07 0.000696541 -3.25413e-08)
(-7.43214e-07 0.000697197 -3.31376e-08)
(-7.22698e-07 0.000697955 -6.01036e-08)
(-6.9936e-07 0.000698838 -6.73693e-08)
(-6.37837e-07 0.000699863 -1.04415e-07)
(-5.60196e-07 0.000701051 -1.23199e-07)
(-4.21508e-07 0.000702425 -1.80344e-07)
(-2.46748e-07 0.000704003 -2.19835e-07)
(2.31152e-08 0.000705711 -2.63132e-07)
(3.93267e-07 0.000711438 -2.69896e-07)
(9.14701e-07 0.000743194 -2.71567e-07)
(1.54979e-06 0.000844473 -2.07182e-07)
(2.43711e-06 0.00104053 -1.62966e-07)
(3.21484e-06 0.00131678 -4.91385e-07)
(4.14176e-06 0.00168061 -1.24619e-06)
(5.66998e-06 0.00215623 -2.48573e-06)
(1.15203e-05 0.00262407 -7.22498e-06)
(1.30834e-05 0.00284194 -1.28913e-05)
(-2.20594e-06 0.00293466 -1.74282e-05)
(4.11751e-06 0.00321634 -1.29284e-05)
(8.033e-06 0.00359301 -1.50017e-05)
(-1.04193e-06 0.00390663 -3.33066e-05)
(-3.06519e-05 0.00410356 -3.34362e-05)
(-1.99062e-05 0.00422808 -3.88943e-05)
(-5.45525e-05 0.00498848 -0.000158745)
(-3.52542e-05 0.00598043 0.000226422)
(-0.000131554 0.0139615 -1.72457e-05)
(0.0135666 0.129558 0.0142981)
(-0.0165852 0.61485 -0.0205934)
(-0.0324667 0.44952 -0.0433688)
(-0.000305474 0.0213765 -0.000482355)
(-5.32717e-05 0.00578503 1.25598e-05)
(-7.03304e-05 0.0059456 -2.37398e-05)
(-5.33263e-05 0.00600802 -2.79058e-05)
(-4.33965e-05 0.00607989 -1.95858e-05)
(-4.26479e-05 0.00605684 -1.95052e-05)
(-4.22708e-05 0.00603365 -2.67808e-05)
(-4.94843e-05 0.00614861 -3.02898e-05)
(-4.97729e-05 0.00636047 -3.04803e-05)
(-2.97567e-05 0.00648221 -5.15276e-05)
(-1.77481e-06 0.00655939 -6.89442e-05)
(1.74318e-05 0.00684491 -6.98971e-05)
(2.02928e-05 0.00733897 -5.81919e-05)
(2.70998e-05 0.00762314 -4.6228e-05)
(2.59312e-05 0.00746003 -1.20767e-05)
(2.99908e-05 0.00713575 2.55571e-05)
(2.58616e-05 0.00695511 4.87056e-05)
(8.70104e-06 0.00678245 5.45179e-05)
(-9.82602e-06 0.00642669 3.20004e-05)
(-2.32419e-05 0.00588815 -9.04959e-06)
(-3.78142e-05 0.00532921 -1.81766e-05)
(-3.85349e-05 0.0049732 -1.31889e-05)
(-2.68668e-05 0.00485235 -1.8593e-05)
(-1.87632e-05 0.00488267 -2.36065e-05)
(-5.94048e-06 0.00499543 -3.41453e-05)
(3.57926e-06 0.00515536 -3.41849e-05)
(-1.57846e-06 0.00531653 -1.99925e-05)
(-2.13377e-05 0.00546934 -1.76785e-05)
(-4.48263e-05 0.00563216 -1.80112e-05)
(-6.42125e-05 0.00580716 -5.82259e-06)
(-9.68592e-05 0.00607218 7.31578e-06)
(-0.000137827 0.00644729 1.44152e-05)
(-0.000148407 0.00646986 3.14125e-05)
(-0.000131636 0.0060203 5.9676e-05)
(3.19569e-07 0.000315183 -1.18837e-07)
(1.20173e-06 0.000358556 -1.6221e-07)
(1.54037e-06 0.000416707 -1.83583e-07)
(1.90384e-06 0.00046758 -1.24177e-08)
(2.20807e-06 0.000514033 9.79466e-08)
(2.33719e-06 0.0005592 1.36093e-07)
(2.22246e-06 0.000605251 1.29779e-07)
(1.95147e-06 0.000645987 1.19625e-07)
(1.57459e-06 0.000673426 1.14596e-07)
(1.16207e-06 0.000688539 1.00799e-07)
(7.77364e-07 0.000694797 8.38456e-08)
(3.93675e-07 0.000696418 8.38938e-08)
(5.17352e-08 0.000696494 8.80135e-08)
(-2.39032e-07 0.000696092 9.33694e-08)
(-4.52508e-07 0.00069555 9.4348e-08)
(-6.24072e-07 0.000695027 8.99328e-08)
(-7.45691e-07 0.000694548 8.53971e-08)
(-8.46698e-07 0.000694132 7.91043e-08)
(-9.19384e-07 0.00069382 7.47501e-08)
(-9.84946e-07 0.000693609 6.96268e-08)
(-1.03242e-06 0.000693483 6.71273e-08)
(-1.08134e-06 0.000693437 6.36273e-08)
(-1.11848e-06 0.000693456 6.24804e-08)
(-1.16154e-06 0.000693527 6.03384e-08)
(-1.19361e-06 0.000693649 6.03002e-08)
(-1.23348e-06 0.000693818 5.85548e-08)
(-1.26153e-06 0.00069403 5.82111e-08)
(-1.29793e-06 0.000694292 5.52036e-08)
(-1.31898e-06 0.000694612 5.36154e-08)
(-1.34657e-06 0.000694985 4.90506e-08)
(-1.35422e-06 0.00069541 4.5015e-08)
(-1.36464e-06 0.000695891 3.74774e-08)
(-1.34867e-06 0.000696442 2.84145e-08)
(-1.33107e-06 0.00069708 1.35589e-08)
(-1.27361e-06 0.000697829 -2.10714e-09)
(-1.19957e-06 0.00069871 -2.2602e-08)
(-1.06491e-06 0.00069975 -4.34928e-08)
(-8.95064e-07 0.000700965 -7.26802e-08)
(-6.29338e-07 0.000702391 -1.01799e-07)
(-2.78783e-07 0.000704038 -1.34113e-07)
(2.23044e-07 0.000706514 -1.49163e-07)
(8.55881e-07 0.000714748 -1.46358e-07)
(1.80132e-06 0.00074511 -8.95016e-08)
(3.10499e-06 0.000831009 2.39775e-08)
(4.97174e-06 0.00100301 8.97213e-08)
(7.5755e-06 0.00126217 -5.71439e-07)
(1.07843e-05 0.0015948 -2.00844e-06)
(1.49639e-05 0.0019683 -4.38509e-06)
(1.47771e-05 0.00231092 -8.1532e-06)
(1.0513e-05 0.0025786 -9.82817e-06)
(9.37157e-06 0.00288581 -9.6486e-06)
(2.03753e-05 0.0033463 -4.11348e-06)
(3.07575e-05 0.00379181 -1.54157e-05)
(6.00429e-06 0.00409545 -3.7345e-05)
(-3.03188e-05 0.0042661 -4.29628e-05)
(-1.15977e-05 0.00439793 -6.17138e-05)
(-0.000113967 0.00523153 -0.000218432)
(-0.000144426 0.00647881 0.000211598)
(-0.000277832 0.0137827 -5.96631e-06)
(0.0152922 0.129682 0.0221702)
(-0.00528475 0.610801 -0.00557871)
(-0.019831 0.441509 -0.0299965)
(-0.000162453 0.0214621 -0.000379688)
(-0.000164429 0.00591697 -3.37447e-05)
(-1.56342e-05 0.00614395 -0.000103163)
(-1.06405e-05 0.00642099 -1.12592e-05)
(-4.98223e-06 0.00633264 -1.8071e-05)
(-1.25416e-05 0.00600431 -2.38331e-05)
(-1.53968e-05 0.00588363 -2.091e-05)
(-8.25061e-07 0.00591684 -3.06466e-05)
(1.41795e-05 0.00602472 -3.5129e-05)
(2.49964e-05 0.00614574 -2.17384e-05)
(-0.000300412 0.00632531 -4.64087e-05)
(2.02311e-06 0.00709363 -3.56943e-05)
(-1.12216e-05 0.00831961 -2.6765e-05)
(3.22295e-07 0.00864931 6.02578e-06)
(1.84869e-05 0.00772609 6.52197e-05)
(2.30822e-05 0.00663467 4.52059e-05)
(1.12774e-05 0.00599669 1.31796e-05)
(-2.59859e-06 0.00567272 1.35882e-06)
(-1.66153e-05 0.00544822 -1.25003e-05)
(-2.04094e-05 0.00524752 -2.50369e-05)
(-9.76609e-06 0.00504461 -5.18705e-05)
(2.05975e-06 0.00490306 -3.9272e-05)
(9.45446e-06 0.00486341 -2.84209e-05)
(1.95777e-06 0.00497259 -8.62046e-06)
(-6.4478e-06 0.00514999 4.1937e-06)
(-1.85159e-05 0.00525783 1.87281e-06)
(-3.36225e-05 0.00525756 -1.08597e-05)
(-5.30035e-05 0.0052876 -1.65707e-05)
(-6.9292e-05 0.00548784 -1.69702e-05)
(-8.59013e-05 0.00578808 -1.94844e-05)
(-9.90647e-05 0.00608924 -1.19432e-05)
(-0.00013083 0.00638893 7.44797e-06)
(-0.000180688 0.00638266 3.73446e-05)
(-0.000175135 0.00594093 6.73577e-05)
(5.98125e-07 0.000304779 5.62298e-08)
(2.04512e-06 0.000339625 1.20995e-07)
(2.35391e-06 0.000394238 -5.23721e-08)
(2.72808e-06 0.00044769 1.26809e-07)
(2.94541e-06 0.000502939 2.34074e-07)
(3.03063e-06 0.000557757 2.13477e-07)
(2.73881e-06 0.000604375 1.86933e-07)
(2.36195e-06 0.000640262 1.69431e-07)
(1.85945e-06 0.000666062 1.42608e-07)
(1.34141e-06 0.000682781 1.24451e-07)
(8.217e-07 0.000691138 1.02418e-07)
(3.2815e-07 0.000694457 1.02275e-07)
(-1.16048e-07 0.000695446 9.40013e-08)
(-4.838e-07 0.000695408 1.06515e-07)
(-7.77331e-07 0.000695013 9.77393e-08)
(-1.00823e-06 0.000694584 1.00932e-07)
(-1.19242e-06 0.000694164 8.97303e-08)
(-1.33513e-06 0.000693776 9.21739e-08)
(-1.4544e-06 0.000693477 8.12039e-08)
(-1.54637e-06 0.000693278 8.48941e-08)
(-1.6279e-06 0.000693166 7.45822e-08)
(-1.69176e-06 0.000693128 8.00608e-08)
(-1.75431e-06 0.000693151 6.97269e-08)
(-1.80487e-06 0.000693222 7.63445e-08)
(-1.85945e-06 0.000693338 6.52847e-08)
(-1.90364e-06 0.000693503 7.24081e-08)
(-1.9529e-06 0.000693717 5.9034e-08)
(-1.98985e-06 0.000693988 6.61081e-08)
(-2.03087e-06 0.000694315 5.00509e-08)
(-2.05474e-06 0.000694705 5.65836e-08)
(-2.07848e-06 0.000695159 3.63521e-08)
(-2.07655e-06 0.00069568 3.95123e-08)
(-2.06808e-06 0.00069627 1.15512e-08)
(-2.02357e-06 0.000696951 9.2903e-09)
(-1.96155e-06 0.000697742 -2.70127e-08)
(-1.84746e-06 0.000698671 -3.19187e-08)
(-1.69627e-06 0.00069976 -7.3599e-08)
(-1.46499e-06 0.000701061 -7.99471e-08)
(-1.15476e-06 0.000702598 -1.24953e-07)
(-7.13899e-07 0.000704462 -1.24405e-07)
(-1.47175e-07 0.000708571 -1.48008e-07)
(6.07274e-07 0.00072084 -1.1015e-07)
(1.69955e-06 0.000751857 -8.04987e-08)
(3.27125e-06 0.000824564 3.61235e-08)
(5.34479e-06 0.000968558 -8.03302e-08)
(8.22305e-06 0.00118314 -6.64595e-07)
(1.17948e-05 0.00143557 -2.06427e-06)
(1.59813e-05 0.0017083 -3.47062e-06)
(1.8291e-05 0.00201309 -3.59129e-06)
(1.70856e-05 0.0023697 -3.93222e-06)
(2.00042e-05 0.0028885 -2.21891e-06)
(3.50983e-05 0.0036023 -5.74936e-06)
(4.90853e-05 0.00410734 -2.11499e-05)
(3.56215e-05 0.00429263 -5.0556e-05)
(2.86375e-05 0.00436301 -7.08631e-05)
(3.33665e-05 0.00443115 -6.93043e-05)
(-0.000312049 0.00552484 -0.000148943)
(-0.000236307 0.00718596 0.000221703)
(-0.000708915 0.0134306 -0.000488582)
(0.0172419 0.13983 0.0193779)
(-0.0130884 0.626565 -0.0201565)
(-0.0210697 0.428174 -0.0304973)
(-0.000283922 0.0466538 -0.00139144)
(-0.000796698 0.12549 -0.0028696)
(-0.000208168 0.0318496 -0.000487375)
(-0.000422285 0.00774277 -0.000312695)
(-0.00037776 0.00701861 -0.000334709)
(-0.000186313 0.00652225 -0.000378401)
(-8.71464e-05 0.00623987 -0.000390097)
(-7.60694e-05 0.00619454 -0.000425758)
(-3.28302e-05 0.00700194 -0.000303849)
(0.000115701 0.0313505 8.47349e-05)
(0.00696436 0.299138 0.000174656)
(0.000101861 0.0276423 5.79637e-05)
(2.37655e-06 0.00893099 -0.000294561)
(-7.10335e-05 0.0103026 -0.000376068)
(-7.00263e-05 0.0111089 -0.000207383)
(-4.00082e-05 0.0112206 -5.56805e-05)
(-1.00884e-05 0.0101304 -2.71957e-05)
(1.52849e-05 0.00871036 9.44365e-06)
(1.49046e-05 0.00772876 3.67759e-07)
(-4.56998e-05 0.00727115 -2.41654e-05)
(-0.000165599 0.00668476 -1.80127e-05)
(-2.15678e-05 0.00590667 -1.02107e-05)
(-2.75611e-05 0.00529331 1.05716e-05)
(-2.86359e-05 0.00514476 1.33928e-05)
(-4.58222e-05 0.00535605 1.36968e-05)
(-6.58509e-05 0.0057092 9.87562e-06)
(-7.75063e-05 0.00595076 4.50501e-07)
(-0.000100329 0.00594455 -2.33208e-05)
(-0.000118962 0.00589772 -4.23002e-05)
(-0.000125502 0.00597846 -4.11276e-05)
(-0.000130057 0.00617216 -2.70649e-05)
(-0.000136106 0.00636561 -7.20422e-06)
(-0.000172046 0.00627295 3.19053e-05)
(-0.000159616 0.00582442 4.72725e-05)
(8.39064e-07 0.000298056 2.41565e-07)
(2.77311e-06 0.000324305 3.96426e-07)
(3.09654e-06 0.000373025 3.51542e-08)
(3.49251e-06 0.00042394 1.06778e-07)
(3.57544e-06 0.0004757 2.5867e-07)
(3.62196e-06 0.000532888 2.46574e-07)
(3.17187e-06 0.000590378 2.14867e-07)
(2.65552e-06 0.000633077 1.69531e-07)
(2.03306e-06 0.00065953 1.37355e-07)
(1.41138e-06 0.000677406 1.06325e-07)
(8.06404e-07 0.000687829 9.42168e-08)
(2.44346e-07 0.000692832 7.86766e-08)
(-2.45835e-07 0.000694712 7.93073e-08)
(-6.7629e-07 0.000695037 7.64033e-08)
(-1.01746e-06 0.000694803 8.27598e-08)
(-1.30819e-06 0.000694466 7.39667e-08)
(-1.53582e-06 0.000694109 7.88794e-08)
(-1.73095e-06 0.00069377 6.87792e-08)
(-1.88605e-06 0.000693513 7.35628e-08)
(-2.02154e-06 0.000693349 6.1685e-08)
(-2.12992e-06 0.000693267 6.57738e-08)
(-2.22848e-06 0.00069325 5.23602e-08)
(-2.30754e-06 0.000693288 5.67644e-08)
(-2.3835e-06 0.000693368 4.23651e-08)
(-2.44448e-06 0.000693491 4.71187e-08)
(-2.50567e-06 0.000693658 3.08769e-08)
(-2.55298e-06 0.000693874 3.58443e-08)
(-2.60214e-06 0.000694138 1.72364e-08)
(-2.63614e-06 0.000694457 2.13738e-08)
(-2.66929e-06 0.000694834 -1.51206e-09)
(-2.68122e-06 0.000695278 1.42631e-10)
(-2.68716e-06 0.000695789 -2.95941e-08)
(-2.66318e-06 0.000696384 -3.32278e-08)
(-2.62429e-06 0.000697076 -7.07343e-08)
(-2.54496e-06 0.00069789 -7.83642e-08)
(-2.43677e-06 0.000698845 -1.23334e-07)
(-2.26548e-06 0.000699984 -1.33243e-07)
(-2.03299e-06 0.000701342 -1.78174e-07)
(-1.70257e-06 0.000702983 -1.80783e-07)
(-1.28924e-06 0.0007055 -2.14244e-07)
(-7.73081e-07 0.000711197 -2.04904e-07)
(-1.16138e-07 0.000725726 -2.29744e-07)
(9.02328e-07 0.000759123 -1.79619e-07)
(2.36589e-06 0.000827291 -1.56195e-07)
(4.16427e-06 0.000950223 -2.2623e-07)
(6.37608e-06 0.00113126 -7.87597e-07)
(9.44116e-06 0.00134166 -1.60647e-06)
(1.32754e-05 0.00156359 -1.7754e-06)
(1.65515e-05 0.00184938 -3.46052e-08)
(1.82858e-05 0.00233489 1.31307e-06)
(3.38131e-05 0.00313997 -1.59261e-06)
(8.72374e-05 0.00397535 -4.03669e-06)
(8.98912e-05 0.00434295 -2.93484e-05)
(0.00010097 0.00435189 -6.77155e-05)
(0.000137426 0.00435946 -0.000174216)
(0.000229629 0.0042473 -0.000130724)
(-0.0003387 0.00574714 -5.3384e-05)
(0.000365284 0.00874182 0.000416046)
(-0.00140601 0.015455 -0.000570832)
(0.0213236 0.164624 0.0231917)
(-0.0144459 0.663667 -0.0206607)
(-0.0204668 0.527103 -0.032839)
(-0.0101155 0.545672 -0.0267894)
(-0.0143974 0.547423 -0.0149637)
(-0.0200467 0.541601 -0.00341618)
(-0.0272984 0.550457 0.00190654)
(-0.010163 0.556596 0.00443491)
(0.00303123 0.558436 0.0141027)
(0.00469414 0.548877 0.00997115)
(0.000783387 0.54159 -0.000509419)
(-0.00226648 0.540571 -0.00400823)
(0.00415754 0.542678 -0.00439319)
(0.0187124 0.554201 -0.000998301)
(0.0156131 0.54995 0.00795644)
(0.00509825 0.542286 0.00524796)
(0.00293223 0.537624 -0.00245176)
(0.00355631 0.541001 -0.00590058)
(0.00282272 0.540682 -0.00205343)
(0.000868949 0.536592 -0.00265586)
(-0.00306514 0.532228 -0.00326136)
(-0.00338236 0.52217 -0.00254796)
(0.00151828 0.489468 -0.00733637)
(0.00708424 0.351884 -0.0106081)
(-0.00015111 0.0318638 -0.000148479)
(-0.000226857 0.0117691 -8.24344e-05)
(-0.000297621 0.0101836 4.48539e-05)
(-0.000258045 0.00655514 3.46207e-05)
(-0.000175681 0.00562892 2.58698e-05)
(-0.000297289 0.00602767 2.84602e-07)
(-9.77107e-05 0.00606931 -2.31802e-05)
(-0.000138195 0.00592979 -7.48801e-05)
(-0.000138153 0.00595163 -6.83075e-05)
(-0.000140073 0.00616322 -3.16138e-05)
(-0.000152484 0.00637173 -1.49409e-05)
(-0.00016014 0.00624558 1.54412e-05)
(-0.000124329 0.00578968 3.0312e-05)
(1.18366e-06 0.000294468 4.73451e-07)
(3.6086e-06 0.000313294 7.04926e-07)
(3.88211e-06 0.000352925 1.51071e-07)
(4.31066e-06 0.000400312 9.07158e-08)
(4.11096e-06 0.000450933 1.49874e-07)
(4.02294e-06 0.000504842 1.7815e-07)
(3.58128e-06 0.000565544 2.09998e-07)
(2.94113e-06 0.000619666 1.45116e-07)
(2.1544e-06 0.000652343 9.937e-08)
(1.47675e-06 0.000671869 8.46395e-08)
(7.90006e-07 0.000684283 5.23374e-08)
(1.84226e-07 0.000690814 5.46453e-08)
(-3.51101e-07 0.000693522 3.40273e-08)
(-8.13867e-07 0.000694162 4.90702e-08)
(-1.20605e-06 0.000694033 4.41337e-08)
(-1.53326e-06 0.000693763 5.73335e-08)
(-1.80596e-06 0.000693476 4.93643e-08)
(-2.02961e-06 0.000693193 5.92357e-08)
(-2.21893e-06 0.000692979 4.78182e-08)
(-2.37494e-06 0.000692851 5.31227e-08)
(-2.50973e-06 0.000692802 3.71961e-08)
(-2.62126e-06 0.000692816 3.93815e-08)
(-2.71863e-06 0.000692882 2.02216e-08)
(-2.79903e-06 0.00069299 2.15457e-08)
(-2.87178e-06 0.000693135 1.18689e-09)
(-2.93143e-06 0.000693324 3.46514e-09)
(-2.98447e-06 0.000693559 -1.88763e-08)
(-3.0255e-06 0.000693843 -1.69421e-08)
(-3.06021e-06 0.000694178 -4.16177e-08)
(-3.08147e-06 0.000694575 -4.04806e-08)
(-3.09455e-06 0.000695035 -6.98333e-08)
(-3.08906e-06 0.00069557 -7.29388e-08)
(-3.06672e-06 0.000696188 -1.09641e-07)
(-3.01556e-06 0.000696912 -1.19031e-07)
(-2.93488e-06 0.000697764 -1.6559e-07)
(-2.80846e-06 0.000698783 -1.79634e-07)
(-2.63497e-06 0.000700006 -2.2897e-07)
(-2.39907e-06 0.000701457 -2.40322e-07)
(-2.08987e-06 0.000703132 -2.83608e-07)
(-1.70572e-06 0.000705696 -2.86193e-07)
(-1.29514e-06 0.000711469 -3.24801e-07)
(-7.84421e-07 0.000726525 -3.29953e-07)
(1.19249e-08 0.000762147 -3.77211e-07)
(1.13428e-06 0.000830297 -4.20703e-07)
(2.49929e-06 0.00094059 -5.34233e-07)
(4.06639e-06 0.00109805 -1.07113e-06)
(5.99833e-06 0.00129075 -1.63481e-06)
(9.41834e-06 0.00150999 -1.22422e-06)
(1.38396e-05 0.0018226 1.39423e-06)
(2.14053e-05 0.00244431 4.80721e-06)
(5.25765e-05 0.00345729 3.2968e-06)
(0.000112031 0.00424217 2.54042e-05)
(0.000131927 0.00444513 -1.14152e-05)
(0.000178938 0.0043857 -0.000117515)
(0.000285892 0.00446565 -0.000157829)
(0.000518828 0.00429334 -0.000220265)
(-0.000878163 0.00593446 0.000268301)
(0.000507777 0.00912849 0.000306545)
(-0.000802239 0.0174345 -0.000845784)
(0.00864477 0.196078 0.0136242)
(-0.0094718 0.664576 -0.0161155)
(-0.00371824 0.505188 -0.0203152)
(-0.00479666 0.555511 -0.0226446)
(-0.0181982 0.548681 -0.00943862)
(-0.0360411 0.540653 0.00442369)
(-0.0244281 0.553862 0.00702189)
(-0.00512486 0.558873 0.0021737)
(0.00751939 0.563386 0.00149137)
(0.00143497 0.560978 -0.00244854)
(-0.00343602 0.561414 -0.00556129)
(0.00680495 0.559559 0.00427325)
(0.0156812 0.548344 0.0115166)
(0.0104718 0.538824 0.00307804)
(0.00774824 0.540794 -0.00426024)
(0.00827855 0.54224 -0.00392061)
(0.00417214 0.539444 -0.000398041)
(0.00236645 0.537979 -0.000414553)
(0.00249258 0.53649 -0.00232075)
(0.000788871 0.5339 -0.00196168)
(-0.00475962 0.529791 -0.00160275)
(-0.00538354 0.526235 -0.00540443)
(-3.95956e-05 0.526559 -0.0108949)
(0.0072205 0.530492 -0.0175615)
(0.0117428 0.541102 -0.0229127)
(-0.00288447 0.542729 -0.0120494)
(-0.0307997 0.512926 -0.00581947)
(-0.0451159 0.429698 0.0105373)
(-0.0056317 0.313437 0.00361779)
(-0.00691087 0.330348 -0.000670121)
(-0.000508659 0.0259757 -0.000466087)
(-0.000651757 0.0045902 -8.78596e-05)
(-0.000583679 0.00473238 -8.84873e-05)
(-0.000532099 0.00477243 -2.48022e-05)
(-0.000539694 0.00503317 -1.35415e-05)
(-0.000616596 0.00532419 -4.7459e-05)
(-0.000735192 0.00535776 -5.2324e-05)
(1.76527e-06 0.000292844 7.95475e-07)
(4.71167e-06 0.000306386 1.18674e-06)
(4.69742e-06 0.000336027 4.4564e-07)
(4.94001e-06 0.000378887 2.61576e-07)
(4.53071e-06 0.000431461 1.05967e-07)
(4.18746e-06 0.000483612 2.70502e-08)
(3.76432e-06 0.000541451 2.08132e-07)
(3.15747e-06 0.000602997 1.10405e-07)
(2.22233e-06 0.000644405 8.5119e-08)
(1.50017e-06 0.000667217 5.59328e-08)
(7.6704e-07 0.000681375 3.61661e-08)
(1.72847e-07 0.00068926 2.01477e-08)
(-3.67016e-07 0.000692795 1.83903e-08)
(-8.6812e-07 0.000693763 1.36536e-08)
(-1.31077e-06 0.000693778 3.53026e-08)
(-1.67443e-06 0.000693622 4.21524e-08)
(-1.96601e-06 0.000693419 5.88792e-08)
(-2.19906e-06 0.000693189 5.29471e-08)
(-2.39041e-06 0.000693013 5.6606e-08)
(-2.54929e-06 0.000692914 3.98205e-08)
(-2.68298e-06 0.000692876 3.74819e-08)
(-2.79333e-06 0.00069288 1.70968e-08)
(-2.88673e-06 0.000692933 1.3196e-08)
(-2.96325e-06 0.000693034 -7.52715e-09)
(-3.02758e-06 0.000693178 -1.05754e-08)
(-3.079e-06 0.000693362 -3.12979e-08)
(-3.12698e-06 0.000693594 -3.31032e-08)
(-3.16335e-06 0.000693879 -5.49092e-08)
(-3.19384e-06 0.000694225 -5.69052e-08)
(-3.20728e-06 0.00069463 -8.11523e-08)
(-3.21045e-06 0.000695104 -8.56137e-08)
(-3.19042e-06 0.000695649 -1.14664e-07)
(-3.15217e-06 0.000696283 -1.24929e-07)
(-3.07912e-06 0.000697025 -1.62158e-07)
(-2.97848e-06 0.000697907 -1.79826e-07)
(-2.82802e-06 0.000698967 -2.26501e-07)
(-2.63761e-06 0.000700243 -2.50032e-07)
(-2.37911e-06 0.000701761 -3.05578e-07)
(-2.06782e-06 0.000703558 -3.32266e-07)
(-1.68187e-06 0.00070614 -3.78367e-07)
(-1.23605e-06 0.000711401 -4.00029e-07)
(-7.38416e-07 0.000725603 -4.35138e-07)
(-1.4918e-07 0.000761741 -4.96986e-07)
(5.70568e-07 0.000830107 -7.01138e-07)
(1.32307e-06 0.000932536 -1.00709e-06)
(2.11388e-06 0.0010754 -1.42221e-06)
(2.91239e-06 0.00126542 -1.72102e-06)
(4.86679e-06 0.00151629 -9.28042e-07)
(8.46121e-06 0.00189653 1.95754e-06)
(1.528e-05 0.00259919 7.23012e-06)
(3.04318e-05 0.00363891 1.7787e-05)
(4.09838e-05 0.0043642 5.43382e-05)
(6.71043e-05 0.00454704 1.92011e-05)
(0.000140373 0.00458761 -7.67367e-05)
(0.000269613 0.00481093 -0.000114271)
(0.00059698 0.00399107 -0.000237965)
(0.000619131 0.00738638 0.000985542)
(0.000391145 0.0157565 0.000448977)
(-0.00119291 0.0182275 -0.00063386)
(0.00924108 0.213389 0.0146272)
(-0.000369027 0.657187 -0.0100579)
(-0.0140868 0.523606 -0.025463)
(-0.0276679 0.577677 -0.0202265)
(0.00387263 0.550122 0.0292025)
(-0.0118814 0.541013 -0.00205946)
(-0.0232665 0.545491 -0.0152067)
(-0.016578 0.562868 -0.0261914)
(0.00247874 0.580829 -0.00631783)
(0.00491542 0.558055 0.00805123)
(0.00519762 0.542823 0.00625527)
(0.00680948 0.541387 0.000600975)
(0.0113074 0.540904 0.00159662)
(0.0103648 0.539603 0.00148772)
(0.00463887 0.537891 -0.0019187)
(0.0022221 0.539737 -0.00276992)
(0.00374512 0.539006 0.00148186)
(0.00381274 0.536019 0.00249558)
(0.00245209 0.534171 -0.000384175)
(0.00581197 0.531127 -0.00286706)
(0.00389 0.528242 -0.00430903)
(-0.000793653 0.525026 -0.00777972)
(0.000505234 0.524481 -0.0106951)
(-0.00439687 0.525807 -0.0191115)
(-0.00414086 0.542438 -0.0256613)
(-0.00315332 0.54723 -0.0145244)
(-0.0213866 0.546815 -0.012612)
(-0.0471359 0.548565 -0.00620887)
(-0.0230936 0.535638 0.0147496)
(-0.0254247 0.52092 0.00678341)
(-0.0434539 0.511724 -0.0178615)
(-0.0373694 0.510992 -0.00709884)
(-0.0361468 0.508207 0.0136331)
(-0.0330045 0.483831 0.0115387)
(-0.0317969 0.450167 -0.00292768)
(-0.0216468 0.3675 0.00627938)
(-0.00179219 0.186773 0.00112774)
(3.66773e-06 0.000290742 1.58379e-06)
(6.14241e-06 0.000301933 2.02933e-06)
(5.42246e-06 0.000323221 8.77515e-07)
(5.2827e-06 0.000360692 5.84671e-07)
(4.76089e-06 0.000415263 2.16685e-07)
(4.24829e-06 0.000472285 5.15852e-08)
(3.81065e-06 0.00052791 2.52577e-07)
(3.35706e-06 0.000584134 1.16147e-07)
(2.22917e-06 0.000631209 7.19608e-08)
(1.49723e-06 0.000662031 4.90442e-08)
(7.20053e-07 0.000679011 3.32891e-08)
(9.57498e-08 0.000687932 5.011e-08)
(-4.85492e-07 0.000691884 5.98059e-08)
(-1.02695e-06 0.000693067 8.53312e-08)
(-1.48408e-06 0.000693189 9.92468e-08)
(-1.85686e-06 0.000693164 1.24564e-07)
(-2.14766e-06 0.00069308 1.30663e-07)
(-2.38046e-06 0.000692919 1.44701e-07)
(-2.56362e-06 0.000692792 1.44923e-07)
(-2.7207e-06 0.000692732 1.51826e-07)
(-2.84545e-06 0.000692738 1.42735e-07)
(-2.95603e-06 0.000692801 1.38691e-07)
(-3.04292e-06 0.000692908 1.20392e-07)
(-3.12248e-06 0.000693055 1.10754e-07)
(-3.18228e-06 0.000693239 8.899e-08)
(-3.23865e-06 0.000693461 7.83112e-08)
(-3.27983e-06 0.000693726 5.62898e-08)
(-3.31857e-06 0.00069404 4.6351e-08)
(-3.33463e-06 0.000694407 2.42366e-08)
(-3.34018e-06 0.000694833 1.35519e-08)
(-3.31602e-06 0.000695322 -1.11212e-08)
(-3.27722e-06 0.000695889 -2.67979e-08)
(-3.20322e-06 0.000696553 -6.1968e-08)
(-3.10839e-06 0.000697343 -9.03448e-08)
(-2.96457e-06 0.000698292 -1.36974e-07)
(-2.78785e-06 0.000699438 -1.7505e-07)
(-2.54554e-06 0.000700803 -2.31581e-07)
(-2.2562e-06 0.000702406 -2.83804e-07)
(-1.90288e-06 0.000704297 -3.52832e-07)
(-1.50963e-06 0.000706716 -4.17509e-07)
(-1.01954e-06 0.000710837 -4.90745e-07)
(-4.73456e-07 0.000722606 -5.7661e-07)
(3.07684e-08 0.000756327 -7.08699e-07)
(2.54059e-07 0.000822611 -1.06179e-06)
(2.67244e-07 0.000922751 -1.5978e-06)
(6.53944e-08 0.00106297 -1.82568e-06)
(-2.22952e-07 0.00126284 -1.36324e-06)
(-6.40963e-07 0.00156489 3.2806e-08)
(1.09264e-06 0.00199228 1.90796e-06)
(3.79705e-06 0.00262435 8.10209e-06)
(-7.92003e-06 0.00356746 3.42802e-05)
(-3.44849e-05 0.00437473 5.88083e-05)
(-5.40494e-05 0.00478745 2.61372e-05)
(-2.67523e-05 0.00504021 -7.81154e-05)
(-4.23106e-05 0.00542441 -6.88249e-05)
(-0.000107228 0.0054909 -0.000187156)
(0.000274644 0.00656142 0.000496525)
(0.000198296 0.00967335 0.00119325)
(-4.86646e-06 0.014722 0.000709177)
(0.00236472 0.285517 -0.00226602)
(-0.0118813 0.666143 -0.0171933)
(-0.0013267 0.538569 0.0112014)
(-0.00123585 0.54954 0.00821575)
(-0.00223485 0.545221 0.00863744)
(-0.00812291 0.538403 -0.000672639)
(-0.00999888 0.548954 -0.0060268)
(-0.000731433 0.553095 -0.00327861)
(0.00373774 0.543397 -0.00250145)
(0.0102918 0.535966 -0.00109561)
(0.0030131 0.538772 -0.00440181)
(0.00254179 0.537547 -0.0039207)
(0.0096671 0.538388 0.000277628)
(0.0077272 0.539949 -0.00169955)
(0.00361481 0.541742 -0.00188364)
(0.00226374 0.540182 0.00253357)
(0.0010938 0.537067 0.00854222)
(-0.00159766 0.534764 0.00876527)
(-0.00304133 0.53269 0.00234873)
(0.0046578 0.531012 -0.0029847)
(0.0113059 0.531801 -0.00206692)
(0.0095104 0.529069 -0.00548155)
(0.00391917 0.532393 -0.00470952)
(0.000295618 0.530864 -0.00694122)
(-0.00535367 0.535563 -0.0162782)
(-0.0139435 0.545861 -0.0219525)
(-0.0300141 0.551031 -0.0221422)
(-0.046856 0.555051 -0.0272782)
(-0.0200288 0.541201 0.00158207)
(-0.0158703 0.528427 0.0132983)
(-0.0305748 0.530213 -0.00229629)
(-0.0436144 0.538042 -0.00363697)
(-0.0368035 0.541191 0.0198437)
(-0.0382876 0.503999 0.0184392)
(-0.0296653 0.357513 -0.0040169)
(-0.000284059 0.0551788 0.000664305)
(-0.00143601 0.210577 -0.0108789)
(5.67904e-06 0.000172514 4.10323e-06)
(7.11625e-06 0.000303662 2.70103e-06)
(5.67802e-06 0.000309641 9.82557e-07)
(5.34944e-06 0.000342904 6.21908e-07)
(4.78568e-06 0.000399118 1.86666e-07)
(4.19972e-06 0.000464782 -1.02031e-08)
(3.71409e-06 0.00052173 1.19992e-07)
(3.32348e-06 0.000566094 9.50253e-08)
(2.53434e-06 0.000613346 -7.27473e-08)