/*--------------------------------*- C++ -*----------------------------------*\
| =========                 |                                                 |
| \\      /  F ield         | OpenFOAM: The Open Source CFD Toolbox           |
|  \\    /   O peration     | Version:  2.3.0                                 |
|   \\  /    A nd           | Web:      www.OpenFOAM.org                      |
|    \\/     M anipulation  |                                                 |
\*---------------------------------------------------------------------------*/
FoamFile
{
    version     2.0;
    format      ascii;
    class       volScalarField;
    location    "38";
    object      alpha.water;
}
// * * * * * * * * * * * * * * * * * * * * * * * * * * * * * * * * * * * * * //

dimensions      [0 0 0 0 0 0 0];

internalField   nonuniform List<scalar> 
6144
(
3.9064e-06
4.5222e-06
5.12602e-06
5.77707e-06
6.4696e-06
7.43509e-06
8.2323e-06
9.00108e-06
9.66173e-06
9.93192e-06
9.97323e-06
9.98091e-06
9.98399e-06
9.98748e-06
9.98868e-06
9.98975e-06
9.98885e-06
9.98929e-06
9.98871e-06
9.98882e-06
9.98844e-06
9.98813e-06
9.98773e-06
9.98739e-06
9.98699e-06
9.98674e-06
9.98652e-06
9.98628e-06
9.98594e-06
9.98561e-06
9.98514e-06
9.98466e-06
9.98404e-06
9.98343e-06
9.98268e-06
9.98215e-06
9.98158e-06
9.98119e-06
9.98055e-06
9.98006e-06
9.97922e-06
9.97908e-06
9.97909e-06
9.98485e-06
1.01382e-05
1.09718e-05
1.37652e-05
2.12795e-05
3.79034e-05
6.06691e-05
7.80584e-05
9.79145e-05
0.00010644
0.00011166
0.00011376
0.000117032
0.000117493
0.000127333
0.00131069
0.0622574
0.96905
0.999827
0.999999
1
0.999999
0.999999
0.999999
0.999999
0.999999
0.999999
0.999999
0.999999
0.999999
0.999999
0.999999
0.999999
0.999999
0.999999
0.999999
0.999999
0.999999
0.999999
0.999999
0.999999
0.999999
0.999999
0.999999
0.999999
0.999999
0.999999
0.999999
0.999999
0.999999
1
1
1
3.61421e-06
4.32021e-06
5.43313e-06
6.11028e-06
6.99928e-06
7.77079e-06
8.3879e-06
9.02869e-06
9.65352e-06
9.92097e-06
9.97079e-06
9.98128e-06
9.98651e-06
9.99334e-06
9.99674e-06
9.99814e-06
9.99741e-06
9.99757e-06
9.9969e-06
9.99689e-06
9.99624e-06
9.9957e-06
9.99518e-06
9.9948e-06
9.9945e-06
9.99438e-06
9.9944e-06
9.99424e-06
9.99409e-06
9.99395e-06
9.99378e-06
9.99359e-06
9.99338e-06
9.9931e-06
9.99273e-06
9.99228e-06
9.99169e-06
9.99099e-06
9.98999e-06
9.98931e-06
9.98844e-06
9.98897e-06
9.99334e-06
1.00373e-05
1.03281e-05
1.11814e-05
1.345e-05
2.26215e-05
4.1168e-05
6.01621e-05
9.39197e-05
0.000113118
0.00011676
0.00011853
0.000118241
0.000118556
0.000117155
0.000125898
0.000683461
0.0424087
0.980663
0.999943
1
0.999999
0.999999
0.999999
0.999999
0.999999
1
1
1
1
0.999999
0.999999
0.999999
0.999999
0.999999
0.999999
0.999999
0.999999
0.999999
0.999999
0.999999
0.999999
0.999999
0.999999
0.999999
0.999999
0.999999
0.999999
0.999999
0.999999
0.999999
0.999999
1
1
3.52086e-06
4.00955e-06
5.19554e-06
5.97963e-06
7.22969e-06
7.90902e-06
8.46291e-06
9.02535e-06
9.48449e-06
9.77031e-06
9.88585e-06
9.93854e-06
9.96908e-06
9.98617e-06
9.99379e-06
9.99714e-06
9.99748e-06
9.99774e-06
9.99736e-06
9.99732e-06
9.99673e-06
9.99631e-06
9.99584e-06
9.99545e-06
9.99509e-06
9.99485e-06
9.99467e-06
9.99447e-06
9.99427e-06
9.99407e-06
9.99382e-06
9.99354e-06
9.99303e-06
9.9924e-06
9.99155e-06
9.99062e-06
9.98953e-06
9.9885e-06
9.98718e-06
9.98721e-06
9.98853e-06
9.99296e-06
1.00141e-05
1.01316e-05
1.05991e-05
1.19688e-05
1.41538e-05
2.08124e-05
4.03246e-05
8.34551e-05
0.000114335
0.000120402
0.000119674
0.000119714
0.000119093
0.000120247
0.000117176
0.000129154
0.000578861
0.0472487
0.98651
0.999977
1
0.999999
0.999999
0.999999
0.999999
0.999999
0.999999
0.999999
0.999999
0.999999
0.999999
0.999999
0.999999
0.999999
0.999999
0.999999
0.999999
0.999999
0.999999
0.999999
0.999999
0.999999
0.999999
0.999999
0.999999
0.999999
0.999999
0.999999
0.999999
0.999999
0.999999
0.999999
0.999999
1
3.50016e-06
3.67055e-06
4.80089e-06
5.57267e-06
7.05218e-06
7.91147e-06
8.40131e-06
8.92741e-06
9.37658e-06
9.67461e-06
9.82808e-06
9.91481e-06
9.95971e-06
9.98124e-06
9.9897e-06
9.99327e-06
9.99349e-06
9.99362e-06
9.99328e-06
9.99315e-06
9.99262e-06
9.9921e-06
9.99154e-06
9.99096e-06
9.99043e-06
9.98991e-06
9.98954e-06
9.98916e-06
9.98897e-06
9.98874e-06
9.98873e-06
9.98864e-06
9.98855e-06
9.98823e-06
9.98782e-06
9.98722e-06
9.98659e-06
9.98577e-06
9.98501e-06
9.98502e-06
9.98674e-06
9.99348e-06
1.00234e-05
1.0181e-05
1.07777e-05
1.22496e-05
1.44486e-05
1.97373e-05
4.06889e-05
0.000105048
0.000121315
0.000121456
0.000119721
0.000119745
0.000118069
0.000119497
0.000116244
0.000129504
0.000502666
0.0762635
0.989731
0.999989
0.999999
0.999999
0.999999
0.999999
0.999999
0.999999
0.999999
0.999999
0.999999
0.999999
0.999999
0.999999
0.999999
0.999999
0.999999
0.999999
0.999999
0.999999
0.999999
0.999999
0.999999
0.999999
0.999999
0.999999
0.999999
0.999999
0.999999
0.999999
0.999999
0.999999
0.999999
0.999999
0.999999
1
3.49972e-06
3.46835e-06
4.43447e-06
5.06522e-06
6.43015e-06
7.4439e-06
8.26412e-06
8.82822e-06
9.27636e-06
9.5934e-06
9.78277e-06
9.90098e-06
9.95896e-06
9.98405e-06
9.99301e-06
9.99647e-06
9.99692e-06
9.99722e-06
9.99711e-06
9.99716e-06
9.99684e-06
9.99652e-06
9.99598e-06
9.99548e-06
9.99484e-06
9.99432e-06
9.99372e-06
9.99322e-06
9.99264e-06
9.99214e-06
9.99155e-06
9.99101e-06
9.99039e-06
9.9898e-06
9.98907e-06
9.98836e-06
9.98755e-06
9.98679e-06
9.98594e-06
9.98651e-06
9.9872e-06
9.99402e-06
1.00235e-05
1.02986e-05
1.1179e-05
1.29259e-05
1.51667e-05
1.94673e-05
4.75506e-05
0.000115768
0.000122537
0.000122317
0.000121689
0.000120583
0.000115904
0.000120068
0.000119943
0.000130985
0.000221671
0.114582
0.985195
0.999923
0.999949
0.999964
0.999965
0.999963
0.999964
0.99997
0.999976
0.999981
0.999987
0.999992
0.999996
0.999997
0.999998
0.999999
0.999999
0.999999
0.999999
0.999999
0.999999
0.999999
0.999999
0.999999
0.999999
0.999998
0.999998
0.999999
0.999999
0.999999
0.999999
0.999999
0.999999
0.999999
0.999999
1
3.49725e-06
3.40553e-06
4.14388e-06
4.63135e-06
5.87555e-06
6.77078e-06
8.00428e-06
8.7077e-06
9.16446e-06
9.51564e-06
9.73506e-06
9.88357e-06
9.95236e-06
9.97864e-06
9.9867e-06
9.99022e-06
9.99048e-06
9.99062e-06
9.99053e-06
9.99053e-06
9.9905e-06
9.99042e-06
9.99023e-06
9.98997e-06
9.98958e-06
9.98923e-06
9.98886e-06
9.98846e-06
9.98808e-06
9.98762e-06
9.98715e-06
9.98661e-06
9.98607e-06
9.98546e-06
9.98481e-06
9.98412e-06
9.98338e-06
9.98261e-06
9.98251e-06
9.98256e-06
9.98283e-06
9.99114e-06
1.00891e-05
1.05086e-05
1.15793e-05
1.37607e-05
1.64893e-05
2.04626e-05
4.91638e-05
0.000116966
0.000123254
0.000124902
0.000127743
0.000132103
0.000135221
0.00013751
0.000149457
0.000209307
0.00020463
0.161206
0.969816
0.99898
0.998995
0.99916
0.999109
0.999052
0.999013
0.999021
0.999099
0.99918
0.999315
0.999433
0.999561
0.999665
0.999748
0.999806
0.999857
0.999897
0.999911
0.999876
0.99983
0.999754
0.999645
0.999538
0.999468
0.999457
0.999606
0.999762
0.999888
0.999962
0.999992
0.999999
0.999999
0.999999
1
1
3.57062e-06
3.46706e-06
3.99164e-06
4.31518e-06
5.52563e-06
6.3193e-06
7.51741e-06
8.52594e-06
9.08272e-06
9.45622e-06
9.69705e-06
9.87226e-06
9.95258e-06
9.98191e-06
9.99093e-06
9.995e-06
9.99509e-06
9.99523e-06
9.995e-06
9.99486e-06
9.99418e-06
9.9936e-06
9.99304e-06
9.99258e-06
9.99196e-06
9.99138e-06
9.99075e-06
9.99025e-06
9.98981e-06
9.98939e-06
9.9889e-06
9.98837e-06
9.9877e-06
9.98702e-06
9.98624e-06
9.98543e-06
9.98451e-06
9.98368e-06
9.98334e-06
9.98349e-06
9.98404e-06
9.9965e-06
1.01255e-05
1.05628e-05
1.17384e-05
1.42925e-05
1.82465e-05
2.3268e-05
3.09145e-05
9.85012e-05
0.000122244
0.000124751
0.000131442
0.000138612
0.000143435
0.000146854
0.000151587
0.000172303
0.000113897
0.204174
0.973002
0.995491
0.995413
0.995722
0.995486
0.995158
0.995015
0.994979
0.994964
0.995396
0.995677
0.996026
0.996367
0.996688
0.996939
0.997064
0.997065
0.997019
0.996975
0.996724
0.996143
0.995335
0.994389
0.993558
0.992953
0.992631
0.992525
0.993672
0.994909
0.996465
0.997945
0.999183
1
1
1
0.999999
3.62325e-06
3.71627e-06
3.99419e-06
4.19205e-06
5.35553e-06
6.17322e-06
7.11642e-06
8.30349e-06
8.99643e-06
9.41593e-06
9.67602e-06
9.8621e-06
9.94895e-06
9.97996e-06
9.98954e-06
9.9948e-06
9.99483e-06
9.9951e-06
9.99487e-06
9.9947e-06
9.9946e-06
9.9947e-06
9.99471e-06
9.99474e-06
9.99477e-06
9.99468e-06
9.99452e-06
9.99431e-06
9.99412e-06
9.99381e-06
9.99339e-06
9.99289e-06
9.99225e-06
9.99163e-06
9.991e-06
9.99042e-06
9.98979e-06
9.98924e-06
9.9889e-06
9.98963e-06
9.99142e-06
1.00041e-05
1.0104e-05
1.05334e-05
1.19183e-05
1.52387e-05
2.12956e-05
2.88274e-05
3.62958e-05
8.76166e-05
0.000123275
0.000126051
0.000133617
0.000138393
0.000139739
0.000135362
0.000128938
0.000124217
0.000113897
0.18227
0.962224
0.990497
0.989103
0.988696
0.988247
0.987797
0.987707
0.988575
0.989097
0.989862
0.990509
0.991238
0.991931
0.992424
0.992746
0.992846
0.992532
0.991662
0.990652
0.98931
0.987739
0.986196
0.98462
0.983009
0.981442
0.980144
0.979018
0.978211
0.977613
0.976987
0.976435
0.976249
0.977613
0.979042
0.981657
0.985503
3.40026e-06
3.88865e-06
4.16544e-06
4.22183e-06
5.30085e-06
6.16248e-06
6.95226e-06
8.05249e-06
8.9085e-06
9.36458e-06
9.63969e-06
9.84357e-06
9.93903e-06
9.97241e-06
9.9825e-06
9.98893e-06
9.98878e-06
9.98911e-06
9.98871e-06
9.98858e-06
9.98893e-06
9.98929e-06
9.98951e-06
9.9897e-06
9.98985e-06
9.98988e-06
9.98978e-06
9.98961e-06
9.98945e-06
9.98919e-06
9.98885e-06
9.98846e-06
9.98789e-06
9.98731e-06
9.98669e-06
9.98628e-06
9.98628e-06
9.98628e-06
9.98627e-06
9.98628e-06
9.98628e-06
9.99897e-06
1.01034e-05
1.06297e-05
1.23969e-05
1.64479e-05
2.44747e-05
3.4442e-05
4.14513e-05
7.1637e-05
0.000122823
0.000127403
0.000133212
0.000135788
0.000133285
0.000130377
0.000127305
0.000143292
0.000303053
0.11984
0.966573
0.991491
0.990998
0.991178
0.991552
0.992945
0.994506
0.995854
0.996743
0.997412
0.997761
0.997856
0.997848
0.997544
0.997105
0.996474
0.995797
0.995136
0.994522
0.994021
0.99373
0.993652
0.993714
0.994103
0.99444
0.994341
0.993867
0.993675
0.993529
0.993356
0.99329
0.994039
0.994765
0.996416
0.998288
0.999563
3.12557e-06
3.69809e-06
4.07328e-06
4.22889e-06
5.27409e-06
6.3027e-06
7.34954e-06
7.92007e-06
8.81439e-06
9.36986e-06
9.64068e-06
9.83161e-06
9.9312e-06
9.97367e-06
9.98618e-06
9.99424e-06
9.99466e-06
9.99497e-06
9.99427e-06
9.99411e-06
9.99415e-06
9.99419e-06
9.99408e-06
9.99393e-06
9.99372e-06
9.99341e-06
9.99303e-06
9.99264e-06
9.99228e-06
9.99185e-06
9.99135e-06
9.99076e-06
9.99e-06
9.98923e-06
9.9885e-06
9.98796e-06
9.98768e-06
9.98738e-06
9.98714e-06
9.98719e-06
9.98863e-06
1.00071e-05
1.01327e-05
1.09539e-05
1.35123e-05
1.84616e-05
2.82009e-05
3.80486e-05
4.40198e-05
5.60961e-05
0.000113879
0.000128866
0.00013143
0.000131917
0.000130655
0.000132366
0.000128377
0.000149973
0.000214815
0.069955
0.969305
0.995557
0.995897
0.996708
0.997469
0.998522
0.999207
0.999533
0.999647
0.999696
0.999719
0.999731
0.999735
0.999711
0.999661
0.999578
0.999487
0.999411
0.999365
0.999356
0.999415
0.999468
0.999575
0.999662
0.9997
0.999662
0.999657
0.999687
0.999721
0.999762
0.999812
0.999858
0.999905
0.999963
0.999993
1
2.70202e-06
3.31631e-06
3.65456e-06
3.97154e-06
5.24426e-06
6.36693e-06
7.5638e-06
7.97667e-06
8.81644e-06
9.4068e-06
9.66323e-06
9.82388e-06
9.91031e-06
9.95926e-06
9.97463e-06
9.98551e-06
9.98847e-06
9.99018e-06
9.99023e-06
9.99081e-06
9.99126e-06
9.99167e-06
9.99192e-06
9.99213e-06
9.99227e-06
9.99229e-06
9.99219e-06
9.99196e-06
9.99166e-06
9.99134e-06
9.99095e-06
9.99037e-06
9.98962e-06
9.98894e-06
9.98835e-06
9.988e-06
9.98786e-06
9.98783e-06
9.9878e-06
9.98793e-06
9.9898e-06
1.00088e-05
1.01852e-05
1.13447e-05
1.4469e-05
2.10207e-05
3.12212e-05
3.91783e-05
4.41754e-05
5.19859e-05
8.41204e-05
0.000121828
0.000130179
0.000132328
0.000130636
0.000135185
0.00013978
0.000154886
0.000217823
0.0395046
0.960494
0.999039
0.999357
0.999635
0.999804
0.999927
0.999976
0.999989
0.999993
0.999995
0.999996
0.999996
0.999996
0.999996
0.999996
0.999996
0.999996
0.999996
0.999996
0.999996
0.999996
0.999997
0.999999
0.999999
0.999999
0.999999
0.999999
0.999999
0.999999
0.999999
0.999999
0.999999
0.999999
1
1
1
2.54671e-06
2.97501e-06
3.1062e-06
3.34836e-06
4.65921e-06
6.04674e-06
7.55501e-06
8.29888e-06
8.88685e-06
9.48969e-06
9.71533e-06
9.82103e-06
9.87476e-06
9.92416e-06
9.95824e-06
9.98366e-06
9.9889e-06
9.99064e-06
9.99075e-06
9.99145e-06
9.99189e-06
9.9923e-06
9.99254e-06
9.99279e-06
9.99296e-06
9.99305e-06
9.99302e-06
9.99285e-06
9.99262e-06
9.99266e-06
9.99274e-06
9.99256e-06
9.99217e-06
9.9919e-06
9.99163e-06
9.99149e-06
9.99144e-06
9.99147e-06
9.99144e-06
9.99151e-06
9.99296e-06
1.00072e-05
1.01748e-05
1.12543e-05
1.46141e-05
2.17867e-05
3.14869e-05
3.93235e-05
4.54347e-05
5.3524e-05
6.64944e-05
9.66456e-05
0.000122281
0.00013193
0.000134494
0.000145298
0.000146519
0.000155879
0.00021628
0.0203666
0.929598
0.999614
0.99998
0.999991
0.999997
0.999999
0.999999
0.999999
0.999999
0.999999
0.999999
0.999999
0.999999
0.999999
0.999999
0.999999
0.999999
0.999999
0.999999
0.999999
0.999999
0.999999
0.999999
0.999999
0.999999
0.999999
0.999999
0.999999
0.999999
0.999999
0.999999
0.999999
0.999999
0.999999
1
1
2.37719e-06
2.7571e-06
2.77346e-06
2.87247e-06
3.83207e-06
5.22109e-06
7.16749e-06
8.65272e-06
9.01271e-06
9.54612e-06
9.745e-06
9.84703e-06
9.89396e-06
9.9366e-06
9.97629e-06
1e-05
9.99863e-06
9.99655e-06
9.99556e-06
9.9958e-06
9.996e-06
9.99619e-06
9.99629e-06
9.99636e-06
9.99638e-06
9.99626e-06
9.99602e-06
9.99567e-06
9.99534e-06
9.99521e-06
9.99512e-06
9.99471e-06
9.99406e-06
9.99352e-06
9.99303e-06
9.99262e-06
9.99226e-06
9.99205e-06
9.9919e-06
9.99219e-06
9.99396e-06
1.00091e-05
1.01483e-05
1.09833e-05
1.39037e-05
2.08151e-05
3.07051e-05
3.96972e-05
4.85062e-05
5.88705e-05
6.91889e-05
8.23386e-05
0.000104977
0.000123505
0.000131735
0.000143948
0.000146513
0.000156739
0.000282262
0.0166553
0.924451
0.999519
0.999999
0.999999
0.999999
0.999999
0.999999
0.999999
0.999999
0.999999
0.999999
0.999999
0.999999
0.999999
0.999999
0.999999
0.999999
0.999999
0.999999
0.999999
0.999999
0.999999
0.999999
0.999999
0.999999
0.999999
0.999999
0.999999
0.999999
0.999999
0.999999
0.999999
0.999999
0.999999
1
1
2.29712e-06
2.68738e-06
2.64996e-06
2.77359e-06
3.26515e-06
4.4801e-06
6.49672e-06
8.54228e-06
9.18885e-06
9.59785e-06
9.75532e-06
9.84804e-06
9.88285e-06
9.927e-06
9.97396e-06
1.00046e-05
1.0005e-05
1.00032e-05
1.00013e-05
1.00009e-05
1.00008e-05
1.00007e-05
1.00006e-05
1.00004e-05
1.00002e-05
9.99982e-06
9.99927e-06
9.99867e-06
9.99812e-06
9.9977e-06
9.99733e-06
9.99671e-06
9.99574e-06
9.99497e-06
9.99441e-06
9.9939e-06
9.99353e-06
9.99339e-06
9.99345e-06
9.99429e-06
9.99676e-06
1.00106e-05
1.01117e-05
1.07072e-05
1.30455e-05
1.91264e-05
2.88201e-05
3.91434e-05
5.07009e-05
6.48331e-05
7.7563e-05
8.74607e-05
9.45327e-05
0.00011003
0.000123216
0.000139606
0.000142214
0.0001501
0.00034609
0.0250718
0.910873
0.999126
0.999998
0.999999
0.999999
0.999999
0.999999
0.999999
0.999999
0.999999
0.999999
0.999999
0.999999
0.999999
0.999999
0.999999
0.999999
0.999999
0.999999
0.999999
0.999999
0.999999
0.999999
0.999999
0.999999
0.999999
0.999999
0.999999
0.999999
0.999999
0.999999
0.999999
0.999999
0.999999
0.999999
1
2.38694e-06
3.21029e-06
3.27258e-06
3.35464e-06
3.16405e-06
4.18775e-06
5.793e-06
8.20309e-06
9.36347e-06
9.6311e-06
9.74961e-06
9.8174e-06
9.84967e-06
9.90001e-06
9.96219e-06
1.00008e-05
1.00035e-05
1.00019e-05
9.99993e-06
9.99936e-06
9.99916e-06
9.99905e-06
9.9989e-06
9.99866e-06
9.99839e-06
9.99804e-06
9.99754e-06
9.99698e-06
9.99648e-06
9.99608e-06
9.99574e-06
9.9952e-06
9.99456e-06
9.99395e-06
9.99345e-06
9.99302e-06
9.99273e-06
9.99261e-06
9.99264e-06
9.99353e-06
9.99581e-06
1.0007e-05
1.00794e-05
1.0544e-05
1.24277e-05
1.74838e-05
2.63235e-05
3.725e-05
4.95454e-05
6.9877e-05
8.58235e-05
9.05518e-05
9.38426e-05
0.000100575
0.000113712
0.000129451
0.000128814
0.000132639
0.000329908
0.0396838
0.901474
0.998915
0.999997
0.999999
0.999999
0.999999
0.999999
0.999999
0.999999
0.999999
0.999999
0.999999
0.999999
0.999999
0.999999
0.999999
0.999999
0.999999
0.999999
0.999999
0.999999
0.999999
0.999999
0.999999
0.999999
0.999999
0.999999
0.999999
0.999999
0.999999
0.999999
0.999999
0.999999
0.999999
0.999999
1
2.04197e-06
2.02413e-06
2.44702e-06
4.10497e-06
4.21662e-06
4.30556e-06
5.76347e-06
7.99269e-06
9.43032e-06
9.65022e-06
9.72304e-06
9.77689e-06
9.81896e-06
9.88155e-06
9.96705e-06
1.0009e-05
1.0009e-05
1.0009e-05
1.00079e-05
1.00069e-05
1.00064e-05
1.00061e-05
1.00059e-05
1.00056e-05
1.00054e-05
1.0005e-05
1.00046e-05
1.00041e-05
1.00036e-05
1.00032e-05
1.00029e-05
1.00024e-05
1.00019e-05
1.00013e-05
1.00009e-05
1.00004e-05
1.00001e-05
9.99993e-06
1e-05
1.00012e-05
1.00037e-05
1.00128e-05
1.007e-05
1.0424e-05
1.18675e-05
1.60023e-05
2.3871e-05
3.43733e-05
4.66381e-05
6.78932e-05
9.2178e-05
9.71801e-05
9.72328e-05
0.00010291
0.000108049
0.00011736
0.000116437
0.000130153
0.000443345
0.0469001
0.925074
0.999468
0.999999
0.999999
0.999999
0.999999
0.999999
0.999999
0.999999
0.999999
0.999999
0.999999
0.999999
0.999999
0.999999
0.999999
0.999999
0.999999
0.999999
0.999999
0.999999
0.999999
0.999999
0.999999
0.999999
0.999999
0.999999
0.999999
0.999999
0.999999
0.999999
0.999999
0.999999
0.999999
0.999999
0.999999
3.30462e-06
4.39376e-06
5.16414e-06
5.81517e-06
6.46484e-06
7.50458e-06
8.46609e-06
9.20781e-06
9.70615e-06
9.85839e-06
9.90865e-06
9.9474e-06
9.97997e-06
1.00009e-05
1.00106e-05
1.00106e-05
1.00106e-05
1.00106e-05
1.00106e-05
1.00101e-05
1.00087e-05
1.00077e-05
1.0007e-05
1.00067e-05
1.00067e-05
1.00067e-05
1.00067e-05
1.00067e-05
1.00067e-05
1.00067e-05
1.00067e-05
1.00067e-05
1.00066e-05
1.00064e-05
1.00062e-05
1.0006e-05
1.00057e-05
1.00054e-05
1.00049e-05
1.00055e-05
1.00073e-05
1.00116e-05
1.00273e-05
1.00711e-05
1.02752e-05
1.10398e-05
1.38398e-05
2.01208e-05
3.40581e-05
6.09242e-05
7.84405e-05
0.000102373
0.000110851
0.000116391
0.000118029
0.000120465
0.00011889
0.000146734
0.000773761
0.0457705
0.958134
0.999808
0.999999
1
1
0.999999
0.999999
0.999999
0.999999
0.999999
0.999999
0.999999
0.999999
0.999999
0.999999
0.999999
0.999999
0.999999
0.999999
0.999999
0.999999
0.999999
0.999999
0.999999
0.999999
0.999999
0.999999
0.999999
0.999999
0.999999
0.999999
0.999999
0.999999
1
1
1
2.68593e-06
4.11728e-06
5.89262e-06
6.53596e-06
7.20354e-06
7.98779e-06
8.67676e-06
9.12199e-06
9.42624e-06
9.61116e-06
9.75854e-06
9.8727e-06
9.94487e-06
9.98162e-06
9.99859e-06
1.00071e-05
1.00077e-05
1.00081e-05
1.00077e-05
1.00078e-05
1.00077e-05
1.00077e-05
1.00074e-05
1.0007e-05
1.00066e-05
1.0006e-05
1.00054e-05
1.00051e-05
1.00047e-05
1.00042e-05
1.00038e-05
1.00034e-05
1.00029e-05
1.00022e-05
1.00015e-05
1.00007e-05
9.99999e-06
9.99958e-06
9.99945e-06
1.00023e-05
1.00091e-05
1.0024e-05
1.00894e-05
1.03276e-05
1.09333e-05
1.20399e-05
1.39737e-05
2.05883e-05
3.73083e-05
5.59694e-05
9.09443e-05
0.000116231
0.000120169
0.000121351
0.000120831
0.000121707
0.000118646
0.000142774
0.000376171
0.0665006
0.982363
0.999991
1
0.999999
0.999999
0.999999
0.999999
1
1
1
1
0.999999
0.999999
0.999999
0.999999
0.999999
0.999999
0.999999
0.999999
0.999999
0.999999
0.999999
0.999999
0.999999
0.999999
0.999999
0.999999
0.999999
0.999999
0.999999
0.999999
0.999999
0.999999
0.999999
1
1
2.45324e-06
3.52002e-06
5.75895e-06
6.59976e-06
7.18184e-06
7.62567e-06
8.24997e-06
8.76544e-06
9.18384e-06
9.46949e-06
9.67777e-06
9.84092e-06
9.93142e-06
9.97433e-06
9.99343e-06
1.0004e-05
1.00047e-05
1.0005e-05
1.00048e-05
1.00046e-05
1.00042e-05
1.00039e-05
1.00034e-05
1.0003e-05
1.00026e-05
1.00022e-05
1.00018e-05
1.00014e-05
1.0001e-05
1.00006e-05
1.00002e-05
9.99974e-06
9.99913e-06
9.99836e-06
9.99747e-06
9.99667e-06
9.996e-06
9.9956e-06
9.99548e-06
9.99839e-06
1.00063e-05
1.00253e-05
1.00978e-05
1.04135e-05
1.12935e-05
1.27821e-05
1.59229e-05
2.09203e-05
3.61272e-05
7.87442e-05
0.000118141
0.000122666
0.000121538
0.000121345
0.000120267
0.000121717
0.000117855
0.000159768
0.000428055
0.0811148
0.971513
1
1
0.999999
0.999999
0.999999
0.999999
0.999999
0.999999
0.999999
0.999999
0.999999
0.999999
0.999999
0.999999
0.999999
0.999999
0.999999
0.999999
0.999999
0.999999
0.999999
0.999999
0.999999
0.999999
0.999999
0.999999
0.999999
0.999999
0.999999
0.999999
0.999999
0.999999
0.999999
0.999999
1
2.31813e-06
2.81321e-06
4.83019e-06
5.79395e-06
6.47219e-06
7.04877e-06
7.82314e-06
8.50234e-06
9.05626e-06
9.41953e-06
9.65336e-06
9.83274e-06
9.92713e-06
9.97057e-06
9.98988e-06
1.00016e-05
1.00021e-05
1.00022e-05
1.00018e-05
1.00015e-05
1.0001e-05
1.00006e-05
1.00001e-05
9.99964e-06
9.99919e-06
9.9988e-06
9.99843e-06
9.99807e-06
9.99772e-06
9.99738e-06
9.99699e-06
9.99652e-06
9.99593e-06
9.99517e-06
9.99431e-06
9.99359e-06
9.99303e-06
9.99266e-06
9.99249e-06
9.99498e-06
1.00015e-05
1.00177e-05
1.00678e-05
1.04222e-05
1.1725e-05
1.4409e-05
1.94321e-05
2.36879e-05
3.86244e-05
0.000108678
0.000124826
0.000122664
0.000121064
0.000121531
0.00011722
0.000120439
0.000116113
0.000158496
0.000365447
0.113247
0.968149
1
0.999998
0.999999
0.999998
0.999999
0.999999
0.999999
0.999999
0.999998
0.999999
0.999999
0.999999
0.999999
0.999999
0.999999
0.999999
0.999999
0.999999
0.999999
0.999999
0.999999
0.999999
0.999999
0.999999
0.999999
0.999999
0.999999
0.999999
0.999999
0.999999
0.999999
0.999999
0.999999
0.999999
1
2.21958e-06
2.28333e-06
3.99053e-06
5.17176e-06
5.97068e-06
6.64201e-06
7.54773e-06
8.34176e-06
8.98589e-06
9.39732e-06
9.64421e-06
9.83048e-06
9.92567e-06
9.96852e-06
9.98797e-06
1.00004e-05
1.00008e-05
1.00008e-05
1.00004e-05
1.00001e-05
9.9995e-06
9.999e-06
9.99849e-06
9.99803e-06
9.99757e-06
9.99719e-06
9.99684e-06
9.9965e-06
9.99618e-06
9.99586e-06
9.99548e-06
9.99503e-06
9.99444e-06
9.9937e-06
9.99289e-06
9.9922e-06
9.99167e-06
9.9913e-06
9.99111e-06
9.99333e-06
9.99922e-06
1.00132e-05
1.00503e-05
1.03892e-05
1.20619e-05
1.62736e-05
2.3532e-05
2.78552e-05
4.6495e-05
0.000120309
0.00012514
0.000124388
0.000126239
0.000132177
0.000138754
0.000146873
0.000157189
0.000188654
0.00023933
0.180113
0.996325
0.999702
0.999756
0.999816
0.999797
0.999784
0.999775
0.999756
0.999747
0.999762
0.999831
0.999882
0.999931
0.999966
0.999985
0.999994
0.999998
0.999998
0.999998
0.999999
0.999999
0.999998
0.999998
0.999998
0.999999
0.999999
0.999999
0.999999
0.999999
0.999999
0.999999
0.999999
0.999999
0.999999
0.999999
1
2.14773e-06
1.96491e-06
3.21451e-06
4.52964e-06
5.5612e-06
6.37685e-06
7.41215e-06
8.2647e-06
8.95727e-06
9.39086e-06
9.64255e-06
9.83242e-06
9.9253e-06
9.96715e-06
9.98658e-06
9.99944e-06
9.99972e-06
9.99968e-06
9.99922e-06
9.99881e-06
9.99823e-06
9.99769e-06
9.99716e-06
9.99669e-06
9.99624e-06
9.99589e-06
9.99558e-06
9.99529e-06
9.99505e-06
9.99479e-06
9.99449e-06
9.99411e-06
9.99356e-06
9.99289e-06
9.99215e-06
9.99152e-06
9.99105e-06
9.99071e-06
9.99046e-06
9.9923e-06
9.9975e-06
1.00103e-05
1.0044e-05
1.03725e-05
1.23887e-05
1.79888e-05
2.68536e-05
3.2179e-05
5.06253e-05
0.000122466
0.000127758
0.000127791
0.000131623
0.000138584
0.000143452
0.00014733
0.000149517
0.000150432
0.000113897
0.419592
0.989953
0.993499
0.993612
0.9937
0.993593
0.99314
0.992811
0.992643
0.993122
0.993952
0.994662
0.995474
0.99627
0.997095
0.997871
0.998552
0.999085
0.999439
0.999623
0.999675
0.999668
0.999642
0.999575
0.999536
0.99961
0.999734
0.999849
0.999935
0.999978
0.999993
0.999999
1
1
0.999999
1
1
2.13044e-06
1.76612e-06
2.60956e-06
3.75619e-06
5.19247e-06
6.19598e-06
7.35565e-06
8.23697e-06
8.95044e-06
9.39279e-06
9.6477e-06
9.83459e-06
9.92645e-06
9.96643e-06
9.98594e-06
9.99897e-06
9.99918e-06
9.99912e-06
9.99867e-06
9.99832e-06
9.99779e-06
9.99725e-06
9.99673e-06
9.99628e-06
9.99587e-06
9.99554e-06
9.99527e-06
9.99501e-06
9.99481e-06
9.9946e-06
9.99435e-06
9.99399e-06
9.99348e-06
9.99285e-06
9.99216e-06
9.9916e-06
9.9912e-06
9.9909e-06
9.99066e-06
9.99232e-06
9.99714e-06
1.00092e-05
1.00437e-05
1.04319e-05
1.27228e-05
1.90587e-05
2.86653e-05
3.60832e-05
4.1318e-05
0.000100279
0.000128993
0.000132268
0.000133643
0.000134392
0.000134213
0.000130782
0.000127862
0.000127512
0.000113897
0.695154
0.975392
0.975421
0.975031
0.974926
0.975084
0.974188
0.973684
0.973539
0.975321
0.975776
0.976002
0.976104
0.97632
0.97713
0.978398
0.979828
0.981237
0.982339
0.982946
0.983177
0.983381
0.983902
0.984854
0.985788
0.986794
0.988246
0.989787
0.99222
0.994755
0.996606
0.998496
0.999529
0.999292
0.999048
0.998624
0.998214
2.16068e-06
1.64943e-06
2.16045e-06
3.02523e-06
4.59013e-06
5.98087e-06
7.32693e-06
8.22847e-06
8.95326e-06
9.39843e-06
9.65328e-06
9.83889e-06
9.92812e-06
9.96629e-06
9.98564e-06
9.99844e-06
9.99863e-06
9.99875e-06
9.99849e-06
9.99832e-06
9.99813e-06
9.99784e-06
9.99745e-06
9.99712e-06
9.99682e-06
9.99655e-06
9.99626e-06
9.99597e-06
9.99571e-06
9.99545e-06
9.99514e-06
9.99472e-06
9.99414e-06
9.99352e-06
9.99287e-06
9.99233e-06
9.99194e-06
9.99166e-06
9.99149e-06
9.99344e-06
9.99853e-06
1.0011e-05
1.00597e-05
1.05589e-05
1.30495e-05
1.96632e-05
2.92628e-05
3.742e-05
4.50344e-05
7.26566e-05
0.000122777
0.000130061
0.00013173
0.00013217
0.000129066
0.00012538
0.000122915
0.00012211
0.000113897
0.489534
0.963446
0.968766
0.968632
0.968643
0.967519
0.966964
0.966635
0.966382
0.966754
0.967119
0.96573
0.963616
0.961826
0.960348
0.959045
0.957491
0.955521
0.953282
0.950791
0.948402
0.946114
0.944072
0.94188
0.939057
0.936048
0.93304
0.93049
0.927549
0.92369
0.919732
0.914506
0.906242
0.893796
0.871716
0.820311
0.624703
2.14161e-06
1.57068e-06
1.83742e-06
2.43966e-06
3.84438e-06
5.60244e-06
7.25713e-06
8.22584e-06
8.96036e-06
9.40962e-06
9.66342e-06
9.84628e-06
9.9331e-06
9.96857e-06
9.98793e-06
1.00004e-05
1.00003e-05
1.00003e-05
9.99995e-06
9.99977e-06
9.99941e-06
9.99908e-06
9.99873e-06
9.99841e-06
9.99812e-06
9.99786e-06
9.99761e-06
9.99735e-06
9.99714e-06
9.99692e-06
9.99665e-06
9.99628e-06
9.99576e-06
9.99516e-06
9.99451e-06
9.99396e-06
9.99352e-06
9.9932e-06
9.99296e-06
9.99514e-06
1.00008e-05
1.00149e-05
1.00804e-05
1.0666e-05
1.33407e-05
1.99625e-05
2.91055e-05
3.76899e-05
4.44623e-05
5.3453e-05
0.000103501
0.000126845
0.000129381
0.000131143
0.000130171
0.000133263
0.000128202
0.000126335
0.000113897
0.17036
0.970157
0.989768
0.989905
0.990124
0.990821
0.992646
0.994846
0.996707
0.99762
0.997812
0.997698
0.99751
0.997118
0.996587
0.995878
0.994996
0.993878
0.992475
0.990876
0.98941
0.988266
0.987149
0.985581
0.983898
0.981318
0.978508
0.976323
0.974356
0.973054
0.972695
0.972861
0.972464
0.972133
0.974646
0.977219
0.980529
2.03794e-06
1.53187e-06
1.62448e-06
2.06e-06
3.11501e-06
5.08331e-06
7.1742e-06
8.24048e-06
8.9778e-06
9.42302e-06
9.67394e-06
9.85769e-06
9.93948e-06
9.97003e-06
9.98957e-06
1.00019e-05
1.00018e-05
1.00018e-05
1.00016e-05
1.00015e-05
1.00013e-05
1.00011e-05
1.00007e-05
1.00004e-05
1.00001e-05
9.99979e-06
9.9995e-06
9.9992e-06
9.99891e-06
9.99864e-06
9.99833e-06
9.9979e-06
9.99728e-06
9.99656e-06
9.99581e-06
9.99516e-06
9.9946e-06
9.99417e-06
9.99388e-06
9.99614e-06
1.0002e-05
1.0017e-05
1.00918e-05
1.07035e-05
1.34637e-05
2.00635e-05
2.89505e-05
3.80065e-05
4.71073e-05
5.58117e-05
6.35683e-05
0.000114959
0.000128219
0.000131043
0.000130168
0.000135993
0.000129836
0.000134985
0.000113897
0.109687
0.984424
0.998407
0.99855
0.998851
0.999126
0.999492
0.999736
0.999863
0.999894
0.999898
0.999879
0.99986
0.99984
0.999809
0.999765
0.999703
0.999613
0.999505
0.99939
0.999287
0.999199
0.999121
0.999003
0.998883
0.998683
0.998491
0.998396
0.99863
0.999013
0.999147
0.999283
0.999425
0.999597
0.999785
0.999915
0.999971
1.93015e-06
1.52088e-06
1.48682e-06
1.80255e-06
2.70966e-06
4.57036e-06
6.92657e-06
8.24349e-06
9.00717e-06
9.43759e-06
9.68807e-06
9.86951e-06
9.94404e-06
9.96925e-06
9.98976e-06
1.0002e-05
1.0002e-05
1.0002e-05
1.0002e-05
1.0002e-05
1.00019e-05
1.00016e-05
1.00014e-05
1.00011e-05
1.00008e-05
1.00005e-05
1.00002e-05
9.99994e-06
9.99965e-06
9.99939e-06
9.9991e-06
9.99868e-06
9.99804e-06
9.99729e-06
9.99656e-06
9.99592e-06
9.99537e-06
9.99497e-06
9.99493e-06
9.99718e-06
1.0003e-05
1.00187e-05
1.00964e-05
1.06843e-05
1.34435e-05
2.01229e-05
2.88614e-05
3.75531e-05
4.72244e-05
6.00802e-05
7.06683e-05
8.91171e-05
0.000117772
0.000127754
0.000135924
0.000136126
0.000129546
0.000133864
0.000113897
0.0561759
0.978288
0.999856
0.999864
0.999941
0.999974
0.999989
0.999995
0.999998
0.999998
0.999998
0.999997
0.999996
0.999996
0.999995
0.999995
0.999994
0.999993
0.999991
0.99999
0.99999
0.99999
0.999988
0.999985
0.999984
0.999982
0.999982
0.999983
0.999991
0.999997
0.999998
0.999999
0.999999
0.999999
0.999999
0.999999
1
1.8748e-06
1.4945e-06
1.43556e-06
1.58008e-06
2.37522e-06
4.19063e-06
6.54201e-06
8.25341e-06
9.06674e-06
9.46208e-06
9.70724e-06
9.88209e-06
9.94669e-06
9.96616e-06
9.98635e-06
1.0002e-05
1.0002e-05
1.0002e-05
1.0002e-05
1.0002e-05
1.00017e-05
1.00015e-05
1.00012e-05
1.0001e-05
1.00007e-05
1.00005e-05
1.00002e-05
9.99997e-06
9.99968e-06
9.99938e-06
9.99908e-06
9.9986e-06
9.99788e-06
9.99698e-06
9.99611e-06
9.99547e-06
9.995e-06
9.99482e-06
9.995e-06
9.99727e-06
1.00032e-05
1.00194e-05
1.0097e-05
1.06292e-05
1.32203e-05
1.96749e-05
2.81189e-05
3.68504e-05
4.74825e-05
6.20917e-05
7.73469e-05
8.65348e-05
9.94202e-05
0.000114063
0.000125902
0.000130687
0.000127101
0.000130592
0.00012069
0.0227466
0.94267
0.999999
0.999986
0.999998
0.999999
0.999999
0.999999
0.999999
0.999999
0.999999
0.999999
0.999999
0.999999
0.999999
0.999999
0.999999
0.999999
0.999999
0.999999
0.999999
0.999999
0.999999
0.999999
0.999999
0.999999
0.999999
0.999999
0.999999
0.999999
0.999999
0.999999
0.999999
0.999999
0.999999
1
1
1.91881e-06
1.62976e-06
1.43641e-06
1.45916e-06
1.7258e-06
3.05055e-06
5.53766e-06
8.0697e-06
9.14971e-06
9.49389e-06
9.7262e-06
9.8884e-06
9.94338e-06
9.95449e-06
9.98355e-06
1.0002e-05
1.0002e-05
1.0002e-05
1.0002e-05
1.0002e-05
1.00018e-05
1.00016e-05
1.00014e-05
1.00012e-05
1.00009e-05
1.00007e-05
1.00004e-05
1.00001e-05
9.99979e-06
9.99946e-06
9.99909e-06
9.99839e-06
9.99731e-06
9.99605e-06
9.99511e-06
9.99435e-06
9.99385e-06
9.9935e-06
9.99339e-06
9.99531e-06
1.00015e-05
1.00178e-05
1.00844e-05
1.0545e-05
1.29338e-05
1.9321e-05
2.78627e-05
3.6343e-05
4.58509e-05
5.85368e-05
7.90363e-05
9.81705e-05
9.92318e-05