/*--------------------------------*- C++ -*----------------------------------*\
| =========                 |                                                 |
| \\      /  F ield         | OpenFOAM: The Open Source CFD Toolbox           |
|  \\    /   O peration     | Version:  2.3.0                                 |
|   \\  /    A nd           | Web:      www.OpenFOAM.org                      |
|    \\/     M anipulation  |                                                 |
\*---------------------------------------------------------------------------*/
FoamFile
{
    version     2.0;
    format      ascii;
    class       volScalarField;
    location    "38";
    object      alpha.airMean;
}
// * * * * * * * * * * * * * * * * * * * * * * * * * * * * * * * * * * * * * //

dimensions      [0 0 0 0 0 0 0];

internalField   nonuniform List<scalar> 
6144
(
0.999993
0.999993
0.999992
0.999992
0.999992
0.999991
0.999991
0.99999
0.99999
0.99999
0.99999
0.99999
0.99999
0.99999
0.99999
0.99999
0.99999
0.99999
0.99999
0.99999
0.99999
0.99999
0.99999
0.99999
0.99999
0.99999
0.99999
0.99999
0.99999
0.99999
0.99999
0.99999
0.99999
0.99999
0.99999
0.99999
0.99999
0.99999
0.99999
0.99999
0.99999
0.99999
0.99999
0.99999
0.99999
0.999989
0.999986
0.999979
0.999968
0.999953
0.999939
0.999927
0.999921
0.999915
0.999911
0.999904
0.999902
0.999896
0.998712
0.935548
0.036856
0.000242617
1.12026e-06
8.00099e-07
7.98356e-07
7.916e-07
7.92038e-07
7.86512e-07
7.87502e-07
7.83902e-07
7.83515e-07
7.80432e-07
7.77624e-07
7.74253e-07
7.71198e-07
7.68049e-07
7.66806e-07
7.65416e-07
7.62745e-07
7.56913e-07
7.48125e-07
7.38781e-07
7.30592e-07
7.22063e-07
7.09412e-07
6.89398e-07
6.70523e-07
6.54878e-07
6.34491e-07
6.04341e-07
5.71809e-07
5.44043e-07
5.06402e-07
4.67319e-07
4.3198e-07
4.14759e-07
0.999993
0.999993
0.999992
0.999992
0.999991
0.999991
0.999991
0.99999
0.99999
0.99999
0.99999
0.99999
0.99999
0.99999
0.99999
0.99999
0.99999
0.99999
0.99999
0.99999
0.99999
0.99999
0.99999
0.99999
0.99999
0.99999
0.99999
0.99999
0.99999
0.99999
0.99999
0.99999
0.99999
0.99999
0.99999
0.99999
0.99999
0.99999
0.99999
0.99999
0.99999
0.99999
0.99999
0.99999
0.99999
0.999989
0.999986
0.999979
0.999971
0.99996
0.999942
0.999926
0.999917
0.999909
0.999904
0.999897
0.999896
0.999886
0.999382
0.950138
0.0312014
0.00012984
8.68442e-07
8.36257e-07
8.28617e-07
8.25543e-07
8.24865e-07
8.22125e-07
8.21585e-07
8.11785e-07
8.08053e-07
8.00473e-07
7.9724e-07
7.93236e-07
7.90224e-07
7.87355e-07
7.8679e-07
7.85094e-07
7.79367e-07
7.70157e-07
7.58754e-07
7.467e-07
7.33387e-07
7.20809e-07
7.05499e-07
6.87803e-07
6.729e-07
6.62269e-07
6.50724e-07
6.31663e-07
6.07249e-07
5.73243e-07
5.34231e-07
5.01074e-07
4.64353e-07
4.27286e-07
0.999994
0.999993
0.999992
0.999992
0.999992
0.999991
0.999991
0.99999
0.99999
0.99999
0.99999
0.99999
0.99999
0.99999
0.99999
0.99999
0.99999
0.99999
0.99999
0.99999
0.99999
0.99999
0.99999
0.99999
0.99999
0.99999
0.99999
0.99999
0.99999
0.99999
0.99999
0.99999
0.99999
0.99999
0.99999
0.99999
0.99999
0.99999
0.99999
0.99999
0.99999
0.99999
0.99999
0.99999
0.99999
0.999989
0.999985
0.99998
0.999972
0.99996
0.999937
0.999918
0.999909
0.9999
0.999895
0.999889
0.999891
0.999881
0.999584
0.941148
0.0270102
8.3684e-05
1.65512e-06
1.67632e-06
1.64612e-06
1.59877e-06
1.42496e-06
1.2314e-06
1.05019e-06
9.23513e-07
8.68869e-07
8.43791e-07
8.31403e-07
8.20219e-07
8.17357e-07
8.12506e-07
8.08779e-07
8.02483e-07
7.9256e-07
7.81269e-07
7.69647e-07
7.54723e-07
7.37942e-07
7.19697e-07
7.03431e-07
6.89699e-07
6.80361e-07
6.76408e-07
6.69085e-07
6.53613e-07
6.341e-07
6.0066e-07
5.54744e-07
5.16591e-07
4.8356e-07
4.37108e-07
0.999994
0.999993
0.999993
0.999992
0.999992
0.999991
0.999991
0.99999
0.99999
0.99999
0.99999
0.99999
0.99999
0.99999
0.99999
0.99999
0.99999
0.99999
0.99999
0.99999
0.99999
0.99999
0.99999
0.99999
0.99999
0.99999
0.99999
0.99999
0.99999
0.99999
0.99999
0.99999
0.99999
0.99999
0.99999
0.99999
0.99999
0.99999
0.99999
0.99999
0.99999
0.99999
0.99999
0.99999
0.99999
0.999988
0.999985
0.99998
0.999971
0.999956
0.99993
0.999911
0.999901
0.999893
0.999889
0.999883
0.999886
0.999872
0.999686
0.917248
0.0223972
7.35476e-05
3.03522e-05
2.74842e-05
2.65461e-05
2.49786e-05
2.21952e-05
1.80674e-05
1.33725e-05
8.89433e-06
5.44892e-06
3.14729e-06
1.90385e-06
1.36252e-06
1.16545e-06
1.05983e-06
9.63466e-07
8.83191e-07
8.277e-07
7.96068e-07
7.85761e-07
7.75671e-07
7.63551e-07
7.4828e-07
7.41932e-07
7.43661e-07
7.37984e-07
7.31403e-07
7.16853e-07
6.88679e-07
6.64822e-07
6.31855e-07
5.79382e-07
5.33686e-07
4.98009e-07
4.46415e-07
0.999994
0.999994
0.999993
0.999993
0.999992
0.999992
0.999991
0.999991
0.99999
0.99999
0.99999
0.99999
0.99999
0.99999
0.99999
0.99999
0.99999
0.99999
0.99999
0.99999
0.99999
0.99999
0.99999
0.99999
0.99999
0.99999
0.99999
0.99999
0.99999
0.99999
0.99999
0.99999
0.99999
0.99999
0.99999
0.99999
0.99999
0.99999
0.99999
0.99999
0.99999
0.99999
0.99999
0.99999
0.999989
0.999988
0.999985
0.999979
0.999969
0.999951
0.999923
0.999904
0.999894
0.999887
0.999884
0.99988
0.999881
0.999866
0.999721
0.886515
0.0237765
0.000498691
0.000448567
0.000394709
0.000377979
0.000352008
0.0003194
0.000278241
0.000236884
0.000194767
0.000154418
0.000119192
9.02453e-05
6.89073e-05
5.49623e-05
4.57618e-05
3.90937e-05
3.38858e-05
2.97556e-05
2.65349e-05
2.43267e-05
2.28371e-05
2.17364e-05
2.00275e-05
1.90931e-05
1.816e-05
1.67232e-05
1.45342e-05
1.20007e-05
8.74931e-06
5.25543e-06
2.81526e-06
1.4251e-06
7.79842e-07
5.65693e-07
4.85761e-07
0.999994
0.999994
0.999993
0.999993
0.999992
0.999992
0.999991
0.999991
0.99999
0.99999
0.99999
0.99999
0.99999
0.99999
0.99999
0.99999
0.99999
0.99999
0.99999
0.99999
0.99999
0.99999
0.99999
0.99999
0.99999
0.99999
0.99999
0.99999
0.99999
0.99999
0.99999
0.99999
0.99999
0.99999
0.99999
0.99999
0.99999
0.99999
0.99999
0.99999
0.99999
0.99999
0.99999
0.99999
0.999989
0.999987
0.999984
0.999978
0.999967
0.999947
0.999919
0.999899
0.999891
0.999885
0.999883
0.999881
0.999884
0.999867
0.999762
0.843917
0.0235503
0.00261873
0.00267698
0.00253572
0.00250779
0.00239999
0.00228513
0.00214887
0.00201503
0.00187851
0.0017353
0.00159225
0.00144941
0.00131213
0.00118737
0.00107837
0.000987054
0.000909986
0.000842057
0.00077821
0.000710896
0.000642935
0.000574229
0.000514584
0.000475432
0.000456736
0.000443723
0.000422997
0.000384194
0.00032064
0.000242761
0.000165026
9.84113e-05
4.85598e-05
1.84671e-05
7.17515e-06
0.999994
0.999994
0.999994
0.999993
0.999993
0.999992
0.999992
0.999991
0.999991
0.99999
0.99999
0.99999
0.99999
0.99999
0.99999
0.99999
0.99999
0.99999
0.99999
0.99999
0.99999
0.99999
0.99999
0.99999
0.99999
0.99999
0.99999
0.99999
0.99999
0.99999
0.99999
0.99999
0.99999
0.99999
0.99999
0.99999
0.99999
0.99999
0.99999
0.99999
0.99999
0.99999
0.99999
0.99999
0.999989
0.999987
0.999984
0.999977
0.999965
0.999944
0.999915
0.999897
0.999889
0.999886
0.999885
0.999884
0.999887
0.999877
0.999827
0.795057
0.0256791
0.00690138
0.00723788
0.00712595
0.00705966
0.00692601
0.00678852
0.00665951
0.00653499
0.00639783
0.00626467
0.0061016
0.00594296
0.00576375
0.00557614
0.00536897
0.00516722
0.0049481
0.0047242
0.00447202
0.00420553
0.00392625
0.00365701
0.00341007
0.00319065
0.0029898
0.00281757
0.00264686
0.00244916
0.00224282
0.00200105
0.00172279
0.00140391
0.00103457
0.00063736
0.000335311
0.999994
0.999994
0.999994
0.999994
0.999993
0.999992
0.999992
0.999991
0.999991
0.99999
0.99999
0.99999
0.99999
0.99999
0.99999
0.99999
0.99999
0.99999
0.99999
0.99999
0.99999
0.99999
0.99999
0.99999
0.99999
0.99999
0.99999
0.99999
0.99999
0.99999
0.99999
0.99999
0.99999
0.99999
0.99999
0.99999
0.99999
0.99999
0.99999
0.99999
0.99999
0.99999
0.99999
0.99999
0.999989
0.999988
0.999984
0.999976
0.999961
0.99994
0.999913
0.999896
0.99989
0.999888
0.99989
0.99989
0.999892
0.99988
0.999809
0.779078
0.0281053
0.0106038
0.0112078
0.0112192
0.0111454
0.0110884
0.011045
0.0110557
0.0110757
0.011106
0.0111549
0.0111902
0.011209
0.0112063
0.0111928
0.0111647
0.0111189
0.0110417
0.0109339
0.0108356
0.0107758
0.0107833
0.0108794
0.0110756
0.0113386
0.011649
0.0119825
0.0123064
0.0126214
0.0129375
0.0131818
0.0133255
0.0132588
0.0127809
0.0114711
0.00942816
0.999995
0.999994
0.999994
0.999994
0.999993
0.999992
0.999992
0.999991
0.999991
0.999991
0.99999
0.99999
0.99999
0.99999
0.99999
0.99999
0.99999
0.99999
0.99999
0.99999
0.99999
0.99999
0.99999
0.99999
0.99999
0.99999
0.99999
0.99999
0.99999
0.99999
0.99999
0.99999
0.99999
0.99999
0.99999
0.99999
0.99999
0.99999
0.99999
0.99999
0.99999
0.99999
0.99999
0.99999
0.999989
0.999988
0.999984
0.999975
0.999961
0.999941
0.999917
0.9999
0.999893
0.999891
0.999892
0.999891
0.999895
0.999884
0.999801
0.842715
0.0265154
0.00607119
0.00591769
0.00533231
0.0050194
0.0047931
0.00467343
0.0045896
0.00454647
0.00452291
0.00452652
0.00453085
0.00453857
0.00454468
0.00455514
0.00456905
0.00458696
0.0046013
0.00460489
0.00460108
0.00460267
0.00459556
0.00458286
0.00455118
0.00449457
0.00442824
0.00436061
0.00429646
0.0042133
0.00409711
0.00394076
0.00366948
0.00322283
0.00257636
0.00165999
0.000865792
0.999995
0.999994
0.999994
0.999994
0.999993
0.999993
0.999992
0.999991
0.999991
0.999991
0.99999
0.99999
0.99999
0.99999
0.99999
0.99999
0.99999
0.99999
0.99999
0.99999
0.99999
0.99999
0.99999
0.99999
0.99999
0.99999
0.99999
0.99999
0.99999
0.99999
0.99999
0.99999
0.99999
0.99999
0.99999
0.99999
0.99999
0.99999
0.99999
0.99999
0.99999
0.99999
0.99999
0.99999
0.999989
0.999987
0.999983
0.999976
0.999965
0.999948
0.999924
0.999906
0.999897
0.999892
0.999892
0.999891
0.999897
0.999888
0.999862
0.904502
0.0218355
0.00161893
0.0013969
0.00108677
0.000975027
0.000904264
0.00088052
0.000858594
0.000851428
0.000844334
0.000839902
0.000831482
0.000823645
0.000815527
0.000809934
0.000807638
0.000813241
0.000828342
0.000865173
0.000916398
0.000976625
0.00104199
0.00109685
0.00113004
0.00114526
0.00115342
0.00115297
0.00114053
0.00110955
0.00103914
0.000919449
0.000744722
0.000533936
0.000312183
0.000138698
6.02678e-05
0.999995
0.999994
0.999994
0.999994
0.999993
0.999993
0.999992
0.999991
0.999991
0.99999
0.99999
0.99999
0.99999
0.99999
0.99999
0.99999
0.99999
0.99999
0.99999
0.99999
0.99999
0.99999
0.99999
0.99999
0.99999
0.99999
0.99999
0.99999
0.99999
0.99999
0.99999
0.99999
0.99999
0.99999
0.99999
0.99999
0.99999
0.99999
0.99999
0.99999
0.99999
0.99999
0.99999
0.99999
0.999989
0.999987
0.999984
0.999977
0.999967
0.999953
0.999934
0.999915
0.999905
0.999897
0.999895
0.999892
0.999898
0.999887
0.99987
0.944354
0.0236691
0.000206239
0.000121065
8.16176e-05
7.48695e-05
7.17269e-05
7.32613e-05
7.36572e-05
7.34344e-05
7.27946e-05
7.1996e-05
7.04242e-05
6.84141e-05
6.59263e-05
6.34447e-05
6.08458e-05
5.91628e-05
5.91194e-05
6.2228e-05
6.7801e-05
7.52078e-05
8.29839e-05
8.98555e-05
9.53365e-05
0.000100106
0.000104595
0.000108834
0.000109788
0.000104514
9.30049e-05
7.43978e-05
5.0907e-05
2.89106e-05
1.25877e-05
4.69451e-06
2.22093e-06
0.999996
0.999995
0.999995
0.999994
0.999994
0.999993
0.999992
0.999991
0.999991
0.99999
0.99999
0.99999
0.99999
0.99999
0.99999
0.99999
0.99999
0.99999
0.99999
0.99999
0.99999
0.99999
0.99999
0.99999
0.99999
0.99999
0.99999
0.99999
0.99999
0.99999
0.99999
0.99999
0.99999
0.99999
0.99999
0.99999
0.99999
0.99999
0.99999
0.99999
0.99999
0.99999
0.99999
0.99999
0.999989
0.999987
0.999984
0.999978
0.999968
0.999956
0.99994
0.999925
0.999913
0.999903
0.9999
0.999896
0.9999
0.999886
0.999821
0.96717
0.0359192
9.46798e-05
3.14673e-06
2.05893e-06
2.11091e-06
2.2457e-06
2.44068e-06
2.53978e-06
2.49434e-06
2.52877e-06
2.55003e-06
2.48053e-06
2.34059e-06
2.16656e-06
1.97755e-06
1.79937e-06
1.67951e-06
1.60979e-06
1.65389e-06
1.76678e-06
1.95019e-06
2.20007e-06
2.49207e-06
2.78606e-06
3.06791e-06
3.33422e-06
3.54014e-06
3.50945e-06
3.17797e-06
2.69973e-06
2.12007e-06
1.49438e-06
9.94106e-07
7.03311e-07
5.7801e-07
4.85422e-07
0.999996
0.999996
0.999995
0.999995
0.999994
0.999993
0.999992
0.999991
0.999991
0.99999
0.99999
0.99999
0.99999
0.99999
0.99999
0.99999
0.99999
0.99999
0.99999
0.99999
0.99999
0.99999
0.99999
0.99999
0.99999
0.99999
0.99999
0.99999
0.99999
0.99999
0.99999
0.99999
0.99999
0.99999
0.99999
0.99999
0.99999
0.99999
0.99999
0.99999
0.99999
0.99999
0.99999
0.99999
0.999989
0.999988
0.999985
0.999979
0.999969
0.999957
0.999942
0.99993
0.999921
0.99991
0.999905
0.999899
0.999902
0.999883
0.999736
0.974409
0.0498677
0.000178475
9.89657e-07
9.05371e-07
8.99807e-07
9.0135e-07
8.96294e-07
8.91575e-07
8.85063e-07
8.77545e-07
8.72741e-07
8.66223e-07
8.61746e-07
8.55005e-07
8.44302e-07
8.3342e-07
8.29323e-07
8.26613e-07
8.20115e-07
8.13734e-07
8.11505e-07
8.11323e-07
8.05962e-07
7.96409e-07
7.84023e-07
7.68735e-07
7.53166e-07
7.36364e-07
7.12924e-07
6.87239e-07
6.64475e-07
6.34147e-07
5.9397e-07
5.65815e-07
5.22937e-07
4.48857e-07
0.999997
0.999996
0.999996
0.999995
0.999995
0.999994
0.999993
0.999991
0.999991
0.99999
0.99999
0.99999
0.99999
0.99999
0.99999
0.99999
0.99999
0.99999
0.99999
0.99999
0.99999
0.99999
0.99999
0.99999
0.99999
0.99999
0.99999
0.99999
0.99999
0.99999
0.99999
0.99999
0.99999
0.99999
0.99999
0.99999
0.99999
0.99999
0.99999
0.99999
0.99999
0.99999
0.99999
0.99999
0.99999
0.999988
0.999986
0.99998
0.99997
0.999957
0.999943
0.999931
0.999923
0.999913
0.999908
0.999902
0.999901
0.999873
0.999658
0.971039
0.0593501
0.000325833
1.2396e-06
8.87817e-07
8.78862e-07
8.78563e-07
8.7993e-07
8.74198e-07
8.7066e-07
8.65182e-07
8.60539e-07
8.53067e-07
8.47165e-07
8.40233e-07
8.3358e-07
8.27052e-07
8.21196e-07
8.17188e-07
8.12554e-07
8.08012e-07
8.04097e-07
8.02446e-07
8.00344e-07
7.95389e-07
7.8688e-07
7.73912e-07
7.53686e-07
7.29973e-07
6.98092e-07
6.61452e-07
6.32806e-07
6.12589e-07
5.85359e-07
5.61761e-07
5.2105e-07
4.45574e-07
0.999997
0.999996
0.999996
0.999996
0.999996
0.999995
0.999994
0.999992
0.999991
0.99999
0.99999
0.99999
0.99999
0.99999
0.99999
0.99999
0.99999
0.99999
0.99999
0.99999
0.99999
0.99999
0.99999
0.99999
0.99999
0.99999
0.99999
0.99999
0.99999
0.99999
0.99999
0.99999
0.99999
0.99999
0.99999
0.99999
0.99999
0.99999
0.99999
0.99999
0.99999
0.99999
0.99999
0.99999
0.99999
0.999989
0.999986
0.99998
0.999971
0.999957
0.999943
0.999931
0.999924
0.999916
0.999911
0.999903
0.999898
0.999872
0.999599
0.965188
0.0585579
0.000298731
1.15268e-06
8.78959e-07
8.70537e-07
8.63433e-07
8.61235e-07
8.56375e-07
8.53995e-07
8.47862e-07
8.45369e-07
8.40488e-07
8.35834e-07
8.30861e-07
8.25567e-07
8.19646e-07
8.14037e-07
8.11348e-07
8.08596e-07
8.05185e-07
8.01094e-07
7.96712e-07
7.93333e-07
7.90018e-07
7.84945e-07
7.76474e-07
7.61969e-07
7.3921e-07
7.05344e-07
6.63034e-07
6.28409e-07
6.01838e-07
5.77409e-07
5.47769e-07
5.02119e-07
4.39274e-07
0.999998
0.999997
0.999997
0.999996
0.999996
0.999995
0.999995
0.999993
0.999991
0.99999
0.99999
0.99999
0.99999
0.99999
0.99999
0.99999
0.99999
0.99999
0.99999
0.99999
0.99999
0.99999
0.99999
0.99999
0.99999
0.99999
0.99999
0.99999
0.99999
0.99999
0.99999
0.99999
0.99999
0.99999
0.99999
0.99999
0.99999
0.99999
0.99999
0.99999
0.99999
0.99999
0.99999
0.99999
0.99999
0.999989
0.999986
0.99998
0.999971
0.999956
0.999942
0.999931
0.999924
0.999918
0.999914
0.999903
0.999901
0.999878
0.99928
0.95633
0.0638927
0.00057079
1.87567e-06
8.75778e-07
8.71751e-07
8.636e-07
8.59018e-07
8.52472e-07
8.51027e-07
8.45558e-07
8.42318e-07
8.37655e-07
8.33444e-07
8.2943e-07
8.25423e-07
8.21255e-07
8.17027e-07
8.13041e-07
8.09346e-07
8.06515e-07
8.02477e-07
7.96783e-07
7.92466e-07
7.88668e-07
7.84237e-07
7.79351e-07
7.70294e-07
7.52651e-07
7.23263e-07
6.83081e-07
6.37301e-07
5.94715e-07
5.60424e-07
5.16125e-07
4.73107e-07
4.23726e-07
0.999993
0.999993
0.999992
0.999992
0.999992
0.999991
0.999991
0.99999
0.99999
0.99999
0.99999
0.99999
0.99999
0.99999
0.99999
0.99999
0.99999
0.99999
0.99999
0.99999
0.99999
0.99999
0.99999
0.99999
0.99999
0.99999
0.99999
0.99999
0.99999
0.99999
0.99999
0.99999
0.99999
0.99999
0.99999
0.99999
0.99999
0.99999
0.99999
0.99999
0.99999
0.99999
0.99999
0.99999
0.99999
0.999989
0.999986
0.99998
0.999968
0.999953
0.99994
0.999928
0.999922
0.999917
0.999913
0.999908
0.999907
0.999883
0.999211
0.946682
0.0356241
0.000136012
8.62701e-07
8.01692e-07
7.9736e-07
7.88594e-07
7.88198e-07
7.82001e-07
7.81959e-07
7.77877e-07
7.77489e-07
7.73898e-07
7.71802e-07
7.6828e-07
7.6531e-07
7.6272e-07
7.6092e-07
7.59496e-07
7.57123e-07
7.51382e-07
7.4416e-07
7.35602e-07
7.2602e-07
7.127e-07
6.99535e-07
6.88258e-07
6.77797e-07
6.67419e-07
6.54066e-07
6.33618e-07
6.08727e-07
5.80431e-07
5.43335e-07
5.05168e-07
4.65742e-07
4.28826e-07
0.999994
0.999993
0.999992
0.999992
0.999991
0.999991
0.999991
0.999991
0.99999
0.99999
0.99999
0.99999
0.99999
0.99999
0.99999
0.99999
0.99999
0.99999
0.99999
0.99999
0.99999
0.99999
0.99999
0.99999
0.99999
0.99999
0.99999
0.99999
0.99999
0.99999
0.99999
0.99999
0.99999
0.99999
0.99999
0.99999
0.99999
0.99999
0.99999
0.99999
0.99999
0.99999
0.99999
0.99999
0.99999
0.999989
0.999986
0.999979
0.99997
0.999958
0.999944
0.999929
0.999919
0.999912
0.999908
0.999903
0.999902
0.999875
0.999576
0.920202
0.016582
1.36862e-05
8.12286e-07
8.66506e-07
8.45195e-07
8.41674e-07
8.39224e-07
8.27694e-07
8.2568e-07
8.16499e-07
8.11588e-07
8.00141e-07
7.93373e-07
7.86725e-07
7.82084e-07
7.77951e-07
7.75046e-07
7.71812e-07
7.66785e-07
7.60552e-07
7.52618e-07
7.43447e-07
7.29817e-07
7.14206e-07
6.98334e-07
6.83488e-07
6.71166e-07
6.61576e-07
6.51754e-07
6.38048e-07
6.2202e-07
5.99194e-07
5.64586e-07
5.35017e-07
5.06671e-07
4.5521e-07
0.999994
0.999993
0.999992
0.999992
0.999992
0.999991
0.999991
0.999991
0.999991
0.99999
0.99999
0.99999
0.99999
0.99999
0.99999
0.99999
0.99999
0.99999
0.99999
0.99999
0.99999
0.99999
0.99999
0.99999
0.99999
0.99999
0.99999
0.99999
0.99999
0.99999
0.99999
0.99999
0.99999
0.99999
0.99999
0.99999
0.99999
0.99999
0.99999
0.99999
0.99999
0.99999
0.99999
0.99999
0.999989
0.999989
0.999986
0.99998
0.999971
0.99996
0.999941
0.999922
0.999909
0.999902
0.9999
0.999898
0.999899
0.999869
0.999703
0.897533
0.0152732
4.93597e-06
4.41062e-06
3.956e-06
3.79882e-06
3.12903e-06
2.54881e-06
1.89396e-06
1.45919e-06
1.152e-06
9.98833e-07
9.05683e-07
8.60645e-07
8.41725e-07
8.32598e-07
8.24414e-07
8.16516e-07
8.07801e-07
7.99595e-07
7.8937e-07
7.76589e-07
7.63139e-07
7.47552e-07
7.27242e-07
7.08162e-07
6.93116e-07
6.8054e-07
6.69744e-07
6.60159e-07
6.48789e-07
6.37546e-07
6.16071e-07
5.78207e-07
5.45618e-07
5.20751e-07
4.70966e-07
0.999994
0.999994
0.999993
0.999992
0.999992
0.999992
0.999991
0.999991
0.999991
0.999991
0.99999
0.99999
0.99999
0.99999
0.99999
0.99999
0.99999
0.99999
0.99999
0.99999
0.99999
0.99999
0.99999
0.99999
0.99999
0.99999
0.99999
0.99999
0.99999
0.99999
0.99999
0.99999
0.99999
0.99999
0.99999
0.99999
0.99999
0.99999
0.99999
0.99999
0.99999
0.99999
0.99999
0.99999
0.999989
0.999988
0.999985
0.99998
0.999971
0.999959
0.999933
0.99991
0.999897
0.999893
0.999891
0.999884
0.999877
0.99985
0.999769
0.844295
0.00817251
0.000195686
0.000174617
0.000146864
0.000135729
0.000112111
8.86672e-05
6.54177e-05
4.59472e-05
3.06013e-05
1.99279e-05
1.28616e-05
8.63951e-06
6.28639e-06
5.13416e-06
4.53708e-06
4.22641e-06
4.039e-06
3.87868e-06
3.70125e-06
3.53237e-06
3.36983e-06
3.18492e-06
2.95608e-06
2.71756e-06
2.44401e-06
2.13061e-06
1.81877e-06
1.3681e-06
1.00829e-06
8.00988e-07
7.05888e-07
6.52209e-07
5.98473e-07
5.49869e-07
4.89328e-07
0.999995
0.999994
0.999993
0.999993
0.999992
0.999992
0.999992
0.999991
0.999991
0.999991
0.99999
0.99999
0.99999
0.99999
0.99999
0.99999
0.99999
0.99999
0.99999
0.99999
0.99999
0.99999
0.99999
0.99999
0.99999
0.99999
0.99999
0.99999
0.99999
0.99999
0.99999
0.99999
0.99999
0.99999
0.99999
0.99999
0.99999
0.99999
0.99999
0.99999
0.99999
0.99999
0.99999
0.99999
0.999989
0.999988
0.999985
0.999979
0.999969
0.999952
0.999921
0.999899
0.999888
0.999882
0.999877
0.999865
0.999856
0.999841
0.999837
0.76532
0.00964484
0.00279352
0.00265023
0.00238923
0.0022243
0.00197171
0.00172253
0.00146685
0.00122261
0.000996981
0.000804525
0.000644677
0.000520667
0.000430422
0.00036641
0.000323955
0.000297845
0.000282848
0.000276544
0.000275303
0.000276873
0.000274662
0.000268991
0.000260693
0.000247398
0.000231693
0.000212957
0.000180317
0.00013684
9.11422e-05
5.19055e-05
2.46916e-05
1.00092e-05
3.68236e-06
1.39169e-06
7.45716e-07
0.999995
0.999995
0.999994
0.999993
0.999992
0.999992
0.999992
0.999991
0.999991
0.999991
0.99999
0.99999
0.99999
0.99999
0.99999
0.99999
0.99999
0.99999
0.99999
0.99999
0.99999
0.99999
0.99999
0.99999
0.99999
0.99999
0.99999
0.99999
0.99999
0.99999
0.99999
0.99999
0.99999
0.99999
0.99999
0.99999
0.99999
0.99999
0.99999
0.99999
0.99999
0.99999
0.99999
0.99999
0.999989
0.999988
0.999984
0.999977
0.999968
0.999947
0.999912
0.999894
0.999883
0.999875
0.999866
0.999859
0.999857
0.999854
0.999828
0.644006
0.0192592
0.0123208
0.0125717
0.0123884
0.0122222
0.0119197
0.011576
0.0111668
0.0106561
0.0100795
0.00943301
0.00875339
0.00807219
0.00741193
0.00680045
0.00626865
0.00581734
0.00544617
0.00515684
0.00493492
0.00474649
0.00457442
0.00438805
0.00423256
0.00405488
0.00383262
0.00360029
0.0033163
0.0029664
0.00251646
0.00201688
0.00148291
0.000967199
0.000531761
0.000225801
8.00624e-05
0.999995
0.999995
0.999994
0.999994
0.999993
0.999992
0.999992
0.999991
0.999991
0.999991
0.99999
0.99999
0.99999
0.99999
0.99999
0.99999
0.99999
0.99999
0.99999
0.99999
0.99999
0.99999
0.99999
0.99999
0.99999
0.99999
0.99999
0.99999
0.99999
0.99999
0.99999
0.99999
0.99999
0.99999
0.99999
0.99999
0.99999
0.99999
0.99999
0.99999
0.99999
0.99999
0.99999
0.99999
0.999989
0.999988
0.999984
0.999976
0.999966
0.999943
0.999908
0.999889
0.99988
0.999874
0.99987
0.999866
0.999867
0.999862
0.999549
0.572116
0.0292918
0.0234407
0.0244542
0.0249359
0.02534
0.025774
0.0261687
0.0265744
0.0269184
0.0272636
0.0275699
0.0278589
0.0280639
0.0281771
0.0281538
0.0280266
0.0278037
0.0275345
0.0272077
0.026818
0.0263433
0.0257766
0.0251667
0.024517
0.0237939
0.0230559
0.0222693
0.0214612
0.0207113
0.0199677
0.0190701
0.0178326
0.0161656
0.013943
0.0112485
0.00888316
0.999995
0.999995
0.999995
0.999994
0.999993
0.999993
0.999992
0.999991
0.999991
0.999991
0.99999
0.99999
0.99999
0.99999
0.99999
0.99999
0.99999
0.99999
0.99999
0.99999
0.99999
0.99999
0.99999
0.99999
0.99999
0.99999
0.99999
0.99999
0.99999
0.99999
0.99999
0.99999
0.99999
0.99999
0.99999
0.99999
0.99999
0.99999
0.99999
0.99999
0.99999
0.99999
0.99999
0.99999
0.999989
0.999988
0.999984
0.999976
0.999962
0.999939
0.999908
0.99989
0.999883
0.999882
0.999881
0.99988
0.999883
0.99988
0.999229
0.673843
0.0319642
0.0211298
0.0219758
0.0222483
0.0226632
0.0233654
0.0242988
0.0254065
0.0266255
0.0279583
0.02939
0.0309726
0.0326706
0.0344238
0.0362422
0.0381222
0.040114
0.0422366
0.0444806
0.046855
0.0493591
0.052039
0.0549572
0.0581437
0.0617406
0.0656714
0.0698635
0.0744582
0.0797512
0.0858755
0.0932816
0.102626
0.11541
0.136341
0.184918
0.380315
0.999995
0.999996
0.999995
0.999995
0.999994
0.999993
0.999992
0.999991
0.999991
0.999991
0.99999
0.99999
0.99999
0.99999
0.99999
0.99999
0.99999
0.99999
0.99999
0.99999
0.99999
0.99999
0.99999
0.99999
0.99999
0.99999
0.99999
0.99999
0.99999
0.99999
0.99999
0.99999
0.99999
0.99999
0.99999
0.99999
0.99999
0.99999
0.99999
0.99999
0.99999
0.99999
0.99999
0.99999
0.999989
0.999988
0.999984
0.999977
0.999964
0.999944
0.999916
0.999899
0.99989
0.999886
0.999885
0.999883
0.999885
0.999881
0.999833
0.824433
0.0215631
0.00614252
0.00567923
0.00475964
0.00439124
0.0040694
0.00389449
0.00380559
0.00380998
0.00385073
0.00395208
0.00405527
0.0041947
0.00438197
0.00463268
0.00492627
0.00526897
0.00565933
0.00609306
0.00658134
0.00711015
0.00768863
0.00826894
0.00881052
0.00927712
0.00970784
0.0101035
0.0105141
0.0110209
0.011639
0.0123556
0.0131711
0.0141145
0.0149623
0.0153247
0.0140935
0.999996
0.999996
0.999995
0.999995
0.999995
0.999993
0.999992
0.999991
0.999991
0.999991
0.99999
0.99999
0.99999
0.99999
0.99999
0.99999
0.99999
0.99999
0.99999
0.99999
0.99999
0.99999
0.99999
0.99999
0.99999
0.99999
0.99999
0.99999
0.99999
0.99999
0.99999
0.99999
0.99999
0.99999
0.99999
0.99999
0.99999
0.99999
0.99999
0.99999
0.99999
0.99999
0.99999
0.99999
0.999989
0.999988
0.999984
0.999978
0.999969
0.999953
0.999927
0.999909
0.999899
0.999891
0.999888
0.999886
0.999888
0.999878
0.999892
0.889263
0.0125155
0.000895354
0.000748679
0.00054152
0.000476748
0.000418881
0.00039267
0.000375939
0.00037106
0.00036943
0.00037445
0.00038318
0.000394979
0.000409616
0.000425382
0.000443355
0.000467682
0.000500532
0.000543778
0.000593287
0.000647404
0.000712892
0.000788487
0.000869933
0.000953816
0.00102938
0.00111237
0.00119723
0.00129907
0.00141677
0.00154776
0.00164842
0.00166172
0.00139376
0.000857626
0.000383917
0.999996
0.999996
0.999996
0.999995
0.999995
0.999994
0.999992
0.999991
0.999991
0.999991
0.99999
0.99999
0.99999
0.99999
0.99999
0.99999
0.99999
0.99999
0.99999
0.99999
0.99999
0.99999
0.99999
0.99999
0.99999
0.99999
0.99999
0.99999
0.99999
0.99999
0.99999
0.99999
0.99999
0.99999
0.99999
0.99999
0.99999
0.99999
0.99999
0.99999
0.99999
0.99999
0.99999
0.99999
0.99999
0.999988
0.999985
0.999979
0.99997
0.999957
0.999938
0.999919
0.999908
0.9999
0.999897
0.999892
0.999891
0.999872
0.999879
0.930637
0.0146274
7.11159e-05
6.49132e-05
4.64525e-05
4.44054e-05
4.15796e-05
3.97506e-05
3.63149e-05
3.27398e-05
2.93347e-05
2.68631e-05
2.52865e-05
2.4836e-05
2.52883e-05
2.52815e-05
2.51339e-05
2.47586e-05
2.52015e-05
2.79344e-05
3.18406e-05
3.58769e-05
3.98383e-05
4.29388e-05
4.60815e-05
4.82393e-05
4.73736e-05
4.46422e-05
4.04956e-05
3.68737e-05
3.48148e-05
3.3554e-05
3.11065e-05
2.44253e-05
1.57308e-05
7.57238e-06
3.27804e-06
0.999996
0.999996
0.999996
0.999996
0.999995
0.999994
0.999993
0.999992
0.999991
0.999991
0.99999
0.99999
0.99999
0.99999
0.99999
0.99999
0.99999
0.99999
0.99999
0.99999
0.99999
0.99999
0.99999
0.99999
0.99999
0.99999
0.99999
0.99999
0.99999
0.99999
0.99999
0.99999
0.99999
0.99999
0.99999
0.99999
0.99999
0.99999
0.99999
0.99999
0.99999
0.99999
0.99999
0.99999
0.99999
0.999989
0.999986
0.99998
0.999971
0.999959
0.999944
0.999927
0.999916
0.999906
0.999904
0.999898
0.999893
0.999867
0.99983
0.955904
0.0228473
2.90032e-06
4.32606e-06
2.56666e-06
2.69505e-06
2.61945e-06
2.49446e-06
2.27954e-06
2.08202e-06
1.90623e-06
1.76592e-06
1.61085e-06
1.4601e-06
1.34056e-06
1.26981e-06
1.24329e-06
1.23254e-06
1.2624e-06
1.3365e-06
1.43451e-06
1.54712e-06
1.64008e-06
1.69328e-06
1.69269e-06
1.6238e-06
1.48116e-06
1.28974e-06
1.091e-06
9.33335e-07
8.13687e-07
7.44655e-07
6.93654e-07
6.40628e-07
5.96706e-07
5.51487e-07
4.74113e-07
0.999997
0.999996
0.999996
0.999996
0.999996
0.999995
0.999993
0.999992
0.999991
0.999991
0.99999
0.99999
0.99999
0.99999
0.99999
0.99999
0.99999
0.99999
0.99999
0.99999
0.99999
0.99999
0.99999
0.99999
0.99999
0.99999
0.99999
0.99999
0.99999
0.99999
0.99999
0.99999
0.99999
0.99999
0.99999
0.99999
0.99999
0.99999
0.99999
0.99999
0.99999
0.99999
0.99999
0.99999
0.99999
0.999989
0.999986
0.999981
0.999972
0.999959
0.999945
0.99993
0.99992
0.999909
0.999904
0.999896
0.999887
0.999859
0.999748
0.963371
0.0333664
1.12997e-05
1.00755e-06
9.20453e-07
9.40363e-07
9.32731e-07
9.2302e-07
9.10015e-07
9.03641e-07
8.90485e-07
8.81965e-07
8.71781e-07
8.64551e-07
8.5602e-07
8.46565e-07
8.37464e-07
8.3145e-07
8.24708e-07
8.17741e-07
8.15384e-07
8.15375e-07
8.14945e-07
8.13357e-07
8.05412e-07
7.90951e-07
7.73222e-07
7.52793e-07
7.29925e-07
7.0433e-07
6.73809e-07
6.39877e-07
6.18655e-07
5.90444e-07
5.59342e-07
5.10055e-07
4.30527e-07
0.999997
0.999996
0.999996
0.999996
0.999996
0.999996
0.999994
0.999992
0.999991
0.999991
0.99999
0.99999
0.99999
0.99999
0.99999
0.99999
0.99999
0.99999
0.99999
0.99999
0.99999
0.99999
0.99999
0.99999
0.99999
0.99999
0.99999
0.99999
0.99999
0.99999
0.99999
0.99999
0.99999
0.99999
0.99999
0.99999
0.99999
0.99999
0.99999
0.99999
0.99999
0.99999
0.99999
0.99999
0.99999
0.999989
0.999986
0.999981
0.999971
0.999958
0.999944
0.99993
0.999921
0.999909
0.999899
0.99989
0.999877
0.999835
0.999629
0.95702
0.0376087
2.8112e-05
9.32213e-07
9.04545e-07
8.85112e-07
8.83021e-07
8.84768e-07
8.77937e-07
8.73954e-07
8.65567e-07
8.60353e-07
8.52454e-07
8.4713e-07
8.40092e-07
8.33248e-07
8.26506e-07
8.20964e-07
8.15827e-07
8.10879e-07
8.06956e-07
8.03254e-07
8.00614e-07
7.98284e-07
7.93896e-07
7.85454e-07
7.72272e-07
7.53355e-07
7.29968e-07
7.00547e-07
6.61243e-07
6.23797e-07
5.99738e-07
5.82716e-07
5.63572e-07
5.22676e-07
4.36076e-07
0.999997
0.999997
0.999997
0.999996
0.999996
0.999996
0.999995
0.999993
0.999991
0.999991
0.99999
0.99999
0.99999
0.99999
0.99999
0.99999
0.99999
0.99999
0.99999
0.99999
0.99999
0.99999
0.99999
0.99999
0.99999
0.99999
0.99999
0.99999
0.99999
0.99999
0.99999
0.99999
0.99999
0.99999
0.99999
0.99999
0.99999
0.99999
0.99999
0.99999
0.99999
0.99999
0.99999
0.99999
0.99999
0.999989
0.999986
0.99998
0.999971
0.999958
0.999943
0.999931
0.999921
0.999909
0.999896
0.99988
0.999865
0.999825
0.999604
0.937445
0.0343256
5.80104e-05
9.5283e-07
8.81249e-07
8.69722e-07
8.59649e-07
8.5914e-07
8.54029e-07
8.52988e-07
8.47992e-07
8.45205e-07
8.38821e-07
8.34049e-07
8.28086e-07
8.23487e-07
8.18574e-07
8.14267e-07
8.11224e-07
8.07973e-07
8.04828e-07
8.01457e-07
7.98041e-07
7.94939e-07
7.90784e-07
7.84089e-07
7.73731e-07
7.57175e-07
7.33768e-07
7.00513e-07
6.55607e-07
6.13214e-07
5.84955e-07
5.70136e-07
5.48199e-07
5.05642e-07
4.32978e-07
0.999998
0.999997
0.999997
0.999997
0.999996
0.999996
0.999996
0.999994
0.999991
0.99999
0.99999
0.99999
0.99999
0.99999
0.99999
0.99999
0.99999
0.99999
0.99999
0.99999
0.99999
0.99999
0.99999
0.99999
0.99999
0.99999
0.99999
0.99999
0.99999
0.99999
0.99999
0.99999
0.99999
0.99999
0.99999
0.99999
0.99999
0.99999
0.99999
0.99999
0.99999
0.99999
0.99999
0.99999
0.99999
0.999989
0.999986
0.99998
0.999971
0.999957
0.999942
0.999931
0.999924
0.999916
0.999906
0.99989
0.999879
0.99983
0.999417
0.954938
0.0555079
0.000400469
1.45645e-06
8.7523e-07
8.69289e-07
8.58215e-07
8.56176e-07
8.49398e-07
8.47102e-07
8.40986e-07
8.37927e-07
8.32683e-07
8.29513e-07
8.25197e-07
8.21739e-07
8.18156e-07
8.15349e-07
8.12255e-07
8.09379e-07
8.07503e-07
8.04894e-07