/*--------------------------------*- C++ -*----------------------------------*\
| =========                 |                                                 |
| \\      /  F ield         | OpenFOAM: The Open Source CFD Toolbox           |
|  \\    /   O peration     | Version:  2.3.0                                 |
|   \\  /    A nd           | Web:      www.OpenFOAM.org                      |
|    \\/     M anipulation  |                                                 |
\*---------------------------------------------------------------------------*/
FoamFile
{
    version     2.0;
    format      ascii;
    class       volScalarField;
    location    "38";
    object      epsilon.water;
}
// * * * * * * * * * * * * * * * * * * * * * * * * * * * * * * * * * * * * * //

dimensions      [0 2 -3 0 0 0 0];

internalField   nonuniform List<scalar> 
6144
(
5.42769e-05
4.25375e-05
2.57515e-05
1.98655e-05
1.23275e-05
8.06771e-06
5.95761e-06
5.24455e-06
4.9559e-06
6.29175e-06
8.08005e-06
9.74466e-06
1.04404e-05
1.05056e-05
9.84317e-06
9.37549e-06
8.82737e-06
8.46638e-06
8.06042e-06
7.8085e-06
7.72692e-06
7.70025e-06
7.71743e-06
7.75405e-06
7.80693e-06
7.87605e-06
7.9597e-06
8.06892e-06
8.28679e-06
8.50569e-06
8.66972e-06
8.77455e-06
8.8503e-06
8.90786e-06
8.95897e-06
9.01627e-06
9.13167e-06
9.2879e-06
9.51552e-06
9.76942e-06
1.0027e-05
1.04816e-05
1.08391e-05
1.1573e-05
1.15619e-05
1.17282e-05
1.08457e-05
1.15273e-05
1.1244e-05
1.32197e-05
1.22029e-05
1.6764e-05
3.64846e-05
0.000150573
0.000496121
0.00097599
0.00225633
0.00467874
0.0323165
0.0416854
0.115008
0.0511909
0.023461
0.0117653
0.00691564
0.00403927
0.001787
0.000421924
0.000215546
0.000301923
0.000375859
0.000461951
0.000521093
0.000569636
0.000604013
0.000628706
0.000650497
0.000659079
0.000669838
0.000675205
0.000678083
0.000670998
0.000661421
0.000644803
0.000625817
0.000604259
0.000574727
0.00054424
0.000505863
0.000465096
0.000415936
0.000361548
0.000305844
0.000230928
0.000155748
0.000104718
0.000100155
6.59874e-05
4.19e-05
3.62726e-05
2.53867e-05
2.09516e-05
1.86591e-05
1.74107e-05
1.66278e-05
2.01973e-05
2.36687e-05
2.67271e-05
2.77358e-05
2.66632e-05
2.45804e-05
2.3216e-05
2.22399e-05
2.19435e-05
2.19672e-05
2.22268e-05
2.27272e-05
2.3197e-05
2.36258e-05
2.39895e-05
2.43031e-05
2.45825e-05
2.48466e-05
2.51627e-05
2.57056e-05
2.61506e-05
2.64583e-05
2.66856e-05
2.68936e-05
2.7089e-05
2.72951e-05
2.75191e-05
2.78515e-05
2.81874e-05
2.87328e-05
2.91966e-05
2.98888e-05
3.04628e-05
3.12881e-05
3.18912e-05
3.19636e-05
3.05684e-05
2.89407e-05
2.89102e-05
3.33925e-05
3.85221e-05
3.94402e-05
4.56376e-05
7.73021e-05
0.000354121
0.00125483
0.00151156
0.00318652
0.0090721
0.0209451
0.0330655
0.0885217
0.0389499
0.0163275
0.00767017
0.00453093
0.00278187
0.00123796
0.000339146
0.000330689
0.000513984
0.000632976
0.000748364
0.000846474
0.000910854
0.000942726
0.000951548
0.000930119
0.000924325
0.000934172
0.000958775
0.000989107
0.0010093
0.00101574
0.00100859
0.00098554
0.000950115
0.000906924
0.000848917
0.000767999
0.000690549
0.000607871
0.000516621
0.000429237
0.000291927
0.000168928
0.000112028
0.000122001
7.53236e-05
5.15068e-05
4.73661e-05
4.04747e-05
3.90972e-05
3.72156e-05
3.24789e-05
2.81599e-05
2.87002e-05
3.14101e-05
3.22823e-05
3.09749e-05
2.86897e-05
2.67351e-05
2.59582e-05
2.59967e-05
2.69173e-05
2.86749e-05
3.03372e-05
3.16366e-05
3.27425e-05
3.36234e-05
3.42997e-05
3.48166e-05
3.52146e-05
3.55399e-05
3.58031e-05
3.59952e-05
3.60762e-05
3.60841e-05
3.607e-05
3.60579e-05
3.60503e-05
3.60805e-05
3.61263e-05
3.61665e-05
3.61241e-05
3.61396e-05
3.5999e-05
3.59724e-05
3.55481e-05
3.56069e-05
3.52945e-05
3.59081e-05
3.49074e-05
3.53226e-05
3.80947e-05
4.8571e-05
6.22085e-05
7.75067e-05
8.9232e-05
0.000195902
0.000856361
0.0026827
0.00313834
0.00313845
0.00709919
0.0230481
0.030718
0.0812088
0.0335006
0.0115294
0.0052663
0.00332374
0.00197148
0.000668263
0.000370664
0.000556844
0.000707153
0.000847692
0.000965344
0.00106826
0.00113374
0.00116347
0.00111355
0.00101309
0.000981598
0.000978779
0.001006
0.00104717
0.00108378
0.00110418
0.00111268
0.00110744
0.00108221
0.00104455
0.000986969
0.000899744
0.000814505
0.000738762
0.000642408
0.000569754
0.000436291
0.000239908
0.000133684
0.000148119
8.84874e-05
5.94216e-05
5.38189e-05
4.79504e-05
4.99778e-05
4.96512e-05
4.30923e-05
3.58117e-05
3.27591e-05
3.40092e-05
3.37466e-05
3.15053e-05
2.87086e-05
2.68163e-05
2.62784e-05
2.68001e-05
2.81821e-05
2.98688e-05
3.14782e-05
3.27959e-05
3.39483e-05
3.48466e-05
3.5516e-05
3.6003e-05
3.63619e-05
3.66458e-05
3.68719e-05
3.70164e-05
3.70458e-05
3.69881e-05
3.68915e-05
3.67753e-05
3.66568e-05
3.65649e-05
3.64969e-05
3.64356e-05
3.63192e-05
3.6235e-05
3.59723e-05
3.57439e-05
3.51574e-05
3.49307e-05
3.4678e-05
3.53479e-05
3.56789e-05
3.73614e-05
4.03985e-05
5.04913e-05
6.76345e-05
9.46457e-05
0.000167977
0.000593079
0.0024024
0.00412068
0.00530877
0.00436932
0.00754925
0.02089
0.0242664
0.0773649
0.0225298
0.00406242
0.00200624
0.001566
0.000828185
0.000503971
0.000503613
0.000753286
0.000888737
0.00102975
0.00114184
0.00123244
0.00127283
0.00127605
0.00114101
0.00098251
0.000925588
0.00090775
0.000913705
0.000959172
0.00100249
0.00104773
0.0010868
0.00110276
0.00109675
0.00106734
0.00102109
0.000938357
0.000853277
0.000786731
0.000682527
0.000620662
0.000541891
0.000370657
0.00017812
0.000172676
0.000100263
7.19938e-05
6.60358e-05
5.30588e-05
5.20117e-05
4.98318e-05
4.46787e-05
4.08039e-05
3.59097e-05
3.56447e-05
3.37121e-05
3.05835e-05
2.71282e-05
2.52848e-05
2.48299e-05
2.56198e-05
2.71846e-05
2.90219e-05
3.08166e-05
3.24627e-05
3.38786e-05
3.48871e-05
3.55735e-05
3.59982e-05
3.62506e-05
3.63934e-05
3.64658e-05
3.64502e-05
3.63211e-05
3.60934e-05
3.58074e-05
3.55034e-05
3.52103e-05
3.49427e-05
3.46986e-05
3.446e-05
3.41565e-05
3.38231e-05
3.32498e-05
3.26725e-05
3.19296e-05
3.16612e-05
3.20654e-05
3.35956e-05
3.4916e-05
3.71556e-05
3.88373e-05
4.68503e-05
6.73218e-05
0.0001003
0.000214016
0.000889435
0.00363234
0.00601105
0.00910492
0.010676
0.0106194
0.0142711
0.0146218
0.0585802
0.00688667
0.000885556
0.000776539
0.000660913
0.000581622
0.000561896
0.000785601
0.000944109
0.00109996
0.00121373
0.001287
0.00131513
0.00129872
0.00113391
0.000876734
0.000661092
0.000567517
0.000523145
0.000508122
0.000531524
0.000583638
0.000679042
0.000786543
0.000894212
0.000970009
0.00100574
0.000986286
0.00091355
0.00083937
0.000800388
0.000745751
0.000667457
0.000609904
0.000479266
0.000274831
0.000184663
0.000110654
8.96722e-05
8.99519e-05
6.55454e-05
6.14485e-05
4.68493e-05
4.37949e-05
4.28953e-05
3.67365e-05
3.55759e-05
3.26714e-05
2.93839e-05
2.53042e-05
2.23294e-05
2.14929e-05
2.24733e-05
2.45135e-05
2.70432e-05
2.94757e-05
3.15293e-05
3.3021e-05
3.40152e-05
3.46486e-05
3.49925e-05
3.51413e-05
3.51714e-05
3.51298e-05
3.50021e-05
3.47416e-05
3.43903e-05
3.39915e-05
3.35753e-05
3.3174e-05
3.2806e-05
3.24593e-05
3.2107e-05
3.1675e-05
3.11327e-05
3.0385e-05
2.96109e-05
2.89217e-05
2.88789e-05
2.98342e-05
3.21386e-05
3.35676e-05
3.43824e-05
3.46832e-05
4.16427e-05
6.2652e-05
9.72744e-05
0.000162907
0.000768094
0.00471565
0.00670285
0.00726056
0.00904652
0.00859795
0.00972245
0.0097509
0.0442089
0.00255931
0.000646394
0.000623586
0.000642383
0.000686068
0.000886935
0.00105505
0.00115858
0.00121346
0.00124067
0.00123985
0.00115971
0.00103035
0.000806713
0.000585415
0.000428821
0.000358051
0.000302478
0.000275637
0.00026724
0.000277983
0.000322515
0.000435935
0.000622396
0.000773153
0.000839516
0.000857524
0.000762805
0.000650811
0.000552122
0.00061167
0.000619871
0.00059981
0.000529446
0.000399694
0.00017698
0.000123616
0.000106524
0.000117713
8.48554e-05
7.72173e-05
5.1791e-05
4.44377e-05
4.46704e-05
3.77206e-05
3.54633e-05
3.13623e-05
2.65835e-05
2.14197e-05
1.88101e-05
1.81435e-05
1.91323e-05
2.08798e-05
2.29479e-05
2.5119e-05
2.70992e-05
2.86335e-05
2.97156e-05
3.03728e-05
3.06566e-05
3.07118e-05
3.06309e-05
3.04962e-05
3.02846e-05
2.99506e-05
2.94788e-05
2.89255e-05
2.83405e-05
2.77734e-05
2.7277e-05
2.68283e-05
2.63267e-05
2.5793e-05
2.51718e-05
2.44953e-05
2.38101e-05
2.35381e-05
2.39432e-05
2.56592e-05
2.79656e-05
2.831e-05
2.79463e-05
2.76909e-05
3.34787e-05
5.1877e-05
9.19839e-05
0.000151547
0.000474218
0.00155303
0.00404274
0.00899657
0.0102133
0.00870819
0.00721844
0.00717036
0.0294553
0.00175281
0.000764887
0.000760071
0.000870459
0.00095324
0.00104485
0.00108161
0.00109764
0.00110169
0.00105291
0.0010024
0.000928757
0.000796627
0.000644811
0.000488806
0.000395096
0.000331921
0.000282124
0.000247594
0.000228922
0.000212917
0.000200963
0.000204433
0.00027658
0.000557802
0.000764118
0.00081614
0.000745499
0.000578642
0.000405447
0.000394221
0.000490793
0.00055474
0.000524724
0.000472518
0.00014003
0.000128769
0.000114862
0.000129777
9.44788e-05
8.32813e-05
5.54238e-05
4.07861e-05
4.3173e-05
3.6678e-05
3.37791e-05
2.8961e-05
2.53555e-05
1.99418e-05
1.64265e-05
1.52904e-05
1.64716e-05
1.86473e-05
2.11079e-05
2.34308e-05
2.54251e-05
2.69281e-05
2.7982e-05
2.86395e-05
2.89604e-05
2.90722e-05
2.90521e-05
2.89332e-05
2.86802e-05
2.82729e-05
2.7737e-05
2.7155e-05
2.65686e-05
2.59976e-05
2.54611e-05
2.49491e-05
2.43996e-05
2.38633e-05
2.32698e-05
2.26743e-05
2.20809e-05
2.19363e-05
2.23863e-05
2.39843e-05
2.61207e-05
2.64466e-05
2.54596e-05
2.42266e-05
2.84857e-05
4.4754e-05
8.54463e-05
0.00020148
0.00112443
0.00335454
0.00444099
0.00824316
0.0106075
0.00878928
0.00620903
0.00614848
0.0224812
0.00165047
0.000933022
0.000936058
0.000965154
0.000980373
0.000987613
0.000980735
0.000967128
0.00094243
0.000914181
0.000884103
0.000864105
0.000798168
0.000709841
0.000609344
0.000516839
0.000444734
0.000392123
0.000343936
0.000295298
0.000239488
0.000194589
0.000164591
0.00015595
0.000216969
0.000550773
0.000724568
0.000730931
0.000576081
0.00038803
0.000263396
0.000340875
0.000482026
0.000506804
0.000585732
0.000114216
0.00011611
0.000118744
0.000135347
9.49446e-05
7.98567e-05
5.85172e-05
3.79913e-05
3.82451e-05
3.39189e-05
3.13562e-05
2.66893e-05
2.21451e-05
1.59348e-05
1.15602e-05
1.00066e-05
1.0945e-05
1.29837e-05
1.51795e-05
1.70927e-05
1.8685e-05
1.99654e-05
2.09362e-05
2.16178e-05
2.20312e-05
2.22561e-05
2.23495e-05
2.23403e-05
2.21801e-05
2.1848e-05
2.14133e-05
2.09503e-05
2.04993e-05
2.00815e-05
1.96932e-05
1.93271e-05
1.89332e-05
1.85783e-05
1.82164e-05
1.7923e-05
1.76468e-05
1.77065e-05
1.81453e-05
1.91941e-05
2.03138e-05
2.01205e-05
1.8221e-05
1.74692e-05
2.24833e-05
3.94516e-05
8.57047e-05
0.000363827
0.0028464
0.0069023
0.00889046
0.010536
0.0120663
0.0106057
0.00654745
0.00645935
0.0308751
0.0021324
0.00105098
0.00104521
0.00103548
0.00100458
0.00098779
0.000940886
0.000914288
0.000875875
0.000845871
0.000821166
0.000821198
0.000846375
0.000832216
0.000768495
0.000676783
0.000580381
0.000499365
0.000447303
0.000400714
0.000335595
0.000278693
0.000213555
0.000134674
9.03523e-05
0.000219353
0.000577859
0.000672845
0.000628116
0.000490424
0.000319228
0.000348037
0.000497101
0.000527713
0.000598949
0.00010357
9.95009e-05
0.00012764
0.000147493
9.49174e-05
8.10702e-05
6.24683e-05
3.95701e-05
3.19224e-05
2.90527e-05
2.71007e-05
2.28689e-05
1.79436e-05
1.21672e-05
8.12873e-06
6.56398e-06
6.96243e-06
8.35772e-06
9.89603e-06
1.12091e-05
1.23324e-05
1.32039e-05
1.38634e-05
1.43578e-05
1.46883e-05
1.48897e-05
1.50058e-05
1.50494e-05
1.50002e-05
1.48495e-05
1.46372e-05
1.4413e-05
1.42095e-05
1.40321e-05
1.38604e-05
1.36862e-05
1.34962e-05
1.33337e-05
1.31782e-05
1.30816e-05
1.30333e-05
1.3153e-05
1.33971e-05
1.3693e-05
1.38183e-05
1.34572e-05
1.21655e-05
1.26016e-05
1.75102e-05
3.20515e-05
6.69908e-05
0.000257122
0.003195
0.00752077
0.0085736
0.00720823
0.00900342
0.00883687
0.00822317
0.00825501
0.0435674
0.00312601
0.00120372
0.00121173
0.00128321
0.00114964
0.00108116
0.000996242
0.000915386
0.000862492
0.000821657
0.00078938
0.000772527
0.000783876
0.000791822
0.000773075
0.000714093
0.000616649
0.000537921
0.000482296
0.000430711
0.00036894
0.000313187
0.000267901
0.000180263
7.03007e-05
6.91847e-05
0.000344699
0.000593438
0.000670978
0.000589931
0.000394802
0.000362031
0.000512715
0.000543881
0.000590092
9.77887e-05
7.16304e-05
8.68275e-05
0.000108683
8.59394e-05
7.06631e-05
5.37459e-05
3.59486e-05
2.61593e-05
2.30315e-05
2.14017e-05
1.76586e-05
1.33815e-05
8.79703e-06
5.86392e-06
4.52181e-06
4.57456e-06
5.38111e-06
6.36927e-06
7.21582e-06
7.94093e-06
8.51771e-06
8.96796e-06
9.32e-06
9.57712e-06
9.76533e-06
9.9085e-06
9.98775e-06
1.00015e-05
9.94345e-06
9.85177e-06
9.75695e-06
9.68605e-06
9.64537e-06
9.60998e-06
9.56827e-06
9.49706e-06
9.43729e-06
9.409e-06
9.43302e-06
9.49396e-06
9.59845e-06
9.73593e-06
9.76599e-06
9.56486e-06
9.27751e-06
8.75628e-06
9.50628e-06
1.39326e-05
2.62524e-05
5.17226e-05
0.000111004
0.000526545
0.00214624
0.00606729
0.00714431
0.0116176
0.0113754
0.011259
0.0115817
0.0535436
0.00732144
0.00145261
0.00115887
0.00145999
0.00120507
0.00113412
0.00103776
0.000950875
0.000881594
0.000830246
0.000797387
0.000776444
0.000769281
0.000766118
0.00075106
0.000709017
0.000633512
0.000568101
0.000518518
0.000469137
0.000418376
0.000354205
0.000299638
0.000221027
7.91767e-05
3.96609e-05
0.000108397
0.000249021
0.000467222
0.000617518
0.000450155
0.000406539
0.000528244
0.000550001
0.0005689
8.9502e-05
5.42388e-05
3.45535e-05
4.13083e-05
4.16928e-05
4.39266e-05
3.50314e-05
2.65876e-05
2.13881e-05
2.08724e-05
1.97354e-05
1.45635e-05
9.75546e-06
5.96063e-06
3.95894e-06
3.16839e-06
3.28419e-06
3.84265e-06
4.49852e-06
5.05334e-06
5.5372e-06
5.93816e-06
6.28404e-06
6.57249e-06
6.80681e-06
7.00658e-06
7.1847e-06
7.32864e-06
7.41079e-06
7.44149e-06
7.43367e-06
7.42303e-06
7.4416e-06
7.48834e-06
7.52366e-06
7.53412e-06
7.53071e-06
7.52147e-06
7.49932e-06
7.48407e-06
7.46401e-06
7.46094e-06
7.47198e-06
7.43071e-06
7.22649e-06
7.03332e-06
6.77773e-06
7.52537e-06
1.18183e-05
2.38062e-05
4.95355e-05
9.40603e-05
0.000211343
0.000554571
0.00261234
0.00449945
0.0087007
0.00930076
0.0148929
0.0168499
0.0650462
0.0166678
0.002647
0.00127554
0.00161662
0.00136572
0.00116337
0.00107334
0.00100616
0.000953825
0.000914689
0.000887436
0.00086509
0.000848133
0.00082867
0.000801948
0.000749621
0.000678322
0.000613873
0.000562788
0.000509034
0.000453761
0.000385079
0.000324578
0.000243445
8.82478e-05
3.38609e-05
6.5432e-05
0.000122018
0.000230098
0.000421464
0.000467647
0.000429583
0.000535156
0.000551755
0.000546381
3.30041e-05
2.61716e-05
2.29952e-05
2.49412e-05
2.24276e-05
2.22764e-05
1.76777e-05
1.55473e-05
1.54062e-05
1.77506e-05
1.70881e-05
1.20026e-05
7.28414e-06
4.10946e-06
3.00327e-06
2.61202e-06
2.68697e-06
3.0319e-06
3.42241e-06
3.77925e-06
4.08269e-06
4.33129e-06
4.54589e-06
4.75092e-06
4.94892e-06
5.13499e-06
5.31693e-06
5.48684e-06
5.6193e-06
5.68564e-06
5.71039e-06
5.73295e-06
5.78687e-06
5.87085e-06
5.94774e-06
6.00009e-06
6.03401e-06
6.05291e-06
6.06029e-06
6.06222e-06
6.09526e-06
6.18146e-06
6.27167e-06
6.22998e-06
6.06532e-06
5.87511e-06
5.81052e-06
6.69035e-06
1.06032e-05
2.12102e-05
4.55284e-05
8.15992e-05
0.000142167
0.000302142
0.00113728
0.00253684
0.00353397
0.00590563
0.0190316
0.0243275
0.0756369
0.0260352
0.00634391
0.00208815
0.00193201
0.00173057
0.00148408
0.00133496
0.00122788
0.00114682
0.00108351
0.00103489
0.000993057
0.000960751
0.000921798
0.000873823
0.000807236
0.000730042
0.000658357
0.000595207
0.000533685
0.000476135
0.00040648
0.000344602
0.000262068
9.64621e-05
3.0413e-05
4.82441e-05
7.19481e-05
0.000124169
0.000296585
0.000409229
0.000448433
0.000531667
0.000534562
0.000514251
2.24955e-05
2.11405e-05
1.89537e-05
1.96089e-05
1.64652e-05
1.58295e-05
1.19531e-05
1.07904e-05
1.24997e-05
1.45002e-05
1.33533e-05
8.33235e-06
4.71694e-06
3.15486e-06
2.53069e-06
2.18454e-06
2.24406e-06
2.51489e-06
2.80851e-06
3.06269e-06
3.28488e-06
3.47178e-06
3.6391e-06
3.77929e-06
3.90433e-06
4.02863e-06
4.16249e-06
4.3018e-06
4.42234e-06
4.48307e-06
4.49738e-06
4.51002e-06
4.56154e-06
4.66273e-06
4.77266e-06
4.8546e-06
4.92155e-06
4.96768e-06
5.00595e-06
5.04253e-06
5.1041e-06
5.15568e-06
5.2144e-06
5.16313e-06
5.03561e-06
4.85946e-06
4.85985e-06
5.71609e-06
9.30348e-06
1.82719e-05
4.05235e-05
7.11699e-05
0.000115494
0.000236073
0.000625809
0.00148292
0.0021852
0.00628402
0.0233334
0.0299333
0.0791993
0.0339656
0.0133587
0.00526
0.00339025
0.00262518
0.00216235
0.0018563
0.00163158
0.00145797
0.00131945
0.00121206
0.00112404
0.00104737
0.000975712
0.000909074
0.00083493
0.000756059
0.000681717
0.00060669
0.000538849
0.000478565
0.000410473
0.000353707
0.000266475
9.09111e-05
2.71322e-05
4.06088e-05
4.99343e-05
7.20057e-05
0.000158344
0.000317482
0.000441859
0.00050316
0.000500436
0.00046908
2.0399e-05
1.57123e-05
1.29604e-05
1.24599e-05
1.03905e-05
9.09993e-06
7.58416e-06
7.67166e-06
8.70496e-06
8.72589e-06
7.51637e-06
4.5169e-06
3.03115e-06
2.26758e-06
1.87122e-06
1.67608e-06
1.73935e-06
1.93872e-06
2.14562e-06
2.32476e-06
2.48021e-06
2.61774e-06
2.74913e-06
2.87417e-06
2.99762e-06
3.12848e-06
3.27448e-06
3.42935e-06
3.5699e-06
3.66344e-06
3.71207e-06
3.75736e-06
3.83461e-06
3.94899e-06
4.06417e-06
4.15523e-06
4.23429e-06
4.2922e-06
4.34161e-06
4.38706e-06
4.46082e-06
4.52403e-06
4.60395e-06
4.56525e-06
4.47613e-06
4.31401e-06
4.34799e-06
5.19526e-06
8.31899e-06
1.57562e-05
3.285e-05
5.28134e-05
9.53505e-05
0.00020699
0.0004695
0.000894168
0.00253453
0.00835685
0.0222086
0.0320799
0.0845041
0.0406809
0.0195067
0.00967974
0.00587329
0.00404807
0.00303837
0.00243538
0.00203689
0.00175229
0.00153333
0.00136143
0.00122127
0.00110689
0.00100907
0.00092443
0.000844152
0.00076449
0.000688769
0.000613315
0.000542875
0.000478666
0.000412542
0.000354174
0.000269739
9.56559e-05
2.56434e-05
3.6513e-05
4.09679e-05
4.94694e-05
8.67107e-05
0.000188615
0.000351433
0.000407531
0.000405305
0.000373156
2.39075e-05
1.94715e-05
9.55217e-06
8.10956e-06
5.90449e-06
5.21081e-06
3.72976e-06
3.89549e-06
4.07032e-06
3.61142e-06
2.99881e-06
2.22919e-06
1.72927e-06
1.36753e-06
1.13318e-06
1.03255e-06
1.07201e-06
1.18176e-06
1.29297e-06
1.38946e-06
1.47439e-06
1.55347e-06
1.63234e-06
1.71291e-06
1.79667e-06
1.88628e-06
1.98598e-06
2.09326e-06
2.19551e-06
2.27506e-06
2.32624e-06
2.37041e-06
2.43182e-06
2.51992e-06
2.61895e-06
2.70343e-06
2.7826e-06
2.84447e-06
2.89507e-06
2.93753e-06
3.00952e-06
3.07884e-06
3.18267e-06
3.17999e-06
3.14448e-06
3.05201e-06
3.23165e-06
4.33615e-06
7.11851e-06
1.18117e-05
2.06174e-05
3.19936e-05
5.63456e-05
0.000114716
0.000253205
0.000578061
0.0015837
0.00381852
0.0377644
0.0466226
0.113274
0.052635
0.0248318
0.0130672
0.00801995
0.00545962
0.00397798
0.00307071
0.00248854
0.00208902
0.00179641
0.00157557
0.00139452
0.00125366
0.00113143
0.00102685
0.00093157
0.000838434
0.000754265
0.000667469
0.00059162
0.000516363
0.000443645
0.000382344
0.000277328
8.56234e-05
2.56776e-05
3.76293e-05
4.14762e-05
4.58231e-05
6.10789e-05
8.20421e-05
0.000122782
0.000162617
0.000164136
0.000136372
0.00014238
0.000111372
5.71218e-05
3.81307e-05
1.96969e-05
1.26946e-05
1.19455e-05
1.42229e-05
1.89974e-05
3.07268e-05
4.14573e-05
5.01579e-05
5.26853e-05
5.18971e-05
4.75588e-05
4.41809e-05
4.09252e-05
3.85416e-05
3.58729e-05
3.33003e-05
3.13213e-05
3.02508e-05
3.00226e-05
3.032e-05
3.10845e-05
3.22275e-05
3.36645e-05
3.52662e-05
3.67746e-05
3.80317e-05
3.89065e-05
3.95343e-05
4.0075e-05
4.05638e-05
4.10476e-05
4.16311e-05
4.25497e-05
4.36975e-05
4.53305e-05
4.69438e-05
4.90791e-05
5.12826e-05
5.42189e-05
5.68531e-05
5.79475e-05
5.73863e-05
5.29742e-05
4.97968e-05
4.06591e-05
3.65613e-05
2.75165e-05
2.67642e-05
3.69983e-05
0.000158773
0.000537212
0.000920237
0.00372826
0.00667518
0.0143652
0.0207664
0.0506419
0.0255102
0.0145262
0.00790203
0.00487361
0.00315899
0.00196611
0.000866898
0.000332608
0.000303528
0.000380101
0.000454669
0.000533
0.00060886
0.000704134
0.00077966
0.000830333
0.000855711
0.000872476
0.000876575
0.000861202
0.00082511
0.000785516
0.000749342
0.000712612
0.000676053
0.000641473
0.00061138
0.000574521
0.000529493
0.000467959
0.000400496
0.00033243
0.000252132
0.000178961
0.000117667
0.000136654
8.54688e-05
5.86371e-05
4.87593e-05
3.34437e-05
2.85255e-05
2.94966e-05
3.31415e-05
3.69906e-05
4.69688e-05
5.32015e-05
5.83062e-05
5.96276e-05
5.77952e-05
5.43586e-05
5.17591e-05
5.0244e-05
4.97623e-05
4.94387e-05
4.89046e-05
4.83961e-05
4.83017e-05
4.86295e-05
4.93012e-05
5.02741e-05
5.14916e-05
5.28868e-05
5.43198e-05
5.55512e-05
5.64689e-05
5.71043e-05
5.76568e-05
5.82084e-05
5.87555e-05
5.93137e-05
5.99423e-05
6.06966e-05
6.15226e-05
6.26009e-05
6.36251e-05
6.48794e-05
6.57541e-05
6.69537e-05
6.72943e-05
6.76847e-05
6.72092e-05
6.78497e-05
6.63045e-05
6.68473e-05
5.80496e-05
5.53154e-05
5.87475e-05
6.29464e-05
0.000293055
0.00133554
0.00156447
0.00444822
0.00714618
0.0102908
0.0124958
0.0302416
0.0122565
0.0151744
0.00905627
0.00467591
0.00276465
0.00176944
0.00112667
0.000615274
0.000622873
0.00066013
0.000661271
0.000741729
0.00080948
0.000898471
0.000986084
0.00104394
0.00107277
0.0011065
0.0011445
0.00116041
0.00114254
0.0010994
0.00102606
0.000940886
0.000855257
0.000777451
0.000701664
0.000621104
0.000547155
0.00047734
0.000412558
0.000362906
0.000281907
0.000199971
0.00013594
0.000210953
0.000109621
7.70247e-05
6.86793e-05
6.32223e-05
5.75282e-05
5.47704e-05
5.621e-05
5.62976e-05
6.24263e-05
6.55242e-05
6.73519e-05
6.70318e-05
6.38442e-05
5.97991e-05
5.77418e-05
5.73973e-05
5.85628e-05
6.02748e-05
6.18324e-05
6.31145e-05
6.43339e-05
6.54229e-05
6.65145e-05
6.76232e-05
6.87648e-05
6.9928e-05
7.10446e-05
7.199e-05
7.26512e-05
7.31437e-05
7.36042e-05
7.40512e-05
7.45048e-05
7.49943e-05
7.55183e-05
7.60475e-05
7.65229e-05
7.70209e-05
7.73404e-05
7.75686e-05
7.73485e-05
7.7486e-05
7.72928e-05
7.78526e-05
7.8621e-05
8.14915e-05
8.55504e-05
9.53086e-05
8.8437e-05
9.75977e-05
0.000147625
0.000308953
0.00127481
0.00315438
0.00276686
0.00354885
0.00640026
0.00667577
0.00641218
0.0253772
0.00897267
0.0114794
0.00705867
0.00368381
0.00232084
0.00155267
0.0010453
0.000747016
0.00089887
0.000977611
0.00105039
0.00115952
0.00124965
0.00137599
0.00147628
0.00151802
0.00148694
0.00148538
0.00152823
0.00159747
0.00163186
0.00161791
0.00151154
0.00134844
0.0011745
0.00102428
0.000900726
0.000788026
0.000686414
0.000599111
0.000516057
0.00048629
0.000424387
0.000288506
0.000193068
0.00035659
0.000163003
0.000100452
8.60812e-05
8.62342e-05
8.77802e-05
8.29132e-05
8.05034e-05
7.64693e-05
7.66375e-05
7.87488e-05
7.94799e-05
7.76502e-05
7.28653e-05
6.74645e-05
6.47927e-05
6.47691e-05
6.64185e-05
6.87908e-05
7.12222e-05
7.36409e-05
7.57397e-05
7.72913e-05
7.86621e-05
7.99476e-05
8.1201e-05
8.23966e-05
8.34885e-05
8.43493e-05
8.49149e-05
8.52835e-05
8.55519e-05
8.57672e-05
8.59914e-05
8.62902e-05
8.65975e-05
8.69068e-05
8.71344e-05
8.72598e-05
8.71465e-05
8.71159e-05
8.71665e-05
8.80904e-05
8.95545e-05
9.10317e-05
9.23893e-05
9.34301e-05
9.57202e-05
0.000107517
0.000116284
0.000147789
0.000339268
0.00127317
0.00404941
0.00586166
0.0048613
0.00487502
0.00859526
0.00835444
0.00719147
0.0284254
0.00660934
0.00357372
0.00264762
0.002031
0.00157705
0.000994124
0.000858795
0.000882327
0.00113777
0.00133327
0.00152897
0.00169673
0.00185482
0.00201497
0.00207546
0.00183917
0.00168881
0.00164243
0.00165746
0.00175334
0.00187095
0.00195203
0.00198572
0.00195254
0.0017343
0.00149036
0.00130058
0.00110495
0.000919822
0.000760904
0.000613342
0.000586232
0.00059098
0.000470855
0.000298347
0.000592948
0.000236618
0.000135982
0.000105066
9.7713e-05
0.000101124
9.93279e-05
9.72195e-05
9.45098e-05
9.19988e-05
9.35156e-05
9.26103e-05
8.82733e-05
7.96111e-05
7.16823e-05
6.77131e-05
6.83321e-05
7.15044e-05
7.57489e-05
8.00212e-05
8.3784e-05
8.68901e-05
8.93811e-05
9.1453e-05
9.31439e-05
9.45835e-05
9.59307e-05
9.7164e-05
9.813e-05
9.86993e-05
9.89881e-05
9.91496e-05
9.92579e-05
9.93556e-05
9.94895e-05
9.97181e-05
9.98775e-05
9.99846e-05
9.99209e-05
9.973e-05
9.94715e-05
9.99557e-05
0.000101377
0.000104391
0.000106719
0.000107164
0.000107016
0.000108655
0.000120211
0.000136448
0.000174953
0.000518572
0.00275871
0.00917987
0.0135792
0.0152443
0.0184271
0.0277545
0.0087708
0.00832927
0.0265966
0.00312733
0.00140359
0.00115917
0.00114029
0.000946381
0.000912097
0.000997186
0.00126804
0.00164923
0.00202313
0.00228687
0.00249644
0.00262866
0.00266356
0.00239257
0.00179549
0.00145416
0.00132807
0.00129544
0.00135075
0.00154834
0.00182964
0.00209539
0.00226653
0.00235255
0.00218239
0.00195334
0.00166224
0.00133855
0.00106511
0.000846933
0.000671092
0.000691201
0.000666072
0.000558935
0.000864178
0.000284011
0.000173247
0.000133784
0.000121521
0.000120684
0.000112965
0.000111558
0.000110576
0.000105569
0.000105082
9.95867e-05
9.26143e-05
8.13313e-05
7.18602e-05
6.68129e-05
6.77735e-05
7.17711e-05
7.69573e-05
8.22546e-05
8.69155e-05
9.07017e-05
9.40588e-05
9.67645e-05
9.89025e-05
0.00010067
0.000102196
0.000103517
0.000104459
0.000104861
0.000104885
0.000104744
0.000104535
0.000104303
0.000104166
0.00010423
0.000104141
0.000104039
0.000103671
0.000103278
0.00010276
0.000103586
0.000105011
0.000109888
0.000112557
0.000113154
0.000112451
0.000117968
0.000132039
0.000146298
0.000201319
0.000700665
0.005389
0.0169224
0.0214322
0.0197312
0.0214979
0.0220358
0.00762889
0.00715627
0.0245959
0.00183201
0.000993787
0.000929401
0.0011004
0.00109892
0.00140381
0.00180256
0.00232739
0.00272641
0.00294961
0.00302022
0.0030195
0.00288334
0.00252937
0.00192381
0.00136485
0.00110882
0.000969646
0.000877765
0.000843315
0.000889902
0.00111299
0.0015483
0.00213019
0.00257863
0.00278083
0.00272828
0.00230099
0.00178726
0.00136331
0.00108259
0.000741489
0.000671383
0.000702002
0.000679489
0.000878061
0.000302858
0.000210607
0.000156383
0.000147698
0.000146503
0.000135415
0.000129208
0.000126789
0.000113729
0.000110142
0.000101372
9.27848e-05
7.7051e-05
6.45747e-05
5.84623e-05
6.00326e-05
6.50647e-05
7.1515e-05
7.80247e-05
8.38975e-05
8.89198e-05
9.28827e-05
9.60226e-05
9.84105e-05
0.000100287
0.000101807
0.000103063
0.000103845
0.00010398
0.000103663
0.000103153
0.000102573
0.000101942
0.0001014
0.00010118
0.000100721
0.000100301
9.95383e-05
9.88725e-05
9.75915e-05
9.91723e-05
0.000100236
0.000106743
0.000109513
0.000110354
0.000110693
0.000118322
0.000132193
0.000146352
0.000207619
0.000486009
0.00189799
0.00572345
0.0120895
0.020379
0.0205336
0.00943441
0.00540258
0.00542027
0.0239039
0.0017763
0.00132518
0.00129718
0.00168677
0.00189403
0.0023791
0.00261271
0.00283536
0.00291926
0.0029262
0.00284824
0.00272176
0.00244779
0.00204068
0.00150859
0.00114757
0.000982664
0.00087177
0.000755505
0.000697735
0.000686265
0.00077726
0.00102997
0.00157144
0.00247167
0.00302607
0.00322085
0.00293245
0.00231921
0.00154062
0.00091257
0.000816663
0.000730599
0.000766937
0.000836335
0.000685359
0.000316243
0.000239805
0.000167524
0.000154519
0.000153431
0.00014384
0.000136616
0.000134041
0.000116221
0.000110855
9.85994e-05
8.71484e-05
6.72234e-05
5.20081e-05
4.45693e-05
4.73479e-05
5.4271e-05
6.24439e-05
6.99718e-05
7.62662e-05
8.14015e-05
8.54475e-05
8.85712e-05
9.08667e-05
9.25849e-05
9.38406e-05
9.45458e-05
9.45495e-05
9.38254e-05
9.26897e-05
9.14669e-05
9.02361e-05
8.89365e-05
8.75413e-05
8.60193e-05
8.44268e-05
8.30444e-05
8.15414e-05
8.04418e-05
7.88671e-05
7.97328e-05
8.02073e-05
8.60218e-05
9.03153e-05
9.37641e-05
9.28589e-05
8.72814e-05
0.000103315
0.000122487
0.000208975
0.000838835
0.00327431
0.00675717
0.00840697
0.0152686
0.0203925
0.0102023
0.00613145
0.00627125
0.0250332
0.00219585
0.00182284
0.00180635
0.00204422
0.00216785
0.0024111
0.00252203
0.00263365
0.00267339
0.00267592
0.0026448
0.00253141
0.00229856
0.00196372
0.00161295
0.00135032
0.00111284
0.000948343
0.000819423
0.000692494
0.000625905
0.00060656
0.000722122
0.00108084
0.00179325
0.00256888
0.0028448
0.00279038
0.00226103
0.00120851
0.000661319
0.000733924
0.000861171
0.00107089
0.00220997
0.000526564
0.000346787
0.00028927
0.000194541
0.000152098
0.000132727
0.000139771
0.000139905
0.000136261
0.000118394
0.000111514
9.46444e-05
7.94833e-05
5.44873e-05
3.63486e-05
2.83725e-05
2.87469e-05
3.20813e-05
3.67425e-05
4.17681e-05
4.7416e-05
5.23017e-05
5.62195e-05
5.92701e-05
6.14332e-05
6.29002e-05
6.38535e-05
6.44885e-05
6.45681e-05
6.37869e-05
6.25667e-05
6.12319e-05
5.99564e-05
5.88276e-05
5.79515e-05
5.72909e-05
5.64798e-05
5.58035e-05
5.49862e-05
5.46596e-05
5.35041e-05
5.42078e-05
5.38763e-05
5.76852e-05
5.91762e-05
6.16281e-05
6.04153e-05
5.5678e-05
7.38704e-05
9.14716e-05
0.000191636
0.00152491
0.00846494
0.0161635
0.0193545
0.0236842
0.0272524
0.0282802
0.00641569
0.00646926
0.0279263
0.00282188
0.00254154
0.00250545
0.00277945
0.00287486
0.00313868
0.00327977
0.00341359
0.00348527
0.00351059
0.0035091
0.00336075
0.00305254
0.00261899
0.00212314
0.00161912
0.00116653
0.000892695
0.00077065
0.000670911
0.000589697
0.000484569
0.000502815
0.00078989
0.0012831
0.00219208
0.00260262
0.00256524
0.00194538
0.00163592
0.000972047
0.000810565
0.00116792
0.00205376
0.00253917
0.000515023
0.000361284
0.000366613
0.000346046
0.000192753
0.000123606
0.000110699
0.000122796
0.000120609
0.000109078
0.000101228
8.32149e-05
6.30554e-05
4.02251e-05
2.69253e-05
2.18995e-05
2.14739e-05
2.28223e-05
2.50533e-05
2.75938e-05
3.03331e-05
3.27437e-05
3.47318e-05
3.63272e-05
3.74714e-05
3.83285e-05
3.90843e-05
3.97256e-05
3.99375e-05
3.95497e-05
3.89562e-05
3.83377e-05
3.7832e-05
3.74495e-05
3.7081e-05
3.66567e-05
3.61974e-05
3.58936e-05
3.5472e-05
3.53037e-05
3.46093e-05
3.47312e-05
3.41664e-05
3.59437e-05
3.69024e-05
4.03901e-05
4.09623e-05
3.74593e-05
5.00613e-05
6.06245e-05
0.000119116
0.00196389
0.0132722
0.0212265
0.0203167
0.0198602
0.024442
0.0264513
0.00599808
0.00590489
0.0329759
0.00332911
0.00303909
0.00273156
0.00303055
0.00298608
0.00320088
0.00316228
0.0031045
0.00296788
0.00285306
0.00275523
0.00262373
0.00241176
0.00215449
0.00180613
0.00136017
0.000936918
0.000775447
0.000682583
0.000574451
0.000486112
0.000383496
0.00030521
0.000322603
0.000361422
0.000782457
0.00232453
0.00302113
0.00283572
0.00185722
0.00144042
0.00120743
0.00176693
0.00196477
0.00148345
0.000421851
0.000270123
0.000385167
0.000502678
0.000352594
0.000207997
0.000108735
8.70358e-05
8.6334e-05
9.00989e-05