/*--------------------------------*- C++ -*----------------------------------*\
| =========                 |                                                 |
| \\      /  F ield         | OpenFOAM: The Open Source CFD Toolbox           |
|  \\    /   O peration     | Version:  2.3.0                                 |
|   \\  /    A nd           | Web:      www.OpenFOAM.org                      |
|    \\/     M anipulation  |                                                 |
\*---------------------------------------------------------------------------*/
FoamFile
{
    version     2.0;
    format      ascii;
    class       volScalarField;
    location    "38";
    object      k.water;
}
// * * * * * * * * * * * * * * * * * * * * * * * * * * * * * * * * * * * * * //

dimensions      [0 2 -2 0 0 0 0];

internalField   nonuniform List<scalar> 
6144
(
8.94833e-05
7.60815e-05
5.44606e-05
4.58206e-05
3.33494e-05
2.51472e-05
2.05506e-05
1.888e-05
1.8184e-05
2.13255e-05
2.52038e-05
2.85643e-05
2.99162e-05
3.00487e-05
2.87793e-05
2.78672e-05
2.67771e-05
2.60488e-05
2.5216e-05
2.46939e-05
2.45279e-05
2.44778e-05
2.45205e-05
2.46044e-05
2.47226e-05
2.48748e-05
2.50571e-05
2.52924e-05
2.57525e-05
2.62107e-05
2.65531e-05
2.67735e-05
2.69342e-05
2.70578e-05
2.71681e-05
2.72907e-05
2.75301e-05
2.78502e-05
2.83108e-05
2.88189e-05
2.93318e-05
3.02171e-05
3.09106e-05
3.22936e-05
3.22836e-05
3.25929e-05
3.09484e-05
3.22297e-05
3.17184e-05
3.53318e-05
3.35219e-05
4.14733e-05
6.98022e-05
0.000179362
0.000397249
0.000623875
0.00109066
0.00177272
0.00642133
0.00760966
0.0149997
0.00874276
0.00519668
0.00328074
0.00230348
0.0016125
0.000939547
0.000359719
0.000228026
0.000285595
0.000330673
0.000379533
0.00041133
0.000436538
0.000453941
0.000466249
0.000476978
0.00048124
0.000486584
0.000489329
0.00049087
0.000487653
0.000483189
0.00047524
0.000465976
0.000455328
0.000440538
0.000424927
0.000404802
0.000382859
0.000355511
0.000323867
0.000289786
0.000240405
0.000184854
0.000138344
0.000134705
0.000102098
7.55032e-05
6.86605e-05
5.41963e-05
4.77458e-05
4.42481e-05
4.22999e-05
4.10674e-05
4.68069e-05
5.20884e-05
5.65497e-05
5.80324e-05
5.65928e-05
5.36677e-05
5.17218e-05
5.0319e-05
4.99281e-05
5.00212e-05
5.0472e-05
5.12851e-05
5.20488e-05
5.27481e-05
5.33487e-05
5.38735e-05
5.43469e-05
5.47973e-05
5.53236e-05
5.61794e-05
5.68893e-05
5.73986e-05
5.77912e-05
5.81558e-05
5.85022e-05
5.88641e-05
5.92513e-05
5.97938e-05
6.03399e-05
6.11839e-05
6.19071e-05
6.29538e-05
6.38222e-05
6.50467e-05
6.59439e-05
6.61193e-05
6.42421e-05
6.20149e-05
6.20295e-05
6.83967e-05
7.52884e-05
7.66091e-05
8.45407e-05
0.000120765
0.000333707
0.000773148
0.000876343
0.00144266
0.00289828
0.0050653
0.00687471
0.0132738
0.00769097
0.00431017
0.0026065
0.0018365
0.0013296
0.000778526
0.000328209
0.000321199
0.000432054
0.000496989
0.000556372
0.000604593
0.000635492
0.000650789
0.000655454
0.000646115
0.000644082
0.000649323
0.000661402
0.000675997
0.000685864
0.000689505
0.000687112
0.000677277
0.000661599
0.000642106
0.000615138
0.000575992
0.000537086
0.000493868
0.000443557
0.000392444
0.000303921
0.000211158
0.000144677
0.000153713
0.000111642
8.68015e-05
8.22381e-05
7.41941e-05
7.26502e-05
7.04441e-05
6.44585e-05
5.87184e-05
5.95768e-05
6.33892e-05
6.46792e-05
6.30407e-05
6.00135e-05
5.73621e-05
5.63494e-05
5.65092e-05
5.79423e-05
6.0549e-05
6.29826e-05
6.48874e-05
6.65123e-05
6.78233e-05
6.88545e-05
6.96705e-05
7.0327e-05
7.08868e-05
7.1364e-05
7.17469e-05
7.19824e-05
7.21209e-05
7.22298e-05
7.23414e-05
7.24589e-05
7.26269e-05
7.28161e-05
7.29977e-05
7.30679e-05
7.32158e-05
7.31516e-05
7.32427e-05
7.27891e-05
7.29984e-05
7.26931e-05
7.36605e-05
7.24058e-05
7.31108e-05
7.70354e-05
9.07784e-05
0.000107172
0.000124312
0.000136858
0.000231851
0.000620462
0.00132776
0.0014779
0.00148089
0.00255506
0.00561117
0.00680698
0.0130407
0.00724707
0.00356428
0.00211604
0.00155908
0.00110357
0.00053882
0.000362727
0.000475534
0.00055915
0.000632054
0.000690457
0.000739933
0.000771208
0.000785899
0.000764089
0.000718423
0.000704565
0.000704347
0.000718495
0.000739112
0.000757314
0.000767928
0.000773014
0.000771797
0.000761275
0.000744678
0.000718321
0.000676439
0.000633907
0.000594875
0.000542759
0.000501793
0.000420754
0.000282761
0.000162751
0.00017502
0.000124457
9.56754e-05
8.97896e-05
8.3345e-05
8.5901e-05
8.57715e-05
7.82583e-05
6.93575e-05
6.55232e-05
6.73523e-05
6.71789e-05
6.43369e-05
6.06261e-05
5.80791e-05
5.74451e-05
5.83498e-05
6.04911e-05
6.30392e-05
6.54474e-05
6.74291e-05
6.91711e-05
7.05601e-05
7.1637e-05
7.24677e-05
7.3127e-05
7.3686e-05
7.41682e-05
7.45415e-05
7.47602e-05
7.48617e-05
7.49099e-05
7.49305e-05
7.49469e-05
7.49985e-05
7.50822e-05
7.51741e-05
7.51894e-05
7.52479e-05
7.50572e-05
7.4912e-05
7.42613e-05
7.41134e-05
7.39273e-05
7.50465e-05
7.56853e-05
7.82214e-05
8.25971e-05
9.6079e-05
0.00011697
0.000146623
0.00021545
0.000500497
0.00127241
0.00182767
0.00217092
0.00191051
0.00275816
0.00545306
0.00603967
0.0131125
0.00578175
0.00185055
0.00115706
0.000983286
0.000644801
0.000463025
0.000462316
0.000607047
0.00067929
0.00075122
0.00080668
0.000850656
0.000870909
0.000874107
0.000812475
0.000736839
0.000709521
0.000701779
0.000706072
0.000730536
0.000753663
0.000777752
0.000798639
0.000808167
0.000807078
0.000794199
0.000772802
0.000732067
0.000688454
0.0006534
0.000595433
0.00055999
0.000512573
0.000398619
0.000197026
0.000193923
0.000135422
0.000108965
0.000103211
8.94771e-05
8.85798e-05
8.63772e-05
8.06002e-05
7.61289e-05
7.0141e-05
7.00228e-05
6.76895e-05
6.36416e-05
5.89434e-05
5.64221e-05
5.59212e-05
5.72826e-05
5.97808e-05
6.26421e-05
6.54036e-05
6.79243e-05
7.0103e-05
7.17088e-05
7.28703e-05
7.36745e-05
7.42445e-05
7.46655e-05
7.49906e-05
7.51949e-05
7.52418e-05
7.51503e-05
7.49747e-05
7.47702e-05
7.45772e-05
7.44164e-05
7.42858e-05
7.41597e-05
7.39369e-05
7.36662e-05
7.30405e-05
7.23989e-05
7.15019e-05
7.13039e-05
7.21154e-05
7.45951e-05
7.67406e-05
8.01992e-05
8.28354e-05
9.41513e-05
0.000120171
0.000157105
0.000260879
0.000676032
0.00173667
0.00243108
0.00321382
0.00358442
0.00358706
0.0043831
0.00446675
0.0112903
0.00272193
0.00069413
0.000637181
0.000573808
0.000527785
0.000516717
0.000647203
0.000734194
0.000815251
0.000873044
0.000910352
0.000925937
0.000920396
0.000842607
0.000711356
0.000590658
0.000534651
0.000507332
0.000498551
0.000514164
0.000548069
0.000608017
0.000672248
0.000734694
0.000778006
0.00079942
0.00079137
0.000754009
0.000714336
0.000693593
0.000663096
0.000617321
0.000582715
0.000497272
0.000263018
0.000202867
0.000144796
0.000126405
0.000127196
0.000103398
9.94263e-05
8.32892e-05
7.99568e-05
7.91864e-05
7.1701e-05
7.04577e-05
6.68316e-05
6.25152e-05
5.68064e-05
5.24631e-05
5.13401e-05
5.30911e-05
5.64709e-05
6.052e-05
6.43376e-05
6.75439e-05
6.99168e-05
7.15768e-05
7.27288e-05
7.34767e-05
7.39525e-05
7.4262e-05
7.44699e-05
7.45547e-05
7.44477e-05
7.42062e-05
7.38902e-05
7.35423e-05
7.32091e-05
7.29184e-05
7.26531e-05
7.23737e-05
7.19674e-05
7.13849e-05
7.04744e-05
6.95052e-05
6.86537e-05
6.88149e-05
7.05574e-05
7.43793e-05
7.68038e-05
7.8286e-05
7.90142e-05
8.95724e-05
0.000117934
0.000158668
0.000225082
0.000640922
0.00214277
0.00270171
0.00285672
0.00331408
0.00322017
0.00350074
0.00351834
0.00968425
0.00145523
0.000581837
0.000569646
0.000582718
0.000610345
0.000726422
0.000818816
0.000874375
0.000904722
0.000921024
0.000923538
0.000885946
0.000820969
0.000699122
0.000566084
0.000461352
0.000410314
0.000367546
0.000346139
0.000339752
0.000349191
0.000385434
0.000472183
0.000601386
0.000698398
0.000740779
0.000753529
0.000699615
0.000630986
0.000566671
0.000608011
0.000615068
0.000603398
0.000556721
0.000337768
0.000197253
0.000156057
0.000142035
0.000152541
0.00012324
0.000116271
8.94925e-05
8.11737e-05
8.18486e-05
7.34712e-05
7.08324e-05
6.55622e-05
5.89886e-05
5.131e-05
4.72632e-05
4.63448e-05
4.82257e-05
5.13442e-05
5.49203e-05
5.85856e-05
6.18919e-05
6.44824e-05
6.6379e-05
6.76396e-05
6.83469e-05
6.87154e-05
6.88799e-05
6.89617e-05
6.8924e-05
6.86951e-05
6.82472e-05
6.7662e-05
6.70142e-05
6.63806e-05
6.5847e-05
6.53792e-05
6.48141e-05
6.41838e-05
6.3393e-05
6.24914e-05
6.1555e-05
6.13197e-05
6.22548e-05
6.54396e-05
6.95481e-05
7.03699e-05
7.00205e-05
6.98752e-05
7.96226e-05
0.000106958
0.00015724
0.000220384
0.000475143
0.00105197
0.00199502
0.00341494
0.00369974
0.00334254
0.00294774
0.00294456
0.00762451
0.00116634
0.000672648
0.000672022
0.00073841
0.000787728
0.000840462
0.000862872
0.000874388
0.000879613
0.000856405
0.000831381
0.000792216
0.000717291
0.00062522
0.000521432
0.000453955
0.000405536
0.000365041
0.000335579
0.000319423
0.000305151
0.000294379
0.000297835
0.00036324
0.000582942
0.000724611
0.000760048
0.000718669
0.000609237
0.000482207
0.000473987
0.00054953
0.000597974
0.000577907
0.000377851
0.000168808
0.00016055
0.000149641
0.000163232
0.000132864
0.000122837
9.41644e-05
7.71432e-05
8.0565e-05
7.26633e-05
6.91512e-05
6.27424e-05
5.77271e-05
4.94465e-05
4.3677e-05
4.18543e-05
4.42093e-05
4.82676e-05
5.26926e-05
5.67773e-05
6.02567e-05
6.29216e-05
6.48734e-05
6.62106e-05
6.7031e-05
6.75304e-05
6.78258e-05
6.79654e-05
6.78909e-05
6.7565e-05
6.70225e-05
6.63909e-05
6.57361e-05
6.50905e-05
6.44871e-05
6.39102e-05
6.3254e-05
6.26047e-05
6.18382e-05
6.10496e-05
6.02456e-05
6.02481e-05
6.13362e-05
6.45014e-05
6.85608e-05
6.94224e-05
6.79714e-05
6.60624e-05
7.39502e-05
0.000100321
0.00015506
0.00027651
0.000873952
0.00181546
0.00219739
0.00333485
0.00395118
0.00350181
0.00277933
0.00277203
0.00662978
0.00116609
0.000799789
0.00080483
0.000825369
0.000837458
0.000844861
0.000844319
0.000839469
0.000828179
0.000814591
0.000800024
0.000790897
0.000752689
0.000698553
0.000633262
0.000569774
0.000517488
0.000477786
0.00043957
0.000398709
0.000348092
0.000304097
0.000272557
0.000263437
0.000327707
0.000612882
0.000739932
0.000747892
0.000641419
0.000494988
0.000383191
0.000455869
0.000576029
0.000597618
0.000436047
0.00014731
0.000149639
0.00015262
0.000167306
0.00013274
0.000118841
9.70673e-05
7.30872e-05
7.37421e-05
6.83825e-05
6.51855e-05
5.88077e-05
5.21595e-05
4.2071e-05
3.41174e-05
3.11224e-05
3.31817e-05
3.73446e-05
4.16228e-05
4.52432e-05
4.8215e-05
5.06056e-05
5.24519e-05
5.38073e-05
5.47165e-05
5.53148e-05
5.5696e-05
5.59066e-05
5.58632e-05
5.55256e-05
5.50047e-05
5.44237e-05
5.3851e-05
5.33249e-05
5.28401e-05
5.23849e-05
5.18693e-05
5.14147e-05
5.09375e-05
5.05798e-05
5.02469e-05
5.05495e-05
5.15719e-05
5.37392e-05
5.60099e-05
5.58571e-05
5.2476e-05
5.12185e-05
6.08564e-05
8.883e-05
0.000149627
0.000394834
0.00156068
0.00282146
0.00334941
0.0037718
0.00413914
0.00381023
0.00276535
0.00274958
0.00784932
0.00132484
0.000827249
0.000826895
0.000824598
0.000811337
0.000804917
0.000782008
0.000769769
0.000750507
0.000735633
0.000723507
0.000725762
0.000743122
0.000737212
0.000701359
0.00064642
0.000585211
0.000531204
0.000495377
0.000461948
0.000411861
0.000364997
0.000307115
0.000226796
0.000173719
0.000311386
0.000599964
0.000666682
0.000639437
0.000544558
0.000409908
0.000434849
0.000552783
0.000576968
0.000442731
0.000137972
0.000134874
0.000159865
0.000176737
0.000132329
0.000119616
0.00010096
7.4772e-05
6.50301e-05
6.13142e-05
5.8766e-05
5.26807e-05
4.49904e-05
3.4861e-05
2.67448e-05
2.32798e-05
2.4304e-05
2.7555e-05
3.09568e-05
3.37644e-05
3.61182e-05
3.79405e-05
3.93383e-05
4.04157e-05
4.11831e-05
4.17095e-05
4.20772e-05
4.23097e-05
4.2368e-05
4.22328e-05
4.19768e-05
4.16929e-05
4.14437e-05
4.1241e-05
4.10453e-05
4.08405e-05
4.06001e-05
4.04108e-05
4.0232e-05
4.01701e-05
4.02056e-05
4.05869e-05
4.12238e-05
4.19677e-05
4.23619e-05
4.17569e-05
3.91718e-05
4.02387e-05
5.02994e-05
7.55158e-05
0.0001241
0.000309099
0.00166268
0.00291604
0.00317431
0.00284513
0.00330776
0.00327892
0.00314119
0.00315956
0.00960748
0.00166652
0.000879978
0.000886025
0.000923217
0.000860841
0.000828839
0.000787143
0.000746551
0.000719764
0.000698971
0.000682568
0.00067462
0.000683239
0.000690081
0.000681178
0.000648138
0.000589354
0.000539613
0.00050329
0.000468206
0.000423587
0.000380714
0.000344229
0.000266178
0.000142451
0.000139661
0.000409399
0.000590983
0.000643954
0.000592955
0.000454928
0.00043028
0.000543566
0.000566781
0.000438425
0.000132708
0.000108152
0.000123374
0.000143786
0.000123517
0.000108767
9.09358e-05
6.97933e-05
5.66376e-05
5.22055e-05
4.9879e-05
4.40254e-05
3.67154e-05
2.7852e-05
2.13238e-05
1.79893e-05
1.81872e-05
2.03318e-05
2.28239e-05
2.48838e-05
2.66088e-05
2.79709e-05
2.90397e-05
2.98887e-05
3.05314e-05
3.10266e-05
3.14263e-05
3.16912e-05
3.18178e-05
3.17915e-05
3.16921e-05
3.1584e-05
3.15259e-05
3.15321e-05
3.15492e-05
3.15515e-05
3.1488e-05
3.14486e-05
3.14785e-05
3.16249e-05
3.18541e-05
3.21812e-05
3.2582e-05
3.27425e-05
3.23844e-05
3.18225e-05
3.0711e-05
3.2539e-05
4.21302e-05
6.44373e-05
0.000101528
0.000169749
0.00048437
0.00123266
0.00245624
0.00275538
0.00381657
0.00376963
0.00377259
0.00385265
0.0106956
0.00285498
0.000968158
0.000834856
0.000976377
0.000861467
0.000829582
0.000783902
0.00074137
0.000706672
0.000680649
0.000664283
0.000654317
0.000652033
0.000652055
0.000645307
0.000622786
0.000579209
0.000539989
0.000509481
0.000477834
0.000443899
0.000398408
0.000357237
0.00029304
0.000148909
9.32296e-05
0.000182463
0.000318511
0.000486077
0.000587402
0.000477053
0.000446725
0.000532775
0.00054849
0.000427899
0.000125108
8.98213e-05
6.66108e-05
7.52412e-05
7.59555e-05
7.88902e-05
6.80829e-05
5.67993e-05
4.92521e-05
4.85905e-05
4.69391e-05
3.84393e-05
2.95104e-05
2.13083e-05
1.6265e-05
1.40573e-05
1.44358e-05
1.60717e-05
1.78998e-05
1.93942e-05
2.06677e-05
2.17108e-05
2.2605e-05
2.33524e-05
2.39664e-05
2.44964e-05
2.49742e-05
2.53716e-05
2.56261e-05
2.57623e-05
2.58096e-05
2.58503e-05
2.59588e-05
2.61329e-05
2.62807e-05
2.63706e-05
2.64283e-05
2.64723e-05
2.64857e-05
2.65152e-05
2.65327e-05
2.65906e-05
2.66815e-05
2.66475e-05
2.62204e-05
2.58132e-05
2.52474e-05
2.71395e-05
3.67724e-05
5.87735e-05
9.59532e-05
0.00014742
0.000253552
0.00048356
0.00136169
0.00196391
0.00305261
0.00320153
0.00439376
0.00478041
0.0117887
0.00477133
0.00140027
0.000861782
0.00101138
0.00090588
0.000816079
0.000775167
0.000744061
0.000719543
0.000701203
0.000688719
0.000678652
0.000671307
0.000662592
0.000649919
0.000622852
0.000584079
0.000547687
0.000517996
0.000485558
0.000450749
0.000405025
0.000362155
0.000300167
0.000153821
8.07215e-05
0.000125263
0.000190086
0.000291198
0.000437018
0.000469057
0.000444266
0.000515029
0.000526589
0.000416541
6.42723e-05
5.51546e-05
5.07045e-05
5.36565e-05
5.01137e-05
4.99984e-05
4.29682e-05
3.95292e-05
3.93644e-05
4.33514e-05
4.23595e-05
3.35476e-05
2.41002e-05
1.64897e-05
1.34067e-05
1.22406e-05
1.24993e-05
1.35756e-05
1.47483e-05
1.57893e-05
1.66579e-05
1.73631e-05
1.79689e-05
1.85432e-05
1.90939e-05
1.96095e-05
2.01108e-05
2.05785e-05
2.09505e-05
2.11574e-05
2.12613e-05
2.13599e-05
2.15367e-05
2.17879e-05
2.20213e-05
2.21941e-05
2.23217e-05
2.24125e-05
2.24749e-05
2.25239e-05
2.265e-05
2.29084e-05
2.31753e-05
2.3116e-05
2.27506e-05
2.23144e-05
2.21951e-05
2.44285e-05
3.32754e-05
5.2914e-05
8.81547e-05
0.000130242
0.000188819
0.000312985
0.000760161
0.00130045
0.00162808
0.002293
0.00500244
0.00590924
0.0126212
0.00620968
0.00242081
0.00115625
0.00110045
0.00102465
0.000926678
0.000865031
0.000819578
0.000784499
0.000756714
0.000735264
0.000716657
0.000702377
0.000684663
0.000662118
0.000629358
0.000589725
0.000551472
0.000516505
0.000481122
0.000446679
0.000402785
0.000361413
0.000302132
0.000156368
7.20437e-05
9.80042e-05
0.000128076
0.000184843
0.000331245
0.000410716
0.000436979
0.000489976
0.000492421
0.000400015
4.97251e-05
4.77898e-05
4.45073e-05
4.56065e-05
4.06727e-05
3.96879e-05
3.29623e-05
3.08368e-05
3.40635e-05
3.76614e-05
3.57016e-05
2.61138e-05
1.78963e-05
1.3707e-05
1.18509e-05
1.07596e-05
1.09703e-05
1.18536e-05
1.27782e-05
1.3558e-05
1.42271e-05
1.47836e-05
1.52773e-05
1.56901e-05
1.60578e-05
1.64208e-05
1.6807e-05
1.7205e-05
1.75502e-05
1.77359e-05
1.77992e-05
1.78583e-05
1.80201e-05
1.8312e-05
1.86253e-05
1.88648e-05
1.9065e-05
1.92113e-05
1.93375e-05
1.94593e-05
1.96453e-05
1.98053e-05
1.99834e-05
1.98793e-05
1.95781e-05
1.91449e-05
1.91742e-05
2.13933e-05
2.96391e-05
4.65356e-05
7.92013e-05
0.000115402
0.000159518
0.000257574
0.000495037
0.000881032
0.00114164
0.00231252
0.00551605
0.00650657
0.0125802
0.00714298
0.00383455
0.00206346
0.00154331
0.00130411
0.00114782
0.0010382
0.000953835
0.000886084
0.000830152
0.000785541
0.000748113
0.00071476
0.000682817
0.000652402
0.000617451
0.000578845
0.000541063
0.000501283
0.000463744
0.000429041
0.000387826
0.000351636
0.000291992
0.000143669
6.37833e-05
8.34853e-05
9.59227e-05
0.000122747
0.000208203
0.0003313
0.000412528
0.00044992
0.000448628
0.000376318
4.65679e-05
3.91562e-05
3.44754e-05
3.36177e-05
2.98298e-05
2.73318e-05
2.4232e-05
2.44473e-05
2.66196e-05
2.66876e-05
2.41788e-05
1.72321e-05
1.32188e-05
1.09026e-05
9.60043e-06
8.92833e-06
9.15942e-06
9.85515e-06
1.05535e-05
1.11427e-05
1.16441e-05
1.2081e-05
1.24927e-05
1.28797e-05
1.32573e-05
1.36521e-05
1.40857e-05
1.45387e-05
1.49459e-05
1.52186e-05
1.53659e-05
1.55039e-05
1.57292e-05
1.60541e-05
1.63786e-05
1.66364e-05
1.68609e-05
1.70287e-05
1.71738e-05
1.73082e-05
1.75165e-05
1.76963e-05
1.79189e-05
1.78325e-05
1.76144e-05
1.72003e-05
1.7305e-05
1.94989e-05
2.67046e-05
4.09078e-05
6.67899e-05
9.16904e-05
0.000136051
0.00022853
0.000395161
0.000607942
0.00121995
0.00270457
0.00516555
0.00657505
0.0126661
0.00776488
0.00476024
0.00298775
0.0021449
0.00167578
0.0013853
0.00119618
0.00106254
0.000961793
0.000880601
0.000814182
0.000757959
0.000710504
0.000668665
0.000631384
0.000594956
0.000557541
0.000520634
0.000482349
0.000445035
0.000409532
0.000371177
0.000335536
0.00028045
0.000141552
5.8519e-05
7.39987e-05
7.99684e-05
9.09027e-05
0.000132743
0.000223621
0.000336996
0.000371379
0.000370018
0.000323416
5.17388e-05
4.5158e-05
2.8073e-05
2.5145e-05
2.035e-05
1.8725e-05
1.49874e-05
1.54329e-05
1.58886e-05
1.46685e-05
1.29549e-05
1.06269e-05
8.96988e-06
7.66932e-06
6.76487e-06
6.35687e-06
6.51645e-06
6.95253e-06
7.38068e-06
7.74187e-06
8.0526e-06
8.33632e-06
8.61438e-06
8.89373e-06
9.17945e-06
9.48024e-06
9.80943e-06
1.01575e-05
1.04834e-05
1.07327e-05
1.08908e-05
1.10259e-05
1.12133e-05
1.14802e-05
1.17766e-05
1.2026e-05
1.22571e-05
1.24355e-05
1.25801e-05
1.27003e-05
1.29045e-05
1.3099e-05
1.33889e-05
1.3378e-05
1.32755e-05
1.30109e-05
1.35113e-05
1.64274e-05
2.28472e-05
3.20153e-05
4.63981e-05
6.21659e-05
9.06191e-05
0.000145628
0.000246967
0.000428603
0.000839032
0.00151016
0.00690803
0.00790939
0.0144344
0.00864928
0.0052447
0.003419
0.00246909
0.00191031
0.00154622
0.00130048
0.00112986
0.00100509
0.000908653
0.000832458
0.000767316
0.000714644
0.000667419
0.00062563
0.000586393
0.000546686
0.000509483
0.000469588
0.000433201
0.000395581
0.000357367
0.000323607
0.000261617
0.000120138
5.34632e-05
6.89075e-05
7.35212e-05
7.86602e-05
9.55161e-05
0.000116529
0.000152817
0.000183579
0.00018443
0.000162912
0.000170187
0.000144494
9.25971e-05
7.07459e-05
4.55629e-05
3.40055e-05
3.26583e-05
3.66899e-05
4.45047e-05
6.13374e-05
7.49146e-05
8.50798e-05
8.79339e-05
8.70728e-05
8.21656e-05
7.82408e-05
7.43618e-05
7.14591e-05
6.81346e-05
6.48492e-05
6.2265e-05
6.08491e-05
6.05539e-05
6.09645e-05
6.19968e-05
6.35194e-05
6.54063e-05
6.74773e-05
6.94005e-05
7.09855e-05
7.20824e-05
7.28687e-05
7.3545e-05
7.41554e-05
7.47575e-05
7.5478e-05
7.6598e-05
7.7983e-05
7.99284e-05
8.18271e-05
8.43068e-05
8.68205e-05
9.0124e-05
9.30166e-05
9.42284e-05
9.36093e-05
8.87747e-05
8.51877e-05
7.44479e-05
6.93411e-05
5.74143e-05
5.64123e-05
7.01053e-05
0.000184872
0.000417143
0.000596771
0.00151485
0.00223722
0.00372882
0.00477036
0.00865048
0.00547109
0.00375884
0.0025054
0.00181578
0.00136075
0.000992989
0.000575374
0.000303306
0.000285159
0.000331469
0.000373648
0.000415475
0.000454093
0.00050038
0.000535616
0.000558542
0.000569899
0.000577391
0.000579323
0.000572659
0.000556726
0.000538852
0.000522262
0.000505109
0.000487733
0.000470994
0.000456214
0.000437745
0.000414667
0.000382002
0.000344406
0.000304277
0.00025314
0.000201323
0.000149513
0.000321754
0.000237097
0.000174559
0.000148111
0.000111356
0.000101906
0.000107562
0.000116727
0.000125431
0.000147383
0.000160084
0.000168005
0.000168084
0.000161382
0.000152728
0.000147353
0.000145386
0.000145917
0.000146481
0.000146626
0.000146424
0.000146906
0.000148142
0.000149852
0.000151951
0.000154351
0.000156972
0.000159555
0.000161667
0.00016318
0.000164172
0.000164961
0.000165692
0.000166393
0.000167121
0.000168001
0.000169108
0.000170327
0.000171971
0.00017345
0.000175379
0.000176812
0.000179381
0.000180935
0.000182873
0.000182331
0.000183438
0.000182649
0.000185916
0.000171984
0.000164883
0.000154496
0.000130111
0.00035374
0.00115313
0.00137413
0.00313561
0.00444191
0.00670055
0.00700117
0.00181741
0.00384443
0.00466435
0.00339861
0.00216471
0.00149764
0.00108775
0.000788492
0.00053841
0.000588073
0.000641498
0.000665698
0.00076734
0.000861789
0.000960729
0.00104456
0.00108543
0.001101
0.00111084
0.00112351
0.00112939
0.00111697
0.00107955
0.00101722
0.000950666
0.000884856
0.000827699
0.000772698
0.00071709
0.000661104
0.000600848
0.00054014
0.000479578
0.000362413
0.000268101
0.000164588
0.000390664
0.000267753
0.000216371
0.000202134
0.000190463
0.000177881
0.000171695
0.000173975
0.000173929
0.000183917
0.000187018
0.000187475
0.00018236
0.000171349
0.000160376
0.000155038
0.000155285
0.000159245
0.000164038
0.000168625
0.000172336
0.000175802
0.000178849
0.000181488
0.000183783
0.000185847
0.000187785
0.000189532
0.000190885
0.000191692
0.000192131
0.000192405
0.000192603
0.000192811
0.000193091
0.000193509
0.000193937
0.000194283
0.000194654
0.000194763
0.000195012
0.000195023
0.000196552
0.000198544
0.000201301
0.000202265
0.000205291
0.000210582
0.000230302
0.000229751
0.000243433
0.000275958
0.000386694
0.00107044
0.00210766
0.00203158
0.00276829
0.00425727
0.00499055
0.00475748
0.00136314
0.00342626
0.00430127
0.00308757
0.00197853
0.00145217
0.00105404
0.000799799
0.000711399
0.000873222
0.000969956
0.00106506
0.00118512
0.00127362
0.0013414
0.00139214
0.0014024
0.00135058
0.00133728
0.00134442
0.00136798
0.00137862
0.00137268
0.00132626
0.00122647
0.00111559
0.00101206
0.000924498
0.000843982
0.000769319
0.000707076
0.000646871
0.000630181
0.000581701
0.000446098
0.000207934
0.000557009
0.000342774
0.00025413
0.000232346
0.000231944
0.000235586
0.000228208
0.000222505
0.00021214
0.000208186
0.000206514
0.000200367
0.000190139
0.000175667
0.000162628
0.000156755
0.000157767
0.000163165
0.000170209
0.000177119
0.000183093
0.000188432
0.000192644
0.00019595
0.000198531
0.00020063
0.000202424
0.000203939
0.000205002
0.000205474
0.000205536
0.000205367
0.000205097
0.000204862
0.000204742
0.000204775
0.000204756
0.000204597
0.000204219
0.000203492
0.000202856
0.000202428
0.000203933
0.000207673
0.000211466
0.000213678
0.000215219
0.000218601
0.000240464
0.000268986
0.000313397
0.000461971
0.00108432
0.00240296
0.0031611
0.00285911
0.00317386
0.00473461
0.00446146
0.00397738
0.00133414
0.0027346
0.00202341
0.00176601
0.00144167
0.00119125
0.000847042
0.000793137
0.00087395
0.00111548
0.00130653
0.00148015
0.00159395
0.00165703
0.00168893
0.00169348
0.00155987
0.00143386
0.00139095
0.00138629
0.0014245
0.00147491
0.0015121
0.00152902
0.00151113
0.00140147
0.00125179
0.00112989
0.00100446
0.000879147
0.000770444
0.000672895
0.000674933
0.000704509
0.000619508
0.000277857
0.000771055
0.000423259
0.000300717
0.000261102
0.000248738
0.000257605
0.000255485
0.000249005
0.000240597
0.000227369
0.000222117
0.000211854
0.000198604
0.000179179
0.000164201
0.000157169
0.00015833
0.000164252
0.000172081
0.000179849
0.000187174
0.000193672
0.000198597
0.000202371
0.000205224
0.000207483
0.000209356
0.00021091
0.000211959
0.000212313
0.000212152
0.00021172
0.000211187
0.000210701
0.000210369
0.000210202
0.000209944
0.000209554
0.000208839
0.000207869
0.000207068
0.000207673
0.000210227
0.000216159
0.000220432
0.000220758
0.000218829
0.000221179
0.000243335
0.000283183
0.000347675
0.000599646
0.00178537
0.00413533
0.00542526
0.00593376
0.00652353
0.00808066
0.00245018
0.0020621
0.00138713
0.00183218
0.00115685
0.00100626
0.00099097
0.000869016
0.0008616
0.000962486
0.00123224
0.00154474
0.00180987
0.00196439
0.0020337
0.00205296
0.00198866
0.00177509
0.00141207
0.00120935
0.00112804
0.00110655
0.00114394
0.00125347
0.00142147
0.00157354
0.00165801
0.00169351
0.00163548
0.00149849
0.00133097
0.00113849
0.00096626
0.000799759
0.000693684
0.000721088
0.000727067
0.000422341
0.000978242
0.000460342
0.000336159
0.000293177
0.000277827
0.000282061
0.000269855
0.000263703
0.000257383
0.000239171
0.000231563
0.00021671
0.00020137
0.000178584
0.000156464
0.000145015
0.000146549
0.000154741
0.000165867
0.000177168
0.000186965
0.000194154
0.000199531
0.000203642
0.0002067
0.00020908
0.000211031
0.000212631
0.000213681
0.000213968
0.000213668
0.000213077
0.00021238
0.000211718
0.000211218
0.000210865
0.00021037
0.00020976
0.000208738
0.000207475
0.000206226
0.000207243
0.000210044
0.00021702
0.000221562
0.000221166
0.000216346
0.000220167
0.000245338
0.000285272
0.000372886
0.000699065
0.00263059
0.00586906
0.0069129
0.00633258
0.00625786
0.0056662
0.00149545
0.00123459
0.0012358
0.00132309
0.000969661
0.000922161
0.00103642
0.00104037
0.00130157
0.00162256
0.00199045
0.00220733
0.00230244
0.00231392
0.00221457
0.00206523
0.00181815
0.00149281
0.00117806
0.00102568
0.00092322
0.000847471
0.000815613
0.000822554
0.000944807
0.00121286
0.0015424
0.00176847
0.00186564
0.00184722
0.00164395
0.0013766
0.00113461
0.00096738
0.000735193
0.000691208
0.000734437
0.000481723
0.000978481
0.000468825
0.000356948
0.000304949
0.000302306
0.000307422
0.000291532
0.000275222
0.000267839
0.000244107
0.000234739
0.000216749
0.000195386
0.000163465
0.000139281
0.000127144
0.000128942
0.000137015
0.00014728
0.000157679
0.000167375
0.000175823
0.000182656
0.000187885
0.000191617
0.000194336
0.000196377
0.00019797
0.000198768
0.000198502
0.000197408
0.000195903
0.00019427
0.000192619
0.000191169
0.000190072
0.000188646
0.000187312
0.000185677
0.000184298
0.000182423
0.000184369
0.000186427
0.000196212
0.000200711
0.000200422
0.000198033
0.000204906
0.000225025
0.000261338
0.000368628
0.000605526
0.00145136
0.00302586
0.00504773
0.00677753
0.00598447
0.00251463
0.000704591
0.000653788
0.00149782
0.00133966
0.00127253
0.00126369
0.001543
0.00167619
0.00199104
0.002142
0.0022432
0.00226986
0.00222506
0.00212622
0.0019902
0.00180705
0.0015913
0.00132217
0.00110703
0.00100207
0.000911514
0.000811779
0.000742026
0.000716472
0.00075009
0.000888407
0.00122149
0.00167333
0.00195294
0.0020519
0.00193789
0.00160923
0.00118885
0.00083328
0.00078166
0.000739609
0.000771374
0.000553586
0.000787105
0.000466655
0.000365449
0.000300046
0.000295245
0.000308338
0.000296879
0.000276108
0.00026906
0.000239896
0.000227186
0.000202719
0.000179625
0.00014299
0.000112563
9.7572e-05
0.000100832
0.000112225
0.000125745
0.000137849
0.000148012
0.000155928
0.000161863
0.000166303
0.000169388
0.00017155
0.000173017
0.000173659
0.00017322
0.000171646
0.000169417
0.000167113
0.000164941
0.00016278
0.00016055
0.000158213
0.000155728
0.00015356
0.000151227
0.000149388
0.000147059
0.000147934
0.000148813
0.000156449
0.000162176
0.000166225
0.000161929
0.000154005
0.000180198
0.000217651
0.0003297
0.000788442
0.00208561
0.00344061
0.00410241
0.00569277
0.00606699
0.00277749
0.000719149
0.000698736
0.00181083
0.00165159
0.00163922
0.00164864
0.00178712
0.00186484
0.00199685
0.00205728
0.00209491
0.00210538
0.00207705
0.00202956
0.00195254
0.0018285
0.00167379
0.00148041
0.00132618
0.00115833
0.00104853
0.000942444
0.000832903
0.000750594
0.000718185
0.00074971
0.000995985
0.00143342
0.00184089
0.00197864
0.00196318
0.0016569
0.00112432
0.000805198
0.00090475
0.00101973
0.00109509
0.00152445
0.000621137
0.000479637
0.00039103
0.000300723
0.000268561
0.000240613
0.000265082
0.000266742
0.000259546
0.00023128
0.000217462
0.000188972
0.000159626
0.000116237
8.51594e-05
7.05583e-05
7.0642e-05
7.6102e-05
8.36064e-05
9.12388e-05
9.86263e-05
0.000105619
0.000111417
0.000115815
0.000118749
0.000120619
0.000121809
0.000122648
0.000122678
0.000121454
0.00011949
0.000117287
0.00011519
0.000113366
0.000111933
0.000110746
0.000109327
0.000108119
0.000106889
0.000106272
0.000104714
0.000105415
0.000105219
0.000110216
0.00011197
0.000114796
0.00011294
0.000109115
0.00013902
0.000173468
0.000288886
0.00102412
0.00379955
0.00609689
0.00691647
0.00750155
0.00767968
0.00707095
0.000800867
0.000732472
0.00193325
0.00188521
0.0020403
0.00202561
0.002172
0.0022151
0.00232375
0.0023801
0.00241919
0.0024379
0.00244038
0.00241817
0.00233877
0.0021841
0.00197931
0.00172657
0.00145368
0.00117479
0.000977979
0.000885752
0.000819221
0.000761266
0.000629577
0.000589059
0.000725808
0.00103809
0.00163818
0.0019001
0.00187942
0.00147587
0.00128328
0.000967464
0.000876838
0.00104891
0.00115702
0.0011613
0.000610387
0.000485543
0.000433196
0.000422093
0.000282444
0.000210484
0.000198288
0.000228284
0.000228352
0.000211862
0.000199015
0.000169579
0.000134035
9.41632e-05
6.82476e-05
5.86189e-05
5.77502e-05
6.04556e-05
6.45836e-05
6.9164e-05
7.46319e-05
7.87867e-05
8.18047e-05
8.4165e-05
8.57528e-05
8.68149e-05
8.76854e-05
8.84816e-05
8.86378e-05
8.78343e-05
8.66392e-05
8.54546e-05
8.45641e-05
8.39133e-05
8.33275e-05
8.26898e-05
8.19399e-05
8.14559e-05
8.08634e-05
8.05835e-05
7.96302e-05
7.96183e-05
7.90917e-05
8.1378e-05
8.26381e-05
8.73195e-05
8.76474e-05
8.45998e-05
0.000108449
0.000133124
0.000199692
0.00101134
0.00488523
0.0070581
0.0069406
0.00660006
0.00687006
0.00697032
0.000922049
0.00082008
0.00184036
0.0020196
0.00228549
0.00209004
0.00224529
0.00223457
0.00234237
0.0023226
0.00228802
0.00221625
0.00215124
0.00209462
0.00202253
0.00190153
0.00175073
0.00154047
0.00127133
0.000987071
0.000865976
0.000789142
0.000706153
0.000630017
0.000514337
0.000415717
0.000412441
0.000400873
0.000683893
0.00166581
0.00208089