/*--------------------------------*- C++ -*----------------------------------*\
| =========                 |                                                 |
| \\      /  F ield         | OpenFOAM: The Open Source CFD Toolbox           |
|  \\    /   O peration     | Version:  2.3.0                                 |
|   \\  /    A nd           | Web:      www.OpenFOAM.org                      |
|    \\/     M anipulation  |                                                 |
\*---------------------------------------------------------------------------*/
FoamFile
{
    version     2.0;
    format      ascii;
    class       surfaceScalarField;
    location    "38";
    object      phi.air;
}
// * * * * * * * * * * * * * * * * * * * * * * * * * * * * * * * * * * * * * //

dimensions      [0 3 -1 0 0 0 0];

internalField   nonuniform List<scalar> 
16448
(
-1.23504e-06
-2.65865e-06
4.94876e-07
9.43784e-07
-2.86404e-06
6.8521e-07
8.81597e-07
-1.13078e-06
1.19296e-06
6.44104e-07
-8.85959e-07
1.12344e-06
1.3534e-07
-4.60224e-07
9.68978e-07
-7.68513e-08
-6.75961e-07
8.88142e-07
-1.576e-07
-6.77372e-07
7.58111e-07
-1.62696e-07
-6.4257e-07
6.47657e-07
-2.36758e-07
-4.82301e-07
5.56354e-07
-4.07172e-07
-3.45974e-07
5.1638e-07
-6.02493e-07
-2.63752e-07
4.59066e-07
-6.90837e-07
-2.7539e-07
3.63726e-07
-6.65566e-07
-3.20479e-07
2.952e-07
-5.43038e-07
-3.68833e-07
2.46297e-07
-4.00033e-07
-3.89943e-07
2.4693e-07
-2.51182e-07
-4.11824e-07
2.62964e-07
-1.25272e-07
-4.22773e-07
2.96854e-07
-2.24183e-08
-4.35256e-07
3.32393e-07
4.99211e-08
-4.44472e-07
3.72123e-07
9.1181e-08
-4.49555e-07
4.08285e-07
1.05826e-07
-4.53748e-07
4.39093e-07
1.039e-07
-4.57063e-07
4.58978e-07
9.22852e-08
-4.55636e-07
4.67241e-07
7.59421e-08
-4.49838e-07
4.6617e-07
5.83653e-08
-4.39923e-07
4.5749e-07
4.2429e-08
-4.26851e-07
4.42777e-07
3.079e-08
-4.12771e-07
4.244e-07
2.6101e-08
-4.00522e-07
4.05201e-07
2.93337e-08
-3.886e-07
3.85358e-07
3.78397e-08
-3.75853e-07
3.67337e-07
4.75398e-08
-3.6148e-07
3.51769e-07
5.67642e-08
-3.46086e-07
3.36851e-07
6.71622e-08
-3.30635e-07
3.20226e-07
8.24132e-08
-3.15828e-07
3.00566e-07
1.0653e-07
-3.02383e-07
2.78254e-07
1.41781e-07
-2.90538e-07
2.55276e-07
1.85059e-07
-2.79353e-07
2.36064e-07
2.27474e-07
-2.67184e-07
2.24757e-07
2.5534e-07
-2.53173e-07
2.25296e-07
2.46229e-07
-2.34424e-07
2.43524e-07
1.58546e-07
-2.00304e-07
2.87975e-07
-7.80967e-08
-1.38534e-07
3.75165e-07
-5.32134e-07
-3.84693e-08
4.92496e-07
-1.16713e-06
4.66534e-08
5.88337e-07
-1.83978e-06
5.05597e-08
6.2208e-07
-2.38616e-06
-2.12292e-07
7.58657e-07
-2.54274e-06
-8.39518e-07
9.9609e-07
-2.05749e-06
-1.70227e-06
1.21701e-06
-1.62631e-06
-1.98624e-06
1.55505e-06
-1.76719e-06
-1.83527e-06
1.97613e-06
1.24887e-06
-5.03497e-06
2.01889e-06
7.7425e-06
-8.1583e-06
1.66466e-06
1.38953e-05
-7.39263e-06
1.23983e-06
1.88922e-05
-5.41858e-06
4.21618e-07
2.06826e-05
-9.45848e-07
-8.44585e-07
1.88382e-05
3.14654e-06
-1.30218e-06
1.25428e-05
7.32476e-06
-1.02953e-06
1.01574e-05
9.48596e-06
-7.10074e-06
-1.12262e-05
1.62363e-05
4.79374e-06
-3.27852e-05
-2.74839e-06
-7.78767e-06
-6.20433e-05
-2.2022e-05
7.41207e-06
-1.15414e-05
-8.77788e-06
1.3264e-05
3.48079e-05
-1.00187e-05
8.66032e-06
3.64854e-05
-9.6379e-06
8.07279e-06
3.69131e-05
-8.11046e-06
7.42615e-06
3.66121e-05
-6.81195e-06
6.94363e-06
3.63788e-05
-6.92417e-06
6.98169e-06
3.59162e-05
-6.00212e-06
6.38076e-06
3.51826e-05
-4.41651e-06
5.12487e-06
3.4676e-05
-3.0347e-06
3.50815e-06
3.47176e-05
-1.55362e-06
1.45053e-06
3.49199e-05
-6.24888e-07
3.73398e-07
3.47953e-05
-5.72923e-08
1.6148e-07
3.42176e-05
3.38413e-07
2.46714e-07
3.31595e-05
6.67908e-07
3.99656e-07
3.19795e-05
1.25711e-06
-8.74096e-08
3.12052e-05
2.32238e-06
-1.58436e-06
2.99963e-05
3.17683e-06
-1.93952e-06
2.88414e-05
4.30738e-06
-3.18556e-06
2.70378e-05
5.78308e-06
-3.99587e-06
2.4614e-05
6.95115e-06
-4.62127e-06
2.12578e-05
7.94612e-06
-4.70196e-06
1.86083e-05
7.20066e-06
-4.6485e-06
1.68342e-05
6.69904e-06
-4.98892e-06
1.68042e-05
5.03691e-06
-5.08098e-06
1.82709e-05
3.54245e-06
-5.04867e-06
1.99101e-05
2.4e-06
-4.05995e-06
2.11309e-05
1.80374e-06
-3.03138e-06
2.23465e-05
1.04609e-06
-2.31123e-06
2.20028e-05
1.19795e-06
-8.66649e-07
1.95035e-05
1.22863e-06
1.26776e-06
1.29091e-05
2.06571e-06
4.46046e-06
3.21446e-06
4.38162e-06
5.4622e-06
-2.2528e-06
2.65658e-06
3.08558e-06
-2.47894e-06
-1.60099e-06
1.95815e-06
-3.33615e-06
1.40794e-06
-1.87136e-06
-3.74243e-06
-2.64915e-07
-2.50352e-07
-4.15134e-06
-3.33711e-07
1.12779e-07
-2.20461e-06
7.10689e-07
3.6852e-07
-1.70302e-06
5.61308e-07
2.61827e-07
-7.18358e-07
3.6481e-07
6.31437e-08
-7.83209e-07
3.05915e-07
-1.28405e-07
-6.51127e-07
1.65289e-07
-2.46434e-07
-6.1547e-07
9.09139e-08
-3.87167e-07
-4.17363e-07
7.57834e-08
-5.9837e-07
-2.49492e-07
1.1471e-07
-7.94526e-07
-1.63117e-07
9.55101e-08
-8.61324e-07
-2.25761e-07
1.71581e-08
-8.25681e-07
-3.05704e-07
-5.04303e-08
-7.03848e-07
-3.88507e-07
-1.02173e-07
-5.54235e-07
-4.24931e-07
-1.1464e-07
-3.9378e-07
-4.59797e-07
-1.12496e-07
-2.51362e-07
-4.73567e-07
-9.16389e-08
-1.3002e-07
-4.88181e-07
-6.84336e-08
-3.67122e-08
-4.96582e-07
-4.12145e-08
2.70493e-08
-4.97128e-07
-1.62047e-08
6.11148e-08
-4.93185e-07
5.35418e-09
7.49612e-08
-4.86171e-07
1.52443e-08
7.55679e-08
-4.75384e-07
1.91238e-08
6.82129e-08
-4.60378e-07
1.78772e-08
5.70667e-08
-4.41445e-07
1.26499e-08
4.52251e-08
-4.19926e-07
4.89723e-09
3.71792e-08
-3.97392e-07
-7.3527e-09
3.53709e-08
-3.76714e-07
-2.20194e-08
4.02961e-08
-3.57e-07
-3.65458e-08
4.931e-08
-3.35251e-07
-4.96367e-08
5.99684e-08
-3.10632e-07
-6.15273e-08
7.26373e-08
-2.85265e-07
-7.35107e-08
8.94481e-08
-2.61062e-07
-8.64056e-08
1.131e-07
-2.39249e-07
-1.00253e-07
1.44962e-07
-2.21016e-07
-1.13252e-07
1.84883e-07
-2.05651e-07
-1.2483e-07
2.29811e-07
-1.91687e-07
-1.32617e-07
2.72274e-07
-1.76237e-07
-1.33434e-07
3.00581e-07
-1.58013e-07
-1.23492e-07
2.95123e-07
-1.32381e-07
-9.66104e-08
2.21321e-07
-8.22224e-08
-4.43048e-08
2.81477e-08
1.79977e-08
3.66161e-08
-3.38066e-07
1.97161e-07
1.30559e-07
-8.51374e-07
3.64219e-07
1.95717e-07
-1.3789e-06
4.20697e-07
1.57362e-07
-1.71428e-06
4.33549e-08
7.97096e-08
-1.8961e-06
-8.7417e-07
2.16453e-07
-2.00211e-06
-2.21117e-06
6.1488e-07
-1.5994e-06
-3.23327e-06
8.44292e-07
1.3472e-06
-5.70563e-06
9.23718e-07
7.1404e-06
-1.1238e-05
4.09743e-07
1.29826e-05
-1.42798e-05
2.79248e-07
1.76294e-05
-1.1556e-05
-4.83473e-07
2.08384e-05
-6.64956e-06
-1.97804e-06
2.09505e-05
1.78696e-06
-2.84499e-06
1.99597e-05
5.84517e-06
-1.70792e-06
1.48294e-05
1.3072e-05
-6.17102e-07
1.64334e-05
1.51905e-05
-7.30852e-06
-5.97669e-06
2.95939e-05
8.83303e-06
-3.1898e-05
-3.40222e-06
-5.19298e-06
-7.1689e-05
-2.93859e-05
-1.5751e-06
-2.29038e-05
-1.14631e-05
8.05893e-06
2.08242e-05
-1.3562e-05
4.04677e-06
2.14609e-05
-1.21412e-05
1.84804e-06
2.04307e-05
-9.36099e-06
2.43313e-06
1.79323e-05
-9.1226e-06
4.87942e-06
1.45814e-05
-9.77636e-06
6.24888e-06
1.20645e-05
-8.24376e-06
4.91675e-06
1.08849e-05
-5.83104e-06
2.69799e-06
1.10994e-05
-4.4556e-06
1.25031e-06
1.23295e-05
-2.66105e-06
-4.26464e-08
1.49227e-05
-1.41682e-06
-1.79915e-06
1.79986e-05
-4.91196e-07
-2.6605e-06
2.07659e-05
-1.37545e-07
-2.30381e-06
2.31513e-05
4.798e-07
-2.2092e-06
2.50398e-05
1.58721e-06
-2.21711e-06
2.65307e-05
3.2594e-06
-2.43301e-06
2.75238e-05
5.0291e-06
-2.82888e-06
2.81484e-05
6.7065e-06
-2.97308e-06
2.85126e-05
8.13153e-06
-2.6536e-06
2.82299e-05
1.01938e-05
-2.87101e-06
2.75851e-05
1.14218e-05
-2.75486e-06
2.65498e-05
1.14325e-05
-3.12535e-06
2.61435e-05
1.10534e-05
-3.92452e-06
2.54688e-05
1.00135e-05
-4.2447e-06
2.56579e-05
8.76098e-06
-5.48684e-06
2.6368e-05
6.78311e-06
-5.13515e-06
2.69452e-05
5.25891e-06
-4.07528e-06
2.67662e-05
4.23112e-06
-2.99537e-06
2.6971e-05
2.9125e-06
-1.96118e-06
2.54381e-05
2.73912e-06
9.18988e-08
2.2936e-05
2.48629e-06
2.04341e-06
1.85826e-05
4.94979e-06
3.81019e-06
1.05358e-05
5.72452e-06
5.22571e-06
3.40164e-06
1.7424e-06
4.11638e-06
-9.3236e-07
1.89929e-06
-2.42096e-06
-4.06856e-06
-4.56422e-07
-1.24578e-06
-4.65475e-06
-6.71783e-07
-7.77958e-07
-2.84655e-06
1.74107e-07
-1.66296e-07
-2.34314e-06
2.84453e-08
4.48804e-08
-8.74059e-07
-5.54908e-08
-9.32315e-08
-6.4512e-07
7.32384e-12
-2.69309e-07
-3.5848e-07
-1.16584e-07
-3.8724e-07
-3.43357e-07
-1.54195e-07
-4.83069e-07
-1.49958e-07
-1.71587e-07
-5.77971e-07
-2.31116e-08
-1.31489e-07
-6.86155e-07
6.26786e-08
-1.17623e-07
-7.36721e-07
-1.47418e-08
-1.60464e-07
-7.39014e-07
-8.91588e-08
-2.14265e-07
-6.89411e-07
-1.78251e-07
-2.59872e-07
-6.07223e-07
-2.23541e-07
-2.83592e-07
-5.0051e-07
-2.65174e-07
-3.01351e-07
-3.93412e-07
-2.79068e-07
-3.01611e-07
-2.94418e-07
-2.90712e-07
-2.96477e-07
-2.08304e-07
-2.94819e-07
-2.87892e-07
-1.35318e-07
-2.91333e-07
-2.78798e-07
-7.98313e-08
-2.77746e-07
-2.70942e-07
-4.14798e-08
-2.595e-07
-2.65039e-07
-1.67479e-08
-2.38577e-07
-2.61556e-07
-1.99021e-09
-2.15126e-07
-2.60027e-07
6.71998e-09
-1.90054e-07
-2.60119e-07
1.30102e-08
-1.64676e-07
-2.61558e-07
1.937e-08
-1.39847e-07
-2.63923e-07
2.56344e-08
-1.15959e-07
-2.67039e-07
3.21255e-08
-9.2986e-08
-2.70524e-07
3.9012e-08
-6.79161e-08
-2.74241e-07
4.77494e-08
-4.09316e-08
-2.78458e-07
6.04841e-08
-1.50705e-08
-2.8295e-07
7.75459e-08
8.73368e-09
-2.86878e-07
9.6884e-08
3.08261e-08
-2.89435e-07
1.17978e-07
4.85423e-08
-2.90674e-07
1.38452e-07
6.25714e-08
-2.88718e-07
1.55642e-07
7.39668e-08
-2.82866e-07
1.6412e-07
8.60008e-08
-2.70738e-07
1.57442e-07
9.78324e-08
-2.49192e-07
1.32256e-07
1.1014e-07
-2.17358e-07
9.30515e-08
1.30983e-07
-1.74024e-07
4.26532e-08
1.93981e-07
-1.25609e-07
-2.82258e-08
3.41243e-07
-7.32277e-08
-1.06009e-07
5.13017e-07
-7.10402e-08
-1.11301e-07
5.43148e-07
-1.17183e-07
-9.20355e-08
2.18308e-07
-1.94243e-07
-3.47176e-07
-5.66719e-07
-5.23338e-08
-6.23715e-07
-2.03838e-06
1.03727e-07
6.29117e-07
-4.37527e-06
-1.10877e-07
4.30415e-06
-9.04008e-06
-3.40648e-07
8.55016e-06
-1.52844e-05
-1.99632e-07
1.1836e-05
-1.54249e-05
-2.14076e-06
1.55543e-05
-1.06559e-05
-4.61844e-06
1.72793e-05
-3.31137e-06
-5.06321e-06
1.59804e-05
6.97268e-06
-3.88684e-06
1.61348e-05
8.03859e-06
-2.34788e-06
1.24453e-05
1.9373e-05
-2.61154e-06
1.4383e-05
1.91979e-05
-5.9451e-06
-9.28974e-06
3.75406e-05
1.54456e-05
-3.3365e-05
-1.33893e-05
3.16225e-07
-7.75962e-05
-3.26456e-05
-7.37079e-06
-3.10144e-05
-1.11766e-05
-2.38118e-06
1.47873e-05
-1.16506e-05
-3.77704e-06
1.58908e-05
-8.23026e-06
-5.54868e-06
1.38693e-05
-5.79128e-06
-1.44857e-06
9.88853e-06
-5.4902e-06
2.06003e-07
4.60747e-06
-6.15022e-06
1.5027e-06
1.19797e-06
-5.76558e-06
9.01108e-07
-1.0819e-06
-4.12597e-06
5.54937e-07
-1.93025e-06
-4.61932e-06
9.29784e-07
-4.10404e-07
-4.89904e-06
6.20183e-07
2.37815e-06
-4.44041e-06
1.4676e-07
5.54123e-06
-3.76858e-06
4.55539e-08
8.42955e-06
-3.34443e-06
2.96005e-07
1.13325e-05
-2.86989e-06
4.43085e-07
1.42846e-05
-2.44424e-06
1.0713e-06
1.68029e-05
-1.15785e-06
1.90349e-06
1.89842e-05
8.55215e-07
2.02759e-06
2.10896e-05
3.26518e-06
1.34502e-06
2.30896e-05
6.32455e-06
-1.87131e-07
2.46315e-05
1.07592e-05
-2.11558e-06
2.598e-05
1.33733e-05
-3.4523e-06
2.67463e-05
1.38895e-05
-3.37944e-06
2.7506e-05
1.35039e-05
-3.34765e-06
2.80655e-05
1.2465e-05
-3.06647e-06
2.93171e-05
1.12774e-05
-3.85998e-06
3.09893e-05
8.81627e-06
-3.77316e-06
3.26611e-05
5.82378e-06
-2.26796e-06
3.33577e-05
3.93362e-06
-2.99441e-07
3.34441e-05
8.65418e-07
1.94957e-06
3.19871e-05
6.96733e-07
3.46714e-06
2.93222e-05
1.73422e-06
3.43739e-06
2.55706e-05
5.51677e-06
3.17645e-06
1.76309e-05
9.29393e-06
4.42435e-06
7.32451e-06
7.96338e-06
4.3074e-06
5.23101e-06
2.2957e-06
-2.99401e-06
-4.1122e-06
-2.56894e-07
-1.83743e-06
-4.94521e-06
-8.66119e-07
-1.43539e-06
-3.25697e-06
8.37796e-09
-6.59786e-07
-3.02961e-06
-8.91582e-08
-2.25085e-07
-1.26968e-06
-3.90986e-08
-1.92072e-07
-6.73343e-07
-4.80497e-09
-3.13356e-07
-1.08003e-07
-1.29207e-07
-3.84715e-07
-1.17216e-07
-1.54795e-07
-4.13882e-07
7.47693e-08
-1.95571e-07
-4.29202e-07
1.79518e-07
-1.87321e-07
-4.76441e-07
3.08664e-07
-1.98758e-07
-5.42139e-07
2.74484e-07
-2.2354e-07
-6.06258e-07
2.2876e-07
-2.53813e-07
-6.20928e-07
1.29381e-07
-2.92974e-07
-5.93416e-07
6.85723e-08
-3.19639e-07
-5.27979e-07
1.92002e-08
-3.49824e-07
-4.46613e-07
7.62228e-09
-3.68072e-07
-3.65993e-07
9.07811e-09
-3.80425e-07
-2.91453e-07
1.77878e-08
-3.87162e-07
-2.2295e-07
3.08172e-08
-3.9067e-07
-1.62109e-07
5.14203e-08
-3.90024e-07
-1.10866e-07
7.56181e-08
-3.86379e-07
-7.02991e-08
1.0167e-07
-3.80832e-07
-4.01043e-08
1.29863e-07
-3.75202e-07
-1.92429e-08
1.59329e-07
-3.70264e-07
-5.32909e-09
1.87304e-07
-3.65913e-07
4.06179e-09
2.12884e-07
-3.62141e-07
1.13119e-08
2.35967e-07
-3.59195e-07
1.79973e-08
2.57733e-07
-3.57425e-07
2.56015e-08
2.81248e-07
-3.56789e-07
3.49975e-08
3.0676e-07
-3.57109e-07
4.55933e-08
3.31589e-07
-3.57276e-07
5.68965e-08
3.53424e-07
-3.56015e-07
6.90542e-08
3.70976e-07
-3.52329e-07
7.99538e-08
3.83724e-07
-3.46103e-07
8.79866e-08
3.92001e-07
-3.37485e-07
8.92338e-08
3.97793e-07
-3.25096e-07
7.83557e-08
4.04173e-07
-3.07317e-07
5.32274e-08
4.08106e-07
-2.85169e-07
1.85966e-08
4.0556e-07
-2.60813e-07
-4.21183e-09
3.94304e-07
-2.40538e-07
3.37963e-08
3.91897e-07
-2.35949e-07
1.97853e-07
4.27142e-07
-2.49981e-07
5.32013e-07
4.77198e-07
-2.98368e-07
1.0848e-06
3.21351e-07
-3.31013e-07
1.51733e-06
9.75888e-08
-3.11846e-07
1.19122e-06
-3.08021e-07
6.73851e-08
5.81523e-07
-1.54754e-06
1.18828e-07
1.52913e-06
-5.05186e-06
-2.71073e-07
2.23385e-06
-9.34861e-06
-3.96249e-07
1.30931e-06
-1.28419e-05
-1.51796e-06
3.51766e-06
-1.22713e-05
-5.36193e-06
1.08815e-05
-8.77044e-06
-9.24938e-06
1.4449e-05
-2.31184e-06
-4.56698e-06
1.34187e-05
1.07496e-06
6.92794e-06
1.32861e-05
2.87713e-06
5.29408e-06
1.34137e-05
1.79831e-05
1.2623e-06
2.20161e-05
1.59088e-05
-5.31311e-06
-4.37562e-06
4.21376e-05
2.11037e-05
-3.75249e-05
-1.41268e-05
-3.94909e-06
-8.72687e-05
-3.03324e-05
-7.6092e-06
-3.9332e-05
-8.17296e-06
-2.66265e-06
9.13141e-06
-8.98961e-06
-6.25276e-06
9.72223e-06
-3.25774e-06
-4.29377e-06
7.36612e-06
-1.31489e-06
1.95323e-07
-6.98236e-07
-5.06169e-07
3.84831e-06
-8.59135e-06
-3.44771e-06
3.35643e-06
-1.22893e-05
-4.70778e-06
2.68055e-06
-1.67426e-05
-2.45684e-06
4.23753e-06
-2.18688e-05
-2.90207e-06
3.76785e-06
-2.35121e-05
-4.41509e-06
1.28575e-06
-2.1173e-05
-5.67053e-06
-9.91642e-07
-1.57811e-05
-5.6465e-06
-3.54211e-06
-1.06147e-05
-4.90472e-06
-4.32188e-06
-7.04212e-06
-5.54665e-06
-2.21247e-06
-5.2481e-06
-6.60326e-06
1.27398e-06
-4.25403e-06
-5.40758e-06
3.50922e-06
-3.21027e-06
-4.43997e-06
4.20042e-06
-1.33622e-06
-1.87404e-06
3.13007e-06
3.17317e-06
1.23987e-06
5.42021e-07
9.86553e-06
6.74013e-06
-2.52242e-06
1.62014e-05
1.15915e-05
-4.41492e-06
2.10315e-05
1.38045e-05
-4.61079e-06
2.41511e-05
1.47044e-05
-4.24852e-06
2.65946e-05
1.39228e-05
-4.00877e-06
2.8837e-05
1.0216e-05
-3.22529e-06
3.12664e-05
5.09636e-06
-1.47126e-06
3.394e-05
1.99738e-06
1.83044e-07
3.5183e-05
-4.70084e-07
3.20673e-06
3.54512e-05
-4.93808e-06
5.45701e-06
3.49884e-05
-4.44833e-06
5.59309e-06
3.30881e-05
-1.32735e-06
5.00775e-06
2.82353e-05
6.58392e-06
3.71129e-06
1.93893e-05
1.41162e-05
3.94839e-06
8.51362e-06
1.51524e-05
3.93564e-06
1.32975e-05
1.68598e-06
-3.39161e-06
-3.98185e-06
-5.88913e-08
-2.22183e-06
-5.17847e-06
-9.36533e-07
-1.92536e-06
-3.43925e-06
-1.14201e-07
-1.04847e-06
-3.60206e-06
-3.04445e-07
-5.16744e-07
-1.88373e-06
8.2308e-08
-2.24412e-07
-1.034e-06
6.8308e-08
-2.03843e-07
-2.38818e-09
-1.26197e-07
-3.10028e-07
1.26812e-07
-1.37854e-07
-3.0326e-07
2.78064e-07
-2.10073e-07
-2.913e-07
3.81901e-07
-2.14354e-07
-3.11457e-07
5.52691e-07
-2.23882e-07
-3.87242e-07
5.69117e-07
-2.1886e-07
-4.90634e-07
5.5503e-07
-2.22891e-07
-5.47883e-07
4.31837e-07
-2.45219e-07
-5.50984e-07
3.39364e-07
-2.67704e-07
-5.08222e-07
2.76856e-07
-3.00431e-07
-4.44542e-07
2.69942e-07
-3.26013e-07
-3.81375e-07
2.92675e-07
-3.46778e-07
-3.19833e-07
3.19764e-07
-3.63534e-07
-2.60252e-07
3.47175e-07
-3.75954e-07
-2.00343e-07
3.76281e-07
-3.84785e-07
-1.43992e-07
4.07391e-07
-3.8814e-07
-9.53508e-08
4.39967e-07
-3.86954e-07
-5.59761e-08
4.72701e-07
-3.8223e-07
-2.65503e-08
5.0447e-07
-3.74584e-07
-5.49506e-09
5.31866e-07
-3.65636e-07
9.72792e-09
5.54051e-07
-3.56407e-07
2.11331e-08
5.72295e-07
-3.47751e-07
2.95638e-08
5.89267e-07
-3.39982e-07
3.68586e-08
6.07e-07
-3.33065e-07
4.36952e-08
6.26218e-07
-3.26312e-07
4.99207e-08
6.44423e-07
-3.19078e-07
5.46925e-08
6.59574e-07
-3.10941e-07
5.73346e-08
6.69828e-07
-3.01514e-07
5.62264e-08
6.76018e-07
-2.91206e-07
4.76748e-08
6.80184e-07
-2.79651e-07
2.61306e-08
6.86049e-07
-2.66732e-07
-1.30911e-08
6.97592e-07
-2.54218e-07
-6.50175e-08
7.07319e-07
-2.47307e-07
-1.10622e-07
7.01897e-07
-2.50753e-07
-1.01298e-07
6.61133e-07
-2.76174e-07
7.07251e-08
5.64825e-07
-3.44973e-07
5.5164e-07
4.0096e-07
-4.54754e-07
1.37697e-06
2.04169e-07
-5.52322e-07
2.43902e-06
-1.29311e-07
-6.11414e-07
3.11078e-06
-2.26693e-07
-3.47502e-07
2.85463e-06
-7.68155e-08
2.49216e-08
1.80124e-06
-8.59843e-07
3.65674e-07
-5.81175e-07
-3.05628e-06
3.86793e-07
-5.50251e-06
-4.64299e-06
2.15667e-07
-8.2254e-06
-6.64522e-06
-3.47378e-06
-4.46486e-06
-7.31305e-06
-8.7188e-06
3.18528e-06
-6.47224e-06
-9.94835e-06
3.79337e-06
-2.07549e-06
-8.4444e-07
3.92798e-06
-1.97131e-06
2.91163e-06
-1.33402e-06
5.03503e-06
3.10417e-06
1.18695e-05
1.11004e-05
-6.32091e-06
2.6961e-05
4.79806e-06
-3.98097e-06
-1.58095e-06
4.94978e-05
1.97626e-05
-4.66989e-05
-8.71354e-06
-5.61265e-06
-0.000113814
-2.46767e-05
-8.36476e-06
-0.000110222
-5.31856e-06
-6.30739e-07
-0.000109132
-5.52601e-06
-3.19672e-06
-0.000112244
7.31923e-07
1.69233e-06
-0.000119463
1.30226e-06
4.95181e-06
-0.000131793
2.90437e-06
8.00462e-06
-0.000142099
-1.35358e-06
7.31428e-06
-0.000148913
-1.78598e-06
4.82845e-06
-0.000151266
-5.85534e-07
5.38092e-07
-0.000150197
-1.94187e-06
-2.39722e-06
-0.000147795
-3.24004e-06
-3.06721e-06
-0.000144866
-4.44012e-06
-2.27956e-06
-0.000140323
-5.34952e-06
-9.86731e-07
-0.000132596
-5.79652e-06
8.89934e-07
-0.000112925
-6.59327e-06
2.67919e-06
-6.09391e-05
-7.58534e-06
3.10038e-06
-2.20903e-05
-6.85324e-06
2.93717e-06
-1.91907e-05
-4.53103e-06
5.07086e-07
-1.40973e-05
-8.09884e-07
-4.16289e-06
-7.91302e-06
4.07151e-06
-7.49415e-06
3.54062e-09
9.16533e-06
-8.41365e-06
7.29646e-06
1.34775e-05
-9.06543e-06
1.29984e-05
1.53401e-05
-7.67758e-06
1.73779e-05
1.54826e-05
-6.23043e-06
-1.85055e-05
1.14951e-05
-3.02192e-06
-6.42657e-05
4.27097e-06
6.01065e-07
-3.61652e-05
-2.86288e-06
5.11821e-06
1.30843e-05
-4.6977e-06
4.97866e-06
2.76612e-05
-9.06918e-06
7.90554e-06
2.55191e-05
-9.18214e-06
7.94734e-06
2.40443e-05
-6.93469e-06
6.49104e-06
2.298e-05
-3.41325e-06
3.32204e-06
2.05334e-05
7.46938e-06
1.68493e-06
1.35039e-05
1.76657e-05
3.44105e-06
5.33694e-06
2.09255e-05
2.62802e-06
1.96476e-05
3.05964e-07
-3.75523e-06
-3.6034e-06
1.74471e-07
-2.54505e-06
-5.35816e-06
-1.03049e-06
-2.28603e-06
-3.42843e-06
-2.69854e-07
-1.29956e-06
-3.81615e-06
-7.72386e-07
-7.89347e-07
-2.38991e-06
-4.03875e-09
-2.76089e-07
-1.57176e-06
2.44973e-08
-5.27056e-08
-6.10593e-08
-1.64723e-07
-1.80256e-07
3.55648e-07
-1.01295e-07
-1.48054e-07
4.65067e-07
-2.19213e-07
-1.49149e-07
5.7595e-07
-1.92964e-07
-1.62031e-07
7.73194e-07
-2.0763e-07
-2.64156e-07
8.6543e-07
-1.94198e-07
-4.02212e-07
8.82258e-07
-1.89182e-07
-4.77953e-07
7.14826e-07
-2.07258e-07
-4.80371e-07
5.81106e-07
-2.39333e-07
-4.333e-07
5.07561e-07
-2.77787e-07
-3.74617e-07
5.17252e-07
-3.06004e-07
-3.30619e-07
5.73585e-07
-3.24919e-07
-2.95629e-07
6.25943e-07
-3.41181e-07
-2.63199e-07
6.68558e-07
-3.53823e-07
-2.25889e-07
7.02043e-07
-3.63085e-07
-1.84989e-07
7.32868e-07
-3.66389e-07
-1.44939e-07
7.63951e-07
-3.64047e-07
-1.10024e-07
7.94854e-07
-3.5708e-07
-8.44934e-08
8.25774e-07
-3.46847e-07
-6.5636e-08
8.47529e-07
-3.34532e-07
-5.14438e-08
8.61495e-07
-3.21649e-07
-3.92965e-08
8.69004e-07
-3.08869e-07
-2.81677e-08
8.74798e-07
-2.96673e-07
-1.87511e-08
8.83077e-07
-2.85506e-07
-1.25472e-08
8.94894e-07
-2.74893e-07
-1.02267e-08
9.06625e-07
-2.64535e-07
-1.20807e-08
9.15636e-07
-2.54221e-07
-1.70159e-08
9.18534e-07
-2.43783e-07
-2.50157e-08
9.17458e-07
-2.33453e-07
-3.78016e-08
9.16184e-07
-2.23226e-07
-5.73312e-08
9.2003e-07
-2.14462e-07
-8.35234e-08
9.33575e-07
-2.09802e-07
-1.01665e-07
9.43364e-07
-2.17915e-07
-7.90413e-08
9.27054e-07
-2.47791e-07
4.36194e-08
8.51362e-07
-3.12901e-07
3.83192e-07
6.55985e-07
-4.30745e-07
1.09466e-06
2.7945e-07
-5.89967e-07
2.18131e-06
-1.96642e-07
-6.85852e-07
3.23597e-06
-5.07204e-07
-6.76779e-07
3.92402e-06
-4.59614e-07
-4.55147e-07
3.84079e-06
-3.09191e-08
3.73271e-08
2.90616e-06
-3.58914e-07
4.33689e-07
-1.08389e-06
-8.42069e-08
1.01794e-06
-8.91066e-06
2.40682e-06
7.76912e-07
-1.47064e-05
4.62982e-07
-1.31246e-06
-1.64762e-05
9.92032e-07
-6.53525e-06
-2.00356e-05
6.35287e-06
-9.26562e-06
-2.43943e-05
9.26391e-06
-6.98065e-06
-2.81421e-05
1.08474e-05
-9.07074e-06
-2.62521e-05
1.36027e-05
-1.04575e-05
-1.55747e-05
1.46921e-05
-1.42693e-05
-1.79392e-05
1.49601e-05
-7.79718e-06
-2.75748e-06
2.72623e-05
4.44471e-06
-4.88977e-05
-6.18849e-06
-5.93158e-06
-0.000125646
-1.02266e-05
-9.96926e-06
-0.000124818
-1.14439e-06
1.10744e-06
-0.000128266
-2.27445e-06
-1.01594e-06
-0.000133324
2.13233e-06
3.19124e-06
-0.00014137
5.2928e-06
5.17801e-06
-0.000153073
7.95973e-06
7.39656e-06
-0.000165076
6.08195e-06
6.77772e-06
-0.000172535
5.21155e-06
2.38099e-06
-0.000174932
3.54151e-06
-4.31058e-07
-0.000175027
4.51765e-07
-1.64683e-06
-0.000172888
-1.4974e-06
-3.10371e-06
-0.00017028
-2.47281e-06
-3.9583e-06
-0.000167135
-4.63332e-06
-3.70048e-06
-0.000163856
-5.61163e-06
-3.38568e-06
-0.000161435
-5.56586e-06
-2.83646e-06
-0.000159166
-5.86097e-06
-3.16156e-06
-0.000156594
-3.93215e-06
-4.8431e-06
-0.000152309
-2.72719e-07
-7.19607e-06
-0.000146325
4.26701e-06
-8.79905e-06
-0.000138732
8.50617e-06
-9.22939e-06
-0.000129822
1.15749e-05
-8.09605e-06
-0.000122802
1.29797e-05
-5.00801e-06
-0.000117635
1.19903e-05
-1.52141e-06
-0.000115097
9.67974e-06
2.40934e-06
-0.000117281
4.19841e-06
7.03391e-06
-0.000120752
-2.33234e-06
9.49786e-06
-0.000123454
-8.62306e-06
1.05399e-05
-0.00012481
-1.11846e-05
9.03467e-06
-0.000123034
-1.18043e-05
5.69858e-06
-0.000106928
-1.06593e-05
4.27404e-06
-4.80868e-05
-7.64535e-06
2.40499e-06
-1.6424e-06
-4.87918e-06
9.14013e-07
-7.68072e-07
6.60587e-06
5.92339e-07
-1.80431e-06
1.69419e-05
1.94076e-06
-1.02707e-06
1.96979e-05
9.81845e-07
2.05406e-05
-6.4466e-07
-3.91701e-06
-2.78956e-06
3.44144e-07
-2.7121e-06
-5.20902e-06
-1.35405e-06
-2.49831e-06
-3.11116e-06
-5.31062e-07
-1.37548e-06
-3.72752e-06
-1.21147e-06
-7.71814e-07
-2.58418e-06
-4.09411e-07
-1.95662e-07
-1.85189e-06
-2.96035e-07
8.8909e-08
-5.78409e-08
-2.87796e-07
-9.76738e-08
6.85376e-07
-1.43152e-07
-6.62875e-08
7.22965e-07
-2.89291e-07
-8.2405e-08
8.15193e-07
-2.23132e-07
-8.90957e-08
1.00399e-06
-2.24114e-07
-1.80953e-07
1.13222e-06
-1.7494e-07
-3.01479e-07
1.1671e-06
-1.64326e-07
-3.63516e-07
9.68569e-07
-1.91712e-07
-3.67928e-07
8.26918e-07
-2.41406e-07
-3.34471e-07
7.58076e-07
-2.83978e-07
-2.96499e-07
7.87542e-07
-3.08268e-07
-2.75357e-07
8.67816e-07
-3.15378e-07
-2.67691e-07
9.3832e-07
-3.20048e-07
-2.66783e-07
9.91217e-07
-3.23573e-07
-2.64205e-07
1.02647e-06
-3.27014e-07
-2.56372e-07
1.05241e-06
-3.27378e-07
-2.44132e-07
1.07404e-06
-3.22333e-07
-2.31534e-07
1.0947e-06
-3.12445e-07
-2.24571e-07
1.11632e-06
-2.9751e-07
-2.19247e-07
1.12624e-06
-2.84043e-07
-2.12879e-07
1.12643e-06
-2.71306e-07
-2.0406e-07
1.12053e-06
-2.60349e-07
-1.92488e-07
1.11314e-06
-2.49918e-07
-1.82514e-07
1.1125e-06
-2.39397e-07
-1.78757e-07
1.11978e-06
-2.28645e-07
-1.83028e-07
1.12886e-06
-2.17968e-07
-1.94646e-07
1.13459e-06
-2.07341e-07
-2.07165e-07
1.12877e-06
-1.97721e-07
-2.16189e-07
1.11524e-06
-1.88755e-07
-2.18417e-07
1.09915e-06
-1.80737e-07
-2.08825e-07
1.08587e-06
-1.75435e-07
-1.77788e-07
1.07858e-06
-1.76039e-07
-1.022e-07
1.05739e-06
-1.89614e-07
5.60543e-08
9.9086e-07
-2.22057e-07
3.38314e-07
8.49108e-07
-2.80002e-07
8.40401e-07
5.3655e-07
-3.82647e-07
1.62418e-06
2.11541e-08
-5.25479e-07
2.68535e-06
-6.09055e-07
-6.48756e-07
3.54526e-06
-7.97508e-07
-5.69598e-07
3.93448e-06
-4.78073e-07
-3.70755e-07
4.15494e-06
-6.50334e-08
-1.86333e-07
3.22397e-06
2.71552e-07
3.00514e-07
1.60529e-06
8.8896e-07
6.45493e-07
-3.12536e-06
6.02026e-06
1.11718e-06
-1.17934e-05
7.38925e-06
1.74179e-06
-1.78749e-05
7.7779e-06
-7.04322e-07
-2.19032e-05
1.4719e-05
-4.33783e-06
-2.59012e-05
1.71512e-05
-3.88914e-06
-2.74915e-05
1.68444e-05
-4.40671e-06
-2.54203e-05
1.59975e-05
-4.46591e-06
-1.8104e-05
1.25818e-05
-5.20624e-06
-1.59343e-05
1.34352e-05
-6.44731e-07
1.8782e-06
1.50577e-05
-9.15428e-06
-5.6355e-05
1.83885e-06
-4.04663e-06
-0.000133553
8.84249e-06
-1.17879e-05
-0.00013516
6.88012e-06
7.11828e-07
-0.000141878
4.33779e-06
-4.77114e-07
-0.000149289
5.27694e-06
2.86652e-06
-0.000161225
1.41292e-05
5.46724e-06
-0.000175707
1.63555e-05
6.16296e-06
-0.000184612
1.32468e-05
4.20676e-06
-0.000188853
1.05548e-05
3.08203e-07
-0.000190708
7.65021e-06
-1.22428e-06
-0.000190527
2.60655e-06
-2.1534e-06
-0.000188238
-7.12775e-07
-3.02454e-06
-0.000185449
-2.65609e-06
-2.79033e-06
-0.000182145
-5.95434e-06
-2.35206e-06
-0.00017881
-7.63173e-06
-1.8029e-06
-0.000175247
-8.47918e-06
-1.18185e-06
-0.000171584
-8.7126e-06
-7.37564e-07
-0.000168117
-6.60011e-06
-1.0461e-06
-0.000163006
-3.63731e-06
-1.83041e-06
-0.0001575
1.18083e-06
-1.71288e-06
-0.000153676
5.71115e-06
-1.02016e-06
-0.000151005
8.76092e-06
4.62295e-07
-0.000149592
9.0375e-06
2.78668e-06
-0.000149303
8.01176e-06
4.5119e-06
-0.000149558
4.60104e-06
6.84695e-06
-0.000149584
-1.07208e-06
8.27588e-06
-0.00014911
-5.0374e-06
7.21943e-06
-0.000149355
-9.17402e-06
4.98088e-06
-0.000150045
-1.15584e-05
3.64247e-06
-0.000150389
-1.21098e-05
3.3534e-06
-0.000146684
-1.15905e-05
2.11115e-06
-0.000123805
-8.88608e-06
6.67307e-07
-5.87598e-05
-2.93969e-06
-9.98939e-07
-8.82427e-06
6.07665e-06
-8.81162e-07
-5.31359e-06
1.51916e-05
-1.16505e-06
-3.02889e-06
1.92373e-05
-2.36056e-06
2.14449e-05
-2.74048e-06
-3.68684e-06
-1.5391e-06
8.20605e-07
-2.78007e-06
-4.97028e-06
-1.14552e-06
-2.73875e-06
-2.64868e-06
-5.03796e-07
-1.58612e-06
-3.61456e-06
-1.26559e-06
-6.89637e-07
-2.75522e-06
-7.25447e-07
-4.63509e-08
-1.9792e-06
-5.15976e-07
1.79153e-07
1.19769e-07
-4.03118e-07
-4.4121e-09
9.53167e-07
-8.42299e-08
7.28223e-09
1.11078e-06
-3.99517e-07
-9.83449e-08
1.17709e-06
-2.56277e-07
-9.1115e-08
1.28852e-06
-2.91758e-07
-9.9781e-08
1.39398e-06
-2.53095e-07
-8.83978e-08
1.42208e-06
-2.66363e-07
-8.18817e-08
1.2734e-06
-3.1135e-07
-9.38773e-08
1.19726e-06
-3.58346e-07
-1.36107e-07
1.19623e-06
-3.95923e-07
-1.87585e-07
1.26392e-06
-4.24896e-07
-2.37086e-07
1.35855e-06
-4.41232e-07
-2.84409e-07
1.44092e-06
-4.5528e-07
-3.31717e-07
1.50458e-06
-4.66055e-07
-3.68578e-07
1.53676e-06
-4.73424e-07
-3.90498e-07
1.55237e-06
-4.78037e-07
-4.02079e-07
1.56481e-06
-4.79186e-07
-4.06071e-07
1.57622e-06
-4.77533e-07
-4.04016e-07
1.58753e-06
-4.73262e-07
-3.99898e-07
1.59077e-06
-4.68638e-07
-3.93469e-07
1.58555e-06
-4.65542e-07
-3.83054e-07
1.57306e-06
-4.62943e-07
-3.70346e-07
1.5603e-06
-4.59858e-07
-3.62933e-07
1.56028e-06
-4.55186e-07
-3.65801e-07
1.5717e-06
-4.49044e-07
-3.79041e-07
1.58429e-06
-4.42181e-07
-3.99054e-07
1.59009e-06
-4.3547e-07
-4.15765e-07
1.5778e-06
-4.32309e-07
-4.22485e-07
1.55312e-06
-4.31157e-07
-4.10151e-07
1.51953e-06
-4.32703e-07
-3.69869e-07
1.48258e-06
-4.36972e-07
-2.86682e-07
1.44375e-06
-4.48343e-07
-1.33205e-07
1.37674e-06
-4.72802e-07
1.2843e-07
1.25052e-06
-5.21274e-07
5.39485e-07
1.03802e-06
-5.99947e-07
1.16948e-06
6.47761e-07
-7.41188e-07
2.05763e-06
6.19058e-08
-9.28868e-07
3.00637e-06
-5.28501e-07
-1.02927e-06
3.7544e-06
-6.77765e-07
-8.67741e-07
4.01863e-06
-1.96678e-07
-5.45594e-07
3.79748e-06
5.92571e-07
-4.36428e-07
2.84687e-06
1.25345e-06
-3.12589e-08
1.15988e-06
2.21068e-06
3.65286e-07
-2.01486e-06
8.00038e-06
1.19461e-06
-1.07464e-05
1.358e-05
2.54081e-06
-1.91003e-05
1.49393e-05
1.19261e-06
-2.43565e-05
1.89519e-05
1.02325e-06
-3.23791e-05
2.21042e-05
3.06974e-06
-3.96097e-05
1.92656e-05
4.80956e-06
-4.04587e-05
1.24373e-05
4.40939e-06
-5.16215e-05
2.10422e-05
2.70247e-06
-4.46765e-05
8.93657e-08
6.4009e-06
1.96233e-07
-4.22095e-05
8.51822e-06
-6.03765e-05
1.22583e-05
-9.06644e-06
-0.000154346
3.27166e-05
-1.44492e-05
-0.000152203
1.02061e-05
3.20784e-06
-0.000161543
1.01588e-05
3.23568e-06
-0.000175089
1.06101e-05
8.00272e-06
-0.000190809
2.30906e-05
1.01139e-05
-0.000211547
2.4159e-05
1.15732e-05
-0.000223751
1.93161e-05
4.14841e-06
-0.000226149
1.47564e-05
-2.6304e-06
-0.000226993
1.21118e-05
-5.27347e-06
-0.000226739
6.36414e-06
-5.65085e-06
-0.000224308
1.99978e-06
-6.55669e-06
-0.000220684
-8.45105e-07
-6.30583e-06
-0.000217194
-4.5582e-06
-5.16765e-06
-0.000214024
-6.82454e-06
-4.44486e-06
-0.000210127
-8.80396e-06
-3.81997e-06
-0.000205703
-9.6007e-06
-2.64126e-06
-0.000201074
-9.11328e-06
-1.74304e-06
-0.000195108
-8.10025e-06
-1.01957e-06
-0.000188194
-4.8399e-06
3.21941e-07
-0.000183883
5.35224e-07
1.73182e-06
-0.000183838
5.65384e-06
3.33404e-06
-0.00018793
6.94385e-06
6.1087e-06
-0.000194167
7.42111e-06
7.44389e-06
-0.000200974
5.64412e-06
6.97598e-06
-0.00020369
-9.82747e-07
4.54024e-06
-0.000201355
-5.01934e-06
1.58227e-06
-0.000199745
-8.0994e-06
-4.00029e-08
-0.000200567
-9.21164e-06
-7.33012e-07
-0.000203823
-7.74325e-06
-3.83191e-07
-0.000208411
-5.34988e-06
-5.75384e-07
-0.000212384
-1.69264e-06
-2.564e-06
-0.000209788
2.03609e-06
-5.19057e-06
-0.000199667
8.23735e-06
-6.48148e-06
-0.000187282
1.30085e-05
-7.22245e-06
-0.000173987
1.44156e-05
-7.30835e-06
1.30665e-05
-6.25894e-06
-2.91951e-06
-1.12157e-07
1.63909e-06
-2.70602e-06
-4.71127e-06
-4.72506e-07
-2.88295e-06
-2.36475e-06
-1.07008e-07
-1.93604e-06
-3.65533e-06
-9.06137e-07
-8.59554e-07
-3.159e-06
-6.7271e-07
3.55436e-09
-2.23777e-06
-6.04542e-07
2.06441e-07
-1.82133e-07
9.90131e-08
2.18336e-08
6.90205e-07
4.47567e-07
1.10473e-08
1.12423e-06
-2.65928e-09
-1.25132e-07
1.1751e-06
1.38175e-07
-6.56965e-08
1.23254e-06
-3.45729e-09
-1.35214e-08
1.29244e-06
4.93636e-08
6.87306e-08
1.2863e-06
5.35337e-08
8.78516e-08
1.16086e-06
9.34206e-08
5.49156e-08