/*--------------------------------*- C++ -*----------------------------------*\
| =========                 |                                                 |
| \\      /  F ield         | OpenFOAM: The Open Source CFD Toolbox           |
|  \\    /   O peration     | Version:  2.3.0                                 |
|   \\  /    A nd           | Web:      www.OpenFOAM.org                      |
|    \\/     M anipulation  |                                                 |
\*---------------------------------------------------------------------------*/
FoamFile
{
    version     2.0;
    format      ascii;
    class       surfaceScalarField;
    location    "38";
    object      phi.water;
}
// * * * * * * * * * * * * * * * * * * * * * * * * * * * * * * * * * * * * * //

dimensions      [0 3 -1 0 0 0 0];

internalField   nonuniform List<scalar> 
16448
(
-8.7452e-07
-2.44434e-06
3.74523e-07
1.12885e-06
-2.55737e-06
5.57372e-07
1.19674e-06
-1.09113e-06
1.02584e-06
1.11429e-06
-1.00662e-06
1.09112e-06
6.75556e-07
-5.98611e-07
1.04076e-06
3.63478e-07
-6.46372e-07
9.62836e-07
1.4394e-07
-5.43745e-07
7.70103e-07
2.81649e-08
-4.70012e-07
5.92317e-07
-1.8654e-07
-2.89851e-07
5.07424e-07
-4.55878e-07
-1.92918e-07
4.62525e-07
-6.49145e-07
-1.83508e-07
3.77083e-07
-6.86604e-07
-2.40654e-07
2.78369e-07
-6.00922e-07
-3.09964e-07
2.24591e-07
-4.39261e-07
-3.60446e-07
1.99063e-07
-2.74321e-07
-3.90135e-07
2.25535e-07
-1.16405e-07
-4.1662e-07
2.58998e-07
6.03479e-09
-4.30427e-07
3.08317e-07
9.83955e-08
-4.46062e-07
3.54006e-07
1.55087e-07
-4.57396e-07
4.00999e-07
1.81148e-07
-4.67076e-07
4.41302e-07
1.86502e-07
-4.75639e-07
4.70558e-07
1.78742e-07
-4.78757e-07
4.86788e-07
1.63966e-07
-4.76952e-07
4.91986e-07
1.45678e-07
-4.70547e-07
4.89098e-07
1.27091e-07
-4.6052e-07
4.79359e-07
1.10903e-07
-4.4796e-07
4.6441e-07
9.85701e-08
-4.33364e-07
4.45952e-07
9.11552e-08
-4.18172e-07
4.25854e-07
8.97806e-08
-4.05642e-07
4.07276e-07
9.29292e-08
-3.93641e-07
3.90759e-07
9.72371e-08
-3.8153e-07
3.7748e-07
9.99065e-08
-3.69437e-07
3.67033e-07
9.99887e-08
-3.57926e-07
3.58103e-07
9.70182e-08
-3.46677e-07
3.4991e-07
9.10477e-08
-3.35135e-07
3.41365e-07
8.1597e-08
-3.22762e-07
3.32472e-07
7.39171e-08
-3.11752e-07
3.19697e-07
6.58749e-08
-2.98662e-07
3.0694e-07
6.7187e-08
-2.89301e-07
2.88278e-07
6.4181e-08
-2.72081e-07
2.75267e-07
8.40531e-08
-2.68149e-07
2.48597e-07
8.44162e-08
-2.38168e-07
2.37976e-07
1.35571e-07
-2.56125e-07
2.05349e-07
1.51557e-07
-2.12686e-07
1.96672e-07
1.9748e-07
-2.41286e-07
1.95949e-07
1.18847e-07
-1.66293e-07
2.44798e-07
5.08685e-08
-2.20332e-07
2.8885e-07
-1.24936e-07
-1.94179e-07
3.69447e-07
-2.30713e-07
-3.11098e-07
4.21424e-07
-2.84943e-07
-4.15581e-07
4.75135e-07
-4.36738e-07
-3.89407e-07
5.68612e-07
-1.85036e-07
-1.14555e-06
9.25213e-07
-5.00587e-07
-1.29244e-06
1.77243e-06
-1.4352e-06
-1.13032e-06
2.12836e-06
-3.02783e-06
-2.19748e-06
3.91546e-06
-5.41346e-06
-2.20997e-06
4.46426e-06
1.49133e-06
-4.39591e-06
-1.21296e-06
4.15697e-06
-1.31579e-06
-1.96408e-06
1.04649e-05
-1.63953e-06
4.82329e-06
2.70214e-05
-4.92478e-06
7.79153e-06
1.24336e-05
-1.17856e-05
-2.52603e-07
1.58986e-05
-7.20033e-06
2.85037e-06
1.43261e-05
-3.29694e-06
4.86856e-06
1.53229e-05
-2.6944e-06
1.69753e-06
1.38284e-05
1.49564e-07
1.34497e-06
1.00443e-05
2.13549e-06
1.64856e-06
5.09219e-06
2.57993e-06
2.37222e-06
-8.18295e-08
2.60597e-06
2.56804e-06
-4.15158e-06
2.11704e-06
1.95271e-06
-6.5996e-06
1.00249e-06
1.44552e-06
-8.29591e-06
1.86121e-07
1.51019e-06
-9.92166e-06
-7.63855e-07
2.3896e-06
-1.09848e-05
-1.49978e-06
2.56291e-06
-1.13401e-05
-2.17149e-06
2.52677e-06
-1.08601e-05
-2.85124e-06
2.37125e-06
-9.89308e-06
-3.31235e-06
2.34535e-06
-8.86456e-06
-3.56828e-06
2.53975e-06
-7.81456e-06
-3.73787e-06
2.68787e-06
-6.65474e-06
-4.01392e-06
2.8541e-06
-5.45017e-06
-4.24263e-06
3.03805e-06
-4.15076e-06
-4.5451e-06
3.24569e-06
-2.79288e-06
-4.83875e-06
3.48087e-06
-1.311e-06
-5.13406e-06
3.65218e-06
2.58373e-07
-5.34855e-06
3.77917e-06
1.90833e-06
-5.47408e-06
3.82412e-06
3.54997e-06
-5.44933e-06
3.80769e-06
5.09922e-06
-5.22713e-06
3.67788e-06
6.43891e-06
-4.84572e-06
3.50603e-06
7.39167e-06
-4.13317e-06
3.1804e-06
7.83416e-06
-3.29167e-06
2.84919e-06
7.76669e-06
-2.45284e-06
2.52032e-06
7.06318e-06
-1.56964e-06
2.27315e-06
5.99581e-06
-8.44796e-07
1.91217e-06
4.19819e-06
1.10179e-07
1.68744e-06
2.11012e-06
1.18995e-06
8.98125e-07
1.8656e-06
2.44532e-07
-1.39719e-06
-3.55867e-06
-1.78264e-07
2.86024e-08
-3.81386e-06
-1.61905e-07
3.5782e-07
-2.03832e-06
6.23054e-07
6.20512e-07
-1.85161e-06
5.86188e-07
5.661e-07
-1.02627e-06
4.8617e-07
4.33008e-07
-8.54523e-07
3.45066e-07
2.38824e-07
-4.61777e-07
1.17428e-07
1.96519e-08
-3.05936e-07
6.043e-08
-3.34028e-07
-3.09326e-08
9.72649e-08
-6.93149e-07
4.69017e-08
1.19166e-07
-8.94752e-07
-2.90127e-08
4.71419e-08
-9.12682e-07
-1.74887e-07
-4.78249e-08
-8.14208e-07
-2.93165e-07
-1.15107e-07
-6.43841e-07
-3.8061e-07
-1.50068e-07
-4.55689e-07
-4.33181e-07
-1.44933e-07
-2.75536e-07
-4.72218e-07
-1.24425e-07
-1.29596e-07
-4.88215e-07
-8.79908e-08
-1.20199e-08
-5.08139e-07
-5.53851e-08
6.97842e-08
-5.17864e-07
-2.12293e-08
1.17889e-07
-5.21837e-07
6.73321e-09
1.41857e-07
-5.2227e-07
2.27541e-08
1.48484e-07
-5.16966e-07
3.16683e-08
1.44272e-07
-5.06744e-07
3.40892e-08
1.33669e-07
-4.91923e-07
3.20523e-08
1.20616e-07
-4.73538e-07
2.61359e-08
1.08064e-07
-4.52789e-07
1.74287e-08
9.76694e-08
-4.3035e-07
7.41279e-09
9.11921e-08
-4.07376e-07
-4.30399e-09
9.01917e-08
-3.86199e-07
-1.84114e-08
9.21869e-08
-3.65344e-07
-3.02591e-08
9.37424e-08
-3.43299e-07
-3.97466e-08
9.35849e-08
-3.21307e-07
-4.79354e-08
9.23522e-08
-3.00858e-07
-5.57926e-08
8.9538e-08
-2.80603e-07
-6.32243e-08
8.58443e-08
-2.60414e-07
-7.09855e-08
8.02781e-08
-2.3887e-07
-7.83009e-08
7.71667e-08
-2.20418e-07
-8.81753e-08
7.22792e-08
-1.97457e-07
-9.63125e-08
7.84347e-08
-1.84338e-07
-1.1105e-07
7.86171e-08
-1.54548e-07
-1.17748e-07
1.07595e-07
-1.55342e-07
-1.41683e-07
1.18884e-07
-1.08871e-07
-1.40672e-07
1.75371e-07
-1.44488e-07
-1.679e-07
1.84078e-07
-6.97529e-08
-1.51972e-07
2.29879e-07
-1.40237e-07
-1.46343e-07
9.39459e-08
5.3871e-08
-8.4642e-08
2.07958e-09
-7.55504e-08
-5.21038e-08
-2.7374e-07
7.87527e-08
1.90194e-09
-3.01494e-07
-1.91133e-07
-8.29089e-08
-2.11578e-07
-3.63557e-07
-1.3205e-07
4.51038e-07
-7.87019e-07
-2.18255e-07
6.53883e-07
-1.67012e-06
3.50171e-07
-1.20007e-06
-1.01208e-06
1.70344e-06
-2.41493e-06
-1.11647e-06
1.24108e-06
8.1386e-07
-5.82278e-06
5.43388e-07
3.54468e-06
-6.10009e-06
1.09758e-06
-1.29931e-06
5.33749e-08
1.10796e-06
-9.88112e-06
3.13124e-06
3.92267e-06
4.59645e-06
-6.50142e-06
1.99298e-06
2.91675e-05
-1.7636e-05
3.33685e-06
1.17236e-05
-1.80203e-05
-4.0551e-06
1.30936e-05
-1.12167e-05
1.46696e-06
1.06999e-05
-6.00952e-06
5.10503e-06
1.12618e-05
-2.42271e-06
-8.33622e-07
9.66774e-06
2.69209e-06
-9.48483e-07
7.21064e-06
4.40034e-06
1.92238e-07
2.30257e-06
5.68544e-06
1.80255e-06
-3.49636e-06
5.70921e-06
2.69568e-06
-7.60557e-06
4.09026e-06
2.13599e-06
-9.98723e-06
2.211e-06
1.17314e-06
-1.16134e-05
6.19026e-07
1.19326e-06
-1.31558e-05
-8.43926e-07
1.62247e-06
-1.42668e-05
-2.02653e-06
1.63775e-06
-1.4716e-05
-3.05653e-06
1.33421e-06
-1.43372e-05
-3.97036e-06
7.40307e-07
-1.336e-05
-4.75382e-06
4.64258e-07
-1.24553e-05
-5.26079e-06
7.87853e-07
-1.16121e-05
-5.55258e-06
9.71458e-07
-1.0662e-05
-6.04831e-06
1.0843e-06
-9.52078e-06
-6.59515e-06
1.21131e-06
-8.10412e-06
-7.26705e-06
1.3053e-06
-6.3803e-06
-7.96074e-06
1.39815e-06
-4.41303e-06
-8.59505e-06
1.49372e-06
-2.35651e-06
-8.97943e-06
1.57436e-06
-3.05189e-07
-9.1112e-06
1.5858e-06
1.69059e-06
-8.98392e-06
1.53881e-06
3.61142e-06
-8.53297e-06
1.38502e-06
5.32812e-06
-7.70888e-06
1.14646e-06
6.68596e-06
-6.30843e-06
8.17431e-07
7.56504e-06
-4.77633e-06
6.05575e-07
7.73047e-06
-3.21814e-06
5.99882e-07
7.10415e-06
-1.58584e-06
6.42531e-07
5.66147e-06
-9.37621e-08
6.9166e-07
3.57631e-06
1.22711e-06
9.68231e-07
1.62584e-06
2.60357e-06
5.36856e-07
3.82929e-06
-3.37843e-07
-1.86556e-06
-3.95259e-06
-4.24372e-07
-8.1172e-07
-4.26467e-06
-5.93748e-07
-4.66101e-07
-2.55583e-06
1.7832e-07
-1.06694e-07
-2.25915e-06
5.22197e-08
7.31413e-08
-1.19816e-06
-4.08125e-09
9.64574e-08
-8.19736e-07
-5.46167e-08
9.90335e-08
-2.5911e-07
-2.00813e-07
-3.25805e-08
-5.38513e-10
-1.69314e-07
-3.07008e-07
3.57583e-07
-1.11423e-07
-6.16952e-07
4.10686e-07
-5.34905e-08
-7.96318e-07
2.59755e-07
-1.09014e-07
-8.35274e-07
5.35184e-08
-1.89078e-07
-7.97571e-07
-8.01762e-08
-2.50288e-07
-7.04958e-07
-1.80531e-07
-2.92387e-07
-5.72667e-07
-2.45527e-07
-3.19703e-07
-4.30768e-07
-2.89251e-07
-3.24694e-07
-3.04238e-07
-3.01742e-07
-3.12834e-07
-1.93784e-07
-3.18718e-07
-2.99739e-07
-1.01717e-07
-3.24025e-07
-2.8578e-07
-3.02293e-08
-3.19457e-07
-2.73754e-07
1.95285e-08
-3.07656e-07
-2.64258e-07
5.16757e-08
-2.91118e-07
-2.57881e-07
7.02188e-08
-2.71015e-07
-2.54166e-07
7.90614e-08
-2.47808e-07
-2.52847e-07
8.18252e-08
-2.22789e-07
-2.5341e-07
8.14445e-08
-1.97243e-07
-2.55057e-07
8.03756e-08
-1.71873e-07
-2.57306e-07
7.99298e-08
-1.4709e-07
-2.59732e-07
7.86018e-08
-1.22412e-07
-2.62353e-07
7.46882e-08
-9.65257e-08
-2.64788e-07
6.82615e-08
-6.92602e-08
-2.67497e-07
6.12469e-08
-4.32421e-08
-2.70925e-07
5.5689e-08
-2.00921e-08
-2.7508e-07
5.23007e-08
2.15913e-09
-2.79236e-07
4.90206e-08
2.68505e-08
-2.8385e-07
4.60851e-08
5.18418e-08
-2.87653e-07
4.41151e-08
7.33635e-08
-2.91676e-07
4.09592e-08
9.97828e-08
-2.9398e-07
4.31854e-08
1.13817e-07
-3.00213e-07
4.34447e-08
1.45294e-07
-3.00052e-07
5.85134e-08
1.43393e-07
-3.13562e-07
5.05206e-08
1.96905e-07
-2.97818e-07
6.53693e-08
1.55264e-07
-3.14245e-07
-6.98017e-09
2.63372e-07
-2.61199e-07
-7.03852e-08
1.90949e-07
-2.66763e-07
-2.29919e-07
4.09618e-07
-1.9708e-07
-4.31637e-07
3.22118e-07
-1.94434e-07
-5.20556e-07
4.15062e-07
-2.47399e-07
-5.06311e-07
1.79916e-07
-3.70105e-07
-2.01387e-07
-1.33453e-07
-5.18042e-07
9.23758e-07
-1.09988e-06
-7.50534e-07
6.90471e-07
-1.60594e-06
1.94411e-07
-6.67176e-07
-6.65991e-07
1.12909e-06
3.99322e-07
-1.65904e-06
-4.69077e-07
3.96751e-06
-8.5004e-06
-6.19729e-07
6.62042e-06
-7.81765e-06
-1.05412e-06
7.43941e-06
1.98522e-06
-1.95243e-06
-4.1845e-07
1.03916e-05
4.39551e-08
6.61125e-06
-4.88997e-06
3.54551e-06
3.04146e-05
-2.27103e-05
4.72429e-07
1.18931e-05
-2.33837e-05
-5.16161e-06
1.17473e-05
-1.26198e-05
3.75374e-07
8.94019e-06
-6.19293e-06
2.9892e-06
8.67322e-06
-4.17195e-07
-1.73857e-06
6.47643e-06
6.38041e-06
-1.49154e-06
3.5072e-06
7.30031e-06
6.92417e-08
-2.63222e-06
9.17106e-06
2.65379e-06
-7.49106e-06
7.33384e-06
3.2342e-06
-1.0329e-05
4.58191e-06
2.3463e-06
-1.2238e-05
2.66772e-06
1.45224e-06
-1.36728e-05
9.06532e-07
1.14729e-06
-1.50572e-05
-5.04683e-07
1.04516e-06
-1.60911e-05
-1.63252e-06
6.39934e-07
-1.65113e-05
-2.5035e-06
-1.32839e-07
-1.61287e-05
-3.29399e-06
-1.05894e-06
-1.53338e-05
-3.97151e-06
-1.57724e-06
-1.47584e-05
-4.62359e-06
-1.21265e-06
-1.43415e-05
-5.03867e-06
-9.30829e-07
-1.38614e-05
-5.69503e-06
-8.33359e-07
-1.30943e-05
-6.57428e-06
-7.87943e-07
-1.18852e-05
-7.65911e-06
-8.17015e-07
-1.01187e-05
-8.85821e-06
-8.69106e-07
-7.79674e-06
-9.98893e-06
-9.28038e-07
-5.12394e-06
-1.0634e-05
-1.0182e-06
-2.36434e-06
-1.07956e-05
-1.07516e-06
3.68251e-07
-1.05804e-05
-1.13615e-06
3.08567e-06
-9.94157e-06
-1.30881e-06
5.4247e-06
-8.55426e-06
-1.49364e-06
7.38882e-06
-6.5676e-06
-1.70495e-06
9.02688e-06
-4.53751e-06
-1.87688e-06
9.81784e-06
-2.12185e-06
-1.88725e-06
9.51021e-06
4.61519e-07
-1.73972e-06
8.10875e-06
2.59172e-06
-1.28401e-06
5.36903e-06
4.13273e-06
-1.65884e-07
2.30263e-06
5.37667e-06
2.93307e-07
6.42095e-06
-2.89024e-07
-2.43705e-06
-4.13664e-06
-2.69731e-07
-1.37674e-06
-4.51699e-06
-7.99634e-07
-1.16495e-06
-2.91549e-06
1.55351e-07
-7.40504e-07
-2.73138e-06
5.32567e-08
-4.75248e-07
-1.46911e-06
1.04005e-08
-1.80949e-07
-1.01891e-06
-9.1888e-08
9.81805e-10
-2.10562e-07
-2.26002e-07
2.6282e-08
1.56867e-07
-1.78226e-07
-1.13568e-07
6.48939e-07
-1.48644e-07
-3.66103e-07
7.54749e-07
-9.09501e-08
-5.43701e-07
5.91286e-07
-1.53482e-07
-6.55264e-07
3.82114e-07
-2.16565e-07
-7.10166e-07
2.40308e-07
-2.65071e-07
-6.93274e-07
1.13307e-07
-3.10315e-07
-6.17128e-07
2.5341e-08
-3.46605e-07
-5.05819e-07
-2.5052e-08
-3.75165e-07
-3.92925e-07
-2.63768e-08
-3.87898e-07
-2.91071e-07
-2.60991e-08
-3.94143e-07
-2.017e-07
-1.62899e-08
-3.96762e-07
-1.24205e-07
2.48281e-10
-3.96892e-07
-6.02197e-08
2.09737e-08
-3.92297e-07
-1.05235e-08
4.52813e-08
-3.85798e-07
2.59161e-08
7.1877e-08
-3.79024e-07
5.07388e-08
1.00699e-07
-3.73042e-07
6.56899e-08
1.30812e-07
-3.68253e-07
7.30456e-08
1.60005e-07
-3.64321e-07
7.48613e-08
1.87545e-07
-3.60941e-07
7.29586e-08
2.13006e-07
-3.57921e-07
6.86179e-08
2.37677e-07
-3.5547e-07
6.20926e-08
2.64158e-07
-3.53905e-07
5.44772e-08
2.92207e-07
-3.53596e-07
4.6573e-08
3.19294e-07
-3.54407e-07
3.89797e-08
3.43513e-07
-3.55787e-07
3.09267e-08
3.67362e-07
-3.56957e-07
2.45193e-08
3.9079e-07
-3.57322e-07
1.93725e-08
4.14436e-07
-3.57267e-07
1.65299e-08
4.34133e-07
-3.57716e-07
1.51726e-08
4.58351e-07
-3.57061e-07
1.79159e-08
4.69686e-07
-3.58378e-07
1.58852e-08
5.00653e-07
-3.53258e-07
1.0072e-08
5.01452e-07
-3.51851e-07
-2.61032e-08
5.6319e-07
-3.30306e-07
-9.72355e-08
5.47183e-07
-3.2016e-07
-2.12653e-07
6.63856e-07
-2.85467e-07
-3.91725e-07
6.42366e-07
-2.71359e-07
-4.95654e-07
7.73111e-07
-2.60601e-07
-5.99946e-07
7.03721e-07
-2.7512e-07
-4.86618e-07
6.4626e-07
-3.44195e-07
-2.89707e-07
5.4347e-07
-5.40781e-07
1.72009e-07
1.36458e-07
-7.04978e-07
7.33137e-07
-8.14253e-07
-7.835e-07
2.15343e-08
-1.0788e-06
1.99671e-07
1.58476e-06
-2.22412e-06
1.65336e-07
4.45486e-06
-3.21261e-06
-1.25725e-06
4.27561e-06
-7.6309e-06
-3.46389e-07
3.20183e-06
-5.14693e-06
-1.67531e-06
7.41675e-06
1.96395e-06
-3.52505e-06
3.11626e-06
1.81653e-05
-4.12361e-06
1.19576e-05
-7.89204e-06
8.16442e-06
3.48209e-05
-2.34021e-05
-1.91504e-06
1.0141e-05
-2.73892e-05
-3.62822e-06
6.79213e-06
-1.25013e-05
1.52771e-06
3.82773e-06
-5.79158e-06
2.55913e-06
1.00815e-06
4.13728e-06
-1.73528e-06
2.84107e-07
7.05446e-06
4.98486e-08
-5.24562e-06
1.0549e-05
2.28116e-06
-9.08789e-06
9.13232e-06
3.88128e-06
-1.13528e-05
6.60684e-06
2.99217e-06
-1.33085e-05
4.31558e-06
2.22222e-06
-1.48118e-05
2.89251e-06
1.27861e-06
-1.60602e-05
1.44513e-06
7.09983e-07
-1.72965e-05
4.66698e-07
2.64876e-07
-1.82529e-05
-3.2849e-07
-3.47643e-07
-1.86803e-05
-7.70815e-07
-1.30547e-06
-1.83673e-05
-1.22043e-06
-2.38676e-06
-1.76753e-05
-1.79613e-06
-2.86749e-06
-1.72948e-05
-2.52818e-06
-2.47604e-06
-1.70109e-05
-3.2332e-06
-2.0894e-06
-1.66815e-05
-4.18726e-06
-1.83718e-06
-1.62372e-05
-5.37797e-06
-1.64063e-06
-1.55634e-05
-6.82079e-06
-1.51211e-06
-1.44919e-05
-8.54935e-06
-1.38036e-06
-1.26867e-05
-1.05265e-05
-1.26766e-06
-9.85478e-06
-1.21474e-05
-1.31859e-06
-6.41091e-06
-1.27585e-05
-1.48101e-06
-2.79725e-06
-1.2374e-05
-1.82005e-06
8.78588e-07
-1.14142e-05
-2.20324e-06
4.53124e-06
-9.54043e-06
-2.66648e-06
7.65111e-06
-6.8338e-06
-2.85367e-06
1.01661e-05
-3.9784e-06
-3.07412e-06
1.17197e-05
-3.36021e-07
-3.33942e-06
1.17853e-05
4.00479e-06
-3.60883e-06
1.0591e-05
7.33903e-06
-3.55299e-06
7.53835e-06
9.165e-06
-1.97966e-06
3.51115e-06
9.94285e-06
-5.38966e-07
9.8803e-06
5.17985e-08
-3.07626e-06
-4.25534e-06
-6.20361e-08
-2.0216e-06
-4.7193e-06
-8.45106e-07
-1.8774e-06
-3.26444e-06
2.12406e-07
-1.24388e-06
-3.39495e-06
3.63208e-08
-7.72797e-07
-2.13071e-06
1.9693e-07
-2.56842e-07
-1.59148e-06
6.10225e-08
9.74599e-09
-3.32801e-07
-1.39609e-07
1.07801e-07
2.06602e-07
-1.43093e-07
9.56108e-08
8.30814e-07
-1.66089e-07
-1.40053e-07
1.08182e-06
-9.01629e-08
-3.37669e-07
9.2545e-07
-1.35813e-07
-5.06917e-07
7.25023e-07
-1.73149e-07
-6.21862e-07
5.5765e-07
-2.01951e-07
-6.55643e-07
3.91954e-07
-2.44566e-07
-6.13753e-07
2.67276e-07
-2.83557e-07
-5.22184e-07
2.04709e-07
-3.21106e-07
-4.21721e-07
2.20467e-07
-3.47105e-07
-3.30384e-07
2.47831e-07
-3.65082e-07
-2.4845e-07
2.80635e-07
-3.78693e-07
-1.70874e-07
3.12102e-07
-3.89272e-07
-1.01662e-07
3.46528e-07
-3.94644e-07
-4.24598e-08
3.8129e-07
-3.95094e-07
4.78604e-09
4.16477e-07
-3.91761e-07
4.0238e-08
4.5114e-07
-3.85802e-07
6.41026e-08
4.84842e-07
-3.77833e-07
7.80162e-08
5.14902e-07
-3.68739e-07
8.39804e-08
5.4113e-07
-3.59503e-07
8.44689e-08
5.63404e-07
-3.50824e-07
8.06185e-08
5.84626e-07
-3.43059e-07
7.34343e-08
6.07904e-07
-3.36502e-07
6.46672e-08
6.32078e-07
-3.31062e-07
5.55979e-08
6.5467e-07
-3.26241e-07
4.63294e-08
6.74583e-07
-3.2175e-07
3.64675e-08
6.94524e-07
-3.1723e-07
2.69211e-08
7.134e-07
-3.13003e-07
1.82469e-08
7.31784e-07
-3.086e-07
1.1822e-08
7.44915e-07
-3.0428e-07
4.78389e-09
7.63543e-07
-2.98091e-07
-3.70509e-09
7.70027e-07
-2.91711e-07
-2.57886e-08
8.00852e-07
-2.78117e-07
-6.89504e-08
8.09099e-07
-2.64283e-07
-1.46745e-07
8.80981e-07
-2.40125e-07
-2.89371e-07
9.09882e-07
-2.19662e-07
-4.21126e-07
9.97484e-07
-2.02393e-07
-5.9334e-07
1.01345e-06
-1.97984e-07
-5.96359e-07
9.71241e-07
-1.96273e-07
-5.42451e-07
8.63985e-07
-2.11866e-07
-2.99444e-07
6.53943e-07
-2.49379e-07
-1.14602e-07
7.33458e-07
-3.50597e-07
3.61572e-07
3.3723e-07
-6.45671e-07
6.56824e-07
-2.66283e-07
-7.82077e-07
6.09695e-07
-1.01668e-06
1.62886e-08
2.39324e-06
-3.70133e-06
-6.21883e-08
1.80617e-06
-1.70117e-06
-8.29733e-07
-4.08902e-06
-3.64265e-07
-1.15584e-06
-5.57147e-06
1.25319e-07
-4.02836e-06
6.70512e-06
-2.73604e-06
-6.93631e-06
1.27629e-05
2.12177e-05
-8.7075e-06
1.71545e-05
-9.99529e-06
1.34095e-05
3.70977e-05
-1.99979e-05
-3.78228e-06
4.93287e-06
-2.59821e-05
-3.28166e-06
-5.0947e-06
-9.4876e-06
5.40189e-06
-7.28269e-06
-5.43372e-06
1.8198e-06
-9.26213e-06
5.19108e-06
9.22446e-07
-1.03455e-05
6.41735e-06
1.72013e-06
-1.21205e-05
9.26745e-06
3.05954e-06
-1.36356e-05
7.37582e-06
3.27496e-06
-1.51517e-05
5.8822e-06
2.24346e-06
-1.6663e-05
4.28176e-06
1.5476e-06
-1.79368e-05
3.4801e-06
6.88577e-07
-1.90051e-05
2.41138e-06
1.03395e-07
-2.01138e-05
1.95107e-06
-3.76993e-07
-2.09383e-05
1.67433e-06
-1.18116e-06
-2.11189e-05
1.66182e-06
-2.25814e-06
-2.05612e-05
1.54885e-06
-3.33438e-06
-1.94682e-05
7.5645e-07
-3.65218e-06
-1.8628e-05
-2.52678e-07
-3.12038e-06
-1.7911e-05
-1.52983e-06
-2.42429e-06
-1.725e-05
-2.99856e-06
-1.85281e-06
-1.67702e-05
-4.55178e-06
-1.30742e-06
-1.64071e-05
-6.48863e-06
-6.95793e-07
-1.60208e-05
-8.82468e-06
-1.11095e-07
-1.5401e-05
-1.15424e-05
3.9605e-07
-1.39777e-05
-1.42099e-05
6.39261e-07
-1.1297e-05
-1.60325e-05
5.93423e-07
-7.31931e-06
-1.62632e-05
-8.85295e-08
-2.76496e-06
-1.51688e-05
-7.99901e-07
1.79699e-06
-1.27256e-05
-1.37681e-06
6.27967e-06
-9.33429e-06
-1.9822e-06
1.03857e-05
-5.57667e-06
-2.50777e-06
1.37062e-05
-6.3185e-07
-3.02472e-06
1.41476e-05
7.27942e-06
-3.71603e-06
1.27821e-05
1.35031e-05
-4.79857e-06
9.98654e-06
1.5994e-05
-4.03339e-06
5.39503e-06
1.612e-05
-1.58566e-06
1.53775e-05
-1.02144e-07
-3.66765e-06
-4.12244e-06
-6.2277e-08
-2.68598e-06
-4.86696e-06
-8.28828e-07
-2.7237e-06
-3.43215e-06
2.12597e-07
-1.90349e-06
-3.92553e-06
-2.83423e-07
-1.29193e-06
-2.99893e-06
2.64363e-07
-4.42454e-07
-2.51086e-06
7.72103e-08
7.21064e-09
-7.82677e-07
6.5363e-09
1.89873e-07
7.7571e-08
-4.87007e-08
3.22268e-07
8.16927e-07
-1.14168e-07
1.44859e-07
1.29536e-06
-3.43439e-08
-7.29115e-08
1.22714e-06
-8.31192e-08
-3.12963e-07
1.08031e-06
-1.1468e-07
-4.9385e-07
8.93114e-07
-1.53992e-07
-5.65484e-07
6.64023e-07
-1.9998e-07
-5.40293e-07
4.92645e-07
-2.50083e-07
-4.55754e-07
4.17242e-07
-2.9665e-07
-3.63827e-07
4.54931e-07
-3.25932e-07
-2.929e-07
5.22326e-07
-3.4497e-07
-2.36799e-07
5.85538e-07
-3.6051e-07
-1.85918e-07
6.3433e-07
-3.72641e-07
-1.3513e-07
6.75749e-07
-3.79526e-07
-8.7449e-08
7.1374e-07
-3.79684e-07
-4.51176e-08
7.49375e-07
-3.74769e-07
-1.10087e-08
7.83395e-07
-3.65941e-07
1.17568e-08
8.16885e-07
-3.54365e-07
2.50206e-08
8.43349e-07
-3.41302e-07
3.08226e-08
8.6361e-07
-3.27853e-07
3.21597e-08
8.77306e-07
-3.14848e-07
3.13844e-08
8.88797e-07
-3.02984e-07
2.85051e-08
9.03395e-07
-2.9223e-07
2.31416e-08
9.20546e-07
-2.82695e-07
1.54505e-08
9.36976e-07
-2.74235e-07
5.16904e-09
9.5173e-07
-2.6646e-07
-7.94646e-09
9.67095e-07
-2.59084e-07
-2.22057e-08
9.80336e-07
-2.52277e-07
-3.57253e-08
9.91219e-07
-2.4557e-07
-4.95312e-08
9.97762e-07
-2.38653e-07
-6.47883e-08
1.00875e-06
-2.2964e-07
-8.83671e-08
1.01344e-06
-2.19448e-07
-1.26903e-07
1.04291e-06
-2.0327e-07
-1.97832e-07
1.06692e-06
-1.86452e-07
-2.90179e-07
1.13885e-06
-1.65449e-07
-4.26024e-07
1.19202e-06
-1.4561e-07
-4.97746e-07
1.20734e-06
-1.3844e-07
-5.4798e-07
1.20726e-06
-1.42346e-07
-4.93018e-07
1.04986e-06
-1.34491e-07
-3.78861e-07
8.7959e-07
-1.27085e-07
-2.19084e-07
6.79936e-07
-1.84651e-07
2.28061e-08
7.78978e-07
-2.65146e-07
2.33316e-07
6.26556e-07
-4.73975e-07
1.13109e-06
5.72764e-08
-1.14907e-06
5.64526e-07
1.1266e-07
-5.34506e-07
-6.75686e-07
-2.08981e-06
-2.06505e-07
-1.30389e-06
5.11258e-07
-1.43961e-06
-3.45043e-06
5.03074e-06
-2.96071e-06
-4.60068e-06
4.89153e-06
-3.83731e-06
5.60289e-06
-5.31307e-06
-7.1401e-06
1.68402e-05
1.63812e-05
-6.12508e-06
2.42568e-05
-1.20813e-05
1.38328e-05
3.94567e-05
-1.47211e-05
-3.15541e-06
4.2927e-07
-2.00826e-05
-2.86968e-06
-1.2976e-05
-4.42113e-06
7.05104e-06
-1.68944e-05
-3.88047e-06
2.35191e-06
-1.772e-05
3.9492e-06
2.06223e-06
-1.90865e-05
5.84614e-06
1.92511e-06
-1.95251e-05
7.48792e-06
2.20351e-06
-2.06537e-05
6.60984e-06
1.90043e-06
-2.17772e-05
5.82779e-06
1.21675e-06
-2.27807e-05
4.69794e-06
6.1626e-07
-2.35909e-05
4.32522e-06
-2.98274e-08
-2.42633e-05
3.60101e-06
-5.2041e-07
-2.464e-05
3.47146e-06
-1.12867e-06
-2.44707e-05
3.47463e-06
-1.98509e-06
-2.33288e-05
3.39665e-06
-2.93692e-06
-2.15117e-05
3.31103e-06
-3.63276e-06
-1.91638e-05
1.94813e-06
-3.59347e-06
-1.6797e-05
1.9637e-07
-2.86777e-06
-1.46006e-05
-1.68342e-06
-2.08504e-06
-1.26605e-05
-3.58765e-06
-1.37862e-06
-1.14751e-05
-5.21948e-06
-5.36275e-07
-1.12553e-05
-6.92342e-06
2.08397e-07
-1.20723e-05
-9.12772e-06
1.11774e-06
-1.33609e-05
-1.21701e-05
1.91319e-06
-1.42218e-05
-1.59133e-05
2.56259e-06
-1.36184e-05
-1.91759e-05
2.53764e-06
-1.10863e-05
-2.0642e-05
1.84557e-06
-6.5836e-06
-2.03329e-05
6.60839e-07
-1.49584e-06
-1.77016e-05
-1.12317e-07
4.06487e-06
-1.45033e-05
-3.92313e-07
9.65226e-06
-1.0566e-05
-5.99137e-07
1.46962e-05
-5.18014e-06
-4.96899e-07
1.65324e-05
6.31784e-06
-8.75012e-07
1.4576e-05
1.89446e-05
-3.48528e-06
1.13114e-05
2.40369e-05
-4.77849e-06
6.45673e-06
2.42513e-05
-3.27665e-06
2.19794e-05
-1.45177e-07
-4.20173e-06
-3.62715e-06
-3.80353e-08
-3.27004e-06
-4.69299e-06
-1.1032e-06
-3.40179e-06
-3.21348e-06
-8.0799e-08
-2.2987e-06
-3.94569e-06
-1.07758e-06
-1.63379e-06
-3.34462e-06
-3.1172e-07
-5.90078e-07
-3.14969e-06
-3.96041e-07
7.34806e-08
-1.33431e-06
-1.04035e-07
2.2337e-07
-1.27222e-12
-6.64815e-08
4.01141e-07
7.97379e-07
-1.53217e-07
3.53488e-07
1.40238e-06
-5.70672e-08
1.50032e-07
1.49622e-06
-6.46975e-08
-1.46244e-07
1.43849e-06
-6.13389e-08
-3.36129e-07
1.18076e-06
-9.74033e-08
-4.12875e-07
8.95209e-07
-1.54292e-07
-4.04295e-07
7.09455e-07
-2.25341e-07
-3.4577e-07
6.45411e-07
-2.86645e-07
-2.75098e-07
7.02784e-07
-3.18522e-07
-2.27885e-07
8.03659e-07
-3.28563e-07
-2.01823e-07
8.93205e-07
-3.33791e-07
-1.86051e-07
9.56414e-07
-3.37926e-07
-1.71394e-07
1.00156e-06
-3.40569e-07
-1.563e-07
1.03694e-06
-3.38382e-07
-1.40904e-07
1.0654e-06
-3.31533e-07
-1.28183e-07
1.0912e-06
-3.20623e-07
-1.21829e-07
1.1159e-06
-3.05499e-07
-1.18042e-07
1.13031e-06
-2.90831e-07
-1.17019e-07
1.13973e-06
-2.7724e-07
-1.1643e-07
1.14252e-06
-2.65867e-07
-1.149e-07
1.14342e-06
-2.56251e-07
-1.1389e-07
1.14951e-06
-2.472e-07
-1.15815e-07
1.16073e-06
-2.38378e-07
-1.21012e-07
1.17219e-06
-2.3012e-07
-1.30461e-07
1.18331e-06
-2.22264e-07
-1.45008e-07
1.19614e-06
-2.14609e-07
-1.63243e-07
1.20615e-06
-2.07705e-07
-1.81766e-07
1.21109e-06
-2.0146e-07
-2.04714e-07
1.21423e-06
-1.93626e-07
-2.29742e-07
1.21812e-06
-1.84461e-07
-2.65259e-07
1.22193e-06
-1.73041e-07
-3.11317e-07
1.24708e-06
-1.58265e-07
-3.84252e-07
1.28177e-06
-1.41889e-07
-4.4822e-07
1.33412e-06
-1.31631e-07
-5.14867e-07
1.37733e-06
-1.18358e-07
-5.04393e-07
1.31782e-06
-1.21731e-07
-4.45374e-07
1.26815e-06
-1.19197e-07
-3.98047e-07
1.09227e-06
-9.10872e-08
-3.24093e-07
8.6451e-07
-5.72805e-08
-3.08881e-07
7.95618e-07
-1.30936e-07
-1.67646e-07
9.0082e-07
-2.44955e-07
-5.92983e-08
8.30917e-07
-2.89986e-07
6.2992e-07
2.44648e-07
-8.05466e-07
7.19984e-07
6.17574e-07
-5.60035e-07
-3.86198e-07
-3.22394e-07
-5.29228e-07
6.51322e-07
-4.94224e-07
5.20162e-08
4.60639e-06
2.98992e-06
-1.65647e-06
1.28777e-05
4.10583e-06
-7.49585e-06
2.3351e-05
-2.93756e-06
-1.23979e-05
3.52657e-05
2.30009e-06
1.59327e-06
2.89132e-05
-8.46434e-06
2.52179e-05
3.81666e-05
-6.70821e-06
-1.68211e-06
-6.76359e-06
-9.01197e-06
-3.06082e-06
-1.7931e-05
-4.17406e-07
6.6376e-06
-2.44601e-05
7.38378e-07
1.97887e-06
-2.67411e-05
4.76009e-06
1.63662e-06
-2.78857e-05
6.06784e-06
9.74091e-07
-2.83566e-05
6.89034e-06
9.56078e-07
-2.87498e-05
6.31515e-06
5.98913e-07
-2.87932e-05
5.70769e-06
2.37877e-07
-2.89344e-05
5.03011e-06
-1.14695e-07
-2.83858e-05
4.23619e-06
-5.57714e-07
-2.77386e-05
3.70243e-06
-8.735e-07
-2.6627e-05
3.76297e-06
-1.34129e-06
-2.50769e-05
4.06646e-06
-2.05482e-06
-2.30231e-05
3.98609e-06
-2.65083e-06
-1.93685e-05
2.65507e-06
-3.18017e-06
-1.57554e-05
9.34419e-07
-2.82025e-06
-1.18931e-05
-1.56663e-06
-2.20833e-06
-8.15254e-06
-4.13707e-06
-1.37905e-06
-4.86279e-06
-6.33226e-06
-6.05027e-07
-2.59421e-06
-7.70868e-06
1.71572e-07
-1.76172e-06
-8.72971e-06
9.55479e-07
-2.55464e-06
-1.01434e-05
1.7903e-06
-5.1464e-06
-1.22676e-05
2.65405e-06
-8.81738e-06
-1.56768e-05
3.40182e-06
-1.15712e-05
-2.02244e-05
3.76833e-06
-1.20406e-05
-2.34734e-05
3.28249e-06
-9.72648e-06
-2.44469e-05
1.78911e-06
-5.13598e-06
-2.29647e-05
6.64006e-07
7.52222e-07
-2.0672e-05
2.74936e-07
7.27917e-06
-1.75073e-05
4.11301e-07
1.35315e-05
-1.33827e-05
1.95054e-06
1.67297e-05
-7.09886e-07
3.83257e-06
1.38573e-05
2.07012e-05
1.11927e-06
1.18545e-05
2.86267e-05
-2.59182e-06
7.44477e-06
3.15915e-05
-2.94535e-06
3.0083e-05
-6.67985e-07
-4.64792e-06
-2.53309e-06
3.69025e-08
-3.77505e-06
-4.18745e-06
-1.37886e-06
-4.02959e-06
-2.6934e-06
-2.61094e-07
-2.63723e-06
-3.61062e-06
-1.722e-06
-1.87432e-06
-3.13646e-06
-9.63387e-07
-7.75044e-07
-3.21347e-06
-1.02568e-06
1.40693e-07
-1.92997e-06
-3.09478e-07
3.35974e-07
-2.07997e-07
2.07977e-08
4.09735e-07
8.36245e-07
-1.07427e-07
4.12387e-07
1.38323e-06
1.93281e-08
3.46266e-07
1.56114e-06
2.42277e-09
2.01392e-07
1.59175e-06
-7.94874e-09
1.17073e-07
1.39315e-06
-1.27753e-07
5.48686e-08
1.17264e-06
-2.15006e-07
5.26695e-09
1.06171e-06
-3.02341e-07
-5.42259e-08
1.07294e-06
-3.67791e-07
-1.09525e-07
1.17754e-06
-4.19187e-07
-1.59947e-07
1.30131e-06
-4.46991e-07
-2.08798e-07
1.40782e-06
-4.65504e-07
-2.52917e-07
1.47754e-06
-4.7677e-07
-2.77466e-07
1.51001e-06
-4.83707e-07
-2.88923e-07
1.53415e-06
-4.85622e-07
-2.93002e-07
1.55357e-06
-4.83993e-07
-2.92958e-07
1.57088e-06
-4.7971e-07
-2.90479e-07
1.58671e-06
-4.7331e-07
-2.88088e-07
1.59543e-06
-4.67634e-07
-2.84142e-07
1.59864e-06
-4.63009e-07
-2.75934e-07
1.59402e-06
-4.59928e-07
-2.66267e-07
1.59022e-06
-4.56676e-07
-2.61381e-07
1.59768e-06
-4.53314e-07
-2.62938e-07
1.61158e-06
-4.49524e-07
-2.70396e-07
1.6255e-06
-4.46119e-07
-2.83819e-07
1.63938e-06
-4.42907e-07
-3.03302e-07
1.65472e-06
-4.39403e-07
-3.26735e-07
1.66551e-06
-4.36226e-07
-3.50574e-07
1.66851e-06
-4.33943e-07
-3.78737e-07
1.67221e-06
-4.30152e-07
-4.08325e-07
1.67318e-06
-4.25898e-07
-4.457e-07
1.6778e-06
-4.18849e-07
-4.82062e-07
1.69436e-06
-4.11437e-07
-5.33123e-07
1.72916e-06
-3.96592e-07
-5.54899e-07
1.75039e-06
-3.95267e-07
-5.53689e-07
1.76842e-06
-3.92208e-07
-4.906e-07
1.66539e-06
-4.1186e-07
-3.54134e-07
1.56315e-06
-4.30945e-07
-3.18019e-07
1.45302e-06
-3.98544e-07
-3.06133e-07
1.21224e-06
-3.58113e-07
-4.61908e-07
1.38293e-06
-4.31329e-07
-3.56476e-07
1.35204e-06
-5.39254e-07
-2.56165e-07
1.26088e-06
-5.1008e-07
2.7417e-07
7.57765e-07
-9.78385e-07
1.66957e-06
-2.68365e-07
-4.76258e-07
2.18473e-06
1.72601e-07
-8.34195e-07
4.95038e-06
-1.75665e-06
-1.41125e-06
9.25844e-06
1.82899e-06
-2.78536e-06
1.80431e-05
4.09766e-06
-8.7256e-06
2.75976e-05
6.99419e-06
-1.91843e-05
3.99939e-05
2.60889e-06
-1.26237e-05
3.40111e-05
-5.25447e-06
2.96655e-05
4.13263e-05
4.78726e-06
-3.41147e-06
-1.21964e-05
9.28556e-06
-6.45022e-06
-2.21119e-05
2.80281e-06
6.30093e-06
-2.9814e-05
7.34559e-06
1.20316e-06
-3.18283e-05
5.98375e-06
7.97038e-07
-3.34643e-05
7.23148e-06
3.56472e-07
-3.29265e-05
5.7908e-06
3.97172e-07
-3.24884e-05
5.3718e-06
4.33659e-07
-3.10107e-05
3.94667e-06
3.21868e-07
-2.93677e-05
3.28286e-06
1.74905e-07
-2.73783e-05
2.26513e-06
1.911e-08
-2.53491e-05
1.8809e-06
-1.90833e-07
-2.27283e-05
1.83869e-06
-6.63341e-07
-1.90892e-05
1.84908e-06
-1.4322e-06
-1.45562e-05
1.37244e-06
-2.04538e-06
-9.85646e-06
-7.27331e-08
-2.18997e-06
-5.44913e-06
-1.90023e-06
-1.71494e-06
-1.95198e-06
-4.09801e-06
-1.02394e-06
7.45808e-07
-6.19306e-06
-6.64836e-07
2.87264e-06
-7.95896e-06
-5.21942e-07
4.50549e-06
-9.14766e-06
-2.48548e-07
5.26777e-06
-1.01286e-05
5.76105e-07
4.7437e-06
-1.14333e-05
1.75071e-06
2.46513e-06
-1.31412e-05
3.06785e-06
-2.2682e-06
-1.50655e-05
4.02292e-06
-8.90621e-06
-1.79846e-05
4.24058e-06
-1.32329e-05
-2.23577e-05
3.04695e-06
-1.34223e-05
-2.49539e-05
5.66529e-07
-1.03796e-05
-2.51784e-05
-9.7287e-07
-5.88315e-06
-2.40343e-05
-1.29683e-06
7.17156e-08
-2.30407e-05
-6.17434e-07
5.28944e-06
-1.9776e-05
1.06992e-06
9.80358e-06
-9.27713e-06
4.01388e-06
9.88297e-06
1.74782e-05
3.13048e-06
8.05232e-06
3.00981e-05
2.52399e-07
5.16058e-06
3.48383e-05
-5.42532e-07
3.36548e-05
1.58025e-06
-4.5589e-06
3.27012e-07
1.78492e-06
-4.0538e-06
-4.03631e-06
-6.60146e-07
-4.77935e-06
-2.02093e-06
5.47279e-08
-3.26583e-06
-3.31444e-06
-1.80539e-06
-2.30694e-06
-2.75128e-06
-1.33633e-06
-1.04853e-06
-2.95869e-06
-1.50348e-06
2.09485e-08
-2.30653e-06
-6.80839e-07
3.07659e-07
-6.72958e-07
1.89619e-07
3.31007e-07
6.45566e-07
1.73652e-07
3.6444e-07
1.04131e-06
3.11542e-07
4.62803e-07
1.21739e-06
2.46699e-07
5.14731e-07
1.26069e-06
2.79678e-07
5.15649e-07
1.1949e-06
1.98106e-07
4.33351e-07
1.05654e-06
1.98893e-07
2.96949e-07