/*--------------------------------*- C++ -*----------------------------------*\
| =========                 |                                                 |
| \\      /  F ield         | OpenFOAM: The Open Source CFD Toolbox           |
|  \\    /   O peration     | Version:  2.3.0                                 |
|   \\  /    A nd           | Web:      www.OpenFOAM.org                      |
|    \\/     M anipulation  |                                                 |
\*---------------------------------------------------------------------------*/
FoamFile
{
    version     2.0;
    format      ascii;
    class       surfaceScalarField;
    location    "38";
    object      phi.air;
}
// * * * * * * * * * * * * * * * * * * * * * * * * * * * * * * * * * * * * * //

dimensions      [0 3 -1 0 0 0 0];

internalField   nonuniform List<scalar> 
16448
(
-9.27381e-07
-2.44452e-06
3.74808e-07
1.07215e-06
-2.55705e-06
5.57516e-07
1.13687e-06
-1.09072e-06
1.026e-06
1.05175e-06
-1.00618e-06
1.09129e-06
6.09044e-07
-5.98279e-07
1.04099e-06
2.92169e-07
-6.46136e-07
9.63009e-07
6.58507e-08
-5.43703e-07
7.70022e-07
-5.63602e-08
-4.69996e-07
5.92209e-07
-2.73956e-07
-2.89822e-07
5.07421e-07
-5.43619e-07
-1.9287e-07
4.62539e-07
-7.37209e-07
-1.8346e-07
3.77058e-07
-7.74876e-07
-2.40618e-07
2.78294e-07
-6.89415e-07
-3.09944e-07
2.2449e-07
-5.27909e-07
-3.60444e-07
1.98945e-07
-3.63161e-07
-3.90149e-07
2.25408e-07
-2.05376e-07
-4.16646e-07
2.58867e-07
-8.30932e-08
-4.3046e-07
3.08186e-07
9.13983e-09
-4.46102e-07
3.53876e-07
6.57145e-08
-4.5744e-07
4.00875e-07
9.16639e-08
-4.67125e-07
4.41184e-07
9.69189e-08
-4.75692e-07
4.70447e-07
8.90623e-08
-4.78816e-07
4.8668e-07
7.4205e-08
-4.77013e-07
4.9188e-07
5.58353e-08
-4.70613e-07
4.88991e-07
3.71827e-08
-4.60588e-07
4.7925e-07
2.09275e-08
-4.48032e-07
4.64295e-07
8.54065e-09
-4.33437e-07
4.45833e-07
1.06809e-09
-4.18249e-07
4.2573e-07
-3.513e-10
-4.0572e-07
4.07149e-07
2.75021e-09
-3.93723e-07
3.90629e-07
7.02255e-09
-3.81611e-07
3.77348e-07
9.65411e-09
-3.69522e-07
3.66898e-07
9.70765e-09
-3.58012e-07
3.57967e-07
6.70997e-09
-3.46766e-07
3.49771e-07
7.18448e-10
-3.35225e-07
3.41225e-07
-8.74803e-09
-3.22857e-07
3.32331e-07
-1.64464e-08
-3.11847e-07
3.19553e-07
-2.44751e-08
-2.98761e-07
3.06797e-07
-2.31976e-08
-2.89401e-07
2.88132e-07
-2.61323e-08
-2.72183e-07
2.75125e-07
-6.30795e-09
-2.68259e-07
2.48443e-07
-5.87511e-09
-2.38265e-07
2.37839e-07
4.5171e-08
-2.56243e-07
2.05205e-07
6.14386e-08
-2.12794e-07
1.96533e-07
1.07024e-07
-2.41398e-07
1.95821e-07
2.87924e-08
-1.66414e-07
2.44652e-07
-3.95064e-08
-2.20435e-07
2.88742e-07
-2.14472e-07
-1.94294e-07
3.69267e-07
-3.24694e-07
-3.11141e-07
4.21372e-07
-3.84218e-07
-4.15571e-07
4.75102e-07
-5.64057e-07
-3.89059e-07
5.68906e-07
-3.45402e-07
-1.14448e-06
9.25832e-07
-8.26847e-07
-1.29304e-06
1.77448e-06
-1.82691e-06
-1.13142e-06
2.13147e-06
-3.55831e-06
-2.19592e-06
3.92732e-06
-5.84291e-06
-2.19575e-06
4.48037e-06
-1.93861e-07
-4.43396e-06
-1.21547e-06
3.05689e-06
-1.31907e-06
-1.93167e-06
-8.30654e-07
-1.44281e-06
5.00145e-06
-2.98551e-05
-6.46363e-06
6.16303e-06
-6.8369e-05
-9.23216e-06
1.08053e-06
-2.30641e-05
-4.44841e-06
4.5545e-06
1.34264e-05
-3.3022e-06
4.83259e-06
1.40998e-05
-2.69559e-06
1.7161e-06
1.26766e-05
1.57152e-07
1.35211e-06
8.93102e-06
2.12165e-06
1.6503e-06
3.89371e-06
2.57398e-06
2.38576e-06
-1.30125e-06
2.61892e-06
2.58652e-06
-5.33402e-06
2.13197e-06
1.97057e-06
-7.76673e-06
1.00966e-06
1.44957e-06
-9.46712e-06
1.88396e-07
1.49769e-06
-1.10972e-05
-7.65441e-07
2.37876e-06
-1.21746e-05
-1.50506e-06
2.56908e-06
-1.25647e-05
-2.18066e-06
2.53857e-06
-1.21385e-05
-2.8641e-06
2.37993e-06
-1.12342e-05
-3.32625e-06
2.34792e-06
-1.02687e-05
-3.5826e-06
2.54333e-06
-9.27917e-06
-3.7524e-06
2.69589e-06
-8.18197e-06
-4.0293e-06
2.86344e-06
-7.02685e-06
-4.2591e-06
3.04738e-06
-5.76273e-06
-4.56327e-06
3.25093e-06
-4.41583e-06
-4.85928e-06
3.47946e-06
-2.92523e-06
-5.15838e-06
3.64446e-06
-1.3276e-06
-5.37684e-06
3.7666e-06
3.54202e-07
-5.50537e-06
3.80907e-06
2.02208e-06
-5.48214e-06
3.7919e-06
3.59634e-06
-5.25923e-06
3.6623e-06
4.95763e-06
-4.8758e-06
3.49119e-06
5.92649e-06
-4.15865e-06
3.16712e-06
6.38576e-06
-3.31009e-06
2.83752e-06
6.34638e-06
-2.46331e-06
2.51015e-06
5.70122e-06
-1.57251e-06
2.26436e-06
4.70887e-06
-8.42198e-07
1.90464e-06
3.0167e-06
1.17484e-07
1.68189e-06
1.14506e-06
1.19942e-06
8.95464e-07
1.8702e-06
2.45146e-07
-1.44822e-06
-3.55883e-06
-1.77889e-07
-2.95321e-08
-3.81401e-06
-1.61733e-07
2.94837e-07
-2.0383e-06
6.23207e-07
5.53795e-07
-1.85151e-06
5.8637e-07
4.95271e-07
-1.02612e-06
4.86355e-07
3.58515e-07
-8.5439e-07
3.45002e-07
1.59072e-07
-4.6155e-07
1.17286e-07
-6.57489e-08
-3.05652e-07
6.04752e-08
-4.22425e-07
-3.0624e-08
9.74815e-08
-7.81862e-07
4.71952e-08
1.19376e-07
-9.83876e-07
-2.87447e-08
4.73062e-08
-1.00213e-06
-1.74633e-07
-4.77283e-08
-9.04031e-07
-2.92943e-07
-1.1509e-07
-7.33946e-07
-3.80427e-07
-1.50096e-07
-5.46078e-07
-4.33043e-07
-1.44968e-07
-3.66152e-07
-4.72115e-07
-1.24448e-07
-2.20469e-07
-4.88142e-07
-8.79922e-08
-1.0311e-07
-5.08088e-07
-5.53624e-08
-2.15294e-08
-5.17832e-07
-2.11784e-08
2.63671e-08
-5.21817e-07
6.80553e-09
5.01357e-08
-5.22257e-07
2.28066e-08
5.65716e-08
-5.16956e-07
3.17161e-08
5.21744e-08
-5.06738e-07
3.4133e-08
4.13939e-08
-4.91918e-07
3.2097e-08
2.81708e-08
-4.73535e-07
2.6181e-08
1.54537e-08
-4.52785e-07
1.74811e-08
4.89927e-09
-4.30346e-07
7.4736e-09
-1.73268e-09
-4.07369e-07
-4.23666e-09
-2.88158e-09
-3.86191e-07
-1.83699e-08
-1.03037e-09
-3.65333e-07
-3.02294e-08
3.85318e-10
-3.43288e-07
-3.97283e-08
9.31339e-11
-3.21296e-07
-4.79231e-08
-1.27116e-09
-3.00848e-07
-5.57892e-08
-4.20978e-09
-2.80592e-07
-6.32252e-08
-8.02789e-09
-2.60402e-07
-7.09949e-08
-1.37038e-08
-2.38856e-07
-7.83139e-08
-1.69365e-08
-2.20405e-07
-8.81982e-08
-2.19069e-08
-1.97441e-07
-9.63385e-08
-1.58815e-08
-1.84326e-07
-1.1109e-07
-1.57432e-08
-1.54526e-07
-1.17785e-07
1.30866e-08
-1.55333e-07
-1.41745e-07
2.43934e-08
-1.08841e-07
-1.4072e-07
8.0606e-08
-1.44471e-07
-1.67973e-07
8.95723e-08
-6.97269e-08
-1.52022e-07
1.3486e-07
-1.40271e-07
-1.46403e-07
-7.52923e-10
5.38695e-08
-8.46593e-08
-9.34238e-08
-7.56432e-08
-5.21088e-08
-3.68205e-07
7.86588e-08
1.84024e-09
-4.04889e-07
-1.91324e-07
-8.31203e-08
-3.24307e-07
-3.63928e-07
-1.32212e-07
2.91314e-07
-7.86551e-07
-2.18119e-07
4.65617e-07
-1.66933e-06
3.50553e-07
-1.52072e-06
-1.01365e-06
1.70694e-06
-2.7805e-06
-1.11626e-06
1.24462e-06
2.90045e-07
-5.81056e-06
5.44085e-07
3.08713e-06
-6.10053e-06
1.10769e-06
-2.53059e-06
6.73091e-08
1.11609e-06
-1.10894e-05
3.32828e-06
3.91059e-06
-8.64793e-06
-5.96739e-06
1.66825e-06
-3.04048e-05
-1.71404e-05
2.10869e-06
-7.30543e-05
-1.29332e-05
-2.59864e-06
-2.7384e-05
-6.43489e-06
1.90191e-06
9.67623e-06
-5.93533e-06
5.08184e-06
9.92037e-06
-2.39955e-06
-8.29265e-07
8.51568e-06
2.72898e-06
-9.35996e-07
5.99004e-06
4.42189e-06
2.02046e-07
1.00418e-06
5.69959e-06
1.82641e-06
-4.81285e-06
5.70145e-06
2.72427e-06
-8.8809e-06
4.07994e-06
2.15746e-06
-1.12381e-05
2.20727e-06
1.16918e-06
-1.29125e-05
6.21886e-07
1.18151e-06
-1.45276e-05
-8.42146e-07
1.61092e-06
-1.57273e-05
-2.02733e-06
1.63028e-06
-1.62338e-05
-3.05708e-06
1.33109e-06
-1.59048e-05
-3.96555e-06
7.38142e-07
-1.50049e-05
-4.74036e-06
4.62456e-07
-1.41817e-05
-5.24322e-06
7.8643e-07
-1.34058e-05
-5.53201e-06
9.72616e-07
-1.24958e-05
-6.02405e-06
1.08711e-06
-1.13685e-05
-6.57008e-06
1.21494e-06
-9.94417e-06
-7.24258e-06
1.30863e-06
-8.18276e-06
-7.93785e-06
1.40061e-06
-6.16119e-06
-8.57127e-06
1.49478e-06
-4.05171e-06
-8.95595e-06
1.57399e-06
-1.95892e-06
-9.09205e-06
1.58455e-06
6.11437e-08
-8.96976e-06
1.53675e-06
2.00938e-06
-8.52251e-06
1.38333e-06
3.76664e-06
-7.69635e-06
1.14513e-06
5.15917e-06
-6.29181e-06
8.16859e-07
6.03876e-06
-4.75461e-06
6.05238e-07
6.19668e-06
-3.19182e-06
5.98733e-07
5.58804e-06
-1.5596e-06
6.40525e-07
4.22638e-06
-7.37863e-08
6.89308e-07
2.30291e-06
1.25289e-06
9.65208e-07
5.94535e-07
2.62953e-06
5.38643e-07
3.85841e-06
-3.35251e-07
-1.91296e-06
-3.95258e-06
-4.24178e-07
-8.68483e-07
-4.26472e-06
-5.93763e-07
-5.29637e-07
-2.55575e-06
1.78602e-07
-1.74602e-07
-2.25897e-06
5.24155e-08
1.07928e-09
-1.19788e-06
-3.92267e-09
2.05356e-08
-8.19357e-07
-5.44967e-08
1.84525e-08
-2.58733e-07
-2.00738e-07
-1.17984e-07
-1.14231e-10
-1.69102e-07
-3.95496e-07
3.57979e-07
-1.11088e-07
-7.06195e-07
4.1106e-07
-5.31599e-08
-8.86246e-07
2.60106e-07
-1.08793e-07
-9.25785e-07
5.3864e-08
-1.88951e-07
-8.88643e-07
-7.98482e-08
-2.50229e-07
-7.96472e-07
-1.80216e-07
-2.92376e-07
-6.64569e-07
-2.45227e-07
-3.1971e-07
-5.23002e-07
-2.88971e-07
-3.24702e-07
-3.96817e-07
-3.01481e-07
-3.12835e-07
-2.86684e-07
-3.18476e-07
-2.99735e-07
-1.94937e-07
-3.23796e-07
-2.85771e-07
-1.23755e-07
-3.19245e-07
-2.73743e-07
-7.42976e-08
-3.07456e-07
-2.64246e-07
-4.2443e-08
-2.90931e-07
-2.57869e-07
-2.41825e-08
-2.70833e-07
-2.54154e-07
-1.56181e-08
-2.47634e-07
-2.52838e-07
-1.31225e-08
-2.22615e-07
-2.53403e-07
-1.3769e-08
-1.97073e-07
-2.55055e-07
-1.50952e-08
-1.71702e-07
-2.57306e-07
-1.57953e-08
-1.46923e-07
-2.59735e-07
-1.73697e-08
-1.22245e-07
-2.62359e-07
-2.15281e-08
-9.63663e-08
-2.64798e-07
-2.81924e-08
-6.91037e-08
-2.67509e-07
-3.5442e-08
-4.30948e-08
-2.70941e-07
-4.12291e-08
-1.99507e-08
-2.75099e-07
-4.48383e-08
2.28615e-09
-2.79258e-07
-4.83411e-08
2.69869e-08
-2.83875e-07
-5.1483e-08
5.19771e-08
-2.87681e-07
-5.36696e-08
7.35007e-08
-2.91708e-07
-5.70023e-08
9.99167e-08
-2.94014e-07
-5.50139e-08
1.1395e-07
-3.00253e-07
-5.48643e-08
1.45423e-07
-3.00088e-07
-4.00881e-08
1.43513e-07
-3.13611e-07
-4.80987e-08
1.97027e-07
-2.97846e-07
-3.36167e-08
1.55356e-07
-3.14296e-07
-1.05587e-07
2.63466e-07
-2.61211e-07
-1.70051e-07
1.90998e-07
-2.66794e-07
-3.28711e-07
4.09628e-07
-1.97086e-07
-5.32054e-07
3.22157e-07
-1.94444e-07
-6.20768e-07
4.15006e-07
-2.4762e-07
-6.21465e-07
1.79889e-07
-3.70502e-07
-3.33429e-07
-1.33723e-07
-5.1823e-07
7.30516e-07
-1.09995e-06
-7.50534e-07
4.74361e-07
-1.60841e-06
1.95249e-07
-1.0052e-06
-6.66121e-07
1.13203e-06
-5.63657e-09
-1.65015e-06
-4.65669e-07
3.30603e-06
-8.49206e-06
-6.30202e-07
6.07494e-06
-7.82143e-06
-1.048e-06
6.1096e-06
1.98976e-06
-1.95734e-06
-1.06694e-06
1.04353e-05
6.93689e-08
-6.23146e-06
-4.5938e-06
3.4376e-06
-3.15405e-05
-2.29381e-05
-4.70824e-07
-7.65147e-05
-1.65838e-05
-3.57116e-06
-3.08073e-05
-6.70847e-06
2.66415e-07
7.79193e-06
-3.23317e-06
3.82619e-06
7.25684e-06
2.17236e-06
-1.73614e-06
5.27596e-06
7.25355e-06
-4.63428e-07
2.2162e-06
8.04256e-06
1.38348e-06
-3.98613e-06
8.50432e-06
2.67012e-06
-9.07911e-06
6.26726e-06
3.245e-06
-1.21625e-05
3.88753e-06
2.65345e-06
-1.42824e-05
2.16297e-06
1.57218e-06
-1.58204e-05
5.70711e-07
1.3506e-06
-1.71772e-05
-6.28822e-07
1.03134e-06
-1.81177e-05
-1.65885e-06
8.37589e-07
-1.84701e-05
-2.36656e-06
-2.77529e-08
-1.80477e-05
-3.06027e-06
-1.09882e-06
-1.72526e-05
-3.60451e-06
-1.57967e-06
-1.67252e-05
-4.17246e-06
-1.21518e-06
-1.63511e-05
-4.53465e-06
-9.28079e-07
-1.587e-05
-5.20493e-06
-8.2621e-07
-1.50984e-05
-6.55396e-06
-7.79139e-07
-1.38679e-05
-7.62679e-06
-8.0807e-07
-1.20423e-05
-8.8255e-06
-8.63151e-07
-9.66414e-06
-9.95925e-06
-9.25286e-07
-6.95113e-06
-1.06101e-05
-1.01752e-06
-4.1565e-06
-1.07753e-05
-1.07606e-06
-1.40205e-06
-1.0565e-05
-1.13798e-06
1.33467e-06
-9.93164e-06
-1.31147e-06
3.72541e-06
-8.5523e-06
-1.49678e-06
5.76568e-06
-6.56949e-06
-1.70841e-06
7.44506e-06
-4.52848e-06
-1.88092e-06
8.22441e-06
-2.09583e-06
-1.8913e-06
7.90142e-06
4.9731e-07
-1.74281e-06
6.51504e-06
2.64122e-06
-1.28571e-06
3.90824e-06
4.17998e-06
-1.6386e-07
1.14254e-06
5.41875e-06
2.95256e-07
6.44704e-06
-2.85683e-07
-2.48147e-06
-4.13649e-06
-2.69237e-07
-1.42946e-06
-4.51689e-06
-7.99842e-07
-1.22543e-06
-2.91536e-06
1.55577e-07
-8.06663e-07
-2.73125e-06
5.3506e-08
-5.46653e-07
-1.46877e-06
1.08613e-08
-2.56075e-07
-1.01842e-06
-9.15236e-08
-7.916e-08
-2.09965e-07
-2.25689e-07
-5.89071e-08
1.57457e-07
-1.77823e-07
-2.02303e-07
6.49551e-07
-1.48174e-07
-4.5604e-07
7.55319e-07
-9.05136e-08
-6.34554e-07
5.91798e-07
-1.53171e-07
-7.46897e-07
3.82557e-07
-2.1634e-07
-8.02523e-07
2.40691e-07
-2.64906e-07
-7.86178e-07
1.13648e-07
-3.10199e-07
-7.10533e-07
2.56475e-08
-3.46511e-07
-5.99651e-07
-2.47661e-08
-3.75076e-07
-4.87197e-07
-2.61137e-08
-3.87811e-07
-3.85756e-07
-2.58491e-08
-3.94055e-07
-2.96809e-07
-1.60544e-08
-3.96679e-07
-2.19715e-07
4.84317e-10
-3.9681e-07
-1.56131e-07
2.11894e-08
-3.92219e-07
-1.0682e-07
4.54898e-08
-3.85718e-07
-7.0766e-08
7.20732e-08
-3.78949e-07
-4.63138e-08
1.00893e-07
-3.72965e-07
-3.17343e-08
1.30997e-07
-3.68181e-07
-2.47376e-08
1.6019e-07
-3.64247e-07
-2.32825e-08
1.87724e-07
-3.6087e-07
-2.55341e-08
2.13189e-07
-3.57848e-07
-3.02252e-08
2.37856e-07
-3.554e-07
-3.70894e-08
2.64343e-07
-3.53832e-07
-4.50463e-08
2.92391e-07
-3.53527e-07
-5.32798e-08
3.19487e-07
-3.54336e-07
-6.12055e-08
3.43705e-07
-3.5572e-07
-6.9578e-08
3.67559e-07
-3.56887e-07
-7.63093e-08
3.90985e-07
-3.57256e-07
-8.17565e-08
4.14636e-07
-3.57198e-07
-8.49215e-08
4.34327e-07
-3.57651e-07
-8.65487e-08
4.58549e-07
-3.56992e-07
-8.41489e-08
4.69876e-07
-3.58315e-07
-8.63681e-08
5.00841e-07
-3.53185e-07
-9.26766e-08
5.01618e-07
-3.51785e-07
-1.28765e-07
5.63347e-07
-3.30219e-07
-2.00611e-07
5.47299e-07
-3.20086e-07
-3.15721e-07
6.6396e-07
-2.85369e-07
-4.95871e-07
6.42429e-07
-2.71268e-07
-5.98879e-07
7.73176e-07
-2.60524e-07
-7.05399e-07
7.03745e-07
-2.75056e-07
-5.92358e-07
6.46245e-07
-3.44264e-07
-4.14688e-07
5.43289e-07
-5.41058e-07
2.03282e-08
1.3611e-07
-7.04835e-07
5.18804e-07
-8.15576e-07
-7.82843e-07
-2.13272e-07
-1.07901e-06
2.02684e-07
1.17785e-06
-2.22364e-06
1.66398e-07
4.01309e-06
-3.2168e-06
-1.26861e-06
3.54107e-06
-7.66966e-06
-3.50439e-07
2.55505e-06
-5.17764e-06
-1.65775e-06
6.1006e-06
1.96225e-06
-3.51817e-06
2.36935e-06
1.82751e-05
-4.10853e-06
-3.46925e-06
-7.40393e-06
8.12329e-06
-3.54895e-05
-2.40102e-05
-2.88487e-06
-9.56458e-05
-1.90189e-05
-9.52813e-07
-9.06448e-05
-5.38834e-06
2.4093e-06
-9.41071e-05
-1.59224e-07
2.06405e-06
-9.56008e-05
6.36102e-06
1.32977e-08
-9.7541e-05
8.13017e-06
1.87628e-06
-0.000102881
9.64914e-06
3.58595e-06
-0.000106774
7.51734e-06
3.97911e-06
-0.000110438
5.1961e-06
2.60797e-06
-0.000113483
3.27377e-06
1.80212e-06
-0.00011599
2.24268e-06
1.0506e-06
-0.00011729
8.41562e-07
5.4328e-07
-0.000118566
1.67725e-07
5.21813e-08
-0.000119359
-4.92605e-07
-6.76383e-07
-0.000118556
-8.17615e-07
-1.43954e-06
-0.000115696
-1.32166e-06
-2.27207e-06
-0.000110092
-1.79294e-06
-2.37696e-06
-0.000103524
-2.28175e-06
-1.97086e-06
-9.60593e-05
-3.24675e-06
-1.72455e-06
-5.52878e-05
-4.23003e-06
-1.5144e-06
-1.85085e-05
-5.57375e-06
-1.61911e-06
-1.80262e-05
-7.19117e-06
-1.63674e-06
-1.68818e-05
-9.05395e-06
-1.6671e-06
-1.48228e-05
-1.10081e-05
-1.72072e-06
-1.18991e-05
-1.23318e-05
-1.30713e-06
-8.47588e-06
-1.30825e-05
-1.44836e-06
-4.85448e-06
-1.22429e-05
-1.81293e-06
-1.07968e-06
-1.111e-05
-2.21214e-06
2.68421e-06
-9.55585e-06
-2.67684e-06
5.92373e-06
-6.85404e-06
-2.86423e-06
8.54862e-06
-3.98092e-06
-3.084e-06
1.01228e-05
-3.01968e-07
-3.34885e-06
1.01375e-05
4.06123e-06
-3.61935e-06
8.90007e-06
7.41636e-06
-3.56191e-06
5.91337e-06
9.23568e-06
-1.98186e-06
2.18698e-06
1.00027e-05
-5.38021e-07
9.94309e-06
5.40058e-08
-3.11717e-06
-4.25522e-06
-6.13103e-08
-2.06962e-06
-4.719e-06
-8.45447e-07
-1.93349e-06
-3.26411e-06
2.1262e-07
-1.30655e-06
-3.39469e-06
3.64799e-08
-8.42119e-07
-2.13043e-06
1.9722e-07
-3.3097e-07
-1.59102e-06
6.14414e-08
-6.97222e-08
-3.32089e-07
-1.39124e-07
2.30274e-08
2.07278e-07
-1.42571e-07
6.66112e-09
8.31457e-07
-1.65531e-07
-2.30818e-07
1.08242e-06
-8.9612e-08
-4.29619e-07
9.25996e-07
-1.35387e-07
-5.99787e-07
7.25532e-07
-1.72799e-07
-7.15564e-07
5.58131e-07
-2.0165e-07
-7.49987e-07
3.92397e-07
-2.44318e-07
-7.08691e-07
2.67691e-07
-2.83327e-07
-6.17657e-07
2.05096e-07
-3.20887e-07
-5.17723e-07
2.20851e-07
-3.46885e-07
-4.26904e-07
2.48211e-07
-3.64869e-07
-3.45488e-07
2.81024e-07
-3.7848e-07
-2.68416e-07
3.12489e-07
-3.89065e-07
-1.997e-07
3.46924e-07
-3.94436e-07
-1.40989e-07
3.81681e-07
-3.94892e-07
-9.42204e-08
4.16874e-07
-3.91555e-07
-5.92467e-08
4.51531e-07
-3.856e-07
-3.58451e-08
4.85237e-07
-3.77627e-07
-2.2398e-08
5.15289e-07
-3.68535e-07
-1.68853e-08
5.4152e-07
-3.59294e-07
-1.68518e-08
5.63783e-07
-3.50617e-07
-2.11421e-08
5.85006e-07
-3.42846e-07
-2.87711e-08
6.08273e-07
-3.36291e-07
-3.79683e-08
6.32447e-07
-3.30845e-07
-4.74714e-08
6.55027e-07
-3.26026e-07
-5.71609e-08
6.74938e-07
-3.21529e-07
-6.74454e-08
6.94864e-07
-3.17011e-07
-7.74045e-08
7.13737e-07
-3.12779e-07
-8.64839e-08
7.32103e-07
-3.08378e-07
-9.33178e-08
7.45228e-07
-3.04052e-07
-1.00731e-07
7.63837e-07
-2.97865e-07
-1.0967e-07
7.7031e-07
-2.91481e-07
-1.32047e-07
8.01112e-07
-2.77883e-07
-1.75712e-07
8.09342e-07
-2.64044e-07
-2.53672e-07
8.81197e-07
-2.39878e-07
-3.97026e-07
9.10081e-07
-2.19412e-07
-5.28575e-07
9.97663e-07
-2.02142e-07
-7.02018e-07
1.01362e-06
-1.97731e-07
-7.04134e-07
9.71351e-07
-1.96045e-07
-6.52794e-07
8.64065e-07
-2.11644e-07
-4.11162e-07
6.53843e-07
-2.49216e-07
-2.5037e-07
7.33128e-07
-3.50615e-07
1.94523e-07
3.36617e-07
-6.45389e-07
4.27826e-07
-2.67244e-07
-7.81623e-07
3.49725e-07
-1.01973e-06
1.88248e-08
1.90235e-06
-3.70949e-06
-6.67819e-08
1.27263e-06
-1.70165e-06
-8.85457e-07
-4.88894e-06
-3.55356e-07
-1.15276e-06
-6.21556e-06
1.24945e-07
-3.97591e-06
5.46332e-06
-2.7722e-06
-6.94454e-06
1.12461e-05
2.12519e-05
-8.75949e-06
-7.74411e-07
-9.63129e-06
1.34267e-05
-3.90528e-05
-2.09689e-05
-4.53167e-06
-0.000107443
-1.93928e-05
2.71345e-07
-0.000108187
-4.93841e-06
4.93705e-06
-0.000111606
-1.10892e-06
2.41351e-06
-0.000114697
6.1048e-06
2.05245e-06
-0.000115359
7.01441e-06
2.77534e-06
-0.000117404
8.52368e-06
3.42381e-06
-0.000118952
6.41048e-06
3.08379e-06
-0.000120338
5.30865e-06
1.87677e-06
-0.000120275
3.82957e-06
1.31856e-06
-0.000121638
3.36761e-06
6.93714e-07
-0.000122305
2.33112e-06
-7.15383e-08
-0.000124814
2.10699e-06
-6.13942e-07
-0.0001299
1.84943e-06
-1.29459e-06
-0.000125503
1.80089e-06
-2.24636e-06
-0.000119288
1.55736e-06
-3.05151e-06
-0.000116115
5.62004e-07
-3.07976e-06
-0.000116328
-3.81952e-07
-2.6016e-06
-0.000123957
-2.24207e-06
-1.78264e-06
-0.000127382
-3.53325e-06
-1.4076e-06
-0.000126427
-5.70574e-06
-8.63532e-07
-0.000124223
-7.67636e-06
-5.18987e-07
-0.000113994
-1.05197e-05
9.61813e-09
-8.63664e-05
-1.28267e-05
3.32882e-07
-7.03196e-05
-1.45314e-05
3.68497e-07
-9.07616e-05
-1.55472e-05
2.51943e-07
-0.000101107
-1.454e-05
-3.81718e-07
-4.96056e-05
-1.25217e-05
-1.01417e-06
-2.78499e-07
-1.10244e-05
-1.38485e-06
4.42582e-06
-7.16878e-06
-1.99585e-06
8.90588e-06
-2.73856e-06
-2.52174e-06
1.23631e-05
3.01238e-06
-3.03215e-06
1.26672e-05
7.34204e-06
-3.72185e-06
1.11274e-05
1.35879e-05
-4.80865e-06
8.26679e-06
1.60793e-05
-4.03817e-06
3.91899e-06
1.61909e-05
-1.58219e-06
1.54107e-05
-9.8408e-08
-3.70498e-06
-4.12235e-06
-6.1398e-08
-2.72858e-06
-4.86649e-06
-8.28913e-07
-2.77418e-06
-3.43144e-06
2.1292e-07
-1.96063e-06
-3.92506e-06
-2.83186e-07
-1.35696e-06
-2.99862e-06
2.64515e-07
-5.14812e-07
-2.51061e-06
7.74377e-08
-7.17147e-08
-7.82112e-07
6.92512e-09
1.05536e-07
7.82432e-08
-4.82073e-08
2.33022e-07
8.17574e-07
-1.13598e-07
5.3178e-08
1.29598e-06
-3.37041e-08
-1.65954e-07
1.22771e-06
-8.25766e-08
-4.07041e-07
1.08084e-06
-1.14203e-07
-5.88862e-07
8.93525e-07
-1.53566e-07
-6.61215e-07
6.6437e-07
-1.99605e-07
-6.36713e-07
4.92937e-07
-2.49739e-07
-5.52794e-07
4.17512e-07
-2.9632e-07
-4.61497e-07
4.55171e-07
-3.25608e-07
-3.91178e-07
5.22553e-07
-3.44645e-07
-3.35703e-07
5.85748e-07
-3.60189e-07
-2.85423e-07
6.34539e-07
-3.72314e-07
-2.3524e-07
6.75951e-07
-3.792e-07
-1.88142e-07
7.13949e-07
-3.7935e-07
-1.46399e-07
7.49577e-07
-3.74434e-07
-1.12856e-07
7.836e-07
-3.65597e-07
-9.06684e-08
8.17079e-07
-3.54019e-07
-7.79603e-08
8.43543e-07
-3.40947e-07
-7.27227e-08
8.63789e-07
-3.27496e-07
-7.19294e-08
8.77484e-07
-3.14479e-07
-7.3256e-08
8.88957e-07
-3.02614e-07
-7.66669e-08
9.03548e-07
-2.9185e-07
-8.25725e-08
9.20678e-07
-2.82315e-07
-9.07848e-08
9.371e-07
-2.73846e-07
-1.01599e-07
9.51834e-07
-2.66072e-07
-1.15223e-07
9.67193e-07
-2.58689e-07
-1.30008e-07
9.80414e-07
-2.51883e-07
-1.44015e-07
9.91293e-07
-2.45168e-07
-1.58343e-07
9.97818e-07
-2.38252e-07
-1.74061e-07
1.0088e-06
-2.29231e-07
-1.98174e-07
1.01347e-06
-2.1904e-07
-2.37126e-07
1.04293e-06
-2.02853e-07
-3.08656e-07
1.06692e-06
-1.86037e-07
-4.01256e-07
1.13884e-06
-1.65026e-07
-5.37955e-07
1.19198e-06
-1.4519e-07
-6.0953e-07
1.20728e-06
-1.38021e-07
-6.61124e-07
1.20715e-06
-1.41928e-07
-6.0538e-07
1.0497e-06
-1.34076e-07
-4.93907e-07
8.79277e-07
-1.26671e-07
-3.35409e-07
6.79619e-07
-1.84257e-07
-1.15611e-07
7.78364e-07
-2.65021e-07
6.83498e-08
6.26182e-07
-4.73511e-07
8.93416e-07
5.67509e-08
-1.14905e-06
2.94333e-07
1.13007e-07
-5.33638e-07
-1.09779e-06
-2.08933e-06
-2.28038e-07
-1.78527e-06
5.10442e-07
-1.52463e-06
-4.23072e-06
5.03869e-06
-2.94863e-06
-5.23681e-06
4.92689e-06
-3.79581e-06
4.48818e-06
-5.32292e-06
-7.17432e-06
1.53443e-05
1.64754e-05
-6.07964e-06
2.43573e-06
-1.1966e-05
1.38203e-05
-4.45281e-05
-1.53442e-05
-3.79655e-06
-0.000118279
-1.51917e-05
1.06235e-06
-0.000122027
-2.95943e-06
6.27544e-06
-0.000124995
-1.42231e-06
2.97667e-06
-0.000128325
4.72099e-06
2.5912e-06
-0.00012932
6.16042e-06
2.32882e-06
-0.000129132
7.2778e-06
2.3556e-06
-0.000128536
6.27746e-06
1.74765e-06
-0.000130538
5.72307e-06
1.29891e-06
-0.000132261
4.82966e-06
7.08872e-07
-0.000134563
4.39364e-06
-5.73373e-08
-0.000131976
3.81913e-06
-5.39608e-07
-0.000135411
3.72929e-06
-1.19002e-06
-0.000142311
3.74117e-06
-1.72472e-06
-0.000138715
3.60227e-06
-2.65547e-06
-0.000135456
3.07954e-06
-3.12053e-06
-0.000133863
1.21756e-06
-2.78977e-06
-0.00013282
-4.70909e-07
-2.00274e-06
-0.00013017
-2.57249e-06
-1.25446e-06
-0.000126062
-4.28172e-06
-6.77574e-07
-0.000103538
-6.40102e-06
1.03347e-07
-0.000109024
-7.97117e-06
8.01047e-07
-0.000134644
-1.12137e-05
1.58652e-06
-0.000133164
-1.45173e-05
2.06726e-06
-0.000132741
-1.74166e-05
2.42996e-06
-0.000130949
-1.90161e-05
2.2312e-06
-0.000128666
-1.90083e-05
1.60419e-06
-0.000125107
-1.70787e-05
6.49838e-07
-0.000119274
-1.32387e-05
1.84839e-07
-0.00011096
-8.5989e-06
-7.91177e-08
-9.06069e-05
-2.50645e-06
-1.74201e-07
-3.0858e-05
5.55315e-06
1.18434e-07
1.55041e-05
1.17686e-05
-8.63627e-07
1.36736e-05
2.20285e-05
-3.4718e-06
1.03612e-05
2.53168e-05
-4.78434e-06
5.47649e-06
2.53736e-05
-3.28812e-06
2.35505e-05
-1.42053e-07
-4.23635e-06
-3.62615e-06
-3.69845e-08
-3.30773e-06
-4.69215e-06
-1.10296e-06
-3.44667e-06
-3.21227e-06
-8.02414e-08
-2.34989e-06
-3.94469e-06
-1.07716e-06
-1.69346e-06
-3.34371e-06
-3.11349e-07
-6.59343e-07
-3.14899e-06
-3.95729e-07
-3.83531e-09
-1.33365e-06
-1.03965e-07
1.39718e-07
7.87367e-10
-6.60917e-08
3.11785e-07
7.98139e-07
-1.52618e-07
2.61042e-07
1.40309e-06
-5.63624e-08
5.59072e-08
1.49687e-06
-6.40106e-08
-2.41572e-07
1.43902e-06
-6.0697e-08
-4.32491e-07
1.18125e-06
-9.6794e-08
-5.1007e-07
8.95723e-07
-1.53764e-07
-5.02251e-07
7.09992e-07
-2.24859e-07
-4.4446e-07
6.4594e-07
-2.86208e-07
-3.74503e-07
7.03319e-07
-3.18088e-07
-3.28006e-07
8.04192e-07
-3.28126e-07
-3.02652e-07
8.93745e-07
-3.33335e-07
-2.87587e-07
9.56943e-07
-3.37457e-07
-2.7362e-07
1.00208e-06
-3.40077e-07
-2.59221e-07
1.03743e-06
-3.37874e-07
-2.44501e-07
1.06587e-06
-3.30999e-07
-2.32456e-07
1.09163e-06
-3.20064e-07
-2.26767e-07
1.1163e-06
-3.04896e-07
-2.23647e-07
1.13065e-06
-2.90211e-07
-2.23274e-07
1.14004e-06
-2.76604e-07
-2.2334e-07
1.14279e-06
-2.6523e-07
-2.22448e-07
1.14368e-06
-2.55605e-07
-2.22084e-07
1.14975e-06
-2.46554e-07
-2.24637e-07
1.16097e-06
-2.37727e-07
-2.30467e-07
1.17241e-06
-2.29471e-07
-2.40533e-07
1.18353e-06
-2.21611e-07
-2.55702e-07
1.19633e-06
-2.13959e-07
-2.74545e-07
1.20632e-06
-2.07052e-07
-2.93666e-07
1.21124e-06
-2.00812e-07
-3.1722e-07
1.21436e-06
-1.92976e-07
-3.4282e-07
1.21823e-06
-1.83815e-07
-3.78958e-07
1.22202e-06
-1.72393e-07
-4.25539e-07
1.24715e-06
-1.57624e-07
-4.99177e-07
1.28182e-06
-1.41247e-07
-5.63472e-07
1.33415e-06
-1.31e-07
-6.3111e-07
1.37736e-06
-1.17722e-07
-6.20556e-07
1.31783e-06
-1.21098e-07
-5.62997e-07
1.26816e-06
-1.18549e-07
-5.15099e-07
1.09226e-06
-9.0445e-08
-4.43661e-07
8.6451e-07
-5.66557e-08
-4.29277e-07
7.95617e-07
-1.30369e-07
-3.07015e-07
9.00794e-07
-2.44675e-07
-2.22104e-07
8.30627e-07
-2.89344e-07
3.94983e-07
2.44333e-07
-8.04655e-07
4.4825e-07
6.16796e-07
-5.57047e-07
-7.91541e-07
-3.19761e-07
-5.29778e-07
1.55338e-07
-4.8874e-07
5.23002e-08
3.87067e-06
2.98986e-06
-1.66653e-06
1.22331e-05
4.11379e-06
-7.5493e-06
2.23899e-05
-3.00793e-06
-1.24719e-05
3.41915e-05
2.32113e-06
2.35272e-06
2.65464e-06
-8.38765e-06
2.53939e-05
-5.45864e-05
-6.61836e-06
-4.33099e-06
-0.000128854
-6.36501e-06
1.71405e-07
-0.000127969
5.4361e-07
6.34663e-06
-0.000132837
1.8972e-06
2.57007e-06
-0.000142247
5.14105e-06
1.99519e-06
-0.000144965
6.4035e-06
1.32485e-06
-0.00014161
6.8656e-06
1.21203e-06
-0.000135058
6.30926e-06
9.09635e-07
-0.000139135
5.69667e-06
4.96438e-07
-0.000145729
5.06183e-06
1.31876e-07
-0.000137691
4.35602e-06
-1.944e-07
-0.000125167
3.98463e-06
-5.15776e-07
-0.000132044
4.01678e-06
-1.10884e-06
-0.000138654
3.96206e-06
-1.64932e-06
-0.000139417
3.34433e-06
-2.23062e-06
-0.000136617
1.76285e-06
-2.40556e-06
-0.000130527
-2.54379e-07
-1.93504e-06
-0.000133657
-2.68071e-06
-1.2437e-06
-0.000131207
-4.91824e-06
-4.82572e-07
-0.000125807
-6.9562e-06
2.34227e-07
-0.000109952
-8.39355e-06
1.05775e-06
-0.000114592
-9.59022e-06
1.74301e-06
-0.000132219
-1.18921e-05
2.47085e-06
-0.000133103
-1.52453e-05
3.056e-06
-0.000135335
-1.87824e-05
3.67288e-06
-0.000134774
-2.17439e-05
3.81272e-06
-0.000135523
-2.31832e-05
3.10678e-06
-0.000134871
-2.29859e-05
2.03089e-06
-0.000129355
-2.02467e-05
1.532e-06
-0.000123395
-1.66032e-05
1.58165e-06
-0.000117023
-1.13086e-05
2.29399e-06
-0.000109794
-4.234e-06
3.02898e-06
-0.000105804
8.85696e-06
2.67719e-06
-0.000104643
2.41334e-05
-8.33865e-07
-0.000108246
2.89522e-05
-2.29709e-06
-0.000115329
3.18343e-05
-9.68232e-07
2.92468e-05
2.73521e-07
-4.68135e-06
-2.53304e-06
3.81951e-08
-3.80908e-06
-4.18588e-06
-1.37853e-06
-4.06919e-06
-2.69184e-06
-2.60321e-07
-2.68306e-06
-3.60905e-06
-1.72178e-06
-1.92905e-06
-3.13501e-06
-9.62717e-07
-8.4074e-07
-3.21226e-06
-1.02503e-06
6.41877e-08
-1.9292e-06
-3.09371e-07
2.51018e-07
-2.0706e-07
2.1031e-08
3.1872e-07
8.37286e-07
-1.0684e-07
3.17618e-07
1.38415e-06
2.00552e-08
2.49349e-07
1.56199e-06
3.15718e-09
1.03031e-07
1.59259e-06
-7.23555e-09
1.7409e-08
1.39402e-06
-1.27133e-07
-4.58856e-08
1.17349e-06
-2.14458e-07
-9.65776e-08
1.06254e-06
-3.01843e-07
-1.57071e-07
1.07378e-06
-3.67328e-07
-2.13388e-07
1.1784e-06
-4.18751e-07
-2.64801e-07
1.30219e-06
-4.46567e-07
-3.14662e-07
1.4087e-06
-4.65087e-07
-3.59789e-07
1.47843e-06
-4.76345e-07
-3.85341e-07
1.51091e-06
-4.8327e-07
-3.97784e-07
1.53506e-06
-4.85164e-07
-4.02862e-07
1.55448e-06
-4.83519e-07
-4.03799e-07
1.5718e-06
-4.79215e-07
-4.02309e-07
1.58762e-06
-4.728e-07
-4.00892e-07
1.59635e-06
-4.67106e-07
-3.97929e-07
1.59956e-06
-4.62475e-07
-3.90683e-07
1.59494e-06
-4.59381e-07
-3.8199e-07
1.59113e-06
-4.56125e-07
-3.78063e-07
1.59859e-06
-4.52754e-07
-3.80593e-07
1.61248e-06
-4.48964e-07
-3.89006e-07
1.62639e-06
-4.45551e-07
-4.03397e-07
1.64027e-06
-4.42339e-07
-4.23825e-07
1.6556e-06
-4.38828e-07
-4.48218e-07
1.66638e-06
-4.35651e-07
-4.72984e-07
1.66938e-06
-4.33361e-07
-5.02107e-07
1.67307e-06
-4.2957e-07
-5.32604e-07
1.67405e-06
-4.25306e-07
-5.70972e-07
1.67865e-06
-4.18255e-07
-6.08182e-07
1.69521e-06
-4.10834e-07
-6.60347e-07
1.72998e-06
-3.95985e-07
-6.82726e-07
1.7512e-06
-3.94654e-07
-6.82969e-07
1.76921e-06
-3.91592e-07
-6.20059e-07
1.66617e-06
-4.11228e-07
-4.85519e-07
1.56394e-06
-4.30301e-07
-4.49182e-07
1.4538e-06
-3.97864e-07
-4.40283e-07
1.21296e-06
-3.57334e-07
-5.97617e-07
1.3837e-06
-4.30736e-07
-5.10771e-07
1.3528e-06
-5.38839e-07
-4.32389e-07
1.26172e-06
-5.09458e-07
3.07772e-08
7.5901e-07
-9.77834e-07
1.38504e-06
-2.65214e-07
-4.72238e-07
1.71846e-06
1.80017e-07
-8.3321e-07
4.39192e-06
-1.73363e-06
-1.42857e-06
8.37662e-06
1.82205e-06
-2.81696e-06
1.7139e-05
4.09978e-06
-8.74841e-06
2.64943e-05
6.979e-06
-1.93424e-05
3.86828e-05
2.54687e-06
-1.24142e-05
1.28206e-06
-4.96624e-06
3.00377e-05
-6.9837e-05
6.32422e-06
-6.97629e-06
-0.00015339
9.14248e-06
-2.47251e-06
-0.000155676
4.50803e-06
6.25482e-06
-0.000161339
7.56345e-06
2.04839e-06
-0.000166451
6.1696e-06
1.50742e-06
-0.000168826
6.88344e-06
1.09521e-06
-0.000164961
5.60967e-06
1.13835e-06
-0.000162129
4.99414e-06
1.18683e-06
-0.000160952
4.03858e-06
1.08047e-06
-0.000159986
3.44031e-06
9.00893e-07
-0.000162238
2.54677e-06
6.95454e-07
-0.000162567
2.3391e-06
4.29943e-07
-0.000161588
2.11588e-06
-5.56515e-08
-0.000157711
1.69477e-06
-7.33889e-07
-0.000149287
6.23574e-07
-1.16742e-06
-0.000137536
-1.02587e-06
-1.10292e-06
-0.000137018
-2.78916e-06
-5.80712e-07
-0.000143538
-5.21716e-06
1.90142e-08
-0.00014484
-6.94195e-06
2.63557e-07
-0.000145003
-8.39466e-06
5.33502e-07
-0.000145085
-9.5601e-06
1.12655e-06
-0.000146456
-1.08111e-05
2.18625e-06
-0.000149249
-1.24688e-05
3.27061e-06
-0.000152078
-1.476e-05
4.00854e-06
-0.000159024
-1.72287e-05
4.59372e-06
-0.000165251
-2.06933e-05
4.71707e-06
-0.000165832
-2.33212e-05
3.34881e-06
-0.000162514
-2.47225e-05
1.43574e-06
-0.000148973
-2.41349e-05
3.84971e-07
-0.000126101
-2.27262e-05
4.38752e-07
-5.81577e-05
-2.05026e-05
2.13147e-06
2.55937e-06
-1.62658e-05
2.69575e-06
6.32685e-06
-9.03088e-06
4.5784e-06
5.53004e-06
2.18549e-05
3.28379e-06
-5.45884e-05
3.17958e-05
1.36718e-06
-5.62694e-05
3.51037e-05
7.55996e-07
3.39727e-05
1.57328e-06
-4.59259e-06
3.29552e-07
1.78707e-06
-4.08541e-06
-4.0341e-06
-6.58973e-07
-4.81431e-06
-2.01878e-06
5.58358e-08
-3.30522e-06
-3.31271e-06
-1.80542e-06
-2.35454e-06
-2.74973e-06
-1.33595e-06
-1.10659e-06
-2.95737e-06
-1.50284e-06
-4.97932e-08
-2.30576e-06
-6.80227e-07
2.2594e-07
-6.72283e-07
1.895e-07
2.4284e-07
6.46265e-07
1.74137e-07
2.72749e-07
1.04198e-06
3.12271e-07