/*--------------------------------*- C++ -*----------------------------------*\
| =========                 |                                                 |
| \\      /  F ield         | OpenFOAM: The Open Source CFD Toolbox           |
|  \\    /   O peration     | Version:  2.3.0                                 |
|   \\  /    A nd           | Web:      www.OpenFOAM.org                      |
|    \\/     M anipulation  |                                                 |
\*---------------------------------------------------------------------------*/
FoamFile
{
    version     2.0;
    format      ascii;
    class       volVectorField;
    location    "38";
    object      U.airMean;
}
// * * * * * * * * * * * * * * * * * * * * * * * * * * * * * * * * * * * * * //

dimensions      [0 1 -1 0 0 0 0];

internalField   nonuniform List<vector> 
6144
(
(0.00888745 0.0195086 -0.000911117)
(0.00899474 0.00112094 -0.00148661)
(0.00456908 -0.000358978 -0.00235562)
(0.00444828 -0.00208269 -0.00234146)
(0.00291993 -0.00272789 -0.00196996)
(0.00292198 -0.00161141 -0.00176197)
(0.00238581 -0.00137443 -0.00140401)
(0.00242546 -0.000121477 -0.00114933)
(0.0022057 0.000594147 -0.00107628)
(0.00211523 0.00203224 -0.000704942)
(0.00208262 0.00287843 -0.000430634)
(0.00223578 0.00330848 -0.000108682)
(0.0023926 0.00305776 3.65183e-06)
(0.0025305 0.0025524 8.97095e-05)
(0.00259286 0.00188004 -7.70159e-05)
(0.00265882 0.00134408 -0.000217203)
(0.00269142 0.000857238 -0.000426154)
(0.00273052 0.000550161 -0.00057856)
(0.00275794 0.000299299 -0.000729509)
(0.00277546 0.000170997 -0.000823509)
(0.00278297 8.05043e-05 -0.000887424)
(0.00278349 5.23137e-05 -0.000917714)
(0.00277709 4.21578e-05 -0.000927385)
(0.00276614 5.26e-05 -0.000918567)
(0.00275053 7.00272e-05 -0.00089654)
(0.00273265 8.96999e-05 -0.000864004)
(0.00271303 0.000107197 -0.000823253)
(0.00269233 0.000117437 -0.000772901)
(0.00267155 0.000123987 -0.000718822)
(0.00265126 0.000116287 -0.000668635)
(0.00263313 0.000117973 -0.00062074)
(0.00261315 8.03651e-05 -0.00058394)
(0.00259858 0.000111871 -0.000544419)
(0.00257445 2.76192e-05 -0.000523554)
(0.00256806 0.000154385 -0.000477369)
(0.00253569 -4.95377e-05 -0.000464273)
(0.00253613 0.000258455 -0.000393567)
(0.00249589 -0.000205231 -0.00038068)
(0.00249788 0.000406851 -0.000275261)
(0.0024583 -0.000524194 -0.00026336)
(0.00245938 0.000558324 -0.000139381)
(0.00244359 -0.00109828 -0.000133033)
(0.00243426 0.000671094 -3.91725e-05)
(0.00249394 -0.00201683 -7.82846e-05)
(0.00241373 0.000835096 -0.000116577)
(0.00255433 -0.00315411 -0.000272188)
(0.00237415 0.0016682 -0.000604218)
(0.00252855 -0.00371381 -0.000676722)
(0.00247161 0.00399212 -0.00108552)
(0.0026491 -0.00389562 -0.00116417)
(0.00378887 0.00852343 -0.00181607)
(0.00363954 -0.008691 -0.00243784)
(0.00445074 0.0146888 -0.00435895)
(0.00450479 -0.00929673 -0.00594472)
(0.00808069 0.0389327 -0.00772744)
(0.00600072 -0.029976 -0.0116319)
(0.0178357 0.0683524 -0.00349857)
(0.00990135 -0.0630513 -0.0174731)
(-0.0462594 0.116143 -0.0879229)
(0.0345941 0.0361376 -0.106792)
(0.0809164 0.334942 -1.62035e-05)
(0.0391486 0.376736 -0.0057392)
(0.0189097 -0.0606622 -0.00217016)
(0.029344 -0.115299 -0.00190922)
(0.0223842 -0.124846 -0.000443405)
(0.0149521 -0.123117 0.00118081)
(0.0105291 -0.127991 0.00206824)
(0.00752633 -0.124935 0.00171343)
(0.00569165 -0.123661 0.000674173)
(0.00441731 -0.118694 -3.82089e-05)
(0.00336885 -0.115742 -0.000562062)
(0.002648 -0.109753 -0.000974673)
(0.00222187 -0.105286 -0.00132263)
(0.00207222 -0.099683 -0.00150403)
(0.00207689 -0.0955421 -0.00158063)
(0.00214964 -0.0913003 -0.00160052)
(0.00220049 -0.0881227 -0.0016479)
(0.00223279 -0.0850889 -0.00170646)
(0.00234801 -0.0826416 -0.00178144)
(0.00249613 -0.0805354 -0.00189571)
(0.00265426 -0.0784163 -0.00198434)
(0.00275224 -0.0760806 -0.00205544)
(0.00270315 -0.0735333 -0.00208916)
(0.00252097 -0.0704181 -0.00211607)
(0.00216082 -0.0669169 -0.00214297)
(0.00169171 -0.0627935 -0.00212465)
(0.00106516 -0.0579913 -0.00216354)
(0.000269206 -0.0520818 -0.00218201)
(-0.000699544 -0.0450078 -0.00224055)
(-0.00147886 -0.0362218 -0.00205879)
(-0.00124868 -0.0272404 -0.00207906)
(-0.000999317 -0.0181695 -0.00363667)
(-0.001504 -0.00739625 -0.00388748)
(-0.00279416 0.003048 -0.00140833)
(-0.00275213 0.0108025 0.00534982)
(-0.0024269 0.0104078 0.0102978)
(0.0181222 0.0221664 0.00259395)
(0.0187971 0.00953619 0.00220849)
(0.0107918 0.00658868 -7.56366e-05)
(0.0107224 0.00429074 0.000670227)
(0.00649499 0.00108477 0.00109636)
(0.00617902 0.00104345 0.00158145)
(0.00420674 -0.000247282 0.00211973)
(0.00396735 0.00105362 0.00193149)
(0.00340866 0.0018416 0.00170574)
(0.00346268 0.0035619 0.00184861)
(0.00368389 0.00422205 0.00207905)
(0.00424296 0.00454181 0.00250227)
(0.00462041 0.00407106 0.00266526)
(0.00496287 0.00352994 0.0027719)
(0.00505417 0.00273308 0.00269402)
(0.00516628 0.00210997 0.00263433)
(0.00517192 0.0015035 0.00252784)
(0.00521949 0.00111023 0.00245018)
(0.00523802 0.000770526 0.00235882)
(0.00525454 0.000579597 0.00230009)
(0.00525136 0.000435076 0.00225941)
(0.00523613 0.000369286 0.0022513)
(0.00520853 0.000330441 0.00226267)
(0.00517239 0.000322615 0.0022937)
(0.00512929 0.000327218 0.00233677)
(0.00508246 0.00033835 0.00238955)
(0.00503305 0.000350337 0.00244854)
(0.00498275 0.000357244 0.00251033)
(0.00493442 0.000363407 0.00256932)
(0.00488818 0.000355653 0.00262069)
(0.00485062 0.000358243 0.00266878)
(0.00480263 0.000322072 0.0027079)
(0.00477383 0.000357447 0.00275212)
(0.00471133 0.000268186 0.00278002)
(0.00470527 0.000404264 0.00282952)
(0.00462017 0.000170362 0.00284722)
(0.00464541 0.000513774 0.00291367)
(0.00453416 -3.15659e-05 0.00292126)
(0.00459778 0.00067985 0.00301253)
(0.00446985 -0.000421474 0.00301001)
(0.00457452 0.000883068 0.00312184)
(0.00445889 -0.00108329 0.00311103)
(0.00459414 0.00113127 0.00321533)
(0.00453772 -0.00208804 0.00318754)
(0.0046016 0.00153615 0.00320411)
(0.00459775 -0.00337921 0.00307522)
(0.00442904 0.00253077 0.00273743)
(0.00443347 -0.00431718 0.00253874)
(0.00411748 0.00468629 0.00182129)
(0.00430347 -0.00464653 0.00210475)
(0.00659067 0.00790382 0.000967174)
(0.00660963 -0.00781428 3.90882e-05)
(0.00538375 0.0160109 -0.00123503)
(0.00440261 -0.00732561 -0.00118265)
(0.021175 0.0383458 0.00317158)
(0.0300781 -0.0404767 -0.000594228)
(-0.0141667 0.033234 0.00295662)
(-0.0143882 -0.0121943 -0.0177984)
(0.0153255 0.184269 -0.0264976)
(0.150469 0.0010804 -0.0588605)
(0.0866629 0.352776 0.00780442)
(0.00609433 0.429124 0.00322003)
(-0.0139023 -0.0791342 0.00220153)
(-0.00064237 -0.039268 0.0074725)
(-0.00495683 -0.0656788 0.00823392)
(-0.00994027 -0.0735122 0.00839045)
(-0.0109558 -0.0810574 0.00738122)
(-0.011051 -0.0811144 0.00642627)
(-0.00998057 -0.0851805 0.00506975)
(-0.00916406 -0.0845862 0.0040978)
(-0.00814713 -0.0850054 0.0032479)
(-0.00715801 -0.0817281 0.00256288)
(-0.00590495 -0.0794812 0.0019438)
(-0.0046352 -0.075707 0.0014508)
(-0.00330578 -0.0732156 0.00104136)
(-0.00209802 -0.0703846 0.000735968)
(-0.000710973 -0.0681818 0.000498101)
(0.000568901 -0.0657564 0.00037464)
(0.00139632 -0.0635372 0.000313801)
(0.00167652 -0.0613039 0.000261675)
(0.00164349 -0.0590318 0.000251891)
(0.00146385 -0.0566697 0.000281165)
(0.00123211 -0.0542869 0.000346742)
(0.000947703 -0.0516022 0.000474582)
(0.000460104 -0.0491482 0.000666184)
(-0.000347413 -0.0466151 0.00088157)
(-0.00153516 -0.0438751 0.00101106)
(-0.00305732 -0.0407101 0.000964366)
(-0.00499293 -0.036784 0.000567613)
(-0.0065815 -0.0312923 0.000373086)
(-0.00701737 -0.0247012 0.000327993)
(-0.00695821 -0.0170623 -0.00108998)
(-0.00781712 -0.00751583 -0.00143633)
(-0.00929863 0.00228078 0.00141705)
(-0.0108141 0.0093887 0.00895922)
(-0.00990252 0.00962595 0.015)
(0.0216635 0.0227845 0.00369078)
(0.0231251 0.0140847 0.00365528)
(0.0143953 0.0104104 0.00139894)
(0.0142936 0.00921661 0.0023302)
(0.00829087 0.0046252 0.00260623)
(0.00722218 0.00394247 0.00300707)
(0.00375533 0.00128212 0.00356703)
(0.0031145 0.00213891 0.00333741)
(0.00217968 0.00249275 0.00308875)
(0.00256289 0.00400253 0.00320755)
(0.00301475 0.00427389 0.00336505)
(0.00392967 0.00455482 0.00371016)
(0.00439868 0.00409565 0.003848)
(0.00485157 0.00376329 0.00394834)
(0.0049715 0.00308824 0.00389736)
(0.00510384 0.00257584 0.0038748)
(0.005054 0.00199789 0.00382491)
(0.005062 0.00161 0.00381457)
(0.0050017 0.00124001 0.00380405)
(0.00495706 0.00100949 0.00381726)
(0.00488949 0.000817312 0.0038355)
(0.00482584 0.000707403 0.00386639)
(0.00475722 0.000628991 0.00390046)
(0.00469041 0.000589864 0.00394152)
(0.00462291 0.000570337 0.00398448)
(0.00455701 0.00056463 0.00402911)
(0.00449255 0.000566007 0.00407433)
(0.00442947 0.000565731 0.0041201)
(0.00436764 0.000567098 0.00416573)
(0.00430588 0.00056191 0.00421109)
(0.00424993 0.000565186 0.00425619)
(0.00418031 0.000545103 0.00429689)
(0.00413253 0.000575584 0.00434087)
(0.00404493 0.00050195 0.00437565)
(0.00402765 0.000611424 0.00442527)
(0.00390962 0.000396352 0.00445171)
(0.00394437 0.000693462 0.00451035)
(0.00378185 0.000183891 0.00452548)
(0.00389164 0.000851955 0.00459692)
(0.00368016 -0.000173056 0.00459443)
(0.00388909 0.00112582 0.00467546)
(0.00363491 -0.00071155 0.00464461)
(0.00397328 0.00157419 0.0047302)
(0.00372643 -0.00147491 0.00465944)
(0.00410448 0.00230724 0.00472192)
(0.00386129 -0.00260362 0.00459628)
(0.003938 0.00341702 0.00445774)
(0.00366378 -0.00397749 0.00430464)
(0.00333309 0.00511815 0.00358897)
(0.00392261 -0.00503321 0.00416446)
(0.00598601 0.00735241 0.00292856)
(0.00605763 -0.00566982 0.00226635)
(0.00420314 0.0190181 0.00199007)
(0.00414472 -0.0163434 0.00419382)
(0.0302782 0.0231704 0.00809665)
(0.0427221 -0.051838 0.00436273)
(-0.0385978 0.0534835 0.0210938)
(-0.0602849 -0.102401 -0.0044126)
(-0.0429736 0.173051 -0.0595257)
(0.154341 -0.0151237 -0.0350427)
(0.144858 0.338967 0.00462755)
(0.0653062 0.391435 0.000637987)
(0.0636897 -0.00965948 0.00699674)
(0.0304623 0.0501338 0.0117664)
(0.0107712 0.0156767 0.0110823)
(0.00363414 0.00978166 0.0100823)
(-0.000663003 0.00265717 0.00787648)
(-0.00433495 -0.000989844 0.00616972)
(-0.00578765 -0.00737922 0.0042889)
(-0.00694286 -0.00893326 0.00277633)
(-0.00707039 -0.0108175 0.00143438)
(-0.00664449 -0.0100574 0.000332258)
(-0.00528361 -0.0100162 -0.000662975)
(-0.00377026 -0.00990979 -0.00143744)
(-0.00243449 -0.0110633 -0.00160198)
(-0.00157182 -0.014075 -0.0015676)
(-0.000878441 -0.0182372 -0.00133126)
(-0.000231335 -0.0201312 -0.000921487)
(0.000633974 -0.0207452 -0.00033277)
(0.00141345 -0.0200101 0.000534037)
(0.0018838 -0.0197982 0.00143701)
(0.00202985 -0.0204144 0.00220099)
(0.00188677 -0.0216211 0.00279888)
(0.00146313 -0.0229106 0.00327007)
(0.000672813 -0.0240863 0.00359258)
(-0.000508041 -0.0250551 0.00376974)
(-0.00222443 -0.0255131 0.00380577)
(-0.00447246 -0.025384 0.00347803)
(-0.00739679 -0.0242684 0.00262438)
(-0.0102172 -0.0218503 0.001641)
(-0.0115925 -0.0177117 0.0011339)
(-0.0123385 -0.012566 0.000144681)
(-0.0143618 -0.00492487 0.000234822)
(-0.0175994 0.00292128 0.00331154)
(-0.0204511 0.00922801 0.0104722)
(-0.0221194 0.00870963 0.0163448)
(0.023305 0.0230795 0.00377662)
(0.0262497 0.0168728 0.00416035)
(0.0163523 0.0120658 0.00117245)
(0.0174561 0.0124697 0.00166309)
(0.0106177 0.00703581 0.00168771)
(0.00958797 0.00655793 0.00236823)
(0.00406892 0.00197572 0.00319497)
(0.00255632 0.00227917 0.00308826)
(0.000925677 0.00174956 0.0030761)
(0.00158127 0.00349745 0.00329289)
(0.00209775 0.00357395 0.00356431)
(0.00305007 0.00409438 0.00405739)
(0.00349326 0.00384135 0.00423577)
(0.00397263 0.00377207 0.0043579)
(0.00408512 0.00322524 0.00429295)
(0.00421815 0.00282744 0.00427614)
(0.00413271 0.00227923 0.00423925)
(0.00412162 0.00192578 0.00424569)
(0.00403044 0.00154798 0.00424432)
(0.00396249 0.00129896 0.00426338)
(0.00386842 0.00107235 0.00428492)
(0.00378274 0.000929457 0.00431907)
(0.00368915 0.000819853 0.00435375)
(0.00359782 0.000755278 0.004393)
(0.00350995 0.000714299 0.00443483)
(0.00342837 0.000694762 0.0044786)
(0.00335186 0.000687481 0.00452252)
(0.00327992 0.00068518 0.00456611)
(0.00321164 0.000688407 0.00460821)
(0.00314584 0.000689359 0.00464837)
(0.00308483 0.000698497 0.00468748)
(0.0030167 0.000689358 0.00472386)
(0.00296815 0.000718252 0.00476499)
(0.00288803 0.000660761 0.00479623)
(0.00287126 0.000758266 0.00484041)
(0.00276152 0.000569043 0.00486134)
(0.00280593 0.000846678 0.00491003)
(0.00264571 0.000382257 0.00491303)
(0.00278467 0.00102737 0.00496817)
(0.0025592 7.78762e-05 0.00494694)
(0.00282058 0.00135338 0.00500909)
(0.00252547 -0.000354164 0.00495294)
(0.0029387 0.00190589 0.00502622)
(0.00261471 -0.000923813 0.0049187)
(0.00319663 0.00280291 0.00502334)
(0.00278506 -0.00176252 0.00482698)
(0.00334054 0.00398761 0.00481813)
(0.00274838 -0.00312142 0.0045712)
(0.00287558 0.00514334 0.00417076)
(0.00324076 -0.00528173 0.00459133)
(0.0041674 0.0075064 0.00371804)
(0.0034836 -0.00583737 0.00354336)
(0.00737 0.0165009 0.00470118)
(0.0103983 -0.0235389 0.00594771)
(0.0325521 0.0136614 0.0140359)
(0.0308006 -0.0395117 0.0097329)
(-0.011833 0.0761559 0.0235158)
(-0.0738398 -0.122925 0.0157638)
(-0.0376733 0.205904 -0.104535)
(0.170526 -0.0521092 -0.0171246)
(0.168225 0.362395 0.00204855)
(0.0687034 0.35673 -0.00416803)
(0.0735208 0.103993 0.00543548)
(-0.00134859 0.1627 0.0109813)
(-0.00232301 0.0888881 0.012996)
(-0.00561086 0.0883886 0.0083902)
(-0.0073362 0.073426 0.0041856)
(-0.00891247 0.0714263 0.000901624)
(-0.00880125 0.065765 -0.00162715)
(-0.00860139 0.067414 -0.00337101)
(-0.0079906 0.0691029 -0.00471266)
(-0.00722344 0.0726307 -0.00543206)
(-0.00596257 0.0765968 -0.00532597)
(-0.00465418 0.0820766 -0.00380893)
(-0.0034344 0.0842875 -0.00217926)
(-0.00225097 0.0852907 -0.000639462)
(-0.000880148 0.0844892 0.000592462)
(0.000757456 0.07832 0.00159828)
(0.0023118 0.0692472 0.00244373)
(0.00325811 0.0601326 0.00335001)
(0.00359394 0.0493647 0.00415035)
(0.00334495 0.036167 0.00476989)
(0.00269901 0.0204243 0.005177)
(0.00163482 0.00954924 0.0054443)
(0.000122809 0.00382464 0.00551917)
(-0.00184038 -0.000594334 0.00543582)
(-0.00437397 -0.00422572 0.00504463)
(-0.00745203 -0.00709948 0.00413902)
(-0.0106377 -0.00890395 0.0028216)
(-0.0132829 -0.00936314 0.00176336)
(-0.0152362 -0.00814541 0.00147631)
(-0.0173239 -0.00534602 0.00132472)
(-0.0206548 -0.000436944 0.00194452)
(-0.0246423 0.00485254 0.0050942)
(-0.0287273 0.00928861 0.0116498)
(-0.0309526 0.00841765 0.016931)
(0.023566 0.0232446 0.00436033)
(0.0283601 0.0194489 0.0049638)
(0.0176133 0.0127855 0.00107412)
(0.0200399 0.0144594 0.00140713)
(0.0129899 0.00783235 0.000488936)
(0.0126822 0.00853299 0.00107045)
(0.0058517 0.00296829 0.0014325)
(0.0032057 0.00316823 0.00199142)
(-0.000134592 0.000697337 0.00242401)
(2.64332e-05 0.00238308 0.0029139)
(0.000493352 0.00231146 0.003323)
(0.00130526 0.00328274 0.00403871)
(0.00164533 0.00332001 0.00425967)
(0.00214473 0.00354945 0.00442253)
(0.00227778 0.00314761 0.00433368)
(0.00237502 0.00284625 0.00432739)
(0.0021867 0.00233647 0.00428811)
(0.00207716 0.00203481 0.00430566)
(0.0019027 0.00168126 0.00429942)
(0.00177624 0.00144996 0.00430793)
(0.00163107 0.0012167 0.00430845)
(0.00151023 0.00105891 0.00431936)
(0.00139394 0.000924922 0.00433296)
(0.00128974 0.000838015 0.00435451)
(0.00119338 0.000779377 0.00437853)
(0.00110849 0.000747976 0.00440576)
(0.00103376 0.000731968 0.0044339)
(0.00096749 0.000726341 0.00446146)
(0.000908097 0.000728189 0.00448708)
(0.000853142 0.000730787 0.0045086)
(0.000801711 0.000742118 0.0045263)
(0.000746444 0.000739132 0.00454019)
(0.000704822 0.000768884 0.00455789)
(0.000637819 0.000724014 0.00456509)
(0.000627454 0.000818244 0.00458955)
(0.000533195 0.000651407 0.00458488)
(0.00058456 0.000923865 0.00461622)
(0.000437729 0.000502632 0.00458882)
(0.00058408 0.00113975 0.00462593)
(0.000364189 0.000271427 0.00456967)
(0.000629089 0.00152643 0.00461027)
(0.000331363 -3.12596e-05 0.00451731)
(0.000738663 0.00217361 0.00456174)
(0.00041912 -0.000359123 0.00443043)
(0.00100289 0.00317624 0.00450197)
(0.000705006 -0.000790676 0.00434035)
(0.00133528 0.00438358 0.00438046)
(0.00110967 -0.00191988 0.0041625)
(0.00153781 0.00528163 0.00379979)
(0.00164322 -0.00446992 0.00374577)
(0.00235484 0.00777221 0.00278788)
(0.00231457 -0.00656643 0.00456123)
(0.0103554 0.0120377 0.0084063)
(0.0122582 -0.0225072 0.0133906)
(0.0248558 0.0181824 0.031897)
(0.016471 -0.0398569 0.0312113)
(-0.0016816 0.0576665 0.0585784)
(-0.0962372 -0.12458 0.0479961)
(-0.0021691 0.172113 -0.161606)
(0.130394 -0.0603193 0.00446691)
(0.149516 0.457409 0.00452747)
(0.0573394 0.596399 -0.00484879)
(0.0560697 0.520042 0.00383375)
(0.0174692 0.542818 0.00300149)
(0.017412 0.459788 0.0026433)
(0.00355046 0.407335 -0.0014697)
(0.00154402 0.392539 -0.00406349)
(-0.00148758 0.387026 -0.00518929)
(-0.00263302 0.390243 -0.00602586)
(-0.00415769 0.395927 -0.00552054)
(-0.0048326 0.400546 -0.00444287)
(-0.00495031 0.404041 -0.00268765)
(-0.00421065 0.398332 -0.00085769)
(-0.00301818 0.394215 0.000913748)
(-0.00158745 0.380581 0.00236515)
(-0.000223269 0.355347 0.00373169)
(0.00135196 0.326457 0.00478775)
(0.00311868 0.293136 0.00548543)
(0.0046383 0.25809 0.00608073)
(0.00555456 0.216388 0.00655347)
(0.0058301 0.181654 0.00688818)
(0.0055674 0.148487 0.00703362)
(0.0048907 0.116963 0.00689817)
(0.00374986 0.0880793 0.00670122)
(0.00211977 0.06488 0.00640601)
(6.36315e-05 0.0435993 0.00601288)
(-0.00224409 0.021268 0.00515826)
(-0.00538082 0.0131644 0.00382848)
(-0.00887517 0.00788233 0.00266075)
(-0.0124508 0.00493665 0.00205277)
(-0.0159837 0.00371318 0.00212655)
(-0.0198489 0.00401887 0.00243915)
(-0.0248082 0.00599969 0.00351447)
(-0.0304222 0.00849023 0.00654994)
(-0.0368432 0.0107238 0.0116824)
(-0.0430622 0.0083606 0.0160655)
(0.0219064 0.0231535 0.00668383)
(0.0294633 0.0221179 0.00625584)
(0.017786 0.0132627 0.00168473)
(0.0216484 0.0162636 0.0024144)
(0.0146308 0.00732541 0.000348748)
(0.0149508 0.00932844 0.000477278)
(0.00811407 0.00299588 -0.00015284)
(0.0050793 0.00416939 0.000620854)
(0.000395047 0.000276891 0.00153564)
(-0.000820775 0.00136506 0.00226875)
(-0.000898141 0.000582235 0.00278594)
(-0.000181777 0.00193417 0.00376701)
(0.000310768 0.00231993 0.00413881)
(0.000964847 0.00296883 0.00449175)
(0.00122416 0.00271501 0.00452478)
(0.00134617 0.00255914 0.00460501)
(0.00109145 0.00211262 0.00456694)
(0.000913423 0.00191654 0.00458047)
(0.000683256 0.00165004 0.00454036)
(0.000521323 0.00150857 0.00450873)
(0.000354121 0.00133626 0.00445742)
(0.000220443 0.00122222 0.00441397)
(9.58426e-05 0.00111191 0.00437114)
(-1.00914e-05 0.00103639 0.00433645)
(-9.98727e-05 0.000980475 0.00430569)
(-0.000170541 0.00095005 0.00428149)
(-0.000226683 0.000934391 0.00426192)
(-0.00027153 0.000931999 0.00424449)
(-0.000308544 0.000937451 0.00422769)
(-0.000341773 0.000943701 0.00421015)
(-0.000371875 0.000955967 0.00419367)
(-0.000405184 0.000953978 0.0041772)
(-0.000425174 0.000982804 0.00416798)
(-0.000467247 0.000945885 0.00415027)
(-0.00045439 0.00104288 0.00415498)
(-0.00052712 0.000904964 0.00412284)
(-0.000452007 0.00118145 0.0041446)
(-0.000579245 0.000816611 0.00408551)
(-0.000406527 0.00143807 0.00412961)
(-0.000601696 0.000660265 0.00403826)
(-0.000328943 0.00185657 0.00409506)
(-0.000582447 0.000448865 0.00396701)
(-0.000246854 0.00251965 0.00401534)
(-0.000437151 0.000242413 0.00388689)
(-7.39089e-05 0.00349369 0.00393248)
(-3.42591e-05 -4.54241e-05 0.00390199)
(0.000383714 0.00468416 0.00403991)
(0.000675027 -0.00118567 0.0040593)
(0.00111275 0.00558154 0.00404951)
(0.00121204 -0.00375512 0.00361458)
(0.00200842 0.00766468 0.00272638)
(0.00337066 -0.00693708 0.00493499)
(0.00970686 0.0101362 0.0105932)
(0.00737046 -0.0128581 0.018997)
(0.00990177 0.0205655 0.0425151)
(-0.00605308 -0.0262163 0.05137)
(0.0145318 0.0366678 0.0898198)
(-0.070937 -0.117761 0.0788978)
(0.0291776 0.0680222 -0.166267)
(0.0824067 -0.00974734 0.0137694)
(0.137978 0.484426 0.000197406)
(0.049845 0.60048 -0.00637129)
(0.0516595 0.564466 0.00259257)
(0.0219621 0.605535 0.00184601)
(0.0157731 0.592325 0.0011752)
(0.00541345 0.598652 -0.00140204)
(0.00256864 0.600412 -0.00202286)
(-0.00124212 0.592361 -0.00208451)
(-0.00329 0.592821 -0.0011054)
(-0.00535495 0.595051 0.000227171)
(-0.00631819 0.60502 0.00195689)
(-0.00628704 0.596472 0.00353255)
(-0.00509102 0.597818 0.00516992)
(-0.00365365 0.603152 0.00641088)
(-0.00172652 0.595716 0.00752364)
(0.00072325 0.585588 0.00821053)
(0.00333573 0.58167 0.00858442)
(0.00554981 0.570658 0.00865663)
(0.00729968 0.559494 0.00859422)
(0.00814412 0.550677 0.00831274)
(0.00801982 0.526624 0.00809049)
(0.00740004 0.507545 0.00781443)
(0.00649109 0.477671 0.00743323)
(0.00534908 0.440817 0.00697939)
(0.00365856 0.383641 0.00649953)
(0.000942605 0.327018 0.00586162)
(-0.00296975 0.282089 0.00482124)
(-0.00703135 0.203997 0.00381667)
(-0.0110268 0.128562 0.00311309)
(-0.0151631 0.0784217 0.00265922)
(-0.0188881 0.0407781 0.00296595)
(-0.0232524 0.0158288 0.00362208)
(-0.0290959 0.0111975 0.00622666)
(-0.0350601 0.00947255 0.00902271)
(-0.0408954 0.00983614 0.0124025)
(-0.0465821 0.0077529 0.014171)
(0.0177771 0.0221796 0.00646954)
(0.0289774 0.0257824 0.00783858)
(0.015731 0.0132951 0.00315417)
(0.0212231 0.0184122 0.00503985)
(0.0141479 0.00639042 0.00208764)
(0.015244 0.00919027 0.00209136)
(0.00888525 0.00157231 0.000386527)
(0.00606276 0.00410088 0.000219871)
(0.000922519 0.000116585 0.00101984)
(-0.00130478 0.00125965 0.00203282)
(-0.002496 -0.000517998 0.00248938)
(-0.00285296 0.000891104 0.00345363)
(-0.00273001 0.00135721 0.00396348)
(-0.00185514 0.00223781 0.004649)
(-0.00151889 0.00207661 0.00492626)
(-0.00141256 0.00212063 0.00515187)
(-0.00181992 0.0017868 0.00511388)
(-0.00216349 0.00173568 0.00508258)
(-0.00251093 0.00158055 0.00497585)
(-0.00272967 0.00156054 0.00488169)
(-0.00291914 0.00148785 0.00476978)
(-0.0030481 0.001465 0.00467483)
(-0.00315147 0.00142316 0.00458572)
(-0.00323092 0.0014007 0.0045157)
(-0.00329241 0.00138179 0.00445998)
(-0.0033336 0.00137364 0.0044167)
(-0.00335606 0.00137064 0.00437973)
(-0.00336253 0.00137472 0.00434879)
(-0.00335561 0.00138244 0.0043246)
(-0.00334042 0.00138878 0.00430551)
(-0.00332442 0.00139715 0.00429094)
(-0.00331142 0.00139514 0.00427978)
(-0.00329819 0.00141541 0.00427507)
(-0.00329993 0.00139015 0.00426764)
(-0.00327219 0.00147972 0.00427635)
(-0.0032939 0.00137868 0.00426073)
(-0.00322416 0.00163422 0.00428857)
(-0.00326662 0.00134222 0.0042555)
(-0.00313566 0.00190808 0.00431202)
(-0.00320034 0.0012467 0.00426004)
(-0.00304694 0.00232779 0.00432171)
(-0.003116 0.00107105 0.00424987)
(-0.00300393 0.00293914 0.0042785)
(-0.00292947 0.000772123 0.00423134)
(-0.00291966 0.0037766 0.00419854)
(-0.00247502 0.000243609 0.0042378)
(-0.00237686 0.00481229 0.00429717)
(-0.00157369 -0.00108156 0.00453132)
(-0.00138743 0.00579403 0.00471771)
(-0.000671996 -0.00340622 0.00435435)
(-0.000392881 0.00758137 0.00347153)
(0.0024131 -0.00695819 0.00438434)
(0.00246122 0.00916653 0.00970367)
(-0.00222301 -0.0142183 0.014982)
(-0.00798595 0.0127381 0.036384)
(-0.0208585 -0.0345157 0.0512145)
(0.00489844 -0.00814397 0.0866043)
(-0.025898 -0.110351 0.0853445)
(0.02791 -0.0355291 -0.164794)
(0.0436027 0.0572483 0.0162389)
(0.0762459 0.559174 -0.00236803)
(0.0306417 0.638927 -0.00633576)
(0.0327947 0.586336 0.00349206)
(0.0202204 0.663329 0.00639808)
(0.0160537 0.629222 0.00769181)
(0.0089014 0.643073 0.00641487)
(0.00490047 0.634646 0.0062723)
(0.000952054 0.623676 0.00629494)
(-0.00200287 0.639212 0.00690815)
(-0.00425148 0.623348 0.00764622)
(-0.00537674 0.642575 0.00836686)
(-0.00571403 0.646788 0.00876765)
(-0.00483353 0.648527 0.00917769)
(-0.00348415 0.630459 0.00948771)
(-0.00134415 0.617281 0.0100234)
(0.00189016 0.632743 0.0101911)
(0.00492651 0.63563 0.0101444)
(0.00805572 0.615269 0.0101983)
(0.0114983 0.634505 0.0103495)
(0.0145276 0.626269 0.0101665)
(0.0157831 0.605676 0.010198)
(0.0165391 0.610303 0.0101591)
(0.0164577 0.605366 0.00987179)
(0.0151866 0.589051 0.0091874)
(0.0131823 0.569149 0.008112)
(0.0101517 0.536272 0.00736256)
(0.00553667 0.515965 0.00591088)
(0.00012673 0.489805 0.00444931)
(-0.00619439 0.440677 0.00296346)
(-0.0123792 0.393999 0.00213302)
(-0.0191753 0.353244 0.00288554)
(-0.0267768 0.325414 0.00438537)
(-0.0346515 0.301627 0.00706243)
(-0.0422722 0.256155 0.00966846)
(-0.0514279 0.237126 0.0112242)
(-0.0599113 0.278155 0.0105408)
(0.0142652 0.0177792 0.00483413)
(0.0272586 0.0291331 0.008164)
(0.0119779 0.0129239 0.00393018)
(0.0190703 0.0210529 0.00676635)
(0.0123443 0.00628957 0.0037578)
(0.0139084 0.00975668 0.00382231)
(0.00749385 0.000372387 0.00178827)
(0.00511466 0.00367061 0.000769314)
(0.000420622 -0.000247596 0.0013929)
(-0.00171391 0.00150483 0.00240311)
(-0.00331633 -0.000909647 0.00292347)
(-0.00402354 0.000130463 0.00386128)
(-0.00374654 -0.00019848 0.00470911)
(-0.00271967 0.000645482 0.00562349)
(-0.0023577 0.000552211 0.00622786)
(-0.00226958 0.00109803 0.00670318)
(-0.00263485 0.00116122 0.00686298)
(-0.00291901 0.00149525 0.00691558)
(-0.00322139 0.0015783 0.00683109)
(-0.00339767 0.0017515 0.0067276)
(-0.0035522 0.00179653 0.00659548)
(-0.0036418 0.00186046 0.00648249)
(-0.00370724 0.00187341 0.00637778)
(-0.00374582 0.00188735 0.00629516)
(-0.00376392 0.00188927 0.00622878)
(-0.00376009 0.00189183 0.00617912)
(-0.00374269 0.0018944 0.00613858)
(-0.00371206 0.00189656 0.00610705)
(-0.00367223 0.00189532 0.00608284)
(-0.00362592 0.00189161 0.0060657)
(-0.00357957 0.00189089 0.00605562)
(-0.00353407 0.00188502 0.00605118)
(-0.00349478 0.00189935 0.00605172)
(-0.00346625 0.00188303 0.00605038)
(-0.00342545 0.00196863 0.00605542)
(-0.00341442 0.00189356 0.00603879)
(-0.00334766 0.00213535 0.00604694)
(-0.00334947 0.00188303 0.0060027)
(-0.00323695 0.00240943 0.00602492)
(-0.00323633 0.00179781 0.00595631)
(-0.00311155 0.00280222 0.00599055)
(-0.00305658 0.00159633 0.0059053)
(-0.00299678 0.00336245 0.00593189)
(-0.00275222 0.00117377 0.00586721)
(-0.00289699 0.00409728 0.00581974)
(-0.00222842 0.000296513 0.00585146)
(-0.00238 0.00494759 0.00584403)
(-0.00137591 -0.00140386 0.00610444)
(-0.00163783 0.0061706 0.00651261)
(-0.000737741 -0.00378241 0.00612911)
(-0.000906086 0.00853266 0.00585668)
(0.00348574 -0.00745586 0.00642025)
(0.00240751 0.00985188 0.0112881)
(-0.00156112 -0.0158861 0.0155029)
(-0.0149109 0.011004 0.0355177)
(-0.0207082 -0.0387826 0.050293)
(-0.00908491 -0.0188964 0.0863821)
(0.019348 -0.0954315 0.0839203)
(-0.000354191 -0.0612453 -0.15079)
(-0.00854069 0.0902583 0.0140736)
(-0.0155463 0.591431 -0.00721477)
(-0.0027386 0.68601 -0.00545073)
(0.0031531 0.689367 0.0072568)
(0.00839633 0.717011 0.0107052)
(0.00897662 0.714528 0.0125435)
(0.00700571 0.707923 0.0120286)
(0.00391337 0.714297 0.0121109)
(0.00198588 0.723725 0.0120405)
(-0.000661791 0.709813 0.0122725)
(-0.00212013 0.713849 0.0125653)
(-0.00288866 0.708234 0.0128514)
(-0.00298492 0.708996 0.0129751)
(-0.00207921 0.703802 0.0130669)
(-2.7148e-05 0.697359 0.0129853)
(0.00308496 0.687797 0.013105)
(0.00614318 0.680355 0.0130403)
(0.00984589 0.676825 0.0130574)
(0.0130693 0.679508 0.0132408)
(0.0165029 0.675186 0.0135682)
(0.0197915 0.673548 0.0138748)
(0.0221682 0.670326 0.0141181)
(0.0234735 0.668011 0.014294)
(0.023547 0.664483 0.0145329)
(0.0226419 0.659436 0.0148783)
(0.0210395 0.650696 0.0152814)
(0.0184167 0.636422 0.0160129)
(0.0148988 0.625201 0.0162844)
(0.0100579 0.613471 0.0162975)
(0.00479965 0.596169 0.0157387)
(-0.00214074 0.582856 0.0148903)
(-0.00899457 0.543674 0.0148131)
(-0.0191583 0.523164 0.0132651)
(-0.0304186 0.500509 0.0108394)
(-0.0409529 0.463727 0.00546533)
(-0.0534084 0.449633 -0.00773712)
(-0.0624036 0.424709 -0.0274599)
(0.00293308 0.0144441 -0.00626439)
(0.0247805 0.0311811 0.00563238)
(0.00621271 0.0125553 0.00171119)
(0.0153666 0.0242022 0.00514135)
(0.00904515 0.00737501 0.00266892)
(0.0113552 0.0115518 0.00298231)
(0.00534689 0.000655213 0.000535724)
(0.00313456 0.00407816 -0.00142505)
(-0.00140062 -8.15351e-05 -0.00158884)
(-0.00319062 0.00196986 -0.000973933)
(-0.00496202 -0.000945432 -0.00031358)
(-0.00607996 -0.000185429 0.000393901)
(-0.00678388 -0.00136021 0.00123341)
(-0.00630453 -0.000491202 0.0020968)
(-0.00649016 -0.000397629 0.00284254)
(-0.00662819 0.000499621 0.00341104)
(-0.00713607 0.000790734 0.00378933)
(-0.00745194 0.00133999 0.00401179)
(-0.00775366 0.00154259 0.00408166)
(-0.00787609 0.00181817 0.00408963)
(-0.00796244 0.00193147 0.00405044)
(-0.007989 0.00204796 0.00401215)
(-0.00799187 0.00209825 0.0039739)
(-0.00797498 0.00213634 0.00394594)
(-0.00794243 0.00215359 0.00392444)
(-0.00789245 0.00216525 0.0039111)
(-0.00782619 0.00217165 0.00390266)
(-0.0077443 0.00217547 0.0038987)
(-0.00765519 0.00217682 0.00389625)
(-0.00756687 0.00217663 0.00389509)
(-0.00748742 0.00217966 0.00389638)
(-0.00741232 0.00218069 0.00390018)
(-0.00735402 0.00219864 0.00390604)
(-0.00730294 0.00219331 0.00391017)
(-0.00725751 0.0022729 0.00391329)
(-0.00720135 0.00221891 0.00390233)
(-0.00715109 0.00243751 0.00389313)
(-0.00705853 0.00222629 0.00385988)
(-0.00701464 0.00271884 0.00383934)
(-0.00685679 0.00218284 0.00379452)
(-0.00691021 0.00313947 0.00377076)
(-0.00665939 0.0019842 0.00372348)
(-0.00685723 0.00366595 0.00369623)
(-0.00636444 0.00149439 0.00365644)
(-0.00667472 0.00436099 0.00357241)
(-0.00581537 0.000510552 0.00354061)
(-0.0059961 0.00523504 0.00343898)
(-0.00507839 -0.00131068 0.00346736)
(-0.00541881 0.00664687 0.00393589)
(-0.00462266 -0.00436223 0.00331816)
(-0.00497812 0.00876141 0.00374672)
(-0.000191881 -0.0082961 0.00505298)
(-0.00365216 0.0116817 0.00808331)
(-0.00669011 -0.0162454 0.0107899)
(-0.0217671 0.0197687 0.0264539)
(-0.0185662 -0.0514157 0.0392605)
(-0.0267624 -0.0165033 0.066726)
(0.0528117 -0.123881 0.068963)
(-0.0336705 -0.004455 -0.164617)
(-0.0559291 0.0378087 0.00407702)
(-0.110498 0.518041 -0.0184842)
(-0.0346199 0.601151 -0.00717632)
(-0.0267433 0.582464 0.00293835)
(-0.00391387 0.619242 0.00719171)
(-0.000688442 0.612701 0.00836532)
(0.00246926 0.595843 0.00836536)