/*--------------------------------*- C++ -*----------------------------------*\
| =========                 |                                                 |
| \\      /  F ield         | OpenFOAM: The Open Source CFD Toolbox           |
|  \\    /   O peration     | Version:  2.3.0                                 |
|   \\  /    A nd           | Web:      www.OpenFOAM.org                      |
|    \\/     M anipulation  |                                                 |
\*---------------------------------------------------------------------------*/
FoamFile
{
    version     2.0;
    format      ascii;
    class       volVectorField;
    location    "38";
    object      U.air;
}
// * * * * * * * * * * * * * * * * * * * * * * * * * * * * * * * * * * * * * //

dimensions      [0 1 -1 0 0 0 0];

internalField   nonuniform List<vector> 
6144
(
(0.0107505 0.0189955 0.00131954)
(0.0113007 -0.00609882 -7.24807e-05)
(0.0040753 -0.0077746 -0.00212763)
(0.00347836 -0.00718028 -0.00239022)
(0.00222431 -0.00570453 -0.0024154)
(0.00280584 -0.00235318 -0.00236716)
(0.00273823 -0.00110301 -0.00184186)
(0.00250394 0.000178275 -0.00116442)
(0.00179477 0.000631481 -0.000640693)
(0.00127611 0.00274915 0.000150366)
(0.00101261 0.00425518 0.000846865)
(0.00109007 0.00500952 0.00150619)
(0.00130234 0.00477126 0.00193128)
(0.00147351 0.0039032 0.00220253)
(0.00161133 0.00279975 0.00199759)
(0.00174755 0.00177292 0.00173425)
(0.00184398 0.000855038 0.00134323)
(0.00193911 0.0001893 0.0010031)
(0.00201908 -0.00029697 0.000667504)
(0.00208134 -0.000526878 0.000375971)
(0.00212769 -0.000620088 0.000184456)
(0.00215114 -0.00059795 8.14712e-05)
(0.00215298 -0.000521055 4.60724e-05)
(0.00213447 -0.000411543 6.16135e-05)
(0.00209974 -0.000290739 0.000121649)
(0.00205381 -0.000177322 0.000217507)
(0.00199788 -8.66436e-05 0.000359491)
(0.00193741 -2.16215e-05 0.000524935)
(0.00188291 7.41549e-06 0.000675733)
(0.00182896 -3.18624e-06 0.000808767)
(0.00177683 -3.05892e-05 0.000917209)
(0.00172682 -5.61506e-05 0.00100498)
(0.00167982 -6.29808e-05 0.00108167)
(0.00163543 -5.91992e-05 0.00115275)
(0.00159048 -2.15789e-05 0.00122566)
(0.00154358 1.15794e-05 0.00130317)
(0.00149611 0.000102619 0.00141168)
(0.00144235 8.9174e-05 0.00152412)
(0.00139244 0.000243015 0.00168734)
(0.00132449 -2.57276e-06 0.00180584)
(0.00128409 0.000401381 0.00203604)
(0.00116306 -0.000371988 0.00212038)
(0.00119446 0.000500229 0.0023934)
(0.00102186 -0.00124542 0.00246664)
(0.00109954 0.000735683 0.00242816)
(0.0010058 -0.00243484 0.00204808)
(0.00103294 0.00230176 0.00154506)
(0.00140408 -0.00209466 0.00107463)
(0.00145657 0.00546636 0.00027399)
(0.00220205 -0.00243177 0.000122153)
(0.00163018 0.00846606 -0.000912647)
(0.00452183 -0.00340927 -0.00237631)
(0.00541502 0.00966401 -0.00642295)
(0.00563008 -0.00255828 -0.00682225)
(0.00642565 0.0312554 -0.0122622)
(0.0102979 0.00296135 -0.0114782)
(0.0395277 0.0938822 0.00413037)
(0.00508111 -0.087727 -0.0011393)
(-0.0775283 0.124057 -0.141497)
(-0.0246118 0.00156997 -0.0847418)
(0.0502707 0.365259 0.0101965)
(0.027556 0.396599 -0.0161195)
(0.0194995 -0.0953585 -0.0210319)
(0.0204656 -0.0822288 -0.00947492)
(0.00934598 -0.0813141 -0.00704386)
(-0.00173146 -0.0709605 -0.00848684)
(-0.00836285 -0.0419263 -0.0122537)
(-0.0100103 -0.00649593 -0.0041616)
(-0.00727715 0.0226813 -0.00551895)
(-0.0029894 0.042055 -0.0105603)
(0.000293624 0.0522376 -0.00898451)
(0.00414579 0.0638575 -0.00998604)
(0.00706532 0.0721408 -0.0100353)
(0.0097844 0.0757174 -0.00985789)
(0.0132131 0.0752679 -0.00955932)
(0.0149809 0.0702696 -0.00971542)
(0.0160182 0.0649705 -0.0106794)
(0.0167235 0.0589851 -0.0113179)
(0.017897 0.0527566 -0.0120346)
(0.0185614 0.0459036 -0.0128762)
(0.0196607 0.0386042 -0.0135406)
(0.0207056 0.0305714 -0.0140208)
(0.0221926 0.022156 -0.0129636)
(0.0235195 0.0129732 -0.0115072)
(0.0244975 0.00308965 -0.0102637)
(0.0246353 -0.00705152 -0.00989464)
(0.0237193 -0.016721 -0.0092463)
(0.0220558 -0.0258318 -0.00885474)
(0.0196204 -0.0327032 -0.00758072)
(0.0164054 -0.0375317 -0.00636222)
(0.0131205 -0.0387547 -0.00519102)
(0.00920234 -0.0372932 -0.00453162)
(0.00643757 -0.0317053 -0.00326135)
(0.00264622 -0.0256899 -0.00367901)
(-0.00307067 -0.0109767 -0.00157329)
(-0.00512281 -0.00324525 0.000587138)
(0.0207322 0.0173954 0.00364935)
(0.0222875 0.00207758 0.00308191)
(0.0105024 -0.00179272 -0.000640702)
(0.00993907 -0.00225523 -0.00103218)
(0.00572628 -0.00438703 -0.000723921)
(0.00557372 -0.00224292 0.000286144)
(0.00394625 -0.00202176 0.0017935)
(0.0032214 -0.000116209 0.00238898)
(0.00167921 0.00105071 0.00228878)
(0.00101225 0.00416907 0.00249648)
(0.00117395 0.00576147 0.00306424)
(0.0018136 0.00646675 0.00382739)
(0.00246435 0.00602764 0.0043022)
(0.00291587 0.0051872 0.0045332)
(0.00313994 0.00395593 0.00448324)
(0.00333037 0.00281922 0.00437443)
(0.00340364 0.00176186 0.00421793)
(0.00350106 0.000968392 0.00409481)
(0.0035585 0.000324124 0.0039888)
(0.00361269 -5.30512e-05 0.00387315)
(0.00366578 -0.000267485 0.00375396)
(0.00367423 -0.000346655 0.0037014)
(0.00364353 -0.00034604 0.00370715)
(0.00357711 -0.000293603 0.00376082)
(0.00348286 -0.000214529 0.00385285)
(0.00336961 -0.000131167 0.00397401)
(0.00324229 -5.8753e-05 0.0041152)
(0.00311268 -2.57727e-06 0.00425436)
(0.00300988 2.26325e-05 0.00434211)
(0.00291426 1.24174e-05 0.00442118)
(0.00281586 3.39974e-07 0.00449185)
(0.00271582 -5.12331e-06 0.00455993)
(0.00262016 4.11787e-06 0.00462727)
(0.00252509 1.0431e-05 0.00469268)
(0.00242695 4.16697e-05 0.00475893)
(0.00232195 5.11833e-05 0.00482519)
(0.00223552 0.000118596 0.00490312)
(0.00213079 7.16203e-05 0.00497602)
(0.00207038 0.00021405 0.00508148)
(0.00193019 -6.03075e-05 0.00514147)
(0.00192596 0.000297227 0.00530464)
(0.00170197 -0.000514727 0.00529713)
(0.00187985 0.000330905 0.00550884)
(0.00154469 -0.00151681 0.0053933)
(0.00182605 0.000752851 0.00552667)
(0.000993041 -0.00276032 0.00510566)
(0.00165593 0.00291692 0.00484946)
(0.000943112 -0.00225657 0.00409586)
(0.00238513 0.00757665 0.00358579)
(0.00302557 -0.00407855 0.00366486)
(0.00351143 0.00923683 0.00304748)
(0.00955412 -0.0142887 0.000925964)
(0.0092214 0.0115299 -0.00644953)
(0.00763454 0.00223351 -0.00234283)
(0.0217209 0.0373806 0.00817616)
(0.0202953 -0.0436247 0.00598779)
(0.00696323 0.0217473 -0.00992858)
(0.00722053 -0.00080058 -0.0524641)
(0.0561506 0.182325 -0.0709781)
(0.0919918 0.00871624 -0.04932)
(0.0623199 0.356697 0.0397895)
(0.0277096 0.40576 -0.00564489)
(0.0248342 -0.0796026 -0.0189123)
(0.011991 -0.0447835 0.0078255)
(-0.0107389 -0.0552674 0.00761236)
(-0.0220663 -0.0466664 -0.00161123)
(-0.0219426 -0.0243601 -0.00741997)
(-0.0224714 0.0120459 -0.0064754)
(-0.0198121 0.044449 -0.00836139)
(-0.00999379 0.0573947 -0.00848286)
(-0.00287542 0.0687922 -0.00621055)
(0.00505696 0.0782446 -0.00461597)
(0.0113972 0.086731 -0.00310972)
(0.0172384 0.0907977 -0.000990473)
(0.0223473 0.0902601 0.00114545)
(0.0261373 0.0859025 0.00196255)
(0.0281387 0.0814524 0.00113023)
(0.0294799 0.0770277 0.000768342)
(0.0316714 0.0722683 0.000391513)
(0.0337997 0.0666212 -0.00013741)
(0.0364012 0.0594282 -0.00036933)
(0.0389711 0.0506098 -0.000687069)
(0.0412639 0.0397788 -0.00116738)
(0.042751 0.0284452 -0.00152389)
(0.043382 0.0165059 -0.00160127)
(0.0429134 0.00521114 -0.00121088)
(0.041022 -0.00561301 -0.00042866)
(0.0379159 -0.016069 0.00073287)
(0.0315413 -0.0245761 0.00155473)
(0.0242936 -0.0314917 0.00174206)
(0.0171081 -0.0342494 0.00108769)
(0.0100088 -0.0336694 0.000457603)
(0.00376711 -0.0278509 -0.0002169)
(-0.00416991 -0.0195547 -0.0014502)
(-0.0111253 -0.00579922 -0.000805609)
(-0.0162708 -0.000836171 0.00243024)
(0.0242455 0.0173811 0.00452532)
(0.0258684 0.00775389 0.00443937)
(0.015034 0.00300726 0.00197865)
(0.0133259 0.00324955 0.00226564)
(0.00710328 -0.000783137 0.00325096)
(0.00501827 0.000731524 0.00322318)
(0.00187854 -0.000914909 0.00411795)
(0.000689292 0.000625858 0.00403326)
(-0.00121934 0.000982124 0.00372957)
(-0.001509 0.00383401 0.00374425)
(-0.000720119 0.00505934 0.00405925)
(0.000498184 0.00580591 0.00463598)
(0.00130994 0.00560086 0.00503354)
(0.00191047 0.00528038 0.00525179)
(0.00228533 0.00446542 0.00520459)
(0.00253481 0.00364001 0.00509228)
(0.00262164 0.00276336 0.00496277)
(0.00274108 0.0020674 0.00487951)
(0.0027803 0.00142841 0.00482921)
(0.00275785 0.000937245 0.00481959)
(0.00270105 0.000567442 0.00483789)
(0.00262179 0.000330187 0.0048763)
(0.00252488 0.000182138 0.00492536)
(0.00241036 0.000107281 0.00498623)
(0.00228244 7.82108e-05 0.00505365)
(0.00214688 7.63675e-05 0.00512333)
(0.00200765 8.51538e-05 0.00519474)
(0.00186722 9.10244e-05 0.00526541)
(0.00172279 9.48045e-05 0.00533627)
(0.00157477 0.000109146 0.00540279)
(0.00141539 0.000143138 0.00546659)
(0.00125888 0.000185003 0.00553176)
(0.00111749 0.000227393 0.00559899)
(0.000979929 0.000248163 0.0056661)
(0.000850025 0.000276306 0.00573644)
(0.000712293 0.000276853 0.00580448)
(0.000592867 0.000324272 0.00587249)
(0.000442178 0.000277906 0.0059325)
(0.000360308 0.000401221 0.00600701)
(0.000177742 0.000181563 0.00605357)
(0.000198953 0.000518173 0.00616698)
(-7.68124e-05 -0.000154194 0.00612118)
(0.000186051 0.000832706 0.00630837)
(-0.000335749 -0.000591188 0.00605619)
(0.000151641 0.00207222 0.0062414)
(-0.00121548 -0.00058797 0.00572081)
(-0.00050512 0.00497071 0.00540079)
(-0.00154521 -3.75745e-05 0.00525428)
(-1.61118e-05 0.0083139 0.00501201)
(0.00132794 -0.00306035 0.00601044)
(0.00626502 0.00816256 0.00703174)
(0.0106734 -0.0188558 0.0039009)
(0.00167788 0.0163081 -0.00231857)
(0.00446134 -0.00945636 0.00652433)
(0.0452913 0.0114122 0.0185088)
(0.0454767 -0.0560812 0.0118439)
(-0.00654253 0.00956835 0.0133319)
(-0.0466471 -0.0891493 -0.0173214)
(0.00279492 0.170628 -0.0919861)
(0.105209 0.00828062 -0.0353719)
(0.0886943 0.342359 0.0512374)
(0.0442106 0.410954 0.00954669)
(0.0357074 -0.0720851 -0.00943358)
(0.0142116 -0.0237915 0.0132931)
(-0.0205764 -0.0397846 0.0109284)
(-0.02862 -0.023995 0.00169348)
(-0.043073 0.00203651 -0.010718)
(-0.0406392 0.0406433 -0.012596)
(-0.0248458 0.0584815 -0.0115365)
(-0.0142086 0.0703396 -0.00752198)
(-0.00398291 0.0796453 -0.00357059)
(0.00455622 0.0877838 0.000322014)
(0.0116671 0.0939982 0.0037967)
(0.0172984 0.0968207 0.00765761)
(0.0217558 0.0949418 0.0106054)
(0.0256447 0.0911066 0.0120545)
(0.0285778 0.0883378 0.0103978)
(0.0299809 0.0859487 0.0092143)
(0.0326563 0.0834401 0.00837805)
(0.03621 0.080282 0.00776517)
(0.0407674 0.0751327 0.00757095)
(0.0456103 0.0672006 0.00743199)
(0.049716 0.0557759 0.00740646)
(0.0519708 0.0428747 0.00772179)
(0.0527817 0.0282945 0.00825643)
(0.0520417 0.0142198 0.00903332)
(0.0492489 0.000232881 0.00974132)
(0.0432038 -0.0133967 0.00952139)
(0.0343007 -0.0240947 0.00920862)
(0.0251418 -0.0337234 0.00975943)
(0.0158805 -0.0405176 0.0106881)
(0.00610181 -0.0417687 0.0108115)
(-0.0027615 -0.0379902 0.00949534)
(-0.00971313 -0.0286627 0.00355104)
(-0.0175504 -0.0108751 -0.000612038)
(-0.0252656 -0.000855183 0.00220073)
(0.025916 0.0187416 0.00438412)
(0.0278533 0.0119953 0.00429948)
(0.0170714 0.00682275 0.000699357)
(0.0150731 0.00780903 0.00118769)
(0.00790991 0.00289427 0.00308949)
(0.00536027 0.00343111 0.00352103)
(0.00136598 3.101e-05 0.004703)
(-0.000609979 0.000814213 0.00447128)
(-0.00319436 3.72367e-06 0.00427859)
(-0.00353238 0.00241083 0.00407849)
(-0.00240298 0.00329857 0.00434521)
(-0.000995257 0.00438527 0.00495704)
(-0.000116161 0.0047388 0.00534135)
(0.000560328 0.00494389 0.00557651)
(0.00100008 0.00453375 0.00552126)
(0.00128562 0.0039753 0.00541647)
(0.00134174 0.00321873 0.00530825)
(0.00141824 0.00259916 0.00525291)
(0.00143215 0.00200674 0.00521464)
(0.0013881 0.00151635 0.00519685)
(0.00128974 0.00108687 0.00518851)
(0.0011629 0.000755234 0.00520238)
(0.00101639 0.000501697 0.00523015)
(0.0008565 0.000326447 0.00527207)
(0.000693524 0.000214045 0.0053246)
(0.000535535 0.000153781 0.00538247)
(0.000385116 0.000131254 0.005441)
(0.000243248 0.000135297 0.00549432)
(0.000105951 0.000155571 0.00553926)
(-4.14144e-05 0.00018784 0.00557936)
(-0.000192956 0.000232075 0.00562289)
(-0.000332097 0.000276346 0.00567385)
(-0.000454047 0.000323837 0.00572945)
(-0.000574311 0.000363503 0.00578408)
(-0.000688773 0.000414606 0.00583245)
(-0.000808207 0.000431481 0.00587264)
(-0.000908516 0.000484333 0.00590857)
(-0.00103212 0.000442042 0.00593312)
(-0.0010838 0.000535961 0.00597084)
(-0.00123018 0.000349751 0.005989)
(-0.00120103 0.000666114 0.0060481)
(-0.00149985 0.000241821 0.00598826)
(-0.00128381 0.00133488 0.00601843)
(-0.00195073 0.000558061 0.00577643)
(-0.00163263 0.00330048 0.00561728)
(-0.00274482 0.00135756 0.00528107)
(-0.00239924 0.00598934 0.00466377)
(-0.00242399 0.000342971 0.0047455)
(-0.00128314 0.00735708 0.00478124)
(0.00075588 -0.00443238 0.00587689)
(0.00688043 0.00476251 0.00766845)
(0.00629256 -0.0121144 0.00391001)
(0.0064756 0.0161688 0.00345339)
(0.0169523 -0.0335332 0.0193149)
(0.0513691 -0.000559032 0.0179893)
(0.0419657 -0.0449214 0.0100621)
(-0.0127147 0.0326384 0.0187605)
(-0.070721 -0.107389 -0.00130185)
(0.0344595 0.206419 -0.125851)
(0.132359 -0.0179214 -0.00656312)
(0.0951587 0.390605 0.0414207)
(0.0297052 0.529985 -0.0019326)
(0.00223764 0.430543 -0.00972401)
(-0.027488 0.505904 0.0017699)
(-0.0440257 0.468286 -0.00613175)
(-0.0497127 0.512786 -0.0148959)
(-0.0425722 0.520578 -0.0156534)
(-0.0264089 0.54593 -0.00908042)
(-0.0161312 0.556317 -0.00597856)
(-0.00794878 0.571895 0.000191161)
(-0.000619257 0.577385 0.00392953)
(0.00445233 0.581273 0.00809428)
(0.00920964 0.587057 0.0118755)
(0.0118008 0.58472 0.0146885)
(0.0147693 0.574667 0.0170009)
(0.0165912 0.553426 0.0166887)
(0.0188476 0.516969 0.0142759)
(0.0204555 0.485929 0.0131138)
(0.023912 0.422538 0.0112448)
(0.0295223 0.109367 0.00982988)
(0.035215 0.0874649 0.0084646)
(0.0416716 0.083967 0.00672454)
(0.0485073 0.0765074 0.00499495)
(0.0527218 0.0643883 0.00471686)
(0.0531744 0.0480485 0.00555652)
(0.0516433 0.0319817 0.00698582)
(0.0482236 0.0141639 0.00851423)
(0.0411496 -0.00371005 0.0101026)
(0.0311474 -0.0210815 0.0106957)
(0.0203176 -0.0338687 0.0113838)
(0.00585304 -0.0447984 0.0139941)
(-0.00936124 -0.0486534 0.0167626)
(-0.0221793 -0.0461417 0.0175754)
(-0.0311789 -0.0373883 0.0103754)
(-0.0360719 -0.018412 0.00305954)
(-0.0371016 -0.00216284 -0.00026014)
(0.0270746 0.0211296 0.00407801)
(0.0292213 0.0165405 0.00348235)
(0.0193069 0.0111011 -0.000459434)
(0.0188748 0.0119275 -0.000978694)
(0.0103086 0.00508045 -0.000367582)
(0.00739796 0.00467175 0.000964935)
(0.00142675 -0.000235921 0.00323437)
(-0.00115422 0.000948704 0.00353947)
(-0.00453165 -0.0011792 0.00409325)
(-0.00544498 0.00108029 0.00406564)
(-0.00455197 0.00183196 0.00429602)
(-0.00340311 0.00327569 0.00493623)
(-0.00256036 0.00398889 0.00526727)
(-0.00168597 0.00452301 0.00556123)
(-0.00105898 0.00438607 0.00549024)
(-0.000732454 0.00396502 0.00539412)
(-0.000770963 0.00330751 0.00529325)
(-0.000846276 0.00276153 0.0052601)
(-0.000966613 0.00223605 0.00522022)
(-0.00109238 0.00177676 0.00518051)
(-0.00124535 0.00133627 0.00513868)
(-0.00139895 0.000965605 0.0051109)
(-0.00155269 0.000656197 0.00509932)
(-0.00171295 0.000421597 0.00510259)
(-0.00187929 0.000254692 0.00511431)
(-0.00203435 0.000151877 0.00513211)
(-0.00217269 0.000100603 0.00515342)
(-0.00229127 8.71285e-05 0.00517146)
(-0.00240033 9.97913e-05 0.00517694)
(-0.00251543 0.000133557 0.00517338)
(-0.00263787 0.000182661 0.00517447)
(-0.00275354 0.000232313 0.00517967)
(-0.0028554 0.000286241 0.00518799)
(-0.00295623 0.000333789 0.00519644)
(-0.00305377 0.000397709 0.0052026)
(-0.00315061 0.000431559 0.00519842)
(-0.00322317 0.000503294 0.00519328)
(-0.00332177 0.000482348 0.00517484)
(-0.00335048 0.000609031 0.00517254)
(-0.00350238 0.000525003 0.00512695)
(-0.00350746 0.00092867 0.00509856)
(-0.00385198 0.000811221 0.00496751)
(-0.00388567 0.0020359 0.00480314)
(-0.00447328 0.00176796 0.00450935)
(-0.0045513 0.00422174 0.00412329)
(-0.00477101 0.00228136 0.0039733)
(-0.0043785 0.00592246 0.0035385)
(-0.0036494 -0.000400148 0.00355767)
(-0.00376052 0.00572743 0.00346266)
(-0.00133383 -0.00426986 0.00473181)
(0.00228797 0.00315835 0.00631514)
(0.00611981 -0.00885628 0.00283143)
(0.0190302 0.00691907 0.0136752)
(0.0188615 -0.0309822 0.0295003)
(0.0263321 0.0228276 0.0326293)
(0.0107653 0.0153013 0.0302267)
(-0.00300792 0.0640606 0.0589155)
(-0.10196 -0.108014 0.0511008)
(0.0274494 0.163321 -0.15628)
(0.113057 -0.0103084 0.0276473)
(0.102019 0.400342 0.0406991)
(0.022895 0.586181 -0.0170213)
(-0.0014359 0.489675 -0.00980333)
(-0.03539 0.565189 -0.0109661)
(-0.0386115 0.539268 -0.0124032)
(-0.0465547 0.557771 -0.0146739)
(-0.0327491 0.555276 -0.0106931)
(-0.0247191 0.565446 -0.00463493)
(-0.01558 0.56742 -0.000253636)
(-0.0127392 0.561373 0.00331848)
(-0.00559438 0.571701 0.00882939)
(-0.00366053 0.568099 0.0117171)
(-0.00114255 0.592567 0.0155225)
(-0.000242368 0.605602 0.0184082)
(0.00153147 0.545939 0.0211173)
(0.00442836 0.546003 0.0206313)
(0.0064499 0.51396 0.0187408)
(0.0135105 0.542612 0.0144896)
(0.0189524 0.582363 0.0122932)
(0.0279297 0.568794 0.00933567)
(0.0364674 0.566197 0.00696202)
(0.0456477 0.545487 0.00384184)
(0.054392 0.473259 0.000575016)
(0.0589035 0.293488 -0.000952265)
(0.063031 0.325944 -0.00264397)
(0.0573642 0.477534 -0.00144509)
(0.0509645 0.393743 -0.000273105)
(0.0474144 0.03134 0.000325542)
(0.0327531 -0.00916014 0.000845714)
(0.017486 -0.0292563 0.0018938)
(-0.0016249 -0.0467299 0.00412239)
(-0.0246135 -0.0572552 0.0119572)
(-0.0420095 -0.0531014 0.0220068)
(-0.0504445 -0.0447071 0.0175134)
(-0.0543031 -0.027496 0.00408921)
(-0.0539046 -0.00718029 0.00117251)
(0.0269505 0.0233415 0.00662003)
(0.0307433 0.0209081 0.00407171)
(0.021494 0.0158717 0.000157623)
(0.0233768 0.0169208 -0.000965042)
(0.0158945 0.00848236 -0.00338957)
(0.0121912 0.0071928 -0.00206274)
(0.0028237 -0.000475145 -0.000391639)
(-0.0012673 0.00119492 0.000833625)
(-0.00546348 -0.00236966 0.00228096)
(-0.00750233 -0.000596552 0.0030569)
(-0.00640522 2.87265e-05 0.00345568)
(-0.00501026 0.00188349 0.00436955)
(-0.00374655 0.00302111 0.0048297)
(-0.00257383 0.00387229 0.00539165)
(-0.00168517 0.00386173 0.00552086)
(-0.00124628 0.00351702 0.00559056)
(-0.00135467 0.00288228 0.00550104)
(-0.00155224 0.00243749 0.00546228)
(-0.00176586 0.00206079 0.00539077)
(-0.00195818 0.00176831 0.00529952)
(-0.0021596 0.00146751 0.00517683)
(-0.00236235 0.00118469 0.00505683)
(-0.00256785 0.000925665 0.00494715)
(-0.00275733 0.00070797 0.00485096)
(-0.00292673 0.000548306 0.004765)
(-0.00306437 0.00045182 0.00468414)
(-0.00317462 0.000402441 0.0046074)
(-0.00325998 0.000387827 0.00453019)
(-0.00334313 0.000389561 0.0044533)
(-0.00344044 0.000399368 0.00438529)
(-0.00353658 0.000423194 0.00433549)
(-0.00361956 0.000456927 0.00429877)
(-0.00368624 0.000506893 0.00427019)
(-0.00375342 0.000564009 0.0042452)
(-0.00381288 0.000646645 0.00421953)
(-0.00386881 0.00070356 0.00418457)
(-0.00389252 0.000802321 0.00415347)
(-0.0039518 0.000820231 0.00410036)
(-0.00395164 0.00099355 0.00406224)
(-0.00409099 0.00100162 0.00397305)
(-0.00413575 0.00147368 0.00389277)
(-0.00451885 0.00153607 0.00368434)
(-0.00475636 0.00271342 0.00340606)
(-0.00504931 0.00232339 0.00313329)
(-0.00509011 0.00427621 0.00285047)
(-0.0043938 0.00157985 0.00316717)
(-0.00358074 0.00527017 0.00345322)
(-0.00227595 -0.00137626 0.0038239)
(-0.00295574 0.00561731 0.00413418)
(-0.00132343 -0.00516644 0.00573137)
(0.00151738 0.00509792 0.00925957)
(0.00381202 -0.0162895 0.00527569)
(0.0178754 0.0154569 0.0165045)
(0.00154903 -0.00886421 0.0396747)
(-0.0144817 0.0306274 0.062228)
(-0.00510644 -2.0863e-05 0.0562157)
(0.0452466 0.0653013 0.110892)
(-0.0981397 -0.100444 0.0551414)
(0.0415182 0.105079 -0.166743)
(0.0941776 -0.0053355 0.0396556)
(0.0899415 0.425895 0.0386113)
(0.0202383 0.613313 -0.0214312)
(0.00969383 0.534194 -0.00787717)
(-0.0232643 0.591044 -0.00950838)
(-0.0286279 0.579091 -0.00796893)
(-0.034662 0.586331 -0.00704276)
(-0.0274683 0.573363 -0.00247601)
(-0.0242357 0.57617 -9.38037e-05)
(-0.0185259 0.585766 0.00451854)
(-0.0163982 0.588761 0.00763804)
(-0.0128794 0.597455 0.0112909)
(-0.0119609 0.563113 0.0133156)
(-0.0114956 0.625778 0.0164067)
(-0.0110328 0.611481 0.0201138)
(-0.00990086 0.589395 0.021613)
(-0.00412934 0.580988 0.0201235)
(0.00169865 0.569562 0.0163938)
(0.0105914 0.567468 0.0130812)
(0.0162019 0.544069 0.0110156)
(0.0258473 0.518287 0.00700262)
(0.0337878 0.362946 0.00491192)
(0.0487514 0.562142 0.0015028)
(0.0590613 0.558398 -0.00154611)
(0.0685696 0.553878 -0.00478017)
(0.0723088 0.548788 -0.0071495)
(0.068718 0.535216 -0.00788977)
(0.0570195 0.525534 -0.00803626)
(0.0405959 0.501003 -0.0108056)
(0.0216882 0.474547 -0.0135787)
(-0.000504632 0.430102 -0.0149917)
(-0.0288949 0.283395 -0.014)
(-0.0377554 -0.0399583 -0.0168114)
(-0.0677077 -0.0632598 0.00978189)
(-0.0791244 -0.0502805 0.0221436)
(-0.0784942 -0.0338576 0.0146916)
(-0.0735061 -0.0110894 -0.00467278)
(0.0245184 0.0243459 0.00782456)
(0.0306181 0.0255604 0.00715746)
(0.0215314 0.0195163 0.00352926)
(0.0248681 0.0205425 0.00299341)
(0.0203405 0.0100888 -0.00156738)
(0.0179074 0.00935004 -0.00113627)
(0.00637475 -0.00102718 -0.00325939)
(0.000247608 0.0010335 -0.0013629)
(-0.00442347 -0.00256372 0.000493966)
(-0.0079607 -0.00141075 0.00182569)
(-0.00809072 -0.00151812 0.00240689)
(-0.00757373 0.000808125 0.00362641)
(-0.00662435 0.00208742 0.00433919)
(-0.00502722 0.00289942 0.00537678)
(-0.00386256 0.00296013 0.00595198)
(-0.00336281 0.00277771 0.0063565)
(-0.00366163 0.0022803 0.00635702)
(-0.00420485 0.00196218 0.00624822)
(-0.00467354 0.00174376 0.00606494)
(-0.00498738 0.00164611 0.00585834)
(-0.00519915 0.00155352 0.00561637)
(-0.00536539 0.00146834 0.00538583)
(-0.00549844 0.00137497 0.00517543)
(-0.00562604 0.00128888 0.00500339)
(-0.00576389 0.0012339 0.00487493)
(-0.00585793 0.00120299 0.0047427)
(-0.00590999 0.00118562 0.0046215)
(-0.00591313 0.00118244 0.00452444)
(-0.00589617 0.00117484 0.00445619)
(-0.00590184 0.0011598 0.00440968)
(-0.00593217 0.00115681 0.00438206)
(-0.00596345 0.00117065 0.0043663)
(-0.00598937 0.00120454 0.00435851)
(-0.00601805 0.0012582 0.00435435)
(-0.00602948 0.00134506 0.00435309)
(-0.00601814 0.00142639 0.0043479)
(-0.00599452 0.00153879 0.0043322)
(-0.00598473 0.00161946 0.00429174)
(-0.0059681 0.00181393 0.00425213)
(-0.00607075 0.00189552 0.00418289)
(-0.00620924 0.00235486 0.00410219)
(-0.00650722 0.00238593 0.00395543)
(-0.006765 0.00332722 0.00371128)
(-0.00661396 0.00238384 0.00353711)
(-0.00655341 0.00410051 0.00326319)
(-0.00564005 0.000649129 0.00335835)
(-0.0047438 0.0049813 0.00388023)
(-0.00390723 -0.00158476 0.0045514)
(-0.00421814 0.0065617 0.00505307)
(-0.00380038 -0.00466963 0.00647159)
(-0.0003196 0.00776948 0.0101759)
(-0.00375623 -0.0131478 0.00523893)
(0.00438859 0.0112837 0.00765888)
(-0.00106255 -0.00671737 0.00787466)
(-0.0217586 0.0068065 0.0326705)
(-0.0255855 -0.0499987 0.0458669)
(0.0309641 -0.0469624 0.115137)
(-0.0236719 -0.147506 0.143494)
(0.0308857 0.0256781 -0.109997)
(0.0562845 0.0153852 0.0518858)
(0.0548478 0.475104 0.0391513)
(0.00323253 0.607352 -0.0229786)
(0.00140458 0.534213 -0.00385544)
(-0.0198682 0.607545 -0.00471294)
(-0.0262328 0.619317 -0.00103051)
(-0.0297032 0.623881 0.000181563)
(-0.0269842 0.583281 0.00238022)
(-0.0246783 0.565341 0.003395)
(-0.0215371 0.615263 0.00585466)
(-0.0188521 0.60536 0.00799198)
(-0.0167962 0.544468 0.00934113)
(-0.0164466 0.500196 0.010864)
(-0.0161111 0.593734 0.0140787)
(-0.0145172 0.551966 0.016043)
(-0.0101392 0.590477 0.0175719)
(-0.000442952 0.523374 0.0158062)
(0.00695533 0.541138 0.0131146)
(0.0150892 0.540692 0.00996729)
(0.0230697 0.512463 0.00716691)
(0.0296394 0.489922 0.00404207)
(0.0336619 0.394331 0.00285185)
(0.0448659 0.518838 0.000491391)
(0.060635 0.519539 -0.00276654)
(0.0736601 0.527829 -0.00494375)
(0.0817388 0.530164 -0.00741811)
(0.0839178 0.521473 -0.00969566)
(0.0797529 0.532356 -0.0101882)
(0.0643414 0.508028 -0.0108142)
(0.0445093 0.484649 -0.0149829)
(0.0169527 0.459649 -0.0191475)
(-0.0174698 0.431869 -0.0207454)
(-0.0671472 0.399998 -0.0216539)
(-0.0988679 0.399708 -0.00491836)
(-0.104694 0.386759 0.00396248)
(-0.105887 0.425523 -0.000354012)
(-0.101002 0.433076 -0.00730474)
(0.0244396 0.0231742 0.00927778)
(0.0286395 0.0298624 0.00931501)
(0.0191023 0.0226472 0.00591493)
(0.0241139 0.0238436 0.00687773)
(0.0207715 0.0109043 0.00207454)
(0.0204159 0.0109429 0.00214636)
(0.00953287 -0.00111276 -0.00457884)
(-0.000352615 0.000177945 -0.00353544)
(-0.00510255 -0.00287165 -0.00103959)
(-0.00857664 -0.0011511 0.000653173)
(-0.0093823 -0.002314 0.00139566)
(-0.00910986 -0.000694545 0.00291346)
(-0.0068253 -0.000415587 0.00437334)
(-0.00479747 0.000203547 0.00585425)
(-0.00358852 0.000330316 0.00686668)
(-0.00319953 0.000710633 0.00774382)
(-0.00342713 0.000997089 0.00818701)
(-0.00391307 0.00130358 0.00828982)
(-0.00435495 0.00154769 0.00816861)
(-0.00466619 0.00180838 0.00794218)
(-0.00490245 0.00197358 0.00763613)
(-0.00508258 0.00204903 0.00733439)
(-0.00522263 0.00207003 0.00705734)
(-0.00534205 0.0020647 0.00681089)
(-0.00544883 0.00204173 0.00660211)
(-0.00550587 0.00201594 0.00643174)
(-0.00552497 0.00199049 0.00628147)
(-0.00549753 0.00195179 0.00616457)
(-0.00545279 0.00189023 0.00607668)
(-0.00542685 0.00183874 0.00602198)
(-0.00542277 0.00182016 0.00599289)
(-0.00541731 0.00183096 0.00597685)
(-0.00541616 0.00186839 0.00596267)
(-0.00543433 0.00193194 0.00593736)
(-0.00544441 0.00202981 0.00589687)
(-0.00542972 0.00212147 0.00583914)
(-0.0054147 0.00223583 0.00576653)
(-0.00539671 0.00233344 0.00567782)
(-0.00538457 0.00250828 0.00559747)
(-0.00546913 0.00257364 0.0054857)
(-0.00559467 0.0029175 0.00537633)
(-0.00573453 0.00275926 0.00522204)
(-0.00581345 0.00349333 0.00508165)
(-0.00531829 0.00204084 0.00496358)
(-0.00480861 0.0038219 0.00500362)
(-0.00396798 -0.000220825 0.00497889)
(-0.00241124 0.00466134 0.00554474)
(-0.00246988 -0.00164208 0.00580146)
(-0.0028837 0.007622 0.00575304)
(-0.00268812 -0.00450356 0.00644769)
(0.000103128 0.00938251 0.0101285)
(-0.000988933 -0.0103603 0.00559462)
(0.000178026 0.00209462 0.00830676)
(0.00886362 -0.0195891 0.0163547)
(0.00337953 -0.0107763 0.0252359)
(-0.00216895 -0.0655849 0.039359)
(0.0158829 -0.0624547 0.106502)
(0.0371395 -0.138751 0.133929)
(0.00947623 0.0080774 -0.100717)
(0.01244 0.0315136 0.061805)
(0.00501829 0.50691 0.0469446)
(-0.0120534 0.616382 -0.0156279)
(-0.0184272 0.576769 0.0022993)
(-0.0234107 0.618528 0.00137943)
(-0.0267813 0.617483 0.00329266)
(-0.026471 0.624142 0.00353721)
(-0.0239495 0.579924 0.00350993)
(-0.020704 0.595609 0.00384544)
(-0.0177683 0.564162 0.00427541)
(-0.0139563 0.577433 0.00465363)
(-0.0128709 0.572832 0.00452281)
(-0.0127437 0.575427 0.00476419)
(-0.0114365 0.555164 0.00606534)
(-0.00711093 0.537916 0.00708172)
(0.00169125 0.492369 0.00689887)
(0.00690366 0.452054 0.00529359)
(0.0187648 0.47934 0.00297682)
(0.0276143 0.490102 0.00250289)
(0.0348145 0.483515 0.00332959)
(0.0388204 0.484538 0.00376233)
(0.0425295 0.478588 0.00334003)
(0.0490963 0.483685 0.00054909)
(0.0570301 0.489318 -0.00341681)
(0.0702663 0.495978 -0.0041877)
(0.0849931 0.528734 -0.00222071)
(0.0933725 0.53301 -0.00160707)
(0.096681 0.522258 0.00322238)
(0.0920046 0.502744 0.00662768)
(0.0840122 0.433715 0.00464099)
(0.0703449 0.332986 -0.00403277)
(0.0687556 0.0170619 -0.000979996)
(0.019251 -0.0091947 -0.012859)
(-0.075228 -0.0277494 -0.01669)
(-0.108678 0.00757547 0.00206381)
(-0.129047 0.300988 -0.0107658)
(-0.126404 0.0175806 -0.025954)
(0.0062363 0.0226395 -0.0012995)
(0.0256198 0.0309072 0.00807939)
(0.0145773 0.0260236 0.00486119)
(0.0219372 0.0293171 0.00677538)
(0.0185831 0.0140808 0.00348188)
(0.0195439 0.0130626 0.00487673)
(0.0133204 -3.22028e-06 -0.00343398)
(0.00223082 0.000422316 -0.00827925)
(-0.00511746 -0.00282288 -0.00613931)
(-0.00796473 -0.000418922 -0.00379632)
(-0.00903116 -0.00261654 -0.00259278)
(-0.00921304 -0.00198865 -0.00126042)
(-0.00863183 -0.00280202 0.000226358)
(-0.00762609 -0.00220925 0.00182848)
(-0.00716378 -0.00166429 0.00302608)
(-0.00727306 -0.000681607 0.00408374)
(-0.00786405 0.000146128 0.00490109)
(-0.00848046 0.000869614 0.00538319)
(-0.00900907 0.0014022 0.0055397)
(-0.0093006 0.00182659 0.00549724)
(-0.00928251 0.00210081 0.00535027)
(-0.00923537 0.00227623 0.00517986)
(-0.00917887 0.00237247 0.0050127)
(-0.0091206 0.00241887 0.00485671)
(-0.00905723 0.00242533 0.00471459)
(-0.00896526 0.00240729 0.00458871)
(-0.0088562 0.00237836 0.00447305)
(-0.0087093 0.00233902 0.0043742)
(-0.00858384 0.00228592 0.00428851)
(-0.00855011 0.00223995 0.00422465)
(-0.00855422 0.00221805 0.00418305)
(-0.00855251 0.00222171 0.00415574)
(-0.00854549 0.00224739 0.0041355)
(-0.00853987 0.00230354 0.00410824)
(-0.00850302 0.00239154 0.00406104)
(-0.00842585 0.00247135 0.00398946)
(-0.00836538 0.00256917 0.00389758)
(-0.00829264 0.00266301 0.00378945)
(-0.00824784 0.00285324 0.0036832)
(-0.00824205 0.00298517 0.00356046)
(-0.00838185 0.00333203 0.00344801)
(-0.00840861 0.00303217 0.0033095)
(-0.00843684 0.00361308 0.00321886)
(-0.00791496 0.00178509 0.00303987)
(-0.00731593 0.00362235 0.00305558)
(-0.00707855 -0.000352382 0.00272877)
(-0.00620786 0.00478814 0.00250667)
(-0.00751216 -6.91557e-05 0.00237836)
(-0.00687585 0.00898165 0.0019483)
(-0.00578256 -0.00164136 0.00331226)
(-0.00179 0.0129416 0.00686803)
(0.00733093 -0.0114885 0.00771194)
(0.00743285 0.000387608 0.0228104)
(0.0224005 -0.0299436 0.0327072)
(-0.00493018 0.00124703 0.0299579)
(-0.0147162 -0.0399472 0.0282752)
(-0.0203511 -0.0278177 0.0937782)
(0.0130878 -0.132027 0.121366)
(-0.0229891 0.0440352 -0.119413)
(-0.0296621 0.0231165 0.053931)
(-0.0457352 0.485417 0.0455494)
(-0.0344991 0.595814 -0.0181271)
(-0.0396794 0.549633 0.0026262)
(-0.0258613 0.53942 -0.000493961)
(-0.0268519 0.572943 0.00220893)
(-0.0168686 0.556417 0.00119712)
(-0.0143138 0.546829 0.000549638)
(-0.00963829 0.556701 -0.000138211)
(-0.00753399 0.538607 -0.000328437)
(-0.00406277 0.5215 -0.000167514)
(-0.00306159 0.45881 0.000152742)