/*--------------------------------*- C++ -*----------------------------------*\
| =========                 |                                                 |
| \\      /  F ield         | OpenFOAM: The Open Source CFD Toolbox           |
|  \\    /   O peration     | Version:  2.3.0                                 |
|   \\  /    A nd           | Web:      www.OpenFOAM.org                      |
|    \\/     M anipulation  |                                                 |
\*---------------------------------------------------------------------------*/
FoamFile
{
    version     2.0;
    format      ascii;
    class       volVectorField;
    location    "38";
    object      Ur;
}
// * * * * * * * * * * * * * * * * * * * * * * * * * * * * * * * * * * * * * //

dimensions      [0 1 -1 0 0 0 0];

internalField   nonuniform List<vector> 
6144
(
(-2.25576e-07 0.000323945 6.72137e-08)
(-3.25848e-07 0.000347195 2.42425e-08)
(-2.24021e-07 0.00037162 2.00246e-08)
(-2.4286e-07 0.000390905 -3.22018e-09)
(-2.68554e-07 0.000412213 -1.53301e-08)
(-2.98459e-07 0.000439655 -3.28472e-08)
(-3.29684e-07 0.000476215 -5.54533e-08)
(-3.53334e-07 0.000517825 -6.16777e-08)
(-3.56216e-07 0.000546868 -5.36335e-08)
(-3.42534e-07 0.000556443 -6.71442e-08)
(-3.22196e-07 0.00055805 -7.13951e-08)
(-2.98832e-07 0.000559099 -4.63625e-08)
(-2.7192e-07 0.00056007 -3.26538e-08)
(-2.37581e-07 0.000560927 -2.00319e-08)
(-2.02269e-07 0.000561656 -1.66573e-08)
(-1.68852e-07 0.000562269 -1.83242e-08)
(-1.45531e-07 0.000562772 -2.43023e-08)
(-1.1978e-07 0.000563203 -2.64331e-08)
(-1.05476e-07 0.00056356 -3.17872e-08)
(-8.48832e-08 0.000563851 -3.16833e-08)
(-7.62088e-08 0.000564082 -3.64891e-08)
(-5.87583e-08 0.000564259 -3.35114e-08)
(-5.36954e-08 0.000564386 -3.35109e-08)
(-3.82744e-08 0.000564465 -2.69808e-08)
(-3.52736e-08 0.000564497 -2.45026e-08)
(-2.12182e-08 0.000564486 -1.74502e-08)
(-1.94701e-08 0.000564437 -1.51192e-08)
(-6.09413e-09 0.000564361 -7.7621e-09)
(-5.00303e-09 0.000564255 -6.45091e-09)
(7.49144e-09 0.000564118 -1.81872e-10)
(8.31284e-09 0.000563952 2.10941e-10)
(2.12864e-08 0.000563757 5.99605e-09)
(2.27783e-08 0.000563535 6.6938e-09)
(3.63573e-08 0.000563287 1.26132e-08)
(3.86152e-08 0.000563011 1.34858e-08)
(5.27403e-08 0.000562707 1.96245e-08)
(5.5356e-08 0.000562372 2.07043e-08)
(6.98787e-08 0.000561996 2.64437e-08)
(7.46042e-08 0.000561599 3.07034e-08)
(8.78514e-08 0.000561108 2.94055e-08)
(1.05028e-07 0.00056068 4.6331e-08)
(9.86145e-08 0.000560074 2.94503e-08)
(1.35015e-07 0.000559587 4.05772e-08)
(1.46681e-07 0.000558928 4.41368e-08)
(1.62712e-07 0.000558386 1.91374e-08)
(2.05364e-07 0.000557655 4.03799e-08)
(2.01305e-07 0.000556977 -1.1981e-08)
(2.38384e-07 0.00055659 3.52158e-08)
(1.5234e-07 0.00056432 -1.05001e-08)
(2.76163e-07 0.000598414 -1.08259e-07)
(2.03646e-07 0.000688393 -1.90865e-07)
(5.74013e-07 0.000897726 -5.2122e-07)
(1.3634e-06 0.00143321 -1.75254e-06)
(-1.80305e-07 0.00223211 -2.71075e-06)
(-1.25039e-05 0.00280325 -1.32644e-05)
(-2.71788e-05 0.00298011 -3.34525e-05)
(5.07055e-05 0.00408438 2.39899e-05)
(7.42506e-06 0.00558321 2.71677e-05)
(0.00160091 0.0177784 0.00167566)
(0.0153346 0.131781 0.016666)
(-0.00461601 0.580878 -0.00284381)
(-0.0140192 0.41193 -0.0147246)
(-0.000177806 0.0210406 -0.000169896)
(-1.44623e-05 0.00674528 4.48922e-05)
(-4.16511e-05 0.00687513 -9.81271e-07)
(-2.6015e-05 0.00696138 -1.04626e-05)
(-1.67486e-05 0.00720748 -1.11783e-05)
(-7.57979e-06 0.00737504 -7.96339e-06)
(-3.40479e-06 0.00729009 3.27288e-06)
(-7.21465e-06 0.00713637 -1.17843e-06)
(-8.77378e-06 0.00705657 -1.33447e-06)
(-1.07345e-05 0.00703062 -8.57079e-08)
(-1.25056e-05 0.00711167 -1.20557e-06)
(-1.50448e-05 0.00733585 -2.67594e-06)
(-1.6281e-05 0.00764862 -3.59872e-06)
(-1.55085e-05 0.00797739 -3.29214e-06)
(-1.6847e-05 0.0083135 -3.52643e-06)
(-1.92479e-05 0.00867086 -4.41036e-06)
(-2.18816e-05 0.00903374 -6.01344e-06)
(-2.38852e-05 0.00936243 -8.03043e-06)
(-2.51611e-05 0.00961702 -1.07601e-05)
(-2.52693e-05 0.00975686 -1.40584e-05)
(-2.49964e-05 0.0097516 -2.12509e-05)
(-2.40962e-05 0.00961709 -3.12698e-05)
(-2.06723e-05 0.00941923 -3.23818e-05)
(-1.58019e-05 0.00922678 -2.73469e-05)
(-1.27616e-05 0.00905785 -2.54006e-05)
(-1.14904e-05 0.0089 -2.25639e-05)
(-1.3373e-05 0.00877591 -1.88666e-05)
(-1.72355e-05 0.00869363 -1.44955e-05)
(-2.27862e-05 0.00858007 -1.05137e-05)
(-2.61981e-05 0.00834555 -6.58151e-06)
(-2.71414e-05 0.00797195 -3.79075e-06)
(-2.61723e-05 0.00741684 -1.59006e-06)
(-2.46595e-05 0.00643632 1.09905e-06)
(-2.27948e-05 0.0053607 1.82892e-06)
(-2.12372e-07 0.000306621 3.02884e-07)
(-4.26666e-07 0.000344931 2.20274e-07)
(-5.62481e-07 0.00038476 9.81304e-08)
(-6.77382e-07 0.000412129 3.37591e-08)
(-8.0688e-07 0.000436418 7.90774e-09)
(-8.77403e-07 0.000460333 1.82525e-09)
(-9.94867e-07 0.000487953 -8.20724e-09)
(-1.04073e-06 0.000521599 1.09753e-08)
(-1.05694e-06 0.00054771 1.66296e-08)
(-1.03421e-06 0.000556722 3.25159e-08)
(-9.72126e-07 0.000557923 3.57515e-08)
(-8.9437e-07 0.00055895 7.07329e-08)
(-7.98974e-07 0.000560143 9.98871e-08)
(-6.92684e-07 0.00056122 1.14223e-07)
(-5.83235e-07 0.000562022 1.16009e-07)
(-4.87647e-07 0.000562628 1.06713e-07)
(-4.07832e-07 0.000563113 1.04109e-07)
(-3.3975e-07 0.000563521 9.53474e-08)
(-2.85392e-07 0.000563859 9.64344e-08)
(-2.36174e-07 0.000564134 8.98562e-08)
(-2.02295e-07 0.000564351 9.46095e-08)
(-1.69207e-07 0.000564518 9.06815e-08)
(-1.48718e-07 0.000564638 9.94287e-08)
(-1.25654e-07 0.000564711 9.83258e-08)
(-1.12787e-07 0.000564745 1.09133e-07)
(-9.56396e-08 0.000564742 1.09427e-07)
(-8.73298e-08 0.000564708 1.21345e-07)
(-7.32857e-08 0.000564643 1.21374e-07)
(-6.72814e-08 0.000564546 1.32619e-07)
(-5.40812e-08 0.000564415 1.32088e-07)
(-4.644e-08 0.000564257 1.42142e-07)
(-3.05071e-08 0.000564072 1.40651e-07)
(-2.04636e-08 0.000563862 1.50082e-07)
(-2.87528e-09 0.000563625 1.48048e-07)
(8.58489e-09 0.00056336 1.57139e-07)
(2.72828e-08 0.000563063 1.55339e-07)
(3.99335e-08 0.000562738 1.65077e-07)
(5.88911e-08 0.000562372 1.63025e-07)
(7.86412e-08 0.000561989 1.77092e-07)
(9.11148e-08 0.000561521 1.66061e-07)
(1.39077e-07 0.000561104 1.90881e-07)
(1.28589e-07 0.000560523 1.70001e-07)
(2.10437e-07 0.000560084 1.89102e-07)
(2.25356e-07 0.000559374 1.7411e-07)
(3.21033e-07 0.000558902 1.78275e-07)
(3.81171e-07 0.000558061 1.63788e-07)
(4.77419e-07 0.000557506 1.4225e-07)
(5.96493e-07 0.000557964 1.85094e-07)
(4.94698e-07 0.000575498 2.1376e-07)
(8.39735e-07 0.000635441 5.16623e-08)
(8.21874e-07 0.000773012 5.3816e-08)
(1.50263e-06 0.00102602 -8.94681e-08)
(1.76388e-06 0.00146539 -1.63689e-06)
(7.92341e-08 0.00204046 -3.83041e-06)
(-1.40937e-05 0.00253212 -5.44702e-06)
(-6.25198e-06 0.00288134 -1.34683e-05)
(1.9865e-05 0.00433321 5.49312e-06)
(-0.00015683 0.00790303 -3.86574e-05)
(-0.000461872 0.0263168 0.00192191)
(-0.000369517 0.136552 0.0134482)
(-0.0280786 0.571693 -0.00863691)
(-0.0242319 0.39886 -0.0197503)
(-0.000210925 0.0210454 -0.000275498)
(-2.03059e-05 0.006775 0.000107445)
(-9.47155e-05 0.00682318 9.07552e-06)
(-3.40347e-05 0.00700128 -6.61993e-06)
(-2.96515e-05 0.00727765 -7.68537e-06)
(-3.19989e-05 0.00738455 -4.65466e-06)
(-2.77781e-05 0.00723085 3.48305e-07)
(-3.11416e-05 0.00711823 -3.99613e-06)
(-3.20352e-05 0.00717305 -5.30933e-06)
(-3.12794e-05 0.00743435 -4.7452e-06)
(-3.0096e-05 0.00789557 -7.18555e-06)
(-2.91454e-05 0.00836828 -1.14193e-05)
(-2.63419e-05 0.00873849 -1.23532e-05)
(-2.34032e-05 0.00905936 -9.91221e-06)
(-2.53852e-05 0.0094226 -8.38939e-06)
(-3.01474e-05 0.00981185 -9.30096e-06)
(-3.43092e-05 0.0101042 -1.11636e-05)
(-3.63728e-05 0.0102415 -1.33184e-05)
(-3.64487e-05 0.010245 -1.58294e-05)
(-3.33317e-05 0.0101028 -1.88011e-05)
(-2.64665e-05 0.00982205 -2.21117e-05)
(-1.60449e-05 0.00949687 -2.4819e-05)
(-4.90577e-06 0.00922039 -2.71004e-05)
(5.44128e-06 0.00902297 -2.75936e-05)
(1.17531e-05 0.00885786 -2.71202e-05)
(1.29203e-05 0.00864655 -2.41921e-05)
(5.42978e-06 0.00842743 -1.9368e-05)
(-1.41025e-05 0.00832831 -1.56952e-05)
(-4.10546e-05 0.00835436 -1.3158e-05)
(-6.19257e-05 0.00834034 -1.01048e-05)
(-7.16989e-05 0.00809155 -6.30415e-06)
(-7.19219e-05 0.00740637 -2.46022e-06)
(-6.76424e-05 0.00626391 7.94004e-07)
(-6.27612e-05 0.0052713 2.25915e-06)
(-3.74576e-07 0.000286264 7.34865e-07)
(-6.4938e-07 0.000328712 4.93889e-07)
(-1.01926e-06 0.000380251 2.30611e-07)
(-1.22551e-06 0.000415535 1.24259e-07)
(-1.44189e-06 0.000441909 9.72735e-08)
(-1.60664e-06 0.000465782 5.65926e-08)
(-1.77912e-06 0.000491107 8.47273e-08)
(-1.83402e-06 0.000519796 8.45554e-08)
(-1.8001e-06 0.000542781 7.78786e-08)
(-1.72489e-06 0.000552889 7.93329e-08)
(-1.58907e-06 0.000555653 7.9879e-08)
(-1.45194e-06 0.000557738 9.74094e-08)
(-1.29781e-06 0.000559702 1.18101e-07)
(-1.13995e-06 0.000561139 1.30735e-07)
(-9.93911e-07 0.000562094 1.29191e-07)
(-8.61842e-07 0.000562737 1.25251e-07)
(-7.5485e-07 0.000563219 1.21992e-07)
(-6.62657e-07 0.000563616 1.23726e-07)
(-5.9201e-07 0.000563945 1.25761e-07)
(-5.25676e-07 0.000564213 1.3197e-07)
(-4.80393e-07 0.000564424 1.36186e-07)
(-4.36513e-07 0.000564585 1.43379e-07)
(-4.1224e-07 0.000564698 1.48002e-07)
(-3.8439e-07 0.000564768 1.55125e-07)
(-3.72587e-07 0.000564797 1.59232e-07)
(-3.53674e-07 0.00056479 1.65576e-07)
(-3.48102e-07 0.000564751 1.68725e-07)
(-3.32987e-07 0.000564681 1.7427e-07)
(-3.28742e-07 0.000564581 1.76505e-07)
(-3.11833e-07 0.000564451 1.81192e-07)
(-3.03586e-07 0.000564294 1.82904e-07)
(-2.82628e-07 0.000564109 1.87424e-07)
(-2.712e-07 0.000563899 1.88868e-07)
(-2.47761e-07 0.000563661 1.93071e-07)
(-2.33256e-07 0.000563393 1.94688e-07)
(-2.07169e-07 0.000563094 1.99034e-07)
(-1.90284e-07 0.000562759 2.00277e-07)
(-1.6233e-07 0.000562383 2.04028e-07)
(-1.35466e-07 0.000561994 2.06832e-07)
(-1.10401e-07 0.000561538 2.04473e-07)
(-4.91529e-08 0.00056112 2.17096e-07)
(-3.16287e-08 0.00056056 1.99157e-07)
(7.52036e-08 0.000560126 2.22932e-07)
(1.11255e-07 0.000559438 2.01219e-07)
(2.74971e-07 0.000558935 2.13546e-07)
(3.72906e-07 0.000558139 2.15032e-07)
(5.34191e-07 0.000557998 2.00284e-07)
(7.85673e-07 0.000562064 2.881e-07)
(7.75881e-07 0.000594874 4.18371e-07)
(1.40822e-06 0.000691185 2.01397e-07)
(1.98597e-06 0.000873579 5.4311e-07)
(3.84781e-06 0.00114675 2.53653e-07)
(2.31949e-06 0.00150628 -1.3039e-06)
(-4.8519e-06 0.00203725 -5.25728e-06)
(6.14907e-06 0.00280859 2.99175e-06)
(4.56029e-05 0.00315013 -7.75827e-06)
(-2.22644e-05 0.00386956 2.26662e-05)
(-0.000210923 0.00529094 3.32949e-06)
(-0.00206592 0.0206757 0.00106257)
(-0.00023143 0.127783 0.0117001)
(-0.0310326 0.560524 -0.00452139)
(-0.0278726 0.392379 -0.0161709)
(-0.00061771 0.0215412 -0.0011933)
(-0.000183179 0.0066845 8.44955e-05)
(-0.000448644 0.00678847 -1.96635e-05)
(-0.000116558 0.00683822 -0.00013176)
(-0.000204202 0.00698436 -1.90167e-05)
(-0.0002031 0.00774884 3.45669e-06)
(-0.000201426 0.00896235 -0.000116212)
(-0.000184263 0.0102788 -0.000142141)
(-0.000166276 0.0110224 -0.000154034)
(-0.000135796 0.0111567 -1.00217e-05)
(-0.000114606 0.0108048 -0.00015085)
(-9.08666e-05 0.0104204 -0.000146067)
(-7.59716e-05 0.0102714 -0.000149181)
(-7.84691e-05 0.0100413 -3.42136e-06)
(-0.000100439 0.0100963 -4.79963e-06)
(-0.000127984 0.0102875 -7.33616e-06)
(-0.000153996 0.0103951 -1.1002e-05)
(-3.11375e-05 0.0103057 -8.1632e-06)
(-2.93355e-05 0.0102538 -8.27105e-06)
(-2.02071e-05 0.0100379 -8.17337e-06)
(-3.65535e-06 0.00972122 -1.03652e-05)
(1.57945e-05 0.00942961 -1.3807e-05)
(3.88863e-05 0.00920303 -1.65791e-05)
(6.08041e-05 0.00903744 -1.65075e-05)
(7.46213e-05 0.00890696 -1.53282e-05)
(7.30194e-05 0.00870895 -1.43134e-05)
(5.07855e-05 0.00837118 -1.42679e-05)
(3.97286e-06 0.00804126 -1.35256e-05)
(-5.64694e-05 0.00794509 -1.36546e-05)
(-0.000103494 0.00803528 -1.23295e-05)
(-0.000123169 0.00807003 -1.12438e-05)
(-0.00012404 0.00767537 -9.45177e-06)
(-0.000113799 0.00654178 -4.05754e-06)
(-0.000101936 0.00535851 2.69575e-07)
(-6.49226e-07 0.000268192 4.51349e-07)
(-1.08082e-06 0.000306238 4.67202e-07)
(-1.65664e-06 0.000357146 2.67466e-07)
(-1.92058e-06 0.00039846 2.22854e-07)
(-2.25415e-06 0.000431386 1.79583e-07)
(-2.47619e-06 0.000457771 1.31892e-07)
(-2.63795e-06 0.000483334 1.21202e-07)
(-2.61345e-06 0.0005127 1.21989e-07)
(-2.48633e-06 0.000537654 1.00937e-07)
(-2.30074e-06 0.000550122 8.77434e-08)
(-2.09082e-06 0.000554328 8.32763e-08)
(-1.87455e-06 0.000557178 9.74758e-08)
(-1.6635e-06 0.00055957 1.11212e-07)
(-1.47273e-06 0.000561138 1.2128e-07)
(-1.30203e-06 0.000562108 1.23993e-07)
(-1.16826e-06 0.000562739 1.15046e-07)
(-1.05259e-06 0.000563205 1.20482e-07)
(-9.68776e-07 0.000563583 1.15434e-07)
(-8.92822e-07 0.000563899 1.29014e-07)
(-8.36256e-07 0.000564157 1.26482e-07)
(-7.81615e-07 0.000564359 1.41067e-07)
(-7.4617e-07 0.000564507 1.37145e-07)
(-7.10181e-07 0.000564609 1.53149e-07)
(-6.89798e-07 0.000564666 1.48283e-07)
(-6.64478e-07 0.000564683 1.63391e-07)
(-6.51665e-07 0.000564666 1.56879e-07)
(-6.30834e-07 0.00056462 1.70655e-07)
(-6.20283e-07 0.000564544 1.62533e-07)
(-5.99117e-07 0.000564441 1.74736e-07)
(-5.85778e-07 0.000564311 1.65791e-07)
(-5.60087e-07 0.000564156 1.78174e-07)
(-5.42169e-07 0.000563976 1.69679e-07)
(-5.12337e-07 0.000563772 1.82013e-07)
(-4.904e-07 0.000563541 1.73284e-07)
(-4.56051e-07 0.000563281 1.84831e-07)
(-4.30587e-07 0.000562989 1.75527e-07)
(-3.93363e-07 0.000562666 1.86645e-07)
(-3.64133e-07 0.000562307 1.77047e-07)
(-3.16806e-07 0.000561927 1.88939e-07)
(-2.77613e-07 0.000561495 1.76181e-07)
(-1.91565e-07 0.000561075 1.93438e-07)
(-1.4957e-07 0.000560543 1.71131e-07)
(1.44737e-09 0.000560097 1.98494e-07)
(5.13898e-08 0.000559452 1.78365e-07)
(2.5653e-07 0.000559004 2.01639e-07)
(3.81663e-07 0.00055818 2.22077e-07)
(5.99113e-07 0.000558702 2.46572e-07)
(9.61515e-07 0.000564934 2.82084e-07)
(1.20543e-06 0.000606775 5.67016e-07)
(1.95403e-06 0.000732426 3.38075e-07)
(3.81921e-06 0.000951176 9.43361e-07)
(6.24622e-06 0.00118838 -1.12301e-06)
(8.39494e-06 0.00152901 -7.79764e-08)
(4.76089e-06 0.00222213 1.05974e-06)
(3.6024e-05 0.00313224 -5.7477e-06)
(6.27807e-05 0.00335335 -3.50024e-05)
(-1.44911e-05 0.00378285 7.72354e-06)
(-0.000224088 0.00412787 1.92518e-05)
(-0.00202106 0.0222063 0.000766842)
(0.0026994 0.134595 0.0128075)
(-0.0453805 0.610104 -0.0146593)
(-0.0415291 0.477374 -0.0147083)
(-0.0318273 0.513936 0.00421046)
(-0.0193226 0.480572 -0.00479003)
(-0.00381962 0.497317 -0.00532667)
(0.000946547 0.488915 -0.00272358)
(0.0099793 0.486431 0.00312556)
(0.00954642 0.490449 0.00398694)
(0.00690034 0.495382 0.00387214)
(0.00561314 0.501145 0.00384041)
(0.00466748 0.500977 0.00326776)
(0.00323679 0.497844 0.00289826)
(0.00281869 0.498489 0.00261437)
(0.00194561 0.493686 0.00146754)
(0.00163613 0.484769 0.000261878)
(0.000838535 0.466414 -0.00122655)
(0.000216192 0.431872 -0.0014206)
(-0.00044106 0.402473 -0.000280404)
(-0.00069169 0.340843 -0.000310357)
(-0.000236184 0.0301814 1.61899e-05)
(-0.00027933 0.0111064 -2.35167e-05)
(-0.000257252 0.0117384 -2.99441e-05)
(-0.000209148 0.0108363 -4.05945e-05)
(-0.00015148 0.00980527 8.33372e-06)
(-6.12266e-05 0.00964444 -5.12337e-06)
(1.11244e-05 0.00989566 -4.42845e-06)
(4.95702e-05 0.00950729 -5.25489e-06)
(0.000121396 0.00876553 1.1104e-06)
(9.0338e-05 0.00833394 -3.41048e-07)
(9.06248e-06 0.0077629 -6.23405e-06)
(-0.00010345 0.00742822 -1.65492e-05)
(-0.000186065 0.00753404 -2.04742e-05)
(-0.000208725 0.00778486 -1.97171e-05)
(-0.000192611 0.0077171 -1.67648e-05)
(-0.000163058 0.00682279 -1.26008e-05)
(-0.000136175 0.00554204 -5.6264e-06)
(-8.19485e-07 0.000247751 3.05561e-07)
(-1.63348e-06 0.000280085 4.06654e-07)
(-2.52427e-06 0.000327522 2.40946e-07)
(-2.80641e-06 0.000371238 1.96286e-07)
(-3.18125e-06 0.000411011 1.66583e-07)
(-3.35648e-06 0.000444919 7.48019e-08)
(-3.40691e-06 0.000474584 9.44447e-08)
(-3.23852e-06 0.000504869 7.03648e-08)
(-3.00711e-06 0.000531933 8.07926e-08)
(-2.71223e-06 0.000547839 6.4659e-08)
(-2.42783e-06 0.000553936 7.18846e-08)
(-2.1417e-06 0.000557425 8.9434e-08)
(-1.89457e-06 0.000559946 9.07938e-08)
(-1.67513e-06 0.000561467 1.10095e-07)
(-1.5049e-06 0.00056238 1.0277e-07)
(-1.37001e-06 0.00056298 1.10148e-07)
(-1.27391e-06 0.000563428 9.99218e-08)
(-1.19671e-06 0.000563798 1.12272e-07)
(-1.14463e-06 0.000564106 1.04543e-07)
(-1.09341e-06 0.000564358 1.17571e-07)
(-1.06041e-06 0.000564556 1.08694e-07)
(-1.02328e-06 0.000564705 1.22974e-07)
(-9.98637e-07 0.000564805 1.13833e-07)
(-9.65815e-07 0.00056486 1.28213e-07)
(-9.44503e-07 0.000564876 1.18267e-07)
(-9.12874e-07 0.000564855 1.32078e-07)
(-8.91206e-07 0.000564803 1.21339e-07)
(-8.58381e-07 0.000564721 1.34311e-07)
(-8.3514e-07 0.00056461 1.22377e-07)
(-7.99438e-07 0.000564471 1.34428e-07)
(-7.71762e-07 0.000564305 1.22743e-07)
(-7.30723e-07 0.000564113 1.35078e-07)
(-6.97546e-07 0.000563896 1.23272e-07)
(-6.51086e-07 0.000563654 1.35718e-07)
(-6.13319e-07 0.000563383 1.24766e-07)
(-5.63501e-07 0.000563082 1.37436e-07)
(-5.2327e-07 0.000562753 1.26447e-07)
(-4.69524e-07 0.000562391 1.38949e-07)
(-4.18952e-07 0.000562011 1.29588e-07)
(-3.50358e-07 0.000561595 1.39759e-07)
(-2.63709e-07 0.000561176 1.34987e-07)
(-1.81589e-07 0.000560685 1.41451e-07)
(-4.38382e-08 0.00056026 1.42898e-07)
(4.00161e-08 0.000559669 1.59151e-07)
(2.26312e-07 0.000559274 1.63307e-07)
(4.05699e-07 0.000558444 2.07165e-07)
(7.22766e-07 0.000559391 2.21598e-07)
(1.14452e-06 0.000568354 2.19326e-07)
(1.9438e-06 0.000621723 5.94993e-07)
(2.85771e-06 0.000765432 6.64659e-07)
(5.41206e-06 0.000990738 1.25813e-06)
(9.0981e-06 0.00122833 -5.99984e-07)
(1.99882e-05 0.00168026 3.69623e-06)
(4.28205e-05 0.00256258 2.76181e-05)
(7.03052e-05 0.00345323 -1.64802e-05)
(5.20732e-05 0.00357435 -0.000102377)
(3.05884e-05 0.00397185 1.10138e-05)
(-0.000282553 0.00315149 0.0002255)
(-0.00214313 0.0210091 0.000194577)
(0.00618077 0.148904 0.0145259)
(-0.0384014 0.599452 -0.0266976)
(-0.0290757 0.476233 -0.00307853)
(-0.0226579 0.518871 -0.00100514)
(-0.00408327 0.490363 -0.00202586)
(-0.00256291 0.509756 -0.0011084)
(0.00614377 0.498693 0.00233637)
(0.00768095 0.495044 0.00464708)
(0.00524036 0.495352 0.00409026)
(0.00476127 0.492733 0.00458067)
(0.00174998 0.479992 0.00242871)
(0.00255306 0.485162 0.0037787)
(0.000684438 0.476454 0.00258368)
(0.000285406 0.496858 0.00240654)
(-4.735e-06 0.508641 0.00125891)
(0.000407234 0.45068 6.72401e-05)
(0.000425609 0.454388 -0.00148168)
(-0.00126657 0.426571 -0.000411993)
(0.00151785 0.459475 -0.00146455)
(0.00143325 0.50277 -0.000911728)
(0.00394037 0.492516 -0.00122222)
(0.00455254 0.491857 -0.00108818)
(0.00468263 0.47303 -0.00159189)
(0.00364282 0.403689 -0.00153452)
(-0.000916227 0.22729 9.08579e-05)
(-0.00206574 0.268692 8.29037e-05)
(-0.00565833 0.435656 -0.000116009)
(-0.00649096 0.371141 -0.000464084)
(7.9211e-05 0.0290615 5.88168e-05)
(2.26074e-08 0.00836639 3.1891e-06)
(-0.000180406 0.00715507 -4.02326e-06)
(-0.000480562 0.00593507 -4.70454e-05)
(-0.00028997 0.00604315 -6.02753e-05)
(-0.000302493 0.00685272 -4.11537e-05)
(-0.000253794 0.00734044 -3.16752e-05)
(-0.000199778 0.0068993 -2.32441e-05)
(-0.000159681 0.00587905 -1.49269e-05)
(-1.24103e-06 0.000228046 5.09069e-07)
(-2.55073e-06 0.000251878 2.94772e-07)
(-3.77467e-06 0.000292153 1.68444e-07)
(-3.86967e-06 0.000334249 7.997e-08)
(-4.15335e-06 0.000377661 4.85697e-08)
(-4.07651e-06 0.000422069 7.02654e-09)
(-3.95755e-06 0.000463328 -1.59421e-08)
(-3.65073e-06 0.000497671 -1.39307e-08)
(-3.34761e-06 0.000526357 -2.03459e-08)
(-2.94908e-06 0.000545734 8.90735e-09)
(-2.61623e-06 0.000553754 2.5466e-08)
(-2.30042e-06 0.000557586 5.58649e-08)
(-2.03055e-06 0.000560102 6.50518e-08)
(-1.79945e-06 0.000561505 8.0669e-08)
(-1.60201e-06 0.000562334 9.27837e-08)
(-1.46872e-06 0.000562877 8.92518e-08)
(-1.37582e-06 0.000563292 1.02129e-07)
(-1.32239e-06 0.000563637 9.41255e-08)
(-1.28434e-06 0.000563934 1.1001e-07)
(-1.26139e-06 0.000564184 9.8143e-08)
(-1.23495e-06 0.000564386 1.10303e-07)
(-1.21125e-06 0.00056454 9.36381e-08)
(-1.17867e-06 0.000564649 1.04349e-07)
(-1.14908e-06 0.000564713 8.71414e-08)
(-1.11223e-06 0.000564736 9.87416e-08)
(-1.0779e-06 0.000564724 8.16172e-08)
(-1.03651e-06 0.00056468 9.30862e-08)
(-9.98996e-07 0.000564606 7.61325e-08)
(-9.54891e-07 0.000564502 8.86866e-08)
(-9.13818e-07 0.000564368 7.38752e-08)
(-8.64802e-07 0.000564208 8.8608e-08)
(-8.18722e-07 0.000564022 7.54433e-08)
(-7.64589e-07 0.00056381 9.09851e-08)
(-7.13605e-07 0.000563571 7.89413e-08)
(-6.55491e-07 0.000563304 9.52556e-08)
(-6.02326e-07 0.000563007 8.33717e-08)
(-5.44443e-07 0.000562681 9.87516e-08)
(-4.90179e-07 0.000562326 8.59807e-08)
(-4.24853e-07 0.000561951 1.01272e-07)
(-3.57387e-07 0.000561554 8.98502e-08)
(-2.63125e-07 0.000561145 1.0652e-07)
(-1.79254e-07 0.000560673 9.59939e-08)
(-6.42005e-08 0.000560262 1.12414e-07)
(4.02636e-08 0.000559687 1.11902e-07)
(1.9926e-07 0.000559347 1.3042e-07)
(4.07401e-07 0.000558579 1.28519e-07)
(8.21784e-07 0.000559714 1.51075e-07)
(1.17348e-06 0.000567856 9.76499e-08)
(2.21062e-06 0.000614775 4.1232e-07)
(2.85293e-06 0.000735161 5.6588e-07)
(4.66617e-06 0.000943261 1.6071e-06)
(8.46041e-06 0.00122486 1.8735e-06)
(1.92468e-05 0.00160606 2.39591e-05)
(3.80815e-05 0.00225767 5.48315e-05)
(3.35749e-05 0.00312801 3.84309e-05)
(-2.14501e-06 0.00327416 -1.83986e-05)
(5.60823e-05 0.00351176 0.000145507)
(-0.000290445 0.00265629 5.10158e-05)
(-0.0010413 0.0220851 0.000350468)
(0.00605409 0.176789 0.0180688)
(-0.0268352 0.600821 -0.0284797)
(-0.00940142 0.477253 0.0026951)
(-0.0141492 0.507354 -0.000421891)
(-0.00294525 0.493362 0.000905903)
(-0.00088717 0.501629 0.00170568)
(0.00324408 0.498968 0.00320932)
(0.00311204 0.483053 0.00335198)
(0.00183301 0.481025 0.00251248)
(0.00098835 0.486659 0.00271903)
(0.000694862 0.486303 0.00215381)
(-0.000229697 0.491424 0.00259708)
(-0.000505681 0.455414 0.0019494)
(-0.000641037 0.518212 0.00139939)
(-0.000591459 0.507419 0.00126489)
(0.000121134 0.491916 -0.000542692)
(0.00119848 0.49248 -0.00191266)
(0.00242464 0.491837 -0.00195644)
(0.00422579 0.500655 -0.00196356)
(0.00234485 0.486307 -0.00124476)
(0.00510253 0.468897 -0.00169774)
(0.00446696 0.316082 -0.00103)
(0.00859555 0.51394 -0.00218144)
(0.00563591 0.506304 -0.00167668)
(0.00182599 0.496041 -0.00130874)
(-0.0033299 0.490019 -0.0011645)
(-0.0102762 0.481839 -0.00116306)
(-0.0172311 0.487876 -0.00298559)
(-0.0212017 0.483856 -0.00461041)
(-0.0244129 0.479085 -0.00370867)
(-0.0291489 0.45826 -0.00191954)
(-0.0336269 0.332251 0.000456825)
(-0.000926384 0.0258338 -8.48205e-05)
(-0.00094931 0.00359035 -0.000168937)
(-0.000759979 0.00387888 -0.000120355)
(-0.000601437 0.00394921 -7.98564e-05)
(-0.000505582 0.00403559 -3.55199e-05)
(-2.30116e-06 0.000212802 3.256e-07)
(-4.14483e-06 0.000227607 5.53734e-08)
(-5.46476e-06 0.000258285 5.68014e-08)
(-5.21592e-06 0.000296158 -4.12687e-08)
(-5.19443e-06 0.000340475 -1.49325e-07)
(-4.75549e-06 0.000391948 -1.35393e-07)
(-4.38112e-06 0.000444949 -8.36839e-08)
(-3.93529e-06 0.000487384 -6.51932e-08)
(-3.56963e-06 0.00051974 -9.23628e-08)
(-3.08867e-06 0.000542903 -2.11047e-08)
(-2.72094e-06 0.000553345 6.69545e-10)
(-2.35283e-06 0.000557839 5.13233e-08)
(-2.06676e-06 0.000560471 4.53683e-08)
(-1.83179e-06 0.000561887 7.21704e-08)
(-1.67326e-06 0.000562679 7.94586e-08)
(-1.55909e-06 0.000563189 1.1402e-07)
(-1.47913e-06 0.000563571 1.11383e-07)
(-1.42392e-06 0.000563892 1.20256e-07)
(-1.38615e-06 0.000564159 1.00244e-07)
(-1.35539e-06 0.000564378 1.03463e-07)
(-1.32655e-06 0.000564552 8.21057e-08)
(-1.29538e-06 0.000564688 8.61571e-08)
(-1.2623e-06 0.000564785 6.6424e-08)
(-1.22345e-06 0.000564843 7.27656e-08)
(-1.18042e-06 0.000564862 5.58764e-08)
(-1.13403e-06 0.000564845 6.4402e-08)
(-1.08678e-06 0.000564796 4.87025e-08)
(-1.03848e-06 0.000564721 5.97627e-08)
(-9.91111e-07 0.000564616 4.7805e-08)
(-9.41131e-07 0.000564484 6.16501e-08)
(-8.89106e-07 0.000564328 5.1627e-08)
(-8.33334e-07 0.000564145 6.68607e-08)
(-7.75253e-07 0.000563936 5.8308e-08)
(-7.13694e-07 0.000563698 7.49444e-08)
(-6.52173e-07 0.00056343 6.76155e-08)
(-5.91203e-07 0.00056313 8.41865e-08)
(-5.32989e-07 0.0005628 7.53006e-08)
(-4.76267e-07 0.000562443 8.78755e-08)
(-4.16304e-07 0.000562074 7.72843e-08)
(-3.49835e-07 0.000561686 8.94498e-08)
(-2.71927e-07 0.000561288 7.98869e-08)
(-1.92755e-07 0.000560821 9.63415e-08)
(-1.19358e-07 0.000560433 8.20441e-08)
(-3.15689e-08 0.000559878 9.33021e-08)
(6.68778e-08 0.000559597 7.97652e-08)
(2.28536e-07 0.000558969 7.75197e-08)
(5.76445e-07 0.000559812 4.98141e-08)
(7.51631e-07 0.000565631 4.07902e-08)
(1.53435e-06 0.00060179 1.91588e-07)
(1.72885e-06 0.000708447 1.22675e-07)
(2.54202e-06 0.000904457 7.92295e-07)
(2.295e-06 0.00117085 -1.88404e-06)
(2.30092e-06 0.00152097 2.14794e-06)
(1.83015e-07 0.00202414 -7.52017e-06)
(-1.50582e-06 0.00267255 2.24226e-05)
(-4.45001e-05 0.00301099 5.79262e-05)
(0.000135832 0.0034919 0.000278981)
(-9.2337e-05 0.00263027 0.000457411)
(-0.000356131 0.0230808 0.00237031)
(0.00284962 0.224123 0.0133691)
(-0.0141443 0.593725 -0.0252438)
(-0.00348424 0.471864 0.00120362)
(-0.00522566 0.469239 0.000743774)
(-0.00153981 0.487132 0.000776552)
(-0.00108303 0.504901 0.00151952)
(0.000517877 0.504557 0.00199842)
(0.000947 0.46251 0.0011851)
(0.000404639 0.443868 0.00133816)
(-0.000135302 0.494865 0.00130688)
(9.16538e-05 0.486341 0.00147863)
(-0.000675835 0.428203 0.00149946)
(-0.00057153 0.387162 0.00130742)
(-6.48761e-05 0.487312 0.00133792)
(0.000785925 0.454558 0.000213153)
(0.00169267 0.504089 -0.00159246)
(0.00472251 0.452743 -0.00202885)
(0.00323627 0.485504 -0.00195873)
(0.00273951 0.501557 -0.0010303)
(0.00313791 0.487236 -0.00111678)
(0.0047145 0.476863 -0.00164264)
(0.00433744 0.386896 -0.00102888)
(0.00835835 0.511757 -0.00165937)
(0.0128645 0.506813 -0.00169583)
(0.00940089 0.501615 -0.00161213)
(0.000555031 0.4888 -0.00254922)
(-0.00489104 0.474014 -0.00262324)
(-0.0116554 0.486719 -0.00519174)
(-0.0173069 0.47778 -0.00714211)
(-0.0247448 0.474983 -0.00788042)
(-0.0361523 0.47556 -0.00721051)
(-0.0525735 0.468219 -0.0049403)
(-0.0498793 0.463515 0.00779472)
(-0.0205206 0.458524 0.0131556)
(-0.00474003 0.437775 -0.000854527)
(-0.00135358 0.46548 -0.00777329)
(-0.0043307 0.450739 -0.00748817)
(-3.13847e-06 0.000201481 -1.83665e-07)
(-6.49477e-06 0.0002111 -3.04346e-07)
(-7.63313e-06 0.000229301 -1.485e-07)
(-6.8163e-06 0.000259489 -8.86507e-08)
(-6.22228e-06 0.000304321 -3.9758e-07)
(-5.33204e-06 0.000359185 -2.28439e-07)
(-4.73664e-06 0.000422673 -1.26508e-07)
(-4.11609e-06 0.000479657 -5.25979e-10)
(-3.68899e-06 0.000517304 -7.44031e-08)
(-3.14849e-06 0.000541303 -1.62861e-08)
(-2.73567e-06 0.000553126 2.12105e-09)
(-2.34254e-06 0.00055796 4.0955e-08)
(-2.09314e-06 0.000560627 7.89281e-08)
(-1.87835e-06 0.000562037 1.15229e-07)
(-1.72512e-06 0.000562815 1.53689e-07)
(-1.61626e-06 0.000563314 1.80902e-07)
(-1.55655e-06 0.000563681 2.13638e-07)
(-1.51195e-06 0.000563978 2.23964e-07)
(-1.4861e-06 0.000564236 2.43533e-07)
(-1.45596e-06 0.000564462 2.39036e-07)
(-1.43476e-06 0.000564658 2.41981e-07)
(-1.40279e-06 0.000564812 2.25101e-07)
(-1.37521e-06 0.000564926 2.247e-07)
(-1.33568e-06 0.000565001 2.076e-07)
(-1.30044e-06 0.000565039 2.08046e-07)
(-1.25525e-06 0.000565038 1.93536e-07)
(-1.21737e-06 0.000565005 1.97107e-07)
(-1.17006e-06 0.00056494 1.85611e-07)
(-1.12854e-06 0.000564842 1.9233e-07)
(-1.07602e-06 0.000564717 1.84911e-07)
(-1.02814e-06 0.000564568 1.95061e-07)
(-9.70301e-07 0.00056439 1.90225e-07)
(-9.18674e-07 0.000564187 2.01683e-07)
(-8.58098e-07 0.000563956 1.97725e-07)
(-8.05411e-07 0.000563692 2.08823e-07)
(-7.4894e-07 0.000563394 2.0309e-07)
(-7.04253e-07 0.000563066 2.08836e-07)
(-6.58179e-07 0.000562719 1.96084e-07)
(-6.15744e-07 0.000562364 1.96774e-07)
(-5.62822e-07 0.000561995 1.84982e-07)
(-5.0594e-07 0.000561619 1.87459e-07)
(-4.39619e-07 0.000561145 1.81091e-07)
(-4.13769e-07 0.00056077 1.83754e-07)
(-3.54637e-07 0.000560229 1.70913e-07)
(-3.43302e-07 0.000559992 1.76285e-07)
(-2.67564e-07 0.000559493 1.65073e-07)
(-1.15828e-07 0.000560354 1.3709e-07)
(-8.46318e-08 0.000566835 1.79107e-07)
(2.31656e-07 0.000598323 2.57259e-07)
(1.40078e-07 0.000687869 3.58751e-08)
(1.23267e-07 0.000852394 3.46973e-07)
(-4.07405e-06 0.00107346 -3.4815e-06)
(-1.25484e-05 0.0014468 -5.35096e-06)
(-2.89782e-05 0.00201493 -4.92229e-06)
(-2.41983e-05 0.00265613 1.6692e-05)
(-1.14552e-05 0.0033463 3.38167e-05)
(0.000144032 0.00400812 0.00027237)
(0.000209387 0.00304687 0.000312492)
(-0.000304013 0.0247405 0.00144328)
(-0.00017321 0.253487 0.0146711)
(-0.00908041 0.595007 -0.0221978)
(-0.00385023 0.485297 0.00437524)
(-0.00261591 0.500484 0.00016852)
(-0.00102036 0.495226 0.000517637)
(0.000289468 0.497163 0.000371744)
(0.00166936 0.501535 0.000419442)
(0.000811885 0.460968 0.00036582)
(0.00101363 0.481473 0.000346982)
(6.9658e-05 0.45659 7.87456e-05)
(-0.000113257 0.476945 -8.42827e-07)
(-0.000566071 0.479687 0.000193337)
(-0.000181277 0.491176 0.000453353)
(0.00146613 0.481255 0.000208109)
(0.00399242 0.478575 -0.000372963)
(0.0055196 0.449897 -0.00151008)
(0.00430487 0.426083 -0.0014175)
(0.00656155 0.467994 -0.000945781)
(0.0055369 0.488794 0.000610956)
(0.00395885 0.490367 0.00161535)
(0.00242321 0.497193 0.000765803)
(0.00250147 0.495164 -0.000693044)
(0.00546796 0.501012 -0.00257584)
(0.0105351 0.503029 -0.00117071)
(0.0163667 0.49913 0.00237032)
(0.0115103 0.511506 0.000604827)
(0.00216969 0.495208 -0.000966628)
(-0.000950844 0.476737 -0.00115677)
(-0.00681262 0.462182 -0.00563099)
(-0.00971164 0.408374 -0.00854373)
(-0.015641 0.322284 -0.0123918)
(-0.00145128 0.0283449 -0.00213195)
(-0.00197768 0.00866463 -0.00208526)
(-0.00126427 0.0114501 -0.000617717)
(-0.000977324 0.0350931 -0.00061735)
(-0.00759584 0.319389 -0.0153804)
(-0.00125104 0.0320272 0.000632169)
(-8.63951e-06 8.97033e-05 -2.98924e-06)
(-1.03088e-05 0.000206377 -1.17303e-06)
(-1.02917e-05 0.000209476 -6.05177e-07)
(-8.37408e-06 0.00022723 -2.54604e-07)
(-7.19138e-06 0.000266174 -4.82518e-07)
(-5.75634e-06 0.000319463 -3.10899e-07)
(-4.90808e-06 0.000389676 -3.56849e-07)
(-4.13345e-06 0.000463557 -1.82018e-07)
(-3.60686e-06 0.000513096 -1.95947e-07)
(-3.04731e-06 0.000540103 -1.89337e-07)