/*--------------------------------*- C++ -*----------------------------------*\
| =========                 |                                                 |
| \\      /  F ield         | OpenFOAM: The Open Source CFD Toolbox           |
|  \\    /   O peration     | Version:  2.3.0                                 |
|   \\  /    A nd           | Web:      www.OpenFOAM.org                      |
|    \\/     M anipulation  |                                                 |
\*---------------------------------------------------------------------------*/
FoamFile
{
    version     2.0;
    format      ascii;
    class       volScalarField;
    location    "24";
    object      alpha.airMean;
}
// * * * * * * * * * * * * * * * * * * * * * * * * * * * * * * * * * * * * * //

dimensions      [0 0 0 0 0 0 0];

internalField   nonuniform List<scalar> 
6144
(
0.999992
0.999991
0.999991
0.999991
0.999991
0.999991
0.99999
0.99999
0.99999
0.99999
0.99999
0.99999
0.99999
0.99999
0.99999
0.99999
0.99999
0.99999
0.99999
0.99999
0.99999
0.99999
0.99999
0.99999
0.99999
0.99999
0.99999
0.99999
0.99999
0.99999
0.99999
0.99999
0.99999
0.99999
0.99999
0.99999
0.99999
0.99999
0.99999
0.99999
0.99999
0.99999
0.99999
0.99999
0.99999
0.99999
0.999988
0.999983
0.999974
0.999962
0.999953
0.999946
0.999942
0.999936
0.999931
0.999922
0.999918
0.999911
0.998672
0.933775
0.0346468
0.000226214
1.23539e-06
9.5815e-07
9.53839e-07
9.41213e-07
9.40635e-07
9.30709e-07
9.31078e-07
9.24319e-07
9.22712e-07
9.16977e-07
9.11714e-07
9.0554e-07
9.00399e-07
8.92672e-07
8.8683e-07
8.82221e-07
8.75677e-07
8.65447e-07
8.524e-07
8.39578e-07
8.29179e-07
8.18435e-07
8.02426e-07
7.75976e-07
7.50845e-07
7.30219e-07
7.03777e-07
6.65458e-07
6.20932e-07
5.82603e-07
5.3462e-07
4.92063e-07
4.57998e-07
4.3776e-07
0.999992
0.999992
0.999991
0.999991
0.999991
0.99999
0.99999
0.99999
0.99999
0.99999
0.99999
0.99999
0.99999
0.99999
0.99999
0.99999
0.99999
0.99999
0.99999
0.99999
0.99999
0.99999
0.99999
0.99999
0.99999
0.99999
0.99999
0.99999
0.99999
0.99999
0.99999
0.99999
0.99999
0.99999
0.99999
0.99999
0.99999
0.99999
0.99999
0.99999
0.99999
0.99999
0.99999
0.99999
0.99999
0.99999
0.999988
0.999983
0.999976
0.999967
0.999956
0.999947
0.99994
0.999929
0.999922
0.999912
0.999909
0.9999
0.999379
0.948362
0.0292244
0.000116542
1.01075e-06
1.00077e-06
9.91071e-07
9.81664e-07
9.80225e-07
9.74673e-07
9.74309e-07
9.5952e-07
9.54435e-07
9.41752e-07
9.34946e-07
9.28271e-07
9.21825e-07
9.10738e-07
9.03464e-07
8.96862e-07
8.8709e-07
8.72825e-07
8.55483e-07
8.38669e-07
8.20048e-07
8.01681e-07
7.7915e-07
7.54264e-07
7.34622e-07
7.21909e-07
7.10401e-07
6.91513e-07
6.59878e-07
6.12735e-07
5.59923e-07
5.1847e-07
4.85579e-07
4.55726e-07
0.999992
0.999992
0.999992
0.999991
0.999991
0.999991
0.99999
0.99999
0.99999
0.99999
0.99999
0.99999
0.99999
0.99999
0.99999
0.99999
0.99999
0.99999
0.99999
0.99999
0.99999
0.99999
0.99999
0.99999
0.99999
0.99999
0.99999
0.99999
0.99999
0.99999
0.99999
0.99999
0.99999
0.99999
0.99999
0.99999
0.99999
0.99999
0.99999
0.99999
0.99999
0.99999
0.99999
0.99999
0.99999
0.999989
0.999987
0.999983
0.999977
0.999968
0.999954
0.999942
0.999931
0.999918
0.999911
0.999902
0.999902
0.999894
0.999585
0.937118
0.0247858
6.89948e-05
2.25855e-06
2.29728e-06
2.25884e-06
2.17539e-06
1.90089e-06
1.59694e-06
1.31027e-06
1.10589e-06
1.01374e-06
9.71291e-07
9.56598e-07
9.4505e-07
9.37715e-07
9.22046e-07
9.12577e-07
9.0179e-07
8.87786e-07
8.71275e-07
8.5527e-07
8.36095e-07
8.16131e-07
7.92323e-07
7.70973e-07
7.52802e-07
7.4111e-07
7.37834e-07
7.3415e-07
7.19004e-07
6.89089e-07
6.44604e-07
5.86258e-07
5.38692e-07
5.10961e-07
4.70831e-07
0.999993
0.999992
0.999992
0.999992
0.999991
0.999991
0.99999
0.99999
0.99999
0.99999
0.99999
0.99999
0.99999
0.99999
0.99999
0.99999
0.99999
0.99999
0.99999
0.99999
0.99999
0.99999
0.99999
0.99999
0.99999
0.99999
0.99999
0.99999
0.99999
0.99999
0.99999
0.99999
0.99999
0.99999
0.99999
0.99999
0.99999
0.99999
0.99999
0.99999
0.99999
0.99999
0.99999
0.99999
0.99999
0.999989
0.999987
0.999984
0.999977
0.999967
0.99995
0.999934
0.99992
0.999908
0.999901
0.999893
0.999896
0.999886
0.999677
0.912412
0.0221387
8.27156e-05
4.21689e-05
3.96302e-05
3.88624e-05
3.68351e-05
3.27323e-05
2.64957e-05
1.9281e-05
1.25255e-05
7.42516e-06
4.15068e-06
2.43919e-06
1.69366e-06
1.40702e-06
1.24342e-06
1.10737e-06
9.91472e-07
9.09137e-07
8.59945e-07
8.50716e-07
8.44198e-07
8.32519e-07
8.13716e-07
8.09102e-07
8.21937e-07
8.30797e-07
8.31336e-07
8.16698e-07
7.79541e-07
7.33114e-07
6.81329e-07
6.19292e-07
5.67274e-07
5.37199e-07
4.87338e-07
0.999993
0.999993
0.999992
0.999992
0.999992
0.999991
0.999991
0.99999
0.99999
0.99999
0.99999
0.99999
0.99999
0.99999
0.99999
0.99999
0.99999
0.99999
0.99999
0.99999
0.99999
0.99999
0.99999
0.99999
0.99999
0.99999
0.99999
0.99999
0.99999
0.99999
0.99999
0.99999
0.99999
0.99999
0.99999
0.99999
0.99999
0.99999
0.99999
0.99999
0.99999
0.99999
0.99999
0.99999
0.99999
0.999989
0.999987
0.999984
0.999977
0.999964
0.999943
0.999924
0.999912
0.9999
0.999894
0.999888
0.99989
0.999878
0.99971
0.882498
0.0242578
0.000579148
0.000543802
0.000494386
0.000482995
0.000452322
0.000408753
0.000352158
0.000294643
0.000237558
0.000186698
0.000144387
0.000111377
8.75351e-05
7.17452e-05
6.05448e-05
5.1927e-05
4.50544e-05
3.96582e-05
3.5619e-05
3.32091e-05
3.185e-05
3.10857e-05
2.94938e-05
2.88975e-05
2.80057e-05
2.60277e-05
2.26385e-05
1.86508e-05
1.35129e-05
7.98937e-06
4.13361e-06
1.95064e-06
9.69356e-07
6.53932e-07
5.52547e-07
0.999993
0.999993
0.999992
0.999992
0.999992
0.999992
0.999991
0.999991
0.99999
0.99999
0.99999
0.99999
0.99999
0.99999
0.99999
0.99999
0.99999
0.99999
0.99999
0.99999
0.99999
0.99999
0.99999
0.99999
0.99999
0.99999
0.99999
0.99999
0.99999
0.99999
0.99999
0.99999
0.99999
0.99999
0.99999
0.99999
0.99999
0.99999
0.99999
0.99999
0.99999
0.99999
0.99999
0.99999
0.99999
0.999989
0.999987
0.999984
0.999976
0.99996
0.999936
0.999917
0.999906
0.999896
0.999892
0.99989
0.999894
0.999877
0.999782
0.83914
0.0223054
0.00289202
0.00302367
0.00293096
0.00293642
0.00280573
0.00265621
0.00247938
0.00230651
0.0021357
0.00196442
0.00179999
0.00164616
0.00150315
0.00137637
0.00126632
0.00117286
0.00108998
0.00101225
0.000936601
0.000857071
0.000781022
0.000713848
0.000662834
0.000639467
0.000638657
0.000638462
0.000618488
0.000568558
0.000479967
0.000367357
0.000252905
0.00015287
7.60815e-05
2.89365e-05
1.11245e-05
0.999993
0.999993
0.999993
0.999993
0.999992
0.999992
0.999991
0.999991
0.999991
0.99999
0.99999
0.99999
0.99999
0.99999
0.99999
0.99999
0.99999
0.99999
0.99999
0.99999
0.99999
0.99999
0.99999
0.99999
0.99999
0.99999
0.99999
0.99999
0.99999
0.99999
0.99999
0.99999
0.99999
0.99999
0.99999
0.99999
0.99999
0.99999
0.99999
0.99999
0.99999
0.99999
0.99999
0.99999
0.99999
0.999989
0.999987
0.999984
0.999973
0.999953
0.999929
0.999913
0.999903
0.999898
0.999897
0.999895
0.999899
0.99989
0.99983
0.789683
0.0246882
0.00731068
0.00771013
0.00767381
0.00763221
0.00748398
0.0073269
0.00719745
0.00708038
0.00694509
0.00681079
0.00663748
0.00647866
0.00630214
0.00612885
0.00594196
0.0057727
0.00558742
0.00539122
0.00515488
0.00489733
0.00460612
0.00429874
0.00400052
0.00374769
0.0035309
0.00337623
0.00323938
0.0030889
0.00293422
0.00272577
0.00243954
0.00204197
0.00152638
0.000949357
0.000498658
0.999993
0.999993
0.999993
0.999993
0.999992
0.999992
0.999992
0.999991
0.999991
0.99999
0.99999
0.99999
0.99999
0.99999
0.99999
0.99999
0.99999
0.99999
0.99999
0.99999
0.99999
0.99999
0.99999
0.99999
0.99999
0.99999
0.99999
0.99999
0.99999
0.99999
0.99999
0.99999
0.99999
0.99999
0.99999
0.99999
0.99999
0.99999
0.99999
0.99999
0.99999
0.99999
0.99999
0.99999
0.99999
0.999989
0.999987
0.999983
0.999967
0.999946
0.999924
0.999912
0.999906
0.999903
0.999904
0.999905
0.999906
0.999894
0.999799
0.778691
0.0286133
0.0106277
0.0111735
0.0111625
0.011057
0.0109618
0.010931
0.0110054
0.0111001
0.0111988
0.0112963
0.0113669
0.0114119
0.0114249
0.0114241
0.0114061
0.0113787
0.0113656
0.0113458
0.0113468
0.0113728
0.0114342
0.0115025
0.0115656
0.0116639
0.0117955
0.0119367
0.0121023
0.0123072
0.012554
0.012772
0.0129072
0.0127725
0.0122529
0.010864
0.00884206
0.999993
0.999993
0.999993
0.999993
0.999993
0.999992
0.999992
0.999991
0.999991
0.999991
0.99999
0.99999
0.99999
0.99999
0.99999
0.99999
0.99999
0.99999
0.99999
0.99999
0.99999
0.99999
0.99999
0.99999
0.99999
0.99999
0.99999
0.99999
0.99999
0.99999
0.99999
0.99999
0.99999
0.99999
0.99999
0.99999
0.99999
0.99999
0.99999
0.99999
0.99999
0.99999
0.99999
0.99999
0.99999
0.999989
0.999986
0.99998
0.999966
0.999947
0.999928
0.999915
0.99991
0.999907
0.999907
0.999906
0.99991
0.9999
0.99981
0.848123
0.0266069
0.00534909
0.00508417
0.00442839
0.00410261
0.00386373
0.00376864
0.00370992
0.00370537
0.00371722
0.00376261
0.00379906
0.00383062
0.00385219
0.00387457
0.00388957
0.00390059
0.00390214
0.00389428
0.00386617
0.003826
0.00376409
0.00369402
0.0036104
0.00351973
0.00344058
0.00338154
0.00335059
0.00331353
0.00324559
0.00312638
0.00289925
0.00253975
0.00199759
0.00126533
0.000637401
0.999994
0.999993
0.999993
0.999993
0.999993
0.999992
0.999992
0.999991
0.999991
0.999991
0.99999
0.99999
0.99999
0.99999
0.99999
0.99999
0.99999
0.99999
0.99999
0.99999
0.99999
0.99999
0.99999
0.99999
0.99999
0.99999
0.99999
0.99999
0.99999
0.99999
0.99999
0.99999
0.99999
0.99999
0.99999
0.99999
0.99999
0.99999
0.99999
0.99999
0.99999
0.99999
0.99999
0.99999
0.999989
0.999987
0.999985
0.999979
0.999969
0.999953
0.999936
0.999922
0.999914
0.99991
0.999909
0.999907
0.999912
0.999904
0.999871
0.909315
0.0219231
0.00107981
0.000880544
0.000630055
0.00054173
0.000474169
0.000448189
0.000430176
0.000429369
0.000433071
0.000443547
0.000451687
0.00045926
0.000465169
0.000472092
0.000478918
0.000484586
0.000487972
0.000496711
0.000511323
0.000534488
0.000570292
0.000621047
0.000682313
0.000748004
0.000812469
0.000864048
0.000889048
0.000884144
0.000829859
0.000722273
0.000562557
0.000383404
0.000212007
8.83757e-05
3.53943e-05
0.999994
0.999993
0.999993
0.999993
0.999993
0.999992
0.999991
0.999991
0.999991
0.99999
0.99999
0.99999
0.99999
0.99999
0.99999
0.99999
0.99999
0.99999
0.99999
0.99999
0.99999
0.99999
0.99999
0.99999
0.99999
0.99999
0.99999
0.99999
0.99999
0.99999
0.99999
0.99999
0.99999
0.99999
0.99999
0.99999
0.99999
0.99999
0.99999
0.99999
0.99999
0.99999
0.99999
0.99999
0.999989
0.999987
0.999985
0.99998
0.999971
0.999958
0.999944
0.999932
0.999923
0.999916
0.999914
0.99991
0.999915
0.999903
0.999874
0.946389
0.0242255
0.000121201
4.81507e-05
2.78762e-05
2.089e-05
1.65003e-05
1.58425e-05
1.60264e-05
1.71638e-05
1.86221e-05
2.02351e-05
2.15655e-05
2.26756e-05
2.3438e-05
2.39407e-05
2.41592e-05
2.40964e-05
2.4103e-05
2.52489e-05
2.74035e-05
3.09071e-05
3.56427e-05
4.12601e-05
4.69713e-05
5.18497e-05
5.55153e-05
5.78403e-05
5.85667e-05
5.60874e-05
4.91019e-05
3.83925e-05
2.39607e-05
1.23295e-05
5.0304e-06
1.89727e-06
1.01163e-06
0.999995
0.999994
0.999993
0.999993
0.999993
0.999992
0.999991
0.999991
0.999991
0.99999
0.99999
0.99999
0.99999
0.99999
0.99999
0.99999
0.99999
0.99999
0.99999
0.99999
0.99999
0.99999
0.99999
0.99999
0.99999
0.99999
0.99999
0.99999
0.99999
0.99999
0.99999
0.99999
0.99999
0.99999
0.99999
0.99999
0.99999
0.99999
0.99999
0.99999
0.99999
0.99999
0.99999
0.99999
0.999989
0.999988
0.999986
0.999981
0.999973
0.999962
0.99995
0.99994
0.999932
0.999923
0.99992
0.999915
0.999918
0.999903
0.999817
0.967295
0.0366098
9.99061e-05
1.44447e-06
1.19809e-06
1.12207e-06
1.09111e-06
1.06982e-06
1.05007e-06
1.04626e-06
1.04799e-06
1.05885e-06
1.05096e-06
1.03961e-06
1.02709e-06
1.01451e-06
9.97672e-07
9.70372e-07
9.43438e-07
9.39575e-07
9.38988e-07
9.4636e-07
9.79274e-07
1.02664e-06
1.07443e-06
1.11359e-06
1.13324e-06
1.11124e-06
1.05079e-06
1.0089e-06
9.45094e-07
8.4506e-07
7.34551e-07
6.39344e-07
5.87914e-07
5.56299e-07
4.97308e-07
0.999996
0.999995
0.999994
0.999994
0.999993
0.999992
0.999992
0.999991
0.999991
0.99999
0.99999
0.99999
0.99999
0.99999
0.99999
0.99999
0.99999
0.99999
0.99999
0.99999
0.99999
0.99999
0.99999
0.99999
0.99999
0.99999
0.99999
0.99999
0.99999
0.99999
0.99999
0.99999
0.99999
0.99999
0.99999
0.99999
0.99999
0.99999
0.99999
0.99999
0.99999
0.99999
0.99999
0.99999
0.99999
0.999989
0.999987
0.999982
0.999974
0.999964
0.999953
0.999944
0.999939
0.99993
0.999926
0.99992
0.999921
0.999902
0.99973
0.973187
0.050168
0.000186505
1.12944e-06
1.03329e-06
1.01982e-06
1.01563e-06
1.01013e-06
9.99768e-07
9.90581e-07
9.80477e-07
9.75019e-07
9.69018e-07
9.65373e-07
9.57416e-07
9.45143e-07
9.34121e-07
9.27508e-07
9.21049e-07
9.12439e-07
9.04715e-07
8.98021e-07
8.90478e-07
8.82228e-07
8.72899e-07
8.61475e-07
8.4382e-07
8.21174e-07
7.90519e-07
7.49535e-07
7.08617e-07
6.77437e-07
6.37058e-07
5.83651e-07
5.5295e-07
5.16959e-07
4.6196e-07
0.999996
0.999995
0.999995
0.999994
0.999994
0.999993
0.999992
0.999991
0.999991
0.99999
0.99999
0.99999
0.99999
0.99999
0.99999
0.99999
0.99999
0.99999
0.99999
0.99999
0.99999
0.99999
0.99999
0.99999
0.99999
0.99999
0.99999
0.99999
0.99999
0.99999
0.99999
0.99999
0.99999
0.99999
0.99999
0.99999
0.99999
0.99999
0.99999
0.99999
0.99999
0.99999
0.99999
0.99999
0.99999
0.999989
0.999987
0.999983
0.999975
0.999965
0.999955
0.999946
0.99994
0.999933
0.999928
0.999923
0.999921
0.99989
0.999664
0.970067
0.0588018
0.000302821
1.30748e-06
1.02008e-06
1.006e-06
9.981e-07
9.9678e-07
9.88568e-07
9.82657e-07
9.73142e-07
9.68318e-07
9.59538e-07
9.53699e-07
9.46331e-07
9.38436e-07
9.29479e-07
9.21273e-07
9.14439e-07
9.07594e-07
9.00784e-07
8.93437e-07
8.87516e-07
8.81892e-07
8.75448e-07
8.67062e-07
8.52343e-07
8.28231e-07
7.95239e-07
7.49758e-07
6.96366e-07
6.4937e-07
6.16135e-07
5.77508e-07
5.51107e-07
5.13109e-07
4.53598e-07
0.999997
0.999996
0.999995
0.999995
0.999995
0.999994
0.999993
0.999992
0.999991
0.999991
0.99999
0.99999
0.99999
0.99999
0.99999
0.99999
0.99999
0.99999
0.99999
0.99999
0.99999
0.99999
0.99999
0.99999
0.99999
0.99999
0.99999
0.99999
0.99999
0.99999
0.99999
0.99999
0.99999
0.99999
0.99999
0.99999
0.99999
0.99999
0.99999
0.99999
0.99999
0.99999
0.99999
0.99999
0.99999
0.99999
0.999988
0.999984
0.999976
0.999966
0.999956
0.999947
0.999941
0.999935
0.99993
0.999924
0.999917
0.999888
0.999634
0.964755
0.0558053
0.000235442
1.17024e-06
1.01238e-06
1.00163e-06
9.89349e-07
9.83438e-07
9.74101e-07
9.69644e-07
9.60124e-07
9.56935e-07
9.50093e-07
9.43629e-07
9.36618e-07
9.2947e-07
9.2193e-07
9.14343e-07
9.08658e-07
9.02565e-07
8.96529e-07
8.90598e-07
8.84554e-07
8.78826e-07
8.73747e-07
8.67699e-07
8.58608e-07
8.41592e-07
8.10232e-07
7.62706e-07
7.01926e-07
6.4548e-07
6.01681e-07
5.6764e-07
5.35257e-07
4.94876e-07
4.46476e-07
0.999998
0.999996
0.999996
0.999996
0.999995
0.999995
0.999994
0.999993
0.999991
0.99999
0.99999
0.99999
0.99999
0.99999
0.99999
0.99999
0.99999
0.99999
0.99999
0.99999
0.99999
0.99999
0.99999
0.99999
0.99999
0.99999
0.99999
0.99999
0.99999
0.99999
0.99999
0.99999
0.99999
0.99999
0.99999
0.99999
0.99999
0.99999
0.99999
0.99999
0.99999
0.99999
0.99999
0.99999
0.99999
0.99999
0.999988
0.999984
0.999975
0.999965
0.999955
0.999947
0.999942
0.999938
0.999933
0.999922
0.999917
0.999894
0.99935
0.958251
0.0619793
0.000541194
1.93448e-06
1.01181e-06
1.00469e-06
9.9152e-07
9.83885e-07
9.72703e-07
9.69647e-07
9.60465e-07
9.55009e-07
9.47361e-07
9.40383e-07
9.33716e-07
9.26963e-07
9.20247e-07
9.14175e-07
9.08159e-07
9.01834e-07
8.96305e-07
8.90597e-07
8.84322e-07
8.79367e-07
8.74994e-07
8.69745e-07
8.65032e-07
8.54979e-07
8.29847e-07
7.87601e-07
7.30763e-07
6.5742e-07
5.92104e-07
5.49726e-07
5.01463e-07
4.66234e-07
4.32737e-07
0.999992
0.999991
0.999991
0.999991
0.999991
0.999991
0.99999
0.99999
0.99999
0.99999
0.99999
0.99999
0.99999
0.99999
0.99999
0.99999
0.99999
0.99999
0.99999
0.99999
0.99999
0.99999
0.99999
0.99999
0.99999
0.99999
0.99999
0.99999
0.99999
0.99999
0.99999
0.99999
0.99999
0.99999
0.99999
0.99999
0.99999
0.99999
0.99999
0.99999
0.99999
0.99999
0.99999
0.99999
0.99999
0.99999
0.999988
0.999983
0.999974
0.999962
0.999953
0.999947
0.999943
0.999937
0.999933
0.999927
0.999924
0.999899
0.999198
0.945758
0.0330851
0.00012236
1.00651e-06
9.606e-07
9.52796e-07
9.38562e-07
9.37719e-07
9.27391e-07
9.26583e-07
9.19424e-07
9.17985e-07
9.11548e-07
9.07437e-07
9.01081e-07
8.95543e-07
8.89072e-07
8.82979e-07
8.77648e-07
8.71023e-07
8.60568e-07
8.49136e-07
8.37505e-07
8.25576e-07
8.10336e-07
7.94614e-07
7.80325e-07
7.65936e-07
7.49147e-07
7.2717e-07
6.97813e-07
6.59416e-07
6.11798e-07
5.57513e-07
5.10233e-07
4.7783e-07
4.5013e-07
0.999992
0.999992
0.999991
0.999991
0.999991
0.999991
0.999991
0.999991
0.99999
0.99999
0.99999
0.99999
0.99999
0.99999
0.99999
0.99999
0.99999
0.99999
0.99999
0.99999
0.99999
0.99999
0.99999
0.99999
0.99999
0.99999
0.99999
0.99999
0.99999
0.99999
0.99999
0.99999
0.99999
0.99999
0.99999
0.99999
0.99999
0.99999
0.99999
0.99999
0.99999
0.99999
0.99999
0.99999
0.99999
0.99999
0.999988
0.999983
0.999976
0.999966
0.999956
0.999947
0.99994
0.999932
0.999927
0.999921
0.999916
0.99989
0.999587
0.916268
0.0141624
1.29424e-05
9.79263e-07
1.05211e-06
1.01737e-06
1.00793e-06
1.0043e-06
9.8711e-07
9.83465e-07
9.70413e-07
9.6435e-07
9.47807e-07
9.384e-07
9.28473e-07
9.20407e-07
9.10203e-07
9.01506e-07
8.93495e-07
8.83631e-07
8.71683e-07
8.56543e-07
8.41742e-07
8.22312e-07
7.99777e-07
7.76645e-07
7.55284e-07
7.37963e-07
7.24693e-07
7.11477e-07
6.94988e-07
6.71603e-07
6.3236e-07
5.80083e-07
5.38584e-07
5.11611e-07
4.72855e-07
0.999992
0.999992
0.999992
0.999992
0.999991
0.999991
0.999991
0.999991
0.999991
0.99999
0.99999
0.99999
0.99999
0.99999
0.99999
0.99999
0.99999
0.99999
0.99999
0.99999
0.99999
0.99999
0.99999
0.99999
0.99999
0.99999
0.99999
0.99999
0.99999
0.99999
0.99999
0.99999
0.99999
0.99999
0.99999
0.99999
0.99999
0.99999
0.99999
0.99999
0.99999
0.99999
0.99999
0.99999
0.99999
0.999989
0.999988
0.999983
0.999977
0.999969
0.999956
0.999941
0.999929
0.999919
0.999916
0.999913
0.999911
0.999885
0.999733
0.882546
0.0109507
7.11472e-06
6.4326e-06
5.85976e-06
5.59078e-06
4.54441e-06
3.62788e-06
2.60899e-06
1.92333e-06
1.44663e-06
1.20545e-06
1.067e-06
1.00283e-06
9.77735e-07
9.66912e-07
9.49525e-07
9.37028e-07
9.27494e-07
9.19981e-07
9.08205e-07
8.93964e-07
8.77371e-07
8.53847e-07
8.2033e-07
7.89424e-07
7.6545e-07
7.46629e-07
7.30768e-07
7.16684e-07
7.02157e-07
6.84839e-07
6.5169e-07
6.01219e-07
5.60148e-07
5.34238e-07
4.96223e-07
0.999993
0.999992
0.999992
0.999992
0.999992
0.999991
0.999991
0.999991
0.999991
0.99999
0.99999
0.99999
0.99999
0.99999
0.99999
0.99999
0.99999
0.99999
0.99999
0.99999
0.99999
0.99999
0.99999
0.99999
0.99999
0.99999
0.99999
0.99999
0.99999
0.99999
0.99999
0.99999
0.99999
0.99999
0.99999
0.99999
0.99999
0.99999
0.99999
0.99999
0.99999
0.99999
0.99999
0.99999
0.99999
0.999989
0.999987
0.999983
0.999977
0.999968
0.99995
0.999929
0.999914
0.999907
0.999904
0.999895
0.999884
0.999861
0.999778
0.824647
0.00724513
0.000273692
0.000247943
0.000214029
0.000199261
0.00016594
0.000131943
9.80144e-05
6.91826e-05
4.61768e-05
3.00447e-05
1.93243e-05
1.28838e-05
9.24906e-06
7.43427e-06
6.50108e-06
6.03493e-06
5.79236e-06
5.60246e-06
5.36481e-06
5.12688e-06
4.8861e-06
4.6071e-06
4.25359e-06
3.88499e-06
3.48236e-06
3.01802e-06
2.53681e-06
1.82853e-06
1.25522e-06
9.20544e-07
7.65813e-07
7.00984e-07
6.52237e-07
5.92686e-07
5.30992e-07
0.999993
0.999993
0.999992
0.999992
0.999992
0.999992
0.999991
0.999991
0.999991
0.999991
0.99999
0.99999
0.99999
0.99999
0.99999
0.99999
0.99999
0.99999
0.99999
0.99999
0.99999
0.99999
0.99999
0.99999
0.99999
0.99999
0.99999
0.99999
0.99999
0.99999
0.99999
0.99999
0.99999
0.99999
0.99999
0.99999
0.99999
0.99999
0.99999
0.99999
0.99999
0.99999
0.99999
0.99999
0.99999
0.999989
0.999987
0.999984
0.999977
0.999964
0.999939
0.999918
0.999903
0.999894
0.999885
0.99987
0.999857
0.999844
0.999836
0.738964
0.0104731
0.00358087
0.00342842
0.003136
0.0029461
0.00263747
0.00232042
0.00198988
0.0016685
0.00136719
0.00110819
0.000892233
0.000722994
0.000598772
0.000509523
0.000451746
0.000418777
0.000403175
0.000400681
0.000405257
0.00041292
0.000412902
0.000406434
0.000396733
0.000379503
0.000357284
0.000328985
0.000278274
0.00021078
0.000139941
7.95353e-05
3.76236e-05
1.51041e-05
5.46394e-06
1.94471e-06
9.44741e-07
0.999993
0.999993
0.999993
0.999992
0.999992
0.999992
0.999991
0.999991
0.999991
0.999991
0.99999
0.99999
0.99999
0.99999
0.99999
0.99999
0.99999
0.99999
0.99999
0.99999
0.99999
0.99999
0.99999
0.99999
0.99999
0.99999
0.99999
0.99999
0.99999
0.99999
0.99999
0.99999
0.99999
0.99999
0.99999
0.99999
0.99999
0.99999
0.99999
0.99999
0.99999
0.99999
0.99999
0.99999
0.99999
0.999989
0.999987
0.999983
0.999976
0.99996
0.99993
0.999912
0.999898
0.999885
0.999872
0.999863
0.99986
0.999855
0.999802
0.614828
0.0200649
0.014516
0.0149056
0.0147651
0.0145924
0.0142837
0.0138791
0.0133947
0.0127852
0.0121127
0.0113726
0.0106011
0.00982371
0.00907083
0.00836728
0.00776309
0.00726354
0.00687738
0.00660209
0.00640558
0.00623456
0.0060656
0.00585609
0.00567587
0.0054701
0.00518773
0.00486866
0.00447947
0.0040038
0.00341422
0.0027624
0.00205852
0.00137074
0.000778612
0.000343318
0.000124687
0.999994
0.999994
0.999993
0.999993
0.999992
0.999992
0.999992
0.999991
0.999991
0.999991
0.99999
0.99999
0.99999
0.99999
0.99999
0.99999
0.99999
0.99999
0.99999
0.99999
0.99999
0.99999
0.99999
0.99999
0.99999
0.99999
0.99999
0.99999
0.99999
0.99999
0.99999
0.99999
0.99999
0.99999
0.99999
0.99999
0.99999
0.99999
0.99999
0.99999
0.99999
0.99999
0.99999
0.99999
0.99999
0.999989
0.999987
0.999982
0.999973
0.999953
0.999924
0.999907
0.999895
0.999887
0.99988
0.999874
0.999874
0.999866
0.999356
0.581773
0.030836
0.0244534
0.0256213
0.0261518
0.0265726
0.0270364
0.0274521
0.0278448
0.0281847
0.0285455
0.028888
0.0292164
0.0294566
0.0296265
0.0296907
0.0296986
0.0296171
0.0294902
0.0292793
0.0289812
0.0285475
0.0279845
0.0273886
0.0267842
0.0261088
0.0254221
0.0246532
0.023896
0.0232536
0.0226406
0.0219136
0.020953
0.0195876
0.0175064
0.0145707
0.0116895
0.999994
0.999994
0.999994
0.999993
0.999993
0.999992
0.999992
0.999991
0.999991
0.999991
0.99999
0.99999
0.99999
0.99999
0.99999
0.99999
0.99999
0.99999
0.99999
0.99999
0.99999
0.99999
0.99999
0.99999
0.99999
0.99999
0.99999
0.99999
0.99999
0.99999
0.99999
0.99999
0.99999
0.99999
0.99999
0.99999
0.99999
0.99999
0.99999
0.99999
0.99999
0.99999
0.99999
0.99999
0.99999
0.999989
0.999986
0.999981
0.999967
0.999944
0.999922
0.999909
0.999901
0.999898
0.999896
0.999893
0.999893
0.999889
0.998859
0.71474
0.0314621
0.0190418
0.0197363
0.019901
0.0203228
0.0210862
0.0220817
0.0232445
0.0245699
0.026012
0.0275543
0.0292246
0.0309806
0.0327723
0.0346398
0.0365807
0.038658
0.0408803
0.0432103
0.0456057
0.0480612
0.0506838
0.0536059
0.0568703
0.0604422
0.0642952
0.0684872
0.0732436
0.0788052
0.0853005
0.093217
0.103044
0.116283
0.137512
0.186417
0.382283
0.999994
0.999994
0.999994
0.999994
0.999993
0.999993
0.999992
0.999991
0.999991
0.999991
0.99999
0.99999
0.99999
0.99999
0.99999
0.99999
0.99999
0.99999
0.99999
0.99999
0.99999
0.99999
0.99999
0.99999
0.99999
0.99999
0.99999
0.99999
0.99999
0.99999
0.99999
0.99999
0.99999
0.99999
0.99999
0.99999
0.99999
0.99999
0.99999
0.99999
0.99999
0.99999
0.99999
0.99999
0.99999
0.999989
0.999986
0.99998
0.999969
0.999948
0.999927
0.999918
0.999909
0.999904
0.999899
0.999895
0.999894
0.999888
0.999804
0.838777
0.0205195
0.00534745
0.00494824
0.00406669
0.00367601
0.00333984
0.00322392
0.00322487
0.00329994
0.00340123
0.00352813
0.00363671
0.00376458
0.00392269
0.00414435
0.00441719
0.00474504
0.00507844
0.00541814
0.00579125
0.00619552
0.00660244
0.00695121
0.00725217
0.00755858
0.00798336
0.00845593
0.00888082
0.00922524
0.00958532
0.00992462
0.0104612
0.0113059
0.0121791
0.0128728
0.0120299
0.999995
0.999994
0.999994
0.999994
0.999994
0.999993
0.999992
0.999991
0.999991
0.999991
0.99999
0.99999
0.99999
0.99999
0.99999
0.99999
0.99999
0.99999
0.99999
0.99999
0.99999
0.99999
0.99999
0.99999
0.99999
0.99999
0.99999
0.99999
0.99999
0.99999
0.99999
0.99999
0.99999
0.99999
0.99999
0.99999
0.99999
0.99999
0.99999
0.99999
0.99999
0.99999
0.99999
0.99999
0.99999
0.999988
0.999986
0.999981
0.999973
0.999958
0.999939
0.999927
0.999919
0.99991
0.999902
0.999899
0.999899
0.999888
0.999896
0.896567
0.0125677
0.000698052
0.000577971
0.000384766
0.000320827
0.000266654
0.000258805
0.000263798
0.000276346
0.000289406
0.000304044
0.000316531
0.000327721
0.000336937
0.000344382
0.000351025
0.000358592
0.000364378
0.000372099
0.000386942
0.00041188
0.000459206
0.000521164
0.000597197
0.0006761
0.000752818
0.000841491
0.000927828
0.00102452
0.00113818
0.0012502
0.00131686
0.00128697
0.00100923
0.000605158
0.000265111
0.999995
0.999994
0.999994
0.999994
0.999994
0.999993
0.999992
0.999991
0.999991
0.999991
0.99999
0.99999
0.99999
0.99999
0.99999
0.99999
0.99999
0.99999
0.99999
0.99999
0.99999
0.99999
0.99999
0.99999
0.99999
0.99999
0.99999
0.99999
0.99999
0.99999
0.99999
0.99999
0.99999
0.99999
0.99999
0.99999
0.99999
0.99999
0.99999
0.99999
0.99999
0.99999
0.99999
0.99999
0.99999
0.999989
0.999987
0.999982
0.999974
0.999964
0.999949
0.999937
0.99993
0.999923
0.999915
0.999909
0.999905
0.999884
0.99988
0.932772
0.0149692
3.55481e-05
3.27146e-05
1.75644e-05
1.5214e-05
1.29367e-05
1.28083e-05
1.28615e-05
1.30688e-05
1.31364e-05
1.33532e-05
1.36285e-05
1.38856e-05
1.39328e-05
1.41008e-05
1.41211e-05
1.34775e-05
1.24815e-05
1.21413e-05
1.24916e-05
1.37085e-05
1.65448e-05
2.02098e-05
2.4535e-05
2.80488e-05
2.95927e-05
2.95403e-05
2.82484e-05
2.66542e-05
2.5075e-05
2.45216e-05
2.34593e-05
1.85329e-05
1.0582e-05
4.88997e-06
2.12111e-06
0.999995
0.999995
0.999994
0.999994
0.999994
0.999993
0.999992
0.999991
0.999991
0.999991
0.99999
0.99999
0.99999
0.99999
0.99999
0.99999
0.99999
0.99999
0.99999
0.99999
0.99999
0.99999
0.99999
0.99999
0.99999
0.99999
0.99999
0.99999
0.99999
0.99999
0.99999
0.99999
0.99999
0.99999
0.99999
0.99999
0.99999
0.99999
0.99999
0.99999
0.99999
0.99999
0.99999
0.99999
0.99999
0.999989
0.999988
0.999983
0.999975
0.999966
0.999955
0.999944
0.999937
0.999931
0.999926
0.99992
0.99991
0.999882
0.999828
0.954405
0.0218265
1.45569e-06
2.2184e-06
1.22851e-06
1.29141e-06
1.17931e-06
1.18024e-06
1.15125e-06
1.14217e-06
1.12287e-06
1.11469e-06
1.11061e-06
1.10116e-06
1.08472e-06
1.06735e-06
1.05056e-06
1.01779e-06
9.95579e-07
9.91006e-07
9.87955e-07
9.94929e-07
1.00452e-06
1.02069e-06
1.0348e-06
1.03399e-06
9.98403e-07
9.25241e-07
8.60674e-07
8.19551e-07
7.70712e-07
7.1996e-07
6.7395e-07
6.27881e-07
5.94604e-07
5.58924e-07
5.00415e-07
0.999996
0.999995
0.999995
0.999995
0.999994
0.999994
0.999992
0.999991
0.999991
0.999991
0.99999
0.99999
0.99999
0.99999
0.99999
0.99999
0.99999
0.99999
0.99999
0.99999
0.99999
0.99999
0.99999
0.99999
0.99999
0.99999
0.99999
0.99999
0.99999
0.99999
0.99999
0.99999
0.99999
0.99999
0.99999
0.99999
0.99999
0.99999
0.99999
0.99999
0.99999
0.99999
0.99999
0.99999
0.99999
0.99999
0.999988
0.999984
0.999976
0.999967
0.999957
0.999946
0.999938
0.99993
0.999924
0.999916
0.999904
0.99988
0.999756
0.960768
0.0328822
1.69113e-05
1.07762e-06
1.04198e-06
1.04788e-06
1.04091e-06
1.03319e-06
1.01889e-06
1.01022e-06
9.93384e-07
9.82844e-07
9.70703e-07
9.63101e-07
9.52806e-07
9.41718e-07
9.31601e-07
9.24504e-07
9.1505e-07
9.05606e-07
8.98977e-07
8.92483e-07
8.86214e-07
8.81289e-07
8.74662e-07
8.6465e-07
8.48858e-07
8.26421e-07
7.95365e-07
7.5668e-07
7.10817e-07
6.63438e-07
6.3136e-07
5.90713e-07
5.6262e-07
5.20551e-07
4.52247e-07
0.999996
0.999995
0.999995
0.999995
0.999995
0.999994
0.999993
0.999991
0.999991
0.999991
0.99999
0.99999
0.99999
0.99999
0.99999
0.99999
0.99999
0.99999
0.99999
0.99999
0.99999
0.99999
0.99999
0.99999
0.99999
0.99999
0.99999
0.99999
0.99999
0.99999
0.99999
0.99999
0.99999
0.99999
0.99999
0.99999
0.99999
0.99999
0.99999
0.99999
0.99999
0.99999
0.99999
0.99999
0.99999
0.99999
0.999988
0.999984
0.999976
0.999967
0.999957
0.999947
0.999938
0.999928
0.999917
0.999908
0.999895
0.999861
0.999655
0.954894
0.0362556
2.86445e-05
1.06957e-06
1.03265e-06
1.00941e-06
1.00099e-06
1.00113e-06
9.90612e-07
9.86591e-07
9.75568e-07
9.69038e-07
9.58895e-07
9.53123e-07
9.43803e-07
9.3468e-07
9.25164e-07
9.16833e-07
9.08634e-07
9.01032e-07
8.95028e-07
8.88754e-07
8.83693e-07
8.8035e-07
8.74325e-07
8.64733e-07
8.50101e-07
8.27401e-07
7.96838e-07
7.56044e-07
7.00645e-07
6.46851e-07
6.09574e-07
5.83198e-07
5.63567e-07
5.2968e-07
4.51996e-07
0.999997
0.999996
0.999996
0.999995
0.999995
0.999994
0.999994
0.999992
0.999991
0.999991
0.99999
0.99999
0.99999
0.99999
0.99999
0.99999
0.99999
0.99999
0.99999
0.99999
0.99999
0.99999
0.99999
0.99999
0.99999
0.99999
0.99999
0.99999
0.99999
0.99999
0.99999
0.99999
0.99999
0.99999
0.99999
0.99999
0.99999
0.99999
0.99999
0.99999
0.99999
0.99999
0.99999
0.99999
0.99999
0.99999
0.999988
0.999984
0.999976
0.999966
0.999957
0.999949
0.999937
0.999927
0.999913
0.999898
0.999883
0.999847
0.999639
0.935127
0.0325059
6.45333e-05
1.09553e-06
1.01046e-06
9.97533e-07
9.82764e-07
9.80681e-07
9.70261e-07
9.67025e-07
9.58169e-07
9.54066e-07
9.45244e-07
9.39243e-07
9.30905e-07
9.24307e-07
9.16907e-07
9.09973e-07
9.04163e-07
8.97968e-07
8.92577e-07
8.86982e-07
8.82451e-07
8.79585e-07
8.74088e-07
8.65075e-07
8.54242e-07
8.36786e-07
8.0615e-07
7.5974e-07
7.00106e-07
6.39368e-07
5.91118e-07
5.67013e-07
5.44731e-07
5.09699e-07
4.44834e-07
0.999998
0.999997
0.999996
0.999996
0.999995
0.999995
0.999994
0.999993
0.999991
0.999991
0.99999
0.99999
0.99999
0.99999
0.99999
0.99999
0.99999
0.99999
0.99999
0.99999
0.99999
0.99999
0.99999
0.99999
0.99999
0.99999
0.99999
0.99999
0.99999
0.99999
0.99999
0.99999
0.99999
0.99999
0.99999
0.99999
0.99999
0.99999
0.99999
0.99999
0.99999
0.99999
0.99999
0.99999
0.99999
0.99999
0.999988
0.999984
0.999976
0.999965
0.999955
0.999948
0.999942
0.999935
0.999922
0.999903
0.999888
0.999844
0.999471
0.95384
0.0518598
0.000388085
1.63428e-06
1.00712e-06
9.98655e-07
9.82639e-07
9.79603e-07
9.68449e-07
9.64372e-07
9.54415e-07
9.49352e-07
9.4072e-07
9.35279e-07
9.27933e-07
9.21881e-07
9.15687e-07
9.10604e-07
9.05052e-07
8.99288e-07
8.9503e-07
8.90257e-07
8.85998e-07