/*--------------------------------*- C++ -*----------------------------------*\
| =========                 |                                                 |
| \\      /  F ield         | OpenFOAM: The Open Source CFD Toolbox           |
|  \\    /   O peration     | Version:  2.3.0                                 |
|   \\  /    A nd           | Web:      www.OpenFOAM.org                      |
|    \\/     M anipulation  |                                                 |
\*---------------------------------------------------------------------------*/
FoamFile
{
    version     2.0;
    format      ascii;
    class       volScalarField;
    location    "24";
    object      dsauterMean;
}
// * * * * * * * * * * * * * * * * * * * * * * * * * * * * * * * * * * * * * //

dimensions      [0 0 0 0 0 0 0];

internalField   nonuniform List<scalar> 
6144
(
0.00833335
0.00833335
0.00833335
0.00833335
0.00833335
0.00833335
0.00833335
0.00833335
0.00833335
0.00833335
0.00833335
0.00833335
0.00833335
0.00833335
0.00833335
0.00833335
0.00833335
0.00833335
0.00833335
0.00833335
0.00833335
0.00833335
0.00833335
0.00833335
0.00833335
0.00833335
0.00833335
0.00833335
0.00833335
0.00833335
0.00833335
0.00833335
0.00833335
0.00833335
0.00833335
0.00833335
0.00833335
0.00833335
0.00833335
0.00833335
0.00833335
0.00833335
0.00833335
0.00833335
0.00833335
0.00833335
0.00833335
0.00833335
0.00833335
0.00833335
0.00833335
0.00833335
0.00833335
0.00833335
0.00833335
0.00833335
0.00833335
0.00833326
0.0083234
0.00834615
0.00833469
0.00833318
0.00328861
0.000374554
0.000365866
0.000359009
0.000352146
0.000341858
0.000334992
0.000326426
0.000319558
0.000310979
0.00030412
0.000297258
0.000290399
0.000281818
0.000274961
0.000268095
0.000261236
0.000254466
0.000247011
0.000241783
0.000232521
0.000229165
0.000221319
0.000216638
0.000209696
0.000204799
0.000199382
0.000196056
0.000192624
0.000189194
0.000187481
0.000185763
0.000187468
0.000185793
0.00833335
0.00833335
0.00833335
0.00833335
0.00833335
0.00833335
0.00833335
0.00833335
0.00833335
0.00833335
0.00833335
0.00833335
0.00833335
0.00833335
0.00833335
0.00833335
0.00833335
0.00833335
0.00833335
0.00833335
0.00833335
0.00833335
0.00833335
0.00833335
0.00833335
0.00833335
0.00833335
0.00833335
0.00833335
0.00833335
0.00833335
0.00833335
0.00833335
0.00833335
0.00833335
0.00833335
0.00833335
0.00833335
0.00833335
0.00833335
0.00833335
0.00833335
0.00833335
0.00833335
0.00833335
0.00833335
0.00833335
0.00833335
0.00833335
0.00833335
0.00833335
0.00833335
0.00833335
0.00833335
0.00833335
0.00833335
0.00833335
0.00833312
0.00832405
0.00834437
0.00839691
0.00832903
0.000465355
0.000376169
0.000367464
0.000360409
0.000352104
0.00034357
0.000336748
0.000328579
0.000321402
0.000312457
0.000305783
0.000297223
0.000289221
0.000281604
0.000275233
0.000268919
0.000260501
0.000254301
0.000247941
0.00024052
0.000234287
0.000228667
0.000221812
0.000216769
0.000211493
0.000206348
0.000201205
0.000196056
0.000192626
0.00019091
0.000187058
0.000187641
0.000187496
0.000187513
0.00833335
0.00833335
0.00833335
0.00833335
0.00833335
0.00833335
0.00833335
0.00833335
0.00833335
0.00833335
0.00833335
0.00833335
0.00833335
0.00833335
0.00833335
0.00833335
0.00833335
0.00833335
0.00833335
0.00833335
0.00833335
0.00833335
0.00833335
0.00833335
0.00833335
0.00833335
0.00833335
0.00833335
0.00833335
0.00833335
0.00833335
0.00833335
0.00833335
0.00833335
0.00833335
0.00833335
0.00833335
0.00833335
0.00833335
0.00833335
0.00833335
0.00833335
0.00833335
0.00833335
0.00833335
0.00833335
0.00833335
0.00833335
0.00833335
0.00833335
0.00833335
0.00833335
0.00833335
0.00833335
0.00833335
0.00833335
0.00833335
0.00833335
0.0083337
0.00835812
0.00771879
0.00532637
0.000515095
0.000376745
0.000365618
0.000359009
0.000350234
0.000342169
0.000334998
0.000323701
0.000319024
0.000309293
0.00030432
0.000295974
0.000291644
0.000282207
0.000275095
0.000268528
0.000260118
0.000255178
0.000248106
0.000240653
0.000235508
0.000228639
0.000221669
0.000216643
0.000211493
0.000206349
0.000201203
0.000196056
0.000192837
0.000190739
0.00018751
0.000186669
0.000189646
0.000187633
0.00833335
0.00833335
0.00833335
0.00833335
0.00833335
0.00833335
0.00833335
0.00833335
0.00833335
0.00833335
0.00833335
0.00833335
0.00833335
0.00833335
0.00833335
0.00833335
0.00833335
0.00833335
0.00833335
0.00833335
0.00833335
0.00833335
0.00833335
0.00833335
0.00833335
0.00833335
0.00833335
0.00833335
0.00833335
0.00833335
0.00833335
0.00833335
0.00833335
0.00833335
0.00833335
0.00833335
0.00833335
0.00833335
0.00833335
0.00833335
0.00833335
0.00833335
0.00833335
0.00833335
0.00833335
0.00833335
0.00833335
0.00833335
0.00833335
0.00833335
0.00833335
0.00833335
0.00833335
0.00833335
0.00833335
0.00833335
0.00833335
0.00833335
0.00832972
0.00833712
0.0083507
0.00289035
0.00105198
0.000559744
0.000551108
0.000436578
0.000439215
0.000419044
0.000411846
0.000395564
0.000386455
0.000381294
0.000364153
0.000338426
0.000309264
0.000286969
0.000274957
0.000268084
0.00026043
0.000254609
0.000247535
0.000239828
0.000234272
0.000229102
0.000221405
0.000216631
0.000211495
0.000206607
0.000200476
0.000196056
0.000192633
0.000190328
0.000188146
0.000187474
0.000187479
0.000189194
0.00833335
0.00833335
0.00833335
0.00833335
0.00833335
0.00833335
0.00833335
0.00833335
0.00833335
0.00833335
0.00833335
0.00833335
0.00833335
0.00833335
0.00833335
0.00833335
0.00833335
0.00833335
0.00833335
0.00833335
0.00833335
0.00833335
0.00833335
0.00833335
0.00833335
0.00833335
0.00833335
0.00833335
0.00833335
0.00833335
0.00833335
0.00833335
0.00833335
0.00833335
0.00833335
0.00833335
0.00833335
0.00833335
0.00833335
0.00833335
0.00833335
0.00833335
0.00833335
0.00833335
0.00833335
0.00833335
0.00833335
0.00833335
0.00833335
0.00833335
0.00833335
0.00833335
0.00833335
0.00833335
0.00833335
0.00833335
0.00833335
0.00833335
0.00833328
0.00835307
0.00736757
0.00832472
0.00828132
0.0082875
0.00796663
0.00586587
0.00602473
0.00568056
0.00571971
0.00572208
0.00577582
0.0057661
0.00568074
0.00561426
0.00549139
0.00527912
0.00498157
0.00441391
0.00381852
0.00317569
0.00247758
0.00182721
0.0012124
0.000525737
0.000252659
0.000215395
0.000210269
0.000205078
0.000199634
0.000195815
0.000192625
0.000189194
0.000185758
0.000185756
0.000187488
0.000187479
0.00833335
0.00833335
0.00833335
0.00833335
0.00833335
0.00833335
0.00833335
0.00833335
0.00833335
0.00833335
0.00833335
0.00833335
0.00833335
0.00833335
0.00833335
0.00833335
0.00833335
0.00833335
0.00833335
0.00833335
0.00833335
0.00833335
0.00833335
0.00833335
0.00833335
0.00833335
0.00833335
0.00833335
0.00833335
0.00833335
0.00833335
0.00833335
0.00833335
0.00833335
0.00833335
0.00833335
0.00833335
0.00833335
0.00833335
0.00833335
0.00833335
0.00833335
0.00833335
0.00833335
0.00833335
0.00833335
0.00833335
0.00833335
0.00833335
0.00833335
0.00833335
0.00833335
0.00833335
0.00833335
0.00833335
0.00833335
0.00833335
0.00833335
0.00833335
0.00834653
0.00727272
0.00759461
0.00790031
0.00833055
0.00816954
0.00826077
0.00830521
0.00814486
0.00825582
0.00797817
0.00840996
0.00797478
0.00823265
0.00826833
0.00833185
0.00817706
0.00827247
0.00823474
0.00798413
0.00816768
0.00794153
0.00779791
0.00772091
0.00736221
0.00688241
0.00570323
0.00507893
0.00383354
0.0017009
0.000694969
0.000194652
0.000188746
0.000187555
0.000184237
0.000183999
0.000187614
0.00833335
0.00833335
0.00833335
0.00833335
0.00833335
0.00833335
0.00833335
0.00833335
0.00833335
0.00833335
0.00833335
0.00833335
0.00833335
0.00833335
0.00833335
0.00833335
0.00833335
0.00833335
0.00833335
0.00833335
0.00833335
0.00833335
0.00833335
0.00833335
0.00833335
0.00833335
0.00833335
0.00833335
0.00833335
0.00833335
0.00833335
0.00833335
0.00833335
0.00833335
0.00833335
0.00833335
0.00833335
0.00833335
0.00833335
0.00833335
0.00833335
0.00833335
0.00833335
0.00833335
0.00833335
0.00833335
0.00833335
0.00833335
0.00833335
0.00833335
0.00833335
0.00833335
0.00833335
0.00833335
0.00833335
0.00833335
0.00833335
0.00833333
0.00833362
0.00833322
0.00833241
0.00925017
0.00590386
0.00833443
0.00818723
0.00794335
0.00830366
0.00714891
0.0080113
0.00771762
0.00801328
0.00781144
0.00827667
0.00776456
0.00817104
0.00782251
0.0089664
0.00713409
0.00823186
0.00838054
0.00778164
0.00854851
0.00827741
0.00828282
0.00825364
0.00780416
0.00797119
0.00849924
0.00810125
0.00740903
0.00653992
0.0059833
0.00599457
0.00471901
0.0040739
0.00608318
0.00833335
0.00833335
0.00833335
0.00833335
0.00833335
0.00833335
0.00833335
0.00833335
0.00833335
0.00833335
0.00833335
0.00833335
0.00833335
0.00833335
0.00833335
0.00833335
0.00833335
0.00833335
0.00833335
0.00833335
0.00833335
0.00833335
0.00833335
0.00833335
0.00833335
0.00833335
0.00833335
0.00833335
0.00833335
0.00833335
0.00833335
0.00833335
0.00833335
0.00833335
0.00833335
0.00833335
0.00833335
0.00833335
0.00833335
0.00833335
0.00833335
0.00833335
0.00833335
0.00833335
0.00833335
0.00833335
0.00833335
0.00833335
0.00833335
0.00833335
0.00833335
0.00833335
0.00833335
0.00833335
0.00833335
0.00833335
0.00833335
0.00833337
0.00833333
0.00833315
0.008309
0.00840052
0.0083412
0.00828698
0.00833375
0.00820108
0.00797785
0.00885275
0.00810493
0.00840923
0.00816653
0.00831306
0.00832215
0.00833052
0.00835056
0.00836113
0.00811431
0.00833531
0.00832323
0.00831591
0.00832021
0.00831461
0.00829683
0.00828486
0.00829272
0.00824622
0.00828995
0.00817737
0.00798483
0.00826492
0.00786714
0.00754086
0.00776123
0.00717312
0.00758541
0.0081752
0.00833335
0.00833335
0.00833335
0.00833335
0.00833335
0.00833335
0.00833335
0.00833335
0.00833335
0.00833335
0.00833335
0.00833335
0.00833335
0.00833335
0.00833335
0.00833335
0.00833335
0.00833335
0.00833335
0.00833335
0.00833335
0.00833335
0.00833335
0.00833335
0.00833335
0.00833335
0.00833335
0.00833335
0.00833335
0.00833335
0.00833335
0.00833335
0.00833335
0.00833335
0.00833335
0.00833335
0.00833335
0.00833335
0.00833335
0.00833335
0.00833335
0.00833335
0.00833335
0.00833335
0.00833335
0.00833335
0.00833335
0.00833335
0.00833335
0.00833335
0.00833335
0.00833335
0.00833335
0.00833335
0.00833335
0.00833335
0.00833336
0.00833332
0.00833366
0.00833614
0.00798054
0.00789675
0.00779682
0.00759436
0.00826463
0.00715988
0.00765853
0.00808033
0.008055
0.00789757
0.00772527
0.00842527
0.007586
0.00848967
0.00778544
0.00821229
0.00830196
0.00832994
0.00813283
0.00801573
0.00830307
0.00801383
0.00801147
0.00824115
0.00809773
0.00842177
0.00813066
0.00844863
0.00798996
0.0083545
0.00822327
0.00814163
0.00826741
0.0083023
0.00682329
0.00678907
0.00833335
0.00833335
0.00833335
0.00833335
0.00833335
0.00833335
0.00833335
0.00833335
0.00833335
0.00833335
0.00833335
0.00833335
0.00833335
0.00833335
0.00833335
0.00833335
0.00833335
0.00833335
0.00833335
0.00833335
0.00833335
0.00833335
0.00833335
0.00833335
0.00833335
0.00833335
0.00833335
0.00833335
0.00833335
0.00833335
0.00833335
0.00833335
0.00833335
0.00833335
0.00833335
0.00833335
0.00833335
0.00833335
0.00833335
0.00833335
0.00833335
0.00833335
0.00833335
0.00833335
0.00833335
0.00833335
0.00833335
0.00833335
0.00833335
0.00833335
0.00833335
0.00833335
0.00833335
0.00833335
0.00833335
0.00833335
0.00833335
0.00833336
0.00833316
0.0083353
0.00826578
0.00832101
0.00731855
0.0082879
0.00822747
0.00751393
0.00735627
0.00724408
0.00700219
0.00701308
0.0068133
0.00678972
0.00634114
0.00641553
0.00606516
0.00576384
0.00542043
0.00495369
0.00458268
0.00416329
0.00368013
0.00340505
0.00310213
0.00329388
0.00332534
0.00349163
0.00359834
0.00347846
0.00361975
0.00362586
0.00351947
0.00326098
0.00341972
0.00323975
0.0027882
0.00227697
0.00833335
0.00833335
0.00833335
0.00833335
0.00833335
0.00833335
0.00833335
0.00833335
0.00833335
0.00833335
0.00833335
0.00833335
0.00833335
0.00833335
0.00833335
0.00833335
0.00833335
0.00833335
0.00833335
0.00833335
0.00833335
0.00833335
0.00833335
0.00833335
0.00833335
0.00833335
0.00833335
0.00833335
0.00833335
0.00833335
0.00833335
0.00833335
0.00833335
0.00833335
0.00833335
0.00833335
0.00833335
0.00833335
0.00833335
0.00833335
0.00833335
0.00833335
0.00833335
0.00833335
0.00833335
0.00833335
0.00833335
0.00833335
0.00833335
0.00833335
0.00833335
0.00833335
0.00833335
0.00833335
0.00833335
0.00833335
0.00833335
0.00833394
0.00831267
0.00833693
0.00833439
0.00782836
0.00706222
0.00602754
0.00601272
0.00537527
0.00544424
0.00487532
0.00442093
0.00400431
0.00343346
0.00298118
0.00255444
0.002206
0.00178441
0.00164602
0.00155981
0.00152679
0.00148831
0.00144033
0.00141046
0.00137853
0.00133178
0.00131087
0.00127341
0.0012881
0.00126635
0.00121132
0.00114774
0.00104444
0.000943681
0.000739937
0.000241156
0.000191026
0.000186697
0.000187479
0.00833335
0.00833335
0.00833335
0.00833335
0.00833335
0.00833335
0.00833335
0.00833335
0.00833335
0.00833335
0.00833335
0.00833335
0.00833335
0.00833335
0.00833335
0.00833335
0.00833335
0.00833335
0.00833335
0.00833335
0.00833335
0.00833335
0.00833335
0.00833335
0.00833335
0.00833335
0.00833335
0.00833335
0.00833335
0.00833335
0.00833335
0.00833335
0.00833335
0.00833335
0.00833335
0.00833335
0.00833335
0.00833335
0.00833335
0.00833335
0.00833335
0.00833335
0.00833335
0.00833335
0.00833335
0.00833335
0.00833335
0.00833335
0.00833335
0.00833335
0.00833335
0.00833335
0.00833335
0.00833335
0.00833335
0.00833335
0.00833335
0.00833334
0.00833398
0.00835208
0.008331
0.00269298
0.0010208
0.000534187
0.000521393
0.00048956
0.000461532
0.000427799
0.000402537
0.00036897
0.00034357
0.000343428
0.000329681
0.000298978
0.000290396
0.000283534
0.000276666
0.0002681
0.000261231
0.000254322
0.000247506
0.000239883
0.000236311
0.00022864
0.000221784
0.000216639
0.000211499
0.000204637
0.000201201
0.000196535
0.000192061
0.000189194
0.000185786
0.000187469
0.000187482
0.000189194
0.00833335
0.00833335
0.00833335
0.00833335
0.00833335
0.00833335
0.00833335
0.00833335
0.00833335
0.00833335
0.00833335
0.00833335
0.00833335
0.00833335
0.00833335
0.00833335
0.00833335
0.00833335
0.00833335
0.00833335
0.00833335
0.00833335
0.00833335
0.00833335
0.00833335
0.00833335
0.00833335
0.00833335
0.00833335
0.00833335
0.00833335
0.00833335
0.00833335
0.00833335
0.00833335
0.00833335
0.00833335
0.00833335
0.00833335
0.00833335
0.00833335
0.00833335
0.00833335
0.00833335
0.00833335
0.00833335
0.00833335
0.00833335
0.00833335
0.00833335
0.00833335
0.00833335
0.00833335
0.00833335
0.00833335
0.00833335
0.00833335
0.00833335
0.00833333
0.00833819
0.00833509
0.00289588
0.000715769
0.000376149
0.00036758
0.000359008
0.000352146
0.000343561
0.000336708
0.000325679
0.000322221
0.000310979
0.000305834
0.000297258
0.000290383
0.000281841
0.000275018
0.000266827
0.000261401
0.000254375
0.000247503
0.000240627
0.000235567
0.000228017
0.000222014
0.000217141
0.000211494
0.000205305
0.000201229
0.000196085
0.000192621
0.00019091
0.000187479
0.000187479
0.000189194
0.000189194
0.00833335
0.00833335
0.00833335
0.00833335
0.00833335
0.00833335
0.00833335
0.00833335
0.00833335
0.00833335
0.00833335
0.00833335
0.00833335
0.00833335
0.00833335
0.00833335
0.00833335
0.00833335
0.00833335
0.00833335
0.00833335
0.00833335
0.00833335
0.00833335
0.00833335
0.00833335
0.00833335
0.00833335
0.00833335
0.00833335
0.00833335
0.00833335
0.00833335
0.00833335
0.00833335
0.00833335
0.00833335
0.00833335
0.00833335
0.00833335
0.00833335
0.00833335
0.00833335
0.00833335
0.00833335
0.00833335
0.00833335
0.00833335
0.00833335
0.00833335
0.00833335
0.00833335
0.00833335
0.00833335
0.00833335
0.00833335
0.00833335
0.00833335
0.00833335
0.00832838
0.00833337
0.00693242
0.000496244
0.00037616
0.000367584
0.000358964
0.000352217
0.000343555
0.000334998
0.000326413
0.000319559
0.000310979
0.000304164
0.000297258
0.000289836
0.000283424
0.000274436
0.000267193
0.000260342
0.000254375
0.000247511
0.000240864
0.000234533
0.000229946
0.000221755
0.000216595
0.000211441
0.000206346
0.000201202
0.000196031
0.000192543
0.000190712
0.000187863
0.000187479
0.000189194
0.000189194
0.00833335
0.00833335
0.00833335
0.00833335
0.00833335
0.00833335
0.00833335
0.00833335
0.00833335
0.00833335
0.00833335
0.00833335
0.00833335
0.00833335
0.00833335
0.00833335
0.00833335
0.00833335
0.00833335
0.00833335
0.00833335
0.00833335
0.00833335
0.00833335
0.00833335
0.00833335
0.00833335
0.00833335
0.00833335
0.00833335
0.00833335
0.00833335
0.00833335
0.00833335
0.00833335
0.00833335
0.00833335
0.00833335
0.00833335
0.00833335
0.00833335
0.00833335
0.00833335
0.00833335
0.00833335
0.00833335
0.00833335
0.00833335
0.00833335
0.00833335
0.00833335
0.00833335
0.00833335
0.00833335
0.00833335
0.00833335
0.00833335
0.00833335
0.00833278
0.00830098
0.00909715
0.00758333
0.000503074
0.000374428
0.00036775
0.000358854
0.000352126
0.000343571
0.000334988
0.000325761
0.000321678
0.000312695
0.000305748
0.000297258
0.000290396
0.000283535
0.000277026
0.000269828
0.000259302
0.000255566
0.000247501
0.000240134
0.000235858
0.000228678
0.000221935
0.000214347
0.000212373
0.000205618
0.000200743
0.000196197
0.000192145
0.000191469
0.000187394
0.000187479
0.000189196
0.000189194
0.00833335
0.00833335
0.00833335
0.00833335
0.00833335
0.00833335
0.00833335
0.00833335
0.00833335
0.00833335
0.00833335
0.00833335
0.00833335
0.00833335
0.00833335
0.00833335
0.00833335
0.00833335
0.00833335
0.00833335
0.00833335
0.00833335
0.00833335
0.00833335
0.00833335
0.00833335
0.00833335
0.00833335
0.00833335
0.00833335
0.00833335
0.00833335
0.00833335
0.00833335
0.00833335
0.00833335
0.00833335
0.00833335
0.00833335
0.00833335
0.00833335
0.00833335
0.00833335
0.00833335
0.00833335
0.00833335
0.00833335
0.00833335
0.00833335
0.00833335
0.00833335
0.00833335
0.00833335
0.00833335
0.00833335
0.00833335
0.00833335
0.00833334
0.00832943
0.00833747
0.00833726
0.00798336
0.00486797
0.000374674
0.00036735
0.000359004
0.000352436
0.000341565
0.000335056
0.000328132
0.00031958
0.00031271
0.000306824
0.000297016
0.000290863
0.000283781
0.000274774
0.000268096
0.000261236
0.000255041
0.000246978
0.000240653
0.000235449
0.000228379
0.000221788
0.000216644
0.000210728
0.000207152
0.000201251
0.000196056
0.000192626
0.000190989
0.000187488
0.000187479
0.000189162
0.000189224
0.00833335
0.00833335
0.00833335
0.00833335
0.00833335
0.00833335
0.00833335
0.00833335
0.00833335
0.00833335
0.00833335
0.00833335
0.00833335
0.00833335
0.00833335
0.00833335
0.00833335
0.00833335
0.00833335
0.00833335
0.00833335
0.00833335
0.00833335
0.00833335
0.00833335
0.00833335
0.00833335
0.00833335
0.00833335
0.00833335
0.00833335
0.00833335
0.00833335
0.00833335
0.00833335
0.00833335
0.00833335
0.00833335
0.00833335
0.00833335
0.00833335
0.00833335
0.00833335
0.00833335
0.00833335
0.00833335
0.00833335
0.00833335
0.00833335
0.00833335
0.00833335
0.00833335
0.00833335
0.00833335
0.00833335
0.00833335
0.00833335
0.00833295
0.00833359
0.00833179
0.00833327
0.00833334
0.00690966
0.000374441
0.000365871
0.000359541
0.000349333
0.000342693
0.000334871
0.000326399
0.000319398
0.000311011
0.000304121
0.000297256
0.000290926
0.000281951
0.000274959
0.000268112
0.000261235
0.000254374
0.000247334
0.000240913
0.000235508
0.000229103
0.000220948
0.000217364
0.000211493
0.000206369
0.000201518
0.000195926
0.000192471
0.000190981
0.00018748
0.000187479
0.000187479
0.000187479
0.00833335
0.00833335
0.00833335
0.00833335
0.00833335
0.00833335
0.00833335
0.00833335
0.00833335
0.00833335
0.00833335
0.00833335
0.00833335
0.00833335
0.00833335
0.00833335
0.00833335
0.00833335
0.00833335
0.00833335
0.00833335
0.00833335
0.00833335
0.00833335
0.00833335
0.00833335
0.00833335
0.00833335
0.00833335
0.00833335
0.00833335
0.00833335
0.00833335
0.00833335
0.00833335
0.00833335
0.00833335
0.00833335
0.00833335
0.00833335
0.00833335
0.00833335
0.00833335
0.00833335
0.00833335
0.00833335
0.00833335
0.00833335
0.00833335
0.00833335
0.00833335
0.00833335
0.00833335
0.00833335
0.00833335
0.00833335
0.00833335
0.00833334
0.00833345
0.00833347
0.00842197
0.00832142
0.000653614
0.000376164
0.000366644
0.000358924
0.000351359
0.00034207
0.000336588
0.000326451
0.000319792
0.000312695
0.000304119
0.000297258
0.000291181
0.000282802
0.000276674
0.000268097
0.000261206
0.000254389
0.000247514
0.000242373
0.000235508
0.000229272
0.000222566
0.000216639
0.000211493
0.000206347
0.000201202
0.000196056
0.000192625
0.00019091
0.000187828
0.000187755
0.000189367
0.000187453
0.00833335
0.00833335
0.00833335
0.00833335
0.00833335
0.00833335
0.00833335
0.00833335
0.00833335
0.00833335
0.00833335
0.00833335
0.00833335
0.00833335
0.00833335
0.00833335
0.00833335
0.00833335
0.00833335
0.00833335
0.00833335
0.00833335
0.00833335
0.00833335
0.00833335
0.00833335
0.00833335
0.00833335
0.00833335
0.00833335
0.00833335
0.00833335
0.00833335
0.00833335
0.00833335
0.00833335
0.00833335
0.00833335
0.00833335
0.00833335
0.00833335
0.00833335
0.00833335
0.00833335
0.00833335
0.00833335
0.00833335
0.00833335
0.00833335
0.00833335
0.00833335
0.00833335
0.00833335
0.00833335
0.00833335
0.00833335
0.00833335
0.00833335
0.00833796
0.00832841
0.00826795
0.00116291
0.00137634
0.000396751
0.000379468
0.000365869
0.000360721
0.00034357
0.000336223
0.000328044
0.000321859
0.000312696
0.000305834
0.00029715
0.000291593
0.000282159
0.000276673
0.000270604
0.000260537
0.000255097
0.000248392
0.000241834
0.000234526
0.000229213
0.000223704
0.000216468
0.000211493
0.000206343
0.000201333
0.000195602
0.000192509
0.000190904
0.000187253
0.000187693
0.000189194
0.000189194
0.00833335
0.00833335
0.00833335
0.00833335
0.00833335
0.00833335
0.00833335
0.00833335
0.00833335
0.00833335
0.00833335
0.00833335
0.00833335
0.00833335
0.00833335
0.00833335
0.00833335
0.00833335
0.00833335
0.00833335
0.00833335
0.00833335
0.00833335
0.00833335
0.00833335
0.00833335
0.00833335
0.00833335
0.00833335
0.00833335
0.00833335
0.00833335
0.00833335
0.00833335
0.00833335
0.00833335
0.00833335
0.00833335
0.00833335
0.00833335
0.00833335
0.00833335
0.00833335
0.00833335
0.00833335
0.00833335
0.00833335
0.00833335
0.00833335
0.00833335
0.00833335
0.00833335
0.00833335
0.00833335
0.00833335
0.00833335
0.00833335
0.00833335
0.00833333
0.00834786
0.0078203
0.00193218
0.00805204
0.00204211
0.00306739
0.00177098
0.00188701
0.00183789
0.00182544
0.00178442
0.00174839
0.00168548
0.00158477
0.0015061
0.00141237
0.00124812
0.00110142
0.00099296
0.000865424
0.000714752
0.000554494
0.000372616
0.000268094
0.000228821
0.00022055
0.000217321
0.000211478
0.000207458
0.000200283
0.000195639
0.00019284
0.000189452
0.000185801
0.000187485
0.000187443
0.000189233
0.00833335
0.00833335
0.00833335
0.00833335
0.00833335
0.00833335
0.00833335
0.00833335
0.00833335
0.00833335
0.00833335
0.00833335
0.00833335
0.00833335
0.00833335
0.00833335
0.00833335
0.00833335
0.00833335
0.00833335
0.00833335
0.00833335
0.00833335
0.00833335
0.00833335
0.00833335
0.00833335
0.00833335
0.00833335
0.00833335
0.00833335
0.00833335
0.00833335
0.00833335
0.00833335
0.00833335
0.00833335
0.00833335
0.00833335
0.00833335
0.00833335
0.00833335
0.00833335
0.00833335
0.00833335
0.00833335
0.00833335
0.00833335
0.00833335
0.00833335
0.00833335
0.00833335
0.00833335
0.00833335
0.00833335
0.00833335
0.00833335
0.00833335
0.00833334
0.00834088
0.00733397
0.0076729
0.00829381
0.00827152
0.00824475
0.00829014
0.00836093
0.0081087
0.00802189
0.00781109
0.0078024
0.00777241
0.00780832
0.00785203
0.0076906
0.00753506
0.00754933
0.00745278
0.00719907
0.0066427
0.00594362
0.00507697
0.00438338
0.00352209
0.00263006
0.00176524
0.00092506
0.000266448
0.000214974
0.000201666
0.000192638
0.000190913
0.000187447
0.000185782
0.000187488
0.000187479
0.00833335
0.00833335
0.00833335
0.00833335
0.00833335
0.00833335
0.00833335
0.00833335
0.00833335
0.00833335
0.00833335
0.00833335
0.00833335
0.00833335
0.00833335
0.00833335
0.00833335
0.00833335
0.00833335
0.00833335
0.00833335
0.00833335
0.00833335
0.00833335
0.00833335
0.00833335
0.00833335
0.00833335
0.00833335
0.00833335
0.00833335
0.00833335
0.00833335
0.00833335
0.00833335
0.00833335
0.00833335
0.00833335
0.00833335
0.00833335
0.00833335
0.00833335
0.00833335
0.00833335
0.00833335
0.00833335
0.00833335
0.00833335
0.00833335
0.00833335
0.00833335
0.00833335
0.00833335
0.00833335
0.00833335
0.00833335
0.00833335
0.00833335
0.00833337
0.00832065
0.00959933
0.00830111
0.00833389
0.00881228
0.00708648
0.00832565
0.00788675
0.00847505
0.00836725
0.00825096
0.00830854
0.00778028
0.00861773
0.00834397
0.00833498
0.00925992
0.00675195
0.00914434
0.00723475
0.0085858
0.00892633
0.00833055
0.00781603
0.00847265
0.00719002
0.00825583
0.00757465
0.00770087
0.00644378
0.00512318
0.00354147
0.00184557
0.000189969
0.000183492
0.000187364
0.000187577
0.00833335
0.00833335
0.00833335
0.00833335
0.00833335
0.00833335
0.00833335
0.00833335
0.00833335
0.00833335
0.00833335
0.00833335
0.00833335
0.00833335
0.00833335
0.00833335
0.00833335
0.00833335
0.00833335
0.00833335
0.00833335
0.00833335
0.00833335
0.00833335
0.00833335
0.00833335
0.00833335
0.00833335
0.00833335
0.00833335
0.00833335
0.00833335
0.00833335
0.00833335
0.00833335
0.00833335
0.00833335
0.00833335
0.00833335
0.00833335
0.00833335
0.00833335
0.00833335
0.00833335
0.00833335
0.00833335
0.00833335
0.00833335
0.00833335
0.00833335
0.00833335
0.00833335
0.00833335
0.00833335
0.00833335
0.00833335
0.00833335
0.00833336
0.00833334
0.00829171
0.00917453
0.00828475
0.0083007
0.0083169
0.00832294
0.00832556
0.00832632
0.00826862
0.00814287
0.00859396
0.00820498
0.00831971
0.00828641
0.00813426
0.00851757
0.00833577
0.00832432
0.00831503
0.00835427
0.00825761
0.00828044
0.00833061
0.00821484
0.00780651
0.00870082
0.00832857
0.00832601
0.00831042
0.00823953
0.00707551
0.00828991
0.0082796
0.00833337
0.00839748
0.00832545
0.00822287
0.00833335
0.00833335
0.00833335
0.00833335
0.00833335
0.00833335
0.00833335
0.00833335
0.00833335
0.00833335
0.00833335
0.00833335
0.00833335
0.00833335
0.00833335
0.00833335
0.00833335
0.00833335
0.00833335
0.00833335
0.00833335
0.00833335
0.00833335
0.00833335
0.00833335
0.00833335
0.00833335
0.00833335
0.00833335
0.00833335
0.00833335
0.00833335
0.00833335
0.00833335
0.00833335
0.00833335
0.00833335
0.00833335
0.00833335
0.00833335
0.00833335
0.00833335
0.00833335
0.00833335
0.00833335
0.00833335
0.00833335
0.00833335
0.00833335
0.00833335
0.00833335
0.00833335
0.00833335
0.00833335
0.00833335
0.00833335
0.00833335
0.00833311
0.00833355
0.00829693
0.0087356
0.00838415
0.00805425
0.00836309
0.00817323
0.00834122
0.00833146
0.00822647
0.00825529
0.00827024
0.0083585
0.00828929
0.00833756
0.00832877
0.00832858
0.00833344
0.00833521
0.00833148
0.00833375
0.00833573
0.00831994
0.00830504
0.00832596
0.00830029
0.0083187
0.00833186
0.00831593
0.00832223
0.00838136
0.00832309
0.0083402
0.00835333
0.00839763
0.00821235
0.00835942
0.00833333
0.00833335
0.00833335
0.00833335
0.00833335
0.00833335
0.00833335
0.00833335
0.00833335
0.00833335
0.00833335
0.00833335
0.00833335
0.00833335
0.00833335
0.00833335
0.00833335
0.00833335
0.00833335
0.00833335
0.00833335
0.00833335
0.00833335
0.00833335
0.00833335
0.00833335
0.00833335
0.00833335
0.00833335
0.00833335
0.00833335
0.00833335
0.00833335
0.00833335
0.00833335
0.00833335
0.00833335
0.00833335
0.00833335
0.00833335
0.00833335
0.00833335
0.00833335
0.00833335
0.00833335
0.00833335
0.00833335
0.00833335
0.00833335
0.00833335
0.00833335
0.00833335
0.00833335
0.00833335
0.00833335
0.00833335
0.00833335
0.00833335
0.00833334
0.00833317
0.00832839
0.00761401
0.00889177
0.00797306
0.00815492
0.00826718
0.0083264
0.00833937
0.00828372
0.00831795
0.00837891
0.00836146
0.00821491
0.00829366
0.00833065
0.00827154
0.0083291
0.00807676
0.00812339
0.00811536
0.00830925
0.00831543
0.00833199
0.00827919
0.00832069
0.00826061
0.00787134
0.0084953
0.00833025
0.0081795
0.00834456
0.00827954
0.008386
0.00833294
0.0083333
0.00833212
0.00833361
0.00833335
0.00833335
0.00833335
0.00833335
0.00833335
0.00833335
0.00833335
0.00833335
0.00833335
0.00833335
0.00833335
0.00833335
0.00833335
0.00833335
0.00833335
0.00833335
0.00833335
0.00833335
0.00833335
0.00833335
0.00833335
0.00833335
0.00833335
0.00833335
0.00833335
0.00833335
0.00833335
0.00833335
0.00833335
0.00833335
0.00833335
0.00833335
0.00833335
0.00833335
0.00833335
0.00833335
0.00833335
0.00833335
0.00833335
0.00833335
0.00833335
0.00833335
0.00833335
0.00833335
0.00833335
0.00833335
0.00833335
0.00833335
0.00833335
0.00833335
0.00833335
0.00833335
0.00833335
0.00833335
0.00833335
0.00833335
0.00833335
0.00833335
0.00833334
0.00832998
0.00863977
0.00846836
0.00831441
0.00843996
0.00830513
0.00830128
0.00834125
0.00814226
0.00840915
0.00813195
0.0080147
0.00790938
0.00813212
0.00800689
0.00819242
0.00828062
0.00826844
0.00830799
0.00841377
0.0083931
0.00828927
0.00813747
0.0084287
0.00824849
0.00820996
0.00823456
0.00811418
0.00683936
0.00619111
0.00488788
0.0043333
0.00411245
0.00416694
0.00408499
0.00372145
0.00166775
0.00833335
0.00833335
0.00833335
0.00833335
0.00833335
0.00833335
0.00833335
0.00833335
0.00833335
0.00833335
0.00833335
0.00833335
0.00833335
0.00833335
0.00833335
0.00833335
0.00833335
0.00833335
0.00833335
0.00833335
0.00833335
0.00833335
0.00833335
0.00833335
0.00833335
0.00833335
0.00833335
0.00833335
0.00833335
0.00833335
0.00833335
0.00833335
0.00833335
0.00833335
0.00833335
0.00833335
0.00833335
0.00833335
0.00833335
0.00833335
0.00833335
0.00833335
0.00833335
0.00833335
0.00833335
0.00833335
0.00833335
0.00833335
0.00833335
0.00833335
0.00833335
0.00833335
0.00833335
0.00833335
0.00833335
0.00833335
0.00833335
0.00833334
0.00833299
0.00833322
0.00831723
0.00139815
0.00771443
0.0036812
0.00421656
0.00322858
0.00287252
0.00229009
0.00196528
0.00156836
0.00130336
0.00113668
0.00111475
0.00109149
0.00108117
0.0010706
0.00106397
0.00104851
0.00103554
0.00101134
0.0010165
0.000989751
0.000972773
0.000947326
0.000897925
0.00078757
0.000591469
0.000392424
0.000294206
0.000205648
0.000192628
0.000191008
0.000187439
0.000187488
0.000187491
0.000189194
0.00833335
0.00833335
0.00833335
0.00833335
0.00833335
0.00833335
0.00833335
0.00833335
0.00833335
0.00833335
0.00833335
0.00833335
0.00833335
0.00833335
0.00833335
0.00833335
0.00833335
0.00833335
0.00833335
0.00833335
0.00833335