/*--------------------------------*- C++ -*----------------------------------*\
| =========                 |                                                 |
| \\      /  F ield         | OpenFOAM: The Open Source CFD Toolbox           |
|  \\    /   O peration     | Version:  2.3.0                                 |
|   \\  /    A nd           | Web:      www.OpenFOAM.org                      |
|    \\/     M anipulation  |                                                 |
\*---------------------------------------------------------------------------*/
FoamFile
{
    version     2.0;
    format      ascii;
    class       volScalarField;
    location    "24";
    object      epsilon.water;
}
// * * * * * * * * * * * * * * * * * * * * * * * * * * * * * * * * * * * * * //

dimensions      [0 2 -3 0 0 0 0];

internalField   nonuniform List<scalar> 
6144
(
4.23551e-05
2.87089e-05
1.8018e-05
1.54889e-05
1.11292e-05
9.74581e-06
7.4454e-06
5.71005e-06
5.08376e-06
6.12759e-06
7.43196e-06
8.73705e-06
9.29343e-06
9.50903e-06
8.87287e-06
8.53745e-06
7.9504e-06
7.77984e-06
7.68513e-06
7.67142e-06
7.68608e-06
7.73488e-06
7.78776e-06
7.83989e-06
7.88889e-06
7.93549e-06
7.97736e-06
8.0131e-06
8.04316e-06
8.0654e-06
8.09508e-06
8.09686e-06
8.1458e-06
8.11176e-06
8.28314e-06
8.16976e-06
8.4596e-06
8.26536e-06
8.72671e-06
8.53994e-06
9.20876e-06
9.20336e-06
9.68426e-06
1.0058e-05
9.48764e-06
9.62566e-06
8.72431e-06
8.77582e-06
9.30815e-06
1.25243e-05
2.09163e-05
3.15174e-05
9.09058e-05
0.000295335
0.000673134
0.000930949
0.00194874
0.00455136
0.0161699
0.0269201
0.0976437
0.0549103
0.031272
0.0196186
0.0135002
0.0102475
0.00823971
0.00684074
0.00579719
0.00498243
0.00433857
0.00381815
0.00339337
0.00303181
0.00271731
0.00244124
0.00219259
0.0019646
0.00174764
0.00154021
0.00133426
0.00112954
0.000927708
0.000721888
0.00053238
0.000375298
0.000261977
0.000186986
0.000136345
0.000104931
8.77703e-05
7.51116e-05
6.06469e-05
4.22554e-05
3.93692e-05
4.82562e-05
0.00011082
6.92452e-05
4.15141e-05
3.46784e-05
2.52848e-05
2.40194e-05
2.13473e-05
1.80091e-05
1.65574e-05
1.81526e-05
1.97676e-05
2.18129e-05
2.29318e-05
2.33484e-05
2.24333e-05
2.18225e-05
2.10247e-05
2.10771e-05
2.12813e-05
2.16138e-05
2.19634e-05
2.23337e-05
2.26487e-05
2.29235e-05
2.31602e-05
2.33848e-05
2.35996e-05
2.3793e-05
2.39612e-05
2.40953e-05
2.42193e-05
2.42708e-05
2.4461e-05
2.44096e-05
2.49109e-05
2.46152e-05
2.53532e-05
2.4769e-05
2.57832e-05
2.50964e-05
2.62047e-05
2.58794e-05
2.63469e-05
2.64905e-05
2.60743e-05
2.69246e-05
2.74031e-05
2.87496e-05
3.07141e-05
3.67313e-05
4.39375e-05
6.90667e-05
0.000224066
0.000881749
0.00241366
0.00293479
0.00517329
0.00736114
0.0123447
0.0197024
0.0565497
0.0211869
0.00932773
0.00562108
0.00427907
0.00368105
0.00326854
0.00294821
0.00268571
0.00245624
0.00226428
0.00209626
0.00194432
0.00180372
0.00167231
0.00154131
0.00142297
0.00131161
0.00119918
0.00109146
0.000980078
0.000862848
0.000736179
0.000587067
0.00043868
0.000308246
0.000217508
0.000172139
0.000154604
0.00014368
0.000132022
0.000111917
7.99029e-05
4.8855e-05
4.57363e-05
5.52006e-05
0.000169801
0.000116242
6.64959e-05
5.28538e-05
3.70721e-05
3.49099e-05
3.19002e-05
2.65407e-05
2.48199e-05
2.50625e-05
2.60474e-05
2.64814e-05
2.68994e-05
2.69613e-05
2.67471e-05
2.66581e-05
2.7071e-05
2.78008e-05
2.85254e-05
2.93189e-05
3.00631e-05
3.07324e-05
3.12681e-05
3.17234e-05
3.21084e-05
3.24676e-05
3.28091e-05
3.31204e-05
3.33997e-05
3.36377e-05
3.38401e-05
3.39588e-05
3.41274e-05
3.41377e-05
3.44037e-05
3.42053e-05
3.45154e-05
3.39667e-05
3.42282e-05
3.33553e-05
3.3539e-05
3.28826e-05
3.33107e-05
3.36378e-05
3.54073e-05
3.82223e-05
4.08734e-05
4.68993e-05
4.83661e-05
6.06506e-05
6.68465e-05
0.000124261
0.000331701
0.00135092
0.00636638
0.00647094
0.00789097
0.00827625
0.00826669
0.0112659
0.0380413
0.00832366
0.00364334
0.00292154
0.00283145
0.00263672
0.00243307
0.00226977
0.00213081
0.00199452
0.00187438
0.00176892
0.0016681
0.00157844
0.00148831
0.00139059
0.00128822
0.0011782
0.00106296
0.000940479
0.000829797
0.00073378
0.000590942
0.000422813
0.000310881
0.000268265
0.000263492
0.000271596
0.000268678
0.000250671
0.000218394
0.000178341
0.00012758
7.09712e-05
7.58899e-05
7.50873e-05
0.000261878
0.000185498
0.000108703
8.71974e-05
5.18576e-05
4.15502e-05
2.83467e-05
2.36388e-05
2.48201e-05
2.61448e-05
2.77256e-05
2.75533e-05
2.78202e-05
2.76967e-05
2.76869e-05
2.77004e-05
2.81236e-05
2.88869e-05
2.97031e-05
3.06036e-05
3.14351e-05
3.215e-05
3.26959e-05
3.31321e-05
3.34947e-05
3.38244e-05
3.41296e-05
3.44055e-05
3.46536e-05
3.48637e-05
3.50324e-05
3.51378e-05
3.52608e-05
3.52638e-05
3.54267e-05
3.52536e-05
3.53945e-05
3.49075e-05
3.49136e-05
3.42005e-05
3.40606e-05
3.3837e-05
3.3988e-05
3.57368e-05
3.72943e-05
4.14483e-05
4.35298e-05
4.97076e-05
5.11028e-05
7.4474e-05
0.000103593
0.000260614
0.00106527
0.00414982
0.0148448
0.0135525
0.00984501
0.0122446
0.00598908
0.00607364
0.0247573
0.00423506
0.00268345
0.00239252
0.00242642
0.00220716
0.00200161
0.00187085
0.00175344
0.00163518
0.00152542
0.00142797
0.00133693
0.00124907
0.00116863
0.0010933
0.00102149
0.00092804
0.000809469
0.000703544
0.000616951
0.000536842
0.000464611
0.000422237
0.000438193
0.000483598
0.000494957
0.000475499
0.000427472
0.000357048
0.000283742
0.000216921
0.000163487
0.000102425
9.41329e-05
9.67202e-05
0.000352772
0.000244116
0.000163678
0.000147367
8.70508e-05
6.91552e-05
3.45414e-05
2.49637e-05
2.47858e-05
2.53183e-05
2.74036e-05
2.66815e-05
2.68047e-05
2.65394e-05
2.66405e-05
2.67737e-05
2.73975e-05
2.83038e-05
2.93909e-05
3.05558e-05
3.15363e-05
3.22773e-05
3.28234e-05
3.32275e-05
3.354e-05
3.37948e-05
3.40089e-05
3.41892e-05
3.43455e-05
3.4471e-05
3.45604e-05
3.4608e-05
3.46475e-05
3.45873e-05
3.46217e-05
3.43873e-05
3.43391e-05
3.38103e-05
3.35529e-05
3.29224e-05
3.25358e-05
3.27266e-05
3.31158e-05
3.55027e-05
3.79457e-05
4.22422e-05
4.46171e-05
5.0277e-05
5.3138e-05
8.76162e-05
0.000160878
0.000560217
0.00423935
0.0134192
0.0205496
0.0185028
0.0140571
0.0121997
0.00432087
0.00409316
0.0152002
0.00299407
0.00259003
0.00255916
0.00233044
0.00201179
0.00182526
0.00162121
0.00146704
0.00135254
0.00129085
0.00127104
0.0012662
0.00125377
0.00121524
0.00114557
0.00105686
0.00096775
0.000887376
0.000830184
0.000799322
0.000783977
0.000790742
0.000800468
0.000766038
0.000689978
0.00059403
0.000483076
0.000383014
0.000312906
0.00024928
0.000194515
0.000153052
0.000103004
9.38628e-05
0.000111062
0.000397581
0.000290795
0.000210754
0.000211172
0.000138213
0.000112459
6.04821e-05
3.56222e-05
2.70601e-05
2.55958e-05
2.61058e-05
2.51483e-05
2.53228e-05
2.46801e-05
2.49374e-05
2.51141e-05
2.62141e-05
2.74769e-05
2.89841e-05
3.02785e-05
3.12939e-05
3.20099e-05
3.24973e-05
3.28052e-05
3.29991e-05
3.31269e-05
3.32153e-05
3.32734e-05
3.33024e-05
3.33121e-05
3.3301e-05
3.32716e-05
3.32241e-05
3.31065e-05
3.30472e-05
3.27481e-05
3.25739e-05
3.19853e-05
3.15936e-05
3.09852e-05
3.0586e-05
3.08839e-05
3.15575e-05
3.40021e-05
3.71077e-05
4.08946e-05
4.43406e-05
4.91687e-05
5.47994e-05
9.9923e-05
0.000272444
0.00132957
0.00792202
0.019732
0.0184205
0.0148085
0.0110873
0.0103078
0.00379998
0.00366683
0.00933935
0.00274047
0.00257244
0.00255829
0.00238276
0.00229215
0.00220327
0.00209243
0.00203804
0.00196807
0.0019293
0.00190942
0.00190133
0.0018931
0.00184725
0.00177697
0.00170221
0.00163358
0.0015539
0.00146137
0.00135667
0.00124648
0.0011347
0.00102151
0.0009004
0.000781048
0.000641964
0.000493476
0.000343623
0.000220054
0.00015778
0.00012636
0.000111074
8.51825e-05
8.15038e-05
0.000110501
0.000346903
0.000306851
0.000232812
0.000237739
0.000174124
0.000134557
8.85778e-05
5.25518e-05
3.24114e-05
2.66254e-05
2.4752e-05
2.19549e-05
2.15693e-05
2.09902e-05
2.1473e-05
2.15971e-05
2.27616e-05
2.38943e-05
2.54492e-05
2.67853e-05
2.79594e-05
2.88087e-05
2.93703e-05
2.96657e-05
2.97873e-05
2.97935e-05
2.97309e-05
2.96206e-05
2.94776e-05
2.93216e-05
2.91396e-05
2.89508e-05
2.87128e-05
2.8475e-05
2.81569e-05
2.78849e-05
2.73811e-05
2.69957e-05
2.62201e-05
2.59607e-05
2.54947e-05
2.62353e-05
2.75224e-05
2.98715e-05
3.39322e-05
3.58809e-05
3.90808e-05
4.13614e-05
4.54651e-05
8.90762e-05
0.00030791
0.00185759
0.0079034
0.0132428
0.0122108
0.0105644
0.00970976
0.00889032
0.00457632
0.00453487
0.00694199
0.00265762
0.00256109
0.00255486
0.00252864
0.00244143
0.00239068
0.00228038
0.00221173
0.00211307
0.00205956
0.00195133
0.00185973
0.00173729
0.00160695
0.00146942
0.00136063
0.00125288
0.00114893
0.00104246
0.000974239
0.000955518
0.000965051
0.000975899
0.000983309
0.000940138
0.000786925
0.000600226
0.000399318
0.000219296
0.000141347
0.000114852
0.000101941
8.31523e-05
7.97103e-05
0.000110809
0.000215021
0.000239064
0.000197804
0.000203995
0.000179089
0.000139371
9.86465e-05
6.50066e-05
4.1605e-05
2.8314e-05
2.39595e-05
2.02038e-05
1.96506e-05
1.8488e-05
1.88192e-05
1.88032e-05
2.0411e-05
2.18545e-05
2.37252e-05
2.52466e-05
2.65519e-05
2.74428e-05
2.80427e-05
2.83815e-05
2.85478e-05
2.85934e-05
2.85544e-05
2.84532e-05
2.82988e-05
2.81189e-05
2.79058e-05
2.7681e-05
2.73756e-05
2.70842e-05
2.6658e-05
2.6384e-05
2.57232e-05
2.54007e-05
2.45432e-05
2.43407e-05
2.38811e-05
2.44813e-05
2.56082e-05
2.75184e-05
3.09888e-05
3.2767e-05
3.5443e-05
3.60947e-05
3.74055e-05
7.293e-05
0.000309133
0.00182263
0.00645928
0.00990083
0.0104958
0.0121197
0.0153275
0.0130263
0.00473498
0.00468498
0.00583649
0.00252573
0.00242192
0.00238117
0.00235748
0.00225141
0.00219314
0.00204543
0.00193695
0.00178991
0.00167545
0.00153255
0.00142164
0.00128942
0.00118773
0.0010721
0.000971627
0.000852381
0.000742388
0.000651004
0.000609008
0.000555646
0.000519696
0.000497177
0.000489417
0.000472053
0.000444268
0.000376243
0.00030141
0.000238022
0.000193963
0.000170239
0.000152929
0.000141742
0.00013852
0.000215997
0.000161483
0.000172223
0.000110285
0.000109341
0.000111352
9.66821e-05
8.59329e-05
6.35777e-05
4.75443e-05
3.06923e-05
2.25516e-05
1.75265e-05
1.56999e-05
1.3389e-05
1.27466e-05
1.24987e-05
1.38482e-05
1.52217e-05
1.69003e-05
1.82786e-05
1.94792e-05
2.03555e-05
2.10066e-05
2.14181e-05
2.16545e-05
2.17647e-05
2.17869e-05
2.17479e-05
2.16631e-05
2.15513e-05
2.14116e-05
2.12582e-05
2.10225e-05
2.08004e-05
2.0419e-05
2.02829e-05
1.9726e-05
1.96648e-05
1.90388e-05
1.91557e-05
1.89067e-05
1.93905e-05
2.04536e-05
2.15066e-05
2.44899e-05
2.4962e-05
2.81395e-05
2.64268e-05
2.85085e-05
4.61822e-05
0.000167102
0.000949252
0.00401134
0.00821109
0.00934691
0.0111688
0.0152666
0.0139165
0.00433784
0.00417786
0.0071097
0.00249576
0.00238502
0.00240163
0.00242625
0.00244611
0.00244967
0.00242868
0.0023619
0.00224719
0.00212235
0.00197255
0.00183905
0.00169658
0.00157935
0.00144876
0.00132738
0.00118152
0.00105935
0.000927976
0.000794849
0.000638816
0.000464058
0.000340436
0.000287018
0.000247229
0.000230411
0.000227378
0.000229847
0.00022765
0.000198853
0.000171888
0.000154557
0.000132041
0.000115914
0.000160357
0.000146634
0.000154905
6.76301e-05
6.71583e-05
7.13926e-05
6.61286e-05
6.41698e-05
5.30683e-05
4.08805e-05
2.55456e-05
1.85529e-05
1.37827e-05
1.16761e-05
9.16555e-06
8.10184e-06
7.69884e-06
8.45572e-06
9.36828e-06
1.05266e-05
1.14872e-05
1.23271e-05
1.29423e-05
1.3435e-05
1.37905e-05
1.40364e-05
1.41832e-05
1.42582e-05
1.42878e-05
1.4288e-05
1.42713e-05
1.42356e-05
1.41828e-05
1.40938e-05
1.40048e-05
1.38527e-05
1.38083e-05
1.36e-05
1.35791e-05
1.33891e-05
1.34496e-05
1.35019e-05
1.37997e-05
1.45904e-05
1.50645e-05
1.71104e-05
1.7074e-05
2.03465e-05
1.82678e-05
2.11766e-05
2.82516e-05
7.41436e-05
0.000316134
0.00172219
0.00552954
0.00672269
0.00751985
0.00992114
0.0119561
0.0040768
0.00379953
0.00983408
0.0023248
0.00191186
0.00150347
0.00139248
0.00133601
0.00134464
0.00134005
0.00133845
0.00131011
0.00125807
0.00118318
0.00108945
0.000974628
0.000873224
0.000753505
0.000665779
0.000566178
0.00049752
0.000426714
0.000385441
0.000347825
0.000314499
0.00027795
0.000234663
0.000201199
0.000150536
0.000107011
0.000102203
0.000112756
0.0001166
0.000109652
9.26731e-05
7.47356e-05
4.92053e-05
5.99525e-05
0.00016566
0.000161777
3.50433e-05
3.24359e-05
4.18635e-05
4.42976e-05
4.1221e-05
3.77179e-05
3.2597e-05
2.11608e-05
1.44457e-05
1.02455e-05
8.05565e-06
5.80706e-06
4.919e-06
4.54682e-06
4.96858e-06
5.49481e-06
6.20805e-06
6.82108e-06
7.39369e-06
7.83587e-06
8.20621e-06
8.49487e-06
8.71695e-06
8.87956e-06
8.99849e-06
9.09133e-06
9.16875e-06
9.23074e-06
9.27764e-06
9.30693e-06
9.31212e-06
9.29516e-06
9.27484e-06
9.28095e-06
9.26589e-06
9.29611e-06
9.33603e-06
9.38842e-06
9.61001e-06
9.67777e-06
1.03685e-05
1.0555e-05
1.20543e-05
1.19804e-05
1.4536e-05
1.29989e-05
1.63721e-05
1.91546e-05
3.98083e-05
0.000138424
0.000728613
0.00281564
0.00435592
0.00496399
0.00514075
0.00922839
0.00525357
0.00497015
0.0167152
0.00241236
0.00121603
0.000890613
0.000789489
0.000741706
0.000755452
0.000747371
0.000726399
0.000685359
0.000650551
0.000623594
0.000584304
0.000542924
0.000516805
0.00048547
0.000449501
0.000401515
0.000370006
0.000333834
0.000306935
0.000284253
0.000267841
0.000258271
0.000247505
0.000238236
0.000222136
0.000192616
0.000132324
7.32711e-05
6.25114e-05
6.2002e-05
5.63445e-05
4.43679e-05
3.23298e-05
3.72887e-05
0.000303572
0.0001362
3.41843e-05
2.26876e-05
2.11141e-05
2.31422e-05
2.44045e-05
2.2451e-05
2.14689e-05
1.44126e-05
1.04493e-05
7.27113e-06
5.25318e-06
3.76865e-06
3.3293e-06
3.16469e-06
3.40492e-06
3.64803e-06
4.00405e-06
4.32367e-06
4.64836e-06
4.92981e-06
5.19312e-06
5.42482e-06
5.62991e-06
5.80839e-06
5.96471e-06
6.10596e-06
6.24092e-06
6.3705e-06
6.48546e-06
6.58051e-06
6.6534e-06
6.74216e-06
6.81725e-06
6.92243e-06
6.99451e-06
7.09629e-06
7.2007e-06
7.29347e-06
7.49207e-06
7.52002e-06
7.99662e-06
8.04835e-06
9.1469e-06
9.21908e-06
1.11293e-05
1.02181e-05
1.27824e-05
1.41569e-05
2.93439e-05
0.000112064
0.000450026
0.00123594
0.00272529
0.0033921
0.00512461
0.0116604
0.0105483
0.00853947
0.0222118
0.00281783
0.0012461
0.0010047
0.000925262
0.000759889
0.000667701
0.000613937
0.000574715
0.000535714
0.000486093
0.000444004
0.000416722
0.00038423
0.000352041
0.000329618
0.000326237
0.000339488
0.000345193
0.00033859
0.000326384
0.0003199
0.000318852
0.000315753
0.000310709
0.000305379
0.000295079
0.000275243
0.000245466
0.000187703
0.000103391
5.40442e-05
4.52538e-05
4.37828e-05
3.30777e-05
3.39511e-05
0.000484774
0.000336131
0.00013567
2.25573e-05
1.67917e-05
1.63324e-05
1.4523e-05
1.27338e-05
1.14123e-05
8.81505e-06
8.23041e-06
6.24526e-06
4.56975e-06
3.10866e-06
2.80626e-06
2.6542e-06
2.87918e-06
3.03186e-06
3.2101e-06
3.33342e-06
3.46009e-06
3.56861e-06
3.68062e-06
3.78695e-06
3.89236e-06
3.99747e-06
4.10592e-06
4.23434e-06
4.36916e-06
4.50317e-06
4.63108e-06
4.75074e-06
4.85892e-06
4.96354e-06
5.0663e-06
5.18081e-06
5.29564e-06
5.39942e-06
5.56003e-06
5.65003e-06
5.88888e-06
5.90743e-06
6.30459e-06
6.30959e-06
7.08708e-06
7.09481e-06
8.30485e-06
7.86102e-06
9.70567e-06
1.11263e-05
2.43589e-05
8.39484e-05
0.000271197
0.000642312
0.00165569
0.00263662
0.0070771
0.0165273
0.0222032
0.017609
0.0320432
0.00431054
0.00188024
0.00164582
0.00148078
0.00124357
0.00107719
0.000951944
0.0008752
0.000818221
0.000775444
0.000739938
0.000683733
0.000614567
0.000554328
0.000496197
0.000441569
0.000407745
0.000400469
0.000400631
0.000402155
0.000401109
0.000398951
0.000394247
0.000384161
0.000372433
0.000355056
0.000335221
0.000312291
0.000274071
0.000225705
0.000132874
5.85704e-05
3.90147e-05
3.29164e-05
4.12838e-05
0.000477801
0.000222089
0.000154921
5.90332e-05
2.59827e-05
1.50523e-05
8.12828e-06
7.15318e-06
7.80343e-06
7.12493e-06
7.44836e-06
5.36768e-06
3.93716e-06
2.81843e-06
2.51545e-06
2.37837e-06
2.55291e-06
2.6664e-06
2.80655e-06
2.89453e-06
2.96919e-06
3.01206e-06
3.04795e-06
3.07584e-06
3.10916e-06
3.16107e-06
3.22204e-06
3.28329e-06
3.35591e-06
3.43816e-06
3.52459e-06
3.61146e-06
3.69471e-06
3.77483e-06
3.86085e-06
3.96107e-06
4.07996e-06
4.17945e-06
4.35018e-06
4.43338e-06
4.67609e-06
4.71207e-06
5.06252e-06
5.08082e-06
5.63275e-06
5.62047e-06
6.31448e-06
6.16407e-06
7.50283e-06
8.8607e-06
2.05332e-05
6.50865e-05
0.000187976
0.000451539
0.00116196
0.00248412
0.00797302
0.0205672
0.034321
0.0282345
0.0452343
0.00947951
0.00484667
0.00404833
0.00350601
0.00285558
0.00232713
0.00192624
0.00161936
0.00137788
0.00118368
0.00104868
0.000950809
0.000858475
0.000770445
0.000699424
0.000649015
0.00060856
0.000573185
0.000537476
0.00050168
0.000468873
0.0004559
0.000443161
0.00042862
0.00040488
0.000376499
0.000358113
0.000337085
0.000306654
0.000268207
0.000223393
0.000150428
8.30974e-05
5.17724e-05
5.50233e-05
0.000582778
0.000263657
0.000233291
9.03381e-05
0.000110668
6.2293e-05
1.61224e-05
4.60634e-06
5.53107e-06
5.09579e-06
5.07081e-06
3.46631e-06
2.60288e-06
2.08781e-06
1.88654e-06
1.81762e-06
1.90528e-06
1.9628e-06
2.04235e-06
2.0898e-06
2.13849e-06
2.18074e-06
2.22496e-06
2.26946e-06
2.31872e-06
2.37597e-06
2.4371e-06
2.50197e-06
2.57474e-06
2.65358e-06
2.73569e-06
2.81914e-06
2.90221e-06
2.98622e-06
3.08489e-06
3.19218e-06
3.3224e-06
3.41911e-06
3.59899e-06
3.69565e-06
3.94798e-06
4.00803e-06
4.31916e-06
4.32697e-06
4.73136e-06
4.64182e-06
5.02319e-06
4.97316e-06
5.71978e-06
6.9825e-06
1.58727e-05
4.50153e-05
0.000133548
0.000381809
0.00118449
0.00294681
0.0097626
0.0252028
0.0424188
0.0416244
0.0650879
0.0270832
0.0142529
0.00812338
0.00562647
0.00432103
0.00345512
0.00282145
0.00233468
0.00195663
0.00164886
0.00139932
0.00121312
0.00107104
0.000952798
0.000858344
0.00078318
0.000716596
0.000653301
0.000592548
0.000528927
0.000483449
0.00044713
0.00042597
0.000399718
0.00037138
0.000330755
0.000322744
0.000303288
0.000272639
0.000246774
0.00021755
0.000183337
0.000135051
0.000103306
6.71896e-05
0.000578922
0.000506689
0.000436788
0.000309345
0.000236547
0.000181014
9.37027e-05
5.67497e-06
2.50564e-06
2.29085e-06
2.06181e-06
1.62408e-06
1.35968e-06
1.19235e-06
1.13857e-06
1.11657e-06
1.1511e-06
1.17556e-06
1.21199e-06
1.23695e-06
1.26355e-06
1.28885e-06
1.31666e-06
1.34614e-06
1.37821e-06
1.41378e-06
1.45169e-06
1.49271e-06
1.53788e-06
1.58607e-06
1.63616e-06
1.68725e-06
1.73932e-06
1.79436e-06
1.85814e-06
1.92636e-06
2.00854e-06
2.07111e-06
2.19005e-06
2.26378e-06
2.45162e-06
2.52519e-06
2.74656e-06
2.73078e-06
2.96502e-06
2.84473e-06
3.04499e-06
3.09752e-06
3.63918e-06
5.10148e-06
1.08837e-05
2.26418e-05
5.2225e-05
0.00014207
0.000609423
0.00166851
0.00513195
0.00961662
0.0302535
0.0444713
0.102852
0.0561829
0.031039
0.0189325
0.0126227
0.00914445
0.00693844
0.00539529
0.00426822
0.00342798
0.00279051
0.00229329
0.00190211
0.00159094
0.00134675
0.00115487
0.00100442
0.000881548
0.000772737
0.000678655
0.000590342
0.000518831
0.00045807
0.000409616
0.000372417
0.000329329
0.000287475
0.000257854
0.00023489
0.000209079
0.000183953
0.00015367
0.000135284
0.000114008
8.96533e-05
4.91696e-05
9.97071e-05
6.01005e-05
3.18813e-05
2.50831e-05
2.0154e-05
2.03142e-05
1.95491e-05
2.00349e-05
2.2283e-05
3.0356e-05
3.46157e-05
4.08373e-05
4.29538e-05
4.40798e-05
4.11448e-05
3.8992e-05
3.55778e-05
3.36658e-05
3.17674e-05
3.087e-05
3.04063e-05
3.04431e-05
3.06636e-05
3.10311e-05
3.15017e-05
3.20427e-05
3.2604e-05
3.31498e-05
3.36619e-05
3.41211e-05
3.45855e-05
3.49095e-05
3.53915e-05
3.54823e-05
3.6163e-05
3.59685e-05
3.71234e-05
3.67103e-05
3.86693e-05
3.82916e-05
4.12473e-05
4.09292e-05
4.31904e-05
4.25223e-05
4.0119e-05
3.60069e-05
2.94316e-05
2.61605e-05
2.8999e-05
3.10409e-05
4.28093e-05
4.76148e-05
0.00010429
0.000372015
0.000985433
0.00149701
0.0037221
0.00597129
0.0100828
0.0161667
0.0286271
0.0214291
0.0176452
0.0144336
0.0117767
0.00979467
0.00830627
0.00718229
0.0062886
0.00555815
0.00495221
0.00443862
0.00400025
0.00361584
0.00327559
0.00296796
0.002688
0.00242808
0.00218043
0.00194184
0.0017098
0.00147966
0.00125805
0.00103926
0.000831392
0.00064093
0.000485681
0.000366698
0.000276955
0.000212056
0.000165245
0.000126708
9.64527e-05
7.02094e-05
6.58893e-05
6.77849e-05
0.000157398
8.35278e-05
5.05571e-05
4.26104e-05
4.01829e-05
4.2496e-05
4.18434e-05
4.22325e-05
4.26277e-05
4.62683e-05
4.67487e-05
4.91801e-05
5.03385e-05
5.11145e-05
5.05007e-05
4.95768e-05
4.81287e-05
4.74212e-05
4.66696e-05
4.65951e-05
4.67286e-05
4.71324e-05
4.76112e-05
4.81966e-05
4.88693e-05
4.96197e-05
5.04058e-05
5.1177e-05
5.19068e-05
5.25652e-05
5.31748e-05
5.36638e-05
5.41909e-05
5.45066e-05
5.51137e-05
5.52631e-05
5.60913e-05
5.60545e-05
5.71905e-05
5.70322e-05
5.82327e-05
5.79966e-05
5.81331e-05
5.73978e-05
5.62178e-05
5.48411e-05
5.39251e-05
5.38263e-05
6.05412e-05
5.66955e-05
6.75822e-05
9.74051e-05
0.00025393
0.000958626
0.00286668
0.0037711
0.00513589
0.00684373
0.00994865
0.0116725
0.024483
0.00864525
0.0142691
0.0110835
0.00800484
0.00624856
0.00523052
0.00462267
0.00419453
0.0038531
0.00356687
0.00331762
0.00309379
0.00288409
0.00268272
0.00248639
0.0022931
0.00209737
0.00190165
0.00170348
0.00150749
0.00131764
0.00114415
0.000979021
0.000812526
0.000657677
0.000525657
0.000427725
0.000360978
0.000315002
0.000276846
0.000238113
0.000201447
0.000150122
0.000100654
8.40074e-05
0.000274488
0.000140541
8.79727e-05
6.41767e-05
5.73673e-05
5.89774e-05
5.69529e-05
5.7296e-05
5.86093e-05
6.00556e-05
5.89342e-05
5.76926e-05
5.7882e-05
5.79747e-05
5.80787e-05
5.78416e-05
5.77725e-05
5.82106e-05
5.87963e-05
5.97333e-05
6.06573e-05
6.15155e-05
6.23052e-05
6.31304e-05
6.39941e-05
6.49021e-05
6.58271e-05
6.67348e-05
6.76019e-05
6.84033e-05
6.91105e-05
6.972e-05
7.02576e-05
7.06997e-05
7.12648e-05
7.15745e-05
7.2141e-05
7.21682e-05
7.26055e-05
7.2417e-05
7.24075e-05
7.26484e-05
7.20986e-05
7.35048e-05
7.31896e-05
7.74243e-05
7.89506e-05
8.55349e-05
9.22321e-05
9.70132e-05
0.000136313
0.000262486
0.00063657
0.00203685
0.00877898
0.0095331
0.00916559
0.0102483
0.00957322
0.00926093
0.0251592
0.00641493
0.0133417
0.00813435
0.00533462
0.00446422
0.00408704
0.00391598
0.00386604
0.00386255
0.00383983
0.00379229
0.00371192
0.00358908
0.00342732
0.00322989
0.00300087
0.00274688
0.00248779
0.00222655
0.00197003
0.00171511
0.00145762
0.00119963
0.000973854
0.000799972
0.000670627
0.000569904
0.000477794
0.000401142
0.000345223
0.000295891
0.000261603
0.000236513
0.000174722
0.000133212
0.00049701
0.000244609
0.000160457
9.62351e-05
7.57921e-05
7.23831e-05
6.54314e-05
6.46651e-05
6.9067e-05
7.08873e-05
7.05164e-05
6.77708e-05
6.72307e-05
6.63825e-05
6.61322e-05
6.57871e-05
6.60152e-05
6.68049e-05
6.80991e-05
6.97686e-05
7.12437e-05
7.23921e-05
7.34459e-05
7.44901e-05
7.55504e-05
7.66136e-05
7.7643e-05
7.86341e-05
7.95959e-05
8.05123e-05
8.13467e-05
8.20683e-05
8.26808e-05
8.31635e-05
8.37125e-05
8.40525e-05
8.45136e-05
8.44957e-05
8.46764e-05
8.46004e-05
8.4406e-05
8.55701e-05
8.57789e-05
8.94222e-05
8.95209e-05
9.57272e-05
9.47918e-05
0.000107017
0.000116001
0.000157785
0.000288387
0.000765124
0.00295391
0.00814163
0.0209283
0.0220452
0.0164309
0.0278625
0.0118775
0.0100601
0.0343672
0.00587234
0.00587117
0.00375487
0.00438198
0.0042831
0.00425501
0.00428903
0.00430739
0.00427772
0.00420122
0.00411036
0.00400942
0.00388679
0.00373643
0.00355445
0.00334676
0.0030765
0.00274761
0.00242916
0.00211873
0.00181265
0.00154093
0.00132904
0.00118891
0.00103368
0.000878388
0.000727082
0.000590189
0.000469135
0.000376746
0.000301732
0.000255994
0.000233967
0.000184998
0.000166942
0.000812823
0.000365433
0.000257864
0.00014667
0.000112285
0.00010258
8.35612e-05
7.97751e-05
8.37639e-05
8.46458e-05
8.25304e-05
7.68628e-05
7.45787e-05
7.21101e-05
7.21606e-05
7.177e-05
7.31246e-05
7.49962e-05
7.76354e-05
8.02526e-05
8.25881e-05
8.4548e-05
8.62557e-05
8.77339e-05
8.90236e-05
9.01944e-05
9.13064e-05
9.23669e-05
9.33902e-05
9.43767e-05
9.52932e-05
9.61079e-05
9.67607e-05
9.73024e-05
9.78036e-05
9.82333e-05
9.84985e-05
9.87187e-05
9.85867e-05
9.90714e-05
9.89134e-05
0.000100906
0.000101901
0.000106143
0.00010829
0.000114112
0.000113892
0.000127241
0.000137458
0.000239247
0.000582653
0.00222256
0.00851067
0.0184414
0.0392438
0.0331027
0.0235314
0.0253774
0.0104286
0.00991483
0.0534874
0.00578986
0.00550081
0.00476542
0.00541866
0.00512643
0.00521608
0.00493777
0.00465647
0.00443171
0.0043108
0.00426843
0.00423872
0.00420016
0.00411297
0.00395552
0.00371372
0.00343511
0.00314561
0.00283987
0.00252204
0.00223555
0.00198881
0.00176761
0.00152548
0.00128247
0.00107085
0.000844388
0.000627336
0.000441774
0.000326576
0.000257612
0.000215134
0.000201709
0.000175067
0.000176047
0.00116367
0.000453694
0.000338221
0.000204244
0.000155511
0.000144604
0.000117501
0.00010522
0.000102743
9.77117e-05
9.07491e-05
8.05411e-05
7.68145e-05
7.32205e-05
7.32561e-05
7.26214e-05
7.4533e-05
7.69449e-05
8.03771e-05
8.35827e-05
8.65632e-05
8.92472e-05
9.15134e-05
9.33506e-05
9.48915e-05
9.62123e-05
9.73843e-05
9.84631e-05
9.94616e-05
0.000100398
0.000101254
0.000102063
0.000102598
0.00010308
0.000103205
0.000103809
0.000103581
0.000104358
0.000103406
0.000104732
0.000104188
0.000107576
0.000110308
0.000115123
0.000120723
0.000124745
0.000124454
0.000135413
0.000142251
0.000280223
0.000946439
0.00477467
0.0151606
0.0318262
0.0294074
0.0224136
0.0196088
0.0188247
0.0106171
0.0106898
0.0630577
0.00700214
0.00624137
0.00619519
0.00686263
0.0070375
0.00715576
0.00719325
0.00721562
0.00718636
0.00709058
0.00701472
0.00680423
0.00654187
0.00623722
0.00596736
0.00567174
0.00538026
0.00506158
0.00469311
0.00428063
0.00383737
0.00332469
0.00278859
0.00231519
0.0019937
0.00170284
0.00137249
0.000931479
0.000533266
0.000336578
0.000231531
0.000175631
0.000147302
0.000134591
0.000166278
0.00110716
0.000525469
0.000403476
0.000271643
0.000204296
0.000179979
0.000152554
0.000133982
0.00012086
0.000108109
9.5449e-05
8.05546e-05
7.43925e-05
6.75231e-05
6.71579e-05
6.54203e-05
6.85934e-05
7.18136e-05
7.67152e-05
8.11187e-05
8.51367e-05
8.8312e-05
9.09549e-05
9.30167e-05
9.46685e-05
9.59947e-05
9.70942e-05
9.80643e-05
9.89101e-05
9.96686e-05
0.000100328
0.000100977
0.000101256
0.00010153
0.000101197
0.000101783
0.000100979
0.000102142
0.000100351
0.000102248
0.000101304
0.000105472
0.000109397
0.000114254
0.000121829
0.000124655
0.000123118
0.000132034
0.00011796
0.000279062
0.00101548
0.00493363
0.0140452
0.0220379
0.0189003
0.0180325
0.0180408
0.0144567
0.018704
0.0188558
0.0536534
0.00716811
0.00633174
0.00618017
0.00635568
0.00648241
0.00658541
0.00662476
0.00663479
0.0065603
0.00646881
0.00632734
0.00621843
0.00609175
0.00599944
0.00591992
0.00589567
0.00588641
0.00589723
0.0058946
0.00597694
0.00611877
0.00617342
0.00619822
0.00620464
0.00599351
0.00544199
0.0048462
0.00408849
0.00281693
0.00172338
0.00114709
0.000728727
0.000431541
0.00021667
0.000173384
0.000780407
0.000553097
0.000420274
0.000318532
0.000239315
0.000196933
0.000167408
0.000146851
0.000132631
0.000116239
9.69084e-05
7.53151e-05
6.57308e-05
5.53917e-05
5.50782e-05
5.27776e-05
5.79654e-05
6.23266e-05
6.86976e-05
7.38878e-05
7.83594e-05
8.17413e-05
8.45027e-05
8.65607e-05
8.81418e-05
8.93055e-05
9.01407e-05
9.07469e-05
9.11314e-05
9.13892e-05
9.15233e-05
9.16819e-05
9.137e-05
9.1132e-05
9.00004e-05
9.01063e-05
8.79128e-05
8.83336e-05
8.54424e-05
8.63692e-05
8.46632e-05
8.74708e-05
9.00763e-05
9.48001e-05
0.000101871
0.000105188
0.000106712
0.000106365
7.91887e-05
0.000165985
0.000716446
0.00360145
0.0098014
0.0147812
0.0146119
0.0202204
0.0249151
0.0278844
0.0218131
0.0219505
0.0528296
0.00750184
0.00660417
0.00633396
0.00626253
0.00603432
0.0059237
0.00576092
0.00567285
0.0055464
0.00547725
0.00540954
0.00536502
0.00531372
0.00525703
0.00522315
0.00515939
0.00506191
0.00501597
0.00500046
0.00500783
0.00508086
0.00513835
0.00522744
0.00528151
0.00516307
0.00462601
0.00419576
0.00361826
0.00303182
0.00254558
0.00209984
0.00163061
0.00128417
0.00106303
0.00110373
0.000539365
0.000507042
0.000310736
0.000251849
0.000206729
0.000168361
0.000156101
0.000148172
0.000137108
0.000120898
9.85232e-05
6.90427e-05
5.36521e-05
3.86765e-05
3.31845e-05
3.02906e-05
3.24876e-05
3.47191e-05
3.87947e-05
4.24386e-05
4.64532e-05
4.97291e-05
5.24602e-05
5.4357e-05
5.56634e-05
5.64839e-05
5.69788e-05
5.73162e-05
5.7556e-05
5.76913e-05
5.77473e-05
5.79049e-05
5.7671e-05
5.74995e-05
5.647e-05
5.70733e-05
5.54311e-05
5.70275e-05
5.49193e-05
5.76704e-05
5.58874e-05
5.9428e-05
5.9886e-05
6.36892e-05
6.71938e-05
6.77321e-05
7.26391e-05
6.53939e-05
5.15094e-05
7.48483e-05
0.000262184
0.00152269
0.00569628
0.0108691
0.0133519
0.0212186
0.0273949
0.0333458
0.0119665
0.0119663
0.055497
0.0072244
0.00711803
0.00709745
0.00779406
0.00759792
0.00762171
0.00741519
0.00721663
0.00680797
0.00642528
0.00586723
0.00536969
0.00483112
0.00446152
0.00412476
0.00398777
0.00390671
0.00392029
0.00396882
0.00414752
0.00458488
0.00500507
0.00503771
0.00444992
0.00382071
0.00349776
0.00305406
0.00240895
0.0017942
0.00151341
0.00131617
0.000962753
0.000584737
0.000251827
8.90549e-05
0.000514952
0.000479158
0.000214565
0.000194047
0.000189225
0.000131053
0.000122809
0.000116069
0.000110498
0.000100228
8.40701e-05
5.98957e-05
4.32728e-05
2.94616e-05
2.40142e-05
2.15982e-05
2.2123e-05
2.29282e-05
2.49436e-05
2.68175e-05
2.87562e-05
3.03727e-05
3.17946e-05
3.27732e-05
3.34904e-05
3.41467e-05
3.47991e-05
3.53567e-05
3.57952e-05
3.61318e-05
3.63707e-05
3.65949e-05
3.65819e-05
3.65831e-05
3.61193e-05
3.64178e-05
3.56222e-05
3.64222e-05
3.53726e-05
3.69922e-05
3.56908e-05
3.67566e-05
3.59502e-05
3.76324e-05
3.79712e-05
3.89101e-05
4.287e-05
3.87427e-05
3.32576e-05
4.0996e-05
0.000107891
0.000556331
0.00301673
0.00845683
0.00830077
0.0108589
0.0191062
0.0322333
0.0107477
0.0100292
0.0546434
0.00559879
0.00426491
0.00287896
0.00304058
0.00267521
0.00273648
0.00266033
0.00261707
0.00243335
0.00220998
0.00193761
0.0017079
0.00148881
0.00131725
0.00113072
0.00100698
0.000886096
0.000814357
0.000752126
0.000718287
0.000730295
0.000773458
0.000812512
0.000795954
0.000732299
0.000639328
0.00054547
0.00042927
0.000254377
0.000184829
0.00015736
0.00011526
8.52952e-05
7.05736e-05
5.62385e-05
0.000973726
0.000481209
9.00418e-05
7.67031e-05
0.000101997
9.27781e-05
9.01446e-05
8.67109e-05
8.54011e-05
8.02821e-05
7.16165e-05
5.19934e-05
3.77556e-05
2.6124e-05
2.11352e-05
1.91729e-05
1.9588e-05
2.00039e-05
2.07919e-05
2.15182e-05
2.23394e-05