/*--------------------------------*- C++ -*----------------------------------*\
| =========                 |                                                 |
| \\      /  F ield         | OpenFOAM: The Open Source CFD Toolbox           |
|  \\    /   O peration     | Version:  2.3.0                                 |
|   \\  /    A nd           | Web:      www.OpenFOAM.org                      |
|    \\/     M anipulation  |                                                 |
\*---------------------------------------------------------------------------*/
FoamFile
{
    version     2.0;
    format      ascii;
    class       surfaceScalarField;
    location    "24";
    object      phi;
}
// * * * * * * * * * * * * * * * * * * * * * * * * * * * * * * * * * * * * * //

dimensions      [0 3 -1 0 0 0 0];

internalField   nonuniform List<scalar> 
16448
(
-7.62876e-07
-2.37557e-06
6.55609e-07
7.18675e-07
-2.41528e-06
9.33728e-07
8.34122e-07
-1.25034e-06
1.13489e-06
1.02245e-06
-1.24825e-06
1.05992e-06
8.55406e-07
-7.12437e-07
8.79474e-07
6.95139e-07
-5.91028e-07
7.51292e-07
4.31019e-07
-3.18694e-07
5.8281e-07
2.04687e-07
-2.7819e-07
5.04519e-07
-2.93599e-08
-2.49453e-07
4.83498e-07
-2.46382e-07
-2.34726e-07
4.51745e-07
-4.26422e-07
-2.42774e-07
4.22812e-07
-5.01576e-07
-2.84107e-07
3.5926e-07
-4.85127e-07
-3.44013e-07
3.27562e-07
-3.91136e-07
-3.98202e-07
3.04208e-07
-2.86835e-07
-4.29962e-07
3.2566e-07
-1.81945e-07
-4.52578e-07
3.47686e-07
-1.11768e-07
-4.59319e-07
3.89141e-07
-5.76557e-08
-4.69594e-07
4.1548e-07
-2.47531e-08
-4.77696e-07
4.44792e-07
-2.71746e-09
-4.82429e-07
4.60393e-07
8.55103e-09
-4.82736e-07
4.71468e-07
1.26735e-08
-4.79376e-07
4.75254e-07
1.17378e-08
-4.7413e-07
4.75067e-07
7.89653e-09
-4.67308e-07
4.71151e-07
2.84348e-09
-4.59626e-07
4.64681e-07
-2.45385e-09
-4.51273e-07
4.56573e-07
-7.58166e-09
-4.42364e-07
4.47494e-07
-1.26688e-08
-4.32775e-07
4.37866e-07
-1.77798e-08
-4.22489e-07
4.27604e-07
-2.19271e-08
-4.1249e-07
4.16642e-07
-2.2964e-08
-4.03306e-07
4.04347e-07
-1.89742e-08
-3.92713e-07
3.88729e-07
-6.41299e-09
-3.81036e-07
3.6848e-07
2.07697e-08
-3.6949e-07
3.42313e-07
7.02505e-08
-3.59396e-07
3.0992e-07
1.50005e-07
-3.52712e-07
2.72964e-07
2.64283e-07
-3.50624e-07
2.36351e-07
4.08122e-07
-3.52442e-07
2.08611e-07
5.68731e-07
-3.56811e-07
1.96206e-07
7.19042e-07
-3.59814e-07
2.09509e-07
8.10113e-07
-3.54707e-07
2.63639e-07
7.79815e-07
-3.50908e-07
3.81211e-07
5.67427e-07
-3.66138e-07
5.78529e-07
2.39108e-07
-4.3224e-07
7.60565e-07
-1.84159e-08
-6.46254e-07
9.03778e-07
7.70242e-08
-1.12067e-06
1.02523e-06
5.30056e-07
-1.57132e-06
1.11829e-06
1.77695e-06
-2.34553e-06
1.09863e-06
2.21907e-06
-1.98322e-06
1.54109e-06
-6.40867e-07
-1.15193e-06
4.01187e-06
-1.82313e-06
-6.52806e-06
7.71031e-06
2.30184e-06
-1.15735e-05
7.4485e-06
6.18355e-06
-1.24851e-05
8.6034e-06
6.7798e-06
-1.00447e-05
9.4484e-06
7.48885e-06
-9.90168e-06
9.19259e-06
9.79348e-06
-9.76852e-06
7.46384e-06
6.41039e-06
-4.33494e-07
3.81651e-06
1.18796e-05
1.03902e-06
-6.50838e-06
-8.85989e-06
8.53409e-06
1.22051e-05
-7.15219e-07
-1.39421e-06
-6.75061e-06
2.59956e-05
-3.02587e-05
3.54786e-06
3.60096e-05
-1.81674e-05
8.15343e-06
3.31487e-05
-5.97816e-06
8.83901e-06
3.37383e-05
-6.70455e-06
6.11496e-06
3.39034e-05
-4.52426e-06
4.35921e-06
3.40463e-05
-3.49181e-06
3.34887e-06
3.39221e-05
-2.50265e-06
2.62686e-06
3.35427e-05
-1.63956e-06
2.01892e-06
3.34927e-05
-1.41593e-06
1.4659e-06
3.32992e-05
-1.01978e-06
1.21327e-06
3.23899e-05
-3.23932e-07
1.23329e-06
3.05978e-05
5.20115e-07
1.27193e-06
2.82553e-05
9.56919e-07
1.38559e-06
2.68932e-05
1.8702e-07
1.17504e-06
2.6808e-05
-3.21523e-07
4.06763e-07
2.70253e-05
-1.92578e-07
-2.47757e-08
2.71849e-05
-2.73643e-07
1.14043e-07
2.69372e-05
-1.76061e-07
4.23808e-07
2.64595e-05
-2.12312e-08
4.98886e-07
2.59591e-05
2.50777e-07
2.4969e-07
2.56279e-05
2.60147e-07
7.10358e-08
2.56715e-05
1.76972e-07
-2.20616e-07
2.6303e-05
-4.33916e-07
-1.97581e-07
2.72591e-05
-7.4095e-07
-2.15145e-07
2.68901e-05
4.41401e-07
-7.23618e-08
2.4664e-05
1.95045e-06
2.75643e-07
1.98305e-05
3.6853e-06
1.14814e-06
9.26534e-06
7.25404e-06
3.31114e-06
-2.63766e-06
5.97361e-06
5.92938e-06
-1.07676e-05
1.72585e-06
6.4041e-06
-1.6019e-05
-2.77088e-07
5.5285e-06
-1.83385e-05
-2.23109e-07
2.54262e-06
-1.76839e-05
4.97523e-07
-1.15211e-06
-1.47962e-05
1.65367e-06
-4.5414e-06
-9.46454e-06
3.2779e-06
-8.60957e-06
2.81628e-06
-1.22808e-05
-1.88301e-06
-3.49426e-06
-4.43865e-08
-7.93001e-07
-3.54319e-06
3.79084e-08
-7.08317e-07
-2.04632e-06
7.11293e-07
-2.69036e-07
-2.04715e-06
3.59617e-07
9.14716e-08
-1.23359e-06
1.60643e-07
3.18321e-07
-8.85179e-07
6.73004e-08
3.39559e-07
-3.1331e-07
-2.66244e-08
1.62791e-07
-1.30005e-07
2.85806e-08
-1.38766e-07
-3.18867e-08
8.39884e-08
-4.11113e-07
-5.74832e-08
9.51028e-08
-6.091e-07
-1.10938e-07
6.61493e-08
-6.86247e-07
-2.1487e-07
7.90835e-09
-6.69191e-07
-3.28245e-07
-3.28257e-08
-5.70909e-07
-4.3299e-07
-6.34933e-08
-4.45846e-07
-4.95512e-07
-5.95139e-08
-3.15639e-07
-5.35425e-07
-4.73592e-08
-2.18855e-07
-5.39458e-07
-1.66455e-08
-1.41028e-07
-5.49759e-07
2.33881e-09
-9.03741e-08
-5.47287e-07
1.89389e-08
-5.37535e-08
-5.46751e-07
2.77038e-08
-3.33485e-08
-5.37868e-07
3.47294e-08
-2.2831e-08
-5.26968e-07
3.70787e-08
-2.03957e-08
-5.13519e-07
3.69576e-08
-2.26359e-08
-4.99136e-07
3.40733e-08
-2.76402e-08
-4.84282e-07
2.96658e-08
-3.36338e-08
-4.69444e-07
2.41701e-08
-3.96322e-08
-4.54439e-07
1.80807e-08
-4.50041e-08
-4.39021e-07
1.16255e-08
-4.94089e-08
-4.2302e-07
4.94407e-09
-5.14475e-08
-4.07011e-07
-3.43205e-09
-4.74001e-08
-3.91232e-07
-1.61108e-08
-3.51182e-08
-3.74713e-07
-3.02721e-08
-1.14334e-08
-3.57839e-07
-4.68715e-08
2.85364e-08
-3.43046e-07
-6.64035e-08
9.01745e-08
-3.33213e-07
-8.78098e-08
1.79024e-07
-3.31372e-07
-1.1018e-07
2.97404e-07
-3.38528e-07
-1.30466e-07
4.41675e-07
-3.52428e-07
-1.44277e-07
5.98783e-07
-3.69996e-07
-1.43914e-07
7.40663e-07
-3.83388e-07
-1.18299e-07
8.1442e-07
-3.7699e-07
-5.14662e-08
7.55996e-07
-3.57039e-07
6.45603e-08
5.38075e-07
-3.56405e-07
2.08194e-07
2.34476e-07
-4.55902e-07
3.27264e-07
-3.7599e-08
-7.56086e-07
3.81911e-07
-2.19913e-07
-1.37637e-06
4.38011e-07
-2.24486e-07
-2.0715e-06
5.04745e-07
1.50876e-07
-3.32474e-06
6.03843e-07
9.67409e-07
-3.62698e-06
8.27224e-07
5.38686e-07
-3.04727e-06
2.32405e-06
-2.24394e-06
-8.76343e-06
5.01798e-06
-4.63452e-06
-1.69058e-05
7.72292e-06
-7.03158e-06
-2.06692e-05
1.05811e-05
-7.48574e-06
-1.88997e-05
9.30921e-06
-5.72764e-06
-1.74714e-05
5.81158e-06
-6.11698e-06
-1.35937e-05
4.21449e-06
1.37919e-06
-3.99714e-06
-3.93256e-06
1.65075e-05
1.45615e-06
-1.55457e-05
-5.81545e-06
1.49008e-05
1.59558e-05
3.31485e-07
-1.52976e-06
-6.0117e-06
1.44079e-05
-4.09879e-05
-3.34731e-06
1.36676e-05
-2.086e-05
3.433e-06
8.91891e-06
-4.77459e-06
3.54509e-06
7.76401e-06
-7.13552e-06
1.58587e-06
9.18532e-06
-4.95377e-06
-9.91789e-07
1.13669e-05
-3.09456e-06
-2.57885e-06
1.33565e-05
-9.79333e-07
-3.51288e-06
1.53935e-05
3.80682e-07
-4.05724e-06
1.72738e-05
1.08914e-06
-4.38534e-06
1.89092e-05
1.83839e-06
-4.49361e-06
1.95492e-05
3.63219e-06
-4.59614e-06
1.86728e-05
5.69301e-06
-4.2965e-06
1.65933e-05
7.28069e-06
-4.24422e-06
1.53707e-05
7.76161e-06
-6.35201e-06
1.42844e-05
7.06479e-06
-6.30007e-06
1.26061e-05
5.16448e-06
-3.67871e-06
1.06544e-05
3.33748e-06
-1.65941e-06
9.59163e-06
2.65482e-06
-1.76814e-06
9.33678e-06
2.83824e-06
-2.60461e-06
9.49816e-06
2.73335e-06
-2.64396e-06
9.85448e-06
2.43415e-06
-2.53033e-06
1.11183e-05
1.57291e-06
-2.6598e-06
1.36747e-05
-1.28747e-06
-1.70278e-06
1.65398e-05
-2.08413e-06
-1.52197e-06
1.85882e-05
-4.70539e-07
-1.13641e-06
1.84631e-05
3.58064e-06
-1.50508e-06
1.45655e-05
8.14495e-06
-5.62035e-07
5.70092e-06
1.25186e-05
3.59993e-06
-3.95427e-06
9.19641e-06
6.43239e-06
-1.07821e-05
2.27902e-06
6.27466e-06
-1.54569e-05
-2.69129e-07
4.66686e-06
-1.76276e-05
-2.32422e-07
2.18004e-06
-1.70666e-05
9.647e-07
-1.02824e-06
-1.40929e-05
3.40958e-06
-4.72958e-06
-8.65373e-06
6.83746e-06
-8.99874e-06
8.0755e-06
-1.39129e-05
-2.52186e-06
-3.93113e-06
-2.89234e-07
-1.43662e-06
-4.09799e-06
-5.30431e-07
-1.51862e-06
-2.40563e-06
4.41305e-07
-1.20696e-06
-2.44157e-06
8.27666e-08
-8.02222e-07
-1.59321e-06
-4.51211e-08
-3.34904e-07
-1.16334e-06
-1.89153e-07
-1.25665e-07
-2.193e-07
-3.03251e-07
-2.37906e-07
1.65026e-07
-1.82791e-07
-4.48994e-07
3.18424e-07
-1.39225e-07
-5.97763e-07
2.12398e-07
-1.21113e-07
-6.96903e-07
1.27826e-07
-1.39626e-07
-7.40732e-07
1.1451e-08
-1.82493e-07
-7.31054e-07
-1.11661e-07
-2.26263e-07
-6.69828e-07
-2.37676e-07
-2.56541e-07
-5.69363e-07
-3.25828e-07
-2.7015e-07
-4.52152e-07
-3.78466e-07
-2.74171e-07
-3.47123e-07
-3.80889e-07
-2.63596e-07
-2.5412e-07
-3.8707e-07
-2.55692e-07
-1.87161e-07
-3.69921e-07
-2.44324e-07
-1.35479e-07
-3.59962e-07
-2.3847e-07
-1.02318e-07
-3.3957e-07
-2.31457e-07
-8.21489e-08
-3.19118e-07
-2.28016e-07
-7.34568e-08
-2.96195e-07
-2.26012e-07
-7.19262e-08
-2.74189e-07
-2.26472e-07
-7.48479e-08
-2.52967e-07
-2.28388e-07
-7.96447e-08
-2.33168e-07
-2.31472e-07
-8.42098e-08
-2.14422e-07
-2.35445e-07
-8.62684e-08
-1.96643e-07
-2.40312e-07
-8.35354e-08
-1.79636e-07
-2.46108e-07
-7.44057e-08
-1.63213e-07
-2.52918e-07
-5.78431e-08
-1.47058e-07
-2.60727e-07
-3.23394e-08
-1.31147e-07
-2.6906e-07
2.17013e-09
-1.15452e-07
-2.76887e-07
4.48307e-08
-1.02444e-07
-2.83251e-07
9.66455e-08
-9.59338e-08
-2.89084e-07
1.57902e-07
-9.88943e-08
-2.93722e-07
2.27214e-07
-1.11637e-07
-2.96194e-07
2.98353e-07
-1.30351e-07
-2.93204e-07
3.57865e-07
-1.50199e-07
-2.793e-07
3.837e-07
-1.64016e-07
-2.45197e-07
3.58201e-07
-1.67488e-07
-1.83996e-07
2.60173e-07
-1.70527e-07
-8.8477e-08
1.19634e-07
-2.33109e-07
1.72474e-08
3.37547e-08
-4.17891e-07
4.78746e-08
-4.11023e-09
-7.6419e-07
4.59699e-08
-2.85177e-07
-1.22826e-06
1.32962e-07
-6.05527e-07
-2.00095e-06
2.49802e-07
-9.04504e-07
-3.32912e-06
3.03365e-07
-7.29889e-07
-4.14512e-06
3.43519e-07
-1.0865e-07
-4.60221e-06
9.33693e-07
-2.67398e-06
-8.47714e-06
2.27903e-06
-7.97328e-06
-1.8598e-05
6.99146e-06
-1.30715e-05
-2.51574e-05
9.58638e-06
-1.34783e-05
-2.51155e-05
6.62257e-06
-1.00828e-05
-2.09609e-05
9.40065e-08
-7.14841e-06
-1.55922e-05
-9.35919e-07
3.68537e-06
-5.52018e-06
-9.31073e-06
2.04766e-05
-1.63353e-06
-1.37018e-05
-7.09142e-06
2.45628e-05
1.79054e-05
1.01337e-06
-6.77669e-06
-2.85824e-06
8.31114e-06
-4.36883e-05
-4.59741e-06
2.02158e-06
-1.45483e-05
-2.21966e-08
5.95645e-06
-4.08618e-06
-4.62327e-06
1.48675e-06
-2.06857e-06
-5.97257e-07
2.95849e-06
-3.56768e-06
-2.85783e-06
3.02009e-06
-1.40739e-06
-1.74878e-06
4.09577e-06
8.86235e-07
-2.94124e-06
3.15231e-06
3.1313e-06
-1.80716e-06
2.37187e-06
4.13648e-06
-2.2669e-06
2.87833e-06
4.95831e-06
-3.62639e-06
4.07439e-06
6.74078e-06
-4.30465e-06
4.13512e-06
9.63534e-06
-4.00306e-06
4.5837e-06
1.07459e-05
-3.91383e-06
6.61116e-06
8.63952e-06
-2.90538e-06
9.83707e-06
5.9186e-06
-2.07972e-06
1.23789e-05
4.28243e-06
-1.65973e-06
1.33802e-05
3.14766e-06
-8.11532e-07
1.32351e-05
3.01903e-06
-2.1908e-07
1.25158e-05
3.75921e-06
-2.01673e-07
1.15916e-05
3.73259e-06
-7.51062e-08
1.08766e-05
3.13977e-06
9.3867e-09
9.50478e-06
1.90197e-06
1.04279e-06
6.716e-06
-5.58175e-07
2.05949e-06
5.27827e-06
-9.81636e-07
3.3524e-07
5.41862e-06
1.71741e-06
-2.3283e-06
4.28501e-06
6.76265e-06
-2.0484e-06
-3.05398e-07
1.12203e-05
1.51504e-06
-4.73884e-06
1.12481e-05
5.70398e-06
-7.07946e-06
5.00635e-06
6.53068e-06
-1.18224e-05
3.92452e-08
6.98273e-06
-1.52528e-05
-1.31283e-06
4.47413e-06
-1.65563e-05
-6.43331e-07
1.7144e-06
-1.59317e-05
9.86562e-07
-6.46481e-07
-1.32703e-05
4.58483e-06
-3.83663e-06
-8.56368e-06
9.82875e-06
-7.69794e-06
1.2476e-05
-1.29642e-05
-3.11239e-06
-4.14615e-06
-1.54294e-07
-1.92339e-06
-4.48547e-06
-8.01516e-07
-1.94345e-06
-2.71673e-06
3.31156e-07
-1.61454e-06
-2.70976e-06
-6.07214e-08
-1.2665e-06
-1.94893e-06
7.67956e-09
-5.97455e-07
-1.67166e-06
-1.60729e-07
-1.1264e-07
-4.61085e-07
-2.43031e-07
-1.35456e-07
3.19382e-07
-1.31543e-07
-3.56382e-07
6.84466e-07
-1.45118e-07
-5.10926e-07
5.26613e-07
-1.59673e-07
-5.93313e-07
4.17332e-07
-2.07122e-07
-6.77631e-07
3.40647e-07
-2.44879e-07
-7.15737e-07
2.12064e-07
-2.85621e-07
-6.9715e-07
6.24389e-08
-3.18703e-07
-6.22198e-07
-6.00842e-08
-3.40697e-07
-5.20447e-07
-1.23146e-07
-3.57071e-07
-4.15189e-07
-1.23464e-07
-3.62683e-07
-3.21087e-07
-1.14625e-07
-3.66546e-07
-2.44468e-07
-8.17364e-08
-3.64802e-07
-1.83816e-07
-5.7962e-08
-3.62649e-07
-1.41554e-07
-2.44767e-08
-3.57352e-07
-1.144e-07
6.34893e-09
-3.52617e-07
-9.85948e-08
3.58843e-08
-3.47881e-07
-9.12737e-08
6.35757e-08
-3.45081e-07
-8.9421e-08
8.89841e-08
-3.43797e-07
-9.03036e-08
1.11838e-07
-3.44117e-07
-9.16169e-08
1.32686e-07
-3.45786e-07
-9.09797e-08
1.51491e-07
-3.48763e-07
-8.60271e-08
1.68243e-07
-3.52822e-07
-7.47598e-08
1.83181e-07
-3.57652e-07
-5.59797e-08
1.96971e-07
-3.62798e-07
-3.0245e-08
2.1052e-07
-3.67391e-07
4.91087e-10
2.24132e-07
-3.70307e-07
3.31303e-08
2.35673e-07
-3.70746e-07
6.63523e-08
2.39327e-07
-3.68469e-07
9.87858e-08
2.32094e-07
-3.63412e-07
1.26067e-07
2.15956e-07
-3.5486e-07
1.35793e-07
1.9919e-07
-3.39258e-07
1.06864e-07
1.93166e-07
-3.14423e-07
1.82007e-08
2.00182e-07
-2.75527e-07
-1.18683e-07
1.89753e-07
-2.20345e-07
-2.39105e-07
1.04953e-07
-1.55053e-07
-2.36504e-07
-1.29511e-07
-1.06189e-07
-9.67688e-08
-4.51436e-07
-1.06189e-07
4.75247e-08
-7.57341e-07
-1.51135e-07
-1.94538e-07
-1.04249e-06
5.62913e-08
-4.90088e-07
-1.97399e-06
2.68595e-07
-8.30859e-07
-3.38651e-06
3.98145e-07
-9.57537e-07
-4.32323e-06
3.04786e-07
-6.04058e-07
-5.23399e-06
2.78292e-07
-4.95366e-06
-5.28622e-06
1.15868e-06
-1.37631e-05
-1.52071e-05
5.41853e-06
-1.98748e-05
-2.68178e-05
7.77218e-06
-2.03955e-05
-2.90066e-05
4.41176e-06
-1.49549e-05
-2.41364e-05
-2.26517e-06
-9.64355e-06
-1.64323e-05
-4.47126e-06
7.37626e-06
-6.88237e-06
-1.56575e-05
2.91152e-05
-9.31174e-06
-1.4061e-05
-3.17482e-06
3.93197e-05
1.75323e-05
2.15936e-07
-1.01937e-05
2.59665e-08
4.25948e-06
-4.25042e-05
-5.22758e-06
-6.0107e-07
-1.03561e-05
6.68394e-07
7.66942e-06
-8.82169e-06
-3.53499e-06
-1.55565e-06
5.98679e-06
1.16972e-06
-4.58763e-06
1.2901e-06
-1.8258e-06
-4.90118e-06
2.51897e-06
-3.61281e-06
-4.30475e-06
4.61554e-06
-4.32574e-06
-5.42525e-06
7.39462e-06
-3.14281e-06
-5.95137e-06
7.33543e-06
-2.67283e-06
-5.29868e-06
7.05322e-06
-2.74759e-06
-3.73032e-06
7.95e-06
-2.77758e-06
-1.70825e-06
9.57824e-06
-1.96497e-06
1.28394e-06
9.34906e-06
-1.59531e-06
3.44393e-06
7.40375e-06
-9.24214e-07
3.94914e-06
5.3081e-06
1.05285e-07
3.43673e-06
4.98477e-06
-1.89927e-07
2.51426e-06
4.85105e-06
-7.80915e-07
1.90357e-06
4.57136e-06
-9.41638e-07
1.66958e-06
4.37203e-06
-3.78838e-07
3.19358e-07
4.0301e-06
1.0527e-06
-1.97117e-06
3.60459e-06
1.82571e-06
-4.48517e-06
2.38374e-06
2.03224e-06
-6.33146e-06
1.02648e-07
1.18547e-06
-7.85559e-06
-7.71086e-07
1.31357e-06
-9.69014e-06
1.67531e-06
1.87665e-06
-1.02472e-05
3.6762e-06
3.64353e-06
-9.60345e-06
5.23325e-06
5.34329e-06
-7.56772e-06
3.19462e-06
6.01777e-06
-8.45309e-06
-7.66265e-07
6.65798e-06
-1.149e-05
-2.26347e-06
5.33965e-06
-1.34979e-05
-1.98885e-06
2.68394e-06
-1.40024e-05
-2.17902e-07
7.90523e-08
-1.31469e-05
2.29525e-06
-2.16423e-06
-1.09795e-05
7.28803e-06
-4.87057e-06
-7.14958e-06
1.34279e-05
-7.42907e-06
1.74565e-05
-1.21301e-05
-3.8434e-06
-4.20712e-06
1.40317e-07
-2.61282e-06
-4.79873e-06
-9.17318e-07
-2.36944e-06
-3.09535e-06
1.35249e-07
-1.79016e-06
-2.91463e-06
-3.74404e-07
-1.49777e-06
-2.11411e-06
-1.27201e-07
-8.86796e-07
-2.02488e-06
-2.5775e-07
-3.1157e-07
-9.61944e-07
-7.43684e-08
-2.10298e-08
7.61161e-08
-4.72769e-08
-5.43411e-08
8.31582e-07
-1.13808e-07
-2.53534e-07
8.60499e-07
-1.34696e-07
-4.12242e-07
7.58538e-07
-1.825e-07
-5.82478e-07
7.19315e-07
-2.08434e-07
-6.88115e-07
5.65269e-07
-2.47569e-07
-7.1529e-07
3.75249e-07
-2.85636e-07
-6.52339e-07
1.95008e-07
-3.18044e-07
-5.49971e-07
1.1414e-07
-3.39655e-07
-4.42006e-07
1.21405e-07
-3.52833e-07
-3.49597e-07
1.55549e-07
-3.62581e-07
-2.72824e-07
2.113e-07
-3.69808e-07
-2.11087e-07
2.54051e-07
-3.73747e-07
-1.62864e-07
3.01481e-07
-3.74178e-07
-1.2523e-07
3.4175e-07
-3.73032e-07
-9.96123e-08
3.80277e-07
-3.70006e-07
-8.42556e-08
4.14585e-07
-3.6636e-07
-7.61438e-08
4.4391e-07
-3.63032e-07
-7.21861e-08
4.68374e-07
-3.60486e-07
-6.96229e-08
4.88869e-07
-3.58737e-07
-6.57471e-08
5.05437e-07
-3.57812e-07
-5.80515e-08
5.18018e-07
-3.57461e-07
-4.49878e-08
5.2723e-07
-3.571e-07
-2.6835e-08
5.34613e-07
-3.55785e-07
-6.09967e-09
5.42337e-07
-3.52539e-07
1.45683e-08
5.50611e-07
-3.47136e-07
3.15433e-08
5.57802e-07
-3.39089e-07
4.30074e-08
5.56731e-07
-3.28857e-07
4.50115e-08
5.464e-07
-3.16294e-07
2.40751e-08
5.35887e-07
-2.98985e-07
-4.10647e-08
5.3959e-07
-2.75244e-07
-1.72339e-07
5.67255e-07
-2.42805e-07
-3.64917e-07
5.96053e-07
-2.03278e-07
-5.595e-07
5.51152e-07
-1.66811e-07
-6.37781e-07
3.36703e-07
-1.53456e-07
-4.81003e-07
-8.91406e-08
-1.97146e-07
-2.25311e-07
-4.36788e-07
-2.70329e-07
-1.17189e-07
-5.69331e-07
-2.96135e-07
-4.47433e-07
-7.33759e-07
2.15213e-08
-1.09667e-06
-1.72862e-06
4.03852e-07
-1.84472e-06
-3.23411e-06
5.95667e-07
-1.75757e-06
-4.62252e-06
2.12125e-07
-2.96149e-07
-6.47293e-06
-2.22485e-07
-4.30162e-06
-1.63147e-06
3.50708e-07
-1.62039e-05
-5.46891e-06
2.16414e-06
-2.58323e-05
-2.19788e-05
4.7894e-06
-3.0019e-05
-2.73484e-05
2.52852e-06
-2.94995e-05
-2.39682e-05
-6.87684e-07
-2.32494e-05
-1.4608e-05
-8.07433e-06
1.17773e-06
-1.18907e-05
-1.94186e-05
1.03268e-05
-9.9698e-06
-8.49129e-06
-1.90856e-06
4.00831e-05
1.14708e-05
-1.81768e-07
-9.89545e-06
-2.02504e-06
1.83839e-06
-3.79766e-05
-6.54756e-06
-5.26511e-06
-5.23506e-06
1.98243e-06
-3.88267e-06
-7.42692e-06
-2.77721e-06
-8.16496e-06
8.937e-06
1.33208e-06
-7.46734e-06
4.13662e-06
-3.54414e-06
-6.31967e-06
6.02849e-06
-4.6572e-06
-4.35282e-06
6.98883e-06
-4.34013e-06
-3.8582e-06
8.21382e-06
-1.31383e-06
-3.81301e-06
7.21908e-06
7.11614e-08
-4.00185e-06
6.42554e-06
8.16525e-07
-4.74864e-06
7.15016e-06
1.54662e-06
-6.43271e-06
8.92835e-06
2.33396e-06
-1.05971e-05
9.99845e-06
3.51502e-06
-1.60896e-05
9.47361e-06
3.42262e-06
-2.02072e-05
7.34166e-06
2.08403e-06
-2.26921e-05
5.55939e-06
1.91031e-06
-2.35848e-05
3.495e-06
2.24877e-06
-2.40134e-05
2.5061e-06
2.49382e-06
-2.41795e-05
1.67709e-06
2.8611e-06
-2.37206e-05
6.50954e-07
2.92018e-06
-2.27337e-05
-4.11992e-07
3.02973e-06
-2.12521e-05
-2.72923e-06
3.63135e-06
-1.94885e-05
-5.43648e-06
3.77556e-06
-1.76911e-05
-6.15241e-06
3.58394e-06
-1.49726e-05
-4.58135e-06
3.53807e-06
-1.22691e-05
-2.91406e-06
3.88681e-06
-9.64902e-06
-1.54042e-06
4.15359e-06
-8.62532e-06
-1.74484e-06
3.91577e-06
-9.87782e-06
-1.75077e-06
2.237e-06
-1.17306e-05
-1.42174e-06
1.01109e-06
-1.30893e-05
-3.18947e-07
-3.11266e-07
-1.41078e-05
2.06802e-06
-1.26737e-06
-1.37437e-05
5.19987e-06
-3.26871e-06
-1.14885e-05
9.46448e-06
-4.43174e-06
-7.6737e-06
1.47328e-05
-5.11968e-06
1.94133e-05
-9.63049e-06
-4.40339e-06
-3.98042e-06
2.24028e-07
-3.1525e-06
-4.99203e-06
-1.05759e-06
-2.83909e-06
-3.24739e-06
-1.61373e-07
-1.84672e-06
-3.00907e-06
-8.97931e-07
-1.41188e-06
-2.06176e-06
-4.87198e-07
-9.22955e-07
-1.99553e-06
-5.18278e-07
-4.97645e-07
-1.21901e-06
-1.68244e-07
-8.47052e-08
-3.0112e-07
-3.57071e-08
1.63482e-07
7.06917e-07
-1.23525e-07
8.93486e-08
1.06181e-06
-1.27183e-07
-1.14716e-07
1.11641e-06
-1.53807e-07
-4.08082e-07
1.17233e-06
-1.59648e-07
-6.19966e-07
9.82114e-07
-2.04963e-07
-6.87721e-07
7.00053e-07
-2.57051e-07
-6.24421e-07
4.46581e-07
-3.14874e-07
-5.16854e-07
3.58363e-07
-3.51791e-07
-4.08629e-07
3.79892e-07
-3.66711e-07
-3.3033e-07
4.51691e-07
-3.7444e-07
-2.74017e-07
5.32521e-07
-3.77532e-07
-2.32379e-07
5.92363e-07
-3.79947e-07
-1.97133e-07
6.46677e-07
-3.80438e-07
-1.67709e-07
6.89788e-07
-3.77458e-07
-1.44659e-07
7.28088e-07
-3.70856e-07
-1.27807e-07
7.60256e-07
-3.62516e-07
-1.15708e-07
7.85289e-07
-3.5347e-07
-1.06757e-07
8.04162e-07
-3.44732e-07
-9.94452e-08
8.18382e-07
-3.36815e-07
-9.27041e-08
8.28608e-07
-3.29904e-07
-8.50671e-08
8.34103e-07
-3.2371e-07
-7.61249e-08
8.36168e-07
-3.1787e-07
-6.68987e-08
8.36755e-07
-3.11354e-07
-5.92419e-08
8.38061e-07
-3.0337e-07
-5.68655e-08
8.42547e-07
-2.94297e-07
-6.68732e-08
8.51309e-07
-2.83488e-07
-9.33099e-08
8.54001e-07
-2.70816e-07
-1.42358e-07
8.50378e-07
-2.54919e-07
-2.26156e-07
8.5079e-07
-2.31086e-07
-3.52961e-07
8.65099e-07
-1.98695e-07
-5.17424e-07
8.93249e-07
-1.61513e-07
-6.81581e-07
8.90287e-07
-1.30071e-07
-7.81476e-07
7.7459e-07
-1.23527e-07
-7.52587e-07
4.71118e-07
-1.63301e-07
-5.47083e-07
-3.42972e-09
-2.91203e-07
-3.56237e-07
-2.31002e-07
-3.96637e-07
-4.95512e-07
-7.9706e-08
-3.50342e-07
-1.14483e-06
-8.49856e-08
5.37291e-10
-2.25753e-06
-1.04708e-06
4.31168e-07
-2.955e-06
-2.68928e-06
1.52642e-07
-2.0613e-06
-4.88419e-06
-6.3203e-07
-6.76201e-07
-6.28549e-06
-1.57255e-06
-5.73677e-07
-1.33371e-06
-4.00285e-07
-8.24223e-06
1.21935e-06
9.80295e-07
-2.38264e-05
-1.1495e-05
5.10039e-06
-3.32932e-05
-2.43605e-05
6.47896e-06
-3.70608e-05
-2.47757e-05
4.57525e-06
-3.22386e-05
-1.8643e-05
-7.87162e-07
-3.2175e-05
-6.36062e-06
-5.59361e-06
-3.0718e-05
-6.77637e-06
-4.65062e-06
2.41555e-06
5.18776e-06
1.76064e-06
1.50046e-06
-8.25057e-06
-7.2971e-07
-1.6171e-06
-2.78252e-05
-7.03379e-06
-7.86975e-06
-2.00096e-06
3.0186e-06
-1.19182e-05
-2.76204e-06
-6.16367e-07
-1.13774e-05
7.2001e-06
1.1961e-06
-1.07789e-05
5.50402e-06
-1.96584e-06
-9.19534e-06
6.5638e-06
-2.11884e-06
-8.69619e-06
7.01253e-06
-5.2281e-07
-1.00759e-05
8.17526e-06
1.41834e-06
-1.48787e-05
9.04667e-06
2.97523e-06
-2.1575e-05
1.0025e-05
3.09687e-06
-2.86754e-05
1.14823e-05
2.76833e-06
-3.46095e-05
1.28794e-05
1.9831e-06
-3.84369e-05
1.2808e-05
1.01799e-06
-4.06582e-05
1.14436e-05
2.51365e-07
-4.18002e-05
8.61847e-06
-1.3475e-07
-4.1949e-05
5.7135e-06
-5.23884e-09
-4.03464e-05
2.18346e-06
-2.90866e-07
-3.79813e-05
5.7634e-07
-4.35317e-07
-3.49512e-05
-9.1768e-07
-4.35158e-07
-3.2095e-05
-2.23008e-06
2.49037e-08
-2.93163e-05
-3.84063e-06
6.50043e-07
-2.68758e-05
-6.64958e-06
1.47991e-06
-2.50373e-05
-9.6027e-06
2.32784e-06
-2.34174e-05
-1.0696e-05
2.92372e-06
-2.0506e-05
-1.03649e-05
2.87213e-06
-1.63527e-05
-9.26707e-06
2.19978e-06
-1.28804e-05
-7.17901e-06
2.16625e-06
-1.09979e-05
-4.80654e-06
1.17922e-06
-1.21712e-05
-1.96525e-06
1.3878e-06
-1.39491e-05
-8.73359e-07
1.22947e-06
-1.62739e-05
9.27531e-07
1.07835e-06
-1.80545e-05
3.37206e-06
4.76554e-07
-1.74256e-05
5.9324e-06
-1.36144e-06
-1.46354e-05
9.53391e-06
-2.85965e-06
-1.01143e-05
1.44534e-05
-4.24166e-06
1.70925e-05
-7.79354e-06
-4.77525e-06
-3.30134e-06
2.26624e-07
-3.50776e-06
-4.75064e-06
-1.50888e-06
-3.19144e-06
-2.94147e-06
-6.22227e-07
-1.9354e-06
-2.86033e-06
-1.40477e-06
-1.22268e-06
-1.77867e-06
-9.95815e-07
-6.74984e-07
-1.68798e-06
-8.5525e-07
-3.49716e-07
-1.01451e-06
-5.29774e-07
-1.09947e-07
-3.42727e-07
-1.98165e-07
1.29029e-07
6.62211e-07
-1.94274e-07
1.84614e-07
1.15837e-06
-1.52145e-07
7.31514e-08
1.35353e-06
-1.25662e-07
-2.67924e-07
1.59358e-06
-8.01793e-08
-5.39648e-07
1.38979e-06
-1.35957e-07
-6.18322e-07
1.01387e-06
-2.35145e-07
-5.57889e-07
7.16593e-07
-3.30445e-07
-4.67775e-07
6.43545e-07
-3.75296e-07
-3.71664e-07
6.74247e-07
-3.90466e-07
-3.14859e-07
7.77864e-07
-3.82977e-07
-2.80438e-07
8.72777e-07
-3.74675e-07
-2.60097e-07
9.41233e-07
-3.69208e-07
-2.45694e-07
9.96035e-07
-3.63758e-07
-2.35167e-07
1.03609e-06
-3.56825e-07
-2.27205e-07
1.06817e-06
-3.48036e-07
-2.21017e-07
1.09191e-06
-3.37833e-07
-2.14831e-07
1.10664e-06
-3.27533e-07
-2.0798e-07
1.11453e-06
-3.17211e-07
-2.01673e-07
1.11874e-06
-3.06658e-07
-1.96823e-07
1.11946e-06
-2.95689e-07
-1.92998e-07
1.11599e-06
-2.85703e-07
-1.91604e-07
1.1103e-06
-2.75512e-07
-1.95161e-07
1.10533e-06
-2.6501e-07
-2.05528e-07
1.10232e-06
-2.53881e-07
-2.29101e-07
1.1076e-06
-2.41473e-07
-2.7525e-07
1.12263e-06
-2.25155e-07
-3.46434e-07
1.1318e-06
-2.06602e-07
-4.43714e-07
1.13354e-06
-1.85866e-07
-5.65686e-07
1.13455e-06
-1.6178e-07
-6.92836e-07
1.13068e-06
-1.38417e-07
-7.90141e-07
1.11073e-06
-1.20173e-07
-8.12039e-07
1.0245e-06
-1.12297e-07
-7.41548e-07
8.32329e-07
-1.28227e-07
-6.02569e-07
5.21308e-07
-1.89158e-07
-4.20357e-07
1.26689e-07
-3.12336e-07
-3.76397e-07
5.85944e-08
-3.33549e-07
-7.33653e-07
4.31387e-07
-1.53846e-07
-1.53216e-06
6.00967e-07
1.12565e-07
-2.52267e-06
-2.79199e-07
2.22628e-07
-2.94478e-06
-1.94342e-06
-3.23751e-07
-2.52097e-06
-4.00788e-06
-1.30012e-06
-1.65142e-06
-4.5607e-06
-2.59433e-06
-1.74206e-06
7.53546e-08
-1.31844e-06
-4.41777e-06
3.58755e-06
3.07516e-07
-1.75879e-05
-1.38404e-06
3.05916e-06
-3.0552e-05
-1.71521e-05
5.75569e-06
-3.69233e-05
-2.23555e-05
3.9511e-06
-3.43219e-05
-2.05786e-05
-6.65669e-07
-1.83085e-06
-3.08983e-05
-7.95306e-06
6.9173e-06
-1.61064e-05
5.81663e-07
7.21959e-06
-2.61685e-06
7.50073e-06
-2.0228e-06
1.70412e-07
8.21755e-07
-2.32236e-05
-3.28692e-06
-3.33695e-06
-3.03104e-05
2.46887e-06
2.61754e-06
-3.89203e-05
5.12986e-06
7.18688e-07
-3.92414e-05
8.14209e-06
-6.20321e-07
-3.99452e-05
8.4923e-06
-2.28378e-06
-3.98722e-05
8.67098e-06
-2.17962e-06
-4.2123e-05
9.54626e-06
-2.82341e-07
-4.47529e-05
9.96759e-06
8.38246e-07
-4.72121e-05
1.06104e-05
8.96115e-07
-4.8708e-05
1.1056e-05
4.65671e-07
-4.93785e-05
1.18749e-05
2.78696e-07
-4.93042e-05
1.27268e-05
7.91379e-08
-4.88351e-05
1.24657e-05
-1.25953e-07
-4.85684e-05
1.15018e-05
-3.23927e-07
-4.7999e-05
8.71023e-06
-6.60251e-07
-4.62684e-05
4.86016e-06
-8.76259e-07
-4.2494e-05
-9.1112e-08
-1.49892e-06
-3.73094e-05
-2.8599e-06
-1.74747e-06
-3.13576e-05
-5.2168e-06
-1.65197e-06
-2.56757e-05
-6.99536e-06
-9.15922e-07
-2.13126e-05
-8.46111e-06
2.57925e-07
-1.81682e-05
-1.13951e-05
1.60175e-06
-1.60773e-05
-1.44678e-05
2.7748e-06
-1.6631e-05
-1.46839e-05
4.54208e-06
-1.82669e-05
-1.46428e-05
5.91429e-06
-1.93851e-05
-1.4872e-05
6.72346e-06
-1.98682e-05
-1.37763e-05
7.08077e-06
-1.9922e-05
-1.25527e-05
7.80024e-06
-2.08713e-05
-9.58182e-06
8.56602e-06
-2.24642e-05
-7.21709e-06
7.93674e-06
-2.29587e-05
-3.64259e-06
5.06468e-06
-2.20576e-05
-6.82041e-08
2.53917e-06
-1.97495e-05
2.59691e-06
1.0274e-06
-1.59885e-05
6.16362e-06
-3.90771e-07
-9.26627e-06
1.04859e-05
-2.75467e-06
1.2134e-05
-4.3077e-06
-4.61892e-06
-2.25306e-06
6.09096e-07
-3.64995e-06
-4.2995e-06
-1.42011e-06
-3.53861e-06
-2.28145e-06
-7.71356e-07
-2.25853e-06
-2.57098e-06
-1.56943e-06
-1.3488e-06
-1.56653e-06
-1.12187e-06
-5.77659e-07
-1.39635e-06
-1.06277e-06
-2.55029e-07
-6.42849e-07
-6.94294e-07
-1.95226e-07
-2.12991e-07
-1.89543e-07
-6.69439e-08
6.27949e-07
-9.40244e-08
2.73502e-08
1.17552e-06
-1.11446e-07
8.65601e-08
1.39974e-06
-1.0543e-07
2.88955e-09
1.72351e-06
-4.62663e-08
-8.13765e-08
1.64352e-06
-1.6946e-07
-1.45066e-07
1.36744e-06
-2.8988e-07
-1.79637e-07
1.15745e-06
-4.06285e-07
-2.22646e-07
1.15379e-06
-4.67233e-07
-2.63855e-07
1.22676e-06
-5.11307e-07
-3.05903e-07
1.3421e-06
-5.22188e-07
-3.41734e-07
1.43961e-06
-5.31004e-07
-3.63234e-07
1.49682e-06
-5.34088e-07
-3.72179e-07
1.5386e-06
-5.33615e-07
-3.75301e-07
1.5695e-06
-5.30278e-07
-3.7325e-07
1.59257e-06
-5.26448e-07
-3.68427e-07
1.60867e-06
-5.21584e-07
-3.61525e-07
1.61708e-06
-5.17337e-07
-3.53092e-07
1.61999e-06
-5.13888e-07
-3.45646e-07
1.62087e-06
-5.0957e-07
-3.41379e-07
1.61984e-06
-5.04639e-07
-3.42651e-07
1.61691e-06
-4.9964e-07
-3.51077e-07
1.61281e-06
-4.94072e-07
-3.69399e-07
1.61052e-06
-4.8685e-07
-4.00326e-07
1.6108e-06
-4.7754e-07
-4.51848e-07
1.62388e-06
-4.64739e-07
-5.31509e-07
1.65068e-06
-4.4838e-07
-6.32125e-07
1.6653e-06
-4.32863e-07
-7.40686e-07
1.66173e-06
-4.19617e-07
-8.43197e-07
1.64461e-06
-4.07532e-07
-9.15859e-07
1.60249e-06
-3.9914e-07
-9.25222e-07
1.52138e-06
-4.0127e-07
-8.18185e-07
1.34673e-06
-4.29261e-07
-5.78828e-07
1.07067e-06
-4.77691e-07
-3.01494e-07
7.47087e-07
-5.03119e-07
-1.69015e-07
5.20366e-07
-5.26156e-07
-3.98038e-07
7.25932e-07
-4.38326e-07
-9.96648e-07
1.27516e-06
-2.45163e-07
-1.73184e-06
1.38056e-06
-4.44057e-08
-2.48951e-06
3.75937e-07
1.02545e-07
-3.12574e-06
-6.10365e-07
-6.96829e-07
-3.64484e-06
-1.40692e-06
-2.08186e-06
-3.18109e-06
-1.22057e-06
-3.80388e-06
-1.53251e-06
3.50667e-06
-5.07989e-06
-2.70666e-06
6.92156e-06
-2.15987e-06
-1.73122e-05
1.11646e-05
2.05691e-06
-4.10812e-05
9.60303e-07
5.65669e-06
-5.06651e-05
-1.4424e-05
1.65248e-06
-4.74974e-05
-2.15717e-05
-2.17446e-06
-4.89644e-05
-3.01976e-05
7.66445e-07
-2.98263e-05
-2.90627e-05
-6.18215e-06
1.43891e-05
-2.4537e-05
-2.22965e-05
-2.35255e-06
1.32118e-05
3.7006e-06
-2.99293e-05
2.42375e-05
5.3493e-08
-4.10904e-05
6.13891e-06
7.49271e-06
-5.26057e-05
1.13292e-05
5.31774e-06
-5.67533e-05
8.99282e-06
3.29864e-06
-5.82289e-05
7.73273e-06
2.23716e-06
-5.9352e-05
6.78636e-06
3.00969e-06
-6.10989e-05
6.6214e-06
4.6737e-06
-6.00104e-05
5.3489e-06
3.53231e-06
-5.87889e-05
6.46346e-06
2.92749e-06
-5.67675e-05
7.69929e-06
1.33742e-06
-5.44166e-05
9.50108e-06
2.50824e-08
-5.14268e-05
1.09442e-05
-1.2051e-06
-4.77855e-05
1.09444e-05
-2.11787e-06
-4.46491e-05
9.85135e-06
-1.48383e-06
-4.20602e-05
6.58208e-06
-4.58525e-07
-3.98063e-05
2.77263e-06
-1.64171e-07
-3.7726e-05
-1.61694e-06
-5.52275e-07
-3.33238e-05
-3.90808e-06
-3.35195e-06
-2.73778e-05
-4.16041e-06
-7.00064e-06
-1.9897e-05
-5.80745e-06
-8.66712e-06
-1.24807e-05
-8.06224e-06
-7.814e-06
-6.39844e-06
-1.35714e-05
-3.9051e-06
-3.5975e-06
-1.72198e-05
-4.80886e-08
-2.6501e-06
-1.72346e-05
1.60429e-06
-4.95311e-06
-1.64536e-05
4.11499e-06
-1.14067e-05
-1.43892e-05
5.97213e-06
-1.88973e-05
-1.2705e-05
6.42082e-06
-2.47822e-05
-1.24878e-05
5.82188e-06
-2.91578e-05
-1.08333e-05
5.62916e-06
-3.41234e-05
-8.08741e-06
5.83819e-06
-3.82786e-05
-4.49671e-06
5.01191e-06
-3.91569e-05
-2.22442e-06
3.03728e-06
-3.62848e-05
-7.83879e-07
5.11424e-07
-2.85265e-05
-1.08198e-07
-1.48399e-06
-1.52023e-05
6.3292e-07
-3.46926e-06
1.18964e-07
-3.18664e-06
-3.53527e-06
-8.1381e-07
1.484e-06
-3.41239e-06
-3.76205e-06
-6.60331e-07
-3.64745e-06
-1.70325e-06
-3.4314e-07
-2.60569e-06
-2.5221e-06
-1.09064e-06
-1.69232e-06
-1.67658e-06
-8.03315e-07
-7.53404e-07
-1.47451e-06
-8.6076e-07
-4.51772e-07
-5.46671e-07
-3.97814e-07
-3.77387e-07
-2.13108e-07
-7.42716e-08
-2.55193e-07
4.39484e-07
6.62667e-08
-1.49414e-07
1.00613e-06
6.35993e-08
2.58551e-08
1.16244e-06
6.20306e-08