/*--------------------------------*- C++ -*----------------------------------*\
| =========                 |                                                 |
| \\      /  F ield         | OpenFOAM: The Open Source CFD Toolbox           |
|  \\    /   O peration     | Version:  2.3.0                                 |
|   \\  /    A nd           | Web:      www.OpenFOAM.org                      |
|    \\/     M anipulation  |                                                 |
\*---------------------------------------------------------------------------*/
FoamFile
{
    version     2.0;
    format      ascii;
    class       surfaceScalarField;
    location    "24";
    object      phi.air;
}
// * * * * * * * * * * * * * * * * * * * * * * * * * * * * * * * * * * * * * //

dimensions      [0 3 -1 0 0 0 0];

internalField   nonuniform List<scalar> 
16448
(
-7.62877e-07
-2.37557e-06
6.55609e-07
7.18675e-07
-2.41528e-06
9.33728e-07
8.34121e-07
-1.25034e-06
1.13489e-06
1.02244e-06
-1.24825e-06
1.05992e-06
8.55405e-07
-7.12437e-07
8.79474e-07
6.95138e-07
-5.91028e-07
7.51292e-07
4.31019e-07
-3.18694e-07
5.8281e-07
2.04686e-07
-2.7819e-07
5.04519e-07
-2.9361e-08
-2.49453e-07
4.83498e-07
-2.46383e-07
-2.34726e-07
4.51745e-07
-4.26423e-07
-2.42774e-07
4.22812e-07
-5.01577e-07
-2.84107e-07
3.5926e-07
-4.85129e-07
-3.44013e-07
3.27562e-07
-3.91137e-07
-3.98202e-07
3.04208e-07
-2.86837e-07
-4.29962e-07
3.2566e-07
-1.81946e-07
-4.52578e-07
3.47686e-07
-1.11769e-07
-4.59319e-07
3.89141e-07
-5.76568e-08
-4.69594e-07
4.1548e-07
-2.47542e-08
-4.77696e-07
4.44792e-07
-2.71856e-09
-4.82429e-07
4.60393e-07
8.54992e-09
-4.82736e-07
4.71468e-07
1.26724e-08
-4.79376e-07
4.75254e-07
1.17367e-08
-4.7413e-07
4.75067e-07
7.89543e-09
-4.67308e-07
4.71151e-07
2.84238e-09
-4.59626e-07
4.64681e-07
-2.45496e-09
-4.51273e-07
4.56573e-07
-7.58276e-09
-4.42364e-07
4.47494e-07
-1.26699e-08
-4.32775e-07
4.37866e-07
-1.77809e-08
-4.22489e-07
4.27604e-07
-2.19282e-08
-4.1249e-07
4.16642e-07
-2.29651e-08
-4.03306e-07
4.04347e-07
-1.89753e-08
-3.92713e-07
3.88729e-07
-6.4141e-09
-3.81036e-07
3.6848e-07
2.07686e-08
-3.6949e-07
3.42313e-07
7.02494e-08
-3.59396e-07
3.0992e-07
1.50004e-07
-3.52712e-07
2.72964e-07
2.64282e-07
-3.50624e-07
2.36351e-07
4.08121e-07
-3.52442e-07
2.08611e-07
5.6873e-07
-3.56811e-07
1.96206e-07
7.19041e-07
-3.59814e-07
2.09509e-07
8.10112e-07
-3.54707e-07
2.63639e-07
7.79814e-07
-3.50908e-07
3.81211e-07
5.67426e-07
-3.66138e-07
5.78529e-07
2.39107e-07
-4.3224e-07
7.60565e-07
-1.84171e-08
-6.46254e-07
9.03778e-07
7.70228e-08
-1.12067e-06
1.02523e-06
5.30054e-07
-1.57132e-06
1.11829e-06
1.77695e-06
-2.34553e-06
1.09863e-06
2.21905e-06
-1.98322e-06
1.54109e-06
-6.40937e-07
-1.15193e-06
4.01187e-06
-1.82322e-06
-6.52805e-06
7.71031e-06
2.30175e-06
-1.15735e-05
7.4485e-06
6.18346e-06
-1.24851e-05
8.6034e-06
6.77971e-06
-1.00447e-05
9.4484e-06
7.48875e-06
-9.90167e-06
9.19259e-06
9.79341e-06
-9.76852e-06
7.46384e-06
6.41028e-06
-4.33484e-07
3.81652e-06
1.18792e-05
1.03902e-06
-6.50838e-06
-9.12939e-06
8.53429e-06
1.22054e-05
-3.07033e-05
-1.45093e-06
-6.7316e-06
-6.17065e-05
-2.50867e-05
1.00315e-05
-4.27296e-05
-7.12184e-06
1.37537e-05
2.54332e-06
1.26967e-06
9.35457e-06
3.2715e-05
-6.72087e-06
6.0671e-06
3.28362e-05
-4.5748e-06
4.32807e-06
3.29157e-05
-3.53818e-06
3.32566e-06
3.27447e-05
-2.534e-06
2.61282e-06
3.23686e-05
-1.6633e-06
2.01377e-06
3.23135e-05
-1.44053e-06
1.46131e-06
3.21258e-05
-1.03752e-06
1.20669e-06
3.12485e-05
-3.26792e-07
1.23306e-06
2.94751e-05
5.16791e-07
1.27098e-06
2.71033e-05
9.61336e-07
1.38056e-06
2.57047e-05
1.90102e-07
1.16935e-06
2.56106e-05
-3.20184e-07
4.00282e-07
2.58341e-05
-1.97545e-07
-2.74548e-08
2.59993e-05
-2.8077e-07
1.12509e-07
2.57602e-05
-1.80243e-07
4.19815e-07
2.52723e-05
-2.24968e-08
4.96335e-07
2.47437e-05
2.4711e-07
2.5054e-07
2.43853e-05
2.56235e-07
7.11973e-08
2.43988e-05
1.7347e-07
-2.20836e-07
2.49884e-05
-4.4179e-07
-1.98431e-07
2.59076e-05
-7.49187e-07
-2.17159e-07
2.55419e-05
4.39874e-07
-7.16024e-08
2.33459e-05
1.93349e-06
2.76519e-07
1.85587e-05
3.6566e-06
1.14537e-06
8.14093e-06
7.25871e-06
3.32708e-06
-3.55676e-06
5.99749e-06
5.97557e-06
-1.15912e-05
1.71537e-06
6.44788e-06
-1.68277e-05
-2.79544e-07
5.4956e-06
-1.91178e-05
-2.28571e-07
2.51652e-06
-1.8503e-05
4.8891e-07
-1.16635e-06
-1.55439e-05
1.63909e-06
-4.59577e-06
-1.02003e-05
3.25831e-06
-8.7146e-06
2.81226e-06
-1.23984e-05
-1.88301e-06
-3.49426e-06
-4.43865e-08
-7.93002e-07
-3.54319e-06
3.79084e-08
-7.08317e-07
-2.04632e-06
7.11293e-07
-2.69036e-07
-2.04715e-06
3.59617e-07
9.14708e-08
-1.23359e-06
1.60643e-07
3.1832e-07
-8.85179e-07
6.73004e-08
3.39558e-07
-3.1331e-07
-2.66244e-08
1.6279e-07
-1.30005e-07
2.85806e-08
-1.38767e-07
-3.18867e-08
8.39885e-08
-4.11114e-07
-5.74832e-08
9.51028e-08
-6.09101e-07
-1.10938e-07
6.61493e-08
-6.86248e-07
-2.1487e-07
7.90835e-09
-6.69192e-07
-3.28245e-07
-3.28257e-08
-5.7091e-07
-4.3299e-07
-6.34933e-08
-4.45847e-07
-4.95512e-07
-5.95139e-08
-3.15641e-07
-5.35425e-07
-4.73592e-08
-2.18857e-07
-5.39458e-07
-1.66455e-08
-1.41029e-07
-5.49759e-07
2.33881e-09
-9.03753e-08
-5.47287e-07
1.89389e-08
-5.37546e-08
-5.46751e-07
2.77038e-08
-3.33496e-08
-5.37868e-07
3.47294e-08
-2.28321e-08
-5.26968e-07
3.70787e-08
-2.03968e-08
-5.13519e-07
3.69576e-08
-2.2637e-08
-4.99136e-07
3.40733e-08
-2.76414e-08
-4.84282e-07
2.96658e-08
-3.36349e-08
-4.69444e-07
2.41701e-08
-3.96334e-08
-4.54439e-07
1.80807e-08
-4.50053e-08
-4.39021e-07
1.16255e-08
-4.94101e-08
-4.2302e-07
4.94407e-09
-5.14486e-08
-4.07011e-07
-3.43205e-09
-4.74012e-08
-3.91232e-07
-1.61108e-08
-3.51194e-08
-3.74713e-07
-3.02721e-08
-1.14346e-08
-3.57839e-07
-4.68715e-08
2.85353e-08
-3.43046e-07
-6.64035e-08
9.01734e-08
-3.33213e-07
-8.78098e-08
1.79023e-07
-3.31372e-07
-1.1018e-07
2.97403e-07
-3.38528e-07
-1.30466e-07
4.41674e-07
-3.52428e-07
-1.44277e-07
5.98782e-07
-3.69997e-07
-1.43914e-07
7.40662e-07
-3.83388e-07
-1.18299e-07
8.14419e-07
-3.7699e-07
-5.14662e-08
7.55995e-07
-3.57039e-07
6.45603e-08
5.38074e-07
-3.56405e-07
2.08194e-07
2.34475e-07
-4.55902e-07
3.27264e-07
-3.76002e-08
-7.56086e-07
3.81911e-07
-2.19914e-07
-1.37637e-06
4.38011e-07
-2.24488e-07
-2.0715e-06
5.04745e-07
1.50872e-07
-3.32474e-06
6.03843e-07
9.67395e-07
-3.62698e-06
8.27224e-07
5.38638e-07
-3.04727e-06
2.32405e-06
-2.24403e-06
-8.76343e-06
5.01798e-06
-4.63461e-06
-1.69058e-05
7.72292e-06
-7.03167e-06
-2.06692e-05
1.05811e-05
-7.48583e-06
-1.88997e-05
9.30921e-06
-5.72774e-06
-1.74714e-05
5.81159e-06
-6.11705e-06
-1.35937e-05
4.2145e-06
1.37905e-06
-3.99715e-06
-3.93255e-06
1.65075e-05
1.45614e-06
-1.55457e-05
-5.8949e-06
1.49008e-05
1.59559e-05
-2.69682e-05
-1.58795e-06
-6.02514e-06
-7.17275e-05
-3.13825e-05
1.35053e-06
-2.94467e-05
-8.30389e-06
8.83407e-06
7.50344e-06
-4.59436e-06
3.53532e-06
6.28425e-06
-7.05216e-06
1.62001e-06
7.75744e-06
-4.90426e-06
-1.00664e-06
9.82186e-06
-3.05811e-06
-2.60327e-06
1.18948e-05
-9.62177e-07
-3.53239e-06
1.4012e-05
3.9082e-07
-4.08401e-06
1.59388e-05
1.10977e-06
-4.41369e-06
1.7615e-05
1.86835e-06
-4.51409e-06
1.83027e-05
3.67527e-06
-4.60141e-06
1.74635e-05
5.73179e-06
-4.28515e-06
1.53715e-05
7.26594e-06
-4.2264e-06
1.39858e-05
7.7115e-06
-6.32506e-06
1.28363e-05
7.01992e-06
-6.28123e-06
1.11423e-05
5.15751e-06
-3.68712e-06
9.15259e-06
3.33554e-06
-1.6662e-06
8.06925e-06
2.66505e-06
-1.78271e-06
7.83521e-06
2.85724e-06
-2.62025e-06
7.99275e-06
2.75275e-06
-2.64749e-06
8.34877e-06
2.44577e-06
-2.53379e-06
9.61998e-06
1.57403e-06
-2.66855e-06
1.21375e-05
-1.2795e-06
-1.70723e-06
1.50097e-05
-2.06907e-06
-1.51597e-06
1.70818e-05
-4.61731e-07
-1.1271e-06
1.69729e-05
3.61447e-06
-1.49324e-06
1.32077e-05
8.15938e-06
-5.59767e-07
4.47969e-06
1.24702e-05
3.60257e-06
-5.00086e-06
9.14832e-06
6.46516e-06
-1.17346e-05
2.2673e-06
6.25649e-06
-1.64304e-05
-2.71583e-07
4.60826e-06
-1.85503e-05
-2.36909e-07
2.14562e-06
-1.80217e-05
9.59371e-07
-1.0476e-06
-1.49942e-05
3.39413e-06
-4.78231e-06
-9.51904e-06
6.81583e-06
-9.09458e-06
8.05526e-06
-1.40329e-05
-2.52186e-06
-3.93113e-06
-2.89234e-07
-1.43662e-06
-4.09799e-06
-5.30431e-07
-1.51862e-06
-2.40563e-06
4.41305e-07
-1.20696e-06
-2.44157e-06
8.27666e-08
-8.02222e-07
-1.59321e-06
-4.51211e-08
-3.34905e-07
-1.16334e-06
-1.89153e-07
-1.25665e-07
-2.193e-07
-3.03251e-07
-2.37907e-07
1.65026e-07
-1.82791e-07
-4.48995e-07
3.18424e-07
-1.39225e-07
-5.97765e-07
2.12398e-07
-1.21113e-07
-6.96904e-07
1.27826e-07
-1.39626e-07
-7.40733e-07
1.1451e-08
-1.82493e-07
-7.31055e-07
-1.11661e-07
-2.26263e-07
-6.69829e-07
-2.37676e-07
-2.56541e-07
-5.69364e-07
-3.25828e-07
-2.7015e-07
-4.52153e-07
-3.78466e-07
-2.74171e-07
-3.47124e-07
-3.80889e-07
-2.63596e-07
-2.54121e-07
-3.8707e-07
-2.55692e-07
-1.87163e-07
-3.69921e-07
-2.44324e-07
-1.3548e-07
-3.59962e-07
-2.3847e-07
-1.02319e-07
-3.3957e-07
-2.31457e-07
-8.21501e-08
-3.19118e-07
-2.28016e-07
-7.3458e-08
-2.96195e-07
-2.26012e-07
-7.19274e-08
-2.74189e-07
-2.26472e-07
-7.48491e-08
-2.52967e-07
-2.28388e-07
-7.96459e-08
-2.33168e-07
-2.31472e-07
-8.4211e-08
-2.14422e-07
-2.35445e-07
-8.62696e-08
-1.96643e-07
-2.40312e-07
-8.35365e-08
-1.79636e-07
-2.46108e-07
-7.44069e-08
-1.63213e-07
-2.52918e-07
-5.78443e-08
-1.47058e-07
-2.60727e-07
-3.23406e-08
-1.31147e-07
-2.6906e-07
2.16893e-09
-1.15452e-07
-2.76887e-07
4.48295e-08
-1.02444e-07
-2.83251e-07
9.66443e-08
-9.59338e-08
-2.89084e-07
1.579e-07
-9.88943e-08
-2.93722e-07
2.27213e-07
-1.11637e-07
-2.96194e-07
2.98352e-07
-1.30351e-07
-2.93204e-07
3.57863e-07
-1.50199e-07
-2.793e-07
3.83699e-07
-1.64016e-07
-2.45197e-07
3.582e-07
-1.67488e-07
-1.83996e-07
2.60172e-07
-1.70527e-07
-8.8477e-08
1.19633e-07
-2.33109e-07
1.72474e-08
3.37534e-08
-4.17891e-07
4.78746e-08
-4.11159e-09
-7.6419e-07
4.59699e-08
-2.85179e-07
-1.22826e-06
1.32962e-07
-6.0553e-07
-2.00095e-06
2.49802e-07
-9.04507e-07
-3.32912e-06
3.03365e-07
-7.29896e-07
-4.14512e-06
3.43519e-07
-1.08685e-07
-4.60221e-06
9.33693e-07
-2.67407e-06
-8.47714e-06
2.27903e-06
-7.97338e-06
-1.8598e-05
6.99146e-06
-1.30716e-05
-2.51573e-05
9.58639e-06
-1.34784e-05
-2.51155e-05
6.62258e-06
-1.00829e-05
-2.09609e-05
9.40101e-08
-7.14848e-06
-1.55922e-05
-9.35913e-07
3.68518e-06
-5.52017e-06
-9.31073e-06
2.04765e-05
-1.63352e-06
-1.37018e-05
-7.20706e-06
2.45628e-05
1.79055e-05
-2.94463e-05
-6.90975e-06
-2.89076e-06
-8.11114e-05
-3.32428e-05
-2.83191e-06
-4.04419e-05
-7.52191e-06
-2.69496e-06
4.54012e-06
-4.12902e-06
-4.48406e-06
-1.9046e-07
-2.09548e-06
-5.86245e-07
1.2533e-06
-3.55494e-06
-2.82132e-06
1.23677e-06
-1.42513e-06
-1.72326e-06
2.4569e-06
8.77602e-07
-2.90905e-06
1.59928e-06
3.10717e-06
-1.78546e-06
8.57761e-07
4.09944e-06
-2.24684e-06
1.39005e-06
4.91897e-06
-3.61712e-06
2.59563e-06
6.70419e-06
-4.32889e-06
2.69214e-06
9.59587e-06
-4.03266e-06
3.09697e-06
1.07078e-05
-3.91873e-06
5.03642e-06
8.66803e-06
-2.88879e-06
8.18109e-06
5.96113e-06
-2.08574e-06
1.065e-05
4.31705e-06
-1.66844e-06
1.159e-05
3.17879e-06
-8.16275e-07
1.13938e-05
3.03752e-06
-2.17111e-07
1.06667e-05
3.75289e-06
-2.01248e-07
9.75511e-06
3.73158e-06
-7.23484e-08
9.14882e-06
3.16315e-06
1.38534e-08
7.99412e-06
1.92638e-06
1.03473e-06
5.3346e-06
-5.47742e-07
2.04803e-06
3.90637e-06
-9.8989e-07
3.30961e-07
3.96727e-06
1.69367e-06
-2.33318e-06
2.79602e-06
6.72902e-06
-2.04426e-06
-1.69889e-06
1.12554e-05
1.53356e-06
-5.96648e-06
1.12908e-05
5.71981e-06
-8.2704e-06
5.01384e-06
6.56602e-06
-1.29496e-05
4.86133e-08
6.93448e-06
-1.6355e-05
-1.31049e-06
4.40901e-06
-1.76238e-05
-6.52672e-07
1.68631e-06
-1.70067e-05
9.83453e-07
-6.5746e-07
-1.43112e-05
4.60245e-06
-3.88453e-06
-9.53994e-06
9.83097e-06
-7.77568e-06
1.24665e-05
-1.30597e-05
-3.11239e-06
-4.14615e-06
-1.54294e-07
-1.92339e-06
-4.48547e-06
-8.01516e-07
-1.94345e-06
-2.71673e-06
3.31156e-07
-1.61454e-06
-2.70976e-06
-6.07214e-08
-1.2665e-06
-1.94893e-06
7.67957e-09
-5.97456e-07
-1.67166e-06
-1.60729e-07
-1.12641e-07
-4.61085e-07
-2.43031e-07
-1.35457e-07
3.19382e-07
-1.31543e-07
-3.56383e-07
6.84466e-07
-1.45118e-07
-5.10927e-07
5.26613e-07
-1.59673e-07
-5.93314e-07
4.17332e-07
-2.07122e-07
-6.77632e-07
3.40647e-07
-2.44879e-07
-7.15738e-07
2.12064e-07
-2.85621e-07
-6.97151e-07
6.24389e-08
-3.18703e-07
-6.22199e-07
-6.00842e-08
-3.40697e-07
-5.20448e-07
-1.23146e-07
-3.57071e-07
-4.1519e-07
-1.23464e-07
-3.62683e-07
-3.21088e-07
-1.14625e-07
-3.66546e-07
-2.44469e-07
-8.17364e-08
-3.64802e-07
-1.83817e-07
-5.7962e-08
-3.62649e-07
-1.41555e-07
-2.44767e-08
-3.57352e-07
-1.14401e-07
6.34893e-09
-3.52617e-07
-9.8596e-08
3.58843e-08
-3.47881e-07
-9.12749e-08
6.35757e-08
-3.45081e-07
-8.94222e-08
8.89841e-08
-3.43797e-07
-9.03048e-08
1.11838e-07
-3.44117e-07
-9.16181e-08
1.32686e-07
-3.45786e-07
-9.09809e-08
1.51491e-07
-3.48763e-07
-8.60283e-08
1.68243e-07
-3.52822e-07
-7.47611e-08
1.83181e-07
-3.57652e-07
-5.59809e-08
1.96971e-07
-3.62798e-07
-3.02462e-08
2.1052e-07
-3.67391e-07
4.89855e-10
2.24132e-07
-3.70307e-07
3.31291e-08
2.35673e-07
-3.70746e-07
6.63511e-08
2.39327e-07
-3.68469e-07
9.87845e-08
2.32094e-07
-3.63412e-07
1.26066e-07
2.15956e-07
-3.5486e-07
1.35792e-07
1.9919e-07
-3.39258e-07
1.06863e-07
1.93166e-07
-3.14423e-07
1.81995e-08
2.00182e-07
-2.75527e-07
-1.18684e-07
1.89753e-07
-2.20345e-07
-2.39106e-07
1.04953e-07
-1.55053e-07
-2.36505e-07
-1.29511e-07
-1.06189e-07
-9.67701e-08
-4.51436e-07
-1.06189e-07
4.75232e-08
-7.57341e-07
-1.51135e-07
-1.9454e-07
-1.04249e-06
5.62913e-08
-4.90092e-07
-1.97399e-06
2.68595e-07
-8.30865e-07
-3.38651e-06
3.98145e-07
-9.57545e-07
-4.32323e-06
3.04786e-07
-6.04092e-07
-5.23399e-06
2.78292e-07
-4.95375e-06
-5.28622e-06
1.15868e-06
-1.37632e-05
-1.52071e-05
5.41854e-06
-1.98749e-05
-2.68178e-05
7.77219e-06
-2.03956e-05
-2.90066e-05
4.41176e-06
-1.4955e-05
-2.41364e-05
-2.26517e-06
-9.64362e-06
-1.64323e-05
-4.47125e-06
7.376e-06
-6.88235e-06
-1.56575e-05
2.91152e-05
-9.31172e-06
-1.4061e-05
-3.47057e-06
3.93198e-05
1.75323e-05
-3.44081e-05
-1.0507e-05
-7.62277e-08
-8.99511e-05
-3.15581e-05
-3.4598e-06
-4.47007e-05
-5.41266e-06
-2.33817e-06
6.24998e-06
-5.84573e-06
-3.43845e-06
-3.10132e-06
5.98766e-06
1.18251e-06
-6.06567e-06
1.28655e-06
-1.7752e-06
-6.54673e-06
2.5595e-06
-3.59086e-06
-5.98762e-06
4.66146e-06
-4.3408e-06
-7.09088e-06
7.42256e-06
-3.15428e-06
-7.58148e-06
7.33784e-06
-2.66903e-06
-6.91389e-06
7.02503e-06
-2.75306e-06
-5.32723e-06
7.90679e-06
-2.80022e-06
-3.27122e-06
9.57611e-06
-1.98108e-06
-2.48141e-07
9.39563e-06
-1.60731e-06
1.97596e-06
7.84473e-06
-9.31272e-07
2.4966e-06
6.20404e-06
1.08145e-07
1.9195e-06
5.17831e-06
-1.87134e-07
8.60569e-07
4.83836e-06
-7.85721e-07
1.70474e-07
4.21583e-06
-9.47541e-07
-1.31258e-07
3.75855e-06
-3.81608e-07
-1.4648e-06
3.12222e-06
1.04624e-06
-3.62492e-06
2.34437e-06
1.82044e-06
-6.06736e-06
7.42674e-07
2.027e-06
-7.84925e-06
-1.34379e-06
1.1818e-06
-9.33399e-06
-7.18453e-07
1.31118e-06
-1.11485e-05
1.69791e-06
1.89529e-06
-1.16511e-05
3.71461e-06
3.63919e-06
-1.09641e-05
5.25556e-06
5.31788e-06
-8.96084e-06
3.18199e-06
6.02785e-06
-9.80476e-06
-7.67692e-07
6.6533e-06
-1.27947e-05
-2.28672e-06
5.2824e-06
-1.47585e-05
-2.01617e-06
2.64785e-06
-1.52069e-05
-2.28455e-07
9.5936e-08
-1.43371e-05
2.29002e-06
-2.19803e-06
-1.21652e-05
7.26346e-06
-4.92441e-06
-8.22025e-06
1.33979e-05
-7.49696e-06
1.74314e-05
-1.22011e-05
-3.8434e-06
-4.20712e-06
1.40317e-07
-2.61282e-06
-4.79873e-06
-9.17318e-07
-2.36944e-06
-3.09535e-06
1.35249e-07
-1.79016e-06
-2.91463e-06
-3.74404e-07
-1.49777e-06
-2.11411e-06
-1.27201e-07
-8.86797e-07
-2.02488e-06
-2.5775e-07
-3.11571e-07
-9.61944e-07
-7.43684e-08
-2.10309e-08
7.61161e-08
-4.72769e-08
-5.43422e-08
8.31582e-07
-1.13808e-07
-2.53535e-07
8.60499e-07
-1.34696e-07
-4.12243e-07
7.58538e-07
-1.825e-07
-5.82479e-07
7.19315e-07
-2.08434e-07
-6.88116e-07
5.65269e-07
-2.47569e-07
-7.15291e-07
3.75249e-07
-2.85636e-07
-6.5234e-07
1.95008e-07
-3.18044e-07
-5.49972e-07
1.1414e-07
-3.39655e-07
-4.42007e-07
1.21405e-07
-3.52833e-07
-3.49599e-07
1.55549e-07
-3.62581e-07
-2.72825e-07
2.113e-07
-3.69808e-07
-2.11089e-07
2.54051e-07
-3.73747e-07
-1.62865e-07
3.01481e-07
-3.74178e-07
-1.25231e-07
3.4175e-07
-3.73032e-07
-9.96135e-08
3.80277e-07
-3.70006e-07
-8.42569e-08
4.14585e-07
-3.6636e-07
-7.6145e-08
4.4391e-07
-3.63032e-07
-7.21873e-08
4.68374e-07
-3.60486e-07
-6.96242e-08
4.88869e-07
-3.58737e-07
-6.57484e-08
5.05437e-07
-3.57812e-07
-5.80527e-08
5.18018e-07
-3.57461e-07
-4.4989e-08
5.2723e-07
-3.571e-07
-2.68363e-08
5.34613e-07
-3.55785e-07
-6.10094e-09
5.42337e-07
-3.52539e-07
1.45671e-08
5.50611e-07
-3.47136e-07
3.1542e-08
5.57802e-07
-3.39089e-07
4.30061e-08
5.56731e-07
-3.28857e-07
4.50102e-08
5.464e-07
-3.16294e-07
2.40738e-08
5.35887e-07
-2.98985e-07
-4.1066e-08
5.3959e-07
-2.75244e-07
-1.72341e-07
5.67255e-07
-2.42805e-07
-3.64919e-07
5.96053e-07
-2.03278e-07
-5.59501e-07
5.51152e-07
-1.66811e-07
-6.37782e-07
3.36703e-07
-1.53456e-07
-4.81004e-07
-8.91406e-08
-1.97146e-07
-2.25313e-07
-4.36788e-07
-2.70329e-07
-1.1719e-07
-5.69331e-07
-2.96135e-07
-4.47436e-07
-7.33759e-07
2.15213e-08
-1.09667e-06
-1.72862e-06
4.03852e-07
-1.84473e-06
-3.23411e-06
5.95667e-07
-1.75758e-06
-4.62252e-06
2.12125e-07
-2.96185e-07
-6.47293e-06
-2.22485e-07
-4.3017e-06
-1.63147e-06
3.50706e-07
-1.6204e-05
-5.4689e-06
2.16415e-06
-2.58324e-05
-2.19788e-05
4.78941e-06
-3.00191e-05
-2.73484e-05
2.52852e-06
-2.94996e-05
-2.39682e-05
-6.87676e-07
-2.32494e-05
-1.4608e-05
-8.07432e-06
1.17737e-06
-1.18908e-05
-1.94186e-05
1.03267e-05
-9.96984e-06
-8.49132e-06
-2.66863e-06
4.00831e-05
1.14709e-05
-4.18998e-05
-1.0492e-05
-2.17188e-06
-0.000118087
-3.11618e-05
-3.72205e-06
-0.000102095
-3.22965e-06
1.78667e-06
-4.66222e-05
-1.94002e-06
-1.3885e-06
-1.04263e-05
8.05957e-06
9.79713e-07
-9.5028e-06
4.72584e-06
-3.21334e-06
-8.08593e-06
6.43109e-06
-3.91365e-06
-6.00847e-06
6.74594e-06
-2.78119e-06
-5.4598e-06
7.78003e-06
-4.03679e-08
-5.45468e-06
7.17074e-06
9.09471e-07
-5.6764e-06
7.14087e-06
1.58987e-06
-6.43102e-06
8.09923e-06
2.19886e-06
-8.75466e-06
9.54858e-06
2.57289e-06
-6.96904e-05
1.00567e-05
2.97907e-06
-0.000131392
9.27503e-06
3.03506e-06
-0.000137536
7.57247e-06
2.47957e-06
-0.000140074
5.41789e-06
2.60869e-06
-0.000141415
3.76719e-06
2.89073e-06
-0.00014211
2.65571e-06
3.00934e-06
-0.00014261
1.47682e-06
3.32933e-06
-0.000141437
3.13735e-07
3.45885e-06
-0.000136832
-1.0888e-06
3.71622e-06
-0.00011983
-3.42902e-06
4.03151e-06
-6.41451e-05
-5.23793e-06
3.81476e-06
-1.99696e-05
-6.21642e-06
3.58068e-06
-1.68024e-05
-4.63937e-06
3.53992e-06
-1.37999e-05
-2.83163e-06
3.88595e-06
-1.11574e-05
-1.18989e-06
4.15358e-06
-1.01579e-05
-8.41589e-07
3.89518e-06
-1.13848e-05
-7.39356e-07
2.21555e-06
-1.31781e-05
-1.4306e-06
1.0064e-06
-1.44547e-05
-3.08321e-07
-3.02047e-07
-1.53718e-05
2.09004e-06
-1.28156e-06
-1.49956e-05
5.16534e-06
-3.29969e-06
-1.27029e-05
9.43515e-06
-4.46685e-06
-8.77755e-06
1.47578e-05
-5.17241e-06
1.94109e-05
-9.68351e-06
-4.40339e-06
-3.98042e-06
2.24028e-07
-3.1525e-06
-4.99203e-06
-1.05759e-06
-2.83909e-06
-3.24739e-06
-1.61373e-07
-1.84672e-06
-3.00907e-06
-8.97931e-07
-1.41188e-06
-2.06176e-06
-4.87198e-07
-9.22956e-07
-1.99553e-06
-5.18278e-07
-4.97646e-07
-1.21901e-06
-1.68244e-07
-8.47062e-08
-3.0112e-07
-3.57071e-08
1.63481e-07
7.06917e-07
-1.23525e-07
8.93475e-08
1.06181e-06
-1.27183e-07
-1.14718e-07
1.11641e-06
-1.53807e-07
-4.08084e-07
1.17233e-06
-1.59648e-07
-6.19968e-07
9.82114e-07
-2.04963e-07
-6.87722e-07
7.00053e-07
-2.57051e-07
-6.24422e-07
4.46581e-07
-3.14874e-07
-5.16855e-07
3.58363e-07
-3.51791e-07
-4.0863e-07
3.79892e-07
-3.66711e-07
-3.30331e-07
4.51691e-07
-3.7444e-07
-2.74018e-07
5.32521e-07
-3.77532e-07
-2.3238e-07
5.92363e-07
-3.79947e-07
-1.97134e-07
6.46677e-07
-3.80438e-07
-1.67711e-07
6.89788e-07
-3.77458e-07
-1.4466e-07
7.28088e-07
-3.70856e-07
-1.27808e-07
7.60256e-07
-3.62516e-07
-1.15709e-07
7.85289e-07
-3.5347e-07
-1.06758e-07
8.04162e-07
-3.44732e-07
-9.94465e-08
8.18382e-07
-3.36815e-07
-9.27053e-08
8.28608e-07
-3.29904e-07
-8.50684e-08
8.34103e-07
-3.2371e-07
-7.61262e-08
8.36168e-07
-3.1787e-07
-6.69e-08
8.36755e-07
-3.11354e-07
-5.92432e-08
8.38061e-07
-3.0337e-07
-5.68668e-08
8.42547e-07
-2.94297e-07
-6.68745e-08
8.51309e-07
-2.83488e-07
-9.33113e-08
8.54001e-07
-2.70816e-07
-1.42359e-07
8.50378e-07
-2.54919e-07
-2.26158e-07
8.5079e-07
-2.31086e-07
-3.52963e-07
8.65099e-07
-1.98695e-07
-5.17426e-07
8.93249e-07
-1.61513e-07
-6.81582e-07
8.90287e-07
-1.30071e-07
-7.81477e-07
7.7459e-07
-1.23527e-07
-7.52589e-07
4.71118e-07
-1.63301e-07
-5.47085e-07
-3.42974e-09
-2.91203e-07
-3.56238e-07
-2.31002e-07
-3.96637e-07
-4.95514e-07
-7.97061e-08
-3.50342e-07
-1.14483e-06
-8.49857e-08
5.37308e-10
-2.25754e-06
-1.04708e-06
4.31168e-07
-2.95502e-06
-2.68928e-06
1.52642e-07
-2.06132e-06
-4.88419e-06
-6.32029e-07
-6.76233e-07
-6.28549e-06
-1.57255e-06
-5.73738e-07
-1.33371e-06
-4.00297e-07
-8.24233e-06
1.21934e-06
9.80291e-07
-2.38265e-05
-1.1495e-05
5.1004e-06
-3.32933e-05
-2.43605e-05
6.47897e-06
-3.70609e-05
-2.47758e-05
4.57525e-06
-3.22387e-05
-1.8643e-05
-7.87155e-07
-3.21752e-05
-6.36055e-06
-5.59362e-06
-3.07181e-05
-6.77636e-06
-4.65063e-06
5.88428e-07
5.18773e-06
1.76065e-06
-4.69075e-05
-8.83035e-06
-8.08623e-07
-0.000128323
-2.29882e-05
-4.64636e-06
-0.000126003
-5.16245e-07
3.22247e-06
-0.000128628
-1.50782e-07
-1.63095e-07
-0.000128169
7.00463e-06
1.33554e-06
-0.0001258
6.2328e-06
-1.22604e-06
-0.000124795
7.42757e-06
-1.18439e-06
-0.000125916
7.45084e-06
1.15172e-06
-0.000130248
8.75971e-06
2.5539e-06
-0.000137119
9.192e-06
3.20151e-06
-0.000144188
1.06015e-05
2.9901e-06
-0.000150436
1.19302e-05
2.3523e-06
-0.000157591
1.28638e-05
1.81495e-06
-0.000164092
1.25162e-05
1.17801e-06
-0.000166625
1.12935e-05
5.37385e-07
-0.000167686
8.52305e-06
3.13294e-07
-0.000167872
5.58402e-06
2.40086e-07
-0.00016626
2.51165e-06
4.35503e-08
-0.000164191
7.80887e-07
5.88112e-08
-0.000161653
-1.17979e-06
3.13272e-07
-0.000159448
-2.77937e-06
8.96139e-07
-0.000157578
-4.81354e-06
1.61408e-06
-0.000156027
-7.49386e-06
2.39601e-06
-0.000154561
-9.3959e-06
3.01425e-06
-0.000152535
-9.46858e-06
3.28349e-06
-0.000148669
-8.77166e-06
3.17757e-06
-0.000142039
-7.4619e-06
2.87061e-06
-0.000131125
-5.08206e-06
2.59776e-06
-0.000105731
-3.01159e-06
1.9332e-06
-5.06022e-05
-1.47001e-06
2.598e-06
-1.51282e-05
-1.1806e-06
1.84075e-06
-1.72547e-05
8.88934e-07
1.05989e-06
-1.8985e-05
3.27154e-06
4.72841e-07
-1.83846e-05
5.96745e-06
-1.3818e-06
-1.5597e-05
9.58255e-06
-2.88275e-06
-1.1063e-05
1.39713e-05
-4.2752e-06
1.609e-05
-7.82185e-06
-4.77525e-06
-3.30134e-06
2.26624e-07
-3.50776e-06
-4.75064e-06
-1.50888e-06
-3.19144e-06
-2.94147e-06
-6.22227e-07
-1.9354e-06
-2.86033e-06
-1.40477e-06
-1.22268e-06
-1.77867e-06
-9.95815e-07
-6.74985e-07
-1.68798e-06
-8.5525e-07
-3.49717e-07
-1.01451e-06
-5.29774e-07
-1.09948e-07
-3.42727e-07
-1.98165e-07
1.29028e-07
6.62211e-07
-1.94274e-07
1.84613e-07
1.15837e-06
-1.52145e-07
7.31503e-08
1.35353e-06
-1.25662e-07
-2.67926e-07
1.59358e-06
-8.01793e-08
-5.39649e-07
1.38979e-06
-1.35957e-07
-6.18323e-07
1.01387e-06
-2.35145e-07
-5.5789e-07
7.16593e-07
-3.30445e-07
-4.67776e-07
6.43545e-07
-3.75296e-07
-3.71665e-07
6.74247e-07
-3.90466e-07
-3.1486e-07
7.77864e-07
-3.82977e-07
-2.80439e-07
8.72777e-07
-3.74675e-07
-2.60098e-07
9.41233e-07
-3.69208e-07
-2.45695e-07
9.96035e-07
-3.63758e-07
-2.35168e-07
1.03609e-06
-3.56825e-07
-2.27206e-07
1.06817e-06
-3.48036e-07
-2.21018e-07
1.09191e-06
-3.37833e-07
-2.14832e-07
1.10664e-06
-3.27533e-07
-2.07981e-07
1.11453e-06
-3.17211e-07
-2.01674e-07
1.11874e-06
-3.06658e-07
-1.96825e-07
1.11946e-06
-2.95689e-07
-1.93e-07
1.11599e-06
-2.85702e-07
-1.91605e-07
1.1103e-06
-2.75512e-07
-1.95162e-07
1.10533e-06
-2.6501e-07
-2.0553e-07
1.10232e-06
-2.53881e-07
-2.29102e-07
1.1076e-06
-2.41473e-07
-2.75251e-07
1.12263e-06
-2.25155e-07
-3.46436e-07
1.1318e-06
-2.06602e-07
-4.43715e-07
1.13354e-06
-1.85866e-07
-5.65688e-07
1.13455e-06
-1.6178e-07
-6.92837e-07
1.13068e-06
-1.38417e-07
-7.90142e-07
1.11073e-06
-1.20173e-07
-8.1204e-07
1.0245e-06
-1.12297e-07
-7.4155e-07
8.32329e-07
-1.28227e-07
-6.02571e-07
5.21308e-07
-1.89158e-07
-4.20358e-07
1.26689e-07
-3.12336e-07
-3.76399e-07
5.85944e-08
-3.33549e-07
-7.33655e-07
4.31387e-07
-1.53846e-07
-1.53217e-06
6.00967e-07
1.12565e-07
-2.52268e-06
-2.79199e-07
2.22628e-07
-2.94479e-06
-1.94342e-06
-3.23751e-07
-2.521e-06
-4.00788e-06
-1.30012e-06
-1.65147e-06
-4.5607e-06
-2.59433e-06
-1.74212e-06
7.53532e-08
-1.31844e-06
-4.41786e-06
3.58755e-06
3.07506e-07
-1.7588e-05
-1.38405e-06
3.05917e-06
-3.05521e-05
-1.71521e-05
5.7557e-06
-3.69234e-05
-2.23555e-05
3.95111e-06
-3.43219e-05
-2.05785e-05
-6.6566e-07
-1.83135e-06
-3.08983e-05
-7.95309e-06
6.91695e-06
-1.61064e-05
5.81667e-07
2.58325e-06
-2.61681e-06
7.50075e-06
-6.50749e-05
2.29342e-07
1.79591e-07
-0.000152824
-2.80594e-06
-2.79454e-06
-0.000156459
3.22159e-06
4.09948e-06
-0.000162271
5.82295e-06
1.12941e-06
-0.000164743
8.29391e-06
3.552e-07
-0.000166792
8.43086e-06
-1.30412e-06
-0.000168176
8.65704e-06
-1.36761e-06
-0.000170512
9.43451e-06
4.72029e-07
-0.000174252
1.0288e-05
1.23526e-06
-0.00017688
1.11792e-05
1.23448e-06
-0.000178163
1.20472e-05
8.32678e-07
-0.000179074
1.28951e-05
8.09194e-07
-0.000179643
1.33601e-05
5.62634e-07
-0.000180023
1.26652e-05
3.98964e-07
-0.000180105
1.09536e-05
1.80095e-07
-0.000179514
7.7681e-06
-1.31535e-07
-0.000177566
3.88145e-06
-4.07804e-07
-0.000173732
-3.10683e-07
-9.44111e-07
-0.000169074
-3.26191e-06
-1.06128e-06
-0.000163988
-5.59738e-06
-7.58057e-07
-0.000159335
-7.51195e-06
3.32029e-07
-0.00015615
-9.52063e-06
1.76342e-06
-0.000154564
-1.21875e-05
3.3213e-06
-0.000155528
-1.37821e-05
4.80665e-06
-0.000157798
-1.37668e-05
6.47561e-06
-0.000158922
-1.36297e-05
7.28172e-06
-0.000159602
-1.33409e-05
7.79732e-06
-0.000161325
-1.16887e-05
7.97548e-06
-0.000162421
-9.82759e-06
8.44154e-06
-0.000162864
-7.19572e-06
8.20534e-06
-0.000162684
-4.63712e-06
6.62863e-06
-0.000151443
-1.72766e-06
3.86144e-06
-8.32688e-05
1.27785e-06
1.81019e-06
-2.30407e-05
2.53618e-06
6.86681e-07
-3.41417e-05
5.70822e-06
-1.0087e-06
-4.63392e-05
1.11239e-05
-3.208e-06
1.21847e-05
-4.48735e-06
-4.61892e-06
-2.25306e-06
6.09096e-07
-3.64995e-06
-4.2995e-06
-1.42011e-06
-3.53861e-06
-2.28145e-06
-7.71356e-07
-2.25853e-06
-2.57098e-06
-1.56943e-06
-1.3488e-06
-1.56653e-06
-1.12187e-06
-5.7766e-07
-1.39635e-06
-1.06277e-06
-2.5503e-07
-6.42849e-07
-6.94294e-07
-1.95227e-07
-2.12991e-07
-1.89543e-07
-6.69449e-08
6.27949e-07
-9.40244e-08
2.73491e-08
1.17552e-06
-1.11446e-07
8.65589e-08
1.39974e-06
-1.0543e-07
2.88834e-09
1.72351e-06
-4.62662e-08
-8.13777e-08
1.64352e-06
-1.6946e-07
-1.45067e-07
1.36744e-06
-2.8988e-07
-1.79639e-07
1.15745e-06
-4.06285e-07
-2.22647e-07
1.15379e-06
-4.67233e-07
-2.63856e-07
1.22676e-06
-5.11307e-07
-3.05905e-07
1.3421e-06
-5.22188e-07
-3.41735e-07
1.43961e-06
-5.31004e-07
-3.63236e-07
1.49682e-06
-5.34088e-07
-3.7218e-07
1.5386e-06
-5.33615e-07
-3.75302e-07
1.5695e-06
-5.30278e-07
-3.73251e-07
1.59257e-06
-5.26448e-07
-3.68429e-07
1.60867e-06
-5.21584e-07
-3.61526e-07
1.61708e-06
-5.17337e-07
-3.53093e-07
1.61999e-06
-5.13888e-07
-3.45647e-07
1.62087e-06
-5.0957e-07
-3.41381e-07
1.61984e-06
-5.04639e-07
-3.42653e-07
1.61691e-06
-4.9964e-07
-3.51079e-07
1.61281e-06
-4.94072e-07
-3.694e-07
1.61052e-06
-4.8685e-07
-4.00327e-07
1.6108e-06
-4.7754e-07
-4.5185e-07
1.62388e-06
-4.64739e-07
-5.3151e-07
1.65068e-06
-4.4838e-07
-6.32126e-07
1.6653e-06
-4.32863e-07
-7.40688e-07
1.66173e-06
-4.19617e-07
-8.43199e-07
1.64461e-06
-4.07532e-07
-9.15861e-07
1.60249e-06
-3.9914e-07
-9.25223e-07
1.52138e-06
-4.0127e-07
-8.18186e-07
1.34673e-06
-4.29261e-07
-5.78829e-07
1.07067e-06
-4.77691e-07
-3.01496e-07
7.47087e-07
-5.03119e-07
-1.69017e-07
5.20366e-07
-5.26156e-07
-3.98039e-07
7.25932e-07
-4.38326e-07
-9.96651e-07
1.27516e-06
-2.45163e-07
-1.73184e-06
1.38056e-06
-4.44056e-08
-2.48952e-06
3.75937e-07
1.02545e-07
-3.12576e-06
-6.10365e-07
-6.96829e-07
-3.64487e-06
-1.40692e-06
-2.08186e-06
-3.18115e-06
-1.22057e-06
-3.80388e-06
-1.5326e-06
3.50667e-06
-5.07989e-06
-2.70678e-06
6.92156e-06
-2.15988e-06
-1.73123e-05
1.11646e-05
2.05692e-06
-4.10814e-05
9.60301e-07
5.6567e-06
-5.06652e-05
-1.4424e-05
1.65249e-06
-4.74975e-05
-2.15717e-05
-2.17446e-06
-4.89647e-05
-3.01976e-05
7.66466e-07
-2.98263e-05
-2.90627e-05
-6.18214e-06
8.16581e-06
-2.4537e-05
-2.22965e-05
-7.85312e-05
1.43898e-05
5.24984e-06
-0.000180384
2.22334e-05
1.57163e-06
-0.000187666
7.10978e-06
9.86394e-06
-0.000196283
1.12048e-05
6.91511e-06
-0.000201483
7.92771e-06
4.84669e-06
-0.000204742
6.58632e-06
2.90542e-06
-0.000207496
6.02905e-06
3.6271e-06
-0.000209163
6.50009e-06
4.71453e-06
-0.000209267
6.35791e-06
3.69206e-06
-0.000208433
8.36815e-06
3.21318e-06
-0.000207138
9.37609e-06
1.67306e-06
-0.000205353
1.07937e-05
4.65363e-07
-0.000203213
1.11807e-05
-4.00472e-07
-0.000200924
1.04862e-05
-7.13379e-07
-0.0001992
8.33852e-06
-6.99261e-08
-0.000198278
4.82546e-06
1.92523e-07
-0.000197169
8.20342e-07
-3.63345e-07
-0.000196056
-2.74242e-06
-1.95906e-06
-0.000192424
-4.58891e-06
-5.24711e-06
-0.000186514
-5.4666e-06
-7.48322e-06
-0.000180312
-8.3127e-06
-8.033e-06
-0.000175053
-1.10078e-05
-5.40385e-06
-0.000172098
-1.49709e-05
-6.64444e-07
-0.000170961
-1.53287e-05
2.33214e-06
-0.000171809
-1.50066e-05
4.4649e-06
-0.000177551
-1.36614e-05
7.02474e-06
-0.0001862
-1.25874e-05
7.87815e-06
-0.000193473
-1.17477e-05
7.77437e-06
-0.000199378
-1.12228e-05
7.38624e-06
-0.000204657
-8.79658e-06
7.47491e-06
-0.000209978
-5.97312e-06
7.54741e-06
-0.000213105
-3.45278e-06
6.28615e-06
-0.000212564
-1.46782e-06
3.78046e-06
-0.00020768
-3.57434e-07
1.03759e-06
-0.000197514
3.08021e-07
-8.52611e-07
-0.000183252
9.98346e-07
-2.22599e-06
5.38887e-07
-1.17688e-06
-3.53527e-06
-8.1381e-07
1.484e-06
-3.41239e-06
-3.76205e-06
-6.60331e-07
-3.64745e-06
-1.70325e-06
-3.4314e-07
-2.60569e-06
-2.5221e-06
-1.09064e-06
-1.69232e-06
-1.67658e-06
-8.03315e-07
-7.53405e-07
-1.47451e-06
-8.6076e-07
-4.51773e-07
-5.46671e-07
-3.97814e-07
-3.77388e-07
-2.13108e-07
-7.42716e-08
-2.55194e-07
4.39484e-07
6.62667e-08
-1.49415e-07
1.00613e-06
6.35993e-08
2.5854e-08
1.16244e-06
6.20306e-08