/*--------------------------------*- C++ -*----------------------------------*\
| =========                 |                                                 |
| \\      /  F ield         | OpenFOAM: The Open Source CFD Toolbox           |
|  \\    /   O peration     | Version:  2.3.0                                 |
|   \\  /    A nd           | Web:      www.OpenFOAM.org                      |
|    \\/     M anipulation  |                                                 |
\*---------------------------------------------------------------------------*/
FoamFile
{
    version     2.0;
    format      ascii;
    class       volScalarField;
    location    "24";
    object      rho;
}
// * * * * * * * * * * * * * * * * * * * * * * * * * * * * * * * * * * * * * //

dimensions      [1 -3 0 0 0 0 0];

internalField   nonuniform List<scalar> 
6144
(
1.16444
1.16527
1.1658
1.16616
1.16659
1.16705
1.16754
1.16814
1.16865
1.16885
1.16888
1.16888
1.16889
1.16889
1.16889
1.1689
1.1689
1.1689
1.1689
1.1689
1.1689
1.16891
1.16891
1.16891
1.16891
1.16891
1.16891
1.16892
1.16892
1.16892
1.16892
1.16892
1.16892
1.16892
1.16893
1.16893
1.16893
1.16893
1.16893
1.16893
1.16893
1.16894
1.16894
1.16894
1.16897
1.16967
1.17151
1.17443
1.19008
1.26035
1.29703
1.30334
1.29755
1.2949
1.29153
1.29089
1.28781
1.28963
2.22424
57.196
958.587
1026.34
1027.09
1027.1
1027.1
1027.1
1027.1
1027.1
1027.1
1027.1
1027.1
1027.1
1027.1
1027.1
1027.1
1027.1
1027.1
1027.1
1027.1
1027.1
1027.1
1027.1
1027.1
1027.1
1027.1
1027.1
1027.1
1027.1
1027.1
1027.1
1027.1
1027.1
1027.1
1027.1
1027.1
1027.1
1.16366
1.16485
1.16561
1.16598
1.16659
1.16716
1.16773
1.16836
1.16875
1.16886
1.16888
1.16889
1.16889
1.1689
1.1689
1.16891
1.16891
1.16891
1.16891
1.16891
1.16891
1.16891
1.16891
1.16892
1.16892
1.16892
1.16892
1.16892
1.16892
1.16893
1.16893
1.16893
1.16893
1.16893
1.16893
1.16894
1.16894
1.16894
1.16894
1.16894
1.16894
1.16894
1.16894
1.16894
1.16904
1.16953
1.17102
1.17416
1.18154
1.22302
1.2793
1.30042
1.2948
1.29179
1.28933
1.28762
1.28032
1.29145
1.5914
23.2738
967.84
1026.77
1027.09
1027.1
1027.1
1027.1
1027.1
1027.1
1027.1
1027.1
1027.1
1027.1
1027.1
1027.1
1027.1
1027.1
1027.1
1027.1
1027.1
1027.1
1027.1
1027.1
1027.1
1027.1
1027.1
1027.1
1027.1
1027.1
1027.1
1027.1
1027.1
1027.1
1027.1
1027.1
1027.1
1027.1
1.16322
1.1644
1.16542
1.16582
1.16635
1.167
1.1677
1.16827
1.16855
1.1687
1.16878
1.16885
1.16888
1.1689
1.1689
1.16891
1.16891
1.16891
1.16891
1.16891
1.16891
1.16891
1.16892
1.16892
1.16892
1.16892
1.16892
1.16892
1.16893
1.16893
1.16893
1.16893
1.16893
1.16893
1.16893
1.16894
1.16894
1.16894
1.16894
1.16894
1.16894
1.16894
1.16894
1.16896
1.16914
1.16978
1.17167
1.17535
1.17932
1.1964
1.26961
1.29984
1.29488
1.29128
1.28936
1.28785
1.28028
1.28976
1.45373
29.0108
984.488
1026.99
1027.09
1027.09
1027.09
1027.1
1027.1
1027.1
1027.1
1027.1
1027.1
1027.1
1027.1
1027.1
1027.1
1027.1
1027.1
1027.1
1027.1
1027.1
1027.1
1027.1
1027.1
1027.1
1027.1
1027.1
1027.1
1027.1
1027.1
1027.1
1027.1
1027.1
1027.1
1027.1
1027.1
1027.1
1.16291
1.16388
1.16511
1.16554
1.16601
1.1666
1.16754
1.16828
1.16851
1.16863
1.16873
1.16883
1.16888
1.1689
1.1689
1.1689
1.1689
1.1689
1.16891
1.16891
1.16891
1.16891
1.16891
1.16891
1.16891
1.16892
1.16892
1.16892
1.16892
1.16892
1.16892
1.16892
1.16893
1.16893
1.16893
1.16893
1.16893
1.16893
1.16893
1.16894
1.16894
1.16894
1.16894
1.16901
1.16932
1.1704
1.17384
1.17988
1.18397
1.19198
1.26561
1.29918
1.29622
1.29106
1.28861
1.28682
1.28031
1.294
1.41909
46.5666
1002.85
1027.07
1027.09
1027.1
1027.1
1027.1
1027.1
1027.1
1027.1
1027.1
1027.1
1027.1
1027.1
1027.1
1027.1
1027.1
1027.1
1027.1
1027.1
1027.1
1027.1
1027.1
1027.1
1027.1
1027.1
1027.1
1027.1
1027.1
1027.1
1027.1
1027.1
1027.1
1027.1
1027.1
1027.1
1027.1
1.16269
1.16335
1.16465
1.1652
1.16569
1.1661
1.16696
1.16803
1.16851
1.16864
1.16871
1.16882
1.16888
1.1689
1.1689
1.16891
1.16891
1.16891
1.16891
1.16891
1.16891
1.16892
1.16892
1.16892
1.16892
1.16892
1.16892
1.16892
1.16892
1.16893
1.16893
1.16893
1.16893
1.16893
1.16893
1.16893
1.16893
1.16894
1.16894
1.16894
1.16894
1.16894
1.16896
1.16907
1.16956
1.17176
1.17781
1.18591
1.19361
1.20264
1.25161
1.2967
1.29875
1.29394
1.28995
1.28719
1.28311
1.30396
1.36958
72.0808
1006.59
1027.09
1027.09
1027.09
1027.09
1027.1
1027.1
1027.1
1027.1
1027.1
1027.1
1027.1
1027.1
1027.1
1027.1
1027.1
1027.09
1027.09
1027.09
1027.09
1027.09
1027.09
1027.1
1027.1
1027.1
1027.1
1027.1
1027.1
1027.1
1027.1
1027.1
1027.1
1027.1
1027.1
1027.1
1027.1
1.16259
1.16291
1.16404
1.1647
1.16538
1.16577
1.16647
1.16736
1.1684
1.16866
1.1687
1.16881
1.16887
1.16889
1.1689
1.1689
1.1689
1.1689
1.1689
1.1689
1.16891
1.16891
1.16891
1.16891
1.16891
1.16891
1.16892
1.16892
1.16892
1.16892
1.16892
1.16892
1.16892
1.16893
1.16893
1.16893
1.16893
1.16893
1.16893
1.16893
1.16894
1.16894
1.16896
1.1691
1.16992
1.17369
1.18152
1.19169
1.20397
1.22034
1.22348
1.27899
1.29943
1.29772
1.2917
1.2891
1.28747
1.2876
1.28048
122.265
1006.15
1026.82
1026.84
1026.86
1026.85
1026.84
1026.83
1026.81
1026.79
1026.77
1026.75
1026.71
1026.68
1026.66
1026.63
1026.6
1026.58
1026.57
1026.56
1026.58
1026.6
1026.66
1026.77
1026.89
1026.99
1027.05
1027.08
1027.09
1027.1
1027.1
1027.1
1027.1
1027.1
1027.1
1027.1
1027.1
1.16258
1.16273
1.16353
1.16416
1.16502
1.16555
1.16627
1.16703
1.16793
1.16857
1.16868
1.16879
1.16887
1.16889
1.1689
1.1689
1.16891
1.16891
1.16891
1.16891
1.16891
1.16891
1.16891
1.16891
1.16892
1.16892
1.16892
1.16892
1.16892
1.16892
1.16892
1.16893
1.16893
1.16893
1.16893
1.16893
1.16893
1.16893
1.16893
1.16894
1.16894
1.16894
1.16897
1.16913
1.17019
1.17458
1.18305
1.19441
1.20758
1.22677
1.24522
1.25527
1.29807
1.30311
1.29831
1.29246
1.28747
1.29133
1.28048
248.735
1019.76
1023.98
1023.93
1023.9
1023.86
1024.17
1024.27
1024.2
1024.08
1023.9
1023.68
1023.42
1023.14
1022.91
1022.76
1022.68
1022.77
1023.02
1023.36
1023.7
1023.95
1024.09
1024.22
1024.39
1024.64
1024.95
1025.35
1025.8
1026.26
1026.66
1026.97
1027.1
1027.1
1027.1
1027.09
1027.1
1.16273
1.16286
1.16333
1.16383
1.16474
1.16544
1.16624
1.16698
1.16755
1.16833
1.1686
1.16877
1.16886
1.16889
1.1689
1.1689
1.1689
1.16891
1.16891
1.16891
1.16891
1.16891
1.16892
1.16892
1.16892
1.16892
1.16892
1.16892
1.16893
1.16893
1.16893
1.16893
1.16893
1.16893
1.16893
1.16894
1.16894
1.16894
1.16894
1.16894
1.16895
1.16895
1.16896
1.16909
1.17023
1.17469
1.18323
1.19483
1.20789
1.22603
1.25864
1.27016
1.29753
1.30456
1.3025
1.29531
1.28951
1.28711
1.28048
273.724
1014.79
1020.03
1019.62
1019.43
1019.34
1019.3
1019.22
1019.08
1018.94
1018.73
1018.52
1018.3
1018.19
1018.13
1018.04
1017.94
1017.88
1018.41
1019.13
1020.23
1021.6
1022.7
1023.01
1022.38
1021.77
1021.02
1020.23
1019.4
1018.55
1017.75
1017.05
1016.54
1016.23
1016.15
1018.5
1021.32
1.16287
1.16323
1.16349
1.16384
1.16465
1.16543
1.16638
1.16714
1.1676
1.16804
1.1684
1.16869
1.16883
1.16889
1.16889
1.1689
1.1689
1.1689
1.1689
1.1689
1.16891
1.16891
1.16891
1.16891
1.16891
1.16892
1.16892
1.16892
1.16892
1.16892
1.16892
1.16893
1.16893
1.16893
1.16893
1.16893
1.16893
1.16894
1.16894
1.16894
1.16894
1.16895
1.16895
1.16907
1.17023
1.17439
1.18187
1.1929
1.20603
1.22081
1.24224
1.26627
1.29215
1.30619
1.30445
1.29992
1.29444
1.29009
1.28048
173.947
990.735
1022.68
1022.65
1023.05
1023.24
1023.47
1023.61
1023.67
1023.77
1024.02
1024.35
1024.82
1025.37
1025.93
1026.43
1026.71
1026.79
1026.75
1026.74
1026.76
1026.78
1026.82
1026.87
1026.88
1026.85
1026.83
1026.8
1026.76
1026.79
1026.89
1026.97
1027.01
1027.05
1027.06
1027.08
1027.1
1.16272
1.1634
1.1638
1.16418
1.16474
1.16552
1.16655
1.16732
1.16777
1.16804
1.16835
1.16864
1.1688
1.16888
1.1689
1.1689
1.1689
1.16891
1.16891
1.16891
1.16891
1.16891
1.16891
1.16892
1.16892
1.16892
1.16892
1.16892
1.16892
1.16893
1.16893
1.16893
1.16893
1.16893
1.16893
1.16893
1.16893
1.16894
1.16894
1.16894
1.16894
1.16895
1.16896
1.16908
1.17008
1.17343
1.17999
1.1922
1.20735
1.22138
1.23538
1.25237
1.27555
1.29899
1.30302
1.3024
1.29554
1.29315
1.28048
113.158
1005.14
1026.33
1026.48
1026.76
1026.85
1026.93
1026.96
1026.96
1026.95
1026.99
1027.02
1027.05
1027.08
1027.09
1027.1
1027.1
1027.1
1027.1
1027.1
1027.1
1027.1
1027.1
1027.1
1027.1
1027.1
1027.1
1027.1
1027.1
1027.1
1027.1
1027.1
1027.1
1027.1
1027.1
1027.1
1027.1
1.16247
1.16342
1.16386
1.16435
1.16513
1.16597
1.16675
1.16743
1.16792
1.16816
1.16844
1.1687
1.16882
1.16888
1.16889
1.1689
1.1689
1.1689
1.1689
1.16891
1.16891
1.16891
1.16891
1.16891
1.16892
1.16892
1.16892
1.16892
1.16892
1.16893
1.16893
1.16893
1.16893
1.16893
1.16893
1.16893
1.16894
1.16894
1.16894
1.16894
1.16894
1.16895
1.16896
1.16909
1.16988
1.17228
1.17768
1.19033
1.20779
1.22317
1.23641
1.2499
1.26227
1.28223
1.29357
1.30143
1.29364
1.30305
1.28048
72.2478
1016.23
1027.07
1027.09
1027.09
1027.09
1027.1
1027.09
1027.09
1027.1
1027.1
1027.1
1027.1
1027.1
1027.1
1027.1
1027.1
1027.1
1027.1
1027.1
1027.1
1027.1
1027.1
1027.1
1027.1
1027.1
1027.1
1027.1
1027.1
1027.1
1027.1
1027.1
1027.1
1027.1
1027.1
1027.1
1027.1
1.1624
1.16315
1.16355
1.16379
1.16516
1.16613
1.16705
1.16755
1.16808
1.16844
1.1687
1.16887
1.16889
1.16891
1.1689
1.16891
1.1689
1.1689
1.1689
1.16891
1.16891
1.16891
1.16891
1.16891
1.16892
1.16892
1.16892
1.16892
1.16892
1.16893
1.16893
1.16893
1.16893
1.16893
1.16894
1.16894
1.16894
1.16894
1.16894
1.16894
1.16895
1.16895
1.16897
1.16912
1.16976
1.17148
1.17531
1.18534
1.20448
1.22542
1.24126
1.24916
1.25342
1.2616
1.27627
1.29297
1.28729
1.29579
1.31857
42.0705
987.131
1027.09
1027.09
1027.09
1027.09
1027.1
1027.1
1027.1
1027.1
1027.1
1027.1
1027.1
1027.1
1027.1
1027.1
1027.1
1027.1
1027.1
1027.1
1027.1
1027.1
1027.1
1027.1
1027.1
1027.1
1027.1
1027.1
1027.1
1027.1
1027.1
1027.1
1027.1
1027.1
1027.1
1027.1
1027.1
1.16216
1.16246
1.16251
1.16249
1.16394
1.16523
1.16715
1.16784
1.16831
1.1687
1.16882
1.16889
1.16891
1.16892
1.16892
1.16892
1.16892
1.16892
1.16892
1.16892
1.16892
1.16892
1.16892
1.16892
1.16892
1.16892
1.16892
1.16893
1.16893
1.16893
1.16893
1.16893
1.16893
1.16894
1.16894
1.16894
1.16894
1.16894
1.16894
1.16895
1.16895
1.16895
1.16898
1.16913
1.16968
1.17099
1.17385
1.1807
1.19865
1.22468
1.24516
1.25032
1.2526
1.25962
1.26517
1.28529
1.27539
1.29415
1.48928
31.6141
993.469
1027.09
1027.09
1027.09
1027.1
1027.1
1027.1
1027.1
1027.1
1027.1
1027.1
1027.1
1027.1
1027.1
1027.1
1027.1
1027.1
1027.1
1027.1
1027.1
1027.1
1027.1
1027.1
1027.1
1027.1
1027.1
1027.1
1027.1
1027.1
1027.1
1027.1
1027.1
1027.1
1027.1
1027.1
1027.1
1.16188
1.16192
1.16169
1.16161
1.16247
1.16351
1.16657
1.16819
1.16855
1.16875
1.16879
1.16886
1.1689
1.16892
1.16892
1.16892
1.16892
1.16892
1.16892
1.16892
1.16893
1.16893
1.16893
1.16893
1.16893
1.16893
1.16893
1.16893
1.16893
1.16893
1.16893
1.16894
1.16894
1.16894
1.16894
1.16894
1.16894
1.16894
1.16895
1.16895
1.16895
1.16896
1.16898
1.16913
1.16957
1.17058
1.17291
1.17793
1.19186
1.21797
1.24363
1.26291
1.26906
1.27624
1.27469
1.27913
1.27522
1.31625
1.68337
28.3939
985.165
1027.05
1027.09
1027.09
1027.1
1027.1
1027.1
1027.1
1027.1
1027.1
1027.1
1027.1
1027.1
1027.1
1027.1
1027.1
1027.1
1027.1
1027.1
1027.1
1027.1
1027.1
1027.1
1027.1
1027.1
1027.1
1027.1
1027.1
1027.1
1027.1
1027.1
1027.1
1027.1
1027.1
1027.1
1027.1
1.16166
1.16149
1.16123
1.16121
1.16167
1.16192
1.16445
1.16788
1.16863
1.16875
1.16877
1.16883
1.16888
1.16891
1.16891
1.16892
1.16892
1.16892
1.16892
1.16892
1.16892
1.16892
1.16893
1.16893
1.16893
1.16893
1.16893
1.16893
1.16893
1.16893
1.16893
1.16893
1.16894
1.16894
1.16894
1.16894
1.16894
1.16894
1.16895
1.16895
1.16895
1.16896
1.16898
1.1691
1.16941
1.17016
1.1722
1.17639
1.18581
1.20575
1.23208
1.2629
1.27712
1.29251
1.28133
1.28074
1.27572
1.29601
2.00308
32.7915
978.715
1026.9
1027.09
1027.09
1027.1
1027.1
1027.1
1027.1
1027.1
1027.1
1027.1
1027.1
1027.1
1027.1
1027.1
1027.1
1027.1
1027.1
1027.1
1027.1
1027.1
1027.1
1027.1
1027.1
1027.1
1027.1
1027.1
1027.1
1027.1
1027.1
1027.1
1027.1
1027.1
1027.1
1027.1
1027.1
1.16104
1.16126
1.16139
1.16156
1.16165
1.1616
1.16218
1.16657
1.16859
1.1688
1.16881
1.16886
1.16889
1.16892
1.16892
1.16892
1.16892
1.16892
1.16893
1.16893
1.16893
1.16893
1.16893
1.16893
1.16893
1.16894
1.16894
1.16894
1.16894
1.16894
1.16894
1.16894
1.16894
1.16894
1.16895
1.16895
1.16895
1.16895
1.16895
1.16896
1.16896
1.16896
1.16898
1.16902
1.16917
1.16974
1.17145
1.17467
1.18033
1.1928
1.22271
1.26823
1.28392
1.29198
1.28373
1.28488
1.28298
1.28288
2.73363
56.6309
971.078
1026.55
1027.09
1027.09
1027.1
1027.1
1027.1
1027.1
1027.1
1027.1
1027.1
1027.1
1027.1
1027.1
1027.1
1027.1
1027.1
1027.1
1027.1
1027.1
1027.1
1027.1
1027.1
1027.1
1027.1
1027.1
1027.1
1027.1
1027.1
1027.1
1027.1
1027.1
1027.1
1027.1
1027.1
1027.1
1.1634
1.16508
1.16586
1.16628
1.16669
1.16715
1.16771
1.16829
1.16857
1.16868
1.16878
1.16886
1.1689
1.16891
1.16892
1.16892
1.16892
1.16892
1.16892
1.16892
1.16892
1.16893
1.16893
1.16893
1.16893
1.16893
1.16893
1.16894
1.16894
1.16894
1.16894
1.16894
1.16895
1.16895
1.16895
1.16895
1.16895
1.16895
1.16896
1.16896
1.16896
1.16896
1.16895
1.16896
1.16897
1.16967
1.1717
1.17558
1.1912
1.25711
1.29662
1.3031
1.29904
1.29604
1.29206
1.29161
1.28759
1.30074
1.5625
30.5114
968.83
1026.79
1027.09
1027.1
1027.1
1027.1
1027.1
1027.1
1027.1
1027.1
1027.1
1027.1
1027.1
1027.1
1027.1
1027.1
1027.1
1027.1
1027.1
1027.1
1027.1
1027.1
1027.1
1027.1
1027.1
1027.1
1027.1
1027.1
1027.1
1027.1
1027.1
1027.1
1027.1
1027.1
1027.1
1027.1
1.16238
1.16432
1.16594
1.16642
1.16696
1.16737
1.16771
1.16798
1.16821
1.1684
1.16861
1.16878
1.16887
1.16891
1.16892
1.16892
1.16892
1.16892
1.16892
1.16892
1.16892
1.16893
1.16893
1.16893
1.16893
1.16893
1.16893
1.16894
1.16894
1.16894
1.16894
1.16894
1.16894
1.16894
1.16894
1.16895
1.16895
1.16895
1.16895
1.16895
1.16895
1.16895
1.16896
1.16901
1.16919
1.16975
1.17143
1.176
1.18484
1.23079
1.264
1.29702
1.29559
1.29143
1.28421
1.28558
1.28042
1.30432
1.42049
43.6695
1001.83
1027.07
1027.09
1027.09
1027.1
1027.1
1027.1
1027.1
1027.1
1027.1
1027.1
1027.1
1027.1
1027.1
1027.1
1027.1
1027.1
1027.1
1027.1
1027.1
1027.1
1027.1
1027.1
1027.1
1027.1
1027.1
1027.1
1027.1
1027.1
1027.1
1027.1
1027.1
1027.1
1027.1
1027.1
1027.1
1.16201
1.16334
1.16577
1.16635
1.16665
1.16698
1.16728
1.1676
1.16796
1.16827
1.16851
1.16872
1.16886
1.1689
1.16891
1.16891
1.16892
1.16892
1.16892
1.16892
1.16892
1.16892
1.16892
1.16893
1.16893
1.16893
1.16893
1.16893
1.16893
1.16893
1.16894
1.16894
1.16894
1.16894
1.16894
1.16894
1.16894
1.16894
1.16895
1.16895
1.16895
1.16895
1.16897
1.16913
1.16968
1.17096
1.17328
1.17683
1.1821
1.19931
1.23935
1.29399
1.29462
1.28864
1.27947
1.28186
1.28028
1.29837
1.35443
48.5508
1011.95
1027.09
1027.09
1027.09
1027.1
1027.1
1027.1
1027.1
1027.1
1027.1
1027.1
1027.1
1027.1
1027.1
1027.1
1027.1
1027.1
1027.1
1027.1
1027.1
1027.1
1027.1
1027.1
1027.1
1027.1
1027.1
1027.1
1027.1
1027.1
1027.1
1027.1
1027.1
1027.1
1027.1
1027.1
1027.1
1.16183
1.16242
1.16516
1.16625
1.1665
1.16668
1.16691
1.16727
1.16781
1.16823
1.16847
1.1687
1.16884
1.1689
1.16891
1.16891
1.16891
1.16891
1.16892
1.16892
1.16892
1.16892
1.16892
1.16892
1.16892
1.16893
1.16893
1.16893
1.16893
1.16893
1.16893
1.16893
1.16894
1.16894
1.16894
1.16894
1.16894
1.16894
1.16894
1.16894
1.16894
1.16895
1.16897
1.16916
1.16989
1.17191
1.17587
1.1818
1.18492
1.19139
1.24004
1.29324
1.29284
1.28654
1.27948
1.27994
1.28002
1.29912
1.32436
75.9818
1013.48
1027.09
1027.09
1027.09
1027.09
1027.1
1027.1
1027.1
1027.1
1027.1
1027.1
1027.1
1027.1
1027.1
1027.1
1027.1
1027.1
1027.1
1027.1
1027.1
1027.1
1027.1
1027.1
1027.1
1027.1
1027.1
1027.1
1027.1
1027.1
1027.1
1027.1
1027.1
1027.1
1027.1
1027.1
1027.1
1.16172
1.16188
1.16425
1.16591
1.16645
1.16637
1.16653
1.16699
1.16772
1.16822
1.16846
1.16869
1.16884
1.1689
1.16891
1.16891
1.16891
1.16891
1.16891
1.16892
1.16892
1.16892
1.16892
1.16892
1.16892
1.16892
1.16893
1.16893
1.16893
1.16893
1.16893
1.16893
1.16893
1.16894
1.16894
1.16894
1.16894
1.16894
1.16894
1.16894
1.16894
1.16895
1.16897
1.1691
1.16991
1.17252
1.1788
1.18839
1.19561
1.21931
1.27799
1.29533
1.29176
1.28799
1.2824
1.28219
1.2887
1.29443
1.28048
145.384
1023.61
1027.03
1027.03
1027.04
1027.05
1027.07
1027.08
1027.09
1027.09
1027.09
1027.09
1027.09
1027.09
1027.09
1027.09
1027.09
1027.09
1027.09
1027.09
1027.09
1027.09
1027.1
1027.1
1027.1
1027.1
1027.1
1027.1
1027.1
1027.1
1027.1
1027.1
1027.1
1027.1
1027.1
1027.1
1027.1
1.16162
1.16151
1.1633
1.16503
1.16619
1.16597
1.16625
1.16687
1.16769
1.16825
1.16848
1.16869
1.16883
1.1689
1.16891
1.16891
1.16891
1.16891
1.16891
1.16891
1.16892
1.16892
1.16892
1.16892
1.16892
1.16892
1.16892
1.16893
1.16893
1.16893
1.16893
1.16893
1.16893
1.16893
1.16894
1.16894
1.16894
1.16894
1.16894
1.16894
1.16894
1.16895
1.16896
1.16903
1.16968
1.17265
1.18004
1.19251
1.20377
1.2503
1.29637
1.29508
1.29615
1.294
1.29239
1.29254
1.29429
1.29155
1.28048
282.893
1013.1
1024.83
1024.9
1025.07
1025.07
1025.27
1025.44
1025.49
1025.41
1025.29
1025.14
1024.95
1024.73
1024.49
1024.29
1024.11
1023.99
1023.97
1024.45
1024.95
1025.49
1026.02
1026.45
1026.73
1026.9
1027.01
1027.05
1027.08
1027.09
1027.1
1027.1
1027.1
1027.1
1027.1
1027.1
1027.1
1.1616
1.16131
1.16249
1.1639
1.16524
1.16555
1.16615
1.16686
1.16775
1.16828
1.1685
1.16869
1.16883
1.1689
1.16891
1.16891
1.16891
1.16891
1.16891
1.16891
1.16891
1.16892
1.16892
1.16892
1.16892
1.16892
1.16892
1.16892
1.16893
1.16893
1.16893
1.16893
1.16893
1.16893
1.16894
1.16894
1.16894
1.16894
1.16894
1.16894
1.16894
1.16895
1.16895
1.169
1.16951
1.17216
1.17988
1.19304
1.20629
1.25302
1.29725
1.29645
1.29724
1.29705
1.29501
1.29448
1.29418
1.29404
1.28048
575.199
1003.51
1005.61
1005.1
1005.1
1005.25
1005.52
1005.68
1005.76
1005.64
1005.09
1004.54
1003.76
1002.93
1002.18
1001.58
1001.21
1001.11
1001.63
1002.11
1002.98
1004.33
1006.26
1008.47
1010.7
1012.62
1014.73
1016.75
1019.18
1021.89
1024.49
1026.14
1026.66
1026.91
1026.94
1026.9
1026.87
1.16173
1.16126
1.16194
1.1628
1.16423
1.16523
1.16615
1.16704
1.16783
1.1683
1.16851
1.1687
1.16883
1.1689
1.1689
1.16891
1.16891
1.16891
1.16891
1.16891
1.16891
1.16892
1.16892
1.16892
1.16892
1.16892
1.16892
1.16893
1.16893
1.16893
1.16893
1.16893
1.16893
1.16893
1.16894
1.16894
1.16894
1.16894
1.16894
1.16894
1.16894
1.16895
1.16895
1.16899
1.16944
1.1719
1.17883
1.19255
1.20771
1.22871
1.2949
1.30574
1.3014
1.30019
1.29902
1.2987
1.2966
1.31042
1.28048
534.491
997.921
1001.3
999.989
999.179
998.554
997.932
997.31
996.579
995.972
995.117
994.542
994.206
994.068
993.951
993.925
994.087
994.361
993.055
990.887
987.171
982.339
977.253
971.565
965.069
957.387
949.056
941.346
932.748
923.032
912.26
900.823
889.468
878.028
861.227
813.561
621.204
1.16181
1.16125
1.16169
1.16211
1.16339
1.16481
1.16618
1.16718
1.1679
1.16832
1.16853
1.16871
1.16884
1.1689
1.16891
1.16891
1.16891
1.16891
1.16891
1.16892
1.16892
1.16892
1.16892
1.16892
1.16892
1.16892
1.16893
1.16893
1.16893
1.16893
1.16893
1.16893
1.16893
1.16894
1.16894
1.16894
1.16894
1.16894
1.16894
1.16894
1.16894
1.16895
1.16895
1.16899
1.16944
1.17189
1.17827
1.18967
1.20303
1.21369
1.22918
1.27662
1.30087
1.30988
1.31549
1.31606
1.31621
1.31998
1.28048
262.887
1002.03
1015.15
1015.66
1017.49
1018.89
1020.49
1021.47
1021.71
1021.19
1021
1021.24
1022.09
1023.01
1024.17
1025.1
1025.49
1025.44
1025.13
1024.76
1024.25
1023.46
1022.18
1020.86
1020.57
1022.78
1024.41
1024.73
1024.58
1024.77
1025.36
1026.15
1026.89
1026.94
1026.98
1027.01
1027.03
1.16169
1.16121
1.1616
1.16187
1.16276
1.16436
1.16618
1.16729
1.16796
1.16835
1.16855
1.16873
1.16885
1.1689
1.16891
1.16891
1.16891
1.16891
1.16892
1.16892
1.16892
1.16892
1.16892
1.16892
1.16892
1.16893
1.16893
1.16893
1.16893
1.16893
1.16893
1.16894
1.16894
1.16894
1.16894
1.16894
1.16894
1.16894
1.16894
1.16894
1.16895
1.16895
1.16895
1.16899
1.16941
1.17145
1.17705
1.1865
1.19711
1.20736
1.22436
1.24528
1.27282
1.29242
1.30221
1.30678
1.30473
1.31195
1.28048
159.604
1013.12
1025.42
1025.77
1026.34
1026.57
1026.8
1026.88
1026.88
1026.85
1026.84
1026.89
1026.95
1026.99
1027.03
1027.06
1027.07
1027.07
1027.06
1027.06
1027.05
1027.04
1027.02
1027
1027
1027.07
1027.09
1027.1
1027.1
1027.1
1027.1
1027.1
1027.1
1027.1
1027.1
1027.1
1027.1
1.16145
1.16114
1.16156
1.16189
1.16261
1.16411
1.16613
1.16733
1.16801
1.16838
1.16857
1.16875
1.16886
1.1689
1.16891
1.16891
1.16891
1.16892
1.16892
1.16892
1.16892
1.16892
1.16892
1.16892
1.16893
1.16893
1.16893
1.16893
1.16893
1.16893
1.16894
1.16894
1.16894
1.16894
1.16894
1.16894
1.16894
1.16894
1.16895
1.16895
1.16895
1.16895
1.16895
1.16899
1.1693
1.17084
1.17537
1.18324
1.19225
1.20303
1.22167
1.25312
1.2669
1.27059
1.2769
1.28519
1.2912
1.31239
1.28048
104.932
1021.9
1027.06
1027.07
1027.09
1027.09
1027.09
1027.09
1027.09
1027.09
1027.1
1027.1
1027.09
1027.09
1027.1
1027.1
1027.1
1027.1
1027.1
1027.1
1027.1
1027.1
1027.1
1027.1
1027.1
1027.1
1027.1
1027.1
1027.1
1027.1
1027.1
1027.1
1027.1
1027.1
1027.1
1027.1
1027.1
1.16137
1.16107
1.16143
1.16191
1.16265
1.16399
1.16606
1.16738
1.16808
1.16842
1.1686
1.16878
1.16887
1.16891
1.16891
1.16891
1.16891
1.16892
1.16892
1.16892
1.16892
1.16892
1.16892
1.16892
1.16893
1.16893
1.16893
1.16893
1.16893
1.16893
1.16894
1.16894
1.16894
1.16894
1.16894
1.16894
1.16894
1.16894
1.16895
1.16895
1.16895
1.16895
1.16895
1.16898
1.1692
1.17032
1.17381
1.18023
1.18771
1.20015
1.22175
1.25881
1.26849
1.26918
1.26948
1.27732
1.27826
1.29155
1.34454
59.3415
1021
1027.09
1027.09
1027.09
1027.09
1027.1
1027.1
1027.1
1027.1
1027.1
1027.1
1027.1
1027.1
1027.1
1027.1
1027.1
1027.1
1027.1
1027.1
1027.1
1027.1
1027.1
1027.1
1027.1
1027.1
1027.1
1027.1
1027.1
1027.1
1027.1
1027.1
1027.1
1027.1
1027.1
1027.1
1027.1
1.16136
1.16104
1.16115
1.16139
1.16162
1.16234
1.16504
1.16744
1.16818
1.16848
1.16864
1.16881
1.16888
1.16891
1.16891
1.16891
1.16891
1.16892
1.16892
1.16892
1.16892
1.16892
1.16892
1.16893
1.16893
1.16893
1.16893
1.16893
1.16893
1.16893
1.16894
1.16894
1.16894
1.16894
1.16894
1.16894
1.16894
1.16894
1.16894
1.16895
1.16895
1.16895
1.16895
1.16898
1.16915
1.16993
1.1724
1.17725
1.18414
1.19923
1.22967
1.26502
1.2671
1.2727
1.26605
1.28028
1.27536
1.30712
1.49089
40.4183
1018.66
1027.09
1027.09
1027.09
1027.1
1027.1
1027.1
1027.1
1027.1
1027.1
1027.1
1027.1
1027.1
1027.1
1027.1
1027.1
1027.1
1027.1
1027.1
1027.1
1027.1
1027.1
1027.1
1027.1
1027.1
1027.1
1027.1
1027.1
1027.1
1027.1
1027.1
1027.1
1027.1
1027.1
1027.1
1027.1
1.16129
1.16118
1.16101
1.16101
1.16093
1.16115
1.16301
1.16719
1.16827
1.16855
1.16869
1.16883
1.16888
1.16891
1.16891
1.16891
1.16891
1.16891
1.16892
1.16892
1.16892
1.16892
1.16892
1.16892
1.16892
1.16893
1.16893
1.16893
1.16893
1.16893
1.16893
1.16893
1.16893
1.16893
1.16893
1.16894
1.16894
1.16894
1.16894
1.16894
1.16894
1.16895
1.16895
1.16898
1.16913
1.16969
1.17135
1.1752
1.18283
1.19813
1.23078
1.26953
1.27746
1.2825
1.27579
1.28203
1.27828
1.33971
1.84616
31.8213
991.174
1027.09
1027.09
1027.09
1027.1
1027.1
1027.1
1027.1
1027.1
1027.1
1027.1
1027.1
1027.1
1027.1
1027.1
1027.1
1027.1
1027.1
1027.1
1027.1
1027.1
1027.1
1027.1
1027.1
1027.1
1027.1
1027.1
1027.1
1027.1
1027.1
1027.1
1027.1
1027.1
1027.1
1027.1
1027.1
1.16125
1.16135
1.16104
1.16055
1.16081
1.16089
1.16114
1.1657
1.16833
1.16862
1.16873
1.16882
1.16887
1.1689
1.16891
1.16891
1.16891
1.16891
1.16892
1.16892
1.16892
1.16892
1.16892
1.16892
1.16892
1.16892
1.16893
1.16893
1.16893
1.16893
1.16893
1.16893
1.16893
1.16893
1.16893
1.16893
1.16893
1.16894
1.16894
1.16894
1.16894
1.16895
1.16896
1.169
1.16914
1.16963
1.17111
1.17448
1.18117
1.19441
1.22651
1.27065
1.28154
1.2844
1.27608
1.28203
1.27629
1.31652
2.03719
37.6402
985.471
1027.06
1027.09
1027.09
1027.1
1027.1
1027.1
1027.1
1027.1
1027.1
1027.1
1027.1
1027.1
1027.1
1027.1
1027.1
1027.1
1027.1
1027.1
1027.1
1027.1
1027.1
1027.1
1027.1
1027.1
1027.1
1027.1
1027.1
1027.1
1027.1
1027.1
1027.1
1027.1
1027.1
1027.1
1027.1
1.16081
1.16104
1.16116
1.1612
1.16112
1.16098
1.16092
1.16385
1.16824
1.16865
1.16873
1.16883
1.16888
1.16891
1.16891
1.16892
1.16892
1.16892
1.16892
1.16892
1.16892
1.16893
1.16893
1.16893
1.16893
1.16893
1.16893
1.16893
1.16893
1.16894
1.16894
1.16894
1.16894
1.16894
1.16894
1.16894
1.16895
1.16895
1.16895
1.16895
1.16895
1.16896
1.16897
1.16899
1.16908
1.16956
1.17102
1.17389
1.17902
1.1902
1.22241
1.27068
1.28336
1.28751
1.27992
1.28143
1.27522
1.30708
2.57949
45.6177
960.195
1026.39
1027.09
1027.09
1027.1
1027.1
1027.1
1027.1
1027.1
1027.1
1027.1
1027.1
1027.1
1027.1
1027.1
1027.1
1027.1
1027.1
1027.1
1027.1
1027.1
1027.1
1027.1
1027.1
1027.1
1027.1
1027.1
1027.1
1027.1
1027.1
1027.1
1027.1
1027.1
1027.1
1027.1
1027.1
1.16367
1.16485
1.16583
1.16637
1.16673
1.16712
1.16771
1.16834
1.16858
1.16869
1.16879
1.16886
1.1689
1.16891
1.16891
1.16891
1.16891
1.16891
1.16891
1.16892
1.16892
1.16892
1.16892
1.16892
1.16892
1.16893
1.16893
1.16893
1.16893
1.16893
1.16893
1.16894
1.16894
1.16894
1.16894
1.16894
1.16894
1.16895
1.16895
1.16895
1.16895
1.16895
1.16895
1.16895
1.16896
1.1697
1.17211
1.17714
1.19138
1.24213
1.29272
1.30269
1.30034
1.29801
1.29483
1.29376
1.29
1.31816
1.70942
32.3748
933.417
1026.29
1027.09
1027.1
1027.1
1027.1
1027.1
1027.1
1027.1
1027.1
1027.1
1027.1
1027.1
1027.1
1027.1
1027.1
1027.1
1027.1
1027.1
1027.1
1027.1
1027.1
1027.1
1027.1
1027.1
1027.1
1027.1
1027.1
1027.1
1027.1
1027.1
1027.1
1027.1
1027.1
1027.1
1027.1
1.16197
1.16379
1.16581
1.16649
1.16689
1.1674
1.1679
1.16822
1.1684
1.16855
1.1687
1.16882
1.16888
1.1689
1.16891
1.16891
1.16891
1.16891
1.16892
1.16892
1.16892
1.16892
1.16892
1.16892
1.16893
1.16893
1.16893
1.16893
1.16893
1.16893
1.16893
1.16894
1.16894
1.16894
1.16894
1.16894
1.16894
1.16894
1.16894
1.16894
1.16894
1.16894
1.16895
1.16897
1.16903
1.16965
1.17219
1.17836
1.18976
1.22515
1.26222
1.28176
1.28905
1.28873
1.2865
1.28814
1.28703
1.31024
1.48847
24.5362
965.752
1026.97
1027.09
1027.1
1027.1
1027.1
1027.1
1027.1
1027.1
1027.1
1027.1
1027.1
1027.1
1027.1
1027.1
1027.1
1027.1
1027.1
1027.1
1027.1
1027.1
1027.1
1027.1
1027.1
1027.1
1027.1
1027.1
1027.1
1027.1
1027.1
1027.1
1027.1
1027.1
1027.1
1027.1
1027.1
1.16105
1.1623
1.16586
1.16664
1.16705
1.16748
1.1678
1.16798
1.16821
1.16842
1.16863
1.16878
1.16887
1.1689
1.1689
1.1689
1.1689
1.16891
1.16891
1.16891
1.16891
1.16891
1.16891
1.16892
1.16892
1.16892
1.16892
1.16892
1.16892
1.16892
1.16893
1.16893
1.16893
1.16893
1.16893
1.16893
1.16893
1.16893
1.16893
1.16893
1.16894
1.16894
1.16895
1.16901
1.16918
1.16993
1.17273
1.17998
1.19224
1.21425
1.23287
1.26136
1.28286
1.28306
1.28253
1.28527
1.28719
1.30404
1.36015
36.99
999.429
1027.08
1027.09
1027.09
1027.09
1027.1
1027.1
1027.1
1027.1
1027.1
1027.1
1027.1
1027.1
1027.1
1027.1
1027.1
1027.1
1027.1
1027.1
1027.1
1027.1
1027.1
1027.1
1027.1
1027.1
1027.1
1027.1
1027.1
1027.1
1027.1
1027.1
1027.1
1027.1
1027.1
1027.1
1027.1
1.16089
1.16156
1.16552
1.16672
1.16713
1.16742
1.1676
1.16781
1.16813
1.16839
1.16861
1.16877
1.16886
1.1689
1.1689
1.1689
1.1689
1.16891
1.16891
1.16891
1.16891
1.16891
1.16891
1.16891
1.16891
1.16891
1.16892
1.16892
1.16892
1.16892
1.16892
1.16892
1.16893
1.16893
1.16893
1.16893
1.16893
1.16893
1.16893
1.16893
1.16894
1.16894
1.16895
1.16906
1.16939
1.17063
1.17343
1.18027
1.1926
1.20555
1.22077
1.26201
1.28439
1.28341
1.28051
1.28227
1.28673
1.30762
1.31585
65.0731
1018.68
1027.09
1027.09
1027.09
1027.09
1027.09
1027.1
1027.1
1027.09
1027.09
1027.1
1027.1
1027.1
1027.1
1027.1
1027.1
1027.1
1027.1
1027.1
1027.1
1027.1
1027.1
1027.1
1027.1
1027.1
1027.1
1027.1
1027.1
1027.1
1027.1
1027.1
1027.1
1027.1
1027.1
1027.1
1027.1
1.16116
1.16143
1.16419
1.16651
1.16714
1.1673
1.16741
1.16772
1.16809
1.16837
1.16859
1.16876
1.16885
1.16889
1.1689
1.1689
1.1689
1.16891
1.16891
1.16891
1.16891
1.16891
1.16891
1.16891
1.16892
1.16892
1.16892
1.16892
1.16892
1.16892
1.16892
1.16893
1.16893
1.16893
1.16893
1.16893
1.16893
1.16893
1.16893
1.16893
1.16894
1.16894
1.16897
1.16918
1.16993
1.17176
1.17519
1.18061
1.192
1.20434
1.25917
1.29299
1.29846
1.2934
1.28217
1.28156
1.29058
1.29629
1.28048
115.469
1023.25
1026.82
1026.8
1026.82
1026.84
1026.88
1026.91
1026.92
1026.93
1026.94
1026.94
1026.95
1026.96
1026.96
1026.98
1027.01
1027.04
1027.06
1027.07
1027.08
1027.09
1027.09
1027.1
1027.1
1027.1
1027.1
1027.1
1027.1
1027.1
1027.1
1027.1
1027.1
1027.1
1027.1
1027.1
1027.1
1.16128
1.16119
1.16308
1.16589
1.16707
1.16727
1.16735
1.16768
1.16809
1.16837
1.16857
1.16872
1.16882
1.16888
1.16889
1.1689
1.1689
1.1689
1.1689
1.16891
1.16891
1.16891
1.16891
1.16891
1.16891
1.16892
1.16892
1.16892
1.16892
1.16892
1.16892
1.16893
1.16893
1.16893
1.16893
1.16893
1.16893
1.16893
1.16893
1.16893
1.16894
1.16894
1.16903
1.16949
1.17041
1.17212
1.17724
1.1826
1.19251
1.21322
1.29319
1.30573
1.30193
1.29883
1.29449
1.29193
1.29796
1.30749
1.32517
224.065
1015.73
1022.45
1022.06
1022.05
1022.07
1022.01
1021.9
1021.86
1021.87
1021.79
1021.73
1021.64
1021.61
1021.61
1021.8
1022.19
1022.78
1023.46
1024.23
1024.95
1025.53
1025.99
1026.36
1026.66
1026.86
1027
1027.07
1027.09
1027.1
1027.1
1027.1
1027.1
1027.1
1027.1
1027.1
1027.1
1.16129
1.16081
1.16257
1.16502
1.16682
1.16725
1.16744
1.16774
1.1681
1.16832
1.1685
1.16864
1.16876
1.16886
1.16889
1.16889
1.1689
1.1689
1.1689
1.16891
1.16891
1.16891
1.16891
1.16892
1.16892
1.16892
1.16892
1.16892
1.16892
1.16893
1.16893
1.16893
1.16893
1.16893
1.16893
1.16893
1.16893
1.16893
1.16894
1.16894
1.16895
1.169
1.16919
1.16953
1.16981
1.17195
1.17939
1.18571
1.19628
1.23093
1.29915
1.30828
1.30246
1.30035
1.30103
1.30941
1.31706
1.32673
1.31227
390.419
1002.95
1008.88
1008.4
1007.97
1007.36
1006.36
1005.57
1005.24
1005.02
1004.82
1004.61
1004.43
1004.34
1004.4
1004.63
1004.88
1005.2
1005.7
1006.54
1007.77
1009.34
1011.23
1013.35
1015.69
1018.05
1020.4
1022.57
1024.45
1025.95
1026.81
1027.08
1027.1
1027.1
1027.1
1027.1
1027.1
1.16128
1.16082
1.16191
1.16367
1.16603
1.16702
1.16741
1.1676
1.16793
1.16826
1.16847
1.16858
1.1687
1.16884
1.16889
1.16889
1.16889
1.1689
1.1689
1.1689
1.1689
1.1689
1.16891
1.16891
1.16891
1.16891
1.16891
1.16891
1.16892
1.16892
1.16892
1.16892
1.16892
1.16892
1.16892
1.16892
1.16893
1.16893
1.16893
1.16893
1.16894