/*--------------------------------*- C++ -*----------------------------------*\
| =========                 |                                                 |
| \\      /  F ield         | OpenFOAM: The Open Source CFD Toolbox           |
|  \\    /   O peration     | Version:  2.3.0                                 |
|   \\  /    A nd           | Web:      www.OpenFOAM.org                      |
|    \\/     M anipulation  |                                                 |
\*---------------------------------------------------------------------------*/
FoamFile
{
    version     2.0;
    format      ascii;
    class       volVectorField;
    location    "24";
    object      U;
}
// * * * * * * * * * * * * * * * * * * * * * * * * * * * * * * * * * * * * * //

dimensions      [0 1 -1 0 0 0 0];

internalField   nonuniform List<vector> 
6144
(
(0.00830994 0.0143544 -0.00152503)
(0.0086812 -0.00250439 -0.00227763)
(0.00498105 -0.00427076 -0.00293295)
(0.00465877 -0.00604794 -0.00314737)
(0.00277976 -0.00633238 -0.00258227)
(0.00264626 -0.00500944 -0.002002)
(0.00174389 -0.00424073 -0.00100429)
(0.00171064 -0.00239981 -0.00058653)
(0.00146038 -0.000823122 -0.000403685)
(0.00120981 0.00121263 0.0001928)
(0.00118195 0.00258016 0.000569942)
(0.00136749 0.00327463 0.00109513)
(0.00157015 0.0030651 0.00133187)
(0.00173543 0.00247061 0.00148372)
(0.00184379 0.00168433 0.00119159)
(0.0019476 0.00109074 0.000999159)
(0.00201392 0.000561699 0.00067976)
(0.00208383 0.000287758 0.000481893)
(0.00213445 2.97238e-05 0.00027233)
(0.00215524 -7.21013e-05 0.000181926)
(0.00216313 -0.000170768 0.000122036)
(0.00215916 -0.000188575 0.000107766)
(0.00214592 -0.000203748 0.000111665)
(0.00212963 -0.000193257 0.000135664)
(0.00210851 -0.000179996 0.000172517)
(0.00208622 -0.000164655 0.000218091)
(0.00206364 -0.000152773 0.000271751)
(0.00204067 -0.000150395 0.000333514)
(0.00201691 -0.000144219 0.000396071)
(0.00199343 -0.000164444 0.000454926)
(0.0019687 -0.000139769 0.000519613)
(0.00194561 -0.000214143 0.000565345)
(0.0019236 -0.000102164 0.000634496)
(0.00190009 -0.000301159 0.000652845)
(0.00188634 1.39133e-05 0.000743153)
(0.00185774 -0.000465909 0.000738208)
(0.00184336 0.000198769 0.000873542)
(0.00181496 -0.000744287 0.000860741)
(0.00178002 0.0004032 0.00104119)
(0.00176166 -0.00120694 0.00108282)
(0.00171097 0.000490365 0.0012451)
(0.00176384 -0.00210989 0.00133618)
(0.00167799 0.000310969 0.00135996)
(0.00195875 -0.00361674 0.00125306)
(0.00170074 3.17222e-05 0.000865423)
(0.00216652 -0.00498842 0.000519681)
(0.00187431 0.000791151 -0.000257745)
(0.00187356 -0.0048611 -9.77934e-05)
(0.00187256 0.00282754 -0.000224561)
(0.00110145 -0.00370099 4.55361e-05)
(0.00353254 0.00629561 -0.00026574)
(0.00309853 -0.00705678 -0.0018506)
(0.00342318 0.0112059 -0.00480445)
(0.00249931 0.00424612 -0.00615692)
(0.00415281 0.0353184 -0.00910062)
(0.0010773 -0.00764025 -0.00751428)
(0.0162065 0.073348 0.00735853)
(0.023015 -0.0601283 -0.0170571)
(-0.0401206 0.0797065 -0.1099)
(0.0353659 0.0584821 -0.0972775)
(0.114039 -0.232131 0.00706631)
(0.0780167 -0.10944 -0.00213202)
(0.0437986 -0.177879 -0.00954075)
(0.03926 -0.211776 -0.00858897)
(0.0340923 -0.212333 -0.0065094)
(0.0270572 -0.218537 -0.00469237)
(0.0210727 -0.224359 -0.00391898)
(0.0170404 -0.226869 -0.00360638)
(0.0143792 -0.225664 -0.00343717)
(0.0124016 -0.221882 -0.00329258)
(0.0106717 -0.217023 -0.00320392)
(0.00916418 -0.211511 -0.00319877)
(0.00776364 -0.205781 -0.00322007)
(0.00661457 -0.199494 -0.00332582)
(0.00560858 -0.192752 -0.00336799)
(0.00476041 -0.185471 -0.00345293)
(0.00358803 -0.177373 -0.00340528)
(0.00232785 -0.168129 -0.00332976)
(0.00110738 -0.157347 -0.00330684)
(-0.000442701 -0.145358 -0.003263)
(-0.00173994 -0.131757 -0.00337623)
(-0.00322621 -0.116512 -0.00347264)
(-0.00378271 -0.100189 -0.00379778)
(-0.00305254 -0.0833167 -0.00464267)
(-0.00225287 -0.0697056 -0.00513532)
(-0.000313198 -0.0583765 -0.00474688)
(0.0029765 -0.0487266 -0.0041944)
(0.0035702 -0.0400598 -0.00501924)
(0.00153649 -0.0301781 -0.00616318)
(0.000568963 -0.0193011 -0.00466844)
(0.0015344 -0.0105402 -0.000847245)
(0.00224027 -0.00403103 0.00141398)
(0.00319915 0.00099169 -0.000269543)
(-0.00178733 0.00903926 -0.00209499)
(-0.00538003 0.0194854 0.00740453)
(-0.00550713 0.00912758 0.021405)
(0.0187527 0.0203528 0.00286624)
(0.0191827 0.00815592 0.00229666)
(0.0118234 0.00502366 -0.000139142)
(0.0110132 0.00210898 0.00128054)
(0.00624909 -0.00204846 0.00222331)
(0.00518389 -0.00277168 0.00278768)
(0.002205 -0.00409851 0.00345514)
(0.00140866 -0.00253503 0.00306415)
(0.000809713 -0.000358551 0.0025349)
(0.000947298 0.00230165 0.002751)
(0.00146296 0.00364704 0.00310051)
(0.0021555 0.00438933 0.00365968)
(0.00276386 0.00411095 0.00392072)
(0.0032067 0.00361335 0.0041006)
(0.00337201 0.00271142 0.00405298)
(0.00353732 0.00199496 0.00401107)
(0.00357181 0.00128582 0.00391047)
(0.00367411 0.000884589 0.00381746)
(0.0037387 0.000500576 0.00368755)
(0.00376869 0.000318561 0.00364064)
(0.00376637 0.000153592 0.00361644)
(0.00374203 8.94961e-05 0.00363347)
(0.00370048 4.208e-05 0.0036677)
(0.00364956 3.36243e-05 0.00372147)
(0.00359233 3.60937e-05 0.0037868)
(0.00353412 4.58713e-05 0.00386162)
(0.00347727 5.36416e-05 0.00394219)
(0.00342075 5.28134e-05 0.00402276)
(0.00336628 5.71787e-05 0.00410319)
(0.00330754 3.26398e-05 0.00417578)
(0.003263 5.93404e-05 0.00425657)
(0.00318754 -2.06305e-05 0.0043098)
(0.00316273 0.000110012 0.00439523)
(0.00305729 -0.00011405 0.0044108)
(0.00309032 0.00025026 0.00449533)
(0.00293865 -0.000311956 0.00448601)
(0.00301242 0.000470324 0.00460074)
(0.00283106 -0.000673998 0.00457652)
(0.00292626 0.000705531 0.00470921)
(0.00279008 -0.00129877 0.00471409)
(0.00290811 0.000867274 0.00477633)
(0.00290833 -0.00237274 0.00483814)
(0.00302161 0.000962003 0.00472026)
(0.0032597 -0.00382338 0.00474634)
(0.00322432 0.0014782 0.00440746)
(0.00356638 -0.00508018 0.0042609)
(0.00336425 0.00278414 0.00371089)
(0.00336711 -0.00567208 0.00399257)
(0.0029724 0.00299668 0.00374467)
(0.00181543 -0.00712606 0.00390177)
(0.00559141 0.00127272 0.00250326)
(0.00459141 -0.00790899 3.4526e-05)
(0.000426617 0.0117354 -0.00197226)
(0.0043303 0.0142337 -0.0017077)
(0.0198198 0.045577 0.00172752)
(0.022089 -0.0368006 -0.00145577)
(-0.0104265 0.0347858 0.0179555)
(0.00550226 -0.0265302 -0.0285002)
(0.0264616 0.163541 -0.0461223)
(0.169996 0.0247935 -0.0456748)
(0.186353 -0.219794 0.0359095)
(0.0981031 0.00211344 0.0141211)
(0.0350986 -0.129423 -0.0105445)
(0.0363883 -0.119436 -0.000155236)
(0.0292666 -0.12819 0.0041874)
(0.0158515 -0.144366 0.00490625)
(0.00814154 -0.153352 0.00390815)
(0.00404448 -0.157466 0.0031789)
(0.00190508 -0.158495 0.00265194)
(0.000842981 -0.157393 0.0022388)
(-3.81347e-05 -0.154943 0.00174266)
(-0.000776036 -0.151611 0.0013766)
(-0.0013834 -0.147895 0.00113413)
(-0.00194673 -0.143394 0.000831298)
(-0.00272357 -0.13883 0.000590748)
(-0.00381654 -0.133435 0.000298548)
(-0.00515373 -0.128087 0.000281445)
(-0.00658874 -0.122334 9.77582e-05)
(-0.00814698 -0.115658 -0.000131367)
(-0.00979262 -0.109117 -7.55296e-05)
(-0.0115217 -0.101609 -0.000318061)
(-0.012914 -0.0926047 -0.000610298)
(-0.012526 -0.0817262 -0.00174931)
(-0.00951909 -0.0689776 -0.00300093)
(-0.00538368 -0.0589793 -0.00281975)
(-0.00387553 -0.0496517 -0.00329888)
(-0.00492419 -0.0399017 -0.00363633)
(-0.00523113 -0.0312027 -0.00263555)
(-0.00490356 -0.0257923 -0.000517553)
(-0.00484927 -0.0213999 0.00190665)
(-0.00538799 -0.0165216 0.00423301)
(-0.00561358 -0.0101774 0.00450454)
(-0.0060084 -0.000656214 0.00070383)
(-0.00843083 0.0113248 -1.31835e-05)
(-0.0106724 0.0191166 0.0130031)
(-0.0104455 0.00869282 0.0262988)
(0.02343 0.0242202 0.00333697)
(0.0242816 0.0145762 0.00270451)
(0.015706 0.0113261 0.000492536)
(0.0148917 0.00937174 0.00212613)
(0.00821164 0.00405902 0.00269036)
(0.00602544 0.00216079 0.00359593)
(0.00106061 -0.00123079 0.00481958)
(-0.000602375 -0.00034128 0.00441089)
(-0.00174891 0.000871117 0.00391845)
(-0.00115524 0.00291903 0.00391507)
(-0.000237548 0.00368528 0.00406173)
(0.000919 0.00435516 0.00440309)
(0.00171137 0.00422131 0.00461973)
(0.00240289 0.00408424 0.00475285)
(0.00273269 0.00339698 0.00468889)
(0.00300154 0.0028042 0.00464107)
(0.00298978 0.00207778 0.00457318)
(0.00305622 0.00160383 0.00456331)
(0.0029885 0.00112264 0.00455926)
(0.00295386 0.000866506 0.0045911)
(0.00286724 0.000624981 0.00462518)
(0.00278607 0.000508477 0.00467275)
(0.00269309 0.000421393 0.00472083)
(0.00260432 0.000391392 0.00477719)
(0.0025176 0.000386635 0.00483478)
(0.00243929 0.00039921 0.00489519)
(0.00236778 0.000412424 0.00495761)
(0.00229763 0.000418533 0.00501974)
(0.00223036 0.000421316 0.00508029)
(0.00215908 0.000405881 0.005138)
(0.00210598 0.000412541 0.00519612)
(0.00200736 0.000348129 0.00523998)
(0.00198223 0.000432224 0.00530028)
(0.0018319 0.000224786 0.00532637)
(0.00188816 0.000515008 0.0054123)
(0.00165333 -2.15947e-05 0.00541591)
(0.00181312 0.000676819 0.00552963)
(0.00148599 -0.000454332 0.00550889)
(0.00177396 0.000886016 0.00564749)
(0.00139711 -0.00109611 0.00559981)
(0.00182422 0.00112198 0.00570337)
(0.0014431 -0.00186015 0.00565664)
(0.00202344 0.00174312 0.00561879)
(0.00164022 -0.00237106 0.00555191)
(0.00235602 0.00300729 0.00544271)
(0.0019782 -0.00277476 0.00554134)
(0.00266134 0.00408319 0.00556381)
(0.00244304 -0.00426884 0.00591062)
(0.00256167 0.0026464 0.00579964)
(0.00242167 -0.00747034 0.00600487)
(0.00282039 -0.000972567 0.00446833)
(-0.000156604 -0.0021707 0.00160865)
(-0.00625871 0.0141183 -0.000735013)
(-0.00874825 -0.00208632 0.00138658)
(0.0449621 0.0236444 0.0112759)
(0.0288034 -0.0528957 0.00500045)
(-0.030755 0.0497637 0.0308735)
(-0.0400494 -0.136387 -0.00244669)
(-0.038979 0.207109 -0.0801518)
(0.176664 -0.0134203 -0.0104396)
(0.22045 -0.188679 0.0373681)
(0.115077 0.0849381 0.00289527)
(0.0967014 -0.108808 -0.00317548)
(0.0734729 -0.0517227 0.00879903)
(0.0471097 -0.0817526 0.01339)
(0.0313037 -0.0923466 0.0126242)
(0.021943 -0.0967059 0.0104421)
(0.0147463 -0.0993634 0.00854609)
(0.00961466 -0.0995021 0.0068754)
(0.00612484 -0.0974423 0.00525806)
(0.00387814 -0.0947377 0.00397111)
(0.00246483 -0.0914757 0.0029986)
(0.00138232 -0.0883485 0.00216876)
(0.000214855 -0.0849996 0.00161358)
(-0.00128396 -0.0819512 0.0012375)
(-0.00282463 -0.0785471 0.000895721)
(-0.00455585 -0.0751198 0.000481931)
(-0.00650302 -0.07118 0.000119301)
(-0.00822324 -0.0661067 -0.000329295)
(-0.0102527 -0.0609226 -0.000871224)
(-0.0134138 -0.0559206 9.51633e-05)
(-0.0170432 -0.052106 0.000146049)
(-0.019152 -0.0464019 -0.00423026)
(-0.0167288 -0.035529 -0.00799925)
(-0.0117531 -0.0268294 -0.00525553)
(-0.00709344 -0.022159 -0.000725515)
(-0.00352374 -0.0222548 0.00258487)
(-0.00182182 -0.0245851 0.00451821)
(-0.00270278 -0.0275195 0.00568612)
(-0.00518181 -0.0275446 0.00635624)
(-0.00773834 -0.0245205 0.00679899)
(-0.0107598 -0.0185361 0.00617271)
(-0.0127098 -0.00882509 0.00213248)
(-0.0167569 0.00665463 0.000862304)
(-0.0224543 0.0158072 0.0157391)
(-0.0230039 0.00675413 0.028707)
(0.027533 0.0273737 0.00279566)
(0.0291053 0.0180811 0.00226404)
(0.0190466 0.0136653 -0.00108698)
(0.019791 0.0141024 -0.000320015)
(0.0121752 0.00799234 -0.000535652)
(0.00905799 0.00560763 0.00181531)
(0.000941472 -0.000825856 0.00402815)
(-0.00229926 -0.000755477 0.00361914)
(-0.00401371 -0.000365487 0.00377279)
(-0.00286861 0.00216524 0.00393731)
(-0.00181611 0.00274054 0.00429764)
(-0.000745276 0.00377101 0.00476681)
(0.000191888 0.00399134 0.00492071)
(0.00095332 0.00416882 0.00497009)
(0.00147349 0.00366678 0.00480832)
(0.0017999 0.00319955 0.00472638)
(0.0017967 0.00248391 0.00464281)
(0.0018697 0.00199681 0.00463111)
(0.00176201 0.00145235 0.00461998)
(0.00170474 0.00112423 0.00465255)
(0.00158729 0.000813386 0.00468768)
(0.00148509 0.000652036 0.00474018)
(0.00136132 0.000540976 0.00478925)
(0.00123666 0.000500525 0.00484039)
(0.00112159 0.000489047 0.00489466)
(0.00102558 0.000501359 0.00495315)
(0.000944789 0.000519205 0.0050138)
(0.000871759 0.000533671 0.00507506)
(0.000803602 0.000543062 0.00513648)
(0.000735377 0.000536887 0.00519525)
(0.000674113 0.00054575 0.00525132)
(0.000586822 0.000497466 0.00529334)
(0.000553803 0.000561906 0.00534904)
(0.000423789 0.000378027 0.00536852)
(0.00047915 0.000625004 0.00544715)
(0.000256015 0.00012451 0.00544554)
(0.000454883 0.000768554 0.00555039)
(0.000100659 -0.000292165 0.00553002)
(0.000496768 0.00100981 0.00565082)
(7.79982e-06 -0.000802466 0.00560517)
(0.000582059 0.00142368 0.00565886)
(5.64392e-05 -0.00113785 0.00560618)
(0.000636695 0.0022282 0.00544719)
(0.00029482 -0.00101306 0.00553325)
(0.000951366 0.00345029 0.00524779)
(0.000879317 -0.000938552 0.00567474)
(0.00190512 0.00410348 0.00563122)
(0.00173017 -0.00223686 0.00606765)
(0.00216433 0.00228439 0.00622611)
(0.00144978 -0.00429711 0.00631179)
(-0.00136081 0.00130744 0.00484773)
(-0.00606209 0.0013317 0.00207324)
(-0.00120846 0.0157368 -0.00128168)
(0.00497185 -0.0255636 0.00524064)
(0.0546229 -0.0477131 0.025943)
(0.0356604 -0.084507 0.00875889)
(-0.00710094 -0.00478676 0.0158246)
(-0.0951224 -0.123033 0.0115981)
(-0.00597822 0.270462 -0.153221)
(0.196049 -0.0576573 0.00228885)
(0.229043 -0.159428 0.0349297)
(0.111709 0.107293 -0.00885301)
(0.127571 -0.0584492 0.00915517)
(0.0427313 0.02933 0.00830557)
(0.0250419 -0.0387599 0.00905339)
(0.014879 -0.0260506 0.00650383)
(0.00736592 -0.0317631 0.0045056)
(0.00034966 -0.0340936 0.0030468)
(-0.00341534 -0.0331584 0.0017585)
(-0.00514375 -0.030453 0.000792856)
(-0.0055381 -0.0274146 -0.00010995)
(-0.00517116 -0.0240614 -0.000788548)
(-0.00474793 -0.0205774 -0.00124142)
(-0.00464086 -0.0169313 -0.00148389)
(-0.00524836 -0.0137749 -0.00157955)
(-0.00634452 -0.0102285 -0.00147129)
(-0.00821914 -0.00707391 -0.00103441)
(-0.0109028 -0.00451857 -0.00178848)
(-0.0138607 -0.000234434 -0.00382247)
(-0.0163576 0.00380512 -0.00476387)
(-0.0180676 0.00560421 -0.00506053)
(-0.0188695 0.00551876 -0.00581624)
(-0.0167631 0.00458546 -0.00527395)
(-0.0109304 0.00217504 -0.0013981)
(-0.00423727 -0.00217159 0.00428847)
(0.000431761 -0.00802778 0.00927088)
(0.00271686 -0.0148427 0.0132579)
(0.00183431 -0.0216291 0.0153682)
(-0.00335972 -0.02787 0.0152208)
(-0.0110136 -0.0313986 0.013534)
(-0.0177471 -0.0296943 0.0121421)
(-0.0236636 -0.0247197 0.0103785)
(-0.0292528 -0.0160312 0.00659726)
(-0.0311537 -0.00221296 0.00206634)
(-0.0318279 0.0104067 0.016315)
(-0.0322045 0.00297268 0.0309833)
(0.0302557 0.0294337 0.00339644)
(0.0334086 0.0224048 0.00349358)
(0.021602 0.015553 -0.000971546)
(0.0228477 0.0166513 -0.000780756)
(0.0168124 0.0103098 -0.00220342)
(0.0153027 0.0100954 0.000149969)
(0.00471898 0.00163842 0.000121121)
(-0.0012452 0.000544743 0.00144056)
(-0.00558073 -0.00185088 0.0025478)
(-0.00542408 0.000419991 0.00347111)
(-0.00417565 0.00109506 0.00423217)
(-0.00326415 0.00292611 0.00491585)
(-0.0022392 0.00364373 0.0050094)
(-0.00128648 0.00414699 0.00498471)
(-0.000535818 0.00380578 0.00467882)
(-0.000186336 0.00336404 0.0045546)
(-0.000239711 0.00264843 0.00443943)
(-0.000293448 0.00217396 0.00443857)
(-0.000509545 0.00163634 0.00441097)
(-0.000659954 0.0012879 0.00442446)
(-0.000863276 0.000948066 0.00441934)
(-0.00103223 0.000749891 0.00442783)
(-0.00119671 0.000598179 0.00444)
(-0.00133531 0.000523633 0.00446597)
(-0.0014515 0.000490656 0.00449862)
(-0.00154204 0.000489738 0.00453842)
(-0.0016127 0.000502108 0.00458144)
(-0.00167302 0.000518408 0.0046263)
(-0.00172928 0.000533889 0.00467242)
(-0.00178492 0.000538181 0.00471762)
(-0.00183505 0.000552072 0.00476081)
(-0.00190144 0.000512323 0.0047891)
(-0.00191873 0.000566815 0.00483099)
(-0.00202117 0.000392711 0.00482744)
(-0.00194939 0.00061834 0.00488969)
(-0.00214828 0.000131595 0.0048533)
(-0.00192269 0.000761159 0.00495661)
(-0.00226765 -0.000237503 0.00489331)
(-0.00185293 0.00107049 0.00501619)
(-0.00234173 -0.000548942 0.00493889)
(-0.00184251 0.00164074 0.00495996)
(-0.00231894 -0.000496115 0.00492068)
(-0.00198379 0.00262573 0.00467219)
(-0.00210074 2.92615e-05 0.00487722)
(-0.00187502 0.00387979 0.00445294)
(-0.00142811 0.000387206 0.00505854)
(-0.000970664 0.00452513 0.00484424)
(-0.000412423 -0.000321146 0.00532861)
(-0.000532489 0.00350199 0.00496292)
(-0.00123476 -0.00106961 0.00474063)
(-0.00421055 0.0024525 0.00240083)
(-0.0097658 -0.00188569 0.000235205)
(0.0202881 0.00502656 0.00440215)
(0.0523192 -0.0474685 0.0199921)
(0.0671561 -0.0595799 0.0535475)
(0.0325524 -0.0785952 0.0662235)
(-0.0268362 -0.0343963 0.0873916)
(-0.117406 -0.153688 0.0824743)
(0.0313434 0.134088 -0.141285)
(0.150476 -0.0761448 0.0275633)
(0.207552 -0.12331 0.0307032)
(0.0881103 0.115911 -0.0138735)
(0.106902 0.0408514 0.00632238)
(0.0603329 0.0685339 0.00823729)
(0.0508085 0.0422816 0.00582317)
(0.0221376 0.0416384 0.00259655)
(0.0145256 0.036385 0.000707096)
(0.00853151 0.0361191 -0.00117556)
(0.0041703 0.0361659 -0.00282911)
(0.00104964 0.0387472 -0.00469072)
(-0.000727062 0.0428268 -0.0061264)
(-0.00163814 0.0491083 -0.00647434)
(-0.00251114 0.0552493 -0.00564396)
(-0.0037698 0.060337 -0.00400945)
(-0.00531769 0.0638068 -0.00220775)
(-0.00658563 0.065226 -0.00123389)
(-0.00786473 0.0648688 -0.000825565)
(-0.00868104 0.0632268 -0.000217284)
(-0.0086569 0.0602201 0.000981514)
(-0.00767709 0.0555844 0.00245945)
(-0.00659597 0.0492606 0.00403043)
(-0.00493471 0.0414871 0.00608289)
(-0.00216924 0.0328717 0.00944165)
(0.0011595 0.0239614 0.0140247)
(0.00358898 0.0154897 0.0191737)
(0.00391078 0.00710013 0.0241329)
(0.00189686 -0.00187103 0.0280598)
(-0.00236104 -0.0114737 0.0293664)
(-0.00983441 -0.0193116 0.026551)
(-0.0190632 -0.0250101 0.0197361)
(-0.0266931 -0.0256699 0.0138724)
(-0.0324961 -0.0230761 0.00986137)
(-0.0383865 -0.0175054 0.00632093)
(-0.0417002 -0.0093517 0.000652304)
(-0.0448257 0.00636239 0.0121267)
(-0.0492908 0.00192569 0.0288312)
(0.0301266 0.0309091 0.00710141)
(0.0361499 0.0266149 0.00674253)
(0.02384 0.0170495 0.00136887)
(0.0247351 0.0184139 0.00206884)
(0.0193547 0.00908455 -0.000832385)
(0.0183646 0.0106316 0.000835394)
(0.0108749 0.00304191 -0.00220964)
(0.00320702 0.00257128 -0.00120966)
(-0.00396719 -0.00191648 0.00104735)
(-0.00595401 -0.00101871 0.00225251)
(-0.00607381 -0.000989859 0.00357959)
(-0.00538508 0.00143324 0.00462787)
(-0.00382531 0.00275496 0.00485608)
(-0.00251752 0.00379975 0.00501566)
(-0.001361 0.0035614 0.00483655)
(-0.000886666 0.00312326 0.00484756)
(-0.000963082 0.002407 0.00472625)
(-0.0011084 0.00200504 0.0047408)
(-0.00138764 0.00157314 0.00466621)
(-0.00158828 0.00134313 0.00462381)
(-0.00182755 0.00110719 0.00452114)
(-0.0020234 0.000971174 0.00442856)
(-0.00219988 0.000845119 0.00433959)
(-0.00234272 0.000774221 0.00427129)
(-0.00245592 0.000732976 0.00421747)
(-0.00253287 0.000719168 0.00418176)
(-0.00258325 0.000719598 0.00415977)
(-0.002618 0.000728231 0.00414917)
(-0.00264219 0.000742512 0.00414824)
(-0.00266116 0.000753305 0.00415218)
(-0.00267504 0.000772304 0.00416004)
(-0.00270217 0.00074808 0.00416231)
(-0.00269396 0.000809101 0.00417926)
(-0.00276415 0.000659004 0.00415179)
(-0.0026591 0.000889141 0.00420231)
(-0.00284475 0.000449001 0.00412143)
(-0.00258513 0.00107575 0.00423079)
(-0.00295151 0.000195791 0.00409147)
(-0.00253629 0.00146815 0.00423455)
(-0.00303469 8.38091e-05 0.00407626)
(-0.00267298 0.00214045 0.00409547)
(-0.00302892 0.0002634 0.00399718)
(-0.00310122 0.00309183 0.00370844)
(-0.00279658 0.000520284 0.0039335)
(-0.00318329 0.0039945 0.00359059)
(-0.00200734 0.000357548 0.00430967)
(-0.00220103 0.00432646 0.00461622)
(-0.00106646 -0.000355747 0.00509057)
(-0.00149387 0.0036985 0.00532773)
(-0.001907 -0.00120109 0.0042531)
(-0.00235633 0.00161597 0.00216595)
(-0.00720178 -0.00573564 0.00153743)
(0.0270578 -0.00545094 0.015522)
(0.0457332 -0.0330786 0.0511465)
(0.0229231 -0.0114008 0.0706735)
(0.0105827 -0.0373956 0.0840176)
(0.0181593 -0.0357763 0.132333)
(-0.0504263 -0.154339 0.114285)
(0.0442946 0.0643802 -0.154148)
(0.0839007 -0.0612194 0.0317721)
(0.154241 -0.0538144 0.0202565)
(0.0750295 0.129396 -0.00850196)
(0.0890926 0.102735 0.00262292)
(0.0511547 0.132676 0.00411492)
(0.0340158 0.129772 0.00167571)
(0.0221694 0.129456 0.00035872)
(0.0131179 0.128823 4.74958e-05)
(0.00698434 0.128303 -0.000238776)
(0.00247591 0.129655 0.000381971)
(-0.000232401 0.13006 0.000832154)
(-0.00186907 0.131112 0.00175667)
(-0.00238616 0.131569 0.0033166)
(-0.00230499 0.130845 0.00475561)
(-0.00222475 0.12911 0.00604911)
(-0.00238661 0.125776 0.0072876)
(-0.00255485 0.12192 0.00843057)
(-0.00275782 0.116652 0.00954794)
(-0.002801 0.110814 0.0108674)
(-0.00295639 0.103811 0.0120122)
(-0.0027302 0.0964524 0.0129499)
(-0.0026612 0.0878882 0.0137948)
(-0.00271227 0.0786655 0.0151112)
(-0.00300997 0.0682593 0.0173556)
(-0.00452215 0.0568298 0.0203622)
(-0.00724897 0.0443963 0.0240894)
(-0.010279 0.0317488 0.027526)
(-0.0135802 0.0185616 0.0288142)
(-0.0176305 0.00466559 0.0263984)
(-0.0232817 -0.00631025 0.0205138)
(-0.0312164 -0.0146909 0.01104)
(-0.0370208 -0.0160208 0.0046386)
(-0.0428647 -0.0140947 0.0010666)
(-0.0494113 -0.00922331 -0.00091125)
(-0.0547033 -0.00254108 -0.00463227)
(-0.056155 0.00929395 0.00975623)
(-0.0570129 0.00163644 0.0280732)
(0.0255842 0.0312889 0.00826972)
(0.0349165 0.0310907 0.0106871)
(0.0222652 0.0173126 0.00520047)
(0.0230543 0.0202197 0.00873734)
(0.0172145 0.00562733 0.00470926)
(0.0172017 0.00849814 0.00473994)
(0.0128721 0.00189355 5.7764e-05)
(0.00608062 0.00293554 -0.00208715)
(-0.00141968 -0.00160291 -0.000589081)
(-0.00548175 -0.00077334 0.00139155)
(-0.00742487 -0.00188983 0.00275056)
(-0.00823366 0.00026416 0.00400122)
(-0.00701383 0.00180812 0.00462547)
(-0.00515008 0.0031691 0.00541597)
(-0.00363827 0.00294875 0.00569462)
(-0.00325827 0.00267255 0.00591148)
(-0.00353007 0.00207687 0.00577242)
(-0.00399411 0.00183228 0.0056824)
(-0.00444812 0.00156124 0.00548955)
(-0.00476075 0.00148004 0.00533588)
(-0.00501625 0.00137463 0.00512716)
(-0.00518034 0.00133223 0.00495318)
(-0.00530979 0.00127643 0.00480143)
(-0.00539711 0.00125729 0.00468971)
(-0.00544359 0.0012461 0.00460571)
(-0.00545406 0.00125027 0.00454965)
(-0.00544005 0.00125764 0.00451915)
(-0.00542004 0.00126587 0.00451112)
(-0.00540212 0.00128103 0.00451669)
(-0.00537483 0.0012945 0.0045205)
(-0.00534823 0.00130882 0.0045214)
(-0.00532424 0.00129217 0.00452018)
(-0.0052853 0.00134019 0.00453129)
(-0.00528631 0.00122875 0.00451981)
(-0.00518669 0.00143978 0.00456227)
(-0.00525815 0.00109329 0.0045082)
(-0.00507558 0.00166563 0.00460765)
(-0.00524 0.000960917 0.00449726)
(-0.00503328 0.00210133 0.00461528)
(-0.00518585 0.000939374 0.00449534)
(-0.00518708 0.00277651 0.00448856)
(-0.00505705 0.000898583 0.00440633)
(-0.00552356 0.00349762 0.0041728)
(-0.00468885 0.000308453 0.00427316)
(-0.0057633 0.00381991 0.00408239)
(-0.00404377 -0.000773658 0.004506)
(-0.00516995 0.00346182 0.00521137)
(-0.00345699 -0.00208377 0.00594021)
(-0.00425044 0.00168613 0.00724585)
(-0.00392386 -0.00423449 0.00607325)
(-0.00403406 -0.00320293 0.00320915)
(-0.00561028 -0.0101211 0.00234784)
(0.0158768 -0.0103194 0.0201805)
(-0.00153921 -0.00369347 0.0455576)
(-0.0186291 0.0206779 0.070953)
(-0.00698097 -0.0141294 0.0687338)
(0.0070789 -0.00127274 0.070319)
(-0.0178487 -0.092346 0.0474955)
(0.0287331 -0.0614012 -0.158401)
(0.0434289 -0.0632555 0.0304195)
(0.0775195 0.0107647 0.0176211)
(0.0325554 0.181966 -0.0075805)
(0.0473576 0.201469 0.00788888)
(0.0376951 0.225826 0.00835715)
(0.0312534 0.232432 0.011015)
(0.0225899 0.232743 0.00861367)
(0.0171681 0.229672 0.00961715)
(0.010477 0.224399 0.00787966)
(0.00633992 0.219837 0.00825105)
(0.0027726 0.215248 0.00796403)
(0.00028169 0.210794 0.00882385)
(-0.00126466 0.207124 0.00918385)
(-0.00213624 0.202106 0.00979041)
(-0.00246454 0.197474 0.0100839)
(-0.00298652 0.190343 0.0100872)
(-0.0031899 0.184111 0.00964253)
(-0.00365672 0.175701 0.00916816)
(-0.00381834 0.167728 0.00868015)
(-0.00416338 0.158819 0.00782758)
(-0.00388347 0.150434 0.00663818)
(-0.00312 0.141467 0.00576006)
(-0.00184844 0.13243 0.00580924)
(-0.000707284 0.1216 0.00701075)
(-0.000681209 0.108754 0.00705073)
(-0.00243832 0.0923142 0.00844193)
(-0.00523645 0.0743167 0.0109445)
(-0.00901662 0.0547913 0.00983105)
(-0.0138901 0.036682 0.00529954)
(-0.0201176 0.021308 -0.00148034)
(-0.0267746 0.00905737 -0.00595895)
(-0.0330801 0.00479091 -0.00655559)
(-0.039926 0.00383031 -0.00762249)
(-0.0480234 0.00472305 -0.00847512)
(-0.0547067 0.00631007 -0.0073595)
(-0.0584254 0.0116197 0.00682896)
(-0.0693936 0.00120141 0.0200337)
(0.0224031 0.0264001 0.00346074)
(0.032737 0.0353349 0.00932561)
(0.0176554 0.018619 0.00733914)
(0.0193129 0.0230632 0.0113906)
(0.0128478 0.00618049 0.00813036)
(0.0118339 0.00794664 0.00695556)
(0.0100232 0.000637424 0.00354651)
(0.00640395 0.00286061 -0.000759278)
(-0.000269516 -0.00162311 -0.00144515)
(-0.00491931 -0.000253514 0.000843744)
(-0.00708592 -0.0017033 0.00233917)
(-0.00874241 -0.000700773 0.0036945)
(-0.00776268 -0.00068223 0.00497186)
(-0.00561117 0.000297897 0.0063477)
(-0.0038285 0.000293132 0.00730062)
(-0.00354774 0.000842772 0.00803453)
(-0.00371675 0.000992455 0.00829105)
(-0.00411058 0.0013818 0.0083475)
(-0.00443051 0.00152698 0.00818298)
(-0.00465309 0.00178739 0.00798582)
(-0.00484558 0.00189227 0.00771293)
(-0.00498097 0.00196841 0.00748205)
(-0.00508741 0.00196851 0.00728039)
(-0.00515055 0.00196702 0.00712447)
(-0.00516841 0.00194994 0.00700582)
(-0.00514805 0.00193249 0.00691992)
(-0.00510351 0.00191758 0.00685506)
(-0.00504452 0.00191072 0.00680544)
(-0.0049838 0.00190799 0.00676464)
(-0.00491998 0.00190833 0.00672997)
(-0.00485725 0.00191627 0.0067014)
(-0.00479193 0.00190142 0.0066766)
(-0.00473251 0.00193061 0.00665757)
(-0.00469084 0.00184412 0.00662752)
(-0.00460318 0.0020503 0.0066229)
(-0.00461839 0.00178061 0.00653914)
(-0.004517 0.00233321 0.00654191)
(-0.00460688 0.00172308 0.00637797)
(-0.00454272 0.00279638 0.00637878)
(-0.00457954 0.00163459 0.0061617)
(-0.00469417 0.00336642 0.00612518)
(-0.00429054 0.00117839 0.00587997)
(-0.004871 0.00385378 0.00580522)
(-0.00362487 -0.000304388 0.0057016)
(-0.00506411 0.00377403 0.00576351)
(-0.00273891 -0.00231433 0.00610187)
(-0.00438037 0.00270149 0.00689402)
(-0.00151927 -0.00372144 0.0081948)
(-0.0021705 0.000329537 0.0101206)
(1.03586e-05 -0.00608127 0.00994432)
(-0.00080597 -0.00665021 0.00859692)
(-0.000894651 -0.0150204 0.0102502)
(-0.0102759 -0.0119959 0.0244893)
(-0.0333465 0.00572872 0.0407655)
(-0.0366815 0.0257401 0.0574325)
(-0.00892961 -0.0104786 0.0720122)
(0.0258464 0.0234481 0.107854)
(0.0751844 -0.0632131 0.0710827)
(-0.0113894 -0.0865542 -0.13965)
(-0.00814504 -0.0720923 0.0348288)
(-0.0297182 0.0590648 0.027192)
(-0.0106087 0.215326 -0.00840793)
(0.0077095 0.244202 0.00751793)
(0.0166605 0.279932 0.00714449)
(0.0180085 0.294488 0.0120963)
(0.0167034 0.306163 0.0113923)
(0.0136258 0.309974 0.0135745)
(0.0105849 0.311441 0.0124972)
(0.00743212 0.308843 0.01315)
(0.00557951 0.304608 0.0123308)
(0.00375128 0.298931 0.0122776)
(0.00313512 0.292664 0.0119728)
(0.00270635 0.286606 0.0124518)
(0.0046267 0.279197 0.0124696)
(0.00565538 0.271193 0.0130381)
(0.00762098 0.261499 0.0133253)
(0.00858633 0.251276 0.0135401)
(0.0100063 0.239706 0.01294)
(0.0100333 0.229787 0.0112819)
(0.0105837 0.220655 0.00888443)
(0.0112153 0.214012 0.00740469)
(0.0117669 0.20839 0.00651174)
(0.0120031 0.203968 0.00588098)
(0.0113733 0.199351 0.00474743)
(0.00776498 0.195089 0.0043568)
(0.00385726 0.186742 0.00690955)
(0.000916266 0.174595 0.0084611)
(-0.00321596 0.160328 0.00796877)
(-0.00974047 0.144671 0.00783762)
(-0.0175563 0.127569 0.006059)
(-0.0257003 0.11397 0.00471647)
(-0.0343154 0.101568 0.00298059)
(-0.0421387 0.0878713 0.00160218)
(-0.0490883 0.074034 0.00196652)
(-0.0562786 0.0522684 0.00317871)
(-0.0652606 0.0204534 -0.00182487)
(0.0139924 0.0198208 -0.0110023)
(0.0301972 0.035483 0.00646193)
(0.00983454 0.0196358 0.00487357)
(0.014251 0.0279442 0.00756057)
(0.00828702 0.0125892 0.00551485)
(0.00814616 0.0119969 0.00542948)
(0.0058366 0.00249264 0.00291722)
(0.00395487 0.00364058 0.000239656)
(-0.000465951 -0.000777718 -0.0027931)
(-0.00494211 0.000197223 -0.00250174)
(-0.00706266 -0.0016924 -0.00127541)
(-0.00847187 -0.00154283 4.56199e-05)
(-0.0089158 -0.00264868 0.00129818)
(-0.00836382 -0.00193947 0.00256716)
(-0.00787427 -0.00141899 0.0038358)
(-0.00805866 -0.000236076 0.00474134)
(-0.00853936 0.000326878 0.00529672)
(-0.00895597 0.00103449 0.00556803)
(-0.0093454 0.0013536 0.00563971)
(-0.00953493 0.00174117 0.00562607)
(-0.00952773 0.0019604 0.00553141)
(-0.00946426 0.00214157 0.00543512)
(-0.00939661 0.00222027 0.005342)
(-0.0093178 0.00226323 0.00527187)
(-0.00922285 0.00227215 0.00521986)
(-0.00911018 0.00227033 0.00518237)
(-0.00898456 0.00226479 0.00515144)
(-0.0088477 0.0022634 0.00512602)
(-0.00870485 0.00226762 0.00510467)
(-0.00855304 0.00227666 0.00508684)
(-0.00839843 0.00229233 0.00506802)
(-0.00823644 0.00229586 0.00504504)
(-0.00810969 0.00233185 0.00501617)
(-0.00800806 0.00228283 0.00497742)
(-0.00793365 0.0024705 0.00494101)
(-0.00781196 0.00227813 0.00486414)
(-0.00779535 0.00277624 0.00480327)
(-0.00760122 0.00226631 0.004669)
(-0.00771005 0.00325686 0.00458501)
(-0.00727369 0.00215894 0.00439847)
(-0.00758961 0.0039162 0.00431919)
(-0.00689495 0.00154001 0.00402905)
(-0.00726731 0.00420204 0.0040809)
(-0.00613135 -0.000372253 0.00381704)
(-0.00699806 0.00368922 0.00412504)
(-0.0051948 -0.00286679 0.00429549)
(-0.00645788 0.00248312 0.00505561)
(-0.00355283 -0.00464508 0.00627214)
(-0.00438256 0.000648554 0.00831265)
(8.9029e-05 -0.00671812 0.00767524)
(-0.00152653 -0.00511737 0.00880387)
(-0.00257324 -0.0161932 0.00859474)
(-0.0303931 -0.0153573 0.0177055)
(-0.0690302 -0.025459 0.0388524)
(-0.0602138 -0.00730792 0.0543951)
(-0.0341905 -0.0464149 0.0636493)
(0.00348826 -0.011219 0.0959811)
(0.120901 -0.131408 0.068059)
(-0.033823 0.0413171 -0.155993)
(-0.0559929 -0.0739079 0.0285596)
(-0.137537 -0.0221781 0.00213894)
(-0.0595377 0.153393 -0.0155956)
(-0.0447463 0.147969 -0.00122037)