/*--------------------------------*- C++ -*----------------------------------*\
| =========                 |                                                 |
| \\      /  F ield         | OpenFOAM: The Open Source CFD Toolbox           |
|  \\    /   O peration     | Version:  2.3.0                                 |
|   \\  /    A nd           | Web:      www.OpenFOAM.org                      |
|    \\/     M anipulation  |                                                 |
\*---------------------------------------------------------------------------*/
FoamFile
{
    version     2.0;
    format      ascii;
    class       volVectorField;
    location    "24";
    object      U;
}
// * * * * * * * * * * * * * * * * * * * * * * * * * * * * * * * * * * * * * //

dimensions      [0 1 -1 0 0 0 0];

internalField   nonuniform List<vector> 
6144
(
(0.00959392 0.015721 -0.00100945)
(0.0102005 -0.00492224 -0.00292824)
(0.00527843 -0.00468721 -0.00335091)
(0.00476114 -0.00626138 -0.00323191)
(0.0027853 -0.00640313 -0.00271285)
(0.00239463 -0.00485339 -0.00233827)
(0.00158374 -0.00370852 -0.00144707)
(0.00161416 -0.00189378 -0.000806841)
(0.00160418 -0.000599898 -0.000474519)
(0.00144354 0.000959376 -1.96716e-07)
(0.00132632 0.00223206 0.00037148)
(0.00139254 0.00311992 0.00086463)
(0.00156176 0.00323699 0.00109252)
(0.00172645 0.00285021 0.00134597)
(0.00185226 0.00212953 0.00121187)
(0.00195465 0.00146684 0.00106017)
(0.0020125 0.000871408 0.000770554)
(0.00207195 0.000523226 0.000585586)
(0.00211717 0.000223593 0.000359315)
(0.00214201 7.98588e-05 0.000242681)
(0.00214978 -4.17171e-05 0.000168857)
(0.00214036 -6.93677e-05 0.000142752)
(0.00212411 -8.61736e-05 0.000142606)
(0.00210132 -6.30165e-05 0.000168043)
(0.00207446 -3.52548e-05 0.000213593)
(0.00204379 -8.82119e-07 0.000279505)
(0.00201037 3.13542e-05 0.000358841)
(0.00197434 6.29084e-05 0.000444679)
(0.00193581 9.51374e-05 0.000536567)
(0.00189715 0.000126622 0.000631787)
(0.00185789 0.000145582 0.000733889)
(0.00180907 0.000139554 0.000860608)
(0.00175014 9.52749e-05 0.00102197)
(0.00168272 -1.78142e-05 0.00122963)
(0.00161021 -0.000244785 0.00148888)
(0.0015412 -0.00063997 0.00178968)
(0.00148349 -0.00124425 0.00210604)
(0.0014416 -0.00206074 0.00237098)
(0.00141967 -0.0030235 0.00250122)
(0.00141383 -0.00403341 0.00240036)
(0.00143288 -0.00483838 0.0019436)
(0.00146173 -0.0051543 0.000956274)
(0.00156039 -0.00443606 -0.000142829)
(0.00198525 -0.00255483 -0.00116954)
(0.00290785 -0.000292944 -0.00202848)
(0.00488512 0.000504987 -0.00260356)
(0.00661032 -0.00150638 -0.00314009)
(0.00901099 -0.00598241 -0.00335434)
(0.00553022 -0.0189284 -0.005738)
(0.007572 -0.00490972 -0.0165615)
(0.0353898 0.0143445 -0.0240526)
(0.0555224 0.00403556 -0.0198328)
(0.0540895 -0.0295457 -0.0291763)
(0.0417594 -0.0463916 -0.0350368)
(0.0474901 -0.0300465 -0.0381114)
(0.059898 -0.072714 -0.0236848)
(0.010626 -0.0240687 -0.0162966)
(0.00207587 -0.0848065 0.0340209)
(-0.0319772 -0.0281208 -0.0518149)
(0.0228696 0.121629 0.0571982)
(0.175334 -0.269721 0.057657)
(0.128971 -0.15517 0.0226093)
(0.079754 -0.208985 0.00422651)
(0.0658373 -0.216149 0.00422142)
(0.0496182 -0.209922 0.0059383)
(0.044172 -0.209669 0.00627783)
(0.0380144 -0.206735 0.00633847)
(0.0346126 -0.205009 0.00702747)
(0.0324039 -0.203249 0.00899042)
(0.0267442 -0.203731 0.0094992)
(0.0237929 -0.200998 0.00786242)
(0.0172326 -0.195794 0.00591645)
(0.0097132 -0.181215 0.00684225)
(0.019315 -0.16426 0.00869468)
(0.0258444 -0.160135 0.00956843)
(0.0263248 -0.161414 0.00940569)
(0.0245511 -0.16358 0.00814985)
(0.022271 -0.164762 0.00592221)
(0.0212553 -0.162952 0.00426849)
(0.0187288 -0.159711 0.00434169)
(0.0175287 -0.155621 0.00457265)
(0.016294 -0.154157 0.00437582)
(0.0125409 -0.154085 0.00412757)
(0.0111733 -0.158534 0.00411312)
(0.00290935 -0.163372 0.00258873)
(-0.00210307 -0.157613 0.00336571)
(-0.0135055 -0.143554 -0.00375201)
(-0.0322405 -0.104906 -0.0109172)
(-0.0196591 -0.011294 -0.0175602)
(-0.0048752 0.0475142 -0.0322532)
(0.00302944 0.0884014 -0.0238997)
(0.00234213 0.107658 -0.0097468)
(-0.000211151 0.109726 0.00862993)
(-0.00277499 0.0999924 0.021537)
(-0.00584434 0.0656718 0.0442423)
(0.000912097 0.0391843 0.0613463)
(0.0200014 0.0193758 0.00209481)
(0.0202307 0.0056885 0.000703785)
(0.0110517 0.00457151 -0.00209945)
(0.0112527 0.0039107 -0.00012321)
(0.00654573 -0.000260486 0.00119453)
(0.00515345 -0.00109646 0.00213584)
(0.00236309 -0.00270811 0.00299296)
(0.00174788 -0.00173951 0.00290235)
(0.00136957 -0.000203367 0.00260331)
(0.00134886 0.00191933 0.00271998)
(0.00157768 0.00331354 0.00301316)
(0.00203506 0.00425541 0.00355147)
(0.0026158 0.00431242 0.00382757)
(0.00312831 0.0039819 0.00404723)
(0.00339568 0.0031455 0.00406683)
(0.0035735 0.00236995 0.00403465)
(0.00359736 0.0015905 0.00395114)
(0.00366361 0.00110193 0.00389117)
(0.00371391 0.000667335 0.00375316)
(0.00374326 0.000436071 0.00369757)
(0.00373393 0.000239111 0.00366094)
(0.00369662 0.000165711 0.00366848)
(0.00364239 0.00011962 0.00369845)
(0.00357527 0.000127933 0.00375562)
(0.003502 0.000150109 0.00382792)
(0.00342486 0.000185967 0.00391181)
(0.00334407 0.000222987 0.00400362)
(0.00325802 0.000257701 0.00410204)
(0.00316632 0.0002874 0.00420564)
(0.00307821 0.000309975 0.00429831)
(0.00300036 0.000308277 0.00436586)
(0.00291624 0.000260962 0.00444434)
(0.0028305 0.000158816 0.00453235)
(0.00275715 -2.50345e-05 0.00463407)
(0.0027091 -0.000321922 0.00475338)
(0.00270117 -0.000770118 0.00488817)
(0.00273959 -0.00138958 0.00502932)
(0.00281018 -0.00218277 0.00515493)
(0.00289186 -0.00309598 0.00521807)
(0.00293966 -0.00401618 0.00517279)
(0.00285407 -0.00474002 0.00495525)
(0.00275466 -0.00485663 0.00421479)
(0.00278877 -0.00401917 0.00297532)
(0.00309748 -0.00228981 0.00161758)
(0.00466833 -0.000344618 0.00109718)
(0.00833849 0.000829279 0.000852319)
(0.011928 0.00188477 0.000260919)
(0.0183168 0.000575378 -0.000230263)
(0.0167963 -0.00284287 -0.00161868)
(0.00765576 -0.00844449 -0.0110763)
(0.0469424 0.00296231 -0.0200746)
(0.0884278 0.0197567 -0.0311741)
(0.100063 0.0369679 -0.050757)
(0.0837934 0.0442666 -0.0414536)
(0.0805056 0.053003 -0.0156457)
(0.0616671 -0.00260615 0.0042469)
(-0.000217304 0.0999847 0.036017)
(-0.00870602 -0.132797 0.107754)
(-0.079102 0.0191572 -0.0522729)
(-0.00488113 0.0555445 0.0557998)
(0.217595 -0.260274 0.108672)
(0.116908 0.0137201 0.0568097)
(0.0135419 -0.112384 0.035857)
(0.0254139 -0.0192711 0.0375734)
(0.0122738 -0.0544569 0.0168421)
(0.00309618 -0.0570308 0.00183283)
(-0.00439279 -0.068992 0.00318523)
(-0.0121401 -0.0818945 0.00687525)
(-0.0124004 -0.092441 0.0120211)
(-0.0115431 -0.100929 0.0183514)
(-0.0181911 -0.110161 0.0214397)
(-0.0212834 -0.11092 0.0236232)
(-0.0200436 -0.10489 0.0286551)
(-0.0214597 -0.088368 0.0493128)
(-0.0222953 -0.0788075 0.0530828)
(-0.0234836 -0.0761901 0.0443616)
(-0.0205917 -0.0659102 0.0236144)
(-0.0200426 -0.054797 0.0118834)
(-0.02104 -0.0518775 0.0114959)
(-0.0210963 -0.0530981 0.0122936)
(-0.019911 -0.0533945 0.0133453)
(-0.0177173 -0.0580707 0.0161501)
(-0.00624619 -0.0677273 0.0130667)
(-0.000722618 -0.0783667 0.010072)
(-0.00640716 -0.0973525 0.00631291)
(-0.016817 -0.103871 0.00980557)
(-0.0236914 -0.0983207 0.00489676)
(-0.0517583 -0.0737382 -0.00916819)
(-0.0527466 0.00859701 -0.0184457)
(-0.0153595 0.0410853 -0.0282358)
(-0.000463263 0.0796729 -0.0143432)
(0.000780762 0.0938485 0.007005)
(-0.00376118 0.0963502 0.0214645)
(-0.0130033 0.0877222 0.0370292)
(-0.026374 0.0574109 0.0553995)
(-0.0283418 0.0279376 0.0750693)
(0.0240676 0.0207309 0.00324124)
(0.0242699 0.0106885 0.00288713)
(0.0144216 0.00836798 -0.000887296)
(0.0143922 0.0100954 0.000785442)
(0.00870014 0.00558859 0.00202749)
(0.00587181 0.0039697 0.00319417)
(0.00150834 0.000430894 0.00427995)
(-5.74826e-05 0.00105066 0.00406213)
(-0.000893055 0.00202442 0.00383039)
(-0.000525721 0.00348931 0.00391212)
(-7.98923e-05 0.00399138 0.00404117)
(0.000739534 0.00459397 0.00434319)
(0.00151164 0.00453432 0.00456179)
(0.00227245 0.00442148 0.0047154)
(0.00274999 0.00378333 0.00469581)
(0.00303867 0.00316171 0.00464961)
(0.00303771 0.00238193 0.00459646)
(0.00307885 0.00182729 0.00457616)
(0.0029838 0.00128288 0.00457575)
(0.00293655 0.00096887 0.00460127)
(0.00282865 0.000680916 0.00462906)
(0.00272663 0.000543791 0.00467279)
(0.00261342 0.00044869 0.00472159)
(0.00250354 0.00042728 0.00478019)
(0.00239521 0.000431214 0.00484196)
(0.00229216 0.000456814 0.00490586)
(0.0021918 0.000485728 0.00497066)
(0.00209284 0.000507168 0.00503715)
(0.00199395 0.000506275 0.00510595)
(0.00189318 0.000471265 0.00517906)
(0.00178736 0.000396933 0.0052578)
(0.00168077 0.00027386 0.00534057)
(0.00157454 9.94112e-05 0.00542403)
(0.00148294 -0.00012532 0.00550739)
(0.00142795 -0.000398997 0.0055935)
(0.00143062 -0.000727016 0.00568332)
(0.00149491 -0.00110523 0.00577588)
(0.00160638 -0.00151637 0.0058555)
(0.00174077 -0.00190573 0.00589791)
(0.00184493 -0.00217372 0.00585684)
(0.00184165 -0.00216409 0.0056835)
(0.00166733 -0.00186448 0.00532094)
(0.00157474 -0.00101615 0.00479485)
(0.00228194 -0.000331389 0.00394554)
(0.00410043 2.41206e-05 0.00326628)
(0.00732253 6.02709e-05 0.00230637)
(0.0114593 0.00342475 0.00169647)
(0.0188598 0.00324095 0.00130745)
(0.0226652 0.00759011 0.00100072)
(0.0241325 -0.000750917 -0.00437911)
(0.0521137 0.00165734 -0.00429804)
(0.103407 0.025589 -0.0220437)
(0.133513 0.0659934 -0.0403156)
(0.131955 0.0820032 -0.0341105)
(0.115379 0.0755336 -0.000513928)
(0.0902641 0.0156766 0.0198)
(0.0400742 0.0900333 0.0735246)
(-0.0039798 -0.150722 0.0914093)
(-0.11359 0.0357238 -0.0445834)
(0.0227838 0.0484495 -0.01009)
(0.240203 -0.265764 0.106724)
(0.105396 0.115037 0.0652607)
(0.0312612 -0.114968 0.0695243)
(0.0458993 0.0254043 0.021632)
(0.0393061 -0.0332955 0.0268067)
(0.026882 -0.00462088 0.0152598)
(0.0141408 -0.0233988 0.0199173)
(0.00751247 -0.0220954 0.0148652)
(-0.00128674 -0.0136919 0.0161423)
(-0.0105782 -0.0101239 0.025776)
(-0.024083 -0.0185684 0.0327044)
(-0.0428574 -0.0232039 0.0367163)
(-0.0554844 -0.0239013 0.0455707)
(-0.0528024 -0.0258913 0.0475339)
(-0.0445427 -0.0412738 0.0445399)
(-0.0276358 -0.0582933 0.0333308)
(-0.0130918 -0.0682535 0.0181447)
(-0.00853643 -0.0704531 0.00610935)
(-0.0106093 -0.0672536 0.00315307)
(-0.00962198 -0.0637901 0.000383878)
(-0.00669444 -0.0568951 0.00189802)
(0.00156758 -0.0572074 -0.000635424)
(0.0195086 -0.0427454 -0.00921766)
(0.0225942 -0.0224285 0.00327714)
(0.0121613 -0.0280896 0.0127632)
(-0.0231432 -0.0261155 0.0116356)
(-0.0649306 -0.0176949 -0.00927163)
(-0.077455 0.0187075 -0.0227705)
(-0.0409056 0.0295381 -0.0183005)
(-0.0101655 0.0485375 -0.0336308)
(0.00241211 0.0731563 -0.0160711)
(0.00291041 0.0821212 0.00592242)
(-0.00338015 0.0829924 0.0238098)
(-0.0168792 0.0749676 0.0398695)
(-0.0361805 0.0524489 0.0561849)
(-0.0447371 0.0243305 0.0719111)
(0.0258808 0.0223062 0.00336051)
(0.0274717 0.0153188 0.00345325)
(0.016139 0.0104785 -0.0011048)
(0.0165458 0.0128644 -7.67058e-05)
(0.0113172 0.00820728 0.000235751)
(0.00868707 0.00687944 0.00223582)
(0.00140397 0.000727224 0.00362084)
(-0.00185873 0.000551023 0.00368073)
(-0.00301249 0.00123101 0.00374496)
(-0.00200074 0.00305625 0.00398349)
(-0.00137064 0.00326897 0.00429383)
(-0.000736589 0.00400491 0.00469943)
(5.14708e-05 0.00422825 0.00487959)
(0.000866235 0.00442237 0.00495323)
(0.00148015 0.00397472 0.00482717)
(0.00183415 0.00349752 0.00475266)
(0.00185463 0.00274987 0.00469584)
(0.00187799 0.00220749 0.00469552)
(0.00175013 0.00163074 0.00470146)
(0.00166895 0.00126157 0.00473131)
(0.00152556 0.000922756 0.00475757)
(0.00138122 0.000741133 0.00479774)
(0.00121775 0.000604577 0.00484063)
(0.00106578 0.000545178 0.00489449)
(0.000924656 0.000517331 0.00495295)
(0.000797868 0.000516688 0.00501578)
(0.000683279 0.000523512 0.00508079)
(0.000580961 0.000526696 0.00514878)
(0.000489643 0.000511519 0.00522035)
(0.000408462 0.000465424 0.00529625)
(0.00033637 0.000379102 0.0053775)
(0.000269835 0.000250012 0.00546197)
(0.000206538 8.7635e-05 0.00554183)
(0.000160431 -9.38211e-05 0.00561114)
(0.000154632 -0.000279637 0.00567055)
(0.000201193 -0.000466501 0.00572311)
(0.000298547 -0.000637333 0.00576888)
(0.000414121 -0.000758925 0.00579746)
(0.000513767 -0.000730933 0.00579045)
(0.000562339 -0.000434958 0.00571344)
(0.00058162 0.000244863 0.00552182)
(0.000725626 0.00107178 0.00518211)
(0.00142648 0.00154383 0.00477584)
(0.00271958 0.00106054 0.00423504)
(0.00462694 6.91147e-05 0.00353997)
(0.00649256 -0.000502334 0.0020195)
(0.0109319 0.00286925 0.000928829)
(0.018174 0.00239833 5.71231e-05)
(0.0224985 0.00693035 0.000710075)
(0.0257441 0.00244103 -0.00110555)
(0.0399871 0.00286069 0.00484956)
(0.0967643 0.0479412 -0.0114218)
(0.139522 0.0998586 -0.0392408)
(0.144393 0.114586 -0.0387408)
(0.120124 0.102314 -0.0105087)
(0.0898421 0.0314496 0.0194443)
(0.0347236 0.100898 0.0884594)
(0.0364184 -0.199043 0.0927234)
(-0.137891 0.0594872 0.00743407)
(0.0454318 0.0035172 -0.0218015)
(0.229075 -0.23272 0.118239)
(0.0649056 0.148049 0.0598605)
(0.0275288 -0.121277 0.0762825)
(-0.0182993 0.0155008 0.0172514)
(-0.00139231 0.00813398 0.0101983)
(-0.00746243 0.0324809 0.0225019)
(-0.018471 0.0208008 0.031497)
(-0.0341796 0.0227959 0.025185)
(-0.034608 0.0288781 0.0221705)
(-0.0330373 0.0295882 0.0238877)
(-0.0372448 0.0248693 0.0292866)
(-0.0470231 0.0133968 0.0349461)
(-0.044611 0.00180018 0.0346177)
(-0.032573 -0.0156004 0.0163546)
(-0.0171452 -0.0175748 -0.0170837)
(-0.0179891 -0.0190567 -0.0235061)
(-0.021442 -0.0149375 -0.0190023)
(-0.0233418 -0.00804605 -0.00849525)
(-0.0263869 -0.0106249 -0.00517461)
(-0.028318 -0.00593476 -0.0086276)
(-0.0280142 0.00259132 -0.0106817)
(-0.0247227 0.0142024 -0.0120981)
(-0.0165693 0.0303277 -0.00503192)
(-0.0125377 0.0334743 -0.00425877)
(-0.027328 0.0440914 -0.00748955)
(-0.0415176 0.0470307 -0.0175564)
(-0.052345 0.0443276 -0.0234027)
(-0.0392309 0.0414418 -0.0174387)
(-0.0108702 0.0330734 -0.0278344)
(0.0043952 0.0494608 -0.0315811)
(0.00792766 0.0604993 -0.0140671)
(0.00491897 0.0669316 0.00415418)
(-0.0021465 0.0612523 0.0239239)
(-0.022526 0.0580233 0.0399124)
(-0.0490747 0.0422476 0.055791)
(-0.0618209 0.0163594 0.0702119)
(0.0268329 0.0242013 0.00294069)
(0.0292884 0.0216665 0.0041616)
(0.0182689 0.0134468 6.98494e-05)
(0.0176187 0.01457 0.000589813)
(0.0129712 0.00892842 -1.56403e-05)
(0.0119673 0.00882239 0.00197873)
(0.00431715 0.00243788 0.00121318)
(-0.00193184 0.00108772 0.00243755)
(-0.00517128 -0.000776094 0.00319766)
(-0.00425914 0.00137486 0.00383357)
(-0.00349464 0.00180001 0.00435242)
(-0.00317546 0.003164 0.00489929)
(-0.00239138 0.00382996 0.00502887)
(-0.0013913 0.00437645 0.00501224)
(-0.000552177 0.00409061 0.00474643)
(-0.000166816 0.00361839 0.00462191)
(-0.000189813 0.00286401 0.00453515)
(-0.000319062 0.00232881 0.0045513)
(-0.000571666 0.00176782 0.00455508)
(-0.000757804 0.00140167 0.00457222)
(-0.000984822 0.00105011 0.00456366)
(-0.00117437 0.000818738 0.00457062)
(-0.00136025 0.000623935 0.00458522)
(-0.00152133 0.000513241 0.00461319)
(-0.00165887 0.000445295 0.00465167)
(-0.00177531 0.000413684 0.0046999)
(-0.00187652 0.000396318 0.00475411)
(-0.00196299 0.000379945 0.00481425)
(-0.00203351 0.000348625 0.00488073)
(-0.00208983 0.000290716 0.00495418)
(-0.00213809 0.000201493 0.00503086)
(-0.00218526 9.08398e-05 0.00510266)
(-0.00223463 -2.65475e-05 0.00516524)
(-0.00227622 -0.000133642 0.00521396)
(-0.00226926 -0.00021104 0.00524701)
(-0.00219514 -0.0002571 0.00526548)
(-0.00207717 -0.000225174 0.00526332)
(-0.00197873 -2.88336e-05 0.00521575)
(-0.00199451 0.000477862 0.00507137)
(-0.00212076 0.00135966 0.00480866)
(-0.00206087 0.00249751 0.00447095)
(-0.00134559 0.0033908 0.0041499)
(0.000406068 0.00318688 0.00387091)
(0.00248121 0.00181608 0.00376863)
(0.00383794 0.000642743 0.00333991)
(0.0048921 0.000641636 0.00129122)
(0.0101731 0.00454884 -0.000424062)
(0.0178471 0.00736299 -0.000387452)
(0.0234489 0.0123161 0.00373095)
(0.0294086 0.0047031 0.00586154)
(0.0141683 -0.00285427 0.019631)
(0.0605614 0.0474769 0.0192923)
(0.128611 0.11757 -0.024777)
(0.141014 0.146345 -0.0311783)
(0.115397 0.153247 -0.0205225)
(0.0762303 0.111915 0.0193341)
(0.0690375 0.171327 0.0898222)
(0.0821043 -0.190163 0.0751726)
(-0.256414 0.277818 -0.00976708)
(0.0564796 -0.0960834 0.0293652)
(0.226628 -0.178143 0.122296)
(0.0378165 0.126768 0.0310873)
(0.0629865 -0.0461499 0.0556354)
(-0.0422976 0.0660512 -0.0108059)
(-0.00977462 0.0258606 0.0126568)
(-0.0166932 0.0389691 0.0249507)
(-0.0250579 0.0260936 0.0337021)
(-0.0366322 0.0162189 0.019471)
(-0.0347158 0.0173827 0.00692399)
(-0.030853 0.018328 0.00275321)
(-0.033142 0.0210762 0.00449056)
(-0.0426011 0.0240182 -0.00280235)
(-0.0492355 0.0318976 -0.0228907)
(-0.0454578 0.0633836 -0.0374522)
(-0.0396888 0.0897494 -0.0239673)
(-0.0322808 0.0990725 -0.0192107)
(-0.0256836 0.10679 -0.017016)
(-0.0209135 0.108732 -0.0153384)
(-0.0178643 0.107488 -0.0161617)
(-0.0133389 0.10837 -0.0165469)
(-0.00862781 0.10227 -0.0165043)
(0.00129352 0.0978868 -0.0192717)
(0.0135333 0.094673 -0.019683)
(0.0163907 0.0827325 -0.0195271)
(0.00662104 0.0717088 -0.0178315)
(-0.000233843 0.0581714 -0.0184532)
(-0.00216116 0.0462039 -0.018807)
(0.00762821 0.0388738 -0.0198098)
(0.0136942 0.0390545 -0.0194973)
(0.013748 0.0494617 -0.0119055)
(0.0107296 0.0550905 0.000163882)
(-0.000738671 0.0587867 0.0120464)
(-0.0136069 0.0602316 0.0223796)
(-0.0336879 0.0575065 0.0307003)
(-0.0581646 0.0402984 0.0410885)
(-0.0782721 0.0189086 0.0510462)
(0.0267498 0.025523 0.00352336)
(0.0316244 0.0262063 0.00656724)
(0.0205629 0.0164562 0.00262851)
(0.018828 0.0166277 0.00349459)
(0.0135644 0.00778604 0.00190875)
(0.0130019 0.00870541 0.0027251)
(0.00721825 0.00310146 0.000557114)
(0.000968526 0.00257464 0.00111211)
(-0.0049717 -0.00146834 0.00250474)
(-0.00606367 -0.000638885 0.00334458)
(-0.0054658 -0.000355663 0.00396836)
(-0.00514478 0.00171856 0.004793)
(-0.00399564 0.0031337 0.00499889)
(-0.00269497 0.00412969 0.00511125)
(-0.00138259 0.00388422 0.00497495)
(-0.00080458 0.00337685 0.00498899)
(-0.00084157 0.00260725 0.00488468)
(-0.00106836 0.00212421 0.00489176)
(-0.00141573 0.00167947 0.0048275)
(-0.00167985 0.0014426 0.00477169)
(-0.00195585 0.00119524 0.00467194)
(-0.002184 0.001024 0.00458762)
(-0.00239507 0.000860078 0.00450848)
(-0.00257989 0.0007507 0.0044478)
(-0.00272904 0.000665837 0.00440015)
(-0.00284136 0.000607332 0.00437196)
(-0.00292143 0.000561051 0.00436337)
(-0.00296957 0.00052156 0.00437537)
(-0.00298762 0.000480928 0.00440639)
(-0.00298178 0.000433349 0.00445443)
(-0.00296396 0.000380516 0.00451267)
(-0.00295218 0.000330122 0.00457159)
(-0.00294493 0.000295324 0.00462905)
(-0.0029354 0.000306291 0.0046749)
(-0.00288919 0.000395563 0.00469129)
(-0.00281854 0.00057798 0.00465761)
(-0.00280139 0.000908633 0.00452986)
(-0.00293181 0.00143513 0.00426149)
(-0.00322043 0.00219472 0.00381409)
(-0.00341535 0.00307529 0.0032696)
(-0.00301413 0.00382008 0.00286972)
(-0.00149528 0.00408399 0.00291724)
(0.00116824 0.00339356 0.00347887)
(0.00284921 0.00196663 0.0040772)
(0.00286277 0.00180185 0.00378916)
(0.0029617 0.00334423 0.00146245)
(0.00731915 0.00920001 -0.0001413)
(0.0151519 0.0145314 0.00252776)
(0.025385 0.0153206 0.0090302)
(0.0353972 0.00386458 0.0185277)
(0.00817369 0.0024094 0.0371364)
(0.00217309 0.0019565 0.0632423)
(0.0834557 0.08041 0.0131671)
(0.124179 0.149224 -0.0132486)
(0.118594 0.171138 -0.00893318)
(0.0662943 0.164191 -0.000479427)
(0.0164487 0.173011 0.0236327)
(-0.00246882 0.0511317 0.0143123)
(-0.134932 0.457999 -0.0286026)
(0.0461254 -0.168301 0.0341663)
(0.174062 -0.0999732 0.127007)
(0.0209535 0.0877615 0.0125218)
(0.0227775 0.0148671 0.0272678)
(-0.0381107 0.0688286 -0.00412126)
(-0.0229312 0.0460143 0.0117059)
(-0.0291002 0.0500223 0.017356)
(-0.0284801 0.0375746 0.0160428)
(-0.034097 0.0362125 -0.00237802)
(-0.0341845 0.050537 -0.01747)
(-0.034501 0.0800591 -0.0240276)
(-0.0396681 0.112344 -0.0196633)
(-0.0465521 0.138435 -0.0147359)
(-0.0471909 0.159198 -0.0101713)
(-0.0420012 0.178058 -0.00175149)
(-0.0297374 0.179921 0.0065055)
(-0.0211943 0.183669 0.00693391)
(-0.00839978 0.176263 0.00988276)
(-0.0040015 0.167354 0.00842853)
(0.00079769 0.154843 0.00801813)
(0.00615577 0.14075 0.00613761)
(0.0105093 0.129421 0.000376415)
(0.0209984 0.117846 -0.00608276)
(0.0316557 0.109123 -0.0142533)
(0.0343259 0.100055 -0.0222381)
(0.030829 0.0919804 -0.026438)
(0.0224047 0.07627 -0.0276328)
(0.0104548 0.0577616 -0.0317937)
(-0.00094731 0.0475441 -0.0340204)
(-0.00764097 0.0447935 -0.0313104)
(-0.00780483 0.0542293 -0.0153161)
(-0.0096507 0.062339 -0.00332163)
(-0.0167386 0.0722701 0.00478561)
(-0.0238624 0.0709808 0.0115174)
(-0.0377252 0.0660467 0.0170886)
(-0.0579472 0.0469385 0.0275157)
(-0.0716455 0.0287722 0.0345678)
(0.0236654 0.0251455 0.00554599)
(0.0312881 0.0298487 0.0102652)
(0.019767 0.0180985 0.00593153)
(0.0183222 0.0187824 0.00727397)
(0.011671 0.00668364 0.00483986)
(0.0113723 0.00731992 0.00475408)
(0.0073854 0.00140188 0.00217478)
(0.0025439 0.00251605 0.0009564)
(-0.00365277 -0.00107383 0.00211913)
(-0.00658313 -0.000627635 0.00303024)
(-0.00767495 -0.00143706 0.00354263)
(-0.00849182 0.000568207 0.00448949)
(-0.00740934 0.00258733 0.00490866)
(-0.00533513 0.0036713 0.00568466)
(-0.00365521 0.00339472 0.00596931)
(-0.00315507 0.00301345 0.00616077)
(-0.00334713 0.00230336 0.00603338)
(-0.00391857 0.00193313 0.00590592)
(-0.00446525 0.00162395 0.00568109)
(-0.00483494 0.00151085 0.00547928)
(-0.00512243 0.00138664 0.0052601)
(-0.0053229 0.00132515 0.00508747)
(-0.00548185 0.00125669 0.00493901)
(-0.00559455 0.00121655 0.00482664)
(-0.00566147 0.00117433 0.00474267)
(-0.00569467 0.00113301 0.0046932)
(-0.00570635 0.00108867 0.0046764)
(-0.00570172 0.00105298 0.00469211)
(-0.00567466 0.00102398 0.00472074)
(-0.00563392 0.00100113 0.00476274)
(-0.00558752 0.000996971 0.0048232)
(-0.00554097 0.00102167 0.00489759)
(-0.00552062 0.00109691 0.00497142)
(-0.00555089 0.00125839 0.00499583)
(-0.00556134 0.0015476 0.00495691)
(-0.00554195 0.00195967 0.00482646)
(-0.00552836 0.00250118 0.00458657)
(-0.0055237 0.00314444 0.00424663)
(-0.00552652 0.00372825 0.00371635)
(-0.00532585 0.00403086 0.00304843)
(-0.0045569 0.00388369 0.00250414)
(-0.00294361 0.00333134 0.00250364)
(-0.000593646 0.00242702 0.00351414)
(3.16393e-05 0.00150937 0.00464737)
(-0.00146206 0.00236422 0.00468083)
(-0.00193103 0.00510996 0.00213629)
(0.00269803 0.0108849 0.00119367)
(0.0113248 0.0144382 0.0044428)
(0.0234975 0.0131295 0.0133655)
(0.0288982 0.00951897 0.0252091)
(0.0104647 0.0072906 0.0409404)
(-0.00380112 0.0066227 0.0675277)
(0.0291756 0.034308 0.0392815)
(0.0995379 0.125902 0.00835635)
(0.109561 0.15641 0.0263602)
(0.0976974 0.142184 0.0506531)
(0.0934007 0.24593 0.0877909)
(0.0764942 -0.237088 0.0116895)
(0.062582 0.448494 -0.0136357)
(0.0375447 -0.172442 0.0378742)
(0.068569 -0.0018374 0.0957581)
(0.000273908 0.149289 0.0268502)
(0.000135334 0.150783 0.0127586)
(-0.0293789 0.166296 0.00803824)
(-0.0273651 0.173087 0.0120879)
(-0.0304978 0.17207 0.0129967)
(-0.0372912 0.171899 0.000236907)
(-0.043099 0.180967 -0.00432347)
(-0.0464911 0.194853 -0.0014121)
(-0.0496683 0.203162 0.00551154)
(-0.0535861 0.203547 0.0100588)
(-0.0571157 0.204126 0.0144589)
(-0.0551471 0.204257 0.0192676)
(-0.048584 0.202987 0.0219414)
(-0.036693 0.199507 0.0236711)
(-0.021673 0.192914 0.0246224)
(-0.00505993 0.180051 0.0265095)
(0.00466941 0.158993 0.0288484)
(0.0140162 0.139478 0.0331608)
(0.0202046 0.113923 0.0329895)
(0.028422 0.0938244 0.030603)
(0.0400073 0.0766367 0.0264255)
(0.0520003 0.0644913 0.020151)
(0.0524561 0.0590261 -0.00368025)
(0.049027 0.0695366 -0.0239973)
(0.0485477 0.0733491 -0.0277135)
(0.0425666 0.0747726 -0.0236051)
(0.0350975 0.0778677 -0.0181552)
(0.0182573 0.0789627 -0.0251165)
(0.0113192 0.0844225 -0.0282748)
(0.00319089 0.0881342 -0.0123921)
(-0.00487623 0.0846562 -0.00256764)
(-0.017412 0.0786732 0.00281532)
(-0.0335315 0.0686487 0.0085514)
(-0.0507098 0.0471331 0.0163914)
(-0.05633 0.0186257 0.0232001)
(0.018092 0.019564 0.00690807)
(0.0293969 0.0319056 0.0113728)
(0.0170326 0.0185936 0.00680563)
(0.0173591 0.0217096 0.00756607)
(0.010423 0.00776107 0.00541074)
(0.00943778 0.00730457 0.00491415)
(0.00522795 0.000204627 0.00281282)
(0.00180334 0.00252937 0.000761222)
(-0.00403874 -2.71625e-05 0.00101398)
(-0.00683428 0.000688428 0.0024689)
(-0.00789419 -0.000952926 0.00326499)
(-0.009774 -0.000115722 0.00425563)
(-0.00827415 9.30367e-05 0.00547)
(-0.00569418 0.00084108 0.00675097)
(-0.00375752 0.000788395 0.00764878)
(-0.00329596 0.00115766 0.00834543)
(-0.00335218 0.00127023 0.00862688)
(-0.00385805 0.00157929 0.00863735)
(-0.00430486 0.00171714 0.00841651)
(-0.00464208 0.00190261 0.00814181)
(-0.00491231 0.00193011 0.00784023)
(-0.00510163 0.0019563 0.00758879)
(-0.00524124 0.0019299 0.00736671)
(-0.0053304 0.00189804 0.00719325)
(-0.00536493 0.00184914 0.00705437)
(-0.00535614 0.0017968 0.00695811)
(-0.00532656 0.00173602 0.00688813)
(-0.00527693 0.00169043 0.00684262)
(-0.00520667 0.0016662 0.00682453)
(-0.00512323 0.00167626 0.00682324)
(-0.00504613 0.00171964 0.00682816)
(-0.00498679 0.0018175 0.00682884)
(-0.00498782 0.00198845 0.00680886)
(-0.00504404 0.00228004 0.00676259)
(-0.00507211 0.00269209 0.00665104)
(-0.00507189 0.00316474 0.00644742)
(-0.00507237 0.00364112 0.00614705)
(-0.00502856 0.00402814 0.00572385)
(-0.00482688 0.00422863 0.00516777)
(-0.00417309 0.0040155 0.00464516)
(-0.00303227 0.00318241 0.00427461)
(-0.00148104 0.00187575 0.00433657)
(0.000293276 0.000807997 0.00532926)
(0.000565759 0.000647054 0.0069854)
(-0.00143341 0.00301819 0.00758141)
(-0.00298003 0.0061054 0.00524052)
(0.000429471 0.00992856 0.00324276)
(0.00787212 0.0122359 0.00619641)
(0.0163432 0.0146263 0.0151724)
(0.0183109 0.01638 0.0250725)
(-0.00302834 0.00833615 0.0453381)
(-0.0135445 0.00524419 0.0648406)
(-0.0101655 0.0141677 0.0536105)
(0.0534134 0.124699 0.00896783)
(0.0989944 0.195063 0.0566444)
(0.118759 0.202759 0.0844573)
(0.158954 0.208386 0.0693352)
(0.0930766 0.0809102 0.0863198)
(-0.00696247 0.316358 0.115068)
(-0.0358498 -0.169692 0.029175)
(-0.0245731 0.00830617 0.073808)
(-0.018711 0.164267 -0.00250486)
(-0.04498 0.175015 -0.00616172)
(-0.0419322 0.20474 -0.0118642)
(-0.0421447 0.211912 -0.0110957)
(-0.0398006 0.215688 -0.00900698)
(-0.0413565 0.219433 -0.0062436)
(-0.0380182 0.219051 0.00383702)
(-0.0400926 0.212494 0.0186983)
(-0.0407001 0.205375 0.0271968)
(-0.0430572 0.195497 0.0285147)
(-0.0452623 0.18589 0.0211125)
(-0.0419133 0.175453 0.0168924)
(-0.0343763 0.162988 0.0138956)
(-0.0219139 0.149954 0.00765365)
(-0.00592872 0.140905 0.00618975)
(0.0141048 0.125134 0.0111403)
(0.0318527 0.121478 0.0249494)
(0.0427506 0.101968 0.0417062)
(0.0493582 0.0811229 0.0485997)
(0.0532523 0.0562689 0.0497398)
(0.0629717 0.0275675 0.0469604)
(0.0707259 0.011269 0.0528475)
(0.0697535 0.012746 0.0469768)
(0.0642629 0.00438402 0.0198236)
(0.0577095 0.0248383 -0.00298769)
(0.0557703 0.0495328 -0.00333105)
(0.0556523 0.0717905 -0.00130249)
(0.0469668 0.0864011 -0.00693327)
(0.0310817 0.0969759 -0.0176546)
(0.0144985 0.114772 -0.0225863)
(0.00203858 0.120871 -0.0187139)
(-0.00460355 0.119153 -0.00666313)
(-0.0115587 0.101438 0.00162149)
(-0.0211217 0.0670131 0.00220795)
(-0.026152 0.0190428 -0.0158728)
(0.0116525 0.00493405 0.00408641)
(0.0251755 0.0319746 0.00877171)
(0.0126107 0.0169458 0.004212)
(0.0158923 0.0244448 0.00382371)
(0.00989539 0.0102488 0.00225398)
(0.00856803 0.00893414 0.00246252)
(0.00313805 0.00111293 -1.59454e-05)
(0.000917076 0.00387187 -0.00218405)
(-0.00345013 0.00102994 -0.00373328)
(-0.00687986 0.00180743 -0.00186711)
(-0.00822978 8.63099e-05 -0.000514542)
(-0.00981378 -0.000458302 0.000787204)
(-0.00980441 -0.00182942 0.00183553)
(-0.00873021 -0.00142487 0.00301361)
(-0.00784894 -0.00101104 0.00416346)
(-0.0078749 -2.09047e-05 0.0050658)
(-0.00830672 0.000542155 0.00566074)
(-0.0088296 0.00119748 0.0059559)
(-0.009261 0.00152549 0.00601316)
(-0.00938379 0.00188125 0.00595087)
(-0.00942584 0.00206092 0.005806)
(-0.00942776 0.00219791 0.00566159)
(-0.00939501 0.00223991 0.00553132)
(-0.00933323 0.00224297 0.00542914)
(-0.00924265 0.00221365 0.0053511)
(-0.00913029 0.00217876 0.00529599)
(-0.00901219 0.00214325 0.00525119)
(-0.00889239 0.00212286 0.00521648)
(-0.00877097 0.0021268 0.00519025)
(-0.00865004 0.00217654 0.00516724)
(-0.00854291 0.00226418 0.00514091)
(-0.00845128 0.00242725 0.005099)
(-0.00844076 0.00265973 0.00503386)
(-0.00852154 0.00296935 0.00493736)
(-0.00853318 0.00335024 0.00477356)
(-0.00842782 0.00374909 0.00454637)
(-0.00822976 0.00413734 0.00426999)
(-0.00789729 0.0045029 0.00391822)
(-0.00743149 0.00457321 0.00349409)
(-0.00651288 0.00402063 0.00315225)
(-0.00506322 0.00290585 0.00299636)
(-0.00348499 0.00137543 0.00308337)
(-0.00267633 0.000460093 0.00363797)
(-0.00410249 0.000651712 0.00467909)
(-0.0067927 0.00375193 0.00518489)
(-0.00732911 0.00796477 0.00289341)
(-0.00289015 0.0126532 0.000319213)
(0.000548347 0.0174515 0.00261879)
(0.00396532 0.0257511 0.00844036)
(0.00506032 0.0307993 0.0163114)
(-0.00877095 0.0307896 0.0261908)
(-0.0225909 0.0059153 0.0398513)
(-0.0618701 -0.00260906 0.052964)
(-0.0495115 0.0552996 0.0185896)
(0.069967 0.213477 0.0499923)
(0.123721 0.2562 0.0819432)
(0.142302 0.275372 0.0846867)
(0.170897 0.217146 0.101462)
(0.241071 0.488056 0.10166)
(-0.0644972 -0.186028 0.0232933)
(-0.116245 -0.0847255 0.0637321)
(-0.0427508 0.145394 -0.00990947)
(-0.0564295 0.125585 -0.00937094)
(-0.0370019 0.148828 -0.00831813)
(-0.0269002 0.133442 -0.00540633)
(-0.022898 0.111634 -0.01146)
(-0.0180389 0.0962589 -0.00862588)
(-0.00941674 0.0658373 -0.00590567)
(-0.0139631 0.0543016 -0.00487166)
(-0.0179137 0.0425655 0.000952328)
(-0.0256697 0.031841 0.00527973)
(-0.0321297 0.0166171 0.00795504)
(-0.0357974 -0.00732868 0.00824001)
(-0.0363166 -0.0266349 0.00735545)
(-0.0292136 -0.0509762 -0.00272749)
(-0.0183897 -0.0580919 -0.0123328)
(-0.0055872 -0.0484801 -0.0219293)
(0.00335978 -0.0328613 -0.0166354)
(0.00739586 -0.00950457 -0.00651821)