/*--------------------------------*- C++ -*----------------------------------*\
| =========                 |                                                 |
| \\      /  F ield         | OpenFOAM: The Open Source CFD Toolbox           |
|  \\    /   O peration     | Version:  2.3.0                                 |
|   \\  /    A nd           | Web:      www.OpenFOAM.org                      |
|    \\/     M anipulation  |                                                 |
\*---------------------------------------------------------------------------*/
FoamFile
{
    version     2.0;
    format      ascii;
    class       volVectorField;
    location    "24";
    object      U.airMean;
}
// * * * * * * * * * * * * * * * * * * * * * * * * * * * * * * * * * * * * * //

dimensions      [0 1 -1 0 0 0 0];

internalField   nonuniform List<vector> 
6144
(
(0.00805835 0.0202085 -0.00114365)
(0.00813725 0.00457316 -0.00133647)
(0.00458415 0.00231971 -0.002068)
(0.00457878 3.75989e-05 -0.00205681)
(0.00305796 -0.00148012 -0.00162372)
(0.00302852 -0.00107394 -0.00142229)
(0.00249732 -0.00140032 -0.00128817)
(0.00259314 -0.000390868 -0.00129168)
(0.00248484 0.000287398 -0.00147899)
(0.00255072 0.00150532 -0.00129479)
(0.00258279 0.00214086 -0.00114523)
(0.00275701 0.0025175 -0.000910169)
(0.00287764 0.00228546 -0.000866378)
(0.00299552 0.00194256 -0.000838792)
(0.00302955 0.00146262 -0.000989499)
(0.003074 0.00113535 -0.00108961)
(0.00308895 0.000821622 -0.00122424)
(0.00310904 0.000641217 -0.00130543)
(0.00311869 0.000476238 -0.00138153)
(0.00312458 0.00038843 -0.00142264)
(0.00312539 0.00031215 -0.00145319)
(0.00312413 0.000273097 -0.00146711)
(0.00312038 0.00024256 -0.00147418)
(0.00311576 0.000224502 -0.0014733)
(0.00310959 0.00021264 -0.00146865)
(0.00310283 0.000205189 -0.00146079)
(0.00309546 0.00020227 -0.00145123)
(0.00308859 0.000199912 -0.00144006)
(0.00308167 0.000200576 -0.00142787)
(0.00307379 0.000196973 -0.00141579)
(0.0030675 0.000209505 -0.0014018)
(0.00305749 0.000188059 -0.00139191)
(0.00305564 0.00024031 -0.00137291)
(0.00303818 0.000156846 -0.00137113)
(0.00304777 0.000317149 -0.00133951)
(0.00301794 7.15654e-05 -0.00134999)
(0.0030396 0.000464153 -0.00129672)
(0.00299853 -0.000116711 -0.00132273)
(0.00302402 0.000705606 -0.00123526)
(0.00297997 -0.000462113 -0.00126995)
(0.00300047 0.00103285 -0.00113892)
(0.00297538 -0.00106491 -0.00116376)
(0.00297435 0.00135148 -0.00102446)
(0.00302908 -0.0020882 -0.00106917)
(0.00293097 0.00166613 -0.00102051)
(0.00307003 -0.00354048 -0.00114673)
(0.00284851 0.00255506 -0.00141008)
(0.00290352 -0.00457055 -0.00137097)
(0.00280673 0.00497788 -0.00185555)
(0.00285534 -0.00463897 -0.00172429)
(0.00412542 0.00966691 -0.00225848)
(0.00299272 -0.00905714 -0.00220792)
(0.00424877 0.0171086 -0.00303674)
(0.00400229 -0.0132062 -0.0046013)
(0.00653814 0.0402817 -0.00614783)
(0.00348902 -0.0341365 -0.0109228)
(0.0126417 0.0684388 -0.00485931)
(0.00968524 -0.0567596 -0.0232372)
(-0.0392373 0.122278 -0.0791102)
(0.0412712 0.0357376 -0.109983)
(0.0840332 0.332044 -0.000815807)
(0.0410351 0.379491 -0.00251393)
(0.0173517 -0.0362492 0.00245594)
(0.0314834 -0.114494 0.000861129)
(0.0261358 -0.130663 0.00181867)
(0.0169233 -0.129237 0.00401869)
(0.011121 -0.138278 0.00499847)
(0.00711891 -0.135848 0.00493855)
(0.00438309 -0.137626 0.00433533)
(0.00220417 -0.132204 0.00351672)
(0.000605726 -0.130034 0.00266434)
(-0.000438838 -0.12319 0.00185141)
(-0.0009451 -0.118687 0.00105744)
(-0.00110818 -0.111754 0.000310926)
(-0.00106532 -0.106343 -0.000376096)
(-0.000928065 -0.0997299 -0.000998556)
(-0.000703715 -0.0941264 -0.00156069)
(-0.000366615 -0.0881936 -0.00208408)
(9.9419e-05 -0.0828916 -0.00256272)
(0.000654938 -0.0780717 -0.00300044)
(0.00119941 -0.0733803 -0.00336129)
(0.00165318 -0.0686024 -0.00367864)
(0.00196031 -0.0637369 -0.00391071)
(0.00209231 -0.0583556 -0.00404658)
(0.00202357 -0.0527597 -0.00414061)
(0.0018173 -0.0466362 -0.00411697)
(0.00137525 -0.0400259 -0.00417955)
(0.00075435 -0.0324366 -0.00419773)
(-2.02691e-05 -0.0240177 -0.00418093)
(-0.000447954 -0.0144881 -0.00372518)
(0.00060439 -0.00579214 -0.00360162)
(0.00193323 0.001264 -0.00547508)
(0.00201967 0.00891534 -0.00613406)
(0.00105255 0.0159466 -0.00454268)
(0.00120547 0.0203518 0.00234743)
(0.00219783 0.0155772 0.00879142)
(0.0162821 0.0231165 0.00256208)
(0.0170857 0.0113871 0.00254347)
(0.0102542 0.00812109 0.000730712)
(0.0105748 0.00549666 0.00133688)
(0.00660897 0.00222159 0.00159566)
(0.00657698 0.00190027 0.0017562)
(0.004829 0.000387488 0.00189013)
(0.00482998 0.00150436 0.00153928)
(0.00447025 0.00190864 0.00128789)
(0.00472398 0.00309259 0.00135146)
(0.00489823 0.00343305 0.00143001)
(0.00542412 0.00365633 0.00174852)
(0.00567589 0.00319054 0.00183574)
(0.00594855 0.00278225 0.0019107)
(0.0059769 0.00217887 0.0018152)
(0.00606227 0.00177553 0.00175858)
(0.00605493 0.00136695 0.00165522)
(0.00608513 0.00113073 0.00159599)
(0.00608243 0.000908534 0.00152846)
(0.00608432 0.000786974 0.0014997)
(0.00607321 0.000680535 0.00147866)
(0.00606189 0.00062277 0.00147813)
(0.00604588 0.00057675 0.00148413)
(0.006029 0.000549519 0.00149959)
(0.0060099 0.000531246 0.00151866)
(0.00599015 0.000519711 0.0015418)
(0.00596969 0.000514438 0.00156658)
(0.00595013 0.000509392 0.00159219)
(0.00593063 0.000509673 0.00161836)
(0.00590964 0.000506562 0.00164379)
(0.00589332 0.000517039 0.0016711)
(0.00586654 0.000497784 0.00169429)
(0.00586034 0.000548653 0.00172557)
(0.00581573 0.000467957 0.00173945)
(0.00583739 0.000633573 0.00178181)
(0.00575978 0.000369826 0.00178193)
(0.00582078 0.000799679 0.00184525)
(0.00569906 0.000144103 0.00182481)
(0.00580097 0.00107732 0.00192166)
(0.00564278 -0.000280092 0.0018821)
(0.00578848 0.00146589 0.00202373)
(0.00563057 -0.00102172 0.00197346)
(0.00580972 0.00191215 0.00213055)
(0.0057196 -0.00221923 0.00206768)
(0.00581624 0.00245163 0.0021462)
(0.00578353 -0.00388161 0.00200352)
(0.00559267 0.00345862 0.00176737)
(0.00543283 -0.00528917 0.00170867)
(0.00487804 0.00540328 0.000854738)
(0.00498876 -0.00543195 0.00128187)
(0.00657853 0.00919917 4.88782e-05)
(0.00542027 -0.00623916 0.000298635)
(0.00539339 0.0171916 0.000400116)
(0.0025343 -0.011102 -0.000467485)
(0.015978 0.0421164 0.00210113)
(0.0277166 -0.0430546 -0.00105883)
(-0.0204591 0.0383371 0.00550718)
(-0.0157469 -0.0159451 -0.0119156)
(0.0131482 0.188126 -0.00832402)
(0.15646 -0.00304861 -0.0610391)
(0.090264 0.347205 0.00514206)
(0.00246264 0.430549 0.00811246)
(-0.0215638 -0.0809431 0.00923227)
(-0.00641673 -0.0466903 0.00973374)
(-0.0103398 -0.0715718 0.0108042)
(-0.0165384 -0.0838841 0.0123428)
(-0.0179072 -0.0953657 0.0116557)
(-0.0178956 -0.097154 0.0103971)
(-0.0170855 -0.103296 0.0087411)
(-0.0162364 -0.101844 0.00705641)
(-0.0151119 -0.102908 0.00550948)
(-0.0138715 -0.0986712 0.00413003)
(-0.0124195 -0.0963746 0.00279266)
(-0.0109292 -0.091338 0.0015415)
(-0.0093515 -0.0876898 0.00040689)
(-0.00763654 -0.0826387 -0.000506363)
(-0.00563018 -0.0779574 -0.00123497)
(-0.00348998 -0.0724664 -0.00179551)
(-0.00187524 -0.0669866 -0.00223761)
(-0.000890101 -0.0613205 -0.00253621)
(-0.000345945 -0.0556205 -0.00262877)
(-5.25112e-05 -0.0500292 -0.00250167)
(0.000152543 -0.044672 -0.00218974)
(0.000247079 -0.03927 -0.00176746)
(0.000122815 -0.0345547 -0.00131549)
(-0.000384793 -0.0300951 -0.000873293)
(-0.00120559 -0.0257773 -0.000607822)
(-0.00236759 -0.0212777 -0.000510183)
(-0.00392393 -0.0165083 -0.000808525)
(-0.00484314 -0.0104763 -0.000574063)
(-0.00404879 -0.00424276 -3.86723e-05)
(-0.00252139 0.00185341 -0.00131576)
(-0.00192937 0.00873831 -0.00211176)
(-0.00223836 0.015438 -0.000126715)
(-0.0025558 0.0190732 0.00734287)
(-0.00119966 0.0145539 0.0143368)
(0.0194846 0.0230366 0.00367372)
(0.0213645 0.0145577 0.00375085)
(0.0131382 0.010626 0.00161119)
(0.0139871 0.0092813 0.00226369)
(0.00821882 0.00491436 0.00241081)
(0.00800524 0.00438225 0.00277718)
(0.00487051 0.00186234 0.00323809)
(0.00470433 0.00269368 0.0030501)
(0.00406338 0.00263743 0.00284254)
(0.0045389 0.00362724 0.00289663)
(0.00475535 0.00360673 0.00293325)
(0.00557838 0.00380196 0.00319384)
(0.00587313 0.00328587 0.00328251)
(0.00622077 0.00300616 0.00337859)
(0.00621145 0.00243764 0.00333929)
(0.0062891 0.00208358 0.00334119)
(0.00620549 0.00166257 0.0033027)
(0.00619493 0.00142147 0.00330508)
(0.00612679 0.00117745 0.00329774)
(0.00608967 0.00104523 0.00331362)
(0.00603616 0.000923875 0.00332811)
(0.00599428 0.000857322 0.00335368)
(0.00594972 0.000803223 0.00337892)
(0.00591018 0.000771242 0.00340815)
(0.00587084 0.000749608 0.00343764)
(0.00583358 0.000736489 0.00346855)
(0.00579773 0.000730834 0.0034992)
(0.00576398 0.000724504 0.00353025)
(0.00573087 0.000724321 0.00356078)
(0.00569856 0.000722895 0.00359111)
(0.00567026 0.000728994 0.00362107)
(0.00563154 0.000717949 0.0036474)
(0.00561349 0.00075477 0.00367672)
(0.00555658 0.000690882 0.0036984)
(0.00557245 0.000823679 0.00373698)
(0.00547334 0.000593965 0.00374891)
(0.00554763 0.000968246 0.00379965)
(0.00537869 0.000362817 0.00379633)
(0.0055374 0.00122241 0.00386675)
(0.00528637 -7.05729e-05 0.00383966)
(0.00557142 0.00161366 0.00394166)
(0.00524379 -0.000778765 0.00387638)
(0.00568603 0.0021722 0.00400784)
(0.00532737 -0.00180532 0.00388939)
(0.00579935 0.00303477 0.00402711)
(0.00542149 -0.00323922 0.00386686)
(0.00546688 0.00427958 0.00388374)
(0.00510489 -0.00491809 0.00387962)
(0.00426076 0.00598952 0.00307631)
(0.0048677 -0.00590581 0.00347134)
(0.00520066 0.00936298 0.00186408)
(0.00559878 -0.0050455 0.00231222)
(0.00544206 0.0189277 0.00307087)
(0.000201372 -0.0188304 0.0029582)
(0.0244785 0.0295207 0.00451158)
(0.0376692 -0.0520962 0.00149445)
(-0.0518173 0.0669016 0.0204235)
(-0.0640394 -0.106926 -0.00658122)
(-0.0547031 0.177418 -0.0361059)
(0.164897 -0.0161279 -0.0368936)
(0.161 0.310331 0.00032784)
(0.0699374 0.332652 0.0021534)
(0.0683226 -0.0756422 0.0129618)
(0.0294044 -0.0137184 0.0156829)
(0.00635397 -0.0495318 0.0152059)
(-0.00176875 -0.0572826 0.0145842)
(-0.00785597 -0.0666473 0.0123255)
(-0.0124638 -0.0674035 0.00994631)
(-0.014977 -0.0726432 0.00720398)
(-0.0161119 -0.0705553 0.00472167)
(-0.0160022 -0.0710053 0.00247729)
(-0.0146853 -0.0666244 0.000517233)
(-0.0121966 -0.063959 -0.00128055)
(-0.00985076 -0.0583242 -0.00297374)
(-0.00811829 -0.0532399 -0.00429262)
(-0.00703159 -0.0458974 -0.00541569)
(-0.00604087 -0.0378301 -0.00601794)
(-0.00480978 -0.0283941 -0.00564358)
(-0.003101 -0.0207832 -0.00458989)
(-0.00138411 -0.0152111 -0.0029913)
(-0.000162548 -0.0120337 -0.00141669)
(0.000510616 -0.0105407 -0.000105354)
(0.000748941 -0.0102057 0.000961967)
(0.000632573 -0.0103485 0.00182615)
(0.000158239 -0.0104968 0.0023806)
(-0.000696497 -0.0104627 0.00260728)
(-0.00205322 -0.00969598 0.00261407)
(-0.00398434 -0.00827233 0.00232814)
(-0.00650197 -0.00624446 0.00142298)
(-0.00858691 -0.00298707 0.000850553)
(-0.00843659 0.000976404 0.00104629)
(-0.00720459 0.00538557 0.000350564)
(-0.00705761 0.0107591 0.00030084)
(-0.00804692 0.0158632 0.00280495)
(-0.0085892 0.0187324 0.0102378)
(-0.0082847 0.0134992 0.0165375)
(0.020716 0.022864 0.00387866)
(0.0244129 0.0165584 0.00415649)
(0.0147373 0.0114809 0.00115254)
(0.0171951 0.0119882 0.00149214)
(0.0104801 0.00669109 0.0012616)
(0.0104122 0.00663952 0.0018945)
(0.00527799 0.00257132 0.00271574)
(0.00450561 0.00321278 0.00279549)
(0.00325919 0.00237495 0.00285777)
(0.00397533 0.0036106 0.00299908)
(0.00412476 0.00331671 0.0031125)
(0.00499747 0.00364451 0.00352247)
(0.00521584 0.003183 0.00369088)
(0.0055629 0.00309451 0.00384137)
(0.00551408 0.00258832 0.0038195)
(0.00558638 0.00232438 0.00383805)
(0.00546482 0.00190004 0.00381143)
(0.00544184 0.00166999 0.00382675)
(0.00534009 0.00140042 0.00383107)
(0.0052842 0.0012562 0.00385896)
(0.00520855 0.00111514 0.00388501)
(0.00515212 0.0010397 0.00392128)
(0.00509251 0.000978212 0.00395382)
(0.00504028 0.000944515 0.00398812)
(0.00498989 0.000921691 0.00402139)
(0.00494294 0.000910569 0.00405459)
(0.0048984 0.000905788 0.00408646)
(0.00485611 0.00090144 0.00411776)
(0.00481411 0.000901622 0.00414779)
(0.0047738 0.000901219 0.00417692)
(0.00473608 0.000906968 0.00420506)
(0.00469382 0.00090107 0.00423104)
(0.00466643 0.000928933 0.00426021)
(0.00461235 0.000878235 0.00428074)
(0.00461628 0.000987833 0.00431441)
(0.00452383 0.00078479 0.00432578)
(0.00459384 0.00111962 0.00437083)
(0.0044295 0.00055992 0.00436788)
(0.00460422 0.00136274 0.00442844)
(0.00433757 0.000144428 0.00440012)
(0.00467259 0.00176568 0.00448466)
(0.0042857 -0.000491143 0.00440753)
(0.0048055 0.00241026 0.00452494)
(0.00432156 -0.001332 0.00437019)
(0.00499758 0.00343589 0.00455941)
(0.00437997 -0.00248075 0.00434375)
(0.00490368 0.00482362 0.00453092)
(0.00417406 -0.00413662 0.00435868)
(0.00379458 0.00652182 0.00396324)
(0.00393507 -0.00645506 0.00397773)
(0.00375487 0.00969113 0.00271878)
(0.00435801 -0.00890775 0.00341422)
(0.00696659 0.015861 0.00471876)
(0.00310439 -0.0234748 0.00145565)
(0.0245692 0.0207915 0.00813577)
(0.0233695 -0.0336686 0.00395747)
(-0.0122987 0.0952669 0.0205947)
(-0.0767251 -0.13445 0.0151324)
(-0.0619433 0.217639 -0.0892795)
(0.187492 -0.0679268 -0.0174204)
(0.194553 0.324205 0.000154347)
(0.0730461 0.261618 -0.00111388)
(0.0774731 0.0130956 0.010766)
(-0.0118646 0.0746652 0.0167134)
(-0.0112251 -0.00391984 0.0195273)
(-0.015289 -0.0029839 0.014056)
(-0.0185325 -0.0202299 0.00845048)
(-0.0198538 -0.0232844 0.00372543)
(-0.019 -0.028114 -7.02599e-05)
(-0.0174361 -0.0245467 -0.0033153)
(-0.0157327 -0.0221916 -0.00640186)
(-0.0140158 -0.0127539 -0.00879817)
(-0.0118563 -0.00262477 -0.0101675)
(-0.00989133 0.00977766 -0.00937236)
(-0.00830543 0.0187367 -0.00807543)
(-0.00673608 0.0265325 -0.00635055)
(-0.00477575 0.0316135 -0.00461094)
(-0.00233794 0.0347284 -0.00277471)
(0.000103967 0.0354811 -0.00103309)
(0.0018108 0.0340574 0.000721324)
(0.00270588 0.0310711 0.00213286)
(0.00276099 0.0270272 0.00318455)
(0.00215288 0.0225767 0.00388536)
(0.000998796 0.0181654 0.00424896)
(-0.000653782 0.0141714 0.00425285)
(-0.00269364 0.010997 0.0040279)
(-0.00514124 0.00873716 0.00354983)
(-0.00803208 0.00719331 0.00257903)
(-0.0107083 0.00634717 0.00139937)
(-0.0121075 0.00646395 0.000810807)
(-0.011911 0.00742692 0.000849749)
(-0.01141 0.00981743 0.000684045)
(-0.0117857 0.0131326 0.00119872)
(-0.0126048 0.0161958 0.00408819)
(-0.0135278 0.0176576 0.0113873)
(-0.0141767 0.0126286 0.0172982)
(0.0205881 0.022733 0.00437906)
(0.026527 0.0187399 0.00503608)
(0.0155322 0.0115708 0.000982861)
(0.0196835 0.0138091 0.00140172)
(0.0127368 0.00709286 3.1751e-05)
(0.0134691 0.0084564 0.000536803)
(0.00682231 0.00341597 0.00100185)
(0.00526422 0.00410675 0.00172679)
(0.00247536 0.0017633 0.00216308)
(0.00283045 0.00298661 0.00255771)
(0.00283606 0.0023559 0.0028012)
(0.0036029 0.003017 0.00346357)
(0.00362051 0.0027136 0.00370786)
(0.00391253 0.0028848 0.00392987)
(0.00380015 0.00249022 0.00391228)
(0.00383069 0.00235431 0.00395978)
(0.00362983 0.00197152 0.00393185)
(0.00354518 0.00179045 0.00395122)
(0.00337841 0.00152401 0.00394616)
(0.0032745 0.00138961 0.0039656)
(0.00315251 0.00124085 0.00397726)
(0.00306023 0.00116373 0.00399929)
(0.00297353 0.00109617 0.00401914)
(0.0029022 0.00105938 0.00404302)
(0.00283723 0.00103408 0.0040651)
(0.00278084 0.00102349 0.00408719)
(0.00273181 0.00101748 0.0041077)
(0.00268757 0.00101404 0.00412627)
(0.0026457 0.00101366 0.00414338)
(0.00260628 0.00101335 0.00415897)
(0.00256843 0.00101799 0.0041726)
(0.00252982 0.00101399 0.00418476)
(0.00250017 0.00103591 0.00419822)
(0.00245409 0.000995014 0.00420424)
(0.00245549 0.00108925 0.00422636)
(0.00237638 0.000905806 0.00422303)
(0.00244099 0.00121463 0.0042599)
(0.00229175 0.00069587 0.00423771)
(0.00246388 0.00146391 0.00429154)
(0.00220903 0.000320298 0.00423985)
(0.00254187 0.00189499 0.00431536)
(0.00215819 -0.000227242 0.00421177)
(0.00267232 0.00259039 0.00431423)
(0.00219416 -0.00088637 0.00414752)
(0.00286081 0.00364265 0.00430562)
(0.00231357 -0.00162549 0.00412093)
(0.00287266 0.005079 0.00425106)
(0.00230615 -0.00286106 0.00403829)
(0.00261758 0.00690448 0.00381296)
(0.00248287 -0.00606273 0.00371266)
(0.00334257 0.00879887 0.00293533)
(0.00370355 -0.0108578 0.00560792)
(0.00809684 0.0143298 0.00744031)
(0.00476396 -0.0220302 0.0067584)
(0.0183297 0.0224677 0.0271657)
(0.0113417 -0.0461657 0.028055)
(0.00568981 0.0615715 0.0631078)
(-0.104236 -0.131907 0.0480354)
(-0.00941309 0.191014 -0.163749)
(0.140475 -0.082412 0.00394872)
(0.168502 0.456389 0.00384389)
(0.0597962 0.589212 -0.00134738)
(0.0567165 0.515437 0.00689934)
(0.0130045 0.532353 0.00609639)
(0.0107619 0.437965 0.00459728)
(-0.00538252 0.365461 -0.000696379)
(-0.00809151 0.354809 -0.00463822)
(-0.0104675 0.351576 -0.00688452)
(-0.0109454 0.357869 -0.00908771)
(-0.0113782 0.369417 -0.00976972)
(-0.0110183 0.379891 -0.00951898)
(-0.0100642 0.389717 -0.00805871)
(-0.00814886 0.39164 -0.00633204)
(-0.00616648 0.391267 -0.00416918)
(-0.00412541 0.384521 -0.00211907)
(-0.00233089 0.367882 -0.000112777)
(-0.000309179 0.338712 0.00174828)
(0.00175596 0.299183 0.00327427)
(0.00359391 0.26061 0.00443948)
(0.00484559 0.221479 0.0051939)
(0.00537641 0.179419 0.00549023)
(0.00521884 0.13665 0.00540961)
(0.00441376 0.095336 0.00498196)
(0.00305604 0.060483 0.00443744)
(0.00114833 0.0448553 0.00387638)
(-0.00109045 0.0361871 0.00341729)
(-0.00352648 0.0296279 0.0027701)
(-0.00604661 0.024154 0.00187971)
(-0.00849116 0.0201708 0.000771148)
(-0.0104112 0.0177532 0.00024352)
(-0.0117915 0.0166476 0.000341091)
(-0.0131301 0.0165762 0.000446928)
(-0.0149158 0.0174745 0.00114844)
(-0.0173517 0.0184282 0.00443133)
(-0.0199174 0.0182656 0.0110897)
(-0.0229162 0.012757 0.0158426)
(0.0188283 0.0223345 0.00587391)
(0.0278302 0.0215256 0.00629279)
(0.0152802 0.011418 0.00160847)
(0.0208975 0.0153525 0.0027692)
(0.0140229 0.006042 0.000344275)
(0.0156223 0.00902307 0.000303575)
(0.0090061 0.00301524 -0.000430976)
(0.006917 0.00478318 0.000434581)
(0.00292417 0.00141819 0.00129109)
(0.00234501 0.00246051 0.00200905)
(0.00168534 0.00100723 0.00240245)
(0.00217621 0.00191161 0.00327879)
(0.00218694 0.00175195 0.00364932)
(0.0025227 0.00234624 0.00402249)
(0.00242705 0.00209307 0.0040797)
(0.00244704 0.00214816 0.0041989)
(0.00221941 0.00183589 0.00419195)
(0.00211367 0.00176371 0.00422189)
(0.00192634 0.00154985 0.00419609)
(0.00181427 0.00147296 0.00418865)
(0.00168981 0.00135306 0.00416436)
(0.00160181 0.001302 0.0041503)
(0.00152392 0.00124891 0.00413338)
(0.0014632 0.00122574 0.00412104)
(0.00141187 0.00121004 0.00410846)
(0.00137125 0.00120855 0.00409865)
(0.00133957 0.001209 0.00409007)
(0.00131185 0.00121334 0.00408098)
(0.00128599 0.00121794 0.00407203)
(0.0012627 0.00122219 0.00406337)
(0.00124137 0.00122853 0.00405524)
(0.00122075 0.00122769 0.00404746)
(0.00120506 0.00124657 0.00404092)
(0.00118085 0.00121128 0.00402914)
(0.00119425 0.00129631 0.00403475)
(0.00113933 0.0011342 0.00401224)
(0.00121576 0.00142826 0.00404441)
(0.00109441 0.000958045 0.00399899)
(0.00128485 0.00169564 0.0040718)
(0.00105998 0.000647949 0.00398936)
(0.00140321 0.00215551 0.00410349)
(0.00106481 0.000219569 0.00396702)
(0.00150949 0.00287666 0.00409053)
(0.00115026 -0.00023962 0.00392585)
(0.00152748 0.00392695 0.00399533)
(0.00127829 -0.00070792 0.00390054)
(0.00152784 0.00541189 0.00387623)
(0.00141337 -0.00186299 0.00379716)
(0.00224222 0.00710324 0.00379113)
(0.00216646 -0.00523348 0.00361678)
(0.00342939 0.00824215 0.00326126)
(0.00258712 -0.00998921 0.00582311)
(0.00613066 0.0134066 0.00755335)
(0.00254296 -0.017266 0.0131787)
(0.01033 0.0200766 0.0404666)
(-0.0102534 -0.0357306 0.0493674)
(0.0191302 0.0350739 0.097223)
(-0.0806298 -0.12194 0.0823002)
(0.0334501 0.0652607 -0.168289)
(0.0864728 -0.013994 0.0156393)
(0.162764 0.484653 -0.00250967)
(0.0535145 0.59157 -0.00446843)
(0.0525415 0.569249 0.0038202)
(0.0194688 0.6083 0.00178063)
(0.00943297 0.594975 -0.000302382)
(-0.000847877 0.600212 -0.00325169)
(-0.00413655 0.601162 -0.00446576)
(-0.00742002 0.595016 -0.00506762)
(-0.00870674 0.595707 -0.00459082)
(-0.00981042 0.600469 -0.00334026)
(-0.00980115 0.612041 -0.00121469)
(-0.00895704 0.608187 0.000915439)
(-0.00716038 0.614853 0.00324732)
(-0.00536019 0.628775 0.00522542)
(-0.0033543 0.62503 0.00706618)
(-0.000869378 0.616984 0.00841506)
(0.00165258 0.615581 0.00941608)
(0.00388014 0.606126 0.00993992)
(0.00578497 0.594985 0.0100639)
(0.00736732 0.585871 0.00960399)
(0.00793132 0.561102 0.00890612)
(0.00796178 0.543504 0.00797717)
(0.0073661 0.517168 0.0068776)
(0.00609092 0.484086 0.00574777)
(0.00397661 0.425202 0.00478729)
(0.00115488 0.35672 0.00388642)
(-0.00238026 0.301097 0.0028268)
(-0.00551914 0.199361 0.00206387)
(-0.0080715 0.101176 0.0016767)
(-0.0103767 0.0476092 0.00168613)
(-0.0120942 0.0261006 0.00209825)
(-0.0141953 0.0209414 0.00239314)
(-0.0164442 0.0185355 0.00318681)
(-0.0185557 0.0169048 0.00569803)
(-0.0209626 0.015312 0.0104905)
(-0.0241231 0.0110508 0.0132508)
(0.0147386 0.021198 0.00553143)
(0.0274941 0.0252381 0.00811771)
(0.0127648 0.0107526 0.00306123)
(0.0199444 0.017374 0.00568597)
(0.0127878 0.00461664 0.00267598)
(0.0152474 0.00878295 0.00247264)
(0.0093943 0.00151186 0.000552305)
(0.00754925 0.00453039 0.000273747)
(0.002855 0.000861384 0.000952369)
(0.00165885 0.00237778 0.00197372)
(0.000195951 0.000116738 0.00238277)
(-0.000197328 0.00105985 0.0031727)
(-0.000771559 0.000820254 0.00355305)
(-0.000485998 0.00171154 0.00409858)
(-0.000607975 0.00152272 0.0042969)
(-0.000598646 0.00178805 0.00450748)
(-0.000921198 0.00159211 0.00450844)
(-0.00109952 0.00168583 0.00452965)
(-0.00136146 0.00156777 0.00447641)
(-0.00151835 0.00158995 0.00444543)
(-0.00167629 0.00152774 0.00439108)
(-0.00177946 0.00152723 0.00435037)
(-0.00186283 0.00150423 0.00430767)
(-0.00191895 0.00150457 0.00427478)
(-0.00195871 0.0015038 0.00424545)
(-0.0019824 0.00151055 0.00422264)
(-0.00199263 0.00151834 0.0042023)
(-0.00199322 0.00152756 0.00418609)
(-0.00198986 0.00153468 0.00417401)
(-0.00198321 0.00154142 0.00416427)
(-0.00197601 0.00154852 0.00415591)
(-0.00196694 0.00155128 0.00414907)
(-0.00195738 0.00156622 0.00414372)
(-0.00194724 0.00153958 0.00413789)
(-0.00192082 0.00161123 0.00414242)
(-0.00192973 0.00147247 0.00413311)
(-0.00186383 0.00173467 0.00416603)
(-0.00190919 0.00132361 0.00414542)
(-0.00177455 0.0019987 0.00423059)
(-0.00186821 0.00107944 0.00419424)
(-0.00167371 0.0024654 0.00431357)
(-0.00179419 0.000761324 0.00425287)
(-0.00163328 0.00319755 0.00433691)
(-0.00165175 0.000379822 0.00428844)
(-0.00170472 0.0042398 0.00421298)
(-0.00145923 -0.000151864 0.00423864)
(-0.0015838 0.00567116 0.00400064)
(-0.00106061 -0.00141968 0.00416292)
(-0.000251891 0.00730568 0.0042355)
(0.000314745 -0.00434224 0.00424594)
(0.000751407 0.00856892 0.00384323)
(0.000898262 -0.00902532 0.00514837)
(0.00265253 0.0112814 0.00667788)
(-0.00152666 -0.017167 0.00744627)
(-0.00707439 0.0110978 0.0290325)
(-0.0275874 -0.0414916 0.0492235)
(0.00190527 -0.018333 0.0860763)
(-0.0296463 -0.112289 0.0833132)
(0.0322934 -0.0636285 -0.1674)
(0.0475894 0.0745239 0.0179857)
(0.0896893 0.580013 -0.00665599)
(0.0340747 0.650617 -0.00598443)
(0.0326142 0.613345 0.00333435)
(0.0181424 0.686678 0.00584957)
(0.0117376 0.652399 0.00676825)
(0.00414427 0.666193 0.00510104)
(6.45024e-05 0.658479 0.0049014)
(-0.00377539 0.646075 0.00470866)
(-0.00638418 0.662464 0.00536736)
(-0.00817527 0.647052 0.00644349)
(-0.00853273 0.666631 0.0077536)
(-0.00830435 0.672129 0.00887476)
(-0.00698487 0.675656 0.0101512)
(-0.00542519 0.65618 0.0111966)
(-0.00323203 0.643071 0.0125035)
(-0.000639875 0.660156 0.013191)
(0.00178861 0.665306 0.0136245)
(0.0044306 0.638803 0.013851)
(0.00775765 0.66046 0.0139504)
(0.010732 0.648395 0.0135197)
(0.0123885 0.626029 0.0131957)
(0.0140353 0.634073 0.0125555)
(0.0151369 0.626827 0.0115552)
(0.0148674 0.611825 0.0101921)
(0.0134624 0.592839 0.00882032)
(0.0113624 0.558262 0.00781791)
(0.00815941 0.550626 0.00647637)
(0.00397626 0.544124 0.00505582)
(-0.000736555 0.495634 0.00359727)
(-0.00487367 0.446862 0.00273455)
(-0.00945508 0.387724 0.00242351)
(-0.0140278 0.342482 0.00239702)
(-0.0190132 0.3042 0.00312165)
(-0.0238397 0.253741 0.00496872)
(-0.0302319 0.239716 0.00748587)
(-0.0367101 0.307522 0.00819888)
(0.0100041 0.0167092 0.00431459)
(0.0257163 0.0288102 0.00859814)
(0.00843569 0.00977698 0.00402631)
(0.0168942 0.0198979 0.00786664)
(0.00993233 0.00402919 0.00496714)
(0.01276 0.00927892 0.00483637)
(0.00746953 0.000373381 0.00295667)
(0.0066269 0.00419497 0.00166369)
(0.00200191 -0.000124478 0.00180859)
(0.000791906 0.00203125 0.00270943)
(-0.000936782 -0.00056462 0.00319519)
(-0.00157771 0.000566825 0.00387514)
(-0.00223095 -9.92669e-05 0.00441942)
(-0.00189469 0.000823851 0.0050904)
(-0.00200621 0.000564595 0.00551968)
(-0.00202286 0.00115936 0.00584586)
(-0.00235106 0.00112138 0.00595327)
(-0.00245969 0.00147809 0.00603391)
(-0.00265291 0.00150119 0.00601537)
(-0.00272578 0.00167502 0.00600651)
(-0.00281273 0.00170625 0.00596828)
(-0.00284774 0.00178344 0.00594423)
(-0.00287233 0.00180859 0.00591739)
(-0.00287267 0.00184391 0.0059039)
(-0.00285992 0.00186774 0.0058959)
(-0.00283404 0.00189075 0.00589581)
(-0.00280093 0.00190963 0.00589866)
(-0.0027631 0.00192392 0.0059047)
(-0.00272481 0.00193282 0.00591392)
(-0.00268592 0.00193934 0.00592569)
(-0.00264788 0.00194542 0.00593914)
(-0.00260734 0.00194682 0.00595465)
(-0.00256965 0.001958 0.00596996)
(-0.00252591 0.00193633 0.00598662)
(-0.0024784 0.00199844 0.00600726)
(-0.00244806 0.00187751 0.00601971)
(-0.00237727 0.0021223 0.00605553)
(-0.00237237 0.00175125 0.00605175)
(-0.00225905 0.00239363 0.00612066)
(-0.00228626 0.00155516 0.00609241)
(-0.00215407 0.00287815 0.00618737)
(-0.00216513 0.00129761 0.00612709)
(-0.00212306 0.0036247 0.00618503)
(-0.00197292 0.000898853 0.00611638)
(-0.00225803 0.00464536 0.00598897)
(-0.00175171 9.78532e-05 0.00599851)
(-0.00221131 0.00595177 0.00572699)
(-0.00137762 -0.00162557 0.00596509)
(-0.000990779 0.00769685 0.0064021)
(9.48394e-06 -0.00449709 0.00661815)
(7.95369e-05 0.00993742 0.00732965)
(0.00183996 -0.00855393 0.00860586)
(0.00101637 0.0124664 0.0111723)
(0.00280865 -0.0116368 0.0117272)
(-0.00787744 0.018727 0.030652)
(-0.0193102 -0.0381665 0.0477007)
(-0.014672 -0.0230592 0.08233)
(0.0124468 -0.0927591 0.0769426)
(-0.00279044 -0.0947783 -0.153679)
(-0.0104841 0.115417 0.0149685)
(-0.0211259 0.620756 -0.0130734)
(-0.00543634 0.714003 -0.00565821)
(-0.000123468 0.732042 0.007464)
(0.0042477 0.758973 0.010407)
(0.00441707 0.760045 0.0122712)
(0.00257194 0.756619 0.0117178)
(0.000163909 0.763035 0.0118364)
(-0.00136784 0.774626 0.0117739)
(-0.00333023 0.757066 0.0120956)
(-0.00466176 0.759674 0.0126075)
(-0.00501031 0.753116 0.0133199)
(-0.00491842 0.752381 0.0139418)
(-0.00384078 0.747074 0.0147139)
(-0.00186819 0.740997 0.0153497)
(0.000919886 0.732951 0.0161773)
(0.0037251 0.724784 0.016708)
(0.00681498 0.71632 0.0173836)
(0.00986967 0.714468 0.0178914)
(0.0129803 0.708592 0.0185091)
(0.0159527 0.702001 0.0191103)
(0.0185723 0.69552 0.0197204)
(0.0203166 0.688828 0.0202531)
(0.0215041 0.681686 0.0206531)
(0.021803 0.674517 0.0208728)
(0.0216385 0.664973 0.0207913)
(0.0205335 0.648882 0.0206719)
(0.018622 0.638323 0.0203468)
(0.0156451 0.626407 0.0198571)
(0.0122987 0.608608 0.0190347)
(0.00734132 0.598085 0.0173629)
(0.00176347 0.56423 0.0146679)
(-0.00488001 0.538646 0.0106704)
(-0.0116654 0.511643 0.00549575)
(-0.0191733 0.474751 -0.00278833)
(-0.0290056 0.464624 -0.0186909)
(-0.0364863 0.453389 -0.0383143)
(-0.00147575 0.0132427 -0.00716384)
(0.0230532 0.0318283 0.00530602)
(0.00194386 0.0096415 0.0013736)
(0.0121388 0.0231668 0.00591174)
(0.00512726 0.00491698 0.00364467)
(0.0083717 0.0111044 0.00361328)
(0.00378067 0.000780564 0.00213444)
(0.00386825 0.00492258 0.000496178)
(-0.000164878 -3.12594e-05 -0.00032162)
(-0.00145565 0.00212861 -0.000250517)
(-0.0035195 -0.00076222 3.89344e-05)
(-0.00441495 0.00049878 0.000502667)
(-0.00567749 -0.00067857 0.00112466)
(-0.00556394 0.000292487 0.00175518)
(-0.0061073 5.49289e-05 0.00229465)
(-0.00619992 0.000880145 0.00264674)
(-0.00663608 0.000920738 0.00286998)
(-0.00677889 0.0014137 0.00302137)
(-0.00702546 0.00149603 0.00309558)
(-0.00713865 0.00174154 0.00315536)
(-0.00725247 0.00181484 0.00318071)
(-0.00730414 0.00192624 0.00320908)
(-0.00733688 0.00197606 0.0032292)
(-0.00734484 0.00202742 0.00325682)
(-0.00733619 0.002061 0.00328664)
(-0.00730893 0.00209113 0.00332151)
(-0.00726224 0.00211393 0.00335849)
(-0.00720136 0.00213141 0.00339806)
(-0.00713861 0.00214419 0.00343855)
(-0.00707534 0.00215418 0.00347857)
(-0.00701221 0.00216286 0.00351738)
(-0.00694561 0.00216715 0.00355514)
(-0.00688479 0.002179 0.00358977)
(-0.00681471 0.00216517 0.00362352)
(-0.00675478 0.00222154 0.00365451)
(-0.00668419 0.00212549 0.00368442)
(-0.00663821 0.00234664 0.00371456)
(-0.00655119 0.0020249 0.00374062)
(-0.00654473 0.00261732 0.00376979)
(-0.00640089 0.00186263 0.00379115)
(-0.00650192 0.00311458 0.00381368)
(-0.00622097 0.00163861 0.00382547)
(-0.00652776 0.00389164 0.00379925)
(-0.00597802 0.00125087 0.00379439)
(-0.0065383 0.00494949 0.00362033)
(-0.0056802 0.000339237 0.00362292)
(-0.00620418 0.00625092 0.00338703)
(-0.00526521 -0.00177144 0.00356679)
(-0.00500395 0.00792125 0.00427034)
(-0.00429194 -0.0053946 0.00444148)
(-0.00507554 0.0100724 0.00558314)
(-0.00288641 -0.00894712 0.00662471)
(-0.00869304 0.0137316 0.00730415)
(-0.00770261 -0.0129325 0.00898381)
(-0.0165664 0.0300567 0.0232097)
(-0.0107987 -0.0466963 0.0369598)
(-0.0285096 -0.0144523 0.0652548)
(0.0546139 -0.123945 0.0663224)
(-0.0397864 -0.0285145 -0.170532)
(-0.063324 0.0483891 0.00585392)
(-0.13639 0.533921 -0.0255347)
(-0.043554 0.617615 -0.00832583)
(-0.0338379 0.608857 0.00267142)
(-0.0122873 0.638098 0.00658606)
(-0.00728454 0.636231 0.00760789)
(-0.00398906 0.619472 0.00766706)
(-0.00420644 0.637695 0.00790146)
(-0.00464089 0.635416 0.00817031)
(-0.00585813 0.634763 0.00881648)
(-0.00639252 0.624533 0.00921892)
(-0.00692651 0.606005 0.00999127)