/*--------------------------------*- C++ -*----------------------------------*\
| =========                 |                                                 |
| \\      /  F ield         | OpenFOAM: The Open Source CFD Toolbox           |
|  \\    /   O peration     | Version:  2.3.0                                 |
|   \\  /    A nd           | Web:      www.OpenFOAM.org                      |
|    \\/     M anipulation  |                                                 |
\*---------------------------------------------------------------------------*/
FoamFile
{
    version     2.0;
    format      ascii;
    class       volVectorField;
    location    "24";
    object      U.water;
}
// * * * * * * * * * * * * * * * * * * * * * * * * * * * * * * * * * * * * * //

dimensions      [0 1 -1 0 0 0 0];

internalField   nonuniform List<vector> 
6144
(
(0.00959415 0.0152332 -0.00100927)
(0.0102006 -0.00544365 -0.00292791)
(0.00527837 -0.00524107 -0.00335065)
(0.00476085 -0.00683706 -0.00323173)
(0.00278487 -0.00700049 -0.0027128)
(0.00239408 -0.00547384 -0.00233827)
(0.00158318 -0.00435384 -0.00144708)
(0.0016136 -0.00256614 -0.000806864)
(0.00160366 -0.00129401 -0.000474564)
(0.00144307 0.000255651 -2.5099e-07)
(0.00132592 0.00152721 0.000371451)
(0.00139221 0.00241614 0.000864607)
(0.00156149 0.00253434 0.0010925)
(0.00172624 0.00214862 0.00134596)
(0.0018521 0.00142895 0.00121186)
(0.00195453 0.000767162 0.00106016)
(0.0020124 0.000172505 0.000770549)
(0.00207188 -0.000174997 0.00058559)
(0.00211712 -0.000474025 0.000359323)
(0.00214197 -0.000617205 0.000242695)
(0.00214975 -0.000738277 0.000168874)
(0.00214035 -0.000765458 0.000142776)
(0.00212409 -0.000781828 0.000142631)
(0.00210131 -0.000758259 0.000168073)
(0.00207445 -0.00073011 0.000213625)
(0.00204378 -0.000695371 0.000279545)
(0.00201034 -0.000662793 0.000358883)
(0.00197431 -0.000630919 0.000444732)
(0.00193576 -0.000598402 0.000536625)
(0.00189709 -0.000566657 0.000631859)
(0.0018578 -0.000547479 0.00073397)
(0.00180897 -0.000553335 0.000860709)
(0.00174999 -0.000597512 0.00102209)
(0.00168255 -0.000710578 0.00122978)
(0.00160997 -0.000937627 0.00148905)
(0.00154093 -0.00133301 0.00178989)
(0.00148315 -0.00193762 0.00210628)
(0.0014412 -0.00275461 0.00237127)
(0.00141916 -0.00371806 0.00250157)
(0.00141323 -0.00472886 0.00240079)
(0.00143213 -0.00553497 0.00194411)
(0.00146085 -0.0058523 0.000956913)
(0.00155929 -0.0051358 -0.000142059)
(0.00198397 -0.00325646 -0.00116861)
(0.00290629 -0.00100488 -0.00202738)
(0.00488334 -0.000249279 -0.00260207)
(0.00660785 -0.00234525 -0.00313808)
(0.00900733 -0.00702581 -0.00335167)
(0.00552132 -0.0207452 -0.00573559)
(0.00757594 -0.00810063 -0.0165644)
(0.0354322 0.0102381 -0.0240525)
(0.0555911 -0.000234645 -0.0198157)
(0.0541639 -0.0337271 -0.0291624)
(0.0418449 -0.0505074 -0.0350016)
(0.0475925 -0.0342497 -0.0380675)
(0.0599419 -0.0769021 -0.0236446)
(0.0108601 -0.0286939 -0.0162703)
(0.00204206 -0.0909742 0.0339359)
(-0.031547 -0.0456887 -0.0506594)
(0.0147847 -0.00439819 0.0572809)
(0.177114 -0.309849 0.0606156)
(0.129023 -0.155583 0.0226446)
(0.0797542 -0.208986 0.00422664)
(0.0658373 -0.216149 0.00422142)
(0.0496182 -0.209922 0.0059383)
(0.044172 -0.209669 0.00627783)
(0.0380144 -0.206735 0.00633847)
(0.0346126 -0.205009 0.00702747)
(0.0324039 -0.203249 0.00899042)
(0.0267442 -0.203731 0.0094992)
(0.0237929 -0.200998 0.00786242)
(0.0172326 -0.195794 0.00591645)
(0.0097132 -0.181215 0.00684225)
(0.019315 -0.16426 0.00869468)
(0.0258444 -0.160135 0.00956843)
(0.0263248 -0.161414 0.00940569)
(0.0245511 -0.16358 0.00814985)
(0.022271 -0.164762 0.00592221)
(0.0212553 -0.162952 0.00426849)
(0.0187288 -0.159711 0.00434169)
(0.0175287 -0.155621 0.00457265)
(0.016294 -0.154157 0.00437582)
(0.0125409 -0.154085 0.00412757)
(0.0111733 -0.158534 0.00411312)
(0.00290935 -0.163372 0.00258873)
(-0.00210307 -0.157613 0.00336571)
(-0.0135055 -0.143554 -0.00375201)
(-0.0322405 -0.104906 -0.0109172)
(-0.0196591 -0.011294 -0.0175602)
(-0.0048752 0.0475142 -0.0322532)
(0.00302944 0.0884014 -0.0238997)
(0.00234213 0.107658 -0.0097468)
(-0.000211151 0.109726 0.00862993)
(-0.00277499 0.0999924 0.021537)
(-0.00584434 0.0656718 0.0442423)
(0.000912097 0.0391843 0.0613463)
(0.0200015 0.0189306 0.00209492)
(0.0202304 0.00519346 0.000704013)
(0.0110511 0.00403078 -0.00209921)
(0.0112517 0.0033425 -0.000123043)
(0.0065443 -0.000856829 0.00119459)
(0.00515186 -0.00172231 0.00213586)
(0.00236145 -0.00336292 0.00299293)
(0.00174632 -0.00242153 0.00290231)
(0.00136814 -0.000902791 0.00260325)
(0.00134761 0.00121428 0.00271992)
(0.00157663 0.00260866 0.00301311)
(0.00203421 0.00355166 0.00355143)
(0.00261513 0.00360965 0.00382752)
(0.00312779 0.00328007 0.00404718)
(0.00339527 0.00244461 0.00406678)
(0.0035732 0.00166992 0.0040346)
(0.00359712 0.000891248 0.00395111)
(0.00366344 0.000403364 0.00389114)
(0.00371379 -3.06173e-05 0.00375314)
(0.00374318 -0.000261324 0.00369755)
(0.00373388 -0.000457777 0.00366092)
(0.00369659 -0.000530709 0.00366847)
(0.00364237 -0.000576367 0.00369845)
(0.00357526 -0.00056765 0.00375561)
(0.00350197 -0.000545097 0.00382792)
(0.00342482 -0.000508883 0.0039118)
(0.00334399 -0.000471533 0.00400363)
(0.0032579 -0.000436516 0.00410205)
(0.00316614 -0.000406544 0.00420566)
(0.00307798 -0.000383729 0.00429833)
(0.00300004 -0.000385225 0.0043659)
(0.00291583 -0.00043239 0.00444438)
(0.00282996 -0.000534453 0.00453241)
(0.00275649 -0.000718303 0.00463413)
(0.00270826 -0.00101529 0.00475348)
(0.00270014 -0.0014637 0.00488828)
(0.00273832 -0.00208352 0.00502947)
(0.00280863 -0.00287722 0.00515509)
(0.00288996 -0.00379112 0.0052183)
(0.00293737 -0.0047122 0.00517306)
(0.00285127 -0.00543717 0.00495563)
(0.00275133 -0.00555518 0.00421526)
(0.00278478 -0.00471936 0.00297593)
(0.00309274 -0.00299292 0.00161827)
(0.00466271 -0.00105783 0.00109811)
(0.00833199 8.28305e-05 0.000853587)
(0.0119196 0.00105754 0.000262815)
(0.0183053 -0.000404345 -0.000227807)
(0.0167766 -0.00430052 -0.00161544)
(0.00764059 -0.0109918 -0.0110815)
(0.0469792 -0.000748699 -0.0200676)
(0.0885096 0.0155901 -0.0311452)
(0.100178 0.0328491 -0.0507453)
(0.0839317 0.0402338 -0.0414164)
(0.0806194 0.0488433 -0.0155724)
(0.0617134 -0.00660731 0.00435414)
(8.43948e-06 0.0951776 0.036101)
(-0.00884472 -0.138942 0.107685)
(-0.0788433 0.00634795 -0.052327)
(-0.0146646 -0.0314335 0.0514808)
(0.220897 -0.295265 0.109927)
(0.116933 0.013587 0.0568226)
(0.0135419 -0.112384 0.035857)
(0.0254139 -0.0192711 0.0375734)
(0.0122738 -0.0544569 0.0168421)
(0.00309618 -0.0570308 0.00183283)
(-0.00439279 -0.068992 0.00318523)
(-0.0121401 -0.0818945 0.00687525)
(-0.0124004 -0.092441 0.0120211)
(-0.0115431 -0.100929 0.0183514)
(-0.0181911 -0.110161 0.0214397)
(-0.0212834 -0.11092 0.0236232)
(-0.0200436 -0.10489 0.0286551)
(-0.0214597 -0.088368 0.0493128)
(-0.0222953 -0.0788075 0.0530828)
(-0.0234836 -0.0761901 0.0443616)
(-0.0205917 -0.0659102 0.0236144)
(-0.0200426 -0.054797 0.0118834)
(-0.02104 -0.0518775 0.0114959)
(-0.0210963 -0.0530981 0.0122936)
(-0.019911 -0.0533945 0.0133453)
(-0.0177173 -0.0580707 0.0161501)
(-0.00624619 -0.0677273 0.0130667)
(-0.000722617 -0.0783667 0.010072)
(-0.00640716 -0.0973525 0.00631291)
(-0.016817 -0.103871 0.00980557)
(-0.0236914 -0.0983207 0.00489676)
(-0.0517583 -0.0737383 -0.00916819)
(-0.0527466 0.00859701 -0.0184457)
(-0.0153595 0.0410853 -0.0282358)
(-0.000463263 0.0796729 -0.0143432)
(0.000780762 0.0938485 0.007005)
(-0.00376118 0.0963502 0.0214645)
(-0.0130033 0.0877222 0.0370292)
(-0.026374 0.0574109 0.0553995)
(-0.0283418 0.0279376 0.0750693)
(0.0240675 0.0203132 0.00324124)
(0.0242688 0.0102162 0.00288714)
(0.0144201 0.00784092 -0.000887128)
(0.0143903 0.00953734 0.000785451)
(0.00869779 0.00500351 0.0020274)
(0.00586928 0.00335192 0.00319405)
(0.00150584 -0.00022009 0.00427983)
(-5.98117e-05 0.000373945 0.00406201)
(-0.000895127 0.00133362 0.00383029)
(-0.00052748 0.00279231 0.00391202)
(-8.13187e-05 0.00329156 0.00404107)
(0.00073844 0.00389267 0.00434309)
(0.00151083 0.00383248 0.00456169)
(0.00227189 0.00371998 0.0047153)
(0.00274962 0.00308259 0.00469571)
(0.00303845 0.00246178 0.00464952)
(0.00303761 0.00168275 0.00459637)
(0.00307884 0.00112877 0.00457607)
(0.00298386 0.000584959 0.00457567)
(0.00293668 0.000271483 0.00460119)
(0.00282881 -1.59802e-05 0.00462898)
(0.00272682 -0.00015265 0.00467271)
(0.00261362 -0.000247329 0.00472151)
(0.00250375 -0.000268344 0.00478012)
(0.00239539 -0.000264043 0.00484189)
(0.00229232 -0.000238099 0.00490579)
(0.0021919 -0.000208868 0.0049706)
(0.00209288 -0.000187139 0.00503709)
(0.00199388 -0.000187775 0.00510589)
(0.00189301 -0.000222566 0.00517901)
(0.00178704 -0.000296724 0.00525776)
(0.00168027 -0.000419679 0.00534054)
(0.00157382 -0.000594079 0.00542401)
(0.00148198 -0.000818841 0.00550738)
(0.00142667 -0.00109265 0.00559351)
(0.00142898 -0.00142091 0.00568336)
(0.00149282 -0.00179952 0.00577595)
(0.00160378 -0.0022112 0.0058556)
(0.00173752 -0.00260131 0.00589806)
(0.00184095 -0.00287027 0.00585703)
(0.00183678 -0.00286185 0.00568376)
(0.00166146 -0.00256374 0.00532128)
(0.00156771 -0.00171734 0.00479529)
(0.00227368 -0.00103704 0.00394609)
(0.00409084 -0.000695638 0.00326706)
(0.00731148 -0.000701553 0.00230739)
(0.0114462 0.00256351 0.00169804)
(0.0188427 0.002229 0.00130954)
(0.0226409 0.00633235 0.00100346)
(0.0241042 -0.00280103 -0.00438024)
(0.0521024 -0.00176187 -0.00428405)
(0.103426 0.0214706 -0.0220147)
(0.133586 0.0619072 -0.0402873)
(0.132058 0.0779716 -0.0340498)
(0.115414 0.0713809 -0.000426233)
(0.0903135 0.0117036 0.0198973)
(0.0402945 0.0848834 0.0735241)
(-0.00396704 -0.15737 0.0914327)
(-0.112981 0.0238014 -0.04453)
(0.00558705 -0.0420698 -0.0196471)
(0.242186 -0.291363 0.106637)
(0.105401 0.115001 0.0652615)
(0.0312612 -0.114968 0.0695243)
(0.0458993 0.0254043 0.021632)
(0.0393061 -0.0332955 0.0268067)
(0.026882 -0.00462089 0.0152598)
(0.0141408 -0.0233988 0.0199173)
(0.00751247 -0.0220954 0.0148652)
(-0.00128674 -0.0136919 0.0161423)
(-0.0105782 -0.0101239 0.025776)
(-0.024083 -0.0185684 0.0327044)
(-0.0428574 -0.0232039 0.0367163)
(-0.0554844 -0.0239013 0.0455707)
(-0.0528024 -0.0258914 0.0475339)
(-0.0445427 -0.0412738 0.0445399)
(-0.0276358 -0.0582933 0.0333308)
(-0.0130918 -0.0682535 0.0181447)
(-0.00853643 -0.0704532 0.00610935)
(-0.0106093 -0.0672536 0.00315307)
(-0.00962198 -0.0637901 0.000383878)
(-0.00669444 -0.0568951 0.00189802)
(0.00156758 -0.0572074 -0.000635424)
(0.0195086 -0.0427454 -0.00921766)
(0.0225942 -0.0224285 0.00327714)
(0.0121613 -0.0280896 0.0127632)
(-0.0231432 -0.0261155 0.0116356)
(-0.0649306 -0.0176949 -0.00927163)
(-0.077455 0.0187075 -0.0227705)
(-0.0409056 0.0295381 -0.0183005)
(-0.0101655 0.0485375 -0.0336308)
(0.00241211 0.0731563 -0.0160711)
(0.00291041 0.0821212 0.00592242)
(-0.00338015 0.0829924 0.0238098)
(-0.0168792 0.0749676 0.0398695)
(-0.0361805 0.0524489 0.0561849)
(-0.0447371 0.0243305 0.0719111)
(0.0258804 0.0219105 0.00336046)
(0.0274698 0.0148714 0.00345306)
(0.0161368 0.00997122 -0.00110471)
(0.016543 0.012322 -7.67916e-05)
(0.0113141 0.00764057 0.000235553)
(0.00868377 0.00627977 0.0022356)
(0.00140071 8.5823e-05 0.00362065)
(-0.00186177 -0.000123663 0.00368059)
(-0.00301513 0.000542279 0.00374488)
(-0.00200294 0.00236281 0.00398339)
(-0.00137235 0.00257208 0.00429371)
(-0.000737862 0.00330519 0.00469931)
(5.0593e-05 0.00352714 0.00487948)
(0.000865682 0.00372132 0.00495311)
(0.00147986 0.00327435 0.00482707)
(0.00183407 0.00279792 0.00475256)
(0.00185473 0.00205099 0.00469574)
(0.00187823 0.00150924 0.00469542)
(0.00175047 0.00093306 0.00470136)
(0.00166938 0.00056441 0.0047312)
(0.00152605 0.00022608 0.00475747)
(0.00138175 4.49027e-05 0.00479764)
(0.00121831 -9.12356e-05 0.00484054)
(0.00106634 -0.000150249 0.00489439)
(0.000925194 -0.000177738 0.00495286)
(0.000798363 -0.000178051 0.00501568)
(0.000683718 -0.000170924 0.00508071)
(0.000581306 -0.000167471 0.00514869)
(0.000489877 -0.000182413 0.00522027)
(0.00040854 -0.000228319 0.00529617)
(0.000336266 -0.000314503 0.00537744)
(0.00026949 -0.000443521 0.00546191)
(0.000205914 -0.0006059 0.0055418)
(0.000159453 -0.000787452 0.0056111)
(0.000153245 -0.000973472 0.00567056)
(0.000199295 -0.00116068 0.00572312)
(0.000296059 -0.00133201 0.00576895)
(0.000410908 -0.00145428 0.00579754)
(0.00050972 -0.00142718 0.0057906)
(0.000557287 -0.00113234 0.00571361)
(0.000575428 -0.000453906 0.00552208)
(0.000718112 0.000371378 0.00518239)
(0.00141751 0.000840899 0.00477622)
(0.00270909 0.00035054 0.00423547)
(0.00461496 -0.000663118 0.00354062)
(0.00647891 -0.00130435 0.00202034)
(0.0109165 0.00190565 0.00093022)
(0.0181553 0.00121558 5.90565e-05)
(0.0224729 0.00556128 0.000713367)
(0.0257086 0.000454315 -0.00110383)
(0.039947 -0.000459631 0.00486373)
(0.0967357 0.0438697 -0.0113788)
(0.139492 0.095799 -0.0391918)
(0.144347 0.110561 -0.0386724)
(0.120032 0.0982197 -0.0104316)
(0.0898106 0.0276393 0.0195079)
(0.0350753 0.095386 0.0883624)
(0.0364974 -0.206668 0.0928971)
(-0.137032 0.0471555 0.00765256)
(0.0227821 -0.111055 -0.0365123)
(0.230489 -0.247295 0.118348)
(0.0649064 0.148041 0.0598606)
(0.0275288 -0.121277 0.0762825)
(-0.0182993 0.0155008 0.0172514)
(-0.00139231 0.00813397 0.0101983)
(-0.00746243 0.0324809 0.0225019)
(-0.018471 0.0208008 0.031497)
(-0.0341796 0.0227959 0.025185)
(-0.034608 0.0288781 0.0221705)
(-0.0330373 0.0295882 0.0238877)
(-0.0372448 0.0248693 0.0292866)
(-0.0470231 0.0133968 0.0349461)
(-0.044611 0.00180018 0.0346177)
(-0.032573 -0.0156004 0.0163546)
(-0.0171452 -0.0175748 -0.0170837)
(-0.0179891 -0.0190567 -0.0235061)
(-0.021442 -0.0149375 -0.0190023)
(-0.0233418 -0.00804605 -0.00849525)
(-0.0263869 -0.0106249 -0.00517461)
(-0.028318 -0.00593477 -0.0086276)
(-0.0280142 0.00259131 -0.0106817)
(-0.0247227 0.0142024 -0.0120981)
(-0.0165693 0.0303277 -0.00503192)
(-0.0125377 0.0334743 -0.00425877)
(-0.027328 0.0440914 -0.00748955)
(-0.0415176 0.0470307 -0.0175564)
(-0.052345 0.0443276 -0.0234027)
(-0.0392309 0.0414418 -0.0174387)
(-0.0108702 0.0330734 -0.0278344)
(0.0043952 0.0494608 -0.0315811)
(0.00792766 0.0604993 -0.0140671)
(0.00491897 0.0669316 0.00415418)
(-0.0021465 0.0612523 0.0239239)
(-0.022526 0.0580233 0.0399124)
(-0.0490747 0.0422476 0.055791)
(-0.0618209 0.0163594 0.0702119)
(0.0268322 0.0238227 0.00294058)
(0.0292857 0.0212454 0.00416123)
(0.0182658 0.0129659 6.98503e-05)
(0.0176149 0.0140477 0.000589748)
(0.0129672 0.00838178 -1.57856e-05)
(0.0119632 0.00824882 0.00197849)
(0.00431325 0.00182295 0.00121285)
(-0.00193548 0.000427634 0.00243735)
(-0.00517441 -0.00146178 0.00319756)
(-0.00426171 0.000681807 0.00383348)
(-0.00349661 0.00110428 0.0043523)
(-0.00317689 0.00246525 0.00489917)
(-0.00239234 0.00312929 0.00502875)
(-0.00139185 0.00367562 0.00501213)
(-0.000552389 0.00339036 0.00474633)
(-0.000166748 0.00291885 0.00462182)
(-0.00018952 0.00216513 0.00453505)
(-0.000318579 0.00163051 0.00455121)
(-0.000571039 0.00107003 0.00455498)
(-0.000757059 0.000704363 0.00457213)
(-0.000983996 0.000353242 0.00456356)
(-0.00117348 0.000122287 0.00457054)
(-0.00135934 -7.21324e-05 0.00458513)
(-0.00152041 -0.000182469 0.00461311)
(-0.00165797 -0.000250082 0.00465159)
(-0.00177444 -0.000281386 0.00469983)
(-0.00187573 -0.000298476 0.00475403)
(-0.0019623 -0.000314605 0.00481419)
(-0.00203296 -0.000345722 0.00488067)
(-0.00208946 -0.000403473 0.00495414)
(-0.00213796 -0.000492599 0.00503082)
(-0.00218541 -0.000603221 0.00510265)
(-0.00223513 -0.000720664 0.00516523)
(-0.00227715 -0.000827913 0.00521399)
(-0.0022707 -0.000905593 0.00524704)
(-0.00219719 -0.00095208 0.00526556)
(-0.00207996 -0.000920756 0.00526342)
(-0.00198237 -0.000725206 0.00521592)
(-0.00199918 -0.000219512 0.00507156)
(-0.0021266 0.00066105 0.00480892)
(-0.00206804 0.00179739 0.00447121)
(-0.00135423 0.00268874 0.00415021)
(0.000395838 0.00248135 0.00387122)
(0.00246933 0.00110078 0.003769)
(0.00382442 -0.000110841 0.00334033)
(0.00487694 -0.00023576 0.00129189)
(0.0101567 0.00342986 -0.000422628)
(0.0178282 0.0059468 -0.00038452)
(0.0234228 0.0106321 0.00373691)
(0.0293663 0.00252256 0.00586609)
(0.0141196 -0.00604529 0.0196392)
(0.0605027 0.0434787 0.0193295)
(0.128479 0.113422 -0.0246907)
(0.140833 0.142231 -0.0310673)
(0.115212 0.149155 -0.0203653)
(0.0760404 0.108277 0.019444)
(0.0684294 0.16544 0.0893315)
(0.0812686 -0.19865 0.0748341)
(-0.25564 0.264979 -0.00965759)
(0.024519 -0.238394 0.0173452)
(0.227858 -0.191562 0.122813)
(0.0378167 0.126763 0.0310873)
(0.0629866 -0.0461506 0.0556355)
(-0.0422976 0.0660512 -0.0108059)
(-0.00977462 0.0258606 0.0126568)
(-0.0166932 0.0389691 0.0249507)
(-0.0250579 0.0260936 0.0337021)
(-0.0366322 0.0162189 0.019471)
(-0.0347158 0.0173827 0.00692399)
(-0.030853 0.018328 0.00275321)
(-0.033142 0.0210762 0.00449056)
(-0.0426011 0.0240182 -0.00280235)
(-0.0492355 0.0318975 -0.0228907)
(-0.0454578 0.0633828 -0.0374522)
(-0.0396888 0.0897487 -0.0239673)
(-0.0322808 0.0990716 -0.0192107)
(-0.0256836 0.106788 -0.017016)
(-0.0209135 0.108731 -0.0153384)
(-0.0178643 0.107487 -0.0161617)
(-0.0133389 0.108369 -0.0165469)
(-0.00862783 0.102269 -0.0165043)
(0.0012935 0.0978854 -0.0192717)
(0.0135333 0.0946724 -0.019683)
(0.0163907 0.0827325 -0.0195271)
(0.00662104 0.0717088 -0.0178315)
(-0.000233844 0.0581714 -0.0184532)
(-0.00216116 0.0462039 -0.018807)
(0.00762821 0.0388738 -0.0198098)
(0.0136942 0.0390545 -0.0194973)
(0.013748 0.0494617 -0.0119055)
(0.0107296 0.0550905 0.000163882)
(-0.000738671 0.0587867 0.0120464)
(-0.0136069 0.0602316 0.0223796)
(-0.0336879 0.0575065 0.0307003)
(-0.0581646 0.0402984 0.0410885)
(-0.0782721 0.0189086 0.0510462)
(0.0267489 0.025154 0.00352321)
(0.0316208 0.0258093 0.00656668)
(0.0205589 0.0160083 0.00262842)
(0.0188233 0.0161332 0.00349459)
(0.0135596 0.00725934 0.0019087)
(0.0129971 0.00815187 0.00272489)
(0.00721381 0.00251426 0.00055679)
(0.00096453 0.00194177 0.0011118)
(-0.00497516 -0.00214265 0.00250458)
(-0.00606652 -0.00133089 0.00334444)
(-0.00546796 -0.00105054 0.00396822)
(-0.00514634 0.00102091 0.00479287)
(-0.00399664 0.00243379 0.00499878)
(-0.0026955 0.0034295 0.00511113)
(-0.00138271 0.00318461 0.00497484)
(-0.000804369 0.00267792 0.00498887)
(-0.000841091 0.00190893 0.00488458)
(-0.00106766 0.00142644 0.00489166)
(-0.00141486 0.000982192 0.00482741)
(-0.00167884 0.000745763 0.0047716)
(-0.00195473 0.000498807 0.00467186)
(-0.00218282 0.000327937 0.00458754)
(-0.00239386 0.000164361 0.00450841)
(-0.00257867 5.53003e-05 0.00444773)
(-0.00272785 -2.92677e-05 0.0044001)
(-0.00284022 -8.75074e-05 0.00437191)
(-0.00292038 -0.000133552 0.00436334)
(-0.00296864 -0.000172847 0.00437533)
(-0.00298686 -0.000213324 0.00440637)
(-0.00298124 -0.000260804 0.00445441)
(-0.00296369 -0.0003136 0.00451268)
(-0.00295224 -0.000364038 0.0045716)
(-0.0029454 -0.00039897 0.0046291)
(-0.00293637 -0.000388252 0.00467496)
(-0.00289075 -0.000299363 0.0046914)
(-0.00282082 -0.000117495 0.00465774)
(-0.00280452 0.000212423 0.00453006)
(-0.00293594 0.000737971 0.00426171)
(-0.00322572 0.00149638 0.00381439)
(-0.00342196 0.00237552 0.00326991)
(-0.00302221 0.00311865 0.00287008)
(-0.00150494 0.00338045 0.00291755)
(0.00115688 0.00268606 0.00347915)
(0.00283602 0.00124567 0.00407742)
(0.00284762 0.00101803 0.00378924)
(0.00294498 0.00238212 0.00146257)
(0.00730123 0.00793827 -0.000140359)
(0.0151316 0.0129098 0.00253068)
(0.0253589 0.0132883 0.00903684)
(0.0353587 0.0014702 0.0185298)
(0.0081252 -0.000422932 0.0371255)
(0.00208311 -0.00173839 0.0632781)
(0.0832937 0.0762267 0.0132542)
(0.123981 0.145017 -0.0131761)
(0.11842 0.166941 -0.00881807)
(0.0661427 0.159963 -0.000355909)
(0.0168212 0.16681 0.0234037)
(-0.00322608 0.0458305 0.01416)
(-0.135242 0.447371 -0.0284439)
(0.0192967 -0.333581 0.0196295)
(0.174474 -0.113309 0.127369)
(0.020956 0.0876184 0.0125212)
(0.0227816 0.0147282 0.027269)
(-0.0381121 0.0687096 -0.00412292)
(-0.0229309 0.0458871 0.0117057)
(-0.0290998 0.049895 0.0173576)
(-0.02848 0.0374407 0.016047)
(-0.034097 0.0360645 -0.00237418)
(-0.0341846 0.0503759 -0.0174688)
(-0.0344998 0.0798887 -0.0240287)
(-0.0396667 0.112161 -0.0196655)
(-0.0465515 0.138236 -0.0147383)
(-0.0471913 0.158976 -0.0101747)
(-0.0420012 0.177822 -0.00175381)
(-0.0297373 0.179672 0.00650402)
(-0.0211949 0.183406 0.00693267)
(-0.00839943 0.175991 0.00988253)
(-0.0040009 0.167076 0.00842911)
(0.000797569 0.15456 0.00801952)
(0.00615587 0.140476 0.00614045)
(0.0105087 0.129158 0.000379833)
(0.0209981 0.117617 -0.00607935)
(0.0316569 0.108952 -0.0142509)
(0.0343274 0.099948 -0.0222371)
(0.0308302 0.0919214 -0.0264377)
(0.0224053 0.0762427 -0.0276326)
(0.010455 0.0577518 -0.0317936)
(-0.000947287 0.0475417 -0.0340204)
(-0.00764097 0.0447932 -0.0313104)
(-0.00780483 0.0542293 -0.0153161)
(-0.0096507 0.062339 -0.00332163)
(-0.0167386 0.0722701 0.00478561)
(-0.0238624 0.0709808 0.0115174)
(-0.0377252 0.0660467 0.0170886)
(-0.0579472 0.0469385 0.0275157)
(-0.0716455 0.0287722 0.0345678)
(0.0236642 0.0247766 0.00554582)
(0.0312836 0.0294636 0.0102642)
(0.0197619 0.0176777 0.00593123)
(0.0183165 0.0183179 0.00727383)
(0.0116654 0.00617872 0.00483977)
(0.011367 0.00678017 0.00475392)
(0.00738064 0.000827442 0.00217454)
(0.00253967 0.00190177 0.000956048)
(-0.0036564 -0.00172892 0.00211888)
(-0.00658611 -0.00131083 0.00303005)
(-0.00767727 -0.00213 0.00354245)
(-0.00849357 -0.000128354 0.00448936)
(-0.00741048 0.0018881 0.00490853)
(-0.00533569 0.00297147 0.00568453)
(-0.00365526 0.00269527 0.00596916)
(-0.00315474 0.00231458 0.00616062)
(-0.0033465 0.00160502 0.00603323)
(-0.00391772 0.00123529 0.00590578)
(-0.00446424 0.000926565 0.00568096)
(-0.00483379 0.000813882 0.00547918)
(-0.00512119 0.000690059 0.00526001)
(-0.0053216 0.000628935 0.0050874)
(-0.00548053 0.000560819 0.00493894)
(-0.00559324 0.000520983 0.00482659)
(-0.0056602 0.000479041 0.00474263)
(-0.00569347 0.000437957 0.00469318)
(-0.00570526 0.000393815 0.00467638)
(-0.00570079 0.000358279 0.00469211)
(-0.00567391 0.000329381 0.00472074)
(-0.00563343 0.000306586 0.00476278)
(-0.00558734 0.000302398 0.00482324)
(-0.00554119 0.000326984 0.00489766)
(-0.00552131 0.000402012 0.0049715)
(-0.00555216 0.000563157 0.00499596)
(-0.00556329 0.000851888 0.00495706)
(-0.00554472 0.00126329 0.00482667)
(-0.00553209 0.00180392 0.00458681)
(-0.00552856 0.00244609 0.00424695)
(-0.00553266 0.00302855 0.0037167)
(-0.00533345 0.00332956 0.00304885)
(-0.0045661 0.00318054 0.00250457)
(-0.0029546 0.00262577 0.00250405)
(-0.000606577 0.00171718 0.00351447)
(1.64999e-05 0.000783064 0.00464755)
(-0.00147955 0.0015623 0.00468067)
(-0.00195035 0.00410913 0.00213595)
(0.0026774 0.00956143 0.00119375)
(0.0113019 0.01273 0.00444511)
(0.0234718 0.0109892 0.0133709)
(0.028872 0.00688514 0.0252105)
(0.0104148 0.00421383 0.0409257)
(-0.00386945 0.00310816 0.067566)
(0.0290396 0.0301839 0.0393806)
(0.0994065 0.121566 0.00841768)
(0.109509 0.152164 0.0264376)
(0.0978044 0.138755 0.0508338)
(0.0935084 0.239145 0.0871088)
(0.0763734 -0.248049 0.0116906)
(0.0629226 0.435946 -0.0132998)
(0.0360532 -0.377465 0.0218686)
(0.0685959 -0.00643754 0.0957505)
(0.000283816 0.147664 0.0268706)
(0.000147619 0.149104 0.0127596)
(-0.0293782 0.164597 0.00804019)
(-0.0273603 0.171386 0.0120938)
(-0.0304902 0.170501 0.0130123)
(-0.0372907 0.17039 0.000237084)
(-0.0430927 0.179418 -0.00432905)
(-0.0464886 0.193236 -0.00143015)
(-0.0496589 0.201468 0.00549219)
(-0.0535768 0.201734 0.0100414)
(-0.0571104 0.202177 0.0144403)
(-0.0551439 0.20217 0.0192514)
(-0.0485827 0.200781 0.0219299)
(-0.0366942 0.197222 0.0236605)
(-0.021674 0.190593 0.0246141)
(-0.00505508 0.17779 0.0265031)
(0.00466891 0.156867 0.0288423)
(0.0140107 0.137538 0.0331633)
(0.020195 0.112162 0.0330009)
(0.02841 0.0921842 0.0306213)
(0.0400001 0.0750618 0.0264571)
(0.0520097 0.0629694 0.020206)
(0.0524732 0.0575514 -0.00363741)
(0.049037 0.0682085 -0.0239925)
(0.0485598 0.0722043 -0.0277143)
(0.0425825 0.0738448 -0.0236051)
(0.0351126 0.077171 -0.0181469)
(0.0182611 0.0785187 -0.0251145)
(0.011321 0.0841939 -0.0282776)
(0.00319136 0.0880685 -0.0123929)
(-0.00487622 0.0846559 -0.00256764)
(-0.017412 0.0786732 0.00281532)
(-0.0335315 0.0686487 0.0085514)
(-0.0507098 0.0471318 0.0163915)
(-0.05633 0.0186256 0.0232001)
(0.0180905 0.0191825 0.00690756)
(0.0293911 0.0315142 0.0113712)
(0.0170267 0.0181817 0.00680494)
(0.0173525 0.0212627 0.00756554)
(0.0104168 0.00727153 0.00541044)
(0.00943199 0.00677293 0.00491389)
(0.00522295 -0.000366478 0.0028126)
(0.0017989 0.00192215 0.000760934)
(-0.00404263 -0.000667117 0.00101372)
(-0.00683749 1.85022e-05 0.00246872)
(-0.00789669 -0.00164002 0.00326484)
(-0.00977595 -0.000810087 0.00425551)
(-0.0082754 -0.000605151 0.00546987)
(-0.00569478 0.000141875 0.0067508)
(-0.00375754 8.93938e-05 0.00764857)
(-0.00329556 0.000459127 0.0083452)
(-0.00335144 0.000572167 0.00862665)
(-0.00385707 0.000881683 0.00863711)
(-0.00430369 0.00101993 0.00841629)
(-0.00464078 0.00120576 0.00814159)
(-0.00491092 0.00123359 0.00784003)
(-0.00510018 0.00126007 0.00758859)
(-0.00523978 0.00123393 0.00736654)
(-0.00532895 0.00120232 0.00719309)
(-0.00536354 0.00115364 0.00705422)
(-0.00535483 0.00110148 0.00695797)
(-0.00532538 0.00104084 0.00688802)
(-0.00527592 0.000995347 0.00684252)
(-0.00520589 0.000971145 0.00682446)
(-0.00512273 0.000981169 0.00682318)
(-0.005046 0.00102444 0.00682814)
(-0.00498709 0.00112209 0.00682884)
(-0.00498867 0.0012927 0.0068089)
(-0.00504553 0.00158383 0.00676268)
(-0.00507438 0.00199524 0.00665119)
(-0.00507507 0.00246705 0.00644763)
(-0.00507663 0.00294236 0.00614733)
(-0.00503406 0.00332808 0.00572419)
(-0.00483383 0.00352702 0.00516819)
(-0.00418165 0.00331209 0.00464565)
(-0.00304266 0.00247688 0.00427519)
(-0.00149349 0.00116772 0.0043372)
(0.000278503 9.62354e-05 0.00532983)
(0.000548415 -8.13433e-05 0.00698578)
(-0.00145351 0.00221166 0.0075815)
(-0.0030023 0.00509702 0.0052403)
(0.00040559 0.00859383 0.00324271)
(0.00784696 0.010511 0.00619823)
(0.0163169 0.012484 0.0151761)
(0.0182877 0.0136919 0.0250776)
(-0.00305369 0.00503232 0.0453221)
(-0.0135696 0.00148029 0.0648391)
(-0.0102471 0.00996625 0.0537068)
(0.053399 0.120334 0.00902082)
(0.0991732 0.190819 0.0566552)
(0.119066 0.19849 0.084494)
(0.158091 0.202029 0.0696629)
(0.0933782 0.076544 0.086517)
(-0.00633379 0.30574 0.114753)
(-0.0348544 -0.385414 0.0328147)
(-0.0245619 0.000538923 0.0739447)
(-0.0186819 0.160533 -0.00245495)
(-0.0449656 0.171032 -0.00615113)
(-0.0419368 0.200673 -0.0118568)
(-0.0421523 0.207834 -0.0111067)
(-0.0398145 0.211539 -0.00903355)
(-0.0413682 0.21527 -0.00630571)
(-0.0380282 0.214809 0.00375507)
(-0.0400919 0.208195 0.0186513)
(-0.040701 0.200975 0.0271914)
(-0.0430534 0.190995 0.0285491)
(-0.0452685 0.181295 0.021155)
(-0.0419317 0.170816 0.0169224)
(-0.0344049 0.158321 0.0139298)
(-0.0219605 0.145205 0.00765819)
(-0.00599244 0.136082 0.00613975)
(0.0140414 0.120241 0.011043)
(0.0318182 0.116888 0.0248513)
(0.0427388 0.0978099 0.0416551)
(0.0493486 0.0775585 0.0485799)
(0.0532363 0.0534254 0.0497291)
(0.0629633 0.0252403 0.0469426)
(0.0707395 0.00908521 0.0528549)
(0.0697794 0.0102518 0.0470486)
(0.0642907 0.00151194 0.0198989)
(0.057723 0.0215198 -0.00296828)
(0.0557885 0.0458 -0.00331343)
(0.0557031 0.0676433 -0.00125391)
(0.0470586 0.0818191 -0.00685951)
(0.0311739 0.0919406 -0.017608)
(0.0145582 0.10941 -0.0225855)
(0.00208736 0.115316 -0.0187284)
(-0.00454637 0.113519 -0.00663139)
(-0.0114857 0.095874 0.0017368)
(-0.0210721 0.0627049 0.00237698)
(-0.0261175 0.0162005 -0.0157281)
(0.0116499 0.00453626 0.00408551)
(0.0251681 0.0315628 0.00876957)
(0.0126037 0.016522 0.00421094)
(0.0158849 0.0239968 0.00382298)
(0.00988848 0.00976299 0.00225362)
(0.00856184 0.00840276 0.00246237)
(0.00313268 0.00053606 -1.59859e-05)
(0.000912278 0.00325789 -0.00218406)
(-0.00345428 0.000390891 -0.00373335)
(-0.00688335 0.00114815 -0.00186708)
(-0.00823254 -0.000590169 -0.000514448)
(-0.00981595 -0.00114731 0.000787373)
(-0.00980598 -0.00252526 0.00183568)
(-0.00873129 -0.00212299 0.00301375)
(-0.00784956 -0.00170931 0.0041636)
(-0.00787516 -0.000718795 0.00506595)
(-0.00830667 -0.000155309 0.00566089)
(-0.00882933 0.000500415 0.00595605)
(-0.00926053 0.000828774 0.00601332)
(-0.00938318 0.00118484 0.00595103)
(-0.00942511 0.00136476 0.00580616)
(-0.00942696 0.001502 0.00566176)
(-0.00939418 0.00154422 0.00553148)
(-0.00933241 0.00154747 0.00542932)
(-0.00924188 0.00151832 0.00535128)
(-0.00912961 0.00148357 0.00529619)
(-0.00901163 0.00144814 0.00525139)
(-0.00889203 0.00142778 0.0052167)
(-0.00877084 0.0014317 0.00519048)
(-0.00865023 0.00148133 0.00516749)
(-0.00854347 0.00156876 0.00514118)
(-0.00845233 0.00173151 0.00509929)
(-0.00844238 0.00196353 0.00503418)
(-0.00852387 0.00227254 0.00493772)
(-0.00853635 0.00265263 0.00477395)
(-0.00843199 0.00305046 0.00454679)
(-0.00823509 0.00343745 0.00427042)
(-0.00790397 0.00380152 0.00391867)
(-0.00743972 0.00387005 0.00349454)
(-0.0065229 0.00331541 0.0031527)
(-0.00507528 0.00219826 0.00299682)
(-0.00349942 0.000665159 0.00308383)
(-0.00269343 -0.000253809 0.00363838)
(-0.00412256 -7.91364e-05 0.00467937)
(-0.0068158 0.00294478 0.00518491)
(-0.00735453 0.00697107 0.00289311)
(-0.0029166 0.0113595 0.000318908)
(0.000522122 0.0157788 0.0026193)
(0.00393978 0.0236695 0.00844177)
(0.00503705 0.0282725 0.0163121)
(-0.00876861 0.0277415 0.026196)
(-0.0225449 0.00228347 0.0398762)
(-0.0617666 -0.00671676 0.0530558)
(-0.0493775 0.0509773 0.0186268)
(0.070244 0.209322 0.0499923)
(0.124082 0.251772 0.0819721)
(0.142945 0.268122 0.0848266)
(0.172523 0.208193 0.101487)
(0.240741 0.476803 0.101698)
(-0.0272981 -0.363279 0.0287607)
(-0.116153 -0.109171 0.0645557)
(-0.042747 0.143076 -0.00988596)
(-0.0564535 0.123254 -0.00936653)
(-0.0370292 0.14673 -0.00830795)
(-0.0269281 0.131481 -0.00538323)
(-0.0229166 0.109762 -0.0114478)
(-0.0180458 0.0944544 -0.00862121)
(-0.00940046 0.0640441 -0.00589586)
(-0.0139355 0.0525641 -0.0048748)
(-0.0178879 0.0409575 0.000951445)
(-0.025647 0.0304207 0.00528466)
(-0.0321194 0.0154507 0.00796098)
(-0.0357961 -0.00821488 0.00824745)
(-0.0363227 -0.0272365 0.00736644)