/*--------------------------------*- C++ -*----------------------------------*\
| =========                 |                                                 |
| \\      /  F ield         | OpenFOAM: The Open Source CFD Toolbox           |
|  \\    /   O peration     | Version:  2.3.0                                 |
|   \\  /    A nd           | Web:      www.OpenFOAM.org                      |
|    \\/     M anipulation  |                                                 |
\*---------------------------------------------------------------------------*/
FoamFile
{
    version     2.0;
    format      ascii;
    class       volVectorField;
    location    "24";
    object      U.waterMean;
}
// * * * * * * * * * * * * * * * * * * * * * * * * * * * * * * * * * * * * * //

dimensions      [0 1 -1 0 0 0 0];

internalField   nonuniform List<vector> 
6144
(
(0.0082666 0.0197662 -0.00115614)
(0.00843151 0.00367699 -0.0014487)
(0.00478715 0.00142474 -0.00208285)
(0.00471914 -0.00105297 -0.00210026)
(0.00304305 -0.00252792 -0.00165992)
(0.00295601 -0.00196972 -0.00139096)
(0.0023952 -0.00223533 -0.00114385)
(0.00248661 -0.00123439 -0.00107394)
(0.00241151 -0.000669625 -0.00127381)
(0.00245469 0.000483962 -0.00115179)
(0.00245669 0.00117749 -0.0010284)
(0.00261167 0.00168251 -0.000769892)
(0.00273669 0.00154882 -0.000709522)
(0.00286396 0.00126018 -0.000645906)
(0.00291189 0.000787051 -0.000787449)
(0.00296231 0.000451819 -0.000885077)
(0.00298199 0.000125306 -0.00102877)
(0.00300457 -5.95289e-05 -0.0011141)
(0.00301593 -0.000229133 -0.00119967)
(0.00302327 -0.000317575 -0.0012457)
(0.00302384 -0.000394682 -0.0012782)
(0.00302118 -0.000431002 -0.00129126)
(0.00301502 -0.000460253 -0.00129527)
(0.00300743 -0.000472318 -0.00128951)
(0.00299795 -0.000480299 -0.00127736)
(0.00298742 -0.000483187 -0.00126006)
(0.00297583 -0.0004829 -0.00123973)
(0.00296322 -0.000483156 -0.00121684)
(0.0029503 -0.000473863 -0.00119135)
(0.00293522 -0.000481959 -0.00116225)
(0.00292196 -0.00045418 -0.00112796)
(0.00290176 -0.000506427 -0.00108385)
(0.00288613 -0.000447314 -0.00102622)
(0.00285733 -0.000613383 -0.000950971)
(0.00284036 -0.000521917 -0.000851787)
(0.00280387 -0.000921988 -0.000733067)
(0.00279185 -0.00082088 -0.000594632)
(0.00275786 -0.00159309 -0.000464728)
(0.00276156 -0.00146612 -0.000364741)
(0.0027502 -0.00262475 -0.00035683)
(0.00276613 -0.00226625 -0.000481759)
(0.00277964 -0.00350448 -0.000813072)
(0.00279761 -0.00230721 -0.00130346)
(0.00287054 -0.00301739 -0.00181051)
(0.00299352 -0.00045695 -0.00219314)
(0.00338314 -0.00139009 -0.00235994)
(0.00398738 0.000600646 -0.00281103)
(0.00371006 -0.00140471 -0.0037377)
(0.00212736 0.0055424 -0.00498554)
(0.00334911 0.008606 -0.00710366)
(0.00854078 0.0181755 -0.0093353)
(0.0171235 0.00843795 -0.00945966)
(0.0267017 0.00612168 -0.010364)
(0.0319047 -0.0330295 -0.0107312)
(0.0331411 -0.0295672 -0.0145399)
(0.0315081 -0.0788779 -0.0107764)
(0.0169967 -0.0396684 -0.0232824)
(0.0154789 -0.093931 0.0120844)
(-0.0265521 0.00673922 -0.0538089)
(0.0226308 -0.0367917 0.036953)
(0.12937 -0.289855 0.0696804)
(0.0892588 -0.110642 0.0340267)
(0.0591498 -0.186275 0.0125371)
(0.0482754 -0.187038 0.00739877)
(0.0386771 -0.191988 0.00658564)
(0.0320534 -0.179653 0.00606331)
(0.0260545 -0.182166 0.00504618)
(0.0214035 -0.173542 0.00411433)
(0.0183583 -0.173526 0.00389623)
(0.0165077 -0.165566 0.00401079)
(0.0154218 -0.164132 0.00447002)
(0.0143542 -0.157644 0.00452418)
(0.0127264 -0.153488 0.0048259)
(0.0100978 -0.14569 0.00464167)
(0.0061559 -0.137157 0.0045478)
(0.00340496 -0.125249 0.00382133)
(0.0021068 -0.11374 0.00240826)
(0.000431171 -0.101065 0.00104237)
(-0.00166171 -0.0859118 0.000746895)
(-0.000608491 -0.0698421 0.000688354)
(0.00267695 -0.0568768 0.00044442)
(0.00492628 -0.0462642 0.000530138)
(0.00573385 -0.0394991 0.00220262)
(0.00450959 -0.0353644 0.00279466)
(0.00367677 -0.0298063 0.00220128)
(0.00312999 -0.0238159 0.00147472)
(0.00247551 -0.0171587 0.00112038)
(0.00182909 -0.00941907 0.000322634)
(0.00076865 -0.00257809 -0.000674607)
(-0.000475901 0.00564785 -0.0019476)
(0.00107087 0.0129422 -0.00223592)
(0.00275452 0.0181616 -0.002246)
(0.00343319 0.021784 0.000203852)
(0.00444911 0.0217858 0.00398377)
(0.00700174 0.0170172 0.00654376)
(0.00907862 0.00723618 0.00858197)
(0.0167491 0.0226036 0.00253852)
(0.0175175 0.0106939 0.00233376)
(0.0106279 0.00759689 0.000588756)
(0.0108753 0.00494519 0.00125067)
(0.0065988 0.00145621 0.00158929)
(0.00635044 0.00109805 0.00183239)
(0.00453294 -0.000394457 0.00206401)
(0.00454181 0.000644793 0.00181786)
(0.00421525 0.000977279 0.00156853)
(0.00444004 0.00209711 0.00157133)
(0.00456315 0.00248595 0.00159055)
(0.00505197 0.00283357 0.00189455)
(0.00533556 0.00246832 0.00200225)
(0.00564256 0.00212009 0.0021069)
(0.00570515 0.00152351 0.00202875)
(0.00580271 0.0011083 0.0019809)
(0.00580077 0.000679802 0.0018827)
(0.0058321 0.000431931 0.00183185)
(0.00583295 0.000199439 0.00176296)
(0.00583645 7.21735e-05 0.00173601)
(0.00582385 -3.8889e-05 0.00171745)
(0.00580836 -9.60246e-05 0.00172058)
(0.00578632 -0.000141579 0.00173168)
(0.0057621 -0.000163583 0.00175395)
(0.00573535 -0.00017887 0.00178141)
(0.00570711 -0.000186151 0.00181352)
(0.0056773 -0.000189391 0.00184822)
(0.00564523 -0.000192517 0.00188547)
(0.00561215 -0.000187243 0.00192493)
(0.00557578 -0.000199583 0.0019637)
(0.0055453 -0.000178377 0.00200277)
(0.00550151 -0.000247441 0.00204652)
(0.00547616 -0.00019846 0.00209827)
(0.00542489 -0.000407202 0.00215642)
(0.00542003 -0.000322867 0.00223063)
(0.00537379 -0.000800648 0.00230929)
(0.00541118 -0.000677061 0.00240237)
(0.00538711 -0.0015559 0.00248046)
(0.00547213 -0.00132746 0.0025419)
(0.00546717 -0.00262685 0.00252689)
(0.00553004 -0.00206702 0.00241251)
(0.00549362 -0.00352356 0.0020643)
(0.00549036 -0.00206022 0.001422)
(0.00535885 -0.00313934 0.000693184)
(0.00550212 -0.000354722 0.000219432)
(0.00629204 -0.00192085 7.1519e-05)
(0.00668916 0.000772785 -0.000800442)
(0.00488763 0.000851597 -0.00216765)
(0.00284967 0.00835298 -0.00270834)
(0.00564554 0.00665287 -0.00319963)
(0.0181807 0.00948613 -0.00307304)
(0.0312871 -0.00963344 -0.000915956)
(0.0506123 -0.0140331 0.00271106)
(0.0606546 -0.0520672 0.00502535)
(0.0587781 -0.0455051 0.00555335)
(0.0600472 -0.103034 0.0127678)
(0.0248307 -0.0653502 0.00708732)
(0.0167184 -0.169433 0.0364507)
(-0.0716335 0.0220423 -0.0865041)
(0.00868357 -0.0820325 0.0125624)
(0.164091 -0.263747 0.111601)
(0.0823265 0.00278955 0.0452558)
(0.0203665 -0.112944 0.0113824)
(0.0208157 -0.0453703 0.0132546)
(0.00999843 -0.0692034 0.0129193)
(0.00393076 -0.0497371 0.0109358)
(0.00164976 -0.0540933 0.00910353)
(0.00263878 -0.046067 0.00985739)
(0.00454614 -0.0480096 0.0109869)
(0.00453666 -0.0440707 0.0099244)
(0.00334793 -0.0469799 0.0106556)
(0.00155444 -0.0459719 0.0111389)
(-0.000460677 -0.0497843 0.010951)
(-0.00314469 -0.0507091 0.00879293)
(-0.00515673 -0.0519624 0.00623858)
(-0.00527609 -0.0503704 0.00516573)
(-0.00474211 -0.0481019 0.00372588)
(-0.00681092 -0.0428206 0.00420431)
(-0.00845436 -0.0364683 0.0040848)
(-0.00607279 -0.0294612 0.00453883)
(-0.00328451 -0.0228995 0.00454686)
(-0.000753251 -0.0157819 0.0061478)
(0.000892253 -0.0135384 0.00912734)
(-0.000127554 -0.0134576 0.0100414)
(-0.00220794 -0.0119483 0.00925477)
(-0.00271394 -0.00998845 0.00918333)
(-0.00269716 -0.00718549 0.00867875)
(-0.00263212 -0.00342547 0.00727503)
(-0.0017557 -0.00104058 0.0055862)
(-0.00130296 0.00071363 0.00344834)
(-6.29571e-05 0.00231678 0.00162303)
(0.00202314 0.00520308 -0.00132126)
(0.00322729 0.0110259 -0.000369189)
(0.00536428 0.0129306 0.00500864)
(0.00838661 0.0105633 0.00956712)
(0.0108888 0.00374906 0.0124765)
(0.0201339 0.0224086 0.00364281)
(0.02186 0.0136902 0.0034985)
(0.0136055 0.00999795 0.00135804)
(0.0144607 0.00897166 0.00206559)
(0.008419 0.00442218 0.00233807)
(0.00782692 0.00371732 0.0027516)
(0.00445196 0.00112269 0.00329719)
(0.00428271 0.00190738 0.00318895)
(0.00369162 0.0018717 0.00304197)
(0.00416519 0.00281894 0.00308636)
(0.00429905 0.00277863 0.00305705)
(0.00505589 0.00304067 0.00329181)
(0.00538375 0.0025961 0.00338952)
(0.00578513 0.00237161 0.00350427)
(0.00583291 0.0018201 0.00347267)
(0.00593533 0.00146064 0.00347559)
(0.00586386 0.00101996 0.00343655)
(0.00586097 0.000759851 0.00343853)
(0.00579197 0.000495771 0.0034332)
(0.0057538 0.000351523 0.00345199)
(0.00569414 0.000219293 0.00346944)
(0.00564552 0.000148746 0.00349778)
(0.00559257 9.20859e-05 0.00352592)
(0.00554371 6.29838e-05 0.00355837)
(0.00549535 4.30168e-05 0.00359144)
(0.00544908 3.30696e-05 0.00362577)
(0.00540338 2.71001e-05 0.00366007)
(0.00535714 2.03838e-05 0.00369467)
(0.0053112 1.72125e-05 0.00372949)
(0.0052624 -6.36464e-06 0.00376504)
(0.00522002 -4.80603e-06 0.00380212)
(0.00516518 -8.8509e-05 0.00384077)
(0.0051369 -6.73171e-05 0.00388332)
(0.00507932 -0.000284239 0.00392728)
(0.00508809 -0.000214288 0.00397844)
(0.00504602 -0.000654846 0.00402603)
(0.00512042 -0.000477403 0.00407923)
(0.00510813 -0.00120937 0.00411323)
(0.00525223 -0.000791316 0.00413293)
(0.00526843 -0.00179797 0.00409458)
(0.00542634 -0.000920422 0.00398733)
(0.0053694 -0.00213306 0.00376723)
(0.00532091 -0.000562686 0.00341372)
(0.00513325 -0.00188835 0.00296917)
(0.00542591 0.000412776 0.00258781)
(0.00628037 -0.00154619 0.00229379)
(0.00625324 0.00167267 0.00133707)
(0.00450078 0.000691261 -4.77664e-05)
(0.00392948 0.00635515 -0.000351612)
(0.0110448 -0.000881556 -0.000174641)
(0.0302707 -0.000568243 0.00126425)
(0.0509824 -0.0209317 0.0040457)
(0.0696267 -0.0199857 0.00931291)
(0.0812411 -0.0491372 0.0106855)
(0.0805687 -0.0311262 0.0173417)
(0.0864172 -0.0940594 0.0274646)
(0.0383186 -0.0406994 0.033999)
(0.0450414 -0.193438 0.0715473)
(-0.080874 0.0648327 -0.0673541)
(0.0247273 -0.121836 -0.0157413)
(0.186477 -0.239412 0.120561)
(0.09927 0.0527206 0.0518756)
(0.0624753 -0.0908242 0.02971)
(0.0398553 0.00128615 0.0130794)
(0.0244179 -0.0304523 0.0123012)
(0.0145348 -0.00447338 0.0119016)
(0.0146434 -0.0137382 0.0136778)
(0.0122448 -0.00564031 0.0124752)
(0.013263 -0.00695084 0.0112016)
(0.0131537 -0.00319812 0.0107991)
(0.0114581 -0.00864087 0.0106804)
(0.00894259 -0.00935182 0.0107465)
(0.00656256 -0.014425 0.0095427)
(0.00401374 -0.0148038 0.00761785)
(0.00148729 -0.0156922 0.00535621)
(-0.00134537 -0.0132977 0.0041021)
(-0.0043444 -0.0109188 0.00474225)
(-0.00678094 -0.00891878 0.00588789)
(-0.00790527 -0.00788225 0.00600416)
(-0.00667564 -0.00580074 0.00628249)
(-0.00468391 -0.00213474 0.00584672)
(-0.00225266 0.00104173 0.00807151)
(-0.000797828 0.00184422 0.0130769)
(-0.00463721 0.000732144 0.0142609)
(-0.00848777 -0.000694483 0.0133787)
(-0.0102885 -0.000911989 0.0131345)
(-0.00973426 0.00114484 0.0115585)
(-0.00777863 0.00314147 0.0090782)
(-0.00515834 0.00482987 0.00716108)
(-0.00284294 0.00558005 0.00566441)
(-0.000319796 0.00622958 0.00488402)
(0.000480644 0.00629336 0.0038569)
(0.00231052 0.00842992 0.00451541)
(0.00526868 0.00836892 0.00802224)
(0.00763855 0.00595749 0.0121628)
(0.00842266 -0.000227384 0.0145609)
(0.0214324 0.0221828 0.00395797)
(0.0249805 0.015504 0.00401293)
(0.0151195 0.0105498 0.000924982)
(0.0176473 0.0114354 0.00127318)
(0.0109495 0.00607356 0.00111831)
(0.0104936 0.00602943 0.00171196)
(0.00492611 0.00170441 0.00265351)
(0.00402363 0.002221 0.0027948)
(0.00271503 0.00146828 0.00298024)
(0.00347912 0.0027748 0.00316468)
(0.0036163 0.00246522 0.00321492)
(0.00439451 0.00285258 0.00359157)
(0.00463889 0.00246761 0.00376624)
(0.00503762 0.00244548 0.00392945)
(0.00506701 0.00197122 0.00391011)
(0.00517181 0.00171042 0.00392648)
(0.00506938 0.00126983 0.00389638)
(0.00505352 0.00101715 0.00391069)
(0.004951 0.000725319 0.00391506)
(0.00489349 0.000564175 0.00394425)
(0.00481091 0.000409455 0.00397094)
(0.00474441 0.000326777 0.00400774)
(0.00467349 0.000258894 0.00404256)
(0.00461001 0.000223893 0.00407976)
(0.00454916 0.000200142 0.00411606)
(0.00449208 0.00018886 0.00415255)
(0.00443768 0.000181526 0.00418839)
(0.00438507 0.000173901 0.00422346)
(0.00433466 0.000166404 0.00425764)
(0.00428567 0.000139764 0.00429147)
(0.00424644 0.000130406 0.00432573)
(0.00420002 4.52895e-05 0.00436106)
(0.00418613 5.53584e-05 0.00439762)
(0.00414628 -0.000144933 0.00443261)
(0.00418273 -6.22404e-05 0.00446679)
(0.00415572 -0.000436846 0.00449025)
(0.0042592 -0.000182865 0.00450465)
(0.00423954 -0.000762614 0.00448866)
(0.0043966 -0.000158513 0.00444429)
(0.00438256 -0.000903449 0.00434876)
(0.00459634 0.000266753 0.00421184)
(0.00461707 -0.000735369 0.004045)
(0.00479148 0.000840491 0.00387234)
(0.00461594 -0.000894481 0.00374939)
(0.00466944 0.00101446 0.00375371)
(0.00515231 -0.00126834 0.00366475)
(0.00546815 0.0019626 0.00292319)
(0.00447829 -0.000412583 0.00193214)
(0.00626645 0.00242792 0.00207496)
(0.0152934 -0.00807006 0.00160587)
(0.037189 -0.00929182 0.00378521)
(0.0590106 -0.0217379 0.0115344)
(0.0755363 -0.0114194 0.0194747)
(0.0857372 -0.028116 0.0224668)
(0.0854704 0.00710868 0.0358802)
(0.0896289 -0.0609258 0.0490364)
(0.0420761 0.0369327 0.0919543)
(0.0696652 -0.207335 0.129204)
(-0.0986634 0.188993 -0.03325)
(0.0220592 -0.208963 0.00921432)
(0.164152 -0.20485 0.129975)
(0.0683407 0.0765443 0.0404904)
(0.036217 -0.0541416 0.0285887)
(0.00241318 0.0488533 0.000481471)
(0.002657 0.0205907 0.00778735)
(-0.00115989 0.0457407 0.00859722)
(0.00158549 0.0377162 0.00972489)
(0.00139473 0.0456434 0.00914275)
(0.00434312 0.0407855 0.00766099)
(0.00545829 0.0446292 0.00632817)
(0.00524187 0.0394483 0.00612229)
(0.00419545 0.0395096 0.0048897)
(0.00236439 0.036187 0.00322978)
(-0.000598091 0.0364602 0.00215951)
(-0.00219417 0.0360439 0.00217411)
(-0.00426775 0.0346056 0.00356563)
(-0.00659942 0.0307693 0.00486718)
(-0.00851687 0.0274214 0.00653959)
(-0.00946186 0.024002 0.0073594)
(-0.00904238 0.0243045 0.0073938)
(-0.00798635 0.024653 0.0097014)
(-0.00856644 0.0254876 0.011629)
(-0.0100229 0.0243044 0.0142056)
(-0.0120053 0.0210645 0.0148476)
(-0.0155333 0.018176 0.0140898)
(-0.0180588 0.0158668 0.0137229)
(-0.0168874 0.0159111 0.0109162)
(-0.0131395 0.0163065 0.00806214)
(-0.00923099 0.015913 0.00626687)
(-0.00570773 0.0156607 0.00513763)
(-0.00340822 0.0157472 0.00598825)
(-0.00203007 0.0134443 0.00663349)
(-0.000487063 0.0121961 0.00785823)
(0.00232691 0.00908984 0.0115611)
(0.00283794 0.00547169 0.0143379)
(0.00177799 -0.000982346 0.0151739)
(0.0213143 0.0220642 0.00453582)
(0.0270478 0.0177082 0.00499434)
(0.0157696 0.0105144 0.000804918)
(0.019882 0.0130517 0.0013036)
(0.0130606 0.00624883 3.43444e-05)
(0.0136271 0.00771887 0.000402925)
(0.00678331 0.00238326 0.000814596)
(0.0049304 0.0029863 0.00163538)
(0.00187399 0.000602567 0.00222548)
(0.00226086 0.00197957 0.00271013)
(0.00227845 0.00143073 0.00288527)
(0.00293586 0.00216511 0.00351159)
(0.00296992 0.00196915 0.00376148)
(0.00332047 0.00222872 0.0039955)
(0.00330768 0.00187869 0.00396905)
(0.00337907 0.00174242 0.00400841)
(0.00321009 0.00133911 0.0039759)
(0.00313054 0.00113172 0.0039953)
(0.00295887 0.000844065 0.00398904)
(0.00284914 0.00069096 0.00400778)
(0.00271815 0.000524961 0.0040174)
(0.00261581 0.000432802 0.00403882)
(0.00251682 0.000354448 0.0040578)
(0.00243419 0.00031244 0.00408139)
(0.00236058 0.000282279 0.00410453)
(0.00229589 0.000265702 0.00412876)
(0.00223745 0.000254601 0.00415227)
(0.0021852 0.000244586 0.00417581)
(0.00213879 0.000233136 0.00419946)
(0.00209722 0.000206166 0.00422242)
(0.00206616 0.000192709 0.00424457)
(0.00203079 0.000117929 0.00426503)
(0.0020257 0.000132539 0.0042846)
(0.00199567 -2.91589e-05 0.00429844)
(0.0020447 8.62427e-05 0.0043086)
(0.00202949 -0.000198899 0.00429935)
(0.00215156 0.000137019 0.00427264)
(0.00212552 -0.000287893 0.00419771)
(0.00228833 0.000451444 0.00408923)
(0.00224621 -0.000105403 0.00393148)
(0.00254854 0.0011801 0.00378642)
(0.00272836 0.000261226 0.00370965)
(0.00322067 0.00177062 0.00371617)
(0.00319723 -0.000201849 0.00380387)
(0.00329027 0.00139776 0.00396648)
(0.00358308 -0.00121392 0.0040476)
(0.00401365 0.00180681 0.00384999)
(0.00435945 -0.00142269 0.00393667)
(0.00843526 -0.00061057 0.00438229)
(0.0201092 -0.0131794 0.00408034)
(0.0398964 -0.0109012 0.00812536)
(0.0574456 -0.0125059 0.0207022)
(0.0692326 0.0081458 0.0290819)
(0.0750504 0.000500008 0.0316541)
(0.0721447 0.0417694 0.0522325)
(0.0720086 -0.0168697 0.0630104)
(0.0490411 0.108041 0.109089)
(0.0766027 -0.153927 0.128462)
(-0.0757598 0.317084 -0.00518868)
(0.0169335 -0.268802 0.0177019)
(0.140375 -0.17089 0.131592)
(0.0476178 0.091436 0.0327642)
(0.0352038 -0.0111865 0.0275078)
(0.00335536 0.0765524 -0.00305709)
(0.0106634 0.059002 0.00519479)
(0.00443841 0.0818557 0.00623454)
(0.00671739 0.0775138 0.00863101)
(0.00566321 0.0861769 0.00740749)
(0.00789249 0.0827097 0.00628632)
(0.00896342 0.0871897 0.00450712)
(0.00956844 0.0841343 0.00329483)
(0.00868076 0.0854499 0.00277264)
(0.0079873 0.0826126 0.00290881)
(0.00598617 0.0805179 0.00361896)
(0.00433052 0.0762425 0.00522448)
(0.00147956 0.071334 0.00612971)
(-0.000693925 0.0666242 0.00705835)
(-0.00324007 0.062476 0.00804802)
(-0.00496121 0.0590494 0.00943072)
(-0.00513488 0.0568623 0.0104847)
(-0.00659848 0.0549378 0.0121411)
(-0.00915007 0.0507647 0.0143386)
(-0.0106368 0.0453838 0.0162885)
(-0.0134766 0.0402923 0.0152779)
(-0.0174064 0.0359586 0.0117883)
(-0.0195646 0.033933 0.00724841)
(-0.0170531 0.0324872 0.00449039)
(-0.0131838 0.03104 0.00282773)
(-0.00932195 0.0293417 0.00206342)
(-0.00695376 0.0279178 0.00375304)
(-0.00585903 0.0255359 0.00693008)
(-0.00469036 0.0207047 0.00884458)
(-0.00315451 0.0173437 0.0106697)
(-0.00120443 0.0107283 0.013994)
(-0.00143479 0.00729328 0.0165049)
(-0.00557061 -0.00147419 0.0148081)
(0.0196425 0.0217341 0.00588554)
(0.0284052 0.020569 0.00635879)
(0.0154315 0.010327 0.00157065)
(0.020939 0.0145125 0.00280936)
(0.0141564 0.00499576 0.000660634)
(0.0156336 0.00801548 0.000524814)
(0.00914385 0.00181125 -0.000331743)
(0.00669023 0.00357485 0.000402376)
(0.00229782 5.0692e-05 0.00131054)
(0.00157549 0.00132502 0.00209751)
(0.00106211 2.56128e-05 0.00241102)
(0.00144182 0.000989902 0.00326069)
(0.00147626 0.000984816 0.0036456)
(0.00191014 0.0016973 0.00404621)
(0.00196315 0.00149668 0.00410694)
(0.00204992 0.00153756 0.0042284)
(0.00186046 0.00120442 0.00421748)
(0.00175345 0.0011019 0.00424727)
(0.00155633 0.000870693 0.00421739)
(0.00143371 0.000779488 0.0042063)
(0.00129705 0.00064955 0.00417426)
(0.00119674 0.000587621 0.00415287)
(0.00110518 0.000524682 0.00412892)
(0.00103264 0.000493394 0.00411161)
(0.000973074 0.000469879 0.00409669)
(0.000925203 0.000458016 0.00408645)
(0.000886732 0.000450744 0.00407966)
(0.00085704 0.000444729 0.00407685)
(0.000834281 0.000438487 0.00407722)
(0.000819264 0.000422027 0.00408158)
(0.000816089 0.000419522 0.00408987)
(0.00081436 0.000373574 0.00409892)
(0.000841729 0.000414988 0.004111)
(0.000849656 0.000319705 0.00411535)
(0.000927862 0.00049589 0.00411296)
(0.000942833 0.000330901 0.00408447)
(0.00107438 0.000758622 0.0040286)
(0.00104866 0.00047984 0.00391521)
(0.00119789 0.00127016 0.00376162)
(0.00115432 0.0007637 0.00357097)
(0.00146695 0.0019511 0.00341292)
(0.0016649 0.00100186 0.00335349)
(0.00227172 0.00245405 0.00344842)
(0.0022521 0.000364155 0.00363635)
(0.00229504 0.00173462 0.00371864)
(0.00209574 -0.000902941 0.00357338)
(0.0026485 0.00229364 0.00368029)
(0.00386253 -0.00196382 0.0051919)
(0.0101205 -0.00283805 0.00614309)
(0.0220574 -0.0151183 0.00719409)
(0.035572 -0.00645442 0.0134417)
(0.0431447 -0.000670085 0.0282243)
(0.0531948 0.0231044 0.0399905)
(0.0573999 0.0199638 0.0447774)
(0.0538991 0.0615012 0.0634734)
(0.0500568 -0.00338875 0.0664958)
(0.0427034 0.109239 0.0880637)
(0.0563505 -0.130933 0.0816513)
(0.00558088 0.362883 0.0341404)
(0.0166398 -0.306749 0.0253174)
(0.0772346 -0.128717 0.118574)
(0.011701 0.1163 0.0113612)
(0.00556092 0.0457096 0.0132447)
(-0.0128838 0.118487 -0.00293305)
(-0.0072228 0.115149 0.00818176)
(-0.0071169 0.132962 0.0103707)
(-0.00188587 0.128687 0.0118503)
(0.00177142 0.135746 0.0106009)
(0.00657772 0.131026 0.00995657)
(0.0102519 0.134443 0.00894939)
(0.0140352 0.131407 0.00866608)
(0.0155637 0.131168 0.0085207)
(0.0165659 0.126559 0.00857584)
(0.0155941 0.123763 0.0091386)
(0.0143157 0.117901 0.0100337)
(0.0119204 0.112685 0.010801)
(0.0095753 0.106258 0.0114484)
(0.00657392 0.0999464 0.0115564)
(0.00359372 0.0937602 0.0113401)
(0.000689682 0.0870722 0.0116645)
(-0.00289778 0.0803013 0.0119351)
(-0.00690383 0.073557 0.0127999)
(-0.00972629 0.0664863 0.0126098)
(-0.0125053 0.0605061 0.00832066)
(-0.0152327 0.0562059 0.00315241)
(-0.0160086 0.0535907 0.000101421)
(-0.0141792 0.051388 -0.000748603)
(-0.0113048 0.0495918 -0.00109932)
(-0.00864543 0.0475322 0.000980957)
(-0.00732008 0.0446927 0.00519314)
(-0.00660715 0.0392834 0.00806597)
(-0.00623773 0.0334406 0.010776)
(-0.00575945 0.026634 0.0143254)
(-0.00549058 0.017268 0.0171427)
(-0.00797063 0.0109755 0.0174275)
(-0.0103822 -0.00105264 0.0114983)
(0.0153641 0.0205282 0.00584129)
(0.0280268 0.0243082 0.00826738)
(0.0127776 0.00959662 0.00318244)
(0.0197391 0.0164702 0.00572498)
(0.0125538 0.00356191 0.00317777)
(0.0149226 0.00773041 0.00286836)
(0.00924833 0.000327287 0.00105443)
(0.00736316 0.0033272 0.000531984)
(0.00238393 -0.000549164 0.00105452)
(0.000854918 0.0011772 0.00198241)
(-0.00043478 -0.000889867 0.00230755)
(-0.000933785 0.000142393 0.0031112)
(-0.00148733 4.91128e-05 0.00351522)
(-0.00109518 0.00105557 0.00412369)
(-0.00100614 0.000907801 0.00436409)
(-0.000925854 0.00115681 0.00459289)
(-0.00120705 0.000936604 0.00459405)
(-0.00140609 0.000999393 0.00461032)
(-0.00168939 0.000872008 0.00454435)
(-0.00186289 0.000885872 0.00450292)
(-0.00203169 0.000821751 0.00443535)
(-0.00214401 0.000815954 0.00438406)
(-0.00223655 0.000788769 0.00433338)
(-0.00229902 0.000783718 0.0042958)
(-0.00234186 0.000776199 0.0042645)
(-0.00236885 0.000774288 0.00424263)
(-0.00238419 0.000773258 0.0042281)
(-0.00238769 0.000773251 0.00422184)
(-0.00238204 0.000774405 0.00422239)
(-0.00236703 0.000771136 0.00422872)
(-0.00234521 0.000786547 0.00424156)
(-0.00232174 0.000777548 0.00425793)
(-0.00228238 0.000856851 0.00427794)
(-0.00226535 0.000834097 0.00428963)
(-0.00218781 0.00106657 0.0042995)
(-0.00216329 0.000994814 0.00428764)
(-0.00200771 0.00145661 0.00426642)
(-0.00196671 0.00121852 0.00420278)
(-0.00171799 0.00191121 0.00411262)
(-0.00166351 0.00128322 0.00395088)
(-0.00127585 0.00220562 0.00378662)
(-0.00109364 0.00104349 0.00360889)
(-0.000401433 0.00235199 0.00359863)
(-0.000256154 0.000349549 0.00365508)
(-0.000125206 0.00182996 0.00359473)
(-0.000629113 -0.000543759 0.00312777)
(0.000568512 0.00224918 0.00328399)
(0.00308872 -0.00354788 0.00538391)
(0.0102905 -0.00661982 0.00681716)
(0.0202869 -0.0129287 0.00939224)
(0.0227817 0.00605472 0.0176365)
(0.0239365 0.0186691 0.0310418)
(0.0279351 0.0451425 0.0441529)
(0.0308955 0.0500774 0.0527819)
(0.0399837 0.0863984 0.0672874)
(0.0402733 0.0209197 0.0688399)
(0.0548498 0.126113 0.0833119)
(0.042919 -0.137655 0.0666124)
(0.0140357 0.335444 0.064327)
(0.00794298 -0.314144 0.0300794)
(0.0140954 -0.0911399 0.0998281)
(-0.0175021 0.131945 0.0118941)
(-0.0179879 0.0857129 0.00884303)
(-0.0230824 0.152638 -0.0016619)
(-0.0147678 0.144083 0.0116055)
(-0.00850561 0.15804 0.012579)
(-0.00199594 0.149807 0.0128087)
(0.00384346 0.155584 0.0113011)
(0.00896535 0.151692 0.0116809)
(0.0126695 0.155441 0.0116944)
(0.0167432 0.152884 0.0124676)
(0.0191323 0.155023 0.0125612)
(0.0214023 0.152213 0.0137672)
(0.0209199 0.149887 0.0136395)
(0.0203965 0.144205 0.0145984)
(0.0178484 0.138589 0.0140783)
(0.0154185 0.1326 0.0136126)
(0.0116717 0.126007 0.0124232)
(0.00821796 0.119944 0.0116879)
(0.00467483 0.113685 0.0121527)
(0.00212036 0.106963 0.0128099)
(-0.000714942 0.0991323 0.0119767)
(-0.00292767 0.0911286 0.00856613)
(-0.0056525 0.0844825 0.00348105)
(-0.00793639 0.0794648 -0.00143299)
(-0.00900238 0.0738334 -0.0048213)
(-0.00894796 0.0698645 -0.006127)
(-0.00808097 0.0659016 -0.00503884)
(-0.00658297 0.0606665 -0.00292561)
(-0.00494093 0.0558314 0.000455015)
(-0.00434546 0.0490119 0.00284441)
(-0.00486408 0.0426251 0.00518981)
(-0.004737 0.034804 0.00764041)
(-0.00552946 0.0248179 0.0103579)
(-0.00796381 0.0159075 0.0117738)
(-0.0156764 -0.0022852 0.00410175)
(0.0105378 0.0153455 0.00428234)
(0.0264318 0.0278442 0.00885959)
(0.00844586 0.00839173 0.00409209)
(0.0166685 0.0189821 0.00760132)
(0.00964427 0.00296888 0.00523349)
(0.0123848 0.00831584 0.00503319)
(0.00713551 -0.000722315 0.00331282)
(0.00635677 0.00315007 0.00202985)
(0.00151852 -0.00124953 0.00188617)
(-0.000147981 0.00107916 0.00261341)
(-0.00165734 -0.00137402 0.00305655)
(-0.00235534 -0.000225099 0.0037911)
(-0.0029356 -0.000860926 0.00436579)
(-0.00243963 7.6326e-05 0.00512963)
(-0.00230348 -0.000154899 0.00562974)
(-0.00224278 0.000433659 0.00600693)
(-0.00252148 0.000411789 0.00614147)
(-0.00265271 0.000769455 0.00622191)
(-0.00286194 0.000803021 0.00619212)
(-0.00295245 0.000979608 0.00616625)
(-0.00305077 0.00101288 0.00610847)
(-0.00309646 0.00108481 0.00606819)
(-0.00312988 0.00110519 0.00602768)
(-0.00313474 0.00113282 0.00600398)
(-0.0031227 0.00114691 0.00598844)
(-0.0030961 0.00116075 0.00598411)
(-0.00306066 0.00117086 0.00598683)
(-0.00301685 0.0011809 0.00599663)
(-0.00296899 0.00119222 0.0060116)
(-0.00291606 0.00120311 0.00603261)
(-0.00286212 0.00123352 0.00605777)
(-0.00281029 0.00125362 0.00608531)
(-0.00274779 0.00136037 0.00611631)
(-0.00270663 0.00139217 0.00614242)
(-0.00260447 0.00165166 0.00616938)
(-0.00254871 0.00163483 0.00617867)
(-0.00235053 0.00208383 0.0061876)
(-0.00225359 0.00186561 0.00616118)
(-0.00191304 0.00248922 0.00611817)
(-0.00177557 0.00185144 0.00599475)
(-0.00134445 0.00265033 0.00582546)
(-0.00130405 0.00141881 0.00554051)
(-0.000893894 0.00254268 0.00530752)
(-0.00105842 0.000512677 0.00510793)
(-0.00130712 0.00199444 0.00490116)
(-0.00207929 -0.000758738 0.00425859)
(-7.80702e-05 0.000355089 0.00410341)
(0.0041604 -0.0066553 0.00531029)
(0.0087854 -0.0061089 0.00707929)
(0.00494168 0.00156782 0.01554)
(-0.00303416 0.0271688 0.0250594)
(-0.00472074 0.0461178 0.0349309)
(-0.000787941 0.0722804 0.0451287)
(0.00839251 0.0857486 0.0529783)
(0.0286927 0.118807 0.0671033)
(0.0487056 0.0911312 0.0761515)
(0.0822594 0.161183 0.0992743)
(0.0599659 -0.054866 0.0924238)
(0.0365897 0.353104 0.0446267)
(-0.0116022 -0.328922 0.0271041)
(-0.0639578 -0.0676083 0.0706307)
(-0.0478584 0.159707 -0.00799285)
(-0.0462622 0.108865 0.00454326)
(-0.0341306 0.164019 -0.00271813)
(-0.0253353 0.141601 0.01011)
(-0.0103457 0.148057 0.00853323)
(-0.00334971 0.138304 0.00760233)
(0.00390774 0.143968 0.00621018)
(0.00931278 0.144173 0.00642431)
(0.0143687 0.150494 0.00832288)
(0.0182982 0.15142 0.0095135)
(0.0208129 0.156368 0.0105879)
(0.0232919 0.158568 0.0121781)
(0.0248339 0.162492 0.0133436)
(0.0256751 0.161996 0.0150414)
(0.0248951 0.159495 0.0164486)
(0.0231006 0.155238 0.0172872)
(0.0205413 0.150026 0.0176783)
(0.0173914 0.143809 0.0179912)
(0.0143334 0.13687 0.0182245)
(0.0114847 0.129658 0.0177924)
(0.00897847 0.122675 0.0156748)
(0.00643655 0.117533 0.0122969)
(0.00435021 0.11376 0.00753724)
(0.00338984 0.110427 0.00465047)
(0.00126779 0.105799 0.00276921)
(0.000521305 0.10052 0.00186959)
(0.00143608 0.0930912 0.00156297)
(0.00293609 0.0862619 0.00216316)
(0.00501465 0.078894 0.0042299)
(0.0052678 0.071338 0.00643961)
(0.00384949 0.0644566 0.00909043)
(0.00329747 0.0562035 0.0105582)
(0.00228985 0.0449781 0.0107403)
(-0.000137403 0.0290483 0.00546565)
(-0.00601162 0.00450506 -0.0114674)
(-0.000539545 0.0113975 -0.00614691)
(0.023662 0.030376 0.00616814)
(0.00201828 0.00785153 0.00122113)
(0.0121873 0.0222609 0.00522491)
(0.00498928 0.0038525 0.00350337)
(0.00813456 0.0102553 0.00347122)
(0.00344478 -0.000108852 0.00219987)
(0.0034513 0.00414301 0.000681448)
(-0.000470288 -0.000624419 -0.00037731)
(-0.00219712 0.00158847 -0.000334952)
(-0.00409702 -0.00125978 -8.66702e-07)
(-0.00502438 -0.00011404 0.000535562)
(-0.00614866 -0.00138437 0.00114609)
(-0.00599475 -0.000505064 0.00183265)
(-0.00636255 -0.000732573 0.00243567)
(-0.00641728 0.000108634 0.00283062)
(-0.00683243 0.000182301 0.00308972)
(-0.00699248 0.000690116 0.00325164)
(-0.00725057 0.000789527 0.00332649)
(-0.00736584 0.0010418 0.00337915)
(-0.00747362 0.00112376 0.00339284)
(-0.00752322 0.00123775 0.00340893)
(-0.00755419 0.00128802 0.00341739)
(-0.00755871 0.00133496 0.00343484)
(-0.0075464 0.00136215 0.00345612)
(-0.00751874 0.00138573 0.00348361)
(-0.00747885 0.00140486 0.00351429)
(-0.00742671 0.001424 0.003548)
(-0.00736524 0.00144572 0.00358312)
(-0.00729928 0.00147021 0.00361897)
(-0.00723879 0.00151109 0.00365351)
(-0.00718291 0.00154613 0.00368671)
(-0.00712929 0.00165388 0.00371791)
(-0.00709548 0.00169358 0.00374799)
(-0.00700064 0.00193096 0.0037765)
(-0.00693364 0.00191815 0.00380327)
(-0.00671319 0.00234064 0.00382138)
(-0.00657033 0.0021756 0.00382048)
(-0.00622502 0.00284485 0.0037655)
(-0.00609522 0.00236677 0.00364026)
(-0.00568661 0.003254 0.00342142)
(-0.00557866 0.00212208 0.00311893)
(-0.00495741 0.00298493 0.00285114)
(-0.00488681 0.000663505 0.00274753)
(-0.00478378 0.00156308 0.00240947)
(-0.0042604 -0.0017765 0.00147743)
(-0.000715302 -0.000972391 0.00180135)
(0.00147614 -0.00532429 0.00162564)
(-0.00453327 0.00209782 0.00316624)
(-0.0164041 0.0107699 0.0124678)
(-0.0295965 0.0255175 0.0234762)
(-0.0307018 0.0349199 0.0321887)
(-0.0269202 0.0559284 0.0362027)
(-0.0178204 0.0598321 0.038427)
(-0.00223202 0.0996726 0.0505387)
(0.0279216 0.0586917 0.0513946)
(0.0810428 0.153483 0.0732288)
(0.0848008 -0.024928 0.0857891)
(0.125655 0.385785 0.0326174)
(-0.0162375 -0.308159 0.0215357)
(-0.121664 -0.116337 0.0612705)
(-0.0671043 0.143263 -0.00563136)
(-0.0614888 0.0533635 0.00835244)
(-0.0308606 0.114796 0.00282131)
(-0.026053 0.0674458 0.0156474)
(-0.00729346 0.0757752 0.0113654)
(-0.00239999 0.0589015 0.00880151)
(0.00340861 0.0621918 0.00617324)
(0.00609184 0.058676 0.00414308)
(0.0106539 0.062815 0.0047491)
(0.0128201 0.0607792 0.00382721)