/*--------------------------------*- C++ -*----------------------------------*\
| =========                 |                                                 |
| \\      /  F ield         | OpenFOAM: The Open Source CFD Toolbox           |
|  \\    /   O peration     | Version:  2.3.0                                 |
|   \\  /    A nd           | Web:      www.OpenFOAM.org                      |
|    \\/     M anipulation  |                                                 |
\*---------------------------------------------------------------------------*/
FoamFile
{
    version     2.0;
    format      ascii;
    class       volScalarField;
    location    "28";
    object      alpha.water;
}
// * * * * * * * * * * * * * * * * * * * * * * * * * * * * * * * * * * * * * //

dimensions      [0 0 0 0 0 0 0];

internalField   nonuniform List<scalar> 
6144
(
5.29986e-06
6.18285e-06
6.62162e-06
7.03135e-06
7.4798e-06
7.98032e-06
8.46093e-06
9.21958e-06
9.87898e-06
9.98949e-06
9.99117e-06
9.99396e-06
9.99622e-06
9.99723e-06
9.9967e-06
9.99754e-06
9.99652e-06
9.99775e-06
9.99713e-06
9.99796e-06
9.99758e-06
9.99769e-06
9.99746e-06
9.99748e-06
9.99718e-06
9.99625e-06
9.99532e-06
9.99513e-06
9.99474e-06
9.99472e-06
9.99427e-06
9.99503e-06
9.99379e-06
9.99541e-06
9.99289e-06
9.99624e-06
9.99192e-06
9.9968e-06
9.98937e-06
9.99515e-06
9.98637e-06
9.99375e-06
9.98515e-06
9.99525e-06
9.98537e-06
9.99682e-06
9.98473e-06
1.00084e-05
1.00041e-05
1.01756e-05
1.10926e-05
2.10408e-05
5.28641e-05
7.22606e-05
8.10051e-05
0.000129113
0.00027871
0.000652961
0.00131818
0.0572892
0.961024
0.999788
0.999999
0.999999
0.999999
0.999999
0.999999
0.999999
0.999999
0.999999
0.999999
0.999999
0.999999
0.999999
0.999999
0.999999
0.999999
0.999999
0.999999
0.999999
0.999999
0.999999
0.999999
0.999999
0.999999
0.999999
0.999999
0.999999
0.999999
0.999999
0.999999
0.999999
0.999999
0.999999
0.999999
1
4.80686e-06
5.97789e-06
6.71053e-06
7.20326e-06
7.75554e-06
8.21673e-06
8.74686e-06
9.43349e-06
9.93278e-06
9.9907e-06
9.98923e-06
9.99616e-06
1.00009e-05
1.00028e-05
1.00026e-05
1.00029e-05
1.00022e-05
1.00026e-05
1.00018e-05
1.00023e-05
1.00017e-05
1.00019e-05
1.00017e-05
1.00017e-05
1.00014e-05
1.0001e-05
1.00007e-05
1.00008e-05
1.00007e-05
1.00009e-05
1.00006e-05
1.00014e-05
1.00001e-05
1.00021e-05
9.99943e-06
1.00035e-05
9.99823e-06
1.00049e-05
9.99563e-06
1.00048e-05
9.99363e-06
1.00048e-05
9.99253e-06
1.00058e-05
9.99101e-06
1.00086e-05
9.98678e-06
1.00354e-05
1.00303e-05
1.01331e-05
1.10441e-05
2.72677e-05
5.48681e-05
7.3141e-05
9.11641e-05
0.000113573
0.000269571
0.000907111
0.00176008
0.0439189
0.967065
0.99992
0.999999
0.999999
0.999999
0.999999
0.999999
0.999999
0.999999
0.999999
0.999999
0.999999
0.999999
0.999999
0.999999
0.999999
0.999999
0.999999
0.999999
0.999999
0.999999
0.999999
0.999999
0.999999
0.999999
0.999999
0.999999
0.999999
0.999999
0.999999
0.999999
0.999999
0.999999
0.999999
0.999999
1
4.34786e-06
5.37779e-06
6.25215e-06
6.82874e-06
7.4558e-06
8.09737e-06
8.87996e-06
9.49736e-06
9.80473e-06
9.89807e-06
9.93933e-06
9.97627e-06
9.99575e-06
1.00019e-05
1.00027e-05
1.00028e-05
1.00025e-05
1.00028e-05
1.00023e-05
1.00026e-05
1.00021e-05
1.00023e-05
1.00021e-05
1.00021e-05
1.00017e-05
1.00014e-05
1.00012e-05
1.00012e-05
1.00012e-05
1.00013e-05
1.00009e-05
1.00015e-05
1.00005e-05
1.00023e-05
1e-05
1.00035e-05
9.99886e-06
1.00044e-05
9.99638e-06
1.00047e-05
9.99438e-06
1.00055e-05
9.99316e-06
1.00069e-05
9.99161e-06
1.00099e-05
9.98952e-06
1.00473e-05
1.00871e-05
1.03231e-05
1.2542e-05
3.04638e-05
4.85185e-05
8.24556e-05
0.000113401
0.00013527
0.000177504
0.000689324
0.000821432
0.0383695
0.968203
0.99997
0.999999
0.999999
0.999999
0.999999
0.999999
0.999999
0.999999
0.999999
0.999999
0.999999
0.999999
0.999999
0.999999
0.999999
0.999999
0.999999
0.999999
0.999999
0.999999
0.999999
0.999999
0.999999
0.999999
0.999999
0.999999
0.999999
0.999999
0.999999
0.999999
0.999999
0.999999
0.999999
0.999999
1
4.0454e-06
4.75655e-06
5.72673e-06
6.35581e-06
6.98662e-06
7.65238e-06
8.6238e-06
9.49479e-06
9.76959e-06
9.8485e-06
9.90944e-06
9.96561e-06
9.99196e-06
9.99958e-06
1.00003e-05
1.00005e-05
1.00001e-05
1.00002e-05
9.9999e-06
9.99998e-06
9.99951e-06
9.99947e-06
9.99909e-06
9.99887e-06
9.99838e-06
9.99795e-06
9.99772e-06
9.99764e-06
9.9975e-06
9.9975e-06
9.99716e-06
9.99758e-06
9.99675e-06
9.99824e-06
9.99654e-06
9.99936e-06
9.99586e-06
1.00001e-05
9.99371e-06
1.00011e-05
9.99204e-06
1.00024e-05
9.99171e-06
1.00032e-05
9.99197e-06
1.00077e-05
9.99224e-06
1.00517e-05
1.0121e-05
1.06195e-05
1.41003e-05
2.86664e-05
4.41903e-05
9.38486e-05
0.000134431
0.000146518
0.000119333
0.000600758
0.000538857
0.0411006
0.965691
0.999989
0.999999
0.999999
0.999999
0.999999
0.999999
0.999999
0.999999
0.999999
0.999999
0.999999
0.999999
0.999999
0.999999
0.999999
0.999999
0.999999
0.999999
0.999999
0.999999
0.999999
0.999999
0.999999
0.999999
0.999999
0.999999
0.999999
0.999999
0.999999
0.999999
0.999999
0.999999
0.999999
0.999999
1
3.92679e-06
4.25762e-06
5.17044e-06
5.86099e-06
6.56718e-06
7.20225e-06
8.13206e-06
9.16757e-06
9.73596e-06
9.84789e-06
9.8942e-06
9.96306e-06
9.99333e-06
1.00017e-05
1.00027e-05
1.00029e-05
1.00028e-05
1.00031e-05
1.00031e-05
1.00034e-05
1.00032e-05
1.00033e-05
1.0003e-05
1.00029e-05
1.00025e-05
1.00021e-05
1.00018e-05
1.00016e-05
1.00014e-05
1.00014e-05
1.00009e-05
1.00011e-05
9.99998e-06
1.00013e-05
9.99927e-06
1.0002e-05
9.99826e-06
1.00023e-05
9.99556e-06
1.00026e-05
9.99362e-06
1.00037e-05
9.9949e-06
1.00047e-05
9.9964e-06
1.00101e-05
9.99543e-06
1.00603e-05
1.01704e-05
1.06896e-05
1.18221e-05
1.80103e-05
4.02582e-05
0.000106555
0.000149889
0.000154213
0.000122836
0.000415205
0.00018557
0.0548064
0.970978
0.999961
0.999985
0.999993
0.999994
0.999996
0.999996
0.999995
0.999995
0.999994
0.999994
0.999993
0.999995
0.999996
0.999997
0.999999
0.999999
0.999999
0.999999
0.999999
0.999999
0.999999
0.999999
0.999999
0.999999
0.999999
0.999999
0.999999
0.999999
0.999999
0.999999
0.999999
0.999999
0.999999
0.999999
1
3.93663e-06
4.05791e-06
4.67906e-06
5.3311e-06
6.17764e-06
6.81818e-06
7.6146e-06
8.43385e-06
9.55183e-06
9.8474e-06
9.88091e-06
9.95436e-06
9.98981e-06
9.997e-06
9.99755e-06
9.9977e-06
9.99735e-06
9.99729e-06
9.99729e-06
9.99759e-06
9.99767e-06
9.99791e-06
9.99793e-06
9.99798e-06
9.99771e-06
9.99742e-06
9.99726e-06
9.99718e-06
9.99706e-06
9.99711e-06
9.99669e-06
9.9971e-06
9.99595e-06
9.99768e-06
9.99552e-06
9.99871e-06
9.99542e-06
9.99842e-06
9.99286e-06
9.9984e-06
9.99106e-06
1.00001e-05
9.99254e-06
1.00016e-05
9.99337e-06
1.00067e-05
9.99359e-06
1.00665e-05
1.02794e-05
1.11124e-05
1.27348e-05
1.69306e-05
4.99314e-05
0.000131461
0.000160323
0.0001638
0.000151851
0.000322458
0.000128527
0.0920108
0.970585
0.999487
0.999653
0.99985
0.999891
0.999918
0.999921
0.999912
0.999894
0.999873
0.999867
0.999902
0.99992
0.999922
0.999911
0.999894
0.999892
0.999889
0.999907
0.999936
0.999969
0.99999
0.999996
0.999995
0.999997
0.999997
0.999998
0.999999
0.999999
0.999999
0.999999
0.999999
0.999999
0.999999
0.999999
1
4.20871e-06
4.04879e-06
4.39381e-06
4.86111e-06
5.78328e-06
6.5053e-06
7.32706e-06
8.07022e-06
9.04717e-06
9.73513e-06
9.8613e-06
9.94946e-06
9.99191e-06
1.00009e-05
1.00026e-05
1.00027e-05
1.00026e-05
1.00021e-05
1.00018e-05
1.00017e-05
1.00011e-05
1.00007e-05
1.00003e-05
1e-05
9.99951e-06
9.99907e-06
9.99881e-06
9.99863e-06
9.99843e-06
9.99837e-06
9.99796e-06
9.99823e-06
9.99726e-06
9.99874e-06
9.99695e-06
9.99969e-06
9.99681e-06
9.99908e-06
9.99431e-06
9.99866e-06
9.99268e-06
1.00007e-05
9.99412e-06
1.0003e-05
9.99506e-06
1.00089e-05
9.99548e-06
1.00859e-05
1.03895e-05
1.15427e-05
1.58909e-05
2.79095e-05
5.40344e-05
0.000132703
0.000137114
0.000123967
0.000113551
0.000236384
3.16153e-05
0.204975
0.986409
0.995986
0.996547
0.997944
0.998508
0.998728
0.998767
0.998616
0.998131
0.99726
0.996895
0.997036
0.996704
0.995209
0.993663
0.993219
0.993649
0.993701
0.993743
0.994463
0.995479
0.997087
0.998415
0.999184
0.999569
0.999728
0.999728
0.999825
0.999919
0.999982
1
1
1
1
1
1
4.44219e-06
4.39217e-06
4.3309e-06
4.62435e-06
5.44985e-06
6.30051e-06
7.18083e-06
7.99872e-06
8.65255e-06
9.5586e-06
9.82736e-06
9.94055e-06
9.98833e-06
9.99957e-06
1.00015e-05
1.00018e-05
1.00018e-05
1.00017e-05
1.00016e-05
1.00018e-05
1.00019e-05
1.00022e-05
1.00024e-05
1.00024e-05
1.00022e-05
1.00021e-05
1.00021e-05
1.00023e-05
1.00023e-05
1.00024e-05
1.00023e-05
1.00025e-05
1.00021e-05
1.00031e-05
1.00021e-05
1.00038e-05
1.00018e-05
1.00034e-05
1.00001e-05
1.0003e-05
9.99937e-06
1.00049e-05
1.00002e-05
1.0008e-05
1.00007e-05
1.00124e-05
1.00014e-05
1.00879e-05
1.03745e-05
1.25865e-05
2.14055e-05
3.33624e-05
4.09695e-05
9.34519e-05
0.000115589
0.00015066
0.000202345
0.000195204
9.99499e-06
0.347325
0.979436
0.986728
0.987097
0.988614
0.989648
0.990054
0.990181
0.9896
0.988052
0.986067
0.984843
0.98396
0.983082
0.98221
0.981882
0.982301
0.982975
0.983304
0.983263
0.981834
0.980277
0.979271
0.979165
0.980096
0.980911
0.980994
0.980748
0.980485
0.980254
0.980369
0.979141
0.977932
0.97742
0.976856
0.976637
0.980049
4.44798e-06
4.6979e-06
5.04259e-06
4.94926e-06
5.29209e-06
6.24605e-06
7.30414e-06
8.26468e-06
8.75352e-06
9.41067e-06
9.77848e-06
9.92384e-06
9.9784e-06
9.99452e-06
9.9962e-06
9.99654e-06
9.99598e-06
9.99606e-06
9.99629e-06
9.99701e-06
9.99743e-06
9.99799e-06
9.99829e-06
9.99845e-06
9.99838e-06
9.99837e-06
9.99847e-06
9.99868e-06
9.99881e-06
9.99889e-06
9.99884e-06
9.99904e-06
9.99879e-06
9.99963e-06
9.99901e-06
1.00005e-05
9.99891e-06
1.00002e-05
9.99771e-06
1.00002e-05
9.99774e-06
1.00027e-05
9.99865e-06
1.00057e-05
9.99859e-06
1.00085e-05
9.99884e-06
1.00855e-05
1.03958e-05
1.2651e-05
2.09358e-05
3.56073e-05
5.51565e-05
7.08996e-05
8.99392e-05
0.000126724
0.000166665
0.000188284
9.99499e-06
0.35365
0.976613
0.981905
0.981354
0.981391
0.983837
0.985992
0.986247
0.983571
0.983053
0.983251
0.982496
0.982496
0.982496
0.982569
0.984058
0.985011
0.986419
0.987623
0.988272
0.987384
0.981132
0.97544
0.973769
0.974629
0.977148
0.977946
0.977731
0.977362
0.977751
0.978452
0.979228
0.980163
0.98204
0.984963
0.989541
0.994419
4.26926e-06
4.74412e-06
5.53537e-06
5.697e-06
5.95506e-06
6.75396e-06
7.53657e-06
8.51356e-06
8.89059e-06
9.27307e-06
9.64874e-06
9.86485e-06
9.95434e-06
9.99477e-06
1.00007e-05
1.00026e-05
1.00017e-05
1.00017e-05
1.00012e-05
1.00015e-05
1.00015e-05
1.00017e-05
1.00017e-05
1.00015e-05
1.00012e-05
1.0001e-05
1.00008e-05
1.00007e-05
1.00006e-05
1.00004e-05
1.00002e-05
1.00002e-05
9.99992e-06
1.00005e-05
1e-05
1.00012e-05
9.99974e-06
1.00004e-05
9.99826e-06
1.00002e-05
9.99833e-06
1.0003e-05
9.99938e-06
1.0006e-05
9.99925e-06
1.00073e-05
9.99753e-06
1.00911e-05
1.05104e-05
1.3154e-05
2.11939e-05
3.45215e-05
5.6204e-05
8.38919e-05
9.26763e-05
0.000109311
0.000128261
0.000148712
9.99499e-06
0.369532
0.977906
0.984413
0.98598
0.986652
0.984813
0.985406
0.988247
0.988597
0.988563
0.988377
0.989812
0.991777
0.993589
0.995258
0.996388
0.997079
0.997407
0.997454
0.996228
0.993404
0.992282
0.992272
0.990209
0.98877
0.988411
0.987634
0.986919
0.986369
0.986363
0.987828
0.99003
0.991968
0.994295
0.996681
0.998571
0.99941
3.93228e-06
4.49926e-06
5.65607e-06
6.1124e-06
6.91008e-06
7.62598e-06
8.16965e-06
8.84143e-06
9.0794e-06
9.30761e-06
9.59409e-06
9.83359e-06
9.94442e-06
9.99266e-06
9.99708e-06
9.99869e-06
9.99807e-06
9.99871e-06
9.99875e-06
9.99952e-06
9.99995e-06
1.00005e-05
1.00008e-05
1.00009e-05
1.00009e-05
1.0001e-05
1.00011e-05
1.00013e-05
1.00013e-05
1.00013e-05
1.00011e-05
1.00011e-05
1.0001e-05
1.00014e-05
1.00011e-05
1.0002e-05
1.00007e-05
1.0001e-05
9.99918e-06
1.00005e-05
9.99894e-06
1.0003e-05
9.99971e-06
1.0006e-05
9.99894e-06
1.00059e-05
9.99526e-06
1.00894e-05
1.04973e-05
1.28827e-05
1.98899e-05
3.3386e-05
4.82634e-05
6.82241e-05
9.60052e-05
0.000107271
0.00010369
0.000125341
9.99499e-06
0.342703
0.988167
0.992957
0.993122
0.992881
0.992424
0.993618
0.995245
0.996136
0.996879
0.99751
0.998351
0.999019
0.999386
0.999579
0.999655
0.999689
0.999701
0.999689
0.999635
0.999423
0.999078
0.998764
0.998538
0.998334
0.998072
0.997847
0.997737
0.997518
0.997365
0.99798
0.998761
0.999242
0.999623
0.999857
0.999957
0.999984
3.59975e-06
4.02013e-06
5.37785e-06
5.51212e-06
7.09976e-06
7.95648e-06
8.43984e-06
9.0111e-06
9.3342e-06
9.56138e-06
9.7478e-06
9.94163e-06
9.98776e-06
1.00055e-05
1.00021e-05
1.00022e-05
9.99967e-06
9.99973e-06
9.9994e-06
9.99997e-06
1.00003e-05
1.00009e-05
1.00011e-05
1.00013e-05
1.00013e-05
1.00015e-05
1.00019e-05
1.00023e-05
1.00025e-05
1.00025e-05
1.00024e-05
1.00025e-05
1.00027e-05
1.00035e-05
1.00035e-05
1.00045e-05
1.00035e-05
1.00039e-05
1.00026e-05
1.00039e-05
1.00026e-05
1.00062e-05
1.00032e-05
1.0009e-05
1.00015e-05
1.00084e-05
9.99673e-06
1.0088e-05
1.04229e-05
1.23833e-05
1.86531e-05
3.3023e-05
4.96711e-05
6.66799e-05
9.00007e-05
0.000104621
0.000122942
0.000186879
1.29675e-05
0.243254
0.996415
0.998717
0.998739
0.998859
0.998937
0.999163
0.999409
0.999641
0.999807
0.999902
0.999956
0.999981
0.99999
0.999994
0.999995
0.999996
0.999996
0.999994
0.999991
0.999987
0.999979
0.999967
0.999955
0.999946
0.999941
0.999936
0.999933
0.999933
0.99994
0.999954
0.999977
0.999991
0.999997
0.999999
0.999999
0.999999
3.14498e-06
2.96252e-06
3.95302e-06
4.09695e-06
6.20289e-06
8.03508e-06
8.88878e-06
9.28707e-06
9.62306e-06
9.85373e-06
9.94405e-06
1.00066e-05
1.00109e-05
1.00109e-05
1.00109e-05
1.00109e-05
1.00087e-05
1.00073e-05
1.00052e-05
1.00046e-05
1.00042e-05
1.00043e-05
1.00041e-05
1.0004e-05
1.00039e-05
1.00041e-05
1.00044e-05
1.00046e-05
1.00047e-05
1.00047e-05
1.00046e-05
1.00046e-05
1.00047e-05
1.00054e-05
1.00053e-05
1.00062e-05
1.00052e-05
1.0006e-05
1.00043e-05
1.0006e-05
1.00047e-05
1.00082e-05
1.00055e-05
1.00106e-05
1.00033e-05
1.00103e-05
9.99839e-06
1.00854e-05
1.0328e-05
1.18406e-05
1.86814e-05
3.46113e-05
5.04889e-05
6.94532e-05
9.04442e-05
0.000105813
0.000112466
0.00022894
0.00011399
0.14768
0.994545
0.999953
0.999961
0.999974
0.999978
0.999985
0.999989
0.999995
0.999998
0.999999
0.999999
0.999999
0.999999
0.999999
0.999999
0.999999
0.999999
1
1
1
1
1
1
1
1
0.999999
0.999999
0.999999
1
0.999999
0.999999
0.999999
0.999999
0.999999
0.999999
0.999999
2.59842e-06
2.63151e-06
2.41011e-06
2.32175e-06
2.51137e-06
5.91255e-06
8.75031e-06
9.40397e-06
9.717e-06
9.90034e-06
9.94622e-06
9.9949e-06
1.00105e-05
1.00109e-05
1.00109e-05
1.00109e-05
1.00109e-05
1.00109e-05
1.00105e-05
1.00101e-05
1.00096e-05
1.00093e-05
1.00088e-05
1.00083e-05
1.00079e-05
1.00078e-05
1.00077e-05
1.00077e-05
1.00076e-05
1.00073e-05
1.0007e-05
1.0007e-05
1.00069e-05
1.00076e-05
1.00077e-05
1.00077e-05
1.00072e-05
1.00076e-05
1.00062e-05
1.00081e-05
1.00063e-05
1.001e-05
1.00071e-05
1.00108e-05
1.00047e-05
1.00111e-05
9.9996e-06
1.00859e-05
1.02702e-05
1.17157e-05
1.98198e-05
3.53856e-05
4.70637e-05
6.4058e-05
8.82658e-05
0.000103432
0.000100218
0.000267027
0.000373233
0.0863943
0.953709
0.999999
0.999999
0.999999
0.999999
0.999999
0.999999
0.999999
0.999999
0.999999
0.999999
0.999999
0.999999
0.999999
0.999999
0.999999
0.999999
0.999999
1
1
1
1
1
1
1
1
1
1
1
1
1
0.999999
0.999999
0.999999
0.999999
0.999999
2.20034e-06
2.38975e-06
1.55507e-06
1.6429e-06
1.7062e-06
3.46331e-06
6.69294e-06
9.60286e-06
9.81006e-06
9.91951e-06
9.94558e-06
9.98747e-06
1.00027e-05
1.00087e-05
1.0008e-05
1.00087e-05
1.00084e-05
1.00087e-05
1.00085e-05
1.00084e-05
1.00081e-05
1.00081e-05
1.00077e-05
1.00073e-05
1.0007e-05
1.00068e-05
1.00068e-05
1.00068e-05
1.00067e-05
1.00064e-05
1.00061e-05
1.00061e-05
1.00061e-05
1.00068e-05
1.0007e-05
1.00072e-05
1.00068e-05
1.00072e-05
1.0006e-05
1.00081e-05
1.00066e-05
1.001e-05
1.00072e-05
1.00105e-05
1.00046e-05
1.00115e-05
1.00024e-05
1.00889e-05
1.0232e-05
1.18079e-05
1.95032e-05
3.28298e-05
4.66707e-05
6.14304e-05
8.07744e-05
9.63878e-05
0.000100981
0.000401951
0.00132257
0.0852596
0.958912
0.999966
1
1
1
1
1
1
1
1
1
1
1
1
1
1
1
1
1
1
1
1
1
1
1
1
1
1
1
1
1
1
1
1
1
1
1.34664e-06
1.65618e-06
1.63955e-06
1.61337e-06
1.5843e-06
1.52892e-06
2.82618e-06
9.25898e-06
9.90074e-06
9.96656e-06
9.96866e-06
9.9962e-06
1.00102e-05
1.00134e-05
1.00134e-05
1.00134e-05
1.00134e-05
1.00134e-05
1.00134e-05
1.00134e-05
1.00134e-05
1.00134e-05
1.00133e-05
1.00131e-05
1.00129e-05
1.00128e-05
1.00128e-05
1.00128e-05
1.00127e-05
1.00124e-05
1.00122e-05
1.00121e-05
1.00122e-05
1.0013e-05
1.00133e-05
1.00133e-05
1.00133e-05
1.00133e-05
1.00126e-05
1.00151e-05
1.00147e-05
1.0016e-05
1.00149e-05
1.00159e-05
1.00114e-05
1.00182e-05
1.00154e-05
1.00862e-05
1.02315e-05
1.21038e-05
1.84489e-05
3.24342e-05
5.4994e-05
6.72521e-05
7.55984e-05
9.23604e-05
8.94591e-05
0.000329956
0.00138996
0.0705688
0.957219
0.999813
1
1
1
1
1
1
1
1
1
1
1
1
1
1
1
1
1
1
1
1
1
1
1
1
1
1
1
1
1
1
1
1
1
1
4.95141e-06
6.13006e-06
6.68767e-06
7.09947e-06
7.49296e-06
8.01695e-06
8.67279e-06
9.496e-06
9.84846e-06
9.90827e-06
9.95375e-06
9.99097e-06
1.00107e-05
1.0013e-05
1.0013e-05
1.0013e-05
1.0013e-05
1.0013e-05
1.00126e-05
1.00126e-05
1.00121e-05
1.00121e-05
1.00117e-05
1.00117e-05
1.00116e-05
1.00112e-05
1.00109e-05
1.0011e-05
1.0011e-05
1.00111e-05
1.00115e-05
1.00117e-05
1.00117e-05
1.00117e-05
1.00117e-05
1.00117e-05
1.00117e-05
1.00117e-05
1.00115e-05
1.00119e-05
1.00119e-05
1.00119e-05
1.00119e-05
1.00119e-05
1.00075e-05
1.00138e-05
1.00007e-05
1.00341e-05
1.00483e-05
1.02057e-05
1.08868e-05
2.00147e-05
4.89291e-05
7.22455e-05
7.72008e-05
0.000120484
0.000245599
0.000969128
0.00318557
0.0649111
0.946197
0.999657
0.999999
0.999999
0.999999
0.999999
0.999999
0.999999
0.999999
0.999999
0.999999
0.999999
0.999999
0.999999
0.999999
0.999999
0.999999
0.999999
0.999999
0.999999
0.999999
0.999999
0.999999
0.999999
0.999999
0.999999
0.999999
0.999999
0.999999
0.999999
0.999999
0.999999
0.999999
0.999999
0.999999
0.999999
4.25315e-06
6.12062e-06
7.08867e-06
7.63845e-06
8.18171e-06
8.71628e-06
9.18725e-06
9.41125e-06
9.56687e-06
9.70256e-06
9.8343e-06
9.93405e-06
9.99125e-06
1.00093e-05
1.00109e-05
1.00114e-05
1.00109e-05
1.00114e-05
1.0011e-05
1.00113e-05
1.0011e-05
1.00112e-05
1.0011e-05
1.00109e-05
1.00107e-05
1.00107e-05
1.00107e-05
1.00107e-05
1.00105e-05
1.00103e-05
1.00099e-05
1.00102e-05
1.00099e-05
1.00108e-05
1.00097e-05
1.00114e-05
1.0009e-05
1.00116e-05
1.00082e-05
1.00117e-05
1.00086e-05
1.00119e-05
1.00089e-05
1.00119e-05
1.00079e-05
1.00138e-05
1.00031e-05
1.00698e-05
1.02711e-05
1.08806e-05
1.13406e-05
2.20322e-05
5.33403e-05
6.8609e-05
7.14301e-05
0.000104588
0.000283084
0.000881851
0.00190603
0.0576073
0.961753
0.999956
0.999999
0.999999
0.999999
0.999999
0.999999
0.999999
0.999999
0.999999
0.999999
0.999999
0.999999
0.999999
0.999999
0.999999
0.999999
0.999999
0.999999
0.999999
0.999999
1
1
1
1
1
0.999999
0.999999
0.999999
0.999999
0.999999
0.999999
0.999999
0.999999
0.999999
0.999999
3.6762e-06
5.30887e-06
6.79662e-06
7.26385e-06
7.54958e-06
8.00386e-06
8.5112e-06
8.83382e-06
9.2147e-06
9.5192e-06
9.74294e-06
9.89462e-06
9.97743e-06
1.00063e-05
1.00086e-05
1.00091e-05
1.00089e-05
1.0009e-05
1.00088e-05
1.00088e-05
1.00086e-05
1.00086e-05
1.00085e-05
1.00085e-05
1.00084e-05
1.00082e-05
1.00081e-05
1.00081e-05
1.00079e-05
1.00078e-05
1.00077e-05
1.00078e-05
1.00076e-05
1.00081e-05
1.00075e-05
1.00084e-05
1.00069e-05
1.00083e-05
1.0006e-05
1.00089e-05
1.00059e-05
1.00101e-05
1.0006e-05
1.00111e-05
1.00061e-05
1.00138e-05
1.0007e-05
1.01041e-05
1.04653e-05
1.16096e-05
1.33484e-05
2.31526e-05
4.60068e-05
7.37271e-05
8.00547e-05
0.000110626
0.000213619
0.000675042
0.000978422
0.0417244
0.967116
0.999999
0.999999
0.999999
0.999999
0.999999
0.999999
0.999999
0.999999
0.999999
0.999999
0.999999
0.999999
0.999999
0.999999
0.999999
0.999999
1
1
1
1
1
1
1
0.999999
0.999999
0.999999
0.999999
0.999999
0.999999
0.999999
0.999999
0.999999
0.999999
0.999999
0.999999
3.29393e-06
4.30515e-06
6.17704e-06
6.88281e-06
7.04915e-06
7.37603e-06
7.9115e-06
8.32547e-06
8.9237e-06
9.38899e-06
9.68561e-06
9.87372e-06
9.96874e-06
1.0004e-05
1.00068e-05
1.00073e-05
1.00068e-05
1.00068e-05
1.00065e-05
1.00064e-05
1.00062e-05
1.00062e-05
1.00061e-05
1.0006e-05
1.00058e-05
1.00057e-05
1.00056e-05
1.00055e-05
1.00054e-05
1.00053e-05
1.00051e-05
1.00052e-05
1.00051e-05
1.00055e-05
1.0005e-05
1.00059e-05
1.00046e-05
1.0006e-05
1.0004e-05
1.00066e-05
1.00042e-05
1.00076e-05
1.00043e-05
1.00082e-05
1.00039e-05
1.00125e-05
1.00106e-05
1.01267e-05
1.05412e-05
1.17796e-05
1.35842e-05
2.08941e-05
3.96263e-05
8.94362e-05
0.000117725
0.000137058
0.000152688
0.000578664
0.000507897
0.0391358
0.972794
0.999999
0.999991
0.999999
0.999999
0.999999
0.999999
0.999999
0.999999
0.999999
0.999999
0.999999
0.999999
0.999999
0.999999
0.999999
0.999999
0.999999
0.999999
0.999999
0.999999
0.999999
0.999999
0.999999
0.999999
0.999999
0.999999
0.999999
0.999999
0.999999
0.999999
0.999999
0.999999
0.999999
0.999999
0.999999
3.10653e-06
3.4506e-06
5.26019e-06
6.45649e-06
6.75092e-06
7.06358e-06
7.60406e-06
8.05194e-06
8.76999e-06
9.32105e-06
9.65507e-06
9.86345e-06
9.96439e-06
1.00027e-05
1.00059e-05
1.00064e-05
1.00059e-05
1.00059e-05
1.00055e-05
1.00054e-05
1.00052e-05
1.00052e-05
1.0005e-05
1.00049e-05
1.00046e-05
1.00045e-05
1.00044e-05
1.00043e-05
1.00042e-05
1.00041e-05
1.0004e-05
1.00041e-05
1.00039e-05
1.00044e-05
1.00039e-05
1.00048e-05
1.00036e-05
1.00049e-05
1.00031e-05
1.00056e-05
1.00034e-05
1.00066e-05
1.00037e-05
1.00071e-05
1.00037e-05
1.00122e-05
1.0016e-05
1.01467e-05
1.06218e-05
1.20178e-05
1.34048e-05
1.78142e-05
4.25417e-05
0.000113337
0.000147807
0.000159808
0.000119352
0.000462067
0.000232886
0.0661675
0.985822
0.999806
0.999854
0.999931
0.999943
0.999947
0.999941
0.999934
0.999921
0.999907
0.999894
0.999887
0.999881
0.999872
0.999869
0.999866
0.999861
0.99988
0.999928
0.999969
0.999986
0.999993
0.999996
0.999998
0.999998
0.999999
0.999999
0.999999
0.999999
0.999999
0.999999
0.999999
0.999999
0.999999
0.999999
0.999999
3.06241e-06
3.01053e-06
4.25521e-06
5.60076e-06
6.28593e-06
6.79963e-06
7.41629e-06
7.94295e-06
8.72578e-06
9.30153e-06
9.64556e-06
9.86018e-06
9.96257e-06
1.00016e-05
1.00052e-05
1.00057e-05
1.00051e-05
1.0005e-05
1.00046e-05
1.00045e-05
1.00042e-05
1.00041e-05
1.00039e-05
1.00038e-05
1.00036e-05
1.00034e-05
1.00033e-05
1.00033e-05
1.00032e-05
1.00031e-05
1.00031e-05
1.00032e-05
1.00031e-05
1.00036e-05
1.00032e-05
1.00041e-05
1.0003e-05
1.00044e-05
1.00026e-05
1.00051e-05
1.00029e-05
1.00063e-05
1.00035e-05
1.00069e-05
1.00039e-05
1.00129e-05
1.00186e-05
1.01559e-05
1.07044e-05
1.24487e-05
1.51679e-05
2.52812e-05
8.29854e-05
0.000157811
0.000171134
0.000201786
0.000217819
0.000290467
9.6292e-05
0.113558
0.983568
0.997831
0.99823
0.998935
0.999084
0.999069
0.998894
0.998794
0.998514
0.998062
0.997813
0.997702
0.997566
0.997388
0.997232
0.996625
0.995749
0.995542
0.996442
0.997479
0.9981
0.998586
0.999128
0.999486
0.999662
0.999783
0.99988
0.999943
0.999981
0.999997
0.999999
0.999999
0.999999
0.999999
0.999999
0.999999
3.10683e-06
2.89575e-06
3.59011e-06
4.48599e-06
5.54546e-06
6.33059e-06
7.23401e-06
7.91713e-06
8.77172e-06
9.32282e-06
9.64568e-06
9.85995e-06
9.9619e-06
1.00009e-05
1.00048e-05
1.00052e-05
1.00047e-05
1.00046e-05
1.00042e-05
1.00041e-05
1.00038e-05
1.00037e-05
1.00035e-05
1.00034e-05
1.00032e-05
1.00031e-05
1.0003e-05
1.0003e-05
1.00029e-05
1.00029e-05
1.00029e-05
1.0003e-05
1.00029e-05
1.00035e-05
1.00031e-05
1.0004e-05
1.0003e-05
1.00044e-05
1.00027e-05
1.00052e-05
1.0003e-05
1.00064e-05
1.00037e-05
1.00071e-05
1.00043e-05
1.00132e-05
1.00192e-05
1.01547e-05
1.07327e-05
1.26824e-05
1.66302e-05
3.67001e-05
0.000100776
0.000117303
0.000120415
9.78437e-05
7.27673e-05
4.87174e-05
9.99499e-06
0.222523
0.979295
0.99021
0.990993
0.993469
0.994154
0.994094
0.993606
0.993329
0.991674
0.989631
0.989066
0.988279
0.986535
0.985437
0.984802
0.984319
0.984106
0.984367
0.983918
0.983346
0.983438
0.984795
0.987075
0.988842
0.990389
0.991837
0.993373
0.995012
0.99647
0.997912
0.999364
0.999987
0.999978
0.999975
0.999965
0.999937
3.23336e-06
2.82316e-06
3.19869e-06
3.55117e-06
4.68509e-06
5.64567e-06
6.85299e-06
7.91028e-06
8.83614e-06
9.35714e-06
9.65663e-06
9.86322e-06
9.96343e-06
1.00005e-05
1.00043e-05
1.00047e-05
1.00044e-05
1.00043e-05
1.00042e-05
1.00042e-05
1.00042e-05
1.00042e-05
1.00041e-05
1.0004e-05
1.00039e-05
1.00038e-05
1.00038e-05
1.00038e-05
1.00037e-05
1.00037e-05
1.00036e-05
1.00037e-05
1.00036e-05
1.00041e-05
1.00037e-05
1.00046e-05
1.00035e-05
1.00049e-05
1.00029e-05
1.00055e-05
1.00032e-05
1.00067e-05
1.00039e-05
1.00073e-05
1.00045e-05
1.00133e-05
1.00174e-05
1.01318e-05
1.06304e-05
1.27051e-05
1.66048e-05
2.51961e-05
5.91254e-05
8.80522e-05
0.000106382
0.000255316
0.000253466
0.000112455
9.99499e-06
0.320951
0.9735
0.979715
0.977509
0.977479
0.977793
0.979091
0.979706
0.980134
0.978771
0.976083
0.975537
0.975067
0.974807
0.974833
0.974911
0.976638
0.977649
0.977065
0.973306
0.97078
0.970295
0.969849
0.968023
0.965921
0.965138
0.964869
0.964305
0.963209
0.958661
0.954069
0.948454
0.940809
0.928448
0.90614
0.854021
0.649886
3.35127e-06
2.75779e-06
3.07606e-06
3.13709e-06
3.9718e-06
4.82616e-06
6.47429e-06
7.96335e-06
8.87965e-06
9.38205e-06
9.66599e-06
9.86961e-06
9.96816e-06
1.00029e-05
1.00061e-05
1.00063e-05
1.00059e-05
1.00057e-05
1.00056e-05
1.00055e-05
1.00053e-05
1.00053e-05
1.00052e-05
1.00051e-05
1.0005e-05
1.00049e-05
1.00048e-05
1.00048e-05
1.00048e-05
1.00048e-05
1.00047e-05
1.00048e-05
1.00047e-05
1.00053e-05
1.00049e-05
1.00059e-05
1.00047e-05
1.00062e-05
1.00042e-05
1.0007e-05
1.00045e-05
1.00083e-05
1.00053e-05
1.00091e-05
1.00059e-05
1.00146e-05
1.00167e-05
1.01168e-05
1.05091e-05
1.24486e-05
1.64863e-05
2.77316e-05
7.47784e-05
0.000108679
0.000108649
0.000177761
0.000215882
0.000218631
9.99499e-06
0.294012
0.976082
0.983922
0.98147
0.980165
0.98073
0.983595
0.984489
0.982822
0.981247
0.982012
0.984993
0.986375
0.988115
0.990577
0.992176
0.992695
0.990885
0.988268
0.986719
0.985078
0.982992
0.979821
0.976578
0.974328
0.972344
0.969305
0.965102
0.96161
0.959012
0.955312
0.950184
0.943884
0.937359
0.931958
0.928534
0.932252
3.2203e-06
2.69688e-06
3.15119e-06
3.35339e-06
3.65707e-06
4.31453e-06
6.18393e-06
7.98887e-06
8.93022e-06
9.41126e-06
9.68449e-06
9.88181e-06
9.97477e-06
1.00049e-05
1.00072e-05
1.00075e-05
1.00073e-05
1.00072e-05
1.00071e-05
1.00071e-05
1.0007e-05
1.00069e-05
1.00068e-05
1.00067e-05
1.00065e-05
1.00064e-05
1.00063e-05
1.00063e-05
1.00062e-05
1.00061e-05
1.0006e-05
1.0006e-05
1.00059e-05
1.00064e-05
1.0006e-05
1.00069e-05
1.00057e-05
1.00071e-05
1.0005e-05
1.00077e-05
1.00053e-05
1.0009e-05
1.00059e-05
1.00097e-05
1.00064e-05
1.00145e-05
1.00148e-05
1.01029e-05
1.04173e-05
1.22864e-05
1.66258e-05
2.97907e-05
7.68518e-05
0.000106539
0.000110595
0.000113875
0.00011775
7.84622e-05
9.99499e-06
0.289831
0.984067
0.990678
0.990796
0.990941
0.990525
0.991508
0.992657
0.993201
0.994059
0.995278
0.996587
0.997671
0.998329
0.998548
0.998572
0.998525
0.99864
0.998645
0.99799
0.996714
0.995674
0.994857
0.993979
0.99315
0.992669
0.992349
0.990979
0.988532
0.986901
0.986269
0.985949
0.985394
0.984774
0.986471
0.992765
0.996839
3.08801e-06
2.56226e-06
3.17307e-06
3.69036e-06
4.43405e-06
5.20895e-06
6.16495e-06
8.08314e-06
8.97631e-06
9.45197e-06
9.71396e-06
9.90031e-06
9.98149e-06
1.00056e-05
1.00073e-05
1.00076e-05
1.00076e-05
1.00076e-05
1.00076e-05
1.00076e-05
1.00075e-05
1.00075e-05
1.00074e-05
1.00073e-05
1.00072e-05
1.00071e-05
1.0007e-05
1.0007e-05
1.00069e-05
1.00068e-05
1.00067e-05
1.00068e-05
1.00067e-05
1.00073e-05
1.00069e-05
1.00078e-05
1.00067e-05
1.00081e-05
1.00061e-05
1.00089e-05
1.00065e-05
1.001e-05
1.00068e-05
1.00105e-05
1.00071e-05
1.00145e-05
1.00133e-05
1.0093e-05
1.03447e-05
1.21567e-05
1.66155e-05
2.83988e-05
4.56211e-05
7.60641e-05
0.000101249
8.48117e-05
7.47175e-05
5.20412e-05
2.68323e-05
0.221025
0.993756
0.998005
0.998203
0.998319
0.998169
0.998408
0.998807
0.999162
0.999458
0.999645
0.99978
0.999865
0.999898
0.999904
0.999895
0.999892
0.999891
0.999885
0.999819
0.999663
0.999543
0.999432
0.999266
0.999139
0.999086
0.999081
0.999197
0.999251
0.999268
0.999263
0.99933
0.999515
0.999622
0.999731
0.9999
0.999964
2.76666e-06
2.24389e-06
3.12598e-06
3.78634e-06
4.79529e-06
6.29662e-06
7.43984e-06
8.56673e-06
9.14909e-06
9.53174e-06
9.7571e-06
9.92438e-06
9.98905e-06
1.00065e-05
1.00066e-05
1.00076e-05
1.00072e-05
1.00075e-05
1.00074e-05
1.00074e-05
1.00073e-05
1.00073e-05
1.00072e-05
1.00072e-05
1.00072e-05
1.00071e-05
1.0007e-05
1.0007e-05
1.00069e-05
1.00069e-05
1.00068e-05
1.00069e-05
1.00068e-05
1.00074e-05
1.00069e-05
1.00078e-05
1.00066e-05
1.00082e-05
1.00062e-05
1.0009e-05
1.00066e-05
1.00101e-05
1.00067e-05
1.00105e-05
1.00058e-05
1.00137e-05
1.00111e-05
1.0084e-05
1.02933e-05
1.20476e-05
1.65035e-05
2.98892e-05
4.62358e-05
5.59399e-05
8.86221e-05
0.000140163
0.000165621
0.000146199
5.85481e-05
0.166753
0.998092
0.99976
0.99979
0.999831
0.999842
0.999876
0.999914
0.999953
0.999976
0.999987
0.999993
0.999995
0.999996
0.999996
0.999996
0.999995
0.999995
0.999994
0.999992
0.999989
0.999984
0.999978
0.999972
0.999969
0.999969
0.999975
0.999982
0.999987
0.999992
0.999995
0.999997
0.999998
0.999999
0.999999
0.999999
0.999999
1.73227e-06
1.83987e-06
2.13147e-06
2.87292e-06
4.2952e-06
6.54608e-06
7.84273e-06
8.71595e-06
9.23972e-06
9.60981e-06
9.80163e-06
9.94398e-06
9.99255e-06
1.0007e-05
1.00068e-05
1.00076e-05
1.00076e-05
1.00076e-05
1.00076e-05
1.00076e-05
1.00076e-05
1.00076e-05
1.00076e-05
1.00076e-05
1.00075e-05
1.00075e-05
1.00074e-05
1.00073e-05
1.00072e-05
1.00071e-05
1.00069e-05
1.0007e-05
1.00069e-05
1.00074e-05
1.0007e-05
1.00078e-05
1.00067e-05
1.00082e-05
1.00061e-05
1.0009e-05
1.00066e-05
1.00101e-05
1.00068e-05
1.00093e-05
1.00053e-05
1.00121e-05
1.00095e-05
1.00785e-05
1.02824e-05
1.20876e-05
1.73999e-05
3.11887e-05
4.81293e-05
6.08166e-05
7.82138e-05
0.000121012
0.000143509
0.000242391
0.000187483
0.126926
0.994635
0.999997
0.999994
0.999997
0.999997
0.999998
0.999999
0.999999
0.999999
0.999999
0.999999
0.999999
0.999999
0.999999
0.999999
0.999999
0.999999
0.999999
0.999999
1
1
1
1
1
0.999999
0.999999
0.999999
0.999999
0.999999
1
1
1
1
1
1
1
1.64432e-06
1.78768e-06
1.65044e-06
1.95369e-06