/*--------------------------------*- C++ -*----------------------------------*\
| =========                 |                                                 |
| \\      /  F ield         | OpenFOAM: The Open Source CFD Toolbox           |
|  \\    /   O peration     | Version:  2.3.0                                 |
|   \\  /    A nd           | Web:      www.OpenFOAM.org                      |
|    \\/     M anipulation  |                                                 |
\*---------------------------------------------------------------------------*/
FoamFile
{
    version     2.0;
    format      ascii;
    class       volScalarField;
    location    "28";
    object      alpha.airMean;
}
// * * * * * * * * * * * * * * * * * * * * * * * * * * * * * * * * * * * * * //

dimensions      [0 0 0 0 0 0 0];

internalField   nonuniform List<scalar> 
6144
(
0.999992
0.999992
0.999991
0.999991
0.999991
0.999991
0.99999
0.99999
0.99999
0.99999
0.99999
0.99999
0.99999
0.99999
0.99999
0.99999
0.99999
0.99999
0.99999
0.99999
0.99999
0.99999
0.99999
0.99999
0.99999
0.99999
0.99999
0.99999
0.99999
0.99999
0.99999
0.99999
0.99999
0.99999
0.99999
0.99999
0.99999
0.99999
0.99999
0.99999
0.99999
0.99999
0.99999
0.99999
0.99999
0.99999
0.999988
0.999983
0.999973
0.999959
0.999946
0.999936
0.999932
0.999926
0.999922
0.999915
0.999911
0.999904
0.998698
0.93462
0.0357133
0.000234283
1.19315e-06
8.98558e-07
8.95451e-07
8.85177e-07
8.85129e-07
8.77053e-07
8.7778e-07
8.7239e-07
8.7137e-07
8.66743e-07
8.62622e-07
8.57795e-07
8.53766e-07
8.47399e-07
8.42527e-07
8.38683e-07
8.33246e-07
8.24796e-07
8.13893e-07
8.031e-07
7.94303e-07
7.85298e-07
7.71879e-07
7.49659e-07
7.28646e-07
7.11195e-07
6.87164e-07
6.50239e-07
6.09612e-07
5.75788e-07
5.31333e-07
4.90088e-07
4.51979e-07
4.32508e-07
0.999992
0.999992
0.999992
0.999991
0.999991
0.999991
0.99999
0.99999
0.99999
0.99999
0.99999
0.99999
0.99999
0.99999
0.99999
0.99999
0.99999
0.99999
0.99999
0.99999
0.99999
0.99999
0.99999
0.99999
0.99999
0.99999
0.99999
0.99999
0.99999
0.99999
0.99999
0.99999
0.99999
0.99999
0.99999
0.99999
0.99999
0.99999
0.99999
0.99999
0.99999
0.99999
0.99999
0.99999
0.99999
0.999989
0.999987
0.999982
0.999975
0.999965
0.999949
0.999936
0.999929
0.99992
0.999915
0.999906
0.999904
0.999894
0.999379
0.949773
0.0309133
0.000127497
9.57066e-07
9.36316e-07
9.29099e-07
9.2285e-07
9.22435e-07
9.18079e-07
9.17963e-07
9.0534e-07
9.01019e-07
8.90959e-07
8.86685e-07
8.80904e-07
8.74917e-07
8.65599e-07
8.60294e-07
8.54808e-07
8.4588e-07
8.33188e-07
8.18074e-07
8.03677e-07
7.8816e-07
7.7276e-07
7.53778e-07
7.32831e-07
7.16206e-07
7.05322e-07
6.93677e-07
6.73412e-07
6.43706e-07
6.01598e-07
5.52746e-07
5.1327e-07
4.78257e-07
4.48056e-07
0.999993
0.999992
0.999992
0.999992
0.999991
0.999991
0.99999
0.99999
0.99999
0.99999
0.99999
0.99999
0.99999
0.99999
0.99999
0.99999
0.99999
0.99999
0.99999
0.99999
0.99999
0.99999
0.99999
0.99999
0.99999
0.99999
0.99999
0.99999
0.99999
0.99999
0.99999
0.99999
0.99999
0.99999
0.99999
0.99999
0.99999
0.99999
0.99999
0.99999
0.99999
0.99999
0.99999
0.99999
0.99999
0.999989
0.999987
0.999983
0.999976
0.999966
0.999945
0.999931
0.999921
0.99991
0.999905
0.999897
0.999897
0.999889
0.999575
0.940171
0.026739
8.15212e-05
2.01959e-06
2.04776e-06
2.01656e-06
1.94765e-06
1.71423e-06
1.45481e-06
1.20861e-06
1.03309e-06
9.5626e-07
9.21727e-07
9.06975e-07
8.94567e-07
8.88212e-07
8.76711e-07
8.70596e-07
8.62862e-07
8.51237e-07
8.36988e-07
8.22674e-07
8.05167e-07
7.86414e-07
7.64241e-07
7.44859e-07
7.29276e-07
7.18668e-07
7.15316e-07
7.10359e-07
6.94393e-07
6.66822e-07
6.2668e-07
5.73503e-07
5.29609e-07
5.00758e-07
4.61167e-07
0.999993
0.999993
0.999992
0.999992
0.999992
0.999991
0.999991
0.99999
0.99999
0.99999
0.99999
0.99999
0.99999
0.99999
0.99999
0.99999
0.99999
0.99999
0.99999
0.99999
0.99999
0.99999
0.99999
0.99999
0.99999
0.99999
0.99999
0.99999
0.99999
0.99999
0.99999
0.99999
0.99999
0.99999
0.99999
0.99999
0.99999
0.99999
0.99999
0.99999
0.99999
0.99999
0.99999
0.99999
0.99999
0.999989
0.999987
0.999983
0.999977
0.999964
0.99994
0.999924
0.999912
0.999902
0.999896
0.999889
0.999892
0.999881
0.999674
0.916256
0.0228102
8.10148e-05
3.70845e-05
3.43046e-05
3.34881e-05
3.17162e-05
2.82003e-05
2.28432e-05
1.66514e-05
1.08496e-05
6.47101e-06
3.65246e-06
2.17309e-06
1.53123e-06
1.28525e-06
1.14638e-06
1.03111e-06
9.33053e-07
8.64263e-07
8.245e-07
8.18249e-07
8.14991e-07
8.09106e-07
7.93393e-07
7.84141e-07
7.89981e-07
7.90438e-07
7.88464e-07
7.7596e-07
7.42431e-07
7.01427e-07
6.55691e-07
6.00361e-07
5.52946e-07
5.22609e-07
4.75383e-07
0.999993
0.999993
0.999992
0.999992
0.999992
0.999992
0.999991
0.99999
0.99999
0.99999
0.99999
0.99999
0.99999
0.99999
0.99999
0.99999
0.99999
0.99999
0.99999
0.99999
0.99999
0.99999
0.99999
0.99999
0.99999
0.99999
0.99999
0.99999
0.99999
0.99999
0.99999
0.99999
0.99999
0.99999
0.99999
0.99999
0.99999
0.99999
0.99999
0.99999
0.99999
0.99999
0.99999
0.99999
0.99999
0.999989
0.999987
0.999983
0.999976
0.999961
0.999934
0.999916
0.999905
0.999895
0.99989
0.999885
0.999886
0.999872
0.999702
0.886706
0.0250406
0.000547775
0.000498104
0.00044183
0.000426676
0.000397864
0.00035987
0.000310607
0.000260256
0.000209785
0.000164534
0.0001268
9.75084e-05
7.65553e-05
6.28759e-05
5.34078e-05
4.63336e-05
4.08274e-05
3.65358e-05
3.31912e-05
3.08986e-05
2.93305e-05
2.82239e-05
2.63078e-05
2.5317e-05
2.4258e-05
2.24262e-05
1.94804e-05
1.60532e-05
1.16493e-05
6.91522e-06
3.61155e-06
1.73956e-06
8.96037e-07
6.21556e-07
5.30967e-07
0.999993
0.999993
0.999993
0.999993
0.999992
0.999992
0.999991
0.999991
0.99999
0.99999
0.99999
0.99999
0.99999
0.99999
0.99999
0.99999
0.99999
0.99999
0.99999
0.99999
0.99999
0.99999
0.99999
0.99999
0.99999
0.99999
0.99999
0.99999
0.99999
0.99999
0.99999
0.99999
0.99999
0.99999
0.99999
0.99999
0.99999
0.99999
0.99999
0.99999
0.99999
0.99999
0.99999
0.99999
0.99999
0.999989
0.999987
0.999983
0.999975
0.999957
0.999929
0.99991
0.9999
0.999892
0.999889
0.999886
0.99989
0.999872
0.999752
0.844086
0.0240586
0.00274202
0.00282699
0.00269199
0.00268025
0.00256195
0.00243549
0.00228317
0.00213169
0.00197819
0.00182044
0.00166747
0.00152404
0.00139218
0.00127826
0.00118281
0.00110528
0.00103914
0.000977026
0.000913651
0.000842459
0.000770749
0.000699552
0.000639349
0.000600073
0.000580817
0.000565306
0.000538249
0.000490109
0.00041209
0.000315047
0.000216858
0.000131094
6.52714e-05
2.48594e-05
9.59092e-06
0.999993
0.999993
0.999993
0.999993
0.999992
0.999992
0.999992
0.999991
0.999991
0.99999
0.99999
0.99999
0.99999
0.99999
0.99999
0.99999
0.99999
0.99999
0.99999
0.99999
0.99999
0.99999
0.99999
0.99999
0.99999
0.99999
0.99999
0.99999
0.99999
0.99999
0.99999
0.99999
0.99999
0.99999
0.99999
0.99999
0.99999
0.99999
0.99999
0.99999
0.99999
0.99999
0.99999
0.99999
0.99999
0.999989
0.999987
0.999983
0.999973
0.999951
0.999923
0.999907
0.999899
0.999894
0.999893
0.999891
0.999895
0.999886
0.999831
0.795728
0.0259952
0.00698727
0.00734411
0.00724289
0.00718997
0.00705979
0.00693922
0.0068397
0.00674493
0.0066284
0.00650773
0.00634822
0.00620025
0.00603731
0.00588141
0.00571986
0.00558067
0.00543323
0.00528098
0.00509291
0.00488153
0.00462941
0.00434912
0.00406031
0.0037897
0.00353346
0.00331295
0.00310602
0.00288943
0.00267466
0.0024227
0.00211724
0.00175561
0.00131
0.000815351
0.000429526
0.999993
0.999994
0.999993
0.999993
0.999993
0.999992
0.999992
0.999991
0.999991
0.99999
0.99999
0.99999
0.99999
0.99999
0.99999
0.99999
0.99999
0.99999
0.99999
0.99999
0.99999
0.99999
0.99999
0.99999
0.99999
0.99999
0.99999
0.99999
0.99999
0.99999
0.99999
0.99999
0.99999
0.99999
0.99999
0.99999
0.99999
0.99999
0.99999
0.99999
0.99999
0.99999
0.99999
0.99999
0.99999
0.999989
0.999987
0.999982
0.999967
0.999946
0.99992
0.999906
0.9999
0.999898
0.999899
0.999899
0.999901
0.999889
0.999808
0.780999
0.027869
0.0104417
0.0110029
0.010992
0.0108933
0.0108268
0.0108182
0.0109012
0.0109983
0.0110974
0.0111938
0.0112645
0.0113087
0.0113249
0.0113282
0.0113203
0.011306
0.0112993
0.0112914
0.0113099
0.0113642
0.0114692
0.0116015
0.0117668
0.0119809
0.0122396
0.0125077
0.0127659
0.0130217
0.0132856
0.0134994
0.0136216
0.0134753
0.0128736
0.0113714
0.00917569
0.999994
0.999993
0.999993
0.999993
0.999993
0.999992
0.999992
0.999991
0.999991
0.999991
0.99999
0.99999
0.99999
0.99999
0.99999
0.99999
0.99999
0.99999
0.99999
0.99999
0.99999
0.99999
0.99999
0.99999
0.99999
0.99999
0.99999
0.99999
0.99999
0.99999
0.99999
0.99999
0.99999
0.99999
0.99999
0.99999
0.99999
0.99999
0.99999
0.99999
0.99999
0.99999
0.99999
0.99999
0.99999
0.999989
0.999986
0.999979
0.999966
0.999947
0.999924
0.99991
0.999904
0.999902
0.999902
0.999901
0.999905
0.999893
0.9998
0.84959
0.0266508
0.00540421
0.0051838
0.00454538
0.00421935
0.00397609
0.00386109
0.00378454
0.00375908
0.00374948
0.00376668
0.00377302
0.00377256
0.00375909
0.00374416
0.00372281
0.003699
0.00366754
0.00362545
0.00356623
0.00350436
0.00343839
0.00338295
0.00332653
0.00326849
0.00322242
0.00318731
0.0031654
0.00312957
0.00305566
0.00293823
0.00272011
0.00235982
0.00185382
0.00116382
0.000578705
0.999994
0.999994
0.999993
0.999993
0.999993
0.999992
0.999992
0.999991
0.999991
0.999991
0.99999
0.99999
0.99999
0.99999
0.99999
0.99999
0.99999
0.99999
0.99999
0.99999
0.99999
0.99999
0.99999
0.99999
0.99999
0.99999
0.99999
0.99999
0.99999
0.99999
0.99999
0.99999
0.99999
0.99999
0.99999
0.99999
0.99999
0.99999
0.99999
0.99999
0.99999
0.99999
0.99999
0.99999
0.999989
0.999987
0.999984
0.999978
0.999968
0.999952
0.999933
0.999917
0.999908
0.999904
0.999903
0.999901
0.999907
0.999898
0.999865
0.910013
0.021729
0.00117202
0.000974131
0.000709904
0.000614253
0.000535706
0.000498469
0.000466078
0.000450797
0.000439658
0.000436121
0.00043173
0.000428482
0.000425401
0.000424893
0.000425632
0.000426467
0.000426152
0.000431145
0.000441973
0.000460941
0.000491441
0.000535263
0.000588324
0.000645491
0.000701645
0.000746146
0.000766833
0.00076085
0.000713162
0.000620742
0.00048356
0.00032946
0.000182284
7.59494e-05
3.04049e-05
0.999995
0.999994
0.999993
0.999993
0.999993
0.999992
0.999992
0.999991
0.999991
0.99999
0.99999
0.99999
0.99999
0.99999
0.99999
0.99999
0.99999
0.99999
0.99999
0.99999
0.99999
0.99999
0.99999
0.99999
0.99999
0.99999
0.99999
0.99999
0.99999
0.99999
0.99999
0.99999
0.99999
0.99999
0.99999
0.99999
0.99999
0.99999
0.99999
0.99999
0.99999
0.99999
0.99999
0.99999
0.999989
0.999987
0.999985
0.999979
0.99997
0.999956
0.999942
0.999927
0.999917
0.999909
0.999907
0.999904
0.999909
0.999897
0.99987
0.947525
0.0240845
0.000136271
6.29521e-05
3.88642e-05
3.02498e-05
2.34585e-05
2.11425e-05
1.90375e-05
1.83797e-05
1.83217e-05
1.88323e-05
1.94048e-05
2.00131e-05
2.04608e-05
2.07666e-05
2.08748e-05
2.07757e-05
2.07589e-05
2.17296e-05
2.35675e-05
2.65597e-05
3.06207e-05
3.54427e-05
4.03404e-05
4.45225e-05
4.76642e-05
4.96571e-05
5.02816e-05
4.81605e-05
4.21745e-05
3.29924e-05
2.06153e-05
1.06406e-05
4.38157e-06
1.69203e-06
9.22155e-07
0.999995
0.999994
0.999994
0.999993
0.999993
0.999992
0.999991
0.999991
0.999991
0.99999
0.99999
0.99999
0.99999
0.99999
0.99999
0.99999
0.99999
0.99999
0.99999
0.99999
0.99999
0.99999
0.99999
0.99999
0.99999
0.99999
0.99999
0.99999
0.99999
0.99999
0.99999
0.99999
0.99999
0.99999
0.99999
0.99999
0.99999
0.99999
0.99999
0.99999
0.99999
0.99999
0.99999
0.99999
0.999989
0.999988
0.999985
0.99998
0.999971
0.999959
0.999947
0.999935
0.999926
0.999916
0.999913
0.999908
0.999911
0.999897
0.999813
0.968264
0.0369457
9.83262e-05
1.77383e-06
1.37377e-06
1.21573e-06
1.1144e-06
1.07547e-06
1.03746e-06
1.02378e-06
1.01873e-06
1.02488e-06
1.01428e-06
1.00129e-06
9.88063e-07
9.71842e-07
9.52928e-07
9.26668e-07
9.01606e-07
8.94669e-07
8.90043e-07
8.93486e-07
9.28659e-07
9.75339e-07
1.01648e-06
1.04947e-06
1.06515e-06
1.04555e-06
9.93663e-07
9.57707e-07
9.03217e-07
8.17315e-07
7.20935e-07
6.35335e-07
5.86631e-07
5.515e-07
4.84557e-07
0.999996
0.999995
0.999995
0.999994
0.999994
0.999993
0.999992
0.999991
0.999991
0.99999
0.99999
0.99999
0.99999
0.99999
0.99999
0.99999
0.99999
0.99999
0.99999
0.99999
0.99999
0.99999
0.99999
0.99999
0.99999
0.99999
0.99999
0.99999
0.99999
0.99999
0.99999
0.99999
0.99999
0.99999
0.99999
0.99999
0.99999
0.99999
0.99999
0.99999
0.99999
0.99999
0.99999
0.99999
0.99999
0.999989
0.999986
0.999981
0.999972
0.999961
0.999949
0.999939
0.999933
0.999923
0.999919
0.999913
0.999914
0.999895
0.999726
0.97398
0.0506883
0.000190807
1.07846e-06
9.85409e-07
9.77849e-07
9.77172e-07
9.7294e-07
9.67271e-07
9.60097e-07
9.49867e-07
9.42991e-07
9.35557e-07
9.29941e-07
9.21349e-07
9.09561e-07
8.97776e-07
8.89709e-07
8.8232e-07
8.72628e-07
8.63744e-07
8.57334e-07
8.54677e-07
8.50095e-07
8.43173e-07
8.33323e-07
8.16934e-07
7.96235e-07
7.69636e-07
7.34638e-07
7.00129e-07
6.73927e-07
6.39064e-07
5.9153e-07
5.6314e-07
5.25714e-07
4.58888e-07
0.999996
0.999996
0.999995
0.999995
0.999994
0.999994
0.999992
0.999991
0.999991
0.99999
0.99999
0.99999
0.99999
0.99999
0.99999
0.99999
0.99999
0.99999
0.99999
0.99999
0.99999
0.99999
0.99999
0.99999
0.99999
0.99999
0.99999
0.99999
0.99999
0.99999
0.99999
0.99999
0.99999
0.99999
0.99999
0.99999
0.99999
0.99999
0.99999
0.99999
0.99999
0.99999
0.99999
0.99999
0.99999
0.999989
0.999987
0.999982
0.999973
0.999961
0.99995
0.99994
0.999933
0.999926
0.999921
0.999916
0.999913
0.999883
0.999657
0.970884
0.0603751
0.000330385
1.30742e-06
9.69298e-07
9.59097e-07
9.568e-07
9.567e-07
9.48196e-07
9.4393e-07
9.37304e-07
9.31847e-07
9.22639e-07
9.16079e-07
9.08179e-07
8.99953e-07
8.90619e-07
8.82343e-07
8.76847e-07
8.71666e-07
8.65698e-07
8.59042e-07
8.54732e-07
8.50459e-07
8.45281e-07
8.38043e-07
8.245e-07
8.02238e-07
7.73342e-07
7.34307e-07
6.89e-07
6.49069e-07
6.20609e-07
5.86586e-07
5.62098e-07
5.22342e-07
4.51102e-07
0.999997
0.999996
0.999996
0.999995
0.999995
0.999995
0.999993
0.999992
0.999991
0.99999
0.99999
0.99999
0.99999
0.99999
0.99999
0.99999
0.99999
0.99999
0.99999
0.99999
0.99999
0.99999
0.99999
0.99999
0.99999
0.99999
0.99999
0.99999
0.99999
0.99999
0.99999
0.99999
0.99999
0.99999
0.99999
0.99999
0.99999
0.99999
0.99999
0.99999
0.99999
0.99999
0.99999
0.99999
0.99999
0.999989
0.999987
0.999982
0.999973
0.999962
0.999951
0.999941
0.999934
0.999927
0.999922
0.999916
0.999909
0.99988
0.999626
0.964688
0.0576075
0.000273182
1.17844e-06
9.62084e-07
9.52344e-07
9.42924e-07
9.39095e-07
9.3175e-07
9.28088e-07
9.19434e-07
9.15983e-07
9.09633e-07
9.03979e-07
8.9799e-07
8.91299e-07
8.83416e-07
8.75814e-07
8.71507e-07
8.67358e-07
8.62627e-07
8.57739e-07
8.52569e-07
8.4779e-07
8.43534e-07
8.38402e-07
8.30044e-07
8.14098e-07
7.86484e-07
7.4559e-07
6.93633e-07
6.45099e-07
6.06902e-07
5.76227e-07
5.44001e-07
4.96245e-07
4.40587e-07
0.999998
0.999997
0.999996
0.999996
0.999996
0.999995
0.999994
0.999993
0.999991
0.99999
0.99999
0.99999
0.99999
0.99999
0.99999
0.99999
0.99999
0.99999
0.99999
0.99999
0.99999
0.99999
0.99999
0.99999
0.99999
0.99999
0.99999
0.99999
0.99999
0.99999
0.99999
0.99999
0.99999
0.99999
0.99999
0.99999
0.99999
0.99999
0.99999
0.99999
0.99999
0.99999
0.99999
0.99999
0.99999
0.999989
0.999987
0.999982
0.999973
0.999962
0.999951
0.999941
0.999936
0.99993
0.999926
0.999915
0.999911
0.999888
0.999332
0.956661
0.0619361
0.000536433
1.86227e-06
9.60681e-07
9.54802e-07
9.43693e-07
9.37349e-07
9.28104e-07
9.25787e-07
9.18077e-07
9.13508e-07
9.07062e-07
9.01199e-07
8.95645e-07
8.90045e-07
8.84195e-07
8.78198e-07
8.72819e-07
8.67729e-07
8.63265e-07
8.58488e-07
8.53055e-07
8.48797e-07
8.44936e-07
8.40333e-07
8.35743e-07
8.26013e-07
8.03851e-07
7.67071e-07
7.1788e-07
6.53275e-07
5.93672e-07
5.5185e-07
5.01718e-07
4.62942e-07
4.26147e-07
0.999992
0.999992
0.999991
0.999991
0.999991
0.999991
0.99999
0.99999
0.99999
0.99999
0.99999
0.99999
0.99999
0.99999
0.99999
0.99999
0.99999
0.99999
0.99999
0.99999
0.99999
0.99999
0.99999
0.99999
0.99999
0.99999
0.99999
0.99999
0.99999
0.99999
0.99999
0.99999
0.99999
0.99999
0.99999
0.99999
0.99999
0.99999
0.99999
0.99999
0.99999
0.99999
0.99999
0.99999
0.99999
0.99999
0.999988
0.999983
0.999974
0.99996
0.999947
0.999937
0.999933
0.999928
0.999925
0.999919
0.999917
0.999891
0.99921
0.946958
0.0347496
0.00012638
9.44056e-07
9.0087e-07
8.94473e-07
8.82296e-07
8.81579e-07
8.72848e-07
8.72345e-07
8.66436e-07
8.65455e-07
8.60161e-07
8.56815e-07
8.51548e-07
8.47011e-07
8.41713e-07
8.36707e-07
8.32313e-07
8.26814e-07
8.18029e-07
8.08429e-07
7.98619e-07
7.88526e-07
7.75636e-07
7.62372e-07
7.50403e-07
7.38391e-07
7.24411e-07
7.0521e-07
6.7697e-07
6.42353e-07
6.02917e-07
5.559e-07
5.12695e-07
4.78984e-07
4.47133e-07
0.999993
0.999992
0.999992
0.999991
0.999991
0.999991
0.999991
0.999991
0.99999
0.99999
0.99999
0.99999
0.99999
0.99999
0.99999
0.99999
0.99999
0.99999
0.99999
0.99999
0.99999
0.99999
0.99999
0.99999
0.99999
0.99999
0.99999
0.99999
0.99999
0.99999
0.99999
0.99999
0.99999
0.99999
0.99999
0.99999
0.99999
0.99999
0.99999
0.99999
0.99999
0.99999
0.99999
0.99999
0.99999
0.99999
0.999988
0.999983
0.999975
0.999965
0.99995
0.999937
0.99993
0.999923
0.999919
0.999914
0.99991
0.999882
0.999587
0.918562
0.0154604
1.32173e-05
9.17029e-07
9.81287e-07
9.51009e-07
9.42271e-07
9.38802e-07
9.23942e-07
9.20839e-07
9.09762e-07
9.04687e-07
8.90612e-07
8.82812e-07
8.74733e-07
8.68501e-07
8.6069e-07
8.54105e-07
8.47519e-07
8.39168e-07
8.29162e-07
8.16399e-07
8.039e-07
7.8743e-07
7.68458e-07
7.49146e-07
7.3138e-07
7.16714e-07
7.0537e-07
6.93214e-07
6.75686e-07
6.53433e-07
6.20366e-07
5.75089e-07
5.37496e-07
5.09549e-07
4.68298e-07
0.999993
0.999992
0.999992
0.999992
0.999991
0.999991
0.999991
0.999991
0.999991
0.99999
0.99999
0.99999
0.99999
0.99999
0.99999
0.99999
0.99999
0.99999
0.99999
0.99999
0.99999
0.99999
0.99999
0.99999
0.99999
0.99999
0.99999
0.99999
0.99999
0.99999
0.99999
0.99999
0.99999
0.99999
0.99999
0.99999
0.99999
0.99999
0.99999
0.99999
0.99999
0.99999
0.99999
0.99999
0.99999
0.999989
0.999987
0.999983
0.999976
0.999967
0.999949
0.999932
0.99992
0.999912
0.99991
0.999907
0.999905
0.999874
0.999718
0.8896
0.0132303
6.24015e-06
5.64723e-06
5.11187e-06
4.88916e-06
3.99261e-06
3.20727e-06
2.33287e-06
1.74334e-06
1.33265e-06
1.12422e-06
1.00445e-06
9.49075e-07
9.27555e-07
9.18083e-07
9.02427e-07
8.90863e-07
8.81709e-07
8.74312e-07
8.63724e-07
8.51047e-07
8.35843e-07
8.14358e-07
7.86028e-07
7.60053e-07
7.39907e-07
7.23612e-07
7.09512e-07
6.95884e-07
6.80279e-07
6.64111e-07
6.36034e-07
5.92113e-07
5.55546e-07
5.29598e-07
4.88544e-07
0.999993
0.999993
0.999992
0.999992
0.999992
0.999992
0.999991
0.999991
0.999991
0.99999
0.99999
0.99999
0.99999
0.99999
0.99999
0.99999
0.99999
0.99999
0.99999
0.99999
0.99999
0.99999
0.99999
0.99999
0.99999
0.99999
0.99999
0.99999
0.99999
0.99999
0.99999
0.99999
0.99999
0.99999
0.99999
0.99999
0.99999
0.99999
0.99999
0.99999
0.99999
0.99999
0.99999
0.99999
0.99999
0.999989
0.999987
0.999983
0.999977
0.999967
0.999943
0.999921
0.999907
0.999902
0.999899
0.999891
0.999879
0.999851
0.99977
0.832518
0.00719865
0.000246569
0.000220516
0.000187336
0.000173514
0.000143992
0.000114387
8.48833e-05
5.98679e-05
3.99412e-05
2.59809e-05
1.67191e-05
1.11667e-05
8.04076e-06
6.47489e-06
5.67061e-06
5.27311e-06
5.06445e-06
4.90349e-06
4.70196e-06
4.49606e-06
4.28663e-06
4.04698e-06
3.74624e-06
3.42949e-06
3.07583e-06
2.66783e-06
2.25289e-06
1.64465e-06
1.15151e-06
8.64256e-07
7.32101e-07
6.75444e-07
6.33461e-07
5.79537e-07
5.18018e-07
0.999994
0.999993
0.999993
0.999992
0.999992
0.999992
0.999991
0.999991
0.999991
0.999991
0.99999
0.99999
0.99999
0.99999
0.99999
0.99999
0.99999
0.99999
0.99999
0.99999
0.99999
0.99999
0.99999
0.99999
0.99999
0.99999
0.99999
0.99999
0.99999
0.99999
0.99999
0.99999
0.99999
0.99999
0.99999
0.99999
0.99999
0.99999
0.99999
0.99999
0.99999
0.99999
0.99999
0.99999
0.99999
0.999989
0.999987
0.999983
0.999977
0.999963
0.999932
0.999911
0.999897
0.999889
0.999881
0.999866
0.999853
0.999838
0.999833
0.748721
0.0102831
0.00338757
0.00320683
0.00290048
0.00270496
0.00241093
0.00211444
0.00180824
0.00151034
0.00123144
0.000991619
0.000792803
0.000637994
0.000525311
0.000445179
0.000393998
0.00036505
0.000351508
0.000349276
0.000352737
0.00035861
0.000358009
0.000351881
0.000342499
0.000326811
0.000307086
0.000282405
0.000238716
0.000180781
0.000120051
6.82656e-05
3.23365e-05
1.30178e-05
4.75566e-06
1.73773e-06
8.72207e-07
0.999994
0.999994
0.999993
0.999992
0.999992
0.999992
0.999992
0.999991
0.999991
0.999991
0.99999
0.99999
0.99999
0.99999
0.99999
0.99999
0.99999
0.99999
0.99999
0.99999
0.99999
0.99999
0.99999
0.99999
0.99999
0.99999
0.99999
0.99999
0.99999
0.99999
0.99999
0.99999
0.99999
0.99999
0.99999
0.99999
0.99999
0.99999
0.99999
0.99999
0.99999
0.99999
0.99999
0.99999
0.99999
0.999989
0.999987
0.999983
0.999975
0.999958
0.999923
0.999904
0.999891
0.999879
0.999867
0.999858
0.999854
0.999851
0.999809
0.624626
0.0201676
0.0140937
0.0143901
0.0142203
0.0140258
0.0137092
0.0133089
0.0128288
0.0122203
0.0115445
0.0108002
0.0100292
0.00925797
0.00851841
0.00783538
0.00725359
0.00677322
0.00639567
0.0061175
0.00591109
0.00572403
0.00553119
0.0052888
0.00507823
0.00484765
0.00456053
0.00425071
0.00388955
0.00346149
0.00294284
0.00237607
0.00176752
0.00117554
0.000667443
0.000294334
0.000106934
0.999994
0.999994
0.999994
0.999993
0.999992
0.999992
0.999992
0.999991
0.999991
0.999991
0.99999
0.99999
0.99999
0.99999
0.99999
0.99999
0.99999
0.99999
0.99999
0.99999
0.99999
0.99999
0.99999
0.99999
0.99999
0.99999
0.99999
0.99999
0.99999
0.99999
0.99999
0.99999
0.99999
0.99999
0.99999
0.99999
0.99999
0.99999
0.99999
0.99999
0.99999
0.99999
0.99999
0.99999
0.99999
0.999989
0.999986
0.999981
0.999972
0.999951
0.999918
0.999899
0.999888
0.99988
0.999873
0.999868
0.999869
0.999862
0.999431
0.57551
0.0301875
0.0240855
0.0251654
0.0256859
0.0260983
0.026558
0.0269825
0.027397
0.0277616
0.0281407
0.0284965
0.0288332
0.0290842
0.029259
0.0293199
0.0293083
0.0292052
0.0290487
0.0288089
0.0284683
0.0279737
0.0273303
0.0266209
0.0258802
0.0250452
0.024193
0.0232683
0.0223565
0.0215538
0.0207657
0.0198346
0.018661
0.0171636
0.0151361
0.0125733
0.0101241
0.999994
0.999994
0.999994
0.999993
0.999993
0.999992
0.999992
0.999991
0.999991
0.999991
0.99999
0.99999
0.99999
0.99999
0.99999
0.99999
0.99999
0.99999
0.99999
0.99999
0.99999
0.99999
0.99999
0.99999
0.99999
0.99999
0.99999
0.99999
0.99999
0.99999
0.99999
0.99999
0.99999
0.99999
0.99999
0.99999
0.99999
0.99999
0.99999
0.99999
0.99999
0.99999
0.99999
0.99999
0.99999
0.999989
0.999986
0.99998
0.999967
0.999943
0.999916
0.999901
0.999894
0.999891
0.999889
0.999888
0.99989
0.999886
0.999005
0.699489
0.0310099
0.0193093
0.0200218
0.0202038
0.0205923
0.0212973
0.0222125
0.0233004
0.0245465
0.0259125
0.0273824
0.0289777
0.0306573
0.0323794
0.0341793
0.0360576
0.0380794
0.0402813
0.0426197
0.0450835
0.0476782
0.0505028
0.0536962
0.0572516
0.0611579
0.0653852
0.0699334
0.0749973
0.0807516
0.0873327
0.0952433
0.104962
0.117962
0.138957
0.187561
0.382528
0.999995
0.999995
0.999994
0.999994
0.999993
0.999993
0.999992
0.999991
0.999991
0.999991
0.99999
0.99999
0.99999
0.99999
0.99999
0.99999
0.99999
0.99999
0.99999
0.99999
0.99999
0.99999
0.99999
0.99999
0.99999
0.99999
0.99999
0.99999
0.99999
0.99999
0.99999
0.99999
0.99999
0.99999
0.99999
0.99999
0.99999
0.99999
0.99999
0.99999
0.99999
0.99999
0.99999
0.99999
0.99999
0.999988
0.999986
0.99998
0.999968
0.999947
0.999923
0.999911
0.999901
0.999897
0.999894
0.999891
0.999891
0.999886
0.999815
0.834739
0.0205586
0.00540019
0.00499312
0.00408559
0.00367906
0.0033336
0.0032009
0.00317641
0.00322166
0.00329167
0.00338704
0.00346553
0.00356228
0.00368644
0.00387113
0.00411114
0.004413
0.00473407
0.0050718
0.00545956
0.0059055
0.0063841
0.00681279
0.00718324
0.0074782
0.00777102
0.00801022
0.00816546
0.00831924
0.00855767
0.00884295
0.00932719
0.0100535
0.0107898
0.0112181
0.010328
0.999995
0.999995
0.999995
0.999994
0.999994
0.999993
0.999992
0.999991
0.999991
0.999991
0.99999
0.99999
0.99999
0.99999
0.99999
0.99999
0.99999
0.99999
0.99999
0.99999
0.99999
0.99999
0.99999
0.99999
0.99999
0.99999
0.99999
0.99999
0.99999
0.99999
0.99999
0.99999
0.99999
0.99999
0.99999
0.99999
0.99999
0.99999
0.99999
0.99999
0.99999
0.99999
0.99999
0.99999
0.99999
0.999988
0.999985
0.99998
0.999972
0.999956
0.999936
0.999921
0.999911
0.999902
0.999896
0.999894
0.999895
0.999883
0.999894
0.894211
0.0121945
0.000708033
0.000583581
0.00038934
0.000321211
0.000262328
0.000247823
0.00024624
0.000252536
0.000260353
0.000270536
0.000279622
0.000288199
0.000295609
0.00030198
0.00030808
0.000315174
0.000320909
0.000328273
0.000341981
0.000364883
0.000407586
0.000463294
0.000530933
0.000598739
0.000662011
0.000731243
0.000799641
0.000879879
0.000976331
0.00107203
0.00112896
0.00110324
0.000865143
0.000518772
0.000227284
0.999995
0.999995
0.999995
0.999995
0.999994
0.999993
0.999992
0.999991
0.999991
0.999991
0.99999
0.99999
0.99999
0.99999
0.99999
0.99999
0.99999
0.99999
0.99999
0.99999
0.99999
0.99999
0.99999
0.99999
0.99999
0.99999
0.99999
0.99999
0.99999
0.99999
0.99999
0.99999
0.99999
0.99999
0.99999
0.99999
0.99999
0.99999
0.99999
0.99999
0.99999
0.99999
0.99999
0.99999
0.99999
0.999989
0.999986
0.999981
0.999972
0.999962
0.999946
0.999931
0.999922
0.999914
0.999908
0.999903
0.9999
0.999878
0.999878
0.932016
0.0147842
3.78531e-05
3.41549e-05
1.868e-05
1.5761e-05
1.28661e-05
1.22102e-05
1.17515e-05
1.16136e-05
1.14916e-05
1.16014e-05
1.18087e-05
1.20192e-05
1.20566e-05
1.2199e-05
1.22174e-05
1.16648e-05
1.08124e-05
1.05209e-05
1.0823e-05
1.18672e-05
1.43025e-05
1.74508e-05
2.11632e-05
2.41778e-05
2.54991e-05
2.54445e-05
2.43335e-05
2.29611e-05
2.16022e-05
2.112e-05
2.01982e-05
1.59665e-05
9.14655e-06
4.26303e-06
1.87595e-06
0.999996
0.999995
0.999995
0.999995
0.999994
0.999994
0.999992
0.999991
0.999991
0.999991
0.99999
0.99999
0.99999
0.99999
0.99999
0.99999
0.99999
0.99999
0.99999
0.99999
0.99999
0.99999
0.99999
0.99999
0.99999
0.99999
0.99999
0.99999
0.99999
0.99999
0.99999
0.99999
0.99999
0.99999
0.99999
0.99999
0.99999
0.99999
0.99999
0.99999
0.99999
0.99999
0.99999
0.99999
0.99999
0.999989
0.999987
0.999982
0.999973
0.999963
0.999951
0.999938
0.99993
0.999921
0.999918
0.999912
0.999902
0.999873
0.999826
0.955067
0.0222922
1.37415e-06
2.23853e-06
1.18134e-06
1.24604e-06
1.12628e-06
1.13447e-06
1.10346e-06
1.09576e-06
1.07796e-06
1.07134e-06
1.06631e-06
1.05658e-06
1.03909e-06
1.02075e-06
1.00389e-06
9.74678e-07
9.54473e-07
9.49748e-07
9.46085e-07
9.5036e-07
9.57006e-07
9.69667e-07
9.8003e-07
9.77584e-07
9.45532e-07
8.82921e-07
8.28731e-07
7.93042e-07
7.54129e-07
7.13249e-07
6.72138e-07
6.27996e-07
5.94956e-07
5.57084e-07
4.89694e-07
0.999996
0.999995
0.999995
0.999995
0.999995
0.999994
0.999993
0.999991
0.999991
0.999991
0.99999
0.99999
0.99999
0.99999
0.99999
0.99999
0.99999
0.99999
0.99999
0.99999
0.99999
0.99999
0.99999
0.99999
0.99999
0.99999
0.99999
0.99999
0.99999
0.99999
0.99999
0.99999
0.99999
0.99999
0.99999
0.99999
0.99999
0.99999
0.99999
0.99999
0.99999
0.99999
0.99999
0.99999
0.99999
0.999989
0.999987
0.999983
0.999974
0.999964
0.999953
0.99994
0.999932
0.999922
0.999916
0.999907
0.999895
0.999866
0.999752
0.961403
0.0329106
1.47946e-05
1.03522e-06
9.94989e-07
1.00595e-06
1.00029e-06
9.90272e-07
9.77825e-07
9.70075e-07
9.55536e-07
9.46445e-07
9.36046e-07
9.2894e-07
9.19523e-07
9.09349e-07
8.9983e-07
8.92788e-07
8.83746e-07
8.74796e-07
8.68089e-07
8.61424e-07
8.55504e-07
8.51389e-07
8.451e-07
8.34334e-07
8.17418e-07
7.96309e-07
7.70327e-07
7.3879e-07
7.01931e-07
6.6276e-07
6.34554e-07
5.97388e-07
5.70864e-07
5.27905e-07
4.51268e-07
0.999996
0.999996
0.999996
0.999995
0.999995
0.999995
0.999993
0.999992
0.999991
0.999991
0.99999
0.99999
0.99999
0.99999
0.99999
0.99999
0.99999
0.99999
0.99999
0.99999
0.99999
0.99999
0.99999
0.99999
0.99999
0.99999
0.99999
0.99999
0.99999
0.99999
0.99999
0.99999
0.99999
0.99999
0.99999
0.99999
0.99999
0.99999
0.99999
0.99999
0.99999
0.99999
0.99999
0.99999
0.99999
0.999989
0.999987
0.999983
0.999974
0.999963
0.999952
0.999941
0.999931
0.99992
0.999908
0.999898
0.999884
0.999844
0.99965
0.954835
0.0364009
3.08394e-05
1.01224e-06
9.82813e-07
9.62156e-07
9.5726e-07
9.58549e-07
9.4921e-07
9.44802e-07
9.34615e-07
9.2847e-07
9.19523e-07
9.14491e-07
9.06372e-07
8.98199e-07
8.89593e-07
8.82118e-07
8.75015e-07
8.68533e-07
8.63262e-07
8.57568e-07
8.52936e-07
8.50196e-07
8.45073e-07
8.3562e-07
8.19221e-07
7.96448e-07
7.70428e-07
7.3721e-07
6.91617e-07
6.46934e-07
6.15088e-07
5.91265e-07
5.71905e-07
5.34953e-07
4.5056e-07
0.999997
0.999996
0.999996
0.999996
0.999995
0.999995
0.999994
0.999992
0.999991
0.999991
0.99999
0.99999
0.99999
0.99999
0.99999
0.99999
0.99999
0.99999
0.99999
0.99999
0.99999
0.99999
0.99999
0.99999
0.99999
0.99999
0.99999
0.99999
0.99999
0.99999
0.99999
0.99999
0.99999
0.99999
0.99999
0.99999
0.99999
0.99999
0.99999
0.99999
0.99999
0.99999
0.99999
0.99999
0.99999
0.999989
0.999987
0.999982
0.999974
0.999963
0.999952
0.999942
0.999931
0.999918
0.999903
0.999887
0.999871
0.999833
0.999637
0.935032
0.0326297
6.33952e-05
1.03478e-06
9.62155e-07
9.49976e-07
9.37038e-07
9.35824e-07
9.27476e-07
9.24948e-07
9.17262e-07
9.13498e-07
9.05546e-07
8.99985e-07
8.92737e-07
8.87096e-07
8.80605e-07
8.74445e-07
8.69496e-07
8.6427e-07
8.59734e-07
8.55038e-07
8.5132e-07
8.49252e-07
8.44682e-07
8.36241e-07
8.2343e-07
8.04031e-07
7.7696e-07
7.38345e-07
6.88624e-07
6.37281e-07
5.96843e-07
5.7532e-07
5.51715e-07
5.09409e-07
4.40825e-07
0.999998
0.999997
0.999997
0.999996
0.999996
0.999995
0.999995
0.999993
0.999991
0.999991
0.99999
0.99999
0.99999
0.99999
0.99999
0.99999
0.99999
0.99999
0.99999
0.99999
0.99999
0.99999
0.99999
0.99999
0.99999
0.99999
0.99999
0.99999
0.99999
0.99999
0.99999
0.99999
0.99999
0.99999
0.99999
0.99999
0.99999
0.99999
0.99999
0.99999
0.99999
0.99999
0.99999
0.99999
0.99999
0.999989
0.999987
0.999982
0.999973
0.999962
0.999951
0.999942
0.999936
0.999927
0.999914
0.999896
0.999883
0.999835
0.999453
0.953731
0.052179
0.000375355
1.54055e-06
9.57575e-07
9.50198e-07
9.36147e-07
9.33532e-07
9.24109e-07
9.20808e-07
9.12393e-07
9.08142e-07
9.00814e-07
8.96228e-07
8.9002e-07
8.84959e-07
8.79719e-07
8.75237e-07
8.70293e-07
8.65402e-07
8.6189e-07