/*--------------------------------*- C++ -*----------------------------------*\
| =========                 |                                                 |
| \\      /  F ield         | OpenFOAM: The Open Source CFD Toolbox           |
|  \\    /   O peration     | Version:  2.3.0                                 |
|   \\  /    A nd           | Web:      www.OpenFOAM.org                      |
|    \\/     M anipulation  |                                                 |
\*---------------------------------------------------------------------------*/
FoamFile
{
    version     2.0;
    format      ascii;
    class       volScalarField;
    location    "28";
    object      alpha.air;
}
// * * * * * * * * * * * * * * * * * * * * * * * * * * * * * * * * * * * * * //

dimensions      [0 0 0 0 0 0 0];

internalField   nonuniform List<scalar> 
6144
(
0.999995
0.999994
0.999993
0.999993
0.999993
0.999992
0.999992
0.999991
0.99999
0.99999
0.99999
0.99999
0.99999
0.99999
0.99999
0.99999
0.99999
0.99999
0.99999
0.99999
0.99999
0.99999
0.99999
0.99999
0.99999
0.99999
0.99999
0.99999
0.99999
0.99999
0.99999
0.99999
0.99999
0.99999
0.99999
0.99999
0.99999
0.99999
0.99999
0.99999
0.99999
0.99999
0.99999
0.99999
0.99999
0.99999
0.99999
0.99999
0.99999
0.99999
0.999989
0.999979
0.999947
0.999928
0.999919
0.999871
0.999721
0.999347
0.998682
0.942711
0.0389765
0.000212281
8.74225e-07
6.3881e-07
6.41131e-07
6.44629e-07
6.46444e-07
6.46538e-07
6.46932e-07
6.49453e-07
6.57625e-07
6.67525e-07
6.69042e-07
6.68748e-07
6.68634e-07
6.68693e-07
6.68732e-07
6.68521e-07
6.68495e-07
6.68496e-07
6.6844e-07
6.68315e-07
6.68372e-07
6.68429e-07
6.68984e-07
6.68689e-07
6.67738e-07
6.66575e-07
6.67242e-07
6.67731e-07
6.6846e-07
6.70167e-07
6.55265e-07
5.47849e-07
5.00946e-07
4.82679e-07
0.999995
0.999994
0.999993
0.999993
0.999992
0.999992
0.999991
0.999991
0.99999
0.99999
0.99999
0.99999
0.99999
0.99999
0.99999
0.99999
0.99999
0.99999
0.99999
0.99999
0.99999
0.99999
0.99999
0.99999
0.99999
0.99999
0.99999
0.99999
0.99999
0.99999
0.99999
0.99999
0.99999
0.99999
0.99999
0.99999
0.99999
0.99999
0.99999
0.99999
0.99999
0.99999
0.99999
0.99999
0.99999
0.99999
0.99999
0.99999
0.99999
0.99999
0.999989
0.999973
0.999945
0.999927
0.999909
0.999886
0.99973
0.999093
0.99824
0.956081
0.0329353
7.95505e-05
6.28926e-07
6.50749e-07
6.48656e-07
6.46043e-07
6.47181e-07
6.47482e-07
6.47794e-07
6.49358e-07
6.53771e-07
6.61191e-07
6.67021e-07
6.66111e-07
6.64865e-07
6.6486e-07
6.64855e-07
6.66037e-07
6.64808e-07
6.59556e-07
6.51016e-07
6.42023e-07
6.33834e-07
6.26707e-07
6.20183e-07
6.13588e-07
6.08028e-07
6.08856e-07
6.12876e-07
6.24273e-07
6.38045e-07
6.54727e-07
6.46328e-07
5.51627e-07
5.13879e-07
4.82617e-07
0.999996
0.999995
0.999994
0.999993
0.999993
0.999992
0.999991
0.999991
0.99999
0.99999
0.99999
0.99999
0.99999
0.99999
0.99999
0.99999
0.99999
0.99999
0.99999
0.99999
0.99999
0.99999
0.99999
0.99999
0.99999
0.99999
0.99999
0.99999
0.99999
0.99999
0.99999
0.99999
0.99999
0.99999
0.99999
0.99999
0.99999
0.99999
0.99999
0.99999
0.99999
0.99999
0.99999
0.99999
0.99999
0.99999
0.99999
0.99999
0.99999
0.99999
0.999987
0.99997
0.999951
0.999918
0.999887
0.999865
0.999822
0.999311
0.999179
0.961631
0.0317967
3.02189e-05
6.29257e-07
6.60601e-07
6.53182e-07
6.56058e-07
6.59792e-07
6.59781e-07
6.59586e-07
6.59939e-07
6.61282e-07
6.61351e-07
6.62564e-07
6.70041e-07
7.10066e-07
7.30518e-07
6.46537e-07
5.88296e-07
5.5726e-07
5.42514e-07
5.34286e-07
5.31731e-07
5.33537e-07
5.37618e-07
5.49046e-07
5.69897e-07
5.91204e-07
6.01888e-07
6.061e-07
6.16903e-07
6.36934e-07
6.5435e-07
6.3462e-07
5.35649e-07
5.19336e-07
4.80462e-07
0.999996
0.999995
0.999994
0.999994
0.999993
0.999992
0.999991
0.999991
0.99999
0.99999
0.99999
0.99999
0.99999
0.99999
0.99999
0.99999
0.99999
0.99999
0.99999
0.99999
0.99999
0.99999
0.99999
0.99999
0.99999
0.99999
0.99999
0.99999
0.99999
0.99999
0.99999
0.99999
0.99999
0.99999
0.99999
0.99999
0.99999
0.99999
0.99999
0.99999
0.99999
0.99999
0.99999
0.99999
0.99999
0.99999
0.99999
0.99999
0.99999
0.999989
0.999986
0.999971
0.999956
0.999906
0.999866
0.999853
0.999881
0.999399
0.999461
0.958899
0.0343088
1.11677e-05
7.27923e-07
7.3094e-07
6.95004e-07
6.42505e-07
6.09031e-07
6.09039e-07
6.09064e-07
6.0914e-07
6.09218e-07
6.09293e-07
6.21794e-07
6.89659e-07
7.34827e-07
7.38721e-07
6.88281e-07
6.60647e-07
6.3773e-07
6.10955e-07
5.81527e-07
5.6361e-07
5.77694e-07
6.005e-07
6.30206e-07
6.60585e-07
6.72747e-07
6.66143e-07
6.56275e-07
6.57082e-07
6.63821e-07
6.56791e-07
6.04693e-07
5.23123e-07
5.22245e-07
4.75636e-07
0.999996
0.999996
0.999995
0.999994
0.999993
0.999993
0.999992
0.999991
0.99999
0.99999
0.99999
0.99999
0.99999
0.99999
0.99999
0.99999
0.99999
0.99999
0.99999
0.99999
0.99999
0.99999
0.99999
0.99999
0.99999
0.99999
0.99999
0.99999
0.99999
0.99999
0.99999
0.99999
0.99999
0.99999
0.99999
0.99999
0.99999
0.99999
0.99999
0.99999
0.99999
0.99999
0.99999
0.99999
0.99999
0.99999
0.99999
0.99999
0.99999
0.999989
0.999988
0.999982
0.99996
0.999893
0.99985
0.999846
0.999877
0.999585
0.999814
0.945194
0.0290215
3.86829e-05
1.47874e-05
7.1319e-06
5.50713e-06
4.25832e-06
4.24483e-06
4.88642e-06
5.44889e-06
5.9257e-06
6.27124e-06
6.56305e-06
5.45363e-06
4.22141e-06
2.5444e-06
1.36283e-06
8.64421e-07
6.18049e-07
6.01346e-07
5.88818e-07
5.81773e-07
6.03576e-07
6.30266e-07
6.67588e-07
7.22998e-07
7.25188e-07
7.02182e-07
6.67702e-07
6.71569e-07
6.70991e-07
6.67292e-07
6.42051e-07
5.57693e-07
5.25229e-07
5.25313e-07
4.73095e-07
0.999996
0.999996
0.999995
0.999995
0.999994
0.999993
0.999992
0.999992
0.99999
0.99999
0.99999
0.99999
0.99999
0.99999
0.99999
0.99999
0.99999
0.99999
0.99999
0.99999
0.99999
0.99999
0.99999
0.99999
0.99999
0.99999
0.99999
0.99999
0.99999
0.99999
0.99999
0.99999
0.99999
0.99999
0.99999
0.99999
0.99999
0.99999
0.99999
0.99999
0.99999
0.99999
0.99999
0.99999
0.99999
0.99999
0.99999
0.99999
0.99999
0.999989
0.999987
0.999983
0.99995
0.999869
0.99984
0.999836
0.999848
0.999678
0.999871
0.907989
0.0294148
0.000513417
0.000346785
0.000150346
0.000109486
8.21957e-05
7.93707e-05
8.79991e-05
0.000105867
0.000127388
0.000132588
9.83364e-05
8.02263e-05
7.75575e-05
8.92671e-05
0.000106069
0.000107769
0.000110503
9.3429e-05
6.35686e-05
3.09274e-05
9.68069e-06
4.06302e-06
4.65157e-06
2.86172e-06
2.77681e-06
1.84611e-06
1.013e-06
6.6679e-07
6.43453e-07
6.17828e-07
5.69984e-07
5.3074e-07
5.2709e-07
5.10002e-07
4.52385e-07
0.999996
0.999996
0.999996
0.999995
0.999994
0.999993
0.999993
0.999992
0.999991
0.99999
0.99999
0.99999
0.99999
0.99999
0.99999
0.99999
0.99999
0.99999
0.99999
0.99999
0.99999
0.99999
0.99999
0.99999
0.99999
0.99999
0.99999
0.99999
0.99999
0.99999
0.99999
0.99999
0.99999
0.99999
0.99999
0.99999
0.99999
0.99999
0.99999
0.99999
0.99999
0.99999
0.99999
0.99999
0.99999
0.99999
0.99999
0.99999
0.99999
0.999988
0.999984
0.999972
0.999946
0.999867
0.999863
0.999876
0.999886
0.999764
0.999968
0.795025
0.0135914
0.00401431
0.00345265
0.00205638
0.00149207
0.00127203
0.00123286
0.00138425
0.00186903
0.0027405
0.00310461
0.00296389
0.00329556
0.00479061
0.00633668
0.00678131
0.00635103
0.00629881
0.0062567
0.00553688
0.00452063
0.00291316
0.00158531
0.000815905
0.000430587
0.000272222
0.000272392
0.000175124
8.07185e-05
1.82708e-05
3.65587e-07
3.65587e-07
3.65587e-07
3.65587e-07
3.65587e-07
3.65587e-07
0.999996
0.999996
0.999996
0.999995
0.999995
0.999994
0.999993
0.999992
0.999991
0.99999
0.99999
0.99999
0.99999
0.99999
0.99999
0.99999
0.99999
0.99999
0.99999
0.99999
0.99999
0.99999
0.99999
0.99999
0.99999
0.99999
0.99999
0.99999
0.99999
0.99999
0.99999
0.99999
0.99999
0.99999
0.99999
0.99999
0.99999
0.99999
0.99999
0.99999
0.99999
0.99999
0.99999
0.99999
0.99999
0.99999
0.99999
0.99999
0.99999
0.999987
0.999979
0.999967
0.999959
0.999907
0.999884
0.999849
0.999798
0.999805
0.99999
0.652675
0.0205639
0.0132722
0.0129028
0.0113864
0.0103524
0.00994582
0.0098186
0.0104003
0.0119478
0.0139335
0.0151572
0.0160398
0.0169181
0.01779
0.0181179
0.0176985
0.0170247
0.0166958
0.0167375
0.0181661
0.0197226
0.0207292
0.0208355
0.0199041
0.0190889
0.0190061
0.0192517
0.0195151
0.019746
0.0196311
0.0208591
0.0220676
0.0225801
0.0231444
0.0233628
0.0199509
0.999996
0.999995
0.999995
0.999995
0.999995
0.999994
0.999993
0.999992
0.999991
0.999991
0.99999
0.99999
0.99999
0.99999
0.99999
0.99999
0.99999
0.99999
0.99999
0.99999
0.99999
0.99999
0.99999
0.99999
0.99999
0.99999
0.99999
0.99999
0.99999
0.99999
0.99999
0.99999
0.99999
0.99999
0.99999
0.99999
0.99999
0.99999
0.99999
0.99999
0.99999
0.99999
0.99999
0.99999
0.99999
0.99999
0.99999
0.99999
0.99999
0.999987
0.999979
0.999964
0.999945
0.999929
0.99991
0.999873
0.999833
0.999812
0.99999
0.64635
0.0233866
0.0180949
0.018646
0.0186089
0.0161627
0.0140084
0.0137528
0.0164287
0.0169465
0.0167487
0.017504
0.017504
0.017504
0.0174306
0.0159424
0.0149891
0.0135812
0.0123769
0.0117279
0.0126159
0.0188682
0.0245604
0.0262314
0.0253712
0.022852
0.0220539
0.0222688
0.022638
0.0222494
0.0215485
0.0207717
0.0198368
0.0179599
0.0150369
0.0104595
0.00558088
0.999996
0.999995
0.999994
0.999994
0.999994
0.999993
0.999992
0.999991
0.999991
0.999991
0.99999
0.99999
0.99999
0.99999
0.99999
0.99999
0.99999
0.99999
0.99999
0.99999
0.99999
0.99999
0.99999
0.99999
0.99999
0.99999
0.99999
0.99999
0.99999
0.99999
0.99999
0.99999
0.99999
0.99999
0.99999
0.99999
0.99999
0.99999
0.99999
0.99999
0.99999
0.99999
0.99999
0.99999
0.99999
0.99999
0.99999
0.99999
0.999989
0.999987
0.999979
0.999965
0.999944
0.999916
0.999907
0.999891
0.999872
0.999851
0.99999
0.630468
0.0220942
0.0155872
0.0140199
0.0133479
0.0151873
0.0145941
0.0117534
0.0114032
0.0114369
0.0116228
0.0101884
0.0082228
0.00641121
0.00474178
0.00361183
0.0029206
0.00259341
0.00254633
0.00377241
0.00659562
0.00771751
0.00772767
0.00979066
0.0112298
0.0115885
0.0123659
0.0130813
0.0136312
0.0136367
0.0121715
0.00997023
0.00803161
0.00570507
0.00331908
0.00142919
0.00058977
0.999996
0.999996
0.999994
0.999994
0.999993
0.999992
0.999992
0.999991
0.999991
0.999991
0.99999
0.99999
0.99999
0.99999
0.99999
0.99999
0.99999
0.99999
0.99999
0.99999
0.99999
0.99999
0.99999
0.99999
0.99999
0.99999
0.99999
0.99999
0.99999
0.99999
0.99999
0.99999
0.99999
0.99999
0.99999
0.99999
0.99999
0.99999
0.99999
0.99999
0.99999
0.99999
0.99999
0.99999
0.99999
0.99999
0.99999
0.99999
0.99999
0.999987
0.99998
0.999967
0.999952
0.999932
0.999904
0.999893
0.999896
0.999875
0.99999
0.657297
0.0118334
0.00704257
0.00687845
0.00711858
0.00757591
0.00638214
0.00475528
0.0038642
0.00312083
0.00248994
0.00164944
0.000980929
0.000614268
0.000421488
0.000344827
0.000311263
0.000299418
0.000310959
0.000364843
0.000577269
0.000921579
0.00123631
0.00146167
0.00166562
0.0019276
0.00215348
0.00226263
0.00248184
0.00263475
0.00202042
0.00123907
0.000758488
0.000376841
0.000143343
4.26298e-05
1.64155e-05
0.999996
0.999996
0.999995
0.999994
0.999993
0.999992
0.999992
0.999991
0.999991
0.99999
0.99999
0.99999
0.99999
0.99999
0.99999
0.99999
0.99999
0.99999
0.99999
0.99999
0.99999
0.99999
0.99999
0.99999
0.99999
0.99999
0.99999
0.99999
0.99999
0.99999
0.99999
0.99999
0.99999
0.99999
0.99999
0.99999
0.99999
0.99999
0.99999
0.99999
0.99999
0.99999
0.99999
0.99999
0.99999
0.99999
0.99999
0.99999
0.99999
0.999988
0.999981
0.999967
0.99995
0.999933
0.99991
0.999895
0.999877
0.999813
0.999987
0.756746
0.00358457
0.00128293
0.00126125
0.00114088
0.00106315
0.000837246
0.000591296
0.000358905
0.0001932
9.75257e-05
4.3572e-05
1.91806e-05
1.01168e-05
6.38104e-06
4.78849e-06
4.14334e-06
4.12974e-06
6.39522e-06
8.98246e-06
1.32415e-05
2.07804e-05
3.30915e-05
4.54116e-05
5.37578e-05
5.94009e-05
6.38802e-05
6.69515e-05
6.67024e-05
6.00318e-05
4.5806e-05
2.26854e-05
9.41635e-06
3.2636e-06
1.13459e-06
7.96614e-07
1.00854e-06
0.999997
0.999997
0.999996
0.999996
0.999994
0.999992
0.999991
0.999991
0.99999
0.99999
0.99999
0.99999
0.99999
0.99999
0.99999
0.99999
0.99999
0.99999
0.99999
0.99999
0.99999
0.99999
0.99999
0.99999
0.99999
0.99999
0.99999
0.99999
0.99999
0.99999
0.99999
0.99999
0.99999
0.99999
0.99999
0.99999
0.99999
0.99999
0.99999
0.99999
0.99999
0.99999
0.99999
0.99999
0.99999
0.99999
0.99999
0.99999
0.99999
0.999988
0.999981
0.999965
0.99995
0.999931
0.99991
0.999894
0.999888
0.999771
0.999886
0.85232
0.00545452
4.6979e-05
3.92143e-05
2.64814e-05
2.22365e-05
1.47327e-05
1.06272e-05
4.67547e-06
1.80418e-06
9.48717e-07
8.62993e-07
7.34366e-07
6.06856e-07
5.98672e-07
5.97743e-07
5.85014e-07
5.40353e-07
4.75558e-07
4.0688e-07
3.13487e-07
2.64802e-07
2.64802e-07
2.64802e-07
2.64802e-07
2.64802e-07
6.79637e-07
1.38239e-06
6.85373e-07
4.16864e-07
6.26088e-07
7.92306e-07
8.44619e-07
8.8888e-07
7.65394e-07
6.71073e-07
6.53821e-07
0.999997
0.999997
0.999998
0.999998
0.999997
0.999994
0.999991
0.999991
0.99999
0.99999
0.99999
0.99999
0.99999
0.99999
0.99999
0.99999
0.99999
0.99999
0.99999
0.99999
0.99999
0.99999
0.99999
0.99999
0.99999
0.99999
0.99999
0.99999
0.99999
0.99999
0.99999
0.99999
0.99999
0.99999
0.99999
0.99999
0.99999
0.99999
0.99999
0.99999
0.99999
0.99999
0.99999
0.99999
0.99999
0.99999
0.99999
0.99999
0.99999
0.999988
0.99998
0.999965
0.999953
0.999936
0.999912
0.999897
0.9999
0.999733
0.999627
0.913606
0.0462908
7.11838e-07
8.07949e-07
5.11418e-07
7.17341e-07
7.14629e-07
7.65347e-07
8.08831e-07
8.1123e-07
7.87264e-07
7.45819e-07
7.0424e-07
6.68638e-07
6.45316e-07
6.23762e-07
5.95827e-07
5.60544e-07
5.19895e-07
4.76067e-07
4.34182e-07
3.97327e-07
3.73705e-07
3.67568e-07
3.59537e-07
3.46843e-07
3.31123e-07
3.24871e-07
3.03205e-07
2.06944e-07
2.26568e-07
3.93899e-07
5.58283e-07
6.29752e-07
6.39375e-07
5.90404e-07
5.3156e-07
0.999998
0.999998
0.999998
0.999998
0.999998
0.999997
0.999993
0.99999
0.99999
0.99999
0.99999
0.99999
0.99999
0.99999
0.99999
0.99999
0.99999
0.99999
0.99999
0.99999
0.99999
0.99999
0.99999
0.99999
0.99999
0.99999
0.99999
0.99999
0.99999
0.99999
0.99999
0.99999
0.99999
0.99999
0.99999
0.99999
0.99999
0.99999
0.99999
0.99999
0.99999
0.99999
0.99999
0.99999
0.99999
0.99999
0.99999
0.99999
0.99999
0.999988
0.99998
0.999967
0.999953
0.999939
0.999919
0.999904
0.999899
0.999598
0.998677
0.91474
0.0410885
3.38521e-05
3.19801e-07
3.71712e-07
3.85937e-07
3.85708e-07
3.85189e-07
3.89011e-07
4.03919e-07
4.29361e-07
4.46266e-07
4.60538e-07
4.59522e-07
4.53926e-07
4.43576e-07
4.28491e-07
4.09625e-07
3.89077e-07
3.68695e-07
3.52416e-07
3.39386e-07
3.37172e-07
3.41456e-07
3.45456e-07
3.41757e-07
3.31562e-07
3.23289e-07
3.14461e-07
2.5779e-07
1.85095e-07
2.09709e-07
3.23816e-07
4.24294e-07
4.65879e-07
4.55844e-07
3.83717e-07
0.999999
0.999998
0.999998
0.999998
0.999998
0.999998
0.999997
0.999991
0.99999
0.99999
0.99999
0.99999
0.99999
0.99999
0.99999
0.99999
0.99999
0.99999
0.99999
0.99999
0.99999
0.99999
0.99999
0.99999
0.99999
0.99999
0.99999
0.99999
0.99999
0.99999
0.99999
0.99999
0.99999
0.99999
0.99999
0.99999
0.99999
0.99999
0.99999
0.99999
0.99999
0.99999
0.99999
0.99999
0.99999
0.99999
0.99999
0.99999
0.99999
0.999988
0.999982
0.999968
0.999945
0.999933
0.999924
0.999908
0.999911
0.99967
0.99861
0.929431
0.0427808
0.000186935
3.30958e-07
3.2483e-07
3.23486e-07
3.23613e-07
3.24184e-07
3.24651e-07
3.25245e-07
3.26195e-07
3.27449e-07
3.28308e-07
3.28602e-07
3.28543e-07
3.28489e-07
3.28385e-07
3.28215e-07
3.28114e-07
3.27858e-07
3.2727e-07
3.26772e-07
3.27853e-07
3.33424e-07
3.39667e-07
3.36635e-07
3.27267e-07
3.19231e-07
3.19898e-07
3.10341e-07
2.86021e-07
2.18033e-07
1.91248e-07
2.17908e-07
2.42889e-07
2.47742e-07
2.12162e-07
0.999995
0.999994
0.999993
0.999993
0.999993
0.999992
0.999991
0.999991
0.99999
0.99999
0.99999
0.99999
0.99999
0.99999
0.99999
0.99999
0.99999
0.99999
0.99999
0.99999
0.99999
0.99999
0.99999
0.99999
0.99999
0.99999
0.99999
0.99999
0.99999
0.99999
0.99999
0.99999
0.99999
0.99999
0.99999
0.99999
0.99999
0.99999
0.99999
0.99999
0.99999
0.99999
0.99999
0.99999
0.99999
0.99999
0.99999
0.99999
0.99999
0.99999
0.999989
0.99998
0.999951
0.999928
0.999923
0.99988
0.999754
0.999031
0.996814
0.935089
0.053803
0.000342708
1.00889e-06
6.34827e-07
6.38358e-07
6.38636e-07
6.38511e-07
6.38955e-07
6.40191e-07
6.42721e-07
6.47641e-07
6.54674e-07
6.61271e-07
6.65576e-07
6.67177e-07
6.67109e-07
6.67298e-07
6.67221e-07
6.6681e-07
6.66036e-07
6.64778e-07
6.63287e-07
6.61504e-07
6.59957e-07
6.5596e-07
6.47146e-07
6.36874e-07
6.34175e-07
6.37416e-07
6.46053e-07
6.56964e-07
6.66036e-07
6.63921e-07
6.37853e-07
6.15232e-07
5.39601e-07
0.999996
0.999994
0.999993
0.999992
0.999992
0.999991
0.999991
0.999991
0.99999
0.99999
0.99999
0.99999
0.99999
0.99999
0.99999
0.99999
0.99999
0.99999
0.99999
0.99999
0.99999
0.99999
0.99999
0.99999
0.99999
0.99999
0.99999
0.99999
0.99999
0.99999
0.99999
0.99999
0.99999
0.99999
0.99999
0.99999
0.99999
0.99999
0.99999
0.99999
0.99999
0.99999
0.99999
0.99999
0.99999
0.99999
0.99999
0.99999
0.99999
0.999989
0.999989
0.999978
0.999947
0.999931
0.999929
0.999895
0.999717
0.999118
0.998094
0.942393
0.0382469
4.39033e-05
6.28576e-07
6.52193e-07
6.48473e-07
6.42615e-07
6.42384e-07
6.42802e-07
6.43557e-07
6.44652e-07
6.47783e-07
6.54865e-07
6.6426e-07
6.68927e-07
6.68599e-07
6.6687e-07
6.65283e-07
6.55164e-07
6.21178e-07
5.69568e-07
5.21694e-07
4.87133e-07
4.63198e-07
4.52326e-07
4.569e-07
4.77673e-07
5.12306e-07
5.41159e-07
5.46469e-07
5.58961e-07
5.89992e-07
6.32545e-07
6.52781e-07
6.35636e-07
6.20514e-07
5.52181e-07
0.999996
0.999995
0.999993
0.999993
0.999992
0.999992
0.999991
0.999991
0.999991
0.99999
0.99999
0.99999
0.99999
0.99999
0.99999
0.99999
0.99999
0.99999
0.99999
0.99999
0.99999
0.99999
0.99999
0.99999
0.99999
0.99999
0.99999
0.99999
0.99999
0.99999
0.99999
0.99999
0.99999
0.99999
0.99999
0.99999
0.99999
0.99999
0.99999
0.99999
0.99999
0.99999
0.99999
0.99999
0.99999
0.99999
0.99999
0.99999
0.99999
0.999988
0.999987
0.999977
0.999954
0.999926
0.99992
0.999889
0.999786
0.999325
0.999022
0.958276
0.0328839
9.96318e-07
1.00809e-06
7.631e-07
6.34015e-07
6.33163e-07
6.37755e-07
6.33078e-07
6.34455e-07
6.39635e-07
6.41491e-07
6.4235e-07
6.51586e-07
6.87557e-07
7.54372e-07
7.18111e-07
5.34427e-07
4.10725e-07
3.56575e-07
3.29628e-07
3.1767e-07
3.18583e-07
3.43909e-07
4.03892e-07
5.01926e-07
6.01947e-07
6.40739e-07
6.34156e-07
6.20216e-07
6.08307e-07
6.15731e-07
6.40738e-07
6.44961e-07
6.25583e-07
6.17934e-07
5.49857e-07
0.999997
0.999996
0.999994
0.999993
0.999993
0.999993
0.999992
0.999992
0.999991
0.999991
0.99999
0.99999
0.99999
0.99999
0.99999
0.99999
0.99999
0.99999
0.99999
0.99999
0.99999
0.99999
0.99999
0.99999
0.99999
0.99999
0.99999
0.99999
0.99999
0.99999
0.99999
0.99999
0.99999
0.99999
0.99999
0.99999
0.99999
0.99999
0.99999
0.99999
0.99999
0.99999
0.99999
0.99999
0.99999
0.99999
0.99999
0.99999
0.999989
0.999988
0.999986
0.999979
0.99996
0.999911
0.999882
0.999863
0.999847
0.999421
0.999492
0.960864
0.0272061
9.92712e-07
8.64403e-06
1.09262e-06
6.40351e-07
6.10536e-07
1.09707e-06
1.3772e-06
7.15355e-07
6.09218e-07
6.13435e-07
6.60033e-07
1.0561e-06
1.17793e-06
1.08366e-06
1.20252e-06
9.2397e-07
6.9195e-07
7.58078e-07
7.17921e-07
6.11458e-07
6.38042e-07
7.5672e-07
8.09782e-07
8.16934e-07
7.65882e-07
7.13374e-07
6.77993e-07
6.58823e-07
6.58321e-07
6.6094e-07
6.56517e-07
6.32993e-07
6.11765e-07
6.18582e-07
5.43613e-07
0.999997
0.999997
0.999995
0.999994
0.999993
0.999993
0.999992
0.999992
0.999991
0.999991
0.99999
0.99999
0.99999
0.99999
0.99999
0.99999
0.99999
0.99999
0.99999
0.99999
0.99999
0.99999
0.99999
0.99999
0.99999
0.99999
0.99999
0.99999
0.99999
0.99999
0.99999
0.99999
0.99999
0.99999
0.99999
0.99999
0.99999
0.99999
0.99999
0.99999
0.99999
0.99999
0.99999
0.99999
0.99999
0.99999
0.99999
0.99999
0.999989
0.999988
0.999987
0.999982
0.999957
0.999887
0.999852
0.99984
0.999881
0.999538
0.999767
0.933833
0.0141783
0.000193966
0.000145556
6.89849e-05
5.73577e-05
5.29991e-05
5.90556e-05
6.62974e-05
7.86834e-05
9.34997e-05
0.000106222
0.000112636
0.000118629
0.000128054
0.000130655
0.000133568
0.000138566
0.000119578
7.17463e-05
3.06111e-05
1.36122e-05
7.114e-06
3.74266e-06
2.26042e-06
1.5304e-06
1.03562e-06
8.68377e-07
8.59687e-07
6.99303e-07
6.25442e-07
6.59659e-07
6.45542e-07
6.03197e-07
6.05041e-07
6.19957e-07
5.35454e-07
0.999997
0.999997
0.999996
0.999994
0.999994
0.999993
0.999993
0.999992
0.999991
0.999991
0.99999
0.99999
0.99999
0.99999
0.99999
0.99999
0.99999
0.99999
0.99999
0.99999
0.99999
0.99999
0.99999
0.99999
0.99999
0.99999
0.99999
0.99999
0.99999
0.99999
0.99999
0.99999
0.99999
0.99999
0.99999
0.99999
0.99999
0.99999
0.99999
0.99999
0.99999
0.99999
0.99999
0.99999
0.99999
0.99999
0.99999
0.99999
0.999989
0.999988
0.999985
0.999975
0.999917
0.999842
0.999829
0.999798
0.999782
0.99971
0.999904
0.886442
0.0164316
0.00216923
0.00177004
0.00106515
0.000915952
0.000930929
0.00110643
0.00120596
0.00148561
0.0019377
0.00218745
0.00229799
0.00243369
0.00261152
0.00276757
0.0033747
0.00425073
0.00445751
0.00355794
0.00252055
0.00189995
0.00141393
0.000872179
0.000513948
0.000337647
0.000216836
0.00012006
5.74246e-05
1.8899e-05
2.93229e-06
5.88856e-07
5.88877e-07
5.59152e-07
5.6482e-07
5.86631e-07
5.06847e-07
0.999997
0.999997
0.999996
0.999996
0.999994
0.999994
0.999993
0.999992
0.999991
0.999991
0.99999
0.99999
0.99999
0.99999
0.99999
0.99999
0.99999
0.99999
0.99999
0.99999
0.99999
0.99999
0.99999
0.99999
0.99999
0.99999
0.99999
0.99999
0.99999
0.99999
0.99999
0.99999
0.99999
0.99999
0.99999
0.99999
0.99999
0.99999
0.99999
0.99999
0.99999
0.99999
0.99999
0.99999
0.99999
0.99999
0.99999
0.99999
0.999989
0.999987
0.999983
0.999963
0.999899
0.999883
0.99988
0.999902
0.999927
0.999951
0.99999
0.777477
0.0207046
0.00979012
0.00900663
0.00653126
0.0058459
0.0059061
0.00639367
0.00667072
0.00832593
0.0103686
0.0109344
0.011721
0.0134655
0.0145631
0.0151981
0.015681
0.0158937
0.0156326
0.016082
0.0166536
0.0165622
0.0152046
0.0129254
0.0111578
0.00961119
0.0081635
0.00662679
0.00498822
0.00353043
0.00208758
0.000636292
1.25181e-05
2.15631e-05
2.54067e-05
3.47711e-05
6.31059e-05
0.999997
0.999997
0.999997
0.999996
0.999995
0.999994
0.999993
0.999992
0.999991
0.999991
0.99999
0.99999
0.99999
0.99999
0.99999
0.99999
0.99999
0.99999
0.99999
0.99999
0.99999
0.99999
0.99999
0.99999
0.99999
0.99999
0.99999
0.99999
0.99999
0.99999
0.99999
0.99999
0.99999
0.99999
0.99999
0.99999
0.99999
0.99999
0.99999
0.99999
0.99999
0.99999
0.99999
0.99999
0.99999
0.99999
0.99999
0.99999
0.999989
0.999987
0.999983
0.999975
0.999941
0.999912
0.999894
0.999745
0.999747
0.999888
0.99999
0.679049
0.0264996
0.0202847
0.0224912
0.0225214
0.0222071
0.0209091
0.0202942
0.0198661
0.0212287
0.0239173
0.0244626
0.0249325
0.0251934
0.0251666
0.0250891
0.0233624
0.0223505
0.0229351
0.026694
0.0292195
0.0297054
0.0301513
0.0319765
0.0340791
0.0348623
0.0351307
0.0356953
0.0367905
0.0413386
0.0459312
0.0515461
0.059191
0.0715525
0.0938602
0.145979
0.350114
0.999997
0.999997
0.999997
0.999997
0.999996
0.999995
0.999994
0.999992
0.999991
0.999991
0.99999
0.99999
0.99999
0.99999
0.99999
0.99999
0.99999
0.99999
0.99999
0.99999
0.99999
0.99999
0.99999
0.99999
0.99999
0.99999
0.99999
0.99999
0.99999
0.99999
0.99999
0.99999
0.99999
0.99999
0.99999
0.99999
0.99999
0.99999
0.99999
0.99999
0.99999
0.99999
0.99999
0.99999
0.99999
0.99999
0.99999
0.99999
0.999989
0.999988
0.999984
0.999972
0.999925
0.999891
0.999891
0.999822
0.999784
0.999781
0.99999
0.705988
0.0239176
0.0160782
0.0185298
0.0198347
0.0192695
0.016405
0.0155111
0.0171779
0.0187528
0.0179877
0.0150069
0.013625
0.0118847
0.00942348
0.00782374
0.00730512
0.00911464
0.0117321
0.0132807
0.0149218
0.0170081
0.0201793
0.0234217
0.0256721
0.0276556
0.0306946
0.0348976
0.0383898
0.0409881
0.0446876
0.0498161
0.0561164
0.0626406
0.0680417
0.071466
0.0677476
0.999997
0.999997
0.999997
0.999997
0.999996
0.999996
0.999994
0.999992
0.999991
0.999991
0.99999
0.99999
0.99999
0.99999
0.99999
0.99999
0.99999
0.99999
0.99999
0.99999
0.99999
0.99999
0.99999
0.99999
0.99999
0.99999
0.99999
0.99999
0.99999
0.99999
0.99999
0.99999
0.99999
0.99999
0.99999
0.99999
0.99999
0.99999
0.99999
0.99999
0.99999
0.99999
0.99999
0.99999
0.99999
0.99999
0.99999
0.99999
0.99999
0.999988
0.999983
0.99997
0.999923
0.999893
0.999889
0.999886
0.999882
0.999922
0.99999
0.710169
0.0159334
0.00932176
0.00920418
0.00905893
0.00947543
0.00849227
0.0073434
0.00679863
0.00594125
0.00472172
0.00341328
0.00232947
0.00167065
0.0014515
0.00142801
0.00147537
0.00136045
0.00135539
0.00201031
0.00328561
0.00432558
0.00514294
0.00602077
0.00684982
0.00733077
0.00765126
0.00902095
0.0114676
0.0130993
0.0137314
0.0140513
0.0146064
0.0152261
0.0135294
0.00723453
0.0031611
0.999997
0.999997
0.999997
0.999996
0.999996
0.999995
0.999994
0.999992
0.999991
0.999991
0.99999
0.99999
0.99999
0.99999
0.99999
0.99999
0.99999
0.99999
0.99999
0.99999
0.99999
0.99999
0.99999
0.99999
0.99999
0.99999
0.99999
0.99999
0.99999
0.99999
0.99999
0.99999
0.99999
0.99999
0.99999
0.99999
0.99999
0.99999
0.99999
0.99999
0.99999
0.99999
0.99999
0.99999
0.99999
0.99999
0.99999
0.99999
0.99999
0.999988
0.999983
0.999972
0.999954
0.999924
0.999899
0.999915
0.999925
0.999948
0.999973
0.778975
0.00624431
0.00199541
0.00179699
0.00168064
0.00183089
0.00159214
0.00119341
0.000838371
0.000542478
0.000355304
0.00022048
0.000135298
0.000101766
9.64124e-05
0.000104743
0.000108312
0.000108775
0.000115034
0.000180732
0.000336762
0.00045711
0.000568214
0.000734379
0.000860613
0.000914399
0.000918645
0.000803479
0.000749214
0.000732152
0.00073657
0.000669984
0.000484761
0.000377618
0.00026939
9.98436e-05
3.64469e-05
0.999997
0.999998
0.999997
0.999996
0.999995
0.999994
0.999993
0.999991
0.999991
0.99999
0.99999
0.99999
0.99999
0.99999
0.99999
0.99999
0.99999
0.99999
0.99999
0.99999
0.99999
0.99999
0.99999
0.99999
0.99999
0.99999
0.99999
0.99999
0.99999
0.99999
0.99999
0.99999
0.99999
0.99999
0.99999
0.99999
0.99999
0.99999
0.99999
0.99999
0.99999
0.99999
0.99999
0.99999
0.99999
0.99999
0.99999
0.99999
0.99999
0.999988
0.999983
0.99997
0.999954
0.999944
0.999911
0.99986
0.999834
0.999854
0.999941
0.833247
0.00190776
0.000239682
0.000209921
0.00016872
0.000157949
0.000124212
8.63751e-05
4.73575e-05
2.40401e-05
1.28136e-05
7.45501e-06
5.12248e-06
4.28034e-06
4.03969e-06
4.15137e-06
4.58301e-06
5.03433e-06
5.94828e-06
7.81177e-06
1.12686e-05
1.63322e-05
2.24401e-05
2.81873e-05
3.12666e-05
3.12601e-05
2.47823e-05
1.84129e-05
1.28152e-05
7.7074e-06
5.05421e-06
3.38617e-06
2.11609e-06
1.20346e-06
9.07076e-07
9.36654e-07
9.81551e-07
0.999998
0.999998
0.999998
0.999997
0.999996
0.999993
0.999992
0.999991
0.999991
0.99999
0.99999
0.99999
0.99999
0.99999
0.99999
0.99999
0.99999
0.99999
0.99999
0.99999
0.99999
0.99999
0.99999
0.99999
0.99999
0.99999
0.99999
0.99999
0.99999
0.99999
0.99999
0.99999
0.99999
0.99999
0.99999
0.99999
0.99999
0.99999
0.99999
0.99999
0.99999
0.99999
0.99999
0.99999
0.99999
0.99999
0.99999
0.99999
0.99999
0.999988
0.999983
0.999969
0.999952
0.999939
0.999922
0.999879
0.999856
0.999758
0.999813
0.873074
0.0053647
3.29676e-06
5.79537e-06
2.8302e-06
2.65341e-06
1.74475e-06
1.27187e-06
1.11374e-06
1.13858e-06
8.26377e-07
8.88434e-07
8.78275e-07
8.46149e-07
7.85925e-07
7.20502e-07
6.60634e-07
6.06697e-07
5.60118e-07
5.22342e-07
4.94013e-07
4.68925e-07
4.54619e-07
4.63258e-07
4.94978e-07
5.74151e-07
5.52363e-07
5.24517e-07
6.46622e-07
5.44773e-07
4.13269e-07
4.01306e-07
3.8607e-07
3.54628e-07
3.10848e-07
2.88626e-07
3.10334e-07
0.999998
0.999998
0.999998
0.999998
0.999997
0.999995
0.999992
0.999991
0.999991
0.99999
0.99999
0.99999
0.99999
0.99999
0.99999
0.99999
0.99999
0.99999
0.99999
0.99999
0.99999
0.99999
0.99999
0.99999
0.99999
0.99999
0.99999
0.99999
0.99999
0.99999
0.99999
0.99999
0.99999
0.99999
0.99999
0.99999
0.99999
0.99999
0.99999
0.99999
0.99999
0.99999
0.99999
0.99999
0.99999
0.99999
0.99999
0.99999
0.99999
0.999988
0.999982
0.999968
0.999951
0.999937
0.999927
0.999899
0.99989
0.999743
0.999346
0.907607
0.0302498
3.19578e-07
9.77253e-07
4.95835e-07
6.64258e-07
6.98821e-07
7.34968e-07
7.36054e-07
7.32729e-07
7.17599e-07
7.05806e-07
6.93116e-07
6.78241e-07
6.6102e-07
6.41165e-07
6.18554e-07
5.94938e-07
5.69864e-07
5.40527e-07
5.09357e-07
4.75191e-07
4.60394e-07
4.28061e-07
3.87272e-07
3.52592e-07
3.28713e-07
3.21833e-07
3.00684e-07
1.98682e-07
1.9854e-07
2.44375e-07
2.82283e-07
2.87419e-07
2.57076e-07
2.15158e-07
1.7893e-07
0.999998
0.999998
0.999999
0.999998
0.999998
0.999997
0.999993
0.999991
0.99999
0.99999
0.99999
0.99999
0.99999
0.99999
0.99999
0.99999
0.99999
0.99999
0.99999
0.99999
0.99999
0.99999
0.99999
0.99999
0.99999
0.99999
0.99999
0.99999
0.99999
0.99999
0.99999
0.99999
0.99999
0.99999
0.99999
0.99999
0.99999
0.99999
0.99999
0.99999
0.99999
0.99999
0.99999
0.99999
0.99999
0.99999
0.99999
0.99999
0.99999
0.999988
0.999981
0.999968
0.99995
0.999935
0.999929
0.999913
0.999877
0.999602
0.997573
0.915958
0.0566002
3.19578e-07
5.74933e-07
5.5515e-07
5.18817e-07
4.69054e-07
4.74217e-07
4.94096e-07
5.23387e-07
5.48193e-07
5.6124e-07
5.56733e-07
5.45981e-07
5.3005e-07
5.12337e-07
4.92453e-07
4.71196e-07
4.49106e-07
4.26507e-07
4.07642e-07
3.91639e-07
4.01476e-07
4.01366e-07
3.83154e-07
3.56649e-07
3.33095e-07
3.21742e-07
3.12068e-07
2.63026e-07
1.9829e-07
1.9955e-07
2.13206e-07
2.47709e-07
2.60222e-07
2.43083e-07
2.07417e-07
0.999999
0.999999
0.999999
0.999999
0.999999
0.999999
0.999995
0.999991
0.99999
0.99999
0.99999
0.99999
0.99999
0.99999
0.99999
0.99999
0.99999
0.99999
0.99999
0.99999
0.99999
0.99999
0.99999
0.99999
0.99999
0.99999
0.99999
0.99999
0.99999
0.99999
0.99999
0.99999
0.99999
0.99999
0.99999
0.99999
0.99999
0.99999
0.99999
0.99999
0.99999
0.99999
0.99999
0.99999
0.99999
0.99999
0.99999
0.99999
0.99999
0.999988
0.999981
0.999966
0.999946
0.999932
0.999927
0.999912
0.999911
0.999539
0.996728
0.923857
0.0661576
0.00048459
8.25794e-07
3.51508e-07
3.37931e-07
3.249e-07
3.166e-07
3.16966e-07
3.19539e-07
3.23922e-07
3.28136e-07
3.31416e-07
3.34084e-07
3.35589e-07
3.37075e-07
3.389e-07
3.41622e-07
3.46025e-07
3.50402e-07
3.55725e-07
3.60337e-07
3.79189e-07
3.88475e-07
3.745e-07
3.51765e-07
3.29535e-07
3.18727e-07
3.20856e-07
3.14054e-07
2.97909e-07
2.37726e-07
1.86759e-07
1.87838e-07
1.9609e-07
1.94643e-07
1.80139e-07
0.999996
0.999994