/*--------------------------------*- C++ -*----------------------------------*\
| =========                 |                                                 |
| \\      /  F ield         | OpenFOAM: The Open Source CFD Toolbox           |
|  \\    /   O peration     | Version:  2.3.0                                 |
|   \\  /    A nd           | Web:      www.OpenFOAM.org                      |
|    \\/     M anipulation  |                                                 |
\*---------------------------------------------------------------------------*/
FoamFile
{
    version     2.0;
    format      ascii;
    class       volScalarField;
    location    "28";
    object      epsilon.water;
}
// * * * * * * * * * * * * * * * * * * * * * * * * * * * * * * * * * * * * * //

dimensions      [0 2 -3 0 0 0 0];

internalField   nonuniform List<scalar> 
6144
(
5.33104e-05
3.32237e-05
1.96994e-05
1.48861e-05
9.97096e-06
8.19018e-06
5.96761e-06
4.9137e-06
4.83059e-06
5.8568e-06
6.9878e-06
8.26203e-06
8.96617e-06
9.19537e-06
8.89261e-06
8.54152e-06
8.00331e-06
7.8158e-06
7.69218e-06
7.62595e-06
7.58611e-06
7.58388e-06
7.60238e-06
7.64027e-06
7.69171e-06
7.7557e-06
7.82806e-06
7.90046e-06
7.97118e-06
8.03079e-06
8.11487e-06
8.18512e-06
8.30523e-06
8.3189e-06
8.46496e-06
8.46602e-06
8.66986e-06
8.71715e-06
9.00323e-06
9.1943e-06
9.42395e-06
9.73589e-06
9.64377e-06
9.85237e-06
9.46993e-06
9.94473e-06
1.06426e-05
1.24268e-05
1.60512e-05
1.4356e-05
1.86673e-05
4.32942e-05
0.000146058
0.000435452
0.0009312
0.00145841
0.00199927
0.00617603
0.0189971
0.0280785
0.0844427
0.0441866
0.0265598
0.0160361
0.0107306
0.0080347
0.00635627
0.00514368
0.00416936
0.00331793
0.00256746
0.00192224
0.00138355
0.000959436
0.00066843
0.000502762
0.000418344
0.000392275
0.000392629
0.000397364
0.000407454
0.000416412
0.000425233
0.000429107
0.000438548
0.000454741
0.000483763
0.000510835
0.000509361
0.000500214
0.000478946
0.000447393
0.000365902
0.000180344
0.00020493
0.000233257
0.000109691
6.20738e-05
3.77344e-05
2.91913e-05
2.14554e-05
2.01538e-05
1.69477e-05
1.64927e-05
1.74427e-05
1.99322e-05
2.13181e-05
2.22071e-05
2.25803e-05
2.25987e-05
2.19412e-05
2.13898e-05
2.08513e-05
2.099e-05
2.12979e-05
2.15836e-05
2.18766e-05
2.21934e-05
2.24877e-05
2.27708e-05
2.30442e-05
2.33172e-05
2.35908e-05
2.38559e-05
2.41162e-05
2.43582e-05
2.47235e-05
2.50576e-05
2.54499e-05
2.55937e-05
2.59746e-05
2.60353e-05
2.65024e-05
2.66156e-05
2.72044e-05
2.74966e-05
2.78767e-05
2.81393e-05
2.82066e-05
2.82557e-05
2.89381e-05
2.98274e-05
3.39157e-05
3.88453e-05
4.95451e-05
5.37629e-05
6.83437e-05
0.000125761
0.000401112
0.00115665
0.00202587
0.00309772
0.00600376
0.0138582
0.0226413
0.0241661
0.0473454
0.0131357
0.00724519
0.00501889
0.00409989
0.00358597
0.00320066
0.00289145
0.00259137
0.00226046
0.00189951
0.00152574
0.00115626
0.000823601
0.000645399
0.000623835
0.000672737
0.000802523
0.000907422
0.000928522
0.000912797
0.000877727
0.000836719
0.000810843
0.000813653
0.000829184
0.00085893
0.000856182
0.000828498
0.000747352
0.000617603
0.000524068
0.000358637
0.00018095
0.000216196
0.000255481
0.000141399
9.02711e-05
6.30062e-05
4.89932e-05
3.67251e-05
3.46657e-05
2.84011e-05
2.58222e-05
2.6694e-05
2.86082e-05
2.95123e-05
2.84587e-05
2.71124e-05
2.64206e-05
2.60301e-05
2.60014e-05
2.65183e-05
2.74998e-05
2.8502e-05
2.93723e-05
3.01887e-05
3.09206e-05
3.15219e-05
3.20325e-05
3.24755e-05
3.28828e-05
3.32709e-05
3.36416e-05
3.40043e-05
3.43515e-05
3.47037e-05
3.49914e-05
3.52805e-05
3.53848e-05
3.55546e-05
3.54991e-05
3.5574e-05
3.54168e-05
3.54008e-05
3.52496e-05
3.52479e-05
3.53048e-05
3.59418e-05
3.66574e-05
3.89617e-05
4.08563e-05
4.52585e-05
5.06649e-05
6.17289e-05
0.000104359
0.000161891
0.000293352
0.000825284
0.00195962
0.00267391
0.00382131
0.00530191
0.0111896
0.0139737
0.0133536
0.0323463
0.00485475
0.00310066
0.00275642
0.00265206
0.00252529
0.00233484
0.00213779
0.0018966
0.0016428
0.00138782
0.00106891
0.000844051
0.000808182
0.000997588
0.00150119
0.00149584
0.00136067
0.0012183
0.00109413
0.00099327
0.000910555
0.000852987
0.000835045
0.000840115
0.000862967
0.0008704
0.0008566
0.000807301
0.000695328
0.000555119
0.000468408
0.000314427
0.000187494
0.000255223
0.000306687
0.000171462
0.000115342
9.27886e-05
8.02018e-05
5.42791e-05
4.89289e-05
3.40829e-05
2.75557e-05
2.80399e-05
2.99709e-05
3.09479e-05
2.95641e-05
2.8144e-05
2.7216e-05
2.68353e-05
2.69778e-05
2.76492e-05
2.86358e-05
2.9707e-05
3.07086e-05
3.16546e-05
3.24538e-05
3.30864e-05
3.35818e-05
3.39893e-05
3.43455e-05
3.46775e-05
3.49927e-05
3.53002e-05
3.55958e-05
3.58876e-05
3.61179e-05
3.63258e-05
3.63644e-05
3.64344e-05
3.63154e-05
3.62636e-05
3.6053e-05
3.5951e-05
3.57828e-05
3.58004e-05
3.60148e-05
3.68606e-05
3.78768e-05
3.98704e-05
4.13324e-05
4.43945e-05
4.83591e-05
6.16746e-05
0.000144249
0.000395992
0.000771585
0.00190909
0.00366584
0.00446441
0.00539583
0.0049348
0.00797291
0.0086388
0.00884543
0.0236537
0.00268872
0.00154324
0.00132608
0.00138461
0.00140151
0.00140046
0.00140384
0.00136419
0.00118776
0.000995553
0.00098757
0.00118334
0.00163368
0.00174281
0.00156034
0.00137985
0.00121162
0.00107001
0.000955167
0.000860376
0.000784238
0.000737032
0.00071843
0.000708222
0.000705893
0.000700599
0.000684491
0.00062692
0.000512693
0.000407822
0.000353619
0.000237707
0.000197228
0.000272889
0.000338353
0.000189766
0.000122339
0.000105898
0.000107075
7.82851e-05
6.87631e-05
4.38109e-05
3.33754e-05
3.18399e-05
3.13582e-05
3.14482e-05
2.9055e-05
2.74809e-05
2.6348e-05
2.59712e-05
2.61064e-05
2.68509e-05
2.79564e-05
2.92289e-05
3.05936e-05
3.18093e-05
3.27463e-05
3.3423e-05
3.38979e-05
3.42371e-05
3.44961e-05
3.47081e-05
3.48956e-05
3.50661e-05
3.52237e-05
3.53646e-05
3.54535e-05
3.54956e-05
3.53736e-05
3.52657e-05
3.49884e-05
3.47371e-05
3.43774e-05
3.40435e-05
3.38069e-05
3.37962e-05
3.41855e-05
3.5112e-05
3.60947e-05
3.76229e-05
3.83272e-05
3.90823e-05
4.04805e-05
5.60912e-05
0.000174758
0.00059274
0.00129096
0.00297471
0.00547508
0.00706928
0.00871242
0.00662704
0.007855
0.00441644
0.0043117
0.0153925
0.00190439
0.00132096
0.00117938
0.00133194
0.001161
0.0010256
0.000989629
0.000991682
0.00105449
0.00114506
0.00154924
0.00171893
0.00164461
0.00146351
0.00112908
0.000872597
0.00072953
0.000660188
0.000618205
0.000582773
0.000546139
0.000534613
0.000552814
0.000590615
0.000614278
0.000625184
0.000612656
0.000541796
0.000363538
0.000290092
0.000257734
0.000196416
0.000218813
0.000268422
0.000356064
0.000197013
0.000121868
0.000107754
0.000114491
9.23988e-05
8.0239e-05
6.36505e-05
4.88761e-05
3.96278e-05
3.41414e-05
3.23218e-05
2.83985e-05
2.66792e-05
2.51417e-05
2.44808e-05
2.44775e-05
2.5454e-05
2.68723e-05
2.85466e-05
3.01147e-05
3.13819e-05
3.2306e-05
3.29403e-05
3.33326e-05
3.35619e-05
3.36938e-05
3.3771e-05
3.38143e-05
3.3842e-05
3.38611e-05
3.38559e-05
3.37907e-05
3.36842e-05
3.34435e-05
3.32173e-05
3.28438e-05
3.24826e-05
3.20383e-05
3.16331e-05
3.13826e-05
3.13768e-05
3.17638e-05
3.2595e-05
3.33221e-05
3.41109e-05
3.37564e-05
3.23012e-05
3.40513e-05
6.37562e-05
0.000246026
0.000742709
0.00171937
0.00495258
0.008541
0.00962396
0.0126449
0.0123736
0.0113131
0.00265618
0.00226892
0.00911386
0.00153725
0.00125435
0.00122294
0.00130121
0.00100774
0.000907304
0.000977306
0.00107886
0.0013331
0.00146007
0.001499
0.00135565
0.000961117
0.000694709
0.000565081
0.000518483
0.000500183
0.000494592
0.000492008
0.000488808
0.000486358
0.00048445
0.00050815
0.000535079
0.000592545
0.000641643
0.000615927
0.000529062
0.000366375
0.000235061
0.000200837
0.000189758
0.000236208
0.000262661
0.000360366
0.000112943
9.37937e-05
8.51975e-05
9.48246e-05
9.47978e-05
8.28555e-05
7.32383e-05
5.93155e-05
5.03661e-05
3.97939e-05
3.45075e-05
2.80286e-05
2.41502e-05
2.19261e-05
2.12097e-05
2.11833e-05
2.20879e-05
2.33233e-05
2.48617e-05
2.63314e-05
2.76106e-05
2.8613e-05
2.9294e-05
2.96514e-05
2.97886e-05
2.97661e-05
2.9642e-05
2.9494e-05
2.93236e-05
2.91441e-05
2.89632e-05
2.87834e-05
2.84951e-05
2.81196e-05
2.76536e-05
2.7195e-05
2.66164e-05
2.62252e-05
2.57153e-05
2.56187e-05
2.56609e-05
2.61487e-05
2.68168e-05
2.70831e-05
2.70623e-05
2.64161e-05
2.4781e-05
2.69137e-05
5.4414e-05
0.000192684
0.000565687
0.00161953
0.00702249
0.0103959
0.0090328
0.00895714
0.00979103
0.00953004
0.00204069
0.00176871
0.00522262
0.00115923
0.00113029
0.00121651
0.00119645
0.00107347
0.00102365
0.0010569
0.00115149
0.00120754
0.0011231
0.000861266
0.000645858
0.000564005
0.000534774
0.000526731
0.000528972
0.000533743
0.00053639
0.000541792
0.000550776
0.000567289
0.000584518
0.000591414
0.000603831
0.000629869
0.000693857
0.000722453
0.000627704
0.000470368
0.0003065
0.000236258
0.000222811
0.000258479
0.000261815
0.000364901
7.74421e-05
7.94783e-05
5.56769e-05
5.90403e-05
5.83345e-05
6.13101e-05
6.70405e-05
5.60366e-05
5.19939e-05
4.18913e-05
3.57417e-05
2.73397e-05
2.31531e-05
1.99299e-05
1.86221e-05
1.86122e-05
2.0056e-05
2.17509e-05
2.35644e-05
2.50919e-05
2.63397e-05
2.73071e-05
2.79796e-05
2.83409e-05
2.84851e-05
2.84896e-05
2.83996e-05
2.82552e-05
2.8061e-05
2.78394e-05
2.75985e-05
2.73515e-05
2.69895e-05
2.65736e-05
2.60443e-05
2.55797e-05
2.49268e-05
2.44952e-05
2.39092e-05
2.37515e-05
2.36434e-05
2.39657e-05
2.43874e-05
2.4583e-05
2.44516e-05
2.38274e-05
2.21253e-05
2.36936e-05
4.18045e-05
0.00011836
0.000282559
0.000686828
0.0020602
0.00605846
0.00747323
0.0112995
0.0112778
0.00956322
0.00207708
0.00195675
0.00342325
0.000952612
0.000900653
0.000934543
0.000920401
0.000916338
0.000900705
0.000899003
0.000857354
0.000750311
0.000642178
0.000587938
0.00056246
0.000553967
0.000551167
0.000547091
0.000522281
0.000511599
0.000507221
0.000505076
0.000509822
0.00052962
0.000578237
0.000654239
0.000720309
0.000779999
0.000820995
0.000841371
0.000790718
0.000671952
0.000538878
0.000456918
0.000393133
0.000352564
0.000314711
0.000519493
6.72813e-05
7.57747e-05
4.43627e-05
4.62296e-05
3.96523e-05
3.75652e-05
4.06882e-05
3.67473e-05
3.94337e-05
3.57382e-05
3.24671e-05
2.41952e-05
1.89697e-05
1.42847e-05
1.21839e-05
1.20904e-05
1.35871e-05
1.53835e-05
1.71685e-05
1.85519e-05
1.96639e-05
2.05904e-05
2.12805e-05
2.1695e-05
2.19149e-05
2.20065e-05
2.20166e-05
2.19647e-05
2.18649e-05
2.17358e-05
2.1571e-05
2.13866e-05
2.10741e-05
2.0741e-05
2.02736e-05
1.99588e-05
1.94135e-05
1.919e-05
1.87563e-05
1.86768e-05
1.84794e-05
1.85893e-05
1.86463e-05
1.86886e-05
1.84372e-05
1.79105e-05
1.68815e-05
1.87617e-05
3.4172e-05
8.67534e-05
0.000199211
0.000584009
0.00183917
0.00372002
0.00504361
0.00881507
0.00993383
0.011186
0.0020101
0.00180588
0.00312077
0.000894047
0.000833058
0.000833219
0.000781569
0.000771427
0.00076091
0.000749241
0.000704033
0.000679998
0.000661587
0.000655137
0.000665855
0.000669236
0.00065009
0.000609987
0.000564341
0.000537475
0.000525814
0.000521632
0.000520607
0.000502482
0.000497517
0.00051693
0.000613157
0.000729078
0.000799001
0.000832779
0.000847557
0.000842494
0.000794979
0.000760622
0.000684453
0.000565015
0.000448667
0.000630083
6.39061e-05
7.54025e-05
3.97109e-05
3.9354e-05
3.28078e-05
3.0539e-05
3.18629e-05
2.5916e-05
2.93063e-05
2.83566e-05
2.5625e-05
1.8984e-05
1.39571e-05
9.72746e-06
7.73161e-06
7.40564e-06
8.27218e-06
9.58206e-06
1.08782e-05
1.18882e-05
1.27373e-05
1.343e-05
1.39663e-05
1.43239e-05
1.4536e-05
1.46603e-05
1.47336e-05
1.47692e-05
1.47728e-05
1.47497e-05
1.46963e-05
1.46202e-05
1.4482e-05
1.43418e-05
1.41307e-05
1.40203e-05
1.37858e-05
1.37307e-05
1.35558e-05
1.35532e-05
1.34645e-05
1.34841e-05
1.34767e-05
1.3528e-05
1.35436e-05
1.33191e-05
1.31588e-05
1.52069e-05
2.89916e-05
6.66149e-05
0.000154366
0.000502552
0.00201861
0.00431176
0.00537922
0.0067085
0.00769248
0.00822819
0.00199391
0.00187802
0.00296075
0.000920121
0.000881695
0.000888592
0.000797127
0.000769075
0.000759231
0.000753076
0.000738515
0.000734253
0.000730269
0.000731351
0.000701856
0.000659328
0.000590579
0.000535743
0.000509488
0.000500071
0.000497529
0.000514672
0.000542049
0.000574248
0.000500774
0.000453155
0.000437773
0.000463908
0.000615517
0.000719482
0.000760388
0.000776763
0.000776028
0.000759032
0.0007145
0.000638688
0.000490339
0.000612362
6.11978e-05
7.27523e-05
2.7017e-05
2.2913e-05
2.33023e-05
2.14652e-05
2.40519e-05
2.06936e-05
2.25992e-05
2.21026e-05
1.93956e-05
1.36914e-05
9.59491e-06
6.53828e-06
5.00523e-06
4.59622e-06
5.02313e-06
5.81998e-06
6.67941e-06
7.38829e-06
7.99017e-06
8.47797e-06
8.87162e-06
9.15837e-06
9.35956e-06
9.50395e-06
9.61742e-06
9.71523e-06
9.7948e-06
9.85131e-06
9.87961e-06
9.87714e-06
9.83108e-06
9.7754e-06
9.6974e-06
9.6765e-06
9.61869e-06
9.64624e-06
9.64009e-06
9.6921e-06
9.69257e-06
9.69788e-06
9.73429e-06
9.81833e-06
9.97801e-06
1.00339e-05
1.04653e-05
1.20691e-05
2.28259e-05
4.7521e-05
9.16543e-05
0.00020772
0.000837357
0.00346206
0.00652036
0.00678409
0.00772578
0.00822811
0.00226566
0.00218094
0.0034915
0.0010345
0.00100938
0.00104468
0.000952652
0.000853534
0.000823348
0.000796416
0.000781584
0.000760444
0.000734517
0.000704813
0.000651769
0.000590649
0.00054074
0.000530757
0.000534553
0.000535988
0.000538106
0.000546348
0.000562154
0.000606111
0.000634075
0.00060457
0.000524635
0.000370431
0.000340357
0.000499515
0.000608306
0.000662428
0.000695387
0.000705543
0.00067299
0.000602773
0.000474378
0.000574305
8.09715e-05
9.92815e-05
1.85622e-05
1.62742e-05
1.52703e-05
1.30841e-05
1.64332e-05
1.51083e-05
1.70923e-05
1.72796e-05
1.49184e-05
9.30963e-06
6.11251e-06
4.16019e-06
3.45773e-06
3.27402e-06
3.52233e-06
3.92727e-06
4.4205e-06
4.86494e-06
5.26399e-06
5.60617e-06
5.90608e-06
6.15526e-06
6.36206e-06
6.54056e-06
6.69967e-06
6.84361e-06
6.98072e-06
7.10645e-06
7.21525e-06
7.32286e-06
7.38225e-06
7.419e-06
7.44634e-06
7.49992e-06
7.53991e-06
7.61585e-06
7.63262e-06
7.63627e-06
7.56036e-06
7.50161e-06
7.50628e-06
7.61277e-06
7.86997e-06
8.05484e-06
8.49162e-06
9.33869e-06
1.6597e-05
3.40694e-05
6.83384e-05
0.000134115
0.000439179
0.00174606
0.00493735
0.00610832
0.0126575
0.0121528
0.00244057
0.0022549
0.00482054
0.00106415
0.00100945
0.00105493
0.000952398
0.000822484
0.000809331
0.000781955
0.000769519
0.000735112
0.000694367
0.000630034
0.000553159
0.000483429
0.000449009
0.000471275
0.000530074
0.000572718
0.000608313
0.00066655
0.000697561
0.000696611
0.000700185
0.000680411
0.000622136
0.000526134
0.000330633
0.000284
0.000441899
0.000526054
0.000570162
0.000585861
0.000581623
0.000536449
0.000438752
0.000507024
0.000108707
0.000278231
2.67478e-05
1.48834e-05
1.16671e-05
1.0592e-05
1.35773e-05
1.30237e-05
1.38474e-05
1.37169e-05
1.10796e-05
6.93591e-06
4.51863e-06
3.11537e-06
2.67847e-06
2.55723e-06
2.79122e-06
3.03951e-06
3.29782e-06
3.51847e-06
3.73291e-06
3.93234e-06
4.12307e-06
4.29449e-06
4.44849e-06
4.59126e-06
4.73598e-06
4.89821e-06
5.05866e-06
5.21633e-06
5.36526e-06
5.50059e-06
5.59642e-06
5.65729e-06
5.72107e-06
5.80259e-06
5.89061e-06
5.98921e-06
6.05733e-06
6.08982e-06
6.09155e-06
6.14936e-06
6.24856e-06
6.31637e-06
6.55823e-06
6.70282e-06
7.09919e-06
7.48131e-06
1.19486e-05
2.49709e-05
5.72564e-05
0.000116571
0.000331452
0.00110299
0.00317555
0.00459524
0.00824004
0.0103579
0.00254505
0.00235732
0.00897904
0.00122593
0.00107907
0.00134244
0.0014174
0.00109032
0.00087052
0.000794079
0.000765352
0.000729301
0.000671001
0.000610528
0.000550263
0.000491326
0.000473366
0.000489707
0.000535033
0.00063595
0.000724469
0.000797577
0.000829954
0.000813069
0.00078381
0.000758932
0.000689977
0.000580151
0.000443054
0.000239818
0.000288023
0.000399477
0.0004506
0.000472615
0.000478506
0.000450164
0.000378837
0.000417999
0.000155745
0.000105794
5.42941e-05
3.40147e-05
1.78245e-05
9.34158e-06
8.52232e-06
1.10762e-05
1.17916e-05
1.08185e-05
9.14755e-06
5.89463e-06
3.92525e-06
2.79061e-06
2.37081e-06
2.24845e-06
2.43863e-06
2.61974e-06
2.81033e-06
2.9501e-06
3.07127e-06
3.17173e-06
3.2636e-06
3.34561e-06
3.42621e-06
3.52603e-06
3.6368e-06
3.74351e-06
3.86287e-06
3.99279e-06
4.12387e-06
4.24581e-06
4.33513e-06
4.38696e-06
4.45048e-06
4.54117e-06
4.66017e-06
4.76899e-06
4.88666e-06
4.95228e-06
5.01844e-06
5.03573e-06
5.1439e-06
5.2226e-06
5.45252e-06
5.55421e-06
5.83638e-06
6.21554e-06
9.71701e-06
2.17813e-05
5.4819e-05
0.000103698
0.000222122
0.00063983
0.00203869
0.00264013
0.00424258
0.00547617
0.00332727
0.00304812
0.01329
0.00166718
0.00140972
0.00224122
0.00251773
0.00221143
0.00180207
0.00152835
0.00128708
0.00111472
0.00100028
0.00093075
0.000875466
0.000853507
0.000863954
0.00089585
0.000960471
0.00103397
0.00108723
0.00108392
0.00104741
0.000948577
0.000852398
0.000809433
0.000718883
0.000582375
0.000486751
0.000290801
0.000177802
0.000278188
0.000340992
0.000370148
0.000379135
0.000361525
0.000312866
0.000334682
0.000337697
0.000169518
0.000201269
9.4716e-05
8.65793e-05
2.01172e-05
7.77423e-06
7.70791e-06
8.24477e-06
7.21968e-06
6.06704e-06
3.82888e-06
2.71652e-06
2.07669e-06
1.77638e-06
1.69355e-06
1.80767e-06
1.92308e-06
2.04489e-06
2.1398e-06
2.22951e-06
2.30819e-06
2.38664e-06
2.46532e-06
2.54958e-06
2.64856e-06
2.75828e-06
2.87029e-06
2.99413e-06
3.12724e-06
3.263e-06
3.39224e-06
3.49965e-06
3.58141e-06
3.6803e-06
3.78855e-06
3.92213e-06
4.03289e-06
4.16536e-06
4.24398e-06
4.33621e-06
4.36924e-06
4.48761e-06
4.55715e-06
4.747e-06
4.80584e-06
5.01162e-06
5.38485e-06
8.16938e-06
1.92788e-05
4.54726e-05
6.79671e-05
0.000127429
0.000438776
0.00142011
0.00156156
0.00345283
0.00434363
0.00535361
0.0053336
0.0244712
0.00495395
0.00301531
0.00323168
0.00319701
0.00296167
0.00262151
0.00239837
0.00222139
0.00206105
0.00194214
0.00182126
0.00173998
0.00166612
0.00160355
0.00155934
0.00150324
0.00145648
0.00137488
0.00128659
0.00117571
0.00102416
0.000909108
0.000792192
0.000631534
0.000527905
0.000451686
0.000339399
0.00016119
0.000121129
0.000224327
0.000273363
0.000293896
0.000296797
0.000265532
0.00026916
0.000365369
0.000321903
0.000291517
0.00023379
0.000187539
0.000123922
1.88607e-05
3.27005e-06
2.99605e-06
2.77855e-06
2.48783e-06
1.87116e-06
1.48516e-06
1.22043e-06
1.09429e-06
1.06135e-06
1.11132e-06
1.16451e-06
1.2223e-06
1.26902e-06
1.31533e-06
1.35907e-06
1.40453e-06
1.45232e-06
1.5048e-06
1.56457e-06
1.62962e-06
1.69747e-06
1.77251e-06
1.85267e-06
1.93504e-06
2.01542e-06
2.08765e-06
2.15165e-06
2.22963e-06
2.31218e-06
2.41845e-06
2.51061e-06
2.63721e-06
2.71811e-06
2.83088e-06
2.88223e-06
2.9912e-06
3.03395e-06
3.12475e-06
3.10693e-06
3.17913e-06
3.51158e-06
5.44035e-06
1.26647e-05
2.62211e-05
4.31215e-05
0.000124223
0.000372512
0.000725069
0.000703598
0.00137039
0.00266929
0.00749942
0.0125277
0.0610646
0.0308053
0.0168958
0.00942665
0.00638142
0.00469832
0.00368809
0.00309274
0.00274477
0.00251015
0.00236763
0.0022441
0.0021554
0.00207392
0.00199172
0.00192151
0.00182623
0.00173999
0.00161415
0.00148785
0.00133635
0.00115328
0.00100397
0.000827346
0.000634773
0.000544026
0.000458185
0.000325248
0.000179095
8.3994e-05
6.42513e-05
0.000106194
0.000138219
0.000148781
0.000144882
0.000134819
0.000147751
8.21564e-05
3.61985e-05
2.21757e-05
1.42776e-05
1.2438e-05
1.12081e-05
1.37479e-05
2.06215e-05
3.04221e-05
3.58339e-05
4.11247e-05
4.25409e-05
4.31191e-05
4.14811e-05
3.95357e-05
3.64244e-05
3.40851e-05
3.18321e-05
3.03777e-05
2.9386e-05
2.89899e-05
2.90217e-05
2.93822e-05
3.00165e-05
3.08376e-05
3.1776e-05
3.2776e-05
3.38118e-05
3.48166e-05
3.57922e-05
3.65478e-05
3.72533e-05
3.76151e-05
3.83302e-05
3.86199e-05
3.97469e-05
4.03141e-05
4.21869e-05
4.32214e-05
4.49787e-05
4.55408e-05
4.58043e-05
4.58664e-05
4.49729e-05
4.66514e-05
5.12681e-05
6.17322e-05
8.46578e-05
6.25933e-05
4.33212e-05
4.45769e-05
0.000119537
0.000361615
0.0011175
0.00247582
0.00482663
0.0103778
0.0178831
0.0252327
0.0372279
0.024064
0.017869
0.0129237
0.00970905
0.00766126
0.00624417
0.00517854
0.00431419
0.0035614
0.00288673
0.00228673
0.00176698
0.00132881
0.00101571
0.000795588
0.000671334
0.000640983
0.000637586
0.000637602
0.00063501
0.000630186
0.0006191
0.000618875
0.00062748
0.000659967
0.000736508
0.000780161
0.000769465
0.000739605
0.00067289
0.000610364
0.000504466
0.000358067
0.000303123
0.000297305
0.000174097
8.90723e-05
4.81815e-05
3.2252e-05
2.60059e-05
2.59929e-05
2.81808e-05
3.54169e-05
4.26497e-05
4.96161e-05
5.18747e-05
5.2421e-05
5.15407e-05
5.09285e-05
5.01253e-05
4.9393e-05
4.8448e-05
4.76272e-05
4.67669e-05
4.62158e-05
4.59187e-05
4.60196e-05
4.64299e-05
4.70866e-05
4.79344e-05
4.89179e-05
4.99837e-05
5.10904e-05
5.22257e-05
5.33574e-05
5.44517e-05
5.53979e-05
5.61962e-05
5.67443e-05
5.73858e-05
5.78128e-05
5.86641e-05
5.92444e-05
6.04858e-05
6.12278e-05
6.21421e-05
6.2436e-05
6.30572e-05
6.38247e-05
6.56637e-05
6.94786e-05
7.77342e-05
9.01265e-05
0.000115932
0.000134935
0.000134704
0.000126215
0.000307772
0.000901573
0.00215126
0.0046646
0.00744452
0.0118605
0.0188898
0.0223721
0.0304743
0.00759675
0.0125169
0.00915365
0.00606056
0.00441575
0.0035669
0.00306434
0.00271645
0.00243534
0.00214911
0.00180784
0.00146516
0.00118776
0.00106245
0.00102306
0.00106322
0.00111195
0.00110246
0.00105481
0.000988214
0.000936615
0.000898276
0.00090738
0.000943282
0.00102399
0.00104405
0.00100391
0.00088466
0.000723665
0.000608705
0.000551052
0.000462198
0.000431796
0.000420301
0.000352635
0.000254791
0.000129637
7.9968e-05
5.31772e-05
4.49226e-05
4.34521e-05
4.47905e-05
5.41496e-05
5.90842e-05
6.44867e-05
6.59266e-05
6.26146e-05
5.9616e-05
5.75752e-05
5.66436e-05
5.6648e-05
5.72465e-05
5.80406e-05
5.88882e-05
5.96112e-05
6.0429e-05
6.13147e-05
6.2239e-05
6.32095e-05
6.42041e-05
6.52299e-05
6.62714e-05
6.73239e-05
6.83972e-05
6.94898e-05
7.05857e-05
7.16201e-05
7.24977e-05
7.31382e-05
7.37107e-05
7.41402e-05
7.4701e-05
7.51391e-05
7.57958e-05
7.63362e-05
7.69697e-05
7.7671e-05
7.91171e-05
8.09522e-05
8.45646e-05
8.7988e-05
9.41657e-05
0.000102305
0.000129753
0.000234852
0.000370503
0.000402606
0.000790946
0.0015738
0.00263729
0.0052285
0.00645561
0.0109442
0.0123181
0.0124029
0.0239865
0.00429992
0.0157483
0.00926419
0.00538322
0.00362322
0.00278393
0.00234898
0.00208116
0.00186843
0.00173812
0.00172602
0.00169185
0.00178124
0.00225125
0.00220223
0.00177157
0.00150047
0.00134481
0.00121611
0.00111104
0.00104363
0.00102422
0.00105567
0.00109216
0.00109811
0.00105588
0.00100616
0.000887493
0.000686946
0.000550713
0.000464925
0.00039609
0.000417089
0.000423298
0.000437112
0.000387707
0.000194257
0.000128514
8.1935e-05
6.75103e-05
6.17221e-05
5.98186e-05
6.76143e-05
7.05003e-05
7.44082e-05
7.58621e-05
7.25783e-05
6.89822e-05
6.63352e-05
6.47907e-05
6.45829e-05
6.52734e-05
6.65344e-05
6.79941e-05
6.97282e-05
7.14137e-05
7.27899e-05
7.40355e-05
7.52027e-05
7.63406e-05
7.74852e-05
7.86147e-05
7.97323e-05
8.08542e-05
8.19706e-05
8.30582e-05
8.40509e-05
8.48737e-05
8.54189e-05
8.58781e-05
8.61735e-05
8.65486e-05
8.68517e-05
8.72741e-05
8.78246e-05
8.87384e-05
9.00116e-05
9.20021e-05
9.386e-05
9.67607e-05
9.8367e-05
0.000100942
0.000106293
0.000132338
0.000279202
0.000668275
0.000935314
0.0018997
0.00394939
0.00442882
0.00841706
0.00589063
0.0096646
0.011986
0.0108662
0.0241601
0.00347935
0.0033495
0.00196518
0.0017936
0.00177733
0.00176104
0.00180793
0.00182659
0.0018697
0.00193349
0.00241231
0.00297562
0.0029757
0.00243178
0.00202136
0.00170091
0.00152902
0.00142094
0.00131714
0.00118435
0.00108275
0.00103923
0.00101521
0.000980734
0.000933402
0.000900847
0.000926277
0.000879302
0.000607315
0.000424999
0.000356527
0.000324834
0.000373413
0.000390568
0.000452386
0.000572561
0.000238191
0.000167331
0.000111591
9.41224e-05
8.52797e-05
8.04038e-05
8.58152e-05
8.91026e-05
9.08024e-05
9.07831e-05
8.45019e-05
7.81596e-05
7.29262e-05
7.04453e-05
7.00517e-05
7.15841e-05
7.40764e-05
7.69916e-05
7.98212e-05
8.23672e-05
8.46047e-05
8.65409e-05
8.81789e-05
8.96029e-05
9.08818e-05
9.21121e-05
9.33138e-05
9.4506e-05
9.56877e-05
9.68073e-05
9.78253e-05
9.85931e-05
9.90427e-05
9.93489e-05
9.95391e-05
9.9639e-05
0.000100016
0.000100405
0.00010135
0.000102525
0.000104127
0.000106045
0.000107482
0.000108835
0.00010966
0.000108183
0.000113566
0.000133572
0.000280578
0.000764814
0.00188435
0.00432805
0.00865648
0.00886352
0.0124092
0.00835398
0.0106167
0.0103571
0.0102589
0.0282139
0.00310324
0.00205798
0.00135277
0.00159292
0.00135305
0.00154179
0.00175313
0.00196276
0.00246944
0.00305563
0.00320858
0.00294455
0.00253801
0.00206346
0.00185183
0.00176047
0.00171309
0.00166798
0.00159297
0.00143058
0.00130307
0.00125112
0.00123422
0.0012164
0.00114129
0.00101702
0.000958335
0.000955238
0.000597791
0.000358501
0.000289418
0.000273781
0.000326481
0.000337379
0.000449178
0.000791256
0.000252023
0.000186967
0.00013917
0.000119548
0.000109778
0.000104511
0.000107844
0.000108611
0.000105535
0.000102867
9.16295e-05
8.17923e-05
7.4569e-05
7.13518e-05
7.06932e-05
7.26091e-05
7.5712e-05
7.94143e-05
8.29233e-05
8.60355e-05
8.90645e-05
9.16269e-05
9.36652e-05
9.53268e-05
9.67397e-05
9.80019e-05
9.91952e-05
0.000100334
0.000101443
0.0001025
0.000103493
0.000104069
0.000104373
0.000104326
0.000104375
0.000104097
0.000104489
0.000104707
0.000105989
0.000107449
0.000109734
0.000111845
0.000113153
0.000112598
0.000113187
0.000108965
0.000117059
0.000131333
0.000261256
0.000838452
0.00349679
0.00998215
0.0189475
0.019608
0.0258168
0.0176008
0.0252872
0.0113766
0.011678
0.0333451
0.00295409
0.00194645
0.00157688
0.00180208
0.00186067
0.00222514
0.00263037
0.00303403
0.00320344
0.00308825
0.00280005
0.00208284
0.0015374
0.00127764
0.00114915
0.00109715
0.00108899
0.00113255
0.00122071
0.00132184
0.00137512
0.00144542
0.00151967
0.00160493
0.00165932
0.00143095
0.00119945
0.00110128
0.000910107
0.000539459
0.000372751
0.00034681
0.000348102
0.00034462
0.000439472
0.000615748
0.000245511
0.000189728
0.000151199
0.000131738
0.000121863
0.000119103
0.000118131
0.000118036
0.000112819
0.000109892
9.38402e-05
8.17448e-05
7.02664e-05
6.52276e-05
6.39028e-05
6.68501e-05
7.10635e-05
7.59212e-05
8.03683e-05
8.44031e-05
8.79585e-05
9.09341e-05
9.3211e-05
9.49584e-05
9.63487e-05
9.75078e-05
9.85705e-05
9.95361e-05
0.000100449
0.000101297
0.000102103
0.000102368
0.000102412
0.00010194
0.000101742
0.000100956
0.00010123
0.000101127
0.000102522
0.00010399
0.000106564
0.000108574
0.000109684
0.000107553
0.000108429
0.000100217
0.000113868
0.000124973
0.000225342
0.000842933
0.00531472
0.0176568
0.0252206
0.0221601
0.0212288
0.0208672
0.0232041
0.00947672
0.00952968
0.030952
0.00269122
0.00188597
0.00179597
0.00212553
0.00235299
0.00267562
0.00280858
0.00284003
0.0024773
0.00178526
0.00119526
0.000911649
0.00082445
0.000805905
0.000837828
0.000862535
0.000881467
0.000921083
0.000973212
0.00102437
0.00106889
0.00121399
0.00136869
0.00160165
0.00186634
0.00197571
0.00181143
0.00170874
0.0016781
0.00146337
0.0010616
0.000787084
0.000502032
0.000387778
0.00046186
0.000450456
0.000256201
0.000171408
0.000135618
0.000118864
0.000115116
0.000118813
0.000113335
0.000118497
0.000114972
0.000112595
9.26416e-05
7.53573e-05
6.03589e-05
5.39717e-05
5.24993e-05
5.70415e-05
6.27973e-05
6.89186e-05
7.39159e-05
7.80762e-05
8.17836e-05
8.48196e-05
8.7033e-05
8.85747e-05
8.97065e-05
9.05479e-05
9.11912e-05
9.15774e-05
9.17887e-05
9.18496e-05
9.18696e-05
9.1324e-05
9.06645e-05
8.94099e-05
8.86161e-05
8.67633e-05
8.5869e-05
8.41066e-05
8.42251e-05
8.37799e-05
8.51311e-05
8.5444e-05
8.63818e-05
8.43667e-05
8.47171e-05
7.81516e-05
8.83019e-05
0.000113129
0.000182847
0.000365145
0.00109042
0.00334039
0.00984236
0.0184198
0.0205826
0.0200929
0.0163079
0.00672277
0.00683639
0.0277014
0.00262725
0.00157265
0.00147909
0.0013959
0.00143744
0.00147262
0.00138507
0.00113967
0.000914623
0.000835686
0.000820357
0.000915852
0.0010273
0.00112487
0.00117124
0.0011859
0.00118705
0.00120098
0.00126079
0.00131848
0.00135717
0.00134734
0.00139773
0.00150472
0.00179219
0.00204045
0.00211729
0.00207557
0.00213428
0.00219406
0.00217875
0.00188139
0.00117113
0.000803656
0.000833509
0.000369257
0.000337242
0.000175582
0.000132834
9.49857e-05
8.33303e-05
9.55523e-05
0.000101939
0.000116036
0.000116564
0.000115401
8.96449e-05
6.62828e-05
4.2768e-05
3.25793e-05
3.0159e-05
3.20541e-05
3.54308e-05
3.93546e-05
4.35063e-05
4.81202e-05
5.20639e-05
5.51177e-05
5.71851e-05
5.85177e-05
5.9397e-05
5.99672e-05
6.04187e-05
6.08025e-05
6.11443e-05
6.13565e-05
6.15352e-05
6.09386e-05
6.02606e-05
5.89352e-05
5.84406e-05
5.69423e-05
5.73844e-05
5.63761e-05
5.73342e-05
5.65623e-05
5.74077e-05
5.6642e-05
5.70567e-05
5.50854e-05
5.55368e-05
5.3805e-05
6.24636e-05
8.71528e-05
0.000152397
0.000297361
0.00086091
0.00266396
0.00546183
0.00915277
0.012219
0.0155565
0.0260385
0.00527644
0.00510235
0.0256873
0.00296527
0.00174397
0.00155405
0.00124167
0.00114666
0.00104979
0.00100346
0.000962369
0.000957147
0.00104079
0.00118293
0.0012497
0.0012223
0.00112327
0.00102421
0.000941565
0.000897138
0.000887786
0.000937455
0.00119729
0.00161315
0.00192319
0.00199887
0.00175678
0.00155808
0.0014888
0.00163559
0.00171493
0.00188331
0.00208262
0.00239851
0.00258419
0.00251552
0.0018254
0.00134632
0.000354225
0.000383659
0.000201776
0.000153874
9.35271e-05
6.98116e-05
7.38116e-05
7.6647e-05
9.6683e-05
0.000103632
0.000100517
7.46286e-05
4.93974e-05
3.1153e-05
2.36587e-05
2.12777e-05
2.17707e-05
2.33295e-05
2.54225e-05
2.76413e-05
3.00175e-05
3.19739e-05
3.35194e-05
3.46157e-05
3.54859e-05
3.61388e-05
3.67266e-05
3.73333e-05
3.78307e-05
3.82241e-05
3.84985e-05
3.87424e-05
3.85502e-05
3.83523e-05
3.77909e-05
3.77099e-05
3.70704e-05
3.72745e-05
3.6526e-05
3.67302e-05
3.59544e-05
3.62478e-05
3.57475e-05
3.64841e-05
3.64257e-05
3.74958e-05
3.71025e-05
4.14772e-05
5.99801e-05
9.50111e-05
0.00018674
0.000822822
0.00367955
0.00825709
0.0111441
0.0140065
0.0175774
0.022605
0.00605131
0.0061174
0.0255295
0.00298206
0.0023157
0.00224472
0.00190954
0.00175531
0.00160099
0.00157418
0.00162674
0.0018006
0.0018804
0.00178793
0.00145618
0.00121425
0.00103856
0.000934193
0.000862322
0.00082625
0.000817353
0.000812879
0.000854054
0.000977301
0.00110504
0.00120133
0.00142343
0.00157008
0.00117903
0.000979908
0.000939633
0.00107353
0.00125736
0.00158804
0.00207151
0.00230338
0.0016241
0.000944139
0.000357311
0.000418159
0.000157265
0.000100742
7.12414e-05
5.71724e-05
5.84526e-05
6.02653e-05
7.62401e-05
8.53147e-05
8.31418e-05
6.04314e-05
4.14053e-05