/*--------------------------------*- C++ -*----------------------------------*\
| =========                 |                                                 |
| \\      /  F ield         | OpenFOAM: The Open Source CFD Toolbox           |
|  \\    /   O peration     | Version:  2.3.0                                 |
|   \\  /    A nd           | Web:      www.OpenFOAM.org                      |
|    \\/     M anipulation  |                                                 |
\*---------------------------------------------------------------------------*/
FoamFile
{
    version     2.0;
    format      ascii;
    class       volScalarField;
    location    "28";
    object      k.water;
}
// * * * * * * * * * * * * * * * * * * * * * * * * * * * * * * * * * * * * * //

dimensions      [0 2 -2 0 0 0 0];

internalField   nonuniform List<scalar> 
6144
(
8.84265e-05
6.45237e-05
4.55545e-05
3.78015e-05
2.8946e-05
2.53932e-05
2.05662e-05
1.80754e-05
1.78798e-05
2.03366e-05
2.28819e-05
2.55904e-05
2.70299e-05
2.74952e-05
2.68953e-05
2.61894e-05
2.50841e-05
2.46969e-05
2.44421e-05
2.43077e-05
2.4229e-05
2.42304e-05
2.4276e-05
2.43629e-05
2.44784e-05
2.46204e-05
2.47797e-05
2.49388e-05
2.50939e-05
2.52254e-05
2.54081e-05
2.55614e-05
2.58175e-05
2.58526e-05
2.61609e-05
2.61699e-05
2.6595e-05
2.66985e-05
2.72865e-05
2.7678e-05
2.81443e-05
2.87675e-05
2.85941e-05
2.90094e-05
2.82652e-05
2.92056e-05
3.05741e-05
3.39079e-05
4.02357e-05
3.73429e-05
4.45302e-05
7.82144e-05
0.000175976
0.00036448
0.000604466
0.000815527
0.00100494
0.00213051
0.00448023
0.00584251
0.0122002
0.00791671
0.00564315
0.00403486
0.00308864
0.00254741
0.0021791
0.00189247
0.00164598
0.00141438
0.00119266
0.00098358
0.000790017
0.000618876
0.000486203
0.000402031
0.000355578
0.000340634
0.000340893
0.000343663
0.00034957
0.00035476
0.000359851
0.000362105
0.00036736
0.000376413
0.000392405
0.000407409
0.000406842
0.000402152
0.000390866
0.000373682
0.000327417
0.000204508
0.000221932
0.00023626
0.000143104
9.80147e-05
7.04244e-05
5.94148e-05
4.84453e-05
4.6517e-05
4.14891e-05
4.08009e-05
4.24087e-05
4.6408e-05
4.85905e-05
4.99882e-05
5.06015e-05
5.06855e-05
4.9754e-05
4.89728e-05
4.82029e-05
4.84714e-05
4.90004e-05
4.94941e-05
4.99978e-05
5.0537e-05
5.10406e-05
5.15265e-05
5.1997e-05
5.2466e-05
5.29353e-05
5.33913e-05
5.38394e-05
5.426e-05
5.48633e-05
5.54188e-05
5.60582e-05
5.63324e-05
5.69528e-05
5.71054e-05
5.78499e-05
5.80792e-05
5.89979e-05
5.94848e-05
6.00994e-05
6.05396e-05
6.07074e-05
6.08386e-05
6.18928e-05
6.32146e-05
6.89505e-05
7.55582e-05
8.89572e-05
9.40548e-05
0.000110421
0.000166096
0.000360244
0.000730103
0.0010617
0.00141143
0.00219515
0.00383222
0.00532478
0.00558665
0.00876098
0.00372352
0.00250312
0.00196194
0.00171645
0.00157213
0.00145922
0.00136534
0.00127081
0.00116179
0.00103589
0.000896177
0.000745721
0.000595195
0.000506103
0.00049486
0.000520657
0.000586118
0.000637024
0.000647643
0.000640963
0.000625051
0.000606036
0.000594075
0.000596153
0.000604522
0.000619844
0.000619298
0.000606753
0.000567498
0.000500386
0.000449045
0.000349677
0.000221469
0.000248884
0.000251035
0.000169549
0.000125937
9.93085e-05
8.41337e-05
6.95599e-05
6.70596e-05
5.88277e-05
5.53203e-05
5.66645e-05
5.94574e-05
6.08194e-05
5.9474e-05
5.76888e-05
5.6807e-05
5.63493e-05
5.6412e-05
5.72626e-05
5.87757e-05
6.03065e-05
6.16411e-05
6.28932e-05
6.40225e-05
6.4968e-05
6.57869e-05
6.65122e-05
6.71881e-05
6.78375e-05
6.84632e-05
6.90778e-05
6.96715e-05
7.02719e-05
7.07854e-05
7.13007e-05
7.15674e-05
7.19224e-05
7.19739e-05
7.22009e-05
7.21143e-05
7.22179e-05
7.21379e-05
7.22611e-05
7.24642e-05
7.3461e-05
7.45595e-05
7.77869e-05
8.04217e-05
8.62436e-05
9.31284e-05
0.000106419
0.000151387
0.000203081
0.000301685
0.000601177
0.001073
0.00132256
0.00168389
0.00209841
0.00345712
0.00402817
0.00392745
0.00708599
0.00200522
0.00148179
0.00137046
0.00133735
0.00129699
0.00123377
0.00116592
0.00107901
0.000982326
0.000879579
0.000740282
0.000633366
0.000615781
0.000708254
0.00093209
0.0009322
0.000876809
0.000815698
0.000760442
0.000714039
0.000674838
0.000647042
0.000638878
0.000642434
0.000655029
0.000659976
0.000654135
0.000630118
0.000572032
0.000493197
0.000441142
0.000339229
0.000239972
0.000294581
0.000283512
0.000192811
0.000148411
0.000128735
0.000117149
9.05557e-05
8.47307e-05
6.67639e-05
5.80944e-05
5.89197e-05
6.17554e-05
6.32548e-05
6.15131e-05
5.96789e-05
5.85072e-05
5.81067e-05
5.84599e-05
5.95762e-05
6.11393e-05
6.28124e-05
6.43772e-05
6.58566e-05
6.71268e-05
6.81644e-05
6.90128e-05
6.97407e-05
7.03987e-05
7.10241e-05
7.16273e-05
7.22206e-05
7.27982e-05
7.33712e-05
7.38612e-05
7.43209e-05
7.45503e-05
7.48223e-05
7.48354e-05
7.49396e-05
7.48243e-05
7.48571e-05
7.47975e-05
7.49956e-05
7.54693e-05
7.68228e-05
7.8406e-05
8.13166e-05
8.3477e-05
8.77407e-05
9.30918e-05
0.000109721
0.000193721
0.000379956
0.000592385
0.00108507
0.00168548
0.0019263
0.00219475
0.0020746
0.00286249
0.00303179
0.00309078
0.00597633
0.0014067
0.000968274
0.000875924
0.000903335
0.000911924
0.000913388
0.000917153
0.000902299
0.000825595
0.00073518
0.000732153
0.000826601
0.00102844
0.00107666
0.00100275
0.000925463
0.000850425
0.000784247
0.000728399
0.000680592
0.000641037
0.000616332
0.00060707
0.000602394
0.000602234
0.000600462
0.000592587
0.000560473
0.000491686
0.000422866
0.000385346
0.000296677
0.0002614
0.000325088
0.000302692
0.000206344
0.000154502
0.000140824
0.000142361
0.000115959
0.000106731
7.93104e-05
6.63813e-05
6.45298e-05
6.40852e-05
6.44196e-05
6.13069e-05
5.92627e-05
5.78069e-05
5.74374e-05
5.78206e-05
5.91027e-05
6.09069e-05
6.294e-05
6.50884e-05
6.70106e-05
6.8533e-05
6.96893e-05
7.05647e-05
7.12525e-05
7.18299e-05
7.23431e-05
7.28231e-05
7.32801e-05
7.37199e-05
7.41369e-05
7.44817e-05
7.4761e-05
7.48091e-05
7.48754e-05
7.46999e-05
7.45576e-05
7.42566e-05
7.39874e-05
7.38563e-05
7.40523e-05
7.48327e-05
7.63932e-05
7.8029e-05
8.04351e-05
8.16571e-05
8.29408e-05
8.51518e-05
0.00010617
0.000226903
0.000512197
0.000861142
0.00150901
0.00228006
0.00270516
0.00312198
0.00261055
0.00293097
0.00200071
0.00197161
0.00463839
0.00115289
0.000905159
0.00084078
0.000914456
0.000836375
0.000771736
0.000755527
0.000758644
0.000792407
0.000839303
0.00103012
0.00110768
0.00107894
0.00100129
0.000845966
0.000713968
0.000634387
0.000594531
0.000570066
0.000549035
0.000526836
0.000520475
0.000533139
0.000558492
0.000574936
0.000583336
0.000577132
0.000533924
0.000410581
0.00035324
0.000327282
0.000273711
0.000293891
0.000337972
0.000313127
0.000211627
0.000154255
0.000142718
0.000149229
0.000129898
0.000118747
0.000102194
8.60613e-05
7.51259e-05
6.82878e-05
6.61012e-05
6.0874e-05
5.86177e-05
5.65604e-05
5.5778e-05
5.59867e-05
5.76855e-05
6.00368e-05
6.27422e-05
6.52643e-05
6.73335e-05
6.89043e-05
7.00613e-05
7.08759e-05
7.14608e-05
7.19081e-05
7.2278e-05
7.25997e-05
7.28989e-05
7.31854e-05
7.34367e-05
7.36003e-05
7.37024e-05
7.3606e-05
7.35271e-05
7.32263e-05
7.29372e-05
7.25174e-05
7.21489e-05
7.20106e-05
7.22441e-05
7.30805e-05
7.45953e-05
7.59479e-05
7.73882e-05
7.70966e-05
7.50998e-05
7.80714e-05
0.000119068
0.000293272
0.000612909
0.00107709
0.00219965
0.00316891
0.00342972
0.00413303
0.00408617
0.00386491
0.00147353
0.00133015
0.00337092
0.00103323
0.000905293
0.000892777
0.00093353
0.000789533
0.000737466
0.000777215
0.000832958
0.000963055
0.00102695
0.0010489
0.000985709
0.000787388
0.000635261
0.000553795
0.000523791
0.000512492
0.000509919
0.000509556
0.000508727
0.000508339
0.000508323
0.00052619
0.000546046
0.000585944
0.000620104
0.000605586
0.000549425
0.000431665
0.000321285
0.000289825
0.000279772
0.000324081
0.000348947
0.000315635
0.000146116
0.000129666
0.00012224
0.000131935
0.000132556
0.000121787
0.000112732
9.8424e-05
8.86859e-05
7.61483e-05
6.95667e-05
6.08353e-05
5.53325e-05
5.21122e-05
5.11978e-05
5.13833e-05
5.30702e-05
5.52741e-05
5.79316e-05
6.04549e-05
6.26673e-05
6.44511e-05
6.57493e-05
6.65639e-05
6.70503e-05
6.72969e-05
6.73888e-05
6.74417e-05
6.74576e-05
6.74564e-05
6.74494e-05
6.74408e-05
6.72581e-05
6.69313e-05
6.64518e-05
6.59735e-05
6.52892e-05
6.48994e-05
6.43043e-05
6.43904e-05
6.47083e-05
6.57746e-05
6.71402e-05
6.78352e-05
6.80473e-05
6.72073e-05
6.46392e-05
6.85982e-05
0.000110268
0.000256992
0.000528674
0.00107386
0.00286621
0.00371698
0.00339149
0.00339092
0.00361042
0.0035573
0.00127709
0.00116555
0.00240176
0.00088462
0.000873183
0.000920152
0.000913781
0.000852471
0.000828352
0.000848986
0.00090281
0.000935343
0.000895712
0.000753911
0.000623449
0.000570243
0.00055156
0.000547589
0.000550808
0.000555931
0.000559579
0.000565106
0.000573103
0.000586283
0.000599644
0.000606044
0.000616354
0.000636027
0.000680907
0.000701933
0.00064183
0.000531471
0.000400567
0.000337369
0.000325127
0.000359583
0.000363711
0.000318287
0.000113749
0.000116377
9.22853e-05
9.64939e-05
9.62287e-05
0.000100067
0.000106814
9.53177e-05
9.12033e-05
7.94058e-05
7.18246e-05
6.03918e-05
5.43394e-05
4.94263e-05
4.74839e-05
4.77138e-05
5.04091e-05
5.34842e-05
5.67049e-05
5.94293e-05
6.16927e-05
6.35103e-05
6.48694e-05
6.57493e-05
6.62951e-05
6.66246e-05
6.68054e-05
6.68985e-05
6.69094e-05
6.68723e-05
6.67993e-05
6.6711e-05
6.64286e-05
6.60483e-05
6.54677e-05
6.49821e-05
6.41619e-05
6.37054e-05
6.29674e-05
6.29701e-05
6.30578e-05
6.391e-05
6.49387e-05
6.55675e-05
6.56115e-05
6.47663e-05
6.19104e-05
6.51235e-05
9.56094e-05
0.000191999
0.000343853
0.000624131
0.0013036
0.00268698
0.00311052
0.00412253
0.00412104
0.00370535
0.00134251
0.00129507
0.00188616
0.000808951
0.00078261
0.000805454
0.000800364
0.000801137
0.000795167
0.000797295
0.000776171
0.000712796
0.00064461
0.000609533
0.000593565
0.000589505
0.000589605
0.000588724
0.000573179
0.000567575
0.000566314
0.000566637
0.000572221
0.000589065
0.000626745
0.000682996
0.000730894
0.000773556
0.00080329
0.00081939
0.000789531
0.000710901
0.000616009
0.000553645
0.000502104
0.000468171
0.000435362
0.000402816
0.000103561
0.000112649
7.91549e-05
8.17235e-05
7.40916e-05
7.18348e-05
7.61179e-05
7.14417e-05
7.52626e-05
7.08095e-05
6.67371e-05
5.51034e-05
4.70562e-05
3.91166e-05
3.53322e-05
3.53047e-05
3.83274e-05
4.1816e-05
4.51842e-05
4.7783e-05
4.98846e-05
5.16565e-05
5.30256e-05
5.39354e-05
5.45237e-05
5.48999e-05
5.5141e-05
5.52776e-05
5.53324e-05
5.53353e-05
5.52747e-05
5.51767e-05
5.48529e-05
5.44856e-05
5.3873e-05
5.35198e-05
5.2743e-05
5.25374e-05
5.19403e-05
5.19893e-05
5.1817e-05
5.22161e-05
5.25164e-05
5.27895e-05
5.25049e-05
5.16888e-05
4.9876e-05
5.37422e-05
8.0485e-05
0.000150139
0.000261832
0.000537897
0.00115941
0.00186136
0.00229189
0.00334532
0.00363076
0.00394627
0.00125283
0.00116859
0.00169772
0.000741465
0.000710073
0.000712481
0.000685121
0.000681521
0.000677378
0.000672293
0.000647219
0.000634567
0.000624323
0.000621991
0.000630744
0.000634959
0.000624999
0.000601024
0.000572633
0.000555981
0.000549359
0.000547768
0.000548494
0.000537608
0.000536026
0.000551714
0.000619901
0.00069798
0.000744042
0.00076721
0.000778582
0.000777924
0.000750635
0.000731254
0.000683536
0.000603291
0.00051843
0.000458499
0.000100062
0.000112204
7.34207e-05
7.32676e-05
6.51292e-05
6.23637e-05
6.44149e-05
5.63248e-05
6.14084e-05
6.03271e-05
5.66238e-05
4.6543e-05
3.80594e-05
3.00305e-05
2.58645e-05
2.5228e-05
2.72635e-05
3.01853e-05
3.29732e-05
3.51149e-05
3.6905e-05
3.83732e-05
3.95331e-05
4.03524e-05
4.08983e-05
4.12801e-05
4.15668e-05
4.1783e-05
4.19388e-05
4.20436e-05
4.20901e-05
4.20919e-05
4.19722e-05
4.18457e-05
4.15773e-05
4.15024e-05
4.11791e-05
4.1209e-05
4.09967e-05
4.11294e-05
4.10869e-05
4.12636e-05
4.13851e-05
4.16271e-05
4.17947e-05
4.14679e-05
4.12724e-05
4.56209e-05
7.03665e-05
0.000122736
0.000215315
0.000474228
0.00120247
0.00200203
0.00232952
0.00271147
0.00298346
0.00312997
0.00121819
0.00117371
0.0015889
0.000734733
0.000716435
0.000721886
0.000673436
0.000659832
0.000655951
0.000654115
0.000647431
0.000646767
0.000646074
0.000648543
0.00063292
0.000608882
0.000567801
0.000533619
0.000517487
0.000512403
0.000511886
0.000524829
0.00054468
0.000567598
0.000519854
0.000487806
0.000478014
0.000498205
0.000602759
0.000670957
0.000698276
0.000710241
0.000711672
0.000703318
0.000677438
0.000630264
0.000529399
0.000449912
9.72191e-05
0.000109538
5.67301e-05
5.09979e-05
5.17398e-05
4.91522e-05
5.31955e-05
4.82535e-05
5.13585e-05
5.07896e-05
4.67178e-05
3.71618e-05
2.94168e-05
2.28534e-05
1.91861e-05
1.81847e-05
1.9357e-05
2.14235e-05
2.35597e-05
2.52793e-05
2.67195e-05
2.78846e-05
2.88322e-05
2.95429e-05
3.00679e-05
3.0471e-05
3.08084e-05
3.11128e-05
3.13787e-05
3.15957e-05
3.17526e-05
3.18435e-05
3.18402e-05
3.18153e-05
3.17406e-05
3.17894e-05
3.17568e-05
3.19115e-05
3.19918e-05
3.22006e-05
3.22954e-05
3.2401e-05
3.25755e-05
3.28572e-05
3.33074e-05
3.35278e-05
3.4583e-05
3.81518e-05
5.85007e-05
9.55208e-05
0.000148315
0.000256969
0.000653724
0.00169065
0.00257881
0.0026508
0.00290288
0.00303817
0.00128646
0.00125726
0.00172856
0.000771057
0.000760721
0.000780529
0.00073595
0.000685542
0.000670771
0.000657873
0.000651186
0.000641043
0.000627855
0.000612244
0.000582542
0.000547084
0.000517273
0.000512264
0.000516037
0.000518252
0.000520778
0.000527185
0.000538329
0.000567149
0.000586255
0.000569434
0.000519601
0.000413471
0.000391221
0.000505675
0.000578727
0.000614257
0.000636029
0.000643787
0.000625617
0.000582624
0.000497363
0.000431131
0.000117098
0.000134961
4.41039e-05
4.05003e-05
3.89186e-05
3.52118e-05
4.11005e-05
3.89479e-05
4.2409e-05
4.28404e-05
3.89602e-05
2.85295e-05
2.161e-05
1.67652e-05
1.48597e-05
1.43671e-05
1.51252e-05
1.63074e-05
1.7693e-05
1.89101e-05
1.99833e-05
2.08951e-05
2.16905e-05
2.23546e-05
2.29119e-05
2.33989e-05
2.38382e-05
2.42406e-05
2.46262e-05
2.49846e-05
2.53031e-05
2.56187e-05
2.58218e-05
2.59725e-05
2.61013e-05
2.62918e-05
2.6451e-05
2.66942e-05
2.67991e-05
2.68733e-05
2.67599e-05
2.66861e-05
2.67617e-05
2.70802e-05
2.77533e-05
2.82541e-05
2.9339e-05
3.13396e-05
4.60906e-05
7.45421e-05
0.000118751
0.000186698
0.000413152
0.00104033
0.00208335
0.00240391
0.0039224
0.00382645
0.00131152
0.00124627
0.00207834
0.000760888
0.000736345
0.000760021
0.000711532
0.000647183
0.000641784
0.000628697
0.000623327
0.000605858
0.000584448
0.000549046
0.000504228
0.000461745
0.000440415
0.000455835
0.000494166
0.000521676
0.000544003
0.000579234
0.000598422
0.000599139
0.000602296
0.00059224
0.000559349
0.000501523
0.000369466
0.000333299
0.000448599
0.000505426
0.000534498
0.000545431
0.000544134
0.000516531
0.000452378
0.000396834
0.000142861
0.000267967
5.62347e-05
3.80634e-05
3.24304e-05
3.04703e-05
3.60347e-05
3.51104e-05
3.66547e-05
3.65081e-05
3.17405e-05
2.32759e-05
1.75282e-05
1.3708e-05
1.242e-05
1.20676e-05
1.28198e-05
1.3598e-05
1.43882e-05
1.50546e-05
1.56929e-05
1.62807e-05
1.68377e-05
1.73368e-05
1.77852e-05
1.82008e-05
1.86191e-05
1.90805e-05
1.95343e-05
1.99783e-05
2.03976e-05
2.07807e-05
2.10631e-05
2.12577e-05
2.14596e-05
2.17058e-05
2.19681e-05
2.22562e-05
2.24684e-05
2.25925e-05
2.26405e-05
2.28285e-05
2.31177e-05
2.33303e-05
2.39684e-05
2.43665e-05
2.53682e-05
2.63217e-05
3.6032e-05
5.89563e-05
0.000102618
0.000165205
0.000332433
0.000742672
0.00150463
0.00192944
0.00286112
0.00334096
0.001309
0.00124534
0.00304722
0.00080888
0.000744491
0.000862379
0.000895486
0.000753106
0.000648977
0.000612502
0.000598985
0.000581221
0.000550907
0.000517992
0.000484082
0.000449456
0.00043888
0.000449646
0.000477709
0.000537061
0.000586928
0.000626845
0.000644947
0.000637548
0.000622945
0.000610959
0.000574751
0.000512806
0.000429946
0.000286151
0.000322507
0.000402518
0.000437088
0.000452098
0.000456708
0.000439189
0.000391953
0.000349021
0.00018111
0.000140011
8.98179e-05
6.58435e-05
4.28856e-05
2.79252e-05
2.63103e-05
3.13694e-05
3.27606e-05
3.09801e-05
2.77471e-05
2.07308e-05
1.58313e-05
1.26291e-05
1.13448e-05
1.09673e-05
1.15947e-05
1.21803e-05
1.27833e-05
1.32235e-05
1.36035e-05
1.39193e-05
1.42078e-05
1.44663e-05
1.47194e-05
1.5026e-05
1.53615e-05
1.56833e-05
1.60383e-05
1.64198e-05
1.68015e-05
1.71557e-05
1.74204e-05
1.7584e-05
1.77788e-05
1.80453e-05
1.83854e-05
1.86971e-05
1.90302e-05
1.92272e-05
1.9425e-05
1.94971e-05
1.98029e-05
2.00328e-05
2.06456e-05
2.0931e-05
2.16655e-05
2.26255e-05
3.05137e-05
5.22842e-05
9.68316e-05
0.000148352
0.000246905
0.000500834
0.00108525
0.00129208
0.00177544
0.00211071
0.0015107
0.00142624
0.00381746
0.000959326
0.000859514
0.00117258
0.0012675
0.00116379
0.00101611
0.000911622
0.000814048
0.000740917
0.000690456
0.00065887
0.000633439
0.000623493
0.000629329
0.000645454
0.000676988
0.000712038
0.000737416
0.000736931
0.000721412
0.000676493
0.000630513
0.000610037
0.000564729
0.000491383
0.000436768
0.000311066
0.000223752
0.000301591
0.000346129
0.000366147
0.000372562
0.000361367
0.000328503
0.000300983
0.000302896
0.000191467
0.000214849
0.000130126
0.000122684
4.64109e-05
2.4642e-05
2.45235e-05
2.56704e-05
2.3516e-05
2.09592e-05
1.54341e-05
1.22875e-05
1.02815e-05
9.2722e-06
8.98936e-06
9.39702e-06
9.80159e-06
1.02203e-05
1.05434e-05
1.08456e-05
1.1109e-05
1.13692e-05
1.16279e-05
1.19016e-05
1.22183e-05
1.25643e-05
1.29133e-05
1.32936e-05
1.36965e-05
1.41021e-05
1.44845e-05
1.48011e-05
1.50433e-05
1.53319e-05
1.56443e-05
1.60233e-05
1.63374e-05
1.6707e-05
1.69307e-05
1.71891e-05
1.72907e-05
1.76161e-05
1.78127e-05
1.83196e-05
1.84864e-05
1.90273e-05
1.9977e-05
2.63954e-05
4.67885e-05
8.29571e-05
0.000108548
0.000165259
0.00037723
0.000825484
0.000880602
0.0014935
0.00173988
0.00200664
0.00199802
0.00552357
0.00191175
0.00137408
0.00144119
0.00143143
0.00136089
0.00125548
0.00118384
0.00112572
0.00107167
0.00103092
0.000988526
0.000959571
0.000933103
0.000910229
0.000894227
0.000873388
0.000855945
0.000824462
0.000789325
0.000744104
0.000679371
0.000627971
0.000573689
0.000493753
0.000438293
0.00039535
0.00032783
0.000199996
0.000165014
0.000248961
0.000284299
0.000298584
0.000300741
0.000279343
0.000260448
0.00031911
0.000293178
0.000274338
0.000236727
0.00020431
0.000154963
4.41819e-05
1.3733e-05
1.2952e-05
1.2315e-05
1.1438e-05
9.45774e-06
8.10552e-06
7.10923e-06
6.60872e-06
6.47401e-06
6.67431e-06
6.8844e-06
7.109e-06
7.28763e-06
7.46245e-06
7.6255e-06
7.7931e-06
7.96735e-06
8.15655e-06
8.36951e-06
8.59825e-06
8.83356e-06
9.09027e-06
9.36047e-06
9.63401e-06
9.89702e-06
1.013e-05
1.03338e-05
1.05798e-05
1.08371e-05
1.11644e-05
1.14439e-05
1.18228e-05
1.20608e-05
1.23892e-05
1.25359e-05
1.2847e-05
1.29665e-05
1.32216e-05
1.31689e-05
1.33698e-05
1.42829e-05
1.91159e-05
3.35628e-05
5.44918e-05
7.58788e-05
0.000153649
0.000319567
0.000497909
0.00048787
0.000760202
0.00118395
0.00235288
0.00331979
0.00954409
0.00605714
0.00405782
0.002749
0.00211814
0.0017265
0.00146898
0.00130583
0.00120559
0.00113549
0.00109183
0.00105339
0.00102519
0.000999149
0.000972363
0.000949348
0.000917644
0.000888461
0.000845095
0.00080017
0.000744957
0.000675185
0.000615569
0.000541393
0.000453659
0.000408945
0.000364874
0.000290843
0.000195637
0.000117971
9.85204e-05
0.000137886
0.000164311
0.000172527
0.000169408
0.000161435
0.000174505
0.000118003
6.83389e-05
4.92963e-05
3.67572e-05
3.35288e-05
3.12891e-05
3.58751e-05
4.70272e-05
6.09563e-05
6.79989e-05
7.4544e-05
7.62546e-05
7.69555e-05
7.50074e-05
7.26573e-05
6.88074e-05
6.58409e-05
6.29178e-05
6.09966e-05
5.96717e-05
5.91447e-05
5.91989e-05
5.96992e-05
6.05669e-05
6.16782e-05
6.29354e-05
6.42614e-05
6.56209e-05
6.69278e-05
6.81853e-05
6.91551e-05
7.00553e-05
7.05214e-05
7.1425e-05
7.1798e-05
7.32008e-05
7.39097e-05
7.61951e-05
7.74496e-05
7.95491e-05
8.02207e-05
8.05483e-05
8.06279e-05
7.96092e-05
8.15832e-05
8.69247e-05
9.83888e-05
0.00012146
9.93089e-05
7.76904e-05
7.94081e-05
0.000153541
0.000321252
0.000681177
0.00115688
0.00180016
0.00299869
0.00430203
0.00541287
0.00703468
0.00525942
0.0043155
0.00348022
0.00287732
0.00245712
0.00214377
0.00189239
0.00167583
0.00147524
0.00128291
0.00109859
0.000925242
0.00076514
0.000639503
0.000543311
0.000484866
0.000469793
0.000468045
0.000468062
0.000466818
0.000464517
0.000459133
0.000459086
0.00046331
0.000479192
0.000515837
0.000536887
0.000532212
0.000518579
0.000487224
0.000456651
0.000402609
0.000320241
0.000286381
0.000277762
0.000361439
0.000233507
0.000141238
0.000109421
9.57456e-05
9.72791e-05
0.000103648
0.000120754
0.000137488
0.00015194
0.000155999
0.000155705
0.000151914
0.000148894
0.000146485
0.000145103
0.000143982
0.000143146
0.000142237
0.000141655
0.000141653
0.000142413
0.000143627
0.000145176
0.000146978
0.000148946
0.000151013
0.000153113
0.00015523
0.000157298
0.000159245
0.000160877
0.000162239
0.000163115
0.000164093
0.000164667
0.000165896
0.000166706
0.000168602
0.000169811
0.000171548
0.000172482
0.00017421
0.00017643
0.000180908
0.000187373
0.000200154
0.000217883
0.000253369
0.000274833
0.000255833
0.000221025
0.000395356
0.000887191
0.00181842
0.00317551
0.00500193
0.00727707
0.0125626
0.0135284
0.00166376
0.00181609
0.00376915
0.0032014
0.00252447
0.00208277
0.00180601
0.00161855
0.00148113
0.00136031
0.00123608
0.00111748
0.000976694
0.000858104
0.000843605
0.000863211
0.000969998
0.00103609
0.00102811
0.000992418
0.00094176
0.000902109
0.000878656
0.000888807
0.000919793
0.000976035
0.000989602
0.000965384
0.000895122
0.000774565
0.000655112
0.000579892
0.000474988
0.000438359
0.00041551
0.000311347
0.000441793
0.000287141
0.000209601
0.000166135
0.000150011
0.000146965
0.000149994
0.000168955
0.000178111
0.000185362
0.000184908
0.000175419
0.000166893
0.000160433
0.000157144
0.000156682
0.000158375
0.000160846
0.000163645
0.000166105
0.00016881
0.000171441
0.0001738
0.00017592
0.000177851
0.000179666
0.000181418
0.000183122
0.000184807
0.000186465
0.000188066
0.000189489
0.000190625
0.000191325
0.000191865
0.00019215
0.000192548
0.000192927
0.000193609
0.000194444
0.000195675
0.000197293
0.00020004
0.00020312
0.000208615
0.000213296
0.000222428
0.000235724
0.000272288
0.000390707
0.000524511
0.000547649
0.000893041
0.00138867
0.00208771
0.0032887
0.00482287
0.00697263
0.00969516
0.00941475
0.0013994
0.00192933
0.00505722
0.00352734
0.00248774
0.00195352
0.0016759
0.00151979
0.00140476
0.00132735
0.00125937
0.0012262
0.00122857
0.00137175
0.00172714
0.00169579
0.00146729
0.00130464
0.00120689
0.00113054
0.00106869
0.00102334
0.00101153
0.00102717
0.00103842
0.00103792
0.00101458
0.000993651
0.000937685
0.000787447
0.000649171
0.00056197
0.00045911
0.000465807
0.000473488
0.000359154
0.000582038
0.000376744
0.000293596
0.000223011
0.00019884
0.000188434
0.000184793
0.000197239
0.000200179
0.00020201
0.000198483
0.000185119
0.000173817
0.000165512
0.000161207
0.000160753
0.000163388
0.000167518
0.000172225
0.000176753
0.000181211
0.000185019
0.000188138
0.00019065
0.000192739
0.000194558
0.000196217
0.000197775
0.000199278
0.000200737
0.000202113
0.000203316
0.000204178
0.000204581
0.000204762
0.00020472
0.000204618
0.000204736
0.000204947
0.000205759
0.000207073
0.000209358
0.000212727
0.000215529
0.000219023
0.000221079
0.000224743
0.000232582
0.000270476
0.000441879
0.000816962
0.00103413
0.00171426
0.0025469
0.00286782
0.00445679
0.00445874
0.00579083
0.00810065
0.00719862
0.00132601
0.00172135
0.00199827
0.00142071
0.00136627
0.00137816
0.00138989
0.00142877
0.00142046
0.00140938
0.00144039
0.00175874
0.00209123
0.00210784
0.00186139
0.00163438
0.00145234
0.00136009
0.00129968
0.00124315
0.0011647
0.00107921
0.00103218
0.00100512
0.000964256
0.000931749
0.00092121
0.00094256
0.000935002
0.000729444
0.000559086
0.000483981
0.00041813
0.000456364
0.000464541
0.000367498
0.000730718
0.000417849
0.000337864
0.000270392
0.000246363
0.000233294
0.00022336
0.000229478
0.000230381
0.000224459
0.000215138
0.000195678
0.000180406
0.000168439
0.000163259
0.000162417
0.000165257
0.000169918
0.000175344
0.000181237
0.000186718
0.00019122
0.000194837
0.000197628
0.000199856
0.000201717
0.000203353
0.000204853
0.000206274
0.000207647
0.000208919
0.000210026
0.000210691
0.000210881
0.000210791
0.000210547
0.000210162
0.0002102
0.000210288
0.000211405
0.000213099
0.000215867
0.000218978
0.000221203
0.000222205
0.000222445
0.000219591
0.000228028
0.000261178
0.000443156
0.000895885
0.00170969
0.00287867
0.00431817
0.0044731
0.00565482
0.00517867
0.00561378
0.00455397
0.00374662
0.0012838
0.00169068
0.00155674
0.00116676
0.00138766
0.00128022
0.00137539
0.00145022
0.0015364
0.0018289
0.00216618
0.0022592
0.00212878
0.00193726
0.00166426
0.00152609
0.00145892
0.00142063
0.00139118
0.00136185
0.00128597
0.00120586
0.00117267
0.00114789
0.00110452
0.00104194
0.000977737
0.000942708
0.000969052
0.000753864
0.000532098
0.000422145
0.000387905
0.000445554
0.000441385
0.000365826
0.000899497
0.000428078
0.000351175
0.000295286
0.000276214
0.00026747
0.000261227
0.000260278
0.000254905
0.000240071
0.000227292
0.000201042
0.000182374
0.000166694
0.000157456
0.000154956
0.000158943
0.000165724
0.000173869
0.000181257
0.000187295
0.00019223
0.000196191
0.000199176
0.000201493
0.000203361
0.000204964
0.000206412
0.000207769
0.000209076
0.00021029
0.000211352
0.000211896
0.000211959
0.000211664
0.000211303
0.000210685
0.000210679
0.000210638
0.000211942
0.000213736
0.000216738
0.000219762
0.000221619
0.000220786
0.000219151
0.000210281
0.000222899
0.000251455
0.000413262
0.000889148
0.00224667
0.00454215
0.00695148
0.00712634
0.0086973
0.00704562
0.00866881
0.00333936
0.00313347
0.00157864
0.00177774
0.00153883
0.00135351
0.00156033
0.00160244
0.00176561
0.0019491
0.00217509
0.00226877
0.00221717
0.00206595
0.00170357
0.00133591
0.00113916
0.00104207
0.00100194
0.000993739
0.00101131
0.00105566
0.00111992
0.00117786
0.00124004
0.00129749
0.00132731
0.00133636
0.00116855
0.00104747
0.00100287
0.000916667
0.000683523
0.000512062
0.000473773
0.000481278
0.00045146
0.000360627
0.000729879
0.000400746
0.000327296
0.00029894
0.000285076
0.000279315
0.0002797
0.000272691
0.000264883
0.000245632
0.000231536
0.000201633
0.000174725
0.000150414
0.000138901
0.000135645
0.000139976
0.000146791
0.000154782
0.000162367
0.000169399
0.000175606
0.000180619
0.000184208
0.000186764
0.000188598
0.000189983
0.000191189
0.000192226
0.000193162
0.000193973
0.000194663
0.00019448
0.000193866
0.000192524
0.000191534
0.000189727
0.00018951
0.000188734
0.000190324
0.000191988
0.000195353
0.000197763
0.000198842
0.000195413
0.000195984
0.000186451
0.000205226
0.000231235
0.000361129
0.000812618
0.00270895
0.00626035
0.00800621
0.00688368
0.00641001
0.00623667
0.00680783
0.0014131
0.00137357
0.00177295
0.00186149
0.00155167
0.00148802
0.00174149
0.00185933
0.00201274
0.00207486
0.00209105
0.00191199
0.00149596
0.00111108
0.000916131
0.000849679
0.000834029
0.000848887
0.000865061
0.000873642
0.000890604
0.000913516
0.000939038
0.000968403
0.00106827
0.0011835
0.001327
0.00144975
0.00149333
0.00137251
0.00132481
0.00130895
0.00120314
0.00102496
0.00083764
0.000616502
0.00049268
0.000372993
0.000526002
0.000396195
0.000272533
0.000237499
0.000237133
0.000241843
0.000259758
0.000251206
0.000253774
0.000241412
0.000228713
0.000190056
0.000158509
0.000129256
0.000114007
0.000109843
0.000116923
0.000126434
0.000136307
0.000144456
0.000151125
0.000156669
0.00016102
0.000163989
0.000165936
0.000167238
0.000168112
0.00016867
0.00016882
0.000168709
0.000168365
0.000167882
0.000166633
0.000165264
0.000163159
0.000161664
0.000158879
0.000157425
0.000154873
0.000154739
0.000153943
0.000155421
0.00015574
0.000156917
0.000154373
0.000154077
0.00014546
0.000161999
0.000207661
0.000308265
0.000503564
0.0010523
0.0022453
0.00474876
0.00673496
0.00668072
0.00565128
0.00444336
0.000981133
0.000966089
0.00194398
0.00200246
0.0014344
0.00135754
0.00132279
0.00132885
0.00132455
0.00124592
0.00108507
0.000940721
0.00088564
0.000874447
0.000939348
0.00102465
0.00108367
0.00110886
0.0011153
0.00111315
0.00111004
0.00112453
0.00113838
0.00114457
0.00112468
0.00117638
0.00127942
0.00146997
0.00155912
0.00158274
0.0015664
0.00158901
0.0016247
0.00161945
0.00150441
0.00109378
0.000888473
0.00088711
0.000430159
0.000437168
0.000260362
0.000209746
0.000178587
0.000169046
0.00019949
0.000216541
0.000235402
0.000230596
0.00022215
0.00017737
0.000135854
9.63502e-05
7.80025e-05
7.32504e-05
7.62115e-05
8.1609e-05
8.77558e-05
9.35016e-05
9.94323e-05
0.000105299
0.000109714
0.00011253
0.000114243
0.000115256
0.00011584
0.000116306
0.000116771
0.000117207
0.000117455
0.000117584
0.000116578
0.000115335
0.000113266
0.000112201
0.000110038
0.000110389
0.000108894
0.000109918
0.000108855
0.000109843
0.000108925
0.000109447
0.000107167
0.00010825
0.000107137
0.000120368
0.000160296
0.000252177
0.000416523
0.000858818
0.00195269
0.00323362
0.0046592
0.0051735
0.00561976
0.00686279
0.000992503
0.000916061
0.00199548
0.00211237
0.00149124
0.00136973
0.00118771
0.00111804
0.0010262
0.000985778
0.000960081
0.000957246
0.00101257
0.00111928
0.00116958
0.00116899
0.0011206
0.00105568
0.00100442
0.000967891
0.000954327
0.000964243
0.00109556
0.0012581
0.00139315
0.00141859
0.00132555
0.00126357
0.0012608
0.00134238
0.00137149
0.00144098
0.00151745
0.00167065
0.00175381
0.00166848
0.00120312
0.00076247
0.000410826
0.000452562
0.000268165
0.00021681
0.000163551
0.000138697
0.00015519
0.000168465
0.000198937
0.000203667
0.000194617
0.000152397
0.000110463
7.68248e-05
6.22818e-05
5.78841e-05
5.91219e-05
6.19889e-05
6.55955e-05
6.92463e-05
7.37505e-05
7.71379e-05
7.9782e-05
8.16045e-05
8.25963e-05
8.32514e-05
8.38289e-05
8.44916e-05
8.50782e-05
8.55524e-05
8.58498e-05
8.60235e-05
8.55717e-05
8.50495e-05
8.41336e-05
8.37958e-05
8.2896e-05
8.31088e-05
8.21264e-05
8.22054e-05
8.11714e-05
8.14325e-05
8.09802e-05
8.20593e-05
8.24196e-05
8.40086e-05
8.33212e-05
9.02994e-05
0.000120536
0.000174925
0.000291794
0.000779564
0.00232105
0.00409971
0.004942
0.00542701
0.00570645
0.00631538
0.00105551
0.00103252
0.00187149
0.00195898
0.00176844
0.00173549
0.0015739
0.00145998
0.00134662
0.00132504
0.00133125
0.00144445
0.00150071
0.00148464
0.00132936
0.00119708
0.00109257
0.00101759
0.000961251
0.000922807
0.000901896
0.000880453
0.000878857
0.000904552
0.000958639
0.000989595
0.0010471
0.00111667
0.00098729
0.000897884
0.000879189
0.000973771