/*--------------------------------*- C++ -*----------------------------------*\
| =========                 |                                                 |
| \\      /  F ield         | OpenFOAM: The Open Source CFD Toolbox           |
|  \\    /   O peration     | Version:  2.3.0                                 |
|   \\  /    A nd           | Web:      www.OpenFOAM.org                      |
|    \\/     M anipulation  |                                                 |
\*---------------------------------------------------------------------------*/
FoamFile
{
    version     2.0;
    format      ascii;
    class       surfaceScalarField;
    location    "28";
    object      phi.water;
}
// * * * * * * * * * * * * * * * * * * * * * * * * * * * * * * * * * * * * * //

dimensions      [0 3 -1 0 0 0 0];

internalField   nonuniform List<scalar> 
16448
(
-9.6958e-07
-2.55272e-06
6.5581e-07
5.53961e-07
-2.45175e-06
9.32909e-07
6.44628e-07
-1.29386e-06
1.20559e-06
6.92382e-07
-1.19407e-06
1.14904e-06
4.95226e-07
-7.57652e-07
9.58115e-07
3.27723e-07
-6.83995e-07
8.5458e-07
6.13796e-08
-4.16893e-07
6.87742e-07
-1.40267e-07
-3.73259e-07
5.8021e-07
-3.26408e-07
-3.19836e-07
5.08906e-07
-5.13165e-07
-2.84295e-07
4.71429e-07
-6.36985e-07
-2.92431e-07
4.1652e-07
-6.42202e-07
-3.41424e-07
3.46897e-07
-5.5595e-07
-4.03425e-07
3.17462e-07
-4.07888e-07
-4.5036e-07
3.02539e-07
-2.63282e-07
-4.71329e-07
3.27029e-07
-1.31299e-07
-4.85158e-07
3.53428e-07
-4.05971e-08
-4.86807e-07
3.9641e-07
2.76398e-08
-4.96651e-07
4.28674e-07
7.09698e-08
-5.03568e-07
4.60519e-07
9.80948e-08
-5.06506e-07
4.79638e-07
1.10676e-07
-5.05642e-07
4.93325e-07
1.13733e-07
-5.01545e-07
4.98739e-07
1.10352e-07
-4.95288e-07
4.98932e-07
1.03667e-07
-4.87454e-07
4.94396e-07
9.57436e-08
-4.78329e-07
4.86519e-07
8.83929e-08
-4.68612e-07
4.76225e-07
8.29388e-08
-4.58663e-07
4.64397e-07
7.94678e-08
-4.48241e-07
4.51993e-07
7.82617e-08
-4.37764e-07
4.39265e-07
7.78938e-08
-4.2673e-07
4.27391e-07
8.01641e-08
-4.17729e-07
4.1577e-07
8.09982e-08
-4.0753e-07
4.06999e-07
8.3371e-08
-3.99653e-07
3.97602e-07
7.98729e-08
-3.8751e-07
3.91318e-07
7.96482e-08
-3.80459e-07
3.81016e-07
7.23395e-08
-3.66615e-07
3.7424e-07
7.20729e-08
-3.59251e-07
3.59862e-07
6.65696e-08
-3.43918e-07
3.49734e-07
7.49579e-08
-3.37589e-07
3.29556e-07
8.2711e-08
-3.23874e-07
3.16427e-07
1.078e-07
-3.21655e-07
2.96952e-07
1.23491e-07
-3.10002e-07
2.94569e-07
1.4971e-07
-3.17838e-07
2.92123e-07
1.36227e-07
-3.01266e-07
3.14901e-07
1.36052e-07
-3.39591e-07
3.40385e-07
5.41708e-08
-2.99203e-07
3.81089e-07
5.60182e-08
-3.92879e-07
3.92006e-07
-9.70947e-09
-3.28014e-07
3.93141e-07
6.48883e-08
-4.45919e-07
3.7346e-07
-2.01349e-07
-1.61165e-07
4.28062e-07
-5.93978e-07
-2.57833e-07
6.90013e-07
-9.29337e-07
-3.23226e-07
7.2001e-07
-2.36872e-06
-3.0855e-07
1.92153e-06
-3.04251e-06
-2.02985e-06
2.68064e-06
-1.4778e-06
-4.67132e-06
3.34254e-06
-4.91208e-07
-6.30737e-06
5.12778e-06
-1.41293e-06
2.92898e-07
1.86992e-06
-2.92884e-06
5.69273e-07
6.70453e-07
5.11155e-06
-1.11998e-06
2.57264e-06
2.77676e-05
-1.54253e-05
1.31041e-05
1.95479e-05
-2.25456e-05
3.93759e-06
2.70006e-05
-1.30933e-05
4.05837e-06
2.54129e-05
-1.97671e-06
3.56004e-06
2.73975e-05
-4.28649e-06
2.30182e-06
2.91287e-05
-3.25593e-06
1.52479e-06
2.92254e-05
-9.49882e-07
8.53097e-07
2.8214e-05
4.34816e-07
5.76564e-07
2.63859e-05
1.29217e-06
5.35944e-07
2.37978e-05
1.96257e-06
6.2552e-07
2.05524e-05
2.52435e-06
7.21045e-07
1.70386e-05
2.82677e-06
6.8708e-07
1.36399e-05
2.84609e-06
5.52576e-07
1.0707e-05
2.54019e-06
3.92722e-07
8.58688e-06
1.96053e-06
1.59596e-07
7.6063e-06
1.11194e-06
-1.31357e-07
7.63732e-06
3.78275e-07
-4.09296e-07
8.27285e-06
-5.00192e-08
-5.8551e-07
9.26318e-06
-2.21713e-07
-7.68619e-07
1.03006e-05
-9.42004e-08
-9.43244e-07
1.12936e-05
1.07026e-07
-1.09998e-06
1.21719e-05
3.21259e-07
-1.19958e-06
1.29318e-05
4.54256e-07
-1.21421e-06
1.37238e-05
4.69746e-07
-1.26174e-06
1.44329e-05
3.65543e-07
-1.07465e-06
1.5462e-05
9.18309e-08
-1.12094e-06
1.67308e-05
-2.87418e-07
-9.81378e-07
1.82234e-05
-4.89571e-07
-1.00299e-06
1.98143e-05
-5.96455e-07
-9.94414e-07
2.04518e-05
-1.16292e-07
-5.21205e-07
1.94105e-05
7.91374e-07
2.4987e-07
1.72422e-05
1.05347e-06
1.11482e-06
1.3432e-05
2.11165e-06
1.6986e-06
5.62928e-06
3.62378e-06
4.17891e-06
-1.29745e-06
4.39668e-06
2.53005e-06
-3.47323e-06
4.29787e-06
-2.1221e-06
4.3702e-06
-7.84343e-06
-2.27247e-06
-3.86193e-06
4.83666e-08
-1.24061e-06
-3.78045e-06
3.04803e-07
-9.67186e-07
-2.41751e-06
8.55668e-07
-4.7359e-07
-2.12667e-06
4.43275e-07
-1.75115e-07
-1.32651e-06
2.74703e-07
1.69092e-08
-1.04073e-06
1.68427e-07
-3.54627e-09
-4.45664e-07
5.38344e-08
-1.93377e-07
-2.58212e-07
7.88514e-08
-4.81738e-07
-1.2881e-07
9.91835e-08
-7.32894e-07
-1.30736e-07
9.74464e-08
-8.57702e-07
-2.1321e-07
4.55796e-08
-8.41039e-07
-3.39863e-07
-1.82579e-08
-7.44166e-07
-4.49474e-07
-5.07422e-08
-5.88934e-07
-5.36032e-07
-6.95138e-08
-4.24146e-07
-5.77764e-07
-5.82564e-08
-2.68503e-07
-5.9906e-07
-4.16846e-08
-1.50813e-07
-5.93125e-07
-1.12882e-08
-5.92829e-08
-5.96457e-07
8.33231e-09
3.69363e-09
-5.91996e-07
2.55547e-08
4.67463e-08
-5.86487e-07
3.70254e-08
7.03017e-08
-5.74974e-07
4.58939e-08
8.05485e-08
-5.61096e-07
4.94206e-08
8.17302e-08
-5.45499e-07
4.91494e-08
7.75525e-08
-5.29103e-07
4.59469e-08
7.1162e-08
-5.12231e-07
4.04093e-08
6.48173e-08
-4.95493e-07
3.3342e-08
5.98706e-08
-4.7899e-07
2.53876e-08
5.66793e-08
-4.62187e-07
1.72474e-08
5.54876e-08
-4.45662e-07
9.19531e-09
5.48026e-08
-4.28114e-07
2.16241e-09
5.77006e-08
-4.12485e-07
-8.03206e-09
5.97675e-08
-3.93494e-07
-1.59917e-08
6.39349e-08
-3.79271e-07
-2.44084e-08
6.22183e-08
-3.55561e-07
-3.01047e-08
6.54089e-08
-3.43804e-07
-3.96782e-08
6.06004e-08
-3.16116e-07
-4.55501e-08
6.67125e-08
-3.07136e-07
-5.80358e-08
6.51879e-08
-2.76399e-07
-6.58459e-08
8.23157e-08
-2.73508e-07
-8.09924e-08
9.19327e-08
-2.4451e-07
-8.88191e-08
1.18769e-07
-2.49637e-07
-9.85947e-08
1.17096e-07
-2.1497e-07
-9.32391e-08
1.32848e-07
-2.38456e-07
-9.47657e-08
7.21325e-08
-1.77352e-07
-6.31748e-08
6.07552e-08
-2.59099e-07
-6.861e-08
-3.63639e-08
-1.69808e-07
-3.29011e-08
-1.27018e-08
-3.52831e-07
-6.20204e-08
-7.92752e-09
-2.42007e-07
-9.19288e-08
1.49347e-07
-4.89472e-07
-1.12031e-07
4.38301e-08
5.09714e-08
-1.06581e-07
1.17137e-07
-3.45195e-07
7.97684e-08
-7.67775e-07
1.754e-07
4.4978e-07
-2.66351e-06
7.25289e-07
1.03195e-06
-2.76887e-06
-3.03547e-06
1.08465e-06
1.10139e-06
-8.69881e-06
3.38867e-07
4.38244e-06
-1.24121e-05
2.6678e-06
-1.95531e-06
7.18832e-06
6.35415e-07
-1.04191e-05
7.31611e-06
1.40275e-06
1.34515e-06
-1.0282e-07
-3.5626e-06
2.91526e-05
-3.16905e-05
6.29128e-06
1.03174e-05
-3.32099e-05
1.69675e-06
1.05335e-05
-1.65976e-05
1.90892e-06
1.6069e-05
-7.47589e-06
-3.78912e-08
2.0744e-05
-7.45109e-06
-1.51038e-06
2.32531e-05
-4.00745e-06
-1.75761e-06
2.43033e-05
-5.12176e-07
-1.48791e-06
2.41702e-05
1.68746e-06
-1.11959e-06
2.28621e-05
3.31978e-06
-7.19516e-07
2.06385e-05
4.43408e-06
-2.47899e-07
1.79539e-05
5.1245e-06
8.44956e-08
1.50118e-05
5.64554e-06
1.23291e-07
1.19441e-05
5.84826e-06
6.54882e-08
9.38441e-06
5.43268e-06
-3.32754e-07
7.83463e-06
4.3631e-06
-8.52793e-07
7.12598e-06
3.02934e-06
-1.20874e-06
6.87012e-06
2.27258e-06
-1.63845e-06
7.10686e-06
1.96072e-06
-2.24748e-06
7.75908e-06
2.00348e-06
-2.87741e-06
8.66533e-06
2.35353e-06
-3.35398e-06
9.59876e-06
2.75137e-06
-3.57777e-06
1.04678e-05
2.97445e-06
-3.52219e-06
1.121e-05
3.01171e-06
-3.29966e-06
1.18189e-05
2.83904e-06
-2.97819e-06
1.24383e-05
2.40094e-06
-2.65483e-06
1.3364e-05
1.71153e-06
-2.54543e-06
1.47895e-05
8.35244e-07
-2.54818e-06
1.68445e-05
1.25454e-07
-2.67e-06
1.89062e-05
-2.32864e-07
-2.42527e-06
2.00123e-05
4.09666e-07
-1.63208e-06
1.91459e-05
1.90011e-06
-2.42366e-07
1.69285e-05
2.3794e-06
8.91465e-07
1.32749e-05
4.36367e-06
1.40167e-06
5.85691e-06
7.27879e-06
3.76293e-06
-9.88582e-07
9.0215e-06
2.22067e-06
-3.19254e-06
8.82493e-06
-2.32311e-06
9.42641e-06
-8.24875e-06
-3.17837e-06
-4.4788e-06
-2.26856e-07
-2.34707e-06
-4.52791e-06
-7.61278e-08
-2.14318e-06
-3.12513e-06
5.09738e-07
-1.51701e-06
-2.78422e-06
3.57929e-08
-9.84213e-07
-1.85649e-06
2.21315e-09
-4.43647e-07
-1.43909e-06
-1.37019e-07
-2.42303e-07
-4.43532e-07
-1.98438e-07
-3.65245e-07
-4.66324e-08
-8.57026e-08
-6.34885e-07
1.99271e-07
-5.70496e-08
-8.12042e-07
1.18983e-07
-7.22561e-08
-8.70398e-07
-1.60036e-08
-1.38456e-07
-8.41507e-07
-1.62347e-07
-2.06145e-07
-7.69771e-07
-2.79148e-07
-2.41848e-07
-6.59703e-07
-3.8284e-07
-2.63149e-07
-5.27194e-07
-4.37701e-07
-2.72464e-07
-3.91679e-07
-4.62269e-07
-2.72229e-07
-2.72212e-07
-4.49005e-07
-2.63485e-07
-1.72335e-07
-4.40368e-07
-2.55887e-07
-9.68872e-08
-4.21043e-07
-2.4629e-07
-4.12212e-08
-4.02962e-07
-2.39095e-07
-5.58035e-09
-3.78591e-07
-2.31904e-07
1.58439e-08
-3.54301e-07
-2.28109e-07
2.62603e-08
-3.29276e-07
-2.26512e-07
2.91271e-08
-3.04535e-07
-2.27308e-07
2.73748e-08
-2.80762e-07
-2.29578e-07
2.35695e-08
-2.58466e-07
-2.3308e-07
1.93296e-08
-2.37362e-07
-2.37233e-07
1.57553e-08
-2.16774e-07
-2.41682e-07
1.35879e-08
-1.97002e-07
-2.46321e-07
1.33658e-08
-1.76911e-07
-2.50813e-07
1.56401e-08
-1.58673e-07
-2.55891e-07
1.85517e-08
-1.36027e-07
-2.60196e-07
2.37425e-08
-1.18478e-07
-2.65761e-07
2.66153e-08
-8.91308e-08
-2.69106e-07
3.35235e-08
-7.55944e-08
-2.74867e-07
3.53603e-08
-4.06034e-08
-2.77136e-07
4.50438e-08
-3.33072e-08
-2.83233e-07
4.61975e-08
6.32715e-09
-2.83642e-07
5.55421e-08
4.60748e-09
-2.87146e-07
4.7057e-08
4.73279e-08
-2.83112e-07
3.43976e-08
4.40918e-08
-2.80709e-07
-8.1521e-09
9.46914e-08
-2.67022e-07
-6.05019e-08
8.21661e-08
-2.67664e-07
-1.28361e-07
1.41476e-07
-2.51051e-07
-1.75534e-07
6.83524e-08
-2.79391e-07
-1.94761e-07
1.33884e-07
-2.85022e-07
-9.91294e-08
-1.02008e-07
-3.44789e-07
2.60419e-08
1.33815e-08
-3.81301e-07
2.50496e-07
-3.60145e-07
-3.51122e-07
6.29749e-07
1.97411e-07
-5.21191e-07
5.34106e-07
6.58764e-08
-2.37938e-07
-7.86784e-07
1.5468e-06
2.27859e-09
1.53385e-06
-3.71294e-07
-9.85665e-07
5.6162e-06
-5.55093e-06
-1.58526e-06
6.7202e-06
-9.70619e-06
1.3826e-07
3.12425e-06
-1.20607e-05
3.13173e-06
6.16107e-06
6.78496e-06
-6.88152e-07
-1.42787e-06
1.30713e-05
9.10918e-07
6.07914e-06
6.37262e-06
-3.63732e-06
2.98638e-05
-3.76742e-05
2.53198e-06
4.38556e-06
-3.7847e-05
1.80117e-06
4.08731e-06
-1.8956e-05
1.28673e-06
1.71204e-05
-1.86222e-05
-1.88738e-06
2.11396e-05
-9.01252e-06
-2.4578e-06
2.1909e-05
-2.59364e-06
-2.18322e-06
2.31069e-05
-2.44053e-07
-1.46604e-06
2.2373e-05
3.00764e-06
-5.8626e-07
2.00799e-05
5.54885e-06
6.39295e-08
1.68666e-05
7.1441e-06
5.03294e-07
1.31374e-05
8.00394e-06
8.49845e-07
9.77463e-06
8.50187e-06
5.06395e-07
7.44402e-06
8.28955e-06
-1.10679e-07
5.30634e-06
7.91299e-06
-3.4263e-07
3.22407e-06
7.16105e-06
-7.15686e-07
1.94152e-06
6.57883e-06
-2.26694e-06
1.86813e-06
6.64464e-06
-4.29866e-06
2.69851e-06
6.67886e-06
-5.54852e-06
3.80362e-06
6.41144e-06
-5.51307e-06
4.87973e-06
6.13465e-06
-4.85724e-06
5.86996e-06
5.90015e-06
-4.13901e-06
6.69673e-06
5.68673e-06
-3.53906e-06
7.31927e-06
5.42435e-06
-3.03518e-06
7.74487e-06
5.08277e-06
-2.66933e-06
8.20156e-06
4.50935e-06
-2.56511e-06
9.13343e-06
3.46437e-06
-2.6847e-06
1.10197e-05
1.91257e-06
-2.96356e-06
1.37593e-05
4.06241e-07
-3.02045e-06
1.64627e-05
-4.54876e-07
-2.48142e-06
1.7759e-05
1.88181e-07
-1.0748e-06
1.70856e-05
1.65356e-06
9.20011e-07
1.49195e-05
2.87737e-06
1.66806e-06
1.0857e-05
6.43959e-06
1.98656e-06
3.16766e-06
1.09137e-05
4.05446e-06
-2.39129e-06
1.28524e-05
1.72808e-06
-3.50988e-06
1.2774e-05
-2.83048e-06
1.42089e-05
-8.29236e-06
-3.84132e-06
-4.83828e-06
-6.64776e-08
-2.86411e-06
-5.011e-06
-4.8781e-07
-2.73679e-06
-3.57906e-06
3.33806e-07
-2.05889e-06
-3.31361e-06
-1.44025e-07
-1.54835e-06
-2.34961e-06
-1.21945e-08
-7.90053e-07
-2.00529e-06
-1.85994e-07
-1.99746e-07
-8.22558e-07
-2.04467e-07
-1.35523e-07
-7.58042e-08
-3.15119e-08
-3.97579e-07
4.77376e-07
-1.49932e-08
-6.2123e-07
3.96875e-07
-5.39655e-08
-7.19625e-07
2.4018e-07
-1.57284e-07
-7.58255e-07
1.12262e-07
-2.35531e-07
-7.36209e-07
-1.38111e-08
-2.87022e-07
-6.62102e-07
-1.33197e-07
-3.23461e-07
-5.52475e-07
-2.03269e-07
-3.43751e-07
-4.34459e-07
-2.23663e-07
-3.56313e-07
-3.25896e-07
-1.94411e-07
-3.62834e-07
-2.33294e-07
-1.64962e-07
-3.67685e-07
-1.55861e-07
-1.2907e-07
-3.69087e-07
-9.48936e-08
-9.64995e-08
-3.67113e-07
-4.95332e-08
-6.03993e-08
-3.63241e-07
-1.76317e-08
-2.69353e-08
-3.58957e-07
1.73813e-09
6.53112e-09
-3.54872e-07
1.32123e-08
3.60208e-08
-3.51709e-07
1.86061e-08
6.41184e-08
-3.49951e-07
1.9803e-08
9.01535e-08
-3.49476e-07
1.83814e-08
1.14443e-07
-3.50043e-07
1.57428e-08
1.37467e-07
-3.51248e-07
1.28507e-08
1.59168e-07
-3.52925e-07
1.04982e-08
1.804e-07
-3.54601e-07
9.66091e-09
1.99613e-07
-3.57083e-07
1.0196e-08
2.22484e-07
-3.58695e-07
1.39207e-08
2.40405e-07
-3.62234e-07
1.62561e-08
2.72215e-07
-3.63344e-07
2.279e-08
2.85506e-07
-3.67258e-07
2.46462e-08
3.24369e-07
-3.66509e-07
3.07334e-08
3.29148e-07
-3.68165e-07
2.4665e-08
3.76093e-07
-3.63406e-07
1.71731e-08
3.72145e-07
-3.59659e-07
-7.86336e-09
4.22603e-07
-3.4997e-07
-4.50605e-08
4.23698e-07
-3.41966e-07
-9.39715e-08
4.78882e-07
-3.35058e-07
-1.50442e-07
4.7743e-07
-3.3822e-07
-1.84118e-07
5.16609e-07
-3.41468e-07
-1.92135e-07
4.51046e-07
-3.73723e-07
-1.58941e-07
4.77849e-07
-3.77596e-07
-7.68834e-08
2.20066e-07
-4.02318e-07
-2.53635e-08
3.4935e-07
-3.88306e-07
-1.15644e-07
-7.99213e-08
-1.84899e-07
1.26735e-07
3.03119e-07
-3.37274e-07
3.06545e-07
1.9345e-07
-2.35802e-07
2.78068e-07
2.1662e-06
-5.22227e-07
4.38728e-06
-2.49032e-06
-1.70761e-06
8.43085e-06
-7.81074e-06
-1.81809e-06
8.6184e-06
-8.96406e-06
-6.72209e-07
2.17462e-07
-5.77254e-06
1.88115e-06
3.18241e-06
5.22963e-06
6.49126e-07
-2.6682e-06
1.62724e-05
1.27307e-06
1.0405e-05
6.46509e-06
-1.88736e-06
3.24207e-05
-3.89806e-05
-3.70807e-07
2.70072e-06
-4.0922e-05
2.68428e-06
1.00217e-06
-2.03668e-05
1.52123e-06
9.4475e-06
-2.53712e-05
-1.69668e-06
1.01314e-05
-7.20357e-06
-2.49284e-06
1.32036e-05
-2.65832e-06
-3.00759e-06
1.51727e-05
-2.2944e-09
-2.21084e-06
1.49102e-05
3.73512e-06
-4.65023e-07
1.30484e-05
6.70905e-06
7.01641e-07
1.0526e-05
8.56102e-06
1.10542e-06
7.32861e-06
1.00045e-05
1.19679e-06
3.13257e-06
1.13824e-05
1.31548e-06
-1.52027e-06
1.23465e-05
5.95915e-07
-4.60599e-06
1.28323e-05
-1.83356e-06
-5.43954e-06
1.24732e-05
-4.47864e-06
-4.82163e-06
1.17415e-05
-5.78058e-06
-3.32135e-06
1.06153e-05
-5.47097e-06
-1.62863e-06
9.49888e-06
-4.51273e-06
1.54815e-08
8.18942e-06
-3.4221e-06
1.44388e-06
7.17809e-06
-2.47184e-06
2.44687e-06
6.75266e-06
-1.8555e-06
3.08008e-06
6.53179e-06
-1.47827e-06
3.49273e-06
6.31825e-06
-1.30655e-06
3.7442e-06
6.19185e-06
-1.36055e-06
4.15178e-06
5.72872e-06
-1.62696e-06
5.15767e-06
4.46363e-06
-2.00515e-06
7.15917e-06
2.36303e-06
-2.45195e-06
1.00995e-05
6.80829e-08
-2.60219e-06
1.31223e-05
-1.40217e-06
-2.07554e-06
1.43968e-05
-7.56283e-07
-3.29974e-07
1.33739e-05
8.4292e-07
1.83347e-06
1.06679e-05
3.41027e-06
2.17315e-06
6.05201e-06
8.51939e-06
2.53609e-06
-7.00685e-07
1.3893e-05
3.77342e-06
-4.22286e-06
1.56043e-05
7.70276e-07
-4.1078e-06
1.61845e-05
-3.52554e-06
1.85274e-05
-8.42628e-06
-4.18486e-06
-4.7954e-06
-1.98282e-07
-3.14529e-06
-5.20531e-06
-8.40698e-07
-2.99039e-06
-3.78033e-06
5.4171e-08
-2.17373e-06
-3.62756e-06
-4.97836e-07
-1.77498e-06
-2.6006e-06
-1.41997e-07
-1.06772e-06
-2.37482e-06
-3.31732e-07
-4.04195e-07
-1.31229e-06
-1.66293e-07
1.51646e-08
-4.56721e-07
-3.27677e-08
3.44634e-08
4.87111e-07
-2.67393e-08
-2.44748e-07
6.87527e-07
-1.11796e-08
-4.6762e-07
5.67692e-07
-1.04081e-07
-6.34825e-07
4.46583e-07
-1.6666e-07
-6.91938e-07
2.78401e-07
-2.34827e-07
-6.57563e-07
1.20113e-07
-2.87514e-07
-5.53949e-07
1.0606e-08
-3.17339e-07
-4.3357e-07
-8.72227e-09
-3.35192e-07
-3.29271e-07
4.85674e-08
-3.47131e-07
-2.46768e-07
1.11209e-07
-3.58554e-07
-1.78529e-07
1.72669e-07
-3.69846e-07
-1.20262e-07
2.23307e-07
-3.77968e-07
-7.09554e-08
2.71697e-07
-3.81276e-07
-3.0115e-08
3.13339e-07
-3.81004e-07
6.14113e-10
3.5343e-07
-3.77493e-07
2.02343e-08
3.89802e-07
-3.73288e-07
3.12621e-08
4.22019e-07
-3.68805e-07
3.62497e-08
4.49838e-07
-3.64564e-07
3.73349e-08
4.74209e-07
-3.60726e-07
3.6312e-08
4.95853e-07
-3.57249e-07
3.43314e-08
5.15229e-07
-3.53945e-07
3.24514e-08
5.33089e-07
-3.50688e-07
3.10819e-08
5.4883e-07
-3.47694e-07
2.96004e-08
5.68065e-07
-3.43967e-07
3.07162e-08
5.81401e-07
-3.41931e-07
3.03713e-08
6.09762e-07
-3.37054e-07
3.50785e-08
6.16243e-07
-3.35231e-07
3.36851e-08
6.54402e-07
-3.28477e-07
3.4298e-08
6.52002e-07
-3.2323e-07
2.06314e-08
7.02102e-07
-3.12178e-07
-1.76142e-10
6.94314e-07
-3.0107e-07
-3.77357e-08
7.49226e-07
-2.88915e-07
-8.67557e-08
7.52584e-07
-2.79566e-07
-1.33674e-07
8.00853e-07
-2.74898e-07
-1.79045e-07
8.02148e-07
-2.78929e-07
-1.94563e-07
8.11512e-07
-2.79414e-07
-1.80498e-07
7.34822e-07
-2.97075e-07
-1.33623e-07
7.11492e-07
-2.80937e-07
-1.20295e-07
4.48682e-07
-2.40594e-07
-1.29978e-07
5.35595e-07
-1.77013e-07
-3.97772e-07
9.65637e-08
9.56988e-08
-3.16784e-07
2.06396e-07
1.88074e-08
6.10544e-07
-7.17141e-07
1.81681e-08
4.19577e-06
-1.97331e-07
-1.1351e-06
8.08222e-06
-4.05859e-06
-2.00613e-06
1.04612e-05
-8.43789e-06
-1.72379e-06
1.14146e-05
-7.25298e-06
-2.36806e-06
9.84155e-06
1.42363e-07
-4.46904e-06
1.27219e-05
7.27008e-06
-3.18645e-06
4.19852e-06
2.73662e-05
-2.8647e-06
1.75997e-05
2.83251e-06
4.31907e-06
3.35546e-05
-3.40745e-05
-1.52631e-06
1.14626e-06
-4.31654e-05
2.48696e-06
-4.13916e-06
-1.94224e-05
2.74472e-06
-1.36116e-06
-2.5596e-05
-2.55621e-06
1.96478e-06
-7.11213e-06
-3.41813e-06
1.0063e-05
-6.64778e-06
-4.10924e-06
1.13958e-05
-3.8866e-07
-9.4682e-07
9.71057e-06
4.72505e-06
6.95189e-07
6.42173e-06
8.26639e-06
1.73138e-06
1.19479e-06
1.14606e-05
2.32732e-06
-5.19682e-06
1.46429e-05
1.7533e-06
-1.02273e-05
1.68017e-05
-3.88715e-07
-1.24722e-05
1.75993e-05
-3.00797e-06
-1.22259e-05
1.73147e-05
-4.72886e-06
-1.06367e-05
1.57707e-05
-4.88692e-06
-8.98398e-06
1.36433e-05
-3.55473e-06
-7.46977e-06
1.10995e-05
-1.99858e-06
-5.9805e-06
8.73554e-06
-7.26029e-07
-4.43319e-06
6.46004e-06
1.82018e-07
-2.87528e-06
4.9288e-06
6.91377e-07
-1.40409e-06
4.44082e-06
8.40624e-07
-4.66905e-08
4.35215e-06
8.22238e-07
1.00266e-06
4.61707e-06
6.51817e-07
1.3533e-06
5.50992e-06
3.31284e-07
1.33441e-06
5.83056e-06
-8.29529e-08
1.63368e-06
4.93807e-06
-7.73712e-07
2.77431e-06
2.8984e-06
-1.676e-06
4.95064e-06
4.07375e-07
-2.51563e-06
7.40738e-06
-1.13219e-06
-2.72672e-06
8.88067e-06
-6.08814e-07
-1.62076e-06
8.30417e-06
1.43823e-06
-1.88047e-08
5.89685e-06
5.08922e-06
7.28366e-07
1.21526e-06
1.09022e-05
2.29875e-06
-4.24753e-06
1.64513e-05
2.90447e-06
-5.49699e-06
1.71098e-05
-2.56073e-07
-4.05514e-06
1.89302e-05
-4.18761e-06
2.29571e-05
-8.48483e-06
-4.39501e-06
-4.19957e-06
-5.38868e-07
-3.32218e-06
-5.03694e-06
-1.23925e-06
-3.23258e-06
-3.51832e-06
-3.44855e-07
-2.16489e-06
-3.68057e-06
-1.00958e-06
-1.72974e-06
-2.49156e-06
-5.37892e-07
-1.10978e-06
-2.41366e-06
-5.75958e-07
-6.42054e-07
-1.45999e-06
-3.13749e-07
-7.76955e-08
-8.22892e-07
-1.90838e-07
3.2493e-07
2.35275e-07
-1.45659e-07
2.29003e-07
8.29965e-07
-4.57485e-08
-5.43877e-08
9.39678e-07
-8.81033e-08
-3.75301e-07
8.90866e-07
-1.22836e-07
-5.53791e-07
6.57766e-07
-2.00337e-07
-5.69828e-07
4.07728e-07
-2.71237e-07
-4.85728e-07
2.54403e-07
-3.27568e-07
-3.71895e-07
2.32742e-07
-3.54986e-07
-2.78454e-07
3.18332e-07
-3.62845e-07
-2.17223e-07
4.18354e-07
-3.67961e-07
-1.72929e-07
5.03668e-07
-3.74872e-07
-1.34613e-07
5.67521e-07
-3.82092e-07
-9.90796e-08
6.21502e-07
-3.84905e-07
-6.7313e-08
6.65124e-07
-3.83101e-07
-4.04422e-08
7.04244e-07
-3.77248e-07
-1.98606e-08
7.38439e-07
-3.68761e-07
-5.24387e-09
7.6674e-07
-3.58894e-07
3.97085e-09
7.89871e-07
-3.48782e-07
7.63787e-09
8.10014e-07
-3.39013e-07
7.60241e-09
8.25924e-07
-3.29559e-07
5.33164e-09
8.38501e-07
-3.20535e-07
2.22483e-09
8.48602e-07
-3.11932e-07
-5.02267e-10
8.55818e-07
-3.03774e-07
-2.37784e-09
8.65531e-07
-2.95129e-07
-3.36674e-09
8.71436e-07
-2.88539e-07
-6.24121e-09
8.92887e-07
-2.79791e-07
-9.279e-09
8.94325e-07
-2.74517e-07
-1.75608e-08
9.27335e-07
-2.64192e-07
-3.07835e-08
9.22964e-07
-2.5721e-07
-5.17962e-08
9.67617e-07
-2.44064e-07
-8.39445e-08
9.6164e-07
-2.34649e-07
-1.18297e-07
1.00706e-06
-2.23058e-07
-1.57442e-07
1.00885e-06
-2.16571e-07
-1.79009e-07
1.03545e-06
-2.12635e-07
-1.8703e-07
1.02509e-06
-2.14277e-07
-1.78119e-07
1.0121e-06
-2.09262e-07
-1.7677e-07
9.4122e-07
-2.06838e-07
-1.66202e-07
8.81452e-07
-1.8067e-07
-2.88518e-07
6.89828e-07
-1.17482e-07
-4.01437e-07
7.14753e-07
-6.58586e-08
-8.85489e-07
3.70816e-07
2.16295e-07
-1.12313e-06
1.58734e-07
2.92786e-07
-3.66074e-07
-1.9253e-06
4.809e-07
4.20406e-06
-4.3084e-06
-3.11068e-07
6.34064e-06
-3.86634e-06
-1.99951e-06
2.21079e-06
-1.66526e-06
-2.44933e-06
1.15355e-07
-2.11944e-06
-2.82814e-06
-2.1892e-06
5.54323e-06
-3.4075e-06
1.09496e-05
2.55102e-06
-6.97631e-06
1.30698e-05
3.45917e-05
-9.18562e-06
2.82017e-05
-5.24423e-06
1.02543e-05
3.71655e-05
-2.48426e-05
-3.15475e-07
-1.17855e-06
-4.15285e-05
2.61982e-06
-7.60969e-06
-1.77281e-05
3.07088e-06
-6.38846e-06
-2.42713e-05
-2.57307e-06
-1.40362e-06
-8.7384e-06
-3.37336e-06
3.3066e-06
-7.47118e-06
-3.89485e-06
2.09214e-06
1.79409e-06
-9.73235e-07
-1.04271e-06
7.13618e-06
7.21497e-07
-6.73747e-06
1.2611e-05
1.34966e-06
-1.25664e-05
1.6949e-05
3.41472e-07
-1.63597e-05
1.99871e-05
-1.55057e-06
-1.7818e-05
2.11343e-05
-2.87781e-06
-1.79446e-05
2.06739e-05
-2.95348e-06
-1.72801e-05
1.85764e-05
-1.92857e-06
-1.67366e-05
1.55295e-05
-3.04956e-07
-1.73887e-05
1.30118e-05
1.28245e-06
-1.80098e-05
9.20454e-06
2.51943e-06
-1.8445e-05
5.61993e-06
3.55101e-06
-1.77307e-05
1.80353e-06
3.93836e-06
-1.5776e-05
-1.05836e-06
4.02687e-06
-1.27055e-05
-2.71151e-06
4.07499e-06
-9.08872e-06
-3.0365e-06
3.76476e-06
-5.64633e-06
-2.05458e-06
3.22475e-06
-3.27145e-06
5.40893e-07
2.59247e-06
-2.58201e-06
3.30752e-06
1.83347e-06
-2.44312e-06
3.8516e-06
9.47647e-07
-2.4237e-06
3.25942e-06
-3.80427e-07
-1.68546e-06
1.81135e-06
-2.14235e-06
-5.59415e-07
1.03964e-06
-3.29808e-06
5.31946e-07
1.8858e-06
-3.58608e-06
-4.90352e-09
4.52668e-06
-2.55162e-06
-2.64767e-06
8.58064e-06
-8.48653e-07
-5.79337e-06
1.3106e-05
9.41882e-07
-6.63805e-06
1.68102e-05
4.85786e-07
-5.62584e-06
1.79584e-05
-1.86077e-06
-4.29633e-06
2.24739e-05
-4.87321e-06
2.69856e-05
-8.32493e-06
-4.59811e-06
-3.34279e-06
-3.62637e-07
-3.55575e-06
-4.87564e-06
-1.20453e-06
-3.57697e-06
-2.89954e-06
-5.9243e-07
-2.32176e-06
-3.57024e-06
-1.3605e-06
-1.66674e-06
-2.20714e-06
-9.32266e-07
-8.53896e-07
-2.27503e-06
-9.46087e-07
-4.20489e-07
-1.14147e-06
-7.46429e-07
-6.4947e-08
-7.25969e-07
-4.46066e-07
3.63721e-07
1.89879e-07
-3.77315e-07
4.67766e-07
9.38302e-07
-2.10052e-07
2.60963e-07
1.305e-06
-1.58073e-07
-1.69013e-07
1.42096e-06
-9.99571e-08
-4.30535e-07
1.08494e-06
-1.6556e-07
-4.72229e-07
7.12756e-07
-2.63384e-07
-4.09201e-07
5.31102e-07
-3.39784e-07
-3.16654e-07
5.1438e-07
-3.7425e-07
-2.35685e-07
6.1367e-07
-3.76393e-07
-1.90207e-07
7.40404e-07
-3.67637e-07
-1.63949e-07
8.40616e-07
-3.63316e-07
-1.4896e-07
9.12951e-07
-3.60544e-07
-1.38926e-07
9.68494e-07
-3.57119e-07
-1.30774e-07
1.00876e-06
-3.51896e-07
-1.22955e-07
1.04034e-06
-3.43996e-07
-1.16806e-07
1.0656e-06
-3.33398e-07
-1.11675e-07
1.0835e-06
-3.21955e-07
-1.07479e-07
1.09503e-06
-3.09429e-07
-1.05667e-07
1.10385e-06
-2.95689e-07
-1.06115e-07
1.11029e-06
-2.83971e-07
-1.08628e-07
1.11357e-06
-2.72571e-07
-1.12389e-07
1.11439e-06
-2.62064e-07
-1.16292e-07
1.11258e-06
-2.52856e-07
-1.17027e-07
1.11099e-06
-2.44767e-07
-1.19911e-07
1.11136e-06
-2.37018e-07
-1.24255e-07
1.12587e-06
-2.28695e-07
-1.37231e-07
1.12833e-06
-2.20993e-07
-1.52884e-07
1.15445e-06
-2.11519e-07
-1.82651e-07
1.15577e-06
-2.02999e-07
-2.10637e-07
1.18875e-06
-1.93221e-07
-2.50563e-07
1.18617e-06
-1.84541e-07
-2.77134e-07
1.21072e-06
-1.77163e-07
-2.97232e-07
1.20205e-06
-1.73026e-07
-2.90266e-07
1.19872e-06
-1.70351e-07
-2.5837e-07
1.16261e-06
-1.69321e-07
-2.3244e-07
1.14462e-06
-1.58707e-07
-2.42756e-07
1.09029e-06
-1.385e-07
-2.67497e-07
1.02796e-06
-1.22343e-07
-4.86753e-07
9.62588e-07
-5.27034e-08
-7.60143e-07
1.02292e-06
-3.45074e-08
-1.77789e-06
1.20096e-06
1.93958e-07
-2.55101e-06
7.39192e-07
2.09413e-07
-3.36531e-06
-1.46491e-06
4.26762e-07
-1.95055e-06
-5.25741e-06
-3.54962e-07
-2.57933e-07
-2.29956e-06
-2.8884e-06
-3.47092e-06
7.7018e-06
-6.11789e-06
-6.70482e-06
7.13872e-06
-5.97229e-06
-6.82233e-06
1.00151e-05
-4.60599e-06
1.05666e-05
-5.2792e-06
-8.22223e-06
2.81949e-05
1.98792e-05
-3.34464e-06
3.63787e-05
-1.43599e-05
2.59268e-05
3.648e-05
-1.48747e-05
1.23944e-06
-1.08304e-05
-3.32411e-05
3.11413e-06
-1.67542e-05
-1.45827e-05
2.12352e-06
-1.97558e-05
-1.87647e-05
-2.62572e-06
-1.40442e-05
-1.01509e-05
-4.40541e-06
-1.30887e-05
-4.83824e-06
-3.66293e-06
-1.29148e-05
3.72076e-06
-2.13209e-06
-1.46588e-05
9.91908e-06
-1.04384e-06
-1.7987e-05
1.65831e-05
-6.2139e-07
-2.126e-05
2.09566e-05
-6.85663e-07
-2.40163e-05
2.33413e-05
-5.32405e-07
-2.70879e-05
2.38346e-05
3.96288e-07
-3.10889e-05
2.30898e-05
1.57878e-06
-3.58744e-05
2.05935e-05
2.78106e-06
-4.09363e-05
1.68862e-05
3.70994e-06
-4.32432e-05
1.18404e-05
3.71221e-06
-4.46874e-05
6.73256e-06
4.11839e-06
-4.41727e-05
9.69932e-07
4.06985e-06
-4.3008e-05
-3.71548e-06
4.32995e-06
-4.08781e-05
-7.76111e-06
4.53139e-06
-3.77262e-05
-1.08e-05
4.81194e-06
-3.34348e-05
-1.23871e-05
4.89874e-06
-2.76396e-05
-1.27927e-05
4.74145e-06
-2.14273e-05
-1.0295e-05
4.46132e-06
-1.63223e-05
-5.83519e-06
3.94962e-06
-1.28761e-05
-2.67024e-06
3.03024e-06
-1.19797e-05
7.63641e-07
1.58271e-06
-1.09123e-05
1.57755e-06
-8.49039e-07
-9.37371e-06
2.53484e-06
-3.06372e-06
-7.46614e-06
4.06634e-06
-4.11842e-06
-6.33508e-06
7.29016e-06
-3.91362e-06
-6.30444e-06
1.14614e-05
-2.91975e-06
-6.32817e-06
1.51564e-05
-2.039e-06
-4.96876e-06
1.80224e-05
-2.58588e-06
-3.19234e-06
2.04573e-05
-4.29812e-06
-1.39714e-06
2.67423e-05
-6.08344e-06
3.41069e-05
-8.52005e-06
-4.31127e-06
-2.43151e-06
3.4805e-07
-3.41498e-06
-4.57336e-06
-1.20255e-06
-3.7333e-06
-1.95987e-06
-6.1772e-07
-2.50039e-06
-3.24082e-06
-1.55812e-06
-1.7789e-06
-1.84035e-06
-1.08032e-06
-6.87783e-07
-2.11184e-06
-1.24774e-06
-1.36605e-07
-7.36978e-07
-9.49159e-07
-2.56336e-08
-3.18686e-07
-5.12672e-07
1.93528e-07
4.73058e-07
-4.96046e-07
3.3055e-07
1.10442e-06
-2.98656e-07
3.54629e-07
1.5184e-06
-2.35921e-07
2.01465e-07
1.71135e-06
-1.3664e-07
7.27199e-08
1.46534e-06
-2.51278e-07
-1.56916e-08
1.14857e-06
-3.47159e-07
-7.60332e-08
1.02454e-06
-4.3284e-07
-1.33907e-07
1.05885e-06
-4.86353e-07
-1.80834e-07
1.17438e-06
-5.13562e-07
-2.24062e-07
1.30604e-06
-5.22172e-07
-2.5017e-07
1.39461e-06
-5.27715e-07
-2.64665e-07
1.4547e-06
-5.2711e-07
-2.72606e-07
1.50103e-06
-5.24497e-07
-2.75583e-07
1.53338e-06
-5.21579e-07
-2.73821e-07
1.55649e-06
-5.17908e-07
-2.69612e-07
1.57391e-06
-5.12539e-07
-2.64603e-07
1.58507e-06
-5.06655e-07
-2.6024e-07
1.59131e-06
-5.0074e-07
-2.57478e-07
1.59549e-06
-4.94563e-07
-2.57096e-07
1.59819e-06
-4.88452e-07
-2.59075e-07
1.59793e-06
-4.82598e-07
-2.61545e-07
1.59416e-06
-4.7753e-07
-2.63347e-07
1.5874e-06
-4.73271e-07
-2.61705e-07
1.57967e-06
-4.70603e-07
-2.65209e-07
1.58138e-06
-4.66792e-07
-2.73073e-07
1.5955e-06
-4.62082e-07
-2.96031e-07
1.60702e-06
-4.56002e-07
-3.20221e-07
1.62821e-06
-4.4994e-07
-3.61325e-07
1.63964e-06
-4.43041e-07
-3.91291e-07
1.65653e-06
-4.38225e-07
-4.27849e-07
1.65572e-06
-4.33291e-07
-4.39639e-07
1.65412e-06
-4.32056e-07
-4.39315e-07
1.6353e-06
-4.33838e-07
-4.13153e-07
1.61093e-06
-4.38812e-07
-3.68103e-07
1.56332e-06
-4.45952e-07
-3.41898e-07
1.55559e-06
-4.37704e-07
-3.68061e-07
1.53076e-06
-4.14316e-07
-4.21634e-07
1.48994e-06
-4.0919e-07
-6.61399e-07
1.5217e-06
-3.18529e-07
-8.66953e-07
1.55417e-06
-3.25556e-07
-1.48606e-06
2.02778e-06
-1.94225e-07
-1.52186e-06
1.10442e-06
-2.87388e-07
-1.89602e-06
-8.50242e-07
-1.3363e-07
-1.5564e-06
-5.31049e-06
-2.43042e-07
2.75245e-06
-6.00994e-06
-2.54575e-07
9.77473e-06
1.95113e-06
-1.15586e-06
1.07491e-05
1.11888e-05
-4.72689e-06
1.58866e-05
1.69695e-05
-1.21845e-05
2.08499e-05
9.67599e-06
-1.94668e-05
3.76313e-05
1.3323e-05
-1.06611e-05
3.54367e-05
-1.46543e-05
3.20829e-05
3.27073e-05
-6.90409e-06
2.22289e-06
-2.64211e-05
-1.64362e-05
6.05771e-06
-3.36498e-05
-9.85566e-06
1.93809e-06
-4.04343e-05
-9.26087e-06
-2.87062e-06
-3.89549e-05
-5.43039e-06
-6.36728e-06
-4.00654e-05
5.72061e-07
-4.4113e-06
-4.02302e-05
6.61069e-06
-2.77224e-06
-4.24404e-05
1.27657e-05
-5.87851e-07
-4.53114e-05
1.87642e-05
8.47157e-07
-4.87167e-05
2.26056e-05
1.98117e-06
-5.24387e-05
2.46477e-05
2.64035e-06
-5.66391e-05
2.47375e-05
3.43754e-06
-5.95803e-05
2.29181e-05
3.22851e-06
-6.14249e-05
1.98423e-05
2.67391e-06
-6.17715e-05
1.59015e-05
1.4247e-06
-6.10443e-05
1.08333e-05
2.96742e-07
-5.95589e-05
5.53514e-06
-3.7025e-07
-5.77694e-05
-5.24908e-07
-3.37258e-07
-5.59865e-05
-6.02546e-06
4.6479e-07
-5.41495e-05
-1.08906e-05
1.33567e-06
-5.26908e-05
-1.48216e-05
2.78173e-06
-5.1813e-05
-1.76153e-05
4.52065e-06
-5.19085e-05
-1.89308e-05
6.27765e-06
-5.18569e-05
-1.80511e-05
7.60402e-06
-5.02689e-05
-1.53852e-05
7.8114e-06
-4.73662e-05
-1.1891e-05
6.21554e-06
-4.47237e-05
-5.98549e-06
4.12277e-06
-4.24435e-05
-1.406e-06
7.44563e-07
-3.99737e-05
2.92899e-06
-2.87715e-06
-3.61012e-05
5.47843e-06
-5.25398e-06
-3.17244e-05
8.92244e-06
-6.0245e-06
-2.70958e-05
1.2694e-05
-5.86979e-06
-2.23728e-05
1.66161e-05
-6.01838e-06
-1.79169e-05
2.03945e-05
-6.78415e-06
-1.41118e-05
2.47872e-05
-8.18279e-06
-8.27956e-06
3.04696e-05
-9.9816e-06
3.32367e-05
-1.09703e-05
-3.82547e-06
-4.34512e-07
1.94377e-06
-2.76627e-06
-4.3581e-06
-1.27859e-06
-3.35338e-06
-9.81448e-07
-3.87215e-07
-2.3299e-06
-2.81982e-06
-1.44456e-06
-1.69851e-06
-1.4654e-06
-9.98243e-07
-5.98857e-07
-2.00736e-06
-1.19506e-06
-5.03443e-08
-5.7887e-07
-6.98565e-07
-1.0717e-07
-1.09016e-07
-1.47545e-07
-8.24484e-08
5.57098e-07
-1.04128e-07
5.1643e-08
9.43784e-07
3.05691e-08
3.09743e-07
1.32022e-06
-5.77256e-08
4.57218e-07
1.43606e-06
1.28451e-07
4.47189e-07
1.32312e-06
1.53042e-07
3.21374e-07
1.1119e-06
1.62876e-07
1.67345e-07
1.04123e-06
1.37847e-07