/*--------------------------------*- C++ -*----------------------------------*\
| =========                 |                                                 |
| \\      /  F ield         | OpenFOAM: The Open Source CFD Toolbox           |
|  \\    /   O peration     | Version:  2.3.0                                 |
|   \\  /    A nd           | Web:      www.OpenFOAM.org                      |
|    \\/     M anipulation  |                                                 |
\*---------------------------------------------------------------------------*/
FoamFile
{
    version     2.0;
    format      ascii;
    class       surfaceScalarField;
    location    "28";
    object      phi.air;
}
// * * * * * * * * * * * * * * * * * * * * * * * * * * * * * * * * * * * * * //

dimensions      [0 3 -1 0 0 0 0];

internalField   nonuniform List<scalar> 
16448
(
-7.84235e-07
-2.49979e-06
4.27688e-07
9.26947e-07
-2.48852e-06
7.77333e-07
7.95934e-07
-1.13426e-06
1.26526e-06
6.94293e-07
-1.12501e-06
1.22664e-06
3.5921e-07
-7.35455e-07
1.07053e-06
1.20381e-07
-6.89834e-07
9.28652e-07
-1.16145e-07
-4.86727e-07
7.23241e-07
-2.41387e-07
-4.54649e-07
5.7988e-07
-3.55795e-07
-3.69577e-07
4.83976e-07
-4.88514e-07
-3.1188e-07
4.44589e-07
-6.11279e-07
-2.74206e-07
3.96963e-07
-6.50778e-07
-2.97323e-07
3.36813e-07
-6.11316e-07
-3.48884e-07
3.09412e-07
-4.92091e-07
-4.03955e-07
2.8472e-07
-3.57941e-07
-4.34174e-07
3.00013e-07
-2.26615e-07
-4.54697e-07
3.2336e-07
-1.2828e-07
-4.60685e-07
3.62338e-07
-5.46955e-08
-4.69206e-07
3.9561e-07
-9.11096e-09
-4.77031e-07
4.31435e-07
1.77318e-08
-4.83948e-07
4.57093e-07
2.79075e-08
-4.86109e-07
4.75922e-07
2.7011e-08
-4.84329e-07
4.85213e-07
1.89922e-08
-4.79616e-07
4.87623e-07
7.03335e-09
-4.7234e-07
4.84287e-07
-6.64837e-09
-4.63196e-07
4.76866e-07
-2.06001e-08
-4.52501e-07
4.66441e-07
-3.41812e-08
-4.40324e-07
4.53894e-07
-4.73302e-08
-4.26647e-07
4.39784e-07
-5.97185e-08
-4.12101e-07
4.24478e-07
-6.87248e-08
-3.99781e-07
4.08776e-07
-7.29634e-08
-3.86973e-07
3.91201e-07
-7.2047e-08
-3.72513e-07
3.71585e-07
-6.61152e-08
-3.55768e-07
3.49825e-07
-5.24511e-08
-3.38051e-07
3.24375e-07
-2.33431e-08
-3.22449e-07
2.93329e-07
3.1352e-08
-3.12558e-07
2.57851e-07
1.16577e-07
-3.10088e-07
2.24852e-07
2.27079e-07
-3.14195e-07
2.03681e-07
3.4695e-07
-3.23509e-07
2.03626e-07
4.49598e-07
-3.34922e-07
2.32261e-07
4.92966e-07
-3.42004e-07
2.98623e-07
4.5287e-07
-3.71402e-07
4.11485e-07
3.37518e-07
-4.43314e-07
5.58654e-07
2.72978e-07
-6.36366e-07
7.00895e-07
4.65291e-07
-1.0357e-06
8.43375e-07
9.84729e-07
-1.5383e-06
1.01885e-06
1.64072e-06
-1.83222e-06
1.17621e-06
2.01408e-06
-1.70702e-06
1.33364e-06
6.90216e-07
-7.59646e-08
1.39981e-06
-3.11641e-07
-4.43644e-07
1.44548e-06
2.91705e-06
-6.79817e-06
3.56945e-06
8.50511e-06
-1.08726e-05
5.28453e-06
1.28902e-05
-9.20824e-06
4.82314e-06
1.55631e-05
-7.49749e-06
4.82453e-06
1.55184e-05
-4.13015e-06
4.17485e-06
1.62747e-05
-4.42992e-06
3.67365e-06
1.03186e-05
1.72423e-06
4.2318e-06
6.94712e-06
2.86199e-06
5.0932e-07
-1.18664e-05
1.3258e-05
5.15636e-06
-3.18536e-05
-4.20501e-06
-7.34765e-06
-6.50324e-05
-1.6667e-05
2.39808e-06
-3.38386e-05
-4.19821e-06
8.75504e-06
1.28403e-05
-5.19041e-06
2.66181e-06
3.40519e-05
-6.47021e-06
4.99769e-06
3.52109e-05
-6.12336e-06
4.80894e-06
3.53728e-05
-5.22779e-06
4.96191e-06
3.48303e-05
-5.07921e-06
5.56941e-06
3.41688e-05
-5.40841e-06
5.96742e-06
3.32547e-05
-5.1384e-06
5.9536e-06
3.22299e-05
-4.61354e-06
5.51777e-06
3.09304e-05
-3.7911e-06
4.99313e-06
2.90214e-05
-2.49592e-06
4.38721e-06
2.74887e-05
-2.1818e-06
3.64892e-06
2.586e-05
-1.54723e-06
3.10684e-06
2.44641e-05
-1.26804e-06
2.59841e-06
2.33169e-05
-1.1465e-06
2.25981e-06
2.25314e-05
-1.37755e-06
2.08784e-06
2.24109e-05
-1.63663e-06
1.70727e-06
2.22404e-05
-9.87686e-07
1.15742e-06
2.11827e-05
6.30701e-07
4.34519e-07
1.84256e-05
2.43695e-06
2.85909e-07
1.21105e-05
4.18482e-06
1.98009e-06
5.19568e-06
3.87608e-06
3.01237e-06
2.52048e-06
3.1806e-07
2.39609e-06
1.76583e-06
-1.00895e-06
1.77716e-06
1.48197e-06
-1.62443e-06
1.93431e-06
5.73176e-07
-1.63275e-06
2.5632e-06
-2.08978e-06
-7.90683e-07
3.44645e-06
-5.69431e-06
5.02724e-08
3.5154e-06
-8.22943e-06
1.72986e-07
2.3205e-06
-8.35146e-06
6.63905e-07
-5.0514e-07
-5.66232e-06
1.711e-06
-4.45509e-06
-2.36703e-06
2.66218e-06
-5.92449e-06
-1.49363e-06
2.74123e-06
-3.43685e-06
-1.85107e-06
1.72593e-06
-1.18647e-06
1.48876e-06
-2.49507e-06
-1.52527e-06
-3.70962e-06
-1.22073e-07
-3.35584e-07
-3.80947e-06
1.31263e-07
-3.39981e-07
-2.08151e-06
9.51636e-07
-1.99377e-07
-1.90854e-06
6.42913e-07
-1.41448e-07
-1.20278e-06
4.09383e-07
-8.70075e-08
-9.47817e-07
2.03526e-07
-1.49576e-07
-5.06734e-07
8.25607e-08
-2.97346e-07
-3.84577e-07
7.76823e-08
-5.12517e-07
-2.37239e-07
8.28206e-08
-7.06812e-07
-1.97218e-07
7.96212e-08
-8.33616e-07
-1.84727e-07
3.73114e-08
-8.53932e-07
-2.56073e-07
-2.09467e-08
-8.0008e-07
-3.46987e-07
-5.57629e-08
-6.73672e-07
-4.44588e-07
-8.57904e-08
-5.2433e-07
-5.00683e-07
-8.28487e-08
-3.72224e-07
-5.3624e-07
-7.05795e-08
-2.47488e-07
-5.41486e-07
-4.39508e-08
-1.48483e-07
-5.47652e-07
-2.05758e-08
-8.23994e-08
-5.47928e-07
4.79581e-09
-3.88909e-08
-5.46711e-07
1.92364e-08
-1.65769e-08
-5.39182e-07
3.07409e-08
-8.8006e-09
-5.28637e-07
3.65138e-08
-1.12959e-08
-5.1504e-07
3.79002e-08
-2.00992e-08
-4.99116e-07
3.55604e-08
-3.23999e-08
-4.81649e-07
3.07345e-08
-4.61622e-08
-4.62797e-07
2.40391e-08
-6.01704e-08
-4.4247e-07
1.61338e-08
-7.3714e-08
-4.20627e-07
7.50445e-09
-8.58088e-08
-3.9769e-07
-2.33608e-09
-9.20295e-08
-3.76185e-07
-1.73954e-08
-9.09977e-08
-3.55021e-07
-3.30044e-08
-8.21895e-08
-3.3184e-07
-4.9502e-08
-6.65039e-08
-3.05021e-07
-6.64537e-08
-4.33265e-08
-2.76957e-07
-8.42925e-08
-7.34554e-09
-2.54907e-07
-1.03545e-07
4.80418e-08
-2.45234e-07
-1.22732e-07
1.25781e-07
-2.49352e-07
-1.38497e-07
2.18939e-07
-2.64225e-07
-1.43151e-07
3.11131e-07
-2.83266e-07
-1.32458e-07
3.73522e-07
-2.99426e-07
-9.791e-08
3.61302e-07
-3.01957e-07
-2.78509e-08
2.52579e-07
-3.17369e-07
5.46666e-08
5.60826e-08
-3.97933e-07
1.51092e-07
-1.53874e-07
-6.62975e-07
2.36542e-07
-3.0086e-07
-1.23713e-06
3.48395e-07
-4.524e-07
-1.9389e-06
5.52114e-07
-6.96365e-07
-2.36085e-06
7.72572e-07
-1.09194e-06
-2.27107e-06
9.59601e-07
-4.36168e-07
-1.12799e-06
3.96232e-07
1.96004e-06
-2.83494e-06
-4.94923e-09
4.23389e-06
-1.1287e-05
2.21494e-06
5.82558e-06
-1.58126e-05
3.34822e-06
6.33474e-06
-1.22355e-05
2.51809e-06
5.99759e-06
-9.62758e-06
2.46723e-06
8.49211e-06
-7.63968e-06
1.01498e-06
1.4301e-05
-9.66599e-06
-5.72778e-07
1.43962e-05
1.23553e-06
3.9333e-07
1.86984e-05
-2.42076e-06
9.80879e-07
-5.56077e-06
2.11777e-05
1.60218e-05
-3.16354e-05
-5.87311e-06
-3.78873e-06
-7.21811e-05
-2.24862e-05
-2.69421e-06
-2.59269e-05
-9.11841e-06
9.36544e-06
1.68911e-05
-1.20542e-05
5.75264e-06
1.84316e-05
-1.20929e-05
3.94349e-06
1.82971e-05
-9.63755e-06
3.73274e-06
1.62023e-05
-7.08712e-06
4.12499e-06
1.35962e-05
-7.09666e-06
4.68951e-06
1.04114e-05
-7.17301e-06
4.98522e-06
7.20445e-06
-6.68466e-06
4.82852e-06
4.51073e-06
-6.15362e-06
4.262e-06
2.11554e-06
-4.88212e-06
3.58476e-06
-4.00403e-07
-2.38208e-06
2.44035e-06
-3.32937e-06
-1.42446e-06
2.11842e-06
-6.10164e-06
-3.8926e-07
1.60278e-06
-8.024e-06
4.53348e-08
6.06807e-07
-8.50533e-06
-1.38362e-06
7.10923e-07
-7.61889e-06
-3.11904e-06
8.7078e-07
-5.48958e-06
-4.17598e-06
4.38976e-07
-2.27341e-06
-4.10291e-06
-2.06873e-08
9.79763e-07
-2.09148e-06
-4.87532e-07
2.29479e-06
9.84743e-07
1.85517e-07
3.22238e-06
2.21276e-06
1.03123e-06
5.24473e-06
7.82166e-08
1.78002e-06
6.66332e-06
-2.86484e-06
1.81799e-06
7.19136e-06
-3.36513e-06
1.80821e-06
6.83676e-06
-3.23389e-06
1.93805e-06
5.27812e-06
-2.7422e-06
2.60743e-06
2.45013e-06
-1.29335e-06
3.27538e-06
-1.39518e-06
5.32888e-07
3.33251e-06
-4.39007e-06
1.16466e-06
1.95722e-06
-4.55988e-06
1.9402e-06
-1.11536e-06
-1.48716e-06
3.95282e-06
-5.39954e-06
2.23902e-06
6.68401e-06
-7.71172e-06
2.9986e-06
7.63395e-06
-5.54903e-06
1.44529e-07
6.57208e-06
-1.75484e-06
5.0755e-06
-2.46466e-06
-2.35404e-06
-4.19218e-06
-3.75802e-07
-1.42594e-06
-4.42967e-06
-3.07908e-07
-1.33193e-06
-2.55098e-06
3.75452e-07
-9.74426e-07
-2.31305e-06
4.70015e-08
-7.54532e-07
-1.3933e-06
-2.939e-08
-4.20702e-07
-1.14516e-06
-1.36506e-07
-3.15985e-07
-4.34669e-07
-1.76797e-07
-4.17826e-07
-1.9846e-07
-8.42902e-08
-6.43091e-07
3.44789e-08
-4.64656e-08
-7.81975e-07
1.31343e-08
-7.14812e-08
-8.5466e-07
1.71902e-08
-1.29244e-07
-8.55647e-07
-6.08385e-08
-1.9426e-07
-8.15076e-07
-1.47329e-07
-2.40243e-07
-7.3169e-07
-2.56005e-07
-2.71983e-07
-6.20522e-07
-3.24208e-07
-2.87658e-07
-4.96464e-07
-3.6774e-07
-2.92574e-07
-3.81369e-07
-3.71052e-07
-2.85545e-07
-2.80872e-07
-3.71465e-07
-2.767e-07
-2.02185e-07
-3.61129e-07
-2.65502e-07
-1.44195e-07
-3.48217e-07
-2.56501e-07
-1.05246e-07
-3.29515e-07
-2.48634e-07
-8.1035e-08
-3.09115e-07
-2.43752e-07
-6.94526e-08
-2.85774e-07
-2.40867e-07
-6.67198e-08
-2.61407e-07
-2.4046e-07
-6.97823e-08
-2.36696e-07
-2.4191e-07
-7.57415e-08
-2.11945e-07
-2.44912e-07
-8.22557e-08
-1.86891e-07
-2.49083e-07
-8.69493e-08
-1.61617e-07
-2.54337e-07
-8.74369e-08
-1.3651e-07
-2.60712e-07
-8.31146e-08
-1.12258e-07
-2.68269e-07
-7.28043e-08
-8.90933e-08
-2.76258e-07
-5.63192e-08
-6.44918e-08
-2.83854e-07
-3.51301e-08
-3.63225e-08
-2.89908e-07
-1.10763e-08
-7.40489e-09
-2.93627e-07
1.32697e-08
1.62765e-08
-2.9555e-07
3.58303e-08
2.70533e-08
-2.9487e-07
5.04946e-08
2.50658e-08
-2.89104e-07
4.92971e-08
1.4487e-08
-2.77536e-07
1.89071e-08
4.91786e-09
-2.57816e-07
-5.50314e-08
3.96262e-09
-2.29472e-07
-1.75243e-07
1.16094e-08
-1.93377e-07
-3.34746e-07
-7.15895e-09
-1.50729e-07
-5.1441e-07
-1.22657e-07
-9.56343e-08
-7.33379e-07
-4.29222e-07
-1.48066e-08
-1.16152e-06
-9.20018e-07
1.11007e-07
-1.97304e-06
-1.47693e-06
3.49535e-07
-2.92336e-06
-1.97771e-06
5.67163e-07
-3.26952e-06
-2.4019e-06
4.76978e-07
-9.77796e-07
-2.87253e-06
-5.47206e-07
2.83087e-06
-4.92907e-06
-1.71458e-06
2.47778e-06
-1.27631e-05
1.82914e-06
-1.11599e-06
-1.55396e-05
3.32076e-06
-3.34084e-06
-1.1068e-05
1.05731e-06
-3.22782e-06
-8.62405e-06
-1.11653e-06
2.90913e-06
-1.1168e-05
-2.60867e-06
7.64838e-06
-1.10959e-05
-3.30929e-06
1.236e-05
-4.54313e-06
1.06693e-06
2.41672e-05
-1.43005e-05
7.28435e-08
-5.26032e-06
2.57795e-05
2.43716e-05
-3.39259e-05
-7.54868e-06
-3.76352e-06
-8.05197e-05
-2.66721e-05
-7.34509e-06
-3.3186e-05
-1.41113e-05
2.34141e-06
1.29037e-05
-1.48735e-05
2.57483e-06
1.29359e-05
-1.25177e-05
2.39128e-06
1.01332e-05
-6.90852e-06
2.3675e-06
6.83742e-06
-5.73402e-06
1.97269e-06
2.61195e-06
-6.56713e-06
3.53623e-06
-2.53302e-06
-7.48714e-06
4.686e-06
-6.89277e-06
-7.87735e-06
4.98203e-06
-9.77894e-06
-7.77985e-06
3.94735e-06
-1.13795e-05
-6.28734e-06
3.00007e-06
-1.22825e-05
-4.02638e-06
2.51279e-06
-1.26778e-05
-3.04655e-06
1.90231e-06
-1.22637e-05
-1.87621e-06
9.80802e-07
-1.19245e-05
-8.63773e-07
5.41162e-07
-1.12912e-05
-1.99684e-06
1.44275e-08
-1.01822e-05
-2.9216e-06
-1.29806e-06
-9.19377e-06
-3.47513e-06
-1.72157e-06
-7.84162e-06
-4.09953e-06
-1.38289e-06
-4.47279e-06
-4.58224e-06
-8.8829e-07
4.96611e-08
-3.5913e-06
8.64289e-08
4.47084e-06
-3.44108e-06
1.24766e-06
7.52771e-06
-4.16898e-06
1.21966e-06
8.9185e-06
-4.33442e-06
1.69906e-07
9.26696e-06
-4.01593e-06
3.71436e-07
8.40271e-06
-3.1533e-06
8.63204e-07
6.52856e-06
-2.24378e-06
1.40498e-06
4.14285e-06
-2.4355e-07
1.32818e-06
1.93571e-06
1.7203e-06
1.00663e-06
7.01117e-08
3.22474e-06
-2.34891e-07
-2.98501e-07
4.54849e-06
-2.28414e-06
1.19934e-06
7.89824e-06
-5.50191e-06
3.82943e-06
1.16186e-05
-7.61974e-06
4.07919e-06
1.24148e-05
-4.99966e-06
7.11521e-07
1.12768e-05
-1.04957e-06
9.10841e-06
-2.16599e-06
-3.00923e-06
-4.32342e-06
-2.10577e-07
-2.01426e-06
-4.89724e-06
-5.27406e-07
-1.87213e-06
-2.84464e-06
1.51529e-07
-1.39619e-06
-2.66611e-06
-1.22896e-07
-1.17948e-06
-1.51317e-06
-9.68564e-08
-6.8203e-07
-1.42559e-06
-2.17037e-07
-3.22703e-07
-5.44835e-07
-2.49175e-07
-2.63988e-07
-1.55011e-07
-1.02178e-07
-4.22831e-07
2.48716e-07
-5.54071e-08
-5.58961e-07
2.34757e-07
-8.5505e-08
-6.65636e-07
2.81242e-07
-1.5739e-07
-7.42586e-07
2.36313e-07
-2.20216e-07
-7.67416e-07
1.54706e-07
-2.7722e-07
-7.30804e-07
2.74085e-08
-3.2004e-07
-6.47946e-07
-5.87583e-08
-3.48324e-07
-5.44071e-07
-1.04779e-07
-3.66852e-07
-4.4461e-07
-9.53951e-08
-3.75135e-07
-3.57227e-07
-7.78076e-08
-3.81057e-07
-2.8038e-07
-5.35291e-08
-3.84465e-07
-2.15843e-07
-2.91414e-08
-3.8363e-07
-1.65896e-07
5.31439e-10
-3.80012e-07
-1.28259e-07
2.73053e-08
-3.74075e-07
-1.02943e-07
5.69195e-08
-3.68028e-07
-8.81995e-08
8.72146e-08
-3.63384e-07
-8.10227e-08
1.16766e-07
-3.60658e-07
-7.82112e-08
1.45173e-07
-3.59949e-07
-7.72678e-08
1.72884e-07
-3.60739e-07
-7.59207e-08
1.99621e-07
-3.62605e-07
-7.2253e-08
2.24967e-07
-3.65166e-07
-6.51201e-08
2.48611e-07
-3.68022e-07
-5.47783e-08
2.71305e-07
-3.70761e-07
-4.26394e-08
2.95783e-07
-3.72434e-07
-3.05717e-08
3.2395e-07
-3.72362e-07
-2.16669e-08
3.53229e-07
-3.6956e-07
-1.80039e-08
3.74831e-07
-3.62239e-07
-2.67462e-08
3.85265e-07
-3.4949e-07
-5.89642e-08
3.87993e-07
-3.30731e-07
-1.21012e-07
3.88669e-07
-3.12156e-07
-2.20041e-07
3.98713e-07
-2.94789e-07
-3.65576e-07
4.26301e-07
-2.76825e-07
-5.51027e-07
4.54615e-07
-2.57577e-07
-7.49451e-07
4.13526e-07
-2.22283e-07
-9.40639e-07
2.26312e-07
-1.57804e-07
-1.18607e-06
-1.24456e-07
-5.93544e-08
-1.70421e-06
-4.62474e-07
6.05726e-08
-2.72202e-06
-7.34826e-07
2.75685e-07
-3.84744e-06
-1.29262e-06
4.40316e-07
-4.05843e-06
-2.40116e-06
2.10237e-07
-1.85067e-06
-3.80768e-06
-1.27264e-06
8.44162e-07
-5.08237e-06
-2.54157e-06
-3.15738e-06
-1.03118e-05
1.55014e-06
-1.19717e-05
-1.13247e-05
4.5994e-06
-1.85222e-05
-6.98195e-06
2.46449e-06
-1.81218e-05
-6.2969e-06
-2.7275e-06
-1.57186e-05
-8.43598e-06
-5.13516e-06
-1.52251e-05
-1.08564e-05
-7.32786e-07
3.02804e-06
-2.13114e-05
-1.48525e-06
1.16616e-05
-2.5597e-05
2.66286e-06
-3.03594e-06
1.38021e-05
2.58222e-05
-3.97305e-05
-4.83089e-06
-5.60966e-06
-0.00010363
-2.48751e-05
-7.64759e-06
-9.92768e-05
-1.55021e-05
4.51296e-06
-0.000101788
-1.43923e-05
4.92889e-06
-0.000111084
-9.14509e-06
6.80539e-06
-0.00012012
-3.68093e-06
6.10757e-06
-0.000128395
-4.05046e-06
7.80991e-06
-0.000127785
-6.32435e-06
6.31029e-06
-0.000111693
-7.89787e-06
2.83895e-06
-7.68962e-05
-8.0647e-06
-1.10164e-07
-4.24387e-05
-7.57617e-06
-2.20888e-06
-2.52128e-05
-5.76152e-06
-3.1568e-06
-2.04495e-05
-3.17052e-06
-3.67032e-06
-1.6302e-05
-1.08731e-06
-4.20812e-06
-1.22204e-05
9.61984e-07
-4.73178e-06
-9.1477e-06
2.76702e-06
-5.09387e-06
-7.17823e-06
2.98138e-06
-6.09551e-06
-6.14106e-06
3.07914e-06
-7.13952e-06
-5.4754e-06
1.95751e-06
-7.30625e-06
-4.53387e-06
-2.27064e-07
-6.75045e-06
-1.53198e-06
-3.35588e-06
-5.89497e-06
2.84e-06
-4.52588e-06
-4.38843e-06
5.55177e-06
-4.98438e-06
-1.46767e-06
5.36923e-06
-4.09947e-06
2.93022e-07
3.77127e-06
-3.11341e-06
4.98394e-07
2.27457e-06
-3.26674e-06
7.39843e-07
1.72381e-06
-3.01038e-06
2.86966e-07
1.38055e-06
-2.23302e-06
2.38107e-07
1.01496e-06
-1.56237e-07
2.59275e-07
1.78876e-07
2.29748e-06
2.11745e-07
-6.35439e-07
4.28482e-06
-2.3671e-07
-4.67283e-07
6.98634e-06
-2.57752e-06
1.4417e-06
1.15649e-05
-5.60441e-06
3.88502e-06
1.47997e-05
-5.58978e-06
4.46882e-06
1.53149e-05
-3.45545e-06
1.94069e-06
1.44013e-05
-2.99462e-07
1.42465e-05
-1.93972e-06
-3.36941e-06
-4.21812e-06
-1.17102e-07
-2.22815e-06
-5.21544e-06
-8.23063e-07
-2.07363e-06
-3.06471e-06
6.55318e-08
-1.47766e-06
-3.04709e-06
-2.14996e-07
-1.26545e-06
-1.6134e-06
-1.11983e-07
-7.64238e-07
-1.61696e-06
-3.09855e-07
-3.6491e-07
-6.43676e-07
-3.005e-07
-1.26881e-07
-2.04561e-07
-1.88492e-07
-8.50445e-08
3.48388e-07
-1.4152e-07
-2.19572e-07
4.79511e-07
-1.10239e-07
-4.02218e-07
5.95872e-07
-1.31998e-07
-5.88864e-07
5.8788e-07
-1.64934e-07
-7.01213e-07
4.79153e-07
-2.12113e-07
-7.18791e-07
3.05454e-07
-2.60482e-07
-6.54405e-07
1.73165e-07
-2.96324e-07
-5.51882e-07
1.16767e-07
-3.24085e-07
-4.56244e-07
1.49753e-07
-3.40802e-07
-3.77463e-07
1.99129e-07
-3.55734e-07
-3.08604e-07
2.48372e-07
-3.70776e-07
-2.45015e-07
2.89392e-07
-3.8214e-07
-1.88243e-07
3.30721e-07
-3.86979e-07
-1.41772e-07
3.68674e-07
-3.87858e-07
-1.06235e-07
4.06917e-07
-3.85552e-07
-8.15931e-08
4.43702e-07
-3.81148e-07
-6.56452e-08
4.77264e-07
-3.76465e-07
-5.54547e-08
5.07348e-07
-3.72384e-07
-4.82359e-08
5.34303e-07
-3.68656e-07
-4.18247e-08
5.58133e-07
-3.64942e-07
-3.45108e-08
5.78582e-07
-3.60947e-07
-2.66087e-08
5.96765e-07
-3.56075e-07
-1.96035e-08
6.14153e-07
-3.49873e-07
-1.44089e-08
6.32673e-07
-3.42104e-07
-1.42843e-08
6.56047e-07
-3.3224e-07
-2.32511e-08
6.82057e-07
-3.19881e-07
-4.4082e-08
7.01255e-07
-3.05612e-07
-8.42034e-08
7.13907e-07
-2.8854e-07
-1.56466e-07
7.29367e-07
-2.6913e-07
-2.72265e-07
7.57691e-07
-2.53242e-07
-4.35209e-07
8.04713e-07
-2.43075e-07
-6.35531e-07
8.58391e-07
-2.31787e-07
-8.47108e-07
8.73078e-07
-2.06904e-07
-1.05383e-06
7.70619e-07
-1.50389e-07
-1.28133e-06
5.04138e-07
-5.03474e-08
-1.54833e-06
8.99108e-08
5.26179e-08
-2.00764e-06
-1.42959e-07
1.39776e-07
-2.78061e-06
-2.32455e-07
2.70584e-07
-3.58603e-06
-7.45119e-07
2.579e-07
-3.58783e-06
-2.30983e-06
-8.95503e-08
-2.34199e-06
-3.49763e-06
-1.55591e-06
-1.86518e-06
-3.22316e-06
-2.33607e-06
-9.48319e-06
-4.53092e-06
1.83712e-06
-2.09407e-05
-4.85978e-06
4.99253e-06
-2.76498e-05
-2.53994e-06
2.26721e-06
-2.793e-05
-2.61185e-06
-3.40491e-06
-2.57531e-05
-7.87512e-06
-2.73768e-06
-2.17118e-05
-1.51436e-05
2.45975e-07
-2.31498e-05
-2.00329e-05
1.59264e-07
-2.34704e-05
-2.91808e-05
3.90498e-06
-3.76596e-06
-2.00296e-05
1.29201e-05
-4.34078e-05
-2.42128e-06
-6.46444e-06
-0.00011414
-1.67428e-05
-9.36329e-06
-0.000113218
-1.21893e-05
4.28564e-06
-0.000122859
-9.73455e-06
3.36428e-06
-0.000136488
-4.03122e-06
5.90438e-06
-0.000145108
-1.57324e-07
5.14082e-06
-0.000151571
-5.24668e-07
2.99135e-06
-0.000153875
-3.16671e-06
-7.8375e-07
-0.000155657
-3.29206e-06
-2.54395e-06
-0.00015568
-3.22258e-06
-4.67196e-06
-0.000154754
-2.55589e-06
-5.89784e-06
-0.000153919
-3.95272e-07
-6.29847e-06
-0.000152213
1.73707e-06
-6.73052e-06
-0.000149714
3.79817e-06
-7.5875e-06
-0.000146084
5.32875e-06
-7.75776e-06
-0.000142326
5.59764e-06
-7.5056e-06
-0.000139033
4.10181e-06
-5.76176e-06
-0.000136797
1.60305e-06
-1.53074e-06
-0.00013752
-1.33846e-06
3.87906e-06
-0.000138663
-4.95612e-06
7.36997e-06
-0.000134407
-8.27541e-06
7.35176e-06
-0.000115894
-9.34281e-06
6.65767e-06
-6.19607e-05
-9.13608e-06
5.24362e-06
-2.04935e-05
-8.70868e-06
3.36079e-06
-1.84268e-05
-6.12902e-06
1.15557e-06
-1.59932e-05
-6.37822e-06
3.04241e-07
-1.29521e-05
-6.20847e-06
5.60217e-07
-1.02003e-05
-4.83018e-06
8.53234e-07
-7.54294e-06
-2.68535e-06
-1.35261e-07
-4.91447e-06
1.39969e-06
-1.71401e-06
-2.89114e-06
5.56798e-06
-3.34802e-06
-1.39762e-06
1.04073e-05
-5.00385e-06
8.51029e-07
1.46665e-05
-5.43305e-06
3.1564e-06
1.68411e-05
-4.37352e-06
3.88964e-06
1.6794e-05
-2.16745e-06
1.73375e-06
1.67102e-05
1.8546e-07
1.88762e-05
-1.53513e-06
-3.55884e-06
-3.83626e-06
-1.70848e-08
-2.25237e-06
-5.27839e-06
-1.24352e-06
-2.09623e-06
-3.11486e-06
-1.05996e-07
-1.39154e-06
-3.3834e-06
-3.68402e-07
-1.15012e-06
-1.67971e-06
-1.75127e-07
-7.39959e-07
-1.58335e-06
-4.43782e-07
-4.81189e-07
-5.26757e-07
-3.757e-07
-1.83377e-07
-1.77557e-07
-3.24827e-07
1.0471e-07
3.57689e-07
-2.974e-07
9.08764e-08
6.81309e-07
-1.87976e-07
-9.79604e-08
9.31013e-07
-1.46317e-07
-3.88122e-07
1.00314e-06
-1.25112e-07
-5.97223e-07
8.51925e-07
-1.63683e-07
-6.52447e-07
5.75012e-07
-2.14345e-07
-6.01067e-07
3.93007e-07
-2.71236e-07
-5.03848e-07
3.32396e-07
-3.1286e-07
-4.13888e-07
3.90613e-07
-3.30833e-07
-3.50825e-07
4.79862e-07
-3.43808e-07
-3.02646e-07
5.57849e-07
-3.57671e-07
-2.59304e-07
6.15384e-07
-3.69346e-07
-2.19328e-07
6.65851e-07
-3.7512e-07
-1.8282e-07
7.07641e-07
-3.75488e-07
-1.49987e-07
7.45768e-07
-3.71698e-07
-1.22757e-07
7.81167e-07
-3.64709e-07
-1.01128e-07
8.11998e-07
-3.56378e-07
-8.52785e-08
8.39224e-07
-3.47739e-07
-7.5334e-08
8.63199e-07
-3.38855e-07
-6.91725e-08
8.81648e-07
-3.2969e-07
-6.5299e-08
8.94903e-07
-3.20209e-07
-6.33839e-08
9.04754e-07
-3.09918e-07
-6.37394e-08
9.13391e-07
-2.98896e-07
-6.77126e-08
9.24472e-07
-2.87839e-07
-8.00603e-08
9.44444e-07
-2.76064e-07
-1.06692e-07
9.7192e-07
-2.63244e-07
-1.51979e-07
9.96595e-07
-2.50066e-07
-2.22579e-07
1.02002e-06
-2.35523e-07
-3.23733e-07
1.05131e-06
-2.20804e-07
-4.57963e-07
1.1009e-06
-2.0899e-07
-6.2251e-07
1.16806e-06
-1.98808e-07
-8.00085e-07
1.22238e-06
-1.86425e-07
-9.7848e-07
1.20871e-06
-1.57252e-07
-1.14818e-06
1.03289e-06
-9.25859e-08
-1.35158e-06
7.0256e-07
4.9722e-09
-1.64753e-06
3.05867e-07
7.99815e-08
-2.10396e-06
1.68095e-07
1.45377e-07
-2.74699e-06
1.67116e-07
2.43449e-07
-3.31116e-06
-3.61816e-07
1.80857e-07
-3.21538e-06
-2.14312e-06
-2.62485e-07
-1.94665e-06
-3.26996e-06
-1.49643e-06
-1.13022e-06
-2.32036e-06
-1.71927e-06
-8.37358e-06
1.4017e-06
1.31072e-06
-1.82127e-05
2.89053e-07
4.69035e-06
-2.38135e-05
-8.60335e-07
3.92115e-06
-2.40765e-05
-2.13042e-06
-2.18428e-07
-2.51347e-05
-5.59265e-06
-1.22417e-06
-2.71263e-05
-1.38229e-05
6.71021e-07
-3.36918e-05
-1.54628e-05
1.99529e-06
-2.8095e-05
-3.31601e-05
-1.61734e-06
-1.9964e-06
-4.54477e-05
-2.31562e-06
-4.71613e-05
1.3172e-06
-5.58578e-06
-0.000122723
-7.1355e-06
-8.15749e-06
-0.000128296
-3.99645e-06
7.45444e-06
-0.000142591
-8.29718e-08
5.9583e-06
-0.000155765
2.41253e-06
6.45664e-06
-0.000160276
2.47673e-06
3.47928e-06
-0.000163854
2.38185e-06
1.75654e-06
-0.000165507
5.42984e-08
-6.87327e-07
-0.000166211
3.19728e-07
-1.88339e-06
-0.000165743
-2.8926e-07
-2.79007e-06
-0.000164755
2.39962e-07
-3.15848e-06
-0.000163122
1.14834e-06
-3.39751e-06
-0.000160454
2.49712e-06
-3.75465e-06
-0.000158045
4.05406e-06
-3.61096e-06
-0.000156258
4.75672e-06
-2.15672e-06
-0.000155645
4.00347e-06
-5.45193e-08
-0.0001572
2.28337e-06
2.53063e-06
-0.000160761
-6.14838e-07
5.52512e-06
-0.000165293
-4.22674e-06
7.20065e-06
-0.000168716
-7.95497e-06
6.09548e-06
-0.000169517
-1.12836e-05
3.64651e-06
-0.000168815
-1.28935e-05
2.24385e-06
-0.000166397
-1.31495e-05
1.03995e-06
-0.00016056
-1.14412e-05
-3.88377e-07
-0.000153938
-9.78154e-06
-4.11148e-07
-0.000144435
-9.64221e-06
-4.94243e-07
-0.000119022
-8.24312e-06
-1.27487e-06
-5.89956e-05
-5.14007e-06
-1.79022e-06
-1.47524e-05
-2.26009e-06
-2.19573e-06
-1.21508e-05
2.32515e-06
-2.40538e-06
-9.70775e-06
7.42466e-06
-3.1918e-06
-6.52219e-06
1.1409e-05
-3.57453e-06
-2.99773e-06
1.42638e-05
-2.98604e-06
-1.26534e-07
1.52662e-05
-1.38022e-06
3.09226e-07
1.60419e-05
5.97063e-07
-1.13746e-06
1.73187e-05
1.45752e-06
1.97939e-05
-5.17871e-07
-3.61089e-06
-3.22904e-06
2.92888e-07
-2.22081e-06
-5.1625e-06
-1.50598e-06
-2.0294e-06
-2.99517e-06
-3.11093e-07
-1.19019e-06
-3.55455e-06
-6.68069e-07
-7.7224e-07
-1.81881e-06
-2.78862e-07
-5.3896e-07
-1.3254e-06
-4.91242e-07
-4.58692e-07
-1.5241e-07
-4.54624e-07
-2.9386e-07
1.00171e-07
-4.42568e-07
5.93754e-08
4.69683e-07
-4.65238e-07
1.58554e-07
8.79588e-07
-2.97467e-07
3.60463e-08
1.24065e-06
-1.87137e-07
-2.88877e-07
1.41967e-06
-9.16157e-08
-5.14988e-07
1.20467e-06
-1.2664e-07
-5.67879e-07
8.32584e-07
-2.0469e-07
-5.29865e-07
6.31703e-07
-2.76719e-07
-4.4763e-07
5.7352e-07
-3.23368e-07
-3.64759e-07
6.46129e-07
-3.38395e-07
-3.12031e-07
7.66965e-07
-3.3984e-07
-2.81822e-07
8.68615e-07
-3.40983e-07
-2.63575e-07
9.39612e-07
-3.42484e-07
-2.52158e-07
9.96016e-07
-3.4159e-07
-2.42086e-07
1.03661e-06
-3.39055e-07
-2.30228e-07
1.06782e-06
-3.33921e-07
-2.17908e-07
1.09469e-06
-3.2585e-07
-2.0656e-07
1.11637e-06
-3.15725e-07
-1.97096e-07
1.13318e-06
-3.03428e-07
-1.90499e-07
1.14704e-06
-2.90449e-07
-1.88111e-07
1.15731e-06
-2.7806e-07
-1.90119e-07
1.16368e-06
-2.66779e-07
-1.95625e-07
1.1667e-06
-2.56451e-07
-2.04237e-07
1.16874e-06
-2.46744e-07
-2.18949e-07
1.17657e-06
-2.37388e-07
-2.48942e-07
1.2014e-06
-2.26969e-07
-2.99782e-07
1.23731e-06
-2.14557e-07
-3.73042e-07
1.27113e-06
-2.01281e-07
-4.68614e-07
1.30485e-06
-1.89263e-07
-5.76707e-07
1.34118e-06
-1.81778e-07
-6.77668e-07
1.38204e-06
-1.80182e-07
-7.61371e-07
1.42409e-06
-1.72334e-07
-8.4193e-07
1.45569e-06
-1.52754e-07
-9.54911e-07
1.44223e-06
-1.20531e-07
-1.09986e-06
1.26365e-06
-8.58024e-08
-1.29023e-06
9.41054e-07
-4.81259e-08
-1.57323e-06
6.07265e-07
-1.83863e-08
-2.02915e-06
5.79722e-07
4.42985e-08
-2.66652e-06
6.60279e-07
1.4422e-07
-3.25876e-06
1.67276e-07
6.3164e-08
-3.21791e-06
-1.8397e-06
-3.44266e-07
-1.42948e-06
-3.96157e-06
-1.09683e-06
7.59061e-07
-2.92691e-06
-1.58202e-06
-5.48519e-06
5.48296e-06
2.16298e-06
-1.43063e-05
6.27417e-06
2.83601e-06
-1.93623e-05
1.94997e-06
2.2457e-06
-2.10255e-05
-4.35749e-07
-3.14539e-08
-2.37838e-05
-2.64512e-10
-2.8341e-06
-2.23685e-05
-9.08191e-06
-6.15611e-06
-2.27806e-05
-1.25995e-05
-2.45138e-06
-1.63326e-05
-3.29953e-05
-6.6126e-06
-2.33711e-06
-5.63874e-05
-4.68222e-06
-4.99322e-05
5.09095e-06
-5.40615e-06
-0.000124094
1.34849e-06
-8.55823e-06
-0.000132058
6.32438e-06
7.22867e-06
-0.000148653
1.15613e-05
6.79433e-06
-0.000165695
1.1637e-05
7.33303e-06
-0.000172777
7.27652e-06
3.00156e-06
-0.000176973
5.99958e-06
1.43298e-06
-0.00017826
2.78253e-06
-9.63836e-07
-0.000177671
1.9669e-06
-2.28975e-06
-0.000175931
5.80196e-07
-2.71642e-06
-0.000173591
2.07237e-07
-2.675e-06
-0.000170511
-9.10423e-07
-1.67845e-06
-0.000167428
-4.65774e-07
-1.25753e-06
-0.000165135
5.46739e-07
-2.98679e-08
-0.000164789
1.76458e-06
1.51895e-06
-0.000167359
2.127e-06
3.3679e-06
-0.000171777
1.47309e-06
4.68209e-06
-0.000176368
-4.81962e-07
4.77122e-06
-0.000179025
-4.45506e-06
3.48909e-06
-0.000181016
-8.01177e-06
2.35833e-06
-0.000183831
-1.11302e-05
2.31849e-06
-0.000185972
-1.27271e-05
1.30947e-06
-0.000186156
-1.35522e-05
-8.27753e-08
-0.000184055
-1.36109e-05
-7.58742e-07
-0.000180154
-1.26422e-05
-6.93038e-07
-0.00017553
-1.22513e-05
-7.97559e-07
-0.000170694
-1.11899e-05
-1.34648e-06
-0.000164437
-8.08857e-06
-1.87377e-06
-0.000157855
-3.39726e-06
-1.65853e-06
-0.00015356
2.23511e-06
-7.21713e-07
-0.000149595
6.90437e-06
-2.01378e-07
-0.000145642
1.08732e-05
-6.74e-08
-0.000142919
1.26201e-05
1.13856e-06
-0.000141092
1.3449e-05
1.87949e-06
-0.000140166
1.48303e-05
1.96243e-06
-0.000136856
1.6434e-05
8.03603e-07
1.8516e-05
-1.40604e-06
-3.57959e-06
-2.33445e-06
8.04998e-07
-2.33065e-06
-4.94394e-06
-1.46751e-06
-2.11128e-06
-2.88067e-06
-3.33883e-07
-1.04771e-06
-3.83602e-06
-7.82104e-07
-2.35288e-07
-2.42907e-06
-2.02169e-07
-2.2712e-07
-1.05267e-06
-2.80902e-07
-3.7983e-07
2.94137e-07
-2.93844e-07
-4.3491e-07
4.76792e-07
-3.21547e-07
-2.42163e-07
7.73647e-07
-4.96717e-07
-1.20373e-07
1.10083e-06
-3.43043e-07
-5.70655e-08
1.4339e-06
-2.56565e-07
-1.11426e-07
1.63047e-06
-1.56444e-07
-1.5141e-07
1.46825e-06
-2.2361e-07
-1.9087e-07
1.16884e-06
-2.96801e-07
-2.29019e-07
1.04809e-06
-3.78245e-07
-2.70218e-07
1.05256e-06
-4.37848e-07
-3.05452e-07
1.15583e-06
-4.74467e-07
-3.35955e-07
1.28942e-06
-4.91957e-07
-3.60095e-07
1.39349e-06
-5.00738e-07
-3.71366e-07
1.45634e-06
-5.05463e-07
-3.77342e-07
1.50754e-06
-5.05548e-07
-3.78518e-07
1.54277e-06
-5.04979e-07
-3.74561e-07
1.56691e-06
-5.03044e-07
-3.6658e-07
1.5861e-06
-4.99397e-07
-3.57898e-07
1.6016e-06
-4.93912e-07
-3.50732e-07
1.61397e-06
-4.8796e-07
-3.46322e-07
1.62426e-06
-4.81629e-07
-3.45787e-07
1.63192e-06
-4.75141e-07
-3.50681e-07
1.63696e-06
-4.68384e-07
-3.60479e-07
1.6387e-06
-4.62191e-07
-3.75137e-07
1.63995e-06
-4.56545e-07
-4.00933e-07
1.65267e-06
-4.50302e-07
-4.49684e-07
1.68996e-06
-4.398e-07
-5.24336e-07
1.73989e-06
-4.27922e-07
-6.15076e-07
1.77992e-06
-4.18043e-07
-7.0961e-07
1.81065e-06
-4.11261e-07
-7.8839e-07
1.82969e-06
-4.09719e-07
-8.40429e-07
1.84228e-06
-4.08192e-07
-8.58347e-07
1.84724e-06
-4.05219e-07
-8.52492e-07
1.83842e-06
-3.88564e-07
-8.65283e-07
1.81085e-06
-3.55813e-07
-9.39567e-07
1.67712e-06
-3.39171e-07
-1.0912e-06
1.43952e-06
-3.46817e-07
-1.35396e-06
1.24382e-06
-3.73764e-07
-1.84133e-06
1.37929e-06
-3.12172e-07
-2.56104e-06
1.57722e-06
-1.97205e-07
-3.33617e-06
1.12895e-06
-1.86511e-07
-3.3817e-06
-1.1252e-06
-6.6896e-07
-1.29538e-06
-4.49341e-06
-1.55447e-06
2.76333e-06
-4.2077e-06
-2.77795e-06
1.26486e-06
7.29752e-06
-3.16107e-07
-7.01556e-06
1.34885e-05
1.06607e-06
-1.68143e-05
1.04046e-05
1.34413e-06
-2.01047e-05
4.7316e-06
-1.87689e-06
-2.35852e-05
1.14251e-05
-7.94493e-06
-2.05557e-05
1.01196e-06
-1.31232e-05
-2.16472e-05
-1.32149e-06
-1.01864e-05
-2.66293e-05
-2.10974e-05
-6.9157e-06
-1.36411e-06
-7.72081e-05
-6.68342e-06
-6.24956e-05
9.76799e-06
-4.46424e-06
-0.000171242
2.02262e-05
-4.19969e-07
-0.000183559
1.85727e-05
1.15379e-05
-0.000196759
2.02686e-05
8.87235e-06
-0.000210664
1.65925e-05
7.538e-06
-0.000217152
9.96421e-06
4.58209e-06
-0.000221699
6.01385e-06
3.90726e-06
-0.000223745
3.71544e-06
1.04279e-07
-0.000223422
2.61009e-06
-2.421e-06
-0.000222248
2.92001e-06
-3.83868e-06
-0.000221648
2.6131e-06
-3.90669e-06
-0.000220459
7.57817e-07
-3.15262e-06
-0.000218506
-9.04723e-07
-1.74591e-06
-0.000216008
-2.43267e-06
3.43837e-07
-0.000212733
-3.27499e-06
2.51833e-06
-0.000209272
-3.04243e-06
3.65624e-06
-0.000206734
-3.04624e-06
4.28501e-06
-0.000205635
-3.57869e-06
2.97635e-06
-0.000206514
-5.34671e-06
1.42991e-06
-0.000208805
-7.82065e-06
1.92826e-06
-0.000212513
-9.97949e-06
2.72722e-06
-0.000217237
-1.11187e-05
2.70277e-06
-0.000221098
-1.23048e-05
2.48088e-06
-0.000223595
-1.33983e-05
2.26342e-06
-0.000225334
-1.30948e-05
2.58447e-06
-0.00022661
-1.25004e-05
2.35795e-06
-0.000227385
-1.17232e-05
1.47869e-06
-0.000225782
-9.04078e-06
1.73987e-07
-0.000222659
-6.86403e-06
-8.72999e-08
-0.000218191
-2.56899e-06
-4.28146e-07
-0.000214408
2.03711e-06
2.66456e-07
-0.000210196
4.75927e-06
6.24022e-07
-0.000205319
6.03282e-06
1.62388e-06
-0.000199996
6.88416e-06
1.64577e-06
-0.000193358
6.91529e-06
1.35729e-06
-0.000187039
8.73547e-06
8.10563e-07
9.56354e-06
1.09957e-06
-3.3643e-06
-8.02802e-07
1.92154e-06
-2.48797e-06
-4.66904e-06
-1.15123e-06
-2.53698e-06
-2.73203e-06
-9.96324e-08
-1.39166e-06
-4.1868e-06
-7.94558e-07
-1.33685e-07
-3.38099e-06
-3.06058e-07
-1.28237e-08
-1.30933e-06
1.35795e-07
-2.59155e-07
1.7895e-07
3.61513e-07
-4.56377e-07
2.83896e-07
3.90112e-07
-3.76935e-07
7.01457e-07
-7.25567e-09