/*--------------------------------*- C++ -*----------------------------------*\
| =========                 |                                                 |
| \\      /  F ield         | OpenFOAM: The Open Source CFD Toolbox           |
|  \\    /   O peration     | Version:  2.3.0                                 |
|   \\  /    A nd           | Web:      www.OpenFOAM.org                      |
|    \\/     M anipulation  |                                                 |
\*---------------------------------------------------------------------------*/
FoamFile
{
    version     2.0;
    format      ascii;
    class       surfaceScalarField;
    location    "28";
    object      phi.water;
}
// * * * * * * * * * * * * * * * * * * * * * * * * * * * * * * * * * * * * * //

dimensions      [0 3 -1 0 0 0 0];

internalField   nonuniform List<scalar> 
16448
(
-7.07478e-07
-2.49955e-06
4.27327e-07
1.0091e-06
-2.48885e-06
7.77014e-07
8.8211e-07
-1.13462e-06
1.26488e-06
7.84053e-07
-1.1252e-06
1.22633e-06
4.53227e-07
-7.35499e-07
1.07027e-06
2.18455e-07
-6.89683e-07
9.28452e-07
-1.27737e-08
-4.8641e-07
7.2331e-07
-1.32924e-07
-4.5428e-07
5.80063e-07
-2.44476e-07
-3.69228e-07
4.84067e-07
-3.769e-07
-3.1156e-07
4.44659e-07
-4.9978e-07
-2.7393e-07
3.97073e-07
-5.39532e-07
-2.97076e-07
3.36967e-07
-5.00221e-07
-3.48663e-07
3.09586e-07
-3.81201e-07
-4.03758e-07
2.84905e-07
-2.47154e-07
-4.33997e-07
3.00201e-07
-1.15954e-07
-4.54539e-07
3.23547e-07
-1.76561e-08
-4.60541e-07
3.62521e-07
5.58783e-08
-4.69078e-07
3.95785e-07
1.01462e-07
-4.76914e-07
4.31599e-07
1.28306e-07
-4.83841e-07
4.57246e-07
1.3851e-07
-4.86008e-07
4.76066e-07
1.37646e-07
-4.84234e-07
4.8535e-07
1.29681e-07
-4.79524e-07
4.87757e-07
1.17779e-07
-4.72252e-07
4.84418e-07
1.04171e-07
-4.63109e-07
4.76999e-07
9.02935e-08
-4.52417e-07
4.66574e-07
7.68042e-08
-4.4024e-07
4.5403e-07
6.37469e-08
-4.26565e-07
4.3992e-07
5.147e-08
-4.12018e-07
4.24617e-07
4.25723e-08
-3.997e-07
4.08916e-07
3.84623e-08
-3.86889e-07
3.91343e-07
3.95067e-08
-3.72432e-07
3.71726e-07
4.55924e-08
-3.55685e-07
3.49965e-07
5.94136e-08
-3.37972e-07
3.24509e-07
8.87084e-08
-3.22368e-07
2.93459e-07
1.43592e-07
-3.1248e-07
2.5797e-07
2.2904e-07
-3.10006e-07
2.24962e-07
3.39761e-07
-3.14115e-07
2.03776e-07
4.59884e-07
-3.23419e-07
2.03708e-07
5.62761e-07
-3.34828e-07
2.3233e-07
6.06425e-07
-3.41887e-07
2.98685e-07
5.66594e-07
-3.71256e-07
4.11534e-07
4.51464e-07
-4.43114e-07
5.58679e-07
3.87903e-07
-6.36113e-07
7.00858e-07
5.86334e-07
-1.03538e-06
8.43204e-07
1.12244e-06
-1.53789e-06
1.01831e-06
1.80341e-06
-1.83198e-06
1.17526e-06
2.22206e-06
-1.70663e-06
1.33255e-06
9.74052e-07
-7.50843e-08
1.39761e-06
1.22894e-07
-4.35163e-07
1.44295e-06
3.527e-06
-6.81023e-06
3.5673e-06
9.16393e-06
-1.09108e-05
5.27199e-06
1.36089e-05
-9.23277e-06
4.80014e-06
1.62706e-05
-7.50573e-06
4.80216e-06
1.63106e-05
-4.137e-06
4.15958e-06
1.69314e-05
-4.43861e-06
3.6524e-06
1.13188e-05
1.66097e-06
4.18458e-06
7.08215e-06
2.85426e-06
5.34363e-07
2.34969e-07
1.27543e-05
4.95662e-06
3.04267e-05
-2.24707e-06
-8.24068e-06
2.63407e-05
-2.17893e-05
-3.04957e-06
3.24519e-05
-1.17117e-05
3.74766e-06
3.35356e-05
-6.25305e-06
5.16014e-06
3.5001e-05
-6.43467e-06
4.96927e-06
3.62492e-05
-6.08641e-06
4.83823e-06
3.64434e-05
-5.17799e-06
4.98377e-06
3.58709e-05
-5.029e-06
5.60147e-06
3.52258e-05
-5.36318e-06
6.0083e-06
3.4331e-05
-5.09848e-06
5.99327e-06
3.33527e-05
-4.57307e-06
5.55133e-06
3.20772e-05
-3.75064e-06
5.02615e-06
3.01198e-05
-2.46545e-06
4.4229e-06
2.85916e-05
-2.15864e-06
3.68678e-06
2.69776e-05
-1.53023e-06
3.14419e-06
2.56018e-05
-1.25558e-06
2.6314e-06
2.44499e-05
-1.13645e-06
2.28842e-06
2.36995e-05
-1.36331e-06
2.11362e-06
2.35845e-05
-1.61708e-06
1.73213e-06
2.338e-05
-9.68751e-07
1.17322e-06
2.22884e-05
6.52054e-07
4.39563e-07
1.9529e-05
2.47007e-06
2.89332e-07
1.33264e-05
4.21066e-06
1.9919e-06
6.40893e-06
3.88581e-06
3.03168e-06
3.68303e-06
3.16564e-07
2.40933e-06
2.92968e-06
-1.00643e-06
1.75978e-06
2.65734e-06
-1.63502e-06
1.90736e-06
1.7662e-06
-1.64604e-06
2.53718e-06
-8.91794e-07
-7.99987e-07
3.45798e-06
-4.48296e-06
4.82665e-08
3.5429e-06
-7.01199e-06
1.76312e-07
2.35272e-06
-7.18654e-06
6.68956e-07
-4.94404e-07
-4.49217e-06
1.70797e-06
-4.40234e-06
-1.23208e-06
2.65031e-06
-5.91041e-06
-5.24336e-07
2.7441e-06
-3.45184e-06
-1.04642e-06
1.71233e-06
-1.19024e-06
1.47394e-06
-2.52036e-06
-1.45017e-06
-3.70944e-06
-1.22645e-07
-2.52067e-07
-3.80908e-06
1.30843e-07
-2.51127e-07
-2.08088e-06
9.51374e-07
-1.06612e-07
-1.90801e-06
6.42706e-07
-4.42201e-08
-1.20221e-06
4.09332e-07
1.42568e-08
-9.47344e-07
2.03648e-07
-4.33104e-08
-5.06237e-07
8.26223e-08
-1.87035e-07
-3.84172e-07
7.75559e-08
-3.99883e-07
-2.36912e-07
8.25647e-08
-5.94021e-07
-1.96959e-07
7.93736e-08
-7.20766e-07
-1.84507e-07
3.7119e-08
-7.41197e-07
-2.55892e-07
-2.10846e-08
-6.87341e-07
-3.4682e-07
-5.58236e-08
-5.60995e-07
-4.44447e-07
-8.58061e-08
-4.11638e-07
-5.00565e-07
-8.28634e-08
-2.59532e-07
-5.3614e-07
-7.06036e-08
-1.34716e-07
-5.41401e-07
-4.4002e-08
-3.56411e-08
-5.47579e-07
-2.06553e-08
3.05675e-08
-5.47866e-07
4.68548e-09
7.41961e-08
-5.46661e-07
1.9148e-08
9.66603e-08
-5.39144e-07
3.06611e-08
1.04594e-07
-5.28609e-07
3.64383e-08
1.02272e-07
-5.15021e-07
3.78232e-08
9.36513e-08
-4.99104e-07
3.54825e-08
8.15455e-08
-4.81644e-07
3.06504e-08
6.79865e-08
-4.62795e-07
2.39502e-08
5.41918e-08
-4.42472e-07
1.60333e-08
4.08704e-08
-4.20632e-07
7.39181e-09
2.90101e-08
-3.97697e-07
-2.46396e-09
2.30283e-08
-3.76194e-07
-1.74929e-08
2.43119e-08
-3.55033e-07
-3.30866e-08
3.33826e-08
-3.31851e-07
-4.95669e-08
4.93443e-08
-3.05034e-07
-6.65099e-08
7.2814e-08
-2.76967e-07
-8.4335e-08
1.09103e-07
-2.54916e-07
-1.03581e-07
1.64817e-07
-2.45237e-07
-1.22756e-07
2.42901e-07
-2.49347e-07
-1.38521e-07
3.36416e-07
-2.64198e-07
-1.43176e-07
4.28978e-07
-2.83205e-07
-1.32504e-07
4.91746e-07
-2.99311e-07
-9.79864e-08
4.79946e-07
-3.01778e-07
-2.8005e-08
3.71611e-07
-3.17117e-07
5.45246e-08
1.75464e-07
-3.97605e-07
1.50981e-07
-3.33821e-08
-6.62527e-07
2.36449e-07
-1.74034e-07
-1.23647e-06
3.4816e-07
-3.08685e-07
-1.93802e-06
5.51282e-07
-5.23707e-07
-2.35954e-06
7.71436e-07
-8.7402e-07
-2.26878e-06
9.59113e-07
-1.50691e-07
-1.12256e-06
3.9679e-07
2.39232e-06
-2.83343e-06
-6.94229e-09
4.87593e-06
-1.12918e-05
2.21832e-06
6.54205e-06
-1.58063e-05
3.32888e-06
7.10836e-06
-1.2236e-05
2.49129e-06
6.73026e-06
-9.61295e-06
2.43979e-06
9.30591e-06
-7.63457e-06
1.00224e-06
1.49285e-05
-9.65468e-06
-5.92046e-07
1.57011e-05
1.16907e-06
3.48679e-07
1.82089e-05
-2.42486e-06
9.55573e-07
6.48426e-06
2.12068e-05
1.58023e-05
3.0251e-05
-2.41938e-06
-2.55224e-06
1.6914e-05
-2.85882e-05
-8.93851e-06
1.7628e-05
-1.6933e-05
3.28293e-06
1.78234e-05
-1.2229e-05
5.77855e-06
1.96198e-05
-1.21855e-05
3.95436e-06
1.94826e-05
-9.69896e-06
3.74972e-06
1.72874e-05
-7.12513e-06
4.14237e-06
1.47055e-05
-7.15416e-06
4.70702e-06
1.15709e-05
-7.23159e-06
5.00305e-06
8.35751e-06
-6.7312e-06
4.84609e-06
5.71182e-06
-6.20077e-06
4.27338e-06
3.31379e-06
-4.92878e-06
3.57618e-06
8.03141e-07
-2.41284e-06
2.45804e-06
-2.05905e-06
-1.44224e-06
2.1458e-06
-4.81821e-06
-4.00585e-07
1.62951e-06
-6.73573e-06
4.11676e-08
6.20781e-07
-7.2097e-06
-1.38528e-06
7.22798e-07
-6.32916e-06
-3.12732e-06
8.83467e-07
-4.19538e-06
-4.19778e-06
4.46915e-07
-1.01294e-06
-4.12984e-06
-2.1352e-08
2.23483e-06
-2.10289e-06
-4.92821e-07
3.54395e-06
9.8354e-07
1.77402e-07
4.51487e-06
2.2225e-06
1.01725e-06
6.54846e-06
6.68397e-08
1.78538e-06
7.90756e-06
-2.84674e-06
1.8042e-06
8.45435e-06
-3.34232e-06
1.78911e-06
8.10903e-06
-3.20708e-06
1.91738e-06
6.56501e-06
-2.71697e-06
2.61494e-06
3.74446e-06
-1.28097e-06
3.30154e-06
-1.1401e-07
5.3713e-07
3.3696e-06
-3.0835e-06
1.1562e-06
1.9896e-06
-3.26597e-06
1.94157e-06
-1.09014e-06
-1.6385e-07
3.95206e-06
-5.34621e-06
3.5218e-06
6.67708e-06
-7.71241e-06
4.20886e-06
7.63106e-06
-5.57402e-06
1.11701e-06
6.58363e-06
-1.77945e-06
5.08683e-06
-2.49588e-06
-2.28297e-06
-4.19191e-06
-3.76603e-07
-1.34543e-06
-4.42893e-06
-3.08343e-07
-1.24437e-06
-2.55052e-06
3.75155e-07
-8.8287e-07
-2.31236e-06
4.68327e-08
-6.57655e-07
-1.39256e-06
-2.95497e-08
-3.18723e-07
-1.14431e-06
-1.36659e-07
-2.08524e-07
-4.34036e-07
-1.77029e-07
-3.072e-07
-1.9788e-07
-8.46914e-08
-5.30537e-07
3.49923e-08
-4.68808e-08
-6.68854e-07
1.35677e-08
-7.18267e-08
-7.40968e-07
1.75225e-08
-1.29487e-07
-7.41666e-07
-6.06156e-08
-1.94399e-07
-7.00829e-07
-1.47204e-07
-2.40316e-07
-6.17319e-07
-2.55965e-07
-2.72019e-07
-5.06006e-07
-3.24232e-07
-2.87684e-07
-3.81812e-07
-3.67814e-07
-2.92599e-07
-2.66516e-07
-3.71159e-07
-2.85575e-07
-1.65818e-07
-3.71598e-07
-2.76736e-07
-8.68893e-08
-3.61276e-07
-2.65543e-07
-2.86508e-08
-3.48377e-07
-2.56548e-07
1.05745e-08
-3.29682e-07
-2.48683e-07
3.50648e-08
-3.0929e-07
-2.43803e-07
4.6947e-08
-2.85954e-07
-2.40919e-07
4.9985e-08
-2.61595e-07
-2.40513e-07
4.7243e-08
-2.36887e-07
-2.4196e-07
4.16098e-08
-2.12143e-07
-2.44961e-07
3.54347e-08
-1.8709e-07
-2.4913e-07
3.10866e-08
-1.6182e-07
-2.54381e-07
3.09564e-08
-1.3671e-07
-2.60752e-07
3.56439e-08
-1.12458e-07
-2.68307e-07
4.63345e-08
-8.92849e-08
-2.76293e-07
6.32067e-08
-6.46784e-08
-2.83887e-07
8.48029e-08
-3.64918e-08
-2.89941e-07
1.09271e-07
-7.55426e-09
-2.9366e-07
1.34057e-07
1.61427e-08
-2.95586e-07
1.57066e-07
2.69335e-08
-2.94911e-07
1.72209e-07
2.4981e-08
-2.89154e-07
1.71502e-07
1.44418e-08
-2.77601e-07
1.41631e-07
4.93402e-09
-2.57902e-07
6.82247e-08
4.03743e-09
-2.29584e-07
-5.14312e-08
1.17612e-08
-1.93518e-07
-2.10401e-07
-6.92767e-09
-1.50907e-07
-3.89368e-07
-1.22322e-07
-9.58522e-08
-6.06233e-07
-4.2873e-07
-1.50519e-08
-1.02695e-06
-9.19264e-07
1.10796e-07
-1.82265e-06
-1.47585e-06
3.48774e-07
-2.74793e-06
-1.97639e-06
5.66232e-07
-3.05971e-06
-2.40028e-06
4.78178e-07
-6.7893e-07
-2.87244e-06
-5.45813e-07
3.3364e-06
-4.9276e-06
-1.72219e-06
3.17724e-06
-1.27358e-05
1.83399e-06
-3.70146e-07
-1.55237e-05
3.2898e-06
-2.54e-06
-1.10519e-05
1.03202e-06
-2.4894e-06
-8.61115e-06
-1.13713e-06
3.74587e-06
-1.10975e-05
-2.6268e-06
8.23959e-06
-1.10349e-05
-3.36147e-06
1.42487e-05
-4.72869e-06
9.58584e-07
2.3916e-05
-1.45227e-05
6.25604e-08
9.67182e-06
2.54574e-05
2.39222e-05
3.21784e-05
-3.27634e-06
-1.01141e-06
1.35091e-05
-2.89722e-05
-1.16149e-05
1.22171e-05
-1.66438e-05
-1.90567e-07
1.42101e-05
-1.57387e-05
1.51521e-06
1.44738e-05
-1.48818e-05
2.43271e-06
1.14435e-05
-9.05014e-06
2.38142e-06
8.20596e-06
-5.85088e-06
1.96333e-06
4.19398e-06
-6.6345e-06
3.49232e-06
-9.66034e-07
-6.69014e-06
4.61856e-06
-5.45078e-06
-7.15959e-06
4.91314e-06
-8.35663e-06
-7.19411e-06
3.8992e-06
-1.00157e-05
-6.24207e-06
2.97233e-06
-1.0954e-05
-3.99122e-06
2.51668e-06
-1.13155e-05
-3.01715e-06
1.93645e-06
-1.08693e-05
-1.85074e-06
1.00394e-06
-1.05275e-05
-8.54495e-07
5.5386e-07
-9.90923e-06
-2.02083e-06
1.72825e-08
-8.79303e-06
-2.96056e-06
-1.28295e-06
-7.78626e-06
-3.50579e-06
-1.69877e-06
-6.46178e-06
-4.09141e-06
-1.3629e-06
-3.09856e-06
-4.58775e-06
-8.78363e-07
1.42276e-06
-3.62189e-06
8.4114e-08
5.87418e-06
-3.48717e-06
1.25825e-06
8.92774e-06
-4.2182e-06
1.23148e-06
1.02912e-05
-4.37561e-06
1.65443e-07
1.06398e-05
-4.05179e-06
3.60863e-07
9.77445e-06
-3.18723e-06
8.45453e-07
7.92543e-06
-2.27513e-06
1.40719e-06
5.55542e-06
-2.54841e-07
1.34388e-06
3.359e-06
1.71198e-06
1.02157e-06
1.49836e-06
3.24831e-06
-2.31471e-07
1.11194e-06
4.57819e-06
-2.2502e-06
2.6067e-06
7.91896e-06
-5.46166e-06
5.25609e-06
1.16449e-05
-7.61724e-06
5.47596e-06
1.24374e-05
-5.02622e-06
1.83455e-06
1.1297e-05
-1.07194e-06
9.11606e-06
-2.19468e-06
-2.94138e-06
-4.32328e-06
-2.11712e-07
-1.93753e-06
-4.89656e-06
-5.28068e-07
-1.78659e-06
-2.84386e-06
1.51051e-07
-1.30684e-06
-2.66512e-06
-1.23154e-07
-1.0848e-06
-1.5123e-06
-9.70658e-08
-5.82262e-07
-1.42463e-06
-2.1721e-07
-2.16274e-07
-5.43891e-07
-2.49436e-07
-1.53348e-07
-1.54194e-07
-1.0264e-07
-3.09908e-07
2.49417e-07
-5.58974e-08
-4.45195e-07
2.35336e-07
-8.59421e-08
-5.50929e-07
2.81672e-07
-1.57742e-07
-6.27296e-07
2.3663e-07
-2.20469e-07
-6.51674e-07
1.54904e-07
-2.7741e-07
-6.14781e-07
2.75093e-08
-3.20186e-07
-5.31646e-07
-5.87209e-08
-3.48462e-07
-4.27503e-07
-1.04791e-07
-3.66985e-07
-3.2772e-07
-9.5454e-08
-3.7527e-07
-2.39999e-07
-7.79021e-08
-3.81188e-07
-1.6279e-07
-5.36586e-08
-3.84596e-07
-9.7879e-08
-2.92973e-08
-3.83759e-07
-4.75344e-08
3.396e-10
-3.80143e-07
-9.4925e-09
2.71139e-08
-3.74204e-07
1.62413e-08
5.67195e-08
-3.6816e-07
3.14182e-08
8.70117e-08
-3.63514e-07
3.90343e-08
1.16554e-07
-3.6079e-07
4.22995e-08
1.4496e-07
-3.60078e-07
4.37004e-08
1.72664e-07
-3.60871e-07
4.55213e-08
1.99401e-07
-3.62733e-07
4.96665e-08
2.2474e-07
-3.65298e-07
5.72959e-08
2.48384e-07
-3.68151e-07
6.81383e-08
2.71068e-07
-3.70895e-07
8.08011e-08
2.95545e-07
-3.72567e-07
9.33979e-08
3.23708e-07
-3.72503e-07
1.02861e-07
3.53003e-07
-3.69703e-07
1.07091e-07
3.7462e-07
-3.62396e-07
9.89456e-08
3.85089e-07
-3.49656e-07
6.73439e-08
3.87852e-07
-3.30921e-07
5.94592e-09
3.88582e-07
-3.12361e-07
-9.24218e-08
3.98679e-07
-2.95018e-07
-2.37258e-07
4.26345e-07
-2.7707e-07
-4.22017e-07
4.54733e-07
-2.57852e-07
-6.1969e-07
4.13748e-07
-2.22586e-07
-8.09621e-07
2.26678e-07
-1.58166e-07
-1.05198e-06
-1.23906e-07
-5.97617e-08
-1.56216e-06
-4.6169e-07
6.01914e-08
-2.56522e-06
-7.33886e-07
2.75201e-07
-3.66561e-06
-1.29168e-06
4.40178e-07
-3.82735e-06
-2.40018e-06
2.11769e-07
-1.47194e-06
-3.80511e-06
-1.27393e-06
1.4269e-06
-5.06583e-06
-2.5427e-06
-2.40575e-06
-1.02915e-05
1.54729e-06
-1.12143e-05
-1.13073e-05
4.5576e-06
-1.77198e-05
-6.96253e-06
2.43948e-06
-1.73247e-05
-6.26377e-06
-2.74852e-06
-1.48181e-05
-8.42878e-06
-5.0984e-06
-1.47588e-05
-1.08695e-05
-6.18942e-07
5.91026e-06
-2.10039e-05
-1.02663e-06
1.18533e-05
-2.53062e-05
3.15908e-06
1.77992e-05
1.34165e-05
2.53218e-05
3.59443e-05
-1.4775e-06
-2.39621e-06
9.65431e-06
-2.42096e-05
-1.27584e-05
8.20021e-06
-1.71082e-05
5.07347e-07
7.86128e-06
-1.75039e-05
2.10024e-06
1.2813e-06
-1.37328e-05
5.42962e-06
-6.29819e-06
-5.809e-06
4.3377e-06
-1.76915e-05
-1.70142e-06
7.24401e-06
-2.67033e-05
-4.9854e-06
7.3628e-06
-3.01773e-05
-7.45779e-06
4.24158e-06
-2.99268e-05
-8.41626e-06
1.00609e-06
-2.73632e-05
-8.69661e-06
-1.06117e-06
-2.33313e-05
-7.67121e-06
-2.60287e-06
-1.89686e-05
-5.20785e-06
-3.14612e-06
-1.48561e-05
-3.25778e-06
-3.87185e-06
-1.08033e-05
-1.22913e-06
-4.67446e-06
-7.78057e-06
1.17493e-06
-5.05216e-06
-5.77603e-06
2.04865e-06
-6.07404e-06
-4.71195e-06
3.08998e-06
-7.11462e-06
-3.9145e-06
2.95068e-06
-7.2539e-06
-2.73213e-06
1.42517e-06
-6.69895e-06
4.57071e-07
-1.90437e-06
-5.87257e-06
4.82451e-06
-3.59707e-06
-4.39226e-06
7.39065e-06
-4.55262e-06
-1.50069e-06
6.9807e-06
-4.08382e-06
2.75566e-07
5.20982e-06
-3.08554e-06
4.80806e-07
3.67636e-06
-3.23855e-06
7.20227e-07
3.19143e-06
-2.97966e-06
2.77361e-07
2.88626e-06
-2.20199e-06
2.32034e-07
2.52562e-06
-1.5217e-07
2.57971e-07
1.7011e-06
2.32846e-06
2.08031e-07
9.00838e-07
4.28425e-06
-2.35669e-07
1.05753e-06
6.96308e-06
-2.54158e-06
2.98412e-06
1.15616e-05
-5.56921e-06
5.42465e-06
1.48034e-05
-5.59902e-06
6.01155e-06
1.53335e-05
-3.48302e-06
3.19432e-06
1.44277e-05
-3.1353e-07
1.42767e-05
-1.96629e-06
-3.30461e-06
-4.21796e-06
-1.18472e-07
-2.15563e-06
-5.21461e-06
-8.23688e-07
-1.99046e-06
-3.06383e-06
6.47862e-08
-1.39021e-06
-3.04598e-06
-2.1535e-07
-1.17206e-06
-1.61235e-06
-1.1226e-07
-6.66464e-07
-1.61578e-06
-3.1001e-07
-2.60398e-07
-6.42616e-07
-3.0071e-07
-1.7056e-08
-2.03617e-07
-1.88879e-07
2.80532e-08
3.49146e-07
-1.41983e-07
-1.05132e-07
4.80115e-07
-1.10738e-07
-2.86427e-07
5.96297e-07
-1.32473e-07
-4.72247e-07
5.8814e-07
-1.65347e-07
-5.8393e-07
4.79278e-07
-2.12467e-07
-6.01077e-07
3.05483e-07
-2.6079e-07
-5.36278e-07
1.73112e-07
-2.96621e-07
-4.33363e-07
1.16644e-07
-3.24381e-07
-3.37266e-07
1.49561e-07
-3.41094e-07
-2.58018e-07
1.98869e-07
-3.56025e-07
-1.88658e-07
2.48061e-07
-3.71061e-07
-1.24569e-07
2.89035e-07
-3.82426e-07
-6.72709e-08
3.30332e-07
-3.87261e-07
-2.02688e-08
3.68254e-07
-3.88143e-07
1.58179e-08
4.0648e-07
-3.85835e-07
4.10117e-08
4.43244e-07
-3.81435e-07
5.75304e-08
4.76798e-07
-3.76751e-07
6.82923e-08
5.06867e-07
-3.72676e-07
7.61002e-08
5.3382e-07
-3.68946e-07
8.31018e-08
5.57642e-07
-3.65239e-07
9.10255e-08
5.78097e-07
-3.61243e-07
9.95391e-08
5.96279e-07
-3.56379e-07
1.07181e-07
6.13683e-07
-3.50178e-07
1.13014e-07
6.32212e-07
-3.42422e-07
1.13806e-07
6.55612e-07
-3.32563e-07
1.05517e-07
6.81642e-07
-3.20219e-07
8.53995e-08
7.00881e-07
-3.05959e-07
4.60049e-08
7.13568e-07
-2.8891e-07
-2.54869e-08
7.29088e-07
-2.69518e-07
-1.40504e-07
7.57469e-07
-2.53656e-07
-3.02619e-07
8.04571e-07
-2.43502e-07
-5.02109e-07
8.58324e-07
-2.32238e-07
-7.12805e-07
8.7312e-07
-2.07381e-07
-9.18513e-07
7.70793e-07
-1.50925e-07
-1.1442e-06
5.04488e-07
-5.09673e-08
-1.40751e-06
9.04923e-08
5.19123e-08
-1.85855e-06
-1.4231e-07
1.39016e-07
-2.61659e-06
-2.31683e-07
2.6989e-07
-3.38903e-06
-7.44182e-07
2.58079e-07
-3.31229e-06
-2.30898e-06
-8.88213e-08
-1.8913e-06
-3.49639e-06
-1.5587e-06
-1.2252e-06
-3.22235e-06
-2.33466e-06
-8.68895e-06
-4.53889e-06
1.8117e-06
-2.01741e-05
-4.86325e-06
4.95822e-06
-2.68194e-05
-2.53358e-06
2.29082e-06
-2.70859e-05
-2.60681e-06
-3.32153e-06
-2.48423e-05
-7.87281e-06
-2.57498e-06
-2.09595e-05
-1.51946e-05
4.80462e-07
-2.03762e-05
-2.01472e-05
5.3429e-07
-2.38221e-05
-2.9054e-05
4.31804e-06
2.01581e-05
-1.89172e-05
1.22909e-05
4.09908e-05
-2.84583e-06
-3.98475e-06
7.94375e-06
-1.45558e-05
-1.3862e-05
2.27404e-06
-1.48443e-05
1.03241e-06
-4.53009e-06
-1.26184e-05
1.90239e-06
-1.75742e-05
-5.85961e-06
5.16282e-06
-2.8105e-05
-7.26237e-07
5.44629e-06
-3.54653e-05
1.29268e-06
4.36829e-06
-3.78583e-05
-2.32177e-06
-2.72883e-07
-3.96805e-05
-3.57956e-06
-2.06091e-06
-4.02022e-05
-3.59847e-06
-4.30308e-06
-3.94133e-05
-3.85404e-06
-5.63854e-06
-3.82904e-05
-2.5852e-06
-6.21494e-06
-3.64598e-05
-6.74056e-07
-6.36827e-06
-3.40159e-05
1.58759e-06
-7.29153e-06
-3.13765e-05
4.16478e-06
-8.03427e-06
-2.75649e-05
6.09115e-06
-8.72742e-06
-2.26832e-05
5.98374e-06
-8.81545e-06
-1.84175e-05
4.68553e-06
-5.85965e-06
-1.69236e-05
2.48589e-06
-1.02766e-06
-1.90045e-05
-1.19664e-06
4.70381e-06
-2.02192e-05
-7.15506e-06
6.46494e-06
-2.08356e-05
-9.97886e-06
6.99741e-06
-1.99775e-05
-1.12842e-05
5.87287e-06
-1.83979e-05
-9.0407e-06
3.37726e-06
-1.68641e-05
-5.7771e-06
1.15775e-06
-1.45153e-05
-5.88392e-06
2.96548e-07
-1.14378e-05
-6.60734e-06
5.50159e-07
-8.65403e-06
-5.84979e-06
8.64056e-07
-5.95966e-06
-2.71054e-06
-1.35992e-07
-3.31352e-06
1.38159e-06
-1.69928e-06
-1.24711e-06
5.54345e-06
-3.32562e-06
2.52691e-07
1.04374e-05
-4.97407e-06
2.5121e-06
1.47094e-05
-5.40726e-06
4.80711e-06
1.68803e-05
-4.37187e-06
5.53683e-06
1.67944e-05
-2.19059e-06
3.07341e-06
1.67196e-05
1.71593e-07
1.89083e-05
-1.55818e-06
-3.49557e-06
-3.83587e-06
-1.87331e-08
-2.18326e-06
-5.27747e-06
-1.24375e-06
-2.01598e-06
-3.11383e-06
-1.06699e-07
-1.30605e-06
-3.38197e-06
-3.68952e-07
-1.05762e-06
-1.67848e-06
-1.75498e-07
-6.43676e-07
-1.58215e-06
-4.44108e-07
-3.79052e-07
-5.25626e-07
-3.75902e-07
-7.51385e-08
-1.76578e-07
-3.2513e-07
2.17646e-07
3.58592e-07
-2.9782e-07
2.05895e-07
6.82046e-07
-1.88502e-07
1.87333e-08
9.31597e-07
-1.46882e-07
-2.7027e-07
1.00359e-06
-1.25675e-07
-4.78472e-07
8.52275e-07
-1.64204e-07
-5.33167e-07
5.75248e-07
-2.14803e-07
-4.81222e-07
3.93139e-07
-2.71669e-07
-3.83475e-07
3.32447e-07
-3.13276e-07
-2.92937e-07
3.90609e-07
-3.31252e-07
-2.29268e-07
4.79821e-07
-3.44225e-07
-1.80463e-07
5.57766e-07
-3.58093e-07
-1.36483e-07
6.15267e-07
-3.69769e-07
-9.58535e-08
6.65697e-07
-3.75552e-07
-5.86769e-08
7.07464e-07
-3.75923e-07
-2.51747e-08
7.45567e-07
-3.72145e-07
2.7441e-09
7.80957e-07
-3.65159e-07
2.50619e-08
8.11774e-07
-3.56838e-07
4.1618e-08
8.39001e-07
-3.48202e-07
5.22707e-08
8.62971e-07
-3.39328e-07
5.9161e-08
8.8143e-07
-3.30167e-07
6.37625e-08
8.94686e-07
-3.20697e-07
6.64313e-08
9.04553e-07
-3.10412e-07
6.68304e-08
9.13201e-07
-2.99405e-07
6.36401e-08
9.2431e-07
-2.88356e-07
5.20812e-08
9.44301e-07
-2.76596e-07
2.62784e-08
9.71814e-07
-2.63784e-07
-1.81705e-08
9.96519e-07
-2.50627e-07
-8.78809e-08
1.02e-06
-2.36101e-07
-1.8813e-07
1.05135e-06
-2.21407e-07
-3.21418e-07
1.10101e-06
-2.09609e-07
-4.84997e-07
1.16825e-06
-1.99454e-07
-6.61571e-07
1.22269e-06
-1.87089e-07
-8.38907e-07
1.20916e-06
-1.57953e-07
-1.0074e-06
1.03351e-06
-9.33421e-08
-1.20884e-06
7.03325e-07
4.13633e-09
-1.5006e-06
3.06742e-07
7.90649e-08
-1.94792e-06
1.69114e-07
1.44408e-07
-2.57309e-06
1.68352e-07
2.42549e-07
-3.09537e-06
-3.6021e-07
1.80294e-07
-2.90786e-06
-2.14144e-06
-2.63706e-07
-1.45022e-06
-3.27047e-06
-1.50116e-06
-4.43584e-07
-2.31878e-06
-1.73145e-06
-7.55069e-06
1.40218e-06
1.29216e-06
-1.74235e-05
2.91955e-07
4.70196e-06
-2.29683e-05
-8.48083e-07
3.98506e-06
-2.31696e-05
-2.1078e-06
-8.99462e-08
-2.42096e-05
-5.55645e-06
-1.06978e-06
-2.64116e-05
-1.37588e-05
8.24732e-07
-3.09033e-05
-1.57076e-05
2.09473e-06
-2.67779e-05
-3.30789e-05
-1.28628e-06
2.62096e-05
-4.52356e-05
-2.35196e-06
4.38576e-05
-1.50349e-06
-5.17533e-06
9.15901e-06
-5.72229e-06
-1.35457e-05
-3.1725e-06
-8.2804e-06
3.04099e-06
-1.94653e-05
-1.38891e-06
5.03973e-06
-3.36171e-05
2.63976e-06
5.64734e-06
-3.96471e-05
2.32426e-06
2.97949e-06
-4.27162e-05
2.65933e-06
1.71271e-06
-4.40796e-05
-1.74133e-07
-7.91695e-07
-4.50103e-05
-5.31248e-07
-2.14889e-06
-4.43204e-05
-1.13325e-06
-3.19408e-06
-4.33251e-05
-1.21442e-06
-3.67986e-06
-4.14455e-05
-5.44823e-07
-3.96181e-06
-3.82268e-05
4.66573e-07
-4.39542e-06
-3.46043e-05
2.18229e-06
-4.24289e-06
-3.17284e-05
4.22015e-06
-2.9433e-06
-2.91407e-05
5.0884e-06
-1.58712e-06
-2.81628e-05
5.01849e-06
-1.13013e-08
-3.0463e-05
3.71008e-06
3.27204e-06
-3.50247e-05
1.89428e-07
6.84888e-06
-3.88221e-05
-5.078e-06
7.66262e-06
-4.06124e-05
-1.04403e-05
5.04777e-06
-4.05257e-05
-1.30139e-05
2.92044e-06
-3.87817e-05
-1.47942e-05
1.74164e-06
-3.3758e-05
-1.3901e-05
-1.81868e-07
-2.79137e-05
-1.07334e-05
-8.97106e-07
-2.35265e-05
-9.59165e-06
-6.82948e-07
-1.96066e-05
-9.33545e-06
-1.19355e-06
-1.61094e-05
-7.3721e-06
-1.97557e-06
-1.32096e-05
-3.31393e-06
-2.29652e-06
-1.05818e-05
1.15504e-06
-2.40125e-06
-8.15445e-06
6.29784e-06
-3.18175e-06
-4.97674e-06
1.08302e-05
-3.57059e-06
-1.44621e-06
1.41618e-05
-2.98294e-06
1.34814e-06
1.54697e-05
-1.38372e-06
1.64765e-06
1.59036e-05
5.91289e-07
7.0842e-08
1.68411e-05
1.4553e-06
1.94953e-05
-5.16193e-07
-3.54784e-06
-3.22927e-06
2.90722e-07
-2.1537e-06
-5.16152e-06
-1.50601e-06
-1.95236e-06
-2.99399e-06
-3.11582e-07
-1.10652e-06
-3.55322e-06
-6.68448e-07
-6.80366e-07
-1.8176e-06
-2.79323e-07
-4.43163e-07
-1.32426e-06
-4.92093e-07
-3.57584e-07
-1.51351e-07
-4.551e-07
-1.86674e-07
1.01112e-07
-4.43053e-07
1.72e-07
4.70288e-07
-4.65802e-07
2.74048e-07
8.80006e-07
-2.98164e-07
1.53665e-07
1.24093e-06
-1.87901e-07
-1.69732e-07
1.41986e-06
-9.24041e-08
-3.94723e-07
1.20474e-06
-1.27367e-07
-4.46926e-07
8.325e-07
-2.05309e-07
-4.08205e-07
6.31496e-07
-2.77283e-07
-3.25297e-07
5.73209e-07
-3.23905e-07
-2.41708e-07
6.45737e-07
-3.38931e-07
-1.88262e-07
7.66503e-07
-3.40392e-07
-1.57291e-07
8.68115e-07
-3.41553e-07
-1.38288e-07
9.3909e-07
-3.4308e-07
-1.26087e-07
9.95492e-07
-3.42207e-07
-1.1523e-07
1.03609e-06
-3.39697e-07
-1.0257e-07
1.06731e-06
-3.34586e-07
-8.94469e-08
1.09419e-06
-3.26547e-07
-7.72765e-08
1.1159e-06
-3.16448e-07
-6.69892e-08
1.13274e-06
-3.04194e-07
-5.95479e-08
1.14665e-06
-2.91238e-07
-5.63163e-08
1.15695e-06
-2.78868e-07
-5.74575e-08
1.16335e-06
-2.67594e-07
-6.20928e-08
1.16639e-06
-2.57276e-07
-6.98053e-08
1.16846e-06
-2.47574e-07
-8.36186e-08
1.17631e-06
-2.38229e-07
-1.12676e-07
1.20118e-06
-2.27813e-07
-1.62567e-07
1.23714e-06
-2.15412e-07
-2.34833e-07
1.27103e-06
-2.02144e-07
-3.2938e-07
1.30482e-06
-1.9014e-07
-4.36416e-07
1.34124e-06
-1.82667e-07
-5.36305e-07
1.3822e-06
-1.81094e-07
-6.18862e-07
1.42437e-06
-1.7327e-07
-6.98268e-07
1.45611e-06
-1.5372e-07
-8.09967e-07
1.4428e-06
-1.21523e-07
-9.53542e-07
1.26435e-06
-8.68206e-08
-1.14186e-06
9.41862e-07
-4.91672e-08
-1.42033e-06
6.08193e-07
-1.94314e-08
-1.86557e-06
5.80777e-07
4.32222e-08
-2.48087e-06
6.61555e-07
1.43183e-07
-3.02487e-06
1.68626e-07
6.21636e-08
-2.88073e-06
-1.83901e-06
-3.46551e-07
-8.71848e-07
-3.96574e-06
-1.10425e-06
1.50543e-06
-2.93947e-06
-1.59229e-06
-4.63226e-06
5.47107e-06
2.17342e-06
-1.34682e-05
6.28736e-06
2.89417e-06
-1.84608e-05
1.9759e-06
2.35271e-06
-2.0101e-05
-3.92038e-07
9.24639e-08
-2.27457e-05
7.91645e-08
-2.73214e-06
-2.18988e-05
-8.96716e-06
-6.02625e-06
-1.87956e-05
-1.24195e-05
-2.67686e-06
-1.40804e-05
-3.2844e-05
-6.6375e-06
2.50903e-05
-5.67648e-05
-4.60367e-06
4.525e-05
-1.61932e-07
-4.93628e-06
1.30803e-05
-1.32018e-06
-1.30659e-05
-3.5594e-07
8.95663e-07
1.52297e-06
-1.78795e-05
1.05004e-05
5.68394e-06
-3.55868e-05
1.30869e-05
7.30512e-06
-4.46806e-05
8.21078e-06
3.23372e-06
-4.95987e-05
6.25401e-06
1.33786e-06
-5.14102e-05
2.82769e-06
-1.21203e-06
-5.11305e-05
1.87698e-06
-2.75814e-06
-4.89439e-05
1.56962e-07
-3.57389e-06
-4.6405e-05
-7.97261e-08
-3.78867e-06
-4.2765e-05
-1.23097e-06
-3.07738e-06
-3.84311e-05
-1.6371e-06
-2.33167e-06
-3.42425e-05
-7.54479e-07
-1.33171e-06
-3.15301e-05
1.51567e-06
-5.95206e-08
-3.17043e-05
3.54589e-06
1.67944e-06
-3.48848e-05
4.47779e-06
3.68888e-06
-3.97827e-05
3.90332e-06
4.67718e-06
-4.26039e-05
-9.05552e-07
3.88418e-06
-4.38379e-05
-5.96172e-06
2.06403e-06
-4.59588e-05
-1.02814e-05
1.89938e-06
-4.79641e-05
-1.27529e-05
1.6839e-06
-4.88744e-05
-1.39382e-05
-1.63818e-08
-4.73572e-05
-1.45405e-05
-9.60059e-07
-4.34275e-05
-1.36253e-05
-1.12952e-06
-3.89869e-05
-1.29129e-05
-1.20421e-06
-3.38631e-05
-1.28196e-05
-1.7164e-06
-2.75129e-05
-1.13092e-05
-2.47108e-06
-2.09596e-05
-7.16502e-06
-2.7303e-06
-1.69368e-05
-9.22455e-07
-1.95384e-06
-1.38249e-05
4.12492e-06
-9.41268e-07
-1.08154e-05
8.93321e-06
-1.11427e-06
-7.85429e-06
1.14591e-05
-2.60002e-07
-5.44435e-06
1.20766e-05
9.81831e-07
-4.37782e-06
1.29724e-05
1.86382e-06
-3.34267e-06
1.41747e-05
1.63067e-06
1.68957e-05
-7.43905e-07
-3.51611e-06
-2.33407e-06
8.02644e-07
-2.26464e-06
-4.94277e-06
-1.46733e-06
-2.03681e-06
-2.87909e-06
-3.3409e-07
-9.64735e-07
-3.83452e-06
-7.81789e-07
-1.42887e-07
-2.42771e-06
-2.02457e-07
-1.3037e-07
-1.05149e-06
-2.81754e-07
-2.77529e-07
2.95267e-07
-2.94667e-07
-3.26607e-07
4.77636e-07
-3.22315e-07
-1.27705e-07
7.74256e-07
-4.97371e-07
-2.36783e-09
1.10117e-06
-3.43757e-07
6.36704e-08
1.43401e-06
-2.57306e-07
1.11733e-08
1.63039e-06
-1.57193e-07
-2.72333e-08
1.46794e-06
-2.24316e-07
-6.56465e-08
1.1684e-06
-2.97421e-07
-1.02686e-07
1.04753e-06
-3.78811e-07
-1.42837e-07
1.05188e-06
-4.38371e-07
-1.76986e-07
1.15503e-06
-4.74971e-07
-2.06396e-07
1.28854e-06
-4.92446e-07
-2.29399e-07
1.39254e-06
-5.01231e-07
-2.39534e-07
1.45534e-06
-5.05972e-07
-2.44354e-07
1.5065e-06
-5.06083e-07
-2.44358e-07
1.5417e-06
-5.05537e-07
-2.3922e-07
1.56581e-06
-5.03627e-07
-2.30039e-07
1.58499e-06
-5.00002e-07
-2.2015e-07
1.60047e-06
-4.94541e-07
-2.11753e-07
1.61284e-06
-4.88605e-07
-2.06108e-07
1.62313e-06
-4.82291e-07
-2.04314e-07
1.63079e-06
-4.75815e-07
-2.07938e-07
1.63584e-06
-4.69076e-07
-2.16439e-07
1.63759e-06
-4.62896e-07
-2.29786e-07
1.63886e-06
-4.57269e-07
-2.54245e-07
1.65162e-06
-4.51037e-07
-3.01632e-07
1.68894e-06
-4.40551e-07
-3.74868e-07
1.73893e-06
-4.28691e-07
-4.6417e-07
1.77901e-06
-4.18836e-07
-5.57206e-07
1.80982e-06
-4.12077e-07
-6.34457e-07
1.82894e-06
-4.1056e-07
-6.84913e-07
1.84166e-06
-4.09056e-07
-7.01182e-07
1.84677e-06
-4.06121e-07
-6.93633e-07
1.8381e-06
-3.89519e-07
-7.04613e-07
1.81071e-06
-3.5683e-07
-7.77005e-07
1.6772e-06
-3.40269e-07
-9.26004e-07
1.43985e-06
-3.48005e-07
-1.18288e-06
1.24435e-06
-3.74963e-07
-1.65592e-06
1.37999e-06
-3.1329e-07
-2.34796e-06
1.57813e-06
-1.98161e-07
-3.06456e-06
1.13108e-06
-1.87414e-07
-2.97489e-06
-1.12153e-06
-6.71369e-07
-6.46308e-07
-4.48941e-06
-1.56487e-06
3.65944e-06
-4.20987e-06
-2.76684e-06
2.26766e-06
7.28781e-06
-2.59497e-07
-6.02028e-06
1.34775e-05
1.17085e-06
-1.57248e-05
1.03882e-05
1.45317e-06
-1.9038e-05
4.8141e-06
-1.79465e-06
-2.23273e-05
1.14907e-05
-7.89566e-06
-2.00632e-05
1.19681e-06
-1.30641e-05
-1.9685e-05
-1.33106e-06
-1.04236e-05
-2.65379e-05
-2.12449e-05
-6.93893e-06
3.4652e-05
-7.77983e-05
-6.34722e-06
5.63264e-05
-2.68856e-07
-5.46125e-06
-2.6357e-06
1.42854e-05
-7.04092e-06
-3.23146e-05
1.67919e-05
1.10153e-05
-4.88488e-05
1.96432e-05
7.44689e-06
-6.13235e-05
1.79717e-05
7.63961e-06
-6.89591e-05
1.16135e-05
4.228e-06
-7.29251e-05
5.89081e-06
4.32743e-06
-7.52114e-05
3.25626e-06
1.83025e-06
-7.36629e-05
1.70937e-06
-1.42819e-06
-7.14725e-05
1.82761e-06
-3.96178e-06
-6.9834e-05
2.96171e-06
-4.83264e-06
-6.79144e-05
1.76184e-06
-5.11284e-06
-6.50441e-05
-3.57494e-08
-4.6969e-06
-6.13993e-05
-1.70738e-06
-2.90012e-06
-5.70942e-05
-3.12e-06
2.02155e-07
-5.23779e-05
-3.14894e-06
1.89069e-06
-4.8588e-05
-2.64763e-06
3.26345e-06
-4.53065e-05
-2.14533e-06
2.72368e-06
-4.34219e-05
-3.52849e-06
6.65916e-07
-4.38852e-05
-6.00717e-06
4.02548e-07
-4.61448e-05
-9.29199e-06
1.1805e-06
-4.91917e-05
-1.11785e-05
1.39109e-06
-5.25073e-05
-1.21212e-05
1.43459e-06
-5.45435e-05
-1.37164e-05
1.1584e-06
-5.52553e-05
-1.43673e-05
1.38578e-06
-5.58748e-05
-1.37316e-05
1.36098e-06
-5.65759e-05
-1.2931e-05
6.417e-07
-5.59222e-05
-1.1332e-05
-9.47452e-07
-5.25768e-05
-9.51309e-06
-1.31306e-06
-4.66266e-05
-5.26938e-06
-1.92012e-06
-4.19196e-05
1.81577e-07
-1.0149e-06
-3.62247e-05
3.74436e-06
-6.98505e-07
-3.11247e-05
5.8857e-06
3.19827e-07
-2.46599e-05
4.90706e-06
5.9811e-07
-1.6713e-05
4.6069e-06
2.83011e-07
-9.44664e-06
7.1193e-06
-4.85585e-07
8.01474e-06
-1.55635e-06
-3.29661e-06
-8.02071e-07
1.91937e-06
-2.42441e-06
-4.66738e-06
-1.15067e-06
-2.46629e-06
-2.73014e-06
-9.96107e-08
-1.31141e-06
-4.18477e-06
-7.93466e-07
-4.17777e-08
-3.37895e-06
-3.05532e-07
8.3976e-08
-1.3079e-06
1.3552e-07
-1.58682e-07
1.80076e-07
3.60527e-07
-3.50724e-07
2.8498e-07
3.89116e-07
-2.65829e-07
7.02452e-07
-8.04891e-09
-1.34773e-07
8.87073e-07
8.57409e-08
6.08335e-08
1.20902e-06
3.12225e-08
1.97523e-07
1.35362e-06
1.41118e-07
2.53511e-07
1.26772e-06
1.45201e-07