/*--------------------------------*- C++ -*----------------------------------*\
| =========                 |                                                 |
| \\      /  F ield         | OpenFOAM: The Open Source CFD Toolbox           |
|  \\    /   O peration     | Version:  2.3.0                                 |
|   \\  /    A nd           | Web:      www.OpenFOAM.org                      |
|    \\/     M anipulation  |                                                 |
\*---------------------------------------------------------------------------*/
FoamFile
{
    version     2.0;
    format      ascii;
    class       volScalarField;
    location    "28";
    object      rho;
}
// * * * * * * * * * * * * * * * * * * * * * * * * * * * * * * * * * * * * * //

dimensions      [1 -3 0 0 0 0 0];

internalField   nonuniform List<scalar> 
6144
(
1.16406
1.16483
1.16531
1.16578
1.16622
1.16675
1.16731
1.16807
1.16866
1.16885
1.16888
1.16888
1.16889
1.16889
1.16889
1.1689
1.1689
1.1689
1.1689
1.1689
1.1689
1.16891
1.16891
1.16891
1.16891
1.16891
1.16891
1.16892
1.16892
1.16892
1.16892
1.16892
1.16892
1.16892
1.16892
1.16893
1.16893
1.16893
1.16893
1.16893
1.16893
1.16893
1.16894
1.16894
1.16918
1.17043
1.17328
1.17766
1.18869
1.21303
1.241
1.28071
1.30345
1.31331
1.31316
1.3132
1.3097
1.31273
3.01222
67.1212
985.624
1026.81
1027.09
1027.1
1027.1
1027.1
1027.1
1027.1
1027.1
1027.1
1027.1
1027.1
1027.1
1027.1
1027.1
1027.1
1027.1
1027.1
1027.1
1027.1
1027.1
1027.1
1027.1
1027.1
1027.1
1027.1
1027.1
1027.1
1027.1
1027.1
1027.1
1027.1
1027.1
1027.1
1027.1
1027.1
1.16373
1.16483
1.16555
1.16602
1.16653
1.16703
1.16762
1.16825
1.16871
1.16885
1.16887
1.16889
1.16889
1.1689
1.1689
1.16891
1.16891
1.16891
1.16891
1.16891
1.16891
1.16891
1.16891
1.16892
1.16892
1.16892
1.16892
1.16892
1.16892
1.16893
1.16893
1.16893
1.16893
1.16893
1.16893
1.16893
1.16894
1.16894
1.16894
1.16894
1.16894
1.16894
1.16894
1.16894
1.16918
1.17047
1.17351
1.17835
1.18744
1.19794
1.23963
1.29505
1.31098
1.3128
1.30709
1.30778
1.3043
1.31175
2.06365
54.1452
998.944
1027
1027.09
1027.1
1027.1
1027.1
1027.1
1027.1
1027.1
1027.1
1027.1
1027.1
1027.1
1027.1
1027.1
1027.1
1027.1
1027.1
1027.1
1027.1
1027.1
1027.1
1027.1
1027.1
1027.1
1027.1
1027.1
1027.1
1027.1
1027.1
1027.1
1027.1
1027.1
1027.1
1027.1
1027.1
1.16341
1.16436
1.16532
1.16581
1.16637
1.16695
1.16769
1.16825
1.16857
1.16872
1.16879
1.16885
1.16888
1.1689
1.1689
1.16891
1.16891
1.16891
1.16891
1.16891
1.16891
1.16891
1.16892
1.16892
1.16892
1.16892
1.16892
1.16892
1.16892
1.16893
1.16893
1.16893
1.16893
1.16893
1.16893
1.16893
1.16894
1.16894
1.16894
1.16894
1.16894
1.16894
1.16894
1.16899
1.16937
1.17075
1.17332
1.1767
1.18323
1.19781
1.26574
1.30151
1.30416
1.30361
1.30068
1.30498
1.29815
1.31806
1.70216
62.9698
1001.09
1027.03
1027.09
1027.1
1027.1
1027.1
1027.1
1027.1
1027.1
1027.1
1027.1
1027.1
1027.1
1027.1
1027.1
1027.1
1027.1
1027.1
1027.1
1027.1
1027.1
1027.1
1027.1
1027.1
1027.1
1027.1
1027.1
1027.1
1027.1
1027.1
1027.1
1027.1
1027.1
1027.1
1027.1
1027.1
1.16318
1.16384
1.165
1.16551
1.16607
1.16658
1.16737
1.16811
1.16848
1.16865
1.16875
1.16883
1.16888
1.16889
1.1689
1.1689
1.1689
1.1689
1.16891
1.16891
1.16891
1.16891
1.16891
1.16891
1.16891
1.16892
1.16892
1.16892
1.16892
1.16892
1.16892
1.16892
1.16893
1.16893
1.16893
1.16893
1.16893
1.16893
1.16893
1.16893
1.16894
1.16894
1.16895
1.16908
1.16953
1.17084
1.17309
1.17666
1.18665
1.21229
1.28403
1.29515
1.29605
1.2995
1.3043
1.31077
1.31124
1.35689
1.57428
84.6858
1001.56
1027.03
1027.08
1027.09
1027.09
1027.09
1027.09
1027.09
1027.09
1027.1
1027.1
1027.1
1027.1
1027.1
1027.1
1027.1
1027.1
1027.1
1027.1
1027.1
1027.1
1027.1
1027.1
1027.1
1027.1
1027.1
1027.1
1027.1
1027.1
1027.1
1027.1
1027.1
1027.1
1027.1
1027.1
1027.1
1.16301
1.16327
1.16464
1.1652
1.16586
1.16634
1.16702
1.16783
1.16835
1.16858
1.16872
1.16882
1.16888
1.1689
1.1689
1.16891
1.16891
1.16891
1.16891
1.16891
1.16891
1.16892
1.16892
1.16892
1.16892
1.16892
1.16892
1.16892
1.16892
1.16893
1.16893
1.16893
1.16893
1.16893
1.16893
1.16893
1.16893
1.16893
1.16893
1.16894
1.16894
1.16894
1.16898
1.16914
1.16963
1.17082
1.17312
1.17869
1.19395
1.22774
1.28701
1.28838
1.29067
1.30212
1.30943
1.31509
1.32119
1.36293
1.71107
104.065
987.118
1026.59
1026.7
1026.76
1026.79
1026.79
1026.83
1026.86
1026.92
1026.98
1027.03
1027.06
1027.07
1027.07
1027.07
1027.07
1027.07
1027.07
1027.08
1027.09
1027.09
1027.1
1027.1
1027.1
1027.1
1027.1
1027.1
1027.1
1027.1
1027.1
1027.1
1027.1
1027.1
1027.1
1027.1
1027.1
1.16291
1.16287
1.16425
1.16484
1.16567
1.16618
1.16674
1.16743
1.16816
1.1685
1.16867
1.16881
1.16887
1.16889
1.1689
1.1689
1.1689
1.1689
1.1689
1.1689
1.16891
1.16891
1.16891
1.16891
1.16891
1.16891
1.16892
1.16892
1.16892
1.16892
1.16892
1.16892
1.16892
1.16893
1.16893
1.16893
1.16893
1.16893
1.16893
1.16893
1.16893
1.16894
1.16898
1.16914
1.16967
1.17089
1.17362
1.18064
1.1975
1.23312
1.28251
1.28382
1.28403
1.29981
1.31369
1.3134
1.30437
1.3063
1.28262
120.038
983.437
1024.39
1024.45
1024.47
1024.4
1024.3
1024.23
1024.38
1024.63
1024.92
1025.22
1025.47
1025.66
1025.77
1025.8
1025.79
1025.79
1025.95
1026.1
1026.34
1026.59
1026.79
1026.95
1027.04
1027.08
1027.09
1027.1
1027.1
1027.1
1027.1
1027.1
1027.1
1027.1
1027.1
1027.1
1027.1
1.16281
1.16269
1.16391
1.16443
1.1655
1.16609
1.1666
1.16722
1.16796
1.16841
1.16862
1.16879
1.16887
1.1689
1.1689
1.1689
1.16891
1.16891
1.16891
1.16891
1.16891
1.16891
1.16891
1.16891
1.16892
1.16892
1.16892
1.16892
1.16892
1.16892
1.16892
1.16892
1.16893
1.16893
1.16893
1.16893
1.16893
1.16893
1.16893
1.16893
1.16894
1.16894
1.16897
1.16912
1.16969
1.17112
1.17437
1.18222
1.20099
1.23936
1.28133
1.2847
1.28482
1.30103
1.31777
1.319
1.30425
1.30948
1.30877
122.734
980.01
1019.15
1018.17
1017.85
1017.61
1017.43
1017.29
1017.66
1018.29
1018.98
1019.81
1020.54
1021.11
1021.41
1021.47
1021.58
1021.81
1022.13
1022.55
1022.93
1023.43
1023.97
1024.49
1025.14
1025.74
1026.31
1026.79
1027.03
1027.08
1027.09
1027.09
1027.09
1027.09
1027.09
1027.08
1027.09
1.16268
1.16259
1.16364
1.16401
1.16539
1.16608
1.16653
1.16718
1.16784
1.16838
1.1686
1.16878
1.16887
1.16889
1.1689
1.1689
1.16891
1.16891
1.16891
1.16891
1.16891
1.16891
1.16892
1.16892
1.16892
1.16892
1.16892
1.16892
1.16893
1.16893
1.16893
1.16893
1.16893
1.16893
1.16893
1.16893
1.16893
1.16894
1.16894
1.16894
1.16894
1.16895
1.16897
1.16911
1.16978
1.17149
1.175
1.18391
1.20543
1.24452
1.28545
1.29016
1.29064
1.3064
1.31626
1.30551
1.2903
1.2882
1.27625
128.697
982.879
1015.67
1014.37
1014.04
1013.95
1013.86
1014.23
1014.82
1015.43
1016.32
1017.38
1018.43
1019.39
1019.97
1020.07
1020.19
1020.35
1020.54
1020.86
1020.98
1021.02
1021.17
1021.07
1020.97
1020.88
1020.97
1022.1
1023.54
1024.57
1025.66
1026.03
1026.26
1026.06
1025.99
1025.92
1026.6
1.16243
1.1625
1.16338
1.16362
1.1653
1.16635
1.16662
1.16725
1.16786
1.16837
1.1686
1.16876
1.16885
1.16889
1.16889
1.1689
1.1689
1.1689
1.1689
1.1689
1.16891
1.16891
1.16891
1.16891
1.16891
1.16892
1.16892
1.16892
1.16892
1.16892
1.16892
1.16893
1.16893
1.16893
1.16893
1.16893
1.16893
1.16893
1.16894
1.16894
1.16894
1.16894
1.16896
1.16907
1.16972
1.17168
1.17683
1.18975
1.20976
1.23666
1.28781
1.29966
1.29582
1.29903
1.30009
1.29662
1.2849
1.28988
1.27625
159.942
1003.85
1020.86
1021.43
1023.01
1024.18
1024.89
1025.31
1025.61
1025.87
1026.15
1026.39
1026.53
1026.58
1026.63
1026.66
1026.69
1026.69
1026.69
1026.69
1026.73
1026.76
1026.79
1026.78
1026.76
1026.8
1026.79
1026.84
1026.95
1027
1027.05
1027.08
1027.09
1027.1
1027.1
1027.1
1027.1
1.16227
1.16229
1.16291
1.16314
1.16487
1.16643
1.16705
1.16751
1.16791
1.16833
1.16857
1.16873
1.16883
1.16888
1.16889
1.1689
1.1689
1.16891
1.16891
1.16891
1.16891
1.16891
1.16891
1.16892
1.16892
1.16892
1.16892
1.16892
1.16892
1.16892
1.16893
1.16893
1.16893
1.16893
1.16893
1.16893
1.16893
1.16893
1.16894
1.16894
1.16894
1.16894
1.16895
1.16902
1.1696
1.17183
1.17905
1.19459
1.21133
1.22855
1.26404
1.30556
1.30542
1.30501
1.30126
1.2984
1.29115
1.29943
1.27625
128.377
1017.56
1026.12
1026.5
1026.9
1027.02
1027.06
1027.07
1027.08
1027.08
1027.09
1027.09
1027.09
1027.09
1027.09
1027.1
1027.1
1027.1
1027.1
1027.1
1027.1
1027.1
1027.1
1027.1
1027.1
1027.1
1027.1
1027.1
1027.1
1027.1
1027.1
1027.1
1027.1
1027.1
1027.1
1027.1
1027.1
1.16201
1.16215
1.16241
1.16252
1.16423
1.16593
1.16737
1.16777
1.168
1.16827
1.16849
1.16866
1.16877
1.16885
1.16888
1.1689
1.1689
1.1689
1.1689
1.16891
1.16891
1.16891
1.16891
1.16891
1.16892
1.16892
1.16892
1.16892
1.16892
1.16892
1.16893
1.16893
1.16893
1.16893
1.16893
1.16893
1.16893
1.16893
1.16894
1.16894
1.16894
1.16895
1.16895
1.169
1.16947
1.17157
1.17832
1.19366
1.21213
1.22585
1.24016
1.28655
1.30029
1.30558
1.3029
1.30286
1.29612
1.30301
1.32614
59.567
1000.46
1027.05
1027.09
1027.09
1027.1
1027.1
1027.1
1027.1
1027.1
1027.1
1027.1
1027.1
1027.1
1027.1
1027.1
1027.1
1027.1
1027.1
1027.1
1027.1
1027.1
1027.1
1027.1
1027.1
1027.1
1027.1
1027.1
1027.1
1027.1
1027.1
1027.1
1027.1
1027.1
1027.1
1027.1
1027.1
1.16176
1.16188
1.16193
1.16196
1.16329
1.16501
1.16714
1.16792
1.16817
1.16841
1.16854
1.16874
1.16883
1.16889
1.1689
1.1689
1.1689
1.1689
1.1689
1.16891
1.16891
1.16891
1.16891
1.16891
1.16892
1.16892
1.16892
1.16892
1.16892
1.16893
1.16893
1.16893
1.16893
1.16893
1.16893
1.16894
1.16894
1.16894
1.16894
1.16894
1.16895
1.16895
1.16895
1.169
1.16939
1.17111
1.17633
1.18851
1.20739
1.22666
1.23728
1.2511
1.27607
1.29874
1.29952
1.30165
1.29419
1.30382
1.46506
25.6912
980.056
1027
1027.09
1027.09
1027.09
1027.1
1027.1
1027.1
1027.1
1027.1
1027.1
1027.1
1027.1
1027.1
1027.1
1027.1
1027.1
1027.1
1027.1
1027.1
1027.1
1027.1
1027.1
1027.1
1027.1
1027.1
1027.1
1027.1
1027.1
1027.1
1027.1
1027.1
1027.1
1027.1
1027.1
1027.1
1.16144
1.16157
1.16165
1.16174
1.16256
1.16385
1.16607
1.16787
1.16828
1.16856
1.16869
1.16882
1.16888
1.16891
1.16892
1.16892
1.16892
1.16891
1.16891
1.16891
1.16891
1.16891
1.16892
1.16892
1.16892
1.16892
1.16892
1.16892
1.16893
1.16893
1.16893
1.16893
1.16893
1.16893
1.16894
1.16894
1.16894
1.16894
1.16894
1.16895
1.16895
1.16895
1.16896
1.16902
1.16936
1.17069
1.1745
1.18336
1.19887
1.22279
1.24115
1.24739
1.25434
1.27957
1.2863
1.29204
1.29095
1.30905
1.55929
24.4356
964.225
1026.88
1027.09
1027.09
1027.1
1027.1
1027.1
1027.1
1027.1
1027.1
1027.1
1027.1
1027.1
1027.1
1027.1
1027.1
1027.1
1027.1
1027.1
1027.1
1027.1
1027.1
1027.1
1027.1
1027.1
1027.1
1027.1
1027.1
1027.1
1027.1
1027.1
1027.1
1027.1
1027.1
1027.1
1027.1
1.16132
1.16153
1.16162
1.16177
1.16231
1.16316
1.16487
1.16716
1.16832
1.16858
1.16868
1.16878
1.16886
1.16891
1.16892
1.16892
1.16892
1.16892
1.16892
1.16892
1.16892
1.16892
1.16892
1.16892
1.16892
1.16893
1.16893
1.16893
1.16893
1.16893
1.16893
1.16893
1.16893
1.16894
1.16894
1.16894
1.16894
1.16894
1.16894
1.16895
1.16895
1.16895
1.16897
1.16903
1.16934
1.17047
1.17365
1.18103
1.19472
1.21745
1.24174
1.25825
1.25447
1.27007
1.27679
1.28994
1.29466
1.30844
1.60983
28.9709
964.835
1026.82
1027.09
1027.09
1027.1
1027.1
1027.1
1027.1
1027.1
1027.1
1027.1
1027.1
1027.1
1027.1
1027.1
1027.1
1027.1
1027.1
1027.1
1027.1
1027.1
1027.1
1027.1
1027.1
1027.1
1027.1
1027.1
1027.1
1027.1
1027.1
1027.1
1027.1
1027.1
1027.1
1027.1
1027.1
1.16115
1.16122
1.16135
1.16186
1.16227
1.16306
1.16383
1.16627
1.16822
1.1686
1.16869
1.16876
1.16882
1.16889
1.16891
1.16892
1.16892
1.16892
1.16892
1.16892
1.16892
1.16892
1.16892
1.16892
1.16892
1.16892
1.16893
1.16893
1.16893
1.16893
1.16893
1.16893
1.16893
1.16894
1.16894
1.16894
1.16894
1.16894
1.16894
1.16895
1.16895
1.16895
1.16897
1.16905
1.16935
1.17033
1.17317
1.17982
1.19228
1.21331
1.24231
1.26356
1.26034
1.27296
1.27786
1.29432
1.2962
1.30345
1.75784
36.9004
960.736
1026.67
1027.09
1027.09
1027.1
1027.1
1027.1
1027.1
1027.1
1027.1
1027.1
1027.1
1027.1
1027.1
1027.1
1027.1
1027.1
1027.1
1027.1
1027.1
1027.1
1027.1
1027.1
1027.1
1027.1
1027.1
1027.1
1027.1
1027.1
1027.1
1027.1
1027.1
1027.1
1027.1
1027.1
1027.1
1.16077
1.16084
1.16082
1.16075
1.16098
1.16336
1.16359
1.16585
1.16834
1.16871
1.16874
1.16879
1.16883
1.1689
1.16892
1.16892
1.16892
1.16892
1.16893
1.16893
1.16893
1.16893
1.16893
1.16893
1.16893
1.16893
1.16893
1.16894
1.16894
1.16894
1.16894
1.16894
1.16894
1.16894
1.16894
1.16895
1.16895
1.16895
1.16895
1.16895
1.16895
1.16896
1.16899
1.1691
1.16943
1.17034
1.17277
1.17845
1.18933
1.20957
1.24451
1.26819
1.27632
1.28461
1.28265
1.30281
1.29792
1.30993
2.13256
57.004
947.797
1026.22
1027.09
1027.09
1027.1
1027.1
1027.1
1027.1
1027.1
1027.1
1027.1
1027.1
1027.1
1027.1
1027.1
1027.1
1027.1
1027.1
1027.1
1027.1
1027.1
1027.1
1027.1
1027.1
1027.1
1027.1
1027.1
1027.1
1027.1
1027.1
1027.1
1027.1
1027.1
1027.1
1027.1
1027.1
1.16332
1.1646
1.16525
1.16575
1.16616
1.16672
1.16754
1.16833
1.16864
1.16873
1.1688
1.16886
1.1689
1.16891
1.16892
1.16892
1.16892
1.16892
1.16892
1.16892
1.16892
1.16893
1.16893
1.16893
1.16893
1.16893
1.16893
1.16894
1.16894
1.16894
1.16894
1.16894
1.16894
1.16895
1.16895
1.16895
1.16895
1.16895
1.16895
1.16895
1.16895
1.16896
1.16896
1.16896
1.16917
1.17025
1.17299
1.17771
1.1875
1.21281
1.23735
1.26801
1.28854
1.30389
1.30846
1.31114
1.30678
1.33055
2.34088
59.5182
989.352
1026.93
1027.09
1027.1
1027.1
1027.1
1027.1
1027.1
1027.1
1027.1
1027.1
1027.1
1027.1
1027.1
1027.1
1027.1
1027.1
1027.1
1027.1
1027.1
1027.1
1027.1
1027.1
1027.1
1027.1
1027.1
1027.1
1027.1
1027.1
1027.1
1027.1
1027.1
1027.1
1027.1
1027.1
1027.1
1.1626
1.16442
1.16572
1.16628
1.16694
1.16759
1.16796
1.16809
1.16829
1.16847
1.16864
1.16877
1.16886
1.1689
1.16891
1.16892
1.16892
1.16892
1.16892
1.16892
1.16892
1.16893
1.16893
1.16893
1.16893
1.16893
1.16893
1.16894
1.16894
1.16894
1.16894
1.16894
1.16894
1.16894
1.16894
1.16894
1.16895
1.16895
1.16895
1.16895
1.16895
1.16896
1.16898
1.16906
1.16928
1.17011
1.17332
1.18089
1.19347
1.2102
1.23074
1.26473
1.28634
1.29993
1.30282
1.30606
1.30078
1.31846
1.72532
85.0279
1016.96
1027.08
1027.09
1027.1
1027.1
1027.1
1027.1
1027.1
1027.1
1027.1
1027.1
1027.1
1027.1
1027.1
1027.1
1027.1
1027.1
1027.1
1027.1
1027.1
1027.1
1027.1
1027.1
1027.1
1027.1
1027.1
1027.1
1027.1
1027.1
1027.1
1027.1
1027.1
1027.1
1027.1
1027.1
1027.1
1.16219
1.16374
1.16547
1.16604
1.16647
1.16689
1.16731
1.16764
1.16802
1.16832
1.16855
1.16873
1.16884
1.1689
1.16891
1.16891
1.16892
1.16892
1.16892
1.16892
1.16892
1.16892
1.16892
1.16893
1.16893
1.16893
1.16893
1.16893
1.16893
1.16893
1.16894
1.16894
1.16894
1.16894
1.16894
1.16894
1.16894
1.16894
1.16894
1.16895
1.16895
1.16896
1.16899
1.1692
1.16975
1.17079
1.17387
1.1812
1.19229
1.20676
1.23285
1.27015
1.29411
1.29609
1.2968
1.2972
1.28068
1.32404
1.53094
122.413
1023.56
1027.09
1027.09
1027.1
1027.09
1027.1
1027.1
1027.1
1027.1
1027.1
1027.1
1027.1
1027.1
1027.1
1027.1
1027.1
1027.1
1027.1
1027.1
1027.1
1027.1
1027.1
1027.1
1027.1
1027.1
1027.1
1027.1
1027.1
1027.1
1027.1
1027.1
1027.1
1027.1
1027.1
1027.1
1027.1
1.16186
1.16281
1.16464
1.16542
1.16601
1.16647
1.16698
1.16747
1.16791
1.16826
1.16851
1.16871
1.16883
1.16889
1.16891
1.16891
1.16891
1.16891
1.16892
1.16892
1.16892
1.16892
1.16892
1.16892
1.16892
1.16893
1.16893
1.16893
1.16893
1.16893
1.16893
1.16893
1.16893
1.16894
1.16894
1.16894
1.16894
1.16894
1.16894
1.16894
1.16894
1.16895
1.169
1.16929
1.17011
1.17164
1.1746
1.18159
1.19336
1.20878
1.23961
1.28217
1.30674
1.30185
1.31958
1.35174
1.37372
1.3918
1.44886
201.605
1023.71
1026.82
1026.9
1026.99
1027.02
1027.04
1027.06
1027.07
1027.08
1027.09
1027.09
1027.09
1027.1
1027.1
1027.1
1027.1
1027.1
1027.1
1027.1
1027.1
1027.1
1027.1
1027.1
1027.1
1027.1
1027.1
1027.1
1027.1
1027.1
1027.1
1027.1
1027.1
1027.1
1027.1
1027.1
1027.1
1.16165
1.16201
1.16389
1.16491
1.16577
1.1664
1.16693
1.16746
1.1679
1.16824
1.1685
1.1687
1.16882
1.16889
1.1689
1.16891
1.16891
1.16891
1.16891
1.16892
1.16892
1.16892
1.16892
1.16892
1.16892
1.16892
1.16892
1.16893
1.16893
1.16893
1.16893
1.16893
1.16893
1.16893
1.16894
1.16894
1.16894
1.16894
1.16894
1.16894
1.16894
1.16895
1.169
1.1693
1.1702
1.17201
1.17523
1.18237
1.19698
1.21143
1.26002
1.29616
1.32598
1.35654
1.37169
1.38052
1.38312
1.38449
1.36167
264.934
1015.42
1022.3
1022.81
1023.46
1023.86
1024.2
1024.61
1025.17
1025.66
1026.05
1026.38
1026.63
1026.81
1026.93
1027
1027.04
1027.06
1027.08
1027.09
1027.09
1027.1
1027.1
1027.1
1027.1
1027.1
1027.1
1027.1
1027.1
1027.1
1027.1
1027.1
1027.1
1027.1
1027.1
1027.1
1027.1
1.16154
1.16146
1.16314
1.16438
1.16549
1.16639
1.16702
1.16751
1.16792
1.16825
1.1685
1.1687
1.16882
1.16889
1.1689
1.16891
1.16891
1.16891
1.16891
1.16891
1.16892
1.16892
1.16892
1.16892
1.16892
1.16892
1.16892
1.16892
1.16893
1.16893
1.16893
1.16893
1.16893
1.16893
1.16893
1.16894
1.16894
1.16894
1.16894
1.16894
1.16894
1.16895
1.16899
1.16926
1.17017
1.17207
1.17529
1.18162
1.19793
1.22787
1.28939
1.31938
1.35674
1.38141
1.38424
1.37727
1.36455
1.33469
1.27625
384.391
1002.69
1009.57
1009.17
1008.85
1008.65
1009.4
1010.38
1011.49
1012.51
1013.53
1014.81
1016.29
1017.75
1019.16
1020.45
1021.71
1023
1024.03
1024.82
1025.42
1025.98
1026.46
1026.72
1026.86
1026.99
1027.06
1027.09
1027.1
1027.1
1027.1
1027.1
1027.1
1027.1
1027.1
1027.1
1027.1
1.16148
1.16117
1.16246
1.16381
1.16514
1.16626
1.16705
1.16753
1.16793
1.16825
1.16849
1.1687
1.16882
1.16889
1.1689
1.16891
1.16891
1.16891
1.16891
1.16891
1.16891
1.16892
1.16892
1.16892
1.16892
1.16892
1.16892
1.16892
1.16893
1.16893
1.16893
1.16893
1.16893
1.16893
1.16893
1.16894
1.16894
1.16894
1.16894
1.16894
1.16894
1.16895
1.16899
1.16923
1.17012
1.17209
1.1754
1.1817
1.19899
1.26281
1.31407
1.33982
1.37215
1.38551
1.38547
1.37751
1.34735
1.31929
1.27625
423.982
994.58
1001.2
999.307
997.418
995.897
995.246
994.903
994.363
993.479
992.278
991.207
990.466
990.004
989.803
990.641
990.987
991.505
992.302
993.493
995.476
997.755
1000.5
1003.85
1007.45
1011.85
1016.61
1020.92
1024.16
1025.92
1026.32
1026.14
1026.01
1025.84
1025.61
1025.35
1025.04
1.16144
1.16097
1.16182
1.16304
1.16471
1.16602
1.16699
1.16751
1.16792
1.16824
1.16849
1.1687
1.16882
1.16889
1.1689
1.16891
1.16891
1.16891
1.16891
1.16891
1.16892
1.16892
1.16892
1.16892
1.16892
1.16892
1.16892
1.16893
1.16893
1.16893
1.16893
1.16893
1.16893
1.16893
1.16893
1.16894
1.16894
1.16894
1.16894
1.16894
1.16894
1.16895
1.16898
1.16918
1.16997
1.17201
1.17548
1.18238
1.20107
1.28024
1.33957
1.35572
1.37184
1.38041
1.36656
1.3384
1.30799
1.29607
1.27625
306.49
989.712
1003.02
999.806
998.11
996.802
995.571
994.329
992.685
990.872
988.573
985.934
982.859
979.325
975.339
971.565
967.464
963.434
960.01
956.788
952.588
946.976
939.92
932.058
924.025
916.135
909.103
904.016
900.336
895.448
888.536
880.588
871.419
859.728
842.234
798.235
604.931
1.16136
1.16081
1.16131
1.16225
1.16408
1.1657
1.16689
1.16749
1.1679
1.16824
1.16849
1.1687
1.16882
1.16889
1.16891
1.16891
1.16891
1.16891
1.16891
1.16892
1.16892
1.16892
1.16892
1.16892
1.16892
1.16892
1.16893
1.16893
1.16893
1.16893
1.16893
1.16893
1.16893
1.16894
1.16894
1.16894
1.16894
1.16894
1.16894
1.16894
1.16894
1.16895
1.16898
1.16915
1.16982
1.17173
1.17553
1.1827
1.196
1.246
1.33916
1.35154
1.35742
1.35705
1.33435
1.30441
1.28476
1.2909
1.27625
185.494
1004.23
1020.56
1021.45
1023.76
1024.87
1025.18
1025.06
1024.99
1025.23
1025.44
1025.58
1025.61
1025.43
1025.27
1024.99
1024.63
1024.19
1023.65
1023
1022.31
1021.56
1020.77
1020.08
1019.5
1019.39
1021.21
1022.67
1023.44
1023.78
1024.79
1025.61
1025.94
1026.87
1026.96
1027.08
1027.09
1.16125
1.16069
1.16092
1.16153
1.16309
1.16509
1.16676
1.16749
1.1679
1.16825
1.1685
1.16871
1.16883
1.16889
1.16891
1.16891
1.16891
1.16891
1.16892
1.16892
1.16892
1.16892
1.16892
1.16892
1.16892
1.16893
1.16893
1.16893
1.16893
1.16893
1.16893
1.16893
1.16894
1.16894
1.16894
1.16894
1.16894
1.16894
1.16894
1.16894
1.16895
1.16895
1.16898
1.16912
1.16971
1.17147
1.17518
1.18179
1.19055
1.21442
1.29522
1.34084
1.34111
1.32817
1.30873
1.29458
1.28457
1.29709
1.27625
134.722
1020.23
1026.71
1026.87
1027.04
1027.06
1027.07
1027.08
1027.08
1027.08
1027.08
1027.08
1027.08
1027.08
1027.08
1027.07
1027.07
1027.07
1027.07
1027.07
1027.07
1027.06
1027.06
1027.05
1027.05
1027.04
1027.07
1027.08
1027.09
1027.1
1027.1
1027.1
1027.1
1027.1
1027.1
1027.1
1027.1
1.16114
1.16061
1.16068
1.16099
1.1621
1.16422
1.16639
1.16741
1.16789
1.16826
1.16852
1.16872
1.16883
1.16889
1.16891
1.16891
1.16891
1.16892
1.16892
1.16892
1.16892
1.16892
1.16892
1.16892
1.16893
1.16893
1.16893
1.16893
1.16893
1.16893
1.16893
1.16894
1.16894
1.16894
1.16894
1.16894
1.16894
1.16894
1.16894
1.16894
1.16895
1.16895
1.16898
1.1691
1.16959
1.17104
1.1739
1.17897
1.18767
1.20428
1.22879
1.28906
1.32451
1.32384
1.30874
1.29906
1.29063
1.30312
1.27765
54.093
976.919
1027.09
1027.09
1027.09
1027.09
1027.1
1027.1
1027.1
1027.1
1027.1
1027.1
1027.1
1027.1
1027.1
1027.1
1027.1
1027.1
1027.1
1027.1
1027.1
1027.1
1027.1
1027.1
1027.1
1027.1
1027.1
1027.1
1027.1
1027.1
1027.1
1027.1
1027.1
1027.1
1027.1
1027.1
1027.1
1.16102
1.16055
1.16054
1.16061
1.16122
1.16293
1.1657
1.16732
1.16791
1.16829
1.16855
1.16874
1.16884
1.1689
1.16891
1.16891
1.16891
1.16891
1.16892
1.16892
1.16892
1.16892
1.16892
1.16892
1.16893
1.16893
1.16893
1.16893
1.16893
1.16893
1.16893
1.16894
1.16894
1.16894
1.16894
1.16894
1.16894
1.16894
1.16894
1.16895
1.16895
1.16895
1.16898
1.16909
1.16948
1.17064
1.17301
1.17728
1.18562
1.20311
1.22647
1.24011
1.27734
1.31506
1.31168
1.30782
1.29943
1.30788
1.34528
25.8951
992.91
1027.09
1027.09
1027.09
1027.09
1027.1
1027.1
1027.1
1027.1
1027.1
1027.1
1027.1
1027.1
1027.1
1027.1
1027.1
1027.1
1027.1
1027.1
1027.1
1027.1
1027.1
1027.1
1027.1
1027.1
1027.1
1027.1
1027.1
1027.1
1027.1
1027.1
1027.1
1027.1
1027.1
1027.1
1027.1
1.16084
1.1605
1.1605
1.16047
1.16065
1.16144
1.16418
1.16705
1.16794
1.16834
1.16858
1.16875
1.16884
1.16889
1.16891
1.16891
1.16891
1.16892
1.16892
1.16892
1.16892
1.16892
1.16892
1.16892
1.16893
1.16893
1.16893
1.16893
1.16893
1.16893
1.16893
1.16894
1.16894
1.16894
1.16894
1.16894
1.16894
1.16894
1.16894
1.16894
1.16895
1.16895
1.16898
1.16907
1.16941
1.17036
1.17237
1.17639
1.18489
1.20428
1.22968
1.25435
1.2543
1.29039
1.30617
1.30982
1.30581
1.32511
1.3829
34.531
1005.52
1027.09
1027.09
1027.09
1027.1
1027.1
1027.1
1027.1
1027.1
1027.1
1027.1
1027.1
1027.1
1027.1
1027.1
1027.1
1027.1
1027.1
1027.1
1027.1
1027.1
1027.1
1027.1
1027.1
1027.1
1027.1
1027.1
1027.1
1027.1
1027.1
1027.1
1027.1
1027.1
1027.1
1027.1
1027.1
1.1608
1.16054
1.16058
1.16056
1.16059
1.16058
1.16199
1.16567
1.16798
1.16839
1.1686
1.16875
1.16882
1.16889
1.16891
1.16891
1.16891
1.16891
1.16892
1.16892
1.16892
1.16892
1.16892
1.16892
1.16892
1.16892
1.16893
1.16893
1.16893
1.16893
1.16893
1.16893
1.16893
1.16893
1.16893
1.16893
1.16894
1.16894
1.16894
1.16894
1.16894
1.16895
1.16898
1.16908
1.16941
1.17026
1.17216
1.17661
1.18668
1.20744
1.23512
1.25968
1.25997
1.2742
1.29121
1.30695
1.30757
1.34347
1.41787
121.116
1016.63
1027.09
1027.09
1027.09
1027.1
1027.1
1027.1
1027.1
1027.1
1027.1
1027.1
1027.1
1027.1
1027.1
1027.1
1027.1
1027.1
1027.1
1027.1
1027.1
1027.1
1027.1
1027.1
1027.1
1027.1
1027.1
1027.1
1027.1
1027.1
1027.1
1027.1
1027.1
1027.1
1027.1
1027.1
1027.1
1.16072
1.16048
1.16061
1.16075
1.16106
1.16051
1.16065
1.1631
1.16756
1.16845
1.16862
1.16873
1.1688
1.16888
1.16891
1.16891
1.16891
1.16891
1.16892
1.16892
1.16892
1.16892
1.16892
1.16892
1.16892
1.16892
1.16892
1.16892
1.16893
1.16893
1.16893
1.16893
1.16893
1.16893
1.16893
1.16893
1.16893
1.16893
1.16894
1.16894
1.16894
1.16895
1.16898
1.1691
1.16944
1.17031
1.17253
1.17782
1.18847
1.20876
1.2395
1.26361
1.26661
1.27679
1.28775
1.30066
1.31422
1.33926
1.52852
105.171
1005.84
1027.05
1027.09
1027.09
1027.1
1027.1
1027.1
1027.1
1027.1
1027.1
1027.1
1027.1
1027.1
1027.1
1027.1
1027.1
1027.1
1027.1
1027.1
1027.1
1027.1
1027.1
1027.1
1027.1
1027.1
1027.1
1027.1
1027.1
1027.1
1027.1
1027.1
1027.1
1027.1
1027.1
1027.1
1027.1
1.16055
1.16058
1.16058
1.16068
1.16118
1.16082
1.16056
1.16205
1.16644
1.16848
1.16865
1.16874
1.16881
1.16889
1.16891
1.16892
1.16892
1.16892
1.16892
1.16892
1.16892
1.16893
1.16893
1.16893
1.16893
1.16893
1.16893
1.16893
1.16893
1.16893
1.16894
1.16894
1.16894
1.16894
1.16894
1.16894
1.16894
1.16895
1.16895
1.16895
1.16895
1.16896
1.16899
1.16911
1.16945
1.17033
1.17245
1.17739
1.18752
1.20819
1.2425
1.26635
1.27423
1.28261
1.28363
1.29994
1.29617
1.37257
2.13171
57.1247
967.13
1026.67
1027.09
1027.09
1027.1
1027.1
1027.1
1027.1
1027.1
1027.1
1027.1
1027.1
1027.1
1027.1
1027.1
1027.1
1027.1
1027.1
1027.1
1027.1
1027.1
1027.1
1027.1
1027.1
1027.1
1027.1
1027.1
1027.1
1027.1
1027.1
1027.1
1027.1
1027.1
1027.1
1027.1
1027.1
1.16231
1.16346
1.1648
1.16559
1.16607
1.16664
1.1675
1.16833
1.16865
1.16875
1.16882
1.16887
1.1689
1.16891
1.16891
1.16891
1.16891
1.16891
1.16891
1.16892
1.16892
1.16892
1.16892
1.16892
1.16892
1.16892
1.16893
1.16893
1.16893
1.16893
1.16893
1.16894
1.16894
1.16894
1.16894
1.16894
1.16894
1.16894
1.16895
1.16895
1.16895
1.16895
1.16895
1.16895
1.16915
1.17031
1.17301
1.17733
1.18579
1.21237
1.23979
1.2564
1.26985
1.28403
1.29361
1.30187
1.29993
1.32138
2.48312
62.9128
992.572
1026.92
1027.09
1027.1
1027.1
1027.1
1027.1
1027.1
1027.1
1027.1
1027.1
1027.1
1027.1
1027.1
1027.1
1027.1
1027.1
1027.1
1027.1
1027.1
1027.1
1027.1
1027.1
1027.1
1027.1
1027.1
1027.1
1027.1
1027.1
1027.1
1027.1
1027.1
1027.1
1027.1
1027.1
1027.1
1.16152
1.16211
1.16539
1.16605
1.16651
1.1672
1.16794
1.16834
1.16851
1.16862
1.16873
1.16882
1.16888
1.1689
1.16891
1.16891
1.16891
1.16891
1.16892
1.16892
1.16892
1.16892
1.16892
1.16892
1.16893
1.16893
1.16893
1.16893
1.16893
1.16893
1.16893
1.16894
1.16894
1.16894
1.16894
1.16894
1.16894
1.16894
1.16894
1.16894
1.16894
1.16895
1.16896
1.16899
1.16916
1.17004
1.1726
1.17804
1.18731
1.21181
1.23056
1.24783
1.26135
1.27267
1.27952
1.28892
1.2878
1.30317
1.71094
84.6903
1017.79
1027.08
1027.09
1027.1
1027.1
1027.1
1027.1
1027.1
1027.1
1027.1
1027.1
1027.1
1027.1
1027.1
1027.1
1027.1
1027.1
1027.1
1027.1
1027.1
1027.1
1027.1
1027.1
1027.1
1027.1
1027.1
1027.1
1027.1
1027.1
1027.1
1027.1
1027.1
1027.1
1027.1
1027.1
1027.1
1.16134
1.16155
1.16549
1.16627
1.16672
1.16736
1.16791
1.16818
1.16833
1.16851
1.16866
1.16878
1.16886
1.16889
1.1689
1.1689
1.1689
1.16891
1.16891
1.16891
1.16891
1.16891
1.16891
1.16892
1.16892
1.16892
1.16892
1.16892
1.16892
1.16892
1.16893
1.16893
1.16893
1.16893
1.16893
1.16893
1.16893
1.16893
1.16893
1.16893
1.16894
1.16894
1.16897
1.16905
1.16932
1.17019
1.1727
1.17816
1.18765
1.21063
1.23319
1.25146
1.26703
1.27274
1.28415
1.29716
1.27794
1.31366
1.47535
119.729
1024.65
1027.09
1027.09
1027.09
1027.1
1027.1
1027.1
1027.1
1027.1
1027.1
1027.1
1027.1
1027.1
1027.1
1027.1
1027.1
1027.1
1027.1
1027.1
1027.1
1027.1
1027.1
1027.1
1027.1
1027.1
1027.1
1027.1
1027.1
1027.1
1027.1
1027.1
1027.1
1027.1
1027.1
1027.1
1027.1
1.16122
1.16143
1.16506
1.16615
1.16667
1.16731
1.16778
1.168
1.16825
1.16847
1.16864
1.16877
1.16885
1.16889
1.1689
1.1689
1.1689
1.16891
1.16891
1.16891
1.16891
1.16891
1.16891
1.16891
1.16891
1.16891
1.16892
1.16892
1.16892
1.16892
1.16892
1.16892
1.16893
1.16893
1.16893
1.16893
1.16893
1.16893
1.16893
1.16893
1.16893
1.16894
1.16897
1.16911
1.16955
1.1708
1.17335
1.17835
1.18837
1.2111
1.23496
1.26142
1.28261
1.28777
1.3298
1.34755
1.35825
1.38729
1.47968
191.652
1025.72
1027.03
1027.05
1027.07
1027.08
1027.09
1027.09
1027.09
1027.09
1027.1
1027.1
1027.1
1027.1
1027.1
1027.1
1027.1
1027.1
1027.1
1027.1
1027.1
1027.1
1027.1
1027.1
1027.1
1027.1
1027.1
1027.1
1027.1
1027.1
1027.1
1027.1
1027.1
1027.1
1027.1
1027.1
1027.1
1.16115
1.16148
1.16467
1.16608
1.16659
1.16724
1.16767
1.16791
1.16821
1.16843
1.16861
1.16875
1.16884
1.16888
1.1689
1.1689
1.1689
1.16891
1.16891
1.16891
1.16891
1.16891
1.16891
1.16891
1.16892
1.16892
1.16892
1.16892
1.16892
1.16892
1.16892
1.16892
1.16893
1.16893
1.16893
1.16893
1.16893
1.16893
1.16893
1.16893
1.16894
1.16896
1.16899
1.16916
1.16973
1.17114
1.17442
1.1816
1.1911
1.21154
1.23608
1.28445
1.305
1.33403
1.37745
1.38486
1.38929
1.39118
1.39137
247.694
1022.63
1025.64
1025.9
1026.17
1026.35
1026.52
1026.65
1026.71
1026.77
1026.82
1026.87
1026.92
1026.97
1027.01
1027.04
1027.07
1027.08
1027.09
1027.1
1027.1
1027.1
1027.1
1027.1
1027.1
1027.1
1027.1
1027.1
1027.1
1027.1
1027.1
1027.1
1027.1
1027.1
1027.1
1027.1
1027.1
1.16118
1.16123
1.1642
1.16607
1.16647
1.1672
1.16757
1.16785
1.16819
1.16842
1.1686
1.16873
1.16882
1.16887
1.16889
1.1689
1.1689
1.1689
1.1689
1.16891
1.16891
1.16891
1.16891
1.16891
1.16891
1.16892
1.16892
1.16892
1.16892
1.16892
1.16892
1.16892
1.16892
1.16893
1.16893
1.16893
1.16893
1.16893
1.16893
1.16895
1.16901
1.16909
1.16917
1.16932
1.16977
1.17113
1.17643
1.18659
1.19769
1.21005
1.27476
1.32313
1.34488
1.36943
1.38437
1.38437
1.36786
1.32488
1.27962
314.786
1014.44
1019.92
1020.65
1021.65
1022.46
1022.8
1022.85
1022.72
1022.69
1022.83
1022.97
1023.25
1023.56
1023.95
1024.46
1025.01
1025.59
1026.15
1026.57
1026.85
1026.99
1027.05
1027.08
1027.09
1027.1
1027.1
1027.1
1027.1
1027.1
1027.1
1027.1
1027.1
1027.1
1027.1
1027.1
1027.1
1.16114
1.16096
1.16329
1.1654
1.16642
1.16721
1.16754
1.16788
1.16824
1.16842
1.16859
1.16871
1.1688
1.16886
1.16889
1.16889
1.1689
1.1689
1.1689
1.1689
1.16891
1.16891
1.16891
1.16892
1.16892
1.16892
1.16892
1.16892
1.16892
1.16893
1.16893
1.16893
1.16893
1.16893
1.16893
1.16893
1.16893
1.16893
1.16894
1.16896
1.16906
1.16915
1.16922
1.16931
1.16975
1.17257
1.17973
1.19028
1.20461
1.22748
1.31056
1.34773
1.36785
1.3785
1.38135
1.36778
1.33034
1.31366
1.30906
347.677
1006.39
1013.17
1013.52
1014.37
1015.11
1015.21
1014.58
1013.91
1013.22
1012.69
1012.19
1011.75
1011.36
1011.28
1012.12
1013.58
1015.56
1017.78
1019.91
1021.84
1023.44
1024.56
1025.36
1026.05
1026.59
1026.87
1026.98
1027.04
1027.07
1027.08
1027.08
1027.07
1027.07
1027.08
1027.09
1027.1
1.1611
1.16091
1.16231
1.16412
1.16617
1.16712
1.16747
1.16777
1.16812
1.16826
1.16854
1.16868
1.16878
1.16886
1.16889
1.16889
1.16889
1.1689
1.1689
1.1689
1.1689
1.1689
1.16891
1.16891
1.16891
1.16891
1.16891
1.16891
1.16892
1.16892
1.16892
1.16892
1.16892
1.16892
1.16892
1.16892
1.16892
1.16893