/*--------------------------------*- C++ -*----------------------------------*\
| =========                 |                                                 |
| \\      /  F ield         | OpenFOAM: The Open Source CFD Toolbox           |
|  \\    /   O peration     | Version:  2.3.0                                 |
|   \\  /    A nd           | Web:      www.OpenFOAM.org                      |
|    \\/     M anipulation  |                                                 |
\*---------------------------------------------------------------------------*/
FoamFile
{
    version     2.0;
    format      ascii;
    class       volVectorField;
    location    "28";
    object      U;
}
// * * * * * * * * * * * * * * * * * * * * * * * * * * * * * * * * * * * * * //

dimensions      [0 1 -1 0 0 0 0];

internalField   nonuniform List<vector> 
6144
(
(0.0104397 0.0180741 -8.67537e-05)
(0.0103027 -0.00686754 -0.00194232)
(0.00484476 -0.00550128 -0.00324094)
(0.00454055 -0.0048013 -0.00286108)
(0.00304289 -0.00365137 -0.00262405)
(0.0030454 -0.00119057 -0.00244253)
(0.00237601 -0.000171404 -0.00170948)
(0.00234119 0.00153578 -0.000839987)
(0.0019577 0.00168306 -0.000115645)
(0.00167975 0.00273546 0.000403335)
(0.00139798 0.00355823 0.000766695)
(0.00142033 0.00413332 0.00113064)
(0.00157598 0.00411759 0.00127804)
(0.00174992 0.00356663 0.00151058)
(0.00186398 0.00267999 0.00143729)
(0.0019565 0.00182622 0.00127208)
(0.0020073 0.00106753 0.000982897)
(0.00206428 0.000545944 0.000739454)
(0.0021132 0.000159834 0.000465783)
(0.00215011 -4.73831e-05 0.000274761)
(0.00216603 -0.000170648 0.00015237)
(0.00216527 -0.00018212 9.10927e-05)
(0.00215274 -0.000155044 7.32023e-05)
(0.00212958 -8.47496e-05 9.26299e-05)
(0.0020981 -3.35279e-06 0.000139514)
(0.00206023 8.58966e-05 0.000208388)
(0.00201565 0.000172188 0.00030244)
(0.00196442 0.000255515 0.000422581)
(0.00190983 0.000337357 0.000553418)
(0.00185899 0.000407423 0.000682739)
(0.00180199 0.000449732 0.00082404)
(0.00173485 0.00045978 0.000979294)
(0.00165497 0.000439535 0.00114877)
(0.00156534 0.000385373 0.00134584)
(0.00147566 0.00026603 0.00158974)
(0.00139657 1.95593e-05 0.00187921)
(0.00133665 -0.000414699 0.00217861)
(0.00130486 -0.00104224 0.00239388)
(0.00131258 -0.00177942 0.00241931)
(0.00135704 -0.00251998 0.00219238)
(0.00143747 -0.00301146 0.00164138)
(0.00161548 -0.00308281 0.000741243)
(0.00195412 -0.00251214 -5.55995e-05)
(0.00278321 -0.00165038 -0.00076414)
(0.0043647 -0.00180849 -0.00134352)
(0.00624808 -0.00423958 -0.00188482)
(0.007754 -0.00864414 -0.00237734)
(0.00810388 -0.0120924 -0.00317798)
(0.000375153 -0.0122127 -0.00353106)
(-0.00429402 0.00601886 -0.00607364)
(0.0279943 -0.00285789 -0.0183128)
(0.0503078 -0.0384041 -0.0228322)
(0.0423236 -0.0625352 -0.0137964)
(0.0353655 -0.096239 -0.0144967)
(0.023123 -0.0901325 -0.0133439)
(0.0163672 -0.111602 -0.0105325)
(-0.00726741 -0.063303 -0.0168672)
(-0.0177917 -0.101026 0.0149307)
(-0.0360995 0.0392996 -0.0261908)
(0.0412829 0.102674 0.0472022)
(0.127482 -0.268391 0.0815143)
(0.0847467 -0.137239 0.04388)
(0.05559 -0.187204 0.0266637)
(0.0447752 -0.224599 0.00991766)
(0.042433 -0.223122 0.00522129)
(0.0367282 -0.222313 -0.00257426)
(0.0336244 -0.22137 -0.00471947)
(0.0334315 -0.218666 -0.0046527)
(0.0322886 -0.211961 -0.00408831)
(0.03159 -0.206313 -0.00117937)
(0.0302614 -0.195703 0.002024)
(0.0261584 -0.188882 0.00382331)
(0.0261553 -0.17789 0.00825602)
(0.0224695 -0.170497 0.00872454)
(0.0209038 -0.157449 0.011709)
(0.0178559 -0.152068 0.0123797)
(0.0152913 -0.144365 0.0115057)
(0.0137477 -0.139197 0.0122697)
(0.0124572 -0.141626 0.0133718)
(0.0113725 -0.140389 0.0148417)
(0.00801858 -0.132805 0.0122981)
(-0.00689083 -0.108953 -0.00230978)
(-0.0230669 -0.0465107 -0.00416064)
(-0.0134729 -0.026074 0.0075014)
(-0.00411751 -0.0193132 0.0146744)
(0.00208849 -0.0173541 0.0152869)
(0.00455396 -0.0153333 0.00753784)
(0.0028201 -0.00530898 -0.00535979)
(0.000318003 0.0170965 -0.0122939)
(0.000655874 0.0394929 -0.00810932)
(-0.0018161 0.0478318 0.00305803)
(-0.00639663 0.0338693 0.0152278)
(-0.00778896 0.0150689 0.012563)
(-0.00370863 -0.00207672 -0.00342329)
(-0.000641631 0.0101808 0.0184473)
(-0.00208783 0.000891282 0.0318297)
(0.0214535 0.0181247 0.00268736)
(0.022239 0.00262764 0.00139004)
(0.0103419 0.00153233 -0.00276096)
(0.0103098 0.00244131 -0.00140414)
(0.00666118 0.000353901 -0.000173892)
(0.00581377 0.0012122 0.00117798)
(0.00364861 2.91444e-05 0.00217705)
(0.00321381 0.00171583 0.00252848)
(0.00252906 0.00222337 0.00267956)
(0.00208239 0.00408113 0.00296273)
(0.00190751 0.00491003 0.00331083)
(0.00217657 0.00544757 0.00377662)
(0.00266503 0.00524334 0.00398796)
(0.00317871 0.00468285 0.00415846)
(0.00343884 0.00371528 0.00416386)
(0.00359915 0.00278411 0.00413046)
(0.00361943 0.00186602 0.00405198)
(0.0036658 0.0011958 0.0039771)
(0.00371124 0.000662766 0.00386417)
(0.0037545 0.000349808 0.00374873)
(0.00375953 0.000137939 0.0036738)
(0.00373158 6.39443e-05 0.00365367)
(0.00367936 4.64711e-05 0.00367332)
(0.00360624 9.0436e-05 0.00372813)
(0.00351911 0.000155863 0.00380687)
(0.00342008 0.0002384 0.00390436)
(0.00331031 0.000323511 0.00401544)
(0.00318951 0.000407456 0.00413814)
(0.0030618 0.000487325 0.00426325)
(0.00295689 0.000547815 0.00434731)
(0.0028538 0.000563337 0.0044377)
(0.002742 0.000532305 0.00453241)
(0.00261677 0.000456573 0.0046276)
(0.00249182 0.00034249 0.00472667)
(0.00239497 0.000174903 0.00483851)
(0.00235946 -8.97972e-05 0.00496545)
(0.00239702 -0.000489391 0.00509302)
(0.0024864 -0.00101782 0.00517967)
(0.00259729 -0.00158928 0.00519554)
(0.00269116 -0.00209594 0.00513751)
(0.00268305 -0.00229904 0.00499162)
(0.00282595 -0.00197605 0.00458197)
(0.00331028 -0.00098542 0.00379758)
(0.00477323 0.000358758 0.00302109)
(0.00801213 0.0015023 0.00222335)
(0.0121624 0.00197988 0.00124791)
(0.0144211 0.00368025 8.59803e-05)
(0.0123826 0.00492238 -0.00101786)
(0.00045509 0.00891305 0.00116837)
(0.0099051 -0.00490852 -0.00033712)
(0.0576649 -0.0206608 -0.0137387)
(0.086132 -0.0328435 -0.00817946)
(0.072978 -0.0306226 0.00210595)
(0.0581776 -0.0462584 0.00447723)
(0.0290427 -0.0173855 0.0145845)
(0.0404472 -0.0918275 0.0272043)
(-0.0101057 -0.0447163 0.0149354)
(-0.0134987 -0.169338 0.020026)
(-0.139887 0.0361558 -0.104435)
(0.00969224 0.0378562 0.0128873)
(0.152404 -0.23275 0.127043)
(0.0797485 -0.028194 0.0657602)
(0.0372941 -0.119189 0.012618)
(0.0406697 -0.108784 0.00573029)
(0.0358288 -0.110202 -0.00174325)
(0.0315853 -0.106666 -0.00267226)
(0.0326268 -0.095638 -0.00269543)
(0.0360723 -0.074739 -0.00143064)
(0.0336368 -0.0552527 0.000790727)
(0.0283831 -0.0394276 0.00299177)
(0.0202607 -0.0211728 0.004861)
(0.00803025 -0.014645 0.0154725)
(0.0029866 0.00375361 0.0156206)
(-0.00145046 0.0201224 0.0163693)
(-0.00322065 0.0328705 0.0271277)
(-0.00190449 0.0409813 0.0237063)
(0.00372726 0.0393436 0.0199337)
(0.00861381 0.0319448 0.0214807)
(0.00174149 0.0175285 0.022345)
(-0.0165352 -0.00641292 0.0171256)
(-0.0334702 -0.0197692 0.00497287)
(-0.0391594 -0.0228486 -0.00395697)
(-0.0204977 -0.0255334 0.00461151)
(0.0112465 -0.0423861 0.0172703)
(0.0177957 -0.0468029 0.0174631)
(0.0173959 -0.047132 0.0135217)
(0.0143212 -0.0422791 0.00756792)
(0.00583601 -0.0287589 0.000386213)
(-0.00160255 -0.0103539 -0.00883086)
(-0.00264644 0.0120688 -0.00199134)
(-0.00490615 0.0233645 0.016137)
(-0.0120093 0.0106269 0.0319224)
(-0.0228097 -0.00955279 0.0301315)
(-0.0275019 -0.0300912 0.0101107)
(-0.0198107 -0.0114233 0.00986837)
(-0.0143043 -0.00180001 0.0318495)
(0.0256107 0.0204596 0.00428445)
(0.0259549 0.0105439 0.00346653)
(0.0153974 0.00795502 0.00066731)
(0.0136136 0.00814428 0.00236529)
(0.00828055 0.00474309 0.00289079)
(0.00615783 0.00420608 0.00336105)
(0.00271628 0.00136722 0.00355958)
(0.00172349 0.00237572 0.00334894)
(0.000561466 0.00307443 0.0032025)
(0.000532528 0.00475712 0.00366507)
(0.000527168 0.00506289 0.00411153)
(0.00112635 0.00543005 0.00454751)
(0.00170441 0.0051424 0.00471001)
(0.00236598 0.00483618 0.00480656)
(0.00276829 0.00413236 0.00476525)
(0.00302017 0.00343845 0.00473751)
(0.00303851 0.00263681 0.00470253)
(0.00304665 0.00200155 0.00468778)
(0.00298555 0.00142208 0.00468606)
(0.00291614 0.00102785 0.00469471)
(0.0028099 0.000721427 0.00472107)
(0.00270467 0.000544267 0.00476369)
(0.00258851 0.000432294 0.00481475)
(0.00246696 0.000397258 0.004875)
(0.00234204 0.000398765 0.00494028)
(0.00221353 0.000428902 0.00500747)
(0.00207945 0.000467102 0.00507601)
(0.0019402 0.000502557 0.00514723)
(0.00179723 0.000518397 0.0052229)
(0.00165158 0.000506714 0.00530845)
(0.00150949 0.000463573 0.00540072)
(0.0013541 0.00038324 0.00549296)
(0.00117138 0.000270436 0.00558122)
(0.00097572 0.000134108 0.00566581)
(0.000828037 -6.59214e-06 0.00575165)
(0.00076857 -0.000147931 0.00583713)
(0.000798856 -0.000261235 0.00591245)
(0.000896348 -0.000316862 0.00595641)
(0.0010028 -0.000243489 0.00596272)
(0.00107897 3.63791e-05 0.00594289)
(0.00109286 0.000604507 0.00592206)
(0.00111495 0.00140941 0.00591357)
(0.00155333 0.00244963 0.00579977)
(0.00312306 0.00346596 0.00514139)
(0.00638458 0.00493857 0.00394779)
(0.0102447 0.00856227 0.00294379)
(0.0124598 0.0147896 0.00219787)
(0.0129555 0.0179866 0.00341153)
(0.0120356 0.0198775 0.00703748)
(0.0240335 -0.0124166 0.00440603)
(0.0705346 -0.0208386 -0.0131389)
(0.093712 -0.00696912 -0.00515645)
(0.0685326 0.0221154 0.0223461)
(0.0518077 0.00996578 0.0365059)
(0.066354 0.0323165 0.0446879)
(0.0763479 -0.0746312 0.0428806)
(-0.00521238 0.0187194 0.0207243)
(0.0389527 -0.190606 0.0877152)
(-0.111567 0.0678315 -0.101369)
(0.0527762 0.0133102 -0.0118359)
(0.175673 -0.214935 0.14595)
(0.103626 0.0133258 0.0810513)
(0.0882354 -0.101516 0.0273665)
(0.0901834 -0.0746631 0.0137302)
(0.0689874 -0.0687522 0.00110261)
(0.0444387 -0.0589739 0.00149907)
(0.0406793 -0.0348108 0.000730638)
(0.0377073 -0.00671867 -0.0075772)
(0.036274 0.0177048 -0.0058206)
(0.0363866 0.0395952 0.00940122)
(0.0307514 0.0514619 0.0180285)
(0.0170529 0.0525053 0.0170569)
(0.0129262 0.0596838 0.0171602)
(0.00676741 0.0579406 0.0197569)
(0.00530008 0.0558331 0.0216919)
(0.0200433 0.0541018 0.0229569)
(0.0322242 0.0480968 0.0216737)
(0.0368874 0.0425603 0.0163874)
(0.0417039 0.0383758 0.0130641)
(0.0390721 0.0265542 0.0127117)
(0.0236033 0.00446307 0.0132483)
(0.0179274 -0.0195975 0.0117909)
(0.0215044 -0.0384409 0.0105375)
(0.0238968 -0.0508001 0.0147043)
(0.0230706 -0.0539911 0.017337)
(0.0222903 -0.0535177 0.0159024)
(0.0194059 -0.0458642 0.008374)
(0.0103994 -0.033592 0.00227515)
(-0.00348165 -0.0212285 0.00503032)
(-0.00989406 -0.0106154 0.0143117)
(-0.0130378 -0.0024361 0.0274814)
(-0.0255483 -0.0103871 0.0400703)
(-0.0439357 -0.019309 0.0344768)
(-0.0517852 -0.0337058 0.00716337)
(-0.0473286 -0.0167424 0.00664408)
(-0.0340091 -0.00305829 0.0311013)
(0.0274227 0.0214129 0.00482757)
(0.029719 0.0160022 0.00551892)
(0.0169391 0.0107587 0.002868)
(0.0154356 0.011535 0.00306198)
(0.00909763 0.00696247 0.00337025)
(0.00803242 0.00700637 0.00363045)
(0.00284864 0.00186948 0.00379006)
(0.000870585 0.0018471 0.00305915)
(-0.000897271 0.00163904 0.00294048)
(-0.000594581 0.0033929 0.00353566)
(-0.000609389 0.00361944 0.00424203)
(-0.000193418 0.0044515 0.00487579)
(0.000330214 0.00460232 0.00502681)
(0.00102984 0.0046562 0.0050911)
(0.00147055 0.0041557 0.00497469)
(0.00174907 0.00361471 0.00494028)
(0.00176162 0.00292038 0.00492339)
(0.00174632 0.00238998 0.00494618)
(0.00166692 0.00186611 0.0049535)
(0.00156514 0.00145836 0.00496429)
(0.00143594 0.00110122 0.00498414)
(0.00128797 0.000850325 0.00501273)
(0.00112148 0.00065802 0.00504955)
(0.000953553 0.000545204 0.0050972)
(0.000789248 0.000481591 0.00515336)
(0.000631739 0.000455344 0.00521733)
(0.000479109 0.000445288 0.00528673)
(0.000331241 0.000440128 0.00536146)
(0.0001908 0.000426214 0.00544093)
(6.37527e-05 0.000394284 0.00552499)
(-5.23306e-05 0.000342176 0.00561168)
(-0.00017141 0.000275293 0.00569586)
(-0.000307238 0.000202928 0.0057745)
(-0.000447006 0.000140274 0.00584405)
(-0.000546232 0.000101543 0.00589199)
(-0.000586235 9.95245e-05 0.0059138)
(-0.000581466 0.000203743 0.00589341)
(-0.000556758 0.000451598 0.005839)
(-0.000558523 0.000884494 0.00576891)
(-0.000617754 0.0015406 0.00572691)
(-0.000699702 0.00247924 0.0057227)
(-0.000486448 0.003583 0.00561743)
(0.00039687 0.00466192 0.00515573)
(0.00217149 0.00566943 0.00406961)
(0.00416794 0.00738187 0.00290894)
(0.00621285 0.0115246 0.00247363)
(0.00944117 0.0191362 0.00312039)
(0.0139053 0.0223597 0.00518973)
(0.0211549 0.0218512 0.00927193)
(0.0304304 -0.00654097 0.00385407)
(0.0642752 -0.00357913 -0.0118234)
(0.0729875 0.0393163 -0.00788349)
(0.0520268 0.0918976 0.0154161)
(0.0472287 0.100403 0.0504248)
(0.0518307 0.0920388 0.0730165)
(0.0424471 0.0503286 0.0920311)
(0.078601 0.151255 0.144665)
(0.136365 -0.185331 0.174622)
(-0.166204 0.23012 -0.0868572)
(0.0249268 -0.0726457 0.0226165)
(0.142924 -0.172914 0.16108)
(0.0919387 0.0345759 0.0740652)
(0.0910427 -0.0849682 0.0273546)
(0.0768679 -0.0126315 -0.00494559)
(0.0344805 0.00483552 -0.000726299)
(0.0127325 0.0502032 -0.0107668)
(0.0256922 0.126506 -0.0159094)
(0.0351059 0.149663 -0.00482987)
(0.0433646 0.15372 0.0187872)
(0.0456359 0.147142 0.026908)
(0.0410634 0.12623 0.0241849)
(0.0302167 0.100195 0.0226719)
(0.0244864 0.0826287 0.0334433)
(0.019402 0.0652319 0.041994)
(0.00916165 0.0426079 0.0404077)
(0.00327019 0.0302367 0.0463045)
(-0.000988375 0.0253944 0.049163)
(-0.000478534 0.0207553 0.045657)
(0.00273269 0.0180901 0.044068)
(0.00791882 0.00628762 0.039073)
(0.0112588 -0.011486 0.0281835)
(0.0143591 -0.0311544 0.0125616)
(0.0180175 -0.0356221 0.00837733)
(0.0177743 -0.0314448 0.0061503)
(0.015376 -0.0198165 0.00213735)
(0.00760703 -0.0160508 0.00635397)
(0.00123727 -0.0131852 0.00782403)
(-0.00791718 -0.0126954 0.0115504)
(-0.0123514 -0.0101081 0.0154147)
(-0.0171231 -0.0044726 0.0181818)
(-0.0245978 -0.00259613 0.0267325)
(-0.0435999 -0.00930801 0.0337283)
(-0.0614471 -0.0194629 0.0203407)
(-0.0651808 -0.0315488 0.00293491)
(-0.0585638 -0.0199609 0.0051628)
(-0.0476668 -0.0117683 0.0294684)
(0.0277144 0.0217009 0.00509082)
(0.0323086 0.0187594 0.00687915)
(0.0187019 0.0114043 0.00329276)
(0.0177771 0.012836 0.00314115)
(0.00984667 0.00692304 0.00363387)
(0.00970757 0.00784218 0.00365768)
(0.00385557 0.00209956 0.0038052)
(0.00105215 0.00202572 0.00304127)
(-0.00217139 -0.000319266 0.00286075)
(-0.0022522 0.00125364 0.00340425)
(-0.00272008 0.00156025 0.00414523)
(-0.00252956 0.00321387 0.00495729)
(-0.00201 0.00392914 0.00507294)
(-0.00113386 0.0044052 0.00512187)
(-0.000551871 0.00411272 0.00492542)
(-0.000285919 0.00359752 0.00486567)
(-0.000410313 0.00291901 0.0048366)
(-0.000596943 0.00243504 0.00487817)
(-0.000793066 0.00197764 0.00489201)
(-0.000962016 0.00160465 0.00489341)
(-0.00114575 0.00123368 0.00488354)
(-0.00132032 0.000936881 0.00488218)
(-0.00149352 0.000691822 0.00488823)
(-0.00166511 0.000522203 0.00490409)
(-0.00182485 0.000405967 0.00493193)
(-0.0019722 0.000334886 0.00497379)
(-0.00211111 0.000287056 0.00502565)
(-0.00223788 0.000250643 0.00508607)
(-0.00235052 0.000212455 0.00515096)
(-0.00245006 0.000167796 0.00521228)
(-0.00254191 0.000124518 0.00526418)
(-0.00264117 8.85036e-05 0.00530381)
(-0.00276968 6.86221e-05 0.00533415)
(-0.00291389 8.80779e-05 0.00535456)
(-0.00301808 0.00016414 0.0053462)
(-0.00306445 0.000312785 0.00528866)
(-0.00307829 0.000593875 0.00516701)
(-0.00308948 0.00107755 0.00500787)
(-0.00317784 0.00181844 0.0048337)
(-0.00339022 0.00278682 0.00470836)
(-0.00356868 0.00393404 0.00457145)
(-0.0033077 0.00501803 0.0041619)
(-0.00224735 0.00614669 0.00318107)
(-0.000410035 0.00730156 0.00169016)
(0.0010421 0.00902748 0.00083439)
(0.00190883 0.012187 0.000959462)
(0.00499016 0.0176828 0.00332943)
(0.0128768 0.0197756 0.00701248)
(0.0199888 0.0173744 0.00995291)
(0.0208548 0.00319608 0.00537332)
(0.0392539 0.015379 -0.00750325)
(0.041224 0.0825795 0.00420052)
(0.0224929 0.132137 0.0418658)
(0.0239067 0.141729 0.0754036)
(0.0496105 0.13773 0.0895338)
(0.0882569 0.107422 0.0991157)
(0.128552 0.138193 0.114741)
(0.126148 0.0387326 0.0905975)
(0.00940495 0.376069 0.00619288)
(0.0258892 -0.125162 0.0395011)
(0.114624 -0.142151 0.175583)
(0.0873453 0.0442754 0.0747511)
(0.0803367 -0.0491201 0.0286829)
(0.0498347 0.0807564 -0.00226324)
(0.0134772 0.100487 -0.0258155)
(0.0012013 0.154469 -0.0219693)
(0.0256078 0.182943 0.0128967)
(0.0379474 0.181582 0.0310039)
(0.0388746 0.192025 0.0431273)
(0.0398939 0.18731 0.053699)
(0.0342599 0.181755 0.0565637)
(0.0218661 0.173223 0.0560142)
(0.0109667 0.162147 0.0608929)
(-0.000867345 0.152677 0.0656376)
(-0.0129782 0.133238 0.0676434)
(-0.0144502 0.116648 0.0654897)
(-0.0160735 0.0960455 0.0510196)
(-0.0176913 0.0737519 0.0190941)
(-0.0117832 0.074982 -0.0134912)
(0.00975649 0.0899104 -0.037604)
(0.0255345 0.0956942 -0.0364069)
(0.0313731 0.0959615 -0.0279397)
(0.0235606 0.0873329 -0.0126482)
(0.0145474 0.0759107 0.00049823)
(0.0180429 0.0681386 0.00718408)
(0.0240239 0.0581017 0.0076465)
(0.0234974 0.0452738 0.00784644)
(0.0131008 0.0341277 0.0143301)
(-0.00200996 0.0191868 0.0211768)
(-0.0173674 0.00850673 0.0265113)
(-0.0352787 0.00279612 0.0279417)
(-0.0550461 -0.0058161 0.0242812)
(-0.0675125 -0.0161777 0.0134041)
(-0.0697312 -0.0262002 0.00312534)
(-0.0667565 -0.0181427 0.00551298)
(-0.0708691 -0.0103531 0.0278893)
(0.026076 0.0206302 0.00560655)
(0.0334254 0.0207692 0.0083313)
(0.0198447 0.0103852 0.00257369)
(0.0203261 0.0135494 0.00257006)
(0.0102566 0.00529686 0.00291339)
(0.0101805 0.00778565 0.003187)
(0.00404175 0.00199802 0.0038347)
(0.00147657 0.0034085 0.00358429)
(-0.00199333 -0.0010065 0.00331617)
(-0.0034522 -0.00040129 0.00342262)
(-0.00426361 -0.000579447 0.00374423)
(-0.00420732 0.00169545 0.00459192)
(-0.0033371 0.00301714 0.00484764)
(-0.00210996 0.00393734 0.00513343)
(-0.00110689 0.00370301 0.005172)
(-0.000692761 0.00325317 0.00523465)
(-0.000916689 0.00259404 0.00517524)
(-0.00125687 0.00218319 0.00515781)
(-0.00158477 0.00184674 0.00509948)
(-0.00184433 0.00160013 0.0050348)
(-0.00209186 0.00134351 0.00495117)
(-0.00230963 0.00112699 0.00486279)
(-0.0025296 0.000920907 0.00477627)
(-0.002731 0.000750609 0.00470515)
(-0.00290401 0.000610187 0.00464972)
(-0.00304593 0.000504427 0.00461485)
(-0.00315753 0.000431838 0.00460002)
(-0.00324441 0.000388312 0.00459944)
(-0.00330682 0.000360217 0.00460713)
(-0.00335791 0.000342376 0.0046124)
(-0.00340944 0.000335335 0.00460892)
(-0.00346618 0.000342555 0.00460106)
(-0.003546 0.00037698 0.00459548)
(-0.00363815 0.000470497 0.00458231)
(-0.0037003 0.000650335 0.00453066)
(-0.00375678 0.000938794 0.00441106)
(-0.00388361 0.00136813 0.00421017)
(-0.00415639 0.00196482 0.00391729)
(-0.00454219 0.00273899 0.0035813)
(-0.00485102 0.00362931 0.00333612)
(-0.00478113 0.00454792 0.00314769)
(-0.00398933 0.0053779 0.00271457)
(-0.0024115 0.00625792 0.00181306)
(-0.000257957 0.00739499 0.000705331)
(0.000719109 0.00933954 0.000118657)
(0.000848228 0.0120349 5.76488e-05)
(0.00342024 0.0161457 0.00221404)
(0.0120651 0.0173401 0.00686787)
(0.0170362 0.014749 0.0108326)
(0.0137261 0.0015906 0.0116433)
(0.00823045 0.00926996 0.0206725)
(0.0100297 0.071398 0.0141559)
(0.00948444 0.107868 0.020328)
(0.0156167 0.117855 0.055376)
(0.0438712 0.107633 0.0673485)
(0.0813297 0.121536 0.0580515)
(0.0958651 0.174817 0.0539361)
(0.174812 0.0705133 0.0798618)
(0.213228 0.381327 0.0759339)
(0.0070262 -0.120707 0.0520447)
(0.0565806 -0.139847 0.175717)
(0.0547068 0.0370235 0.0634164)
(0.0326557 0.0126707 -0.00822276)
(0.00645745 0.146912 -0.00877624)
(-0.0100152 0.171025 -0.00451659)
(-0.0136171 0.184743 -0.000264119)
(0.000511458 0.200369 0.0141435)
(0.00410082 0.20127 0.0270112)
(0.00596566 0.201884 0.0382863)
(0.00890699 0.193887 0.0437172)
(0.00353492 0.188897 0.0488854)
(-0.00202158 0.176012 0.0557442)
(-0.00940694 0.159595 0.0607791)
(-0.0175034 0.145208 0.0614329)
(-0.0205485 0.132441 0.0576462)
(-0.019138 0.123827 0.0470786)
(-0.0131081 0.123339 0.0191998)
(-0.0054911 0.134901 -0.0256066)
(0.0155255 0.155578 -0.0433709)
(0.0471613 0.173683 -0.0241543)
(0.0570732 0.173817 -0.00944562)
(0.0639442 0.171838 -0.00165633)
(0.0557365 0.159267 0.0136107)
(0.0370212 0.122843 0.0136666)
(0.0329638 0.103341 0.00333083)
(0.0320491 0.0891734 0.00321978)
(0.025396 0.0744508 0.0105195)
(0.0099664 0.0601323 0.0139502)
(-0.00792635 0.0492296 0.0140088)
(-0.0268369 0.0390724 0.0187805)
(-0.0454372 0.0257615 0.0201099)
(-0.0609243 0.0121089 0.0148794)
(-0.0688376 -0.00101146 0.00552115)
(-0.0706621 -0.0107021 -0.00374585)
(-0.0711863 -0.00150265 0.000226524)
(-0.0774204 0.000808269 0.0195247)
(0.0222375 0.0176917 0.00571865)
(0.0332881 0.0231221 0.00981844)
(0.0193755 0.00819417 0.00275856)
(0.0215426 0.0144493 0.00236801)
(0.0105833 0.00191157 0.00116128)
(0.0093852 0.0065031 0.00227821)
(0.00241765 0.000800404 0.00365854)
(0.000783182 0.00426867 0.00394705)
(-0.00237831 -0.000503605 0.00364139)
(-0.00474642 -0.000328135 0.00364304)
(-0.00685483 -0.00140732 0.00338665)
(-0.00763755 0.000944706 0.00414072)
(-0.00665089 0.0025491 0.00464843)
(-0.00450853 0.0033647 0.00559715)
(-0.00330968 0.00318027 0.00601836)
(-0.00295937 0.00286162 0.00625969)
(-0.00338926 0.00223958 0.00619424)
(-0.00404914 0.00189106 0.00605796)
(-0.00457343 0.00163776 0.00585064)
(-0.0049145 0.00151722 0.0056395)
(-0.00517925 0.00141905 0.00543497)
(-0.00536977 0.00136238 0.00525075)
(-0.00551458 0.00128948 0.00508193)
(-0.0056439 0.00121663 0.00495268)
(-0.00574779 0.00114197 0.00485793)
(-0.00583939 0.00108064 0.0048026)
(-0.00592439 0.00102723 0.00475289)
(-0.00597104 0.000996267 0.00471929)
(-0.005982 0.00098946 0.00470863)
(-0.00596647 0.00100485 0.00471697)
(-0.00594065 0.00103341 0.00473778)
(-0.00593485 0.00107972 0.00476483)
(-0.00599494 0.00117886 0.00479625)
(-0.0061203 0.00137519 0.00479706)
(-0.00624976 0.00168029 0.00472319)
(-0.00638039 0.00209413 0.00457951)
(-0.00653043 0.00260073 0.00438361)
(-0.00672297 0.00315062 0.00412372)
(-0.0069975 0.00359319 0.00369588)
(-0.00721892 0.00393785 0.00320616)
(-0.00713224 0.00437489 0.00279105)
(-0.00616899 0.00493261 0.00245172)
(-0.0044942 0.00575961 0.00199783)
(-0.00274075 0.00673592 0.00147796)
(-0.00237362 0.00862536 0.00103161)
(-0.00252654 0.0112761 0.000431124)
(0.000296235 0.0150782 0.00224333)
(0.0096786 0.016893 0.00686491)
(0.0169329 0.0144199 0.0107107)
(0.0110824 -0.00369188 0.0210003)
(-0.0178155 -0.00389219 0.0259127)
(-0.00714236 0.0550978 0.0403968)
(0.00496896 0.0807223 0.0384095)
(0.0151522 0.0930644 0.0525205)
(0.0191845 0.100698 0.0552474)
(0.0528994 0.0935484 0.05715)
(0.0618426 0.161632 0.0317135)
(0.140633 -0.0143922 0.0558484)
(0.20382 0.332768 0.0868524)
(-0.00541469 -0.0954392 0.0547813)
(0.0362011 -0.150407 0.175659)
(0.046808 0.0162027 0.0838537)
(-0.0232581 0.00593943 -0.00878871)
(-0.0387319 0.140811 -0.0278959)
(-0.0149713 0.187858 -0.00133701)
(-0.0127361 0.210784 0.00980703)
(0.00435417 0.222555 0.018954)
(0.00638339 0.224115 0.0332427)
(0.0115556 0.215843 0.0388589)
(0.0103636 0.203688 0.0419541)
(0.0112685 0.190145 0.0412214)
(0.00945552 0.171668 0.0429342)
(0.00194482 0.154419 0.04375)
(-0.00980063 0.136447 0.0367412)
(-0.01815 0.13002 0.0185555)
(-0.0244287 0.136458 -0.0110471)
(-0.024564 0.150897 -0.0320818)
(-0.0035544 0.169962 -0.0279391)
(0.0251149 0.177204 -0.00304183)
(0.0418999 0.18265 -0.00494792)
(0.0521263 0.187989 -0.0140987)
(0.0592531 0.197072 -0.00472662)
(0.0589212 0.194043 0.00742331)
(0.0518249 0.179281 0.0103365)
(0.0485565 0.161499 0.00466143)
(0.0483918 0.14112 0.00409429)
(0.0416017 0.124583 0.00567981)
(0.0239351 0.0931693 0.0045303)
(0.00408188 0.0662179 0.0060865)
(-0.0161623 0.06109 0.00755459)
(-0.0353793 0.0461388 0.0077883)
(-0.0505137 0.0336926 0.00092325)
(-0.0550923 0.023423 -0.00291878)
(-0.057216 0.016078 -0.00670001)
(-0.0602825 0.0179667 0.00315987)
(-0.0701143 0.00585435 0.0143479)
(0.020697 0.0126334 0.00433271)
(0.032587 0.0263166 0.00957953)
(0.0185753 0.00692694 0.00227225)
(0.0232141 0.0162241 0.00121086)
(0.0123146 -0.00188656 -0.00169225)
(0.00727686 0.0040835 -0.000801907)
(-0.000265661 -0.000794422 0.00254344)
(-0.00169642 0.0047758 0.00329231)
(-0.00270058 0.000795934 0.00407827)
(-0.00512148 0.00174913 0.00404672)
(-0.0072369 -0.000216417 0.00371616)
(-0.00847635 0.00078686 0.00454172)
(-0.00680851 0.00057258 0.00548948)
(-0.00442425 0.00108591 0.00671835)
(-0.00316065 0.00108183 0.0076372)
(-0.00272263 0.00140631 0.00830541)
(-0.00301136 0.00154456 0.00856378)
(-0.00361986 0.00175482 0.00854427)
(-0.00416361 0.00186282 0.00833576)
(-0.00456409 0.00195386 0.00805149)
(-0.00487984 0.00196383 0.0077512)
(-0.00509297 0.0019753 0.0074766)
(-0.00524466 0.0019454 0.00723211)
(-0.00536122 0.00189738 0.00702741)
(-0.00544555 0.00183412 0.00686188)
(-0.00549682 0.00177556 0.00673203)
(-0.00552712 0.00173056 0.00663752)
(-0.00553143 0.00170421 0.00656871)
(-0.00551554 0.001697 0.00651491)
(-0.00548244 0.00172154 0.00647487)
(-0.00544415 0.0017614 0.00644411)
(-0.00544014 0.00183272 0.00641099)
(-0.0055414 0.00198636 0.00636865)
(-0.00569722 0.00225927 0.00630389)
(-0.00584378 0.00263776 0.00618206)
(-0.00599613 0.00305945 0.00599759)
(-0.00615735 0.0034506 0.00573488)
(-0.00632834 0.00372974 0.005335)
(-0.00644426 0.00387609 0.00484865)
(-0.00651861 0.00382568 0.00432757)
(-0.00644079 0.00377646 0.00391122)
(-0.00557429 0.00384471 0.00382277)
(-0.00400513 0.00437934 0.00409061)
(-0.00243675 0.00505686 0.00458388)
(-0.00252599 0.00683258 0.00431349)
(-0.00334217 0.00945857 0.0032628)
(-0.00129601 0.0132603 0.00362804)
(0.00929777 0.0161676 0.00753454)
(0.0240884 0.0120581 0.0141153)
(0.0238208 -0.00309278 0.0315894)
(-0.0234331 -0.0207294 0.0448853)
(-0.0423908 0.00921715 0.0576264)
(-0.0168257 0.0508301 0.040162)
(-0.000860432 0.0776023 0.0368383)
(-0.00849449 0.0933955 0.0566738)
(0.0474948 0.0655457 0.0708236)
(0.0494771 0.147766 0.0483154)
(0.171402 -0.0703541 0.0424964)
(0.347703 0.442627 0.0631525)
(-0.0223897 -0.150326 0.0418889)
(0.0030338 -0.147467 0.104026)
(-0.0575787 0.178024 -0.0278654)
(-0.073704 0.125195 -0.0148935)
(-0.0761378 0.227633 -0.0208166)
(-0.0508654 0.252088 0.00268327)
(-0.0342627 0.271203 -0.00223437)
(-0.0221105 0.276992 0.00658494)
(-0.0139548 0.276314 0.0125715)
(-0.00467751 0.264479 0.0229357)
(-0.000516237 0.258284 0.0284355)
(0.00973687 0.248216 0.0316924)
(0.0152698 0.238802 0.0314089)
(0.0155466 0.225667 0.0291189)
(0.00863669 0.210635 0.0218919)
(-0.00258398 0.190785 0.0112539)
(-0.0081303 0.17352 0.00615856)
(-0.00407047 0.159727 0.0125127)
(0.013736 0.152948 0.0285886)
(0.0302652 0.151089 0.0346034)
(0.0427255 0.149757 0.0237491)
(0.0468049 0.159152 0.0155717)
(0.0501209 0.172688 0.0131915)
(0.0548953 0.176994 0.0115364)
(0.0534093 0.179858 0.0102816)
(0.0482328 0.180478 0.00696832)
(0.0455481 0.183598 0.00675604)
(0.0404909 0.186637 0.00840348)
(0.0274956 0.171294 0.00816027)
(0.00393341 0.162665 0.00942784)
(-0.0110742 0.134702 0.00343394)
(-0.0278813 0.125656 0.00342686)
(-0.035817 0.0996801 -0.00390488)
(-0.0383548 0.0864205 -0.00999628)
(-0.0435142 0.0630797 -0.0109654)
(-0.0499382 0.0367258 -0.0203633)
(-0.057985 0.0199371 -0.024761)
(0.0106533 0.00954542 -0.00160442)
(0.0310108 0.0282322 0.00733065)
(0.0173791 0.00791323 0.000541455)
(0.0249318 0.0202212 -0.000462859)
(0.0176519 -0.00132665 -0.00364424)
(0.00560961 0.00245295 -0.00587747)
(-0.00337597 -0.00214972 -0.00402218)
(-0.0038389 0.00480087 -0.00339908)
(-0.00617517 0.00125197 -0.00106729)
(-0.00740872 0.00289906 -0.000299321)
(-0.0090794 0.000293834 -7.31486e-06)
(-0.00979109 0.000257571 0.00109939)
(-0.00912949 -0.00108964 0.0020238)
(-0.0076756 -0.000573424 0.00307463)
(-0.00718105 -0.000314126 0.0040394)
(-0.00730637 0.000452974 0.00489047)
(-0.00786385 0.000986324 0.00553124)
(-0.00849797 0.00152801 0.00588753)
(-0.00892144 0.00184298 0.00595651)
(-0.00905997 0.00208557 0.00585919)
(-0.00916869 0.00219802 0.0056921)
(-0.00920476 0.00227403 0.00552478)
(-0.00918099 0.00228979 0.00537688)
(-0.00913644 0.00227388 0.00525046)
(-0.00908142 0.00223389 0.00514034)
(-0.00902112 0.00219195 0.00504676)
(-0.0089563 0.00215631 0.00497374)
(-0.00888609 0.00213859 0.0049115)
(-0.00880616 0.00214735 0.00485046)
(-0.00871034 0.00219499 0.00479052)
(-0.00861507 0.00226582 0.00473166)
(-0.0086077 0.00239049 0.00466086)
(-0.00874938 0.00259227 0.00458346)
(-0.00896704 0.00287846 0.00447674)
(-0.00911083 0.00323552 0.00432482)
(-0.00918049 0.00362608 0.00412645)
(-0.00916638 0.00401526 0.00386367)
(-0.00914795 0.0042691 0.00350484)
(-0.00915601 0.00421098 0.00307259)
(-0.00909718 0.0038082 0.00257967)
(-0.00897561 0.00334287 0.00212539)
(-0.00848021 0.00296144 0.00195908)
(-0.00754028 0.00316612 0.00216492)
(-0.0068364 0.00415983 0.00276745)
(-0.00794011 0.00672712 0.00266943)
(-0.00938473 0.0102701 0.00183309)
(-0.00750296 0.0151015 0.00214367)
(0.0047031 0.0198054 0.00618378)
(0.024134 0.0186038 0.01393)
(0.0317423 0.0116723 0.0308944)
(-0.0160536 -0.0123504 0.0565929)
(-0.0458437 -0.0418283 0.0600368)
(-0.0418931 -0.014073 0.0582269)
(-0.0290552 -0.0532655 0.0259021)
(-0.0595507 0.0858124 0.0261824)
(-0.0401431 -0.116303 0.00537342)
(-0.0162188 0.211584 -0.00184491)
(0.0547513 -0.270487 0.00655881)
(0.355744 0.507244 0.0392247)
(-0.0290283 -0.160422 0.0321188)
(-0.0902595 -0.0701403 0.0265903)
(-0.0920937 0.181244 -0.0323654)
(-0.103925 0.13261 -0.0199922)
(-0.078266 0.208366 -0.0154632)
(-0.0423891 0.207099 -0.00796877)
(-0.0179495 0.202249 -0.016287)
(-0.00824341 0.193854 -0.0152899)
(-0.000814577 0.191762 -0.00901139)
(-0.00108646 0.194114 0.00584949)
(-0.00478794 0.190574 0.0200325)
(-0.000489537 0.16872 0.0280669)
(0.00658225 0.153001 0.0275695)
(0.0148524 0.140945 0.0230027)
(0.0251735 0.127443 0.017143)
(0.0309732 0.113472 0.0163876)
(0.0323265 0.0983611 0.0187166)
(0.0318543 0.0841944 0.0272877)
(0.0336699 0.0779968 0.0315907)
(0.0372401 0.0759406 0.0304287)
(0.0446607 0.0814633 0.0227501)
(0.0501341 0.0850513 0.0141058)
(0.0522861 0.0903331 0.0114947)
(0.0609845 0.0862546 0.0101153)