/*--------------------------------*- C++ -*----------------------------------*\
| =========                 |                                                 |
| \\      /  F ield         | OpenFOAM: The Open Source CFD Toolbox           |
|  \\    /   O peration     | Version:  2.3.0                                 |
|   \\  /    A nd           | Web:      www.OpenFOAM.org                      |
|    \\/     M anipulation  |                                                 |
\*---------------------------------------------------------------------------*/
FoamFile
{
    version     2.0;
    format      ascii;
    class       volVectorField;
    location    "28";
    object      U.air;
}
// * * * * * * * * * * * * * * * * * * * * * * * * * * * * * * * * * * * * * //

dimensions      [0 1 -1 0 0 0 0];

internalField   nonuniform List<vector> 
6144
(
(0.0102456 0.0185051 -0.00207683)
(0.0102948 -0.00389955 -0.00315151)
(0.00499582 -0.00294934 -0.00340976)
(0.00462449 -0.00415478 -0.00314023)
(0.00301857 -0.00357964 -0.0026682)
(0.00283778 -0.0020371 -0.00246957)
(0.00200333 -0.000935308 -0.00178287)
(0.00203483 0.00115465 -0.00111437)
(0.00186093 0.0018638 -0.000461142)
(0.0016215 0.00333661 0.00015196)
(0.00145826 0.00437671 0.00059502)
(0.0015519 0.00478126 0.0010108)
(0.00175704 0.00446638 0.00120259)
(0.00191219 0.00366033 0.00136465)
(0.00199919 0.00266182 0.00121246)
(0.00207261 0.00177813 0.00102084)
(0.00211139 0.00104704 0.00071548)
(0.00216834 0.000583057 0.000473147)
(0.00220864 0.000212566 0.000242249)
(0.00222774 1.61992e-05 0.000119542)
(0.00223125 -0.000119578 3.04253e-05)
(0.00222094 -0.000149382 -6.78486e-06)
(0.0022005 -0.000150467 -1.05981e-05)
(0.00217457 -0.000110858 1.67111e-05)
(0.00214197 -6.34386e-05 6.77262e-05)
(0.00210698 -1.23873e-05 0.000136434)
(0.00207094 3.04881e-05 0.000217921)
(0.00203229 5.59095e-05 0.00031561)
(0.0019922 7.64191e-05 0.000427227)
(0.00195123 6.95209e-05 0.000532947)
(0.0019169 8.49715e-05 0.000637919)
(0.00188009 3.81666e-05 0.000718348)
(0.00184585 8.10619e-05 0.000801672)
(0.00180437 4.46639e-06 0.000857244)
(0.00177062 0.000131885 0.000944123)
(0.0017241 1.93893e-07 0.00100184)
(0.00168262 0.000235405 0.00111956)
(0.00162833 -1.19952e-05 0.0012031)
(0.00157775 0.000329138 0.00136611)
(0.00152539 -0.000153622 0.00147436)
(0.00148435 0.000285564 0.00162453)
(0.00145029 -0.000544539 0.00167022)
(0.00145014 0.00024479 0.00164962)
(0.00147212 -0.00113887 0.00156602)
(0.00154339 0.000774236 0.00129988)
(0.00155876 -0.00155448 0.00116764)
(0.00180141 0.0022831 0.0010698)
(0.00170438 -0.00214356 0.00111929)
(0.00210075 0.00395235 0.00136249)
(0.0013985 -0.00395109 0.000931151)
(0.00151848 0.00895543 -0.00115305)
(0.00208691 -0.00274119 -0.00163443)
(0.00404911 0.0213214 -0.00889281)
(0.00805311 0.0053461 -0.0110785)
(0.0133296 0.0476422 -0.00922383)
(0.0144596 -0.0341855 -0.0169505)
(0.0216647 0.0557651 -0.0140109)
(0.00284211 -0.0279844 -0.0349171)
(-0.0370337 0.114356 -0.0872655)
(0.0260705 0.0369357 -0.114262)
(0.0882405 0.32974 -0.00364527)
(0.054038 0.352283 -0.0163744)
(0.036271 -0.147299 -0.0149562)
(0.0364313 -0.163464 -0.00990514)
(0.0302058 -0.16295 -0.00631601)
(0.0207376 -0.16942 -0.00368306)
(0.0132502 -0.169087 -0.00268752)
(0.00881704 -0.16183 -0.00249344)
(0.00445724 -0.14768 -0.00276961)
(-0.000363085 -0.12868 -0.00301903)
(-0.00481083 -0.107175 -0.00278956)
(-0.00792373 -0.0849958 -0.00231552)
(-0.00908861 -0.064527 -0.00176019)
(-0.00674686 -0.0484033 -0.000357773)
(-0.00281194 -0.0382376 0.00131244)
(0.000395232 -0.0366957 0.0028129)
(0.00181332 -0.0388768 0.00356368)
(0.00290314 -0.0440946 0.00422662)
(0.0032898 -0.0505161 0.00472692)
(0.00338966 -0.0566464 0.00502616)
(0.00274727 -0.0627563 0.0049805)
(0.00224379 -0.0674644 0.00477957)
(0.00217801 -0.0723552 0.00468512)
(0.00213475 -0.077058 0.00385497)
(0.0031652 -0.0812264 0.00448615)
(0.00409012 -0.0882686 0.00420102)
(0.00412246 -0.0951538 0.00403189)
(0.0049366 -0.104433 0.00503692)
(0.00270635 -0.113783 0.00147473)
(-0.00037552 -0.112644 -0.00275183)
(-0.000747233 -0.104807 -0.00433214)
(-0.00464937 -0.0901008 -0.00806308)
(-0.0139286 -0.057661 -0.0247075)
(-0.0160776 0.00497528 -0.00209158)
(-0.0160077 0.0271788 0.0365378)
(-0.015869 0.0210417 0.0545099)
(0.0218672 0.0228037 0.00128403)
(0.0210558 0.00860579 0.000147756)
(0.0121548 0.00742179 -0.00237071)
(0.0110859 0.005334 -0.000262095)
(0.00692828 0.00176141 0.000702354)
(0.00597441 0.00117727 0.00144371)
(0.00312654 -0.000301328 0.00243752)
(0.00249749 0.00132138 0.00241108)
(0.00199305 0.00239155 0.00243022)
(0.00179364 0.00469864 0.00269656)
(0.00207395 0.00571748 0.00311274)
(0.00259708 0.00607758 0.00364855)
(0.0031704 0.00556795 0.00389676)
(0.00360223 0.00479914 0.00404661)
(0.0037734 0.00368658 0.00402928)
(0.00386956 0.00270284 0.00398467)
(0.00384716 0.00179646 0.00390192)
(0.00390897 0.00119451 0.00378239)
(0.00394835 0.000687198 0.00363985)
(0.00395997 0.000390329 0.00355763)
(0.0039398 0.000171297 0.00350466)
(0.00389332 8.89391e-05 0.00350128)
(0.00383012 5.21566e-05 0.00353149)
(0.00375288 7.21451e-05 0.00359338)
(0.00366685 0.000106811 0.00367651)
(0.00357672 0.000149818 0.00377561)
(0.00348554 0.000186787 0.00388578)
(0.00339177 0.000210053 0.00400083)
(0.00329945 0.000229803 0.00411909)
(0.00320133 0.000222617 0.0042335)
(0.00312088 0.000242769 0.00433101)
(0.00302841 0.000182305 0.00440136)
(0.00296336 0.000232022 0.00446953)
(0.00285281 0.000119372 0.00452752)
(0.00279866 0.000270975 0.00459489)
(0.00267359 6.3449e-05 0.0046521)
(0.00262526 0.000352797 0.00473013)
(0.00249167 -3.4171e-05 0.00479814)
(0.00246809 0.00040496 0.00489163)
(0.00235197 -0.000275934 0.00496467)
(0.00237401 0.000331337 0.00504041)
(0.0022648 -0.000666668 0.00505715)
(0.00236986 0.000484805 0.00512134)
(0.00213882 -0.00104877 0.00503536)
(0.0025146 0.00146292 0.00519568)
(0.00202125 -0.00124523 0.00504295)
(0.00286257 0.00325455 0.00524643)
(0.00219667 -0.00245871 0.00519232)
(0.00318626 0.00423434 0.00509659)
(0.000476711 -0.00527181 0.00451367)
(0.00209878 0.00656148 0.00256865)
(0.00208497 -0.00714038 -0.000664148)
(-0.000749782 0.0235639 -0.0030459)
(0.0160934 0.00419289 0.00167)
(0.045177 0.0425562 0.0103485)
(0.064806 -0.0546846 -0.004642)
(-0.028363 0.0255764 -0.0101302)
(-0.0123514 0.00581404 -0.0198519)
(0.0394459 0.186566 -0.00466187)
(0.165595 0.0157844 -0.0738792)
(0.0997088 0.340906 0.0140379)
(0.028465 0.42422 -0.00396318)
(-0.00567928 -0.106558 -0.0125448)
(0.015997 -0.0900091 0.00103554)
(0.0100325 -0.110387 0.00473118)
(-0.00755106 -0.132726 0.00474066)
(-0.0173533 -0.134116 0.00365664)
(-0.0225718 -0.128506 0.00220261)
(-0.0259994 -0.117521 0.000278681)
(-0.0276947 -0.102252 -0.0009117)
(-0.0270999 -0.086682 -0.00103329)
(-0.0255 -0.0682501 -0.00130281)
(-0.0225195 -0.0510948 0.00094537)
(-0.0181253 -0.0385758 0.00456662)
(-0.0114465 -0.0318867 0.00673269)
(-0.00513568 -0.0301638 0.00911415)
(-0.00105736 -0.030329 0.0119466)
(-0.0003552 -0.0325246 0.0148463)
(-0.00206406 -0.0370804 0.0165668)
(-0.00451451 -0.0424464 0.01706)
(-0.00664493 -0.0477813 0.0165959)
(-0.00777762 -0.052504 0.0156611)
(-0.00786548 -0.0563685 0.0143554)
(-0.00655065 -0.0599045 0.013347)
(-0.00406947 -0.063482 0.0130316)
(-0.000793461 -0.0691118 0.0135071)
(0.00152007 -0.0779706 0.0146042)
(0.00252248 -0.088763 0.0135979)
(-0.000881955 -0.100201 0.010573)
(-0.00833473 -0.101875 0.000763165)
(-0.0109351 -0.0929309 -0.00227314)
(-0.0191774 -0.0803508 -0.0068021)
(-0.0289256 -0.0518516 -0.0238839)
(-0.0353064 0.0025083 -0.00267522)
(-0.0319713 0.0244272 0.0378677)
(-0.0324094 0.0176769 0.0574555)
(0.0268475 0.0259743 0.00277144)
(0.0263917 0.0162675 0.00209466)
(0.0177644 0.0145008 -0.000610659)
(0.0154 0.0127059 0.00204066)
(0.00954911 0.00748111 0.00241842)
(0.00706627 0.00527578 0.0031663)
(0.00247886 0.00151233 0.00374314)
(0.000831706 0.00241362 0.00347315)
(-0.000275898 0.00345856 0.00322991)
(-2.94359e-05 0.00543599 0.00360296)
(0.000707206 0.00582662 0.00402224)
(0.00171341 0.006001 0.00443159)
(0.00245491 0.00551047 0.00459112)
(0.0030667 0.00504733 0.00466056)
(0.00338011 0.00417585 0.00461042)
(0.00351831 0.0033948 0.00458172)
(0.00344023 0.00253668 0.0045549)
(0.00339856 0.00190559 0.00455601)
(0.00328915 0.00133377 0.00456675)
(0.00319844 0.000965258 0.00458356)
(0.00306783 0.000671904 0.00461025)
(0.00293748 0.000520714 0.00465384)
(0.00280517 0.0004215 0.00470654)
(0.00268024 0.000390898 0.00477127)
(0.00255993 0.000389657 0.00483868)
(0.0024467 0.000410282 0.00490828)
(0.00233851 0.000436316 0.00497921)
(0.0022306 0.00045988 0.00505082)
(0.00212587 0.000481531 0.00512369)
(0.00201624 0.000481239 0.0051968)
(0.0019145 0.000494014 0.00527358)
(0.00178452 0.000442484 0.00534683)
(0.00168382 0.000478887 0.0054233)
(0.00151696 0.000360717 0.00548617)
(0.00143693 0.000474388 0.00555827)
(0.00124037 0.000249652 0.00561689)
(0.00119066 0.000490766 0.00569384)
(0.000972821 0.000101092 0.00575789)
(0.000971691 0.000520936 0.00583519)
(0.00077055 -5.04856e-05 0.00590324)
(0.000802827 0.000683633 0.00593803)
(0.000539569 -5.85622e-06 0.00595347)
(0.00066149 0.00134058 0.00597143)
(0.000245827 0.00028069 0.00594121)
(0.000754452 0.00262041 0.00606584)
(0.00025742 2.21195e-05 0.00606689)
(0.00156047 0.00391854 0.00629142)
(0.00092039 -0.00231267 0.00613726)
(0.00309386 0.00362358 0.00567123)
(-0.000567556 -0.00596939 0.00616943)
(0.00193232 0.00185504 0.00442717)
(-0.0043441 -0.00748022 0.00283966)
(-0.00659789 0.0238758 0.00814619)
(0.0216858 -0.0407844 0.0215003)
(0.0545583 -0.00581792 0.0152226)
(0.0789412 -0.0729107 -0.0015863)
(-0.0478943 0.0648771 -0.00208268)
(-0.0696572 -0.0930919 -0.0184596)
(-0.0524034 0.200348 -0.0258188)
(0.183607 -0.0198712 -0.0578763)
(0.145366 0.34716 0.018429)
(0.0794564 0.457341 0.00870246)
(0.0796672 -0.127755 0.00889885)
(0.0603142 -0.0746115 0.0141649)
(0.0318764 -0.105759 0.0133264)
(0.0128243 -0.120959 0.0105143)
(-0.00367533 -0.116906 0.00614125)
(-0.0172588 -0.106288 0.00233762)
(-0.0260247 -0.0923552 6.7688e-05)
(-0.0322293 -0.0730766 -0.00294083)
(-0.0378385 -0.0512356 -0.00093217)
(-0.0389061 -0.03655 0.00348652)
(-0.0357491 -0.026429 0.00308653)
(-0.0290053 -0.0133613 0.00194865)
(-0.0223888 -0.00311647 0.00892508)
(-0.0203837 0.000287471 0.0209087)
(-0.0204173 -0.00303252 0.0287233)
(-0.0206784 -0.00892151 0.0305195)
(-0.0214398 -0.0152189 0.0281439)
(-0.0219352 -0.0209163 0.0243486)
(-0.0220101 -0.0258761 0.0209108)
(-0.021403 -0.029842 0.0180684)
(-0.0198994 -0.0324753 0.0159855)
(-0.0170282 -0.0344231 0.0152309)
(-0.0125091 -0.0371396 0.0155401)
(-0.00622378 -0.042795 0.017698)
(-0.000786318 -0.0542816 0.0185504)
(0.00214002 -0.0671532 0.0166994)
(-0.00154861 -0.0807126 0.0111154)
(-0.0107877 -0.083708 -0.00133611)
(-0.013731 -0.0739996 -0.00496655)
(-0.0264661 -0.0633979 -0.00985497)
(-0.0483637 -0.0323084 -0.0261018)
(-0.0565386 0.014952 1.74548e-05)
(-0.0531574 0.0258076 0.037666)
(-0.056676 0.0167545 0.0558922)
(0.030125 0.0275948 0.00288614)
(0.0305208 0.0206778 0.00353243)
(0.021455 0.0175567 0.00010803)
(0.0194975 0.0165257 0.00207452)
(0.0135056 0.0107457 0.00174082)
(0.0107847 0.00872553 0.00280625)
(0.00324286 0.00200034 0.00311815)
(-0.000147211 0.00128801 0.00267431)
(-0.00208055 0.00168375 0.00253587)
(-0.00129894 0.00419192 0.00331681)
(-0.0003749 0.00464041 0.00416109)
(0.000499936 0.00523356 0.00477838)
(0.00121535 0.00510191 0.00488684)
(0.00188366 0.00491262 0.00488855)
(0.00224048 0.00420884 0.00474722)
(0.0023938 0.00356123 0.00471509)
(0.00229534 0.00279318 0.00471403)
(0.00221423 0.00223304 0.00474919)
(0.00206907 0.00168226 0.0047739)
(0.00192585 0.0012951 0.0047979)
(0.00175196 0.000962636 0.00482582)
(0.00158612 0.000747708 0.00486883)
(0.00141853 0.000593093 0.0049197)
(0.00124872 0.000511919 0.00497593)
(0.00108992 0.00046284 0.0050371)
(0.000944767 0.000447344 0.00510232)
(0.000811253 0.000450213 0.0051696)
(0.000685305 0.000462984 0.00523785)
(0.000567305 0.000483137 0.00530724)
(0.00045152 0.000492693 0.00537595)
(0.000349991 0.000518821 0.00544788)
(0.000225942 0.000490215 0.00551373)
(0.000134387 0.000531699 0.00558788)
(-2.93541e-05 0.000426676 0.00564312)
(-9.30767e-05 0.000535111 0.00571186)
(-0.000294788 0.00032003 0.00575883)
(-0.000314453 0.00055682 0.0058263)
(-0.000553099 0.000207416 0.00586635)
(-0.000516598 0.000680323 0.00591897)
(-0.000756997 0.000227148 0.00592884)
(-0.000736491 0.0010337 0.00592323)
(-0.00102075 0.000522114 0.00589845)
(-0.000979115 0.00174745 0.00587867)
(-0.00121423 0.000814658 0.0059004)
(-0.000872995 0.0026208 0.00601652)
(-0.00107291 0.000145641 0.00600527)
(0.000291716 0.00323338 0.0060725)
(-0.000424159 -0.00184539 0.00575654)
(0.00171641 0.00385038 0.00474816)
(-0.000906802 -0.00244352 0.00493577)
(-0.00188706 0.00296773 0.00449341)
(-0.0112271 -0.00508208 0.00581544)
(0.0117794 0.00633876 0.0177691)
(0.0409482 -0.0551587 0.0304867)
(0.0499198 -0.0140617 0.0284436)
(0.0411316 -0.0839224 0.0169717)
(-0.0314385 0.114428 -0.0065333)
(-0.0765859 -0.106254 -0.0285601)
(-0.0312257 0.275636 -0.0497602)
(0.210985 -0.0558926 -0.0344197)
(0.161381 0.374459 0.0118056)
(0.104458 0.464644 0.00624593)
(0.125833 -0.105974 0.0147359)
(0.0450554 0.00728396 0.0138839)
(0.00151272 -0.0684059 0.0132531)
(-0.00822468 -0.0621803 0.0106315)
(-0.0238081 -0.070057 0.00424199)
(-0.0363085 -0.0659585 -0.000244892)
(-0.0446333 -0.052184 -0.00102475)
(-0.047523 -0.0388508 -0.00192622)
(-0.0490454 -0.020339 -0.00652598)
(-0.0493863 0.0036902 -0.00585624)
(-0.0492301 0.0256254 0.0067459)
(-0.0471315 0.0353809 0.0221933)
(-0.0448851 0.0365285 0.0319956)
(-0.0419655 0.0295903 0.0344557)
(-0.0398271 0.020813 0.0310197)
(-0.036719 0.0118523 0.0256328)
(-0.0339407 0.00380664 0.0201065)
(-0.0321034 -0.00234239 0.0160735)
(-0.0307144 -0.00645594 0.0134247)
(-0.0294305 -0.00911837 0.011862)
(-0.0279813 -0.0101425 0.0113359)
(-0.0250331 -0.0113985 0.0118222)
(-0.0190377 -0.0139231 0.013168)
(-0.00964105 -0.020174 0.0153175)
(-0.000214879 -0.0313539 0.016266)
(0.00511346 -0.0444557 0.0145442)
(0.0010086 -0.0593154 0.00511716)
(-0.00671901 -0.0603843 -0.00677493)
(-0.0162784 -0.0493506 -0.00971927)
(-0.037458 -0.0356323 -0.0158541)
(-0.0613871 -0.00723047 -0.0254417)
(-0.0669512 0.0281287 0.00663784)
(-0.0640105 0.027801 0.0394877)
(-0.0704621 0.0177544 0.0545479)
(0.0314273 0.0281048 0.00542821)
(0.0329884 0.0234833 0.00587423)
(0.0237339 0.0188733 0.00215099)
(0.0220491 0.0176189 0.00318287)
(0.0158378 0.0113568 0.00173924)
(0.0141401 0.0106703 0.0024112)
(0.00688763 0.00350562 0.00124415)
(0.00112396 0.00205649 0.0011987)
(-0.00367629 -0.00104122 0.00152298)
(-0.00346609 0.0016665 0.00274623)
(-0.00236912 0.0025665 0.00404596)
(-0.00165214 0.00414065 0.00496261)
(-0.000846059 0.00460213 0.00503477)
(-8.40559e-05 0.00475281 0.00495827)
(0.000366077 0.0041677 0.00469409)
(0.000444396 0.00350636 0.00462094)
(0.000193237 0.0027542 0.00460615)
(-6.95185e-05 0.00224817 0.0046674)
(-0.000338792 0.00177155 0.00469882)
(-0.000567493 0.0014281 0.00471482)
(-0.000799093 0.00109747 0.00471623)
(-0.000998457 0.000846511 0.00472627)
(-0.00119017 0.000631091 0.00474137)
(-0.00136463 0.000492322 0.00476953)
(-0.00151994 0.000407543 0.0048076)
(-0.00165759 0.000366599 0.00485348)
(-0.00178156 0.000352766 0.00490348)
(-0.00189375 0.00035473 0.00495634)
(-0.00199443 0.000367862 0.00501171)
(-0.00208804 0.000374347 0.00506501)
(-0.0021682 0.000399058 0.00511277)
(-0.00226212 0.000379149 0.0051466)
(-0.0023283 0.000434287 0.00518933)
(-0.00247059 0.000346576 0.00520132)
(-0.00250935 0.0004683 0.0052403)
(-0.00269421 0.000264364 0.00523664)
(-0.00268752 0.000523913 0.00526827)
(-0.00292211 0.000216455 0.00524492)
(-0.00288068 0.000721561 0.00524827)
(-0.00314532 0.000382409 0.00518908)
(-0.00314905 0.00118565 0.00512204)
(-0.00342121 0.000799646 0.00504891)
(-0.00341285 0.00182272 0.00497915)
(-0.00354363 0.00100832 0.0049908)
(-0.00314182 0.00240975 0.0051154)
(-0.00318918 0.000228698 0.00502)
(-0.00186539 0.00271638 0.00510593)
(-0.00257726 -0.00085472 0.00449601)
(-0.000574638 0.00396608 0.0025053)
(-0.00205337 0.00013886 0.00192851)
(-0.000296917 0.00561476 0.00102041)
(-0.0105649 -0.0122912 0.00636882)
(0.0167194 -0.0250299 0.0208016)
(0.0446261 -0.0604034 0.0303263)
(0.0492034 -0.0241726 0.032753)
(0.0291976 -0.0966965 0.0401292)
(-0.0172454 0.0453435 0.0215096)
(-0.0984586 -0.140408 -0.0178817)
(-0.047593 0.351426 -0.114726)
(0.193195 -0.0762765 0.00312078)
(0.167264 0.415067 0.0134031)
(0.0846991 0.579373 0.00452352)
(0.077776 0.45016 0.0155721)
(0.0161668 0.515278 0.0116289)
(0.00968311 0.429805 0.0121494)
(-0.0133604 0.444845 0.000682825)
(-0.0299115 0.433959 -0.00430042)
(-0.0444994 0.44602 -0.00813835)
(-0.0535064 0.470874 -0.00914248)
(-0.0647473 0.495381 -0.00199203)
(-0.0706403 0.520918 0.0123599)
(-0.0709833 0.528139 0.0228168)
(-0.068876 0.525907 0.0314612)
(-0.062754 0.515868 0.0318809)
(-0.0560188 0.479404 0.0260316)
(-0.0483601 0.337705 0.0187089)
(-0.0424495 0.0598967 0.0144296)
(-0.0353315 0.0314123 0.0082456)
(-0.0307578 0.024472 0.00502631)
(-0.0289723 0.0167677 0.00409723)
(-0.027507 0.0101757 0.00373297)
(-0.0263153 0.00488744 0.0036401)
(-0.0260072 0.00180943 0.00484004)
(-0.0247821 0.0018489 0.00661522)
(-0.0191012 0.00271213 0.00803383)
(-0.00924505 -0.000401505 0.00977938)
(0.0023384 -0.00782452 0.0123434)
(0.00990929 -0.0170153 0.0124742)
(0.00668518 -0.0293253 0.00503618)
(-0.00157694 -0.0312773 -0.00390794)
(-0.0149045 -0.0246168 -0.00558384)
(-0.0427186 -0.01234 -0.0173685)
(-0.0695755 0.0156885 -0.0219144)
(-0.0701093 0.0358578 0.0147319)
(-0.0716385 0.0277838 0.0405078)
(-0.0852051 0.0152974 0.0533812)
(0.0292291 0.0281495 0.0111924)
(0.0327371 0.025239 0.00806464)
(0.0235429 0.0199399 0.00438643)
(0.0230442 0.0187823 0.00530601)
(0.0163697 0.010265 0.00322444)
(0.0151414 0.0108511 0.00269423)
(0.00899163 0.00419952 0.000955198)
(0.00430679 0.00405172 0.000969316)
(-0.00228744 -0.00196866 0.00115945)
(-0.00489725 -0.00104376 0.00212571)
(-0.00441667 -0.000458917 0.00349186)
(-0.00346965 0.00217686 0.00489516)
(-0.00213435 0.00347821 0.00513807)
(-0.000994276 0.00409854 0.00525289)
(-0.000179795 0.00368095 0.00516199)
(-1.99884e-05 0.00307327 0.00514598)
(-0.000389215 0.00238164 0.00506001)
(-0.000801299 0.00197493 0.00505317)
(-0.00119706 0.00165075 0.00499149)
(-0.00150952 0.00144367 0.00492819)
(-0.00179198 0.00121376 0.00484679)
(-0.00202752 0.00102877 0.00477095)
(-0.00225061 0.00085425 0.00469864)
(-0.00244615 0.000723494 0.00463819)
(-0.00261043 0.000624243 0.00458757)
(-0.00273962 0.00055982 0.00455212)
(-0.00284109 0.000525268 0.0045296)
(-0.00292259 0.000516763 0.00451694)
(-0.00298894 0.000527709 0.00451102)
(-0.00304475 0.000537802 0.00450515)
(-0.00309026 0.000570587 0.00449626)
(-0.00316095 0.00055237 0.00447133)
(-0.0031916 0.000613983 0.00446871)
(-0.00331046 0.00053344 0.00443523)
(-0.00329281 0.000682377 0.00445343)
(-0.00347332 0.000519685 0.00439135)
(-0.00340829 0.000821477 0.00440981)
(-0.00366648 0.000594664 0.00431187)
(-0.00358539 0.00110372 0.00430052)
(-0.00386438 0.000844486 0.00416385)
(-0.00385798 0.00153535 0.00407425)
(-0.0040519 0.00112905 0.00394798)
(-0.00402473 0.00189199 0.00387125)
(-0.00394493 0.000978641 0.00388713)
(-0.00349144 0.00214619 0.00408971)
(-0.00317572 0.000452903 0.00412606)
(-0.00184772 0.00269903 0.00433392)
(-0.00206371 0.000747742 0.00378718)
(4.53316e-05 0.00507646 0.00191485)
(0.000287987 0.00352632 0.000649941)
(0.00778217 0.0103764 0.000194083)
(0.0146063 -0.00749756 0.00826115)
(0.0320886 -0.0338962 0.0366002)
(0.0442487 -0.0282896 0.0373469)
(0.0277111 0.021201 0.0408589)
(-0.0256823 -0.0211312 0.0372945)
(-0.0482307 0.067262 0.0635033)
(-0.162164 -0.137789 0.0320823)
(-0.00323067 0.239453 -0.1477)
(0.159624 -0.0795948 0.0100401)
(0.184797 0.436501 0.0149863)
(0.0870735 0.575183 0.00406197)
(0.0910579 0.471334 0.0170558)
(0.0282447 0.519364 0.0116277)
(0.0195151 0.464101 0.0134848)
(-0.028804 0.490916 -0.000623885)
(-0.0426042 0.502745 -0.00491659)
(-0.0618589 0.529649 -0.00197671)
(-0.0739573 0.547574 0.00613251)
(-0.0837494 0.563678 0.0161949)
(-0.0867643 0.584296 0.0215456)
(-0.0853772 0.581999 0.0220241)
(-0.0788034 0.567665 0.017516)
(-0.0682602 0.558924 0.00845562)
(-0.0605691 0.552464 0.00125495)
(-0.0473928 0.56108 -0.00533823)
(-0.0357344 0.562034 -0.00933023)
(-0.0268643 0.564345 -0.0106105)
(-0.0189659 0.550794 -0.0102764)
(-0.0181368 0.541921 -0.00977599)
(-0.0201319 0.528386 -0.00862991)
(-0.0241182 0.510436 -0.0068131)
(-0.0281028 0.500628 -0.00426173)
(-0.0258754 0.494535 -0.00188264)
(-0.0178267 0.495657 0.000541544)
(-0.00938703 0.494384 0.00371801)
(-0.00196854 0.466341 0.00883432)
(0.000120344 0.324939 0.0120484)
(-0.000309724 0.0283876 0.0112195)
(-0.0117228 0.00418555 0.00562377)
(-0.0309806 0.0109622 -0.00530847)
(-0.0545433 0.0235216 -0.0153019)
(-0.0708297 0.0354743 -0.00435282)
(-0.0689373 0.0325325 0.0234323)
(-0.0786595 0.0272215 0.0410337)
(-0.0919759 0.0164327 0.0520166)
(0.0232129 0.0267655 0.0111215)
(0.0315246 0.0279165 0.0081594)
(0.0204318 0.0209631 0.00579988)
(0.0227107 0.0213065 0.00730926)
(0.0144416 0.00986428 0.00514044)
(0.0143684 0.010015 0.0045221)
(0.00853663 0.00184936 0.00320569)
(0.00547165 0.00373268 0.00226181)
(-0.000715103 -0.00184338 0.00200695)
(-0.00521437 -0.00168709 0.00265407)
(-0.00687807 -0.00253513 0.00350232)
(-0.00704286 0.000505313 0.00482874)
(-0.00553742 0.00268617 0.00532448)
(-0.00362371 0.00339083 0.00600091)
(-0.00258399 0.00313509 0.00623287)
(-0.00245176 0.00266297 0.00633807)
(-0.00307155 0.00207249 0.0061493)
(-0.00379072 0.00174663 0.00598258)
(-0.00433608 0.00152864 0.0057464)
(-0.00469967 0.00143803 0.00553721)
(-0.00497307 0.00135148 0.00533969)
(-0.00517023 0.00130695 0.00517161)
(-0.00532623 0.00125249 0.00502242)
(-0.00545127 0.00121298 0.00490356)
(-0.00554043 0.00117684 0.00481141)
(-0.00560497 0.00114867 0.00474839)
(-0.0056606 0.00112703 0.00471304)
(-0.00568545 0.00112153 0.00468153)
(-0.00568828 0.00112816 0.00464855)
(-0.00567655 0.00113753 0.00462179)
(-0.00564544 0.00116675 0.00460277)
(-0.00561759 0.00115393 0.0045823)
(-0.00558872 0.00119633 0.00457834)
(-0.00563714 0.00113914 0.00455882)
(-0.00560409 0.00128354 0.00457936)
(-0.00571081 0.00120333 0.00452791)
(-0.00566066 0.00150272 0.00455649)
(-0.00580854 0.00141221 0.00447763)
(-0.00575864 0.00185673 0.00448483)
(-0.00589717 0.00170007 0.0043497)
(-0.00586816 0.00220717 0.00428293)
(-0.00590614 0.0017626 0.00413418)
(-0.00578412 0.00227213 0.00407513)
(-0.00568543 0.00124166 0.00400855)
(-0.00536092 0.00230543 0.00414223)
(-0.00503431 0.00089719 0.00417359)
(-0.00439628 0.00312538 0.00435864)
(-0.00447306 0.00209851 0.00417602)
(-0.00357326 0.00697335 0.00250485)
(-0.00186004 0.00980211 0.000980363)
(0.00952664 0.0178826 0.000449127)
(0.025058 0.0122548 0.00706038)
(0.00567797 0.00914966 0.0437364)
(-0.0215294 -0.0034682 0.0643484)
(0.00142974 0.0515433 0.0816399)
(-0.0119414 0.00165995 0.0818393)
(0.0568085 0.0917654 0.182838)
(-0.132892 -0.14728 0.112082)
(0.0259712 0.120403 -0.158859)
(0.10128 -0.0183735 0.0117575)
(0.16195 0.50759 0.0162902)
(0.0758132 0.608402 0.00911627)
(0.0855152 0.496172 0.022024)
(0.0400829 0.563042 0.0212588)
(0.00985235 0.522848 0.0184488)
(-0.0251292 0.501578 0.0116513)
(-0.051646 0.542701 0.00841196)
(-0.0766493 0.569269 0.00897906)
(-0.0876215 0.5616 0.00985685)
(-0.0960037 0.519221 0.00784956)
(-0.0991859 0.61192 0.000255287)
(-0.0940366 0.608223 -0.00644668)
(-0.0824675 0.605934 -0.0150635)
(-0.0686204 0.460139 -0.0173697)
(-0.0529828 0.44729 -0.0173705)
(-0.0232682 0.676526 -0.0188629)
(-0.0121176 0.692438 -0.017699)
(0.00494802 0.643414 -0.0163245)
(0.0200943 0.660389 -0.015247)
(0.0296259 0.636079 -0.0141294)
(0.0296268 0.614977 -0.0124391)
(0.0230128 0.618721 -0.0100141)
(0.00932019 0.576639 -0.00798959)
(-0.00289551 0.557938 -0.00693977)
(-0.00790109 0.546743 -0.00651411)
(-0.0116099 0.53802 -0.000777195)
(-0.0107788 0.524718 0.00639618)
(-0.0117315 0.496994 0.0135146)
(-0.0179379 0.463909 0.0131592)
(-0.0277618 0.253748 0.00770067)
(-0.0405578 0.0505642 0.000784751)
(-0.0556191 0.0289335 -0.00210144)
(-0.064849 0.0295544 0.00953322)
(-0.0674779 0.0201879 0.0276244)
(-0.0854343 0.0167544 0.0396181)
(-0.107391 0.00447605 0.0500539)
(0.0214452 0.0203483 0.00712486)
(0.0298948 0.0285831 0.00730334)
(0.015746 0.0194977 0.00575574)
(0.0219321 0.0234372 0.00700785)
(0.0129417 0.0102251 0.00513675)
(0.013765 0.0102936 0.00505298)
(0.00577394 -0.000501476 0.0039603)
(0.00368134 0.00268289 0.00313852)
(-0.00124199 -0.00118456 0.00310945)
(-0.00542643 -0.000237552 0.00349107)
(-0.00796012 -0.00228087 0.00392635)
(-0.00900379 -0.000828385 0.00507134)
(-0.00643727 -0.00024965 0.00624188)
(-0.00386726 0.000542111 0.00726783)
(-0.00269469 0.000750598 0.00802977)
(-0.0025311 0.00118364 0.00858196)
(-0.00294555 0.00139784 0.00872123)
(-0.00357331 0.00168748 0.00863184)
(-0.00409868 0.00183434 0.00834933)
(-0.00449713 0.00194783 0.00804961)
(-0.00479669 0.00197296 0.0077503)
(-0.00499945 0.00199842 0.00749091)
(-0.00514445 0.00198091 0.00726314)
(-0.00524866 0.00195405 0.00707968)
(-0.00530811 0.00191494 0.00692629)
(-0.00533183 0.00188016 0.00679982)
(-0.00533936 0.00184989 0.00669449)
(-0.0053314 0.00183022 0.00660818)
(-0.0053027 0.00182515 0.00653605)
(-0.00525812 0.00182446 0.00646878)
(-0.0051994 0.00183343 0.00640832)
(-0.00513554 0.00180782 0.0063513)
(-0.00508544 0.00182529 0.00631155)
(-0.00510167 0.00178531 0.00626446)
(-0.00507021 0.0019288 0.00624515)
(-0.0051524 0.0019128 0.00615268)
(-0.00513141 0.0022043 0.0061145)
(-0.00525105 0.00217631 0.00596147)
(-0.00519608 0.00254053 0.00588941)
(-0.00523693 0.00237645 0.00567757)
(-0.00509354 0.00272519 0.0055728)
(-0.00494914 0.00222313 0.00539186)
(-0.00462383 0.00261068 0.00538553)
(-0.00447781 0.00162191 0.00530826)
(-0.0041618 0.00261148 0.00543462)
(-0.00378982 0.00144776 0.00547085)
(-0.0036625 0.00358241 0.00541467)
(-0.00393962 0.002577 0.00513521)
(-0.00641089 0.00664818 0.00407195)
(-0.00409328 0.00540194 0.00314099)
(0.00498121 0.011271 0.00104042)
(0.026205 0.00369723 0.00217904)
(0.0262324 0.0153254 0.014897)
(-0.0311209 -0.0370223 0.0302403)
(-0.0502346 -0.0282381 0.0433431)
(-0.064484 -0.0603702 0.0659429)
(0.0158632 -0.0412489 0.119259)
(-0.0127096 -0.124331 0.126898)
(0.04775 0.00284547 -0.147504)
(0.0589005 0.0656064 0.0114763)
(0.119423 0.55401 0.00248525)
(0.0639352 0.644978 0.0100364)
(0.0660825 0.620689 0.0204712)
(0.0255812 0.637568 0.0261244)
(0.00147451 0.627234 0.0184198)
(-0.0365717 0.637722 0.0127384)
(-0.0636427 0.641791 0.00484476)
(-0.0811229 0.67681 0.00101914)
(-0.0954142 0.666325 -0.00389618)
(-0.10358 0.682295 -0.00862413)
(-0.0998531 0.691316 -0.0118243)
(-0.0924357 0.704709 -0.0123363)
(-0.0786593 0.706347 -0.0111388)
(-0.0599916 0.697389 -0.00840541)
(-0.0374724 0.705901 -0.00633632)
(-0.0166873 0.696586 -0.00523622)
(0.00667353 0.694496 -0.00526554)
(0.0253489 0.696681 -0.00716427)
(0.0411794 0.665925 -0.0102666)
(0.0521808 0.666329 -0.0150829)
(0.0562628 0.672012 -0.0176854)
(0.056508 0.667322 -0.0199637)
(0.0441424 0.657931 -0.0203223)
(0.0297815 0.657341 -0.0143267)
(0.014908 0.64603 -0.0117499)
(-0.00216378 0.638003 -0.0024229)
(-0.00752147 0.624318 0.00623141)
(-0.0176947 0.619349 0.0166979)
(-0.022779 0.596573 0.0194305)
(-0.0340876 0.609877 0.0218489)
(-0.0457674 0.545974 0.0229773)
(-0.0609833 0.534652 0.0293945)
(-0.0709598 0.534426 0.0390944)
(-0.0857719 0.501171 0.0466515)
(-0.105943 0.485454 0.0487834)
(-0.118539 0.419124 0.0420277)
(0.0108418 0.0168535 -0.00418502)
(0.0286283 0.0269029 0.00644283)
(0.00900362 0.0138944 0.00401348)
(0.0192498 0.0239495 0.00510153)
(0.0107353 0.00875238 0.00329088)
(0.0131236 0.0107374 0.00350862)
(0.00385745 -0.00167105 0.000945361)
(0.000608848 0.00286485 -0.000658851)
(-0.00401323 -0.000169864 -0.00118886)
(-0.00710994 0.00189484 -0.000293893)
(-0.0092877 -0.00131168 0.000601407)
(-0.0102252 -0.00147651 0.00136136)
(-0.0094143 -0.00255865 0.00225747)
(-0.00793369 -0.00166888 0.00337939)
(-0.00732502 -0.000905151 0.00436925)
(-0.00751257 7.04095e-05 0.00521362)
(-0.00809888 0.000733183 0.00574056)
(-0.00870515 0.00134598 0.00599702)
(-0.00898298 0.0017124 0.00600719)
(-0.00909646 0.0020229 0.00589033)
(-0.00916976 0.0021746 0.00571439)
(-0.00918253 0.00227798 0.00555141)
(-0.00915051 0.0023076 0.00541635)
(-0.00909497 0.00230654 0.00530495)
(-0.00901535 0.00228476 0.00520815)
(-0.00891901 0.00226044 0.00512446)
(-0.0088166 0.0022384 0.00505105)
(-0.00871023 0.00222286 0.00498206)
(-0.00859282 0.00221619 0.00491414)
(-0.00845869 0.00221454 0.00484358)
(-0.00831208 0.00222339 0.00477137)
(-0.008166 0.00221571 0.00469711)
(-0.00809965 0.00225143 0.0046338)
(-0.00809865 0.0022427 0.00456759)
(-0.00810901 0.00238269 0.00451378)
(-0.00813419 0.00239371 0.00440217)
(-0.00814589 0.00266553 0.00432052)
(-0.00812352 0.00268097 0.00414196)
(-0.00807303 0.00306473 0.00402071)
(-0.00800056 0.00297329 0.00378188)
(-0.007901 0.00325238 0.00364955)
(-0.00779438 0.00268664 0.00343384)
(-0.00755867 0.00289636 0.00339043)
(-0.00755853 0.00196324 0.00327414)
(-0.00747491 0.00286445 0.0033175)
(-0.0073676 0.00206597 0.00323065)
(-0.00781828 0.00424969 0.00278175)
(-0.0080571 0.00344078 0.00217195)
(-0.0106182 0.00706415 0.000798955)
(-0.00554499 0.00116099 0.000151487)
(0.00339353 0.00620025 0.000471471)
(0.0233107 -0.0064451 0.00398496)
(0.0338396 0.015764 0.0147344)
(0.0199842 -0.0160863 0.0161268)
(-0.0329632 -0.0242055 0.0258538)
(-0.0556297 -0.0873167 0.0423947)
(-0.0422661 -0.0875794 0.0594575)
(-0.034576 -0.144389 0.0950839)
(-0.00490494 -0.0431476 -0.151925)
(0.0186082 0.060594 0.00129975)
(0.0459277 0.500552 -0.0209723)
(0.0284587 0.631329 0.00422624)
(0.0315438 0.62553 0.0118129)
(0.0177776 0.676753 0.0150392)
(-0.00753606 0.69174 0.0119238)
(-0.0363878 0.6724 0.00731291)
(-0.058146 0.61533 0.00233236)
(-0.081308 0.536201 -0.00308259)
(-0.09447 0.702552 -0.00562542)
(-0.103916 0.65006 -0.00735965)
(-0.103854 0.589198 -0.00677268)
(-0.0949833 0.707022 -0.00301093)
(-0.0779305 0.684345 0.00317851)