/*--------------------------------*- C++ -*----------------------------------*\
| =========                 |                                                 |
| \\      /  F ield         | OpenFOAM: The Open Source CFD Toolbox           |
|  \\    /   O peration     | Version:  2.3.0                                 |
|   \\  /    A nd           | Web:      www.OpenFOAM.org                      |
|    \\/     M anipulation  |                                                 |
\*---------------------------------------------------------------------------*/
FoamFile
{
    version     2.0;
    format      ascii;
    class       volVectorField;
    location    "28";
    object      U.water;
}
// * * * * * * * * * * * * * * * * * * * * * * * * * * * * * * * * * * * * * //

dimensions      [0 1 -1 0 0 0 0];

internalField   nonuniform List<vector> 
6144
(
(0.0102459 0.0181447 -0.00207666)
(0.010295 -0.0042889 -0.00315119)
(0.00499593 -0.00336607 -0.00340949)
(0.00462447 -0.00459134 -0.00313999)
(0.00301846 -0.00403735 -0.00266804)
(0.00283758 -0.00251667 -0.00246944)
(0.00200305 -0.00143941 -0.00178278)
(0.00203451 0.000620858 -0.00111432)
(0.00186061 0.00130598 -0.000461115)
(0.0016212 0.00277033 0.000151988)
(0.00145798 0.00381018 0.000595051)
(0.00155165 0.00421516 0.00101082)
(0.00175682 0.00390062 0.00120261)
(0.001912 0.00309493 0.00136466)
(0.00199902 0.00209674 0.00121248)
(0.00207245 0.00121335 0.00102087)
(0.00211123 0.000482509 0.000715516)
(0.0021682 1.87211e-05 0.000473192)
(0.0022085 -0.000351608 0.000242301)
(0.00222761 -0.000547841 0.000119603)
(0.00223112 -0.000683508 3.04897e-05)
(0.00222082 -0.000713219 -6.71533e-06)
(0.00220038 -0.000714236 -1.05281e-05)
(0.00217445 -0.000674579 1.67839e-05)
(0.00214184 -0.000627119 6.77976e-05)
(0.00210686 -0.000576029 0.000136507)
(0.00207082 -0.000533132 0.000217993)
(0.00203217 -0.000507723 0.000315685)
(0.00199207 -0.000487248 0.000427301)
(0.0019511 -0.000494199 0.000533023)
(0.00191676 -0.000478821 0.000637996)
(0.00187995 -0.000525718 0.000718427)
(0.00184571 -0.000482925 0.000801752)
(0.00180422 -0.000559641 0.000857327)
(0.00177046 -0.000432352 0.000944209)
(0.00172394 -0.000564206 0.00100193)
(0.00168245 -0.000329151 0.00111965)
(0.00162815 -0.000576734 0.00120319)
(0.00157756 -0.000235752 0.00136621)
(0.0015252 -0.000718694 0.00147446)
(0.00148414 -0.000279728 0.00162463)
(0.00145009 -0.00111005 0.00167034)
(0.00144993 -0.0003211 0.00164973)
(0.00147193 -0.00170504 0.00156614)
(0.00154318 0.000207531 0.00130001)
(0.00155858 -0.00212142 0.00116773)
(0.00180122 0.0017154 0.00106987)
(0.00170423 -0.00271181 0.00111931)
(0.00210066 0.00338196 0.00136238)
(0.00139845 -0.00453008 0.000930972)
(0.00151907 0.00827937 -0.0011538)
(0.00208794 -0.00382784 -0.00163528)
(0.00405423 0.0195382 -0.00889484)
(0.00806143 0.00309183 -0.0110779)
(0.013337 0.0449944 -0.00922178)
(0.0144826 -0.0377244 -0.0169283)
(0.0216205 0.0499118 -0.0140105)
(0.00277634 -0.0370264 -0.0348909)
(-0.0377798 0.0930505 -0.0894172)
(0.0150906 -0.0990528 -0.131832)
(0.113049 -0.244412 -0.0109997)
(0.0830237 -0.0870621 -0.0101805)
(0.0370004 -0.169463 -0.0147262)
(0.0364307 -0.171389 -0.00990823)
(0.030243 -0.170623 -0.00631195)
(0.0208138 -0.177158 -0.00368744)
(0.0133063 -0.176937 -0.00268409)
(0.00885487 -0.169763 -0.00248579)
(0.00448858 -0.155666 -0.00276076)
(-0.000334318 -0.136719 -0.00301133)
(-0.00478776 -0.115289 -0.002785)
(-0.00791038 -0.0931738 -0.00231409)
(-0.00908619 -0.072713 -0.00176137)
(-0.00675311 -0.056565 -0.000361952)
(-0.00282055 -0.0463761 0.00130612)
(0.000389958 -0.0448194 0.00280705)
(0.0018092 -0.0469881 0.00355881)
(0.00290016 -0.0521946 0.00422366)
(0.00328872 -0.058611 0.00472554)
(0.00339097 -0.06474 0.00502664)
(0.00275028 -0.0708494 0.00498243)
(0.00224719 -0.0755586 0.00478196)
(0.00218065 -0.0804506 0.00468782)
(0.00213511 -0.0851557 0.00385687)
(0.00316279 -0.089323 0.00448598)
(0.00408725 -0.0963521 0.00419986)
(0.00412194 -0.103216 0.00403064)
(0.00494206 -0.112479 0.00504016)
(0.00272095 -0.121843 0.00149084)
(-0.000357553 -0.120757 -0.0027309)
(-0.000728536 -0.112983 -0.00431151)
(-0.00462449 -0.0982767 -0.00803143)
(-0.0139027 -0.0654612 -0.024674)
(-0.0160607 -0.00200688 -0.00207323)
(-0.0159963 0.0207908 0.0365407)
(-0.0158578 0.0148731 0.0544947)
(0.0218674 0.0224656 0.00128419)
(0.0210556 0.00822672 0.000148028)
(0.0121546 0.00700301 -0.0023705)
(0.0110854 0.0048889 -0.000261882)
(0.00692761 0.0012925 0.000702496)
(0.00597362 0.000685955 0.0014438)
(0.00312563 -0.000816998 0.00243753)
(0.00249652 0.00077904 0.00241102)
(0.00199211 0.00183044 0.00243014)
(0.00179279 0.00413198 0.00269647)
(0.00207318 0.00515103 0.00311265)
(0.00259639 0.00551144 0.00364845)
(0.00316979 0.00500203 0.00389665)
(0.00360167 0.00423352 0.0040465)
(0.00377289 0.00312129 0.00402918)
(0.00386908 0.00213785 0.00398458)
(0.00384669 0.00123171 0.00390183)
(0.00390851 0.000629974 0.0037823)
(0.0039479 0.000122843 0.00363978)
(0.00395953 -0.000173881 0.00355756)
(0.00393936 -0.000392796 0.0035046)
(0.00389289 -0.000475063 0.00350121)
(0.00382969 -0.00051178 0.00353143)
(0.00375246 -0.000491745 0.00359332)
(0.00366642 -0.000457045 0.00367645)
(0.00357629 -0.000414018 0.00377554)
(0.0034851 -0.000377052 0.00388572)
(0.00339132 -0.000353816 0.00400076)
(0.003299 -0.000334114 0.00411903)
(0.00320087 -0.000341364 0.00423343)
(0.00312041 -0.000321293 0.00433095)
(0.00302792 -0.000381849 0.00440129)
(0.00296285 -0.00033224 0.00446946)
(0.00285228 -0.000445017 0.00452746)
(0.00279811 -0.000293556 0.00459482)
(0.00267302 -0.000501247 0.00465204)
(0.00262466 -0.000212063 0.00473007)
(0.00249104 -0.000599219 0.00479808)
(0.00246744 -0.000160256 0.00489158)
(0.00235131 -0.000841361 0.00496462)
(0.00237331 -0.000234329 0.00504035)
(0.0022641 -0.00123257 0.00505712)
(0.0023691 -8.14644e-05 0.00512128)
(0.00213811 -0.00161529 0.00503533)
(0.00251381 0.000895884 0.00519563)
(0.00202055 -0.00181246 0.0050429)
(0.00286185 0.00268647 0.00524636)
(0.00219605 -0.00302777 0.00519223)
(0.00318578 0.00366327 0.00509639)
(0.000476267 -0.00584603 0.00451335)
(0.00209852 0.00584016 0.00256726)
(0.00208437 -0.00834376 -0.000665472)
(-0.000741604 0.0217149 -0.00305092)
(0.0161132 0.00188284 0.00166987)
(0.045176 0.0398441 0.0103434)
(0.0647874 -0.058071 -0.00463421)
(-0.0283357 0.0195352 -0.0101429)
(-0.0121937 -0.00451768 -0.0196874)
(0.0407105 0.161802 -0.00655483)
(0.169108 -0.103556 -0.0865559)
(0.173516 -0.247473 0.0091961)
(0.0868624 0.0597829 0.00734989)
(-0.0049572 -0.127069 -0.0124006)
(0.0159237 -0.0978169 0.000998081)
(0.0101475 -0.118051 0.00472338)
(-0.00743576 -0.140484 0.00475558)
(-0.0172775 -0.142004 0.00367398)
(-0.0225162 -0.136463 0.00221772)
(-0.0259502 -0.125523 0.000290821)
(-0.0276533 -0.110292 -0.000904168)
(-0.0270664 -0.0947691 -0.00103214)
(-0.025474 -0.0763915 -0.00130849)
(-0.0225035 -0.0592586 0.000932822)
(-0.0181197 -0.0467136 0.00455124)
(-0.0114471 -0.0399863 0.00671883)
(-0.00513789 -0.0382432 0.00910154)
(-0.00105585 -0.0384027 0.0119358)
(-0.000344962 -0.0405921 0.0148383)
(-0.00204553 -0.0451239 0.0165627)
(-0.00449094 -0.0504341 0.0170602)
(-0.0066205 -0.055687 0.0165992)
(-0.00775505 -0.0603198 0.0156654)
(-0.00784706 -0.0641009 0.0143593)
(-0.00653855 -0.0675614 0.0133485)
(-0.00406334 -0.0710623 0.0130302)
(-0.000789883 -0.0766105 0.0135036)
(0.0015271 -0.0854045 0.0146028)
(0.00254158 -0.0961854 0.013605)
(-0.000846556 -0.107691 0.0105975)
(-0.0082958 -0.109521 0.000793454)
(-0.0108921 -0.100781 -0.00224821)
(-0.0191209 -0.0883352 -0.00677172)
(-0.0288615 -0.0595739 -0.0238521)
(-0.0352539 -0.00451359 -0.00266059)
(-0.0319322 0.0179505 0.0378666)
(-0.0323721 0.0114729 0.0574365)
(0.0268474 0.0256617 0.00277144)
(0.026391 0.0159151 0.00209476)
(0.0177635 0.0141049 -0.000610504)
(0.0153988 0.0122785 0.00204076)
(0.00954775 0.00702502 0.00241842)
(0.00706478 0.00478907 0.00316627)
(0.00247732 0.000993816 0.00374305)
(0.000830151 0.00186959 0.00347303)
(-0.000277336 0.00290086 0.00322981)
(-3.07155e-05 0.00487342 0.00360285)
(0.000706086 0.00526247 0.00402212)
(0.00171243 0.00543589 0.00443146)
(0.00245404 0.00494491 0.00459099)
(0.00306591 0.00448182 0.00466043)
(0.00337938 0.0036106 0.0046103)
(0.00351763 0.00282982 0.00458161)
(0.00343957 0.00197195 0.00455478)
(0.00339792 0.00134106 0.00455589)
(0.00328851 0.000769413 0.00456664)
(0.00319781 0.000401044 0.00458344)
(0.0030672 0.000107805 0.00461014)
(0.00293686 -4.32975e-05 0.00465373)
(0.00280454 -0.000142447 0.00470643)
(0.00267962 -0.000173004 0.00477115)
(0.00255929 -0.000174212 0.00483856)
(0.00244606 -0.000153573 0.00490817)
(0.00233786 -0.000127549 0.0049791)
(0.00222994 -0.000104018 0.0050507)
(0.00212519 -8.2416e-05 0.00512357)
(0.00201554 -8.27713e-05 0.00519669)
(0.00191377 -7.00778e-05 0.00527346)
(0.00178377 -0.000121702 0.00534672)
(0.00168303 -8.54127e-05 0.00542319)
(0.00151613 -0.000203714 0.00548606)
(0.00143605 -9.0189e-05 0.00555816)
(0.00123945 -0.000315091 0.00561678)
(0.00118969 -7.41388e-05 0.00569373)
(0.000971801 -0.000463997 0.00575779)
(0.00097062 -4.43247e-05 0.0058351)
(0.00076943 -0.000615969 0.00590315)
(0.000801644 0.00011792 0.00593794)
(0.000538361 -0.000571838 0.00595339)
(0.000660195 0.000774274 0.00597134)
(0.000244561 -0.000285872 0.00594113)
(0.000753105 0.00205338 0.00606575)
(0.00025618 -0.000545092 0.0060668)
(0.0015592 0.00335035 0.00629133)
(0.000919278 -0.00288237 0.00613716)
(0.00309285 0.00305013 0.00567105)
(-0.00056879 -0.00656118 0.00616885)
(0.00193059 0.00107269 0.00442519)
(-0.00434698 -0.00871018 0.00283683)
(-0.00659526 0.0220607 0.0081416)
(0.0217033 -0.043245 0.0214904)
(0.054541 -0.00891865 0.0152248)
(0.078804 -0.076319 -0.00156168)
(-0.0478534 0.059623 -0.00213103)
(-0.0691974 -0.100874 -0.0183708)
(-0.0497558 0.181279 -0.0270363)
(0.185065 -0.127816 -0.0663477)
(0.196394 -0.229565 0.00967101)
(0.09789 0.137969 0.00916646)
(0.0798568 -0.14872 0.00929267)
(0.0603933 -0.0825482 0.0141447)
(0.0320944 -0.113393 0.0133408)
(0.0129255 -0.128854 0.01054)
(-0.00359155 -0.124941 0.00617076)
(-0.0171856 -0.114379 0.00236303)
(-0.0259667 -0.100485 8.64336e-05)
(-0.0321795 -0.0812318 -0.00292972)
(-0.0377966 -0.0593936 -0.000931178)
(-0.0388717 -0.0446953 0.00347981)
(-0.0357218 -0.0345732 0.00307258)
(-0.028977 -0.0216287 0.00192497)
(-0.0223496 -0.0116579 0.00889471)
(-0.0203329 -0.00822773 0.020885)
(-0.0203625 -0.0109662 0.0287077)
(-0.0206228 -0.0162132 0.0305158)
(-0.021386 -0.0221455 0.0281463)
(-0.0218879 -0.0276615 0.024354)
(-0.0219692 -0.0325345 0.0209166)
(-0.0213676 -0.0364743 0.0180732)
(-0.0198679 -0.0391267 0.0159885)
(-0.0170005 -0.0411343 0.0152319)
(-0.0124859 -0.0439757 0.0155398)
(-0.00620486 -0.04982 0.0176968)
(-0.000768587 -0.0614856 0.0185532)
(0.00216318 -0.0744684 0.016713)
(-0.00151615 -0.0881233 0.011147)
(-0.0107536 -0.0912916 -0.00130097)
(-0.0136909 -0.0818149 -0.00494132)
(-0.0264066 -0.0713344 -0.00982564)
(-0.0482908 -0.0399117 -0.0260724)
(-0.0564766 0.00803161 3.06883e-05)
(-0.053109 0.0193456 0.0376664)
(-0.0566266 0.0105538 0.0558791)
(0.0301247 0.0273017 0.00288613)
(0.0305195 0.020352 0.00353244)
(0.0214534 0.0171875 0.000108177)
(0.0194955 0.0161213 0.0020746)
(0.0135035 0.0103113 0.00174077)
(0.0107825 0.00825752 0.00280618)
(0.00324065 0.00149257 0.003118)
(-0.00014935 0.000746836 0.00267418)
(-0.00208247 0.00112732 0.00253579)
(-0.00130065 0.00363132 0.00331672)
(-0.00037637 0.00407769 0.00416098)
(0.000498656 0.00466914 0.00477825)
(0.00121422 0.00453666 0.00488671)
(0.00188264 0.0043473 0.00488842)
(0.00223955 0.00364374 0.00474711)
(0.00239293 0.0029964 0.00471498)
(0.00229451 0.00222858 0.00471392)
(0.00221343 0.00166864 0.00474907)
(0.00206829 0.00111802 0.00477378)
(0.00192508 0.000730997 0.00479778)
(0.00175119 0.000398654 0.00482571)
(0.00158535 0.000183819 0.00486871)
(0.00141776 2.92726e-05 0.00491958)
(0.00124794 -5.18513e-05 0.0049758)
(0.00108914 -0.000100895 0.00503699)
(0.000943965 -0.000116377 0.0051022)
(0.000810435 -0.00011352 0.00516949)
(0.000684462 -0.000100782 0.00523773)
(0.000566436 -8.06805e-05 0.00530713)
(0.000450614 -7.11901e-05 0.00537583)
(0.000349049 -4.51453e-05 0.00544777)
(0.000224952 -7.38487e-05 0.00551362)
(0.000133348 -3.24837e-05 0.00558777)
(-3.04539e-05 -0.000137645 0.00564301)
(-9.42375e-05 -2.93642e-05 0.00571176)
(-0.000296022 -0.000244617 0.00575873)
(-0.00031576 -7.9994e-06 0.00582621)
(-0.00055449 -0.000357591 0.00586626)
(-0.000518067 0.000115132 0.00591889)
(-0.000758553 -0.000338279 0.00592876)
(-0.000738129 0.000468051 0.00592315)
(-0.00102245 -4.38236e-05 0.00589839)
(-0.000980906 0.00118122 0.0058786)
(-0.00121603 0.000248169 0.00590034)
(-0.000874878 0.00205384 0.00601644)
(-0.00107471 -0.000421507 0.00600521)
(0.000289788 0.00266519 0.00607245)
(-0.000425878 -0.00241532 0.00575651)
(0.00171428 0.00327395 0.00474798)
(-0.000909236 -0.00305749 0.00493537)
(-0.00189119 0.00216063 0.00449054)
(-0.011232 -0.00626985 0.0058129)
(0.0117779 0.00455113 0.0177613)
(0.040951 -0.0577994 0.0304799)
(0.0499182 -0.0175497 0.0284492)
(0.0410744 -0.0873466 0.0170282)
(-0.0314363 0.109799 -0.00656653)
(-0.0763204 -0.112936 -0.028443)
(-0.0286645 0.257081 -0.0508471)
(0.207938 -0.164242 -0.0428098)
(0.20804 -0.214963 0.00833021)
(0.101251 0.145061 0.00584219)
(0.125922 -0.129402 0.0149871)
(0.0454815 -0.00189939 0.014053)
(0.00181621 -0.0766184 0.0132801)
(-0.00824718 -0.0700488 0.0106582)
(-0.0236503 -0.0776 0.00455692)
(-0.03616 -0.0734807 2.43932e-05)
(-0.0445066 -0.0597183 -0.000996064)
(-0.0473803 -0.0464102 -0.00189992)
(-0.04885 -0.0279096 -0.00652682)
(-0.0491162 -0.00386304 -0.00589057)
(-0.0488512 0.0179162 0.00670492)
(-0.046658 0.0269796 0.022087)
(-0.0443678 0.0276236 0.0319097)
(-0.0414721 0.0206807 0.0344241)
(-0.039724 0.012269 0.0310498)
(-0.0366453 0.00382928 0.0256368)
(-0.0338866 -0.00395168 0.0201204)
(-0.0320635 -0.00982044 0.0160895)
(-0.0306834 -0.0136526 0.0134378)
(-0.0294011 -0.0161754 0.0118732)
(-0.027948 -0.0172937 0.0113462)
(-0.0249975 -0.0187959 0.0118312)
(-0.0190009 -0.0216203 0.0131774)
(-0.00960843 -0.0281312 0.0153266)
(-0.000194739 -0.0394147 0.0162754)
(0.00512942 -0.0524653 0.014561)
(0.00102487 -0.0672735 0.00515051)
(-0.0066985 -0.0683869 -0.00674368)
(-0.0162446 -0.0574154 -0.00970155)
(-0.0374101 -0.0435645 -0.015837)
(-0.0613385 -0.0146343 -0.0254256)
(-0.0669091 0.021357 0.00665)
(-0.0639749 0.0213704 0.0394873)
(-0.0704204 0.0115907 0.0545386)
(0.0314267 0.0278215 0.00542847)
(0.0329863 0.023179 0.00587423)
(0.0237314 0.0185309 0.00215115)
(0.0220461 0.0172384 0.00318305)
(0.0158348 0.0109433 0.00173928)
(0.014137 0.0102232 0.00241116)
(0.00688471 0.00301806 0.00124401)
(0.00112125 0.00152855 0.00119857)
(-0.00367865 -0.0015936 0.0015229)
(-0.00346819 0.00110639 0.00274614)
(-0.00237093 0.00200435 0.00404587)
(-0.00165373 0.00357661 0.00496248)
(-0.000847451 0.00403698 0.00503464)
(-8.53035e-05 0.00418751 0.00495815)
(0.000364937 0.00360259 0.00469398)
(0.000443338 0.00294148 0.00462084)
(0.000192236 0.00218953 0.00460605)
(-7.04715e-05 0.00168367 0.0046673)
(-0.000339718 0.00120719 0.00469871)
(-0.000568396 0.000863865 0.00471472)
(-0.000799989 0.000533338 0.00471612)
(-0.000999348 0.000282458 0.00472617)
(-0.00119107 6.70983e-05 0.00474127)
(-0.00136554 -7.16297e-05 0.00476944)
(-0.00152087 -0.000156383 0.0048075)
(-0.00165855 -0.000197319 0.00485339)
(-0.00178255 -0.000211167 0.00490338)
(-0.00189477 -0.000209238 0.00495625)
(-0.0019955 -0.000196161 0.00501162)
(-0.00208916 -0.000189744 0.00506492)
(-0.00216938 -0.000165116 0.00511268)
(-0.00226336 -0.000185122 0.00514652)
(-0.00232962 -0.0001301 0.00518924)
(-0.00247198 -0.000217946 0.00520124)
(-0.00251083 -9.63748e-05 0.00524023)
(-0.00269578 -0.000300483 0.00523658)
(-0.0026892 -4.11043e-05 0.00526821)
(-0.00292389 -0.000348743 0.00524486)
(-0.00288257 0.00015619 0.00524821)
(-0.00314734 -0.00018319 0.00518904)
(-0.00315117 0.000619844 0.005122)
(-0.00342342 0.000233544 0.00504888)
(-0.00341516 0.00125633 0.00497911)
(-0.00354598 0.000441664 0.00499078)
(-0.00314428 0.00184265 0.00511536)
(-0.00319157 -0.000338627 0.00501999)
(-0.00186796 0.00214805 0.00510594)
(-0.00257959 -0.0014255 0.00449607)
(-0.000577506 0.00338629 0.00250542)
(-0.00205601 -0.00046231 0.00192844)
(-0.000301541 0.00493367 0.00101909)
(-0.0105683 -0.013243 0.00636596)
(0.0167233 -0.0267341 0.0207921)
(0.0446168 -0.0631974 0.0303224)
(0.049216 -0.0278505 0.0327615)
(0.0292111 -0.100198 0.0400979)
(-0.0171841 0.0409324 0.0214544)
(-0.0979589 -0.145238 -0.0179236)
(-0.0447798 0.332943 -0.115485)
(0.182316 -0.192364 -0.00609355)
(0.214547 -0.178886 0.014401)
(0.0982351 0.125821 -0.000558583)
(0.125711 -0.0546588 0.0200814)
(0.0265951 0.0548141 0.0134271)
(0.0241901 -0.0634035 0.0199367)
(0.0094568 -0.046189 0.011094)
(-0.0158366 -0.0534158 0.00111381)
(-0.0331716 -0.0421878 -0.00455199)
(-0.0435153 -0.0207396 -0.011808)
(-0.0555343 0.00886453 -0.0127968)
(-0.0658999 0.0387436 -0.00107698)
(-0.0690014 0.0556769 0.0151706)
(-0.0683657 0.0589488 0.0275603)
(-0.0630716 0.0543999 0.0338289)
(-0.056745 0.045545 0.0299727)
(-0.0494037 0.0373193 0.022334)
(-0.0423324 0.0302792 0.0144757)
(-0.0352652 0.0236986 0.00841805)
(-0.0307259 0.0170565 0.00522908)
(-0.028964 0.00948983 0.00432823)
(-0.0274978 0.00291954 0.0039808)
(-0.0262811 -0.00253589 0.00388474)
(-0.025933 -0.00592004 0.00507265)
(-0.0246468 -0.00630404 0.00685833)
(-0.0189285 -0.00592126 0.00829035)
(-0.00906316 -0.00916094 0.0100559)
(0.00247382 -0.0162269 0.012363)
(0.00999896 -0.0251663 0.012495)
(0.00669218 -0.0374099 0.00505333)
(-0.00156878 -0.039397 -0.00389541)
(-0.0148884 -0.0326925 -0.00557775)
(-0.0426946 -0.0200719 -0.0173668)
(-0.0695527 0.00859119 -0.021916)
(-0.0700872 0.0292003 0.0147369)
(-0.0716156 0.0213402 0.040506)
(-0.0851676 0.00915316 0.0533745)
(0.0292281 0.0278663 0.0111921)
(0.0327338 0.024945 0.00806449)
(0.0235391 0.0196198 0.00438652)
(0.0230399 0.0184263 0.00530628)
(0.0163657 0.00987195 0.00322462)
(0.0151373 0.0104234 0.00269431)
(0.00898805 0.00373692 0.00095519)
(0.00430361 0.00354903 0.000969203)
(-0.00229016 -0.00250897 0.00115935)
(-0.00489963 -0.0016021 0.00212561)
(-0.00441875 -0.00102051 0.00349178)
(-0.00347149 0.00161341 0.00489504)
(-0.00213598 0.00291345 0.00513795)
(-0.00099574 0.00353356 0.00525276)
(-0.000181136 0.00311615 0.00516187)
(-2.12375e-05 0.00250868 0.00514586)
(-0.000390389 0.00181725 0.0050599)
(-0.000802414 0.00141071 0.00505304)
(-0.00119813 0.00108667 0.00499138)
(-0.00151056 0.000879689 0.00492808)
(-0.00179301 0.000649868 0.00484669)
(-0.00202854 0.000464943 0.00477084)
(-0.00225164 0.000290461 0.00469855)
(-0.0024472 0.000159733 0.00463809)
(-0.00261152 6.04948e-05 0.00458748)
(-0.00274074 -3.93228e-06 0.00455203)
(-0.00284226 -3.85114e-05 0.00452953)
(-0.00292381 -4.70636e-05 0.00451686)
(-0.00299022 -3.61854e-05 0.00451095)
(-0.0030461 -2.61723e-05 0.00450508)
(-0.00309168 6.51865e-06 0.0044962)
(-0.00316245 -1.18076e-05 0.00447127)
(-0.00319318 4.96757e-05 0.00446866)
(-0.00331214 -3.10166e-05 0.00443518)
(-0.0032946 0.000117754 0.00445339)
(-0.00347521 -4.51324e-05 0.0043913)
(-0.0034103 0.000256477 0.00440977)
(-0.00366862 2.94813e-05 0.00431182)
(-0.00358766 0.000538358 0.00430048)
(-0.00386678 0.000278911 0.00416381)
(-0.00386049 0.00096956 0.00407421)
(-0.00405452 0.000562967 0.00394794)
(-0.00402746 0.00132563 0.00387121)
(-0.00394772 0.000412027 0.00388709)
(-0.00349433 0.00157918 0.00408965)
(-0.00317855 -0.000114343 0.00412603)
(-0.00185067 0.00213082 0.00433389)
(-0.00206632 0.000175993 0.00378722)
(4.27078e-05 0.00449066 0.00191486)
(0.000286286 0.00290471 0.00064979)
(0.00777964 0.00968389 0.000193455)
(0.0146047 -0.0084848 0.00825741)
(0.0320597 -0.0358177 0.0365725)
(0.0441782 -0.0313727 0.0373249)
(0.0276813 0.0173362 0.0408994)
(-0.0255967 -0.0248158 0.0373995)
(-0.0480993 0.0629013 0.0634784)
(-0.161232 -0.141713 0.0316783)
(-0.00106905 0.219755 -0.148512)
(0.145209 -0.228156 -0.00254244)
(0.206337 -0.144699 0.0138174)
(0.0904151 0.117971 -0.000989617)
(0.122389 -0.0110653 0.0207075)
(0.0401954 0.0459607 0.0134854)
(0.0439302 -0.025972 0.0217544)
(-0.00257832 -0.00973146 0.00774418)
(-0.0251031 -0.00709256 -0.00385885)
(-0.0435693 0.0147267 -0.00888801)
(-0.0619812 0.0434871 -0.00391939)
(-0.0758659 0.0669931 0.00947654)
(-0.0823336 0.0768475 0.0194552)
(-0.0839188 0.0793008 0.0231631)
(-0.0799621 0.0778464 0.0214386)
(-0.0720635 0.0730923 0.0152019)
(-0.0658853 0.0726133 0.0062678)
(-0.053298 0.0763029 -0.00111718)
(-0.0410596 0.0783046 -0.00763516)
(-0.0276212 0.078863 -0.00945065)
(-0.0176004 0.0742723 -0.00926539)
(-0.0142776 0.0611746 -0.00932419)
(-0.0143414 0.0447834 -0.00911454)
(-0.0176494 0.0309654 -0.00847729)
(-0.0255716 0.0169878 -0.00627517)
(-0.0280625 0.0112749 -0.00366626)
(-0.024001 0.00987502 -0.00190602)
(-0.0149588 0.00966621 0.000794841)
(-0.00399471 0.00914404 0.00660969)
(0.00190328 0.00567739 0.0123466)
(-0.000193685 -0.000611501 0.0113352)
(-0.0116466 -0.00334844 0.00574177)
(-0.0309839 0.00343197 -0.00532231)
(-0.0545507 0.0164077 -0.0153211)
(-0.0708334 0.0287337 -0.00437722)
(-0.0689323 0.0259816 0.0234274)
(-0.0786406 0.0209329 0.0410343)
(-0.0919371 0.0105324 0.052013)
(0.0232113 0.026468 0.0111207)
(0.0315197 0.0276211 0.00815892)
(0.0204266 0.0206566 0.00579989)
(0.0227051 0.0209717 0.00730938)
(0.0144365 0.00949119 0.00514064)
(0.0143636 0.00960297 0.00452222)
(0.00853265 0.00140143 0.0032058)
(0.00546822 0.00324756 0.00226171)
(-0.000717904 -0.00236649 0.00200688)
(-0.00521682 -0.00223725 0.00265395)
(-0.00688022 -0.00309515 0.00350224)
(-0.00704482 -5.76945e-05 0.00482864)
(-0.00553919 0.00212155 0.00532438)
(-0.0036253 0.00282583 0.00600078)
(-0.00258543 0.00257019 0.00623272)
(-0.00245308 0.00209825 0.00633792)
(-0.00307279 0.00150794 0.00614915)
(-0.0037919 0.00118224 0.00598245)
(-0.00433722 0.000964391 0.00574627)
(-0.0047008 0.000873901 0.0055371)
(-0.00497419 0.000787441 0.00533957)
(-0.00517135 0.000742992 0.00517151)
(-0.00532736 0.000688586 0.00502232)
(-0.00545243 0.000649107 0.00490348)
(-0.00554163 0.000612979 0.00481132)
(-0.00560621 0.000584804 0.00474833)
(-0.0056619 0.000563143 0.00471297)
(-0.0056868 0.000557589 0.00468147)
(-0.0056897 0.000564144 0.00464849)
(-0.00567805 0.000573431 0.00462174)
(-0.00564702 0.000602556 0.00460272)
(-0.00561926 0.000589622 0.00458225)
(-0.00559048 0.00063188 0.00457828)
(-0.00563899 0.000574531 0.00455878)
(-0.00560604 0.000718758 0.00457931)
(-0.00571287 0.000638348 0.00452786)
(-0.00566283 0.000937559 0.00455643)
(-0.00581083 0.000846858 0.00447758)
(-0.00576105 0.0012912 0.00448477)
(-0.00589969 0.00113434 0.00434964)
(-0.00587078 0.00164122 0.00428285)
(-0.00590886 0.00119636 0.0041341)
(-0.00578693 0.00170562 0.00407504)
(-0.00568829 0.000674893 0.00400845)
(-0.00536383 0.00173833 0.00414211)
(-0.00503713 0.000329869 0.00417347)
(-0.00439903 0.00255713 0.00435852)
(-0.00447535 0.00152561 0.00417591)
(-0.00357487 0.00638279 0.00250466)
(-0.00186021 0.00914782 0.0009796)
(0.00952802 0.0170375 0.000446619)
(0.025056 0.0110121 0.00705333)
(0.00566223 0.00708438 0.0436795)
(-0.0215353 -0.00654599 0.0642693)
(0.00138244 0.0480271 0.0815893)
(-0.0118641 -0.00147228 0.081821)
(0.0566957 0.0880624 0.182552)
(-0.132516 -0.150496 0.111526)
(0.0275763 0.0964958 -0.160401)
(0.0833247 -0.249913 -0.00678957)
(0.160195 -0.0813907 0.0111209)
(0.0707549 0.124908 0.00359225)
(0.0923177 0.0626044 0.0221212)
(0.049523 0.0830423 0.0242429)
(0.0310634 0.0508849 0.0219138)
(-0.00902 0.0555714 0.0132381)
(-0.03373 0.0536979 0.00735496)
(-0.0619004 0.0666109 0.00629173)
(-0.081231 0.0814562 0.00964326)
(-0.0936215 0.0950773 0.0114577)
(-0.0986347 0.105711 0.0070367)
(-0.0955365 0.119137 -0.000155915)
(-0.0853708 0.137003 -0.00868911)
(-0.069851 0.153128 -0.0150553)
(-0.0525956 0.16958 -0.0156573)
(-0.0315782 0.176831 -0.0172319)
(-0.0110508 0.178401 -0.0154143)
(0.00905341 0.177137 -0.0149167)
(0.0243119 0.168955 -0.0146526)
(0.034721 0.156587 -0.0148208)
(0.0382536 0.140695 -0.0139073)
(0.0348763 0.121821 -0.0120302)
(0.0210255 0.0968288 -0.0101444)
(0.00374188 0.0717687 -0.00796443)
(-0.00535198 0.0542107 -0.00899073)
(-0.00966925 0.0463411 -0.00487179)
(-0.00787972 0.0457809 0.0030819)
(-0.00592865 0.0404176 0.0129725)
(-0.0102567 0.0330443 0.0155701)
(-0.022703 0.0247807 0.00995112)
(-0.040565 0.0220436 0.000710939)
(-0.0555476 0.0235837 -0.00214192)
(-0.0647418 0.0238917 0.00959123)
(-0.0672989 0.0144507 0.0278452)
(-0.0852028 0.0109005 0.0399142)
(-0.107304 -0.00158287 0.0503929)
(0.0214425 0.0200328 0.00712337)
(0.0298878 0.0282729 0.00730216)
(0.0157394 0.0191911 0.00575535)
(0.0219251 0.0231144 0.00700771)
(0.0129359 0.00986699 0.00513677)
(0.0137595 0.00989308 0.005053)
(0.00576971 -0.000942383 0.00396032)
(0.00367775 0.00220572 0.00313842)
(-0.00124489 -0.00169525 0.00310933)
(-0.00542898 -0.000778779 0.00349089)
(-0.00796235 -0.0028382 0.00392622)
(-0.00900589 -0.00139069 0.00507122)
(-0.00643913 -0.000813891 0.00624174)
(-0.00386892 -2.26483e-05 0.00726763)
(-0.00269616 0.000185871 0.00802953)
(-0.00253243 0.000619045 0.00858169)
(-0.00294677 0.000833388 0.00872096)
(-0.00357445 0.00112316 0.00863155)
(-0.00409976 0.00127012 0.00834905)
(-0.00449817 0.0013837 0.00804933)
(-0.00479772 0.00140889 0.00775003)
(-0.00500047 0.00143439 0.00749065)
(-0.00514548 0.0014169 0.00726289)
(-0.00524972 0.00139005 0.00707944)
(-0.0053092 0.00135094 0.00692607)
(-0.00533295 0.00131613 0.0067996)
(-0.00534052 0.0012858 0.00669427)
(-0.00533261 0.00126607 0.00660797)
(-0.00530397 0.00126091 0.00653585)
(-0.00525945 0.00126012 0.00646857)
(-0.0052008 0.00126897 0.00640812)
(-0.00513701 0.00124324 0.0063511)
(-0.00508699 0.00126056 0.00631136)
(-0.00510329 0.00122042 0.00626427)
(-0.00507192 0.00136373 0.00624496)
(-0.00515419 0.00134753 0.00615249)
(-0.00513329 0.00163883 0.00611431)
(-0.00525302 0.00161065 0.00596127)
(-0.00519813 0.00197468 0.00588921)
(-0.00523906 0.0018104 0.00567736)
(-0.00509574 0.00215892 0.00557258)
(-0.00495139 0.00165659 0.00539162)
(-0.00462613 0.00204389 0.00538527)
(-0.0044801 0.00105488 0.00530798)
(-0.0041641 0.0020442 0.00543433)
(-0.00379197 0.000880355 0.00547054)
(-0.00366449 0.0030142 0.00541435)
(-0.00394114 0.00200532 0.00513486)
(-0.00641159 0.00605192 0.00407134)
(-0.00409304 0.00468454 0.00313977)
(0.0049856 0.0102709 0.00103819)
(0.0262109 0.00239284 0.00218113)
(0.0262413 0.0135479 0.0148942)
(-0.0310894 -0.0395604 0.0302465)
(-0.0502164 -0.0314262 0.043333)
(-0.0643584 -0.0639698 0.0658873)
(0.015681 -0.0455016 0.118878)
(-0.0127065 -0.127576 0.126488)
(0.0480401 -0.0223556 -0.149516)
(0.0439715 -0.245868 -0.0084794)
(0.106679 -0.00976947 -0.0043145)
(0.058558 0.152831 0.00596365)
(0.064672 0.132741 0.0186209)
(0.0362728 0.153884 0.0263891)
(0.011204 0.139565 0.0210947)
(-0.0225927 0.149299 0.0153132)
(-0.051479 0.144335 0.00844304)
(-0.0795165 0.158143 0.00287689)
(-0.0952623 0.165602 -0.00282127)
(-0.102713 0.17997 -0.0061794)
(-0.100737 0.193361 -0.00948671)
(-0.0936857 0.206261 -0.0111095)
(-0.0791487 0.211886 -0.0105445)
(-0.0614704 0.214182 -0.00785538)
(-0.0387235 0.212476 -0.00501181)
(-0.0184668 0.207102 -0.00364729)
(0.00448738 0.1999 -0.00323851)
(0.0238591 0.190566 -0.00510678)
(0.0411223 0.183055 -0.00769915)
(0.0533511 0.175937 -0.0120298)
(0.059988 0.171696 -0.0165107)
(0.0611176 0.169425 -0.0200325)
(0.05184 0.166485 -0.0226736)
(0.0365621 0.162561 -0.0163546)
(0.0244606 0.155361 -0.0146043)
(0.00470049 0.147946 -0.00580254)
(-0.000582929 0.13811 0.00305918)
(-0.00702867 0.130895 0.0139588)
(-0.0127781 0.120606 0.0192388)
(-0.0247813 0.104082 0.0192393)
(-0.0389366 0.0898243 0.0171699)
(-0.05056 0.0748243 0.0196728)
(-0.0591749 0.0619499 0.0286997)
(-0.0701554 0.0476198 0.0400714)
(-0.0931442 0.0369087 0.0479565)
(-0.114695 0.00796189 0.0491246)
(0.0108372 0.0166674 -0.00418664)
(0.0286181 0.0265622 0.00644077)
(0.00899525 0.01356 0.00401276)
(0.0192415 0.023611 0.00510125)
(0.0107286 0.00839663 0.00329079)
(0.0131176 0.0103402 0.00350861)
(0.00385279 -0.00211666 0.000945436)
(0.000604849 0.00237912 -0.000658831)
(-0.00401655 -0.000683791 -0.00118881)
(-0.0071129 0.00135707 -0.000293809)
(-0.00929023 -0.00186581 0.000601556)
(-0.0102276 -0.00203769 0.00136153)
(-0.00941651 -0.00312225 0.00225759)
(-0.00793578 -0.00223321 0.00337947)
(-0.00732695 -0.00146951 0.00436932)
(-0.00751438 -0.000493839 0.00521368)
(-0.00810057 0.000169055 0.00574061)
(-0.00870675 0.000781957 0.00599707)
(-0.00898449 0.00114845 0.00600723)
(-0.00909791 0.001459 0.00589036)
(-0.00917117 0.00161074 0.00571443)
(-0.00918391 0.00171413 0.00555144)
(-0.00915185 0.00174376 0.00541638)
(-0.00909631 0.0017427 0.00530499)
(-0.00901668 0.00172089 0.00520819)
(-0.00892035 0.00169654 0.00512451)
(-0.00881795 0.00167444 0.00505109)
(-0.0087116 0.00165882 0.00498211)
(-0.00859422 0.00165205 0.00491418)
(-0.00846013 0.0016503 0.00484363)
(-0.00831355 0.00165903 0.00477142)
(-0.00816751 0.00165122 0.00469716)
(-0.0081012 0.00168679 0.00463385)
(-0.00810025 0.00167788 0.00456765)
(-0.00811066 0.00181768 0.00451384)
(-0.00813589 0.0018285 0.00440223)
(-0.00814762 0.00210013 0.00432058)
(-0.00812529 0.00211537 0.00414201)
(-0.00807481 0.00249894 0.00402075)
(-0.00800236 0.00240729 0.00378192)
(-0.0079028 0.00268615 0.00364957)
(-0.00779616 0.00212015 0.00343385)
(-0.00756041 0.00232964 0.00339042)
(-0.00756021 0.0013963 0.00327411)
(-0.0074765 0.00229734 0.00331746)
(-0.00736902 0.00149881 0.00323059)
(-0.00781945 0.0036818 0.00278167)
(-0.00805796 0.00286941 0.00217179)
(-0.0106185 0.00646688 0.000798493)
(-0.00554501 0.000447123 0.000150748)
(0.00339431 0.00520118 0.000469229)
(0.0233154 -0.00786608 0.00398712)
(0.0338455 0.0138735 0.0147313)
(0.0199783 -0.0183517 0.0161275)
(-0.0329315 -0.0269147 0.0258569)
(-0.0555483 -0.0905442 0.0424038)
(-0.0422013 -0.09145 0.0594004)
(-0.0342895 -0.147511 0.0947481)
(-0.00391312 -0.0652314 -0.154949)
(0.0106083 -0.234237 -0.0161769)
(0.0350041 -0.0124741 -0.0206763)
(0.0263356 0.16629 0.000942385)
(0.0275835 0.160496 0.00910602)
(0.0203706 0.185238 0.0151861)