/*--------------------------------*- C++ -*----------------------------------*\
| =========                 |                                                 |
| \\      /  F ield         | OpenFOAM: The Open Source CFD Toolbox           |
|  \\    /   O peration     | Version:  2.3.0                                 |
|   \\  /    A nd           | Web:      www.OpenFOAM.org                      |
|    \\/     M anipulation  |                                                 |
\*---------------------------------------------------------------------------*/
FoamFile
{
    version     2.0;
    format      ascii;
    class       volVectorField;
    location    "28";
    object      U.waterMean;
}
// * * * * * * * * * * * * * * * * * * * * * * * * * * * * * * * * * * * * * //

dimensions      [0 1 -1 0 0 0 0];

internalField   nonuniform List<vector> 
6144
(
(0.00850894 0.01926 -0.0010787)
(0.0087102 0.00222132 -0.00162426)
(0.00483129 0.000423642 -0.00229463)
(0.00473602 -0.00167262 -0.00226502)
(0.00305064 -0.00287984 -0.00181811)
(0.00293656 -0.00212782 -0.00154453)
(0.00233493 -0.00222082 -0.00122416)
(0.00241388 -0.00111078 -0.00105716)
(0.00232919 -0.000537516 -0.00113991)
(0.00233959 0.000618066 -0.000961973)
(0.00231092 0.00135346 -0.000805549)
(0.00244625 0.00188732 -0.000523976)
(0.00257585 0.00177905 -0.00044471)
(0.00270883 0.00146148 -0.00035581)
(0.00276637 0.00093732 -0.000489162)
(0.00282267 0.000536974 -0.000595494)
(0.00284648 0.0001578 -0.000759579)
(0.00287356 -6.46445e-05 -0.000863185)
(0.0028897 -0.000260254 -0.000972406)
(0.0028999 -0.0003627 -0.00103271)
(0.0029017 -0.000447405 -0.00107441)
(0.00289831 -0.000481986 -0.00109171)
(0.00289068 -0.000506731 -0.00109637)
(0.00288065 -0.00051036 -0.00108816)
(0.00286817 -0.000509229 -0.00107108)
(0.00285411 -0.000502446 -0.00104671)
(0.00283839 -0.000493191 -0.00101645)
(0.00282114 -0.000484454 -0.000981775)
(0.00280317 -0.000467427 -0.000943594)
(0.00278358 -0.00046583 -0.00090204)
(0.002765 -0.000435857 -0.000854852)
(0.00273893 -0.000478144 -0.000796276)
(0.00271501 -0.00042939 -0.000722405)
(0.00267835 -0.000580583 -0.000628006)
(0.00265128 -0.000523251 -0.000505803)
(0.00260825 -0.000907291 -0.000360627)
(0.00258812 -0.000888573 -0.000196321)
(0.00255156 -0.00164581 -4.8187e-05)
(0.00255041 -0.00164911 5.12803e-05)
(0.00253814 -0.00275512 3.60277e-05)
(0.00255065 -0.00252094 -0.000145379)
(0.00256149 -0.00357306 -0.000568764)
(0.00258326 -0.0023885 -0.00113037)
(0.00269271 -0.0026945 -0.0016838)
(0.00289422 -0.00016378 -0.00210667)
(0.0033619 -0.000763038 -0.00232316)
(0.00405929 0.00105029 -0.00282315)
(0.00417685 -0.000799901 -0.00374244)
(0.0025928 0.00470689 -0.00499122)
(0.00332108 0.00816641 -0.00712833)
(0.0112546 0.0163023 -0.00967487)
(0.0218396 0.00277875 -0.0104328)
(0.0300074 -0.00341678 -0.0113879)
(0.0321703 -0.0416631 -0.0116787)
(0.0311115 -0.0363908 -0.0146273)
(0.0298563 -0.0820986 -0.0104316)
(0.0143616 -0.0421117 -0.0202072)
(0.0121268 -0.09773 0.0159567)
(-0.0281528 0.00524723 -0.0533571)
(0.0229564 -0.0362273 0.0393926)
(0.12979 -0.290301 0.0707612)
(0.0899201 -0.112362 0.0335061)
(0.0602464 -0.186048 0.0111718)
(0.0493777 -0.191423 0.00597876)
(0.0401726 -0.195439 0.00553821)
(0.0333196 -0.185175 0.00515555)
(0.0273288 -0.187808 0.00426833)
(0.0228486 -0.180424 0.00343441)
(0.0200566 -0.180106 0.00328225)
(0.0182732 -0.172853 0.00342054)
(0.0171395 -0.171037 0.00395013)
(0.015873 -0.164805 0.004209)
(0.0140964 -0.160351 0.00469442)
(0.0114758 -0.152512 0.00472173)
(0.00777342 -0.144016 0.00485615)
(0.00506279 -0.132423 0.0044525)
(0.00362858 -0.121075 0.00348298)
(0.00179074 -0.108476 0.00249583)
(-0.0004566 -0.0933521 0.00236295)
(-1.57011e-05 -0.0771012 0.00225953)
(0.00254868 -0.0633167 0.00187281)
(0.00447702 -0.0521856 0.0019617)
(0.00545527 -0.045341 0.00347622)
(0.00474009 -0.041432 0.00398194)
(0.00440382 -0.0367383 0.00340231)
(0.00416784 -0.0320663 0.00267092)
(0.00356693 -0.0267821 0.00214876)
(0.00250154 -0.0201847 0.0011119)
(0.000950129 -0.0132145 4.73639e-05)
(-0.000456442 -0.00365396 -0.00153379)
(0.000771873 0.00569212 -0.00197468)
(0.00197244 0.0129256 -0.00121367)
(0.0025824 0.0183007 0.00152651)
(0.00356535 0.0202831 0.00506322)
(0.00565645 0.0183989 0.00801935)
(0.00710767 0.00849696 0.0124788)
(0.0172431 0.0218754 0.0024985)
(0.0180195 0.00966641 0.00213486)
(0.0106147 0.00686422 0.000100604)
(0.0108639 0.00473322 0.000920725)
(0.00663529 0.00128485 0.0014294)
(0.00626505 0.000981157 0.00180367)
(0.00434444 -0.000535329 0.00214075)
(0.0042673 0.000531081 0.00194123)
(0.00391933 0.00093371 0.00172839)
(0.00407501 0.00216172 0.00175634)
(0.00417929 0.00264936 0.00181446)
(0.00464454 0.00304891 0.00214452)
(0.00496241 0.00272492 0.00227207)
(0.00529869 0.00235837 0.00238944)
(0.00538983 0.00171428 0.00232524)
(0.00549562 0.00123199 0.00227916)
(0.00549523 0.000740476 0.002184)
(0.00552864 0.000443154 0.00213073)
(0.00553585 0.000173423 0.00205236)
(0.00554306 2.36148e-05 0.00201733)
(0.00553112 -0.000102091 0.00199333)
(0.00551239 -0.000162128 0.00199513)
(0.00548523 -0.000205932 0.00200836)
(0.00545387 -0.000220887 0.00203566)
(0.00541896 -0.000227512 0.00207026)
(0.00538163 -0.000224922 0.00211107)
(0.00534192 -0.000218525 0.00215562)
(0.0052991 -0.000212183 0.00220367)
(0.00525428 -0.000199112 0.00225446)
(0.00520814 -0.000202895 0.00230106)
(0.005168 -0.000182638 0.0023464)
(0.0051152 -0.000246137 0.00239694)
(0.00507693 -0.000215283 0.00245509)
(0.00501691 -0.000413436 0.00251982)
(0.0050001 -0.000371515 0.0026005)
(0.00495422 -0.000827848 0.00268724)
(0.00498787 -0.00078974 0.00278737)
(0.00497419 -0.00163211 0.00287051)
(0.00505473 -0.00153707 0.00292923)
(0.00505115 -0.00274635 0.0029078)
(0.00507904 -0.00232452 0.00277857)
(0.00501678 -0.00354271 0.00239544)
(0.0049945 -0.00212301 0.00169566)
(0.00490627 -0.00278256 0.000928509)
(0.00520828 -0.000116256 0.000446448)
(0.00616588 -0.00126345 0.00024883)
(0.00682279 0.0012722 -0.000614358)
(0.00579383 0.00138524 -0.00184098)
(0.00416554 0.00795836 -0.00238229)
(0.00743363 0.00545034 -0.0033769)
(0.0236541 0.00508287 -0.00436527)
(0.0398669 -0.012466 -0.00394446)
(0.0550998 -0.0150741 -0.001177)
(0.0584137 -0.0475071 0.00129791)
(0.0533907 -0.0360327 0.00519405)
(0.0564027 -0.0976082 0.0144689)
(0.0172023 -0.0543653 0.0105695)
(0.00892631 -0.165071 0.039863)
(-0.076894 0.0248981 -0.0878237)
(0.00428388 -0.0809507 0.0124331)
(0.166225 -0.263885 0.113242)
(0.0862447 -0.00187436 0.0472272)
(0.0259145 -0.115225 0.0114373)
(0.0256898 -0.0553551 0.0143739)
(0.014499 -0.0764876 0.0143943)
(0.00702986 -0.0605301 0.0121516)
(0.00369927 -0.0641424 0.010099)
(0.00411274 -0.0566667 0.010364)
(0.00569084 -0.0572406 0.011042)
(0.00563392 -0.052443 0.0100543)
(0.00436076 -0.0534634 0.0110511)
(0.00223542 -0.051909 0.0120501)
(0.000208107 -0.0543932 0.0121224)
(-0.00243968 -0.0546992 0.0105282)
(-0.00461205 -0.0551686 0.00877371)
(-0.00540943 -0.0528456 0.00781354)
(-0.00593011 -0.0492596 0.00626095)
(-0.00851476 -0.0439145 0.00659179)
(-0.0106 -0.0382711 0.00642426)
(-0.00876175 -0.0322212 0.00638069)
(-0.00592724 -0.0262674 0.00624819)
(-0.00274284 -0.0201481 0.00773865)
(-0.000310772 -0.0186384 0.0103275)
(-0.000556055 -0.0191962 0.0109592)
(-0.00206492 -0.0186384 0.0100235)
(-0.0024073 -0.017809 0.00980631)
(-0.00277168 -0.016169 0.00909094)
(-0.00364328 -0.0132997 0.00756085)
(-0.00412079 -0.0105006 0.00588374)
(-0.00420223 -0.00716748 0.0036699)
(-0.00318606 -0.00323704 0.0017918)
(-0.00113006 0.00189676 -0.000309917)
(0.000214149 0.00901166 0.00114181)
(0.00244306 0.0123627 0.00630214)
(0.00548216 0.0123336 0.0111596)
(0.00717754 0.0049105 0.0165558)
(0.0207079 0.0220103 0.00363031)
(0.0222669 0.0131738 0.00338822)
(0.0138115 0.00965537 0.00107741)
(0.0143843 0.00896526 0.00195683)
(0.00845965 0.00450633 0.00235263)
(0.00759823 0.00375284 0.00283429)
(0.00416173 0.00106226 0.00337296)
(0.00381955 0.00186528 0.00325139)
(0.003184 0.00194309 0.00310165)
(0.00360313 0.00296245 0.00318579)
(0.00374262 0.00297329 0.00320472)
(0.00448628 0.00325334 0.0034557)
(0.00486525 0.00284133 0.00356503)
(0.00531087 0.00261294 0.00367948)
(0.00541419 0.00204104 0.00364829)
(0.0055372 0.00163559 0.00364573)
(0.0054743 0.00114175 0.0036071)
(0.00547207 0.000830879 0.00360678)
(0.0053995 0.000522387 0.0036029)
(0.00535715 0.000346698 0.00362128)
(0.00528924 0.000190253 0.00363996)
(0.0052311 0.000107362 0.00367044)
(0.00516822 4.40665e-05 0.00370188)
(0.00510894 1.53875e-05 0.00373848)
(0.00505016 -1.15296e-06 0.00377626)
(0.00499327 -5.43389e-06 0.00381534)
(0.00493661 -5.38958e-06 0.00385455)
(0.00487917 -6.53947e-06 0.0038943)
(0.0048216 -7.45552e-06 0.00393474)
(0.00476087 -3.02629e-05 0.00397686)
(0.00470535 -3.67178e-05 0.00402149)
(0.00463786 -0.000122402 0.00406784)
(0.00459064 -0.000124252 0.00411718)
(0.00451753 -0.00033486 0.00416724)
(0.00450675 -0.000302604 0.00422354)
(0.00446206 -0.000711392 0.00427731)
(0.00452776 -0.000592454 0.00433603)
(0.00452708 -0.00125157 0.00437519)
(0.004661 -0.000913426 0.00439641)
(0.00467691 -0.00177154 0.00435935)
(0.00479389 -0.000972713 0.00425385)
(0.00469394 -0.00192596 0.00404199)
(0.00461246 -0.000444267 0.00370662)
(0.0045159 -0.00149134 0.0032464)
(0.00496934 0.000515025 0.0028137)
(0.00596729 -0.00108121 0.00250806)
(0.00632599 0.00199252 0.00168484)
(0.0054616 0.00113899 0.000533465)
(0.00563491 0.00610287 0.000291868)
(0.0146951 -0.00210038 -0.000309352)
(0.0369083 -0.00313581 -0.000485948)
(0.0592336 -0.0172253 0.00158191)
(0.0727008 -0.0131584 0.00657016)
(0.0785353 -0.0378548 0.00916758)
(0.0776445 -0.0204866 0.0181514)
(0.0819912 -0.088434 0.028837)
(0.029154 -0.0294923 0.0375218)
(0.0362245 -0.187721 0.072627)
(-0.0836906 0.064613 -0.0723665)
(0.0261339 -0.11475 -0.0210561)
(0.190601 -0.242528 0.122013)
(0.104767 0.0454242 0.0551059)
(0.0671965 -0.0937793 0.0305449)
(0.0453456 -0.00993135 0.0160215)
(0.0287347 -0.0386215 0.0142045)
(0.0174699 -0.0161699 0.0134135)
(0.016373 -0.023175 0.0145137)
(0.013953 -0.0149558 0.0125245)
(0.0150608 -0.0134153 0.0106672)
(0.0150886 -0.00826228 0.0111295)
(0.0133285 -0.0122309 0.0120888)
(0.0103751 -0.0134616 0.0125172)
(0.00787609 -0.0181376 0.0112303)
(0.00507685 -0.018412 0.00939387)
(0.00171886 -0.0187144 0.0068909)
(-0.00196546 -0.016158 0.00524095)
(-0.00463214 -0.0129513 0.00571097)
(-0.00648145 -0.010357 0.00743002)
(-0.00801383 -0.00953343 0.0079546)
(-0.00787945 -0.00837726 0.00812006)
(-0.00653371 -0.00624141 0.00776119)
(-0.00373475 -0.00467639 0.00963537)
(-0.0014758 -0.0049012 0.0133616)
(-0.00405313 -0.00600636 0.0137195)
(-0.00676001 -0.00719294 0.0125492)
(-0.00778526 -0.00712783 0.0121501)
(-0.00757371 -0.00544582 0.0103068)
(-0.00741346 -0.00374129 0.00773172)
(-0.00693541 -0.00133875 0.00639662)
(-0.00602573 0.000883885 0.00478446)
(-0.00421719 0.00349016 0.00368835)
(-0.00326733 0.00553839 0.00353116)
(-0.00112837 0.00859686 0.00495852)
(0.00162512 0.00954859 0.0088085)
(0.00331862 0.00839392 0.0135673)
(0.00301218 0.00127125 0.0183497)
(0.022135 0.0221499 0.00390778)
(0.0254435 0.0155474 0.0039935)
(0.0153674 0.0105821 0.000848499)
(0.017405 0.0115268 0.00131063)
(0.010856 0.00626683 0.00124029)
(0.0101999 0.006118 0.00191431)
(0.00454598 0.00159748 0.00278482)
(0.00340165 0.00204159 0.0028526)
(0.00210069 0.00144219 0.0029937)
(0.0028439 0.00280232 0.00323581)
(0.00300045 0.00255466 0.00336307)
(0.00373176 0.00297892 0.00376063)
(0.00402985 0.00266732 0.00393127)
(0.00447895 0.00265831 0.00407796)
(0.00457768 0.00218019 0.00404403)
(0.00470921 0.00188088 0.0040514)
(0.00462102 0.00139834 0.0040223)
(0.00460372 0.00110322 0.00403767)
(0.00449883 0.000773524 0.00404364)
(0.00443388 0.000579542 0.00407173)
(0.00434135 0.000397576 0.00409812)
(0.00426218 0.000295945 0.00413512)
(0.00417656 0.000214361 0.00417101)
(0.0040983 0.000171814 0.00421048)
(0.00402333 0.000144638 0.00425007)
(0.00395301 0.000132844 0.00429065)
(0.00388608 0.000126207 0.00433124)
(0.00382179 0.00011956 0.00437178)
(0.00376055 0.000111257 0.00441222)
(0.00370202 8.31249e-05 0.00445321)
(0.00365323 6.53501e-05 0.00449541)
(0.00359806 -2.15679e-05 0.00453855)
(0.00356931 -2.98409e-05 0.00458187)
(0.00351837 -0.000219103 0.00462223)
(0.00353787 -0.000163999 0.00465966)
(0.00351091 -0.000498355 0.00468588)
(0.00360231 -0.000285314 0.00470144)
(0.00358923 -0.00077234 0.00468694)
(0.00372199 -0.000217953 0.00464351)
(0.00369667 -0.000783444 0.00455334)
(0.003851 0.000340922 0.00442514)
(0.00385915 -0.000382793 0.00426433)
(0.00408277 0.00103823 0.00408258)
(0.00410637 -0.000523592 0.00390828)
(0.00434098 0.000945115 0.00379793)
(0.00482021 -0.00110124 0.00365939)
(0.00543047 0.00185407 0.00307578)
(0.00534916 -0.00031122 0.00236603)
(0.00804773 0.00214986 0.00255454)
(0.0186544 -0.00893884 0.00128158)
(0.0421493 -0.00795331 0.00203489)
(0.0652302 -0.0129574 0.00834427)
(0.0787674 0.000645709 0.0154758)
(0.0841597 -0.0121516 0.0206398)
(0.0826089 0.0165476 0.0361751)
(0.0823292 -0.052159 0.0487388)
(0.0289274 0.0463961 0.0925785)
(0.0624534 -0.208442 0.13005)
(-0.101487 0.183777 -0.0402351)
(0.0262924 -0.204367 0.00777751)
(0.170361 -0.207003 0.131986)
(0.0760965 0.0719716 0.04348)
(0.0437702 -0.0596094 0.0306286)
(0.0104257 0.0365451 0.0039971)
(0.00619455 0.0104783 0.00973512)
(-5.84313e-05 0.0339532 0.0100772)
(0.00117471 0.0295964 0.0105211)
(0.00122703 0.0396485 0.00886072)
(0.00455871 0.0376047 0.00783323)
(0.00636476 0.041796 0.00776856)
(0.00678741 0.0373161 0.00778341)
(0.0057481 0.0368221 0.00600098)
(0.00363522 0.0340614 0.00406072)
(0.000417072 0.0342025 0.00303266)
(-0.00182981 0.0338028 0.00289251)
(-0.00500419 0.031912 0.00503958)
(-0.0083728 0.0273014 0.00746975)
(-0.0111622 0.0237542 0.00994495)
(-0.0126999 0.0199177 0.0113164)
(-0.0124913 0.0192964 0.0108762)
(-0.011435 0.0189359 0.0116144)
(-0.0113141 0.0194904 0.0118946)
(-0.0114948 0.0194711 0.0133247)
(-0.0120198 0.0174339 0.0132073)
(-0.0144762 0.0154858 0.0122646)
(-0.0155792 0.013779 0.0108082)
(-0.0139221 0.0148275 0.00726504)
(-0.0123964 0.0162937 0.00575301)
(-0.0109201 0.0153407 0.00499203)
(-0.00888727 0.0153111 0.00330847)
(-0.00722657 0.0156619 0.0035889)
(-0.00524993 0.0144557 0.00499157)
(-0.00326311 0.0133286 0.00746509)
(-0.000766558 0.0109075 0.0121943)
(-0.00127731 0.00814978 0.015779)
(-0.0040699 0.000437267 0.0190071)
(0.022176 0.0222334 0.00444511)
(0.027631 0.0181827 0.00508571)
(0.0162624 0.0108844 0.000991243)
(0.0195369 0.0131719 0.0014775)
(0.0128296 0.00646955 0.000347612)
(0.0132034 0.00777145 0.000788273)
(0.00639329 0.00229708 0.00107157)
(0.00416837 0.00270681 0.00177864)
(0.00112632 0.000392028 0.00229998)
(0.00153249 0.00183755 0.00282261)
(0.00156429 0.00141443 0.00307935)
(0.0021497 0.0022428 0.00371637)
(0.0022659 0.00216566 0.00394477)
(0.00269849 0.00245182 0.00414263)
(0.0027844 0.00210409 0.00408574)
(0.00288679 0.00191137 0.00410697)
(0.00272748 0.00146149 0.00407268)
(0.00263139 0.00120947 0.00409527)
(0.0024492 0.000890749 0.00409268)
(0.00232651 0.000707575 0.0041104)
(0.00218307 0.000514547 0.00411796)
(0.00206805 0.00039741 0.0041371)
(0.00195646 0.000298196 0.00415538)
(0.00186089 0.000241895 0.0041791)
(0.00177557 0.000202588 0.00420402)
(0.0017002 0.000180842 0.00423154)
(0.00163173 0.00016652 0.00425957)
(0.0015703 0.000154008 0.00428863)
(0.00151585 0.000139019 0.00431858)
(0.00146734 0.0001082 0.00434822)
(0.00142885 8.67427e-05 0.00437666)
(0.00138619 1.18372e-05 0.00440271)
(0.00136693 1.39591e-05 0.00442658)
(0.00132454 -0.000131857 0.00444381)
(0.00135552 -3.41453e-05 0.00445486)
(0.00134 -0.000272628 0.00444526)
(0.00144688 3.68379e-05 0.00441508)
(0.0014235 -0.00027808 0.00433747)
(0.00154495 0.000448363 0.00422201)
(0.00146877 0.000106648 0.00406174)
(0.00169708 0.00137056 0.003917)
(0.00189781 0.000697095 0.00382559)
(0.00251815 0.00198501 0.00378773)
(0.0027637 0.000128209 0.0038005)
(0.00298937 0.00125435 0.00387651)
(0.00322159 -0.00122548 0.0038832)
(0.003934 0.00130394 0.00377275)
(0.00517943 -0.00154033 0.00408237)
(0.0101575 -0.00102161 0.00460437)
(0.022087 -0.0129301 0.00392805)
(0.0417498 -0.0074716 0.00679796)
(0.0615963 -0.0017427 0.0180058)
(0.0725609 0.0229667 0.0252196)
(0.0755478 0.020174 0.0298328)
(0.0699172 0.0545467 0.0518584)
(0.0677302 -0.00109251 0.0648425)
(0.0456312 0.11602 0.111595)
(0.076354 -0.162298 0.133084)
(-0.0771372 0.304866 -0.00691035)
(0.0189016 -0.2641 0.0181247)
(0.147524 -0.174012 0.135612)
(0.0560515 0.0850686 0.0354949)
(0.0430996 -0.0181802 0.0307848)
(0.00953723 0.0669075 0.00142205)
(0.0125736 0.0491074 0.0088247)
(0.00445483 0.0705277 0.00804068)
(0.00506035 0.0687187 0.0082983)
(0.00453332 0.0783667 0.00672906)
(0.00758831 0.0769599 0.00652603)
(0.00923955 0.0819443 0.00608648)
(0.0101498 0.0799684 0.00583601)
(0.0093941 0.0816572 0.00535794)
(0.00854004 0.0801481 0.00573551)
(0.00610189 0.0787017 0.00668833)
(0.00350799 0.0749263 0.00849741)
(-0.000427011 0.0699179 0.00978767)
(-0.00404932 0.0650484 0.010885)
(-0.00766817 0.0602862 0.0112925)
(-0.0101896 0.05645 0.0116338)
(-0.0106791 0.0544449 0.0117065)
(-0.0113294 0.0529237 0.0122779)
(-0.0122428 0.0493271 0.0135167)
(-0.0119332 0.0444763 0.0150233)
(-0.0125137 0.0396889 0.0131035)
(-0.0138291 0.0357314 0.0090449)
(-0.0140151 0.0343133 0.00407094)
(-0.0116896 0.034482 0.00141796)
(-0.00897645 0.0334158 0.000476528)
(-0.00754758 0.0309621 0.000393022)
(-0.00694319 0.0287401 0.00178641)
(-0.00686521 0.0261063 0.00447521)
(-0.00587119 0.0220962 0.00693338)
(-0.00491768 0.0189215 0.0103036)
(-0.0040046 0.013017 0.0145802)
(-0.00580309 0.0100527 0.0181989)
(-0.0114258 0.000298749 0.0187232)
(0.0206105 0.0220046 0.00580042)
(0.0290621 0.0211054 0.00665356)
(0.0161642 0.0108742 0.00187677)
(0.0206941 0.0146301 0.00302286)
(0.0138057 0.00519499 0.00104256)
(0.0150127 0.00801984 0.000911597)
(0.00859653 0.0018448 7.62724e-05)
(0.00587054 0.00338919 0.000708484)
(0.00148682 -0.000229878 0.001527)
(0.000716433 0.000975059 0.00228087)
(0.000263819 -0.000115739 0.00263254)
(0.000610622 0.00102039 0.00348328)
(0.000777325 0.00120646 0.00384064)
(0.00132824 0.00194347 0.00420513)
(0.00153535 0.00173065 0.00424829)
(0.00167558 0.00169126 0.00435621)
(0.00148976 0.00130278 0.00433491)
(0.00135169 0.0011499 0.00435943)
(0.00113032 0.000897663 0.00432477)
(0.000984424 0.000785556 0.00430633)
(0.00082819 0.000637932 0.00426639)
(0.00070893 0.000556631 0.00423635)
(0.000598356 0.00047599 0.00420462)
(0.000507458 0.000429023 0.00418078)
(0.00043225 0.00039255 0.00416076)
(0.000371884 0.000370257 0.00414751)
(0.000324009 0.000354908 0.00414001)
(0.000287872 0.00034323 0.0041385)
(0.000261568 0.000332392 0.00414176)
(0.000244586 0.000312962 0.00414954)
(0.000238202 0.000305817 0.00416071)
(0.000232102 0.000262522 0.00417235)
(0.000248683 0.000296544 0.0041865)
(0.00024705 0.0002203 0.00419304)
(0.000309955 0.000388385 0.00418929)
(0.000320343 0.000278367 0.00415498)
(0.000419408 0.000697798 0.00408468)
(0.000357218 0.000539218 0.00394792)
(0.000421438 0.00132524 0.0037594)
(0.000330446 0.00100916 0.00354441)
(0.000614176 0.0021142 0.00339099)
(0.000941111 0.00131747 0.00335994)
(0.00176595 0.00247537 0.00348588)
(0.00205062 0.000495929 0.00368662)
(0.00219623 0.00148992 0.00381222)
(0.00198206 -0.00106477 0.00360952)
(0.00265971 0.0015586 0.00365522)
(0.00460876 -0.00214039 0.0051954)
(0.0114918 -0.00313253 0.00626916)
(0.0221155 -0.0138571 0.00753872)
(0.0347842 -0.0035241 0.0137571)
(0.0451182 0.00774287 0.0282319)
(0.056577 0.0358666 0.0380776)
(0.0597685 0.0376659 0.0432666)
(0.0553922 0.0735096 0.0616771)
(0.0522785 0.0142817 0.0664558)
(0.0490178 0.117308 0.089333)
(0.0638761 -0.126322 0.0873876)
(-0.00468731 0.358281 0.033142)
(0.0175294 -0.30385 0.0256254)
(0.0852622 -0.133268 0.124954)
(0.0208905 0.107505 0.0144608)
(0.0134577 0.0356367 0.0165792)
(-0.00793473 0.10727 -0.000743483)
(-0.00551254 0.102639 0.0092729)
(-0.00794224 0.120196 0.0097842)
(-0.00343549 0.118353 0.0106302)
(0.000368156 0.125817 0.00958356)
(0.00544169 0.12347 0.00945603)
(0.00911802 0.127701 0.00940941)
(0.0124183 0.126162 0.00982384)
(0.0131836 0.126858 0.0101235)
(0.0133873 0.123896 0.0107069)
(0.0118003 0.122222 0.0117567)
(0.00962223 0.11754 0.0129214)
(0.00637414 0.112691 0.0138119)
(0.0032306 0.10643 0.0143072)
(-0.000205622 0.100098 0.0139753)
(-0.00322811 0.093929 0.0133618)
(-0.00527571 0.087353 0.0131687)
(-0.00692865 0.0805688 0.013036)
(-0.00832577 0.0730986 0.0131803)
(-0.00877548 0.0657319 0.0116328)
(-0.00925779 0.0594659 0.00677687)
(-0.0102814 0.0553801 0.0014898)
(-0.01042 0.0535893 -0.00146621)
(-0.00895052 0.0522368 -0.00268914)
(-0.00704478 0.0512964 -0.00296729)
(-0.00589283 0.0492939 -0.000570953)
(-0.00652317 0.0456777 0.00380031)
(-0.00737317 0.0395537 0.00653233)
(-0.00789762 0.0332006 0.00968604)
(-0.0078076 0.0267753 0.0134537)
(-0.00822266 0.0181981 0.0168722)
(-0.0114344 0.0130338 0.0189065)
(-0.0156312 0.000410251 0.0157179)
(0.0163498 0.0205965 0.00596493)
(0.0286791 0.0246273 0.0086132)
(0.0137279 0.0101623 0.0034952)
(0.0197441 0.0164967 0.00571698)
(0.0123198 0.00371716 0.00330023)
(0.0142263 0.0075656 0.00304545)
(0.00855716 0.00031134 0.00141634)
(0.00648736 0.00319518 0.00090432)
(0.00159174 -0.000715951 0.00137456)
(-6.2394e-05 0.000810414 0.00222575)
(-0.00138575 -0.00107099 0.00252184)
(-0.00191573 0.000155962 0.00332799)
(-0.00224851 0.000344185 0.00372584)
(-0.00160757 0.00132373 0.00436214)
(-0.001334 0.00115972 0.0046113)
(-0.00120843 0.00131649 0.0048332)
(-0.00149912 0.00103021 0.00481726)
(-0.00176342 0.00102966 0.00480966)
(-0.00208573 0.000880094 0.00472033)
(-0.00228726 0.00087426 0.00465459)
(-0.00247298 0.00080313 0.00456681)
(-0.00259872 0.000789657 0.00449786)
(-0.00270088 0.000756439 0.00443212)
(-0.00277287 0.000744158 0.00438273)
(-0.00282248 0.000729401 0.00434309)
(-0.0028548 0.000720107 0.00431674)
(-0.00287579 0.00071175 0.00429993)
(-0.00288284 0.000706206 0.00429256)
(-0.00287772 0.00070355 0.00429356)
(-0.00286171 0.000698969 0.00430237)
(-0.00283837 0.000713197 0.00431922)
(-0.00281489 0.000709367 0.00434036)
(-0.00278432 0.000787802 0.00436474)
(-0.00278283 0.000792086 0.00437722)
(-0.00272944 0.00103201 0.00437815)
(-0.00272087 0.00102716 0.00434861)
(-0.00260458 0.00149594 0.00430016)
(-0.00259493 0.00137219 0.00419988)
(-0.00241347 0.00202729 0.00405342)
(-0.0023743 0.00150211 0.00383889)
(-0.00198977 0.00225402 0.00364538)
(-0.00164759 0.00117073 0.00351359)
(-0.000750664 0.00218587 0.00361912)
(-0.000402472 0.00030322 0.00382501)
(-0.000269279 0.00145992 0.00391748)
(-0.000754403 -0.000799093 0.00339907)
(0.000455115 0.00154997 0.00340516)
(0.00350529 -0.0035176 0.00530805)
(0.010897 -0.005985 0.00683162)
(0.0190024 -0.0114623 0.00985891)
(0.0203457 0.00598953 0.0185634)
(0.0240039 0.0228573 0.0327423)
(0.0305376 0.0525779 0.0450109)
(0.0351644 0.0616597 0.0532256)
(0.0432773 0.0947206 0.0669095)
(0.046346 0.0377212 0.0688363)
(0.0612249 0.133099 0.0811643)
(0.0528484 -0.115646 0.0662982)
(0.0189553 0.340317 0.0643115)
(0.0103772 -0.313913 0.0311205)
(0.0235928 -0.0973103 0.107395)
(-0.0093423 0.124251 0.012832)
(-0.0106598 0.0784587 0.0110293)
(-0.0186362 0.143899 -0.000263345)
(-0.0123236 0.13627 0.0116223)
(-0.00918098 0.149572 0.0114753)
(-0.00371885 0.14391 0.0112385)
(0.00165045 0.150691 0.010459)
(0.00644465 0.149044 0.0114804)
(0.00992407 0.153693 0.0121464)
(0.0134356 0.152288 0.0133277)
(0.0152491 0.154844 0.0138729)
(0.0168825 0.152686 0.0154097)
(0.0158846 0.15053 0.0156232)
(0.0147397 0.145068 0.0166215)
(0.0117782 0.139211 0.0160991)
(0.00896197 0.132698 0.0153125)
(0.00522115 0.125486 0.0138105)
(0.00227478 0.118617 0.0128719)
(3.88639e-05 0.111485 0.0129995)
(-0.000623736 0.104061 0.0130802)
(-0.000674805 0.095722 0.0112851)
(-0.000148554 0.0881789 0.0078509)
(-0.000856949 0.0820968 0.0031654)
(-0.0019697 0.0778893 -0.00116225)
(-0.00261152 0.0732153 -0.00445796)
(-0.00296274 0.0701518 -0.00604961)
(-0.00310148 0.0669523 -0.0061322)
(-0.00318452 0.0630773 -0.0047146)
(-0.00286148 0.0591505 -0.00136677)
(-0.00312652 0.0523821 0.00163833)
(-0.00535811 0.0447883 0.00437975)
(-0.00685042 0.0365694 0.00702577)
(-0.00892841 0.0263455 0.0108323)
(-0.0126518 0.0176485 0.013716)
(-0.0210559 -0.000179748 0.00867752)
(0.0116439 0.0152007 0.00460596)
(0.027146 0.0278925 0.00915174)
(0.00963183 0.00884163 0.00426403)
(0.0171795 0.0189235 0.007172)
(0.00986313 0.00299943 0.00487394)
(0.0118442 0.0078939 0.00474917)
(0.00635992 -0.00081522 0.0033329)
(0.00528523 0.00313319 0.00212986)
(0.000722572 -0.00113388 0.00207792)
(-0.00102179 0.000963366 0.00277758)
(-0.00253815 -0.00137423 0.00317133)
(-0.00333245 -0.000240985 0.00392547)
(-0.00357087 -0.000774709 0.0045661)
(-0.00277701 0.000115306 0.00538734)
(-0.00244337 -8.48842e-05 0.00593875)
(-0.0023301 0.000465767 0.00635457)
(-0.00259652 0.000464832 0.00650429)
(-0.00279346 0.000806205 0.00656874)
(-0.00304755 0.000850683 0.00650901)
(-0.0031817 0.00101811 0.00644567)
(-0.00330984 0.00104756 0.00635285)
(-0.00337951 0.0011109 0.00628033)
(-0.00343012 0.00112386 0.00621188)
(-0.00344975 0.00114132 0.00616425)
(-0.00344835 0.00114481 0.00612901)
(-0.00342875 0.00114825 0.00610872)
(-0.00339867 0.0011488 0.00609913)
(-0.00335811 0.00115168 0.0060995)
(-0.00331079 0.00115868 0.00610715)
(-0.0032572 0.00116958 0.00612203)
(-0.00320285 0.00120157 0.00614151)
(-0.00315378 0.00122955 0.00616238)
(-0.00310712 0.0013421 0.00618349)
(-0.00308979 0.0014071 0.00619573)
(-0.00301717 0.00168296 0.00620003)
(-0.00298411 0.00172897 0.00617804)
(-0.00283211 0.00217084 0.00614322)
(-0.00276374 0.00202321 0.00606115)
(-0.00246007 0.00256246 0.00595328)
(-0.0022846 0.00195594 0.00577974)
(-0.00181829 0.00251475 0.00558906)
(-0.00159804 0.00127737 0.00537333)
(-0.000971148 0.00208646 0.00532866)
(-0.000903324 0.000221544 0.00542843)
(-0.00113963 0.00150713 0.00542723)
(-0.00188249 -0.000963199 0.00476644)
(-0.00011024 -9.40083e-05 0.00439152)
(0.00413668 -0.00617498 0.00535545)
(0.00903221 -0.0053752 0.00718601)
(0.00556779 0.00112872 0.0156642)
(-0.00356896 0.0227292 0.0269296)
(-0.00545567 0.0432061 0.0374199)
(0.000839414 0.0705864 0.0457215)
(0.0130323 0.0874572 0.0522096)
(0.031891 0.120508 0.0662842)
(0.0549045 0.0973287 0.0738602)
(0.0850855 0.164946 0.09308)
(0.0731226 -0.0388465 0.0860231)
(0.0587772 0.364676 0.0437486)
(-0.0101534 -0.332198 0.028885)
(-0.0577207 -0.0682248 0.0740956)
(-0.0428444 0.156183 -0.00869458)
(-0.0423673 0.109379 0.00363279)
(-0.0314827 0.164453 -0.00402683)
(-0.0246792 0.146694 0.007117)
(-0.0123669 0.153535 0.00535854)
(-0.00630757 0.146127 0.00472506)
(0.000356326 0.151697 0.00380393)
(0.00548731 0.152311 0.00448773)
(0.0101922 0.157833 0.00657011)
(0.0137534 0.158475 0.00801088)
(0.0159307 0.162361 0.00927694)
(0.0179693 0.163685 0.0109808)
(0.0191065 0.166349 0.0122524)
(0.0195512 0.164963 0.0138711)
(0.018665 0.161563 0.0150759)
(0.0170623 0.156309 0.0157085)
(0.0149496 0.150076 0.0159896)
(0.0125573 0.142692 0.016029)
(0.0109216 0.134619 0.0157181)
(0.00984719 0.126413 0.0149897)
(0.00976325 0.118559 0.0134967)
(0.00926097 0.112682 0.0111317)
(0.00842317 0.108719 0.00707532)
(0.00797656 0.106034 0.00462326)
(0.00565844 0.102989 0.00257487)
(0.00405012 0.100298 0.00092878)
(0.00359055 0.0957091 -0.000908428)
(0.00377523 0.0924907 -0.00121048)
(0.00467175 0.0881005 0.0011856)
(0.00435424 0.0823014 0.00439316)
(0.00204149 0.0757389 0.00816206)
(0.000694992 0.0661215 0.0105397)
(-0.00107014 0.0532288 0.0114501)
(-0.0046072 0.0343324 0.00715129)
(-0.0107117 0.00673845 -0.00829828)
(0.000772466 0.0104598 -0.00493801)
(0.0244497 0.0301531 0.00651752)
(0.00361331 0.00794156 0.00145757)
(0.0133572 0.0220612 0.00466439)
(0.00608996 0.00369627 0.00299324)
(0.00800596 0.00949274 0.00283565)
(0.00274027 -0.000285995 0.00161875)
(0.00258183 0.00415237 0.000149576)
(-0.00121944 -0.000423289 -0.000639856)
(-0.00295927 0.00164377 -0.000395369)
(-0.00479055 -0.00113386 -3.16859e-06)
(-0.00574138 -0.000206394 0.000621689)
(-0.00663425 -0.00149112 0.00128)
(-0.00630366 -0.000669023 0.00202511)
(-0.00651546 -0.000809796 0.00269002)
(-0.00657427 3.09776e-05 0.00315104)
(-0.00700249 0.000172902 0.00345922)
(-0.00722524 0.000691822 0.00364344)
(-0.00750405 0.000823047 0.00371513)
(-0.00762267 0.00108082 0.00374712)
(-0.00772804 0.00117024 0.00373515)
(-0.00777544 0.00128173 0.00372535)
(-0.00779913 0.00132773 0.00371206)
(-0.00779634 0.0013659 0.00371029)
(-0.00777572 0.00138332 0.00371471)
(-0.0077397 0.00139725 0.00372731)
(-0.0076927 0.0014078 0.00374486)
(-0.00763465 0.00142071 0.00376666)
(-0.00756773 0.00143948 0.00379039)
(-0.00749648 0.00146653 0.00381484)
(-0.00743063 0.00151307 0.00383778)
(-0.00737422 0.00156241 0.00385749)
(-0.00733734 0.00168444 0.00387271)
(-0.00733136 0.00175925 0.00388234)
(-0.00726407 0.00201309 0.00388191)
(-0.00720697 0.00205547 0.00387183)
(-0.00700499 0.00246881 0.00384595)
(-0.00685551 0.00236131 0.00379178)
(-0.006517 0.00291014 0.00368192)
(-0.00630619 0.0023836 0.00351452)
(-0.00580561 0.00296404 0.00328586)
(-0.0055353 0.00176044 0.00303463)
(-0.00484735 0.0023285 0.00290933)
(-0.0047845 0.000257175 0.0030432)
(-0.0048107 0.00110881 0.0029306)
(-0.00439279 -0.00174194 0.00200604)
(-0.00123011 -0.00107113 0.00196239)
(0.00103692 -0.0046903 0.00174574)
(-0.00349038 0.00221424 0.00326641)
(-0.0138585 0.00987716 0.0124397)
(-0.0285894 0.022029 0.025491)
(-0.0302172 0.0298754 0.0342699)
(-0.0253985 0.0500952 0.0376477)
(-0.0147652 0.0544623 0.0367898)
(-0.000281554 0.0984255 0.0479327)
(0.0295412 0.0530971 0.0467465)
(0.077557 0.157719 0.0694044)
(0.0903676 -0.0316894 0.0785446)
(0.145905 0.393576 0.0255026)
(-0.0139596 -0.309914 0.0229804)
(-0.119119 -0.118155 0.0639951)
(-0.0644812 0.142956 -0.00898317)
(-0.061083 0.0569533 0.00546258)
(-0.031324 0.118598 2.50046e-05)
(-0.0269484 0.0781377 0.0115976)
(-0.00999141 0.0863039 0.00804161)
(-0.00563362 0.0717808 0.0060204)
(1.80795e-05 0.0747214 0.00374939)
(0.00266822 0.071855 0.00206542)
(0.00701249 0.0755838 0.00261239)
(0.009002 0.0738396 0.00193176)
(0.00993222 0.0774754 0.00172483)