/*--------------------------------*- C++ -*----------------------------------*\
| =========                 |                                                 |
| \\      /  F ield         | OpenFOAM: The Open Source CFD Toolbox           |
|  \\    /   O peration     | Version:  2.3.0                                 |
|   \\  /    A nd           | Web:      www.OpenFOAM.org                      |
|    \\/     M anipulation  |                                                 |
\*---------------------------------------------------------------------------*/
FoamFile
{
    version     2.0;
    format      ascii;
    class       volVectorField;
    location    "28";
    object      Ur;
}
// * * * * * * * * * * * * * * * * * * * * * * * * * * * * * * * * * * * * * //

dimensions      [0 1 -1 0 0 0 0];

internalField   nonuniform List<vector> 
6144
(
(-2.90618e-07 0.000472412 -1.7775e-07)
(-1.82761e-07 0.000504229 -3.1281e-07)
(9.75712e-08 0.000536951 -3.11415e-07)
(4.1783e-07 0.00056203 -2.17846e-07)
(6.29588e-07 0.000586607 -9.74084e-08)
(8.00118e-07 0.000612331 -2.88638e-08)
(8.7065e-07 0.00064155 2.18144e-08)
(8.57117e-07 0.000674146 4.69048e-08)
(7.75408e-07 0.000698988 5.8757e-08)
(6.84201e-07 0.000708239 5.20636e-08)
(5.8518e-07 0.000708256 4.53141e-08)
(4.86891e-07 0.000706374 5.00122e-08)
(3.87934e-07 0.000704553 4.55641e-08)
(3.01479e-07 0.000702921 3.74035e-08)
(2.29611e-07 0.00070148 2.91662e-08)
(1.68034e-07 0.000700245 1.95021e-08)
(1.23766e-07 0.000699221 1.00717e-08)
(8.04818e-08 0.000698389 9.76614e-10)
(5.0633e-08 0.000697706 -7.80966e-09)
(2.05349e-08 0.000697157 -2.01237e-08)
(2.69108e-09 0.000696722 -2.71252e-08)
(-1.87289e-08 0.00069638 -3.49113e-08)
(-2.8316e-08 0.000696122 -3.74577e-08)
(-4.43317e-08 0.000695934 -4.27966e-08)
(-4.80584e-08 0.000695812 -4.33658e-08)
(-6.06605e-08 0.000695749 -4.89745e-08)
(-5.99667e-08 0.000695744 -5.17558e-08)
(-7.05359e-08 0.000695792 -5.93818e-08)
(-6.64365e-08 0.000695898 -6.19746e-08)
(-7.58465e-08 0.000696055 -7.1545e-08)
(-6.91165e-08 0.000696271 -7.55936e-08)
(-7.81903e-08 0.00069655 -8.91015e-08)
(-6.82802e-08 0.000696908 -9.7323e-08)
(-7.64419e-08 0.000697349 -1.16554e-07)
(-6.24046e-08 0.000697886 -1.29462e-07)
(-6.80112e-08 0.000698524 -1.55358e-07)
(-4.65869e-08 0.000699277 -1.75232e-07)
(-4.4244e-08 0.00070014 -2.13707e-07)
(-6.93749e-09 0.000701108 -2.46504e-07)
(1.53102e-08 0.000702161 -2.94653e-07)
(8.67377e-08 0.00070328 -3.25131e-07)
(1.48974e-07 0.000704443 -3.60792e-07)
(2.63618e-07 0.000705409 -4.16523e-07)
(3.5083e-07 0.000708309 -5.13134e-07)
(4.70022e-07 0.000728262 -6.36641e-07)
(6.06382e-07 0.000794161 -8.35533e-07)
(7.28663e-07 0.000919415 -1.15419e-06)
(1.10391e-06 0.00113795 -1.42688e-06)
(2.92858e-06 0.00157232 -2.09615e-06)
(9.83051e-07 0.00224061 -2.96439e-06)
(-1.27312e-05 0.0030206 -2.81742e-06)
(-3.95801e-05 0.00375818 -1.04127e-05)
(-2.77224e-05 0.00419944 -2.45415e-05)
(-1.77301e-06 0.0044031 -2.60403e-05)
(-6.14994e-06 0.0045422 -1.96357e-05)
(-1.26849e-05 0.00454732 -3.68481e-05)
(-0.000161038 0.00508995 -0.000112199)
(5.97642e-07 0.00709878 2.38566e-06)
(-0.000873061 0.0238689 -0.000658018)
(0.0068094 0.143125 0.00185977)
(-0.0277192 0.615861 -0.0294976)
(-0.0468817 0.551886 -0.041674)
(-0.0207673 0.2028 -0.0122648)
(-0.000128827 0.0281224 -0.00011812)
(-6.83053e-05 0.00623482 -5.80332e-05)
(-4.39142e-05 0.00650577 -1.95986e-05)
(-4.64257e-05 0.00652047 -5.68779e-05)
(-3.557e-05 0.00655 -6.20523e-05)
(-3.95678e-05 0.00657905 -4.8976e-05)
(-4.58833e-05 0.00662728 -2.96465e-05)
(-5.32987e-05 0.00667255 -1.72314e-05)
(-4.34145e-05 0.00672383 -1.30439e-05)
(-2.07089e-05 0.00677237 -1.36107e-05)
(-2.25415e-05 0.00681491 -1.61628e-05)
(-2.20609e-05 0.00685758 -1.51089e-05)
(-2.10234e-05 0.00688274 -1.57637e-05)
(-2.23931e-05 0.0068968 -1.66262e-05)
(-1.26702e-05 0.00687846 -9.21015e-06)
(-4.34771e-06 0.00686421 6.17951e-06)
(-8.15662e-06 0.00690096 1.05871e-05)
(-1.91958e-05 0.00697798 -2.68553e-06)
(-4.92257e-05 0.00703779 -5.09155e-05)
(-3.7992e-05 0.00706936 -3.63865e-05)
(-1.6098e-05 0.007038 -1.13407e-05)
(-1.0873e-05 0.00705953 4.72802e-06)
(-1.19396e-05 0.00708436 1.71351e-05)
(-1.24297e-05 0.00711117 1.9681e-06)
(-1.3611e-05 0.00711872 -1.78032e-05)
(-4.31098e-06 0.00710476 -2.55093e-05)
(-1.73496e-06 0.00708826 -4.75126e-05)
(4.4513e-06 0.00714467 -5.66917e-05)
(-6.10201e-06 0.00723535 -2.90294e-05)
(1.79134e-06 0.007087 -1.13581e-05)
(-1.32966e-05 0.00628331 -1.04157e-05)
(-1.97982e-06 0.00525926 -5.12783e-06)
(-1.72653e-06 0.00485747 1.63839e-05)
(-2.30997e-07 0.000456435 -2.67812e-07)
(3.15027e-07 0.000503059 -4.30877e-07)
(1.03002e-06 0.000548266 -2.55342e-07)
(1.64018e-06 0.000577059 -1.83766e-07)
(2.09712e-06 0.000602596 -9.37533e-08)
(2.37899e-06 0.000628463 -1.90227e-08)
(2.48282e-06 0.000656248 5.35128e-08)
(2.39818e-06 0.00068361 8.91799e-08)
(2.15813e-06 0.000702357 8.31883e-08)
(1.87957e-06 0.000708553 6.56652e-08)
(1.57502e-06 0.000707931 6.22243e-08)
(1.28885e-06 0.000706242 6.90549e-08)
(1.01673e-06 0.000704628 7.08839e-08)
(7.82151e-07 0.000703129 7.46721e-08)
(5.93012e-07 0.000701753 6.47397e-08)
(4.39151e-07 0.000700549 5.77639e-08)
(3.21143e-07 0.000699539 4.10851e-08)
(2.18634e-07 0.000698708 3.22668e-08)
(1.37487e-07 0.000698024 1.92793e-08)
(6.51886e-08 0.000697472 1.44431e-08)
(1.10831e-08 0.000697031 3.83851e-09)
(-3.652e-08 0.00069669 2.73399e-09)
(-6.94605e-08 0.000696433 -6.3967e-09)
(-9.97218e-08 0.000696251 -5.06839e-09)
(-1.17106e-07 0.000696138 -1.40093e-08)
(-1.34933e-07 0.000696086 -1.13758e-08)
(-1.40805e-07 0.000696094 -2.10704e-08)
(-1.49386e-07 0.000696159 -1.79659e-08)
(-1.45581e-07 0.00069628 -2.98785e-08)
(-1.48139e-07 0.000696455 -2.55554e-08)
(-1.37675e-07 0.000696688 -3.80449e-08)
(-1.32821e-07 0.000696989 -3.45347e-08)
(-1.12306e-07 0.000697366 -5.12926e-08)
(-9.68486e-08 0.000697826 -4.95078e-08)
(-6.12531e-08 0.000698379 -7.03752e-08)
(-2.67759e-08 0.000699037 -7.1049e-08)
(3.86099e-08 0.000699801 -9.94684e-08)
(1.13318e-07 0.000700671 -1.09423e-07)
(2.36409e-07 0.000701639 -1.52916e-07)
(3.84871e-07 0.000702688 -1.77619e-07)
(6.09553e-07 0.000703804 -2.38593e-07)
(8.77682e-07 0.00070493 -2.75722e-07)
(1.2287e-06 0.000705891 -3.35704e-07)
(1.65395e-06 0.000708941 -4.03196e-07)
(2.20138e-06 0.000729238 -5.57953e-07)
(2.8445e-06 0.000797544 -7.76427e-07)
(3.61115e-06 0.000932571 -1.24712e-06)
(5.30256e-06 0.00115461 -1.9192e-06)
(8.52271e-06 0.00145416 -3.40362e-06)
(8.09367e-06 0.00196291 -1.80785e-06)
(-1.86e-06 0.00295508 5.38147e-06)
(-1.8034e-05 0.00393826 -1.28822e-05)
(-1.72506e-05 0.00434875 -1.96994e-05)
(3.18718e-05 0.00438767 -3.09772e-05)
(3.59497e-05 0.00440202 -1.26544e-05)
(3.78509e-05 0.00428086 -4.46348e-05)
(-0.000378496 0.00531587 -0.000143104)
(3.68312e-05 0.00706295 -0.000141636)
(-0.000607111 0.0180618 -0.000366725)
(0.0185345 0.132227 0.0165309)
(-0.0458957 0.598795 -0.0284679)
(-0.0560312 0.434956 -0.0490968)
(-0.00321763 0.0222507 -0.000576945)
(-0.000114212 0.00629617 -6.55967e-05)
(-9.70575e-05 0.00647203 -4.23545e-05)
(-5.96012e-05 0.00647939 -5.02726e-05)
(-1.88657e-05 0.00649886 -6.09243e-05)
(-2.38734e-05 0.00650377 -5.4811e-05)
(-4.03314e-05 0.00651384 -4.40905e-05)
(-4.4437e-05 0.00654381 -2.88433e-05)
(-4.55719e-05 0.00661298 -6.99092e-06)
(-3.4749e-05 0.00677137 -2.60036e-06)
(-2.34227e-05 0.00699107 -1.31711e-05)
(-2.02215e-05 0.00717929 -1.30998e-05)
(-2.46223e-05 0.00728476 -1.08792e-05)
(-2.88373e-05 0.00728321 -2.22576e-06)
(-2.06353e-05 0.00721241 -2.18119e-06)
(3.74589e-06 0.00710986 -8.66951e-06)
(3.213e-05 0.00703682 -3.96969e-06)
(3.55629e-05 0.00703045 1.09782e-05)
(2.04447e-06 0.00707757 1.38613e-05)
(-5.64629e-05 0.00709693 -1.37918e-05)
(-5.30923e-05 0.00700813 -1.37334e-05)
(-3.14651e-05 0.00695477 6.70785e-06)
(-3.123e-05 0.00699098 1.18986e-05)
(-4.11524e-05 0.00700787 3.67773e-06)
(-5.048e-05 0.00700923 -1.50664e-05)
(-4.63067e-05 0.00699864 -3.19228e-05)
(-2.11627e-05 0.00698131 -4.5013e-05)
(9.34428e-07 0.00701639 -5.6857e-05)
(5.23569e-06 0.00709075 -5.17699e-05)
(-4.01635e-06 0.00720174 -3.4124e-06)
(-2.31136e-05 0.00716678 -4.56106e-06)
(-3.81458e-05 0.00669641 -1.81057e-05)
(-1.9856e-05 0.00582948 -1.07336e-05)
(-1.25282e-05 0.00507622 2.38334e-05)
(3.17414e-07 0.000435047 -6.3012e-07)
(1.59734e-06 0.000481376 -4.41516e-07)
(2.24303e-06 0.000532655 -3.13915e-07)
(3.07879e-06 0.000566387 -1.63008e-07)
(3.56959e-06 0.000594314 2.69788e-08)
(3.88964e-06 0.00062489 1.17821e-07)
(3.87393e-06 0.000657061 1.80853e-07)
(3.66292e-06 0.000682594 1.61983e-07)
(3.25021e-06 0.000696444 1.26443e-07)
(2.77343e-06 0.000701845 1.10138e-07)
(2.26003e-06 0.000703412 1.05552e-07)
(1.76435e-06 0.000703829 1.1596e-07)
(1.33164e-06 0.000703539 1.19212e-07)
(9.58262e-07 0.000702649 1.17698e-07)
(6.63981e-07 0.000701492 1.1296e-07)
(4.26677e-07 0.000700366 1.05029e-07)
(2.47357e-07 0.000699404 9.73186e-08)
(9.67284e-08 0.000698607 8.87824e-08)
(-1.52025e-08 0.000697956 8.1634e-08)
(-1.13365e-07 0.000697428 7.44452e-08)
(-1.84236e-07 0.000697008 7.00299e-08)
(-2.49229e-07 0.000696681 6.53373e-08)
(-2.93835e-07 0.000696435 6.28737e-08)
(-3.35724e-07 0.00069626 5.93397e-08)
(-3.59973e-07 0.000696155 5.77313e-08)
(-3.84423e-07 0.000696109 5.46226e-08)
(-3.91844e-07 0.000696121 5.30136e-08)
(-4.01499e-07 0.000696189 4.9424e-08)
(-3.93431e-07 0.000696313 4.70502e-08)
(-3.88527e-07 0.000696496 4.18179e-08)
(-3.63482e-07 0.000696741 3.69969e-08)
(-3.4092e-07 0.000697055 2.86248e-08)
(-2.9297e-07 0.000697443 2.04129e-08)
(-2.42818e-07 0.000697913 8.3002e-09)
(-1.5839e-07 0.000698475 -3.93082e-09)
(-6.46221e-08 0.000699135 -2.16027e-08)
(7.76027e-08 0.000699902 -4.20539e-08)
(2.46224e-07 0.000700782 -6.86532e-08)
(4.85534e-07 0.000701779 -9.71787e-08)
(7.71488e-07 0.000702893 -1.30226e-07)
(1.15414e-06 0.000704111 -1.65528e-07)
(1.61346e-06 0.000705389 -2.18289e-07)
(2.22369e-06 0.000707087 -2.88868e-07)
(2.97508e-06 0.000713211 -3.89296e-07)
(3.89476e-06 0.000739447 -5.15781e-07)
(4.93426e-06 0.000807824 -7.5584e-07)
(6.33935e-06 0.000920304 -1.23814e-06)
(8.60656e-06 0.00108355 -2.32089e-06)
(1.2261e-05 0.00134449 -3.34868e-06)
(2.29986e-05 0.00205758 -2.47358e-06)
(5.29268e-05 0.00332351 -2.00214e-06)
(5.50528e-05 0.00410296 -2.60759e-05)
(4.73623e-05 0.00427379 -2.63489e-05)
(8.26014e-05 0.00425811 -2.03295e-05)
(0.00015578 0.00424767 -1.44726e-05)
(0.000117076 0.00397024 -8.04211e-05)
(-0.000550792 0.0056618 -0.000250974)
(-6.96511e-05 0.00821626 -0.000351743)
(-0.00066562 0.0168848 -0.000335275)
(0.0216867 0.14295 0.024612)
(-0.0211268 0.601415 -0.0212477)
(-0.0258434 0.416467 -0.0405386)
(-0.000447248 0.0240236 -0.00181144)
(-0.000352411 0.0077736 -9.40811e-05)
(-0.000365732 0.0072666 -5.81462e-05)
(0.000115383 0.00744492 -7.45652e-05)
(2.93386e-05 0.00798712 -6.83327e-05)
(-6.95224e-05 0.00835225 -1.68547e-05)
(-5.48369e-05 0.00791 8.33076e-06)
(-1.27602e-05 0.0074558 2.57538e-05)
(1.64629e-05 0.00729464 3.42647e-05)
(2.06707e-05 0.00719687 1.27096e-05)
(6.39112e-06 0.0071621 -1.43533e-05)
(-1.07887e-05 0.00723483 -1.84163e-05)
(-7.36001e-06 0.00727739 4.63207e-06)
(1.46082e-05 0.00725254 2.44049e-05)
(3.14197e-05 0.00723568 1.24599e-05)
(4.73788e-05 0.00725142 -9.94624e-06)
(7.93715e-05 0.0072459 -1.77253e-05)
(0.000101598 0.00717465 -7.61466e-06)
(8.04293e-05 0.00710148 -5.12557e-06)
(6.47067e-06 0.00707732 -1.3912e-05)
(-4.34254e-05 0.00705278 -1.53902e-05)
(-2.1271e-05 0.00701659 3.76294e-06)
(-9.99465e-06 0.00696587 1.9297e-05)
(-1.39749e-05 0.00695752 1.64711e-05)
(-2.68868e-05 0.00700283 -9.73185e-06)
(-3.19083e-05 0.00704623 -2.43435e-05)
(-1.76259e-05 0.00706001 -3.28277e-05)
(-1.23897e-07 0.00706327 -2.94422e-05)
(2.89381e-06 0.00711469 -1.34983e-05)
(-1.45374e-06 0.00720626 1.03282e-05)
(-5.84145e-05 0.00720977 -1.58382e-06)
(-6.53088e-05 0.00694263 -2.91428e-05)
(-4.91732e-05 0.00620035 -1.14197e-05)
(-2.58206e-05 0.00526745 2.3431e-05)
(8.55078e-07 0.000417991 -1.89933e-07)
(2.79042e-06 0.000457655 -1.60735e-07)
(3.46148e-06 0.000512225 -1.80418e-07)
(4.5094e-06 0.000550497 2.58482e-08)
(4.93199e-06 0.000577559 1.87939e-07)
(5.24682e-06 0.00060662 2.49803e-07)
(5.16119e-06 0.000641617 2.83069e-07)
(4.81909e-06 0.000673553 2.26625e-07)
(4.22027e-06 0.000691118 1.88491e-07)
(3.55172e-06 0.000697765 1.46203e-07)
(2.8306e-06 0.000700614 1.25428e-07)
(2.17954e-06 0.000702228 1.38067e-07)
(1.58893e-06 0.000702606 1.35539e-07)
(1.09484e-06 0.000702002 1.40761e-07)
(6.92498e-07 0.000700972 1.29128e-07)
(3.73371e-07 0.000699924 1.25466e-07)
(1.14652e-07 0.000699015 1.11972e-07)
(-8.98647e-08 0.000698261 1.10856e-07)
(-2.56113e-07 0.000697646 9.88314e-08)
(-3.82818e-07 0.000697147 9.97295e-08)
(-4.88501e-07 0.000696745 8.785e-08)
(-5.65454e-07 0.000696429 9.09615e-08)
(-6.31313e-07 0.000696189 7.96964e-08)
(-6.77103e-07 0.000696018 8.3865e-08)
(-7.17622e-07 0.000695914 7.20939e-08)
(-7.40368e-07 0.000695871 7.74758e-08)
(-7.60464e-07 0.000695883 6.45121e-08)
(-7.62661e-07 0.000695953 7.03287e-08)
(-7.62685e-07 0.00069608 5.49563e-08)
(-7.42816e-07 0.000696272 5.9953e-08)
(-7.19707e-07 0.000696531 4.03546e-08)
(-6.72214e-07 0.000696866 4.31235e-08)
(-6.16743e-07 0.000697281 1.84106e-08)
(-5.27575e-07 0.000697788 1.84665e-08)
(-4.1943e-07 0.000698395 -1.3816e-08)
(-2.64422e-07 0.000699117 -2.09281e-08)
(-7.63775e-08 0.000699962 -6.41297e-08)
(1.75441e-07 0.000700932 -7.71386e-08)
(4.76989e-07 0.000702032 -1.22751e-07)
(8.63852e-07 0.000703274 -1.34192e-07)
(1.32749e-06 0.000704634 -1.84102e-07)
(1.89999e-06 0.000706187 -2.09022e-07)
(2.60397e-06 0.000709278 -2.96026e-07)
(3.48634e-06 0.000718809 -3.69867e-07)
(4.57915e-06 0.000747666 -4.6658e-07)
(5.80008e-06 0.000811654 -6.14137e-07)
(7.09851e-06 0.000915669 -8.86573e-07)
(8.9258e-06 0.00110394 -1.58463e-06)
(1.27631e-05 0.00150648 -2.68781e-06)
(3.1265e-05 0.00242368 -6.77455e-06)
(7.46393e-05 0.00362043 -3.35449e-05)
(7.53748e-05 0.0040862 -4.40537e-05)
(8.75043e-05 0.00412327 -3.195e-05)
(9.77752e-05 0.00418884 -9.04239e-06)
(0.000156457 0.00422517 7.75416e-05)
(0.000137767 0.00379274 9.75089e-05)
(0.000315024 0.00633069 0.000550552)
(0.000357017 0.00986057 0.000320655)
(-0.00115144 0.0165209 -0.000730526)
(0.0263971 0.170077 0.0226295)
(-0.000433919 0.643367 -0.0313481)
(-0.0132769 0.529019 -0.0508965)
(-0.0146055 0.5569 -0.02501)
(-0.0242456 0.563424 -0.0074624)
(-0.0124805 0.566891 -0.0030439)
(0.0116621 0.584908 -0.00484974)
(0.00582373 0.531897 0.00426879)
(0.00893744 0.47231 0.0120514)
(0.0043608 0.337499 0.00630419)
(0.000432637 0.104767 -0.00208551)
(0.000289584 0.0314695 -0.000865767)
(0.000249955 0.00856669 -0.00082305)
(0.000206034 0.0072772 -0.000455343)
(0.000169207 0.00678245 -4.68806e-06)
(5.90157e-05 0.00682637 8.20515e-06)
(-8.32709e-05 0.00683942 1.47639e-05)
(-0.00019663 0.00687253 4.63353e-06)
(-7.74262e-05 0.00717157 -2.7074e-05)
(0.000147084 0.00804525 -5.58794e-05)
(0.000117322 0.00926906 -8.13995e-05)
(-0.000145293 0.0095243 -6.2873e-05)
(-0.000281041 0.00893711 -3.12832e-05)
(-4.51192e-05 0.00809339 -2.73003e-06)
(-1.90156e-05 0.00730376 1.40124e-05)
(2.23999e-06 0.00679241 1.9464e-05)
(8.12532e-06 0.00677403 1.24439e-05)
(-3.54987e-07 0.00693794 1.5959e-06)
(-1.42041e-05 0.00701631 -6.96182e-06)
(-1.28683e-05 0.00703 -1.35331e-05)
(4.7287e-06 0.00705466 -1.63776e-05)
(1.73233e-05 0.00713347 -1.01585e-05)
(-8.7203e-06 0.0072033 -8.77989e-07)
(-5.17055e-05 0.00718058 -1.56362e-05)
(-6.20654e-05 0.00702699 -3.02607e-05)
(-5.11434e-05 0.00639217 -5.14081e-06)
(-2.82017e-05 0.00545541 2.28878e-05)
(1.12458e-06 0.000403848 -1.14269e-07)
(3.87294e-06 0.000432686 9.41312e-08)
(4.72068e-06 0.000489058 -1.01824e-07)
(5.88848e-06 0.0005345 3.47641e-08)
(6.19756e-06 0.0005647 2.13332e-07)
(6.47095e-06 0.000592824 2.88431e-07)
(6.21095e-06 0.000624953 3.17291e-07)
(5.71527e-06 0.000659418 2.72911e-07)
(4.97388e-06 0.000682892 2.37663e-07)
(4.14224e-06 0.00069335 1.70133e-07)
(3.29796e-06 0.000698092 1.26873e-07)
(2.53025e-06 0.000700986 1.15253e-07)
(1.83266e-06 0.000701999 1.22262e-07)
(1.233e-06 0.000701611 1.24146e-07)
(7.42319e-07 0.000700686 1.26876e-07)
(3.38182e-07 0.000699726 1.13426e-07)
(1.74137e-08 0.000698901 1.12869e-07)
(-2.49435e-07 0.00069822 9.9718e-08)
(-4.59821e-07 0.00069767 1.00789e-07)
(-6.33784e-07 0.000697223 8.69268e-08)
(-7.64402e-07 0.000696868 8.87539e-08)
(-8.7011e-07 0.000696591 7.38174e-08)
(-9.45284e-07 0.000696382 7.6022e-08)
(-1.00739e-06 0.000696234 6.135e-08)
(-1.04679e-06 0.000696145 6.47325e-08)
(-1.07908e-06 0.000696109 4.9337e-08)
(-1.09096e-06 0.000696129 5.3673e-08)
(-1.09659e-06 0.000696203 3.66464e-08)
(-1.08072e-06 0.000696335 4.06266e-08)
(-1.05723e-06 0.000696528 1.99233e-08)
(-1.00886e-06 0.000696789 2.12347e-08)
(-9.49267e-07 0.000697123 -5.46305e-09)
(-8.58247e-07 0.000697544 -7.60983e-09)
(-7.4636e-07 0.000698064 -4.05971e-08)
(-5.92546e-07 0.0006987 -4.89451e-08)
(-4.05929e-07 0.000699467 -9.25872e-08)
(-1.62063e-07 0.000700371 -1.09395e-07)
(1.2944e-07 0.000701408 -1.57136e-07)
(4.93563e-07 0.000702587 -1.70838e-07)
(9.35978e-07 0.000703929 -2.14135e-07)
(1.48104e-06 0.000705465 -2.37308e-07)
(2.13449e-06 0.000707587 -3.00042e-07)
(2.88904e-06 0.000711983 -3.47049e-07)
(3.75785e-06 0.000723544 -4.10491e-07)
(4.73565e-06 0.000752675 -4.66415e-07)
(5.88035e-06 0.000813308 -5.29501e-07)
(7.22728e-06 0.000933771 -4.86835e-07)
(8.13733e-06 0.00120224 -7.31723e-07)
(8.50303e-06 0.00176137 -2.34006e-06)
(1.96693e-05 0.00273407 -1.27695e-05)
(3.14101e-05 0.00373458 -4.64527e-05)
(5.43301e-05 0.00399163 -5.62997e-05)
(8.39516e-05 0.00401834 -5.36163e-05)
(0.000105573 0.00417754 1.86307e-05)
(8.29565e-05 0.00423844 8.28372e-05)
(-3.0899e-05 0.00428148 0.000146173)
(0.000450165 0.00686538 0.000543723)
(0.000651225 0.00926263 0.000775609)
(-0.000174327 0.0161503 -0.000431622)
(0.0106255 0.187141 0.0148216)
(0.0127806 0.659283 -0.0214957)
(-0.00692755 0.537879 -0.04524)
(-0.0131324 0.579519 -0.0196533)
(-0.0153834 0.56149 -0.0140311)
(-0.002486 0.56392 0.0070427)
(0.0134263 0.559982 0.0193927)
(0.00765592 0.540474 0.0121828)
(-0.000666832 0.548584 0.00586037)
(-0.00253422 0.544828 0.00279204)
(-0.00663997 0.537387 0.00210442)
(-0.0125701 0.537574 0.000634905)
(-0.0134484 0.53808 0.00279978)
(-0.0134778 0.536579 0.00175896)
(-0.0123495 0.530878 -0.00310355)
(-0.0064479 0.525918 -0.0095819)
(-0.00282748 0.527485 -0.0208299)
(0.00188234 0.529773 -0.0332878)
(0.010618 0.544024 -0.0341685)
(0.0163683 0.551828 -0.0202443)
(0.0102908 0.534013 -0.000882599)
(0.000636215 0.490048 0.00875429)
(-0.00480114 0.336897 0.00877737)
(-3.80353e-05 0.0302935 3.37314e-05)
(2.7455e-05 0.0079399 4.42315e-06)
(8.61846e-05 0.00694142 2.84366e-05)
(0.000129285 0.0066056 1.90363e-05)
(0.000186219 0.00648791 -5.70328e-06)
(1.43306e-05 0.00666813 -1.26464e-05)
(2.23532e-05 0.00693313 -4.15766e-06)
(2.65568e-05 0.007063 -3.66595e-06)
(2.65287e-05 0.00713727 -5.69942e-06)
(-8.30787e-06 0.00717352 -2.03467e-05)
(-3.04105e-05 0.00715536 -2.79179e-05)
(-3.74082e-05 0.0070184 -2.22446e-05)
(-2.80266e-05 0.00635987 1.92123e-07)
(-2.90247e-05 0.00538767 2.02391e-05)
(1.57715e-06 0.000396541 -1.25377e-07)
(5.15643e-06 0.000414668 4.26386e-07)
(6.1351e-06 0.000466873 -7.14281e-08)
(7.29327e-06 0.000516418 -3.30774e-08)
(7.45997e-06 0.000552571 1.41181e-07)
(7.53792e-06 0.000582313 1.61944e-07)
(7.04023e-06 0.000609191 2.5558e-07)
(6.35834e-06 0.000641245 2.48283e-07)
(5.46449e-06 0.000670746 2.12818e-07)
(4.55479e-06 0.000687505 1.60978e-07)
(3.61784e-06 0.000694704 9.5727e-08)
(2.78249e-06 0.000699016 7.51744e-08)
(2.00182e-06 0.000700839 7.01497e-08)
(1.33648e-06 0.000700657 9.99446e-08)
(7.59001e-07 0.000699812 9.98242e-08)
(2.91556e-07 0.000698938 1.09423e-07)
(-8.30824e-08 0.000698184 9.80544e-08)
(-3.85228e-07 0.000697564 1.01311e-07)
(-6.34029e-07 0.000697066 8.66044e-08)
(-8.31225e-07 0.000696674 8.72785e-08)
(-9.86661e-07 0.000696375 6.9378e-08)
(-1.10333e-06 0.000696151 6.90359e-08)
(-1.19053e-06 0.000695985 4.95947e-08)
(-1.24953e-06 0.000695875 5.04454e-08)
(-1.29114e-06 0.000695818 3.15625e-08)
(-1.31238e-06 0.000695813 3.40263e-08)
(-1.32073e-06 0.000695859 1.4279e-08)
(-1.30982e-06 0.00069596 1.64569e-08)
(-1.28528e-06 0.000696118 -6.08116e-09)
(-1.23934e-06 0.000696341 -5.91335e-09)
(-1.17628e-06 0.000696632 -3.30637e-08)
(-1.08867e-06 0.000697005 -3.57983e-08)
(-9.77783e-07 0.000697467 -6.75043e-08)
(-8.32074e-07 0.000698036 -7.55304e-08)
(-6.50887e-07 0.000698727 -1.1697e-07)
(-4.21048e-07 0.000699559 -1.34086e-07)
(-1.3456e-07 0.000700539 -1.80891e-07)
(2.20772e-07 0.000701673 -1.99712e-07)
(6.55776e-07 0.000702976 -2.43765e-07)
(1.17645e-06 0.00070446 -2.65888e-07)
(1.79023e-06 0.000706125 -3.27309e-07)
(2.49396e-06 0.000708323 -3.8995e-07)
(3.29315e-06 0.000712876 -4.68529e-07)
(4.09664e-06 0.000725189 -5.01059e-07)
(4.96144e-06 0.000755856 -5.09288e-07)
(5.9097e-06 0.000821974 -4.56698e-07)
(6.98209e-06 0.000965901 -3.46043e-07)
(6.95364e-06 0.00127685 -6.64831e-07)
(4.27498e-06 0.00187761 -3.88273e-06)
(4.65035e-06 0.00282264 -1.90864e-05)
(5.23985e-06 0.00370504 -6.11266e-05)
(2.46266e-05 0.00391146 -6.51639e-05)
(6.92655e-05 0.00393366 -3.39672e-05)
(8.93718e-05 0.00412864 2.18086e-05)
(9.73397e-05 0.00422748 9.70432e-05)
(2.35864e-05 0.00414792 0.000131174)
(-0.000662144 0.00649176 -8.34191e-05)
(7.17427e-05 0.00836556 0.000521745)
(6.96599e-05 0.010836 -1.82759e-06)
(-0.0121376 0.188422 0.0107355)
(0.00488234 0.665799 -0.029798)
(-0.0188489 0.565616 -0.0561332)
(-0.00931565 0.582889 4.29709e-05)
(-0.00393325 0.554112 -2.197e-05)
(-0.000576223 0.543488 0.00275601)
(0.00582176 0.548442 0.00641599)
(0.00172219 0.542303 0.00750771)
(-0.0020904 0.540292 0.00661517)
(-0.00167861 0.539281 0.0052987)
(-0.0059629 0.537169 0.00514859)
(-0.00814572 0.536192 0.00547854)
(-0.00796223 0.5341 0.00306656)
(-0.0072746 0.535822 -0.00188328)
(-0.0019475 0.538283 -0.0095767)
(0.00398986 0.540984 -0.0200384)
(0.0102591 0.548638 -0.0321768)
(0.0160167 0.557834 -0.0345371)
(0.0196546 0.560172 -0.010711)
(0.0174596 0.55798 0.014202)
(0.00135745 0.546846 0.0119558)
(-0.00324406 0.540069 0.00708699)
(-0.0104396 0.536095 0.00687921)
(-0.0133818 0.528728 0.00131854)
(-0.00462545 0.52909 -0.00556252)
(-0.000342523 0.523564 -2.54068e-05)
(-0.00474116 0.480082 0.00416276)
(-0.00745149 0.316158 0.00176612)
(9.03723e-05 0.0280415 -0.000223019)
(0.00013237 0.00582915 2.07611e-06)
(0.000174174 0.00632822 -3.9942e-06)
(0.000140049 0.00637253 -1.29399e-05)
(7.18641e-05 0.00632527 -2.80252e-05)
(5.49592e-05 0.00612403 -2.81757e-05)
(3.74316e-05 0.00562696 -2.11389e-05)
(3.19939e-05 0.00504052 -6.60991e-07)
(-1.25968e-05 0.00477594 -4.10936e-06)
(2.11352e-06 0.000392825 1.13572e-07)
(6.67299e-06 0.000405038 1.00023e-06)
(7.95284e-06 0.000448575 2.46122e-07)
(8.7831e-06 0.000496975 2.32141e-07)
(8.68128e-06 0.000541129 1.02197e-07)
(8.38765e-06 0.000575959 4.63956e-08)
(7.69493e-06 0.000600711 1.28919e-07)
(6.83125e-06 0.000629902 1.58839e-07)
(5.73071e-06 0.000660529 1.4489e-07)
(4.76805e-06 0.000681186 9.08479e-08)
(3.84266e-06 0.000691357 6.31293e-08)
(3.009e-06 0.000697303 3.98862e-08)
(2.18384e-06 0.000700034 4.97791e-08)
(1.40288e-06 0.000700214 7.0395e-08)
(7.52392e-07 0.000699533 1.06733e-07)
(2.3194e-07 0.00069878 1.17076e-07)
(-1.69565e-07 0.000698119 1.25567e-07)
(-4.81524e-07 0.000697557 1.09565e-07)
(-7.29376e-07 0.0006971 1.05296e-07)
(-9.23572e-07 0.000696728 8.32713e-08)
(-1.0721e-06 0.000696425 7.77061e-08)
(-1.18311e-06 0.000696194 5.61193e-08)
(-1.26426e-06 0.000696035 5.1046e-08)
(-1.31678e-06 0.000695936 3.01866e-08)
(-1.34866e-06 0.000695893 2.68671e-08)
(-1.35779e-06 0.000695901 6.96e-09)
(-1.34986e-06 0.000695961 4.63223e-09)
(-1.32167e-06 0.000696075 -1.57972e-08)
(-1.27888e-06 0.00069625 -1.85937e-08)
(-1.2123e-06 0.000696491 -4.14098e-08)
(-1.12936e-06 0.000696808 -4.67826e-08)
(-1.01605e-06 0.000697208 -7.34625e-08)
(-8.76421e-07 0.000697704 -8.30018e-08)
(-6.88717e-07 0.000698309 -1.16848e-07)
(-4.61716e-07 0.000699045 -1.33385e-07)
(-1.72009e-07 0.000699932 -1.71081e-07)
(1.70974e-07 0.000700981 -1.92763e-07)
(5.99196e-07 0.000702206 -2.34736e-07)
(1.10328e-06 0.000703627 -2.61811e-07)
(1.71932e-06 0.000705253 -3.08109e-07)
(2.41263e-06 0.00070709 -3.55501e-07)
(3.19324e-06 0.000709442 -4.26714e-07)
(4.00576e-06 0.000713765 -5.01209e-07)
(4.86542e-06 0.000726088 -5.23629e-07)
(5.71916e-06 0.000759863 -5.03058e-07)
(6.51693e-06 0.000836917 -3.14891e-07)
(7.05951e-06 0.00100118 -1.02173e-07)
(6.71244e-06 0.00134178 -6.68345e-07)
(2.51401e-06 0.00198731 -7.50706e-06)
(-1.20603e-05 0.00293209 -3.0952e-05)
(-1.35256e-05 0.00373576 -6.43185e-05)
(1.74995e-05 0.00394004 -7.21641e-05)
(7.08424e-05 0.00399635 -3.20342e-05)
(0.00015393 0.00419295 1.94584e-05)
(0.000245288 0.00427634 7.27687e-05)
(0.0004306 0.00367135 0.000162159)
(-0.000209683 0.0071384 -0.000636084)
(0.000195418 0.0112159 0.000201381)
(-0.000425507 0.0121056 0.000402172)
(-0.0112285 0.189426 0.0109998)
(0.00101734 0.655296 -0.0234708)
(-0.0401207 0.573393 -0.0753509)
(-0.00172665 0.58248 -0.00709629)
(0.0100825 0.564552 0.00726199)
(0.00334772 0.546975 0.00790037)
(0.000744403 0.547165 0.00152341)
(-0.00163299 0.542132 0.00543517)
(-0.00289299 0.536271 0.00316706)
(-0.00317766 0.534424 0.000773567)
(-0.00427103 0.534271 -0.000528967)
(-0.00463124 0.532502 -0.0015852)
(-0.0083868 0.53295 -0.00408182)
(-0.00842293 0.535511 -0.011912)
(-0.00317278 0.542187 -0.0211996)
(0.00386886 0.550246 -0.0244287)
(0.0116552 0.556666 -0.0132696)
(0.0206047 0.557185 0.00478082)
(0.0192293 0.552967 0.0149964)
(0.00670265 0.547809 0.000241698)
(0.0032389 0.547561 -0.0054705)
(0.00127798 0.551831 0.00380313)
(-0.00225177 0.544702 0.00507729)
(-0.00376169 0.538312 -0.00049066)
(-0.00187391 0.537321 -0.0060809)
(-0.000853304 0.533795 -0.00518081)
(-0.0058089 0.532198 -0.00248648)
(-0.0133611 0.527467 -0.00224951)
(-0.0152797 0.525698 -0.000466428)
(-0.0144263 0.527794 5.9668e-05)
(-0.0148646 0.51938 -0.0013564)
(-0.00962558 0.513172 -0.00362637)
(-0.00433044 0.511264 -0.00195927)
(-0.00201479 0.510324 0.000975304)
(-0.00378926 0.510243 0.00741954)
(-0.00540701 0.50672 0.00947646)
(-0.00338862 0.488654 0.00543504)
(3.36299e-06 0.000390129 7.91388e-07)
(8.90008e-06 0.00039979 1.84287e-06)
(9.94876e-06 0.000433722 8.36773e-07)
(1.04e-05 0.000478635 6.98603e-07)
(9.92122e-06 0.000531867 2.7351e-07)
(9.24952e-06 0.000573043 1.88314e-07)
(8.42092e-06 0.000597359 7.64172e-08)
(7.4526e-06 0.00062538 1.38889e-07)
(6.11343e-06 0.000654915 1.53841e-07)
(5.04899e-06 0.000677321 1.16467e-07)
(4.03644e-06 0.000689289 8.50598e-08)
(3.16567e-06 0.000695622 6.47442e-08)
(2.19975e-06 0.000698828 7.27521e-08)
(1.36932e-06 0.000699344 1.18018e-07)
(6.66204e-07 0.000698852 1.50161e-07)
(1.03693e-07 0.000698238 1.80266e-07)
(-3.33198e-07 0.000697685 1.93743e-07)
(-6.65239e-07 0.000697215 2.11364e-07)
(-9.15112e-07 0.000696842 2.09548e-07)
(-1.1125e-06 0.000696558 2.05548e-07)
(-1.25479e-06 0.000696346 1.86168e-07)
(-1.36521e-06 0.000696192 1.75714e-07)
(-1.43729e-06 0.000696088 1.55528e-07)
(-1.4878e-06 0.000696035 1.45955e-07)
(-1.50769e-06 0.000696033 1.26745e-07)
(-1.51272e-06 0.000696083 1.18038e-07)
(-1.49004e-06 0.000696184 9.77517e-08)
(-1.45422e-06 0.000696339 8.74488e-08)
(-1.38992e-06 0.00069655 6.48534e-08)
(-1.30944e-06 0.00069683 5.11631e-08)
(-1.19445e-06 0.000697185 2.50503e-08)
(-1.05569e-06 0.000697628 7.3491e-09)
(-8.65442e-07 0.00069817 -2.44895e-08)
(-6.36702e-07 0.000698831 -5.25174e-08)
(-3.46353e-07 0.000699635 -9.56562e-08)
(-4.33242e-09 0.000700602 -1.33255e-07)
(4.22366e-07 0.000701753 -1.77569e-07)
(9.2778e-07 0.000703099 -2.1054e-07)
(1.53897e-06 0.000704663 -2.5072e-07)
(2.22991e-06 0.000706439 -2.99892e-07)
(3.03973e-06 0.000708472 -3.54626e-07)
(3.90491e-06 0.000710895 -4.31201e-07)
(4.83188e-06 0.00071499 -4.7905e-07)
(5.76702e-06 0.00072823 -5.29677e-07)
(6.6682e-06 0.000767657 -4.38596e-07)
(7.36132e-06 0.000854665 -1.11589e-07)
(7.99141e-06 0.00103455 5.66137e-07)
(8.78649e-06 0.00141261 4.76408e-07)
(7.79506e-06 0.00209952 -8.29251e-06)
(-1.97654e-05 0.00303992 -2.69179e-05)
(-3.84048e-05 0.00383579 -4.72432e-05)
(-4.52345e-06 0.00409087 -6.67634e-05)
(3.86527e-05 0.00420454 -2.84035e-05)
(0.000262071 0.00441001 2.13205e-05)
(0.000468529 0.00447545 -1.11326e-05)
(0.000751636 0.00365626 -4.19717e-05)
(0.000281442 0.00486817 -0.000531483)
(-0.000352351 0.00238783 -1.78661e-06)
(-0.00200619 0.00819502 0.000969948)
(-0.0334945 0.187267 0.00251341)
(-0.0311627 0.733221 -0.0389298)
(-0.0124396 0.543784 -0.00121794)
(-0.00708614 0.569297 -0.00269373)
(0.000613223 0.55325 0.00367644)
(0.00297556 0.543368 -0.000161784)
(-0.000892383 0.544673 0.00121596)
(0.00269366 0.539467 0.00728376)
(0.00329432 0.541023 0.00679925)
(0.00188303 0.540032 0.00541706)
(0.00394963 0.537621 0.00213915)
(0.00261721 0.539115 -0.000906542)
(-0.000913737 0.53707 -0.00253219)
(-0.00285441 0.536423 -0.00407141)
(-0.00216908 0.536404 -0.00465167)
(0.00350428 0.53752 6.79248e-05)
(0.0105678 0.539162 0.00781039)
(0.0144484 0.540811 0.00975273)
(0.0113343 0.54376 0.00119155)
(0.00688959 0.546699 -0.00827746)
(0.00141714 0.551413 -0.0074648)
(0.000132663 0.552999 -0.00160835)
(0.0012383 0.551176 0.000380311)
(-0.000876329 0.549948 0.00129884)
(-0.00305446 0.550195 0.00115422)
(-0.000672435 0.548342 0.00132382)
(-0.00170635 0.545167 5.59641e-05)
(-0.0059223 0.537925 -0.00229197)
(-0.0088603 0.535202 -0.00314827)
(-0.00789761 0.532015 -0.00466246)
(-0.00618415 0.534606 -0.00447857)
(-0.00567193 0.534833 -0.00666579)
(-0.00280784 0.535021 -0.00835127)
(-0.00527587 0.534586 -0.0074136)
(-0.00652762 0.532044 -0.012246)
(-0.00699219 0.538452 -0.015765)
(-0.0057806 0.527678 -0.0195181)
(5.04339e-06 0.00023071 1.77782e-06)
(1.17898e-05 0.000406551 2.88132e-06)
(1.18848e-05 0.000418037 1.3356e-06)
(1.1992e-05 0.000460175 9.89659e-07)
(1.09843e-05 0.000526377 4.01045e-07)
(1.00623e-05 0.000580768 2.83722e-07)
(9.17587e-06 0.000603652 1.56164e-07)
(8.09556e-06 0.000627261 1.1749e-07)
(6.82479e-06 0.000654903 2.15217e-08)
(5.62656e-06 0.000676123 -6.48688e-08)
(4.47131e-06 0.000687769 -1.54584e-07)
(3.49449e-06 0.000693894 -2.18612e-07)