/*--------------------------------*- C++ -*----------------------------------*\
| =========                 |                                                 |
| \\      /  F ield         | OpenFOAM: The Open Source CFD Toolbox           |
|  \\    /   O peration     | Version:  2.3.0                                 |
|   \\  /    A nd           | Web:      www.OpenFOAM.org                      |
|    \\/     M anipulation  |                                                 |
\*---------------------------------------------------------------------------*/
FoamFile
{
    version     2.0;
    format      ascii;
    class       volScalarField;
    location    "28";
    object      w3;
}
// * * * * * * * * * * * * * * * * * * * * * * * * * * * * * * * * * * * * * //

dimensions      [0 0 0 0 0 0 0];

internalField   nonuniform List<scalar> 
6144
(
0.0283736
0.0283736
0.0283736
0.0283736
0.0283736
0.0283736
0.0283736
0.0283736
0.0283736
0.0283736
0.0283736
0.0283736
0.0283736
0.0283736
0.0283736
0.0283736
0.0283736
0.0283736
0.0283736
0.0283736
0.0283736
0.0283736
0.0283736
0.0283736
0.0283736
0.0283736
0.0283736
0.0283736
0.0283736
0.0283736
0.0283736
0.0283736
0.0283736
0.0283736
0.0283736
0.0283736
0.0283736
0.0283736
0.0283736
0.0283736
0.0283736
0.0283736
0.0283736
0.0283736
0.0283736
0.0283736
0.0283736
0.0283736
0.0283736
0.0283736
0.0283736
0.0283736
0.0283736
0.0283736
0.0283736
0.0283736
0.028374
0.0283965
0.0317512
0.0305642
0.0132254
9.01636e-05
4.53738e-07
0.000138434
9.17937e-05
0.000378099
0.00029259
0.00361863
0.000447091
0.000411659
0.000378054
0.00060863
0.00192067
0.00108081
0.00101962
0.00163284
0.00853306
0.0067098
0.000482852
0.85474
0.00600861
0.00267696
0.00667483
0.00291696
0.00172943
0.00292566
0.00159203
0.00309237
0.00723512
0.000535657
0.00108942
0.000551267
0.000245239
0.000122795
0.000103559
1.02397e-05
0.0283736
0.0283736
0.0283736
0.0283736
0.0283736
0.0283736
0.0283736
0.0283736
0.0283736
0.0283736
0.0283736
0.0283736
0.0283736
0.0283736
0.0283736
0.0283736
0.0283736
0.0283736
0.0283736
0.0283736
0.0283736
0.0283736
0.0283736
0.0283736
0.0283736
0.0283736
0.0283736
0.0283736
0.0283736
0.0283736
0.0283736
0.0283736
0.0283736
0.0283736
0.0283736
0.0283736
0.0283736
0.0283736
0.0283736
0.0283736
0.0283736
0.0283736
0.0283736
0.0283736
0.0283736
0.0283736
0.0283736
0.0283736
0.0283736
0.0283736
0.0283736
0.0283736
0.0283736
0.0283736
0.0283736
0.0283735
0.0283756
0.0285906
0.0357503
0.0287427
0.0116713
1.04656e-05
3.51917e-07
3.78799e-05
6.42799e-05
0.000115545
0.00604805
0.000323947
0.000362169
0.000328161
0.000554435
0.00130758
0.000519747
0.00064716
0.00137658
0.000415149
0.000723229
0.023225
0.00333944
0.0014751
0.00107056
0.00100084
0.000708288
0.0485411
0.00419678
0.0368732
0.000418034
0.000657516
0.000690492
0.00174389
0.00130202
0.00042279
0.000438708
0.000262056
0.0002051
1.05774e-05
0.0283736
0.0283736
0.0283736
0.0283736
0.0283736
0.0283736
0.0283736
0.0283736
0.0283736
0.0283736
0.0283736
0.0283736
0.0283736
0.0283736
0.0283736
0.0283736
0.0283736
0.0283736
0.0283736
0.0283736
0.0283736
0.0283736
0.0283736
0.0283736
0.0283736
0.0283736
0.0283736
0.0283736
0.0283736
0.0283736
0.0283736
0.0283736
0.0283736
0.0283736
0.0283736
0.0283736
0.0283736
0.0283736
0.0283736
0.0283736
0.0283736
0.0283736
0.0283736
0.0283736
0.0283736
0.0283736
0.0283736
0.0283736
0.0283736
0.0283736
0.0283736
0.0283736
0.0283736
0.0283736
0.0283736
0.0283736
0.0283736
0.0283903
0.0311501
0.0181919
0.0424183
1.69904e-06
3.67779e-07
2.45541e-05
4.59095e-05
0.000270281
0.000122035
0.000241164
0.00030754
0.000214661
0.000418517
0.000435155
0.000273928
0.00246982
0.000754876
0.00033199
0.000178929
0.000810362
0.00131258
0.000929932
0.00105465
0.00100726
0.00126066
0.000752716
0.000336421
0.000227534
0.000204557
0.000430401
0.000822365
0.000674507
0.000890909
0.000743902
0.000168078
0.000137333
9.59283e-05
9.86331e-06
0.0283736
0.0283736
0.0283736
0.0283736
0.0283736
0.0283736
0.0283736
0.0283736
0.0283736
0.0283736
0.0283736
0.0283736
0.0283736
0.0283736
0.0283736
0.0283736
0.0283736
0.0283736
0.0283736
0.0283736
0.0283736
0.0283736
0.0283736
0.0283736
0.0283736
0.0283736
0.0283736
0.0283736
0.0283736
0.0283736
0.0283736
0.0283736
0.0283736
0.0283736
0.0283736
0.0283736
0.0283736
0.0283736
0.0283736
0.0283736
0.0283736
0.0283736
0.0283736
0.0283736
0.0283736
0.0283736
0.0283736
0.0283736
0.0283736
0.0283736
0.0283736
0.0283736
0.0283736
0.0283736
0.0283736
0.0283735
0.0283736
0.0283745
0.0288108
0.0274957
0.0445281
1.65771e-05
3.92803e-07
1.06741e-05
1.35815e-05
1.10914e-05
8.74775e-06
7.54532e-06
1.31574e-05
9.91383e-06
1.04707e-05
1.41611e-05
2.45422e-05
0.000107138
0.000171494
6.12614e-05
5.76191e-05
0.000320498
0.000322532
0.000251752
0.00032455
0.000936654
0.000261583
0.00025964
0.000224919
0.000286476
0.000401416
0.00191861
0.000330241
0.000404856
0.000522702
0.000301108
0.000135937
0.0003496
0.000151049
9.73718e-06
0.0283736
0.0283736
0.0283736
0.0283736
0.0283736
0.0283736
0.0283736
0.0283736
0.0283736
0.0283736
0.0283736
0.0283736
0.0283736
0.0283736
0.0283736
0.0283736
0.0283736
0.0283736
0.0283736
0.0283736
0.0283736
0.0283736
0.0283736
0.0283736
0.0283736
0.0283736
0.0283736
0.0283736
0.0283736
0.0283736
0.0283736
0.0283736
0.0283736
0.0283736
0.0283736
0.0283736
0.0283736
0.0283736
0.0283736
0.0283736
0.0283736
0.0283736
0.0283736
0.0283736
0.0283736
0.0283736
0.0283736
0.0283736
0.0283736
0.0283736
0.0283736
0.0283736
0.0283736
0.0283736
0.0283736
0.0283735
0.0283736
0.0283738
0.0283803
0.0306768
0.00377441
0.000224651
0.00035839
5.61188e-05
4.94363e-05
2.59459e-05
3.03715e-05
8.30724e-05
0.000316835
0.000525598
0.000268877
0.000671247
0.000421459
3.78253e-05
4.07353e-06
7.79595e-07
6.58286e-07
7.01188e-09
5.39559e-05
3.29278e-05
2.54077e-05
2.18645e-05
2.88429e-05
0.00144591
3.3245e-05
3.95912e-05
0.00014184
2.93487e-05
0.002562
0.000770353
0.000281774
0.000143549
0.000199872
0.000566662
9.57102e-05
9.99161e-06
0.0283736
0.0283736
0.0283736
0.0283736
0.0283736
0.0283736
0.0283736
0.0283736
0.0283736
0.0283736
0.0283736
0.0283736
0.0283736
0.0283736
0.0283736
0.0283736
0.0283736
0.0283736
0.0283736
0.0283736
0.0283736
0.0283736
0.0283736
0.0283736
0.0283736
0.0283736
0.0283736
0.0283736
0.0283736
0.0283736
0.0283736
0.0283736
0.0283736
0.0283736
0.0283736
0.0283736
0.0283736
0.0283736
0.0283736
0.0283736
0.0283736
0.0283736
0.0283736
0.0283736
0.0283736
0.0283736
0.0283736
0.0283736
0.0283736
0.0283736
0.0283736
0.0283736
0.0283736
0.0283736
0.0283736
0.0283735
0.0283736
0.0283737
0.0283743
0.0257643
0.0140028
0.00375521
5.82061e-06
0.00241247
0.0034968
0.000642692
0.00379383
0.0831995
0.0264997
0.00275274
1.56198e-09
0.00162706
0.000601504
0.00073824
0.0045985
0.00080444
0.0127366
0.00497759
0.00482898
0.00865534
0.000606319
0.000301262
0.00332944
0.000154735
0.000100804
2.8962e-05
3.27954e-06
5.68384e-07
4.80501e-07
1.00728e-05
0.000151933
0.000108706
0.000191153
0.000478958
0.000158628
9.42669e-06
0.0283736
0.0283736
0.0283736
0.0283736
0.0283736
0.0283736
0.0283736
0.0283736
0.0283736
0.0283736
0.0283736
0.0283736
0.0283736
0.0283736
0.0283736
0.0283736
0.0283736
0.0283736
0.0283736
0.0283736
0.0283736
0.0283736
0.0283736
0.0283736
0.0283736
0.0283736
0.0283736
0.0283736
0.0283736
0.0283736
0.0283736
0.0283736
0.0283736
0.0283736
0.0283736
0.0283736
0.0283736
0.0283736
0.0283736
0.0283736
0.0283736
0.0283736
0.0283736
0.0283736
0.0283736
0.0283736
0.0283736
0.0283736
0.0283736
0.0283736
0.0283736
0.0283736
0.0283736
0.0283736
0.0283736
0.0283735
0.0283744
0.0283265
0.0277858
0.0425454
0.00583
0.0243759
0.00316291
0.00610081
0.0125178
0.012515
0.0223977
0.510319
0.000801503
0.000772373
0.0218903
0.00104024
0.000546322
0.0022107
2.07496e-06
1.32593e-06
0.148814
0.851439
0.226387
0.128477
4.89924e-08
0.0369023
0.328166
0.0756576
0.0882975
0.00493265
0.00192566
0.00122702
4.88529e-05
2.23144e-08
5.1268e-07
1.50096e-05
2.25988e-05
7.98503e-16
2.60546e-09
8.2369e-06
0.0283736
0.0283736
0.0283736
0.0283736
0.0283736
0.0283736
0.0283736
0.0283736
0.0283736
0.0283736
0.0283736
0.0283736
0.0283736
0.0283736
0.0283736
0.0283736
0.0283736
0.0283736
0.0283736
0.0283736
0.0283736
0.0283736
0.0283736
0.0283736
0.0283736
0.0283736
0.0283736
0.0283736
0.0283736
0.0283736
0.0283736
0.0283736
0.0283736
0.0283736
0.0283736
0.0283736
0.0283736
0.0283736
0.0283736
0.0283736
0.0283736
0.0283736
0.0283736
0.0283736
0.0283736
0.0283736
0.0283736
0.0283736
0.0283736
0.0283736
0.0283736
0.0283736
0.0283736
0.0283736
0.0283736
0.0283736
0.0283734
0.0283452
0.0288391
0.0357483
0.00947691
0.0825329
0.000468354
0.00125103
0.116209
0.062143
0.0691902
0.00300871
0.0376947
0.211806
0.0574044
0.16202
1.37939e-05
0.134817
0.000213961
0.0797017
0.119614
0.00107271
0.00145787
2.9205e-05
1.38235e-05
5.89502e-05
0.00344556
0.0388339
0.0751412
0.00116187
0.00193567
0.0735855
0.0756055
1.23164e-08
0.0976755
0.0657724
0.00079537
1.44578e-09
0.598068
0.0181655
0.0283736
0.0283736
0.0283736
0.0283736
0.0283736
0.0283736
0.0283736
0.0283736
0.0283736
0.0283736
0.0283736
0.0283736
0.0283736
0.0283736
0.0283736
0.0283736
0.0283736
0.0283736
0.0283736
0.0283736
0.0283736
0.0283736
0.0283736
0.0283736
0.0283736
0.0283736
0.0283736
0.0283736
0.0283736
0.0283736
0.0283736
0.0283736
0.0283736
0.0283736
0.0283736
0.0283736
0.0283736
0.0283736
0.0283736
0.0283736
0.0283736
0.0283736
0.0283736
0.0283736
0.0283736
0.0283736
0.0283736
0.0283736
0.0283736
0.0283736
0.0283736
0.0283736
0.0283736
0.0283736
0.0283736
0.0283735
0.0283766
0.0283493
0.0290149
0.0385971
0.0227557
0.050728
0.0231167
0.125299
1.72857e-12
0.796419
0.000116159
0.119116
0.0107832
0.902446
0.0143103
0.0175642
0.00289032
0.000942865
0.121137
0.0363438
0.032402
0.1472
1.53514e-06
0.037643
4.59818e-05
0.0572561
0.0635202
0.0257728
0.000158745
0.000364727
0.062736
0.03723
0.0577282
9.62764e-05
1.02096e-08
0.113785
0.178687
0.00663643
0.0729251
2.03552e-06
0.0283736
0.0283736
0.0283736
0.0283736
0.0283736
0.0283736
0.0283736
0.0283736
0.0283736
0.0283736
0.0283736
0.0283736
0.0283736
0.0283736
0.0283736
0.0283736
0.0283736
0.0283736
0.0283736
0.0283736
0.0283736
0.0283736
0.0283736
0.0283736
0.0283736
0.0283736
0.0283736
0.0283736
0.0283736
0.0283736
0.0283736
0.0283736
0.0283736
0.0283736
0.0283736
0.0283736
0.0283736
0.0283736
0.0283736
0.0283736
0.0283736
0.0283736
0.0283736
0.0283736
0.0283736
0.0283736
0.0283736
0.0283736
0.0283736
0.0283736
0.0283736
0.0283736
0.0283736
0.0283736
0.0283736
0.0283736
0.0283736
0.0283738
0.028373
0.0388142
0.0642346
0.000501301
0.00774453
0.0525757
0.0104097
0.103143
0.00236412
0.870901
0.0235971
0.000153859
0.118451
0.0212557
0.0434014
0.0151112
0.00986777
0.0303641
0.705524
0.853599
0.0342295
0.0737
0.0658328
0.114364
0.394326
0.249677
0.275023
0.224445
3.13422e-06
0.00124936
0.820062
5.24649e-06
0.135148
0.000956713
0.100579
0.00869381
0.0386554
4.85812e-07
0.0283736
0.0283736
0.0283736
0.0283736
0.0283736
0.0283736
0.0283736
0.0283736
0.0283736
0.0283736
0.0283736
0.0283736
0.0283736
0.0283736
0.0283736
0.0283736
0.0283736
0.0283736
0.0283736
0.0283736
0.0283736
0.0283736
0.0283736
0.0283736
0.0283736
0.0283736
0.0283736
0.0283736
0.0283736
0.0283736
0.0283736
0.0283736
0.0283736
0.0283736
0.0283736
0.0283736
0.0283736
0.0283736
0.0283736
0.0283736
0.0283736
0.0283736
0.0283736
0.0283736
0.0283736
0.0283736
0.0283736
0.0283736
0.0283736
0.0283736
0.0283736
0.0283736
0.0283736
0.0283736
0.0283736
0.0283735
0.0283736
0.0282388
0.0310447
0.0378834
1.55212e-05
3.36548e-08
2.4261e-05
0.453932
0.0508959
0.00683884
0.0010958
0.113994
3.04132e-06
0.854179
0.0399215
0.026256
0.000976214
0.0320387
0.00079553
0.00672385
0.00666661
0.0503198
0.0135662
0.0177353
0.00162893
0.0992211
0.0813081
0.0134896
0.0175217
8.33872e-06
0.0331281
0.0273279
0.0315736
0.0185472
0.00749417
0.0412782
3.31836e-06
0.00268145
0.00109822
4.19858e-06
0.0283736
0.0283736
0.0283736
0.0283736
0.0283736
0.0283736
0.0283736
0.0283736
0.0283736
0.0283736
0.0283736
0.0283736
0.0283736
0.0283736
0.0283736
0.0283736
0.0283736
0.0283736
0.0283736
0.0283736
0.0283736
0.0283736
0.0283736
0.0283736
0.0283736
0.0283736
0.0283736
0.0283736
0.0283736
0.0283736
0.0283736
0.0283736
0.0283736
0.0283736
0.0283736
0.0283736
0.0283736
0.0283736
0.0283736
0.0283736
0.0283736
0.0283736
0.0283736
0.0283736
0.0283736
0.0283736
0.0283736
0.0283736
0.0283736
0.0283736
0.0283736
0.0283736
0.0283736
0.0283736
0.0283736
0.0283736
0.0283736
0.0283673
0.0285392
0.0310811
0.00291809
0.0628923
1.22593e-05
0.854259
0.235263
0.328714
0.00112573
0.00661022
0.000829411
0.000293316
0.000759782
0.000144255
0.000479822
0.000251392
9.37852e-05
4.09015e-05
3.33129e-05
4.60846e-05
0.000124726
0.000593409
0.0148674
0.00100888
0.00110997
0.000193418
0.00122091
0.000551033
0.00235123
0.00312397
0.000116988
0.000461753
0.00049711
4.252e-06
4.22888e-07
6.24191e-07
2.14729e-06
9.07485e-07
0.0283736
0.0283736
0.0283736
0.0283736
0.0283736
0.0283736
0.0283736
0.0283736
0.0283736
0.0283736
0.0283736
0.0283736
0.0283736
0.0283736
0.0283736
0.0283736
0.0283736
0.0283736
0.0283736
0.0283736
0.0283736
0.0283736
0.0283736
0.0283736
0.0283736
0.0283736
0.0283736
0.0283736
0.0283736
0.0283736
0.0283736
0.0283736
0.0283736
0.0283736
0.0283736
0.0283736
0.0283736
0.0283736
0.0283736
0.0283736
0.0283736
0.0283736
0.0283736
0.0283736
0.0283736
0.0283736
0.0283736
0.0283736
0.0283736
0.0283736
0.0283736
0.0283736
0.0283736
0.0283736
0.0283736
0.0283735
0.0283736
0.0283746
0.0283306
0.0427599
1.0994e-11
0.000163749
0.00227766
0.000448439
0.00236541
0.000197323
5.3629e-05
5.56074e-06
9.93909e-07
6.02271e-07
4.2765e-05
2.11931e-05
2.12435e-05
1.96511e-05
1.37825e-05
1.00047e-05
7.86509e-06
7.05586e-06
8.29176e-06
1.21337e-05
0.000518608
1.66427e-05
1.34797e-05
4.35855e-06
2.36426e-06
3.8164e-07
2.79185e-05
5.3644e-07
5.70947e-06
6.91316e-06
1.0529e-05
1.22608e-05
1.73315e-05
2.58653e-05
0.000136545
1.58011e-05
0.0283736
0.0283736
0.0283736
0.0283736
0.0283736
0.0283736
0.0283736
0.0283736
0.0283736
0.0283736
0.0283736
0.0283736
0.0283736
0.0283736
0.0283736
0.0283736
0.0283736
0.0283736
0.0283736
0.0283736
0.0283736
0.0283736
0.0283736
0.0283736
0.0283736
0.0283736
0.0283736
0.0283736
0.0283736
0.0283736
0.0283736
0.0283736
0.0283736
0.0283736
0.0283736
0.0283736
0.0283736
0.0283736
0.0283736
0.0283736
0.0283736
0.0283736
0.0283736
0.0283736
0.0283736
0.0283736
0.0283736
0.0283736
0.0283736
0.0283736
0.0283736
0.0283736
0.0283736
0.0283736
0.0283736
0.0283735
0.0283736
0.0283737
0.0283765
0.0307225
0.0189775
5.3567e-07
1.24222e-05
1.08365e-05
4.82913e-05
5.80152e-05
1.5395e-05
2.39551e-05
2.23447e-05
0.000159471
0.000231363
0.000286459
0.0010354
0.00131861
0.000259421
0.000199216
0.000222857
0.00026901
0.000132035
0.000101913
0.000119836
0.000582777
0.854105
0.000952197
0.000318456
7.42521e-05
9.39431e-06
0.000546044
4.48346e-05
2.39973e-05
2.34664e-05
4.84987e-05
0.000151683
0.00442311
0.000160622
9.46271e-06
0.0283736
0.0283736
0.0283736
0.0283736
0.0283736
0.0283736
0.0283736
0.0283736
0.0283736
0.0283736
0.0283736
0.0283736
0.0283736
0.0283736
0.0283736
0.0283736
0.0283736
0.0283736
0.0283736
0.0283736
0.0283736
0.0283736
0.0283736
0.0283736
0.0283736
0.0283736
0.0283736
0.0283736
0.0283736
0.0283736
0.0283736
0.0283736
0.0283736
0.0283736
0.0283736
0.0283736
0.0283736
0.0283736
0.0283736
0.0283736
0.0283736
0.0283736
0.0283736
0.0283736
0.0283736
0.0283736
0.0283736
0.0283736
0.0283736
0.0283736
0.0283736
0.0283736
0.0283736
0.0283736
0.0283736
0.0283735
0.0283736
0.0283737
0.0285702
0.0377876
0.0622509
8.53389e-06
1.9703e-07
2.33467e-05
3.03902e-05
0.000285687
0.000310506
0.000705387
0.000158072
0.000221046
0.000228132
0.00694546
0.000854472
0.0164306
0.000485341
0.000314024
0.000199741
0.000322607
0.000160088
0.000591182
0.000231718
8.97734e-05
1.82515e-05
6.54415e-05
0.000126185
0.000107048
0.00196189
0.000944993
7.31767e-05
0.000101825
2.92236e-05
2.8846e-05
5.85186e-05
0.000428976
0.000158255
8.86814e-06
0.0283736
0.0283736
0.0283736
0.0283736
0.0283736
0.0283736
0.0283736
0.0283736
0.0283736
0.0283736
0.0283736
0.0283736
0.0283736
0.0283736
0.0283736
0.0283736
0.0283736
0.0283736
0.0283736
0.0283736
0.0283736
0.0283736
0.0283736
0.0283736
0.0283736
0.0283736
0.0283736
0.0283736
0.0283736
0.0283736
0.0283736
0.0283736
0.0283736
0.0283736
0.0283736
0.0283736
0.0283736
0.0283736
0.0283736
0.0283736
0.0283736
0.0283736
0.0283736
0.0283736
0.0283736
0.0283736
0.0283736
0.0283736
0.0283736
0.0283736
0.0283736
0.0283736
0.0283736
0.0283736
0.0283736
0.0283735
0.0283736
0.0283753
0.0328646
0.0318183
0.0125685
0.000342648
1.71249e-07
4.26179e-05
0.000148217
0.000321996
0.000140875
0.000222888
0.000266859
0.000518873
0.00028396
0.00439687
0.000728116
0.000767376
0.000799658
0.00405014
0.00584923
0.000516828
0.00120016
0.00268858
0.00152812
0.00125297
0.000195975
0.00012232
0.00133789
7.26745e-05
0.00245917
8.07072e-05
0.000162029
5.08163e-05
0.000100466
0.000298476
4.3202e-05
5.19155e-05
8.36613e-05
9.89363e-06
0.0283736
0.0283736
0.0283736
0.0283736
0.0283736
0.0283736
0.0283736
0.0283736
0.0283736
0.0283736
0.0283736
0.0283736
0.0283736
0.0283736
0.0283736
0.0283736
0.0283736
0.0283736
0.0283736
0.0283736
0.0283736
0.0283736
0.0283736
0.0283736
0.0283736
0.0283736
0.0283736
0.0283736
0.0283736
0.0283736
0.0283736
0.0283736
0.0283736
0.0283736
0.0283736
0.0283736
0.0283736
0.0283736
0.0283736
0.0283736
0.0283736
0.0283736
0.0283736
0.0283736
0.0283736
0.0283736
0.0283736
0.0283736
0.0283736
0.0283736
0.0283736
0.0283736
0.0283736
0.0283736
0.0283736
0.0283736
0.0283737
0.0286849
0.0362421
0.0288708
0.0145573
0.000252541
5.65094e-07
8.48553e-07
0.000142411
0.000521474
0.000503376
0.000828199
0.000392736
0.000460463
0.00052886
0.00193387
0.00169377
0.0031903
0.0024405
0.00115755
0.00266028
0.00127565
0.000753279
0.00142222
0.000563671
0.000602112
0.000648608
0.000638666
0.00087791
0.000509137
0.00359588
0.00266805
0.000796152
0.00103765
0.00355904
0.00101009
0.00717918
0.000142509
4.98418e-05
9.10337e-06
0.0283736
0.0283736
0.0283736
0.0283736
0.0283736
0.0283736
0.0283736
0.0283736
0.0283736
0.0283736
0.0283736
0.0283736
0.0283736
0.0283736
0.0283736
0.0283736
0.0283736
0.0283736
0.0283736
0.0283736
0.0283736
0.0283736
0.0283736
0.0283736
0.0283736
0.0283736
0.0283736
0.0283736
0.0283736
0.0283736
0.0283736
0.0283736
0.0283736
0.0283736
0.0283736
0.0283736
0.0283736
0.0283736
0.0283736
0.0283736
0.0283736
0.0283736
0.0283736
0.0283736
0.0283736
0.0283736
0.0283736
0.0283736
0.0283736
0.0283736
0.0283736
0.0283736
0.0283736
0.0283736
0.0283736
0.0283736
0.0283739
0.0283813
0.028388
0.0329821
0.00995864
2.35929e-05
3.93081e-07
2.54315e-05
7.40264e-05
0.000105823
0.0010922
0.000515879
0.000404195
0.000346286
0.00215997
0.000306223
0.000264568
0.000548893
0.000978576
0.000414256
0.000375289
0.000185417
0.000121153
0.00010335
0.000108766
0.000142463
0.000183559
0.000361363
0.00064554
0.000212689
0.00016507
0.000690673
0.000219713
0.00275468
0.000204633
0.000527102
0.000415023
0.000478298
6.04502e-05
9.78669e-06
0.0283736
0.0283736
0.0283736
0.0283736
0.0283736
0.0283736
0.0283736
0.0283736
0.0283736
0.0283736
0.0283736
0.0283736
0.0283736
0.0283736
0.0283736
0.0283736
0.0283736
0.0283736
0.0283736
0.0283736
0.0283736
0.0283736
0.0283736
0.0283736
0.0283736
0.0283736
0.0283736
0.0283736
0.0283736
0.0283736
0.0283736
0.0283736
0.0283736
0.0283736
0.0283736
0.0283736
0.0283736
0.0283736
0.0283736
0.0283736
0.0283736
0.0283736
0.0283736
0.0283736
0.0283736
0.0283736
0.0283736
0.0283736
0.0283736
0.0283736
0.0283736
0.0283736
0.0283736
0.0283736
0.0283736
0.0283736
0.0283737
0.0283742
0.0250707
0.0366082
0.0308223
4.81992e-08
9.13902e-06
2.56015e-06
3.75913e-05
0.000210195
2.62703e-05
1.81353e-05
0.000160176
0.000170333
0.00101325
0.000214641
0.00509109
3.0588e-05
7.15278e-05
7.6103e-05
3.12329e-05
3.76547e-05
5.07798e-05
7.06936e-05
0.000130895
0.0024402
0.00010075
5.55073e-05
5.50846e-05
0.000105618
0.00150476
0.000270231
0.000139413
0.000351062
0.00240851
0.000363134
0.000330431
0.000155386
4.86048e-05
9.04828e-06
0.0283736
0.0283736
0.0283736
0.0283736
0.0283736
0.0283736
0.0283736
0.0283736
0.0283736
0.0283736
0.0283736
0.0283736
0.0283736
0.0283736
0.0283736
0.0283736
0.0283736
0.0283736
0.0283736
0.0283736
0.0283736
0.0283736
0.0283736
0.0283736
0.0283736
0.0283736
0.0283736
0.0283736
0.0283736
0.0283736
0.0283736
0.0283736
0.0283736
0.0283736
0.0283736
0.0283736
0.0283736
0.0283736
0.0283736
0.0283736
0.0283736
0.0283736
0.0283736
0.0283736
0.0283736
0.0283736
0.0283736
0.0283736
0.0283736
0.0283736
0.0283736
0.0283736
0.0283736
0.0283736
0.0283736
0.0283735
0.0283737
0.0283724
0.0285833
0.0289905
0.0578005
4.65012e-06
6.70248e-06
6.30106e-07
5.79889e-07
1.36018e-06
7.76942e-07
2.76482e-06
5.55721e-07
1.18363e-05
6.2106e-05
1.05138e-05
7.02274e-07
7.47068e-07
7.82521e-06
1.70346e-05
6.80754e-07
3.14225e-07
0.000118823
0.000239795
0.000133199
2.99078e-05
2.69219e-05
3.11212e-05
4.75116e-05
0.000195957
0.000104879
0.000134322
0.000147534
0.000513534
0.00242409
0.000289081
0.000164392
0.000219207
6.06109e-05
8.98999e-06
0.0283736
0.0283736
0.0283736
0.0283736
0.0283736
0.0283736
0.0283736
0.0283736
0.0283736
0.0283736
0.0283736
0.0283736
0.0283736
0.0283736
0.0283736
0.0283736
0.0283736
0.0283736
0.0283736
0.0283736
0.0283736
0.0283736
0.0283736
0.0283736
0.0283736
0.0283736
0.0283736
0.0283736
0.0283736
0.0283736
0.0283736
0.0283736
0.0283736
0.0283736
0.0283736
0.0283736
0.0283736
0.0283736
0.0283736
0.0283736
0.0283736
0.0283736
0.0283736
0.0283736
0.0283736
0.0283736
0.0283736
0.0283736
0.0283736
0.0283736
0.0283736
0.0283736
0.0283736
0.0283736
0.0283736
0.0283735
0.0283736
0.0283737
0.0283857
0.0333842
0.0072502
0.000650225
0.0016573
0.00278085
0.000909947
0.0056645
0.0055408
0.00350778
0.00117202
0.0197635
0.000427109
0.00193384
0.00224908
0.00182178
0.00135211
0.010053
0.000255316
2.37591e-05
8.64804e-05
0.00880192
0.00129534
0.004032
0.000286102
1.57345e-05
1.12873e-06
5.79743e-07
6.22003e-07
1.61247e-05
9.16898e-06
8.69564e-06
0.000569665
0.000146921
0.000247121
0.000322876
5.68214e-05
8.93582e-06
0.0283736
0.0283736
0.0283736
0.0283736
0.0283736
0.0283736
0.0283736
0.0283736
0.0283736
0.0283736
0.0283736
0.0283736
0.0283736
0.0283736
0.0283736
0.0283736
0.0283736
0.0283736
0.0283736
0.0283736
0.0283736
0.0283736
0.0283736
0.0283736
0.0283736
0.0283736
0.0283736
0.0283736
0.0283736
0.0283736
0.0283736
0.0283736
0.0283736
0.0283736
0.0283736
0.0283736
0.0283736
0.0283736
0.0283736
0.0283736
0.0283736
0.0283736
0.0283736
0.0283736
0.0283736
0.0283736
0.0283736
0.0283736
0.0283736
0.0283736
0.0283736
0.0283736
0.0283736
0.0283736
0.0283736
0.0283736
0.0283735
0.0283713
0.0282829
0.0422643
0.0290051
6.54246e-07
0.0473652
0.0375737
0.00536073
0.00339155
0.000612478
0.000801379
0.00236693
0.853918
0.852851
0.0447277
0.000135865
0.0161346
0.0115549
0.107895
0.0036863
0.0920968
0.0490348
1.39832e-07
9.08713e-06
0.00622856
0.0061306
0.0483815
0.00770172
0.000150404
0.00181603
0.000395932
1.87286e-05
1.24148e-06
4.43076e-07
4.38418e-05
3.24649e-05
1.1698e-05
6.77508e-06
3.77394e-06
0.0283736
0.0283736
0.0283736
0.0283736
0.0283736
0.0283736
0.0283736
0.0283736
0.0283736
0.0283736
0.0283736
0.0283736
0.0283736
0.0283736
0.0283736
0.0283736
0.0283736
0.0283736
0.0283736
0.0283736
0.0283736
0.0283736
0.0283736
0.0283736
0.0283736
0.0283736
0.0283736
0.0283736
0.0283736
0.0283736
0.0283736
0.0283736
0.0283736
0.0283736
0.0283736
0.0283736
0.0283736
0.0283736
0.0283736
0.0283736
0.0283736
0.0283736
0.0283736
0.0283736
0.0283736
0.0283736
0.0283736
0.0283736
0.0283736
0.0283736
0.0283736
0.0283736
0.0283736
0.0283736
0.0283735
0.0283737
0.0283731
0.0283725
0.0265954
0.0480211
0.0241339
0.86768
0.198791
0.00875039
0.160516
0.258094
0.207354
0.356758
0.853777
0.0047713
0.0200603
0.00342624
0.0376554
0.104641
0.071234
0.0272841
0.00647294
0.0226836
0.0105287
0.0363148
7.94471e-06
0.0221476
0.0879848
0.00155889
0.0606005
5.68119e-06
0.0998503
0.00686583
0.0256145
0.00216145
0.00504033
0.000103171
6.34615e-05
1.54401e-05
0.000130339
1.78431e-05
0.0283736
0.0283736
0.0283736
0.0283736
0.0283736
0.0283736
0.0283736
0.0283736
0.0283736
0.0283736
0.0283736
0.0283736
0.0283736
0.0283736
0.0283736
0.0283736
0.0283736
0.0283736
0.0283736
0.0283736
0.0283736
0.0283736
0.0283736
0.0283736
0.0283736
0.0283736
0.0283736
0.0283736
0.0283736
0.0283736
0.0283736
0.0283736
0.0283736
0.0283736
0.0283736
0.0283736
0.0283736
0.0283736
0.0283736
0.0283736
0.0283736
0.0283736
0.0283736
0.0283736
0.0283736
0.0283736
0.0283736
0.0283736
0.0283736
0.0283736
0.0283736
0.0283736
0.0283736
0.0283736
0.0283736
0.0283736
0.0283732
0.0283756
0.0283535
0.0492158
3.32846e-08
0.00139979
0.0371989
0.0414995
0.0935566
0.0262613
0.043668
0.17137
0.868391
0.674135
0.0701333
0.0572257
0.164064
0.0122318
0.034828
0.0410979
0.0130684
0.0898265
0.0032787
0.0468997
0.00173673
0.0327074
0.038196
0.157185
0.0483705
0.0512031
0.170467
0.00520108
0.0703069
0.0201083
0.00150569
0.110873
0.0678115
0.000106817
2.70476e-05
0.000156719
0.0283736
0.0283736
0.0283736
0.0283736
0.0283736
0.0283736
0.0283736
0.0283736
0.0283736
0.0283736
0.0283736
0.0283736
0.0283736
0.0283736
0.0283736
0.0283736
0.0283736
0.0283736
0.0283736
0.0283736
0.0283736
0.0283736
0.0283736
0.0283736
0.0283736
0.0283736
0.0283736
0.0283736
0.0283736
0.0283736
0.0283736
0.0283736
0.0283736
0.0283736
0.0283736
0.0283736
0.0283736
0.0283736
0.0283736
0.0283736
0.0283736
0.0283736
0.0283736
0.0283736
0.0283736
0.0283736
0.0283736
0.0283736
0.0283736
0.0283736
0.0283736
0.0283736
0.0283736
0.0283736
0.0283736
0.0283736
0.0283736
0.0283708
0.0282273
0.0365787
0.016862
2.71905e-05
0.0306783
0.000614709
0.00223301
0.712194
0.873494
3.20125e-09
8.89628e-05
0.0211615
0.151017
0.0398367
0.11048
0.0423838
0.856157
0.0163722
0.000751946
0.121449
0.0371288
0.00198434
0.00900279
0.000551242
0.000438681
0.0784595
0.0043091
0.215629
0.0928879
0.0243109
0.0380141
0.0267442
0.00957779
0.00853097
0.0382117
0.0128684
0.01389
0.122608
0.0283736
0.0283736
0.0283736
0.0283736
0.0283736
0.0283736
0.0283736
0.0283736
0.0283736
0.0283736
0.0283736
0.0283736
0.0283736
0.0283736
0.0283736
0.0283736
0.0283736
0.0283736
0.0283736
0.0283736
0.0283736
0.0283736
0.0283736
0.0283736
0.0283736
0.0283736
0.0283736
0.0283736
0.0283736
0.0283736
0.0283736
0.0283736
0.0283736
0.0283736
0.0283736
0.0283736
0.0283736
0.0283736
0.0283736
0.0283736
0.0283736
0.0283736
0.0283736
0.0283736
0.0283736
0.0283736
0.0283736
0.0283736
0.0283736
0.0283736
0.0283736
0.0283736
0.0283736
0.0283736
0.0283736
0.0283736
0.0283736
0.0283732
0.028371
0.0363282
0.0368971
0.0055472
0.00133601
0.0377136
0.323287
0.0738795
0.0188949
0.0181181
0.677177
0.00192443
0.0427723
0.0172213
0.018746
0.00055959
0.0451043
0.00127878
0.0310372
0.0241409
0.0735239
1.65913e-05
0.05139
1.08402e-05
0.0294787
0.88361
0.30799
0.411776
0.113461
0.00459933
4.4509e-07
0.0996544
0.00299803
0.131614
4.05366e-05
0.0144703
0.0186881
0.000697759
0.0283736
0.0283736
0.0283736
0.0283736
0.0283736
0.0283736
0.0283736
0.0283736
0.0283736
0.0283736
0.0283736
0.0283736
0.0283736
0.0283736
0.0283736
0.0283736
0.0283736
0.0283736
0.0283736
0.0283736
0.0283736
0.0283736
0.0283736
0.0283736
0.0283736
0.0283736
0.0283736
0.0283736
0.0283736
0.0283736
0.0283736
0.0283736
0.0283736
0.0283736
0.0283736
0.0283736
0.0283736
0.0283736
0.0283736
0.0283736
0.0283736
0.0283736
0.0283736
0.0283736
0.0283736
0.0283736
0.0283736
0.0283736
0.0283736
0.0283736
0.0283736
0.0283736
0.0283736
0.0283736
0.0283735
0.0283735
0.0283735
0.0283809
0.0263016
0.039608
0.0225395
0.000932033
0.00909626
0.00114813
3.51014e-08
1.5447e-06
0.0111321
0.000720842
0.15119
0.00109053
0.0169817
2.09893e-08
0.00235788
0.00167816
0.0439104
0.000980327
0.000609999
0.00166745
0.00206451
0.000518077
4.31438e-06
0.0301674
0.0388914
0.000690111
0.535997
0.00584752
0.0144736
0.00763191
0.00196114
0.000265092
0.0573218
0.000341732
0.00984394
0.000977076
1.48127e-10
1.16975e-05
0.0283736
0.0283736
0.0283736
0.0283736
0.0283736
0.0283736
0.0283736
0.0283736
0.0283736
0.0283736
0.0283736
0.0283736
0.0283736
0.0283736
0.0283736
0.0283736
0.0283736
0.0283736
0.0283736
0.0283736
0.0283736
0.0283736
0.0283736
0.0283736
0.0283736
0.0283736
0.0283736
0.0283736
0.0283736
0.0283736
0.0283736
0.0283736
0.0283736
0.0283736
0.0283736
0.0283736
0.0283736
0.0283736
0.0283736
0.0283736
0.0283736
0.0283736
0.0283736
0.0283736
0.0283736
0.0283736
0.0283736
0.0283736
0.0283736
0.0283736
0.0283736
0.0283736
0.0283736
0.0283735
0.0283736
0.0283735
0.0283739
0.0283777
0.0227887
0.036257
0.00304632
0.00128865
0.00179391
0.00322342
0.830529
0.007187
0.00133691
0.000572965
0.0017983
0.000287815
0.000132995
9.79714e-05
5.73612e-05
4.34408e-05
5.77133e-05
5.17274e-05
5.84142e-05
7.43346e-05
9.58992e-05
0.000212844
0.000870499
0.000933782
0.000752087
0.000384243
0.000364936
0.000128779
0.000342366
0.000113801
0.000126304
0.000108221
0.000105133
5.91121e-06
7.26033e-07
6.61092e-07
8.35361e-06
3.6034e-05
0.0283736
0.0283736
0.0283736
0.0283736
0.0283736
0.0283736
0.0283736
0.0283736
0.0283736
0.0283736
0.0283736
0.0283736
0.0283736
0.0283736
0.0283736
0.0283736
0.0283736
0.0283736
0.0283736
0.0283736
0.0283736
0.0283736
0.0283736
0.0283736
0.0283736
0.0283736
0.0283736
0.0283736
0.0283736
0.0283736
0.0283736
0.0283736
0.0283736
0.0283736
0.0283736
0.0283736
0.0283736
0.0283736
0.0283736
0.0283736
0.0283736
0.0283736
0.0283736
0.0283736
0.0283736
0.0283736
0.0283736
0.0283736
0.0283736
0.0283736
0.0283736
0.0283736
0.0283736
0.0283736
0.0283736
0.0283735
0.0283736
0.0283823
0.031419
0.0377214
0.009548
8.88079e-06
5.35788e-05
4.14666e-05
2.39218e-05
2.47128e-05
1.0742e-06
2.82562e-06
1.94269e-06
7.15889e-07
2.73897e-05
2.05745e-05
1.96492e-05
1.64551e-05
1.42674e-05
1.22988e-05
1.05265e-05
9.77257e-06
9.45274e-06
1.11574e-05
1.53941e-05
5.64386e-05
2.29558e-05
9.43633e-06
8.50122e-06
8.06037e-06
2.408e-05
9.5212e-06
1.2276e-05
1.38804e-05
6.20671e-05
2.96162e-05
1.18101e-05
0.000112135
0.00267726
9.45176e-06
0.0283736
0.0283736
0.0283736
0.0283736
0.0283736
0.0283736
0.0283736
0.0283736
0.0283736
0.0283736
0.0283736