/*--------------------------------*- C++ -*----------------------------------*\
| =========                 |                                                 |
| \\      /  F ield         | OpenFOAM: The Open Source CFD Toolbox           |
|  \\    /   O peration     | Version:  2.3.0                                 |
|   \\  /    A nd           | Web:      www.OpenFOAM.org                      |
|    \\/     M anipulation  |                                                 |
\*---------------------------------------------------------------------------*/
FoamFile
{
    version     2.0;
    format      ascii;
    class       volScalarField;
    location    "25";
    object      alpha.airMean;
}
// * * * * * * * * * * * * * * * * * * * * * * * * * * * * * * * * * * * * * //

dimensions      [0 0 0 0 0 0 0];

internalField   nonuniform List<scalar> 
6144
(
0.999992
0.999991
0.999991
0.999991
0.999991
0.999991
0.99999
0.99999
0.99999
0.99999
0.99999
0.99999
0.99999
0.99999
0.99999
0.99999
0.99999
0.99999
0.99999
0.99999
0.99999
0.99999
0.99999
0.99999
0.99999
0.99999
0.99999
0.99999
0.99999
0.99999
0.99999
0.99999
0.99999
0.99999
0.99999
0.99999
0.99999
0.99999
0.99999
0.99999
0.99999
0.99999
0.99999
0.99999
0.99999
0.99999
0.999988
0.999983
0.999974
0.999961
0.99995
0.999943
0.999939
0.999933
0.999928
0.99992
0.999916
0.999909
0.998691
0.934314
0.0355251
0.000235985
1.24082e-06
9.41597e-07
9.37751e-07
9.26104e-07
9.26046e-07
9.16949e-07
9.17617e-07
9.11315e-07
9.09807e-07
9.04216e-07
8.99027e-07
8.92956e-07
8.87886e-07
8.80353e-07
8.74648e-07
8.70148e-07
8.63833e-07
8.54037e-07
8.41586e-07
8.29393e-07
8.19599e-07
8.0953e-07
7.94449e-07
7.69364e-07
7.45559e-07
7.26021e-07
6.99288e-07
6.58004e-07
6.12993e-07
5.77011e-07
5.31372e-07
4.90563e-07
4.57542e-07
4.37416e-07
0.999992
0.999992
0.999991
0.999991
0.999991
0.999991
0.99999
0.99999
0.99999
0.99999
0.99999
0.99999
0.99999
0.99999
0.99999
0.99999
0.99999
0.99999
0.99999
0.99999
0.99999
0.99999
0.99999
0.99999
0.99999
0.99999
0.99999
0.99999
0.99999
0.99999
0.99999
0.99999
0.99999
0.99999
0.99999
0.99999
0.99999
0.99999
0.99999
0.99999
0.99999
0.99999
0.99999
0.99999
0.99999
0.99999
0.999988
0.999983
0.999976
0.999966
0.999954
0.999944
0.999937
0.999927
0.99992
0.999911
0.999908
0.999898
0.999386
0.949196
0.0301881
0.000123456
1.00118e-06
9.84045e-07
9.76016e-07
9.69012e-07
9.68477e-07
9.63276e-07
9.62432e-07
9.47307e-07
9.41371e-07
9.28226e-07
9.20928e-07
9.14114e-07
9.07968e-07
8.97776e-07
8.91572e-07
8.86031e-07
8.77152e-07
8.63667e-07
8.47094e-07
8.31115e-07
8.13514e-07
7.95825e-07
7.74027e-07
7.50029e-07
7.31043e-07
7.18576e-07
7.05423e-07
6.82917e-07
6.50795e-07
6.06184e-07
5.55808e-07
5.16074e-07
4.84207e-07
4.54835e-07
0.999992
0.999992
0.999992
0.999992
0.999991
0.999991
0.99999
0.99999
0.99999
0.99999
0.99999
0.99999
0.99999
0.99999
0.99999
0.99999
0.99999
0.99999
0.99999
0.99999
0.99999
0.99999
0.99999
0.99999
0.99999
0.99999
0.99999
0.99999
0.99999
0.99999
0.99999
0.99999
0.99999
0.99999
0.99999
0.99999
0.99999
0.99999
0.99999
0.99999
0.99999
0.99999
0.99999
0.99999
0.99999
0.999989
0.999987
0.999983
0.999977
0.999968
0.999952
0.999939
0.999928
0.999916
0.999909
0.999901
0.999901
0.999893
0.999588
0.938515
0.0256071
7.44015e-05
2.19366e-06
2.22887e-06
2.19398e-06
2.11659e-06
1.85381e-06
1.56159e-06
1.28497e-06
1.08754e-06
9.98669e-07
9.57377e-07
9.42832e-07
9.31742e-07
9.25239e-07
9.11077e-07
9.03037e-07
8.9387e-07
8.81473e-07
8.66141e-07
8.50689e-07
8.31426e-07
8.10477e-07
7.85135e-07
7.63453e-07
7.46656e-07
7.36216e-07
7.32719e-07
7.26067e-07
7.08147e-07
6.79232e-07
6.36872e-07
5.81066e-07
5.35447e-07
5.08579e-07
4.69315e-07
0.999993
0.999992
0.999992
0.999992
0.999991
0.999991
0.999991
0.99999
0.99999
0.99999
0.99999
0.99999
0.99999
0.99999
0.99999
0.99999
0.99999
0.99999
0.99999
0.99999
0.99999
0.99999
0.99999
0.99999
0.99999
0.99999
0.99999
0.99999
0.99999
0.99999
0.99999
0.99999
0.99999
0.99999
0.99999
0.99999
0.99999
0.99999
0.99999
0.99999
0.99999
0.99999
0.99999
0.99999
0.99999
0.999989
0.999987
0.999983
0.999977
0.999967
0.999948
0.999931
0.999918
0.999907
0.9999
0.999893
0.999895
0.999886
0.999679
0.914189
0.0221525
8.13762e-05
4.05039e-05
3.80674e-05
3.73318e-05
3.53888e-05
3.1451e-05
2.54618e-05
1.85346e-05
1.20488e-05
7.15214e-06
4.00838e-06
2.36519e-06
1.64927e-06
1.37377e-06
1.21704e-06
1.08713e-06
9.76817e-07
8.98865e-07
8.5277e-07
8.45188e-07
8.41848e-07
8.29955e-07
8.08395e-07
8.01538e-07
8.12328e-07
8.20008e-07
8.18649e-07
8.03172e-07
7.66606e-07
7.22363e-07
6.72967e-07
6.13736e-07
5.63767e-07
5.34028e-07
4.85188e-07
0.999993
0.999993
0.999992
0.999992
0.999992
0.999991
0.999991
0.99999
0.99999
0.99999
0.99999
0.99999
0.99999
0.99999
0.99999
0.99999
0.99999
0.99999
0.99999
0.99999
0.99999
0.99999
0.99999
0.99999
0.99999
0.99999
0.99999
0.99999
0.99999
0.99999
0.99999
0.99999
0.99999
0.99999
0.99999
0.99999
0.99999
0.99999
0.99999
0.99999
0.99999
0.99999
0.99999
0.99999
0.99999
0.999989
0.999987
0.999983
0.999976
0.999963
0.999941
0.999922
0.99991
0.999899
0.999894
0.999888
0.999889
0.999878
0.999716
0.884315
0.0240046
0.000557307
0.000522232
0.000474685
0.000463749
0.000434314
0.000392507
0.000338193
0.000283001
0.000228225
0.000179432
0.000138861
0.000107236
8.44428e-05
6.94099e-05
5.88329e-05
5.07842e-05
4.44495e-05
3.95004e-05
3.57186e-05
3.32649e-05
3.17129e-05
3.07131e-05
2.88136e-05
2.79685e-05
2.69712e-05
2.50218e-05
2.17541e-05
1.79232e-05
1.29905e-05
7.68771e-06
3.98741e-06
1.89212e-06
9.50201e-07
6.46367e-07
5.47662e-07
0.999993
0.999993
0.999993
0.999992
0.999992
0.999992
0.999991
0.999991
0.99999
0.99999
0.99999
0.99999
0.99999
0.99999
0.99999
0.99999
0.99999
0.99999
0.99999
0.99999
0.99999
0.99999
0.99999
0.99999
0.99999
0.99999
0.99999
0.99999
0.99999
0.99999
0.99999
0.99999
0.99999
0.99999
0.99999
0.99999
0.99999
0.99999
0.99999
0.99999
0.99999
0.99999
0.99999
0.99999
0.99999
0.999989
0.999987
0.999984
0.999975
0.999958
0.999935
0.999915
0.999904
0.999895
0.999892
0.999889
0.999893
0.999876
0.999778
0.84092
0.0223885
0.00279148
0.00291557
0.0028232
0.00282866
0.0027033
0.00256082
0.00239206
0.00222711
0.002064
0.00190048
0.00174385
0.00159812
0.00146313
0.00134423
0.00124171
0.00115543
0.00107965
0.00100882
0.000939375
0.00086473
0.000791391
0.000721816
0.000665617
0.000634606
0.000625794
0.000619675
0.000596756
0.000546859
0.000461052
0.000352709
0.000242801
0.000146771
7.30549e-05
2.77953e-05
1.0695e-05
0.999993
0.999993
0.999993
0.999993
0.999992
0.999992
0.999991
0.999991
0.999991
0.99999
0.99999
0.99999
0.99999
0.99999
0.99999
0.99999
0.99999
0.99999
0.99999
0.99999
0.99999
0.99999
0.99999
0.99999
0.99999
0.99999
0.99999
0.99999
0.99999
0.99999
0.99999
0.99999
0.99999
0.99999
0.99999
0.99999
0.99999
0.99999
0.99999
0.99999
0.99999
0.99999
0.99999
0.99999
0.99999
0.999989
0.999987
0.999984
0.999973
0.999952
0.999928
0.999912
0.999902
0.999897
0.999896
0.999894
0.999898
0.999889
0.999832
0.790997
0.0245132
0.00711539
0.00749651
0.00744277
0.00740194
0.0072568
0.00710895
0.00698805
0.00688115
0.00675751
0.00663586
0.00647798
0.00633482
0.00617486
0.0060165
0.00584212
0.0056814
0.00550236
0.00531335
0.00508566
0.00483876
0.00456108
0.00427039
0.00398847
0.00374746
0.00353534
0.00337422
0.00322125
0.00304992
0.0028733
0.00264603
0.0023493
0.0019604
0.00146536
0.000911472
0.00047882
0.999993
0.999993
0.999993
0.999993
0.999992
0.999992
0.999992
0.999991
0.999991
0.99999
0.99999
0.99999
0.99999
0.99999
0.99999
0.99999
0.99999
0.99999
0.99999
0.99999
0.99999
0.99999
0.99999
0.99999
0.99999
0.99999
0.99999
0.99999
0.99999
0.99999
0.99999
0.99999
0.99999
0.99999
0.99999
0.99999
0.99999
0.99999
0.99999
0.99999
0.99999
0.99999
0.99999
0.99999
0.99999
0.999989
0.999987
0.999982
0.999966
0.999945
0.999923
0.999911
0.999904
0.999902
0.999903
0.999903
0.999905
0.999893
0.999802
0.778965
0.0281111
0.0104807
0.0110212
0.0110044
0.0108989
0.0108065
0.0107797
0.0108568
0.0109556
0.0110584
0.011159
0.0112315
0.0112744
0.0112845
0.0112772
0.0112517
0.011214
0.0111771
0.011129
0.0110981
0.0110942
0.0111367
0.0112022
0.0112925
0.0114259
0.0116024
0.0117955
0.0120159
0.0122698
0.0125554
0.0128077
0.0129772
0.0128788
0.0123997
0.0110201
0.00897544
0.999993
0.999993
0.999993
0.999993
0.999993
0.999992
0.999992
0.999991
0.999991
0.999991
0.99999
0.99999
0.99999
0.99999
0.99999
0.99999
0.99999
0.99999
0.99999
0.99999
0.99999
0.99999
0.99999
0.99999
0.99999
0.99999
0.99999
0.99999
0.99999
0.99999
0.99999
0.99999
0.99999
0.99999
0.99999
0.99999
0.99999
0.99999
0.99999
0.99999
0.99999
0.99999
0.99999
0.99999
0.99999
0.999989
0.999986
0.999979
0.999965
0.999946
0.999926
0.999914
0.999908
0.999906
0.999906
0.999905
0.999908
0.999898
0.999811
0.848489
0.0268137
0.0053508
0.00510896
0.00447521
0.00415769
0.0039255
0.00382926
0.0037671
0.00375263
0.00375037
0.00377604
0.00378902
0.00379432
0.00378795
0.00378329
0.00377607
0.00377271
0.00376892
0.00375965
0.00373185
0.00369414
0.00363652
0.00357211
0.00349621
0.00341731
0.00335244
0.00330676
0.00328641
0.00325705
0.00319732
0.00308976
0.00287509
0.00252163
0.00198459
0.00125276
0.000626977
0.999994
0.999993
0.999993
0.999993
0.999993
0.999992
0.999992
0.999991
0.999991
0.999991
0.99999
0.99999
0.99999
0.99999
0.99999
0.99999
0.99999
0.99999
0.99999
0.99999
0.99999
0.99999
0.99999
0.99999
0.99999
0.99999
0.99999
0.99999
0.99999
0.99999
0.99999
0.99999
0.99999
0.99999
0.99999
0.99999
0.99999
0.99999
0.99999
0.99999
0.99999
0.99999
0.99999
0.99999
0.999989
0.999987
0.999984
0.999978
0.999968
0.999952
0.999935
0.999921
0.999913
0.999908
0.999907
0.999906
0.999911
0.999902
0.99987
0.909245
0.0219272
0.00112824
0.000934862
0.000682219
0.000593341
0.000523116
0.000493276
0.000467211
0.000457155
0.000450154
0.00045032
0.000449457
0.000449995
0.000451111
0.00045522
0.000460651
0.000465696
0.000468836
0.000477183
0.000491189
0.000513448
0.000547879
0.000596693
0.000655624
0.000718949
0.000781173
0.0008309
0.000854779
0.00084966
0.000797399
0.000694233
0.000540852
0.00036856
0.000203844
8.49474e-05
3.40007e-05
0.999995
0.999993
0.999993
0.999993
0.999993
0.999992
0.999991
0.999991
0.999991
0.99999
0.99999
0.99999
0.99999
0.99999
0.99999
0.99999
0.99999
0.99999
0.99999
0.99999
0.99999
0.99999
0.99999
0.99999
0.99999
0.99999
0.99999
0.99999
0.99999
0.99999
0.99999
0.99999
0.99999
0.99999
0.99999
0.99999
0.99999
0.99999
0.99999
0.99999
0.99999
0.99999
0.99999
0.99999
0.999989
0.999987
0.999985
0.999979
0.99997
0.999957
0.999943
0.999931
0.999921
0.999914
0.999912
0.999909
0.999913
0.999902
0.999874
0.946431
0.0240033
0.000129832
5.67177e-05
3.44892e-05
2.69464e-05
2.14147e-05
2.00975e-05
1.8786e-05
1.87234e-05
1.91588e-05
2.00724e-05
2.09841e-05
2.18776e-05
2.25481e-05
2.30157e-05
2.32237e-05
2.31613e-05
2.3166e-05
2.42644e-05
2.63325e-05
2.96957e-05
3.42418e-05
3.96343e-05
4.51172e-05
4.98007e-05
5.33195e-05
5.55514e-05
5.62489e-05
5.38689e-05
4.71622e-05
3.68774e-05
2.30183e-05
1.18498e-05
4.84174e-06
1.83323e-06
9.82111e-07
0.999995
0.999994
0.999993
0.999993
0.999993
0.999992
0.999991
0.999991
0.999991
0.99999
0.99999
0.99999
0.99999
0.99999
0.99999
0.99999
0.99999
0.99999
0.99999
0.99999
0.99999
0.99999
0.99999
0.99999
0.99999
0.99999
0.99999
0.99999
0.99999
0.99999
0.99999
0.99999
0.99999
0.99999
0.99999
0.99999
0.99999
0.99999
0.99999
0.99999
0.99999
0.99999
0.99999
0.99999
0.999989
0.999988
0.999986
0.99998
0.999972
0.99996
0.999949
0.999939
0.999931
0.999922
0.999918
0.999914
0.999916
0.999902
0.999817
0.967278
0.0364851
9.78231e-05
1.64038e-06
1.30913e-06
1.19547e-06
1.12046e-06
1.09036e-06
1.05456e-06
1.04315e-06
1.04133e-06
1.04985e-06
1.0417e-06
1.031e-06
1.02048e-06
1.00564e-06
9.87706e-07
9.60864e-07
9.34677e-07
9.30627e-07
9.29666e-07
9.36291e-07
9.67483e-07
1.01272e-06
1.05842e-06
1.09597e-06
1.11487e-06
1.0938e-06
1.03588e-06
9.95848e-07
9.34714e-07
8.38213e-07
7.29848e-07
6.34099e-07
5.81684e-07
5.48867e-07
4.8879e-07
0.999996
0.999995
0.999994
0.999994
0.999993
0.999992
0.999992
0.999991
0.999991
0.99999
0.99999
0.99999
0.99999
0.99999
0.99999
0.99999
0.99999
0.99999
0.99999
0.99999
0.99999
0.99999
0.99999
0.99999
0.99999
0.99999
0.99999
0.99999
0.99999
0.99999
0.99999
0.99999
0.99999
0.99999
0.99999
0.99999
0.99999
0.99999
0.99999
0.99999
0.99999
0.99999
0.99999
0.99999
0.99999
0.999989
0.999987
0.999982
0.999973
0.999963
0.999951
0.999943
0.999937
0.999929
0.999924
0.999918
0.999919
0.9999
0.99973
0.97329
0.0498698
0.000183041
1.11047e-06
1.02074e-06
1.00637e-06
1.00265e-06
9.98219e-07
9.89792e-07
9.80941e-07
9.70938e-07
9.65301e-07
9.59239e-07
9.55518e-07
9.48114e-07
9.36592e-07
9.25718e-07
9.18969e-07
9.12394e-07
9.03747e-07
8.95909e-07
8.8906e-07
8.81568e-07
8.73578e-07
8.64693e-07
8.53873e-07
8.37024e-07
8.15327e-07
7.85972e-07
7.46776e-07
7.07698e-07
6.77792e-07
6.38348e-07
5.84848e-07
5.53304e-07
5.16045e-07
4.56284e-07
0.999996
0.999995
0.999995
0.999994
0.999994
0.999993
0.999992
0.999991
0.999991
0.99999
0.99999
0.99999
0.99999
0.99999
0.99999
0.99999
0.99999
0.99999
0.99999
0.99999
0.99999
0.99999
0.99999
0.99999
0.99999
0.99999
0.99999
0.99999
0.99999
0.99999
0.99999
0.99999
0.99999
0.99999
0.99999
0.99999
0.99999
0.99999
0.99999
0.99999
0.99999
0.99999
0.99999
0.99999
0.99999
0.999989
0.999987
0.999983
0.999974
0.999964
0.999953
0.999944
0.999938
0.999931
0.999927
0.999921
0.999919
0.999889
0.999662
0.970322
0.0587784
0.000302176
1.28717e-06
1.00613e-06
9.92319e-07
9.85271e-07
9.84054e-07
9.7607e-07
9.70294e-07
9.61081e-07
9.56398e-07
9.47973e-07
9.42363e-07
9.35254e-07
9.27628e-07
9.18982e-07
9.11043e-07
9.04448e-07
8.97849e-07
8.91256e-07
8.84141e-07
8.78441e-07
8.7309e-07
8.67041e-07
8.59179e-07
8.45171e-07
8.22037e-07
7.90426e-07
7.46884e-07
6.95761e-07
6.50657e-07
6.18596e-07
5.80775e-07
5.54028e-07
5.13592e-07
4.48439e-07
0.999997
0.999996
0.999995
0.999995
0.999995
0.999994
0.999993
0.999992
0.999991
0.99999
0.99999
0.99999
0.99999
0.99999
0.99999
0.99999
0.99999
0.99999
0.99999
0.99999
0.99999
0.99999
0.99999
0.99999
0.99999
0.99999
0.99999
0.99999
0.99999
0.99999
0.99999
0.99999
0.99999
0.99999
0.99999
0.99999
0.99999
0.99999
0.99999
0.99999
0.99999
0.99999
0.99999
0.99999
0.99999
0.999989
0.999988
0.999983
0.999975
0.999965
0.999955
0.999945
0.999939
0.999933
0.999928
0.999922
0.999916
0.999887
0.999629
0.964921
0.0559292
0.000239656
1.15782e-06
9.99127e-07
9.88117e-07
9.76212e-07
9.70563e-07
9.61526e-07
9.57167e-07
9.47983e-07
9.44892e-07
9.38305e-07
9.32093e-07
9.25363e-07
9.18514e-07
9.11318e-07
9.04088e-07
8.98655e-07
8.92813e-07
8.86998e-07
8.81309e-07
8.75554e-07
8.70172e-07
8.65483e-07
8.59843e-07
8.51134e-07
8.34769e-07
8.0477e-07
7.59349e-07
7.01126e-07
6.46664e-07
6.04228e-07
5.70763e-07
5.37282e-07
4.91661e-07
4.41403e-07
0.999998
0.999996
0.999996
0.999996
0.999995
0.999995
0.999994
0.999993
0.999991
0.99999
0.99999
0.99999
0.99999
0.99999
0.99999
0.99999
0.99999
0.99999
0.99999
0.99999
0.99999
0.99999
0.99999
0.99999
0.99999
0.99999
0.99999
0.99999
0.99999
0.99999
0.99999
0.99999
0.99999
0.99999
0.99999
0.99999
0.99999
0.99999
0.99999
0.99999
0.99999
0.99999
0.99999
0.99999
0.99999
0.99999
0.999988
0.999984
0.999975
0.999964
0.999955
0.999946
0.99994
0.999935
0.999931
0.99992
0.999916
0.999893
0.999337
0.957894
0.0620045
0.000541898
1.92555e-06
9.97519e-07
9.90752e-07
9.78182e-07
9.70886e-07
9.6016e-07
9.57217e-07
9.48395e-07
9.43163e-07
9.35838e-07
9.29166e-07
9.22782e-07
9.16303e-07
9.09856e-07
9.04026e-07
8.98253e-07
8.922e-07
8.86899e-07
8.81435e-07
8.75432e-07
8.70744e-07
8.66696e-07
8.6172e-07
8.57158e-07
8.47542e-07
8.23603e-07
7.83151e-07
7.28443e-07
6.57008e-07
5.92987e-07
5.4969e-07
4.98221e-07
4.61506e-07
4.28976e-07
0.999992
0.999991
0.999991
0.999991
0.999991
0.999991
0.99999
0.99999
0.99999
0.99999
0.99999
0.99999
0.99999
0.99999
0.99999
0.99999
0.99999
0.99999
0.99999
0.99999
0.99999
0.99999
0.99999
0.99999
0.99999
0.99999
0.99999
0.99999
0.99999
0.99999
0.99999
0.99999
0.99999
0.99999
0.99999
0.99999
0.99999
0.99999
0.99999
0.99999
0.99999
0.99999
0.99999
0.99999
0.99999
0.99999
0.999988
0.999983
0.999975
0.999962
0.999951
0.999943
0.99994
0.999935
0.999931
0.999925
0.999922
0.999897
0.999214
0.946502
0.0337814
0.00012534
9.92653e-07
9.44016e-07
9.36624e-07
9.23002e-07
9.22264e-07
9.12452e-07
9.11807e-07
9.05076e-07
9.03859e-07
8.97819e-07
8.93945e-07
8.87879e-07
8.82609e-07
8.76459e-07
8.70632e-07
8.65513e-07
8.5919e-07
8.492e-07
8.38271e-07
8.27132e-07
8.15733e-07
8.01169e-07
7.86137e-07
7.72527e-07
7.58903e-07
7.43157e-07
7.21656e-07
6.89922e-07
6.51203e-07
6.07868e-07
5.56828e-07
5.11293e-07
4.79546e-07
4.51072e-07
0.999992
0.999992
0.999991
0.999991
0.999991
0.999991
0.999991
0.999991
0.99999
0.99999
0.99999
0.99999
0.99999
0.99999
0.99999
0.99999
0.99999
0.99999
0.99999
0.99999
0.99999
0.99999
0.99999
0.99999
0.99999
0.99999
0.99999
0.99999
0.99999
0.99999
0.99999
0.99999
0.99999
0.99999
0.99999
0.99999
0.99999
0.99999
0.99999
0.99999
0.99999
0.99999
0.99999
0.99999
0.99999
0.99999
0.999988
0.999983
0.999976
0.999965
0.999954
0.999944
0.999937
0.99993
0.999925
0.999919
0.999915
0.999888
0.999592
0.917379
0.0146548
1.32183e-05
9.62494e-07
1.03325e-06
9.99649e-07
9.90407e-07
9.86758e-07
9.70107e-07
9.66544e-07
9.53957e-07
9.48068e-07
9.32156e-07
9.23131e-07
9.13729e-07
9.06511e-07
8.97717e-07
8.90193e-07
8.82749e-07
8.73386e-07
8.62009e-07
8.47383e-07
8.3291e-07
8.13971e-07
7.92228e-07
7.70204e-07
7.49971e-07
7.33241e-07
7.20302e-07
7.06631e-07
6.87099e-07
6.62748e-07
6.27233e-07
5.78699e-07
5.38664e-07
5.11948e-07
4.73237e-07
0.999993
0.999992
0.999992
0.999992
0.999991
0.999991
0.999991
0.999991
0.999991
0.99999
0.99999
0.99999
0.99999
0.99999
0.99999
0.99999
0.99999
0.99999
0.99999
0.99999
0.99999
0.99999
0.99999
0.99999
0.99999
0.99999
0.99999
0.99999
0.99999
0.99999
0.99999
0.99999
0.99999
0.99999
0.99999
0.99999
0.99999
0.99999
0.99999
0.99999
0.99999
0.99999
0.99999
0.99999
0.99999
0.999989
0.999988
0.999983
0.999977
0.999968
0.999954
0.999939
0.999927
0.999917
0.999914
0.999911
0.99991
0.999883
0.999732
0.885375
0.0116485
6.85188e-06
6.20333e-06
5.65323e-06
5.39372e-06
4.38919e-06
3.50872e-06
2.53048e-06
1.87216e-06
1.4145e-06
1.18286e-06
1.04973e-06
9.88082e-07
9.64559e-07
9.54592e-07
9.37939e-07
9.26024e-07
9.17132e-07
9.10114e-07
8.98868e-07
8.84722e-07
8.67517e-07
8.43088e-07
8.10746e-07
7.81269e-07
7.58803e-07
7.41206e-07
7.26018e-07
7.10305e-07
6.92796e-07
6.76287e-07
6.46871e-07
5.99544e-07
5.5978e-07
5.34031e-07
4.95563e-07
0.999993
0.999993
0.999992
0.999992
0.999992
0.999991
0.999991
0.999991
0.999991
0.99999
0.99999
0.99999
0.99999
0.99999
0.99999
0.99999
0.99999
0.99999
0.99999
0.99999
0.99999
0.99999
0.99999
0.99999
0.99999
0.99999
0.99999
0.99999
0.99999
0.99999
0.99999
0.99999
0.99999
0.99999
0.99999
0.99999
0.99999
0.99999
0.99999
0.99999
0.99999
0.99999
0.99999
0.99999
0.99999
0.999989
0.999987
0.999983
0.999977
0.999968
0.999948
0.999927
0.999912
0.999906
0.999903
0.999894
0.999884
0.99986
0.999778
0.828738
0.0073687
0.000262766
0.000238065
0.000205495
0.000191322
0.000159332
0.000126695
9.41214e-05
6.64423e-05
4.43566e-05
2.8869e-05
1.85764e-05
1.23926e-05
8.90267e-06
7.16007e-06
6.2641e-06
5.81665e-06
5.58427e-06
5.40305e-06
5.17638e-06
4.94897e-06
4.71799e-06
4.4498e-06
4.11086e-06
3.75562e-06
3.36718e-06
2.92037e-06
2.45713e-06
1.77524e-06
1.22412e-06
9.04715e-07
7.57985e-07
6.95661e-07
6.48544e-07
5.90855e-07
5.29144e-07
0.999993
0.999993
0.999992
0.999992
0.999992
0.999992
0.999991
0.999991
0.999991
0.999991
0.99999
0.99999
0.99999
0.99999
0.99999
0.99999
0.99999
0.99999
0.99999
0.99999
0.99999
0.99999
0.99999
0.99999
0.99999
0.99999
0.99999
0.99999
0.99999
0.99999
0.99999
0.99999
0.99999
0.99999
0.99999
0.99999
0.99999
0.99999
0.99999
0.99999
0.99999
0.99999
0.99999
0.99999
0.99999
0.999989
0.999987
0.999983
0.999977
0.999963
0.999937
0.999916
0.999902
0.999893
0.999885
0.99987
0.999858
0.999844
0.999837
0.743841
0.0102474
0.00344012
0.00329315
0.0030117
0.0028294
0.00253301
0.0022285
0.00191109
0.00160254
0.0013133
0.0010646
0.000857192
0.000694629
0.000575342
0.00048968
0.000434246
0.000402632
0.000387696
0.000385291
0.000389669
0.000397018
0.000396981
0.000390651
0.0003812
0.000364523
0.000343101
0.000315883
0.00026718
0.00020238
0.000134377
7.63812e-05
3.61435e-05
1.45224e-05
5.26806e-06
1.88947e-06
9.26628e-07
0.999994
0.999993
0.999993
0.999992
0.999992
0.999992
0.999991
0.999991
0.999991
0.999991
0.99999
0.99999
0.99999
0.99999
0.99999
0.99999
0.99999
0.99999
0.99999
0.99999
0.99999
0.99999
0.99999
0.99999
0.99999
0.99999
0.99999
0.99999
0.99999
0.99999
0.99999
0.99999
0.99999
0.99999
0.99999
0.99999
0.99999
0.99999
0.99999
0.99999
0.99999
0.99999
0.99999
0.99999
0.99999
0.999989
0.999987
0.999983
0.999976
0.999958
0.999927
0.99991
0.999897
0.999884
0.999872
0.999863
0.99986
0.999855
0.999804
0.620117
0.019939
0.0140689
0.0144337
0.0142928
0.0141331
0.0138419
0.0134617
0.0130059
0.01243
0.011792
0.0110871
0.0103504
0.00960624
0.00888515
0.00821056
0.00763041
0.00714763
0.00676605
0.00648498
0.00627734
0.00609112
0.00590754
0.00568788
0.00549961
0.00528733
0.00500436
0.00468897
0.00430907
0.00384821
0.00327966
0.00265243
0.00197625
0.00131593
0.000747487
0.000329606
0.000119718
0.999994
0.999994
0.999993
0.999993
0.999992
0.999992
0.999992
0.999991
0.999991
0.999991
0.99999
0.99999
0.99999
0.99999
0.99999
0.99999
0.99999
0.99999
0.99999
0.99999
0.99999
0.99999
0.99999
0.99999
0.99999
0.99999
0.99999
0.99999
0.99999
0.99999
0.99999
0.99999
0.99999
0.99999
0.99999
0.99999
0.99999
0.99999
0.99999
0.99999
0.99999
0.99999
0.99999
0.99999
0.99999
0.999989
0.999987
0.999982
0.999972
0.999952
0.999922
0.999905
0.999894
0.999886
0.999879
0.999874
0.999874
0.999866
0.999377
0.578157
0.0305126
0.0242596
0.0253848
0.0259018
0.0263069
0.0267628
0.0271801
0.0275842
0.027938
0.0283137
0.0286715
0.0290151
0.0292723
0.0294592
0.0295406
0.0295616
0.029491
0.0293697
0.0291627
0.0288569
0.0284045
0.0278133
0.0271776
0.0265391
0.0258261
0.0251
0.024287
0.023475
0.0227667
0.0220814
0.0212572
0.0202111
0.0188334
0.0168149
0.0139983
0.0112345
0.999994
0.999994
0.999994
0.999993
0.999993
0.999992
0.999992
0.999991
0.999991
0.999991
0.99999
0.99999
0.99999
0.99999
0.99999
0.99999
0.99999
0.99999
0.99999
0.99999
0.99999
0.99999
0.99999
0.99999
0.99999
0.99999
0.99999
0.99999
0.99999
0.99999
0.99999
0.99999
0.99999
0.99999
0.99999
0.99999
0.99999
0.99999
0.99999
0.99999
0.99999
0.99999
0.99999
0.99999
0.99999
0.999989
0.999986
0.99998
0.999966
0.999944
0.99992
0.999907
0.9999
0.999897
0.999895
0.999892
0.999892
0.999888
0.9989
0.705854
0.0314054
0.0193332
0.0200314
0.0202033
0.0206137
0.0213509
0.0223105
0.0234325
0.0247096
0.0260978
0.0275806
0.0291881
0.0308772
0.0326007
0.0343978
0.0362671
0.0382785
0.0404712
0.0427933
0.0452179
0.0477326
0.0504271
0.0534485
0.0568081
0.0604987
0.0644907
0.0688158
0.0737071
0.0793674
0.0859273
0.0938945
0.103731
0.116872
0.13794
0.186711
0.382118
0.999994
0.999994
0.999994
0.999994
0.999993
0.999993
0.999992
0.999991
0.999991
0.999991
0.99999
0.99999
0.99999
0.99999
0.99999
0.99999
0.99999
0.99999
0.99999
0.99999
0.99999
0.99999
0.99999
0.99999
0.99999
0.99999
0.99999
0.99999
0.99999
0.99999
0.99999
0.99999
0.99999
0.99999
0.99999
0.99999
0.99999
0.99999
0.99999
0.99999
0.99999
0.99999
0.99999
0.99999
0.99999
0.999989
0.999986
0.99998
0.999969
0.999948
0.999926
0.999916
0.999907
0.999902
0.999898
0.999894
0.999893
0.999887
0.999807
0.836046
0.0206799
0.00554066
0.00514942
0.00425773
0.00385289
0.0034967
0.00335924
0.00333787
0.00338887
0.00346502
0.00356572
0.00364508
0.00374359
0.00387074
0.00406429
0.00431762
0.00463447
0.00496465
0.0053049
0.00568547
0.00611135
0.00655269
0.00692834
0.00724458
0.0075217
0.00787825
0.00828129
0.00864916
0.00897985
0.00933666
0.00967173
0.0101867
0.0109775
0.0117821
0.0124068
0.0115533
0.999995
0.999994
0.999994
0.999994
0.999994
0.999993
0.999992
0.999991
0.999991
0.999991
0.99999
0.99999
0.99999
0.99999
0.99999
0.99999
0.99999
0.99999
0.99999
0.99999
0.99999
0.99999
0.99999
0.99999
0.99999
0.99999
0.99999
0.99999
0.99999
0.99999
0.99999
0.99999
0.99999
0.99999
0.99999
0.99999
0.99999
0.99999
0.99999
0.99999
0.99999
0.99999
0.99999
0.99999
0.99999
0.999988
0.999986
0.99998
0.999973
0.999957
0.999939
0.999926
0.999918
0.999908
0.999901
0.999898
0.999898
0.999887
0.999895
0.894885
0.012573
0.000739366
0.000613779
0.000412464
0.000343238
0.000282664
0.000269463
0.000269736
0.000277676
0.000286696
0.000298181
0.000308424
0.000317889
0.000325858
0.00033256
0.000338833
0.000346153
0.00035192
0.00035954
0.000374161
0.000398708
0.000445015
0.000505357
0.000578815
0.000653723
0.000726042
0.000809442
0.000891345
0.000983855
0.00109288
0.00120036
0.00126427
0.00123554
0.00096889
0.000580965
0.000254517
0.999995
0.999995
0.999994
0.999994
0.999994
0.999993
0.999992
0.999991
0.999991
0.999991
0.99999
0.99999
0.99999
0.99999
0.99999
0.99999
0.99999
0.99999
0.99999
0.99999
0.99999
0.99999
0.99999
0.99999
0.99999
0.99999
0.99999
0.99999
0.99999
0.99999
0.99999
0.99999
0.99999
0.99999
0.99999
0.99999
0.99999
0.99999
0.99999
0.99999
0.99999
0.99999
0.99999
0.99999
0.99999
0.999989
0.999987
0.999982
0.999973
0.999963
0.999949
0.999936
0.999929
0.999921
0.999914
0.999908
0.999904
0.999883
0.99988
0.931532
0.0145665
3.81095e-05
3.45142e-05
1.90544e-05
1.64787e-05
1.3772e-05
1.32957e-05
1.29475e-05
1.28647e-05
1.27611e-05
1.28936e-05
1.31296e-05
1.33671e-05
1.34092e-05
1.35684e-05
1.35882e-05
1.29664e-05
1.2009e-05
1.16828e-05
1.20192e-05
1.31892e-05
1.59144e-05
1.9435e-05
2.35916e-05
2.69651e-05
2.84462e-05
2.83914e-05
2.71483e-05
2.56164e-05
2.40987e-05
2.35642e-05
2.25427e-05
1.78122e-05
1.01776e-05
4.71104e-06
2.04864e-06
0.999995
0.999995
0.999995
0.999994
0.999994
0.999993
0.999992
0.999991
0.999991
0.999991
0.99999
0.99999
0.99999
0.99999
0.99999
0.99999
0.99999
0.99999
0.99999
0.99999
0.99999
0.99999
0.99999
0.99999
0.99999
0.99999
0.99999
0.99999
0.99999
0.99999
0.99999
0.99999
0.99999
0.99999
0.99999
0.99999
0.99999
0.99999
0.99999
0.99999
0.99999
0.99999
0.99999
0.99999
0.99999
0.999989
0.999987
0.999983
0.999975
0.999966
0.999954
0.999943
0.999936
0.999929
0.999925
0.999918
0.999908
0.99988
0.999829
0.953837
0.0213459
1.44298e-06
2.23347e-06
1.22343e-06
1.28685e-06
1.16415e-06
1.16945e-06
1.13971e-06
1.13097e-06
1.1125e-06
1.1051e-06
1.10082e-06
1.09207e-06
1.07622e-06
1.05794e-06
1.04011e-06
1.00742e-06
9.85278e-07
9.8041e-07
9.76821e-07
9.8291e-07
9.9179e-07
1.007e-06
1.02013e-06
1.01941e-06
9.85492e-07
9.15199e-07
8.53095e-07
8.13782e-07
7.67028e-07
7.17723e-07
6.71841e-07
6.24507e-07
5.90565e-07
5.54908e-07
4.94046e-07
0.999996
0.999995
0.999995
0.999995
0.999994
0.999994
0.999992
0.999991
0.999991
0.999991
0.99999
0.99999
0.99999
0.99999
0.99999
0.99999
0.99999
0.99999
0.99999
0.99999
0.99999
0.99999
0.99999
0.99999
0.99999
0.99999
0.99999
0.99999
0.99999
0.99999
0.99999
0.99999
0.99999
0.99999
0.99999
0.99999
0.99999
0.99999
0.99999
0.99999
0.99999
0.99999
0.99999
0.99999
0.99999
0.99999
0.999988
0.999984
0.999976
0.999967
0.999956
0.999945
0.999937
0.999928
0.999923
0.999915
0.999903
0.999877
0.999756
0.960542
0.0322504
1.62654e-05
1.06501e-06
1.03054e-06
1.03426e-06
1.02658e-06
1.01969e-06
1.00725e-06
9.99126e-07
9.82638e-07
9.7258e-07
9.61255e-07
9.54077e-07
9.44108e-07
9.33165e-07
9.23076e-07
9.1586e-07
9.06366e-07
8.97126e-07
8.90579e-07
8.84183e-07
8.78036e-07
8.73311e-07
8.67016e-07
8.57216e-07
8.42006e-07
8.20242e-07
7.90302e-07
7.53319e-07
7.09567e-07
6.64023e-07
6.32309e-07
5.91444e-07
5.63016e-07
5.20105e-07
4.48984e-07
0.999996
0.999996
0.999996
0.999995
0.999995
0.999994
0.999993
0.999991
0.999991
0.999991
0.99999
0.99999
0.99999
0.99999
0.99999
0.99999
0.99999
0.99999
0.99999
0.99999
0.99999
0.99999
0.99999
0.99999
0.99999
0.99999
0.99999
0.99999
0.99999
0.99999
0.99999
0.99999
0.99999
0.99999
0.99999
0.99999
0.99999
0.99999
0.99999
0.99999
0.99999
0.99999
0.99999
0.99999
0.99999
0.99999
0.999988
0.999984
0.999976
0.999966
0.999956
0.999945
0.999936
0.999926
0.999916
0.999907
0.999894
0.999859
0.999655
0.954659
0.0355866
2.77995e-05
1.05348e-06
1.01915e-06
9.9644e-07
9.88412e-07
9.88583e-07
9.78604e-07
9.74783e-07
9.64102e-07
9.57719e-07
9.4791e-07
9.42375e-07
9.33433e-07
9.24624e-07
9.15427e-07
9.07382e-07
8.99452e-07
8.92123e-07
8.86288e-07
8.80165e-07
8.75233e-07
8.72162e-07
8.66627e-07
8.57399e-07
8.43168e-07
8.20976e-07
7.91577e-07
7.52632e-07
6.99646e-07
6.47952e-07
6.11898e-07
5.85866e-07
5.65784e-07
5.29657e-07
4.49398e-07
0.999997
0.999996
0.999996
0.999995
0.999995
0.999995
0.999994
0.999992
0.999991
0.999991
0.99999
0.99999
0.99999
0.99999
0.99999
0.99999
0.99999
0.99999
0.99999
0.99999
0.99999
0.99999
0.99999
0.99999
0.99999
0.99999
0.99999
0.99999
0.99999
0.99999
0.99999
0.99999
0.99999
0.99999
0.99999
0.99999
0.99999
0.99999
0.99999
0.99999
0.99999
0.99999
0.99999
0.99999
0.99999
0.99999
0.999988
0.999984
0.999976
0.999966
0.999956
0.999947
0.999935
0.999925
0.999911
0.999897
0.999883
0.999846
0.999638
0.935072
0.0321667
6.31398e-05
1.07879e-06
9.96768e-07
9.83974e-07
9.69677e-07
9.67739e-07
9.57742e-07
9.54648e-07
9.46173e-07
9.4228e-07
9.33887e-07
9.28257e-07
9.20374e-07
9.1413e-07
9.07111e-07
9.00494e-07
8.94828e-07
8.88729e-07
8.83463e-07
8.78113e-07
8.7392e-07
8.71461e-07
8.6641e-07
8.57546e-07
8.46647e-07
8.29622e-07
8.00267e-07
7.56144e-07
6.98994e-07
6.40289e-07
5.93643e-07
5.69926e-07
5.46532e-07
5.07926e-07
4.43312e-07
0.999998
0.999997
0.999996
0.999996
0.999996
0.999995
0.999995
0.999993
0.999991
0.999991
0.99999
0.99999
0.99999
0.99999
0.99999
0.99999
0.99999
0.99999
0.99999
0.99999
0.99999
0.99999
0.99999
0.99999
0.99999
0.99999
0.99999
0.99999
0.99999
0.99999
0.99999
0.99999
0.99999
0.99999
0.99999
0.99999
0.99999
0.99999
0.99999
0.99999
0.99999
0.99999
0.99999
0.99999
0.99999
0.99999
0.999988
0.999984
0.999976
0.999965
0.999955
0.999946
0.99994
0.999933
0.99992
0.999902
0.999888
0.999844
0.999464
0.953874
0.0519294
0.00038468
1.60907e-06
9.93272e-07
9.85119e-07
9.69678e-07
9.66757e-07
9.56031e-07
9.52091e-07
9.4251e-07
9.37648e-07
9.29368e-07
9.24167e-07
9.17132e-07
9.11332e-07
9.05386e-07
9.0051e-07
8.95203e-07
8.89703e-07