/*--------------------------------*- C++ -*----------------------------------*\
| =========                 |                                                 |
| \\      /  F ield         | OpenFOAM: The Open Source CFD Toolbox           |
|  \\    /   O peration     | Version:  2.3.0                                 |
|   \\  /    A nd           | Web:      www.OpenFOAM.org                      |
|    \\/     M anipulation  |                                                 |
\*---------------------------------------------------------------------------*/
FoamFile
{
    version     2.0;
    format      ascii;
    class       volScalarField;
    location    "25";
    object      alpha.air;
}
// * * * * * * * * * * * * * * * * * * * * * * * * * * * * * * * * * * * * * //

dimensions      [0 0 0 0 0 0 0];

internalField   nonuniform List<scalar> 
6144
(
0.999994
0.999993
0.999993
0.999993
0.999992
0.999992
0.999991
0.999991
0.99999
0.99999
0.99999
0.99999
0.99999
0.99999
0.99999
0.99999
0.99999
0.99999
0.99999
0.99999
0.99999
0.99999
0.99999
0.99999
0.99999
0.99999
0.99999
0.99999
0.99999
0.99999
0.99999
0.99999
0.99999
0.99999
0.99999
0.99999
0.99999
0.99999
0.99999
0.99999
0.99999
0.99999
0.99999
0.99999
0.99999
0.99999
0.99999
0.99999
0.99999
0.999989
0.999987
0.999979
0.999958
0.999935
0.99992
0.999895
0.999856
0.999501
0.998582
0.946818
0.034597
0.000177958
6.82862e-07
6.83452e-07
6.82619e-07
6.80583e-07
6.78343e-07
6.76713e-07
6.75396e-07
6.74952e-07
6.74992e-07
6.7525e-07
6.75389e-07
6.75396e-07
6.75403e-07
6.75407e-07
6.75415e-07
6.75425e-07
6.752e-07
6.74857e-07
6.74697e-07
6.74689e-07
6.7482e-07
6.75166e-07
6.76028e-07
6.77648e-07
6.79566e-07
6.84243e-07
6.9534e-07
6.97728e-07
6.27529e-07
4.71954e-07
4.12448e-07
4.19402e-07
4.17747e-07
3.84183e-07
0.999995
0.999994
0.999993
0.999993
0.999992
0.999992
0.999991
0.99999
0.99999
0.99999
0.99999
0.99999
0.99999
0.99999
0.99999
0.99999
0.99999
0.99999
0.99999
0.99999
0.99999
0.99999
0.99999
0.99999
0.99999
0.99999
0.99999
0.99999
0.99999
0.99999
0.99999
0.99999
0.99999
0.99999
0.99999
0.99999
0.99999
0.99999
0.99999
0.99999
0.99999
0.99999
0.99999
0.99999
0.99999
0.99999
0.99999
0.99999
0.99999
0.99999
0.999987
0.999977
0.999954
0.999941
0.999929
0.999909
0.999843
0.999336
0.998343
0.954777
0.0388836
9.58726e-05
6.64391e-07
6.75163e-07
6.7185e-07
6.7185e-07
6.72009e-07
6.72249e-07
6.72407e-07
6.72885e-07
6.73814e-07
6.74408e-07
6.7424e-07
6.73109e-07
6.72304e-07
6.73095e-07
6.74466e-07
6.76202e-07
6.77043e-07
6.76744e-07
6.75509e-07
6.73632e-07
6.72202e-07
6.72085e-07
6.72743e-07
6.74833e-07
6.79465e-07
6.85959e-07
6.90294e-07
6.85009e-07
6.35078e-07
4.99685e-07
4.46887e-07
4.57779e-07
4.49863e-07
3.85057e-07
0.999996
0.999994
0.999994
0.999993
0.999992
0.999992
0.999991
0.99999
0.99999
0.99999
0.99999
0.99999
0.99999
0.99999
0.99999
0.99999
0.99999
0.99999
0.99999
0.99999
0.99999
0.99999
0.99999
0.99999
0.99999
0.99999
0.99999
0.99999
0.99999
0.99999
0.99999
0.99999
0.99999
0.99999
0.99999
0.99999
0.99999
0.99999
0.99999
0.99999
0.99999
0.99999
0.99999
0.99999
0.99999
0.99999
0.99999
0.99999
0.99999
0.999989
0.999987
0.999975
0.999961
0.999947
0.999916
0.999896
0.999887
0.99955
0.999198
0.954729
0.0404521
2.59348e-05
6.6439e-07
6.87616e-07
6.75876e-07
6.79435e-07
6.85632e-07
6.92734e-07
6.99193e-07
7.00594e-07
6.99734e-07
6.96902e-07
6.96479e-07
6.98364e-07
7.03838e-07
7.10615e-07
7.12222e-07
7.1096e-07
7.09454e-07
7.09199e-07
7.05452e-07
6.95376e-07
6.82326e-07
6.77567e-07
6.7799e-07
6.77669e-07
6.74578e-07
6.65139e-07
6.53483e-07
6.51324e-07
6.40386e-07
5.41846e-07
4.74686e-07
4.83706e-07
4.70784e-07
3.94332e-07
0.999996
0.999995
0.999994
0.999994
0.999993
0.999992
0.999991
0.99999
0.99999
0.99999
0.99999
0.99999
0.99999
0.99999
0.99999
0.99999
0.99999
0.99999
0.99999
0.99999
0.99999
0.99999
0.99999
0.99999
0.99999
0.99999
0.99999
0.99999
0.99999
0.99999
0.99999
0.99999
0.99999
0.99999
0.99999
0.99999
0.99999
0.99999
0.99999
0.99999
0.99999
0.99999
0.99999
0.99999
0.99999
0.99999
0.99999
0.99999
0.99999
0.999989
0.999985
0.999976
0.999965
0.99992
0.999895
0.999886
0.999902
0.999703
0.999802
0.942151
0.0362912
9.52529e-07
6.64391e-07
6.99896e-07
7.34124e-07
6.89102e-07
6.77657e-07
6.85218e-07
7.14596e-07
7.29143e-07
7.40289e-07
7.4004e-07
7.34698e-07
7.26987e-07
7.18604e-07
7.0717e-07
6.9218e-07
6.77294e-07
6.65465e-07
6.57939e-07
6.64699e-07
6.6816e-07
6.68652e-07
6.65245e-07
6.59751e-07
6.51355e-07
6.41165e-07
6.35284e-07
6.32755e-07
6.36489e-07
6.41842e-07
5.89515e-07
4.98101e-07
4.92802e-07
4.81467e-07
4.00303e-07
0.999996
0.999996
0.999995
0.999994
0.999993
0.999993
0.999992
0.999991
0.99999
0.99999
0.99999
0.99999
0.99999
0.99999
0.99999
0.99999
0.99999
0.99999
0.99999
0.99999
0.99999
0.99999
0.99999
0.99999
0.99999
0.99999
0.99999
0.99999
0.99999
0.99999
0.99999
0.99999
0.99999
0.99999
0.99999
0.99999
0.99999
0.99999
0.99999
0.99999
0.99999
0.99999
0.99999
0.99999
0.99999
0.99999
0.99999
0.99999
0.99999
0.999989
0.999986
0.999978
0.999934
0.999884
0.999882
0.999882
0.999882
0.999782
0.999928
0.888502
0.0211352
3.04604e-05
1.14547e-05
5.24722e-06
4.95142e-06
5.83575e-06
6.78123e-06
7.22338e-06
7.54933e-06
7.11193e-06
7.09001e-06
7.82736e-06
7.69691e-06
4.17591e-06
2.8545e-06
2.07594e-06
1.14948e-06
8.0012e-07
6.85715e-07
5.96292e-07
5.96292e-07
5.96292e-07
5.96292e-07
6.17141e-07
6.25653e-07
6.37744e-07
6.4722e-07
6.50892e-07
6.50221e-07
6.47526e-07
6.49889e-07
6.42786e-07
5.66095e-07
5.08793e-07
4.85561e-07
4.06148e-07
0.999996
0.999996
0.999995
0.999995
0.999994
0.999993
0.999992
0.999991
0.99999
0.99999
0.99999
0.99999
0.99999
0.99999
0.99999
0.99999
0.99999
0.99999
0.99999
0.99999
0.99999
0.99999
0.99999
0.99999
0.99999
0.99999
0.99999
0.99999
0.99999
0.99999
0.99999
0.99999
0.99999
0.99999
0.99999
0.99999
0.99999
0.99999
0.99999
0.99999
0.99999
0.99999
0.99999
0.99999
0.99999
0.99999
0.99999
0.99999
0.99999
0.999989
0.999987
0.999979
0.999897
0.999874
0.999893
0.999909
0.999916
0.999856
0.99999
0.780541
0.00459727
0.000794712
0.000708184
0.000601412
0.000627672
0.00075335
0.000812277
0.00083547
0.000785648
0.000756128
0.000929284
0.00107291
0.00098392
0.000653561
0.000542324
0.000477819
0.000301115
0.000147757
6.77307e-05
3.09989e-05
1.37049e-05
5.52304e-06
2.21911e-06
1.07398e-06
7.73966e-07
5.93843e-07
5.93843e-07
5.93843e-07
6.41051e-07
6.56711e-07
6.56241e-07
5.9451e-07
3.39467e-07
3.39467e-07
3.39467e-07
3.39467e-07
0.999996
0.999996
0.999996
0.999995
0.999994
0.999994
0.999993
0.999992
0.999991
0.99999
0.99999
0.99999
0.99999
0.99999
0.99999
0.99999
0.99999
0.99999
0.99999
0.99999
0.99999
0.99999
0.99999
0.99999
0.99999
0.99999
0.99999
0.99999
0.99999
0.99999
0.99999
0.99999
0.99999
0.99999
0.99999
0.99999
0.99999
0.99999
0.99999
0.99999
0.99999
0.99999
0.99999
0.99999
0.99999
0.99999
0.99999
0.99999
0.99999
0.999989
0.999988
0.999985
0.999916
0.999884
0.999906
0.999915
0.999915
0.999875
0.99999
0.650278
0.00917658
0.00584838
0.0058735
0.00579865
0.00697472
0.00747133
0.00637109
0.00570754
0.00615132
0.00813017
0.0086483
0.0081883
0.00760458
0.00676534
0.00617052
0.00545691
0.00480057
0.00421249
0.00347202
0.0026944
0.00208238
0.00151332
0.000994991
0.000607334
0.000320983
0.000127022
4.21236e-05
8.91619e-06
4.90114e-07
4.90114e-07
4.90114e-07
4.90114e-07
3.23462e-05
4.35401e-05
5.87987e-05
5.21778e-05
0.999996
0.999996
0.999996
0.999996
0.999995
0.999994
0.999993
0.999992
0.999991
0.999991
0.99999
0.99999
0.99999
0.99999
0.99999
0.99999
0.99999
0.99999
0.99999
0.99999
0.99999
0.99999
0.99999
0.99999
0.99999
0.99999
0.99999
0.99999
0.99999
0.99999
0.99999
0.99999
0.99999
0.99999
0.99999
0.99999
0.99999
0.99999
0.99999
0.99999
0.99999
0.99999
0.99999
0.99999
0.99999
0.99999
0.99999
0.99999
0.99999
0.999989
0.999988
0.999987
0.999953
0.999892
0.999891
0.99989
0.999876
0.999808
0.99999
0.559964
0.0181735
0.0148578
0.0152703
0.0153843
0.0151498
0.0146449
0.014264
0.0139716
0.0140504
0.0142103
0.0139624
0.0133395
0.012444
0.0121973
0.0126786
0.0131128
0.0119547
0.0129727
0.0153844
0.014522
0.0129423
0.0121405
0.0109119
0.010786
0.0124864
0.0145496
0.0146182
0.0125829
0.0118596
0.0119732
0.0134897
0.0147268
0.0154072
0.0160102
0.0161397
0.0129215
0.999996
0.999996
0.999996
0.999995
0.999995
0.999994
0.999993
0.999992
0.999991
0.999991
0.99999
0.99999
0.99999
0.99999
0.99999
0.99999
0.99999
0.99999
0.99999
0.99999
0.99999
0.99999
0.99999
0.99999
0.99999
0.99999
0.99999
0.99999
0.99999
0.99999
0.99999
0.99999
0.99999
0.99999
0.99999
0.99999
0.99999
0.99999
0.99999
0.99999
0.99999
0.99999
0.99999
0.99999
0.99999
0.99999
0.99999
0.99999
0.99999
0.999989
0.999988
0.999987
0.999977
0.999916
0.999895
0.999878
0.999877
0.999791
0.99999
0.649783
0.0144813
0.0082437
0.00785589
0.00678424
0.00602136
0.00574679
0.00477381
0.00433673
0.00431167
0.0042332
0.00448603
0.00460637
0.00436918
0.00432966
0.004119
0.00398955
0.00385083
0.00446261
0.00786308
0.00897278
0.00895489
0.00888079
0.00761398
0.00747224
0.00743589
0.00648821
0.00653655
0.00906819
0.0115499
0.0109705
0.0080847
0.00746417
0.00680022
0.00544055
0.00343274
0.0014887
0.999996
0.999995
0.999995
0.999995
0.999994
0.999993
0.999993
0.999992
0.999991
0.999991
0.99999
0.99999
0.99999
0.99999
0.99999
0.99999
0.99999
0.99999
0.99999
0.99999
0.99999
0.99999
0.99999
0.99999
0.99999
0.99999
0.99999
0.99999
0.99999
0.99999
0.99999
0.99999
0.99999
0.99999
0.99999
0.99999
0.99999
0.99999
0.99999
0.99999
0.99999
0.99999
0.99999
0.99999
0.99999
0.99999
0.99999
0.99999
0.99999
0.999989
0.999988
0.999986
0.999983
0.999944
0.999908
0.999885
0.999884
0.999761
0.999965
0.762996
0.00856583
0.0017246
0.00119264
0.000755374
0.000549502
0.000415086
0.000300733
0.000241754
0.00021823
0.000211531
0.000247137
0.000315717
0.000368099
0.000397336
0.000401864
0.000400266
0.000408527
0.00042925
0.000567115
0.000905476
0.00111988
0.00117521
0.0011548
0.0012423
0.00148436
0.00157238
0.00159642
0.00162556
0.00172354
0.00178082
0.00131602
0.000795691
0.000474715
0.000228007
7.98641e-05
2.74606e-05
0.999996
0.999996
0.999995
0.999994
0.999994
0.999993
0.999992
0.999991
0.999991
0.999991
0.99999
0.99999
0.99999
0.99999
0.99999
0.99999
0.99999
0.99999
0.99999
0.99999
0.99999
0.99999
0.99999
0.99999
0.99999
0.99999
0.99999
0.99999
0.99999
0.99999
0.99999
0.99999
0.99999
0.99999
0.99999
0.99999
0.99999
0.99999
0.99999
0.99999
0.99999
0.99999
0.99999
0.99999
0.99999
0.99999
0.99999
0.99999
0.99999
0.999989
0.999988
0.999984
0.999981
0.999963
0.999929
0.999897
0.999902
0.999627
0.999818
0.894442
0.0220587
9.43743e-05
3.26618e-05
9.12281e-06
4.31984e-06
1.95655e-06
1.04336e-06
7.42631e-07
5.35035e-07
2.33074e-07
8.65542e-07
9.70761e-07
4.69091e-07
5.52142e-07
2.30226e-06
2.98217e-06
3.17705e-06
4.72067e-06
6.56236e-06
9.7844e-06
1.33014e-05
1.58775e-05
1.77087e-05
1.98658e-05
2.32871e-05
2.75321e-05
2.98733e-05
2.93442e-05
2.3006e-05
1.83006e-05
1.31178e-05
5.3206e-06
2.06605e-06
1.03133e-06
6.17871e-07
3.0814e-07
0.999997
0.999997
0.999995
0.999994
0.999994
0.999993
0.999992
0.999991
0.999991
0.99999
0.99999
0.99999
0.99999
0.99999
0.99999
0.99999
0.99999
0.99999
0.99999
0.99999
0.99999
0.99999
0.99999
0.99999
0.99999
0.99999
0.99999
0.99999
0.99999
0.99999
0.99999
0.99999
0.99999
0.99999
0.99999
0.99999
0.99999
0.99999
0.99999
0.99999
0.99999
0.99999
0.99999
0.99999
0.99999
0.99999
0.99999
0.99999
0.99999
0.999989
0.999987
0.999982
0.999975
0.999964
0.999934
0.999903
0.99991
0.999432
0.999679
0.94677
0.039032
1.12364e-06
4.26372e-07
5.90136e-07
5.76013e-07
6.16946e-07
5.51971e-07
5.42957e-07
5.64204e-07
5.55586e-07
4.97754e-07
4.8323e-07
4.72471e-07
4.60304e-07
4.42945e-07
4.23874e-07
4.08292e-07
3.92272e-07
3.84257e-07
3.83743e-07
3.83195e-07
3.82673e-07
3.82148e-07
3.82147e-07
3.94414e-07
4.04657e-07
3.88566e-07
3.75911e-07
2.51412e-07
1.98101e-07
1.9805e-07
1.98001e-07
2.04928e-07
1.96111e-07
1.93801e-07
1.938e-07
0.999997
0.999997
0.999997
0.999995
0.999994
0.999993
0.999992
0.999991
0.99999
0.99999
0.99999
0.99999
0.99999
0.99999
0.99999
0.99999
0.99999
0.99999
0.99999
0.99999
0.99999
0.99999
0.99999
0.99999
0.99999
0.99999
0.99999
0.99999
0.99999
0.99999
0.99999
0.99999
0.99999
0.99999
0.99999
0.99999
0.99999
0.99999
0.99999
0.99999
0.99999
0.99999
0.99999
0.99999
0.99999
0.99999
0.99999
0.99999
0.99999
0.999989
0.999987
0.99998
0.999972
0.999962
0.99994
0.999907
0.999856
0.999289
0.999451
0.969743
0.0474829
1.11992e-06
3.19466e-07
4.39349e-07
4.977e-07
5.28504e-07
5.17372e-07
4.97933e-07
4.74495e-07
4.50946e-07
4.34309e-07
4.27548e-07
4.2714e-07
4.30466e-07
4.33164e-07
4.22122e-07
4.05075e-07
3.93841e-07
3.85145e-07
3.84166e-07
3.84805e-07
3.85807e-07
3.85257e-07
3.82224e-07
3.75092e-07
3.6447e-07
3.52951e-07
3.46336e-07
3.29512e-07
2.82347e-07
2.16846e-07
1.96727e-07
1.93848e-07
1.94285e-07
1.938e-07
1.93799e-07
0.999998
0.999997
0.999998
0.999997
0.999997
0.999996
0.999992
0.999991
0.99999
0.99999
0.99999
0.99999
0.99999
0.99999
0.99999
0.99999
0.99999
0.99999
0.99999
0.99999
0.99999
0.99999
0.99999
0.99999
0.99999
0.99999
0.99999
0.99999
0.99999
0.99999
0.99999
0.99999
0.99999
0.99999
0.99999
0.99999
0.99999
0.99999
0.99999
0.99999
0.99999
0.99999
0.99999
0.99999
0.99999
0.99999
0.99999
0.99999
0.99999
0.999989
0.999986
0.999979
0.999967
0.999957
0.999944
0.999916
0.999805
0.999196
0.999175
0.952994
0.0482412
1.30671e-06
3.19466e-07
3.59774e-07
3.69504e-07
3.75003e-07
3.78078e-07
3.81053e-07
3.79995e-07
3.76543e-07
3.70489e-07
3.63879e-07
3.59573e-07
3.59255e-07
3.64807e-07
3.73148e-07
3.72657e-07
3.67722e-07
3.62849e-07
3.67396e-07
3.73519e-07
3.80904e-07
3.83316e-07
3.82175e-07
3.77669e-07
3.68112e-07
3.51836e-07
3.34028e-07
3.30757e-07
3.27448e-07
3.00762e-07
2.45485e-07
2.08831e-07
2.00623e-07
1.94411e-07
1.93799e-07
0.999998
0.999998
0.999998
0.999998
0.999998
0.999998
0.999995
0.99999
0.99999
0.99999
0.99999
0.99999
0.99999
0.99999
0.99999
0.99999
0.99999
0.99999
0.99999
0.99999
0.99999
0.99999
0.99999
0.99999
0.99999
0.99999
0.99999
0.99999
0.99999
0.99999
0.99999
0.99999
0.99999
0.99999
0.99999
0.99999
0.99999
0.99999
0.99999
0.99999
0.99999
0.99999
0.99999
0.99999
0.99999
0.99999
0.99999
0.99999
0.99999
0.999989
0.999986
0.999975
0.999959
0.999949
0.999943
0.999923
0.999719
0.999123
0.998409
0.943127
0.0461604
8.07089e-05
3.19467e-07
3.39446e-07
3.49011e-07
3.57399e-07
3.6514e-07
3.65056e-07
3.62705e-07
3.56525e-07
3.46414e-07
3.35697e-07
3.27395e-07
3.22218e-07
3.21142e-07
3.22324e-07
3.26976e-07
3.32106e-07
3.39561e-07
3.52023e-07
3.65577e-07
3.79131e-07
3.89111e-07
3.8997e-07
3.87926e-07
3.78595e-07
3.57531e-07
3.31578e-07
3.20685e-07
3.22087e-07
3.23363e-07
3.13349e-07
2.83913e-07
2.60781e-07
2.57445e-07
2.18274e-07
0.999999
0.999999
0.999999
0.999999
0.999998
0.999998
0.999998
0.999992
0.99999
0.99999
0.99999
0.99999
0.99999
0.99999
0.99999
0.99999
0.99999
0.99999
0.99999
0.99999
0.99999
0.99999
0.99999
0.99999
0.99999
0.99999
0.99999
0.99999
0.99999
0.99999
0.99999
0.99999
0.99999
0.99999
0.99999
0.99999
0.99999
0.99999
0.99999
0.99999
0.99999
0.99999
0.99999
0.99999
0.99999
0.99999
0.99999
0.99999
0.99999
0.999989
0.999986
0.999976
0.999963
0.999947
0.99993
0.999864
0.999782
0.999232
0.998451
0.940015
0.0516577
0.000363452
9.96551e-07
3.06137e-07
3.07605e-07
3.0832e-07
3.08855e-07
3.09504e-07
3.10183e-07
3.10757e-07
3.10985e-07
3.1101e-07
3.10939e-07
3.10829e-07
3.10706e-07
3.10709e-07
3.115e-07
3.14821e-07
3.24252e-07
3.4235e-07
3.62098e-07
3.82827e-07
3.97652e-07
3.99701e-07
3.97237e-07
3.83549e-07
3.54326e-07
3.23376e-07
3.13368e-07
3.14864e-07
3.19764e-07
3.24402e-07
3.21989e-07
3.13753e-07
2.83732e-07
2.02435e-07
0.999994
0.999993
0.999993
0.999992
0.999992
0.999992
0.999991
0.99999
0.99999
0.99999
0.99999
0.99999
0.99999
0.99999
0.99999
0.99999
0.99999
0.99999
0.99999
0.99999
0.99999
0.99999
0.99999
0.99999
0.99999
0.99999
0.99999
0.99999
0.99999
0.99999
0.99999
0.99999
0.99999
0.99999
0.99999
0.99999
0.99999
0.99999
0.99999
0.99999
0.99999
0.99999
0.99999
0.99999
0.99999
0.99999
0.99999
0.99999
0.99999
0.999989
0.999987
0.999979
0.99996
0.999936
0.999923
0.999902
0.999845
0.99926
0.996726
0.933611
0.0546152
0.000386541
1.01706e-06
6.65244e-07
6.68229e-07
6.69495e-07
6.69175e-07
6.69212e-07
6.6948e-07
6.69871e-07
6.70242e-07
6.70547e-07
6.70825e-07
6.71061e-07
6.71268e-07
6.71449e-07
6.7145e-07
6.71412e-07
6.71341e-07
6.71322e-07
6.71352e-07
6.71482e-07
6.71804e-07
6.72285e-07
6.72895e-07
6.73811e-07
6.74816e-07
6.75894e-07
6.80155e-07
6.89412e-07
6.91585e-07
6.83026e-07
6.65163e-07
6.43402e-07
5.95035e-07
4.35573e-07
0.999996
0.999994
0.999993
0.999992
0.999992
0.999991
0.999991
0.999991
0.999991
0.99999
0.99999
0.99999
0.99999
0.99999
0.99999
0.99999
0.99999
0.99999
0.99999
0.99999
0.99999
0.99999
0.99999
0.99999
0.99999
0.99999
0.99999
0.99999
0.99999
0.99999
0.99999
0.99999
0.99999
0.99999
0.99999
0.99999
0.99999
0.99999
0.99999
0.99999
0.99999
0.99999
0.99999
0.99999
0.99999
0.99999
0.99999
0.99999
0.99999
0.999989
0.999987
0.999979
0.999956
0.99994
0.999931
0.999913
0.999817
0.999341
0.998066
0.944281
0.039099
6.4774e-05
6.64392e-07
6.78534e-07
6.76709e-07
6.73916e-07
6.71833e-07
6.71206e-07
6.709e-07
6.70874e-07
6.71113e-07
6.71976e-07
6.73592e-07
6.75135e-07
6.75378e-07
6.74778e-07
6.7206e-07
6.69347e-07
6.6926e-07
6.69241e-07
6.6926e-07
6.69256e-07
6.69297e-07
6.69576e-07
6.70536e-07
6.72219e-07
6.74499e-07
6.76853e-07
6.79661e-07
6.83959e-07
6.85772e-07
6.86961e-07
6.86895e-07
6.733e-07
6.26835e-07
4.77174e-07
0.999996
0.999995
0.999993
0.999993
0.999992
0.999992
0.999992
0.999991
0.999991
0.99999
0.99999
0.99999
0.99999
0.99999
0.99999
0.99999
0.99999
0.99999
0.99999
0.99999
0.99999
0.99999
0.99999
0.99999
0.99999
0.99999
0.99999
0.99999
0.99999
0.99999
0.99999
0.99999
0.99999
0.99999
0.99999
0.99999
0.99999
0.99999
0.99999
0.99999
0.99999
0.99999
0.99999
0.99999
0.99999
0.99999
0.99999
0.99999
0.99999
0.999989
0.999987
0.999974
0.999962
0.999946
0.99992
0.999906
0.999874
0.999555
0.999112
0.951802
0.0321335
7.02976e-07
9.6159e-07
7.11553e-07
6.75881e-07
6.78775e-07
6.81316e-07
6.8284e-07
6.85651e-07
6.89489e-07
6.91666e-07
6.925e-07
6.91082e-07
6.89589e-07
6.89919e-07
6.91673e-07
6.95308e-07
7.00906e-07
7.05613e-07
7.05578e-07
7.03841e-07
6.99763e-07
6.93259e-07
6.85014e-07
6.78597e-07
6.77069e-07
6.76345e-07
6.74921e-07
6.73284e-07
6.73753e-07
6.77053e-07
6.85763e-07
6.86961e-07
6.85158e-07
6.45051e-07
4.96429e-07
0.999997
0.999996
0.999994
0.999993
0.999993
0.999992
0.999992
0.999992
0.999991
0.999991
0.99999
0.99999
0.99999
0.99999
0.99999
0.99999
0.99999
0.99999
0.99999
0.99999
0.99999
0.99999
0.99999
0.99999
0.99999
0.99999
0.99999
0.99999
0.99999
0.99999
0.99999
0.99999
0.99999
0.99999
0.99999
0.99999
0.99999
0.99999
0.99999
0.99999
0.99999
0.99999
0.99999
0.99999
0.99999
0.99999
0.99999
0.99999
0.99999
0.999989
0.999988
0.999979
0.999949
0.999898
0.999874
0.999881
0.999907
0.999661
0.999636
0.946116
0.0322149
7.03287e-07
8.43254e-06
9.04172e-07
1.03233e-06
6.69717e-07
7.07697e-07
7.40934e-07
8.09631e-07
1.0342e-06
1.34233e-06
9.84294e-07
7.49981e-07
8.88902e-07
9.375e-07
8.51987e-07
7.69817e-07
7.3077e-07
7.17238e-07
7.12841e-07
7.01046e-07
6.94897e-07
6.87829e-07
6.81628e-07
6.75364e-07
6.70403e-07
6.68224e-07
6.67494e-07
6.68356e-07
6.71123e-07
6.74729e-07
6.80673e-07
6.85835e-07
6.8323e-07
6.49245e-07
5.03531e-07
0.999997
0.999996
0.999995
0.999993
0.999993
0.999993
0.999992
0.999992
0.999991
0.999991
0.99999
0.99999
0.99999
0.99999
0.99999
0.99999
0.99999
0.99999
0.99999
0.99999
0.99999
0.99999
0.99999
0.99999
0.99999
0.99999
0.99999
0.99999
0.99999
0.99999
0.99999
0.99999
0.99999
0.99999
0.99999
0.99999
0.99999
0.99999
0.99999
0.99999
0.99999
0.99999
0.99999
0.99999
0.99999
0.99999
0.99999
0.99999
0.99999
0.999989
0.999988
0.99998
0.999887
0.999837
0.99983
0.999825
0.999821
0.999832
0.999897
0.882536
0.0229954
0.000437198
0.000371583
0.000168922
0.000136921
0.000127722
0.000135261
0.000137178
0.000139903
0.00014499
0.000151687
0.000137933
0.000102681
7.5401e-05
5.07855e-05
2.9104e-05
1.38204e-05
5.5541e-06
2.25234e-06
1.13452e-06
9.87476e-07
1.03832e-06
7.38382e-07
7.29599e-07
7.18397e-07
7.16591e-07
7.03126e-07
6.94228e-07
6.87432e-07
6.82022e-07
6.78786e-07
6.81302e-07
6.85459e-07
6.84784e-07
6.532e-07
5.09459e-07
0.999997
0.999997
0.999996
0.999994
0.999993
0.999993
0.999993
0.999992
0.999991
0.999991
0.99999
0.99999
0.99999
0.99999
0.99999
0.99999
0.99999
0.99999
0.99999
0.99999
0.99999
0.99999
0.99999
0.99999
0.99999
0.99999
0.99999
0.99999
0.99999
0.99999
0.99999
0.99999
0.99999
0.99999
0.99999
0.99999
0.99999
0.99999
0.99999
0.99999
0.99999
0.99999
0.99999
0.99999
0.99999
0.99999
0.99999
0.99999
0.99999
0.999989
0.999988
0.99996
0.999845
0.999834
0.999832
0.999857
0.999897
0.999951
0.99999
0.753736
0.0176238
0.00856061
0.00831173
0.00759877
0.00841829
0.00876465
0.00876793
0.00814506
0.00804915
0.00843416
0.00851528
0.00774583
0.00670181
0.00584868
0.00483518
0.00363607
0.00263689
0.00169685
0.0010232
0.000591711
0.000318915
0.000180585
0.00010029
4.47866e-05
1.35791e-05
2.64126e-06
5.93845e-07
5.97085e-07
6.2321e-07
6.50802e-07
6.98559e-07
6.73349e-07
6.91291e-07
6.30272e-07
6.30001e-07
4.42578e-07
0.999997
0.999997
0.999996
0.999995
0.999994
0.999994
0.999993
0.999992
0.999991
0.999991
0.99999
0.99999
0.99999
0.99999
0.99999
0.99999
0.99999
0.99999
0.99999
0.99999
0.99999
0.99999
0.99999
0.99999
0.99999
0.99999
0.99999
0.99999
0.99999
0.99999
0.99999
0.99999
0.99999
0.99999
0.99999
0.99999
0.99999
0.99999
0.99999
0.99999
0.99999
0.99999
0.99999
0.99999
0.99999
0.99999
0.99999
0.99999
0.99999
0.999989
0.999988
0.999986
0.999874
0.999889
0.999904
0.999903
0.999893
0.999866
0.99999
0.562681
0.0401232
0.0347238
0.0366784
0.0369045
0.0369817
0.0377769
0.0384433
0.0388279
0.0390408
0.0391637
0.0394873
0.039609
0.0385392
0.0378765
0.0365974
0.0342449
0.0312935
0.0280866
0.0244003
0.0206062
0.0174427
0.0150814
0.0127885
0.010146
0.00735776
0.0046038
0.00269288
0.00144173
0.000885852
0.00109202
0.00125345
0.00146657
0.00169626
0.0020055
0.00253401
0.00304601
0.999997
0.999997
0.999997
0.999997
0.999995
0.999994
0.999993
0.999992
0.999991
0.999991
0.99999
0.99999
0.99999
0.99999
0.99999
0.99999
0.99999
0.99999
0.99999
0.99999
0.99999
0.99999
0.99999
0.99999
0.99999
0.99999
0.99999
0.99999
0.99999
0.99999
0.99999
0.99999
0.99999
0.99999
0.99999
0.99999
0.99999
0.99999
0.99999
0.99999
0.99999
0.99999
0.99999
0.99999
0.99999
0.99999
0.99999
0.99999
0.99999
0.999989
0.999987
0.999984
0.999943
0.99989
0.999869
0.999844
0.999837
0.999738
0.999957
0.538965
0.0450172
0.0391446
0.0404262
0.0413476
0.0421481
0.0429366
0.0434284
0.0440016
0.0447504
0.046207
0.0479652
0.0499505
0.0523375
0.0551918
0.0579495
0.0605769
0.0636656
0.0677209
0.0713247
0.0729445
0.0741837
0.0760857
0.0775251
0.078183
0.0787348
0.0802494
0.082667
0.0852602
0.0881288
0.0911487
0.0954073
0.102008
0.112278
0.131473
0.179517
0.376837
0.999997
0.999997
0.999997
0.999997
0.999996
0.999995
0.999993
0.999992
0.999991
0.99999
0.99999
0.99999
0.99999
0.99999
0.99999
0.99999
0.99999
0.99999
0.99999
0.99999
0.99999
0.99999
0.99999
0.99999
0.99999
0.99999
0.99999
0.99999
0.99999
0.99999
0.99999
0.99999
0.99999
0.99999
0.99999
0.99999
0.99999
0.99999
0.99999
0.99999
0.99999
0.99999
0.99999
0.99999
0.99999
0.99999
0.99999
0.99999
0.99999
0.999989
0.999987
0.999981
0.999976
0.999922
0.999888
0.999845
0.999836
0.99963
0.99999
0.689515
0.0242483
0.0118815
0.00955205
0.00628482
0.00432361
0.00313469
0.00259147
0.0024812
0.00281243
0.00306086
0.00351849
0.00423712
0.00514474
0.00619945
0.00736285
0.00861122
0.00990334
0.0125325
0.0192915
0.0240965
0.0266195
0.0334517
0.0396722
0.0440178
0.0477982
0.0525525
0.0567091
0.0602304
0.0629535
0.0647131
0.0656571
0.0657718
0.0626792
0.0586348
0.0527433
0.0449389
0.999997
0.999997
0.999997
0.999996
0.999997
0.999995
0.999993
0.999992
0.999991
0.99999
0.99999
0.99999
0.99999
0.99999
0.99999
0.99999
0.99999
0.99999
0.99999
0.99999
0.99999
0.99999
0.99999
0.99999
0.99999
0.99999
0.99999
0.99999
0.99999
0.99999
0.99999
0.99999
0.99999
0.99999
0.99999
0.99999
0.99999
0.99999
0.99999
0.99999
0.99999
0.99999
0.99999
0.99999
0.99999
0.99999
0.99999
0.99999
0.99999
0.999989
0.999987
0.99998
0.99997
0.999956
0.99992
0.999901
0.999916
0.999577
0.999947
0.839439
0.0101864
0.000789155
0.000473144
0.000155479
9.23284e-05
7.75659e-05
8.04166e-05
9.30907e-05
0.000101678
0.000116335
0.000137897
0.000166812
0.000204201
0.000258428
0.00031589
0.000364522
0.000567079
0.000790673
0.000912744
0.0012051
0.0014713
0.00168999
0.00179727
0.00188787
0.00213465
0.00235926
0.00245573
0.00257549
0.00295301
0.00308639
0.00310605
0.00304757
0.00263785
0.00178268
0.00102349
0.000471693
0.999997
0.999997
0.999996
0.999996
0.999996
0.999995
0.999993
0.999992
0.999991
0.99999
0.99999
0.99999
0.99999
0.99999
0.99999
0.99999
0.99999
0.99999
0.99999
0.99999
0.99999
0.99999
0.99999
0.99999
0.99999
0.99999
0.99999
0.99999
0.99999
0.99999
0.99999
0.99999
0.99999
0.99999
0.99999
0.99999
0.99999
0.99999
0.99999
0.99999
0.99999
0.99999
0.99999
0.99999
0.99999
0.99999
0.99999
0.99999
0.99999
0.999989
0.999987
0.999979
0.999966
0.999955
0.999926
0.999913
0.999905
0.999498
0.999865
0.936427
0.0602793
3.19464e-07
1.74948e-05
1.15281e-06
8.19785e-07
6.67041e-07
7.39709e-07
6.45368e-07
6.77867e-07
2.15786e-06
3.17618e-06
2.00175e-06
1.62793e-06
1.68552e-06
2.64199e-06
3.82955e-06
4.91311e-06
6.22533e-06
7.71665e-06
9.44112e-06
1.06738e-05
1.07474e-05
9.5783e-06
7.95558e-06
6.73067e-06
5.60807e-06
4.10449e-06
2.35538e-06
1.02891e-06
3.53461e-07
3.91527e-07
4.88178e-07
6.63322e-07
1.0725e-06
9.34195e-07
8.81615e-07
0.999998
0.999997
0.999997
0.999996
0.999995
0.999994
0.999993
0.999992
0.999991
0.99999
0.99999
0.99999
0.99999
0.99999
0.99999
0.99999
0.99999
0.99999
0.99999
0.99999
0.99999
0.99999
0.99999
0.99999
0.99999
0.99999
0.99999
0.99999
0.99999
0.99999
0.99999
0.99999
0.99999
0.99999
0.99999
0.99999
0.99999
0.99999
0.99999
0.99999
0.99999
0.99999
0.99999
0.99999
0.99999
0.99999
0.99999
0.99999
0.99999
0.999989
0.999986
0.999977
0.999964
0.999951
0.999933
0.999909
0.999875
0.999411
0.999614
0.964405
0.0573764
3.19462e-07
9.92019e-07
5.22464e-07
8.31121e-07
7.7702e-07
7.17364e-07
6.62506e-07
6.27113e-07
5.98995e-07
5.53055e-07
5.08082e-07
4.59629e-07
4.1413e-07
3.77257e-07
3.64872e-07
3.70342e-07
3.87498e-07
4.07715e-07
4.35834e-07
4.41724e-07
4.54779e-07
4.56654e-07
4.5353e-07
4.42973e-07
4.13502e-07
3.77344e-07
3.47618e-07
3.46078e-07
2.55893e-07
2.24702e-07
2.30688e-07
2.30905e-07
2.24157e-07
2.02264e-07
1.938e-07
0.999998
0.999998
0.999997
0.999997
0.999996
0.999994
0.999992
0.999991
0.999991
0.99999
0.99999
0.99999
0.99999
0.99999
0.99999
0.99999
0.99999
0.99999
0.99999
0.99999
0.99999
0.99999
0.99999
0.99999
0.99999
0.99999
0.99999
0.99999
0.99999
0.99999
0.99999
0.99999
0.99999
0.99999
0.99999
0.99999
0.99999
0.99999
0.99999
0.99999
0.99999
0.99999
0.99999
0.99999
0.99999
0.99999
0.99999
0.99999
0.99999
0.999989
0.999986
0.999976
0.999962
0.999951
0.999941
0.999914
0.999836
0.999311
0.999103
0.966348
0.0562055
3.19462e-07
8.641e-07
7.07283e-07
7.24922e-07
7.43875e-07
7.40289e-07
7.17045e-07
6.64698e-07
5.94671e-07
5.2102e-07
4.59478e-07
4.13449e-07
3.8069e-07
3.53315e-07
3.32175e-07
3.28662e-07
3.39431e-07
3.60418e-07
3.87667e-07
3.78585e-07
3.8352e-07
3.90524e-07
3.89129e-07
3.73346e-07
3.48813e-07
3.37756e-07
3.3982e-07
3.37947e-07
3.09896e-07
2.4708e-07
2.14267e-07
2.25625e-07
2.50676e-07
2.39281e-07
1.98359e-07
0.999998
0.999998
0.999998
0.999998
0.999998
0.999996
0.999992
0.999991
0.99999
0.99999
0.99999
0.99999
0.99999
0.99999
0.99999
0.99999
0.99999
0.99999
0.99999
0.99999
0.99999
0.99999
0.99999
0.99999
0.99999
0.99999
0.99999
0.99999
0.99999
0.99999
0.99999
0.99999
0.99999
0.99999
0.99999
0.99999
0.99999
0.99999
0.99999
0.99999
0.99999
0.99999
0.99999
0.99999
0.99999
0.99999
0.99999
0.99999
0.99999
0.999989
0.999985
0.999975
0.99996
0.99995
0.999944
0.999925
0.999769
0.999194
0.998779
0.959737
0.0597502
3.19463e-07
6.34389e-07
6.23992e-07
5.83899e-07
5.51038e-07
5.32377e-07
5.12906e-07
4.84496e-07
4.47849e-07
4.10324e-07
3.79118e-07
3.56383e-07
3.41644e-07
3.32087e-07
3.21561e-07
3.15519e-07
3.19901e-07
3.43278e-07
3.72743e-07
3.63954e-07
3.66402e-07
3.75668e-07
3.75527e-07
3.4513e-07
3.18408e-07
3.15065e-07
3.17249e-07
3.24355e-07
3.28141e-07
3.14067e-07
2.77245e-07
2.45338e-07
2.40944e-07
2.62184e-07
2.16803e-07
0.999998
0.999998
0.999998
0.999998
0.999998
0.999998
0.999994
0.999991
0.99999
0.99999
0.99999
0.99999
0.99999
0.99999
0.99999
0.99999
0.99999
0.99999
0.99999
0.99999
0.99999
0.99999
0.99999
0.99999
0.99999
0.99999
0.99999
0.99999
0.99999
0.99999
0.99999
0.99999
0.99999
0.99999
0.99999
0.99999
0.99999
0.99999
0.99999
0.99999
0.99999
0.99999
0.99999
0.99999
0.99999
0.99999
0.99999
0.99999
0.99999
0.999989
0.999985
0.999974
0.999959
0.999949
0.999942
0.999921
0.999691
0.999052
0.997537
0.943432
0.0595953
0.000187658
4.98989e-07
4.12668e-07
3.89101e-07
3.73998e-07
3.63885e-07
3.5652e-07
3.4813e-07
3.398e-07
3.32367e-07
3.2625e-07
3.21144e-07
3.1708e-07
3.13954e-07
3.11707e-07
3.1066e-07
3.13944e-07
3.37278e-07
3.63294e-07
3.55642e-07
3.55515e-07
3.63785e-07
3.59674e-07
3.14251e-07
3.06231e-07
3.09904e-07
3.11168e-07
3.14806e-07
3.21771e-07
3.25462e-07
3.22337e-07
3.10506e-07
3.02973e-07
2.88321e-07
2.22206e-07
0.999999
0.999999
0.999999
0.999999
0.999998
0.999998
0.999997
0.999991
0.99999
0.99999
0.99999
0.99999
0.99999
0.99999
0.99999
0.99999
0.99999
0.99999
0.99999
0.99999
0.99999
0.99999
0.99999
0.99999
0.99999
0.99999
0.99999
0.99999
0.99999
0.99999
0.99999
0.99999
0.99999
0.99999
0.99999
0.99999
0.99999
0.99999
0.99999
0.99999
0.99999
0.99999
0.99999
0.99999
0.99999
0.99999
0.99999
0.99999
0.99999
0.999989
0.999986
0.999976
0.999963
0.999947
0.999931
0.999879
0.999775
0.998981
0.995915
0.931364
0.0669999
0.000710873
2.04808e-06
3.06137e-07
3.07207e-07
3.07209e-07
3.07211e-07
3.07213e-07
3.07311e-07
3.07585e-07
3.0797e-07
3.08459e-07
3.08585e-07
3.08527e-07
3.0803e-07
3.07858e-07
3.07858e-07
3.11038e-07
3.35036e-07
3.57346e-07
3.50197e-07
3.48515e-07
3.54912e-07
3.42061e-07
3.07736e-07
3.06263e-07
3.10171e-07
3.11744e-07