/*--------------------------------*- C++ -*----------------------------------*\
| =========                 |                                                 |
| \\      /  F ield         | OpenFOAM: The Open Source CFD Toolbox           |
|  \\    /   O peration     | Version:  2.3.0                                 |
|   \\  /    A nd           | Web:      www.OpenFOAM.org                      |
|    \\/     M anipulation  |                                                 |
\*---------------------------------------------------------------------------*/
FoamFile
{
    version     2.0;
    format      ascii;
    class       volScalarField;
    location    "25";
    object      alpha.airMean;
}
// * * * * * * * * * * * * * * * * * * * * * * * * * * * * * * * * * * * * * //

dimensions      [0 0 0 0 0 0 0];

internalField   nonuniform List<scalar> 
6144
(
0.999991
0.999991
0.999991
0.999991
0.999991
0.99999
0.99999
0.99999
0.99999
0.99999
0.99999
0.99999
0.99999
0.99999
0.99999
0.99999
0.99999
0.99999
0.99999
0.99999
0.99999
0.99999
0.99999
0.99999
0.99999
0.99999
0.99999
0.99999
0.99999
0.99999
0.99999
0.99999
0.99999
0.99999
0.99999
0.99999
0.99999
0.99999
0.99999
0.99999
0.99999
0.99999
0.99999
0.99999
0.99999
0.99999
0.99999
0.99999
0.99999
0.99999
0.999989
0.999985
0.999977
0.999959
0.999944
0.999893
0.999806
0.999376
0.998519
0.938416
0.040193
0.000247983
1.22483e-06
1.03156e-06
1.03041e-06
1.01315e-06
1.01274e-06
9.98743e-07
9.96128e-07
9.85699e-07
9.80214e-07
9.71327e-07
9.64955e-07
9.56614e-07
9.49953e-07
9.42102e-07
9.3541e-07
9.28817e-07
9.21755e-07
9.15135e-07
9.08535e-07
9.0162e-07
8.95546e-07
8.90313e-07
8.85352e-07
8.80627e-07
8.75414e-07
8.65873e-07
8.33637e-07
7.49437e-07
6.61875e-07
6.04884e-07
5.3772e-07
4.74858e-07
4.37124e-07
4.19454e-07
0.999992
0.999992
0.999991
0.999991
0.999991
0.99999
0.99999
0.99999
0.99999
0.99999
0.99999
0.99999
0.99999
0.99999
0.99999
0.99999
0.99999
0.99999
0.99999
0.99999
0.99999
0.99999
0.99999
0.99999
0.99999
0.99999
0.99999
0.99999
0.99999
0.99999
0.99999
0.99999
0.99999
0.99999
0.99999
0.99999
0.99999
0.99999
0.99999
0.99999
0.99999
0.99999
0.99999
0.99999
0.99999
0.99999
0.99999
0.99999
0.99999
0.99999
0.999988
0.999985
0.999978
0.99996
0.999947
0.999906
0.999791
0.999256
0.998376
0.949126
0.0422274
9.12755e-05
1.04584e-06
1.04685e-06
1.0351e-06
1.01622e-06
1.0147e-06
1.00063e-06
9.96003e-07
9.84051e-07
9.78758e-07
9.70106e-07
9.64118e-07
9.56834e-07
9.50023e-07
9.42333e-07
9.3461e-07
9.27439e-07
9.2075e-07
9.15007e-07
9.098e-07
9.05918e-07
9.02562e-07
8.97061e-07
8.90558e-07
8.83407e-07
8.74801e-07
8.5993e-07
8.24093e-07
7.47675e-07
6.68906e-07
6.13495e-07
5.45344e-07
4.82711e-07
4.49502e-07
4.29714e-07
0.999992
0.999992
0.999991
0.999991
0.999991
0.999991
0.99999
0.99999
0.99999
0.99999
0.99999
0.99999
0.99999
0.99999
0.99999
0.99999
0.99999
0.99999
0.99999
0.99999
0.99999
0.99999
0.99999
0.99999
0.99999
0.99999
0.99999
0.99999
0.99999
0.99999
0.99999
0.99999
0.99999
0.99999
0.99999
0.99999
0.99999
0.99999
0.99999
0.99999
0.99999
0.99999
0.99999
0.99999
0.99999
0.99999
0.99999
0.99999
0.99999
0.99999
0.999988
0.999985
0.999979
0.999965
0.999944
0.999887
0.999846
0.999422
0.999056
0.95355
0.0480374
4.26435e-05
1.06563e-06
1.06675e-06
1.04946e-06
1.03598e-06
1.03625e-06
1.02331e-06
1.01935e-06
1.00738e-06
9.99898e-07
9.87803e-07
9.79014e-07
9.68323e-07
9.59642e-07
9.50383e-07
9.447e-07
9.38679e-07
9.30901e-07
9.24323e-07
9.17843e-07
9.10584e-07
9.0199e-07
8.92673e-07
8.83184e-07
8.75301e-07
8.65277e-07
8.46211e-07
8.06906e-07
7.39902e-07
6.76554e-07
6.26594e-07
5.57796e-07
4.8909e-07
4.57222e-07
4.35242e-07
0.999992
0.999992
0.999992
0.999992
0.999991
0.999991
0.99999
0.99999
0.99999
0.99999
0.99999
0.99999
0.99999
0.99999
0.99999
0.99999
0.99999
0.99999
0.99999
0.99999
0.99999
0.99999
0.99999
0.99999
0.99999
0.99999
0.99999
0.99999
0.99999
0.99999
0.99999
0.99999
0.99999
0.99999
0.99999
0.99999
0.99999
0.99999
0.99999
0.99999
0.99999
0.99999
0.99999
0.99999
0.99999
0.99999
0.99999
0.99999
0.99999
0.99999
0.999988
0.999986
0.99998
0.999964
0.999928
0.99987
0.999873
0.999546
0.999558
0.94436
0.0506197
3.02677e-05
1.13431e-06
1.11892e-06
1.10581e-06
1.05829e-06
1.04803e-06
1.02762e-06
1.02153e-06
1.00532e-06
1.00105e-06
1.00129e-06
1.00447e-06
9.9806e-07
9.86357e-07
9.76172e-07
9.61276e-07
9.4602e-07
9.33444e-07
9.23521e-07
9.14741e-07
9.0598e-07
8.95771e-07
8.84383e-07
8.72727e-07
8.61204e-07
8.44722e-07
8.18786e-07
7.78089e-07
7.27684e-07
6.8642e-07
6.38502e-07
5.67266e-07
4.93655e-07
4.62647e-07
4.3738e-07
0.999993
0.999992
0.999992
0.999992
0.999992
0.999991
0.999991
0.99999
0.99999
0.99999
0.99999
0.99999
0.99999
0.99999
0.99999
0.99999
0.99999
0.99999
0.99999
0.99999
0.99999
0.99999
0.99999
0.99999
0.99999
0.99999
0.99999
0.99999
0.99999
0.99999
0.99999
0.99999
0.99999
0.99999
0.99999
0.99999
0.99999
0.99999
0.99999
0.99999
0.99999
0.99999
0.99999
0.99999
0.99999
0.99999
0.99999
0.99999
0.99999
0.99999
0.999988
0.999985
0.999978
0.999962
0.999925
0.999856
0.999844
0.999654
0.999801
0.880336
0.0194593
5.93416e-05
2.02061e-05
8.23158e-06
5.72932e-06
4.34037e-06
4.40008e-06
4.12207e-06
4.13517e-06
4.08414e-06
4.14631e-06
4.14691e-06
4.08546e-06
3.9085e-06
3.69068e-06
3.43552e-06
3.11482e-06
2.68511e-06
2.16827e-06
1.67913e-06
1.31001e-06
1.07697e-06
9.49992e-07
8.86567e-07
8.46835e-07
8.07602e-07
7.8557e-07
7.66403e-07
7.46759e-07
7.19716e-07
6.86765e-07
6.4026e-07
5.71462e-07
4.99331e-07
4.65688e-07
4.36482e-07
0.999993
0.999993
0.999992
0.999992
0.999992
0.999992
0.999991
0.99999
0.99999
0.99999
0.99999
0.99999
0.99999
0.99999
0.99999
0.99999
0.99999
0.99999
0.99999
0.99999
0.99999
0.99999
0.99999
0.99999
0.99999
0.99999
0.99999
0.99999
0.99999
0.99999
0.99999
0.99999
0.99999
0.99999
0.99999
0.99999
0.99999
0.99999
0.99999
0.99999
0.99999
0.99999
0.99999
0.99999
0.99999
0.99999
0.99999
0.99999
0.99999
0.99999
0.999988
0.999985
0.999976
0.999958
0.999917
0.99985
0.999849
0.99976
0.999937
0.75875
0.0108875
0.00131181
0.00105727
0.000746794
0.000643525
0.000596232
0.000586566
0.000588739
0.000596922
0.00059705
0.000593952
0.000591565
0.000580595
0.000544793
0.000507675
0.000470662
0.000421086
0.000365883
0.000303277
0.000236983
0.000177796
0.000124126
8.10866e-05
4.96815e-05
2.73953e-05
1.27662e-05
4.87456e-06
1.83777e-06
9.25976e-07
6.37445e-07
5.45295e-07
4.87495e-07
4.59737e-07
4.45118e-07
4.27231e-07
4.10283e-07
0.999993
0.999993
0.999993
0.999992
0.999992
0.999992
0.999992
0.999991
0.99999
0.99999
0.99999
0.99999
0.99999
0.99999
0.99999
0.99999
0.99999
0.99999
0.99999
0.99999
0.99999
0.99999
0.99999
0.99999
0.99999
0.99999
0.99999
0.99999
0.99999
0.99999
0.99999
0.99999
0.99999
0.99999
0.99999
0.99999
0.99999
0.99999
0.99999
0.99999
0.99999
0.99999
0.99999
0.99999
0.99999
0.99999
0.99999
0.99999
0.99999
0.99999
0.999988
0.999985
0.999976
0.99996
0.999928
0.999858
0.999825
0.999793
0.99999
0.591844
0.0128373
0.00873317
0.00885601
0.00821033
0.00778663
0.00770008
0.00753969
0.00760675
0.00756968
0.00756223
0.00752294
0.00731589
0.00721835
0.00717784
0.00712109
0.0067472
0.00626897
0.00595136
0.00544477
0.00487466
0.00445773
0.00386198
0.00326699
0.00274298
0.00222869
0.00176003
0.0012695
0.000813894
0.000493133
0.000261016
0.000111448
3.83998e-05
8.94453e-06
7.19813e-06
9.96881e-06
1.14129e-05
0.999993
0.999993
0.999993
0.999993
0.999992
0.999992
0.999992
0.999991
0.999991
0.99999
0.99999
0.99999
0.99999
0.99999
0.99999
0.99999
0.99999
0.99999
0.99999
0.99999
0.99999
0.99999
0.99999
0.99999
0.99999
0.99999
0.99999
0.99999
0.99999
0.99999
0.99999
0.99999
0.99999
0.99999
0.99999
0.99999
0.99999
0.99999
0.99999
0.99999
0.99999
0.99999
0.99999
0.99999
0.99999
0.99999
0.99999
0.99999
0.99999
0.99999
0.999988
0.999985
0.999976
0.999959
0.999936
0.999874
0.999832
0.999796
0.999979
0.516982
0.0238365
0.0203733
0.0209117
0.0210366
0.0209913
0.0210565
0.0209733
0.0207971
0.0208825
0.0209183
0.020813
0.0207264
0.0205903
0.0204873
0.0203679
0.0202168
0.0200416
0.0197641
0.0194824
0.0192709
0.0190947
0.0189493
0.0188348
0.0187346
0.0186368
0.0185596
0.0183479
0.0179685
0.0175275
0.0168286
0.0161542
0.0153768
0.0142649
0.0130261
0.010904
0.00846034
0.999993
0.999993
0.999993
0.999993
0.999993
0.999992
0.999992
0.999991
0.999991
0.99999
0.99999
0.99999
0.99999
0.99999
0.99999
0.99999
0.99999
0.99999
0.99999
0.99999
0.99999
0.99999
0.99999
0.99999
0.99999
0.99999
0.99999
0.99999
0.99999
0.99999
0.99999
0.99999
0.99999
0.99999
0.99999
0.99999
0.99999
0.99999
0.99999
0.99999
0.99999
0.99999
0.99999
0.99999
0.99999
0.99999
0.99999
0.99999
0.99999
0.99999
0.999988
0.999986
0.999977
0.999956
0.999937
0.99989
0.99986
0.999788
0.999962
0.637676
0.0167626
0.00949898
0.00909283
0.0083901
0.00785889
0.00763932
0.00727766
0.00685718
0.00656417
0.00622391
0.00594053
0.00547785
0.0050597
0.00470433
0.00440191
0.00417408
0.0039728
0.00388064
0.00391788
0.0039802
0.00392131
0.00387943
0.00386834
0.00382843
0.00378894
0.00372161
0.00363927
0.00351818
0.00332913
0.00309929
0.00278059
0.00241288
0.00194882
0.00140821
0.000824923
0.000370218
0.999994
0.999993
0.999993
0.999993
0.999993
0.999992
0.999992
0.999991
0.999991
0.99999
0.99999
0.99999
0.99999
0.99999
0.99999
0.99999
0.99999
0.99999
0.99999
0.99999
0.99999
0.99999
0.99999
0.99999
0.99999
0.99999
0.99999
0.99999
0.99999
0.99999
0.99999
0.99999
0.99999
0.99999
0.99999
0.99999
0.99999
0.99999
0.99999
0.99999
0.99999
0.99999
0.99999
0.99999
0.99999
0.99999
0.99999
0.99999
0.99999
0.99999
0.999988
0.999986
0.999978
0.999957
0.999937
0.999895
0.999878
0.999738
0.999895
0.776929
0.0118521
0.00156881
0.00125185
0.00088594
0.000712197
0.000614627
0.000531326
0.000463273
0.000411166
0.00036151
0.000319526
0.000280577
0.000255112
0.000230844
0.000209208
0.000198486
0.000195554
0.00019737
0.000202949
0.000212634
0.000219097
0.000220338
0.000223825
0.000221666
0.000212509
0.000203944
0.0001898
0.000171475
0.000146414
0.00011796
9.02206e-05
6.27056e-05
3.67906e-05
1.77548e-05
6.76279e-06
2.53397e-06
0.999994
0.999993
0.999993
0.999993
0.999993
0.999992
0.999992
0.999991
0.999991
0.99999
0.99999
0.99999
0.99999
0.99999
0.99999
0.99999
0.99999
0.99999
0.99999
0.99999
0.99999
0.99999
0.99999
0.99999
0.99999
0.99999
0.99999
0.99999
0.99999
0.99999
0.99999
0.99999
0.99999
0.99999
0.99999
0.99999
0.99999
0.99999
0.99999
0.99999
0.99999
0.99999
0.99999
0.99999
0.99999
0.99999
0.99999
0.99999
0.99999
0.99999
0.999989
0.999986
0.999978
0.999957
0.999932
0.999898
0.999886
0.999623
0.999754
0.895856
0.0253499
7.41206e-05
2.83387e-05
1.19074e-05
7.99027e-06
5.56647e-06
4.55102e-06
3.71521e-06
3.21539e-06
2.70152e-06
2.28471e-06
1.94919e-06
1.73039e-06
1.57881e-06
1.50826e-06
1.49178e-06
1.51616e-06
1.5787e-06
1.67245e-06
1.79353e-06
1.91303e-06
1.99989e-06
2.03973e-06
2.03729e-06
1.96992e-06
1.8513e-06
1.66199e-06
1.44051e-06
1.1757e-06
9.04231e-07
6.94194e-07
5.51644e-07
4.6439e-07
4.10065e-07
3.55352e-07
3.43796e-07
0.999995
0.999994
0.999993
0.999993
0.999993
0.999992
0.999991
0.999991
0.999991
0.99999
0.99999
0.99999
0.99999
0.99999
0.99999
0.99999
0.99999
0.99999
0.99999
0.99999
0.99999
0.99999
0.99999
0.99999
0.99999
0.99999
0.99999
0.99999
0.99999
0.99999
0.99999
0.99999
0.99999
0.99999
0.99999
0.99999
0.99999
0.99999
0.99999
0.99999
0.99999
0.99999
0.99999
0.99999
0.99999
0.99999
0.99999
0.99999
0.99999
0.99999
0.999989
0.999986
0.99998
0.999962
0.999923
0.999888
0.999882
0.999512
0.999638
0.952472
0.0501703
2.61935e-05
1.08975e-06
9.467e-07
1.00027e-06
9.84395e-07
9.85216e-07
9.69788e-07
9.63586e-07
9.55592e-07
9.50184e-07
9.3714e-07
9.11077e-07
8.79476e-07
8.48865e-07
8.22218e-07
8.03123e-07
7.86176e-07
7.70528e-07
7.53649e-07
7.35655e-07
7.17926e-07
6.99675e-07
6.83883e-07
6.72209e-07
6.61229e-07
6.38953e-07
6.0267e-07
5.63677e-07
5.18435e-07
4.67068e-07
4.11743e-07
3.67827e-07
3.52006e-07
3.49166e-07
3.44869e-07
0.999996
0.999995
0.999994
0.999994
0.999993
0.999992
0.999992
0.999991
0.999991
0.99999
0.99999
0.99999
0.99999
0.99999
0.99999
0.99999
0.99999
0.99999
0.99999
0.99999
0.99999
0.99999
0.99999
0.99999
0.99999
0.99999
0.99999
0.99999
0.99999
0.99999
0.99999
0.99999
0.99999
0.99999
0.99999
0.99999
0.99999
0.99999
0.99999
0.99999
0.99999
0.99999
0.99999
0.99999
0.99999
0.99999
0.99999
0.99999
0.99999
0.99999
0.999989
0.999985
0.999979
0.999969
0.999939
0.999895
0.999855
0.999401
0.999466
0.968283
0.0574586
4.1244e-05
8.83187e-07
8.66516e-07
8.73008e-07
8.81159e-07
8.81553e-07
8.6281e-07
8.54943e-07
8.37014e-07
8.26313e-07
8.11414e-07
8.02999e-07
7.92303e-07
7.81962e-07
7.69761e-07
7.55942e-07
7.40764e-07
7.234e-07
7.05995e-07
6.90157e-07
6.7445e-07
6.59741e-07
6.48977e-07
6.40691e-07
6.33009e-07
6.20613e-07
5.99082e-07
5.6856e-07
5.27476e-07
4.81931e-07
4.33849e-07
3.89486e-07
3.65311e-07
3.5977e-07
3.50375e-07
0.999997
0.999995
0.999995
0.999995
0.999994
0.999994
0.999992
0.999991
0.999991
0.999991
0.99999
0.99999
0.99999
0.99999
0.99999
0.99999
0.99999
0.99999
0.99999
0.99999
0.99999
0.99999
0.99999
0.99999
0.99999
0.99999
0.99999
0.99999
0.99999
0.99999
0.99999
0.99999
0.99999
0.99999
0.99999
0.99999
0.99999
0.99999
0.99999
0.99999
0.99999
0.99999
0.99999
0.99999
0.99999
0.99999
0.99999
0.99999
0.99999
0.99999
0.999989
0.999985
0.999979
0.999967
0.999954
0.99992
0.999797
0.99929
0.999317
0.959669
0.0511699
3.24452e-05
7.99731e-07
8.12731e-07
8.16013e-07
8.08117e-07
8.08868e-07
7.95239e-07
7.8771e-07
7.73918e-07
7.6332e-07
7.5066e-07
7.39496e-07
7.2845e-07
7.18e-07
7.07071e-07
6.96192e-07
6.84864e-07
6.72931e-07
6.62535e-07
6.52275e-07
6.41755e-07
6.33365e-07
6.26848e-07
6.22244e-07
6.18933e-07
6.12079e-07
5.93376e-07
5.61806e-07
5.26588e-07
4.85273e-07
4.41079e-07
4.02536e-07
3.86077e-07
3.76873e-07
3.58599e-07
0.999997
0.999996
0.999996
0.999995
0.999995
0.999994
0.999994
0.999991
0.999991
0.999991
0.99999
0.99999
0.99999
0.99999
0.99999
0.99999
0.99999
0.99999
0.99999
0.99999
0.99999
0.99999
0.99999
0.99999
0.99999
0.99999
0.99999
0.99999
0.99999
0.99999
0.99999
0.99999
0.99999
0.99999
0.99999
0.99999
0.99999
0.99999
0.99999
0.99999
0.99999
0.99999
0.99999
0.99999
0.99999
0.99999
0.99999
0.99999
0.99999
0.99999
0.999989
0.999985
0.999977
0.999963
0.999955
0.999926
0.999696
0.999167
0.998788
0.958062
0.048501
0.000123262
8.34294e-07
7.90595e-07
7.78076e-07
7.52033e-07
7.4568e-07
7.3174e-07
7.23419e-07
7.13503e-07
7.05044e-07
6.95935e-07
6.89318e-07
6.80192e-07
6.7373e-07
6.66186e-07
6.58568e-07
6.5209e-07
6.45543e-07
6.38463e-07
6.32281e-07
6.26585e-07
6.21347e-07
6.17744e-07
6.15861e-07
6.15523e-07
6.09988e-07
5.92609e-07
5.60885e-07
5.24937e-07
4.86332e-07
4.44494e-07
4.06612e-07
3.89925e-07
3.84385e-07
3.65144e-07
0.999998
0.999996
0.999996
0.999996
0.999995
0.999995
0.999994
0.999993
0.999991
0.999991
0.99999
0.99999
0.99999
0.99999
0.99999
0.99999
0.99999
0.99999
0.99999
0.99999
0.99999
0.99999
0.99999
0.99999
0.99999
0.99999
0.99999
0.99999
0.99999
0.99999
0.99999
0.99999
0.99999
0.99999
0.99999
0.99999
0.99999
0.99999
0.99999
0.99999
0.99999
0.99999
0.99999
0.99999
0.99999
0.99999
0.99999
0.99999
0.99999
0.99999
0.999989
0.999985
0.999978
0.999965
0.999953
0.99987
0.999788
0.999266
0.999023
0.952732
0.0546664
0.000404934
1.40842e-06
7.23184e-07
7.21758e-07
7.06489e-07
7.05577e-07
6.96003e-07
6.9173e-07
6.82906e-07
6.78957e-07
6.70402e-07
6.65849e-07
6.58768e-07
6.53851e-07
6.47648e-07
6.42077e-07
6.37332e-07
6.32145e-07
6.26855e-07
6.22923e-07
6.18816e-07
6.14976e-07
6.12515e-07
6.11728e-07
6.13254e-07
6.11451e-07
5.94416e-07
5.59527e-07
5.24358e-07
4.86222e-07
4.45486e-07
4.07257e-07
3.8913e-07
3.82649e-07
3.62273e-07
0.999991
0.999991
0.999991
0.999991
0.999991
0.99999
0.99999
0.99999
0.99999
0.99999
0.99999
0.99999
0.99999
0.99999
0.99999
0.99999
0.99999
0.99999
0.99999
0.99999
0.99999
0.99999
0.99999
0.99999
0.99999
0.99999
0.99999
0.99999
0.99999
0.99999
0.99999
0.99999
0.99999
0.99999
0.99999
0.99999
0.99999
0.99999
0.99999
0.99999
0.99999
0.99999
0.99999
0.99999
0.99999
0.99999
0.99999
0.99999
0.99999
0.99999
0.999989
0.999985
0.999978
0.999959
0.999945
0.9999
0.999814
0.99917
0.99687
0.936277
0.0560905
0.000451805
1.61143e-06
1.02673e-06
1.02562e-06
1.00796e-06
1.00825e-06
9.9354e-07
9.91435e-07
9.79635e-07
9.75152e-07
9.6543e-07
9.595e-07
9.5089e-07
9.43724e-07
9.36341e-07
9.29373e-07
9.22071e-07
9.15262e-07
9.08443e-07
9.01271e-07
8.94636e-07
8.88212e-07
8.8216e-07
8.76655e-07
8.71697e-07
8.6707e-07
8.61706e-07
8.50388e-07
8.17464e-07
7.3756e-07
6.29116e-07
5.55475e-07
5.25342e-07
5.15746e-07
4.64927e-07
0.999992
0.999992
0.999992
0.999991
0.999991
0.999991
0.99999
0.99999
0.99999
0.99999
0.99999
0.99999
0.99999
0.99999
0.99999
0.99999
0.99999
0.99999
0.99999
0.99999
0.99999
0.99999
0.99999
0.99999
0.99999
0.99999
0.99999
0.99999
0.99999
0.99999
0.99999
0.99999
0.99999
0.99999
0.99999
0.99999
0.99999
0.99999
0.99999
0.99999
0.99999
0.99999
0.99999
0.99999
0.99999
0.99999
0.99999
0.99999
0.99999
0.99999
0.999988
0.999985
0.999978
0.99996
0.999949
0.999908
0.999781
0.999247
0.998101
0.943268
0.0461528
0.000115539
1.05935e-06
1.04558e-06
1.03489e-06
1.01184e-06
1.01254e-06
9.98503e-07
9.96228e-07
9.8499e-07
9.79685e-07
9.70136e-07
9.63967e-07
9.5506e-07
9.47383e-07
9.39978e-07
9.32529e-07
9.24415e-07
9.17997e-07
9.11411e-07
9.04515e-07
8.99571e-07
8.94419e-07
8.88727e-07
8.83399e-07
8.77054e-07
8.70135e-07
8.63302e-07
8.51524e-07
8.24085e-07
7.61485e-07
6.62132e-07
5.72443e-07
5.28935e-07
5.32362e-07
4.81634e-07
0.999992
0.999992
0.999992
0.999992
0.999992
0.999991
0.999991
0.99999
0.99999
0.99999
0.99999
0.99999
0.99999
0.99999
0.99999
0.99999
0.99999
0.99999
0.99999
0.99999
0.99999
0.99999
0.99999
0.99999
0.99999
0.99999
0.99999
0.99999
0.99999
0.99999
0.99999
0.99999
0.99999
0.99999
0.99999
0.99999
0.99999
0.99999
0.99999
0.99999
0.99999
0.99999
0.99999
0.99999
0.99999
0.99999
0.99999
0.99999
0.99999
0.99999
0.999988
0.999985
0.999979
0.999963
0.999951
0.99989
0.999838
0.999441
0.999072
0.947366
0.0414745
6.17211e-06
1.22112e-06
1.10518e-06
1.0683e-06
1.04458e-06
1.04407e-06
1.02809e-06
1.02454e-06
1.01001e-06
1.00294e-06
9.89312e-07
9.79559e-07
9.67499e-07
9.59385e-07
9.51825e-07
9.46559e-07
9.42681e-07
9.38851e-07
9.33353e-07
9.26681e-07
9.19415e-07
9.08647e-07
8.96592e-07
8.8513e-07
8.75815e-07
8.68349e-07
8.60673e-07
8.4951e-07
8.26829e-07
7.76935e-07
6.9432e-07
6.03216e-07
5.48717e-07
5.4482e-07
4.92146e-07
0.999993
0.999992
0.999992
0.999992
0.999992
0.999992
0.999991
0.999991
0.99999
0.99999
0.99999
0.99999
0.99999
0.99999
0.99999
0.99999
0.99999
0.99999
0.99999
0.99999
0.99999
0.99999
0.99999
0.99999
0.99999
0.99999
0.99999
0.99999
0.99999
0.99999
0.99999
0.99999
0.99999
0.99999
0.99999
0.99999
0.99999
0.99999
0.99999
0.99999
0.99999
0.99999
0.99999
0.99999
0.99999
0.99999
0.99999
0.99999
0.99999
0.99999
0.999988
0.999984
0.999979
0.999963
0.999935
0.99986
0.999838
0.999518
0.999606
0.941905
0.0387478
2.13135e-06
6.41662e-06
1.78129e-06
1.79841e-06
1.50619e-06
1.46035e-06
1.3358e-06
1.27398e-06
1.21268e-06
1.19122e-06
1.16805e-06
1.16368e-06
1.14967e-06
1.13531e-06
1.11649e-06
1.09493e-06
1.06174e-06
1.02761e-06
9.98542e-07
9.73963e-07
9.5008e-07
9.30114e-07
9.09282e-07
8.90601e-07
8.76246e-07
8.66189e-07
8.55701e-07
8.42906e-07
8.18727e-07
7.7641e-07
7.10476e-07
6.30935e-07
5.75532e-07
5.57495e-07
4.9461e-07
0.999993
0.999992
0.999992
0.999992
0.999992
0.999992
0.999991
0.999991
0.999991
0.99999
0.99999
0.99999
0.99999
0.99999
0.99999
0.99999
0.99999
0.99999
0.99999
0.99999
0.99999
0.99999
0.99999
0.99999
0.99999
0.99999
0.99999
0.99999
0.99999
0.99999
0.99999
0.99999
0.99999
0.99999
0.99999
0.99999
0.99999
0.99999
0.99999
0.99999
0.99999
0.99999
0.99999
0.99999
0.99999
0.99999
0.99999
0.99999
0.99999
0.99999
0.999987
0.999982
0.999973
0.999959
0.9999
0.999821
0.999767
0.999714
0.99984
0.884419
0.0172386
0.000335213
0.000261018
0.00013373
0.000106831
9.16616e-05
8.70293e-05
8.34265e-05
7.95274e-05
7.44056e-05
7.20944e-05
6.84663e-05
6.53581e-05
6.14461e-05
5.73686e-05
5.12443e-05
4.43132e-05
3.60015e-05
2.78001e-05
1.98459e-05
1.31369e-05
8.06039e-06
4.54634e-06
2.52212e-06
1.53949e-06
1.10536e-06
9.33387e-07
8.64136e-07
8.19901e-07
7.80772e-07
7.48639e-07
7.04346e-07
6.50926e-07
6.01454e-07
5.66727e-07
4.9347e-07
0.999993
0.999993
0.999992
0.999992
0.999992
0.999992
0.999991
0.999991
0.999991
0.99999
0.99999
0.99999
0.99999
0.99999
0.99999
0.99999
0.99999
0.99999
0.99999
0.99999
0.99999
0.99999
0.99999
0.99999
0.99999
0.99999
0.99999
0.99999
0.99999
0.99999
0.99999
0.99999
0.99999
0.99999
0.99999
0.99999
0.99999
0.99999
0.99999
0.99999
0.99999
0.99999
0.99999
0.99999
0.99999
0.99999
0.99999
0.99999
0.99999
0.999989
0.999987
0.999981
0.999969
0.999948
0.999873
0.99982
0.999819
0.99986
0.99996
0.748513
0.0159825
0.00657812
0.0061712
0.00511237
0.00475348
0.00439941
0.00415082
0.00407322
0.00401752
0.00405952
0.00411747
0.00414429
0.00404446
0.00387776
0.00371856
0.00350402
0.00334103
0.00292693
0.00250229
0.00211081
0.00166838
0.00129825
0.000951567
0.000644255
0.000414979
0.000247552
0.000135513
7.05142e-05
3.42075e-05
1.5183e-05
5.53592e-06
2.09097e-06
1.03033e-06
7.44987e-07
5.87631e-07
4.66351e-07
0.999994
0.999993
0.999993
0.999993
0.999992
0.999992
0.999992
0.999991
0.999991
0.99999
0.99999
0.99999
0.99999
0.99999
0.99999
0.99999
0.99999
0.99999
0.99999
0.99999
0.99999
0.99999
0.99999
0.99999
0.99999
0.99999
0.99999
0.99999
0.99999
0.99999
0.99999
0.99999
0.99999
0.99999
0.99999
0.99999
0.99999
0.99999
0.99999
0.99999
0.99999
0.99999
0.99999
0.99999
0.99999
0.99999
0.99999
0.99999
0.99999
0.99999
0.999989
0.999984
0.999971
0.999957
0.999905
0.999816
0.99977
0.999812
0.999959
0.565069
0.0338803
0.0281473
0.0289956
0.0285693
0.0284642
0.0284622
0.0285214
0.0288657
0.0291729
0.0295432
0.0301679
0.0307738
0.0311641
0.0314987
0.031619
0.0317353
0.0316155
0.0311334
0.030422
0.0294068
0.0279635
0.026141
0.0241005
0.0216664
0.0187252
0.0159611
0.0132959
0.0106695
0.00834844
0.0062527
0.00414022
0.00253505
0.00150038
0.000943386
0.000916375
0.00106916
0.999994
0.999994
0.999993
0.999993
0.999993
0.999992
0.999992
0.999991
0.999991
0.99999
0.99999
0.99999
0.99999
0.99999
0.99999
0.99999
0.99999
0.99999
0.99999
0.99999
0.99999
0.99999
0.99999
0.99999
0.99999
0.99999
0.99999
0.99999
0.99999
0.99999
0.99999
0.99999
0.99999
0.99999
0.99999
0.99999
0.99999
0.99999
0.99999
0.99999
0.99999
0.99999
0.99999
0.99999
0.99999
0.99999
0.99999
0.99999
0.99999
0.99999
0.999989
0.999985
0.999973
0.999957
0.999924
0.999838
0.999783
0.99979
0.999828
0.526829
0.0440185
0.0387274
0.0398422
0.0403163
0.0413564
0.0424045
0.043305
0.044364
0.0454203
0.0465251
0.0477965
0.0492533
0.0508777
0.0526856
0.0547418
0.0570743
0.059675
0.0625717
0.0657174
0.069134
0.0728083
0.0767114
0.0808155
0.0852675
0.0900046
0.0949682
0.10027
0.105746
0.111556
0.117956
0.125217
0.134041
0.146164
0.166333
0.212628
0.403349
0.999994
0.999994
0.999994
0.999993
0.999993
0.999993
0.999992
0.999991
0.999991
0.99999
0.99999
0.99999
0.99999
0.99999
0.99999
0.99999
0.99999
0.99999
0.99999
0.99999
0.99999
0.99999
0.99999
0.99999
0.99999
0.99999
0.99999
0.99999
0.99999
0.99999
0.99999
0.99999
0.99999
0.99999
0.99999
0.99999
0.99999
0.99999
0.99999
0.99999
0.99999
0.99999
0.99999
0.99999
0.99999
0.99999
0.99999
0.99999
0.99999
0.99999
0.999989
0.999986
0.999979
0.999957
0.999925
0.999871
0.99981
0.999764
0.999945
0.708616
0.0198785
0.00731717
0.00618593
0.00510422
0.00472989
0.00448789
0.004331
0.00417509
0.00398508
0.00375756
0.00353841
0.00332001
0.00311438
0.00296834
0.00293458
0.00299669
0.00322618
0.00351107
0.00376402
0.00406812
0.00446729
0.00492117
0.00538413
0.0058257
0.00628546
0.00670106
0.00697097
0.00731609
0.00769895
0.00800288
0.00815294
0.00810428
0.00773225
0.00701623
0.00591859
0.00496881
0.999994
0.999994
0.999994
0.999994
0.999994
0.999993
0.999992
0.999991
0.999991
0.999991
0.99999
0.99999
0.99999
0.99999
0.99999
0.99999
0.99999
0.99999
0.99999
0.99999
0.99999
0.99999
0.99999
0.99999
0.99999
0.99999
0.99999
0.99999
0.99999
0.99999
0.99999
0.99999
0.99999
0.99999
0.99999
0.99999
0.99999
0.99999
0.99999
0.99999
0.99999
0.99999
0.99999
0.99999
0.99999
0.99999
0.99999
0.99999
0.99999
0.99999
0.999989
0.999986
0.99998
0.999964
0.999928
0.999869
0.999823
0.99974
0.999918
0.84375
0.010285
0.000408669
0.000286705
0.000183961
0.000158663
0.00013996
0.000123643
0.000109146
9.95084e-05
9.14104e-05
8.68963e-05
8.26975e-05
7.78246e-05
7.70936e-05
7.66032e-05
7.53751e-05
7.66984e-05
7.77265e-05
7.82401e-05
8.02966e-05
8.28313e-05
8.42867e-05
8.31981e-05
7.8595e-05
7.43757e-05
7.06277e-05
6.71619e-05
6.42094e-05
6.14563e-05
6.0288e-05
5.93811e-05
5.75213e-05
5.45179e-05
4.43607e-05
2.2126e-05
7.56975e-06
0.999995
0.999994
0.999994
0.999994
0.999994
0.999993
0.999992
0.999991
0.999991
0.999991
0.99999
0.99999
0.99999
0.99999
0.99999
0.99999
0.99999
0.99999
0.99999
0.99999
0.99999
0.99999
0.99999
0.99999
0.99999
0.99999
0.99999
0.99999
0.99999
0.99999
0.99999
0.99999
0.99999
0.99999
0.99999
0.99999
0.99999
0.99999
0.99999
0.99999
0.99999
0.99999
0.99999
0.99999
0.99999
0.99999
0.99999
0.99999
0.99999
0.99999
0.999989
0.999986
0.99998
0.999965
0.999939
0.999893
0.99982
0.99961
0.99979
0.929007
0.0430067
5.23207e-06
1.00813e-05
3.6561e-06
3.08861e-06
2.38686e-06
2.13707e-06
1.92348e-06
1.85834e-06
1.7663e-06
1.71002e-06
1.63176e-06
1.55131e-06
1.46847e-06
1.40305e-06
1.35569e-06
1.30923e-06
1.27225e-06
1.23766e-06
1.2118e-06
1.17989e-06
1.1248e-06
1.04323e-06
9.73914e-07
9.13309e-07
8.57844e-07
8.07142e-07
7.4629e-07
6.72129e-07
5.99577e-07
5.2951e-07
4.71199e-07
4.31578e-07
4.22017e-07
4.04395e-07
3.62871e-07
0.999996
0.999995
0.999994
0.999994
0.999994
0.999994
0.999992
0.999991
0.999991
0.999991
0.99999
0.99999
0.99999
0.99999
0.99999
0.99999
0.99999
0.99999
0.99999
0.99999
0.99999
0.99999
0.99999
0.99999
0.99999
0.99999
0.99999
0.99999
0.99999
0.99999
0.99999
0.99999
0.99999
0.99999
0.99999
0.99999
0.99999
0.99999
0.99999
0.99999
0.99999
0.99999
0.99999
0.99999
0.99999
0.99999
0.99999
0.99999
0.99999
0.99999
0.999989
0.999986
0.999979
0.999965
0.99994
0.999898
0.99986
0.999478
0.999588
0.957047
0.0468575
2.69536e-06
1.29475e-06
9.01628e-07
1.09703e-06
1.03906e-06
1.04399e-06
1.02089e-06
1.01116e-06
9.92378e-07
9.78396e-07
9.61248e-07
9.35547e-07
9.05467e-07
8.76056e-07
8.47242e-07
8.2367e-07
8.02226e-07
7.8076e-07
7.59855e-07
7.40791e-07
7.2075e-07
7.01299e-07
6.84539e-07
6.70433e-07
6.59337e-07
6.47109e-07
6.25933e-07
5.97318e-07
5.53979e-07
4.96661e-07
4.35263e-07
3.90773e-07
3.74585e-07
3.69124e-07
3.54145e-07
0.999996
0.999995
0.999995
0.999994
0.999994
0.999994
0.999992
0.999991
0.999991
0.999991
0.99999
0.99999
0.99999
0.99999
0.99999
0.99999
0.99999
0.99999
0.99999
0.99999
0.99999
0.99999
0.99999
0.99999
0.99999
0.99999
0.99999
0.99999
0.99999
0.99999
0.99999
0.99999
0.99999
0.99999
0.99999
0.99999
0.99999
0.99999
0.99999
0.99999
0.99999
0.99999
0.99999
0.99999
0.99999
0.99999
0.99999
0.99999
0.99999
0.99999
0.999989
0.999986
0.999978
0.999964
0.999954
0.999911
0.999837
0.999381
0.999171
0.96537
0.0581877
1.14027e-05
1.07249e-06
9.57621e-07
9.78899e-07
9.91733e-07
1.0022e-06
9.90854e-07
9.77417e-07
9.48996e-07
9.19494e-07
8.8996e-07
8.65156e-07
8.42546e-07
8.23144e-07
8.04041e-07
7.85592e-07
7.6673e-07
7.47752e-07
7.2999e-07
7.12001e-07
6.94665e-07
6.79369e-07
6.65584e-07
6.54652e-07
6.45585e-07
6.34659e-07
6.1819e-07
5.91494e-07
5.50278e-07
4.96822e-07
4.41789e-07
3.97531e-07
3.80626e-07
3.76915e-07
3.59667e-07
0.999996
0.999995
0.999995
0.999995
0.999994
0.999994
0.999993
0.999992
0.999991
0.999991
0.99999
0.99999
0.99999
0.99999
0.99999
0.99999
0.99999
0.99999
0.99999
0.99999
0.99999
0.99999
0.99999
0.99999
0.99999
0.99999
0.99999
0.99999
0.99999
0.99999
0.99999
0.99999
0.99999
0.99999
0.99999
0.99999
0.99999
0.99999
0.99999
0.99999
0.99999
0.99999
0.99999
0.99999
0.99999
0.99999
0.99999
0.99999
0.99999
0.99999
0.999989
0.999985
0.999978
0.999963
0.999954
0.999929
0.999777
0.999288
0.998934
0.960394
0.0611124
1.28754e-05
9.23481e-07
9.27979e-07
9.03619e-07
8.91874e-07
8.99838e-07
8.90589e-07
8.86055e-07
8.67005e-07
8.53704e-07
8.33284e-07
8.16731e-07
7.97294e-07
7.80306e-07
7.63505e-07
7.47602e-07
7.32572e-07
7.18418e-07
7.04604e-07
6.89745e-07
6.75632e-07
6.62874e-07
6.52365e-07
6.44262e-07
6.3702e-07
6.2767e-07
6.10792e-07
5.83144e-07
5.45129e-07
4.96494e-07
4.46232e-07
4.04605e-07
3.87264e-07
3.81667e-07
3.63775e-07
0.999997
0.999996
0.999996
0.999995
0.999995
0.999994
0.999993
0.999992
0.999991
0.999991
0.99999
0.99999
0.99999
0.99999
0.99999
0.99999
0.99999
0.99999
0.99999
0.99999
0.99999
0.99999
0.99999
0.99999
0.99999
0.99999
0.99999
0.99999
0.99999
0.99999
0.99999
0.99999
0.99999
0.99999
0.99999
0.99999
0.99999
0.99999
0.99999
0.99999
0.99999
0.99999
0.99999
0.99999
0.99999
0.99999
0.99999
0.99999
0.99999
0.99999
0.999989
0.999985
0.999977
0.999964
0.999952
0.999923
0.999705
0.999145
0.998133
0.951833
0.0656732
0.000220649
9.20932e-07
7.85209e-07
7.59978e-07
7.37234e-07
7.37697e-07
7.29267e-07
7.34751e-07
7.30604e-07
7.3283e-07
7.27294e-07
7.24275e-07
7.16548e-07
7.09618e-07
7.00658e-07
6.91402e-07
6.83393e-07
6.75532e-07
6.67151e-07
6.59221e-07
6.51951e-07
6.46232e-07
6.41806e-07
6.37095e-07
6.3275e-07
6.24202e-07
6.0726e-07
5.77496e-07
5.37227e-07
4.92056e-07
4.46664e-07
4.07512e-07
3.91801e-07
3.85396e-07
3.65547e-07
0.999998
0.999997
0.999996
0.999996
0.999995
0.999995
0.999994
0.999992
0.999991
0.999991
0.99999
0.99999
0.99999
0.99999
0.99999
0.99999
0.99999
0.99999
0.99999
0.99999
0.99999
0.99999
0.99999
0.99999
0.99999
0.99999
0.99999
0.99999
0.99999
0.99999
0.99999
0.99999
0.99999
0.99999
0.99999
0.99999
0.99999
0.99999
0.99999
0.99999
0.99999
0.99999
0.99999
0.99999
0.99999
0.99999
0.99999
0.99999
0.99999
0.99999
0.999989
0.999985
0.999977
0.999964
0.999957
0.999901
0.999774
0.999076
0.997264
0.945164
0.0736962
0.000771494
2.31194e-06
7.11604e-07
7.11593e-07
6.96112e-07
6.97719e-07
6.8656e-07
6.848e-07
6.75369e-07
6.72623e-07
6.65335e-07
6.62346e-07
6.56728e-07
6.52504e-07
6.4859e-07
6.45796e-07
6.42533e-07
6.40577e-07
6.39758e-07
6.37831e-07
6.36051e-07
6.35897e-07
6.34952e-07
6.32474e-07
6.30381e-07
6.23612e-07
6.06725e-07
5.74464e-07