/*--------------------------------*- C++ -*----------------------------------*\
| =========                 |                                                 |
| \\      /  F ield         | OpenFOAM: The Open Source CFD Toolbox           |
|  \\    /   O peration     | Version:  2.3.0                                 |
|   \\  /    A nd           | Web:      www.OpenFOAM.org                      |
|    \\/     M anipulation  |                                                 |
\*---------------------------------------------------------------------------*/
FoamFile
{
    version     2.0;
    format      ascii;
    class       volScalarField;
    location    "25";
    object      alpha.water;
}
// * * * * * * * * * * * * * * * * * * * * * * * * * * * * * * * * * * * * * //

dimensions      [0 0 0 0 0 0 0];

internalField   nonuniform List<scalar> 
6144
(
5.37866e-06
6.25037e-06
6.78095e-06
7.15181e-06
7.56494e-06
8.04837e-06
8.54579e-06
9.16939e-06
9.73028e-06
9.94762e-06
9.97731e-06
9.98358e-06
9.98692e-06
9.98932e-06
9.98891e-06
9.98923e-06
9.98846e-06
9.98922e-06
9.98862e-06
9.98897e-06
9.98872e-06
9.9889e-06
9.98871e-06
9.98874e-06
9.9886e-06
9.98853e-06
9.98837e-06
9.98829e-06
9.98812e-06
9.98796e-06
9.98755e-06
9.98721e-06
9.98675e-06
9.98646e-06
9.986e-06
9.98572e-06
9.98552e-06
9.9855e-06
9.98545e-06
9.98541e-06
9.98531e-06
9.98531e-06
9.98531e-06
9.98531e-06
1.00556e-05
1.09266e-05
1.28092e-05
1.56518e-05
2.09971e-05
4.24273e-05
8.6688e-05
0.000121181
0.000125809
0.000126053
0.000125838
0.000126506
0.000124233
0.000133359
0.000760623
0.0591715
0.94774
0.999655
0.999999
0.999999
0.999999
0.999999
0.999999
0.999999
0.999999
0.999999
0.999999
0.999999
0.999999
0.999999
0.999999
0.999999
0.999999
0.999999
0.999999
0.999999
0.999999
0.999999
0.999999
0.999999
0.999999
0.999999
0.999999
0.999999
0.999999
0.999999
0.999999
1
1
1
1
1
4.88107e-06
6.06078e-06
6.81539e-06
7.19465e-06
7.7193e-06
8.22912e-06
8.7645e-06
9.37669e-06
9.83045e-06
9.96201e-06
9.97739e-06
9.98503e-06
9.99227e-06
9.99626e-06
9.99671e-06
9.99734e-06
9.99614e-06
9.9969e-06
9.99564e-06
9.99609e-06
9.99539e-06
9.9956e-06
9.99529e-06
9.99533e-06
9.99526e-06
9.99529e-06
9.9953e-06
9.99535e-06
9.99543e-06
9.99548e-06
9.99532e-06
9.99521e-06
9.99505e-06
9.9949e-06
9.99461e-06
9.99442e-06
9.99425e-06
9.99399e-06
9.99361e-06
9.99288e-06
9.99192e-06
9.99056e-06
9.9882e-06
9.98768e-06
1.01067e-05
1.09039e-05
1.39122e-05
2.05617e-05
3.08556e-05
4.5988e-05
7.96629e-05
0.000118839
0.000122769
0.000121517
0.000120395
0.000122091
0.000121369
0.000138482
0.000414092
0.0378651
0.949109
0.999725
0.999999
0.999999
0.999999
0.999999
0.999999
0.999999
0.999999
0.999999
0.999999
0.999999
0.999999
0.999999
0.999999
0.999999
0.999999
0.999999
0.999999
0.999999
0.999999
0.999999
0.999999
0.999999
0.999999
0.999999
0.999999
0.999999
0.999999
0.999999
0.999999
1
1
1
1
1
4.57026e-06
5.70535e-06
6.62492e-06
7.04655e-06
7.56593e-06
8.16164e-06
8.81718e-06
9.34761e-06
9.65552e-06
9.80797e-06
9.88803e-06
9.94731e-06
9.98177e-06
9.99453e-06
9.99702e-06
9.99758e-06
9.99683e-06
9.99726e-06
9.99644e-06
9.99681e-06
9.99617e-06
9.99637e-06
9.99598e-06
9.99598e-06
9.99586e-06
9.99583e-06
9.99578e-06
9.99576e-06
9.99573e-06
9.99573e-06
9.99564e-06
9.99559e-06
9.9954e-06
9.99514e-06
9.99466e-06
9.99408e-06
9.99329e-06
9.99244e-06
9.99143e-06
9.99045e-06
9.98933e-06
9.98825e-06
9.9882e-06
1.00013e-05
1.01887e-05
1.10991e-05
1.50559e-05
2.39122e-05
3.68683e-05
5.44694e-05
8.32554e-05
0.000122829
0.000122122
0.000120634
0.000121194
0.00012251
0.000122811
0.0001533
0.000399551
0.0276198
0.963233
0.999828
0.999999
0.999999
0.999999
0.999999
0.999999
0.999999
0.999999
0.999999
0.999999
0.999999
0.999999
0.999999
0.999999
0.999999
0.999999
0.999999
0.999999
0.999999
0.999999
0.999999
0.999999
0.999999
0.999999
0.999999
0.999999
0.999999
0.999999
0.999999
1
1
1
1
1
1
4.32583e-06
5.25263e-06
6.2822e-06
6.74707e-06
7.2019e-06
7.72343e-06
8.60084e-06
9.32655e-06
9.59589e-06
9.73388e-06
9.83857e-06
9.92748e-06
9.97525e-06
9.99129e-06
9.9939e-06
9.99442e-06
9.99397e-06
9.99396e-06
9.99346e-06
9.99342e-06
9.99282e-06
9.99273e-06
9.99214e-06
9.99186e-06
9.9916e-06
9.99137e-06
9.9912e-06
9.99098e-06
9.99087e-06
9.99071e-06
9.99068e-06
9.99055e-06
9.99048e-06
9.99024e-06
9.99002e-06
9.98968e-06
9.98943e-06
9.98906e-06
9.98845e-06
9.98821e-06
9.98821e-06
9.98821e-06
9.98821e-06
1.00477e-05
1.03298e-05
1.12723e-05
1.52399e-05
2.48353e-05
3.86198e-05
6.11649e-05
9.96867e-05
0.00012639
0.000121905
0.000120052
0.000119749
0.000122254
0.000118957
0.000147218
0.000309719
0.040138
0.981627
0.999954
0.999999
0.999999
0.999999
0.999999
0.999999
0.999999
0.999999
0.999999
0.999999
0.999999
0.999999
0.999999
0.999999
0.999999
0.999999
0.999999
0.999999
0.999999
0.999999
0.999999
0.999999
0.999999
0.999999
0.999999
0.999999
0.999999
0.999999
1
1
1
1
1
1
1
4.14189e-06
4.78072e-06
5.83382e-06
6.39557e-06
6.87355e-06
7.27669e-06
8.1087e-06
9.13153e-06
9.56802e-06
9.72252e-06
9.81246e-06
9.91935e-06
9.9756e-06
9.99374e-06
9.9969e-06
9.9975e-06
9.99742e-06
9.99783e-06
9.9976e-06
9.99796e-06
9.99753e-06
9.9977e-06
9.99729e-06
9.99718e-06
9.9968e-06
9.99656e-06
9.9962e-06
9.99594e-06
9.99558e-06
9.99532e-06
9.99494e-06
9.99463e-06
9.99415e-06
9.99373e-06
9.99314e-06
9.99274e-06
9.99214e-06
9.99153e-06
9.99041e-06
9.98936e-06
9.98895e-06
9.98968e-06
1.00053e-05
1.00895e-05
1.04363e-05
1.17701e-05
1.64288e-05
2.63358e-05
3.9983e-05
6.93195e-05
0.000116698
0.000127691
0.000124366
0.000122481
0.000122014
0.00012226
0.000119257
0.000135919
0.000207683
0.0676328
0.984058
0.999919
0.99997
0.999985
0.999988
0.999984
0.999981
0.999979
0.999978
0.999977
0.999976
0.999974
0.999971
0.999967
0.999961
0.999953
0.99994
0.999925
0.999913
0.999909
0.999922
0.999937
0.999953
0.99997
0.999986
0.999995
0.999998
0.999999
1
1
1
0.999999
0.999999
1
1
1
4.0755e-06
4.4095e-06
5.32029e-06
5.93405e-06
6.59069e-06
7.00385e-06
7.67254e-06
8.53373e-06
9.46188e-06
9.72141e-06
9.7917e-06
9.9057e-06
9.97142e-06
9.98842e-06
9.99062e-06
9.99092e-06
9.99071e-06
9.99061e-06
9.99054e-06
9.99072e-06
9.99076e-06
9.99098e-06
9.99093e-06
9.99094e-06
9.99084e-06
9.9907e-06
9.99056e-06
9.99034e-06
9.99014e-06
9.98989e-06
9.98965e-06
9.98937e-06
9.98909e-06
9.98867e-06
9.98822e-06
9.98778e-06
9.98727e-06
9.98678e-06
9.98664e-06
9.98664e-06
9.98664e-06
9.98664e-06
1.00034e-05
1.00967e-05
1.05445e-05
1.25109e-05
1.80163e-05
2.78022e-05
4.13553e-05
7.95058e-05
0.000124373
0.000128809
0.000128224
0.00012887
0.000129947
0.000130774
0.000128311
0.000137685
0.000595289
0.120739
0.982728
0.999011
0.999143
0.999484
0.999507
0.999415
0.999353
0.999284
0.999237
0.999216
0.999183
0.999093
0.998996
0.998872
0.998706
0.998503
0.998252
0.997975
0.99773
0.997567
0.997505
0.997507
0.997858
0.998262
0.998762
0.999228
0.999588
0.999815
0.999937
0.999986
0.999999
1
1
1
1
1
4.17011e-06
4.27847e-06
4.94799e-06
5.48383e-06
6.31549e-06
6.86053e-06
7.50332e-06
8.19097e-06
9.12302e-06
9.66469e-06
9.77392e-06
9.89667e-06
9.97157e-06
9.99114e-06
9.99553e-06
9.99625e-06
9.99647e-06
9.99611e-06
9.99574e-06
9.99572e-06
9.99505e-06
9.99458e-06
9.99394e-06
9.99363e-06
9.99329e-06
9.99307e-06
9.99282e-06
9.99259e-06
9.99228e-06
9.99198e-06
9.99163e-06
9.9913e-06
9.99084e-06
9.9902e-06
9.9895e-06
9.98887e-06
9.98824e-06
9.98768e-06
9.98742e-06
9.98755e-06
9.98776e-06
9.98959e-06
1.00101e-05
1.00982e-05
1.06416e-05
1.30735e-05
1.90889e-05
2.88444e-05
4.26201e-05
8.47209e-05
0.000126045
0.000129432
0.000129465
0.000132082
0.000134128
0.000134354
0.000130501
0.000125901
0.000118671
0.174802
0.97186
0.996391
0.996574
0.997979
0.998249
0.998275
0.997935
0.997603
0.997231
0.996865
0.996509
0.996141
0.995724
0.995266
0.994752
0.994195
0.9936
0.992995
0.992392
0.991838
0.991445
0.991177
0.991033
0.990986
0.991343
0.991869
0.992848
0.994171
0.995729
0.997334
0.998743
0.99975
0.999981
1
1
1
4.3502e-06
4.52652e-06
4.85032e-06
5.28066e-06
6.12401e-06
6.80158e-06
7.48632e-06
8.14629e-06
8.75804e-06
9.52462e-06
9.7343e-06
9.8795e-06
9.96547e-06
9.98916e-06
9.99416e-06
9.99551e-06
9.99559e-06
9.99559e-06
9.9954e-06
9.99561e-06
9.99562e-06
9.99599e-06
9.99606e-06
9.99616e-06
9.99617e-06
9.99621e-06
9.99625e-06
9.9963e-06
9.99632e-06
9.99627e-06
9.99615e-06
9.99602e-06
9.99568e-06
9.99514e-06
9.99469e-06
9.99441e-06
9.9942e-06
9.99409e-06
9.99387e-06
9.99451e-06
9.99583e-06
9.99939e-06
1.00072e-05
1.00681e-05
1.06592e-05
1.33099e-05
1.94834e-05
2.95475e-05
4.4623e-05
7.93293e-05
0.000125253
0.000129581
0.000129614
0.000132169
0.000134508
0.000134796
0.000133813
0.000136857
0.000118671
0.234534
0.982502
0.992502
0.992368
0.993259
0.993692
0.993923
0.993969
0.993623
0.993297
0.993065
0.992976
0.992973
0.992952
0.992937
0.992847
0.992649
0.992375
0.992104
0.99187
0.99163
0.991288
0.990715
0.98976
0.988534
0.98711
0.985177
0.982885
0.980501
0.978426
0.976948
0.976055
0.975065
0.974443
0.974378
0.977192
0.980544
4.38608e-06
4.8134e-06
5.10917e-06
5.39046e-06
6.09022e-06
6.87205e-06
7.70614e-06
8.33812e-06
8.76803e-06
9.28363e-06
9.61037e-06
9.82887e-06
9.94181e-06
9.98151e-06
9.98701e-06
9.98973e-06
9.98837e-06
9.98857e-06
9.98835e-06
9.9891e-06
9.98959e-06
9.99026e-06
9.99058e-06
9.9909e-06
9.99106e-06
9.9912e-06
9.9913e-06
9.99141e-06
9.99147e-06
9.99147e-06
9.99142e-06
9.99139e-06
9.99126e-06
9.99112e-06
9.99111e-06
9.99111e-06
9.99111e-06
9.99111e-06
9.99111e-06
9.99179e-06
9.99392e-06
9.99606e-06
9.99798e-06
1.00552e-05
1.07652e-05
1.38129e-05
2.05164e-05
3.2466e-05
5.09216e-05
8.4336e-05
0.000125659
0.000130481
0.0001285
0.000128048
0.000128959
0.000130351
0.000129097
0.000146405
0.000203905
0.15239
0.973789
0.994856
0.994591
0.994758
0.994902
0.995058
0.995261
0.995482
0.995826
0.996186
0.996521
0.996806
0.997053
0.997275
0.997484
0.99771
0.997947
0.998192
0.998402
0.99853
0.998559
0.998368
0.998095
0.997649
0.997033
0.996344
0.995631
0.995111
0.994854
0.994692
0.994328
0.994209
0.995121
0.996165
0.99782
0.999034
4.20987e-06
4.89778e-06
5.23872e-06
5.53198e-06
6.26236e-06
7.16089e-06
7.96847e-06
8.56901e-06
8.89889e-06
9.19965e-06
9.4957e-06
9.75024e-06
9.89726e-06
9.97447e-06
9.99084e-06
9.99657e-06
9.9952e-06
9.99534e-06
9.99456e-06
9.99467e-06
9.99464e-06
9.9949e-06
9.99486e-06
9.9949e-06
9.99479e-06
9.9947e-06
9.99458e-06
9.99449e-06
9.99437e-06
9.99418e-06
9.99391e-06
9.99352e-06
9.99301e-06
9.99264e-06
9.99239e-06
9.99211e-06
9.99183e-06
9.99151e-06
9.99191e-06
9.99265e-06
9.9934e-06
9.99529e-06
9.99965e-06
1.00813e-05
1.09068e-05
1.39455e-05
2.05432e-05
3.36167e-05
5.0848e-05
7.55533e-05
0.000117037
0.000129811
0.000128766
0.000130322
0.000127405
0.000129212
0.000120486
0.000128565
0.000194088
0.091695
0.980839
0.997331
0.997379
0.997672
0.997832
0.998078
0.998325
0.998651
0.998954
0.999213
0.999412
0.999562
0.99968
0.999772
0.99984
0.999894
0.999931
0.99995
0.999961
0.999968
0.999971
0.999969
0.999963
0.999945
0.999917
0.999884
0.999862
0.99986
0.999908
0.999936
0.999929
0.999929
0.999965
0.999977
0.999993
0.999999
3.88787e-06
4.88608e-06
5.1669e-06
5.47393e-06
6.40057e-06
7.41305e-06
8.2196e-06
8.73357e-06
9.06713e-06
9.26274e-06
9.51811e-06
9.76492e-06
9.89479e-06
9.96783e-06
9.98511e-06
9.99114e-06
9.99012e-06
9.99127e-06
9.99104e-06
9.99177e-06
9.99209e-06
9.99277e-06
9.99316e-06
9.99354e-06
9.99376e-06
9.99394e-06
9.99407e-06
9.99414e-06
9.99417e-06
9.99411e-06
9.99398e-06
9.99375e-06
9.99353e-06
9.99328e-06
9.99307e-06
9.99282e-06
9.99251e-06
9.99236e-06
9.99251e-06
9.9928e-06
9.99354e-06
9.99523e-06
1.0003e-05
1.01197e-05
1.09476e-05
1.36104e-05
1.97712e-05
3.26989e-05
5.02542e-05
6.95919e-05
9.9726e-05
0.000122231
0.000126394
0.000128763
0.000127278
0.000128909
0.000120799
0.000136549
0.000143935
0.054503
0.97736
0.999476
0.999598
0.999705
0.999751
0.999816
0.999859
0.999909
0.999942
0.999967
0.999981
0.99999
0.999995
0.999998
0.999999
0.999999
0.999999
0.999999
0.999999
0.999999
1
1
1
1
1
1
1
1
1
1
1
1
1
1
1
1
3.66593e-06
4.35309e-06
4.60477e-06
4.64653e-06
6.00215e-06
7.20417e-06
8.3838e-06
8.85572e-06
9.24115e-06
9.50499e-06
9.72944e-06
9.93371e-06
9.97627e-06
1e-05
9.99727e-06
9.99799e-06
9.99331e-06
9.99291e-06
9.99201e-06
9.9925e-06
9.99254e-06
9.99317e-06
9.99352e-06
9.99394e-06
9.9942e-06
9.99446e-06
9.99465e-06
9.99481e-06
9.99491e-06
9.99498e-06
9.99501e-06
9.995e-06
9.99538e-06
9.99593e-06
9.99633e-06
9.9966e-06
9.99675e-06
9.997e-06
9.99686e-06
9.9968e-06
9.99704e-06
9.99787e-06
1.00116e-05
1.01721e-05
1.09493e-05
1.31729e-05
1.83317e-05
2.95799e-05
4.64072e-05
6.46216e-05
8.19769e-05
0.000103573
0.000114774
0.000123011
0.000122414
0.00012535
0.000120417
0.000140549
0.000171684
0.0359914
0.961301
0.999895
0.999989
0.999994
0.999997
0.999998
0.999998
0.999999
0.999999
0.999999
0.999999
0.999999
0.999999
0.999999
0.999999
0.999999
0.999999
0.999999
0.999999
0.999999
0.999999
0.999999
0.999999
0.999999
0.999999
0.999999
0.999999
0.999999
0.999999
0.999999
0.999999
0.999999
0.999999
1
1
1
3.33806e-06
3.61693e-06
3.62661e-06
3.6146e-06
4.888e-06
6.31992e-06
8.34562e-06
9.07652e-06
9.44156e-06
9.76647e-06
9.89696e-06
9.97773e-06
1.00082e-05
1.00108e-05
1.00108e-05
1.00108e-05
1.00087e-05
1.00067e-05
1.0003e-05
1.00011e-05
9.99939e-06
9.99867e-06
9.99813e-06
9.99794e-06
9.99782e-06
9.9978e-06
9.99782e-06
9.99781e-06
9.99778e-06
9.99771e-06
9.99764e-06
9.99759e-06
9.99784e-06
9.99823e-06
9.99854e-06
9.99878e-06
9.99864e-06
9.99857e-06
9.9984e-06
9.99868e-06
9.99887e-06
1.00016e-05
1.00264e-05
1.02189e-05
1.09829e-05
1.29258e-05
1.70913e-05
2.59382e-05
4.09181e-05
5.96081e-05
7.8149e-05
9.42313e-05
0.00010473
0.000115519
0.000116167
0.000122758
0.000120272
0.000145803
0.000307115
0.0254854
0.940241
0.999742
0.999999
0.999999
0.999999
0.999999
0.999999
0.999999
0.999999
0.999999
0.999999
0.999999
0.999999
0.999999
0.999999
0.999999
0.999999
0.999999
0.999999
0.999999
0.999999
0.999999
0.999999
0.999999
0.999999
0.999999
0.999999
0.999999
0.999999
0.999999
0.999999
0.999999
0.999999
0.999999
1
1
3.02814e-06
3.12328e-06
2.92945e-06
2.87511e-06
3.72302e-06
4.91198e-06
7.86816e-06
9.22685e-06
9.63224e-06
9.83146e-06
9.88724e-06
9.94959e-06
9.99306e-06
1.00108e-05
1.00108e-05
1.00108e-05
1.00108e-05
1.00108e-05
1.00101e-05
1.00094e-05
1.00081e-05
1.00071e-05
1.00059e-05
1.0005e-05
1.00042e-05
1.00035e-05
1.00029e-05
1.00024e-05
1.00019e-05
1.00014e-05
1.00009e-05
1.00006e-05
1.00004e-05
1.00003e-05
1.00003e-05
1.00003e-05
1.00002e-05
1e-05
9.99992e-06
1.00003e-05
1.00007e-05
1.00064e-05
1.00431e-05
1.02665e-05
1.10009e-05
1.27194e-05
1.62263e-05
2.31166e-05
3.60748e-05
5.41106e-05
7.58972e-05
9.63409e-05
0.000107074
0.000113937
0.000113683
0.000122294
0.00011884
0.000133021
0.000409796
0.0246446
0.920989
0.999356
0.999999
0.999999
0.999999
0.999999
0.999999
0.999999
0.999999
0.999999
0.999999
0.999999
0.999999
0.999999
0.999999
0.999999
0.999999
0.999999
0.999999
0.999999
0.999999
0.999999
0.999999
0.999999
0.999999
0.999999
0.999999
0.999999
0.999999
0.999999
0.999999
0.999999
0.999999
0.999999
0.999999
1
2.73859e-06
2.6702e-06
2.61462e-06
2.61574e-06
3.11177e-06
3.59687e-06
6.49808e-06
8.93208e-06
9.70536e-06
9.83921e-06
9.86758e-06
9.92033e-06
9.96876e-06
1.00032e-05
1.00068e-05
1.0008e-05
1.00075e-05
1.00078e-05
1.00075e-05
1.00073e-05
1.00065e-05
1.0006e-05
1.0005e-05
1.00042e-05
1.00033e-05
1.00026e-05
1.0002e-05
1.00014e-05
1.00009e-05
1.00004e-05
9.99989e-06
9.99953e-06
9.99931e-06
9.99929e-06
9.99924e-06
9.99926e-06
9.99922e-06
9.99917e-06
9.99911e-06
9.99934e-06
1e-05
1.00078e-05
1.00554e-05
1.02775e-05
1.09475e-05
1.26467e-05
1.63929e-05
2.33098e-05
3.4091e-05
4.96858e-05
7.10119e-05
9.30369e-05
0.000102935
0.000116481
0.000114881
0.000120735
0.000119144
0.000126045
0.000296305
0.0329562
0.934207
0.99955
0.999999
0.999999
0.999999
0.999999
0.999999
0.999999
0.999999
0.999999
0.999999
0.999999
0.999999
0.999999
0.999999
0.999999
0.999999
0.999999
0.999999
0.999999
0.999999
0.999999
0.999999
0.999999
0.999999
0.999999
0.999999
0.999999
0.999999
0.999999
0.999999
0.999999
0.999999
0.999999
1
1
2.13061e-06
2.46911e-06
2.52917e-06
2.61587e-06
2.81687e-06
2.92785e-06
5.13855e-06
8.70379e-06
9.75636e-06
9.88939e-06
9.9002e-06
9.94147e-06
9.97975e-06
1.00125e-05
1.00132e-05
1.00132e-05
1.00132e-05
1.00132e-05
1.00132e-05
1.00132e-05
1.00131e-05
1.00129e-05
1.00123e-05
1.00118e-05
1.00111e-05
1.00105e-05
1.00099e-05
1.00094e-05
1.00089e-05
1.00083e-05
1.00078e-05
1.00074e-05
1.0007e-05
1.00067e-05
1.00065e-05
1.00063e-05
1.00063e-05
1.00063e-05
1.00067e-05
1.00074e-05
1.00086e-05
1.00154e-05
1.00458e-05
1.01832e-05
1.07022e-05
1.23825e-05
1.6242e-05
2.36e-05
3.53625e-05
5.05916e-05
6.68805e-05
8.59441e-05
9.53276e-05
0.000113945
0.000118756
0.000123151
0.000119749
0.000135724
0.000363492
0.0423703
0.941821
0.999639
0.999999
0.999999
0.999999
0.999999
0.999999
0.999999
0.999999
0.999999
0.999999
0.999999
0.999999
0.999999
0.999999
0.999999
0.999999
0.999999
0.999999
0.999999
0.999999
0.999999
0.999999
0.999999
0.999999
0.999999
0.999999
0.999999
0.999999
0.999999
0.999999
0.999999
1
1
1
1
4.43414e-06
5.97825e-06
6.77979e-06
7.24457e-06
7.62618e-06
8.11812e-06
8.72089e-06
9.36837e-06
9.68984e-06
9.80229e-06
9.89294e-06
9.96116e-06
9.99981e-06
1.00096e-05
1.00096e-05
1.00096e-05
1.00096e-05
1.00096e-05
1.00088e-05
1.00087e-05
1.0008e-05
1.0008e-05
1.00076e-05
1.00076e-05
1.00076e-05
1.00076e-05
1.00077e-05
1.00078e-05
1.00079e-05
1.00081e-05
1.00087e-05
1.0009e-05
1.0009e-05
1.0009e-05
1.0009e-05
1.0009e-05
1.0009e-05
1.0009e-05
1.00087e-05
1.00078e-05
1.00062e-05
1.0004e-05
1.00013e-05
1.00022e-05
1.00373e-05
1.08276e-05
1.26959e-05
1.54931e-05
2.0058e-05
4.03828e-05
8.5539e-05
0.000119524
0.000126962
0.00012744
0.000127529
0.000128667
0.000125516
0.00014546
0.00046177
0.0427342
0.955778
0.999867
0.999999
0.999999
0.999999
0.999999
0.999999
0.999999
0.999999
0.999999
0.999999
0.999999
0.999999
0.999999
0.999999
0.999999
0.999999
0.999999
0.999999
0.999999
0.999999
0.999999
0.999999
0.999999
0.999999
0.999999
0.999999
0.999999
0.999999
0.999999
0.999999
0.999999
0.999999
0.999999
1
1
3.70922e-06
5.45899e-06
7.12337e-06
7.64793e-06
8.18371e-06
8.61573e-06
8.93743e-06
9.17487e-06
9.37618e-06
9.55876e-06
9.73313e-06
9.88034e-06
9.97068e-06
1.00034e-05
1.00084e-05
1.00096e-05
1.00086e-05
1.00094e-05
1.0009e-05
1.00089e-05
1.00085e-05
1.00085e-05
1.00082e-05
1.00082e-05
1.0008e-05
1.00079e-05
1.00076e-05
1.00073e-05
1.0007e-05
1.00068e-05
1.00066e-05
1.00064e-05
1.00061e-05
1.00056e-05
1.0005e-05
1.00044e-05
1.00038e-05
1.00031e-05
1.00019e-05
1.00004e-05
9.9992e-06
9.9992e-06
1.00112e-05
1.00749e-05
1.02911e-05
1.09957e-05
1.33776e-05
1.92859e-05
2.81363e-05
4.40872e-05
7.37166e-05
0.000114397
0.000124012
0.000123025
0.000120391
0.000122402
0.00013555
0.000175355
0.000298894
0.0714444
0.973513
0.999981
0.999999
0.999999
0.999999
0.999999
0.999999
0.999999
0.999999
0.999999
0.999999
0.999999
0.999999
0.999999
0.999999
0.999999
0.999999
0.999999
0.999999
0.999999
0.999999
0.999999
0.999999
0.999999
0.999999
0.999999
0.999999
0.999999
0.999999
0.999999
0.999999
1
0.999999
0.999999
1
1
3.35894e-06
4.66309e-06
7.04518e-06
7.62669e-06
7.90286e-06
8.1669e-06
8.44208e-06
8.75873e-06
9.15008e-06
9.44861e-06
9.64837e-06
9.82739e-06
9.94869e-06
9.99778e-06
1.00046e-05
1.00061e-05
1.00056e-05
1.00059e-05
1.00055e-05
1.00054e-05
1.0005e-05
1.0005e-05
1.00047e-05
1.00046e-05
1.00044e-05
1.00042e-05
1.00041e-05
1.00039e-05
1.00036e-05
1.00034e-05
1.00032e-05
1.00029e-05
1.00025e-05
1.0002e-05
1.00014e-05
1.0001e-05
1.00005e-05
9.99986e-06
9.99877e-06
9.99763e-06
9.99719e-06
1.00003e-05
1.00217e-05
1.01399e-05
1.05682e-05
1.16782e-05
1.42037e-05
2.1068e-05
3.0522e-05
4.40852e-05
7.17531e-05
0.000116876
0.000123487
0.000120948
0.000119541
0.000122354
0.000137101
0.000224865
0.000424707
0.0434974
0.969236
0.999999
0.999999
0.999999
0.999999
0.999999
0.999999
0.999999
0.999999
0.999999
0.999999
0.999999
0.999999
0.999999
0.999999
0.999999
0.999999
0.999999
0.999999
0.999999
0.999999
0.999999
0.999999
0.999999
0.999999
0.999999
0.999999
0.999999
0.999999
0.999999
1
1
0.999999
0.999999
0.999999
1
3.17317e-06
3.85702e-06
6.48116e-06
7.43014e-06
7.6202e-06
7.61305e-06
7.87554e-06
8.36131e-06
8.98427e-06
9.40631e-06
9.62083e-06
9.80519e-06
9.93546e-06
9.99373e-06
1.00018e-05
1.00037e-05
1.00029e-05
1.0003e-05
1.00025e-05
1.00023e-05
1.00019e-05
1.00019e-05
1.00015e-05
1.00014e-05
1.00011e-05
1.0001e-05
1.00008e-05
1.00006e-05
1.00003e-05
1.00001e-05
9.99987e-06
9.99958e-06
9.99921e-06
9.99877e-06
9.99832e-06
9.99802e-06
9.99774e-06
9.99729e-06
9.99628e-06
9.99516e-06
9.99487e-06
9.99831e-06
1.00093e-05
1.00819e-05
1.05526e-05
1.1926e-05
1.45856e-05
2.06688e-05
2.83035e-05
4.13597e-05
8.20136e-05
0.000123803
0.000123024
0.000119582
0.000119542
0.000122643
0.000125801
0.000210211
0.000302173
0.0663482
0.991962
0.999999
0.999999
0.999999
0.999999
0.999999
0.999999
0.999999
0.999999
0.999999
0.999999
0.999999
0.999999
0.999999
0.999999
0.999999
0.999999
0.999999
0.999999
0.999999
0.999999
0.999999
0.999999
0.999999
0.999999
0.999999
0.999999
0.999999
0.999999
1
1
0.999999
0.999999
0.999999
0.999999
1
3.0437e-06
3.26692e-06
5.64713e-06
6.99398e-06
7.42016e-06
7.1742e-06
7.51334e-06
8.13548e-06
8.88739e-06
9.38718e-06
9.61299e-06
9.79835e-06
9.92907e-06
9.99149e-06
1.00005e-05
1.00025e-05
1.00016e-05
1.00017e-05
1.00011e-05
1.00009e-05
1.00005e-05
1.00004e-05
9.99999e-06
9.99981e-06
9.99958e-06
9.99941e-06
9.99921e-06
9.99899e-06
9.99877e-06
9.99857e-06
9.99834e-06
9.99805e-06
9.99769e-06
9.99727e-06
9.99687e-06
9.99661e-06
9.9964e-06
9.99601e-06
9.99503e-06
9.99395e-06
9.99396e-06
9.99777e-06
1.00044e-05
1.00553e-05
1.05105e-05
1.20758e-05
1.51021e-05
2.0797e-05
2.73257e-05
4.60185e-05
0.000102822
0.000126769
0.000122864
0.000119557
0.000119541
0.000120668
0.000131749
0.000173052
0.000148415
0.137594
0.994425
0.999764
0.999821
0.999868
0.999835
0.999824
0.999819
0.999825
0.999824
0.999854
0.999898
0.999931
0.999958
0.999966
0.999964
0.999959
0.999952
0.999945
0.999939
0.999936
0.999935
0.999944
0.999954
0.99997
0.999983
0.999991
0.999996
0.999998
0.999999
0.999999
1
0.999999
0.999999
0.999999
0.999999
1
2.96231e-06
2.79538e-06
4.61249e-06
6.08595e-06
6.9244e-06
6.91081e-06
7.41365e-06
8.08399e-06
8.86487e-06
9.38175e-06
9.61772e-06
9.79779e-06
9.9264e-06
9.98987e-06
9.99943e-06
1.00015e-05
1.00006e-05
1.00005e-05
9.99988e-06
9.99963e-06
9.99916e-06
9.99898e-06
9.99859e-06
9.9984e-06
9.99816e-06
9.99801e-06
9.99783e-06
9.99764e-06
9.99747e-06
9.99731e-06
9.99714e-06
9.99694e-06
9.99662e-06
9.99628e-06
9.99594e-06
9.99573e-06
9.99558e-06
9.99522e-06
9.99429e-06
9.99325e-06
9.9932e-06
9.99749e-06
1.00037e-05
1.00554e-05
1.05111e-05
1.22345e-05
1.60115e-05
2.20103e-05
2.89422e-05
5.9132e-05
0.000120253
0.000127884
0.000126582
0.000125924
0.000128661
0.00013875
0.000161576
0.000182531
0.000191355
0.231808
0.981925
0.992793
0.992994
0.9926
0.991935
0.991564
0.991208
0.991083
0.991095
0.991715
0.992322
0.993003
0.993606
0.994099
0.994526
0.994868
0.995174
0.99542
0.99562
0.995789
0.995967
0.996178
0.996677
0.997367
0.998096
0.998731
0.99919
0.999506
0.99973
0.999865
0.999952
0.999989
0.999999
1
1
1
2.95197e-06
2.58431e-06
3.7455e-06
4.93724e-06
6.15213e-06
6.81085e-06
7.4251e-06
8.19153e-06
8.92094e-06
9.38276e-06
9.62197e-06
9.80377e-06
9.92547e-06
9.9889e-06
9.99881e-06
1.0001e-05
1.00002e-05
9.99997e-06
9.99937e-06
9.99913e-06
9.99868e-06
9.99848e-06
9.99811e-06
9.99793e-06
9.99772e-06
9.99759e-06
9.99742e-06
9.99727e-06
9.99713e-06
9.99701e-06
9.99689e-06
9.99674e-06
9.99645e-06
9.99614e-06
9.99583e-06
9.99565e-06
9.99552e-06
9.99515e-06
9.99428e-06
9.99328e-06
9.99305e-06
9.99802e-06
1.00067e-05
1.00643e-05
1.05011e-05
1.25025e-05
1.72629e-05
2.47575e-05
3.46007e-05
7.40568e-05
0.00012514
0.000130392
0.000132977
0.000136311
0.000140655
0.000148717
0.000157853
0.000165213
0.000118671
0.460629
0.972923
0.977443
0.97749
0.977166
0.977382
0.977273
0.977247
0.977206
0.977276
0.977264
0.977072
0.976784
0.976295
0.975889
0.97557
0.975341
0.975131
0.974987
0.974955
0.975075
0.97512
0.97534
0.975948
0.976756
0.978354
0.980194
0.98205
0.983756
0.985425
0.986909
0.989846
0.993564
0.997396
0.999996
0.999968
0.999959
3.05885e-06
2.53384e-06
3.2261e-06
4.02793e-06
5.4348e-06
6.61359e-06
7.48986e-06
8.32958e-06
8.97393e-06
9.39148e-06
9.62744e-06
9.80807e-06
9.92587e-06
9.98854e-06
9.9982e-06
1.00003e-05
9.99965e-06
9.9996e-06
9.99925e-06
9.99913e-06
9.9991e-06
9.99905e-06
9.9988e-06
9.99872e-06
9.9986e-06
9.99852e-06
9.99842e-06
9.99833e-06
9.99821e-06
9.99808e-06
9.99792e-06
9.99772e-06
9.99735e-06
9.99697e-06
9.99663e-06
9.99638e-06
9.99613e-06
9.9958e-06
9.99524e-06
9.99445e-06
9.99433e-06
9.99911e-06
1.00064e-05
1.00572e-05
1.05569e-05
1.27981e-05
1.82551e-05
2.74873e-05
3.98546e-05
8.02367e-05
0.000126714
0.000132135
0.000134594
0.000136105
0.00013678
0.000135765
0.000134493
0.000138761
0.000118671
0.501417
0.973031
0.976754
0.976903
0.976911
0.977169
0.977317
0.977423
0.977375
0.97764
0.977745
0.977595
0.977405
0.977295
0.976879
0.976377
0.975853
0.97489
0.973679
0.972435
0.9707
0.968333
0.96545
0.961989
0.958066
0.953574
0.948031
0.941522
0.934136
0.926245
0.919126
0.910964
0.901945
0.89089
0.870713
0.824378
0.63614
3.08125e-06
2.51081e-06
2.96746e-06
3.44541e-06
4.76625e-06
6.32366e-06
7.573e-06
8.42738e-06
9.01985e-06
9.40464e-06
9.63492e-06
9.81718e-06
9.93415e-06
9.99246e-06
1.00006e-05
1.00025e-05
1.00017e-05
1.00016e-05
1.00012e-05
1.00011e-05
1.00007e-05
1.00006e-05
1.00003e-05
1.00002e-05
1e-05
9.99992e-06
9.99981e-06
9.99973e-06
9.99962e-06
9.99949e-06
9.99936e-06
9.99918e-06
9.99883e-06
9.9985e-06
9.99824e-06
9.99805e-06
9.99782e-06
9.99749e-06
9.99704e-06
9.99641e-06
9.99574e-06
9.99726e-06
1.00028e-05
1.00613e-05
1.05839e-05
1.29121e-05
1.88132e-05
2.87769e-05
4.20282e-05
7.32667e-05
0.000125574
0.000131956
0.000132199
0.000129456
0.000126187
0.000124902
0.000125409
0.000129504
0.000118671
0.239758
0.983571
0.993041
0.993545
0.994586
0.995291
0.99611
0.996829
0.997313
0.997394
0.997385
0.997516
0.997617
0.997664
0.997686
0.997705
0.997714
0.997601
0.997485
0.997425
0.9972
0.996819
0.996267
0.995346
0.993859
0.992537
0.991983
0.992745
0.994922
0.996737
0.996985
0.997109
0.997155
0.997441
0.997231
0.99719
0.999811
2.94158e-06
2.50454e-06
2.86005e-06
3.1683e-06
4.17128e-06
5.9306e-06
7.59689e-06
8.4809e-06
9.06906e-06
9.42838e-06
9.64461e-06
9.83115e-06
9.94345e-06
9.99581e-06
1.00023e-05
1.0004e-05
1.00035e-05
1.00035e-05
1.00032e-05
1.00031e-05
1.00029e-05
1.00028e-05
1.00025e-05
1.00024e-05
1.00022e-05
1.00021e-05
1.00019e-05
1.00018e-05
1.00016e-05
1.00014e-05
1.00012e-05
1.0001e-05
1.00006e-05
1.00002e-05
9.9998e-06
9.99945e-06
9.99902e-06
9.99851e-06
9.99806e-06
9.99751e-06
9.99702e-06
9.99806e-06
1.0003e-05
1.00646e-05
1.05358e-05
1.25239e-05
1.82078e-05
2.89295e-05
4.17529e-05
5.9412e-05
9.89004e-05
0.00012711
0.000130854
0.000130076
0.00012528
0.000121342
0.00012077
0.000142112
0.000118671
0.155066
0.991703
0.998585
0.998806
0.999128
0.999356
0.999573
0.999731
0.999862
0.999945
0.999971
0.99996
0.99995
0.999941
0.999934
0.999932
0.999933
0.999935
0.999935
0.999926
0.999911
0.999902
0.999894
0.999874
0.999818
0.999759
0.999747
0.999849
0.999928
0.999966
0.999976
0.999983
0.999991
0.999997
0.999999
1
1
2.79097e-06
2.50927e-06
2.82286e-06
3.111e-06
3.92375e-06
5.50826e-06
7.39195e-06
8.48214e-06
9.11006e-06
9.46164e-06
9.66926e-06
9.851e-06
9.95358e-06
9.99782e-06
1.00027e-05
1.00043e-05
1.00039e-05
1.00041e-05
1.00039e-05
1.00039e-05
1.00038e-05
1.00037e-05
1.00035e-05
1.00034e-05
1.00032e-05
1.0003e-05
1.00029e-05
1.00028e-05
1.00026e-05
1.00024e-05
1.00022e-05
1.00019e-05
1.00015e-05
1.00011e-05
1.00008e-05
1.00005e-05
1.00002e-05
1e-05
9.99953e-06
9.99898e-06
9.99851e-06
9.99972e-06
1.00059e-05
1.00663e-05
1.04998e-05
1.22905e-05
1.75554e-05
2.80601e-05
4.15682e-05
5.49783e-05
7.12973e-05
9.92472e-05
0.000119225
0.000119951
0.000115771
0.000115028
0.000115874
0.000164578
0.000118671
0.102212
0.993886
0.999827
0.99986
0.999901
0.999925
0.999953
0.999971
0.999986
0.999993
0.999998
0.999999
0.999999
0.999999
0.999999
0.999999
0.999999
0.999999
0.999999
0.999999
0.999999
0.999999
0.999999
0.999999
0.999999
0.999999
0.999998
0.999999
0.999999
0.999999
0.999999
0.999999
0.999999
0.999999
1
1
1
2.6737e-06
2.48063e-06
2.78386e-06
3.02027e-06
3.64146e-06
4.91967e-06
6.98648e-06
8.4611e-06
9.157e-06
9.49794e-06
9.69577e-06
9.87524e-06
9.96401e-06
1.00001e-05
1.00026e-05
1.00043e-05
1.00036e-05
1.00041e-05
1.00038e-05
1.00038e-05
1.00036e-05
1.00036e-05
1.00034e-05
1.00033e-05
1.00031e-05
1.0003e-05
1.0003e-05
1.00029e-05
1.00027e-05
1.00025e-05
1.00023e-05
1.0002e-05
1.00016e-05
1.00011e-05
1.00007e-05
1.00004e-05
1.00002e-05
1.00001e-05
9.99973e-06
9.99945e-06
9.99942e-06
1.00009e-05
1.00079e-05
1.00742e-05
1.04911e-05
1.21397e-05
1.68405e-05
2.59623e-05
3.86839e-05
5.41731e-05
7.08927e-05
8.92081e-05
9.85159e-05
0.000110101
0.000110086
0.000113299
0.000130007
0.000199786
0.000141007
0.0748499
0.993846
0.999997
0.999995
0.999998
0.999999
0.999999
0.999999
0.999999
0.999999
0.999999
0.999999
0.999999
0.999999
0.999999
0.999999
0.999999
0.999999
0.999999
0.999999
0.999999
0.999999
0.999999
0.999999
0.999999
0.999999
0.999999
0.999999
0.999999
0.999999
0.999999
0.999999
0.999999
0.999999
1
1
1
2.57865e-06
2.31698e-06
2.39119e-06
2.50496e-06
2.84045e-06
3.73698e-06
6.25568e-06
8.4371e-06
9.21483e-06
9.54453e-06
9.72811e-06
9.89879e-06
9.96943e-06
1.00011e-05
1.00033e-05
1.00045e-05
1.00041e-05
1.00044e-05
1.00044e-05
1.00044e-05
1.00043e-05
1.00042e-05
1.00041e-05
1.0004e-05
1.00038e-05
1.00037e-05
1.00035e-05
1.00032e-05
1.00029e-05
1.00027e-05
1.00024e-05
1.00021e-05
1.00016e-05
1.0001e-05
9.9999e-06
9.99902e-06
9.99844e-06
9.99814e-06
9.99819e-06
9.99889e-06
9.99982e-06
1.00015e-05
1.001e-05
1.00902e-05
1.0506e-05
1.208e-05
1.62459e-05
2.4083e-05
3.65532e-05
5.50424e-05
7.57777e-05
9.41909e-05
9.89088e-05
0.000116818
0.00011174
0.000117952
0.00014549
0.000213789
0.000225962
0.0454092
0.960715
0.999999
0.999999
0.999999
0.999999
0.999999
0.999999
0.999999
0.999999
0.999999
0.999999
0.999999
0.999999
0.999999
0.999999
0.999999
0.999999