/*--------------------------------*- C++ -*----------------------------------*\
| =========                 |                                                 |
| \\      /  F ield         | OpenFOAM: The Open Source CFD Toolbox           |
|  \\    /   O peration     | Version:  2.3.0                                 |
|   \\  /    A nd           | Web:      www.OpenFOAM.org                      |
|    \\/     M anipulation  |                                                 |
\*---------------------------------------------------------------------------*/
FoamFile
{
    version     2.0;
    format      ascii;
    class       volScalarField;
    location    "25";
    object      dsauterMean;
}
// * * * * * * * * * * * * * * * * * * * * * * * * * * * * * * * * * * * * * //

dimensions      [0 0 0 0 0 0 0];

internalField   nonuniform List<scalar> 
6144
(
0.00833335
0.00833335
0.00833335
0.00833335
0.00833335
0.00833335
0.00833335
0.00833335
0.00833335
0.00833335
0.00833335
0.00833335
0.00833335
0.00833335
0.00833335
0.00833335
0.00833335
0.00833335
0.00833335
0.00833335
0.00833335
0.00833335
0.00833335
0.00833335
0.00833335
0.00833335
0.00833335
0.00833335
0.00833335
0.00833335
0.00833335
0.00833335
0.00833335
0.00833335
0.00833335
0.00833335
0.00833335
0.00833335
0.00833335
0.00833335
0.00833335
0.00833335
0.00833335
0.00833335
0.00833335
0.00833335
0.00833335
0.00833335
0.00833335
0.00833335
0.00833335
0.00833335
0.00833335
0.00833335
0.00833335
0.00833335
0.00833335
0.00833326
0.00832335
0.00834621
0.00833485
0.00833315
0.00316106
0.000363572
0.000355231
0.000348648
0.00034206
0.000332183
0.000325592
0.000317369
0.000310776
0.00030254
0.000295955
0.000289367
0.000282783
0.000274545
0.000267963
0.000261371
0.000254787
0.000248287
0.000241131
0.000236111
0.00022722
0.000223998
0.000216467
0.000211973
0.000205308
0.000200607
0.000195407
0.000192213
0.000188919
0.000185627
0.000183982
0.000182333
0.000183969
0.000182361
0.00833335
0.00833335
0.00833335
0.00833335
0.00833335
0.00833335
0.00833335
0.00833335
0.00833335
0.00833335
0.00833335
0.00833335
0.00833335
0.00833335
0.00833335
0.00833335
0.00833335
0.00833335
0.00833335
0.00833335
0.00833335
0.00833335
0.00833335
0.00833335
0.00833335
0.00833335
0.00833335
0.00833335
0.00833335
0.00833335
0.00833335
0.00833335
0.00833335
0.00833335
0.00833335
0.00833335
0.00833335
0.00833335
0.00833335
0.00833335
0.00833335
0.00833335
0.00833335
0.00833335
0.00833335
0.00833335
0.00833335
0.00833335
0.00833335
0.00833335
0.00833335
0.00833335
0.00833335
0.00833335
0.00833335
0.00833335
0.00833335
0.00833311
0.00832392
0.00834451
0.008394
0.00832923
0.000450741
0.000365123
0.000356765
0.000349993
0.00034202
0.000333827
0.000327278
0.000319436
0.000312546
0.000303959
0.000297552
0.000289334
0.000281652
0.00027434
0.000268224
0.000262163
0.000254081
0.000248129
0.000242023
0.000234899
0.000228915
0.00022352
0.000216939
0.000212099
0.000207033
0.000202094
0.000197157
0.000192213
0.000188921
0.000187274
0.000183576
0.000184135
0.000183996
0.000184012
0.00833335
0.00833335
0.00833335
0.00833335
0.00833335
0.00833335
0.00833335
0.00833335
0.00833335
0.00833335
0.00833335
0.00833335
0.00833335
0.00833335
0.00833335
0.00833335
0.00833335
0.00833335
0.00833335
0.00833335
0.00833335
0.00833335
0.00833335
0.00833335
0.00833335
0.00833335
0.00833335
0.00833335
0.00833335
0.00833335
0.00833335
0.00833335
0.00833335
0.00833335
0.00833335
0.00833335
0.00833335
0.00833335
0.00833335
0.00833335
0.00833335
0.00833335
0.00833335
0.00833335
0.00833335
0.00833335
0.00833335
0.00833335
0.00833335
0.00833335
0.00833335
0.00833335
0.00833335
0.00833335
0.00833335
0.00833335
0.00833335
0.00833335
0.0083337
0.00835833
0.00771389
0.00544665
0.000498491
0.000365675
0.000354993
0.000348649
0.000340225
0.000332483
0.000325598
0.000314753
0.000310263
0.000300921
0.000296147
0.000288135
0.000283979
0.000274919
0.000268091
0.000261787
0.000253713
0.000248971
0.000242182
0.000235026
0.000230088
0.000223494
0.000216802
0.000211977
0.000207033
0.000202095
0.000197154
0.000192213
0.000189123
0.00018711
0.00018401
0.000183203
0.00018606
0.000184128
0.00833335
0.00833335
0.00833335
0.00833335
0.00833335
0.00833335
0.00833335
0.00833335
0.00833335
0.00833335
0.00833335
0.00833335
0.00833335
0.00833335
0.00833335
0.00833335
0.00833335
0.00833335
0.00833335
0.00833335
0.00833335
0.00833335
0.00833335
0.00833335
0.00833335
0.00833335
0.00833335
0.00833335
0.00833335
0.00833335
0.00833335
0.00833335
0.00833335
0.00833335
0.00833335
0.00833335
0.00833335
0.00833335
0.00833335
0.00833335
0.00833335
0.00833335
0.00833335
0.00833335
0.00833335
0.00833335
0.00833335
0.00833335
0.00833335
0.00833335
0.00833335
0.00833335
0.00833335
0.00833335
0.00833335
0.00833335
0.00833335
0.00833335
0.00832982
0.00833702
0.00835043
0.00305775
0.0010139
0.000541354
0.000533063
0.000423114
0.000425646
0.000406282
0.000399372
0.000383742
0.000374997
0.000370043
0.000353587
0.000328889
0.000300893
0.000279491
0.000267959
0.00026136
0.000254013
0.000248425
0.000241634
0.000234234
0.000228901
0.000223938
0.000216549
0.000211966
0.000207035
0.000202343
0.000196457
0.000192213
0.000188928
0.000186715
0.00018462
0.000183975
0.00018398
0.000185627
0.00833335
0.00833335
0.00833335
0.00833335
0.00833335
0.00833335
0.00833335
0.00833335
0.00833335
0.00833335
0.00833335
0.00833335
0.00833335
0.00833335
0.00833335
0.00833335
0.00833335
0.00833335
0.00833335
0.00833335
0.00833335
0.00833335
0.00833335
0.00833335
0.00833335
0.00833335
0.00833335
0.00833335
0.00833335
0.00833335
0.00833335
0.00833335
0.00833335
0.00833335
0.00833335
0.00833335
0.00833335
0.00833335
0.00833335
0.00833335
0.00833335
0.00833335
0.00833335
0.00833335
0.00833335
0.00833335
0.00833335
0.00833335
0.00833335
0.00833335
0.00833335
0.00833335
0.00833335
0.00833335
0.00833335
0.00833335
0.00833335
0.00833335
0.00833328
0.00835318
0.00736765
0.00832538
0.00828302
0.00820027
0.00773606
0.0057143
0.00587667
0.00555341
0.00559866
0.00561082
0.00567093
0.00566793
0.0055892
0.00552261
0.00538938
0.00516887
0.00482268
0.00424135
0.00366978
0.00305267
0.00238248
0.00175813
0.0011679
0.000508708
0.000246553
0.000210779
0.000205859
0.000200875
0.000195649
0.000191982
0.00018892
0.000185627
0.000182328
0.000182325
0.000183989
0.00018398
0.00833335
0.00833335
0.00833335
0.00833335
0.00833335
0.00833335
0.00833335
0.00833335
0.00833335
0.00833335
0.00833335
0.00833335
0.00833335
0.00833335
0.00833335
0.00833335
0.00833335
0.00833335
0.00833335
0.00833335
0.00833335
0.00833335
0.00833335
0.00833335
0.00833335
0.00833335
0.00833335
0.00833335
0.00833335
0.00833335
0.00833335
0.00833335
0.00833335
0.00833335
0.00833335
0.00833335
0.00833335
0.00833335
0.00833335
0.00833335
0.00833335
0.00833335
0.00833335
0.00833335
0.00833335
0.00833335
0.00833335
0.00833335
0.00833335
0.00833335
0.00833335
0.00833335
0.00833335
0.00833335
0.00833335
0.00833335
0.00833335
0.00833335
0.00833335
0.00834621
0.0072729
0.00761436
0.00788909
0.00832664
0.00816508
0.00826274
0.00830602
0.00814885
0.00825728
0.00798685
0.00840119
0.00798673
0.008235
0.0082648
0.00833058
0.00817134
0.00827245
0.00823915
0.00797817
0.008175
0.00795524
0.00780646
0.0076151
0.007131
0.00661111
0.0054791
0.00487978
0.0036842
0.00163686
0.00067117
0.000190866
0.000185196
0.000184053
0.000180867
0.000180639
0.00018411
0.00833335
0.00833335
0.00833335
0.00833335
0.00833335
0.00833335
0.00833335
0.00833335
0.00833335
0.00833335
0.00833335
0.00833335
0.00833335
0.00833335
0.00833335
0.00833335
0.00833335
0.00833335
0.00833335
0.00833335
0.00833335
0.00833335
0.00833335
0.00833335
0.00833335
0.00833335
0.00833335
0.00833335
0.00833335
0.00833335
0.00833335
0.00833335
0.00833335
0.00833335
0.00833335
0.00833335
0.00833335
0.00833335
0.00833335
0.00833335
0.00833335
0.00833335
0.00833335
0.00833335
0.00833335
0.00833335
0.00833335
0.00833335
0.00833335
0.00833335
0.00833335
0.00833335
0.00833335
0.00833335
0.00833335
0.00833335
0.00833335
0.00833333
0.00833362
0.00833323
0.00833233
0.00922941
0.00592682
0.00833482
0.00817972
0.00792807
0.00829363
0.00717266
0.00801471
0.00770995
0.00801357
0.00780242
0.00827145
0.00775797
0.00816069
0.00782404
0.0089448
0.00713552
0.00822787
0.00838468
0.00779486
0.0085383
0.00826611
0.00828444
0.00823901
0.00782186
0.00798288
0.00846038
0.00803911
0.00711667
0.00631829
0.00599503
0.00608635
0.00486569
0.00419874
0.00617318
0.00833335
0.00833335
0.00833335
0.00833335
0.00833335
0.00833335
0.00833335
0.00833335
0.00833335
0.00833335
0.00833335
0.00833335
0.00833335
0.00833335
0.00833335
0.00833335
0.00833335
0.00833335
0.00833335
0.00833335
0.00833335
0.00833335
0.00833335
0.00833335
0.00833335
0.00833335
0.00833335
0.00833335
0.00833335
0.00833335
0.00833335
0.00833335
0.00833335
0.00833335
0.00833335
0.00833335
0.00833335
0.00833335
0.00833335
0.00833335
0.00833335
0.00833335
0.00833335
0.00833335
0.00833335
0.00833335
0.00833335
0.00833335
0.00833335
0.00833335
0.00833335
0.00833335
0.00833335
0.00833335
0.00833335
0.00833335
0.00833335
0.00833337
0.00833332
0.00833317
0.00831017
0.00839723
0.00834001
0.00828698
0.00833379
0.00819698
0.00796748
0.00888176
0.00809595
0.00841181
0.00816659
0.00831405
0.00832272
0.00833045
0.00834673
0.00834855
0.0081146
0.00834741
0.00832364
0.00831533
0.00831953
0.00831577
0.00829865
0.00828826
0.00829554
0.00824456
0.00828768
0.00817288
0.00798128
0.00827305
0.0078792
0.00755773
0.00780756
0.00721499
0.00762561
0.0081789
0.00833335
0.00833335
0.00833335
0.00833335
0.00833335
0.00833335
0.00833335
0.00833335
0.00833335
0.00833335
0.00833335
0.00833335
0.00833335
0.00833335
0.00833335
0.00833335
0.00833335
0.00833335
0.00833335
0.00833335
0.00833335
0.00833335
0.00833335
0.00833335
0.00833335
0.00833335
0.00833335
0.00833335
0.00833335
0.00833335
0.00833335
0.00833335
0.00833335
0.00833335
0.00833335
0.00833335
0.00833335
0.00833335
0.00833335
0.00833335
0.00833335
0.00833335
0.00833335
0.00833335
0.00833335
0.00833335
0.00833335
0.00833335
0.00833335
0.00833335
0.00833335
0.00833335
0.00833335
0.00833335
0.00833335
0.00833335
0.00833336
0.00833332
0.00833366
0.00833604
0.00797593
0.00788585
0.0077695
0.00761515
0.00826843
0.00715701
0.00765009
0.00808644
0.00804655
0.00790174
0.00771786
0.00842074
0.00758749
0.00849097
0.00778492
0.00819491
0.00829788
0.00832942
0.00811988
0.00802067
0.0082762
0.00801517
0.00800875
0.00823479
0.00807112
0.00845234
0.00812027
0.0084501
0.00798628
0.00835196
0.00822522
0.00814976
0.0082705
0.00830284
0.00682514
0.00681906
0.00833335
0.00833335
0.00833335
0.00833335
0.00833335
0.00833335
0.00833335
0.00833335
0.00833335
0.00833335
0.00833335
0.00833335
0.00833335
0.00833335
0.00833335
0.00833335
0.00833335
0.00833335
0.00833335
0.00833335
0.00833335
0.00833335
0.00833335
0.00833335
0.00833335
0.00833335
0.00833335
0.00833335
0.00833335
0.00833335
0.00833335
0.00833335
0.00833335
0.00833335
0.00833335
0.00833335
0.00833335
0.00833335
0.00833335
0.00833335
0.00833335
0.00833335
0.00833335
0.00833335
0.00833335
0.00833335
0.00833335
0.00833335
0.00833335
0.00833335
0.00833335
0.00833335
0.00833335
0.00833335
0.00833335
0.00833335
0.00833335
0.00833336
0.00833317
0.00833525
0.00826761
0.00831005
0.00732298
0.00829593
0.00822369
0.00755507
0.00739157
0.0072894
0.0070537
0.0070643
0.00687373
0.00684658
0.00641943
0.00649267
0.00615286
0.00586641
0.00553658
0.00508911
0.00473276
0.00432884
0.00385411
0.00359434
0.00331095
0.0035007
0.00352481
0.00367746
0.00379698
0.00365741
0.0038115
0.00381334
0.0037138
0.00343932
0.00361566
0.00344349
0.0030256
0.00243797
0.00833335
0.00833335
0.00833335
0.00833335
0.00833335
0.00833335
0.00833335
0.00833335
0.00833335
0.00833335
0.00833335
0.00833335
0.00833335
0.00833335
0.00833335
0.00833335
0.00833335
0.00833335
0.00833335
0.00833335
0.00833335
0.00833335
0.00833335
0.00833335
0.00833335
0.00833335
0.00833335
0.00833335
0.00833335
0.00833335
0.00833335
0.00833335
0.00833335
0.00833335
0.00833335
0.00833335
0.00833335
0.00833335
0.00833335
0.00833335
0.00833335
0.00833335
0.00833335
0.00833335
0.00833335
0.00833335
0.00833335
0.00833335
0.00833335
0.00833335
0.00833335
0.00833335
0.00833335
0.00833335
0.00833335
0.00833335
0.00833335
0.00833394
0.00831259
0.00833679
0.00833437
0.00784521
0.00710593
0.00611481
0.00602648
0.00531933
0.00531955
0.00470242
0.00425139
0.00384814
0.00330012
0.00288075
0.00247353
0.00214481
0.0017549
0.0016484
0.00157881
0.00155863
0.00153487
0.0015007
0.00148275
0.00146366
0.00143105
0.00142125
0.00139837
0.00142662
0.00142059
0.00137657
0.0013194
0.00121814
0.00108963
0.000851338
0.000314546
0.000189031
0.000183229
0.00018398
0.00833335
0.00833335
0.00833335
0.00833335
0.00833335
0.00833335
0.00833335
0.00833335
0.00833335
0.00833335
0.00833335
0.00833335
0.00833335
0.00833335
0.00833335
0.00833335
0.00833335
0.00833335
0.00833335
0.00833335
0.00833335
0.00833335
0.00833335
0.00833335
0.00833335
0.00833335
0.00833335
0.00833335
0.00833335
0.00833335
0.00833335
0.00833335
0.00833335
0.00833335
0.00833335
0.00833335
0.00833335
0.00833335
0.00833335
0.00833335
0.00833335
0.00833335
0.00833335
0.00833335
0.00833335
0.00833335
0.00833335
0.00833335
0.00833335
0.00833335
0.00833335
0.00833335
0.00833335
0.00833335
0.00833335
0.00833335
0.00833335
0.00833334
0.00833397
0.00835212
0.00833101
0.00271137
0.000998791
0.000516819
0.000504537
0.000473977
0.000447071
0.000414687
0.000390435
0.000358211
0.000333827
0.000333691
0.000320494
0.000291018
0.00028278
0.000276193
0.0002696
0.000261376
0.000254782
0.000248149
0.000241605
0.000234287
0.000230858
0.000223494
0.000216913
0.000211974
0.000207039
0.000200451
0.000197153
0.000192674
0.000188378
0.000185627
0.000182355
0.00018397
0.000183983
0.000185627
0.00833335
0.00833335
0.00833335
0.00833335
0.00833335
0.00833335
0.00833335
0.00833335
0.00833335
0.00833335
0.00833335
0.00833335
0.00833335
0.00833335
0.00833335
0.00833335
0.00833335
0.00833335
0.00833335
0.00833335
0.00833335
0.00833335
0.00833335
0.00833335
0.00833335
0.00833335
0.00833335
0.00833335
0.00833335
0.00833335
0.00833335
0.00833335
0.00833335
0.00833335
0.00833335
0.00833335
0.00833335
0.00833335
0.00833335
0.00833335
0.00833335
0.00833335
0.00833335
0.00833335
0.00833335
0.00833335
0.00833335
0.00833335
0.00833335
0.00833335
0.00833335
0.00833335
0.00833335
0.00833335
0.00833335
0.00833335
0.00833335
0.00833335
0.00833333
0.0083384
0.00833502
0.00297671
0.000691138
0.000365103
0.000356877
0.000348647
0.00034206
0.000333819
0.00032724
0.000316652
0.000313332
0.00030254
0.0002976
0.000289367
0.000282767
0.000274568
0.000268017
0.000260154
0.000254945
0.0002482
0.000241602
0.000235002
0.000230144
0.000222896
0.000217133
0.000212456
0.000207034
0.000201093
0.00019718
0.000192242
0.000188916
0.000187274
0.00018398
0.00018398
0.000185627
0.000185627
0.00833335
0.00833335
0.00833335
0.00833335
0.00833335
0.00833335
0.00833335
0.00833335
0.00833335
0.00833335
0.00833335
0.00833335
0.00833335
0.00833335
0.00833335
0.00833335
0.00833335
0.00833335
0.00833335
0.00833335
0.00833335
0.00833335
0.00833335
0.00833335
0.00833335
0.00833335
0.00833335
0.00833335
0.00833335
0.00833335
0.00833335
0.00833335
0.00833335
0.00833335
0.00833335
0.00833335
0.00833335
0.00833335
0.00833335
0.00833335
0.00833335
0.00833335
0.00833335
0.00833335
0.00833335
0.00833335
0.00833335
0.00833335
0.00833335
0.00833335
0.00833335
0.00833335
0.00833335
0.00833335
0.00833335
0.00833335
0.00833335
0.00833335
0.00833335
0.00832833
0.00833337
0.00698845
0.000480394
0.000365114
0.00035688
0.000348605
0.000342128
0.000333813
0.000325598
0.000317357
0.000310777
0.00030254
0.000295997
0.000289367
0.000282243
0.000276087
0.000267458
0.000260505
0.000253928
0.0002482
0.000241611
0.00023523
0.000229152
0.000224748
0.000216885
0.000211931
0.000206983
0.000202092
0.000197154
0.00019219
0.000188841
0.000187083
0.000184348
0.00018398
0.000185627
0.000185627
0.00833335
0.00833335
0.00833335
0.00833335
0.00833335
0.00833335
0.00833335
0.00833335
0.00833335
0.00833335
0.00833335
0.00833335
0.00833335
0.00833335
0.00833335
0.00833335
0.00833335
0.00833335
0.00833335
0.00833335
0.00833335
0.00833335
0.00833335
0.00833335
0.00833335
0.00833335
0.00833335
0.00833335
0.00833335
0.00833335
0.00833335
0.00833335
0.00833335
0.00833335
0.00833335
0.00833335
0.00833335
0.00833335
0.00833335
0.00833335
0.00833335
0.00833335
0.00833335
0.00833335
0.00833335
0.00833335
0.00833335
0.00833335
0.00833335
0.00833335
0.00833335
0.00833335
0.00833335
0.00833335
0.00833335
0.00833335
0.00833335
0.00833335
0.00833277
0.00830073
0.0090945
0.00757872
0.000486951
0.000363451
0.00035704
0.0003485
0.000342041
0.000333828
0.000325589
0.000316731
0.000312811
0.000304187
0.000297518
0.000289368
0.00028278
0.000276194
0.000269945
0.000263035
0.00025293
0.000249343
0.000241601
0.000234528
0.000230423
0.00022353
0.000217058
0.000209773
0.000207878
0.000201393
0.000196713
0.000192349
0.000188459
0.00018781
0.000183899
0.00018398
0.000185628
0.000185627
0.00833335
0.00833335
0.00833335
0.00833335
0.00833335
0.00833335
0.00833335
0.00833335
0.00833335
0.00833335
0.00833335
0.00833335
0.00833335
0.00833335
0.00833335
0.00833335
0.00833335
0.00833335
0.00833335
0.00833335
0.00833335
0.00833335
0.00833335
0.00833335
0.00833335
0.00833335
0.00833335
0.00833335
0.00833335
0.00833335
0.00833335
0.00833335
0.00833335
0.00833335
0.00833335
0.00833335
0.00833335
0.00833335
0.00833335
0.00833335
0.00833335
0.00833335
0.00833335
0.00833335
0.00833335
0.00833335
0.00833335
0.00833335
0.00833335
0.00833335
0.00833335
0.00833335
0.00833335
0.00833335
0.00833335
0.00833335
0.00833335
0.00833333
0.00832938
0.00833753
0.00833741
0.00799735
0.00498957
0.000363687
0.000356656
0.000348644
0.000342339
0.000331902
0.000325653
0.000319007
0.000310797
0.000304202
0.000298551
0.000289136
0.000283229
0.00027643
0.000267783
0.000261372
0.000254787
0.00024884
0.000241098
0.000235026
0.000230031
0.000223244
0.000216916
0.000211978
0.000206299
0.000202866
0.000197201
0.000192214
0.000188921
0.00018735
0.000183988
0.00018398
0.000185595
0.000185655
0.00833335
0.00833335
0.00833335
0.00833335
0.00833335
0.00833335
0.00833335
0.00833335
0.00833335
0.00833335
0.00833335
0.00833335
0.00833335
0.00833335
0.00833335
0.00833335
0.00833335
0.00833335
0.00833335
0.00833335
0.00833335
0.00833335
0.00833335
0.00833335
0.00833335
0.00833335
0.00833335
0.00833335
0.00833335
0.00833335
0.00833335
0.00833335
0.00833335
0.00833335
0.00833335
0.00833335
0.00833335
0.00833335
0.00833335
0.00833335
0.00833335
0.00833335
0.00833335
0.00833335
0.00833335
0.00833335
0.00833335
0.00833335
0.00833335
0.00833335
0.00833335
0.00833335
0.00833335
0.00833335
0.00833335
0.00833335
0.00833335
0.00833295
0.00833359
0.00833179
0.00833324
0.00833335
0.00683323
0.000363463
0.000355236
0.000349159
0.00033936
0.000332985
0.000325476
0.000317343
0.000310622
0.00030257
0.000295956
0.000289365
0.000283289
0.000274673
0.00026796
0.000261387
0.000254786
0.000248199
0.000241441
0.000235276
0.000230087
0.000223939
0.00021611
0.000212669
0.000207033
0.000202114
0.000197457
0.000192089
0.000188772
0.000187342
0.000183981
0.00018398
0.00018398
0.00018398
0.00833335
0.00833335
0.00833335
0.00833335
0.00833335
0.00833335
0.00833335
0.00833335
0.00833335
0.00833335
0.00833335
0.00833335
0.00833335
0.00833335
0.00833335
0.00833335
0.00833335
0.00833335
0.00833335
0.00833335
0.00833335
0.00833335
0.00833335
0.00833335
0.00833335
0.00833335
0.00833335
0.00833335
0.00833335
0.00833335
0.00833335
0.00833335
0.00833335
0.00833335
0.00833335
0.00833335
0.00833335
0.00833335
0.00833335
0.00833335
0.00833335
0.00833335
0.00833335
0.00833335
0.00833335
0.00833335
0.00833335
0.00833335
0.00833335
0.00833335
0.00833335
0.00833335
0.00833335
0.00833335
0.00833335
0.00833335
0.00833335
0.00833334
0.00833345
0.00833347
0.00842297
0.00832147
0.000631469
0.000365118
0.000355979
0.000348567
0.000341304
0.000332387
0.000327125
0.000317393
0.000311
0.000304187
0.000295954
0.000289367
0.000283534
0.00027549
0.000269607
0.000261373
0.000254758
0.000248214
0.000241613
0.000236678
0.000230088
0.000224101
0.000217663
0.000211974
0.000207033
0.000202093
0.000197154
0.000192213
0.00018892
0.000187274
0.000184314
0.000184245
0.000185792
0.000183954
0.00833335
0.00833335
0.00833335
0.00833335
0.00833335
0.00833335
0.00833335
0.00833335
0.00833335
0.00833335
0.00833335
0.00833335
0.00833335
0.00833335
0.00833335
0.00833335
0.00833335
0.00833335
0.00833335
0.00833335
0.00833335
0.00833335
0.00833335
0.00833335
0.00833335
0.00833335
0.00833335
0.00833335
0.00833335
0.00833335
0.00833335
0.00833335
0.00833335
0.00833335
0.00833335
0.00833335
0.00833335
0.00833335
0.00833335
0.00833335
0.00833335
0.00833335
0.00833335
0.00833335
0.00833335
0.00833335
0.00833335
0.00833335
0.00833335
0.00833335
0.00833335
0.00833335
0.00833335
0.00833335
0.00833335
0.00833335
0.00833335
0.00833335
0.00833794
0.00832842
0.00826679
0.00112039
0.00148994
0.000384881
0.000368289
0.000355234
0.000350292
0.000333827
0.000326774
0.000318922
0.000312984
0.000304188
0.0002976
0.000289264
0.000283929
0.000274872
0.000269606
0.00026378
0.000254115
0.000248893
0.000242456
0.00023616
0.000229145
0.000224045
0.000218756
0.000211809
0.000207033
0.000202089
0.000197279
0.000191778
0.000188809
0.000187268
0.000183763
0.000184185
0.000185626
0.000185627
0.00833335
0.00833335
0.00833335
0.00833335
0.00833335
0.00833335
0.00833335
0.00833335
0.00833335
0.00833335
0.00833335
0.00833335
0.00833335
0.00833335
0.00833335
0.00833335
0.00833335
0.00833335
0.00833335
0.00833335
0.00833335
0.00833335
0.00833335
0.00833335
0.00833335
0.00833335
0.00833335
0.00833335
0.00833335
0.00833335
0.00833335
0.00833335
0.00833335
0.00833335
0.00833335
0.00833335
0.00833335
0.00833335
0.00833335
0.00833335
0.00833335
0.00833335
0.00833335
0.00833335
0.00833335
0.00833335
0.00833335
0.00833335
0.00833335
0.00833335
0.00833335
0.00833335
0.00833335
0.00833335
0.00833335
0.00833335
0.00833335
0.00833335
0.00833333
0.00834781
0.00782582
0.00185889
0.00806126
0.00196443
0.00310842
0.00170414
0.00181553
0.00176837
0.00175643
0.00171704
0.00168904
0.00163523
0.00153361
0.0014515
0.00135987
0.0012022
0.00106136
0.000957242
0.000834807
0.000690162
0.000536314
0.000361712
0.00026137
0.000223668
0.000215728
0.000212628
0.000207018
0.00020316
0.000196271
0.000191813
0.000189126
0.000185874
0.000182369
0.000183986
0.000183945
0.000185663
0.00833335
0.00833335
0.00833335
0.00833335
0.00833335
0.00833335
0.00833335
0.00833335
0.00833335
0.00833335
0.00833335
0.00833335
0.00833335
0.00833335
0.00833335
0.00833335
0.00833335
0.00833335
0.00833335
0.00833335
0.00833335
0.00833335
0.00833335
0.00833335
0.00833335
0.00833335
0.00833335
0.00833335
0.00833335
0.00833335
0.00833335
0.00833335
0.00833335
0.00833335
0.00833335
0.00833335
0.00833335
0.00833335
0.00833335
0.00833335
0.00833335
0.00833335
0.00833335
0.00833335
0.00833335
0.00833335
0.00833335
0.00833335
0.00833335
0.00833335
0.00833335
0.00833335
0.00833335
0.00833335
0.00833335
0.00833335
0.00833335
0.00833335
0.00833334
0.00834086
0.00733463
0.00763861
0.00829305
0.00826964
0.00824682
0.008288
0.00836257
0.00812201
0.00800693
0.00779011
0.00778041
0.00774729
0.00780275
0.00785738
0.00767541
0.00751856
0.0075147
0.00738415
0.00707386
0.00645558
0.00571976
0.00488447
0.00421205
0.0033852
0.00252885
0.00169863
0.000892057
0.00025979
0.000210375
0.000197599
0.000188932
0.000187276
0.000183949
0.000182351
0.000183988
0.00018398
0.00833335
0.00833335
0.00833335
0.00833335
0.00833335
0.00833335
0.00833335
0.00833335
0.00833335
0.00833335
0.00833335
0.00833335
0.00833335
0.00833335
0.00833335
0.00833335
0.00833335
0.00833335
0.00833335
0.00833335
0.00833335
0.00833335
0.00833335
0.00833335
0.00833335
0.00833335
0.00833335
0.00833335
0.00833335
0.00833335
0.00833335
0.00833335
0.00833335
0.00833335
0.00833335
0.00833335
0.00833335
0.00833335
0.00833335
0.00833335
0.00833335
0.00833335
0.00833335
0.00833335
0.00833335
0.00833335
0.00833335
0.00833335
0.00833335
0.00833335
0.00833335
0.00833335
0.00833335
0.00833335
0.00833335
0.00833335
0.00833335
0.00833335
0.00833337
0.00832066
0.00959793
0.00830365
0.00833433
0.00881341
0.00708483
0.00832709
0.00788552
0.00847207
0.0083663
0.00824808
0.00830812
0.00777483
0.00861264
0.00834311
0.00833501
0.0092461
0.00677126
0.00914595
0.00722847
0.00858253
0.00894395
0.00833022
0.00780206
0.00846752
0.00720632
0.00825869
0.00752038
0.00746312
0.00619003
0.00492225
0.00340875
0.00177575
0.00018637
0.000180152
0.00018387
0.000184074
0.00833335
0.00833335
0.00833335
0.00833335
0.00833335
0.00833335
0.00833335
0.00833335
0.00833335
0.00833335
0.00833335
0.00833335
0.00833335
0.00833335
0.00833335
0.00833335
0.00833335
0.00833335
0.00833335
0.00833335
0.00833335
0.00833335
0.00833335
0.00833335
0.00833335
0.00833335
0.00833335
0.00833335
0.00833335
0.00833335
0.00833335
0.00833335
0.00833335
0.00833335
0.00833335
0.00833335
0.00833335
0.00833335
0.00833335
0.00833335
0.00833335
0.00833335
0.00833335
0.00833335
0.00833335
0.00833335
0.00833335
0.00833335
0.00833335
0.00833335
0.00833335
0.00833335
0.00833335
0.00833335
0.00833335
0.00833335
0.00833335
0.00833336
0.00833334
0.00829147
0.00917218
0.0082841
0.00830118
0.00831543
0.00832326
0.00832596
0.00832633
0.00826898
0.00814367
0.00859782
0.00820559
0.00832096
0.00828642
0.00814158
0.00851188
0.00833641
0.00832411
0.00831432
0.00835411
0.00825631
0.00827193
0.00832798
0.00819204
0.00778418
0.00870676
0.00832874
0.00832542
0.0083115
0.00824553
0.00711993
0.00828606
0.00827238
0.00833331
0.00840557
0.00832634
0.00822733
0.00833335
0.00833335
0.00833335
0.00833335
0.00833335
0.00833335
0.00833335
0.00833335
0.00833335
0.00833335
0.00833335
0.00833335
0.00833335
0.00833335
0.00833335
0.00833335
0.00833335
0.00833335
0.00833335
0.00833335
0.00833335
0.00833335
0.00833335
0.00833335
0.00833335
0.00833335
0.00833335
0.00833335
0.00833335
0.00833335
0.00833335
0.00833335
0.00833335
0.00833335
0.00833335
0.00833335
0.00833335
0.00833335
0.00833335
0.00833335
0.00833335
0.00833335
0.00833335
0.00833335
0.00833335
0.00833335
0.00833335
0.00833335
0.00833335
0.00833335
0.00833335
0.00833335
0.00833335
0.00833335
0.00833335
0.00833335
0.00833335
0.00833312
0.00833355
0.00829697
0.00873362
0.00838573
0.00806167
0.0083666
0.00817209
0.00834441
0.00833467
0.00822517
0.00826082
0.00827352
0.00835498
0.00829085
0.00833615
0.00832877
0.00832866
0.00833412
0.00833566
0.00833069
0.00833399
0.0083363
0.0083193
0.00830625
0.00832599
0.00830021
0.00831942
0.00833179
0.00831676
0.00832271
0.00837891
0.00832376
0.00834008
0.0083533
0.0083983
0.00821162
0.00835955
0.00833333
0.00833335
0.00833335
0.00833335
0.00833335
0.00833335
0.00833335
0.00833335
0.00833335
0.00833335
0.00833335
0.00833335
0.00833335
0.00833335
0.00833335
0.00833335
0.00833335
0.00833335
0.00833335
0.00833335
0.00833335
0.00833335
0.00833335
0.00833335
0.00833335
0.00833335
0.00833335
0.00833335
0.00833335
0.00833335
0.00833335
0.00833335
0.00833335
0.00833335
0.00833335
0.00833335
0.00833335
0.00833335
0.00833335
0.00833335
0.00833335
0.00833335
0.00833335
0.00833335
0.00833335
0.00833335
0.00833335
0.00833335
0.00833335
0.00833335
0.00833335
0.00833335
0.00833335
0.00833335
0.00833335
0.00833335
0.00833335
0.00833335
0.00833334
0.00833316
0.00832854
0.00760353
0.00888899
0.00796136
0.00814364
0.0082597
0.00832752
0.00833883
0.00828368
0.00831975
0.00837801
0.00835426
0.00821279
0.00829052
0.00833315
0.00827027
0.00833056
0.00807114
0.00813116
0.00811418
0.00830635
0.00831457
0.00833416
0.00827759
0.00832186
0.00826063
0.00788629
0.00849167
0.00833138
0.00818321
0.00834448
0.00827984
0.00838334
0.00833332
0.00833337
0.00833197
0.00833365
0.00833335
0.00833335
0.00833335
0.00833335
0.00833335
0.00833335
0.00833335
0.00833335
0.00833335
0.00833335
0.00833335
0.00833335
0.00833335
0.00833335
0.00833335
0.00833335
0.00833335
0.00833335
0.00833335
0.00833335
0.00833335
0.00833335
0.00833335
0.00833335
0.00833335
0.00833335
0.00833335
0.00833335
0.00833335
0.00833335
0.00833335
0.00833335
0.00833335
0.00833335
0.00833335
0.00833335
0.00833335
0.00833335
0.00833335
0.00833335
0.00833335
0.00833335
0.00833335
0.00833335
0.00833335
0.00833335
0.00833335
0.00833335
0.00833335
0.00833335
0.00833335
0.00833335
0.00833335
0.00833335
0.00833335
0.00833335
0.00833335
0.00833335
0.00833334
0.00833005
0.00864377
0.0084784
0.00831444
0.00843766
0.00830317
0.00830101
0.00834173
0.00814938
0.00840617
0.00813801
0.00802379
0.00791756
0.00814128
0.00801994
0.00819646
0.00828608
0.00825783
0.0083138
0.00841481
0.00838919
0.0082923
0.00814085
0.00842964
0.00825247
0.00821331
0.00824059
0.0081227
0.00688038
0.00629691
0.00502729
0.00449532
0.00427817
0.00430802
0.00417785
0.00381989
0.00179288
0.00833335
0.00833335
0.00833335
0.00833335
0.00833335
0.00833335
0.00833335
0.00833335
0.00833335
0.00833335
0.00833335
0.00833335
0.00833335
0.00833335
0.00833335
0.00833335
0.00833335
0.00833335
0.00833335
0.00833335
0.00833335
0.00833335
0.00833335
0.00833335
0.00833335
0.00833335
0.00833335
0.00833335
0.00833335
0.00833335
0.00833335
0.00833335
0.00833335
0.00833335
0.00833335
0.00833335
0.00833335
0.00833335
0.00833335
0.00833335
0.00833335
0.00833335
0.00833335
0.00833335
0.00833335
0.00833335
0.00833335
0.00833335
0.00833335
0.00833335
0.00833335
0.00833335
0.00833335
0.00833335
0.00833335
0.00833335
0.00833335
0.00833334
0.00833299
0.00833323
0.00831675
0.00134623
0.00773749
0.00355933
0.00410794
0.00310343
0.00276162
0.00220249
0.00189067
0.00151457
0.00127
0.00111991
0.00110875
0.0010963
0.00109766
0.00109933
0.00110445
0.00110113
0.00109822
0.00108573
0.00109885
0.00108095
0.00107202
0.0010505
0.000989507
0.000880274
0.000695303
0.000506007
0.000370697
0.000201422
0.000188923
0.000187368
0.000183941
0.00018563
0.000183991
0.000185627
0.00833335
0.00833335
0.00833335
0.00833335
0.00833335
0.00833335
0.00833335
0.00833335
0.00833335
0.00833335
0.00833335
0.00833335
0.00833335
0.00833335
0.00833335
0.00833335
0.00833335
0.00833335
0.00833335
0.00833335
0.00833335
0.00833335
0.00833335
0.00833335
0.00833335
0.00833335