/*--------------------------------*- C++ -*----------------------------------*\
| =========                 |                                                 |
| \\      /  F ield         | OpenFOAM: The Open Source CFD Toolbox           |
|  \\    /   O peration     | Version:  2.3.0                                 |
|   \\  /    A nd           | Web:      www.OpenFOAM.org                      |
|    \\/     M anipulation  |                                                 |
\*---------------------------------------------------------------------------*/
FoamFile
{
    version     2.0;
    format      ascii;
    class       volScalarField;
    location    "25";
    object      epsilon.water;
}
// * * * * * * * * * * * * * * * * * * * * * * * * * * * * * * * * * * * * * //

dimensions      [0 2 -3 0 0 0 0];

internalField   nonuniform List<scalar> 
6144
(
4.86019e-05
3.32843e-05
1.95188e-05
1.61107e-05
1.11257e-05
9.46837e-06
7.24198e-06
5.57271e-06
4.85182e-06
5.70184e-06
6.94361e-06
8.30903e-06
9.01874e-06
9.29188e-06
8.80811e-06
8.49224e-06
7.91507e-06
7.74823e-06
7.64944e-06
7.62923e-06
7.64019e-06
7.68484e-06
7.73422e-06
7.78535e-06
7.83502e-06
7.88656e-06
7.93757e-06
7.98351e-06
8.0227e-06
8.05162e-06
8.08363e-06
8.08738e-06
8.15194e-06
8.12142e-06
8.29774e-06
8.20704e-06
8.47749e-06
8.34974e-06
8.74282e-06
8.70097e-06
9.17316e-06
9.38575e-06
9.53e-06
1.00088e-05
9.29063e-06
9.44495e-06
8.73087e-06
8.87683e-06
9.19566e-06
1.05914e-05
1.69621e-05
3.44227e-05
0.000143015
0.000408859
0.000838839
0.00123492
0.00215827
0.00453586
0.0139527
0.0245258
0.0796846
0.0429472
0.0251496
0.0155318
0.0108213
0.00831348
0.00675491
0.005665
0.00484011
0.00418446
0.0036507
0.00320927
0.00284142
0.00253157
0.00227223
0.0020551
0.001873
0.00171667
0.00158278
0.00146287
0.0013504
0.00124485
0.00114021
0.00103079
0.000911129
0.000778865
0.000611142
0.000398193
0.000204944
8.89166e-05
4.65579e-05
3.49656e-05
3.25277e-05
3.90406e-05
4.61759e-05
4.77974e-05
0.000120606
7.30514e-05
4.21494e-05
3.45289e-05
2.43247e-05
2.32258e-05
2.0607e-05
1.75259e-05
1.61032e-05
1.77052e-05
1.92871e-05
2.10701e-05
2.23605e-05
2.28269e-05
2.21407e-05
2.15786e-05
2.08621e-05
2.09737e-05
2.1199e-05
2.15264e-05
2.18662e-05
2.22145e-05
2.25125e-05
2.27872e-05
2.30373e-05
2.32834e-05
2.35256e-05
2.37504e-05
2.39552e-05
2.4125e-05
2.42829e-05
2.43537e-05
2.46368e-05
2.45768e-05
2.50957e-05
2.48491e-05
2.55534e-05
2.51521e-05
2.59779e-05
2.57043e-05
2.6323e-05
2.64944e-05
2.63389e-05
2.671e-05
2.60225e-05
2.7362e-05
2.78255e-05
3.03639e-05
3.23179e-05
3.30782e-05
3.89312e-05
9.49267e-05
0.00051535
0.0016555
0.00297123
0.00344127
0.00578271
0.00925406
0.016343
0.0196018
0.0447292
0.0126858
0.00640693
0.00482288
0.00417716
0.00376897
0.00344227
0.00314686
0.00287057
0.00260606
0.00236094
0.00213469
0.00193906
0.00178424
0.00166254
0.00155923
0.00146619
0.00137717
0.00128842
0.00119857
0.00110505
0.00100715
0.000910417
0.000817051
0.000721981
0.00062861
0.000509822
0.000341106
0.000191104
0.000100218
6.37192e-05
5.28753e-05
5.23786e-05
6.04402e-05
6.04046e-05
5.7563e-05
0.000173842
0.000117568
6.73627e-05
5.23249e-05
3.71768e-05
3.57873e-05
3.21946e-05
2.67135e-05
2.54006e-05
2.5653e-05
2.64215e-05
2.64097e-05
2.65731e-05
2.66011e-05
2.64547e-05
2.6412e-05
2.69015e-05
2.76737e-05
2.84563e-05
2.92676e-05
3.00113e-05
3.06726e-05
3.1209e-05
3.1674e-05
3.20808e-05
3.24639e-05
3.2831e-05
3.31734e-05
3.34918e-05
3.37742e-05
3.40292e-05
3.41893e-05
3.44023e-05
3.44066e-05
3.46864e-05
3.44977e-05
3.48085e-05
3.43307e-05
3.45368e-05
3.38838e-05
3.3905e-05
3.35806e-05
3.38389e-05
3.44675e-05
3.60012e-05
3.9371e-05
4.23366e-05
4.98598e-05
5.49788e-05
6.60551e-05
7.47334e-05
0.000214853
0.00103713
0.00355664
0.00550874
0.00539614
0.00691318
0.00928228
0.0100691
0.0104501
0.0300781
0.00502824
0.00358306
0.00350814
0.00328427
0.00296284
0.00266766
0.0024087
0.00214944
0.00199279
0.00188973
0.00181563
0.00175316
0.00170016
0.00164066
0.00156326
0.00146947
0.00136665
0.00125815
0.00115242
0.0010536
0.000950007
0.000846962
0.000756724
0.000657752
0.000525169
0.000382357
0.000267184
0.000184115
0.000125598
9.76723e-05
8.71878e-05
8.78004e-05
0.000104595
9.44694e-05
7.99569e-05
0.000251397
0.000175534
0.000108428
8.64102e-05
5.31666e-05
4.50666e-05
3.08307e-05
2.50215e-05
2.60256e-05
2.71911e-05
2.82913e-05
2.77226e-05
2.76221e-05
2.74167e-05
2.7401e-05
2.75007e-05
2.79953e-05
2.8798e-05
2.96696e-05
3.05941e-05
3.14387e-05
3.2158e-05
3.27202e-05
3.31712e-05
3.35505e-05
3.3894e-05
3.42146e-05
3.45113e-05
3.47864e-05
3.50305e-05
3.5245e-05
3.53905e-05
3.55477e-05
3.5542e-05
3.57141e-05
3.55352e-05
3.56815e-05
3.52559e-05
3.52702e-05
3.46732e-05
3.4575e-05
3.45037e-05
3.49115e-05
3.66214e-05
3.844e-05
4.21809e-05
4.52382e-05
5.23139e-05
5.97745e-05
9.88957e-05
0.00015572
0.000764605
0.0042186
0.00856347
0.00847399
0.00801746
0.00639377
0.0100663
0.00563229
0.00543407
0.0198069
0.00331982
0.00236781
0.00232797
0.00250359
0.00204786
0.00182835
0.00177735
0.00177331
0.00178825
0.00181307
0.00182999
0.00180841
0.00173381
0.00162263
0.00148861
0.00133377
0.00118567
0.0010344
0.000889152
0.000761832
0.000657027
0.000574674
0.000504673
0.000434023
0.000368668
0.000312655
0.000261475
0.000211032
0.000173281
0.000149305
0.000127674
0.000110293
0.000126007
0.000124154
0.000103901
0.000309381
0.000221099
0.000161063
0.000147877
8.74382e-05
7.23649e-05
3.66223e-05
2.69702e-05
2.71298e-05
2.71714e-05
2.82612e-05
2.71018e-05
2.67925e-05
2.64216e-05
2.64981e-05
2.66829e-05
2.7334e-05
2.82633e-05
2.93757e-05
3.05733e-05
3.15943e-05
3.23753e-05
3.29471e-05
3.33644e-05
3.36824e-05
3.39419e-05
3.41604e-05
3.43515e-05
3.45242e-05
3.46733e-05
3.47967e-05
3.4872e-05
3.49348e-05
3.48586e-05
3.48903e-05
3.46351e-05
3.45895e-05
3.40918e-05
3.38507e-05
3.33332e-05
3.30736e-05
3.33902e-05
3.41608e-05
3.62962e-05
3.91494e-05
4.25176e-05
4.59073e-05
5.18674e-05
6.1347e-05
0.000123789
0.000385406
0.00208344
0.00822998
0.0105642
0.0103574
0.0103063
0.0107349
0.0101087
0.00380114
0.00362681
0.0129428
0.00280983
0.00231243
0.00212173
0.00207103
0.00203176
0.0021182
0.00217384
0.00222684
0.00223677
0.00219826
0.00207638
0.00193665
0.00180169
0.00168782
0.00158805
0.00148541
0.00135604
0.00120898
0.00104218
0.000888839
0.000767843
0.0006745
0.000603251
0.000548295
0.000507313
0.000467764
0.000429232
0.000376546
0.00031653
0.000253907
0.000198421
0.000146112
0.000139406
0.000140454
0.000129611
0.000336627
0.000243461
0.000189246
0.000192361
0.000135167
0.000107116
6.08538e-05
3.85543e-05
3.05191e-05
2.80278e-05
2.7622e-05
2.59668e-05
2.55168e-05
2.4781e-05
2.48688e-05
2.50668e-05
2.61263e-05
2.74114e-05
2.89328e-05
3.0254e-05
3.13196e-05
3.20802e-05
3.25955e-05
3.29171e-05
3.31137e-05
3.32404e-05
3.33266e-05
3.33858e-05
3.34223e-05
3.34347e-05
3.3434e-05
3.34083e-05
3.33648e-05
3.32246e-05
3.31579e-05
3.2845e-05
3.26609e-05
3.21207e-05
3.17343e-05
3.12606e-05
3.09919e-05
3.13873e-05
3.2396e-05
3.44301e-05
3.77978e-05
4.03689e-05
4.41289e-05
4.79273e-05
5.6548e-05
0.000147306
0.000875709
0.00512123
0.010437
0.0105873
0.0108342
0.0113976
0.0114899
0.00975155
0.00333396
0.0032067
0.00826945
0.00259225
0.00249834
0.00258927
0.00256641
0.00252387
0.00245746
0.00234096
0.00221763
0.00206233
0.00192671
0.0018248
0.00176485
0.00172142
0.00170903
0.00169329
0.00169084
0.00168025
0.00165587
0.00159785
0.00152273
0.00142644
0.00130889
0.0011707
0.0010298
0.000898902
0.000741671
0.000605204
0.000480639
0.000368278
0.00027738
0.000209717
0.000155663
0.000132877
0.000134622
0.000137235
0.00024165
0.000236501
0.0001942
0.000198622
0.000159255
0.000122559
8.51477e-05
5.59997e-05
3.74385e-05
2.96328e-05
2.66769e-05
2.30935e-05
2.19772e-05
2.12425e-05
2.14907e-05
2.16216e-05
2.27051e-05
2.384e-05
2.53622e-05
2.66968e-05
2.78874e-05
2.87506e-05
2.93192e-05
2.96214e-05
2.97418e-05
2.97403e-05
2.9665e-05
2.95363e-05
2.93834e-05
2.92305e-05
2.90585e-05
2.88859e-05
2.86471e-05
2.83773e-05
2.80287e-05
2.7721e-05
2.7214e-05
2.68832e-05
2.61585e-05
2.60057e-05
2.57255e-05
2.64911e-05
2.79621e-05
2.97152e-05
3.30399e-05
3.42139e-05
3.62322e-05
3.76523e-05
4.14138e-05
0.000103104
0.000602154
0.00411484
0.00931823
0.00928344
0.00917323
0.0107252
0.0126879
0.0133635
0.00395903
0.00383836
0.00619696
0.00238938
0.00223646
0.00218407
0.00209368
0.00198257
0.00186545
0.00173451
0.00162332
0.00151496
0.00145949
0.00139484
0.00137004
0.0013595
0.00137439
0.00139916
0.00147196
0.00153827
0.00159506
0.00162801
0.0016415
0.00163874
0.00161225
0.00155632
0.00149105
0.00136998
0.00117347
0.000936679
0.000662966
0.000419583
0.000293895
0.000219534
0.000164999
0.000132467
0.000133686
0.000144106
0.000149087
0.000170383
0.000139608
0.000146323
0.000151589
0.000123831
9.19065e-05
6.35753e-05
4.43063e-05
3.15549e-05
2.59931e-05
2.10505e-05
2.00871e-05
1.87215e-05
1.87292e-05
1.87907e-05
2.03761e-05
2.18968e-05
2.3757e-05
2.52835e-05
2.65462e-05
2.742e-05
2.80135e-05
2.83511e-05
2.85155e-05
2.85593e-05
2.8517e-05
2.84061e-05
2.82412e-05
2.80559e-05
2.78466e-05
2.7628e-05
2.73176e-05
2.69941e-05
2.65446e-05
2.62477e-05
2.5595e-05
2.52684e-05
2.44808e-05
2.43248e-05
2.39944e-05
2.46014e-05
2.57572e-05
2.72327e-05
2.98003e-05
3.09732e-05
3.23295e-05
3.2681e-05
3.22448e-05
6.03197e-05
0.000273784
0.00180825
0.00606
0.00808498
0.00817648
0.0104743
0.0138716
0.017057
0.00419327
0.00403858
0.00506771
0.00248533
0.00239981
0.0023049
0.00223015
0.00209695
0.00200725
0.00183796
0.00172617
0.00154355
0.00142852
0.00126068
0.00113176
0.000970748
0.000883533
0.000800002
0.000776441
0.000777746
0.000821517
0.000850233
0.000864325
0.000860335
0.000843607
0.000825506
0.000780406
0.000719429
0.000634384
0.000520099
0.000392536
0.000292596
0.000240444
0.000199118
0.000171175
0.00016459
0.000176404
0.000277783
0.000109135
0.000115454
7.60302e-05
7.54725e-05
8.0789e-05
7.83147e-05
7.41806e-05
5.89711e-05
4.61869e-05
3.24912e-05
2.44927e-05
1.85957e-05
1.59387e-05
1.33735e-05
1.24741e-05
1.23663e-05
1.3772e-05
1.52914e-05
1.7028e-05
1.84605e-05
1.96164e-05
2.04842e-05
2.11247e-05
2.15328e-05
2.17688e-05
2.18802e-05
2.19035e-05
2.18655e-05
2.17795e-05
2.16655e-05
2.15236e-05
2.13691e-05
2.11207e-05
2.08668e-05
2.04494e-05
2.02784e-05
1.97129e-05
1.96239e-05
1.90538e-05
1.91532e-05
1.89533e-05
1.93644e-05
2.02299e-05
2.09982e-05
2.2944e-05
2.31314e-05
2.47467e-05
2.33826e-05
2.35633e-05
3.39033e-05
0.000106423
0.00053359
0.00289785
0.00629046
0.00685435
0.00912486
0.0120536
0.0184513
0.00420392
0.00393169
0.0057178
0.00252001
0.00238839
0.00231179
0.00216967
0.00198663
0.00183892
0.00161841
0.00145458
0.00123803
0.00108849
0.000928611
0.000813821
0.000693321
0.000605643
0.000512435
0.000437971
0.000372541
0.000350733
0.000350591
0.000358458
0.000363888
0.000359624
0.0003579
0.000369045
0.000381895
0.000390034
0.000381441
0.000298474
0.000234973
0.00020486
0.000194717
0.000192162
0.00019781
0.000193972
0.000262286
9.44556e-05
9.29208e-05
4.98607e-05
4.82801e-05
5.35402e-05
5.40268e-05
5.58069e-05
4.79503e-05
4.05526e-05
2.79951e-05
2.08535e-05
1.49772e-05
1.19904e-05
9.22114e-06
7.99746e-06
7.67991e-06
8.45986e-06
9.48567e-06
1.07014e-05
1.1699e-05
1.25245e-05
1.31413e-05
1.3645e-05
1.39959e-05
1.42337e-05
1.43736e-05
1.44473e-05
1.44773e-05
1.44777e-05
1.44597e-05
1.44218e-05
1.43655e-05
1.42639e-05
1.41559e-05
1.39746e-05
1.39121e-05
1.36855e-05
1.36574e-05
1.34702e-05
1.35558e-05
1.35726e-05
1.38242e-05
1.44056e-05
1.47112e-05
1.60225e-05
1.59082e-05
1.78031e-05
1.62391e-05
1.70201e-05
2.10025e-05
4.8926e-05
0.000198545
0.00117857
0.00446477
0.00512738
0.0067646
0.0078869
0.0140688
0.00399255
0.00370979
0.00683713
0.00242186
0.00216436
0.0018405
0.00145006
0.00118482
0.000991801
0.000810105
0.000726133
0.000642294
0.000606021
0.000567095
0.000549571
0.000508232
0.000469443
0.000415658
0.000367584
0.00032384
0.000285936
0.000250867
0.00022121
0.000204865
0.000189171
0.000170516
0.000166209
0.000169044
0.000178007
0.000193159
0.000199374
0.000194599
0.000172397
0.000163858
0.000162809
0.000163339
0.000156356
0.000201183
9.47404e-05
7.03052e-05
2.55791e-05
2.4202e-05
3.08969e-05
3.34967e-05
3.57483e-05
3.54081e-05
3.2601e-05
2.35201e-05
1.62612e-05
1.12047e-05
8.36516e-06
6.0123e-06
4.96477e-06
4.61885e-06
5.04011e-06
5.6381e-06
6.39662e-06
7.05006e-06
7.63079e-06
8.07932e-06
8.45351e-06
8.73867e-06
8.95374e-06
9.10926e-06
9.22477e-06
9.31618e-06
9.39273e-06
9.45379e-06
9.49848e-06
9.52189e-06
9.51753e-06
9.48512e-06
9.43928e-06
9.43202e-06
9.39612e-06
9.42718e-06
9.44859e-06
9.51657e-06
9.66746e-06
9.73848e-06
1.02083e-05
1.03676e-05
1.12962e-05
1.11699e-05
1.28549e-05
1.14633e-05
1.31982e-05
1.54654e-05
3.2766e-05
0.000151443
0.000666858
0.00261592
0.00366141
0.00485217
0.0061001
0.012325
0.00408358
0.00365403
0.00993825
0.00228374
0.00165697
0.00100675
0.000795769
0.000625565
0.000550334
0.000484402
0.000459855
0.000446985
0.000445195
0.000450988
0.000476786
0.000489768
0.000474261
0.000428607
0.000379926
0.000336154
0.000299602
0.000269833
0.000237347
0.000214357
0.000193246
0.000174328
0.000155257
0.000132909
0.000103287
9.42385e-05
0.000100263
0.000107724
0.000107832
9.81798e-05
9.07016e-05
8.07626e-05
6.87782e-05
8.36422e-05
0.0001277
8.58915e-05
2.46878e-05
1.80688e-05
1.66993e-05
1.83905e-05
2.12424e-05
2.22964e-05
2.26441e-05
1.71919e-05
1.20536e-05
7.74011e-06
5.44405e-06
3.88689e-06
3.38772e-06
3.22027e-06
3.46597e-06
3.74773e-06
4.14035e-06
4.4987e-06
4.84873e-06
5.14976e-06
5.42636e-06
5.66596e-06
5.87408e-06
6.05379e-06
6.21247e-06
6.3548e-06
6.49014e-06
6.61991e-06
6.7344e-06
6.82948e-06
6.90749e-06
6.98555e-06
7.04603e-06
7.13599e-06
7.19426e-06
7.28532e-06
7.37379e-06
7.45657e-06
7.58403e-06
7.59527e-06
7.91628e-06
7.96607e-06
8.70407e-06
8.81103e-06
1.00028e-05
9.17684e-06
1.06536e-05
1.32972e-05
4.28133e-05
0.000185594
0.000580608
0.00158145
0.00276755
0.00415201
0.00699939
0.0130722
0.00622825
0.00464174
0.0137304
0.00220231
0.00118872
0.000795327
0.000688389
0.000560508
0.000536938
0.000514456
0.000511454
0.000501642
0.000482486
0.000465508
0.000461173
0.000486737
0.000507279
0.000498601
0.000456347
0.000409597
0.000372503
0.000351378
0.000329422
0.000301819
0.000273145
0.000248818
0.000225344
0.000199935
0.000171381
0.000135962
9.04211e-05
6.74207e-05
6.49859e-05
6.55689e-05
5.99961e-05
4.47944e-05
3.37933e-05
3.75557e-05
0.000279823
0.000221437
0.000104995
1.94162e-05
1.41508e-05
1.33918e-05
1.35134e-05
1.37588e-05
1.34765e-05
1.07873e-05
8.99634e-06
6.30044e-06
4.50607e-06
3.10783e-06
2.78074e-06
2.64109e-06
2.87044e-06
3.04395e-06
3.24142e-06
3.38693e-06
3.53625e-06
3.66935e-06
3.8047e-06
3.93207e-06
4.05361e-06
4.16966e-06
4.28859e-06
4.42803e-06
4.57359e-06
4.71761e-06
4.85435e-06
4.98088e-06
5.09151e-06
5.19036e-06
5.28755e-06
5.39137e-06
5.49758e-06
5.59783e-06
5.74918e-06
5.83466e-06
6.0136e-06
6.02885e-06
6.31229e-06
6.33387e-06
6.87973e-06
6.93633e-06
7.64799e-06
7.28998e-06
8.72679e-06
1.28404e-05
4.44861e-05
0.000170307
0.000462662
0.00111851
0.00217714
0.00372449
0.00779438
0.0125117
0.0131844
0.0081495
0.0195873
0.0024755
0.00129127
0.00103088
0.00120017
0.00124068
0.00124671
0.00121381
0.00115806
0.0010969
0.00100564
0.000879432
0.000753253
0.000639007
0.000560082
0.00053668
0.000503152
0.000451531
0.000408226
0.000391518
0.000375003
0.000356046
0.00032928
0.000304414
0.000279312
0.00025458
0.000230944
0.000203884
0.000163478
0.000109859
6.58413e-05
4.65198e-05
3.87728e-05
3.40378e-05
2.76526e-05
2.78728e-05
0.000342541
0.000183892
0.000131138
5.29241e-05
2.31611e-05
1.15539e-05
7.53508e-06
8.42534e-06
9.17217e-06
8.0992e-06
7.7896e-06
5.41484e-06
3.90163e-06
2.8065e-06
2.48279e-06
2.35228e-06
2.53503e-06
2.66666e-06
2.82118e-06
2.92077e-06
3.00289e-06
3.05615e-06
3.10352e-06
3.14329e-06
3.18692e-06
3.24838e-06
3.32569e-06
3.40189e-06
3.48953e-06
3.58806e-06
3.69045e-06
3.79111e-06
3.88293e-06
3.96436e-06
4.0511e-06
4.14539e-06
4.26498e-06
4.3695e-06
4.54095e-06
4.62571e-06
4.83111e-06
4.86979e-06
5.14943e-06
5.20112e-06
5.60307e-06
5.63867e-06
6.04686e-06
5.97544e-06
7.24244e-06
1.12672e-05
4.07927e-05
0.000132704
0.000336796
0.000842991
0.00186043
0.00328922
0.00770106
0.0134155
0.0181479
0.0141249
0.0250904
0.00320416
0.00287423
0.00308054
0.0031035
0.00300437
0.00276358
0.00250084
0.00224821
0.00202156
0.00179735
0.00154999
0.00129642
0.00104033
0.000790391
0.000638161
0.000567292
0.000499683
0.000446541
0.000417398
0.000396919
0.000376409
0.000358847
0.000327512
0.000299717
0.000274916
0.00025519
0.000235836
0.000209001
0.000175852
0.000128265
7.71009e-05
4.51918e-05
3.33941e-05
2.79245e-05
3.0195e-05
0.000522559
0.000257499
0.000221628
7.79115e-05
9.80021e-05
3.93526e-05
1.03914e-05
4.96128e-06
6.175e-06
5.51056e-06
5.26861e-06
3.51282e-06
2.61306e-06
2.07866e-06
1.85706e-06
1.7864e-06
1.88415e-06
1.95561e-06
2.04435e-06
2.10375e-06
2.16346e-06
2.21415e-06
2.26567e-06
2.31711e-06
2.37427e-06
2.44197e-06
2.51628e-06
2.5938e-06
2.68046e-06
2.77447e-06
2.87197e-06
2.96952e-06
3.06359e-06
3.15332e-06
3.25873e-06
3.36793e-06
3.50461e-06
3.6118e-06
3.79819e-06
3.89643e-06
4.10757e-06
4.1646e-06
4.41914e-06
4.46398e-06
4.76653e-06
4.73708e-06
4.93779e-06
4.92606e-06
5.91628e-06
9.77288e-06
3.37092e-05
0.000107566
0.000310087
0.000781592
0.00169519
0.00327269
0.00811592
0.0147708
0.0244912
0.0200262
0.0365761
0.00761621
0.00623123
0.00484154
0.00425163
0.00389974
0.00361866
0.00334655
0.00307596
0.00280569
0.00251124
0.00219036
0.00185262
0.00153181
0.00123124
0.000965814
0.000763317
0.000614103
0.000521901
0.000447144
0.000405469
0.000372083
0.000344981
0.00030901
0.000275859
0.00025148
0.000234742
0.000221317
0.000202489
0.00017941
0.000151882
0.000121635
8.88076e-05
6.11254e-05
5.03507e-05
4.04317e-05
0.000523601
0.00046285
0.000403301
0.000285123
0.000213902
0.000149923
5.1679e-05
3.98169e-06
2.58052e-06
2.37822e-06
2.15452e-06
1.67283e-06
1.38693e-06
1.19877e-06
1.128e-06
1.1056e-06
1.14544e-06
1.17656e-06
1.21792e-06
1.24736e-06
1.27847e-06
1.30818e-06
1.34008e-06
1.3737e-06
1.41058e-06
1.45189e-06
1.49604e-06
1.54318e-06
1.59515e-06
1.65062e-06
1.70813e-06
1.7663e-06
1.82433e-06
1.88359e-06
1.95341e-06
2.02674e-06
2.11703e-06
2.18801e-06
2.31532e-06
2.39686e-06
2.57919e-06
2.65375e-06
2.8333e-06
2.84358e-06
2.99816e-06
2.9128e-06
3.04766e-06
3.13883e-06
4.07628e-06
7.47199e-06
2.02204e-05
5.23394e-05
0.00014278
0.000330703
0.000741995
0.00141579
0.00315697
0.00597267
0.0136577
0.0229325
0.0705337
0.0365992
0.0231653
0.0150199
0.0108351
0.00854065
0.00704948
0.00599329
0.00517348
0.00448346
0.00385106
0.00326009
0.00270536
0.00219753
0.00174045
0.00133492
0.000995807
0.00075505
0.000603347
0.000492493
0.000411889
0.000357817
0.000317793
0.000283895
0.000256795
0.000224756
0.000198089
0.000174478
0.000150698
0.000129903
0.000113131
0.000100659
8.79824e-05
7.05863e-05
5.68426e-05
3.33565e-05
0.000117253
7.1372e-05
3.40169e-05
2.47699e-05
1.87513e-05
1.83649e-05
1.72337e-05
1.74146e-05
2.01209e-05
2.81053e-05
3.25419e-05
3.90747e-05
4.173e-05
4.3027e-05
4.08077e-05
3.87899e-05
3.54635e-05
3.34652e-05
3.15008e-05
3.0528e-05
3.00074e-05
2.99672e-05
3.01323e-05
3.04951e-05
3.10053e-05
3.16268e-05
3.2303e-05
3.29833e-05
3.3638e-05
3.42264e-05
3.48054e-05
3.51902e-05
3.57068e-05
3.58221e-05
3.65479e-05
3.64497e-05
3.76144e-05
3.74425e-05
3.92747e-05
3.93782e-05
4.17003e-05
4.2046e-05
4.28443e-05
4.25865e-05
3.90921e-05
3.62318e-05
3.0326e-05
2.83535e-05
3.08509e-05
2.69177e-05
3.52549e-05
4.56227e-05
0.000142729
0.000418707
0.000949417
0.00155289
0.00413387
0.00742086
0.0120426
0.0195286
0.0344473
0.0232388
0.017156
0.0129805
0.0102533
0.00842004
0.0071181
0.00613271
0.0053537
0.00471786
0.00419171
0.0037541
0.00339206
0.00308776
0.00283277
0.00261472
0.00242489
0.00225553
0.00210061
0.00195391
0.00181211
0.0016711
0.00153012
0.00138363
0.00123216
0.00107369
0.000901897
0.000704633
0.000501517
0.000313908
0.00018395
0.000120691
8.54809e-05
8.16738e-05
9.41402e-05
7.11834e-05
0.000181764
9.21841e-05
5.07412e-05
3.93858e-05
3.5703e-05
3.79104e-05
3.76764e-05
3.91178e-05
4.15826e-05
4.57693e-05
4.65952e-05
4.87414e-05
4.98058e-05
5.05111e-05
5.01372e-05
4.93027e-05
4.79616e-05
4.71955e-05
4.64208e-05
4.62844e-05
4.63392e-05
4.66511e-05
4.70846e-05
4.7679e-05
4.84026e-05
4.92335e-05
5.01212e-05
5.10114e-05
5.18778e-05
5.26766e-05
5.34272e-05
5.40171e-05
5.46106e-05
5.49466e-05
5.56142e-05
5.58162e-05
5.67186e-05
5.6833e-05
5.79799e-05
5.8147e-05
5.90465e-05
5.91501e-05
5.87893e-05
5.8492e-05
5.66024e-05
5.70037e-05
5.61646e-05
5.94706e-05
6.69805e-05
6.15487e-05
7.23032e-05
0.000138305
0.000510169
0.00140861
0.00253979
0.00370658
0.00581855
0.00880972
0.0144746
0.0183998
0.0374227
0.00940564
0.0111084
0.00911643
0.00674664
0.00541024
0.00469573
0.00424691
0.00392062
0.0036638
0.00345098
0.0032748
0.00312097
0.00297438
0.00283668
0.00269682
0.00254998
0.00239604
0.00223258
0.00206219
0.00188753
0.00171125
0.00153183
0.00135265
0.00118217
0.00103352
0.000907597
0.0007588
0.000615862
0.000510324
0.000417765
0.000374771
0.000316217
0.00023563
0.000165955
9.52799e-05
0.000294726
0.000150603
9.13192e-05
5.98789e-05
5.17824e-05
5.32113e-05
5.21746e-05
5.44865e-05
5.88363e-05
6.12002e-05
6.04864e-05
5.81239e-05
5.75878e-05
5.73852e-05
5.74573e-05
5.73959e-05
5.75022e-05
5.79842e-05
5.8637e-05
5.95479e-05
6.03909e-05
6.11899e-05
6.19881e-05
6.28584e-05
6.37799e-05
6.47468e-05
6.57275e-05
6.67022e-05
6.76583e-05
6.85766e-05
6.94259e-05
7.01832e-05
7.0841e-05
7.13299e-05
7.19511e-05
7.22893e-05
7.29483e-05
7.30732e-05
7.36345e-05
7.36934e-05
7.37356e-05
7.42155e-05
7.39741e-05
7.56191e-05
7.54319e-05
8.04558e-05
8.24735e-05
9.41005e-05
0.0001096
0.000134564
0.000220317
0.000581264
0.00194442
0.00461308
0.00561302
0.00671403
0.00678143
0.0101136
0.0117893
0.0113423
0.0316755
0.00609349
0.013461
0.00815784
0.00510312
0.0042811
0.00396136
0.00401992
0.00419441
0.00434297
0.00445328
0.00451203
0.00451048
0.00446616
0.00434807
0.00414223
0.00387558
0.00357911
0.00326858
0.00296433
0.00266971
0.00238019
0.00210153
0.00183532
0.00156327
0.00130624
0.00108384
0.000903024
0.000769644
0.00066166
0.000574005
0.000531584
0.0004603
0.00034801
0.000229068
0.000138176
0.000484029
0.000242127
0.000165093
9.19052e-05
7.18364e-05
6.80443e-05
6.21643e-05
6.28667e-05
6.94637e-05
7.20978e-05
7.1781e-05
6.81156e-05
6.67756e-05
6.56992e-05
6.54184e-05
6.52991e-05
6.57056e-05
6.65965e-05
6.79643e-05
6.96429e-05
7.10776e-05
7.22619e-05
7.33866e-05
7.44857e-05
7.55767e-05
7.66735e-05
7.77366e-05
7.87729e-05
7.97904e-05
8.07843e-05
8.17372e-05
8.26071e-05
8.33473e-05
8.38859e-05
8.448e-05
8.48097e-05
8.53668e-05
8.5431e-05
8.58225e-05
8.5939e-05
8.61645e-05
8.73381e-05
8.84996e-05
9.16411e-05
9.31095e-05
9.8663e-05
0.00010125
0.000116654
0.00014663
0.000289053
0.000742202
0.00203221
0.0062354
0.0120973
0.0108873
0.0139752
0.0101644
0.0152394
0.0135748
0.0106083
0.0347338
0.00606048
0.00531492
0.00373929
0.00433513
0.00460139
0.00475295
0.00498927
0.0052653
0.00550962
0.00569075
0.00575847
0.00569123
0.0054741
0.00512559
0.0046972
0.00420507
0.00371819
0.00325964
0.00285377
0.0024973
0.00217969
0.00189521
0.00163403
0.00137907
0.00116011
0.000979482
0.000833622
0.000712903
0.000616171
0.000543802
0.000507445
0.000451973
0.000362369
0.000249765
0.000174146
0.000754508
0.000332424
0.000245565
0.000137572
0.000105656
9.65571e-05
8.0462e-05
7.88335e-05
8.56548e-05
8.72503e-05
8.46825e-05
7.84377e-05
7.45629e-05
7.17043e-05
7.13886e-05
7.12056e-05
7.26522e-05
7.46739e-05
7.73798e-05
8.00235e-05
8.23541e-05
8.436e-05
8.61171e-05
8.76424e-05
8.89896e-05
9.02012e-05
9.13558e-05
9.24687e-05
9.35477e-05
9.46025e-05
9.562e-05
9.6549e-05
9.73005e-05
9.78679e-05
9.83375e-05
9.87598e-05
9.90056e-05
9.93963e-05
9.94177e-05
0.000100194
0.000100612
0.000102401
0.000104506
0.000107581
0.000111496
0.000115591
0.000118845
0.000130331
0.000160855
0.000438576
0.00194522
0.00637947
0.0121676
0.0198995
0.0189568
0.0213741
0.0220382
0.0258423
0.0113939
0.00968871
0.0477509
0.00576002
0.00481956
0.00431841
0.00502478
0.00513117
0.0058545
0.00617286
0.00660662
0.00675892
0.00677257
0.00661859
0.00629391
0.00590856
0.00545851
0.00498677
0.00448834
0.00392016
0.00336266
0.00288347
0.00246962
0.00210895
0.0017962
0.00154836
0.00134652
0.00118924
0.0010372
0.000894321
0.000743599
0.000616932
0.000523187
0.000459596
0.000406313
0.00035108
0.000255147
0.000203529
0.00106543
0.00041437
0.000311113
0.000192394
0.000144416
0.000133522
0.000111804
0.000104525
0.000105748
0.000101993
9.47517e-05
8.30667e-05
7.70396e-05
7.30002e-05
7.24584e-05
7.20247e-05
7.39775e-05
7.65632e-05
8.00586e-05
8.33093e-05
8.62862e-05
8.90009e-05
9.13122e-05
9.31999e-05
9.47909e-05
9.6157e-05
9.73702e-05
9.8478e-05
9.95099e-05
0.000100504
0.00010145
0.000102366
0.000102979
0.000103468
0.000103555
0.000104044
0.000103802
0.000104663
0.000103995
0.000105469
0.000105737
0.000108806
0.000112459
0.000116008
0.000121269
0.000123988
0.000124312
0.000132801
0.000146629
0.000460963
0.00270341
0.00931576
0.0175877
0.0190032
0.0183338
0.0202932
0.0208343
0.0225394
0.00868385
0.00866555
0.0593365
0.00659809
0.00569517
0.00612852
0.00668114
0.0067676
0.00678186
0.00653564
0.00627044
0.00587108
0.00549092
0.00522204
0.00502381
0.00493887
0.00491814
0.00492242
0.00488765
0.00482458
0.00464985
0.00435939
0.00400103
0.00360097
0.00317935
0.00273306
0.00230416
0.00195899
0.00162661
0.00134716
0.00101538
0.000741827
0.000568475
0.000458343
0.000366014
0.000296693
0.000237368
0.000215606
0.000909378
0.000459572
0.000356391
0.000244757
0.000184734
0.000164501
0.000143722
0.000128955
0.000120966
0.000111489
9.99526e-05
8.36866e-05
7.51126e-05
6.75488e-05
6.624e-05
6.48568e-05
6.80595e-05
7.15576e-05
7.64714e-05
8.09245e-05
8.48395e-05
8.80181e-05
9.07034e-05
9.28167e-05
9.45204e-05
9.58928e-05
9.70339e-05
9.80154e-05
9.88814e-05
9.96903e-05
0.000100429
0.000101181
0.000101527
0.000101803
0.000101418
0.000101825
0.000100976
0.000102157
0.000100742
0.000102648
0.000102681
0.000106445
0.000111089
0.000114722
0.000120548
0.000122221
0.00011755
0.000121842
0.000100904
0.000217075
0.00114084
0.00768088
0.0153776
0.0173801
0.0158538
0.0174995
0.01807
0.0208151
0.0148884
0.0150154
0.0475301
0.00588299
0.004717
0.00439305
0.00425023
0.00400485
0.00380809
0.00360921
0.00351912
0.00349033
0.00349128
0.00355575
0.00368923
0.00386218
0.00413161
0.0044109
0.00477773
0.0051778
0.00553087
0.00575384
0.00584316
0.00581782
0.00563159
0.00532093
0.00498871
0.00469023
0.00433477
0.00374559
0.0028
0.00189537
0.0013679
0.00100773
0.000735172
0.000464725
0.000291701
0.000238199
0.000583956
0.000462588
0.000321373
0.000254243
0.000205321
0.000176942
0.000155884
0.000137728
0.000128217
0.000117832
0.000101705
7.92746e-05
6.67398e-05
5.58366e-05
5.42459e-05
5.25275e-05
5.77062e-05
6.25106e-05
6.88746e-05
7.40916e-05
7.83009e-05
8.16482e-05
8.44528e-05
8.6538e-05
8.8145e-05
8.93404e-05
9.02392e-05
9.08583e-05
9.12203e-05
9.14699e-05
9.15997e-05
9.17546e-05
9.14486e-05
9.11818e-05
8.99837e-05
9.00715e-05
8.78591e-05
8.79925e-05
8.53178e-05
8.61046e-05
8.47542e-05
8.73799e-05
8.9714e-05
9.3805e-05
9.77373e-05
9.98195e-05
9.89271e-05
9.6855e-05
6.93916e-05
0.00011449
0.000383357
0.00243652
0.00910962
0.0118818
0.0112155
0.0156954
0.0194822
0.0234563
0.0152124
0.0154126
0.0463254
0.00612034
0.00512089
0.00485295
0.00475181
0.0045901
0.00451928
0.00429097
0.0041754
0.00397885
0.0038857
0.00384124
0.00384123
0.00394334
0.00414194
0.00438108
0.00463453
0.00498601
0.00528623
0.00543728
0.00545369
0.00518635
0.00496688
0.00467814
0.00438056
0.00414886
0.00380259
0.00344649
0.00307308
0.00257255
0.0020752
0.00164759
0.00119421
0.000796152
0.000612885
0.000757884
0.000425138
0.000390625
0.000241339
0.000184229
0.000158434
0.000140682
0.000142995
0.000138947
0.000133109
0.000122005
0.000103508
7.43493e-05
5.54123e-05
3.89821e-05
3.25986e-05
3.01805e-05
3.2364e-05
3.49027e-05
3.90095e-05
4.27062e-05
4.67818e-05
5.02511e-05
5.31419e-05
5.50842e-05
5.6392e-05
5.71881e-05
5.77155e-05
5.81202e-05
5.84188e-05
5.86207e-05
5.86917e-05
5.88709e-05
5.86474e-05
5.84167e-05
5.72525e-05
5.75476e-05
5.58286e-05
5.71492e-05
5.52066e-05
5.77461e-05
5.6261e-05
5.9008e-05
5.90422e-05
6.17989e-05
6.27329e-05
6.25474e-05
6.37375e-05
5.78014e-05
4.64564e-05
6.5489e-05
0.000162289
0.000684031
0.00372973
0.00868956
0.00813513
0.0137517
0.0213672
0.0250306
0.0111577
0.0107323
0.0458288
0.00615838
0.0055633
0.00513991
0.00509431
0.00447823
0.00407021
0.00337096
0.00286014
0.00237599
0.00199883
0.00173312
0.00159832
0.00150171
0.00146902
0.00147195
0.00153682
0.0017301
0.00200636
0.00251779
0.00331472
0.00409691
0.00455801
0.00468435
0.00435976
0.00378145
0.00339023
0.00306623
0.00293356
0.00281329
0.00275045
0.00266438
0.00245591
0.00198148
0.00128515
0.000638494
0.000374904
0.000296452
0.000169103
0.000145033
0.000143401
0.000109371
0.000112815
0.000108492
0.000110395
0.000104475
9.02073e-05
6.49364e-05
4.46768e-05
2.9636e-05
2.37265e-05
2.15154e-05
2.20122e-05
2.29697e-05
2.50373e-05
2.69661e-05
2.89797e-05
3.07072e-05
3.22202e-05
3.32265e-05
3.39312e-05
3.46295e-05
3.52784e-05
3.58536e-05
3.63607e-05
3.67249e-05
3.698e-05
3.72313e-05
3.72399e-05
3.72146e-05
3.67245e-05
3.69467e-05
3.61227e-05
3.67624e-05
3.58274e-05
3.70103e-05
3.59056e-05
3.66595e-05
3.5816e-05
3.72482e-05
3.6968e-05
3.86615e-05
3.90718e-05
3.80798e-05
3.42581e-05
4.57357e-05
0.000106412
0.000361343
0.00138366
0.00544161
0.00593822
0.0102143
0.0187815
0.0237689
0.00772842
0.00693286
0.0483092
0.00551744
0.00478158
0.00326991
0.00288646
0.00201317
0.00168711
0.00142337
0.00128219
0.00114762
0.00107161
0.000996863
0.000945188
0.000873278
0.000803575
0.000738325
0.000686037
0.000655207
0.000646113
0.00067718
0.000728142
0.000769664
0.000821549
0.000924246
0.00107634
0.00119607
0.00122261
0.00101403
0.000902476
0.000863878
0.000847771
0.000791649
0.000713663
0.000596577
0.000499748
0.000178125
0.000525636
0.000182495
7.08537e-05
6.01423e-05
7.42724e-05
6.68526e-05
7.70914e-05
8.16224e-05
8.5725e-05
8.3172e-05
7.55684e-05
5.5233e-05
3.86002e-05
2.6413e-05
2.10038e-05
1.9174e-05
1.95149e-05
1.99649e-05
2.07504e-05
2.1547e-05
2.2429e-05
2.31624e-05
2.37668e-05
2.41551e-05