/*--------------------------------*- C++ -*----------------------------------*\
| =========                 |                                                 |
| \\      /  F ield         | OpenFOAM: The Open Source CFD Toolbox           |
|  \\    /   O peration     | Version:  2.3.0                                 |
|   \\  /    A nd           | Web:      www.OpenFOAM.org                      |
|    \\/     M anipulation  |                                                 |
\*---------------------------------------------------------------------------*/
FoamFile
{
    version     2.0;
    format      ascii;
    class       surfaceScalarField;
    location    "25";
    object      phi;
}
// * * * * * * * * * * * * * * * * * * * * * * * * * * * * * * * * * * * * * //

dimensions      [0 3 -1 0 0 0 0];

internalField   nonuniform List<scalar> 
16448
(
-7.49717e-07
-2.3511e-06
5.4021e-07
7.86967e-07
-2.42897e-06
8.92285e-07
7.50393e-07
-1.19157e-06
1.22814e-06
8.22215e-07
-1.2283e-06
1.15647e-06
6.30766e-07
-7.50148e-07
9.41588e-07
4.75031e-07
-6.45006e-07
8.0073e-07
2.23643e-07
-3.69304e-07
6.20682e-07
2.30311e-08
-3.30958e-07
5.3156e-07
-1.63547e-07
-2.99784e-07
4.86352e-07
-3.42418e-07
-2.77361e-07
4.56223e-07
-5.02331e-07
-2.69755e-07
4.2966e-07
-5.68387e-07
-3.00739e-07
3.66787e-07
-5.4444e-07
-3.5696e-07
3.33003e-07
-4.41035e-07
-4.11023e-07
3.07609e-07
-3.2377e-07
-4.41944e-07
3.24669e-07
-2.07839e-07
-4.62369e-07
3.46428e-07
-1.27625e-07
-4.67251e-07
3.87027e-07
-6.63301e-08
-4.75923e-07
4.14618e-07
-2.81846e-08
-4.83495e-07
4.45339e-07
-2.78559e-09
-4.87899e-07
4.62489e-07
1.00572e-08
-4.87977e-07
4.75124e-07
1.44909e-08
-4.84397e-07
4.79952e-07
1.29558e-08
-4.7881e-07
4.80334e-07
8.14842e-09
-4.71606e-07
4.76402e-07
1.91438e-09
-4.6338e-07
4.69603e-07
-4.46864e-09
-4.54376e-07
4.60748e-07
-1.05431e-08
-4.44586e-07
4.5065e-07
-1.63215e-08
-4.33986e-07
4.39753e-07
-2.1811e-08
-4.22575e-07
4.28053e-07
-2.58431e-08
-4.11623e-07
4.15644e-07
-2.64445e-08
-4.01323e-07
4.01913e-07
-2.20128e-08
-3.89394e-07
3.84951e-07
-9.87099e-09
-3.75873e-07
3.6372e-07
1.49841e-08
-3.61793e-07
3.36926e-07
6.00685e-08
-3.48875e-07
3.03779e-07
1.33019e-07
-3.3894e-07
2.65978e-07
2.37155e-07
-3.32953e-07
2.28805e-07
3.66839e-07
-3.29636e-07
1.9994e-07
5.06036e-07
-3.25896e-07
1.86686e-07
6.22175e-07
-3.15239e-07
1.99087e-07
6.55666e-07
-2.85167e-07
2.51663e-07
5.29516e-07
-2.40438e-07
3.66574e-07
1.71021e-07
-1.89742e-07
5.48225e-07
-3.83905e-07
-1.52355e-07
7.07268e-07
-1.00746e-06
-2.04005e-07
8.27545e-07
-1.6155e-06
-3.45373e-07
9.53408e-07
-2.09385e-06
-6.03194e-07
1.08153e-06
-1.69637e-06
-1.56386e-06
1.16638e-06
-6.26238e-07
-2.49733e-06
1.42718e-06
-5.87999e-07
-2.37775e-06
2.3395e-06
5.88132e-07
-5.10054e-06
3.9244e-06
7.35405e-06
-1.25039e-05
5.73797e-06
1.48529e-05
-1.39464e-05
6.44756e-06
1.59428e-05
-5.64294e-06
4.55296e-06
1.3926e-05
-1.9499e-06
3.96667e-06
1.4426e-05
-3.78461e-06
3.28455e-06
1.18524e-05
2.57809e-06
-4.62184e-09
1.25909e-05
7.50457e-06
-8.24317e-06
-6.38804e-06
1.02316e-05
8.74701e-06
-6.19155e-07
2.05266e-07
-5.97419e-06
1.92891e-05
-1.99452e-05
3.69594e-08
2.75649e-05
-1.48434e-05
6.56757e-06
2.91659e-05
-1.04709e-05
8.86989e-06
3.22608e-05
-9.86617e-06
6.77131e-06
3.4765e-05
-7.823e-06
5.31879e-06
3.54861e-05
-4.86173e-06
4.14056e-06
3.51791e-05
-3.15795e-06
3.46502e-06
3.49499e-05
-2.89105e-06
3.12024e-06
3.5036e-05
-3.31916e-06
3.23301e-06
3.50821e-05
-3.33862e-06
3.29256e-06
3.51002e-05
-2.67434e-06
2.65622e-06
3.48845e-05
-1.48369e-06
1.69941e-06
3.42851e-05
-3.10784e-07
9.10157e-07
3.27653e-05
7.03136e-07
8.16593e-07
3.01756e-05
1.40677e-06
1.18296e-06
2.69454e-05
1.84381e-06
1.38639e-06
2.39291e-05
1.86181e-06
1.15446e-06
2.16548e-05
1.42664e-06
8.477e-07
2.02645e-05
8.4451e-07
5.45833e-07
1.98695e-05
1.41915e-07
2.53058e-07
1.97273e-05
1.3823e-07
3.9097e-09
1.96774e-05
-3.16193e-07
3.66113e-07
1.96904e-05
-5.856e-07
5.72648e-07
2.0229e-05
-9.95971e-07
4.57333e-07
2.08279e-05
-8.90477e-07
2.91612e-07
2.20156e-05
-1.08273e-06
-1.05048e-07
2.24589e-05
-1.79958e-07
-2.63285e-07
2.07112e-05
1.45136e-06
2.96337e-07
1.73635e-05
2.21868e-06
1.12897e-06
9.88946e-06
4.44326e-06
3.0308e-06
1.37135e-08
4.99993e-06
4.87581e-06
-4.9358e-06
2.87818e-06
2.07133e-06
-7.22904e-06
1.22551e-06
1.06773e-06
-8.26899e-06
6.91434e-07
3.48526e-07
-7.19171e-06
-9.78883e-08
-9.79394e-07
5.91014e-07
-7.78273e-06
-1.72951e-06
-3.41998e-06
-7.0739e-08
-6.68203e-07
-3.55673e-06
6.64416e-08
-7.30706e-07
-2.02846e-06
8.9938e-07
-4.32712e-07
-1.99954e-06
4.73239e-07
-1.41125e-07
-1.2599e-06
2.18155e-07
6.85685e-08
-9.47634e-07
9.29211e-08
1.23218e-07
-4.11397e-07
-1.25704e-08
-2.08831e-08
-2.25244e-07
3.83752e-08
-2.71386e-07
-1.25929e-07
7.66364e-08
-5.14411e-07
-1.2572e-07
9.13725e-08
-6.93326e-07
-1.55783e-07
6.49323e-08
-7.57856e-07
-2.45296e-07
9.0762e-09
-7.29684e-07
-3.5389e-07
-3.12554e-08
-6.20529e-07
-4.57267e-07
-6.2924e-08
-4.83472e-07
-5.18215e-07
-6.08001e-08
-3.4332e-07
-5.53926e-07
-4.86096e-08
-2.35847e-07
-5.55315e-07
-1.94237e-08
-1.50693e-07
-5.61808e-07
7.15654e-10
-9.36909e-08
-5.58207e-07
1.76938e-08
-5.28895e-08
-5.56197e-07
2.74798e-08
-3.00875e-08
-5.46404e-07
3.56085e-08
-1.89493e-08
-5.34321e-07
3.87682e-08
-1.67266e-08
-5.19993e-07
3.89428e-08
-1.97198e-08
-5.04723e-07
3.60925e-08
-2.55733e-08
-4.88993e-07
3.1448e-08
-3.2388e-08
-4.73045e-07
2.54661e-08
-3.9009e-08
-4.56716e-07
1.87322e-08
-4.47058e-08
-4.39831e-07
1.15237e-08
-4.92044e-08
-4.22217e-07
4.1213e-09
-4.99405e-08
-4.044e-07
-6.50612e-09
-4.42269e-08
-3.87008e-07
-2.00486e-08
-2.99829e-08
-3.68353e-07
-3.5305e-08
-5.14214e-09
-3.48173e-07
-5.25614e-08
3.35449e-08
-3.28252e-07
-7.22483e-08
9.13882e-08
-3.12933e-07
-9.38066e-08
1.73688e-07
-3.04816e-07
-1.16446e-07
2.83079e-07
-3.049e-07
-1.37467e-07
4.15373e-07
-3.09895e-07
-1.52056e-07
5.54822e-07
-3.13136e-07
-1.52233e-07
6.69599e-07
-3.02072e-07
-1.27969e-07
7.00889e-07
-2.53336e-07
-6.3146e-08
5.73137e-07
-1.60425e-07
4.77134e-08
2.47577e-07
-4.12767e-08
1.7707e-07
-2.23092e-07
4.69191e-08
2.7137e-07
-7.66804e-07
3.35312e-08
3.0615e-07
-1.38529e-06
-7.65323e-08
3.49616e-07
-1.8866e-06
-5.73294e-07
4.71394e-07
-1.93956e-06
-2.13695e-06
6.26022e-07
-1.19122e-06
-4.15305e-06
9.07364e-07
1.37554e-06
-6.33794e-06
1.3934e-06
3.86545e-06
-9.92839e-06
2.33791e-06
5.66686e-06
-2.05883e-05
6.283e-06
3.73433e-06
-2.0074e-05
8.06003e-06
-1.78017e-06
-6.73098e-06
6.60251e-06
-1.82283e-06
-3.94736e-06
2.0401e-06
-1.43259e-06
-4.59948e-06
4.24577e-07
3.55534e-06
5.19881e-06
-7.60869e-06
7.20497e-06
7.9878e-06
-4.13302e-06
-4.43223e-06
8.39445e-06
1.3474e-05
-1.94192e-07
-2.60539e-08
-4.0069e-06
1.57991e-05
-2.92654e-05
-6.67316e-06
2.05651e-05
-2.31079e-05
3.49842e-06
2.10112e-05
-1.69123e-05
5.99531e-06
2.30263e-05
-1.39295e-05
2.04816e-06
2.33734e-05
-9.05801e-06
8.87936e-07
2.2689e-05
-3.89023e-06
-2.87096e-07
2.18272e-05
-2.16471e-06
-1.31439e-07
2.097e-05
-2.34507e-06
3.11167e-07
2.01677e-05
-4.15658e-06
1.63975e-06
1.94266e-05
-4.38479e-06
1.78724e-06
1.94235e-05
-3.70784e-06
1.03663e-06
2.051e-05
-1.93552e-06
-6.34671e-07
2.25177e-05
3.566e-07
-2.67514e-06
2.39958e-05
2.01403e-06
-2.78896e-06
2.3915e-05
3.63115e-06
-2.14359e-06
2.26385e-05
4.33632e-06
-1.21597e-06
2.08575e-05
4.72122e-06
-1.07842e-06
1.8316e-05
5.23141e-06
-1.26329e-06
1.49667e-05
4.72162e-06
-5.27776e-07
1.24671e-05
4.81403e-06
-2.17254e-06
1.1419e-05
5.92459e-06
-4.73826e-06
9.84264e-06
5.36703e-06
-4.10689e-06
8.47473e-06
3.80014e-06
-3.01783e-06
8.49456e-06
1.5473e-06
-2.5631e-06
9.754e-06
1.65725e-07
-2.31564e-06
1.20946e-05
-1.09821e-06
-2.32512e-06
1.41474e-05
-2.97697e-07
-1.93503e-06
1.44195e-05
1.88525e-06
-7.06e-07
1.18523e-05
4.75574e-06
3.01128e-08
5.46346e-06
8.44707e-06
2.38501e-06
-3.13865e-06
8.83409e-06
4.76796e-06
-7.95603e-06
3.73746e-06
3.9581e-06
-1.01464e-05
1.08906e-06
2.32678e-06
-1.04583e-05
3.79439e-07
6.23922e-07
-7.6811e-06
2.96447e-07
-3.17151e-06
2.25294e-06
-9.34303e-06
-2.4267e-06
-3.85139e-06
-2.49985e-07
-1.44932e-06
-4.09918e-06
-4.34932e-07
-1.53445e-06
-2.46597e-06
5.22632e-07
-1.25891e-06
-2.38376e-06
1.08667e-07
-9.14293e-07
-1.56929e-06
-3.52453e-08
-4.63574e-07
-1.19402e-06
-2.04344e-07
-2.76329e-07
-3.1854e-07
-2.80115e-07
-3.78141e-07
3.79953e-08
-1.61439e-07
-5.74949e-07
1.91753e-07
-1.20886e-07
-7.03102e-07
1.15497e-07
-1.13074e-07
-7.79928e-07
6.03948e-08
-1.39363e-07
-8.03258e-07
-3.66234e-08
-1.85354e-07
-7.78997e-07
-1.50642e-07
-2.27521e-07
-7.06329e-07
-2.73067e-07
-2.56882e-07
-5.98437e-07
-3.5554e-07
-2.7058e-07
-4.75317e-07
-4.01796e-07
-2.75264e-07
-3.62986e-07
-4.00806e-07
-2.66855e-07
-2.65048e-07
-4.00815e-07
-2.58946e-07
-1.92411e-07
-3.82602e-07
-2.48258e-07
-1.37074e-07
-3.69835e-07
-2.41713e-07
-1.01331e-07
-3.47858e-07
-2.34306e-07
-7.94476e-08
-3.25724e-07
-2.30497e-07
-6.95885e-08
-3.01568e-07
-2.28301e-07
-6.71776e-08
-2.78307e-07
-2.28844e-07
-6.92482e-08
-2.55904e-07
-2.31036e-07
-7.3232e-08
-2.34684e-07
-2.34395e-07
-7.70114e-08
-2.14257e-07
-2.38697e-07
-7.82476e-08
-1.94636e-07
-2.43977e-07
-7.45081e-08
-1.7572e-07
-2.50255e-07
-6.4013e-08
-1.57321e-07
-2.57593e-07
-4.57134e-08
-1.39336e-07
-2.6599e-07
-1.84558e-08
-1.20896e-07
-2.74734e-07
1.70065e-08
-1.01152e-07
-2.82503e-07
5.92722e-08
-8.19936e-08
-2.88545e-07
1.09033e-07
-6.87087e-08
-2.94005e-07
1.66639e-07
-6.43685e-08
-2.98075e-07
2.30517e-07
-6.87211e-08
-3.00078e-07
2.92923e-07
-7.62063e-08
-2.96117e-07
3.3899e-07
-7.74969e-08
-2.81729e-07
3.47318e-07
-6.09362e-08
-2.49487e-07
3.02449e-07
-1.23075e-08
-1.96183e-07
1.82322e-07
7.73002e-08
-1.17621e-07
3.51944e-08
1.51115e-07
-4.52881e-08
-4.64903e-08
1.69234e-07
-4.06544e-08
-9.54388e-08
1.67513e-07
-8.50582e-08
-3.03403e-07
2.37773e-07
-1.06366e-07
-4.60319e-07
-3.38704e-07
-7.76969e-08
-4.2249e-07
-2.21575e-06
4.09439e-08
2.15478e-07
-5.21264e-06
4.21604e-07
2.67399e-06
-9.53873e-06
7.42253e-07
4.45509e-06
-1.33626e-05
1.65304e-06
2.71338e-06
-2.40797e-05
5.233e-06
-3.66303e-06
-2.09163e-05
7.21874e-06
-8.98496e-06
-7.28254e-06
5.87347e-06
-8.15045e-06
-4.42135e-06
-3.60532e-07
-6.84544e-06
-4.19105e-06
-1.71346e-06
2.11749e-06
7.76861e-06
-1.15327e-05
9.12982e-06
5.89395e-06
-4.91867e-06
-1.26261e-05
1.3077e-05
1.70729e-05
2.71643e-07
-1.22129e-05
-7.11146e-07
2.0154e-05
-3.84373e-05
-1.07104e-05
2.12015e-05
-2.62394e-05
2.084e-06
1.95168e-05
-1.7211e-05
1.98337e-06
1.98334e-05
-1.41469e-05
-9.91028e-08
1.67805e-05
-7.32786e-06
1.3228e-06
1.5403e-05
-1.53479e-06
-9.77978e-07
1.43159e-05
-2.69208e-07
-8.08372e-07
1.19622e-05
-1.727e-06
1.73563e-06
8.23698e-06
-4.2594e-06
3.828e-06
7.14808e-06
-5.11653e-06
1.82065e-06
9.12278e-06
-4.02695e-06
-1.65558e-06
1.40861e-05
-8.63149e-07
-6.03573e-06
1.83313e-05
1.63602e-06
-5.52463e-06
1.9461e-05
3.64524e-06
-2.76083e-06
1.79882e-05
4.91851e-06
1.85419e-07
1.46372e-05
6.06213e-06
1.62521e-06
9.8854e-06
8.14741e-06
1.32557e-06
6.15324e-06
1.08709e-05
-1.90732e-06
4.80636e-06
1.23932e-05
-6.32473e-06
5.03293e-06
1.19233e-05
-7.3358e-06
5.45682e-06
9.73828e-06
-4.23758e-06
5.13485e-06
6.74594e-06
-1.05694e-06
5.11501e-06
3.49642e-06
3.23567e-07
4.96998e-06
-3.82908e-07
2.07523e-06
5.02037e-06
-3.12866e-06
3.244e-06
5.86076e-06
-4.88183e-06
2.94323e-06
7.39269e-06
-3.97913e-06
2.1495e-06
6.73392e-06
2.53999e-07
2.29002e-06
1.79286e-06
6.40767e-06
3.28914e-06
-4.52167e-06
1.03622e-05
4.39943e-06
-9.18911e-06
7.74972e-06
5.75181e-06
-1.16289e-05
1.83674e-06
4.34048e-06
-1.2096e-05
-5.35992e-07
2.09221e-06
-1.14195e-05
-8.06588e-07
5.09515e-07
-7.96768e-06
8.68661e-07
-4.02403e-06
4.16911e-06
-9.88385e-06
-3.21722e-06
-4.14494e-06
-2.80897e-08
-2.08579e-06
-4.54013e-06
-6.90479e-07
-2.03546e-06
-2.8398e-06
3.23491e-07
-1.65837e-06
-2.6679e-06
-9.29575e-08
-1.32229e-06
-1.85326e-06
-5.21162e-08
-6.70614e-07
-1.60363e-06
-2.42075e-07
-2.27123e-07
-4.87741e-07
-2.74302e-07
-2.52484e-07
1.9644e-07
-1.33096e-07
-4.62252e-07
5.18594e-07
-1.17085e-07
-5.9396e-07
3.90504e-07
-1.4331e-07
-6.59648e-07
3.25752e-07
-1.99681e-07
-7.2454e-07
2.72166e-07
-2.43909e-07
-7.50305e-07
1.58833e-07
-2.83724e-07
-7.19708e-07
1.39311e-08
-3.17608e-07
-6.38593e-07
-9.67517e-08
-3.39917e-07
-5.32978e-07
-1.50344e-07
-3.57083e-07
-4.25623e-07
-1.43888e-07
-3.64287e-07
-3.3113e-07
-1.26415e-07
-3.68909e-07
-2.52435e-07
-9.22742e-08
-3.69039e-07
-1.90548e-07
-6.49336e-08
-3.66805e-07
-1.45961e-07
-3.02152e-08
-3.62246e-07
-1.16354e-07
2.49797e-09
-3.57846e-07
-9.74096e-08
3.25189e-08
-3.53049e-07
-8.70207e-08
6.12764e-08
-3.4999e-07
-8.24088e-08
8.79802e-08
-3.48514e-07
-8.07412e-08
1.1236e-07
-3.4873e-07
-7.9692e-08
1.35004e-07
-3.5033e-07
-7.69227e-08
1.55798e-07
-3.53222e-07
-7.00591e-08
1.74595e-07
-3.57197e-07
-5.69943e-08
1.91525e-07
-3.61929e-07
-3.65145e-08
2.07159e-07
-3.66995e-07
-9.2926e-09
2.22884e-07
-3.71021e-07
2.27736e-08
2.40168e-07
-3.73407e-07
5.69004e-08
2.57292e-07
-3.73433e-07
9.14127e-08
2.66998e-07
-3.7024e-07
1.24962e-07
2.65983e-07
-3.63922e-07
1.51147e-07
2.58016e-07
-3.52945e-07
1.57993e-07
2.52996e-07
-3.3607e-07
1.26462e-07
2.662e-07
-3.12189e-07
4.07166e-08
3.05187e-07
-2.804e-07
-8.65473e-08
3.55713e-07
-2.4078e-07
-1.69306e-07
3.68196e-07
-2.08161e-07
-6.79946e-08
2.5914e-07
-2.0936e-07
2.67533e-07
1.16479e-07
-2.82797e-07
7.36359e-07
1.18803e-07
-4.20141e-07
1.16231e-06
3.01208e-07
-4.89411e-07
1.66582e-06
-3.85682e-07
-4.56564e-07
2.23846e-06
-2.55728e-06
-2.31128e-07
2.5514e-06
-5.79377e-06
2.68164e-07
2.84302e-06
-1.06697e-05
8.39336e-07
1.94219e-06
-1.45166e-05
2.05485e-06
-4.44975e-06
-2.37839e-05
6.09618e-06
-1.37393e-05
-2.06052e-05
8.97851e-06
-1.52811e-05
-1.13373e-05
5.59651e-06
-8.84433e-06
-6.61007e-06
-4.24805e-06
-6.12854e-06
-4.19438e-06
-2.71245e-06
5.94248e-06
8.2389e-06
-1.25412e-05
2.06378e-05
1.02414e-06
-9.82576e-06
-5.52456e-06
1.95527e-05
1.96858e-05
1.78584e-08
-1.54888e-05
-2.26685e-06
1.41536e-05
-4.09793e-05
-1.15936e-05
1.33758e-05
-2.50905e-05
-3.71138e-07
1.34292e-05
-1.65185e-05
-7.45868e-07
1.114e-05
-9.89682e-06
-1.96093e-06
8.25184e-06
-2.95699e-06
-1.48273e-06
4.58037e-06
1.94028e-06
1.96399e-07
-5.78326e-07
3.388e-06
1.50149e-06
-4.66755e-06
7.19777e-07
1.64245e-06
-5.47936e-06
-9.13633e-07
-2.53396e-06
-4.00908e-06
-4.04754e-07
-6.18206e-06
-1.70588e-06
6.92184e-07
-7.02234e-06
1.37732e-08
1.6107e-06
-4.1935e-06
3.57932e-07
2.81626e-06
-1.52439e-06
-1.22268e-06
4.89947e-06
3.26377e-07
-3.35503e-06
6.95671e-06
9.41505e-08
-4.7308e-06
9.64751e-06
-2.20961e-06
-4.68394e-06
1.21786e-05
-4.07807e-06
-2.38662e-06
1.40162e-05
-5.44259e-06
4.24084e-07
1.41529e-05
-4.57035e-06
1.46704e-06
1.23971e-05
-1.51674e-06
-3.44333e-07
9.59153e-06
1.95812e-06
-3.93373e-06
6.95301e-06
3.38233e-06
-7.11847e-06
2.87693e-06
3.80423e-06
-8.2559e-06
-2.49752e-06
3.25204e-06
-8.53881e-06
-6.03735e-06
3.1916e-06
-8.93991e-06
-8.09668e-06
3.61596e-06
-8.97597e-06
-7.88157e-06
3.93851e-06
-8.78152e-06
-4.35612e-06
4.41567e-06
-8.46216e-06
9.17439e-07
5.17087e-06
-7.42055e-06
3.6136e-06
5.70696e-06
-9.44808e-06
3.65694e-06
6.1203e-06
-1.21909e-05
-2.50089e-07
4.82964e-06
-1.20907e-05
-2.18742e-06
1.55124e-06
-1.07475e-05
-9.01041e-07
-1.24874e-06
-7.88744e-06
2.49676e-06
-4.48816e-06
6.72048e-06
-1.04388e-05
-3.92794e-06
-4.20537e-06
1.49687e-07
-2.74657e-06
-4.96638e-06
-7.55116e-07
-2.49096e-06
-3.2099e-06
1.14485e-07
-1.82782e-06
-2.89705e-06
-4.33998e-07
-1.50823e-06
-1.98954e-06
-1.83326e-07
-8.89683e-07
-1.87373e-06
-3.48457e-07
-3.39704e-07
-8.35659e-07
-2.02071e-07
-8.96843e-08
6.06664e-08
-1.14257e-07
-1.34795e-07
6.92214e-07
-1.2852e-07
-3.12412e-07
7.01018e-07
-1.3291e-07
-4.61287e-07
6.52103e-07
-1.77488e-07
-6.19635e-07
6.35215e-07
-2.04715e-07
-7.1524e-07
4.99338e-07
-2.44912e-07
-7.29777e-07
3.13663e-07
-2.85208e-07
-6.58878e-07
1.48888e-07
-3.16552e-07
-5.51511e-07
7.96889e-08
-3.37413e-07
-4.4375e-07
9.87412e-08
-3.50405e-07
-3.53635e-07
1.44086e-07
-3.6063e-07
-2.79153e-07
2.02948e-07
-3.69719e-07
-2.18078e-07
2.49686e-07
-3.75711e-07
-1.67935e-07
2.97822e-07
-3.78195e-07
-1.26763e-07
3.38905e-07
-3.77595e-07
-9.75045e-08
3.78234e-07
-3.74989e-07
-7.86126e-08
4.13713e-07
-3.71345e-07
-6.72239e-08
4.44383e-07
-3.67808e-07
-6.02293e-08
4.70283e-07
-3.64934e-07
-5.48077e-08
4.92288e-07
-3.62723e-07
-4.81778e-08
5.10239e-07
-3.61088e-07
-3.7913e-08
5.24046e-07
-3.59734e-07
-2.25115e-08
5.34233e-07
-3.58128e-07
-2.80576e-09
5.42712e-07
-3.55277e-07
1.93452e-08
5.51535e-07
-3.5082e-07
4.1897e-08
5.61847e-07
-3.44249e-07
6.14452e-08
5.72793e-07
-3.35068e-07
7.63843e-08
5.75889e-07
-3.2385e-07
8.25321e-08
5.70306e-07
-3.1049e-07
6.57849e-08
5.67657e-07
-2.92914e-07
5.66282e-09
5.85671e-07
-2.72573e-07
-1.13257e-07
6.35853e-07
-2.50752e-07
-2.7716e-07
7.00009e-07
-2.30939e-07
-4.15422e-07
7.16866e-07
-2.22912e-07
-3.93364e-07
5.9755e-07
-2.51432e-07
-6.81062e-08
2.86662e-07
-3.528e-07
5.31961e-07
2.57214e-08
-5.09331e-07
1.31668e-06
8.07154e-08
-7.46649e-07
2.12385e-06
2.93976e-07
-7.9997e-07
2.88077e-06
-4.04723e-07
-7.37893e-07
3.29735e-06
-2.59782e-06
-3.76067e-07
3.10087e-06
-5.92625e-06
3.28941e-07
1.24669e-06
-9.67889e-06
8.6334e-07
-3.00991e-06
-1.33866e-05
3.12659e-06
-1.43483e-05
-1.99407e-05
7.49512e-06
-2.65843e-05
-1.80504e-05
9.68123e-06
-2.90316e-05
-1.3168e-05
4.2781e-06
-2.35428e-05
-6.50081e-06
-5.59809e-06
-1.81962e-05
-6.85181e-06
-2.68901e-06
6.66364e-06
-3.54901e-06
-1.30718e-05
2.80614e-05
-1.1537e-05
-8.83686e-06
-1.43194e-06
2.83449e-05
2.07e-05
1.82423e-07
-1.1579e-05
-5.5244e-06
1.17276e-05
-3.94378e-05
-1.30865e-05
9.48639e-06
-2.19457e-05
-9.03603e-07
1.09439e-05
-1.42367e-05
-3.73935e-06
8.90654e-06
-6.18466e-06
-1.67478e-06
6.04527e-06
1.66827e-07
-2.62548e-07
2.85587e-06
3.34166e-06
1.78802e-06
4.38667e-07
4.82625e-06
9.78951e-07
-2.06011e-06
3.25425e-06
-3.56893e-08
-3.41717e-06
1.94636e-06
-1.50293e-06
-3.73872e-06
2.1562e-06
-2.2394e-06
-3.4899e-06
2.34833e-06
-1.90496e-06
-4.24649e-06
2.92705e-06
-5.59756e-07
-5.81219e-06
4.18479e-06
1.97175e-07
-7.63491e-06
6.19109e-06
5.31105e-07
-8.66884e-06
7.87557e-06
1.15075e-07
-8.4267e-06
9.94955e-06
-5.44174e-07
-7.67141e-06
1.22318e-05
-8.08458e-07
-7.37515e-06
1.38559e-05
-1.35955e-07
-8.76171e-06
1.41617e-05
1.37771e-06
-1.17569e-05
1.24754e-05
2.91683e-06
-1.38635e-05
8.73997e-06
2.95812e-06
-1.23987e-05
2.84444e-06
2.6438e-06
-9.79136e-06
-1.86003e-06
2.12966e-06
-8.61533e-06
-6.11995e-06
2.44641e-06
-9.03101e-06
-8.77114e-06
3.14947e-06
-1.06203e-05
-1.06772e-05
4.1698e-06
-1.15173e-05
-1.17606e-05
4.77607e-06
-9.99578e-06
-1.1193e-05
5.31528e-06
-6.71114e-06
-7.54494e-06
5.17774e-06
-3.85293e-06
-4.128e-06
4.88339e-06
-5.6021e-06
-3.93832e-07
5.79995e-06
-9.97634e-06
2.53132e-07
3.87102e-06
-1.0181e-05
-8.06879e-07
-1.17586e-06
-9.35258e-06
1.59191e-06
-3.32139e-06
-7.06077e-06
5.85268e-06
-5.64772e-06
9.89035e-06
-1.02306e-05
-4.47019e-06
-3.89299e-06
1.58892e-07
-3.19652e-06
-5.13908e-06
-1.10097e-06
-2.87474e-06
-3.29176e-06
-2.3992e-07
-1.85152e-06
-3.02478e-06
-8.95508e-07
-1.40795e-06
-1.92232e-06
-5.10802e-07
-9.22595e-07
-1.82557e-06
-5.33518e-07
-5.00191e-07
-9.66841e-07
-2.91231e-07
-1.06967e-07
-1.69819e-07
-1.62749e-07
1.364e-07
6.45247e-07
-1.96411e-07
5.62391e-08
9.42477e-07
-1.61308e-07
-1.52831e-07
1.02803e-06
-1.66866e-07
-4.38464e-07
1.08267e-06
-1.61831e-07
-6.40388e-07
9.08558e-07
-2.07308e-07
-6.91525e-07
6.24681e-07
-2.59892e-07
-6.21843e-07
3.95451e-07
-3.16256e-07
-5.11174e-07
3.19374e-07
-3.50366e-07
-4.05389e-07
3.55818e-07
-3.62874e-07
-3.3138e-07
4.38978e-07
-3.68914e-07
-2.78969e-07
5.23841e-07
-3.73316e-07
-2.36785e-07
5.86548e-07
-3.79059e-07
-1.99468e-07
6.41851e-07
-3.81359e-07
-1.67436e-07
6.86137e-07
-3.79277e-07
-1.4118e-07
7.25213e-07
-3.73249e-07
-1.20923e-07
7.58628e-07
-3.65185e-07
-1.05377e-07
7.84956e-07
-3.56134e-07
-9.30008e-08
8.05073e-07
-3.4718e-07
-8.28167e-08
8.20871e-07
-3.38781e-07
-7.37825e-08
8.32102e-07
-3.30911e-07
-6.42196e-08
8.37925e-07
-3.23455e-07
-5.34625e-08
8.39612e-07
-3.16149e-07
-4.22174e-08
8.3936e-07
-3.07906e-07
-3.15636e-08
8.3964e-07
-2.98773e-07
-2.45563e-08
8.43563e-07
-2.88738e-07
-2.83791e-08
8.53885e-07
-2.77282e-07
-4.70207e-08
8.59241e-07
-2.64724e-07
-8.67114e-08
8.60074e-07
-2.5009e-07
-1.58116e-07
8.69864e-07
-2.30815e-07
-2.66256e-07
9.01276e-07
-2.07477e-07
-3.95498e-07
9.54623e-07
-1.8954e-07
-4.93062e-07
9.84426e-07
-1.86866e-07
-4.83016e-07
9.25422e-07
-2.18613e-07
-2.70095e-07
6.86833e-07
-3.02216e-07
2.07714e-07
2.74397e-07
-4.65556e-07
8.63925e-07
6.1141e-08
-6.91643e-07
1.70104e-06
2.10102e-07
-9.66516e-07
2.63188e-06
3.97335e-07
-1.03421e-06
3.31625e-06
-2.06736e-07
-8.82364e-07
3.51983e-06
-2.19372e-06
-6.07685e-07
2.42712e-06
-5.054e-06
2.20451e-07
-1.74629e-06
-6.48981e-06
9.84335e-07
-9.41858e-06
-9.57965e-06
3.86535e-06
-2.23657e-05
-1.40713e-05
7.0778e-06
-3.35839e-05
-1.34814e-05
6.6493e-06
-3.75098e-05
-1.12419e-05
1.99978e-06
-3.46854e-05
-8.87631e-06
-4.4877e-07
-2.73082e-05
-1.3896e-05
-3.32963e-07
-2.67228e-07
-2.4364e-05
-6.22569e-06
1.11935e-05
-2.36875e-05
6.89623e-07
-3.06754e-06
2.53685e-05
1.72362e-05
-4.989e-08
-8.72345e-06
-5.87311e-06
4.49358e-06
-2.91108e-05
-1.48702e-05
2.2592e-06
-1.85619e-05
-1.14922e-06
9.11424e-06
-1.53659e-05
-5.72571e-06
8.37127e-06
-4.15376e-06
-1.28787e-06
8.10247e-06
3.17836e-07
1.17872e-07
5.38402e-06
5.37951e-06
6.80681e-07
2.73016e-06
7.33123e-06
1.48984e-07
-1.03875e-06
6.99403e-06
2.9251e-08
-4.52725e-06
6.05036e-06
-6.15386e-07
-5.92626e-06
4.24711e-06
-6.91766e-07
-6.2545e-06
2.79506e-06
-1.18367e-07
-7.62181e-06
3.36251e-06
9.32006e-07
-9.66116e-06
4.86413e-06
1.36018e-06
-1.16794e-05
6.94966e-06
1.25981e-06
-1.37014e-05
8.88562e-06
1.01219e-06
-1.54196e-05
1.07325e-05
9.35564e-07
-1.70406e-05
1.26153e-05
1.23791e-06
-1.81528e-05
1.35178e-05
1.45064e-06
-1.89262e-05
1.35033e-05
1.43221e-06
-1.74966e-05
1.00923e-05
9.54001e-07
-1.42817e-05
5.14451e-06
3.81033e-07
-9.67129e-06
-1.8463e-06
8.07206e-08
-5.98839e-06
-6.33524e-06
7.92674e-07
-3.79528e-06
-9.64451e-06
1.33175e-06
-2.92091e-06
-1.17403e-05
2.095e-06
-4.22867e-06
-1.26962e-05
3.32693e-06
-8.14467e-06
-1.29823e-05
5.13771e-06
-1.20486e-05
-1.33645e-05
6.07559e-06
-1.32713e-05
-1.22139e-05
5.8916e-06
-1.10805e-05
-1.00021e-05
3.68333e-06
-7.08248e-06
-5.06513e-06
6.73305e-07
-4.14604e-06
3.73473e-07
-3.05679e-06
-3.63427e-06
3.39259e-06
-4.71124e-06
-4.17342e-06
7.51487e-06
-5.38381e-06
-3.69048e-06
1.17606e-05
-6.39081e-06
1.60269e-05
-9.82699e-06
-4.6488e-06
-3.10754e-06
1.96013e-07
-3.37953e-06
-4.92035e-06
-1.488e-06
-3.08099e-06
-2.91597e-06
-6.74336e-07
-1.86757e-06
-2.97012e-06
-1.26808e-06
-1.20655e-06
-1.74067e-06
-8.42667e-07
-6.50226e-07
-1.55412e-06
-8.27788e-07
-3.32408e-07
-6.76615e-07
-6.08052e-07
-1.08379e-07
-5.95538e-08
-3.34302e-07
1.44413e-07
7.21714e-07
-3.29267e-07
1.95098e-07
1.12409e-06
-2.3231e-07
4.62313e-08
1.3456e-06
-1.68714e-07
-3.14728e-07
1.55154e-06
-1.07919e-07
-5.73299e-07
1.31897e-06
-1.5185e-07
-6.27162e-07
9.25871e-07
-2.47335e-07
-5.62302e-07
6.62373e-07
-3.3179e-07
-4.67166e-07
5.97423e-07
-3.73193e-07
-3.69893e-07
6.42495e-07
-3.83959e-07
-3.12757e-07
7.56904e-07
-3.7507e-07
-2.78297e-07
8.57398e-07
-3.68025e-07
-2.57369e-07
9.29872e-07
-3.64261e-07
-2.43332e-07
9.86917e-07
-3.59111e-07
-2.32785e-07
1.02856e-06
-3.52984e-07
-2.23664e-07
1.06102e-06
-3.44938e-07
-2.15762e-07
1.08554e-06
-3.34821e-07
-2.07651e-07
1.10117e-06
-3.24332e-07
-1.98721e-07
1.10957e-06
-3.13433e-07
-1.90748e-07
1.11425e-06
-3.01356e-07
-1.83826e-07
1.11464e-06
-2.8947e-07
-1.77984e-07
1.11045e-06
-2.78376e-07
-1.74751e-07
1.10378e-06
-2.67407e-07
-1.7518e-07
1.0965e-06
-2.56716e-07
-1.81084e-07
1.091e-06
-2.4546e-07
-1.986e-07
1.09415e-06
-2.33073e-07
-2.36792e-07
1.10961e-06
-2.1754e-07
-2.97025e-07
1.11954e-06
-2.00072e-07
-3.79993e-07
1.12472e-06
-1.81679e-07
-4.79772e-07
1.13322e-06
-1.63575e-07
-5.6939e-07
1.14023e-06
-1.49339e-07
-5.98257e-07
1.12918e-06
-1.45693e-07
-5.0957e-07
1.05248e-06
-1.5674e-07
-2.88071e-07
8.90935e-07
-1.87012e-07
6.9987e-08
5.94336e-07
-2.65559e-07
5.58302e-07
1.93202e-07
-4.07119e-07
1.16758e-06
5.87288e-08
-6.06865e-07
1.91157e-06
3.52011e-07
-8.85896e-07
2.71305e-06
6.0225e-07
-1.00639e-06
3.20341e-06
1.79532e-07
-8.76621e-07
3.10074e-06
-1.35257e-06
-7.38479e-07
1.48401e-06
-3.21976e-06
-2.17504e-07
-3.4668e-06
-2.3466e-06
8.07615e-07
-1.29719e-05
-3.10505e-06
3.03052e-06
-2.35299e-05
-7.49253e-06
3.97927e-06
-3.20311e-05
-8.52088e-06
3.54076e-06
-3.70566e-05
-9.35921e-06
3.14292e-06
-3.73717e-05
-1.21883e-05
3.62716e-06
-3.42568e-05
-1.98494e-05
2.83872e-06
-3.73097e-05
-2.34257e-05
2.11468e-06
-3.27812e-05
-2.92936e-05
1.07733e-06
2.41849e-06
-1.72119e-05
7.37941e-06
1.88138e-06
-1.08017e-06
-7.10602e-06
3.57522e-07
-1.24075e-05
-1.51787e-05
-6.6107e-06
-1.06967e-05
-8.96378e-07
-4.33041e-06
-1.15642e-05
-6.08158e-06
-3.1191e-07
-6.15081e-06
-2.02113e-06
1.87766e-06
-4.86102e-07
-1.38535e-06
7.79805e-07
6.46973e-06
7.93088e-09
-1.77541e-06
9.77693e-06
1.09847e-07
-5.89867e-06
1.09765e-05
1.41168e-07
-9.8575e-06
9.93393e-06
7.57463e-08
-1.40506e-05
7.95017e-06
4.90599e-07
-1.78588e-05
6.09829e-06
5.05642e-07
-2.12493e-05
5.64658e-06
1.10715e-06
-2.34737e-05
6.02425e-06
1.06507e-06
-2.48404e-05
7.21122e-06
1.10614e-06
-2.61015e-05
9.05837e-06
1.08934e-06
-2.70629e-05
1.07578e-05
9.3724e-07
-2.7016e-05
1.16773e-05
8.92358e-07
-2.52567e-05
1.14287e-05
3.31073e-07
-2.20836e-05
1.03795e-05
-4.77543e-08
-1.76253e-05
6.28354e-06
-6.47984e-07
-1.26138e-05
9.39106e-07
-8.04472e-07
-9.40484e-06
-5.68628e-06
6.32628e-07
-7.81545e-06
-9.65166e-06
1.72864e-06
-6.28989e-06
-1.31342e-05
1.96574e-06
-4.7981e-06
-1.56907e-05
2.46015e-06
-4.2517e-06
-1.63346e-05
3.09349e-06
-6.30173e-06
-1.58149e-05
4.88394e-06
-1.19749e-05
-1.42301e-05
6.53987e-06
-1.8376e-05
-1.20504e-05
6.23844e-06
-2.12556e-05
-1.02147e-05
3.09265e-06
-1.60367e-05
-8.59672e-06
-1.68705e-06
-1.01943e-05
-1.44835e-06
-4.02049e-06
-6.94516e-06
4.42117e-06
-4.27777e-06
-5.10796e-06
1.08114e-05
-5.13373e-06
-3.34564e-06
1.69698e-05
-6.97154e-06
2.19801e-05
-9.29884e-06
-4.32015e-06
-1.96467e-06
6.84662e-07
-3.32699e-06
-4.64067e-06
-1.27284e-06
-3.26884e-06
-2.2897e-06
-6.84422e-07
-2.09087e-06
-2.87412e-06
-1.27398e-06
-1.21306e-06
-1.73436e-06
-8.84129e-07
-4.6151e-07
-1.33598e-06
-9.69695e-07
-2.30604e-07
-2.48154e-07
-6.59372e-07
-2.29495e-07
1.89679e-07
-2.50348e-07
-6.3629e-08
8.4472e-07
-2.8888e-07
3.26702e-08
1.23609e-06
-2.08304e-07
6.58366e-08
1.47165e-06
-1.59225e-07
-3.31034e-08
1.74562e-06
-9.51472e-08
-1.15352e-07
1.60598e-06
-2.04764e-07
-1.7382e-07
1.29706e-06
-3.12728e-07
-2.07377e-07
1.10915e-06
-4.13229e-07
-2.48091e-07
1.11016e-06
-4.72029e-07
-2.85926e-07
1.19244e-06
-5.12116e-07
-3.2388e-07
1.31723e-06
-5.22374e-07
-3.52054e-07
1.41565e-06
-5.30084e-07
-3.67787e-07
1.47641e-06
-5.3081e-07
-3.7423e-07
1.52217e-06
-5.28814e-07
-3.7557e-07
1.55558e-06
-5.25677e-07
-3.72184e-07
1.57942e-06
-5.21788e-07
-3.65645e-07
1.5961e-06
-5.17097e-07
-3.57142e-07
1.60504e-06
-5.12378e-07
-3.47507e-07
1.60804e-06
-5.08105e-07
-3.39232e-07
1.60898e-06
-5.03006e-07
-3.34503e-07
1.60761e-06
-4.97695e-07
-3.34645e-07
1.60297e-06
-4.92375e-07
-3.40966e-07
1.59652e-06
-4.86414e-07
-3.55301e-07
1.59027e-06
-4.79437e-07
-3.80011e-07
1.58638e-06
-4.70667e-07
-4.2371e-07
1.5967e-06
-4.58851e-07
-4.93073e-07
1.62234e-06
-4.43356e-07
-5.79303e-07
1.63527e-06
-4.29496e-07
-6.67389e-07
1.63108e-06
-4.18266e-07
-7.3739e-07
1.6133e-06
-4.10076e-07
-7.57042e-07
1.56875e-06
-4.08862e-07
-6.81792e-07
1.47587e-06
-4.21924e-07
-4.47303e-07
1.27716e-06
-4.59161e-07
-3.57033e-08
9.91023e-07
-5.11673e-07
4.84533e-07
6.63275e-07
-5.89161e-07
1.01387e-06
3.9842e-07
-7.34539e-07
1.47708e-06
5.41113e-07
-9.45573e-07
2.01819e-06
9.84893e-07
-1.17397e-06
2.80916e-06
1.17392e-06
-1.36261e-06
3.34869e-06
8.52142e-07
-1.21212e-06
3.07217e-06
4.33928e-08
-1.11941e-06
1.72854e-06
-6.28596e-07
-1.2475e-06
-1.61867e-06
1.81371e-06
-8.1307e-07
-1.1996e-05
7.14002e-06
1.32294e-07
-2.48139e-05
4.32264e-06
1.00279e-06
-3.40027e-05
1.26638e-07
5.41364e-07
-3.93651e-05
-3.97535e-06
-2.1352e-08
-4.21903e-05
-8.23011e-06
-1.13274e-06
-4.26179e-05
-1.55541e-05
-3.86758e-06
-4.55587e-05
-1.71662e-05
-3.31833e-06
-3.76183e-05
-2.76443e-05
-9.58981e-06
4.32438e-06
-4.80238e-05
-1.11324e-05
2.7956e-07
9.13717e-06
-6.172e-06
-1.66587e-05
1.93484e-05
-1.48163e-05
-2.41375e-05
-8.68368e-08
-3.12946e-06
-3.08761e-05
2.70154e-06
-7.52564e-06
-3.08138e-05
-3.73147e-07
-5.83855e-06
-3.05753e-05
4.48158e-06
-5.20477e-06
-2.94741e-05
8.74135e-06
-3.37144e-06
-3.1566e-05
1.30398e-05
-1.16953e-06
-3.61771e-05
1.56055e-05
-1.63749e-08
-4.18441e-05
1.58026e-05
-2.00068e-07
-4.47749e-05
1.32408e-05
-2.3581e-06
-4.57639e-05
1.07608e-05
-3.67176e-06
-4.59642e-05
1.002e-05
-4.17141e-06
-4.52986e-05
9.61923e-06
-4.2589e-06
-4.3182e-05
8.88647e-06
-3.79003e-06
-4.04365e-05
9.07675e-06
-2.76212e-06
-3.76166e-05
9.33787e-06
-1.39822e-06
-3.41225e-05
9.15175e-06
-9.66683e-07
-2.94536e-05
8.29219e-06
-1.53049e-06
-2.27702e-05
5.88045e-06
-2.18249e-06
-1.65977e-05
2.18028e-06
-2.06735e-06
-1.19826e-05
-1.86062e-06
-1.81349e-06
-8.44924e-06
-8.29236e-06
-9.25284e-07
-5.98972e-06
-1.39251e-05
1.81609e-06
-4.44329e-06
-1.72608e-05
2.58257e-06
-2.93305e-06
-2.02758e-05
3.07766e-06
-2.31239e-06
-2.08667e-05
3.9146e-06
-5.12309e-06
-1.93764e-05
6.37597e-06
-1.43781e-05
-1.60788e-05
1.11083e-05
-2.98875e-05
-9.1086e-06
1.2573e-05
-4.37607e-05
-4.694e-06
8.35847e-06
-4.8304e-05
-8.53626e-06
4.48923e-06
-4.40012e-05
-5.73608e-06
-8.61971e-09
-3.92052e-05
2.18746e-06
-2.55578e-06
-3.16251e-05
8.64476e-06
-5.40743e-06
-2.01319e-05
1.3442e-05
-7.96032e-06
1.23619e-05
-1.05116e-05
-2.95384e-06
-2.49515e-07
1.35769e-06
-2.82879e-06
-4.0874e-06
-6.78327e-07
-3.06553e-06
-1.65943e-06
-3.93532e-07
-2.16078e-06
-2.94963e-06
-8.29243e-07
-1.22792e-06
-1.99906e-06
-6.6816e-07
-4.84417e-07
-1.42819e-06
-6.513e-07
-4.01441e-07
-1.81416e-07
-1.49719e-07
-4.49931e-07
7.34145e-08
1.64749e-07
-3.51197e-07
6.23018e-07
1.22963e-07
-2.17169e-07
9.88808e-07
1.13249e-07
-1.00834e-08
1.19268e-06
7.18771e-08
1.75426e-07
1.37974e-06
1.80362e-07
2.39907e-07
1.35343e-06
1.88057e-07
1.73732e-07
1.17628e-06