/*--------------------------------*- C++ -*----------------------------------*\
| =========                 |                                                 |
| \\      /  F ield         | OpenFOAM: The Open Source CFD Toolbox           |
|  \\    /   O peration     | Version:  2.3.0                                 |
|   \\  /    A nd           | Web:      www.OpenFOAM.org                      |
|    \\/     M anipulation  |                                                 |
\*---------------------------------------------------------------------------*/
FoamFile
{
    version     2.0;
    format      ascii;
    class       surfaceScalarField;
    location    "25";
    object      phi.water;
}
// * * * * * * * * * * * * * * * * * * * * * * * * * * * * * * * * * * * * * //

dimensions      [0 3 -1 0 0 0 0];

internalField   nonuniform List<scalar> 
16448
(
-6.71434e-07
-2.35061e-06
5.39681e-07
8.7151e-07
-2.42885e-06
8.91773e-07
8.38993e-07
-1.19179e-06
1.22778e-06
9.13842e-07
-1.22833e-06
1.15617e-06
7.26476e-07
-7.50123e-07
9.41382e-07
5.74313e-07
-6.44819e-07
8.00575e-07
3.27488e-07
-3.69002e-07
6.20717e-07
1.31439e-07
-3.30598e-07
5.31691e-07
-5.22628e-08
-2.99428e-07
4.86451e-07
-2.30693e-07
-2.77036e-07
4.5629e-07
-3.9078e-07
-2.69476e-07
4.29761e-07
-4.57122e-07
-3.00495e-07
3.66935e-07
-4.3336e-07
-3.56746e-07
3.33175e-07
-3.30184e-07
-4.10836e-07
3.07791e-07
-2.13034e-07
-4.4178e-07
3.24855e-07
-9.72445e-08
-4.62226e-07
3.46611e-07
-1.70598e-08
-4.67125e-07
3.87204e-07
4.41812e-08
-4.75813e-07
4.14785e-07
8.23378e-08
-4.83395e-07
4.45496e-07
1.07745e-07
-4.8781e-07
4.62638e-07
1.20629e-07
-4.87895e-07
4.75265e-07
1.25108e-07
-4.84323e-07
4.80088e-07
1.23645e-07
-4.78738e-07
4.80466e-07
1.1891e-07
-4.7154e-07
4.76533e-07
1.1277e-07
-4.63315e-07
4.69736e-07
1.06482e-07
-4.54316e-07
4.60881e-07
1.00521e-07
-4.44526e-07
4.50786e-07
9.48557e-08
-4.3393e-07
4.39891e-07
8.95e-08
-4.22518e-07
4.28194e-07
8.56005e-08
-4.11569e-07
4.15786e-07
8.51537e-08
-4.01267e-07
4.02059e-07
8.97404e-08
-3.89342e-07
3.85097e-07
1.02065e-07
-3.75819e-07
3.63868e-07
1.27109e-07
-3.61743e-07
3.37071e-07
1.72417e-07
-3.48823e-07
3.03922e-07
2.45598e-07
-3.38892e-07
2.66112e-07
3.50004e-07
-3.329e-07
2.28932e-07
4.79962e-07
-3.29585e-07
2.00051e-07
6.19479e-07
-3.25838e-07
1.86784e-07
7.35937e-07
-3.15182e-07
1.99167e-07
7.69829e-07
-2.85099e-07
2.51727e-07
6.44091e-07
-2.40369e-07
3.66607e-07
2.86095e-07
-1.89658e-07
5.48218e-07
-2.68354e-07
-1.52277e-07
7.07261e-07
-8.88141e-07
-2.03957e-07
8.27515e-07
-1.48491e-06
-3.4558e-07
9.53354e-07
-1.94318e-06
-6.03979e-07
1.08151e-06
-1.51617e-06
-1.56713e-06
1.16611e-06
-3.6059e-07
-2.50511e-06
1.42577e-06
-1.95011e-07
-2.38276e-06
2.33614e-06
1.21521e-06
-5.10208e-06
3.91809e-06
7.99673e-06
-1.25276e-05
5.73585e-06
1.54758e-05
-1.39838e-05
6.45851e-06
1.65943e-05
-5.66835e-06
4.56696e-06
1.46706e-05
-1.97875e-06
3.96495e-06
1.49936e-05
-3.79342e-06
3.28457e-06
1.28266e-05
2.5281e-06
2.16535e-09
1.23311e-05
7.46896e-06
-8.18787e-06
4.25279e-06
1.00944e-05
8.61458e-06
3.07994e-05
2.05354e-06
-6.67661e-06
2.17176e-05
-2.00876e-05
-2.69581e-07
2.7573e-05
-1.48452e-05
6.56637e-06
2.91659e-05
-1.04709e-05
8.86989e-06
3.22608e-05
-9.86617e-06
6.77131e-06
3.4765e-05
-7.823e-06
5.31879e-06
3.54861e-05
-4.86173e-06
4.14056e-06
3.51791e-05
-3.15795e-06
3.46502e-06
3.49499e-05
-2.89105e-06
3.12024e-06
3.5036e-05
-3.31916e-06
3.23301e-06
3.50821e-05
-3.33862e-06
3.29256e-06
3.51002e-05
-2.67434e-06
2.65622e-06
3.48845e-05
-1.48369e-06
1.69941e-06
3.42851e-05
-3.10784e-07
9.10157e-07
3.27653e-05
7.03136e-07
8.16593e-07
3.01756e-05
1.40677e-06
1.18296e-06
2.69454e-05
1.84381e-06
1.38639e-06
2.39291e-05
1.86181e-06
1.15446e-06
2.16548e-05
1.42664e-06
8.477e-07
2.02645e-05
8.4451e-07
5.45833e-07
1.98695e-05
1.41915e-07
2.53058e-07
1.97273e-05
1.3823e-07
3.9097e-09
1.96774e-05
-3.16193e-07
3.66113e-07
1.96904e-05
-5.856e-07
5.72648e-07
2.0229e-05
-9.95971e-07
4.57333e-07
2.08279e-05
-8.90477e-07
2.91612e-07
2.20156e-05
-1.08273e-06
-1.05048e-07
2.24589e-05
-1.79958e-07
-2.63285e-07
2.07112e-05
1.45136e-06
2.96337e-07
1.73635e-05
2.21868e-06
1.12897e-06
9.88946e-06
4.44326e-06
3.0308e-06
1.3714e-08
4.99993e-06
4.87581e-06
-4.93579e-06
2.87818e-06
2.07133e-06
-7.22904e-06
1.22551e-06
1.06773e-06
-8.26899e-06
6.91434e-07
3.48526e-07
-7.19171e-06
-9.78883e-08
-9.79394e-07
5.91014e-07
-7.78273e-06
-1.65469e-06
-3.41976e-06
-7.13043e-08
-5.84261e-07
-3.5563e-06
6.60023e-08
-6.41255e-07
-2.0279e-06
8.99173e-07
-3.39604e-07
-1.99905e-06
4.73083e-07
-4.32825e-08
-1.2593e-06
2.18191e-07
1.70434e-07
-9.47085e-07
9.29624e-08
2.29744e-07
-4.10851e-07
-1.26019e-08
8.97757e-08
-2.24818e-07
3.82033e-08
-1.58558e-07
-1.25602e-07
7.63671e-08
-4.01442e-07
-1.25466e-07
9.11227e-08
-5.8043e-07
-1.55578e-07
6.47525e-08
-6.45095e-07
-2.45129e-07
8.92587e-09
-6.16965e-07
-3.53743e-07
-3.13343e-08
-5.07897e-07
-4.57154e-07
-6.29564e-08
-3.70837e-07
-5.18127e-07
-6.08325e-08
-2.307e-07
-5.53859e-07
-4.86536e-08
-1.23138e-07
-5.55264e-07
-1.95034e-08
-3.79165e-08
-5.61772e-07
6.02012e-10
1.92203e-08
-5.58185e-07
1.76045e-08
6.01475e-08
-5.56188e-07
2.73997e-08
8.31159e-08
-5.46408e-07
3.55321e-08
9.44242e-08
-5.34334e-07
3.86941e-08
9.68392e-08
-5.20017e-07
3.88662e-08
9.40462e-08
-5.04755e-07
3.60153e-08
8.84077e-08
-4.89033e-07
3.13648e-08
8.18168e-08
-4.73091e-07
2.53794e-08
7.54304e-08
-4.56768e-07
1.86359e-08
6.99776e-08
-4.39886e-07
1.14197e-08
6.57361e-08
-4.22276e-07
3.99977e-09
6.52644e-08
-4.04463e-07
-6.62121e-09
7.12543e-08
-3.87075e-07
-2.01435e-08
8.5788e-08
-3.68422e-07
-3.53795e-08
1.10934e-07
-3.48245e-07
-5.2624e-08
1.49946e-07
-3.28325e-07
-7.22932e-08
2.08135e-07
-3.13006e-07
-9.38418e-08
2.90805e-07
-3.04885e-07
-1.16465e-07
4.00589e-07
-3.04964e-07
-1.3748e-07
5.33297e-07
-3.09946e-07
-1.52062e-07
6.73183e-07
-3.13164e-07
-1.52255e-07
7.88435e-07
-3.02056e-07
-1.28015e-07
8.20242e-07
-2.53268e-07
-6.32654e-08
6.93058e-07
-1.6029e-07
4.75562e-08
3.68103e-07
-4.10744e-08
1.76957e-07
-1.01652e-07
4.72344e-08
2.71324e-07
-6.41663e-07
3.39609e-08
3.06151e-07
-1.24555e-06
-7.60192e-08
3.49637e-07
-1.70871e-06
-5.72597e-07
4.71234e-07
-1.70305e-06
-2.13706e-06
6.2561e-07
-8.6974e-07
-4.15686e-06
9.05824e-07
1.82969e-06
-6.34814e-06
1.39031e-06
4.49928e-06
-9.92608e-06
2.33058e-06
6.32438e-06
-2.05947e-05
6.27637e-06
4.40254e-06
-2.0087e-05
8.07434e-06
-1.11855e-06
-6.73409e-06
6.60575e-06
-1.04359e-06
-3.92359e-06
2.03156e-06
-8.43416e-07
-4.58943e-06
4.26089e-07
4.7037e-06
5.20315e-06
-7.50981e-06
7.34381e-06
8.01462e-06
-3.98127e-06
6.14023e-06
8.46966e-06
1.324e-05
3.02309e-05
2.35174e-06
-3.48663e-06
1.81468e-05
-2.94104e-05
-6.88182e-06
2.05714e-05
-2.31097e-05
3.49765e-06
2.10112e-05
-1.69123e-05
5.99531e-06
2.30263e-05
-1.39295e-05
2.04816e-06
2.33734e-05
-9.05801e-06
8.87936e-07
2.2689e-05
-3.89023e-06
-2.87096e-07
2.18272e-05
-2.16471e-06
-1.31439e-07
2.097e-05
-2.34507e-06
3.11167e-07
2.01677e-05
-4.15658e-06
1.63975e-06
1.94266e-05
-4.38479e-06
1.78724e-06
1.94235e-05
-3.70784e-06
1.03663e-06
2.051e-05
-1.93552e-06
-6.34671e-07
2.25177e-05
3.566e-07
-2.67514e-06
2.39958e-05
2.01403e-06
-2.78896e-06
2.3915e-05
3.63115e-06
-2.14359e-06
2.26385e-05
4.33632e-06
-1.21597e-06
2.08575e-05
4.72122e-06
-1.07842e-06
1.8316e-05
5.23141e-06
-1.26329e-06
1.49667e-05
4.72162e-06
-5.27776e-07
1.24671e-05
4.81403e-06
-2.17254e-06
1.1419e-05
5.92459e-06
-4.73826e-06
9.84264e-06
5.36703e-06
-4.10689e-06
8.47473e-06
3.80014e-06
-3.01783e-06
8.49456e-06
1.5473e-06
-2.5631e-06
9.754e-06
1.65725e-07
-2.31564e-06
1.20946e-05
-1.09821e-06
-2.32512e-06
1.41474e-05
-2.97697e-07
-1.93503e-06
1.44195e-05
1.88525e-06
-7.06e-07
1.18523e-05
4.75574e-06
3.01128e-08
5.46347e-06
8.44707e-06
2.38501e-06
-3.13865e-06
8.83409e-06
4.76796e-06
-7.95603e-06
3.73746e-06
3.9581e-06
-1.01464e-05
1.08906e-06
2.32678e-06
-1.04583e-05
3.79439e-07
6.23922e-07
-7.6811e-06
2.96447e-07
-3.17151e-06
2.25294e-06
-9.34303e-06
-2.35488e-06
-3.85123e-06
-2.50684e-07
-1.36772e-06
-4.09856e-06
-4.35169e-07
-1.44596e-06
-2.4655e-06
5.22425e-07
-1.16671e-06
-2.38321e-06
1.08567e-07
-8.16718e-07
-1.56857e-06
-3.53224e-08
-3.61035e-07
-1.19322e-06
-2.0444e-07
-1.68797e-07
-3.17963e-07
-2.80313e-07
-2.67498e-07
3.85684e-08
-1.6182e-07
-4.62479e-07
1.92233e-07
-1.21254e-07
-5.89958e-07
1.1589e-07
-1.13373e-07
-6.66261e-07
6.06922e-08
-1.39585e-07
-6.89263e-07
-3.64243e-08
-1.85493e-07
-6.64774e-07
-1.50546e-07
-2.27596e-07
-5.92002e-07
-2.73058e-07
-2.56926e-07
-4.83984e-07
-3.55599e-07
-2.70616e-07
-3.60739e-07
-4.0191e-07
-2.75299e-07
-2.48203e-07
-4.00954e-07
-2.66894e-07
-1.5007e-07
-4.00992e-07
-2.58991e-07
-7.71708e-08
-3.82794e-07
-2.48307e-07
-2.1586e-08
-3.70046e-07
-2.41768e-07
1.44531e-08
-3.48078e-07
-2.34364e-07
3.66267e-08
-3.25959e-07
-2.30557e-07
4.6805e-08
-3.0181e-07
-2.28361e-07
4.95385e-08
-2.78559e-07
-2.28903e-07
4.78085e-08
-2.56162e-07
-2.31092e-07
4.41709e-08
-2.34952e-07
-2.34449e-07
4.07523e-08
-2.14529e-07
-2.38748e-07
3.98834e-08
-1.94916e-07
-2.44026e-07
4.40052e-08
-1.76002e-07
-2.50299e-07
5.48886e-08
-1.57609e-07
-2.57635e-07
7.35946e-08
-1.39622e-07
-2.66027e-07
1.01267e-07
-1.21184e-07
-2.74768e-07
1.37165e-07
-1.01433e-07
-2.82533e-07
1.79881e-07
-8.22695e-08
-2.88575e-07
2.30118e-07
-6.89676e-08
-2.94036e-07
2.88218e-07
-6.46136e-08
-2.98108e-07
3.5262e-07
-6.8936e-08
-3.00115e-07
4.15574e-07
-7.6389e-08
-2.96164e-07
4.62231e-07
-7.76215e-08
-2.81792e-07
4.7118e-07
-6.09916e-08
-2.49578e-07
4.26992e-07
-1.22531e-08
-1.96315e-07
3.076e-07
7.74715e-08
-1.17802e-07
1.61263e-07
1.5146e-07
-4.55131e-08
8.10921e-08
1.69721e-07
-4.0827e-08
3.70109e-08
1.68237e-07
-8.50923e-08
-1.51443e-07
2.3876e-07
-1.06242e-07
-2.57375e-07
-3.37504e-07
-7.78297e-08
-1.45845e-07
-2.21461e-06
4.08282e-08
5.89642e-07
-5.21125e-06
4.20989e-07
3.18291e-06
-9.53971e-06
7.39491e-07
5.10902e-06
-1.33567e-05
1.64077e-06
3.40879e-06
-2.40648e-05
5.22428e-06
-2.96102e-06
-2.09268e-05
7.22933e-06
-8.28051e-06
-7.30616e-06
5.85017e-06
-7.33052e-06
-4.4458e-06
-3.79652e-07
-6.25614e-06
-4.20554e-06
-1.71908e-06
3.5587e-06
7.68587e-06
-1.14614e-05
9.474e-06
5.92307e-06
-4.56048e-06
-3.59343e-06
1.28901e-05
1.688e-05
3.11303e-05
-9.65554e-06
2.92148e-07
2.19277e-05
-3.85788e-05
-1.07499e-05
2.12056e-05
-2.62402e-05
2.08419e-06
1.95168e-05
-1.7211e-05
1.98337e-06
1.98334e-05
-1.41469e-05
-9.91028e-08
1.67805e-05
-7.32786e-06
1.3228e-06
1.5403e-05
-1.53479e-06
-9.77978e-07
1.43159e-05
-2.69208e-07
-8.08372e-07
1.19622e-05
-1.727e-06
1.73563e-06
8.23699e-06
-4.2594e-06
3.828e-06
7.14808e-06
-5.11653e-06
1.82065e-06
9.12278e-06
-4.02695e-06
-1.65558e-06
1.40861e-05
-8.63148e-07
-6.03573e-06
1.83313e-05
1.63602e-06
-5.52463e-06
1.9461e-05
3.64524e-06
-2.76083e-06
1.79882e-05
4.91851e-06
1.85419e-07
1.46372e-05
6.06213e-06
1.62521e-06
9.8854e-06
8.14741e-06
1.32557e-06
6.15324e-06
1.08709e-05
-1.90732e-06
4.80637e-06
1.23932e-05
-6.32473e-06
5.03293e-06
1.19233e-05
-7.3358e-06
5.45682e-06
9.73828e-06
-4.23758e-06
5.13485e-06
6.74594e-06
-1.05694e-06
5.11501e-06
3.49642e-06
3.23567e-07
4.96998e-06
-3.82908e-07
2.07523e-06
5.02037e-06
-3.12866e-06
3.244e-06
5.86076e-06
-4.88183e-06
2.94323e-06
7.39269e-06
-3.97913e-06
2.1495e-06
6.73392e-06
2.53999e-07
2.29002e-06
1.79286e-06
6.40767e-06
3.28914e-06
-4.52167e-06
1.03622e-05
4.39943e-06
-9.18911e-06
7.74972e-06
5.75181e-06
-1.16289e-05
1.83674e-06
4.34048e-06
-1.2096e-05
-5.35992e-07
2.09221e-06
-1.14195e-05
-8.06588e-07
5.09515e-07
-7.96768e-06
8.68661e-07
-4.02403e-06
4.16911e-06
-9.88385e-06
-3.14844e-06
-4.14466e-06
-2.89189e-08
-2.00773e-06
-4.53948e-06
-6.9041e-07
-1.94922e-06
-2.8391e-06
3.23033e-07
-1.56873e-06
-2.66714e-06
-9.32813e-08
-1.22768e-06
-1.8524e-06
-5.23047e-08
-5.70112e-07
-1.60264e-06
-2.4226e-07
-1.19692e-07
-4.86852e-07
-2.74683e-07
-1.41238e-07
1.97129e-07
-1.33804e-07
-3.49351e-07
5.19169e-07
-1.17678e-07
-4.80224e-07
3.90973e-07
-1.43716e-07
-5.45042e-07
3.26072e-07
-1.99999e-07
-6.09253e-07
2.72377e-07
-2.44153e-07
-6.34591e-07
1.58948e-07
-2.83914e-07
-6.03734e-07
1.39662e-08
-3.17763e-07
-5.22368e-07
-9.67775e-08
-3.40069e-07
-4.16483e-07
-1.50418e-07
-3.57228e-07
-3.08813e-07
-1.44011e-07
-3.64433e-07
-2.1398e-07
-1.26572e-07
-3.6905e-07
-1.34912e-07
-9.24681e-08
-3.69181e-07
-7.26411e-08
-6.51527e-08
-3.66944e-07
-2.76454e-08
-3.04654e-08
-3.62387e-07
2.38388e-09
2.21987e-09
-3.57983e-07
2.17636e-08
3.22368e-08
-3.5319e-07
3.26034e-08
6.0991e-08
-3.50127e-07
3.76741e-08
8.76829e-08
-3.48653e-07
3.98165e-08
1.12058e-07
-3.48866e-07
4.13445e-08
1.3469e-07
-3.50467e-07
4.46109e-08
1.5548e-07
-3.53355e-07
5.1975e-08
1.74264e-07
-3.57333e-07
6.55612e-08
1.91191e-07
-3.62059e-07
8.65662e-08
2.06814e-07
-3.67129e-07
1.14339e-07
2.22539e-07
-3.7115e-07
1.46963e-07
2.39814e-07
-3.73542e-07
1.8168e-07
2.56946e-07
-3.73568e-07
2.16796e-07
2.66656e-07
-3.70386e-07
2.50984e-07
2.6567e-07
-3.64072e-07
2.77831e-07
2.57728e-07
-3.53113e-07
2.85381e-07
2.52762e-07
-3.3625e-07
2.54592e-07
2.66027e-07
-3.12397e-07
1.69648e-07
3.05118e-07
-2.80625e-07
4.32293e-08
3.55768e-07
-2.41032e-07
-3.86228e-08
3.68419e-07
-2.08415e-07
6.38153e-08
2.59544e-07
-2.09603e-07
4.01875e-07
1.17115e-07
-2.82974e-07
8.76782e-07
1.19726e-07
-4.20232e-07
1.32425e-06
3.026e-07
-4.89278e-07
1.88531e-06
-3.83685e-07
-4.56237e-07
2.53866e-06
-2.55392e-06
-2.31029e-07
2.95972e-06
-5.78941e-06
2.67218e-07
3.41078e-06
-1.06614e-05
8.32704e-07
2.65767e-06
-1.44892e-05
2.02763e-06
-3.722e-06
-2.37671e-05
6.08696e-06
-1.30229e-05
-2.0604e-05
8.98224e-06
-1.45508e-05
-1.13324e-05
5.56168e-06
-7.98121e-06
-6.53599e-06
-4.28578e-06
-5.56169e-06
-4.13214e-06
-2.72102e-06
7.93753e-06
8.20065e-06
-1.25317e-05
2.10231e-05
1.13163e-06
-9.4939e-06
7.01022e-06
1.94109e-05
1.93903e-05
3.26323e-05
-1.14022e-05
-5.33389e-07
1.50777e-05
-4.107e-05
-1.16316e-05
1.33769e-05
-2.5091e-05
-3.71119e-07
1.34292e-05
-1.65186e-05
-7.4587e-07
1.114e-05
-9.89684e-06
-1.96093e-06
8.25184e-06
-2.957e-06
-1.48273e-06
4.58037e-06
1.94027e-06
1.96398e-07
-5.78325e-07
3.38801e-06
1.50149e-06
-4.66755e-06
7.19778e-07
1.64245e-06
-5.47936e-06
-9.13641e-07
-2.53396e-06
-4.00908e-06
-4.04764e-07
-6.18206e-06
-1.70588e-06
6.92175e-07
-7.02234e-06
1.3774e-08
1.61069e-06
-4.1935e-06
3.57933e-07
2.81624e-06
-1.52439e-06
-1.22268e-06
4.89946e-06
3.26377e-07
-3.35503e-06
6.95669e-06
9.41505e-08
-4.7308e-06
9.64749e-06
-2.20961e-06
-4.68394e-06
1.21786e-05
-4.07807e-06
-2.38662e-06
1.40162e-05
-5.44259e-06
4.24084e-07
1.41529e-05
-4.57035e-06
1.46704e-06
1.23971e-05
-1.51675e-06
-3.44332e-07
9.59162e-06
1.95812e-06
-3.93373e-06
6.9531e-06
3.38233e-06
-7.11847e-06
2.877e-06
3.80423e-06
-8.2559e-06
-2.49749e-06
3.25204e-06
-8.53881e-06
-6.03734e-06
3.1916e-06
-8.93991e-06
-8.09668e-06
3.61596e-06
-8.97597e-06
-7.88157e-06
3.93851e-06
-8.78152e-06
-4.35612e-06
4.41567e-06
-8.46216e-06
9.17439e-07
5.17087e-06
-7.42055e-06
3.6136e-06
5.70696e-06
-9.44808e-06
3.65694e-06
6.1203e-06
-1.21909e-05
-2.50089e-07
4.82964e-06
-1.20907e-05
-2.18742e-06
1.55124e-06
-1.07475e-05
-9.01041e-07
-1.24874e-06
-7.88744e-06
2.49676e-06
-4.48816e-06
6.72048e-06
-1.04388e-05
-3.8621e-06
-4.20516e-06
1.48583e-07
-2.67274e-06
-4.96559e-06
-7.55334e-07
-2.4077e-06
-3.20895e-06
1.14003e-07
-1.74085e-06
-2.89592e-06
-4.3463e-07
-1.41651e-06
-1.98851e-06
-1.83593e-07
-7.92876e-07
-1.87262e-06
-3.48673e-07
-2.34444e-07
-8.34513e-07
-2.02394e-07
2.15855e-08
6.16282e-08
-1.14921e-07
-2.10371e-08
6.92954e-07
-1.29199e-07
-1.97789e-07
7.01621e-07
-1.33445e-07
-3.45599e-07
6.52504e-07
-1.77938e-07
-5.03021e-07
6.35408e-07
-2.05106e-07
-5.98003e-07
4.99385e-07
-2.45247e-07
-6.1212e-07
3.13605e-07
-2.85511e-07
-5.40837e-07
1.48749e-07
-3.16853e-07
-4.33071e-07
7.94805e-08
-3.37719e-07
-3.24859e-07
9.84681e-08
-3.50707e-07
-2.34273e-07
1.43744e-07
-3.60932e-07
-1.59278e-07
2.02554e-07
-3.70014e-07
-9.76946e-08
2.49244e-07
-3.76007e-07
-4.70062e-08
2.97346e-07
-3.78487e-07
-5.29765e-09
3.38395e-07
-3.77889e-07
2.45327e-08
3.77704e-07
-3.75281e-07
4.39936e-08
4.13158e-07
-3.7164e-07
5.59736e-08
4.43816e-07
-3.68101e-07
6.35594e-08
4.69695e-07
-3.65232e-07
6.95929e-08
4.91694e-07
-3.63017e-07
7.68351e-08
5.09627e-07
-3.61388e-07
8.77348e-08
5.23433e-07
-3.60031e-07
1.03772e-07
5.33609e-07
-3.58432e-07
1.24139e-07
5.42094e-07
-3.5558e-07
1.46957e-07
5.50914e-07
-3.51133e-07
1.70208e-07
5.61243e-07
-3.44564e-07
1.90465e-07
5.72198e-07
-3.35398e-07
2.06154e-07
5.75327e-07
-3.24185e-07
2.13061e-07
5.69771e-07
-3.10845e-07
1.9713e-07
5.67182e-07
-2.93282e-07
1.37849e-07
5.85253e-07
-2.72968e-07
1.98338e-08
6.35526e-07
-2.51161e-07
-1.43134e-07
6.99765e-07
-2.31371e-07
-2.80386e-07
7.16748e-07
-2.23336e-07
-2.57202e-07
5.9756e-07
-2.51839e-07
6.9601e-08
2.86858e-07
-3.5316e-07
6.72849e-07
2.61645e-08
-5.09673e-07
1.46652e-06
8.13744e-08
-7.47009e-07
2.3021e-06
2.9486e-07
-8.0018e-07
3.12007e-06
-4.0333e-07
-7.37515e-07
3.61858e-06
-2.59505e-06
-3.75841e-07
3.53987e-06
-5.92218e-06
3.2665e-07
1.88369e-06
-9.66581e-06
8.46173e-07
-2.22628e-06
-1.33651e-05
3.08704e-06
-1.35923e-05
-1.99219e-05
7.46442e-06
-2.58483e-05
-1.80166e-05
9.63913e-06
-2.81967e-05
-1.31077e-05
4.21096e-06
-2.26426e-05
-6.45425e-06
-5.69145e-06
-1.77281e-05
-6.80507e-06
-2.72665e-06
9.59423e-06
-3.55064e-06
-1.30146e-05
2.89746e-05
-1.16247e-05
-8.58471e-06
1.71612e-05
2.82087e-05
2.02077e-05
3.75456e-05
-6.10098e-06
-2.96713e-06
1.26843e-05
-3.94979e-05
-1.31291e-05
9.49259e-06
-2.19499e-05
-9.03838e-07
1.09464e-05
-1.42396e-05
-3.73961e-06
8.90806e-06
-6.1861e-06
-1.67492e-06
6.04687e-06
1.66154e-07
-2.62685e-07
2.85791e-06
3.34116e-06
1.78802e-06
4.41011e-07
4.82648e-06
9.79004e-07
-2.05761e-06
3.25456e-06
-3.56717e-08
-3.41456e-06
1.94637e-06
-1.50297e-06
-3.73601e-06
2.15621e-06
-2.23949e-06
-3.48701e-06
2.34833e-06
-1.90506e-06
-4.24332e-06
2.92684e-06
-5.59802e-07
-5.80864e-06
4.18429e-06
1.97142e-07
-7.63081e-06
6.19044e-06
5.3109e-07
-8.66394e-06
7.87459e-06
1.1506e-07
-8.42061e-06
9.9483e-06
-5.44206e-07
-7.66373e-06
1.22312e-05
-8.08527e-07
-7.36584e-06
1.38565e-05
-1.36045e-07
-8.75126e-06
1.41644e-05
1.3776e-06
-1.17468e-05
1.24804e-05
2.91678e-06
-1.3855e-05
8.7455e-06
2.9581e-06
-1.2392e-05
2.84871e-06
2.64378e-06
-9.78663e-06
-1.85741e-06
2.12963e-06
-8.61262e-06
-6.11862e-06
2.44637e-06
-9.02987e-06
-8.77052e-06
3.14945e-06
-1.062e-05
-1.0677e-05
4.16979e-06
-1.15173e-05
-1.17607e-05
4.77607e-06
-9.99578e-06
-1.1193e-05
5.31528e-06
-6.71113e-06
-7.54497e-06
5.17774e-06
-3.85293e-06
-4.128e-06
4.88339e-06
-5.6021e-06
-3.93834e-07
5.79995e-06
-9.97634e-06
2.53132e-07
3.87102e-06
-1.0181e-05
-8.06879e-07
-1.17586e-06
-9.35258e-06
1.59191e-06
-3.32139e-06
-7.06077e-06
5.85268e-06
-5.64772e-06
9.89035e-06
-1.02306e-05
-4.40573e-06
-3.89263e-06
1.57422e-07
-3.12702e-06
-5.13818e-06
-1.10143e-06
-2.79557e-06
-3.29059e-06
-2.40498e-07
-1.76743e-06
-3.02343e-06
-8.9622e-07
-1.31813e-06
-1.92107e-06
-5.11103e-07
-8.28556e-07
-1.82432e-06
-5.33811e-07
-3.99042e-07
-9.65648e-07
-2.91541e-07
2.13319e-09
-1.68834e-07
-1.63211e-07
2.50787e-07
6.46087e-07
-1.97006e-07
1.71872e-07
9.43062e-07
-1.61904e-07
-3.61089e-08
1.02845e-06
-1.67421e-07
-3.20609e-07
1.08295e-06
-1.62356e-07
-5.21686e-07
9.08749e-07
-2.07787e-07
-5.72286e-07
6.24777e-07
-2.6032e-07
-5.02088e-07
3.95455e-07
-3.16674e-07
-3.90877e-07
3.19302e-07
-3.50775e-07
-2.84531e-07
3.55689e-07
-3.63291e-07
-2.09905e-07
4.38816e-07
-3.6933e-07
-1.56858e-07
5.2364e-07
-3.73741e-07
-1.14027e-07
5.86317e-07
-3.79485e-07
-7.60475e-08
6.41583e-07
-3.81795e-07
-4.33346e-08
6.85849e-07
-3.79715e-07
-1.63922e-08
7.24899e-07
-3.73697e-07
4.57067e-09
7.58304e-07
-3.65636e-07
2.0824e-08
7.84615e-07
-3.56595e-07
3.3928e-08
8.0473e-07
-3.47644e-07
4.48381e-08
8.20516e-07
-3.39256e-07
5.46241e-08
8.31751e-07
-3.31388e-07
6.49365e-08
8.37565e-07
-3.23943e-07
7.64711e-08
8.39262e-07
-3.16639e-07
8.84945e-08
8.39007e-07
-3.0841e-07
9.9961e-08
8.39306e-07
-2.99282e-07
1.07782e-07
8.43236e-07
-2.89263e-07
1.04819e-07
8.53585e-07
-2.77815e-07
8.70476e-08
8.58962e-07
-2.65278e-07
4.82774e-08
8.59842e-07
-2.50657e-07
-2.2182e-08
8.69675e-07
-2.31412e-07
-1.29305e-07
9.0116e-07
-2.08092e-07
-2.57502e-07
9.54579e-07
-1.90185e-07
-3.53953e-07
9.84482e-07
-1.87518e-07
-3.42752e-07
9.2555e-07
-2.1926e-07
-1.28543e-07
6.87064e-07
-3.02828e-07
3.51038e-07
2.74759e-07
-4.6613e-07
1.01115e-06
6.17263e-08
-6.92224e-07
1.86163e-06
2.11036e-07
-9.67098e-07
2.82863e-06
3.98795e-07
-1.03456e-06
3.57737e-06
-2.04705e-07
-8.82211e-07
3.86236e-06
-2.19029e-06
-6.07814e-07
2.89726e-06
-5.04904e-06
2.16069e-07
-1.04757e-06
-6.47517e-06
9.60044e-07
-8.58164e-06
-9.56983e-06
3.831e-06
-2.15771e-05
-1.4066e-05
7.03138e-06
-3.2783e-05
-1.34683e-05
6.59279e-06
-3.66142e-05
-1.12313e-05
1.94376e-06
-3.36868e-05
-8.90322e-06
-4.99579e-07
-2.67811e-05
-1.39794e-05
-3.56011e-07
2.22871e-06
-2.4019e-05
-5.9281e-06
9.96473e-06
-2.34153e-05
1.44299e-06
2.13759e-05
2.56959e-05
1.62059e-05
3.97536e-05
-4.35266e-06
-2.92818e-06
5.61806e-06
-2.90907e-05
-1.49356e-05
2.36397e-06
-1.85727e-05
-1.15249e-06
9.19517e-06
-1.53788e-05
-5.73716e-06
8.43199e-06
-4.1599e-06
-1.2946e-06
8.16778e-06
3.12811e-07
1.13254e-07
5.45939e-06
5.37691e-06
6.82462e-07
2.81433e-06
7.33104e-06
1.48036e-07
-9.46885e-07
6.99555e-06
2.6779e-08
-4.43131e-06
6.05298e-06
-6.19875e-07
-5.82751e-06
4.24925e-06
-6.98281e-07
-6.14799e-06
2.79508e-06
-1.2528e-07
-7.50244e-06
3.36029e-06
9.26343e-07
-9.52674e-06
4.86052e-06
1.35671e-06
-1.15262e-05
6.94555e-06
1.25685e-06
-1.35234e-05
8.88152e-06
1.00902e-06
-1.52108e-05
1.07289e-05
9.31757e-07
-1.6798e-05
1.26161e-05
1.23449e-06
-1.78776e-05
1.35243e-05
1.44819e-06
-1.86256e-05
1.35191e-05
1.43076e-06
-1.7182e-05
1.01147e-05
9.52973e-07
-1.3965e-05
5.16723e-06
3.79337e-07
-9.37446e-06
-1.83446e-06
7.7308e-08
-5.73681e-06
-6.33104e-06
7.89208e-07
-3.60058e-06
-9.64493e-06
1.32881e-06
-2.78734e-06
-1.17428e-05
2.09239e-06
-4.14854e-06
-1.26981e-05
3.32527e-06
-8.10444e-06
-1.2984e-05
5.1374e-06
-1.20324e-05
-1.33679e-05
6.07599e-06
-1.32665e-05
-1.22197e-05
5.8921e-06
-1.10797e-05
-1.00076e-05
3.68367e-06
-7.08245e-06
-5.06805e-06
6.73403e-07
-4.14604e-06
3.7328e-07
-3.05677e-06
-3.63427e-06
3.39257e-06
-4.71124e-06
-4.17342e-06
7.51487e-06
-5.38381e-06
-3.69048e-06
1.17606e-05
-6.39081e-06
1.60269e-05
-9.82699e-06
-4.58322e-06
-3.10751e-06
1.93966e-07
-3.31261e-06
-4.91942e-06
-1.48836e-06
-3.00549e-06
-2.91486e-06
-6.74963e-07
-1.78636e-06
-2.96893e-06
-1.26832e-06
-1.11809e-06
-1.73956e-06
-8.42893e-07
-5.57027e-07
-1.55303e-06
-8.28186e-07
-2.33072e-07
-6.75729e-07
-6.08401e-07
-1.73327e-09
-5.87169e-08
-3.34716e-07
2.57979e-07
7.22255e-07
-3.29803e-07
3.11486e-07
1.12444e-06
-2.32976e-07
1.64018e-07
1.3458e-06
-1.694e-07
-1.95607e-07
1.55161e-06
-1.08602e-07
-4.5312e-07
1.31892e-06
-1.52493e-07
-5.06254e-07
9.25641e-07
-2.47897e-07
-4.40749e-07
6.62007e-07
-3.32314e-07
-3.44917e-07
5.96957e-07
-3.73701e-07
-2.46946e-07
6.41957e-07
-3.84472e-07
-1.89069e-07
7.56301e-07
-3.75605e-07
-1.5384e-07
8.56763e-07
-3.68584e-07
-1.32148e-07
9.29214e-07
-3.64849e-07
-1.17313e-07
9.86257e-07
-3.59721e-07
-1.05973e-07
1.0279e-06
-3.5362e-07
-9.60324e-08
1.06037e-06
-3.45597e-07
-8.7312e-08
1.08489e-06
-3.35506e-07
-7.83578e-08
1.10054e-06
-3.25037e-07
-6.85891e-08
1.10895e-06
-3.14166e-07
-5.97513e-08
1.11366e-06
-3.02118e-07
-5.19663e-08
1.11407e-06
-2.90261e-07
-4.52355e-08
1.10992e-06
-2.79178e-07
-4.11102e-08
1.10326e-06
-2.68224e-07
-4.06166e-08
1.09601e-06
-2.57539e-07
-4.55953e-08
1.09053e-06
-2.46299e-07
-6.21523e-08
1.09372e-06
-2.33918e-07
-9.9366e-08
1.10922e-06
-2.18398e-07
-1.58572e-07
1.11922e-06
-2.00938e-07
-2.40489e-07
1.12446e-06
-1.82564e-07
-3.3916e-07
1.13305e-06
-1.64468e-07
-4.27636e-07
1.14016e-06
-1.50252e-07
-4.55275e-07
1.12922e-06
-1.46624e-07
-3.65361e-07
1.05264e-06
-1.57701e-07
-1.42521e-07
8.9126e-07
-1.88009e-07
2.16977e-07
5.94794e-07
-2.66593e-07
7.07321e-07
1.9377e-07
-4.08145e-07
1.32108e-06
5.94283e-08
-6.07887e-07
2.08186e-06
3.52784e-07
-8.86632e-07
2.92459e-06
6.03159e-07
-1.007e-06
3.4841e-06
1.80744e-07
-8.77249e-07
3.46034e-06
-1.35136e-06
-7.39569e-07
1.99504e-06
-3.21773e-06
-2.21663e-07
-2.73468e-06
-2.35311e-06
7.91656e-07
-1.21001e-05
-3.1163e-06
3.00559e-06
-2.27006e-05
-7.4963e-06
3.9434e-06
-3.11696e-05
-8.5092e-06
3.51236e-06
-3.61253e-05
-9.33939e-06
3.12113e-06
-3.64053e-05
-1.21787e-05
3.61212e-06
-3.32978e-05
-1.98806e-05
2.86812e-06
-3.43598e-05
-2.35516e-05
2.22783e-06
-3.13163e-05
-2.90399e-05
1.29784e-06
3.29063e-05
-1.714e-05
7.37557e-06
4.3659e-05
-8.9744e-07
-5.10206e-06
2.45371e-06
-1.23567e-05
-1.52704e-05
-6.1892e-06
-1.07006e-05
-8.96717e-07
-4.00247e-06
-1.15809e-05
-6.1008e-06
-7.79339e-08
-6.17008e-06
-2.02754e-06
2.09855e-06
-5.06592e-07
-1.39156e-06
1.02393e-06
6.45791e-06
3.86681e-10
-1.48525e-06
9.77077e-06
9.70707e-08
-5.56045e-06
1.09773e-05
1.20197e-07
-9.46938e-06
9.93956e-06
4.92616e-08
-1.36146e-05
7.95731e-06
4.6746e-07
-1.73728e-05
6.10068e-06
4.82136e-07
-2.07102e-05
5.64414e-06
1.08796e-06
-2.28756e-05
6.01902e-06
1.05008e-06
-2.41741e-05
7.2026e-06
1.09078e-06
-2.53605e-05
9.05143e-06
1.07554e-06
-2.6245e-05
1.07554e-05
9.21951e-07
-2.61189e-05
1.16822e-05
8.80221e-07
-2.42805e-05
1.14424e-05
3.1795e-07
-2.10305e-05
1.04056e-05
-6.31748e-08
-1.65031e-05
6.31777e-06
-6.6913e-07
-1.14359e-05
9.721e-07
-8.38815e-07
-8.18732e-06
-5.6693e-06
6.04664e-07
-6.57474e-06
-9.64293e-06
1.70898e-06
-5.06257e-06
-1.31359e-05
1.94293e-06
-3.62438e-06
-1.57097e-05
2.42951e-06
-3.1678e-06
-1.63595e-05
3.06229e-06
-5.36502e-06
-1.5851e-05
4.86525e-06
-1.12425e-05
-1.4262e-05
6.54819e-06
-1.78798e-05
-1.20774e-05
6.27139e-06
-2.09848e-05
-1.0253e-05
3.13203e-06
-1.59388e-05
-8.65653e-06
-1.67033e-06
-1.01798e-05
-1.50292e-06
-4.01737e-06
-6.9447e-06
4.37898e-06
-4.2765e-06
-5.10796e-06
1.07914e-05
-5.13373e-06
-3.34564e-06
1.69604e-05
-6.97152e-06
2.19845e-05
-9.29883e-06
-4.25067e-06
-1.96418e-06
6.81767e-07
-3.25941e-06
-4.63904e-06
-1.27372e-06
-3.19411e-06
-2.28849e-06
-6.85142e-07
-2.01083e-06
-2.873e-06
-1.27381e-06
-1.12454e-06
-1.73337e-06
-8.84249e-07
-3.67284e-07
-1.33516e-06
-9.70103e-07
-1.29815e-07
-2.47414e-07
-6.59799e-07
-1.22847e-07
1.90309e-07
-2.50812e-07
4.99678e-08
8.45065e-07
-2.89371e-07
1.51251e-07
1.23624e-06
-2.08939e-07
1.86636e-07
1.47164e-06
-1.59913e-07
8.9532e-08
1.74547e-06
-9.58703e-08
8.6977e-09
1.60556e-06
-2.05432e-07
-4.86575e-08
1.29651e-06
-3.13306e-07
-8.11342e-08
1.10847e-06
-4.13753e-07
-1.20797e-07
1.10936e-06
-4.72519e-07
-1.57555e-07
1.19152e-06
-5.12595e-07
-1.94403e-07
1.31622e-06
-5.22847e-07
-2.21444e-07
1.41457e-06
-5.30569e-07
-2.36031e-07
1.47528e-06
-5.31311e-07
-2.41307e-07
1.52099e-06
-5.2934e-07
-2.41461e-07
1.55437e-06
-5.26226e-07
-2.36879e-07
1.57818e-06
-5.22364e-07
-2.29124e-07
1.59484e-06
-5.17692e-07
-2.194e-07
1.60377e-06
-5.12994e-07
-2.08519e-07
1.60676e-06
-5.08734e-07
-1.98989e-07
1.60769e-06
-5.03654e-07
-1.92978e-07
1.60632e-06
-4.98355e-07
-1.9183e-07
1.60167e-06
-4.93053e-07
-1.96832e-07
1.59523e-06
-4.87105e-07
-2.09832e-07
1.58899e-06
-4.80148e-07
-2.33171e-07
1.58512e-06
-4.71394e-07
-2.75486e-07
1.59547e-06
-4.59603e-07
-3.43403e-07
1.62114e-06
-4.44128e-07
-4.28159e-07
1.63412e-06
-4.30297e-07
-5.14706e-07
1.62999e-06
-4.19092e-07
-5.83122e-07
1.61229e-06
-4.10933e-07
-6.01137e-07
1.56785e-06
-4.09743e-07
-5.24162e-07
1.47511e-06
-4.2284e-07
-2.87897e-07
1.27657e-06
-4.60123e-07
1.25543e-07
9.90608e-07
-5.12696e-07
6.47776e-07
6.6308e-07
-5.90214e-07
1.17942e-06
3.9846e-07
-7.35487e-07
1.64786e-06
5.41305e-07
-9.46301e-07
2.20966e-06
9.85264e-07
-1.17455e-06
3.04968e-06
1.1744e-06
-1.36327e-06
3.66733e-06
8.52543e-07
-1.21301e-06
3.48801e-06
4.48663e-08
-1.1215e-06
2.30883e-06
-6.23171e-07
-1.25219e-06
-7.95701e-07
1.82109e-06
-8.16038e-07
-1.10145e-05
7.15923e-06
1.28323e-07
-2.38686e-05
4.33053e-06
9.89278e-07
-3.30126e-05
1.20724e-07
5.36784e-07
-3.83233e-05
-4.00669e-06
-2.44225e-08
-4.11446e-05
-8.28367e-06
-1.12766e-06
-4.16144e-05
-1.55951e-05
-3.82783e-06
-4.18023e-05
-1.73085e-05
-3.41216e-06
-3.57531e-05
-2.79646e-05
-9.55596e-06
4.26987e-05
-4.82406e-05
-1.09521e-05
4.66538e-05
2.92332e-06
-5.74391e-06
-1.47596e-05
1.94095e-05
-1.48849e-05
-2.3049e-05
-9.57498e-08
-3.13326e-06
-2.98569e-05
2.69809e-06
-7.54419e-06
-2.98671e-05
-3.8942e-07
-5.85796e-06
-2.96715e-05
4.45775e-06
-5.23605e-06
-2.85651e-05
8.7264e-06
-3.41552e-06
-3.06179e-05
1.30311e-05
-1.21564e-06
-3.51665e-05
1.56051e-05
-5.21489e-08
-4.07904e-05
1.581e-05
-2.11429e-07
-4.36986e-05
1.32469e-05
-2.37026e-06
-4.46796e-05
1.0762e-05
-3.69492e-06
-4.48779e-05
1.00201e-05
-4.19928e-06
-4.42041e-05
9.62059e-06
-4.29258e-06
-4.20712e-05
8.8857e-06
-3.829e-06
-3.92959e-05
9.07592e-06
-2.80352e-06
-3.64346e-05
9.33917e-06
-1.43526e-06
-3.28936e-05
9.15606e-06
-9.9284e-07
-2.81825e-05
8.30063e-06
-1.55592e-06
-2.14522e-05
5.8922e-06
-2.22288e-06
-1.52163e-05
2.19399e-06
-2.12514e-06
-1.0512e-05
-1.84325e-06
-1.89486e-06
-6.83782e-06
-8.27855e-06
-1.04e-06
-4.1723e-06
-1.39196e-05
1.70932e-06
-2.37599e-06
-1.72626e-05
2.46779e-06
-5.62375e-07
-2.02947e-05
2.91604e-06
4.45348e-07
-2.09053e-05
3.70554e-06
-1.88297e-06
-1.94396e-05
6.09911e-06
-1.06402e-05
-1.61543e-05
1.09239e-05
-2.58212e-05
-9.15351e-06
1.25626e-05
-3.95935e-05
-4.68062e-06
8.43724e-06
-4.40659e-05
-8.56768e-06
4.58237e-06
-3.96532e-05
-5.81752e-06
6.70905e-08
-3.48967e-05
2.13068e-06
-2.45986e-06
-2.76521e-05
8.62053e-06
-5.30803e-06
-1.6746e-05
1.34561e-05
-7.9676e-06
1.23772e-05
-1.10473e-05
-2.87594e-06
-2.49028e-07
1.3545e-06
-2.75925e-06
-4.08617e-06
-6.79647e-07
-2.98921e-06
-1.65764e-06
-3.94031e-07
-2.08185e-06
-2.94794e-06
-8.28512e-07
-1.14076e-06
-1.9975e-06
-6.67928e-07
-3.9081e-07
-1.42699e-06
-6.51801e-07
-3.00963e-07
-1.80389e-07
-1.50362e-07
-3.45355e-07
7.42343e-08
1.63987e-07
-2.41982e-07
6.23777e-07
1.22077e-07
-1.04231e-07
9.89442e-07
1.12419e-07
1.05682e-07
1.19313e-06
7.10068e-08
2.92982e-07
1.38001e-06
1.79446e-07
3.58783e-07
1.35365e-06
1.8713e-07
2.93324e-07
1.17643e-06
1.86044e-07
1.73039e-07
1.08043e-06
1.48904e-07
5.05841e-08
1.12083e-06
1.11582e-07