/*--------------------------------*- C++ -*----------------------------------*\
| =========                 |                                                 |
| \\      /  F ield         | OpenFOAM: The Open Source CFD Toolbox           |
|  \\    /   O peration     | Version:  2.3.0                                 |
|   \\  /    A nd           | Web:      www.OpenFOAM.org                      |
|    \\/     M anipulation  |                                                 |
\*---------------------------------------------------------------------------*/
FoamFile
{
    version     2.0;
    format      ascii;
    class       surfaceScalarField;
    location    "25";
    object      phi.air;
}
// * * * * * * * * * * * * * * * * * * * * * * * * * * * * * * * * * * * * * //

dimensions      [0 3 -1 0 0 0 0];

internalField   nonuniform List<scalar> 
16448
(
-8.17181e-07
-2.3439e-06
8.09451e-07
6.23559e-07
-2.37034e-06
9.296e-07
8.27439e-07
-1.30659e-06
1.10271e-06
1.02601e-06
-1.22421e-06
1.02563e-06
8.62133e-07
-6.66926e-07
8.308e-07
7.36383e-07
-6.15942e-07
7.41684e-07
4.64238e-07
-3.12515e-07
5.84652e-07
2.09708e-07
-2.67821e-07
5.22343e-07
-7.55194e-08
-2.14354e-07
4.99573e-07
-3.26757e-07
-2.07004e-07
4.58234e-07
-5.01701e-07
-2.38846e-07
4.13782e-07
-5.409e-07
-3.01552e-07
3.40743e-07
-4.83079e-07
-3.68515e-07
3.10686e-07
-3.62454e-07
-4.17555e-07
2.96921e-07
-2.52018e-07
-4.40534e-07
3.30089e-07
-1.48777e-07
-4.60191e-07
3.56941e-07
-8.3275e-08
-4.66337e-07
4.00826e-07
-3.28944e-08
-4.79545e-07
4.29156e-07
-2.2389e-09
-4.88202e-07
4.57538e-07
1.71587e-08
-4.91978e-07
4.72572e-07
2.66882e-08
-4.9216e-07
4.82623e-07
3.06666e-08
-4.89478e-07
4.85491e-07
3.02132e-08
-4.8459e-07
4.85036e-07
2.77256e-08
-4.78759e-07
4.81239e-07
2.43197e-08
-4.71963e-07
4.75362e-07
2.13493e-08
-4.65037e-07
4.68e-07
1.96624e-08
-4.58206e-07
4.59886e-07
1.93559e-08
-4.51319e-07
4.51619e-07
2.03736e-08
-4.44477e-07
4.43453e-07
2.20347e-08
-4.37392e-07
4.35725e-07
2.52275e-08
-4.31137e-07
4.27939e-07
2.65616e-08
-4.23158e-07
4.21818e-07
3.06797e-08
-4.18977e-07
4.14854e-07
2.91713e-08
-4.09413e-07
4.10916e-07
3.54613e-08
-4.08799e-07
4.02504e-07
3.34292e-08
-3.96982e-07
3.99009e-07
4.37745e-08
-3.97547e-07
3.87197e-07
4.73005e-08
-3.85016e-07
3.81485e-07
6.72784e-08
-3.85951e-07
3.65968e-07
9.1816e-08
-3.77899e-07
3.53357e-07
1.35079e-07
-3.80245e-07
3.36978e-07
1.98371e-07
-3.90843e-07
3.27547e-07
2.62189e-07
-3.9016e-07
3.26337e-07
3.50363e-07
-4.34442e-07
3.46265e-07
3.77787e-07
-4.22452e-07
3.95024e-07
4.05497e-07
-4.88064e-07
4.60352e-07
3.42495e-07
-4.75028e-07
5.38026e-07
2.54797e-07
-4.77685e-07
5.65381e-07
1.7743e-07
-4.75726e-07
5.53088e-07
-1.33134e-07
-2.53746e-07
5.64308e-07
-1.77679e-07
-6.38197e-07
6.82737e-07
-4.68216e-07
-6.52765e-07
9.43298e-07
-1.29457e-06
-1.10216e-06
1.9285e-06
-1.86419e-06
-1.46766e-06
2.03728e-06
-3.07441e-06
-2.46291e-06
3.6731e-06
-3.56768e-06
-3.23849e-06
3.73176e-06
-1.56326e-06
-4.15236e-07
-1.58967e-06
-1.60981e-06
-1.00196e-06
1.04796e-06
-7.31847e-06
2.28928e-07
5.18995e-06
-2.93829e-05
-1.94513e-05
1.24152e-05
-5.89733e-05
-1.57095e-05
3.15397e-06
-1.28619e-05
-4.32803e-06
3.99583e-06
2.63022e-05
-2.00799e-06
2.1836e-06
2.78043e-05
-3.48841e-06
1.78412e-06
2.89139e-05
-2.54849e-06
1.29423e-06
2.9337e-05
-1.25929e-06
8.35076e-07
2.93188e-05
-5.81724e-07
6.32323e-07
2.90536e-05
-3.2874e-07
6.06954e-07
2.86486e-05
-2.69201e-07
6.68596e-07
2.81803e-05
-3.03673e-07
7.58179e-07
2.77091e-05
-4.02039e-07
8.58051e-07
2.72875e-05
-5.53025e-07
9.60057e-07
2.69502e-05
-7.28088e-07
1.05077e-06
2.66956e-05
-8.86676e-07
1.12826e-06
2.65119e-05
-1.00555e-06
1.17685e-06
2.63698e-05
-1.07602e-06
1.2062e-06
2.62134e-05
-1.06653e-06
1.21258e-06
2.60006e-05
-1.00156e-06
1.20478e-06
2.56854e-05
-8.73104e-07
1.17993e-06
2.51933e-05
-6.70266e-07
1.1552e-06
2.44978e-05
-4.28335e-07
1.11827e-06
2.35287e-05
-1.24141e-07
1.08908e-06
2.21329e-05
3.31112e-07
1.05909e-06
2.01695e-05
9.02169e-07
1.05397e-06
1.76031e-05
1.46353e-06
1.08596e-06
1.43771e-05
1.92939e-06
1.26973e-06
1.0358e-05
2.37908e-06
1.62094e-06
6.00602e-06
2.4769e-06
1.85561e-06
1.86904e-06
2.28833e-06
1.83161e-06
-1.58568e-06
2.04519e-06
1.48232e-06
-3.91386e-06
1.57866e-06
9.5759e-07
-5.42051e-06
1.08913e-06
5.97417e-07
-6.5537e-06
1.04715e-06
1.218e-07
-6.62403e-06
1.31753e-06
-1.2313e-06
-4.72714e-06
1.35976e-06
-3.24646e-06
1.11638e-06
-5.02094e-06
-2.25575e-06
-3.61805e-06
1.96513e-07
-1.11846e-06
-3.63266e-06
1.25028e-07
-7.73343e-07
-2.22832e-06
5.76609e-07
-1.58752e-07
-2.10533e-06
2.6653e-07
2.2001e-07
-1.1671e-06
1.21403e-07
4.5773e-07
-9.24031e-07
7.03622e-08
4.38089e-07
-2.91028e-07
-1.85433e-09
2.00265e-07
-9.5254e-08
6.52485e-08
-1.83593e-07
4.76388e-08
1.21856e-07
-4.96607e-07
-3.46566e-09
1.09466e-07
-6.85472e-07
-1.08766e-07
5.87783e-08
-7.23114e-07
-2.54805e-07
-9.11422e-09
-6.65863e-07
-3.77395e-07
-4.83802e-08
-5.41402e-07
-4.72904e-07
-6.91205e-08
-4.09424e-07
-5.18328e-07
-5.41939e-08
-2.80294e-07
-5.51299e-07
-3.80309e-08
-1.90298e-07
-5.52414e-07
-3.92823e-09
-1.16994e-07
-5.64084e-07
1.12265e-08
-7.02905e-08
-5.63045e-07
2.81316e-08
-3.71034e-08
-5.61796e-07
3.6623e-08
-1.8003e-08
-5.53848e-07
4.258e-08
-7.72873e-09
-5.44002e-07
4.4242e-08
-4.06274e-09
-5.31786e-07
4.35219e-08
-4.48927e-09
-5.18923e-07
4.05834e-08
-6.88031e-09
-5.05857e-07
3.62772e-08
-9.36623e-09
-4.9352e-07
3.09619e-08
-1.06628e-08
-4.81973e-07
2.50576e-08
-1.06955e-08
-4.70532e-07
1.9239e-08
-8.91294e-09
-4.59665e-07
1.33992e-08
-7.24883e-09
-4.47632e-07
8.57014e-09
-2.6283e-09
-4.38889e-07
3.12545e-09
-3.78826e-09
-4.2256e-07
5.56401e-10
4.07514e-09
-4.17683e-07
-9.16315e-09
-1.92346e-09
-3.95292e-07
-8.12721e-09
1.13018e-08
-4.00327e-07
-2.17019e-08
3.31605e-09
-3.70538e-07
-1.84624e-08
2.50808e-08
-3.83146e-07
-3.61708e-08
2.45107e-08
-3.50216e-07
-3.42346e-08
6.03808e-08
-3.69058e-07
-5.27672e-08
8.17046e-08
-3.41002e-07
-5.82246e-08
1.36843e-07
-3.71405e-07
-6.39814e-08
1.82614e-07
-3.61655e-07
-7.49622e-08
2.38907e-07
-3.97597e-07
-4.88584e-08
2.65919e-07
-4.18071e-07
-4.33863e-08
2.82973e-07
-4.54495e-07
1.49873e-08
2.67633e-07
-5.06028e-07
3.33024e-08
2.68508e-07
-5.45059e-07
6.91549e-08
3.29421e-07
-5.82346e-07
4.37458e-08
4.18619e-07
-5.81061e-07
1.61364e-08
5.25359e-07
-3.5981e-07
-6.78543e-10
3.92939e-07
-6.73714e-07
1.67935e-07
-5.20197e-07
-3.79387e-07
6.39752e-07
-3.43031e-06
1.70947e-07
1.63699e-06
-4.57731e-06
-1.56566e-06
1.24499e-06
-8.11993e-07
-7.78697e-06
1.55873e-06
1.76562e-06
-8.32825e-06
2.51212e-06
-2.32896e-06
5.7278e-06
-2.04906e-06
-1.02014e-05
5.63784e-06
1.23202e-06
-9.97731e-06
2.46785e-06
-2.7347e-06
-2.90443e-05
-3.40251e-05
4.68722e-06
-7.20436e-05
-2.29757e-05
1.92696e-06
-2.99782e-05
-7.855e-06
1.32818e-06
1.40485e-05
-7.0806e-06
-5.20569e-07
1.69158e-05
-5.05596e-06
-1.63434e-06
1.85354e-05
-1.86871e-06
-2.06344e-06
1.99671e-05
-5.65854e-07
-2.04719e-06
2.072e-05
4.35453e-07
-1.77643e-06
2.10764e-05
7.42693e-07
-1.43113e-06
2.11524e-05
7.26999e-07
-1.06268e-06
2.10324e-05
5.24339e-07
-6.95992e-07
2.07973e-05
2.12794e-07
-3.71151e-07
2.05413e-05
-1.86843e-07
-1.03261e-07
2.03284e-05
-6.34744e-07
1.32066e-07
2.0167e-05
-1.02526e-06
3.16445e-07
2.00567e-05
-1.32253e-06
4.40777e-07
1.99876e-05
-1.52212e-06
5.24937e-07
1.99247e-05
-1.54784e-06
5.53345e-07
1.9854e-05
-1.48042e-06
5.55724e-07
1.97251e-05
-1.27566e-06
5.37361e-07
1.9475e-05
-9.21842e-07
5.04584e-07
1.90638e-05
-4.81566e-07
4.64996e-07
1.84878e-05
3.2574e-08
4.19355e-07
1.77334e-05
7.54245e-07
3.33826e-07
1.66784e-05
1.69468e-06
2.65397e-07
1.50741e-05
2.77118e-06
2.88288e-07
1.26848e-05
3.79829e-06
5.01615e-07
9.6033e-06
4.51551e-06
9.14974e-07
6.00806e-06
4.79076e-06
1.25427e-06
2.15912e-06
4.79626e-06
1.32799e-06
-1.28987e-06
4.48022e-06
1.0632e-06
-3.72492e-06
3.5842e-06
6.03963e-07
-5.41239e-06
2.79914e-06
1.57612e-07
-6.49279e-06
2.53482e-06
-3.89819e-07
-6.39557e-06
3.04356e-06
-1.82588e-06
-4.59507e-06
3.53904e-06
-3.91776e-06
3.37758e-06
-5.91478e-06
-3.21872e-06
-4.34588e-06
1.70213e-08
-2.06848e-06
-4.46535e-06
-3.17547e-07
-1.87674e-06
-2.82008e-06
4.00008e-07
-1.23499e-06
-2.78077e-06
3.36821e-08
-7.25647e-07
-1.65114e-06
-2.53071e-08
-1.97935e-07
-1.28305e-06
-1.68701e-07
1.76223e-08
-2.13994e-07
-2.92599e-07
-1.25573e-07
1.83614e-07
-1.35681e-07
-3.9222e-07
4.19903e-07
-1.05627e-07
-5.99103e-07
3.00526e-07
-9.71167e-08
-7.166e-07
1.49925e-07
-1.41202e-07
-7.48809e-07
-2.55389e-08
-1.97066e-07
-7.20333e-07
-1.67835e-07
-2.38045e-07
-6.42874e-07
-2.87762e-07
-2.62611e-07
-5.33799e-07
-3.58147e-07
-2.69265e-07
-4.15647e-07
-4.01258e-07
-2.68203e-07
-3.15843e-07
-3.97651e-07
-2.54575e-07
-2.28912e-07
-4.04111e-07
-2.46912e-07
-1.67638e-07
-3.88258e-07
-2.3607e-07
-1.20509e-07
-3.78299e-07
-2.30633e-07
-9.04567e-08
-3.59425e-07
-2.24484e-07
-7.1798e-08
-3.41137e-07
-2.21531e-07
-6.30883e-08
-3.20412e-07
-2.2009e-07
-6.1027e-08
-3.00254e-07
-2.20738e-07
-6.30574e-08
-2.81262e-07
-2.22571e-07
-6.63146e-08
-2.64659e-07
-2.2561e-07
-6.89974e-08
-2.49977e-07
-2.29319e-07
-7.02217e-08
-2.36131e-07
-2.33183e-07
-6.97152e-08
-2.2315e-07
-2.37027e-07
-6.71979e-08
-2.09589e-07
-2.40567e-07
-6.32795e-08
-1.98566e-07
-2.44246e-07
-5.92704e-08
-1.80539e-07
-2.46036e-07
-5.20972e-08
-1.74236e-07
-2.50625e-07
-4.91737e-08
-1.4801e-07
-2.5021e-07
-3.57287e-08
-1.55385e-07
-2.58391e-07
-3.4495e-08
-1.16874e-07
-2.54902e-07
-8.76071e-09
-1.41602e-07
-2.67281e-07
-8.78516e-09
-9.09284e-08
-2.59266e-07
3.00912e-08
-1.34681e-07
-2.73256e-07
3.31409e-08
-8.34506e-08
-2.60604e-07
6.81285e-08
-1.40145e-07
-2.66249e-07
4.8324e-08
-9.88672e-08
-2.42985e-07
4.9786e-08
-1.60617e-07
-2.38443e-07
-1.32044e-08
-1.48831e-07
-2.0625e-07
-2.87154e-08
-2.29205e-07
-2.0978e-07
-4.20573e-08
-2.74283e-07
-2.18403e-07
5.37838e-08
-3.97961e-07
-2.42939e-07
2.92892e-07
-4.82592e-07
-3.38861e-07
5.66127e-07
-5.15429e-07
-3.38867e-07
9.57052e-07
-3.65065e-07
-3.85668e-07
4.72943e-07
-1.25415e-07
-6.41929e-08
-1.18258e-06
8.67364e-07
4.08766e-07
-1.42625e-06
-2.76706e-07
6.91316e-07
9.10602e-07
-4.03189e-06
1.29371e-07
3.85113e-06
-1.08234e-05
9.58437e-08
6.63908e-07
-7.74284e-06
2.6018e-06
6.01249e-06
4.6886e-06
-4.31e-06
-5.23327e-07
1.32697e-05
-1.0958e-06
-5.16321e-06
8.55589e-06
-1.7363e-06
-2.99039e-05
-3.81704e-05
-4.43792e-07
-8.1491e-05
-3.12741e-05
3.36057e-06
-3.88119e-05
-1.58206e-05
1.61339e-06
1.05498e-05
-1.63258e-05
-1.43999e-06
1.06258e-05
-3.12677e-06
-2.40337e-06
1.22509e-05
-5.07512e-07
-2.76083e-06
1.35025e-05
9.06878e-08
-1.96801e-06
1.3859e-05
1.15885e-06
-1.15446e-06
1.35693e-05
1.46388e-06
-4.73541e-07
1.28802e-05
1.29499e-06
9.58613e-08
1.19164e-05
9.21443e-07
5.53391e-07
1.08752e-05
3.67285e-07
8.81978e-07
9.89837e-06
-2.80403e-07
1.06815e-06
9.05705e-06
-9.23058e-07
1.11772e-06
8.46004e-06
-1.53503e-06
1.08328e-06
8.12782e-06
-2.00474e-06
9.84042e-07
8.06185e-06
-2.33823e-06
8.57432e-07
8.19624e-06
-2.42063e-06
7.25774e-07
8.44658e-06
-2.34178e-06
6.04203e-07
8.7348e-06
-2.06746e-06
5.02257e-07
9.02277e-06
-1.61343e-06
4.0972e-07
9.23948e-06
-1.01071e-06
3.26815e-07
9.2675e-06
-2.50837e-07
2.7971e-07
9.20176e-06
6.6846e-07
1.82925e-07
8.99948e-06
1.87005e-06
4.98808e-08
8.31503e-06
3.2993e-06
1.62905e-07
6.91296e-06
4.6139e-06
5.85283e-07
4.98392e-06
5.46387e-06
9.9166e-07
2.8326e-06
5.79634e-06
1.1698e-06
8.00593e-07
5.89923e-06
9.54132e-07
-1.12658e-06
5.7539e-06
6.74808e-07
-3.02511e-06
5.29261e-06
3.15128e-07
-4.71236e-06
4.77837e-06
-1.10462e-07
-6.00393e-06
4.54521e-06
-6.69065e-07
-6.09515e-06
5.27095e-06
-2.12577e-06
-4.52916e-06
6.32924e-06
-4.25805e-06
6.27872e-06
-6.3636e-06
-3.91576e-06
-4.81494e-06
5.90116e-09
-2.58258e-06
-5.16242e-06
-6.36106e-07
-2.53092e-06
-3.35604e-06
4.84292e-07
-1.90323e-06
-3.41682e-06
8.35851e-09
-1.34367e-06
-2.34649e-06
1.35793e-07
-4.93421e-07
-2.03855e-06
-9.47578e-08
6.32681e-08
-5.60898e-07
-2.09795e-07
3.86197e-08
2.5763e-07
-4.93771e-08
-2.32464e-07
7.72001e-07
-8.10232e-08
-4.78592e-07
6.58295e-07
-1.1165e-07
-6.0666e-07
4.74054e-07
-1.9607e-07
-6.93397e-07
3.13114e-07
-2.51925e-07
-7.13209e-07
1.48242e-07
-2.96275e-07
-6.77853e-07
2.2602e-09
-3.25386e-07
-5.90421e-07
-1.02153e-07
-3.43436e-07
-4.85102e-07
-1.52179e-07
-3.54407e-07
-3.83796e-07
-1.4236e-07
-3.56605e-07
-2.93324e-07
-1.3494e-07
-3.59651e-07
-2.20691e-07
-1.03983e-07
-3.56917e-07
-1.62844e-07
-8.14457e-08
-3.54708e-07
-1.23191e-07
-4.99452e-08
-3.49141e-07
-9.8357e-08
-2.12628e-08
-3.44716e-07
-8.59725e-08
8.02673e-09
-3.40832e-07
-8.08354e-08
3.28029e-08
-3.382e-07
-8.066e-08
5.54448e-08
-3.3689e-07
-8.30008e-08
7.47192e-08
-3.37044e-07
-8.60601e-08
9.12832e-08
-3.38208e-07
-8.85561e-08
1.06329e-07
-3.39968e-07
-8.98851e-08
1.20317e-07
-3.42144e-07
-8.95249e-08
1.34228e-07
-3.44182e-07
-8.81334e-08
1.46655e-07
-3.46618e-07
-8.50623e-08
1.63728e-07
-3.47342e-07
-7.89723e-08
1.70851e-07
-3.51182e-07
-7.42091e-08
1.9614e-07
-3.48917e-07
-6.10404e-08
1.87754e-07
-3.56312e-07
-5.69785e-08
2.28338e-07
-3.49277e-07
-3.5588e-08
1.96599e-07
-3.59595e-07
-3.68214e-08
2.56967e-07
-3.46664e-07
-1.24555e-08
1.97701e-07
-3.56749e-07
-2.89451e-08
2.70319e-07
-3.37282e-07
-2.9904e-08
1.98333e-07
-3.37519e-07
-6.98834e-08
2.60559e-07
-3.19447e-07
-1.24688e-07
2.02398e-07
-3.08209e-07
-1.67093e-07
2.0679e-07
-3.13215e-07
-2.2213e-07
1.43045e-07
-3.1721e-07
-1.80054e-07
4.48451e-08
-3.61202e-07
-8.33499e-08
-7.98797e-08
-4.14781e-07
2.13234e-07
-2.61528e-07
-5.17646e-07
5.15105e-07
-2.89509e-07
-5.27786e-07
9.89137e-07
-2.44813e-07
-5.94284e-07
3.44416e-07
5.63505e-07
-4.41955e-08
-1.52114e-06
2.18104e-06
5.51882e-07
1.72967e-06
-3.86732e-06
3.39785e-07
7.87938e-06
-9.78988e-06
-3.91745e-07
8.58742e-06
-1.18059e-05
2.7444e-07
8.1121e-06
-7.68549e-06
4.17953e-07
8.79878e-06
4.37907e-06
-3.77477e-07
1.33029e-06
2.41262e-05
-3.3881e-06
1.86939e-06
4.41947e-06
3.13348e-06
-3.17975e-05
-3.57404e-05
-9.06436e-07
-8.93486e-05
-3.46857e-05
4.78163e-06
-4.52212e-05
-1.55103e-05
3.6784e-06
-5.22283e-06
-1.59724e-05
2.71952e-07
-3.2402e-06
-3.23679e-06
-2.26972e-06
1.08318e-06
-2.14984e-06
-2.43824e-06
3.98412e-07
1.23269e-06
-1.77049e-07
-5.76368e-07
1.13911e-06
9.91268e-07
-2.56391e-06
1.85511e-06
1.55548e-06
-4.64175e-06
1.13731e-06
1.88174e-06
-6.58505e-06
6.99956e-07
1.838e-06
-8.1383e-06
-2.50031e-07
2.00415e-06
-9.07415e-06
-1.23629e-06
1.76348e-06
-9.32401e-06
-2.25847e-06
1.22073e-06
-9.01242e-06
-3.09179e-06
9.70776e-07
-8.35559e-06
-3.60166e-06
7.3936e-07
-7.44422e-06
-3.96248e-06
5.56297e-07
-6.40888e-06
-4.05196e-06
4.39398e-07
-5.43906e-06
-3.64501e-06
3.92455e-07
-4.61282e-06
-3.25449e-06
3.86586e-07
-3.89187e-06
-2.73635e-06
4.01989e-07
-3.23474e-06
-2.10689e-06
4.23072e-07
-2.60728e-06
-1.33831e-06
4.48969e-07
-2.0173e-06
-4.06137e-07
4.78177e-07
-1.45465e-06
7.20619e-07
5.811e-07
-9.12075e-07
1.94417e-06
8.10066e-07
-2.80516e-07
2.99584e-06
9.87243e-07
3.14868e-07
3.90172e-06
9.69537e-07
6.40564e-07
4.68849e-06
7.85079e-07
4.39792e-07
5.56584e-06
5.35277e-07
-4.7463e-07
6.27604e-06
3.8385e-07
-1.98947e-06
6.64025e-06
2.20765e-07
-3.83098e-06
6.81634e-06
-3.6661e-08
-5.5056e-06
6.85015e-06
-5.33398e-07
-5.77904e-06
7.49078e-06
-1.9413e-06
-4.26311e-06
9.15619e-06
-4.2215e-06
9.69906e-06
-6.469e-06
-4.58864e-06
-4.88619e-06
-8.95582e-10
-3.13997e-06
-5.59804e-06
-1.01305e-06
-2.98968e-06
-3.84259e-06
3.36259e-07
-2.1919e-06
-3.83677e-06
-3.77838e-07
-1.77935e-06
-2.84489e-06
8.58573e-08
-9.75156e-07
-2.64663e-06
-1.96132e-07
-2.28545e-07
-1.31254e-06
5.02002e-09
1.17912e-07
-1.6311e-07
7.42729e-08
9.20988e-08
8.05358e-07
-7.55337e-09
-1.72971e-07
9.62177e-07
-3.8822e-08
-4.06593e-07
8.46204e-07
-1.38537e-07
-6.02683e-07
7.06121e-07
-1.96927e-07
-6.93254e-07
4.92518e-07
-2.53714e-07
-6.99299e-07
3.01063e-07
-2.92767e-07
-6.22383e-07
1.44532e-07
-3.23609e-07
-5.16627e-07
8.39149e-08
-3.4186e-07
-4.13142e-07
1.0692e-07
-3.52773e-07
-3.2552e-07
1.39258e-07
-3.6183e-07
-2.5192e-07
1.90439e-07
-3.68029e-07
-1.92293e-07
2.30009e-07
-3.71091e-07
-1.47675e-07
2.75033e-07
-3.69603e-07
-1.15403e-07
3.13304e-07
-3.66847e-07
-9.38906e-08
3.48836e-07
-3.62328e-07
-8.25349e-08
3.79464e-07
-3.58024e-07
-7.82661e-08
4.05287e-07
-3.54116e-07
-7.83271e-08
4.25721e-07
-3.50948e-07
-8.06623e-08
4.42106e-07
-3.48492e-07
-8.3687e-08
4.56036e-07
-3.46689e-07
-8.62619e-08
4.68196e-07
-3.45309e-07
-8.76736e-08
4.7971e-07
-3.44076e-07
-8.75034e-08
4.89696e-07
-3.43215e-07
-8.56037e-08
5.03083e-07
-3.41258e-07
-7.99515e-08
5.07234e-07
-3.42038e-07
-7.57864e-08
5.29239e-07
-3.37268e-07
-6.2382e-08
5.15122e-07
-3.40774e-07
-5.98948e-08
5.55902e-07
-3.30053e-07
-4.3515e-08
5.15129e-07
-3.34911e-07
-5.12851e-08
5.81658e-07
-3.16922e-07
-5.01458e-08
5.1524e-07
-3.18679e-07
-7.58814e-08
5.954e-07
-2.99344e-07
-1.20587e-07
5.36114e-07
-2.93075e-07
-1.68437e-07
5.92865e-07
-2.84453e-07
-2.64561e-07
5.79935e-07
-2.81411e-07
-3.03504e-07
5.42934e-07
-2.97196e-07
-3.72165e-07
5.41059e-07
-3.2935e-07
-3.20156e-07
3.62983e-07
-3.70141e-07
-2.54109e-07
2.97215e-07
-4.43138e-07
-5.45722e-09
3.37889e-09
-5.13551e-07
2.39977e-07
-1.46464e-08
-5.20295e-07
8.30099e-07
-1.74789e-07
-6.60137e-07
1.08113e-06
5.13064e-07
-2.00592e-07
1.16327e-06
1.95376e-06
1.45145e-07
2.90413e-06
-5.06067e-06
-5.47556e-07
2.39225e-06
-8.11048e-06
-1.16755e-06
1.18625e-06
-8.90836e-06
-1.69159e-06
-5.92863e-07
-3.23479e-06
-2.67157e-06
7.55801e-06
3.88616e-06
-7.65821e-06
1.38398e-05
2.55594e-05
-7.71512e-06
1.27058e-05
-1.02751e-05
1.46462e-05
-3.75439e-05
-2.50285e-05
2.20026e-07
-0.000112776
-3.42676e-05
4.33894e-06
-0.000114665
-1.17575e-05
4.37068e-06
-0.000117845
-1.2365e-05
1.35175e-06
-0.000119431
-2.77263e-06
9.34732e-07
-0.00012014
-6.6612e-07
1.65699e-06
-0.000123196
2.11297e-06
2.12357e-06
-0.000125912
2.07413e-06
2.25666e-06
-0.000128567
2.48434e-06
2.00713e-06
-0.000130955
1.41228e-06
1.73956e-06
-0.000132194
8.22456e-07
1.41554e-06
-0.00013275
-6.61709e-07
1.14728e-06
-0.000132421
-1.73124e-06
7.34845e-07
-0.000131201
-3.06582e-06
5.97617e-07
-0.000128166
-4.21478e-06
2.53314e-07
-0.000121582
-4.63163e-06
8.90045e-08
-0.000102831
-5.00484e-06
-6.01573e-08
-5.4376e-05
-5.17235e-06
-1.33473e-07
-1.81017e-05
-5.13972e-06
-2.82739e-07
-1.61676e-05
-4.43332e-06
-2.78337e-07
-1.43778e-05
-3.71787e-06
-2.90959e-07
-1.2682e-05
-3.03734e-06
-4.15127e-07
-1.0918e-05
-2.2563e-06
-2.99546e-07
-9.08447e-06
-1.40791e-06
-4.66635e-07
-7.09531e-06
-5.86443e-07
-5.08272e-07
-4.92765e-06
3.56872e-07
-6.04742e-07
-2.65101e-06
1.4955e-06
-7.90498e-07
-5.75557e-07
2.87374e-06
-1.04003e-06
9.56678e-07
4.43946e-06
-1.26135e-06
1.66272e-06
6.19293e-06
-1.30882e-06
1.36633e-06
7.74383e-06
-1.14487e-06
1.96984e-07
8.7041e-06
-8.74448e-07
-1.58078e-06
9.40813e-06
-7.22997e-07
-3.67693e-06
9.90076e-06
-8.16507e-07
-4.80035e-06
1.04927e-05
-1.80755e-06
-3.87863e-06
1.23863e-05
-3.99162e-06
1.36869e-05
-6.5756e-06
-5.05811e-06
-4.37892e-06
-3.33821e-07
-3.41399e-06
-5.51314e-06
-1.72901e-06
-3.25026e-06
-3.78141e-06
-2.24919e-07
-2.12444e-06
-3.8018e-06
-1.1608e-06
-1.64998e-06
-2.82912e-06
-4.90246e-07
-1.07544e-06
-2.64671e-06
-5.74459e-07
-5.39955e-07
-1.77041e-06
-7.76235e-08
-4.79886e-08
-7.07809e-07
5.27233e-08
2.81621e-07
4.94974e-07
-1.92367e-08
1.89844e-07
1.05271e-06
1.22969e-09
-7.72487e-08
1.19346e-06
-8.01741e-08
-4.04977e-07
1.16548e-06
-1.31644e-07
-6.05607e-07
8.9796e-07
-2.04822e-07
-6.56604e-07
6.19354e-07
-2.67302e-07
-5.84514e-07
3.98502e-07
-3.2607e-07
-4.77734e-07
3.36607e-07
-3.5948e-07
-3.77714e-07
3.7939e-07
-3.72499e-07
-3.06311e-07
4.48101e-07
-3.80254e-07
-2.5345e-07
5.21018e-07
-3.83448e-07
-2.15603e-07
5.75762e-07
-3.83607e-07
-1.84973e-07
6.26e-07
-3.81606e-07
-1.60009e-07
6.6535e-07
-3.77015e-07
-1.41312e-07
6.9959e-07
-3.69459e-07
-1.29095e-07
7.27267e-07
-3.60026e-07
-1.22364e-07
7.48485e-07
-3.49936e-07
-1.19657e-07
7.63432e-07
-3.40421e-07
-1.19503e-07
7.73801e-07
-3.31856e-07
-1.21386e-07
7.82255e-07
-3.24339e-07
-1.24527e-07
7.88924e-07
-3.17593e-07
-1.27322e-07
7.93894e-07
-3.11391e-07
-1.29462e-07
7.97746e-07
-3.05914e-07
-1.29499e-07
8.0323e-07
-3.00112e-07
-1.28121e-07
8.02625e-07
-2.96772e-07
-1.2638e-07
8.1709e-07
-2.89593e-07
-1.21564e-07
8.00817e-07
-2.90514e-07
-1.21431e-07
8.33439e-07
-2.77669e-07
-1.22734e-07
7.95704e-07
-2.79273e-07
-1.32999e-07
8.51786e-07
-2.59862e-07
-1.60608e-07
8.00664e-07
-2.57814e-07
-1.85399e-07
8.60238e-07
-2.40046e-07
-2.49354e-07
8.33542e-07
-2.33469e-07
-2.80216e-07
8.51926e-07
-2.28197e-07
-3.52438e-07
8.84671e-07
-2.32508e-07
-3.51438e-07
7.86399e-07
-2.44463e-07
-3.83095e-07
8.64819e-07
-2.92095e-07
-3.1302e-07
6.04849e-07
-3.11937e-07
-2.7818e-07
6.47537e-07
-3.85153e-07
-1.43855e-07
2.86916e-07
-4.17858e-07
-1.9241e-07
3.90785e-07
-3.56865e-07
-5.6582e-08
1.1308e-07
-4.23693e-07
-7.45988e-08
6.85006e-07
-1.53911e-07
2.25339e-07
1.92277e-06
-2.68974e-07
-4.26002e-06
1.8096e-06
-2.38494e-06
-1.11696e-05
3.73283e-06
-4.9337e-06
-1.57591e-05
3.14955e-06
-7.46836e-06
-1.32179e-05
3.77562e-06
-9.55165e-06
6.24239e-06
-2.69279e-06
-1.28814e-05
2.92799e-05
6.70283e-06
-4.18087e-06
8.69404e-06
-1.414e-05
2.1343e-05
-5.0899e-05
-1.45752e-05
4.95382e-07
-0.000125394
-2.74228e-05
5.48341e-06
-0.00013107
-5.98464e-06
4.00841e-06
-0.000136813
-7.00252e-06
1.44677e-06
-0.000144248
8.09591e-07
1.86443e-07
-0.000148288
2.0751e-06
7.08558e-07
-0.000150191
3.5105e-06
8.75042e-07
-0.000152262
3.89308e-06
9.68324e-07
-0.000149174
3.68581e-06
8.98107e-07
-0.000135026
2.63951e-06
7.32449e-07
-0.000142645
1.62561e-06
5.08823e-07
-0.000153722
-2.92909e-08
2.97443e-07
-0.000153027
-1.71522e-06
1.20237e-07
-0.000154548
-3.53672e-06
3.48575e-09
-0.000142354
-6.06843e-06
-1.90599e-07
-0.000119596
-5.58643e-06
-6.73203e-07
-0.000125504
-6.09764e-06
-8.20133e-07
-0.000146537
-7.10885e-06
-8.95898e-07
-0.000143862
-6.78913e-06
-1.12762e-06
-0.000141711
-5.84781e-06
-1.40186e-06
-0.000139539
-4.57499e-06
-1.67034e-06
-0.000134805
-3.77977e-06
-2.10636e-06
-0.000122919
-2.55518e-06
-2.43715e-06
-9.38375e-05
-1.45842e-06
-2.8031e-06
-4.33269e-05
-2.747e-07
-3.1802e-06
-9.61768e-06
1.0409e-06
-3.67628e-06
-6.18542e-06
2.96972e-06
-4.10348e-06
-3.22532e-06
5.11734e-06
-4.39887e-06
-8.79941e-07
6.97555e-06
-4.39943e-06
6.84494e-07
8.29737e-06
-3.83818e-06
9.83061e-07
1.02144e-05
-2.86538e-06
3.40449e-07
1.11708e-05
-1.7973e-06
-4.26954e-07
1.18428e-05
-1.23991e-06
-1.63213e-06
1.33934e-05
-1.14484e-06
-2.95916e-06
1.47135e-05
-1.83971e-06
-2.87738e-06
1.71621e-05
-3.85752e-06
1.9022e-05
-6.10921e-06
-5.53961e-06
-3.48591e-06
-2.18592e-07
-3.74542e-06
-5.15069e-06
-2.15663e-06
-3.43573e-06
-3.10576e-06
-9.85347e-07
-1.99225e-06
-3.26593e-06
-1.97936e-06
-1.18131e-06
-2.19165e-06
-1.44841e-06
-7.35311e-07
-2.00367e-06
-1.08905e-06
-4.18574e-07
-1.48181e-06
-6.05345e-07
-9.85939e-08
-7.8888e-07
-2.38919e-07
2.65688e-07
2.77591e-07
-1.46909e-07
3.14088e-07
1.04501e-06
-4.07089e-08
1.42373e-07
1.41103e-06
-4.58625e-08
-2.2106e-07
1.57102e-06
-4.21103e-08
-4.90317e-07
1.30259e-06
-1.35386e-07
-5.68893e-07
9.4021e-07
-2.42289e-07
-5.06662e-07
6.78088e-07
-3.41825e-07
-4.24188e-07
6.37201e-07
-3.83078e-07
-3.42648e-07
6.92815e-07
-3.94972e-07
-2.96794e-07
7.8977e-07
-3.87532e-07
-2.68283e-07
8.73071e-07
-3.80571e-07
-2.52955e-07
9.32981e-07
-3.72555e-07
-2.41996e-07
9.81309e-07
-3.66274e-07
-2.33904e-07
1.01606e-06
-3.58812e-07
-2.29036e-07
1.04399e-06
-3.49268e-07
-2.26949e-07
1.06379e-06
-3.38618e-07
-2.26396e-07
1.07547e-06
-3.27539e-07
-2.26905e-07
1.08052e-06
-3.16588e-07
-2.28169e-07
1.08116e-06
-3.06098e-07
-2.31062e-07
1.07981e-06
-2.94662e-07
-2.34429e-07
1.07702e-06
-2.84726e-07
-2.37217e-07
1.07244e-06
-2.75763e-07
-2.39783e-07
1.06752e-06
-2.67213e-07
-2.39573e-07
1.06287e-06
-2.59857e-07
-2.41426e-07
1.05741e-06
-2.52932e-07
-2.41093e-07
1.06223e-06
-2.45472e-07
-2.48536e-07
1.04876e-06
-2.40499e-07
-2.50552e-07
1.06672e-06
-2.3127e-07
-2.72387e-07
1.04245e-06
-2.24909e-07
-2.82217e-07
1.07517e-06
-2.13551e-07
-3.27521e-07
1.04905e-06
-2.0308e-07
-3.43643e-07
1.07127e-06
-1.94909e-07
-3.92728e-07
1.06896e-06
-1.86328e-07
-3.87121e-07
1.03241e-06
-1.86084e-07
-3.80807e-07
1.07455e-06
-1.96187e-07
-3.18099e-07
9.20042e-07
-1.96344e-07
-2.80199e-07
1.04951e-06
-2.22593e-07
-1.74464e-07
7.29641e-07
-2.30518e-07
-1.3334e-07
8.50756e-07
-2.44339e-07
1.32677e-09
4.08906e-07
-2.56646e-07
-5.16107e-08
5.89462e-07
-1.45736e-07
-3.24075e-08
2.83433e-07
-1.89542e-07
-4.5431e-08
7.77246e-07
-7.92138e-08
4.69843e-07
1.76087e-06
-3.53367e-07
-2.03006e-06
6.82892e-06
-2.51947e-06
-7.04482e-06
1.39224e-05
-5.17474e-06
-8.63251e-06
1.25519e-05
-7.81459e-06
-5.60109e-06
9.55513e-06
-8.81089e-06
5.49426e-06
-1.33743e-06
-1.24508e-05
3.24258e-05
-1.05806e-05
-9.64798e-06
4.47206e-06
-1.26067e-05
2.07726e-05
-6.63193e-05
-3.8476e-06
1.29263e-06
-0.000135828
-7.38242e-06
7.07176e-06
-0.000150409
3.98082e-06
4.12476e-06
-0.000150056
2.40261e-06
8.45841e-07
-0.000123941
5.23312e-06
5.51055e-07
-0.000123493
4.95909e-06
5.76127e-08
-0.000156396
5.51819e-06
2.25711e-07
-0.000166383
4.81818e-06
2.86603e-07
-0.000162418
4.34285e-06
3.12386e-07
-0.000165801
3.1119e-06
3.58413e-07
-0.000171927
1.03675e-06
2.89939e-07
-0.000175626
-5.35017e-07
1.65796e-07
-0.000174322
-2.69028e-06
1.92054e-07
-0.000163928
-4.16625e-06
4.39795e-07
-0.000106905
-5.52019e-06
8.11874e-07
-7.33062e-05
-8.30341e-06
-2.2319e-07
-0.000130773
-9.35331e-06
-2.07626e-08
-0.000169142
-9.12553e-06
1.10942e-07
-0.000162288
-9.0456e-06
-1.72013e-07
-0.000165216
-7.96438e-06
-6.43405e-07
-0.000162851
-6.75909e-06
-1.19788e-06
-0.000161793
-5.85321e-06
-1.6156e-06
-0.000156051
-4.45889e-06
-2.10682e-06
-0.000149649
-3.1509e-06
-2.56613e-06
-0.000145426
-1.58897e-06
-3.07789e-06
-0.00013978
1.19553e-07
-3.39178e-06
-0.00013117
2.23685e-06
-3.62258e-06
-0.000107594
4.78098e-06
-3.60659e-06
-4.80308e-05
7.70666e-06
-2.85451e-06
-2.69291e-06
8.66e-06
-2.13125e-06
-1.48715e-06
1.10911e-05
-7.11352e-07
-1.90962e-06
1.25124e-05
-4.42011e-07
-6.08237e-05
1.39768e-05
-5.56625e-07
-0.000121507
1.56565e-05
-1.03673e-06
-0.000120532
1.77072e-05
-2.37391e-06
-0.000119785
2.05404e-05
-4.56019e-06
2.30489e-05
-6.21263e-06
-5.54405e-06
-2.86783e-06
1.04664e-06
-4.023e-06
-4.79787e-06
-1.87388e-06
-3.8379e-06
-2.03524e-06
-1.25562e-06
-2.36775e-06
-2.49964e-06
-2.23645e-06
-1.31469e-06
-1.39199e-06
-1.85273e-06
-6.06421e-07
-1.27352e-06
-1.43842e-06
-2.84279e-07
-8.19517e-07
-9.84442e-07
-1.42104e-07
-4.96428e-07
-4.34637e-07
9.00904e-08
2.22061e-07
-1.76675e-07
1.85436e-07
9.95885e-07
-4.6228e-08
2.19348e-07
1.405e-06
-2.78996e-08
1.20436e-07
1.66344e-06
6.47849e-09
1.07118e-08
1.5673e-06
-1.54988e-07
-7.47842e-08
1.31513e-06
-2.89432e-07
-1.26639e-07
1.14173e-06
-4.118e-07
-1.85888e-07
1.16585e-06
-4.69406e-07
-2.36761e-07
1.25405e-06
-5.10367e-07
-2.85159e-07
1.36007e-06
-5.21912e-07
-3.29422e-07
1.44875e-06
-5.31428e-07
-3.60038e-07
1.49969e-06
-5.36102e-07
-3.75226e-07
1.53265e-06
-5.36164e-07
-3.82128e-07
1.55642e-06
-5.33458e-07
-3.83942e-07
1.57527e-06
-5.29478e-07
-3.83639e-07
1.5885e-06
-5.25015e-07
-3.81785e-07
1.59505e-06
-5.21442e-07
-3.79917e-07
1.59681e-06
-5.1816e-07
-3.79561e-07
1.59543e-06
-5.14632e-07
-3.80797e-07
1.59203e-06
-5.10988e-07
-3.83997e-07
1.58742e-06
-5.07206e-07
-3.87877e-07
1.58043e-06
-5.04115e-07
-3.91236e-07
1.57226e-06
-5.01379e-07
-3.91184e-07
1.56213e-06
-4.99307e-07
-3.94105e-07
1.55566e-06
-4.95334e-07
-3.97283e-07
1.55723e-06
-4.91824e-07
-4.16286e-07
1.55423e-06
-4.86465e-07
-4.25186e-07
1.55923e-06
-4.83602e-07
-4.63555e-07
1.5554e-06
-4.74582e-07
-4.74977e-07
1.5589e-06
-4.72305e-07
-5.26056e-07
1.5595e-06
-4.59363e-07
-5.24383e-07
1.53198e-06
-4.62379e-07
-5.43411e-07
1.54297e-06
-4.54977e-07
-5.06077e-07
1.45953e-06
-4.64458e-07
-4.25936e-07
1.47265e-06
-4.78243e-07
-3.21671e-07
1.30778e-06
-4.91998e-07
-1.93472e-07
1.40948e-06
-4.88161e-07
-5.96904e-08
1.12442e-06
-5.28562e-07
1.78719e-08
1.25433e-06
-4.81131e-07
2.22042e-07
7.58209e-07
-5.5347e-07
1.88694e-07
1.0006e-06
-3.77784e-07
5.6288e-07
2.78423e-07
-3.69173e-07
8.81352e-07
8.28856e-07
-3.70068e-07
2.33364e-06
4.49326e-07
-1.40748e-07
4.03031e-06
6.63677e-06
-1.50454e-06
3.07858e-06
1.86589e-05
-3.78483e-06
3.9902e-06
1.80762e-05
-6.43595e-06
9.97002e-06
1.30809e-05
-9.5056e-06
1.29136e-05
7.66926e-06
-1.19504e-05
3.22187e-05
-1.83716e-05
-1.15142e-05
2.46349e-07
-1.11864e-05
2.15165e-05
-9.21977e-05
1.06533e-05
2.42129e-06
-0.000175381
2.33611e-05
1.01255e-05
-0.0001887
1.42443e-05
4.34583e-06
-0.000196981
1.34681e-05
-4.2976e-08
-0.00020229
1.12014e-05
-4.12817e-07
-0.000204029
8.98331e-06
-1.01372e-06
-0.000206289
7.86815e-06
-1.00272e-06
-0.000211056
6.12186e-06
-1.13963e-06
-0.000210439
4.82453e-06
-1.09697e-06
-0.000207367
3.2044e-06
-1.14576e-06
-0.000206672
8.82206e-07
-1.12913e-06
-0.000205423
-7.48421e-07
-1.17036e-06
-0.000204155
-2.54071e-06
-8.46109e-07
-0.000199989
-4.30068e-06
-4.49201e-07
-0.000190588
-5.73868e-06
-2.81865e-08
-0.000178799
-7.44157e-06
2.8095e-07
-0.000185001
-8.06471e-06
5.86065e-07
-0.000193246
-8.33895e-06
1.11533e-06
-0.000196908
-8.27127e-06
1.25647e-06
-0.000208458
-7.72797e-06
7.642e-07
-0.000211315
-7.51045e-06
4.30744e-07
-0.000210752
-6.76962e-06
2.03753e-07
-0.000207557
-5.9747e-06
-2.75163e-08
-0.000202595
-5.23511e-06
-1.76086e-07
-0.000195352
-4.4147e-06
-3.33833e-07
-0.000189371
-2.82697e-06
-6.54565e-07
-0.000191159
-1.5542e-06
-1.20759e-06
-0.000189742
6.1602e-08
-1.32235e-06
-0.000181384
2.68361e-06
-6.06092e-07
-0.000179479
5.80537e-06
1.8254e-07
-0.000177733
8.8583e-06
8.46024e-07
-0.000174881
1.13626e-05
6.81115e-07
-0.000180544
1.37687e-05
-7.9431e-08
-0.000181101
1.50584e-05
-9.84725e-07
-0.000176897
1.68297e-05
-2.62895e-06
-0.000168843
1.84551e-05
-4.74415e-06
1.8518e-05
-5.20804e-06
-4.93918e-06
-9.76903e-07
3.16294e-06
-3.77474e-06
-4.46944e-06
-1.49287e-06
-4.07052e-06
-9.40931e-07
-7.98537e-07
-2.98373e-06
-2.03379e-06
-1.55264e-06
-2.09183e-06
-9.32876e-07
-1.35102e-06
-1.05644e-06
-1.07518e-06
-1.23374e-06
-5.44278e-07
-5.16738e-07
-8.14952e-07
-3.26108e-07
-2.93468e-07
-4.21141e-07
-1.18018e-07
1.62949e-07
-1.48989e-07
1.50938e-08
8.76058e-07
-1.32949e-08
2.12299e-07
1.15049e-06
5.72998e-08
3.68362e-07
1.26327e-06