/*--------------------------------*- C++ -*----------------------------------*\
| =========                 |                                                 |
| \\      /  F ield         | OpenFOAM: The Open Source CFD Toolbox           |
|  \\    /   O peration     | Version:  2.3.0                                 |
|   \\  /    A nd           | Web:      www.OpenFOAM.org                      |
|    \\/     M anipulation  |                                                 |
\*---------------------------------------------------------------------------*/
FoamFile
{
    version     2.0;
    format      ascii;
    class       surfaceScalarField;
    location    "25";
    object      phi.water;
}
// * * * * * * * * * * * * * * * * * * * * * * * * * * * * * * * * * * * * * //

dimensions      [0 3 -1 0 0 0 0];

internalField   nonuniform List<scalar> 
16448
(
-7.5452e-07
-2.34299e-06
8.09099e-07
6.90612e-07
-2.36977e-06
9.29151e-07
8.97624e-07
-1.30644e-06
1.10239e-06
1.0987e-06
-1.22411e-06
1.02537e-06
9.38303e-07
-6.67004e-07
8.30684e-07
8.15401e-07
-6.15896e-07
7.41629e-07
5.47356e-07
-3.12403e-07
5.84699e-07
2.96841e-07
-2.67649e-07
5.22409e-07
1.36848e-08
-2.14166e-07
4.99585e-07
-2.3747e-07
-2.06828e-07
4.58249e-07
-4.12414e-07
-2.38683e-07
4.13837e-07
-4.51664e-07
-3.01399e-07
3.40838e-07
-3.93842e-07
-3.6837e-07
3.108e-07
-2.73277e-07
-4.17416e-07
2.97044e-07
-1.62813e-07
-4.40401e-07
3.30219e-07
-5.961e-08
-4.60065e-07
3.57071e-07
5.93129e-09
-4.66217e-07
4.00951e-07
5.63031e-08
-4.79431e-07
4.29275e-07
8.69863e-08
-4.88092e-07
4.57651e-07
1.06401e-07
-4.91871e-07
4.72679e-07
1.15962e-07
-4.92056e-07
4.82727e-07
1.19962e-07
-4.89378e-07
4.85594e-07
1.19546e-07
-4.84492e-07
4.85138e-07
1.17091e-07
-4.78663e-07
4.81341e-07
1.13721e-07
-4.71868e-07
4.75468e-07
1.10782e-07
-4.64944e-07
4.68108e-07
1.09136e-07
-4.58113e-07
4.59998e-07
1.0887e-07
-4.51228e-07
4.51734e-07
1.09937e-07
-4.44387e-07
4.43572e-07
1.11635e-07
-4.37303e-07
4.35846e-07
1.14889e-07
-4.31049e-07
4.28063e-07
1.16253e-07
-4.2307e-07
4.21944e-07
1.20441e-07
-4.18889e-07
4.14983e-07
1.18948e-07
-4.09324e-07
4.11046e-07
1.25322e-07
-4.08711e-07
4.02638e-07
1.23287e-07
-3.96893e-07
3.99144e-07
1.33727e-07
-3.97457e-07
3.87336e-07
1.37217e-07
-3.84926e-07
3.81628e-07
1.57299e-07
-3.85857e-07
3.66112e-07
1.81751e-07
-3.77805e-07
3.53508e-07
2.25162e-07
-3.80149e-07
3.3713e-07
2.88299e-07
-3.90744e-07
3.27696e-07
3.52342e-07
-3.90057e-07
3.26486e-07
4.40272e-07
-4.34336e-07
3.46406e-07
4.67954e-07
-4.22333e-07
3.95158e-07
4.95379e-07
-4.87932e-07
4.60482e-07
4.326e-07
-4.74873e-07
5.38146e-07
3.4453e-07
-4.77529e-07
5.65502e-07
2.70097e-07
-4.75522e-07
5.53231e-07
-3.22514e-08
-2.53631e-07
5.64412e-07
-4.01271e-08
-6.38056e-07
6.82458e-07
-2.81927e-07
-6.53382e-07
9.429e-07
-9.66669e-07
-1.10063e-06
1.92532e-06
-1.52688e-06
-1.46585e-06
2.03486e-06
-2.56594e-06
-2.45734e-06
3.66356e-06
-3.17799e-06
-3.23818e-06
3.7099e-06
7.14434e-08
-3.94905e-07
-1.58657e-06
-5.07101e-07
-9.57531e-07
1.02327e-06
3.32372e-06
2.23649e-07
5.3437e-06
2.80016e-05
-1.87791e-05
1.46786e-05
2.18206e-05
-2.49709e-05
4.09697e-06
2.82716e-05
-1.18255e-05
3.97205e-06
2.73597e-05
-2.09866e-06
3.0069e-06
2.90435e-05
-3.47821e-06
1.79437e-06
3.02832e-05
-2.53007e-06
1.29037e-06
3.07017e-05
-1.24863e-06
8.30151e-07
3.06517e-05
-5.77301e-07
6.27215e-07
3.03745e-05
-3.24745e-07
6.01977e-07
2.99727e-05
-2.63896e-07
6.65656e-07
2.95115e-05
-2.96198e-07
7.574e-07
2.90451e-05
-3.91872e-07
8.58254e-07
2.86246e-05
-5.40473e-07
9.61015e-07
2.8287e-05
-7.14753e-07
1.05235e-06
2.80313e-05
-8.74669e-07
1.13041e-06
2.78485e-05
-9.96976e-07
1.1797e-06
2.77104e-05
-1.07158e-06
1.20972e-06
2.75586e-05
-1.06471e-06
1.21649e-06
2.73502e-05
-1.00035e-06
1.2088e-06
2.7038e-05
-8.71557e-07
1.18373e-06
2.65478e-05
-6.68647e-07
1.1588e-06
2.58534e-05
-4.27358e-07
1.12173e-06
2.48864e-05
-1.25464e-07
1.09255e-06
2.34913e-05
3.32381e-07
1.06267e-06
2.15266e-05
9.06902e-07
1.05784e-06
1.89661e-05
1.46989e-06
1.09055e-06
1.57557e-05
1.93533e-06
1.2751e-06
1.17472e-05
2.38162e-06
1.6269e-06
7.40906e-06
2.47605e-06
1.86206e-06
3.28604e-06
2.28733e-06
1.83569e-06
-2.35309e-07
2.04499e-06
1.47637e-06
-2.77318e-06
1.57823e-06
9.59651e-07
-4.46889e-06
1.09102e-06
6.04684e-07
-5.64101e-06
1.04696e-06
1.25169e-07
-5.74161e-06
1.31513e-06
-1.21453e-06
-3.88376e-06
1.35885e-06
-3.21669e-06
1.11031e-06
-4.99407e-06
-2.19875e-06
-3.61756e-06
1.95737e-07
-1.05487e-06
-3.6321e-06
1.24678e-07
-7.05409e-07
-2.22786e-06
5.76443e-07
-8.64519e-08
-2.10495e-06
2.66477e-07
2.97189e-07
-1.16676e-06
1.21366e-07
5.38407e-07
-9.23787e-07
7.02883e-08
5.23341e-07
-2.9083e-07
-1.97893e-09
2.89128e-07
-9.51065e-08
6.49938e-08
-9.32883e-08
4.77581e-08
1.21595e-07
-4.06336e-07
-3.33549e-09
1.09278e-07
-5.95086e-07
-1.08664e-07
5.86539e-08
-6.32669e-07
-2.54695e-07
-9.21362e-09
-5.75299e-07
-3.77284e-07
-4.84184e-08
-4.50793e-07
-4.72799e-07
-6.91343e-08
-3.18692e-07
-5.18225e-07
-5.42153e-08
-1.89505e-07
-5.512e-07
-3.8065e-08
-9.93705e-08
-5.52316e-07
-4.00537e-09
-2.59843e-08
-5.63991e-07
1.11612e-08
2.08536e-08
-5.62957e-07
2.8081e-08
5.41486e-08
-5.61712e-07
3.6578e-08
7.33793e-08
-5.5377e-07
4.25378e-08
8.37781e-08
-5.43929e-07
4.42012e-08
8.75781e-08
-5.31718e-07
4.34807e-08
8.72845e-08
-5.18861e-07
4.0542e-08
8.50282e-08
-5.05801e-07
3.6234e-08
8.2678e-08
-4.93469e-07
3.09175e-08
8.15234e-08
-4.81928e-07
2.50102e-08
8.16316e-08
-4.70491e-07
1.91887e-08
8.35624e-08
-4.59629e-07
1.33442e-08
8.53656e-08
-4.47601e-07
8.51064e-09
9.01408e-08
-4.38861e-07
3.05719e-09
8.91169e-08
-4.22539e-07
4.87836e-10
9.71389e-08
-4.17665e-07
-9.21777e-09
9.12699e-08
-3.95281e-07
-8.18321e-09
1.04663e-07
-4.00318e-07
-2.17376e-08
9.67918e-08
-3.70533e-07
-1.85012e-08
1.18735e-07
-3.83146e-07
-3.61903e-08
1.18235e-07
-3.50212e-07
-3.42548e-08
1.5431e-07
-3.69064e-07
-5.27704e-08
1.75647e-07
-3.41007e-07
-5.82216e-08
2.31043e-07
-3.71407e-07
-6.39727e-08
2.76747e-07
-3.61649e-07
-7.49442e-08
3.33361e-07
-3.97582e-07
-4.88609e-08
3.60235e-07
-4.18019e-07
-4.33897e-08
3.77618e-07
-4.54443e-07
1.49457e-08
3.6211e-07
-5.05915e-07
3.32833e-08
3.63334e-07
-5.4494e-07
6.91434e-08
4.24119e-07
-5.82173e-07
4.3738e-08
5.14988e-07
-5.80883e-07
1.61222e-08
6.28363e-07
-3.59672e-07
-7.0688e-10
5.39185e-07
-6.7345e-07
1.67843e-07
-3.15241e-07
-3.78243e-07
6.38808e-07
-3.09944e-06
1.65706e-07
1.63414e-06
-4.24702e-06
-1.5692e-06
1.24306e-06
-3.04125e-07
-7.79555e-06
1.55262e-06
2.15896e-06
-8.29743e-06
2.50196e-06
-7.58202e-07
5.67716e-06
-2.0456e-06
-9.01053e-06
5.47518e-06
1.22028e-06
1.68751e-06
1.77419e-06
-2.39858e-06
2.90305e-05
-3.45491e-05
6.06215e-06
1.0336e-05
-3.6246e-05
2.55279e-06
9.60965e-06
-1.45989e-05
1.89641e-06
1.52193e-05
-7.20219e-06
-5.07991e-07
1.85033e-05
-5.11299e-06
-1.64931e-06
1.99681e-05
-1.92252e-06
-2.07235e-06
2.13498e-05
-5.87202e-07
-2.04319e-06
2.21257e-05
4.22031e-07
-1.7752e-06
2.2505e-05
7.29808e-07
-1.43384e-06
2.25895e-05
7.19312e-07
-1.06771e-06
2.24714e-05
5.22486e-07
-7.00646e-07
2.22358e-05
2.1859e-07
-3.74865e-07
2.198e-05
-1.77099e-07
-1.07546e-07
2.1766e-05
-6.2872e-07
1.27991e-07
2.16009e-05
-1.02329e-06
3.1373e-07
2.14926e-05
-1.3288e-06
4.4004e-07
2.14328e-05
-1.53794e-06
5.26239e-07
2.13795e-05
-1.56695e-06
5.55548e-07
2.13186e-05
-1.49763e-06
5.58102e-07
2.11961e-05
-1.28844e-06
5.39457e-07
2.09491e-05
-9.27843e-07
5.06198e-07
2.05398e-05
-4.84387e-07
4.66303e-07
1.99643e-05
2.9796e-08
4.20265e-07
1.92067e-05
7.56026e-07
3.33879e-07
1.81497e-05
1.69888e-06
2.65041e-07
1.65548e-05
2.7766e-06
2.88196e-07
1.41827e-05
3.80518e-06
5.02274e-07
1.1123e-05
4.52437e-06
9.16899e-07
7.54138e-06
4.80042e-06
1.25729e-06
3.69197e-06
4.80592e-06
1.33082e-06
1.84125e-07
4.48794e-06
1.0649e-06
-2.43588e-06
3.59053e-06
6.07715e-07
-4.30834e-06
2.8032e-06
1.60283e-07
-5.41649e-06
2.53808e-06
-3.82959e-07
-5.34245e-06
3.04682e-06
-1.80572e-06
-3.63225e-06
3.53673e-06
-3.88807e-06
3.37223e-06
-5.89417e-06
-3.16634e-06
-4.34551e-06
1.65604e-08
-2.00883e-06
-4.46464e-06
-3.17683e-07
-1.81114e-06
-2.81964e-06
3.99937e-07
-1.165e-06
-2.78029e-06
3.36129e-08
-6.50064e-07
-1.65069e-06
-2.54206e-08
-1.17467e-07
-1.28265e-06
-1.68843e-07
1.03146e-07
-2.13777e-07
-2.92815e-07
-3.67263e-08
1.83863e-07
-1.36091e-07
-3.01915e-07
4.20151e-07
-1.05969e-07
-5.08376e-07
3.00701e-07
-9.73728e-08
-6.25397e-07
1.50064e-07
-1.41365e-07
-6.57259e-07
-2.54265e-08
-1.97151e-07
-6.28516e-07
-1.67768e-07
-2.38088e-07
-5.50868e-07
-2.87728e-07
-2.62633e-07
-4.41591e-07
-3.58141e-07
-2.69283e-07
-3.23267e-07
-4.01271e-07
-2.68222e-07
-2.23237e-07
-3.97675e-07
-2.54598e-07
-1.36119e-07
-4.04144e-07
-2.46938e-07
-7.46096e-08
-3.88295e-07
-2.36099e-07
-2.72773e-08
-3.78342e-07
-2.30664e-07
3.00972e-09
-3.59474e-07
-2.24516e-07
2.18884e-08
-3.41194e-07
-2.21564e-07
3.08326e-08
-3.20477e-07
-2.20121e-07
3.31244e-08
-3.00325e-07
-2.20767e-07
3.13287e-08
-2.81339e-07
-2.22597e-07
2.83068e-08
-2.64744e-07
-2.25633e-07
2.58651e-08
-2.50069e-07
-2.29338e-07
2.4881e-08
-2.3623e-07
-2.33199e-07
2.56347e-08
-2.23256e-07
-2.37039e-07
2.83858e-08
-2.09702e-07
-2.40575e-07
3.25662e-08
-1.98685e-07
-2.4425e-07
3.6791e-08
-1.80662e-07
-2.46038e-07
4.4247e-08
-1.74364e-07
-2.50622e-07
4.73638e-08
-1.48142e-07
-2.50207e-07
6.11107e-08
-1.55521e-07
-2.58381e-07
6.25177e-08
-1.17012e-07
-2.54894e-07
8.85467e-08
-1.41743e-07
-2.67264e-07
8.87042e-08
-9.10686e-08
-2.59253e-07
1.27871e-07
-1.34826e-07
-2.73233e-07
1.31058e-07
-8.35776e-08
-2.60583e-07
1.66372e-07
-1.40285e-07
-2.66229e-07
1.46659e-07
-9.89764e-08
-2.42967e-07
1.48452e-07
-1.60725e-07
-2.38433e-07
8.55502e-08
-1.48908e-07
-2.06248e-07
7.03294e-08
-2.29246e-07
-2.09774e-07
5.70089e-08
-2.74295e-07
-2.18391e-07
1.53301e-07
-3.97921e-07
-2.42912e-07
3.92565e-07
-4.82529e-07
-3.38791e-07
6.67769e-07
-5.15347e-07
-3.38836e-07
1.06744e-06
-3.64945e-07
-3.85579e-07
6.32988e-07
-1.24667e-07
-6.43932e-08
-9.70254e-07
8.67265e-07
4.08423e-07
-1.09391e-06
-2.74504e-07
6.89648e-07
1.28027e-06
-4.07691e-06
1.2775e-07
4.4456e-06
-1.08229e-05
9.21119e-08
1.12768e-06
-7.75981e-06
2.57892e-06
8.19739e-06
4.69732e-06
-4.2872e-06
-6.6138e-09
1.31716e-05
-1.10695e-06
7.33346e-06
8.11933e-06
-1.65774e-06
2.88923e-05
-3.73588e-05
6.50802e-08
2.96274e-06
-4.03929e-05
2.66995e-06
1.38412e-06
-1.68045e-05
2.07513e-06
1.1924e-05
-1.62892e-05
-1.45343e-06
1.23339e-05
-3.09587e-06
-2.42708e-06
1.37102e-05
-5.20522e-07
-2.77829e-06
1.50172e-05
8.12563e-08
-1.97548e-06
1.5422e-05
1.17431e-06
-1.15707e-06
1.51491e-05
1.4817e-06
-4.79067e-07
1.44695e-05
1.31092e-06
8.7971e-08
1.3509e-05
9.3678e-07
5.46225e-07
1.24692e-05
3.84258e-07
8.74178e-07
1.14912e-05
-2.57365e-07
1.05828e-06
1.06455e-05
-8.8887e-07
1.10585e-06
1.00483e-05
-1.49869e-06
1.07256e-06
9.72795e-06
-1.98569e-06
9.77251e-07
9.68391e-06
-2.3499e-06
8.55994e-07
9.83356e-06
-2.44342e-06
7.26826e-07
1.00937e-05
-2.36265e-06
6.04877e-07
1.03881e-05
-2.08457e-06
5.01762e-07
1.0678e-05
-1.62585e-06
4.08018e-07
1.0889e-05
-1.01916e-06
3.23832e-07
1.08976e-05
-2.54822e-07
2.75957e-07
1.0812e-05
6.61755e-07
1.79866e-07
1.06032e-05
1.86029e-06
4.7386e-08
9.92879e-06
3.29023e-06
1.60812e-07
8.53773e-06
4.612e-06
5.84234e-07
6.60469e-06
5.46543e-06
9.91982e-07
4.43452e-06
5.7989e-06
1.17169e-06
2.38537e-06
5.89943e-06
9.55645e-07
4.45705e-07
5.75235e-06
6.75257e-07
-1.57071e-06
5.29148e-06
3.15464e-07
-3.4319e-06
4.77452e-06
-1.10112e-07
-4.77248e-06
4.54011e-06
-6.61446e-07
-4.88369e-06
5.26427e-06
-2.10624e-06
-3.44249e-06
6.32609e-06
-4.23056e-06
6.27895e-06
-6.34921e-06
-3.86817e-06
-4.81478e-06
5.54614e-09
-2.52787e-06
-5.16179e-06
-6.36095e-07
-2.4687e-06
-3.35562e-06
4.84122e-07
-1.83661e-06
-3.41625e-06
7.98706e-09
-1.27106e-06
-2.34584e-06
1.35613e-07
-4.13961e-07
-2.03782e-06
-9.49728e-08
1.497e-07
-5.60381e-07
-2.10221e-07
1.28603e-07
2.57936e-07
-5.00923e-08
-1.4146e-07
7.72191e-07
-8.15919e-08
-3.87174e-07
6.58484e-07
-1.12027e-07
-5.14587e-07
4.74184e-07
-1.96321e-07
-6.00725e-07
3.13219e-07
-2.52103e-07
-6.20147e-07
1.48326e-07
-2.96407e-07
-5.84481e-07
2.32765e-09
-3.25501e-07
-4.96758e-07
-1.02098e-07
-3.43547e-07
-3.91154e-07
-1.52133e-07
-3.54517e-07
-2.89534e-07
-1.42326e-07
-3.56713e-07
-1.98765e-07
-1.34917e-07
-3.59755e-07
-1.25806e-07
-1.03971e-07
-3.5702e-07
-6.76517e-08
-8.1445e-08
-3.54808e-07
-2.76704e-08
-4.99588e-08
-3.49241e-07
-2.51706e-09
-2.1291e-08
-3.44814e-07
1.02004e-08
7.9835e-09
-3.40929e-07
1.56657e-08
3.27601e-08
-3.38295e-07
1.61722e-08
5.53958e-08
-3.36984e-07
1.41666e-08
7.46642e-08
-3.37135e-07
1.14453e-08
9.12191e-08
-3.38298e-07
9.28915e-09
1.06257e-07
-3.40055e-07
8.30391e-09
1.20235e-07
-3.42229e-07
8.99741e-09
1.34138e-07
-3.44263e-07
1.07491e-08
1.46555e-07
-3.46697e-07
1.41295e-08
1.6362e-07
-3.47419e-07
2.06096e-08
1.70732e-07
-3.51255e-07
2.56516e-08
1.96013e-07
-3.48991e-07
3.92385e-08
1.87617e-07
-3.5638e-07
4.35516e-08
2.28194e-07
-3.49349e-07
6.53671e-08
1.96445e-07
-3.5966e-07
6.43674e-08
2.56803e-07
-3.46735e-07
8.91453e-08
1.97536e-07
-3.56812e-07
7.28922e-08
2.70142e-07
-3.37353e-07
7.23662e-08
1.9818e-07
-3.37588e-07
3.25293e-08
2.60396e-07
-3.19521e-07
-2.16427e-08
2.02289e-07
-3.08287e-07
-6.41204e-08
2.06672e-07
-3.13282e-07
-1.18528e-07
1.43007e-07
-3.17276e-07
-7.6488e-08
4.48222e-08
-3.61242e-07
2.09628e-08
-7.98351e-08
-4.14792e-07
3.17913e-07
-2.61388e-07
-5.17621e-07
6.23288e-07
-2.89383e-07
-5.27804e-07
1.11304e-06
-2.44666e-07
-5.94311e-07
5.13821e-07
5.63156e-07
-4.56971e-08
-1.30429e-06
2.1775e-06
5.49336e-07
2.21891e-06
-3.89834e-06
3.37706e-07
8.34779e-06
-9.79315e-06
-3.92742e-07
9.24762e-06
-1.17933e-05
2.6792e-07
8.61769e-06
-7.65702e-06
4.12954e-07
1.05638e-05
4.40696e-06
-3.891e-07
2.91526e-06
2.38855e-05
-3.35336e-06
1.78685e-05
3.86056e-06
3.01287e-06
3.17183e-05
-3.34024e-05
-4.45887e-07
5.78753e-07
-4.1564e-05
2.94377e-06
-5.38506e-06
-1.56101e-05
3.13674e-06
-3.45135e-06
-1.85685e-05
3.45511e-07
-1.44638e-06
-2.82423e-06
-2.27665e-06
2.7649e-06
-2.31412e-06
-2.41774e-06
2.08256e-06
9.46878e-07
-1.8333e-07
1.0666e-06
1.2046e-06
9.85639e-07
-8.60883e-07
1.86686e-06
1.54232e-06
-2.88523e-06
1.46725e-06
1.86801e-06
-4.79944e-06
1.02332e-06
1.82768e-06
-6.32582e-06
2.29426e-07
1.68122e-06
-7.25037e-06
-7.90886e-07
1.45807e-06
-7.50743e-06
-1.8389e-06
1.2071e-06
-7.22466e-06
-2.73413e-06
9.52675e-07
-6.5916e-06
-3.34826e-06
7.29518e-07
-5.69208e-06
-3.80996e-06
5.60538e-07
-4.6951e-06
-3.88743e-06
4.47033e-07
-3.7503e-06
-3.70455e-06
3.97104e-07
-2.93955e-06
-3.28278e-06
3.87448e-07
-2.21406e-06
-2.75078e-06
3.99434e-07
-1.53954e-06
-2.11192e-06
4.18236e-07
-9.009e-07
-1.33658e-06
4.4311e-07
-3.08349e-07
-4.02499e-07
4.71695e-07
2.49487e-07
7.27165e-07
5.75278e-07
7.79438e-07
1.95278e-06
8.07492e-07
1.39918e-06
3.00514e-06
9.87118e-07
1.98433e-06
3.90975e-06
9.70516e-07
2.30512e-06
4.69225e-06
7.85856e-07
2.10751e-06
5.56224e-06
5.34798e-07
1.20624e-06
6.27169e-06
3.81917e-07
-3.58021e-07
6.6377e-06
2.18043e-07
-2.3609e-06
6.81739e-06
-3.99883e-08
-4.13763e-06
6.84624e-06
-5.29396e-07
-4.4325e-06
7.48447e-06
-1.92532e-06
-3.06229e-06
9.15232e-06
-4.19644e-06
9.68186e-06
-6.4652e-06
-4.54477e-06
-4.88596e-06
-1.39069e-09
-3.09029e-06
-5.59736e-06
-1.01314e-06
-2.93129e-06
-3.8419e-06
3.36014e-07
-2.12906e-06
-3.83599e-06
-3.78799e-07
-1.71063e-06
-2.84432e-06
8.53725e-08
-8.99297e-07
-2.6459e-06
-1.9637e-07
-1.44153e-07
-1.31166e-06
4.67631e-09
2.07939e-07
-1.62467e-07
7.36083e-08
1.84209e-07
8.05702e-07
-8.20262e-09
-8.0521e-08
9.62464e-07
-3.93545e-08
-3.13482e-07
8.46386e-07
-1.38926e-07
-5.08862e-07
7.0622e-07
-1.97227e-07
-5.98914e-07
4.92561e-07
-2.53965e-07
-6.04531e-07
3.01082e-07
-2.92998e-07
-5.2723e-07
1.44526e-07
-3.23843e-07
-4.21082e-07
8.38915e-08
-3.42095e-07
-3.17188e-07
1.06869e-07
-3.53006e-07
-2.2916e-07
1.39179e-07
-3.6206e-07
-1.55135e-07
1.90334e-07
-3.68254e-07
-9.50967e-08
2.2988e-07
-3.71314e-07
-5.00493e-08
2.74886e-07
-3.69824e-07
-1.7359e-08
3.13139e-07
-3.67067e-07
4.58285e-09
3.48658e-07
-3.62548e-07
1.63662e-08
3.79271e-07
-3.58245e-07
2.10671e-08
4.05083e-07
-3.54335e-07
2.14379e-08
4.25504e-07
-3.51167e-07
1.9541e-08
4.41878e-07
-3.4871e-07
1.69531e-08
4.55795e-07
-3.46906e-07
1.48214e-08
4.67944e-07
-3.45524e-07
1.38422e-08
4.79447e-07
-3.44292e-07
1.44684e-08
4.89422e-07
-3.43429e-07
1.67763e-08
5.02798e-07
-3.41473e-07
2.29152e-08
5.06942e-07
-3.4225e-07
2.7457e-08
5.28937e-07
-3.37484e-07
4.13794e-08
5.14815e-07
-3.40987e-07
4.42145e-08
5.55587e-07
-3.30272e-07
6.11237e-08
5.14816e-07
-3.35126e-07
5.36671e-08
5.8134e-07
-3.17147e-07
5.53633e-08
5.14931e-07
-3.18898e-07
2.98674e-08
5.95093e-07
-2.99573e-07
-1.40767e-08
5.35822e-07
-2.93303e-07
-6.18756e-08
5.92581e-07
-2.84685e-07
-1.57287e-07
5.79668e-07
-2.81644e-07
-1.96135e-07
5.42688e-07
-2.97417e-07
-2.64048e-07
5.40838e-07
-3.29555e-07
-2.11996e-07
3.62818e-07
-3.70334e-07
-1.44997e-07
2.97125e-07
-4.43271e-07
1.04515e-07
3.44631e-09
-5.13705e-07
3.54428e-07
-1.44048e-08
-5.20456e-07
9.59956e-07
-1.74405e-07
-6.60302e-07
1.24513e-06
5.1411e-07
-2.01964e-07
1.46857e-06
1.95541e-06
1.43189e-07
3.49735e-06
-5.01574e-06
-5.26948e-07
2.98633e-06
-8.06032e-06
-1.11435e-06
1.85646e-06
-8.87356e-06
-1.61418e-06
-4.408e-08
-3.24002e-06
-2.66918e-06
9.05204e-06
3.93115e-06
-7.54563e-06
1.53463e-05
2.5541e-05
-7.63572e-06
3.39154e-05
-1.05757e-05
1.46974e-05
3.61036e-05
-2.21577e-05
1.03671e-06
-2.53373e-06
-3.82653e-05
3.10689e-06
-1.20826e-05
-1.2056e-05
4.82938e-06
-1.60301e-05
-1.54341e-05
8.10624e-07
-1.47161e-05
-4.20157e-06
6.24552e-08
-1.58349e-05
-2.05515e-06
8.59237e-07
-1.78324e-05
1.47462e-06
1.46952e-06
-2.02634e-05
1.75431e-06
1.8812e-06
-2.25607e-05
2.47823e-06
1.68594e-06
-2.42786e-05
1.69021e-06
1.49507e-06
-2.53881e-05
1.01634e-06
1.11646e-06
-2.58316e-05
-1.62965e-07
8.36126e-07
-2.55391e-05
-1.60619e-06
5.22901e-07
-2.46871e-05
-2.95271e-06
2.61719e-07
-2.33483e-05
-4.123e-06
4.97744e-08
-2.1809e-05
-4.71791e-06
-1.69748e-07
-1.99215e-05
-5.4132e-06
-2.84472e-07
-1.79712e-05
-5.47622e-06
-3.61679e-07
-1.60806e-05
-5.19233e-06
-4.02899e-07
-1.43407e-05
-4.59375e-06
-4.28913e-07
-1.26707e-05
-4.00295e-06
-4.17811e-07
-1.09907e-05
-3.37527e-06
-4.16711e-07
-9.24365e-06
-2.65279e-06
-4.30844e-07
-7.39892e-06
-1.77987e-06
-4.6737e-07
-5.37512e-06
-7.8663e-07
-5.10016e-07
-3.17548e-06
3.58458e-07
-6.05335e-07
-8.61219e-07
1.48012e-06
-7.89249e-07
1.23753e-06
2.84844e-06
-1.03746e-06
2.78114e-06
4.40648e-06
-1.25785e-06
3.48935e-06
6.16e-06
-1.30598e-06
3.19203e-06
7.71408e-06
-1.14507e-06
2.02039e-06
8.6864e-06
-8.77069e-07
1.50021e-07
9.41265e-06
-7.249e-07
-2.10242e-06
9.91312e-06
-8.14446e-07
-3.31994e-06
1.04985e-05
-1.79649e-06
-2.56829e-06
1.23715e-05
-3.97087e-06
1.36927e-05
-6.57912e-06
-5.01594e-06
-4.37845e-06
-3.34169e-07
-3.36884e-06
-5.51247e-06
-1.72899e-06
-3.1965e-06
-3.78065e-06
-2.25269e-07
-2.06522e-06
-3.80095e-06
-1.16218e-06
-1.58447e-06
-2.82829e-06
-4.91279e-07
-1.00385e-06
-2.64591e-06
-5.74898e-07
-4.60292e-07
-1.76962e-06
-7.79476e-08
4.0164e-08
-7.07163e-07
5.23409e-08
3.7451e-07
4.95498e-07
-1.98337e-08
2.83298e-07
1.05298e-06
6.22507e-10
1.68902e-08
1.19367e-06
-8.06736e-08
-3.10051e-07
1.16564e-06
-1.32067e-07
-5.10013e-07
8.98105e-07
-2.05185e-07
-5.60501e-07
6.19488e-07
-2.67635e-07
-4.87925e-07
3.98626e-07
-3.26395e-07
-3.8065e-07
3.36709e-07
-3.59801e-07
-2.80132e-07
3.79483e-07
-3.72822e-07
-2.08215e-07
4.48186e-07
-3.80574e-07
-1.54833e-07
5.21095e-07
-3.8377e-07
-1.16467e-07
5.75829e-07
-3.83932e-07
-8.53129e-08
6.26053e-07
-3.81936e-07
-5.98282e-08
6.65393e-07
-3.77349e-07
-4.06032e-08
6.9962e-07
-3.69797e-07
-2.7858e-08
7.2729e-07
-3.60367e-07
-2.05993e-08
7.48498e-07
-3.50283e-07
-1.73587e-08
7.63439e-07
-3.40771e-07
-1.66708e-08
7.73799e-07
-3.3221e-07
-1.80164e-08
7.82248e-07
-3.24695e-07
-2.06175e-08
7.88909e-07
-3.17953e-07
-2.28787e-08
7.93873e-07
-3.11754e-07
-2.44656e-08
7.97716e-07
-3.06281e-07
-2.39955e-08
8.03194e-07
-3.00482e-07
-2.20248e-08
8.02582e-07
-2.97144e-07
-1.9827e-08
8.1704e-07
-2.8997e-07
-1.43378e-08
8.00762e-07
-2.90891e-07
-1.38547e-08
8.33379e-07
-2.78056e-07
-1.43797e-08
7.9564e-07
-2.79658e-07
-2.43962e-08
8.51722e-07
-2.60259e-07
-5.12129e-08
8.006e-07
-2.5821e-07
-7.57595e-08
8.60177e-07
-2.40451e-07
-1.38893e-07
8.33487e-07
-2.33876e-07
-1.69536e-07
8.51889e-07
-2.28611e-07
-2.40904e-07
8.84642e-07
-2.32923e-07
-2.39755e-07
7.86413e-07
-2.44876e-07
-2.70512e-07
8.64832e-07
-2.92485e-07
-2.00315e-07
6.0497e-07
-3.12337e-07
-1.64372e-07
6.47667e-07
-3.85478e-07
-2.89135e-08
2.87299e-07
-4.18219e-07
-7.23688e-08
3.91336e-07
-3.57264e-07
7.53562e-08
1.13983e-07
-4.24171e-07
8.48073e-08
6.86205e-07
-1.54914e-07
6.29344e-07
1.92389e-06
-2.58299e-07
-3.61732e-06
1.7799e-06
-2.35842e-06
-1.05318e-05
3.70206e-06
-4.90966e-06
-1.51062e-05
3.11294e-06
-7.40434e-06
-1.27808e-05
3.75986e-06
-9.47054e-06
7.56048e-06
-2.66135e-06
-1.27504e-05
3.04611e-05
6.87286e-06
-4.53919e-06
3.70366e-05
-1.40174e-05
2.14011e-05
3.34862e-05
-1.23188e-05
1.98356e-06
-1.37009e-05
-2.81606e-05
4.26185e-06
-2.1918e-05
-7.82128e-06
3.75579e-06
-3.01674e-05
-8.09964e-06
8.97229e-07
-3.3465e-05
-4.68433e-07
-4.44147e-07
-3.71567e-05
1.30559e-06
3.35066e-07
-3.92293e-05
3.10777e-06
4.45721e-07
-4.11495e-05
3.15178e-06
5.22262e-07
-4.23938e-05
3.29621e-06
4.17525e-07
-4.33134e-05
2.302e-06
2.88391e-07
-4.37521e-05
1.39484e-06
6.92959e-08
-4.37224e-05
-1.05792e-07
-6.26521e-08
-4.32901e-05
-1.75205e-06
-2.85985e-07
-4.22092e-05
-3.63309e-06
-4.2374e-07
-4.00952e-05
-5.72639e-06
-5.41623e-07
-3.82911e-05
-5.74386e-06
-7.98671e-07
-3.58091e-05
-7.07387e-06
-8.30516e-07
-3.27385e-05
-7.59291e-06
-9.64588e-07
-2.94038e-05
-7.35723e-06
-1.18425e-06
-2.62169e-05
-6.32018e-06
-1.46798e-06
-2.32678e-05
-5.1944e-06
-1.76161e-06
-2.03096e-05
-4.25028e-06
-2.08519e-06
-1.73112e-05
-3.23895e-06
-2.41344e-06
-1.42393e-05
-2.0801e-06
-2.77228e-06
-1.09931e-05
-8.69688e-07
-3.16345e-06
-7.62045e-06
5.69495e-07
-3.58382e-06
-4.37848e-06
2.26699e-06
-4.02891e-06
-1.43755e-06
4.29275e-06
-4.38526e-06
9.75881e-07
6.37597e-06
-4.38293e-06
2.63288e-06
8.32802e-06
-3.82502e-06
2.95145e-06
1.02544e-05
-2.85893e-06
2.23581e-06
1.12025e-05
-1.80046e-06
1.04001e-06
1.18517e-05
-1.2433e-06
-5.18841e-07
1.2615e-05
-1.14301e-06
-1.83778e-06
1.36459e-05
-1.82855e-06
-1.78719e-06
1.61549e-05
-3.83397e-06
1.79972e-05
-6.09168e-06
-5.49686e-06
-3.48608e-06
-2.18844e-07
-3.70304e-06
-5.14982e-06
-2.15634e-06
-3.38659e-06
-3.10492e-06
-9.85727e-07
-1.93677e-06
-3.26513e-06
-1.98008e-06
-1.11861e-06
-2.19091e-06
-1.44948e-06
-6.6569e-07
-2.00302e-06
-1.08968e-06
-3.41498e-07
-1.48134e-06
-6.05912e-07
-1.37158e-08
-7.88495e-07
-2.39267e-07
3.56908e-07
2.77845e-07
-1.47387e-07
4.08085e-07
1.0452e-06
-4.1308e-08
2.37499e-07
1.41109e-06
-4.64557e-08
-1.24998e-07
1.57108e-06
-4.2669e-08
-3.93466e-07
1.30261e-06
-1.35891e-07
-4.71389e-07
9.40127e-07
-2.42735e-07
-4.08588e-07
6.77935e-07
-3.4224e-07
-3.25494e-07
6.37011e-07
-3.83476e-07
-2.4336e-07
6.92595e-07
-3.95376e-07
-1.96889e-07
7.89528e-07
-3.87948e-07
-1.67754e-07
8.72816e-07
-3.81005e-07
-1.51814e-07
9.32724e-07
-3.73011e-07
-1.4023e-07
9.81059e-07
-3.66749e-07
-1.31522e-07
1.01582e-06
-3.59306e-07
-1.26026e-07
1.04375e-06
-3.49779e-07
-1.23317e-07
1.06357e-06
-3.39146e-07
-1.22138e-07
1.07525e-06
-3.28081e-07
-1.22021e-07
1.08032e-06
-3.17146e-07
-1.22652e-07
1.08097e-06
-3.0667e-07
-1.24911e-07
1.07963e-06
-2.9526e-07
-1.27639e-07
1.07686e-06
-2.85341e-07
-1.29796e-07
1.0723e-06
-2.7639e-07
-1.31714e-07
1.06739e-06
-2.67848e-07
-1.30896e-07
1.06275e-06
-2.60498e-07
-1.32063e-07
1.05729e-06
-2.53576e-07
-1.31166e-07
1.0621e-06
-2.46123e-07
-1.37863e-07
1.04864e-06
-2.4115e-07
-1.39381e-07
1.0666e-06
-2.3193e-07
-1.6041e-07
1.04233e-06
-2.25566e-07
-1.69828e-07
1.07507e-06
-2.14214e-07
-2.14259e-07
1.04895e-06
-2.03739e-07
-2.30052e-07
1.0712e-06
-1.95572e-07
-2.78173e-07
1.0689e-06
-1.86989e-07
-2.72309e-07
1.03236e-06
-1.86755e-07
-2.64961e-07
1.07453e-06
-1.96862e-07
-2.0208e-07
9.20052e-07
-1.97032e-07
-1.63077e-07
1.04961e-06
-2.23282e-07
-5.72422e-08
7.2976e-07
-2.31233e-07
-1.45523e-08
8.51059e-07
-2.45034e-07
1.21377e-07
4.09265e-07
-2.57408e-07
7.31039e-08
5.90122e-07
-1.4654e-07
1.02778e-07
2.84208e-07
-1.90426e-07
9.95644e-08
7.78594e-07
-8.02559e-08
8.3642e-07
1.76351e-06
-3.53387e-07
-1.41407e-06
6.81599e-06
-2.49009e-06
-6.40157e-06
1.38846e-05
-5.18294e-06
-8.01562e-06
1.25187e-05
-7.82071e-06
-5.11749e-06
9.50819e-06
-8.80677e-06
6.56635e-06
-1.33254e-06
-1.24385e-05
3.34346e-05
-1.0768e-05
-9.69228e-06
3.67981e-05
-1.22674e-05
2.0739e-05
3.04123e-05
-4.38546e-06
2.42162e-06
-2.57186e-05
-8.30435e-06
5.11446e-06
-3.89402e-05
1.55381e-06
3.64302e-06
-4.94507e-05
2.30693e-06
1.92523e-08
-5.44752e-05
4.43896e-06
-4.55781e-08
-5.74237e-05
4.67421e-06
-3.98317e-07
-5.87429e-05
4.94058e-06
-3.34271e-07
-5.96804e-05
4.38078e-06
-3.41263e-07
-5.99332e-05
3.82451e-06
-3.3331e-07
-5.96741e-05
2.4888e-06
-3.19071e-07
-5.88288e-05
1.04634e-06
-3.21191e-07
-5.75124e-05
-1.00218e-06
-3.94379e-07
-5.62715e-05
-2.6904e-06
-3.80041e-07
-5.53594e-05
-4.46485e-06
-2.53716e-07
-5.57917e-05
-5.78689e-06
1.80086e-08
-5.29601e-05
-8.22512e-06
-5.69575e-07
-5.08488e-05
-8.72861e-06
-1.58808e-07
-4.89742e-05
-9.22661e-06
-1.13064e-07
-4.67703e-05
-9.38673e-06
-2.75016e-07
-4.3976e-05
-8.57117e-06
-6.16653e-07
-4.09432e-05
-7.16689e-06
-1.14404e-06
-3.72986e-05
-6.38333e-06
-1.5813e-06
-3.32197e-05
-5.38126e-06
-2.01027e-06
-2.87109e-05
-4.15438e-06
-2.49606e-06
-2.37814e-05
-2.88515e-06
-2.96007e-06
-1.85786e-05
-1.26305e-06
-3.40762e-06
-1.31907e-05
6.887e-07
-3.83783e-06
-8.1371e-06
3.30189e-06
-4.08093e-06
-3.86775e-06
5.91235e-06
-3.81933e-06
-8.80477e-07
8.30167e-06
-2.9636e-06
3.10094e-07
1.06582e-05
-1.59741e-06
3.75552e-07
1.20578e-05
-9.23949e-07
3.74846e-08
1.29809e-05
-7.9697e-07
-5.58405e-07
1.39653e-05
-7.62257e-07
-1.07429e-06
1.54195e-05
-1.27096e-06
-4.15299e-07
1.87807e-05
-3.2946e-06
2.33242e-05
-5.74622e-06
-5.49741e-06
-2.86675e-06
1.04656e-06
-3.98103e-06
-4.79669e-06
-1.87324e-06
-3.79116e-06
-2.03392e-06
-1.25574e-06
-2.31506e-06
-2.49883e-06
-2.23634e-06
-1.25343e-06
-1.39153e-06
-1.85294e-06
-5.36747e-07
-1.27326e-06
-1.43857e-06
-2.0673e-07
-8.19392e-07
-9.84969e-07
-5.81306e-08
-4.9637e-07
-4.35058e-07
1.79986e-07
2.22095e-07
-1.77226e-07
2.80155e-07
9.95804e-07
-4.68019e-08
3.1685e-07
1.40488e-06
-2.85178e-08
2.19418e-07
1.66325e-06
5.82841e-09
1.10786e-07
1.56698e-06
-1.55534e-07
2.62128e-08
1.31476e-06
-2.89909e-07
-2.47167e-08
1.14132e-06
-4.12218e-07
-8.30847e-08
1.16538e-06
-4.69797e-07
-1.33053e-07
1.25352e-06
-5.10744e-07
-1.80561e-07
1.35951e-06
-5.22285e-07
-2.23895e-07
1.44815e-06
-5.31807e-07
-2.53607e-07
1.49906e-06
-5.36493e-07
-2.67876e-07
1.53199e-06
-5.36572e-07
-2.73854e-07
1.55573e-06
-5.33882e-07
-2.74738e-07
1.57457e-06
-5.29921e-07
-2.73503e-07
1.58778e-06
-5.25472e-07
-2.70715e-07
1.59432e-06
-5.21912e-07
-2.67904e-07
1.59607e-06
-5.18638e-07
-2.66598e-07
1.59467e-06
-5.15121e-07
-2.6688e-07
1.59126e-06
-5.11486e-07
-2.6912e-07
1.58663e-06
-5.07714e-07
-2.72039e-07
1.57964e-06
-5.04632e-07
-2.74425e-07
1.57145e-06
-5.01906e-07
-2.73427e-07
1.56131e-06
-4.99843e-07
-2.75333e-07
1.55483e-06
-4.95878e-07
-2.77612e-07
1.55639e-06
-4.92378e-07
-2.95518e-07
1.55339e-06
-4.87024e-07
-3.03595e-07
1.55838e-06
-4.84174e-07
-3.40781e-07
1.55455e-06
-4.75158e-07
-3.51476e-07
1.55804e-06
-4.72897e-07
-4.01275e-07
1.55865e-06
-4.59959e-07
-3.98967e-07
1.53113e-06
-4.62994e-07
-4.16609e-07
1.54214e-06
-4.55596e-07
-3.78729e-07
1.45875e-06
-4.65097e-07
-2.9711e-07
1.47191e-06
-4.78881e-07
-1.92336e-07
1.30707e-06
-4.92664e-07
-6.26459e-08
1.40883e-06
-4.88832e-07
7.17596e-08
1.12384e-06
-5.29245e-07
1.50741e-07
1.25384e-06
-4.81853e-07
3.56645e-07
7.57871e-07
-5.54224e-07
3.27915e-07
1.00039e-06
-3.78777e-07
7.11204e-07
2.78623e-07
-3.70273e-07
1.03645e-06
8.2892e-07
-3.71183e-07
2.64116e-06
4.51088e-07
-1.41078e-07
4.64881e-06
6.64742e-06
-1.49344e-06
3.81036e-06
1.86222e-05
-3.79436e-06
4.77587e-06
1.80478e-05
-6.45342e-06
1.06538e-05
1.30714e-05
-9.48162e-06
1.41725e-05
7.65161e-06
-1.19376e-05
3.38516e-05
-1.83716e-05
-1.1562e-05
4.13649e-05
-1.13131e-05
2.15823e-05
2.93742e-05
4.84222e-06
2.93784e-06
-3.98873e-05
2.02809e-05
7.6033e-06
-5.55163e-05
1.3139e-05
3.81036e-06
-6.49693e-05
1.24203e-05
-6.70926e-07
-6.98288e-05
1.04164e-05
-1.13981e-06
-7.23421e-05
8.86259e-06
-1.75505e-06
-7.31803e-05
7.45215e-06
-1.7302e-06
-7.2914e-05
6.114e-06
-1.99491e-06
-7.17737e-05
4.61202e-06
-1.95863e-06
-7.00915e-05
2.87005e-06
-2.09345e-06
-6.80102e-05
1.02063e-06
-2.07195e-06
-6.59338e-05
-9.72419e-07
-2.18705e-06
-6.38586e-05
-2.84847e-06
-2.05946e-06
-6.21267e-05
-4.58328e-06
-1.77392e-06
-6.0633e-05
-6.16614e-06
-1.24703e-06
-6.0517e-05
-7.57446e-06
-9.10258e-07
-6.04827e-05
-8.45313e-06
-3.23158e-07
-6.08651e-05
-8.96325e-06
1.59929e-07
-6.15553e-05
-9.01468e-06
5.49814e-07
-6.19148e-05
-8.35403e-06
3.96297e-07
-6.13014e-05
-7.84672e-06
-9.14131e-08
-6.03364e-05
-7.1698e-06
-3.83188e-07
-5.86606e-05
-6.61234e-06
-6.49337e-07
-5.62089e-05
-5.86015e-06
-9.15807e-07
-5.28952e-05
-5.03758e-06
-1.13682e-06
-4.8799e-05
-3.75768e-06
-1.40324e-06
-4.35549e-05
-2.40249e-06
-1.94206e-06
-3.7196e-05
-9.36149e-07
-2.25689e-06
-3.09498e-05
1.07411e-06
-1.72346e-06
-2.59358e-05
3.86527e-06
-6.6331e-07
-2.25757e-05
7.33098e-06
4.25223e-08
-2.069e-05
1.01107e-05
2.19029e-07
-1.91196e-05
1.18606e-05
-2.14848e-07
-1.76351e-05
1.34477e-05
-8.18084e-07
-1.49612e-05
1.50412e-05
-2.21501e-06
-9.21825e-06
1.7622e-05
-4.87824e-06
1.85707e-05
-7.44238e-06
-4.88651e-06
-9.7578e-07
3.16271e-06
-3.72994e-06
-4.46749e-06
-1.492e-06
-4.0206e-06
-9.39476e-07
-7.9851e-07
-2.93161e-06
-2.03253e-06
-1.55208e-06
-2.0317e-06
-9.31919e-07
-1.35054e-06
-9.8763e-07
-1.07446e-06
-1.23352e-06
-4.67705e-07
-5.16214e-07
-8.15424e-07
-2.43793e-07
-2.93147e-07
-4.21695e-07
-3.15404e-08
1.63143e-07
-1.49799e-07
1.05028e-07
8.76213e-07
-1.40403e-08
3.05504e-07
1.15053e-06
5.66543e-08
4.63339e-07
1.26331e-06
2.43419e-07
4.93972e-07
1.2771e-06
2.59971e-07
3.90405e-07
1.181e-06
2.37685e-07
2.30183e-07