/*--------------------------------*- C++ -*----------------------------------*\
| =========                 |                                                 |
| \\      /  F ield         | OpenFOAM: The Open Source CFD Toolbox           |
|  \\    /   O peration     | Version:  2.3.0                                 |
|   \\  /    A nd           | Web:      www.OpenFOAM.org                      |
|    \\/     M anipulation  |                                                 |
\*---------------------------------------------------------------------------*/
FoamFile
{
    version     2.0;
    format      ascii;
    class       volVectorField;
    location    "25";
    object      U.waterMean;
}
// * * * * * * * * * * * * * * * * * * * * * * * * * * * * * * * * * * * * * //

dimensions      [0 1 -1 0 0 0 0];

internalField   nonuniform List<vector> 
6144
(
(0.00832564 0.0195959 -0.00115057)
(0.00850813 0.00329814 -0.00151384)
(0.00480628 0.00115546 -0.00214274)
(0.00472538 -0.0012589 -0.00215066)
(0.00303667 -0.00267961 -0.00170361)
(0.00293813 -0.00208048 -0.00143155)
(0.00236475 -0.00229422 -0.00116114)
(0.00245424 -0.00126235 -0.00106683)
(0.00238178 -0.000675429 -0.00124229)
(0.00241746 0.000488433 -0.00110509)
(0.00241369 0.0012018 -0.000972226)
(0.00256424 0.00172049 -0.000705006)
(0.00269083 0.00159635 -0.000638119)
(0.00281957 0.00130266 -0.000566801)
(0.00287045 0.000818297 -0.000707169)
(0.00292278 0.000468223 -0.000806967)
(0.00294381 0.000129702 -0.000956397)
(0.00296776 -6.28979e-05 -0.00104595)
(0.00298043 -0.00023841 -0.00113739)
(0.00298846 -0.000329696 -0.00118641)
(0.00298929 -0.000408897 -0.00122074)
(0.00298636 -0.000445033 -0.00123447)
(0.00297978 -0.000473798 -0.00123841)
(0.00297156 -0.000484402 -0.00123189)
(0.00296136 -0.000490878 -0.00121841)
(0.00295 -0.000492196 -0.00119919)
(0.00293748 -0.000490587 -0.00117634)
(0.00292386 -0.000489564 -0.00115072)
(0.00290986 -0.000479407 -0.00112234)
(0.00289378 -0.000486043 -0.00109034)
(0.00287941 -0.000458815 -0.00105311)
(0.00285797 -0.00050948 -0.00100549)
(0.00284049 -0.000454736 -0.000943556)
(0.00280999 -0.00061882 -0.000862932)
(0.00279062 -0.000540028 -0.000757211)
(0.00275264 -0.000939554 -0.00063107)
(0.00273855 -0.000866034 -0.000485264)
(0.00270391 -0.00163897 -0.000349777)
(0.00270604 -0.00155392 -0.000248511)
(0.00269397 -0.00270384 -0.000245104)
(0.00270853 -0.00238704 -0.000383736)
(0.00271998 -0.00357956 -0.000741918)
(0.0027377 -0.00238647 -0.00125589)
(0.00282058 -0.00297182 -0.00178463)
(0.00296996 -0.000386802 -0.002189)
(0.00341221 -0.00119487 -0.00237823)
(0.00406952 0.000738721 -0.00284252)
(0.00396375 -0.00128698 -0.00374757)
(0.00243324 0.00488268 -0.00501286)
(0.00347063 0.00778401 -0.00723295)
(0.00917818 0.0175913 -0.00948238)
(0.0183478 0.00739643 -0.00980899)
(0.0279325 0.00371227 -0.0109679)
(0.0319651 -0.0351546 -0.011394)
(0.0328921 -0.03091 -0.0151216)
(0.0318988 -0.0793114 -0.0110322)
(0.0167282 -0.0396027 -0.0226847)
(0.0145219 -0.0947152 0.0134418)
(-0.0270625 0.00610518 -0.05385)
(0.0221535 -0.0365344 0.0377912)
(0.129805 -0.290127 0.0697853)
(0.0898823 -0.111132 0.033771)
(0.0597246 -0.186354 0.0120563)
(0.0487445 -0.187825 0.00706434)
(0.0391717 -0.192381 0.00639731)
(0.0324809 -0.180527 0.00599154)
(0.0264967 -0.182986 0.00504047)
(0.0218815 -0.174758 0.00417766)
(0.0188752 -0.174767 0.00403131)
(0.0169972 -0.167094 0.0042192)
(0.0158118 -0.165632 0.00473473)
(0.0146398 -0.15927 0.00483479)
(0.0129386 -0.155077 0.00513188)
(0.0103268 -0.14729 0.00492414)
(0.00654737 -0.138721 0.00479386)
(0.00389772 -0.126893 0.00407012)
(0.00264587 -0.115503 0.00269461)
(0.00100278 -0.103077 0.00134167)
(-0.000955757 -0.0883394 0.001013)
(0.000153098 -0.0728057 0.000922905)
(0.00338854 -0.0602921 0.000662433)
(0.00559317 -0.0500655 0.000727792)
(0.00633548 -0.0435467 0.00231969)
(0.00508438 -0.039601 0.0028864)
(0.00415715 -0.0343617 0.00228858)
(0.00341784 -0.0286823 0.00155091)
(0.00252795 -0.0221191 0.00114003)
(0.00149627 -0.0140922 0.000167182)
(4.02213e-05 -0.00599694 -0.000955261)
(-0.001118 0.00448361 -0.00263508)
(0.000746166 0.0139839 -0.00292256)
(0.00244293 0.0201999 -0.00197005)
(0.00317218 0.0240942 0.00110752)
(0.00414598 0.0240422 0.00514324)
(0.00646754 0.0187981 0.00804325)
(0.00840938 0.00830847 0.0107891)
(0.0168738 0.0224336 0.00251817)
(0.0176331 0.0104586 0.00226988)
(0.0106335 0.00744169 0.00046693)
(0.0108873 0.00490313 0.00118229)
(0.00660201 0.00139105 0.00156648)
(0.00631191 0.00102089 0.00183893)
(0.00445607 -0.000484993 0.00209788)
(0.00443999 0.000548711 0.00185905)
(0.00411117 0.000919321 0.00161119)
(0.0043238 0.00207549 0.00161829)
(0.00444838 0.00250208 0.00164805)
(0.00493421 0.0028716 0.00196078)
(0.00522901 0.00252236 0.00207534)
(0.00554428 0.00217322 0.00218445)
(0.00561506 0.00156581 0.00211039)
(0.00571545 0.00113463 0.00206308)
(0.00571421 0.000690893 0.00196561)
(0.00574665 0.00043212 0.00191426)
(0.00574936 0.000190776 0.00184253)
(0.0057538 5.85959e-05 0.00181422)
(0.00574128 -5.63152e-05 0.00179474)
(0.00572486 -0.000114323 0.0017979)
(0.00570147 -0.000159951 0.00180973)
(0.00567547 -0.000180706 0.00183341)
(0.00564677 -0.00019445 0.00186272)
(0.00561647 -0.000199956 0.001897)
(0.00558448 -0.000201572 0.00193412)
(0.00555012 -0.000203216 0.00197398)
(0.00551454 -0.000197055 0.0020162)
(0.00547595 -0.000208209 0.00205727)
(0.00544344 -0.00018826 0.00209765)
(0.00539789 -0.000256888 0.00214295)
(0.00536989 -0.000214388 0.00219628)
(0.00531736 -0.000422449 0.00225623)
(0.00531038 -0.000353425 0.00233231)
(0.00526518 -0.000829735 0.00241329)
(0.00530199 -0.000735362 0.00250845)
(0.00528087 -0.00161 0.0025885)
(0.00536441 -0.00142607 0.00264997)
(0.00535926 -0.00270828 0.00263358)
(0.00541184 -0.0021963 0.00251458)
(0.00536635 -0.0035927 0.00215057)
(0.00535419 -0.00214318 0.00148429)
(0.0052251 -0.00309192 0.000729619)
(0.00540546 -0.000309135 0.000248558)
(0.0062715 -0.00170411 8.05985e-05)
(0.00680365 0.00101294 -0.00079336)
(0.00540645 0.00110606 -0.00212238)
(0.00364635 0.00827419 -0.00268296)
(0.00600677 0.00625858 -0.00331749)
(0.0191276 0.00877142 -0.00350398)
(0.0338067 -0.00961686 -0.00222398)
(0.0527774 -0.0134067 0.000732641)
(0.0607797 -0.0497233 0.00335322)
(0.058187 -0.0423384 0.0048326)
(0.0591371 -0.0997063 0.0126949)
(0.0228435 -0.0594901 0.00853773)
(0.0145973 -0.167916 0.0393707)
(-0.0716195 0.0226969 -0.0850396)
(0.00760648 -0.0810959 0.0135376)
(0.16473 -0.264261 0.111949)
(0.0834039 0.00200816 0.0457105)
(0.0212411 -0.113429 0.0115541)
(0.0215722 -0.0469331 0.0137816)
(0.0105818 -0.0700578 0.0134007)
(0.00428466 -0.0513209 0.0111837)
(0.00179758 -0.0556191 0.00920096)
(0.00253534 -0.048133 0.00978525)
(0.00423886 -0.0501095 0.0107941)
(0.00407977 -0.0464566 0.0098881)
(0.00274348 -0.0494945 0.010771)
(0.000791799 -0.0488863 0.0114467)
(-0.00124743 -0.0528107 0.011332)
(-0.00383459 -0.0537394 0.00929675)
(-0.00572534 -0.0546785 0.00693381)
(-0.00580401 -0.0527792 0.00596129)
(-0.00529108 -0.0501406 0.00452745)
(-0.0072632 -0.0444614 0.00475281)
(-0.00881603 -0.0376471 0.00447561)
(-0.0065522 -0.0304808 0.00498909)
(-0.00392894 -0.023962 0.00502122)
(-0.00154612 -0.0170073 0.00653253)
(0.000122804 -0.0148608 0.00935901)
(-0.000688828 -0.0150362 0.0101932)
(-0.00255726 -0.0140222 0.00935066)
(-0.00313418 -0.0127409 0.0092904)
(-0.00343616 -0.0104402 0.00865034)
(-0.00370143 -0.00665312 0.00705702)
(-0.00324043 -0.00326361 0.00519007)
(-0.00273514 0.000328388 0.0026699)
(-0.00099625 0.00382375 0.000677761)
(0.0015719 0.0078015 -0.00125582)
(0.00291648 0.0138163 0.000555615)
(0.00499744 0.0155575 0.00626357)
(0.00757849 0.0125441 0.0111651)
(0.00977115 0.00471471 0.0147673)
(0.0202776 0.0223029 0.00362864)
(0.0219571 0.0135549 0.00347315)
(0.0136399 0.00991087 0.00126571)
(0.0144496 0.00900116 0.0020123)
(0.00843168 0.00445857 0.0023272)
(0.00775527 0.0037228 0.002771)
(0.00434809 0.00108711 0.00333192)
(0.00412284 0.00186697 0.00321953)
(0.00352216 0.00186705 0.00307011)
(0.00398762 0.00283237 0.00311832)
(0.0041305 0.00281099 0.003097)
(0.00488782 0.00308365 0.00333433)
(0.0052332 0.00265249 0.00343655)
(0.00564864 0.00243055 0.0035524)
(0.00571332 0.00187464 0.00352127)
(0.00582249 0.00150371 0.00352231)
(0.00575346 0.00104874 0.00348298)
(0.00575165 0.000775915 0.00348415)
(0.00568139 0.000500071 0.00347914)
(0.00564257 0.000348297 0.0034981)
(0.0055808 0.000209483 0.00351592)
(0.00552979 0.000135966 0.00354486)
(0.00547429 7.75836e-05 0.00357384)
(0.00542286 4.8662e-05 0.00360739)
(0.00537203 2.9511e-05 0.0036417)
(0.00532339 2.08399e-05 0.00367728)
(0.00527538 1.61078e-05 0.00371287)
(0.00522691 1.03491e-05 0.00374881)
(0.00517873 7.06998e-06 0.00378506)
(0.00512771 -1.72235e-05 0.00382222)
(0.00508268 -1.90395e-05 0.00386113)
(0.00502557 -0.000104711 0.0039017)
(0.00499379 -9.17853e-05 0.00394601)
(0.0049342 -0.000309338 0.00399159)
(0.00493975 -0.000253261 0.00404415)
(0.00489872 -0.000689312 0.00409344)
(0.0049719 -0.000533998 0.00414828)
(0.00496352 -0.00125286 0.00418408)
(0.00510539 -0.000866451 0.00420456)
(0.00512177 -0.00184226 0.00416594)
(0.00526755 -0.000997641 0.00405625)
(0.00519561 -0.002147 0.00383118)
(0.00512914 -0.000601186 0.00347269)
(0.00495348 -0.00183952 0.00301186)
(0.00527058 0.000394861 0.00261234)
(0.00616433 -0.00144394 0.00229209)
(0.00631114 0.00180999 0.00134436)
(0.00501703 0.000926828 -1.81799e-05)
(0.00486554 0.00650988 -0.000347179)
(0.0120685 -0.000735581 -0.000250632)
(0.0313697 -0.00110023 0.00107135)
(0.0536392 -0.0200126 0.00315589)
(0.0722413 -0.018203 0.007581)
(0.0817244 -0.0452681 0.00905616)
(0.0799961 -0.0276064 0.0168541)
(0.0849908 -0.0901812 0.0273941)
(0.0370771 -0.0354228 0.0357456)
(0.0423993 -0.191554 0.0732831)
(-0.0808921 0.0642137 -0.0657263)
(0.0243196 -0.118386 -0.0167304)
(0.187738 -0.24116 0.120701)
(0.10047 0.0514632 0.0528291)
(0.0628001 -0.0917961 0.0305529)
(0.0405896 -0.000929346 0.0141271)
(0.0250051 -0.03192 0.0129127)
(0.0151363 -0.00648811 0.012353)
(0.0150819 -0.0153316 0.0139363)
(0.0126573 -0.00739861 0.0124403)
(0.0135758 -0.00801111 0.0110488)
(0.0132167 -0.00413649 0.0110984)
(0.0111576 -0.00982928 0.0114281)
(0.00825753 -0.0110759 0.0114871)
(0.00538517 -0.0163412 0.0101679)
(0.00269702 -0.0165788 0.0083142)
(0.000182393 -0.0170935 0.00625207)
(-0.00256197 -0.0145601 0.00513548)
(-0.00547208 -0.0121173 0.00576118)
(-0.00789148 -0.0102535 0.00668233)
(-0.00902101 -0.00917704 0.00651458)
(-0.0077317 -0.0072122 0.00642504)
(-0.00548512 -0.00366113 0.00568562)
(-0.00265683 -0.000595493 0.0078186)
(-0.000649536 7.32065e-05 0.0124794)
(-0.00395088 -0.000752227 0.0135347)
(-0.00748878 -0.00212096 0.0128313)
(-0.00947771 -0.00241271 0.0128146)
(-0.00981452 -0.000563525 0.011262)
(-0.0090871 0.00171187 0.00820595)
(-0.00717819 0.00471652 0.00631603)
(-0.00437069 0.00647037 0.00443612)
(-0.00108417 0.00808708 0.00348271)
(0.000213124 0.0089911 0.00349724)
(0.00219868 0.0112221 0.00515594)
(0.004944 0.0109362 0.0091957)
(0.00661305 0.00796155 0.013622)
(0.0068357 0.000782195 0.0166736)
(0.0215985 0.0221761 0.00392462)
(0.0250778 0.0155098 0.00398516)
(0.015168 0.0105441 0.000848492)
(0.0175933 0.0114791 0.00122908)
(0.0109547 0.00614333 0.0010985)
(0.0104217 0.00604968 0.00174663)
(0.00479641 0.0016512 0.00269168)
(0.00380529 0.0021439 0.0028258)
(0.00250477 0.00144657 0.00300203)
(0.0032743 0.00277021 0.00319382)
(0.00342685 0.00247926 0.00325774)
(0.00419662 0.00287759 0.00363625)
(0.00446108 0.00251519 0.00381065)
(0.00487602 0.00249979 0.00396979)
(0.00492779 0.00202569 0.00394627)
(0.00504167 0.00175541 0.00395934)
(0.00494367 0.00130234 0.00392869)
(0.00492846 0.00103772 0.00394275)
(0.0048248 0.000734462 0.00394743)
(0.0047659 0.000564618 0.00397659)
(0.00468064 0.0004024 0.00400324)
(0.00461084 0.000315423 0.0040402)
(0.00453605 0.00024448 0.00407537)
(0.00446889 0.000208089 0.00411327)
(0.00440469 0.000183801 0.00415049)
(0.00434467 0.000172594 0.00418808)
(0.0042877 0.000165485 0.00422514)
(0.00423293 0.000157967 0.0042616)
(0.00418073 0.000149849 0.00429736)
(0.00413031 0.000122124 0.00433297)
(0.00408968 0.000109355 0.00436926)
(0.0040423 2.21491e-05 0.00440667)
(0.00402613 2.49392e-05 0.00444502)
(0.00398551 -0.000175033 0.00448142)
(0.00401967 -0.000103518 0.00451659)
(0.00399497 -0.000471123 0.00454116)
(0.0040974 -0.00023465 0.00455671)
(0.00408186 -0.000796483 0.00454219)
(0.00423425 -0.000215592 0.00449892)
(0.00421884 -0.000919377 0.00440392)
(0.00441783 0.000230244 0.00426492)
(0.00443186 -0.000700306 0.00409248)
(0.00461126 0.000826389 0.0039119)
(0.00446898 -0.000869039 0.00377417)
(0.00455022 0.000906085 0.00374681)
(0.00502065 -0.00132015 0.00360836)
(0.00549443 0.00185623 0.00285096)
(0.00493301 -0.000445657 0.00186968)
(0.00711785 0.00241158 0.00199085)
(0.0164048 -0.00782447 0.00155907)
(0.03798 -0.00932513 0.00387454)
(0.0613998 -0.0200142 0.0104965)
(0.0781714 -0.00851234 0.0171243)
(0.0866016 -0.0233981 0.0202293)
(0.0845247 0.00998675 0.0348596)
(0.0875392 -0.058488 0.0483035)
(0.0396225 0.0388217 0.0918974)
(0.0660889 -0.206533 0.128397)
(-0.100031 0.183277 -0.031978)
(0.0238059 -0.204901 0.00825321)
(0.166248 -0.206515 0.130332)
(0.0699538 0.0762346 0.0413833)
(0.0373161 -0.05623 0.0294857)
(0.00341619 0.0458375 0.00162081)
(0.00258119 0.0184865 0.0079545)
(-0.00159356 0.0436069 0.00866388)
(0.000902711 0.0365503 0.0100299)
(0.000784246 0.0448248 0.00932329)
(0.00367543 0.0406643 0.0080006)
(0.00465952 0.0444466 0.00708519)
(0.00413028 0.0391416 0.00715389)
(0.00278458 0.0388577 0.00593763)
(0.000817298 0.0354529 0.00430767)
(-0.00214941 0.0355572 0.00319267)
(-0.00367792 0.0350015 0.00289452)
(-0.00572022 0.0333279 0.00403109)
(-0.00801721 0.0293515 0.00518681)
(-0.00990338 0.0257657 0.00669481)
(-0.0108169 0.0222664 0.00720572)
(-0.0102486 0.0225844 0.00693338)
(-0.0090373 0.0233045 0.00894528)
(-0.00935155 0.0246986 0.0106396)
(-0.0103643 0.0242655 0.0131961)
(-0.0118187 0.0215121 0.0137757)
(-0.0151188 0.0189891 0.0130417)
(-0.0176214 0.0169604 0.0124589)
(-0.0170887 0.0170025 0.00964296)
(-0.0139676 0.0173218 0.00696955)
(-0.00996796 0.0166879 0.00524625)
(-0.00616917 0.0163807 0.00374106)
(-0.00357718 0.0168767 0.00443804)
(-0.00195205 0.015355 0.00593183)
(-0.000192477 0.0141569 0.00822892)
(0.00223034 0.0109718 0.0126477)
(0.00183817 0.00711507 0.0158896)
(0.000101365 -0.000178962 0.0173533)
(0.0215325 0.0221453 0.00447205)
(0.0271497 0.0178742 0.00496692)
(0.0158889 0.0106334 0.000791922)
(0.019788 0.0131041 0.00129791)
(0.0130428 0.00633685 5.69553e-05)
(0.0135448 0.00774179 0.000486363)
(0.00668033 0.00236093 0.00084741)
(0.00466698 0.00289109 0.00167068)
(0.00161134 0.000531561 0.00225817)
(0.0020181 0.00193666 0.00275123)
(0.00205925 0.00142491 0.00294365)
(0.00270051 0.00218279 0.00356787)
(0.00276276 0.00201976 0.00381231)
(0.00313881 0.00228897 0.00403571)
(0.00315832 0.00194043 0.00399987)
(0.00324091 0.0017896 0.00403308)
(0.00307666 0.00137221 0.00399901)
(0.00299394 0.0011516 0.0040187)
(0.00281883 0.000853449 0.00401321)
(0.00270562 0.000691868 0.00403182)
(0.00257071 0.000518529 0.00404078)
(0.00246481 0.00042037 0.00406163)
(0.00236234 0.000336899 0.0040805)
(0.0022765 0.000291709 0.00410427)
(0.00220025 0.000259617 0.00412804)
(0.00213337 0.000242047 0.00415325)
(0.00207309 0.000230322 0.00417804)
(0.00201935 0.000219688 0.00420309)
(0.00197187 0.000207081 0.00422849)
(0.00192964 0.000178511 0.00425349)
(0.00189786 0.00016169 0.00427777)
(0.00186201 8.51866e-05 0.00430024)
(0.00185503 9.41527e-05 0.00432147)
(0.00182421 -6.58437e-05 0.00433665)
(0.00187116 4.12119e-05 0.00434763)
(0.00185907 -0.000235184 0.00433935)
(0.00198028 8.76795e-05 0.00431339)
(0.00195815 -0.00031352 0.00423938)
(0.00211182 0.00041507 0.00412953)
(0.00206256 -8.68538e-05 0.00396838)
(0.00234776 0.00118788 0.00381774)
(0.00253673 0.000333318 0.00373443)
(0.00306351 0.00176109 0.0037328)
(0.00309879 -0.000214299 0.0038166)
(0.0031934 0.00122452 0.00395752)
(0.00346093 -0.001366 0.00396917)
(0.00407364 0.00154849 0.00370659)
(0.00482078 -0.00153308 0.00378281)
(0.00924687 -0.000671638 0.00427767)
(0.021169 -0.0128084 0.00423231)
(0.0399468 -0.0106024 0.0086441)
(0.0589831 -0.010888 0.0201408)
(0.0720661 0.0116912 0.0266291)
(0.0769206 0.00608051 0.0290942)
(0.0721877 0.0454775 0.0503875)
(0.07074 -0.0131364 0.0626804)
(0.0473114 0.109351 0.109389)
(0.075668 -0.156003 0.128554)
(-0.0791933 0.309911 -0.00412502)
(0.0172119 -0.265856 0.0176202)
(0.143385 -0.172602 0.132444)
(0.0490829 0.0906704 0.0332817)
(0.0366242 -0.0134713 0.0283183)
(0.00309132 0.0749051 -0.00273699)
(0.00982509 0.0564247 0.00576701)
(0.00339619 0.0788968 0.00660576)
(0.00553282 0.0745163 0.00893138)
(0.00463078 0.0831784 0.00749439)
(0.00692671 0.0801423 0.00637747)
(0.00788025 0.0846908 0.0047841)
(0.00818314 0.0818477 0.00386093)
(0.00693595 0.0831033 0.00321919)
(0.0059639 0.0805296 0.00306863)
(0.00390191 0.0787341 0.00348804)
(0.00228773 0.0748028 0.00494214)
(-0.000402678 0.0701464 0.00574174)
(-0.00244776 0.0658394 0.00661984)
(-0.00489942 0.0619379 0.00741326)
(-0.00652403 0.0589157 0.0084785)
(-0.0064638 0.0573845 0.00941997)
(-0.00737962 0.0560236 0.0110568)
(-0.00907754 0.0520885 0.0131135)
(-0.00978144 0.0466066 0.0150568)
(-0.0120556 0.0413905 0.0139797)
(-0.0155859 0.0370264 0.0106027)
(-0.0176086 0.0349219 0.00613849)
(-0.0153673 0.0333389 0.00343203)
(-0.0117716 0.0315287 0.00179145)
(-0.00828176 0.0295544 0.00100063)
(-0.00608361 0.0280779 0.00260538)
(-0.00524871 0.0258984 0.00577383)
(-0.0043636 0.0217424 0.00832778)
(-0.00302823 0.018539 0.0111369)
(-0.00162016 0.0120826 0.0150848)
(-0.00277945 0.00854891 0.0179759)
(-0.0074895 -0.000830721 0.0168688)
(0.0199219 0.0218805 0.00581075)
(0.028559 0.0208008 0.00639643)
(0.015646 0.0105574 0.00163499)
(0.0208462 0.0145898 0.00286195)
(0.0141091 0.00508332 0.000739986)
(0.0155038 0.00802456 0.000623472)
(0.00903902 0.00183779 -0.000272022)
(0.00644966 0.00351272 0.000449375)
(0.00201878 -3.4149e-05 0.0013615)
(0.00128758 0.00122318 0.00214912)
(0.000813437 -1.28824e-05 0.002476)
(0.00118901 0.000996361 0.00332473)
(0.00126591 0.00104664 0.00370138)
(0.0017342 0.00176796 0.00408982)
(0.00183579 0.0015642 0.00414312)
(0.00194074 0.00158227 0.00426028)
(0.00175578 0.00123194 0.00424589)
(0.00164253 0.00111427 0.00427468)
(0.00143884 0.000875285 0.00424345)
(0.00131001 0.000778355 0.00423039)
(0.00116768 0.000643625 0.0041958)
(0.00106214 0.00057694 0.00417199)
(0.00096567 0.000509653 0.00414593)
(0.000888516 0.000474843 0.00412692)
(0.000825251 0.000448472 0.00411068)
(0.00077471 0.000434336 0.00409969)
(0.000734511 0.000425111 0.0040928)
(0.000704072 0.000417428 0.00409056)
(0.000681531 0.00040953 0.0040921)
(0.000667439 0.000391557 0.00409811)
(0.000665161 0.000386759 0.00410818)
(0.000664062 0.000340282 0.004119)
(0.000690666 0.000378085 0.0041327)
(0.000698626 0.000286271 0.00413861)
(0.000775573 0.000457999 0.00413691)
(0.000792789 0.000305686 0.00410813)
(0.000919345 0.000728021 0.0040494)
(0.000887987 0.000479519 0.00392998)
(0.00101714 0.00126554 0.00376517)
(0.00096368 0.000809288 0.00356254)
(0.00127361 0.00196895 0.00340019)
(0.00151442 0.00105142 0.00335206)
(0.00218923 0.00239368 0.00347425)
(0.0022243 0.000289622 0.00368869)
(0.00224226 0.00152075 0.00377499)
(0.00201954 -0.00109237 0.00356097)
(0.00271028 0.00200108 0.00358241)
(0.00427695 -0.00203058 0.00508619)
(0.0108467 -0.00286742 0.00613484)
(0.0228087 -0.0145799 0.00761161)
(0.035495 -0.00572616 0.0142056)
(0.0438344 0.000309783 0.0280984)
(0.0553608 0.0265335 0.0382074)
(0.0592177 0.0256883 0.0426338)
(0.0542971 0.0659188 0.060888)
(0.0491907 0.00228973 0.0650724)
(0.0417684 0.11171 0.0875509)
(0.0568699 -0.129789 0.0819576)
(-0.00105525 0.362418 0.0325928)
(0.0167853 -0.305991 0.025096)
(0.080321 -0.129623 0.120312)
(0.0133126 0.114901 0.0118999)
(0.00691225 0.0425704 0.0142407)
(-0.0131295 0.115226 -0.00309027)
(-0.00751001 0.110375 0.00804517)
(-0.00782673 0.127834 0.00995958)
(-0.00266134 0.123497 0.0114118)
(0.000819529 0.130672 0.00993465)
(0.00538168 0.126714 0.00931018)
(0.00880934 0.130747 0.00850151)
(0.0122107 0.128404 0.00843038)
(0.0134016 0.128635 0.00821848)
(0.0142217 0.124768 0.00827987)
(0.0132611 0.122634 0.00885869)
(0.0120396 0.117423 0.00969739)
(0.00980307 0.112759 0.0104298)
(0.00767011 0.106669 0.0111117)
(0.00488546 0.100476 0.0111775)
(0.00219197 0.0942532 0.0110724)
(-0.000266259 0.0875355 0.0114468)
(-0.00307957 0.0806582 0.0119026)
(-0.00596782 0.0734582 0.0129046)
(-0.0081025 0.0661674 0.0122924)
(-0.0105017 0.0600961 0.00779096)
(-0.0129583 0.0558504 0.00254591)
(-0.0137316 0.0533645 -0.000707667)
(-0.0121781 0.0513053 -0.00176073)
(-0.0096812 0.0495683 -0.0021947)
(-0.00742179 0.0475621 -0.000273195)
(-0.00640759 0.0450897 0.00395097)
(-0.00616998 0.0399399 0.006981)
(-0.0062871 0.0341873 0.0103684)
(-0.00601512 0.0273586 0.0146777)
(-0.00627283 0.0182061 0.017945)
(-0.00948943 0.0119383 0.0186715)
(-0.0124928 -0.000522133 0.0134412)
(0.0156752 0.0206796 0.0058514)
(0.028175 0.0245159 0.00836637)
(0.0130594 0.00989874 0.00330099)
(0.0196902 0.0165413 0.0057835)
(0.0125066 0.00365862 0.00324901)
(0.0147584 0.0076946 0.00293846)
(0.00913664 0.000342373 0.00111809)
(0.00714651 0.0032714 0.000578471)
(0.00214123 -0.000597759 0.00111536)
(0.000565968 0.00107627 0.00203582)
(-0.000718342 -0.000939837 0.00236616)
(-0.00122764 0.000137873 0.00317344)
(-0.00171612 0.000129503 0.00357543)
(-0.00125522 0.00113398 0.00418982)
(-0.00110599 0.000980287 0.00443121)
(-0.00101022 0.001203 0.00465781)
(-0.00128978 0.000963125 0.00465365)
(-0.00150506 0.00100817 0.00466369)
(-0.00179934 0.000873807 0.0045911)
(-0.00198081 0.000882411 0.004543)
(-0.00215444 0.000815891 0.00446947)
(-0.00227041 0.000807828 0.00441335)
(-0.00236559 0.000778967 0.00435873)
(-0.00243015 0.000772331 0.00431809)
(-0.00247403 0.00076322 0.0042846)
(-0.00250133 0.000759498 0.00426156)
(-0.00251662 0.000756493 0.00424687)
(-0.00251986 0.000754835 0.00424121)
(-0.00251324 0.000754528 0.00424254)
(-0.00249696 0.000750198 0.0042501)
(-0.00247372 0.000764559 0.0042647)
(-0.00244885 0.000756406 0.0042832)
(-0.0024098 0.000834848 0.00430524)
(-0.0023945 0.000818651 0.00431744)
(-0.00232047 0.00105225 0.00432522)
(-0.00229639 0.000998388 0.00430848)
(-0.00214729 0.00146145 0.00427865)
(-0.0021091 0.00125581 0.00420425)
(-0.00187273 0.00193877 0.0040966)
(-0.00181507 0.00133864 0.00391681)
(-0.00141658 0.00220376 0.00374223)
(-0.00118019 0.00104436 0.00358109)
(-0.000425586 0.00223783 0.00362384)
(-0.000263559 0.000230573 0.00374082)
(-0.000202266 0.00159313 0.0037131)
(-0.000723087 -0.000733347 0.0031847)
(0.000590561 0.00198367 0.00327334)
(0.00339524 -0.00356735 0.00534036)
(0.0107763 -0.00646618 0.00691597)
(0.0204302 -0.0123518 0.00981745)
(0.0227649 0.00658608 0.0182903)
(0.0244369 0.0196507 0.0312494)
(0.0295511 0.0475984 0.0436104)
(0.0329457 0.0545542 0.0522155)
(0.0414419 0.0900027 0.066447)
(0.0418472 0.0264076 0.0685984)
(0.056591 0.129306 0.0836952)
(0.0454644 -0.13654 0.0665239)
(0.014024 0.339316 0.0624616)
(0.00882747 -0.315258 0.0298968)
(0.0170642 -0.0909686 0.102083)
(-0.0153023 0.13001 0.012612)
(-0.0157928 0.0838065 0.00976919)
(-0.0224144 0.14908 -0.0014214)
(-0.0143265 0.140275 0.0114688)
(-0.00894394 0.153732 0.0120505)
(-0.00287503 0.14608 0.0120915)
(0.00236072 0.152474 0.0109032)
(0.00705939 0.149472 0.011515)
(0.0103381 0.153847 0.0116681)
(0.0140694 0.151856 0.0123974)
(0.0161719 0.154482 0.0123478)
(0.0182799 0.152168 0.0135071)
(0.0178092 0.150156 0.0133716)
(0.0174435 0.144759 0.0143411)
(0.0153228 0.139128 0.0139719)
(0.0133783 0.132843 0.0136351)
(0.010164 0.125811 0.0126214)
(0.00718893 0.119161 0.0120923)
(0.00420352 0.112276 0.0127383)
(0.0024019 0.105066 0.0136995)
(0.000709294 0.0966243 0.0128904)
(-0.000678587 0.0883049 0.00955349)
(-0.00307692 0.0814782 0.004286)
(-0.00531093 0.0764905 -0.000913461)
(-0.00636294 0.0713748 -0.00460073)
(-0.0064061 0.0680281 -0.00634333)
(-0.00566157 0.0647483 -0.00571439)
(-0.00477662 0.060266 -0.00424643)
(-0.00352183 0.0563534 -0.00126937)
(-0.00313202 0.0503894 0.00151874)
(-0.00433837 0.0438476 0.00465937)
(-0.00498788 0.0357919 0.00784439)
(-0.006602 0.0257799 0.0109583)
(-0.00983939 0.0166229 0.012677)
(-0.0179765 -0.00158845 0.00577747)
(0.0108189 0.0154443 0.00439896)
(0.0265766 0.0279786 0.00896478)
(0.00878503 0.00873053 0.0041979)
(0.0167171 0.019064 0.00757824)
(0.00967823 0.0031246 0.00522511)
(0.0122563 0.00824404 0.0050146)
(0.00701363 -0.000720896 0.00329886)
(0.00612322 0.00310934 0.00200302)
(0.00127909 -0.00122434 0.00188209)
(-0.000416448 0.00103504 0.00262693)
(-0.00191141 -0.00138386 0.00307638)
(-0.00265023 -0.000244817 0.00381914)
(-0.00313976 -0.000845787 0.00441791)
(-0.00255797 8.18815e-05 0.00519971)
(-0.00235456 -0.000141683 0.00571457)
(-0.00227866 0.000437209 0.00610334)
(-0.00254983 0.000420877 0.00624297)
(-0.00269728 0.000775769 0.00631979)
(-0.00291704 0.000813214 0.00628175)
(-0.00301832 0.000989127 0.00624559)
(-0.00312399 0.00102178 0.00617801)
(-0.00317571 0.00109164 0.00612907)
(-0.00321347 0.00111001 0.0060811)
(-0.00322179 0.00113508 0.00605121)
(-0.0032117 0.00114646 0.00603055)
(-0.00318582 0.0011575 0.00602236)
(-0.00315061 0.00116463 0.00602197)
(-0.0031065 0.00117236 0.00602945)
(-0.00305749 0.00118218 0.00604294)
(-0.00300302 0.00119281 0.00606285)
(-0.00294769 0.00122355 0.00608701)
(-0.00289502 0.00124616 0.00611327)
(-0.00283447 0.00135476 0.00614203)
(-0.00279681 0.00139605 0.00616494)
(-0.00269936 0.00166048 0.00618612)
(-0.00264557 0.00166164 0.00618666)
(-0.00245544 0.00210929 0.00618292)
(-0.0023609 0.00191143 0.00614045)
(-0.00202462 0.00251173 0.00607781)
(-0.00186481 0.00187978 0.00594005)
(-0.00140646 0.00259866 0.00576528)
(-0.00130548 0.00134336 0.00550038)
(-0.000837286 0.00235058 0.00532998)
(-0.000975805 0.000348977 0.00522865)
(-0.0012842 0.00177215 0.00508252)
(-0.00208991 -0.000901453 0.00439928)
(-6.86347e-05 0.000160238 0.00416158)
(0.00429788 -0.0065453 0.00536183)
(0.0090215 -0.00587319 0.00727119)
(0.00518356 0.00168715 0.0156886)
(-0.00311803 0.0264235 0.0256597)
(-0.00425356 0.0460266 0.0355896)
(0.00045185 0.0736868 0.0451805)
(0.00994575 0.0889679 0.0531724)
(0.0298946 0.121554 0.0674213)
(0.0505739 0.0951617 0.0761206)
(0.0839943 0.162556 0.0980582)
(0.062401 -0.0497598 0.0919943)
(0.0392657 0.353396 0.0466632)
(-0.012018 -0.330216 0.0275935)
(-0.0617974 -0.0668018 0.0725833)
(-0.0458606 0.158227 -0.00719615)
(-0.0448896 0.10896 0.00499496)
(-0.0333751 0.163485 -0.00232843)
(-0.0250456 0.14217 0.0101538)
(-0.0110778 0.148461 0.00855553)
(-0.00463023 0.139366 0.00772292)
(0.00201571 0.144851 0.00633933)
(0.00695754 0.145303 0.00651831)
(0.0116398 0.151491 0.00830368)
(0.0153127 0.1524 0.0094326)
(0.0177225 0.157069 0.0104594)
(0.0201753 0.159018 0.0120419)
(0.0218496 0.162596 0.0132204)
(0.0230087 0.16183 0.0149304)
(0.0227985 0.159011 0.0163485)
(0.0217999 0.154261 0.0172469)
(0.0199797 0.14852 0.0178017)
(0.0172472 0.141615 0.0181521)
(0.0147423 0.133899 0.0181432)
(0.0124445 0.126012 0.0176294)
(0.0109954 0.118324 0.0157248)
(0.00921634 0.112516 0.0127495)
(0.00735622 0.108482 0.00820977)
(0.00623503 0.105012 0.00525573)
(0.00360461 0.100676 0.0030467)
(0.00237857 0.0961625 0.00143328)
(0.00302172 0.0900533 0.000498197)
(0.0042048 0.0849382 0.000827198)
(0.00571272 0.0789217 0.00265922)
(0.00575119 0.0728212 0.00504336)
(0.00391918 0.06668 0.00808524)
(0.00267268 0.0584855 0.00995512)
(0.00110147 0.0469882 0.0106133)
(-0.00206626 0.030418 0.00569581)
(-0.00816845 0.00537577 -0.0106226)
(-0.000114776 0.0110365 -0.00571579)
(0.0237631 0.0304022 0.00627483)
(0.00243802 0.00808842 0.0013371)
(0.0123768 0.0222993 0.00514624)
(0.00521372 0.00402332 0.0034397)
(0.00814522 0.0101409 0.00341069)
(0.00338113 -0.000107761 0.00209061)
(0.00329866 0.00411935 0.00054852)
(-0.00062396 -0.000573525 -0.000499315)
(-0.00239566 0.00158382 -0.000382426)
(-0.00427278 -0.00122715 -1.14899e-05)
(-0.00522311 -0.000151551 0.000553003)
(-0.00629511 -0.00142731 0.00117913)
(-0.00609923 -0.000565967 0.00188384)
(-0.00641738 -0.000767108 0.00250743)
(-0.00647139 7.83321e-05 0.00292193)
(-0.00688792 0.000171692 0.00319424)
(-0.0070635 0.000684523 0.00336155)
(-0.00732786 0.000793202 0.00343548)
(-0.00744344 0.00104902 0.00348302)
(-0.00754911 0.00113437 0.00348997)
(-0.00759714 0.00124877 0.00349924)
(-0.00762564 0.00129837 0.00350192)
(-0.00762756 0.00134326 0.00351436)
(-0.00761211 0.00136798 0.00353141)
(-0.00758101 0.00138905 0.00355536)
(-0.00753792 0.00140586 0.0035828)
(-0.00748295 0.00142331 0.00361357)
(-0.00741878 0.00144418 0.00364604)
(-0.00735026 0.00146951 0.00367928)
(-0.00728739 0.00151214 0.0037111)
(-0.00722947 0.00155193 0.00374101)
(-0.00717717 0.00166423 0.00376802)
(-0.00714774 0.00171417 0.00379268)
(-0.00705686 0.00195654 0.00381313)
(-0.00698791 0.0019592 0.0038294)
(-0.00676758 0.00237878 0.00383523)
(-0.00661592 0.00223169 0.00381968)
(-0.00626367 0.00287034 0.00374968)
(-0.00609715 0.00237848 0.00361556)
(-0.00564036 0.00317139 0.00339906)
(-0.00546875 0.00200242 0.00311483)
(-0.0048322 0.00276535 0.00289319)
(-0.00481568 0.000502556 0.00286108)
(-0.00480546 0.00139288 0.00259039)
(-0.00431738 -0.00180693 0.00162898)
(-0.000794368 -0.00100978 0.00183535)
(0.00141516 -0.00506925 0.00171598)
(-0.00426067 0.0023748 0.00334845)
(-0.0158698 0.0109743 0.0125585)
(-0.0297596 0.0252021 0.0236284)
(-0.0313165 0.0345447 0.0325503)
(-0.0268659 0.0566623 0.0370845)
(-0.0160421 0.0632604 0.0392789)
(0.000588113 0.103409 0.0513174)
(0.0308555 0.0642896 0.0521366)
(0.082296 0.156438 0.0732899)
(0.0881423 -0.0188477 0.0851584)
(0.131323 0.388468 0.0322123)
(-0.0161184 -0.309034 0.0221415)
(-0.120125 -0.117139 0.0631632)
(-0.0655292 0.14317 -0.00631839)
(-0.0607829 0.0548449 0.00781525)
(-0.0305838 0.115858 0.00228941)
(-0.0260281 0.0703487 0.0146454)
(-0.0081052 0.0785157 0.0105091)
(-0.00383472 0.0623389 0.00819869)
(0.00149799 0.0654594 0.00569136)
(0.00370886 0.0621901 0.00392321)
(0.00797 0.0660517 0.00469368)
(0.00996908 0.0638435 0.00394218)