/*--------------------------------*- C++ -*----------------------------------*\
| =========                 |                                                 |
| \\      /  F ield         | OpenFOAM: The Open Source CFD Toolbox           |
|  \\    /   O peration     | Version:  2.3.0                                 |
|   \\  /    A nd           | Web:      www.OpenFOAM.org                      |
|    \\/     M anipulation  |                                                 |
\*---------------------------------------------------------------------------*/
FoamFile
{
    version     2.0;
    format      ascii;
    class       volVectorField;
    location    "25";
    object      U.water;
}
// * * * * * * * * * * * * * * * * * * * * * * * * * * * * * * * * * * * * * //

dimensions      [0 1 -1 0 0 0 0];

internalField   nonuniform List<vector> 
6144
(
(0.00983994 0.0157313 -0.000998283)
(0.010444 -0.00612726 -0.00311854)
(0.00521161 -0.00539532 -0.00374592)
(0.00494297 -0.00561601 -0.00345248)
(0.00301507 -0.00563474 -0.00280204)
(0.00263787 -0.00398701 -0.00245255)
(0.0017098 -0.00303194 -0.00169031)
(0.00176031 -0.0012769 -0.00098109)
(0.00173611 -0.00033676 -0.000467535)
(0.00160002 0.000951704 4.91735e-05)
(0.00143094 0.00205283 0.000399643)
(0.00145511 0.00285151 0.000856022)
(0.00161468 0.00293966 0.00107385)
(0.00177828 0.00249472 0.00132752)
(0.00189609 0.00170753 0.00123376)
(0.00198984 0.00096069 0.00108069)
(0.00203948 0.000304236 0.000795288)
(0.00209388 -0.000103455 0.000597878)
(0.00213748 -0.000436367 0.000359078)
(0.00216187 -0.000609858 0.000233375)
(0.00216895 -0.000744626 0.0001496)
(0.00215925 -0.000777909 0.000115961)
(0.00214199 -0.000792553 0.000111482)
(0.00211825 -0.00076389 0.000135729)
(0.0020895 -0.000729195 0.000181244)
(0.00205716 -0.000687242 0.000246261)
(0.0020206 -0.000648687 0.000333589)
(0.00198083 -0.00061185 0.000430079)
(0.00193824 -0.000576437 0.000534215)
(0.0018964 -0.000544355 0.000642069)
(0.00185247 -0.000527549 0.000756005)
(0.001798 -0.000537765 0.000893543)
(0.00173171 -0.000583589 0.00106255)
(0.00165532 -0.000690339 0.00127457)
(0.00157276 -0.00089822 0.00153993)
(0.00149298 -0.00125862 0.00184755)
(0.00142187 -0.00181164 0.00217491)
(0.00136194 -0.00255411 0.00244868)
(0.00131153 -0.00341107 0.00258036)
(0.00125784 -0.00426166 0.00247151)
(0.00119889 -0.0048066 0.00199362)
(0.00108883 -0.00467064 0.000988605)
(0.000983435 -0.00322781 -5.41207e-05)
(0.00110567 -0.000282992 -0.0010522)
(0.00155355 0.00374995 -0.00196262)
(0.00245823 0.00770842 -0.00271799)
(0.00363291 0.0113967 -0.00354268)
(0.00785487 0.0121398 -0.00399337)
(0.0109052 0.00544108 -0.00559428)
(0.00646679 -0.00262876 -0.00679752)
(0.0192257 0.00702029 -0.00851548)
(0.0479024 -0.0248026 -0.0172251)
(0.0664058 -0.0708555 -0.0226257)
(0.0329913 -0.110762 -0.0165622)
(0.0153075 -0.089819 -0.017454)
(0.0214838 -0.104943 -0.0111861)
(0.00738717 -0.0523144 0.000864765)
(-0.017545 -0.144021 0.04589)
(-0.0487411 0.0354679 -0.053139)
(0.0125707 -0.0723998 0.0467576)
(0.110801 -0.275724 0.0751711)
(0.0843291 -0.0934519 0.0315739)
(0.0636667 -0.169311 0.00016535)
(0.0567373 -0.2061 -0.00288553)
(0.0493622 -0.20624 0.000475264)
(0.0409072 -0.214091 0.000437924)
(0.0356673 -0.216932 0.00191152)
(0.0330551 -0.213916 0.00210105)
(0.0310602 -0.211568 0.00201322)
(0.0305008 -0.211207 0.00438011)
(0.0290068 -0.212955 0.00832824)
(0.0224514 -0.214733 0.0125059)
(0.0166314 -0.210537 0.015326)
(0.0135933 -0.202309 0.017198)
(0.0130093 -0.193365 0.017421)
(0.0114438 -0.17609 0.0161061)
(0.0134822 -0.154348 0.0170436)
(0.0110443 -0.137598 0.017387)
(0.00199691 -0.125044 0.0137793)
(0.000828701 -0.119403 0.00987172)
(0.00651085 -0.118215 0.00834575)
(0.0204183 -0.118043 0.0057448)
(0.0264194 -0.11866 0.00478758)
(0.026319 -0.119327 0.00482069)
(0.0250818 -0.122273 0.00591825)
(0.0235713 -0.126298 0.00655236)
(0.0169039 -0.133813 0.00414191)
(0.0116354 -0.131257 0.00361566)
(0.00477757 -0.12047 -0.00171302)
(-0.0149785 -0.0961339 -0.00675292)
(-0.0148125 -0.0234066 -0.0109236)
(-0.0112737 0.023652 0.00608855)
(-0.00568304 0.0392599 0.0217183)
(-0.00345016 0.0502525 0.0277933)
(0.000184947 0.0530213 0.0267723)
(-0.00134802 0.0240635 0.044547)
(0.0197643 0.0177815 0.00206189)
(0.0205648 0.00439598 0.000832319)
(0.0105581 0.00336434 -0.00271058)
(0.0110448 0.00425291 -0.000798765)
(0.00682281 0.000383772 0.00083035)
(0.00561784 -6.16113e-05 0.00187683)
(0.00287829 -0.00197209 0.00283594)
(0.00225222 -0.00106584 0.00278666)
(0.00186396 -1.5484e-05 0.00267664)
(0.00171671 0.00193797 0.00278487)
(0.00180545 0.0031875 0.00305728)
(0.00217743 0.00402495 0.00356144)
(0.00272267 0.00402932 0.00383868)
(0.00323621 0.00361627 0.00404903)
(0.0035019 0.00271903 0.00407574)
(0.0036611 0.00186897 0.00403994)
(0.00366962 0.00103157 0.0039626)
(0.00372093 0.000480932 0.003897)
(0.00376624 9.88393e-06 0.00375547)
(0.00379178 -0.000257535 0.00368814)
(0.00378027 -0.000472595 0.0036412)
(0.00374041 -0.000554827 0.00364172)
(0.00368271 -0.000601014 0.00367045)
(0.00361161 -0.000588601 0.00372827)
(0.00353323 -0.000561417 0.00380359)
(0.00344961 -0.000520004 0.00389306)
(0.00336112 -0.000478549 0.00399176)
(0.00326643 -0.000440826 0.00409837)
(0.00316505 -0.000409697 0.00421136)
(0.00306785 -0.000390828 0.00430994)
(0.00298123 -0.000402104 0.00438673)
(0.00288662 -0.000461783 0.00447374)
(0.00278611 -0.000575241 0.00456837)
(0.00269108 -0.000761424 0.00467315)
(0.00261896 -0.00104506 0.00479579)
(0.00258256 -0.00146099 0.00493359)
(0.00258706 -0.00203454 0.00508175)
(0.00261404 -0.00276613 0.00520937)
(0.00262696 -0.00359675 0.00526849)
(0.00255928 -0.00439366 0.00521614)
(0.0022533 -0.00492881 0.00497811)
(0.0018105 -0.00474091 0.00426698)
(0.00128106 -0.00341867 0.00305528)
(0.000696327 -0.000945843 0.00174842)
(0.000924686 0.00219241 0.00105334)
(0.00199724 0.00568515 0.000387647)
(0.00434776 0.0098513 -0.000541888)
(0.0127164 0.0105757 -0.00101591)
(0.0212985 0.00993172 -0.00241833)
(0.0238944 -0.00181799 -0.00436086)
(0.0449269 -0.0201893 -0.00882722)
(0.106948 -0.0372171 -0.023122)
(0.108429 -0.0323393 -0.0353331)
(0.0385066 -0.0164748 -0.025068)
(0.0123142 0.0342039 -0.00634267)
(0.0270202 -0.0305616 0.0259549)
(-0.0319695 0.0504471 0.0612398)
(-0.0584125 -0.123285 0.0851108)
(-0.0682449 0.0903583 -0.074485)
(-0.0389284 -0.101074 0.0180973)
(0.148035 -0.256623 0.121612)
(0.114449 -0.0411063 0.0656842)
(0.0789242 -0.13355 0.0143688)
(0.0702335 -0.131519 0.0231092)
(0.0515721 -0.128877 0.0244883)
(0.022582 -0.133723 0.0221971)
(0.00537859 -0.128451 0.0175227)
(0.00412995 -0.123752 0.0158243)
(0.0108355 -0.11516 0.0116321)
(0.011972 -0.108247 0.0118218)
(0.00654914 -0.106459 0.0144616)
(-0.000728994 -0.11322 0.015622)
(-0.0106726 -0.121034 0.0174336)
(-0.0190646 -0.132607 0.017749)
(-0.0270661 -0.136273 0.0142032)
(-0.0312035 -0.131901 0.0133729)
(-0.0330389 -0.122501 0.0127979)
(-0.0252161 -0.113424 0.0130477)
(-0.00965399 -0.0931855 0.00816231)
(-0.00175256 -0.0753783 0.0147132)
(-0.00806795 -0.0645549 0.0280177)
(-0.0179441 -0.0596715 0.0225424)
(-0.0212692 -0.0486349 0.0157571)
(-0.0157616 -0.0451065 0.0137032)
(-0.0142465 -0.0488003 0.0116682)
(-0.00980546 -0.0568831 0.0114225)
(-0.014168 -0.0720807 0.0115205)
(-0.02632 -0.0797106 0.00656782)
(-0.0267547 -0.0746026 0.00481194)
(-0.0323945 -0.0628427 0.00118007)
(-0.0458262 -0.00033836 -0.0121245)
(-0.0221782 0.0381122 -0.00727905)
(-0.00639588 0.0529001 0.0122167)
(-0.00184714 0.0624316 0.02345)
(0.00291028 0.0530453 0.0343214)
(-0.00288958 0.0219505 0.0525359)
(0.0235019 0.0193913 0.00331581)
(0.0242862 0.0103516 0.00273217)
(0.0146289 0.00780935 -0.000981044)
(0.0140389 0.00972422 0.000733541)
(0.00879136 0.00550922 0.00213583)
(0.006201 0.00419523 0.0032935)
(0.0021935 0.000599462 0.00404823)
(0.000624218 0.0013594 0.00383096)
(-0.000193952 0.00213975 0.00364787)
(-2.08533e-05 0.00350738 0.00385539)
(0.000255463 0.00387446 0.00407286)
(0.000973435 0.00432921 0.00437529)
(0.00172264 0.00417216 0.00457402)
(0.00246338 0.00396634 0.00470343)
(0.00292284 0.00328501 0.00468229)
(0.00317716 0.00261763 0.00464091)
(0.00315863 0.00180526 0.0046008)
(0.00316698 0.00120657 0.00458468)
(0.00306261 0.000636959 0.00459029)
(0.00300126 0.000288325 0.0046108)
(0.00288422 -1.43678e-05 0.00463646)
(0.00276994 -0.000165083 0.00467942)
(0.00264944 -0.000267911 0.00472914)
(0.00253285 -0.000294616 0.00479028)
(0.00241935 -0.000295859 0.00485677)
(0.0023096 -0.000274989 0.00492424)
(0.00220121 -0.000250856 0.00499227)
(0.00209356 -0.000233997 0.00506209)
(0.00198545 -0.00024004 0.00513477)
(0.00187364 -0.000281902 0.00521297)
(0.00175781 -0.000365704 0.00529993)
(0.00163695 -0.000499396 0.00539049)
(0.00150631 -0.000684892 0.00547971)
(0.00137627 -0.000912988 0.00556618)
(0.00128088 -0.00117868 0.00565218)
(0.00123913 -0.00148961 0.0057424)
(0.0012568 -0.00184258 0.00583812)
(0.00131163 -0.00221599 0.00591525)
(0.00135155 -0.0025467 0.00595193)
(0.00129026 -0.00272671 0.00590768)
(0.00101687 -0.00262289 0.00575498)
(0.000351362 -0.00221192 0.00546062)
(-0.000530763 -0.00128894 0.00507864)
(-0.00104247 -0.00057561 0.00437716)
(-0.00115437 -0.00039483 0.00361327)
(-0.000945944 -5.72706e-05 0.00310573)
(0.00234156 0.00208657 0.0030877)
(0.0125266 0.00114179 0.00226657)
(0.0283114 0.00104763 1.4994e-05)
(0.0503871 -0.00810209 -0.00168115)
(0.0693518 -0.0296227 -0.00106711)
(0.128154 -0.031219 -0.01095)
(0.118598 -0.00180296 -0.025925)
(0.0345865 0.036656 -0.0177178)
(0.0272746 0.0597538 0.0102509)
(0.0253436 0.00553179 0.0406201)
(-0.028032 0.0836839 0.0863242)
(-0.0295504 -0.132201 0.113613)
(-0.0450685 0.0879639 -0.0279416)
(0.0142592 -0.022989 -0.051428)
(0.202095 -0.284284 0.130823)
(0.147513 -0.0456066 0.0867091)
(0.103806 -0.125482 0.0317588)
(0.0902124 -0.107618 0.0345999)
(0.0567055 -0.0954848 0.0280638)
(0.0246165 -0.0887474 0.0289919)
(0.0192322 -0.0809847 0.026022)
(0.0204054 -0.0761328 0.0107006)
(0.0337433 -0.0496063 -0.000758736)
(0.0408043 -0.0329076 0.0184583)
(0.0375394 -0.0377046 0.035015)
(0.0215385 -0.0635275 0.0466838)
(0.0075122 -0.0845612 0.0397483)
(-0.00532767 -0.102799 0.0141866)
(-0.0137049 -0.0990041 -0.000877348)
(-0.0150633 -0.0899606 0.000662704)
(-0.0196116 -0.0647127 0.00824535)
(-0.0345708 -0.0408078 0.0231926)
(-0.0451048 -0.0263206 0.0388486)
(-0.0495688 -0.021248 0.0392773)
(-0.0488672 -0.0283788 0.0192874)
(-0.0325703 -0.0279849 0.0046031)
(-0.0147216 -0.026174 0.00319601)
(-0.000362986 -0.0278073 -0.0047222)
(0.0121965 -0.0240978 -0.0112195)
(0.0209022 -0.0248801 -0.0106712)
(0.0187031 -0.0307561 -0.00350128)
(0.00647821 -0.041741 -0.00223404)
(-0.0284552 -0.0297218 -0.0064699)
(-0.0599613 0.00907884 -0.0110978)
(-0.045651 0.0376409 -0.0282598)
(-0.0151419 0.0589009 -0.0110637)
(-0.00211993 0.0599942 0.0131938)
(0.00175409 0.0655898 0.025723)
(-0.000616219 0.0500474 0.0366283)
(-0.0123599 0.0211485 0.0550485)
(0.0255539 0.0222406 0.00295843)
(0.0274219 0.01609 0.00320142)
(0.016605 0.0107766 -0.000801104)
(0.0161599 0.0126101 0.000508006)
(0.0108829 0.00789196 0.0010868)
(0.00868611 0.00669267 0.00290594)
(0.00196466 0.000639853 0.00359206)
(-0.00100195 0.000669698 0.00342634)
(-0.00207641 0.00124937 0.00329681)
(-0.0012906 0.002923 0.0037968)
(-0.000870389 0.00303399 0.00427581)
(-0.000368893 0.00363556 0.00472361)
(0.000327669 0.00377707 0.0048783)
(0.00111499 0.00388134 0.00492777)
(0.00167621 0.00339207 0.00480549)
(0.0019863 0.0028765 0.00474814)
(0.00198327 0.00212351 0.00471616)
(0.00196339 0.0015665 0.00473225)
(0.00183078 0.000991438 0.00474972)
(0.00172768 0.000605776 0.00477595)
(0.00157201 0.000262119 0.00480166)
(0.00141845 6.37013e-05 0.00484294)
(0.00124696 -8.80827e-05 0.00488697)
(0.0010871 -0.000167028 0.00494218)
(0.000937636 -0.000211645 0.00500208)
(0.000801541 -0.000227405 0.00506726)
(0.000676132 -0.000234708 0.00513534)
(0.00056194 -0.000244273 0.005207)
(0.000458479 -0.000270896 0.00528272)
(0.000365988 -0.000327178 0.00536375)
(0.000283834 -0.000423652 0.0054524)
(0.00020327 -0.000561152 0.00554229)
(0.000117837 -0.000732408 0.00562561)
(3.87846e-05 -0.000923076 0.00569708)
(-6.05311e-06 -0.00111574 0.00575565)
(2.32319e-07 -0.0013096 0.0058052)
(4.84287e-05 -0.0014821 0.00584511)
(9.19985e-05 -0.00159503 0.00585821)
(7.28109e-05 -0.00154599 0.00583218)
(-6.19344e-05 -0.00125002 0.00574918)
(-0.000368313 -0.000608868 0.00558316)
(-0.000731994 0.000117713 0.00535045)
(-0.00072734 0.000245497 0.00508115)
(-0.000413724 -0.000996262 0.00478394)
(-0.000372832 -0.00351054 0.00416174)
(-0.00138989 -0.00624883 0.00364977)
(0.00180109 -0.00808184 0.00345238)
(0.0124681 -0.0125489 0.00319151)
(0.0293894 -0.0145018 0.000875271)
(0.0554929 -0.0173989 0.000563324)
(0.0775943 -0.0199519 0.00821003)
(0.130611 -0.0112823 -0.017628)
(0.105657 0.0562608 -0.0395715)
(0.0471392 0.0859282 -0.0213622)
(0.0306556 0.0715117 0.0268325)
(0.0297067 -0.0066634 0.0353788)
(-0.0378384 0.085789 0.0879489)
(-0.0174704 -0.178205 0.126643)
(-0.0923517 0.0773388 0.00542814)
(0.0809393 -0.100186 -0.00579596)
(0.218187 -0.245311 0.142499)
(0.140856 0.0157109 0.073716)
(0.0885647 -0.10519 0.0320342)
(0.0595821 -0.0539894 0.015252)
(0.0211004 -0.0485529 0.0202496)
(-0.00744467 -0.0396442 0.017283)
(-0.0147295 -0.00941568 0.00843472)
(0.000332105 0.0154139 0.00427857)
(0.00977986 0.0299021 0.011915)
(0.0109571 0.0262567 0.0350994)
(0.00500519 0.0151678 0.0442445)
(-0.00487045 0.0036408 0.0365216)
(-0.0148422 -0.0035419 0.0249802)
(-0.024216 -0.000493008 0.0128748)
(-0.0321605 0.0114675 0.0127006)
(-0.043577 0.020573 0.0200704)
(-0.0565428 0.0262123 0.0293601)
(-0.0644502 0.0178131 0.0361025)
(-0.0667792 0.00332574 0.0308373)
(-0.0610523 -0.00690762 0.0123883)
(-0.0516451 -0.00612861 -0.00720751)
(-0.0419897 0.00888702 -0.0149104)
(-0.0252367 0.027257 -0.0110458)
(0.00154042 0.0421681 -0.0161922)
(0.0180743 0.0386702 -0.013642)
(0.0253826 0.042282 -0.0169031)
(0.0168571 0.0447109 -0.0189623)
(-0.0108188 0.0420055 -0.017056)
(-0.0327786 0.0375289 -0.0159607)
(-0.0412645 0.0365524 -0.0176754)
(-0.0348114 0.0350052 -0.0332453)
(-0.00495303 0.0565996 -0.0198992)
(0.0102029 0.0583654 0.00974906)
(0.0109448 0.053528 0.0320601)
(-0.00115285 0.0465843 0.0433888)
(-0.0181382 0.0189835 0.0604786)
(0.0268994 0.0242526 0.00308712)
(0.0300839 0.0220945 0.00457713)
(0.0192492 0.0138035 0.000939953)
(0.0174412 0.0145779 0.00182467)
(0.0122849 0.00839988 0.00127901)
(0.0112049 0.00830229 0.00291104)
(0.0041269 0.00180241 0.0020364)
(-0.001292 0.00077611 0.00255824)
(-0.00416349 -0.000920773 0.0028702)
(-0.00335011 0.00108395 0.00363394)
(-0.00290805 0.00142625 0.00432595)
(-0.00272198 0.00272329 0.004937)
(-0.00203515 0.00332719 0.00503485)
(-0.00106721 0.0037887 0.00499241)
(-0.000320152 0.00345363 0.00473612)
(-1.83197e-06 0.00292988 0.00463234)
(-7.91305e-05 0.00217805 0.0045748)
(-0.000264215 0.00164116 0.0046114)
(-0.000525203 0.00110522 0.00463132)
(-0.000731397 0.000742587 0.00464569)
(-0.000961165 0.000394309 0.00464078)
(-0.00115415 0.000141747 0.00464795)
(-0.00134105 -7.42297e-05 0.00466506)
(-0.00150703 -0.000205301 0.0046933)
(-0.00165126 -0.000292488 0.00473216)
(-0.0017758 -0.000341607 0.00478148)
(-0.00188639 -0.000375249 0.00483763)
(-0.00198286 -0.000406961 0.00490007)
(-0.00206301 -0.000452774 0.00496853)
(-0.00212848 -0.000524385 0.0050426)
(-0.00218442 -0.00062413 0.0051156)
(-0.00223968 -0.000741893 0.00518401)
(-0.00230394 -0.000868155 0.00524298)
(-0.00237199 -0.00098702 0.00528855)
(-0.00239644 -0.00108078 0.00531617)
(-0.00235744 -0.00114765 0.00532604)
(-0.00228712 -0.00113562 0.00530959)
(-0.00225319 -0.00096568 0.00525004)
(-0.00236951 -0.000499252 0.00510552)
(-0.00267123 0.00027868 0.00488991)
(-0.00294474 0.00120908 0.00468452)
(-0.00274551 0.00170021 0.00455596)
(-0.0015991 0.000915321 0.00450144)
(-0.000386292 -0.00171805 0.00461858)
(-0.000516001 -0.00552461 0.0045024)
(-0.00161362 -0.0102247 0.00389184)
(0.00228777 -0.0142936 0.00320892)
(0.0139262 -0.0177092 0.00301983)
(0.0307861 -0.0188573 0.00121472)
(0.0552653 -0.0155323 0.00613722)
(0.0725865 -0.00516832 0.0121522)
(0.112092 0.0249393 -0.0185009)
(0.102876 0.118051 -0.0346112)
(0.0690458 0.152352 -0.0198209)
(0.0324158 0.11983 0.0311018)
(0.011977 0.0788907 0.0515562)
(-0.0382999 0.135194 0.0964029)
(0.0210809 -0.218903 0.156628)
(-0.0984588 0.120101 0.0349857)
(0.0359481 -0.176882 0.00259316)
(0.221926 -0.22468 0.162492)
(0.123296 0.0372589 0.0634416)
(0.0781809 -0.0920509 0.0456322)
(0.037959 -0.0338205 0.0155295)
(0.0100397 -0.0421161 0.0117251)
(-0.0109382 -0.0202073 0.00866722)
(-0.0179253 -0.0086333 0.00968727)
(-0.00685734 0.00440748 0.00928567)
(0.00190394 0.0140409 0.0110077)
(-0.0014825 0.0193244 0.0209416)
(-0.00558051 0.0178233 0.0285096)
(-0.00868666 0.0155083 0.0238636)
(-0.013999 0.0233825 0.0206488)
(-0.0261727 0.0311169 0.0185109)
(-0.0357807 0.0383547 0.0160383)
(-0.0459368 0.0394628 0.0155587)
(-0.0557302 0.0382117 0.0160971)
(-0.0647646 0.0315271 0.00946279)
(-0.0676371 0.0324272 -0.00530447)
(-0.0599741 0.0441734 -0.0123417)
(-0.0431581 0.0633045 -0.0089469)
(-0.0216987 0.0621861 -0.00611672)
(0.000995777 0.0501504 0.000962689)
(0.0230301 0.0386218 -0.00190235)
(0.0379096 0.037314 -0.00506614)
(0.0452611 0.0442505 -0.0163182)
(0.0488188 0.0498493 -0.0228046)
(0.0428321 0.0482875 -0.030654)
(0.0182611 0.0365563 -0.0300233)
(0.00225464 0.0204108 -0.0289296)
(-0.00705826 0.0136983 -0.0356512)
(0.0036834 0.0389208 -0.0215138)
(0.0143468 0.0441636 0.0144409)
(0.00565617 0.0411324 0.0375776)
(-0.0124109 0.0379823 0.0496609)
(-0.0280047 0.0174624 0.0647905)
(0.0265975 0.0254031 0.00456432)
(0.032745 0.0264543 0.00803258)
(0.0209415 0.0159391 0.00371239)
(0.01853 0.0165172 0.00464672)
(0.0124251 0.00699769 0.00327829)
(0.0118666 0.0082941 0.00319151)
(0.00591537 0.00238008 0.0017351)
(0.00052802 0.00207678 0.00199688)
(-0.00428873 -0.0020061 0.00264356)
(-0.00514368 -0.00114066 0.00340229)
(-0.00483068 -0.000854721 0.0040717)
(-0.00461041 0.00125086 0.00490798)
(-0.00357253 0.00260164 0.0050686)
(-0.0022918 0.00348591 0.00515739)
(-0.00107358 0.0031836 0.00504678)
(-0.000570254 0.00263945 0.00506108)
(-0.000686615 0.00188773 0.00496951)
(-0.000983538 0.00141189 0.00497075)
(-0.00135718 0.0010069 0.00490703)
(-0.0016466 0.00077436 0.00484354)
(-0.00192678 0.00052208 0.00475197)
(-0.00216047 0.000333071 0.00467226)
(-0.00237899 0.000154635 0.00459719)
(-0.00257136 2.62548e-05 0.00453752)
(-0.00272824 -7.75217e-05 0.00448923)
(-0.00284783 -0.00015492 0.00445951)
(-0.00293457 -0.000218701 0.00444951)
(-0.0029874 -0.000271864 0.00445957)
(-0.00300934 -0.000323223 0.00448748)
(-0.00300553 -0.00038028 0.00452907)
(-0.00299317 -0.000442529 0.00457507)
(-0.00298573 -0.000504552 0.00462168)
(-0.00298621 -0.000559227 0.00466773)
(-0.00299026 -0.000576767 0.0047064)
(-0.00295744 -0.000523512 0.00471704)
(-0.00290256 -0.000385491 0.00467646)
(-0.00292155 -0.000110826 0.00454655)
(-0.00313609 0.000341341 0.00428441)
(-0.00355168 0.000975039 0.0038613)
(-0.00391951 0.00162943 0.00343009)
(-0.00380116 0.0019339 0.00329957)
(-0.00270258 0.00147127 0.00366056)
(-0.000561226 -0.000247561 0.00457376)
(0.000932337 -0.00338282 0.00566364)
(0.000624233 -0.00706392 0.00651599)
(-0.00044494 -0.0122233 0.00582218)
(0.00253701 -0.0163486 0.00439371)
(0.0124896 -0.0184876 0.00428569)
(0.0285057 -0.0189045 0.00343289)
(0.0420599 -0.0067769 0.0119773)
(0.0609029 0.0148789 0.0103933)
(0.0808982 0.0653744 -0.00919814)
(0.0681195 0.147244 -0.00595423)
(0.0515242 0.174851 -0.00137653)
(0.0340867 0.166689 0.0337641)
(0.0607232 0.124179 0.0694215)
(0.0980805 0.171981 0.114529)
(0.143969 -0.193229 0.189254)
(-0.145376 0.216986 0.0282227)
(0.0233336 -0.244825 0.014905)
(0.172189 -0.162473 0.167151)
(0.0968808 0.0719121 0.0326941)
(0.0718032 -0.0765851 0.0449855)
(0.01932 -0.0255474 0.000288553)
(-0.0129081 -0.0447887 -0.0119727)
(-0.0227619 -0.0313623 -0.00186978)
(-0.0276502 -0.0196654 0.0102984)
(-0.022846 -0.00655609 0.010857)
(-0.0177902 0.0141375 0.0131612)
(-0.0120384 0.0269385 0.0188737)
(-0.00730908 0.027177 0.0201932)
(-0.00968488 0.0277371 0.0121506)
(-0.0158553 0.0372896 0.00704963)
(-0.0230978 0.0455294 0.00382929)
(-0.0315183 0.0541995 0.00440275)
(-0.0411982 0.0618091 0.00827576)
(-0.0529313 0.0694799 0.00890931)
(-0.0608212 0.0721816 0.00523653)
(-0.0617268 0.0770128 0.00475849)
(-0.048325 0.0792465 0.0124377)
(-0.0287947 0.070331 0.0219267)
(0.000732404 0.0468929 0.0279135)
(0.0168712 0.0299575 0.0154341)
(0.0313641 0.0186944 0.016023)
(0.0414363 0.0118806 0.0122887)
(0.0480835 0.0116308 0.002442)
(0.0501006 0.0224116 -0.0215154)
(0.048134 0.041195 -0.0428806)
(0.0411427 0.0548229 -0.0464149)
(0.0277781 0.0542749 -0.0368499)
(0.00417476 0.0404642 -0.0214562)
(-0.00903381 0.0172464 0.00532825)
(-0.00436801 0.0142117 0.0269192)
(-0.0116941 0.0141422 0.0391047)
(-0.0243602 0.021058 0.0536705)
(-0.0377236 0.0049407 0.068602)
(0.0226363 0.0234538 0.00652094)
(0.0321702 0.0290699 0.0109619)
(0.0198738 0.0164971 0.00626812)
(0.018825 0.0179878 0.00695608)
(0.0111582 0.0057997 0.00497005)
(0.0103869 0.006826 0.00451779)
(0.00562634 0.000529476 0.00313244)
(0.00147858 0.00195166 0.00241179)
(-0.00359418 -0.00181994 0.0029727)
(-0.00609244 -0.00141425 0.00356383)
(-0.0073254 -0.00214688 0.00394645)
(-0.00804631 0.000172001 0.00479924)
(-0.00700218 0.00219084 0.00510519)
(-0.00486771 0.00303963 0.00584766)
(-0.00336269 0.00273838 0.00610113)
(-0.00292815 0.00231215 0.00626203)
(-0.00321634 0.00160367 0.00612729)
(-0.00385238 0.00121564 0.00597685)
(-0.00441793 0.000921616 0.00574045)
(-0.00479282 0.000799466 0.00552832)
(-0.00508461 0.000677328 0.00531505)
(-0.00529134 0.00061536 0.00514323)
(-0.00545071 0.00054597 0.00499306)
(-0.00556941 0.000497163 0.0048769)
(-0.00564276 0.000445304 0.00478933)
(-0.0056822 0.000393173 0.00473649)
(-0.00570411 0.000338832 0.00471666)
(-0.00570742 0.00029323 0.00471605)
(-0.00568058 0.000253933 0.00472814)
(-0.00563401 0.000220559 0.00476003)
(-0.00557363 0.000206491 0.00481275)
(-0.00551365 0.000211322 0.00487668)
(-0.00548343 0.000257007 0.00494176)
(-0.00551749 0.000386159 0.00496698)
(-0.00554193 0.000627099 0.00492016)
(-0.00555056 0.000975968 0.00478451)
(-0.00558907 0.00143463 0.00455836)
(-0.00566686 0.00194433 0.00423257)
(-0.00579006 0.00228245 0.00371976)
(-0.00571549 0.00216051 0.00316681)
(-0.00515573 0.0013929 0.00284473)
(-0.00368622 -5.89947e-05 0.00323079)
(-0.00145434 -0.00206742 0.0047176)
(-0.000583068 -0.00494084 0.00666062)
(-0.00162157 -0.0081417 0.00835303)
(-0.00259622 -0.0124825 0.00755401)
(7.42297e-05 -0.0153701 0.0059862)
(0.00875626 -0.0172622 0.00516648)
(0.0198619 -0.0139059 0.00575178)
(0.0201752 -0.00319058 0.011384)
(0.031992 0.0270183 0.0192186)
(0.0542473 0.0832247 0.0327155)
(0.0631106 0.13139 0.0497319)
(0.0605788 0.157307 0.0484593)
(0.063647 0.16666 0.0566102)
(0.0960932 0.156532 0.0806092)
(0.122715 0.16464 0.0856607)
(0.1014 0.0941734 0.0991582)
(-0.0488907 0.397077 0.0564501)
(0.0225633 -0.320681 0.0313883)
(0.11243 -0.110131 0.166194)
(0.0685081 0.0649649 0.0186727)
(0.0725075 0.0115032 0.0509088)
(0.0267435 0.0148671 0.0198288)
(0.0136822 -0.0137559 0.0248822)
(-0.0186215 -0.00783523 0.0100077)
(-0.030865 -0.00119807 0.0113109)
(-0.034342 0.0128081 0.0107683)
(-0.0327246 0.0334317 0.00538181)
(-0.025364 0.0487235 0.00152242)
(-0.0198368 0.0633946 -0.0107998)
(-0.0240291 0.0818617 -0.0172268)
(-0.0304849 0.0923196 -0.0137749)
(-0.0404792 0.0970669 -0.0120455)
(-0.0478083 0.101259 -0.00787527)
(-0.0526837 0.10594 -0.0019721)
(-0.0554362 0.105829 0.00189677)
(-0.0532589 0.10255 0.00374071)
(-0.0504259 0.0901842 0.0076987)
(-0.0327902 0.0774534 0.018531)
(-0.00856636 0.0580835 0.024802)
(0.018964 0.0347374 0.00742795)
(0.0359515 0.0280152 0.00360509)
(0.047537 0.0228487 0.00926087)
(0.05371 0.0166624 0.0169678)
(0.0543267 0.0116942 0.0189361)
(0.0550413 0.0138442 0.00343595)
(0.0541525 0.0269551 -0.0335748)
(0.0445735 0.054582 -0.0622133)
(0.0403005 0.0824725 -0.0550269)
(0.0353809 0.0835696 -0.00910134)
(0.011244 0.0421461 0.0180433)
(-0.0114624 0.030616 0.0200554)
(-0.0327798 0.020783 0.028364)
(-0.0496478 0.0187572 0.0463291)
(-0.0676417 0.00330466 0.0600825)
(0.0178161 0.0162064 0.00714771)
(0.0307088 0.0303966 0.0113195)
(0.0168494 0.0153273 0.0066034)
(0.0186212 0.0205505 0.00638894)
(0.0107651 0.00611707 0.0045648)
(0.00896853 0.00615117 0.00424249)
(0.00297102 -0.00111085 0.00325158)
(-0.000589941 0.00231279 0.0020166)
(-0.00467847 -0.000628627 0.00252995)
(-0.00680093 -7.71006e-05 0.00339938)
(-0.00806476 -0.00160462 0.00380534)
(-0.00961688 -0.000613466 0.00470337)
(-0.00778137 -0.000367172 0.00583026)
(-0.00510681 0.000285367 0.00698451)
(-0.00341343 0.000262205 0.00783016)
(-0.00298907 0.000593247 0.00847436)
(-0.00311674 0.000714546 0.00871736)
(-0.00368324 0.000982956 0.00868896)
(-0.00417963 0.00110418 0.00844105)
(-0.00456067 0.00123948 0.00815307)
(-0.00485458 0.00125 0.00784934)
(-0.00505818 0.00126492 0.00758799)
(-0.00520399 0.0012329 0.00735689)
(-0.00529911 0.00119244 0.00717313)
(-0.00534039 0.00113485 0.00702573)
(-0.00533608 0.00107533 0.00691997)
(-0.00531119 0.00100957 0.00683972)
(-0.00526273 0.000961221 0.00679027)
(-0.00518598 0.000933682 0.00676378)
(-0.00509365 0.000933884 0.00675199)
(-0.00500163 0.000968739 0.00674711)
(-0.00492608 0.00103913 0.00673783)
(-0.00491082 0.00117681 0.00670723)
(-0.00496396 0.00142577 0.00664282)
(-0.00498511 0.00178262 0.00651845)
(-0.00499184 0.00217951 0.00630317)
(-0.00501707 0.0025394 0.00599084)
(-0.00499928 0.00275156 0.00557221)
(-0.00475329 0.00266652 0.00507292)
(-0.00406442 0.00197818 0.00462883)
(-0.00302878 0.000527836 0.004375)
(-0.00147269 -0.00167028 0.00473249)
(0.000557726 -0.00407025 0.00633777)
(0.00152805 -0.0063422 0.00915415)
(0.000368457 -0.00808097 0.0113667)
(-0.0010182 -0.0114811 0.0109893)
(-0.00019416 -0.0146678 0.00903981)
(0.0052343 -0.0158385 0.00813029)
(0.0113994 -0.0120829 0.00888276)
(0.00463063 -0.00582445 0.0143735)
(0.0030274 0.0111779 0.0380779)
(0.0220371 0.0787721 0.0548256)
(0.0211143 0.121356 0.063571)
(0.03112 0.145738 0.0688248)
(0.0558317 0.157043 0.0734443)
(0.0991675 0.168049 0.0730773)
(0.114753 0.190037 0.0646929)
(0.164587 0.0799179 0.0688643)
(0.20211 0.411507 0.0655336)
(-0.00857979 -0.356902 0.0332128)
(0.0064741 -0.0491502 0.120216)
(0.0271326 0.116036 0.0275736)
(0.0258198 0.0891985 0.0445623)
(0.0239285 0.116865 0.0375881)
(-0.0061659 0.113412 0.0307753)
(-0.0318495 0.0998322 0.0136346)
(-0.047741 0.104759 -0.000512374)
(-0.0586241 0.112108 -0.0136865)
(-0.0559504 0.139818 -0.015188)
(-0.0473748 0.151853 -0.00699541)
(-0.0346165 0.158102 0.00305443)
(-0.0258166 0.157359 0.00881181)
(-0.0217202 0.157431 0.0107506)
(-0.0207805 0.150688 0.00705762)
(-0.0281598 0.140816 -0.00240241)
(-0.0369093 0.130158 -0.0112597)
(-0.0404734 0.116099 -0.0131673)
(-0.0386054 0.103409 -0.0122681)
(-0.0309001 0.0839557 -0.0164709)
(-0.0136449 0.0601524 -0.0207785)
(0.00383774 0.0437909 -0.0218851)
(0.0275118 0.0263406 -0.0139383)
(0.0421228 0.0176729 -0.0126297)
(0.0589819 0.00870125 -0.0128791)
(0.0753164 0.00644611 1.45499e-05)
(0.0763617 -0.00304961 0.0127286)
(0.0641824 0.00102614 0.0135531)
(0.035936 0.00992666 -0.0253172)
(0.0179851 0.0517554 -0.0637533)
(0.0109872 0.114668 -0.0555573)
(0.0163934 0.134731 -0.0226625)
(-0.00119573 0.134894 -0.00183078)
(-0.0166284 0.112991 0.0177814)
(-0.0325 0.101408 0.0305843)
(-0.0547544 0.0639441 0.0398188)
(-0.0672679 0.0272597 0.0455552)
(0.00847156 0.00240344 0.00443281)
(0.0274644 0.0296079 0.00877112)
(0.0124474 0.0108787 0.00396995)
(0.0181378 0.0221842 0.00257581)
(0.0113926 0.00617511 0.00145384)
(0.0081746 0.00632323 0.00141062)
(0.000452131 -0.000728407 -0.000931622)
(-0.0015422 0.00380705 -0.00293918)
(-0.00513524 0.000831921 -0.00298623)
(-0.00742424 0.001753 -0.0011498)
(-0.00874905 -0.000344285 -5.43055e-05)
(-0.0101229 -0.000954151 0.00112141)
(-0.00978183 -0.00236489 0.0020841)
(-0.00846071 -0.0019061 0.00319421)
(-0.00761086 -0.00146662 0.00427813)
(-0.00766177 -0.000564594 0.00514414)
(-0.00813223 9.09336e-07 0.00573087)
(-0.00870434 0.000613856 0.00603017)
(-0.00910455 0.000945942 0.00607784)
(-0.0092325 0.00127062 0.00599173)
(-0.0093006 0.00142331 0.00582817)
(-0.00932081 0.00153547 0.0056656)
(-0.00929409 0.00156167 0.00552485)
(-0.00923671 0.00155069 0.00541195)
(-0.00914865 0.00151134 0.00532219)
(-0.00903789 0.00146831 0.00525514)
(-0.00892175 0.00142671 0.00519937)
(-0.0088003 0.00140043 0.00515517)
(-0.00867115 0.00139798 0.00511886)
(-0.00853982 0.00143812 0.00508314)
(-0.00841501 0.00152038 0.00504312)
(-0.00830411 0.00166208 0.00498786)
(-0.00828799 0.00187133 0.00490688)
(-0.00837151 0.00215162 0.00479408)
(-0.00838314 0.0024933 0.00461465)
(-0.00827591 0.00284018 0.00437327)
(-0.00806279 0.00315098 0.00407531)
(-0.00769776 0.00335445 0.00370031)
(-0.00716234 0.0031055 0.00326953)
(-0.00603906 0.00203391 0.00292116)
(-0.00436101 0.000269258 0.00277915)
(-0.0026138 -0.00222675 0.00303849)
(-0.00139798 -0.00456782 0.00425532)
(-0.0022309 -0.0064395 0.00664011)
(-0.00393631 -0.00791428 0.00896901)
(-0.00443563 -0.0112346 0.00855368)
(-0.00334316 -0.015054 0.00624209)
(-0.00166201 -0.0162384 0.00578244)
(-0.00127755 -0.0122744 0.00641116)
(-0.0144373 -0.0039638 0.0118202)
(-0.0496806 0.00219586 0.034299)
(-0.0254342 0.05503 0.0690687)
(0.0170673 0.0959 0.0744915)
(0.0434794 0.115715 0.0537217)
(0.0605594 0.127804 0.055077)
(0.0836801 0.116112 0.061346)
(0.0741093 0.169508 0.0724934)
(0.132178 0.0397739 0.0600336)
(0.263593 0.437332 -0.0129583)
(0.000405315 -0.327251 0.0329417)
(-0.0733213 -0.121201 0.118737)
(-0.0148492 0.12807 -0.000514232)
(-0.0219212 0.0619132 0.0224937)
(-0.00348049 0.116613 0.00707399)
(-0.0269571 0.122538 -0.00523394)
(-0.0480307 0.136658 -0.0153124)
(-0.0684549 0.143476 -0.0196784)
(-0.0748049 0.152814 -0.0191092)
(-0.0714924 0.157425 -0.00442042)
(-0.0540178 0.148476 0.00621112)
(-0.0431424 0.144568 0.010102)
(-0.040748 0.139142 0.0149802)
(-0.0384293 0.137044 0.0200872)
(-0.0349801 0.128915 0.0197829)
(-0.0357263 0.11879 0.0134482)
(-0.0355755 0.109118 0.00518412)