/*--------------------------------*- C++ -*----------------------------------*\
| =========                 |                                                 |
| \\      /  F ield         | OpenFOAM: The Open Source CFD Toolbox           |
|  \\    /   O peration     | Version:  2.3.0                                 |
|   \\  /    A nd           | Web:      www.OpenFOAM.org                      |
|    \\/     M anipulation  |                                                 |
\*---------------------------------------------------------------------------*/
FoamFile
{
    version     2.0;
    format      ascii;
    class       volScalarField;
    location    "25";
    object      w2;
}
// * * * * * * * * * * * * * * * * * * * * * * * * * * * * * * * * * * * * * //

dimensions      [0 0 0 0 0 0 0];

internalField   nonuniform List<scalar> 
6144
(
0.452838
0.452838
0.452838
0.452838
0.452838
0.452838
0.452838
0.452838
0.452838
0.452838
0.452838
0.452838
0.452838
0.452838
0.452838
0.452838
0.452838
0.452838
0.452838
0.452838
0.452838
0.452838
0.452838
0.452838
0.452838
0.452838
0.452838
0.452838
0.452838
0.452838
0.452838
0.452838
0.452838
0.452838
0.452838
0.452838
0.452838
0.452838
0.452838
0.452838
0.452838
0.452838
0.452838
0.452838
0.452838
0.452838
0.452838
0.452838
0.452838
0.452838
0.452838
0.452838
0.452838
0.452838
0.452838
0.452838
0.45284
0.452957
0.488312
0.474845
0.162136
0.000983831
4.78027e-06
0.000926286
0.00133266
0.12286
0.00592683
0.0145
0.0314688
0.0132024
0.012088
0.0125723
0.0127453
0.013992
0.0147806
0.0153603
0.0177387
0.0188382
0.0218631
0.0253901
0.0316029
0.042465
0.0321845
0.0246515
0.0110232
0.00693288
0.00982257
0.00966249
0.011224
0.00269685
0.000848066
0.00073853
0.00324941
0.00748074
0.0117124
0.000131371
0.452838
0.452838
0.452838
0.452838
0.452838
0.452838
0.452838
0.452838
0.452838
0.452838
0.452838
0.452838
0.452838
0.452838
0.452838
0.452838
0.452838
0.452838
0.452838
0.452838
0.452838
0.452838
0.452838
0.452838
0.452838
0.452838
0.452838
0.452838
0.452838
0.452838
0.452838
0.452838
0.452838
0.452838
0.452838
0.452838
0.452838
0.452838
0.452838
0.452838
0.452838
0.452838
0.452838
0.452838
0.452838
0.452838
0.452838
0.452838
0.452838
0.452838
0.452838
0.452838
0.452838
0.452838
0.452838
0.452838
0.452845
0.453928
0.498421
0.482924
0.170938
0.000576229
5.06492e-06
0.000591953
0.000838392
0.00255437
0.0287541
0.056215
0.0214936
0.0170388
0.0240359
0.0301238
0.0166363
0.0124016
0.0153866
0.0210957
0.0229677
0.0348587
0.0351354
0.0857658
0.150948
0.991058
0.0955201
0.0745119
0.0247287
0.0106975
0.00682096
0.00763446
0.0158121
0.00428865
0.00112139
0.000856053
0.00786714
0.0507443
0.00222867
0.000126542
0.452838
0.452838
0.452838
0.452838
0.452838
0.452838
0.452838
0.452838
0.452838
0.452838
0.452838
0.452838
0.452838
0.452838
0.452838
0.452838
0.452838
0.452838
0.452838
0.452838
0.452838
0.452838
0.452838
0.452838
0.452838
0.452838
0.452838
0.452838
0.452838
0.452838
0.452838
0.452838
0.452838
0.452838
0.452838
0.452838
0.452838
0.452838
0.452838
0.452838
0.452838
0.452838
0.452838
0.452838
0.452838
0.452838
0.452838
0.452838
0.452838
0.452838
0.452838
0.452838
0.452838
0.452838
0.452838
0.452838
0.452839
0.452852
0.464966
0.413515
0.760807
0.000187256
5.35064e-06
0.00053907
0.000937078
0.00355605
0.00287809
0.00515411
0.0086428
0.0162715
0.0438943
0.0864691
0.0181698
0.00938414
0.00735348
0.00914447
0.0177191
0.0331841
0.140429
0.0383552
0.0167045
0.00946911
0.00718312
0.00983577
0.0380889
0.130754
0.0210095
0.0092302
0.00877211
0.0103173
0.00171426
0.00100277
0.00320811
0.0158426
0.00162518
0.000124838
0.452838
0.452838
0.452838
0.452838
0.452838
0.452838
0.452838
0.452838
0.452838
0.452838
0.452838
0.452838
0.452838
0.452838
0.452838
0.452838
0.452838
0.452838
0.452838
0.452838
0.452838
0.452838
0.452838
0.452838
0.452838
0.452838
0.452838
0.452838
0.452838
0.452838
0.452838
0.452838
0.452838
0.452838
0.452838
0.452838
0.452838
0.452838
0.452838
0.452838
0.452838
0.452838
0.452838
0.452838
0.452838
0.452838
0.452838
0.452838
0.452838
0.452838
0.452838
0.452838
0.452838
0.452838
0.452838
0.452838
0.452839
0.452842
0.459635
0.498923
0.863317
1.90323e-05
5.39636e-06
0.00058175
0.00100581
0.000822951
0.0631144
0.00562671
0.000678842
0.000752138
0.0015041
0.00195396
0.000685716
0.000904409
0.00122553
0.00155059
0.0015237
0.00399694
0.00817634
0.784355
0.0141248
0.0205657
0.0347879
0.0388888
0.0811835
0.509396
0.0937828
0.0878206
0.296351
0.0262494
0.00434993
0.00133974
0.0018631
0.0373015
0.00144986
0.00012062
0.452838
0.452838
0.452838
0.452838
0.452838
0.452838
0.452838
0.452838
0.452838
0.452838
0.452838
0.452838
0.452838
0.452838
0.452838
0.452838
0.452838
0.452838
0.452838
0.452838
0.452838
0.452838
0.452838
0.452838
0.452838
0.452838
0.452838
0.452838
0.452838
0.452838
0.452838
0.452838
0.452838
0.452838
0.452838
0.452838
0.452838
0.452838
0.452838
0.452838
0.452838
0.452838
0.452838
0.452838
0.452838
0.452838
0.452838
0.452838
0.452838
0.452838
0.452838
0.452838
0.452839
0.452838
0.452838
0.452838
0.452839
0.452836
0.452887
0.477896
0.119283
0.00182605
0.0022281
0.00956793
0.00066196
0.029068
0.00426262
0.128163
0.00649973
0.0087469
0.0135419
0.00480115
0.00275175
0.000708102
0.000174839
4.51243e-05
8.94276e-06
9.82702e-06
0.000532967
0.000429132
0.000636247
0.000409081
0.000614882
0.00134359
0.00957913
0.0177807
0.0348767
0.0116244
0.0101685
0.00948566
0.0127857
0.00275838
0.00161806
0.00281495
0.00119221
0.00012405
0.452838
0.452838
0.452838
0.452838
0.452838
0.452838
0.452838
0.452838
0.452838
0.452838
0.452838
0.452838
0.452838
0.452838
0.452838
0.452838
0.452838
0.452838
0.452838
0.452838
0.452838
0.452838
0.452838
0.452838
0.452838
0.452838
0.452838
0.452838
0.452838
0.452838
0.452838
0.452838
0.452838
0.452838
0.452838
0.452838
0.452838
0.452838
0.452838
0.452838
0.452838
0.452838
0.452838
0.452838
0.452838
0.452838
0.452838
0.452838
0.452838
0.452838
0.452838
0.452838
0.452839
0.452838
0.452838
0.452838
0.452838
0.452839
0.452847
0.510527
0.0631292
0.0562412
0.310156
0.0643422
0.191411
0.0493225
0.95041
0.187382
0.0138164
0.0520939
0.416821
0.0431052
0.944734
0.100176
0.0128445
0.0210754
0.00523809
0.580687
0.0322175
0.0326089
0.00256958
6.91828e-05
0.000109774
9.18781e-06
1.05668e-05
0.000300504
0.000300621
0.000503434
0.00155073
0.00280285
0.0102806
0.00057889
0.00012414
0.000135426
0.000139929
6.82102e-05
0.452838
0.452838
0.452838
0.452838
0.452838
0.452838
0.452838
0.452838
0.452838
0.452838
0.452838
0.452838
0.452838
0.452838
0.452838
0.452838
0.452838
0.452838
0.452838
0.452838
0.452838
0.452838
0.452838
0.452838
0.452838
0.452838
0.452838
0.452838
0.452838
0.452838
0.452838
0.452838
0.452838
0.452838
0.452838
0.452838
0.452838
0.452838
0.452838
0.452838
0.452838
0.452838
0.452838
0.452838
0.452838
0.452838
0.452838
0.452838
0.452838
0.452838
0.452838
0.452838
0.452839
0.452838
0.452838
0.452838
0.45284
0.452738
0.448439
0.525128
0.0713976
0.735605
0.991183
0.0732972
0.00142296
0.0926749
0.849028
0.000927648
0.669976
0.273162
0.207247
0.562529
0.999939
0.933769
0.111626
0.0353358
0.934227
0.938755
0.106287
0.369205
0.975793
0.999291
0.484051
0.535087
0.400965
0.0165252
0.000616933
0.999958
0.999999
0.999481
0.000405936
0.999999
0.000261727
0.977234
0.366123
0.000198147
0.452838
0.452838
0.452838
0.452838
0.452838
0.452838
0.452838
0.452838
0.452838
0.452838
0.452838
0.452838
0.452838
0.452838
0.452838
0.452838
0.452838
0.452838
0.452838
0.452838
0.452838
0.452838
0.452838
0.452838
0.452838
0.452838
0.452838
0.452838
0.452838
0.452838
0.452838
0.452838
0.452838
0.452838
0.452838
0.452838
0.452838
0.452838
0.452838
0.452838
0.452838
0.452838
0.452838
0.452838
0.452838
0.452838
0.452838
0.452838
0.452838
0.452838
0.452838
0.452838
0.452838
0.452838
0.452838
0.452838
0.452838
0.452911
0.451637
0.502089
0.162097
0.993032
0.999954
0.479004
0.999651
0.787639
0.64472
0.998003
0.922695
0.269792
0.505011
0.974067
0.995845
1.20105e-05
0.00252689
0.977924
0.524918
0.839924
0.261408
0.178646
0.560707
0.998429
0.999913
0.808478
0.996691
0.960312
0.889315
0.999383
0.889441
0.908994
0.0672522
0.612339
0.827392
0.724615
0.501948
0.958087
0.452838
0.452838
0.452838
0.452838
0.452838
0.452838
0.452838
0.452838
0.452838
0.452838
0.452838
0.452838
0.452838
0.452838
0.452838
0.452838
0.452838
0.452838
0.452838
0.452838
0.452838
0.452838
0.452838
0.452838
0.452838
0.452838
0.452838
0.452838
0.452838
0.452838
0.452838
0.452838
0.452838
0.452838
0.452838
0.452838
0.452838
0.452838
0.452838
0.452838
0.452838
0.452838
0.452838
0.452838
0.452838
0.452838
0.452838
0.452838
0.452838
0.452838
0.452838
0.452838
0.452838
0.452839
0.452838
0.452837
0.452882
0.452771
0.464433
0.509247
0.871134
5.34336e-05
0.624004
0.999805
0.00516862
0.74413
0.994464
0.0401711
0.881672
0.999508
0.951081
0.771175
0.891439
0.887565
0.768539
0.994801
0.890173
0.883811
0.535864
0.864121
0.976812
0.662949
0.42137
0.984408
0.866718
0.445837
0.672616
0.568894
0.953428
0.278704
0.488564
0.203796
0.99189
0.999782
0.770799
0.00343231
0.452838
0.452838
0.452838
0.452838
0.452838
0.452838
0.452838
0.452838
0.452838
0.452838
0.452838
0.452838
0.452838
0.452838
0.452838
0.452838
0.452838
0.452838
0.452838
0.452838
0.452838
0.452838
0.452838
0.452838
0.452838
0.452838
0.452838
0.452838
0.452838
0.452838
0.452838
0.452838
0.452838
0.452838
0.452838
0.452838
0.452838
0.452838
0.452838
0.452838
0.452838
0.452838
0.452838
0.452838
0.452838
0.452838
0.452838
0.452838
0.452838
0.452838
0.452838
0.452838
0.452838
0.452838
0.452838
0.452838
0.452842
0.452789
0.452805
0.528915
0.0378566
0.999479
0.85124
0.34283
0.0573067
0.0522109
0.990053
0.88843
0.951072
0.176353
0.231059
0.992302
0.983438
0.976898
0.397637
0.00101148
0.889163
0.951953
0.11401
0.048954
0.990027
0.983317
2.10202e-05
0.0153244
0.996718
0.999999
0.998417
0.131849
0.732315
0.999948
0.134893
0.255893
0.0956732
0.15642
0.176081
0.000103947
0.452838
0.452838
0.452838
0.452838
0.452838
0.452838
0.452838
0.452838
0.452838
0.452838
0.452838
0.452838
0.452838
0.452838
0.452838
0.452838
0.452838
0.452838
0.452838
0.452838
0.452838
0.452838
0.452838
0.452838
0.452838
0.452838
0.452838
0.452838
0.452838
0.452838
0.452838
0.452838
0.452838
0.452838
0.452838
0.452838
0.452838
0.452838
0.452838
0.452838
0.452838
0.452838
0.452838
0.452838
0.452838
0.452838
0.452838
0.452838
0.452838
0.452838
0.452838
0.452838
0.452838
0.452838
0.452839
0.452838
0.452839
0.450055
0.56673
0.511179
0.0930421
0.00426583
0.00533204
0.000758771
0.000292543
4.69376e-05
8.02763e-06
5.53475e-06
0.000380986
0.000141108
8.83091e-06
0.000618188
3.67598e-06
3.92736e-06
1.44617e-05
0.000175444
0.00602321
0.00491702
0.0080679
0.00582687
0.0145374
0.0185205
0.0818567
0.0333353
0.989809
0.0259745
0.00656733
0.0100703
0.0208215
0.00772011
0.00327096
0.000136453
2.08278e-05
1.03057e-05
1.62151e-05
9.42747e-05
0.452838
0.452838
0.452838
0.452838
0.452838
0.452838
0.452838
0.452838
0.452838
0.452838
0.452838
0.452838
0.452838
0.452838
0.452838
0.452838
0.452838
0.452838
0.452838
0.452838
0.452838
0.452838
0.452838
0.452838
0.452838
0.452838
0.452838
0.452838
0.452838
0.452838
0.452838
0.452838
0.452838
0.452838
0.452838
0.452838
0.452838
0.452838
0.452838
0.452838
0.452838
0.452838
0.452838
0.452838
0.452838
0.452838
0.452838
0.452838
0.452838
0.452838
0.452838
0.452838
0.452838
0.452838
0.452838
0.452838
0.452839
0.452868
0.450837
0.45214
0.138353
5.17939e-06
3.45513e-06
0.00161693
0.000146685
0.00131673
0.0052627
0.0028836
0.00338334
0.0084825
0.00303649
0.000349776
0.00315184
0.00222743
0.0032945
0.000897189
0.000558413
0.000323311
0.000217554
0.000156112
0.000120207
0.000117079
0.000138782
0.000173448
0.000302398
0.000723929
0.00035877
0.000570532
0.000155459
0.000120114
0.00040537
0.000727905
0.000367601
0.000419607
0.0216174
0.000133502
0.452838
0.452838
0.452838
0.452838
0.452838
0.452838
0.452838
0.452838
0.452838
0.452838
0.452838
0.452838
0.452838
0.452838
0.452838
0.452838
0.452838
0.452838
0.452838
0.452838
0.452838
0.452838
0.452838
0.452838
0.452838
0.452838
0.452838
0.452838
0.452838
0.452838
0.452838
0.452838
0.452838
0.452838
0.452838
0.452838
0.452838
0.452838
0.452838
0.452838
0.452838
0.452838
0.452838
0.452838
0.452838
0.452838
0.452838
0.452838
0.452838
0.452838
0.452838
0.452838
0.452838
0.452838
0.452838
0.452838
0.452841
0.452842
0.452906
0.554713
0.148725
9.85248e-06
2.99364e-06
0.000860465
0.000666799
0.00100229
0.00194252
0.00176151
0.00168476
0.00180811
0.00418112
0.0205013
0.018308
0.00837469
0.0114942
0.00331492
0.00659307
0.00808973
0.0120004
0.00777258
0.022204
0.00604837
0.00462944
0.00408348
0.0044358
0.0315523
0.0157107
0.00656873
0.00110902
0.00127243
0.00591529
0.00169443
0.001005
0.00430617
0.00396042
0.000127018
0.452838
0.452838
0.452838
0.452838
0.452838
0.452838
0.452838
0.452838
0.452838
0.452838
0.452838
0.452838
0.452838
0.452838
0.452838
0.452838
0.452838
0.452838
0.452838
0.452838
0.452838
0.452838
0.452838
0.452838
0.452838
0.452838
0.452838
0.452838
0.452838
0.452838
0.452838
0.452838
0.452838
0.452838
0.452838
0.452838
0.452838
0.452838
0.452838
0.452838
0.452838
0.452838
0.452838
0.452838
0.452838
0.452838
0.452838
0.452838
0.452838
0.452838
0.452838
0.452838
0.452838
0.452838
0.452838
0.452838
0.452841
0.452843
0.452931
0.526302
0.189235
1.101e-05
2.64986e-06
0.000179568
0.000416779
0.00340573
0.000864622
0.0012795
0.00354899
0.00796803
0.00407508
0.00298323
0.00291208
0.00215769
0.00312081
0.0136989
0.00577479
0.00887399
0.0071674
0.00213442
0.00324527
0.0236596
0.00576503
0.00309749
0.00338085
0.00592904
0.00295409
0.0037454
0.0260547
0.00317507
0.0009603
0.00156401
0.00487622
0.00530276
0.00125824
0.000122923
0.452838
0.452838
0.452838
0.452838
0.452838
0.452838
0.452838
0.452838
0.452838
0.452838
0.452838
0.452838
0.452838
0.452838
0.452838
0.452838
0.452838
0.452838
0.452838
0.452838
0.452838
0.452838
0.452838
0.452838
0.452838
0.452838
0.452838
0.452838
0.452838
0.452838
0.452838
0.452838
0.452838
0.452838
0.452838
0.452838
0.452838
0.452838
0.452838
0.452838
0.452838
0.452838
0.452838
0.452838
0.452838
0.452838
0.452838
0.452838
0.452838
0.452838
0.452838
0.452838
0.452838
0.452838
0.452838
0.452838
0.452842
0.452843
0.456584
0.567582
0.0939797
0.000856176
2.65002e-06
0.000177738
0.000640692
0.000815256
0.0122771
0.0117204
0.00578253
0.0021519
0.00213285
0.00306554
0.00330458
0.00673054
0.0788849
0.0104355
0.00367455
0.00395278
0.00144121
0.000992024
0.00124051
0.00272231
0.0111186
0.00569276
0.0271595
0.00570013
0.00451368
0.00248162
0.037126
0.0059116
0.00800832
0.0014723
0.00098029
0.00391254
0.00160344
0.0001173
0.452838
0.452838
0.452838
0.452838
0.452838
0.452838
0.452838
0.452838
0.452838
0.452838
0.452838
0.452838
0.452838
0.452838
0.452838
0.452838
0.452838
0.452838
0.452838
0.452838
0.452838
0.452838
0.452838
0.452838
0.452838
0.452838
0.452838
0.452838
0.452838
0.452838
0.452838
0.452838
0.452838
0.452838
0.452838
0.452838
0.452838
0.452838
0.452838
0.452838
0.452838
0.452838
0.452838
0.452838
0.452838
0.452838
0.452838
0.452838
0.452838
0.452838
0.452838
0.452838
0.452838
0.452838
0.452838
0.452838
0.452842
0.453065
0.48702
0.495397
0.183464
0.95399
7.56258e-06
3.56662e-06
0.00128933
0.0174788
0.14787
0.00275181
0.00206399
0.00267419
0.00431761
0.00452299
0.00531222
0.00474644
0.00585628
0.0133397
0.00882211
0.0116397
0.00165437
0.00114294
0.00160132
0.00391737
0.0240816
0.00250474
0.0139714
0.0193194
0.00165447
0.00176654
0.00749078
0.00225534
0.00451685
0.0349571
0.010575
0.00327533
0.000646599
0.000106422
0.452838
0.452838
0.452838
0.452838
0.452838
0.452838
0.452838
0.452838
0.452838
0.452838
0.452838
0.452838
0.452838
0.452838
0.452838
0.452838
0.452838
0.452838
0.452838
0.452838
0.452838
0.452838
0.452838
0.452838
0.452838
0.452838
0.452838
0.452838
0.452838
0.452838
0.452838
0.452838
0.452838
0.452838
0.452838
0.452838
0.452838
0.452838
0.452838
0.452838
0.452838
0.452838
0.452838
0.452838
0.452838
0.452838
0.452838
0.452838
0.452838
0.452838
0.452838
0.452838
0.452838
0.452838
0.452838
0.452838
0.452839
0.454443
0.493526
0.493519
0.187197
0.00517446
6.87075e-06
7.77935e-06
0.00125525
0.0351143
0.0123551
0.191272
0.0084759
0.0108331
0.0161833
0.046379
0.347853
0.20346
0.091923
0.0830403
0.0411106
0.0434693
0.0571742
0.0753124
0.168749
0.219388
0.0739955
0.109499
0.089749
0.0256057
0.02868
0.0135931
0.0141736
0.00443315
0.0390913
0.0101999
0.00595472
0.00179844
0.000634798
0.000107378
0.452838
0.452838
0.452838
0.452838
0.452838
0.452838
0.452838
0.452838
0.452838
0.452838
0.452838
0.452838
0.452838
0.452838
0.452838
0.452838
0.452838
0.452838
0.452838
0.452838
0.452838
0.452838
0.452838
0.452838
0.452838
0.452838
0.452838
0.452838
0.452838
0.452838
0.452838
0.452838
0.452838
0.452838
0.452838
0.452838
0.452838
0.452838
0.452838
0.452838
0.452838
0.452838
0.452838
0.452838
0.452838
0.452838
0.452838
0.452838
0.452838
0.452838
0.452838
0.452838
0.452838
0.452838
0.452838
0.452838
0.45284
0.452874
0.452639
0.496884
0.152868
0.000479954
5.3727e-06
0.000426163
0.00118691
0.00199538
0.0119364
0.0155675
0.00834834
0.00706301
0.00762176
0.00997472
0.0137365
0.0155854
0.0164739
0.0136528
0.0122019
0.0167896
0.022193
0.019937
0.0220399
0.0248827
0.0438962
0.0739221
0.0298447
0.0182573
0.0110641
0.0161138
0.0261952
0.0186796
0.00790195
0.0135004
0.0103982
0.00200989
0.00067334
0.00011411
0.452838
0.452838
0.452838
0.452838
0.452838
0.452838
0.452838
0.452838
0.452838
0.452838
0.452838
0.452838
0.452838
0.452838
0.452838
0.452838
0.452838
0.452838
0.452838
0.452838
0.452838
0.452838
0.452838
0.452838
0.452838
0.452838
0.452838
0.452838
0.452838
0.452838
0.452838
0.452838
0.452838
0.452838
0.452838
0.452838
0.452838
0.452838
0.452838
0.452838
0.452838
0.452838
0.452838
0.452838
0.452838
0.452838
0.452838
0.452838
0.452838
0.452838
0.452838
0.452838
0.452838
0.452838
0.452838
0.452838
0.452839
0.452842
0.436189
0.525222
0.32969
1
0.00134477
0.00122611
0.00027995
0.00269479
0.00314433
0.0048583
0.00538862
0.00642566
0.00284158
0.00206859
0.0176923
0.0161798
0.0163504
0.0154561
0.0137252
0.0136125
0.0245355
0.0954767
0.0916894
0.0251483
0.00852072
0.00534899
0.00780674
0.0291176
0.0255446
0.00822867
0.0079651
0.0275182
0.05533
0.0122111
0.088238
0.00217972
0.000683984
0.000115153
0.452838
0.452838
0.452838
0.452838
0.452838
0.452838
0.452838
0.452838
0.452838
0.452838
0.452838
0.452838
0.452838
0.452838
0.452838
0.452838
0.452838
0.452838
0.452838
0.452838
0.452838
0.452838
0.452838
0.452838
0.452838
0.452838
0.452838
0.452838
0.452838
0.452838
0.452838
0.452838
0.452838
0.452838
0.452838
0.452838
0.452838
0.452838
0.452838
0.452838
0.452838
0.452838
0.452838
0.452838
0.452838
0.452838
0.452838
0.452838
0.452838
0.452838
0.452838
0.452838
0.452838
0.452839
0.452839
0.452838
0.452839
0.452834
0.453068
0.480681
0.639595
0.999994
0.0118578
3.1932e-05
0.0016175
9.06611e-06
0.00360874
0.00143693
0.000511998
9.90815e-06
1.24601e-05
1.14359e-05
7.90697e-06
0.00048649
0.00233099
0.00927023
0.00276616
0.0048075
0.0149605
0.002027
0.0100177
0.000809404
0.163307
0.0139308
0.0205657
0.0407691
0.0152994
0.011221
0.0148315
0.0326236
0.0267668
0.0530644
0.0356141
0.00227547
0.000649827
0.000115607
0.452838
0.452838
0.452838
0.452838
0.452838
0.452838
0.452838
0.452838
0.452838
0.452838
0.452838
0.452838
0.452838
0.452838
0.452838
0.452838
0.452838
0.452838
0.452838
0.452838
0.452838
0.452838
0.452838
0.452838
0.452838
0.452838
0.452838
0.452838
0.452838
0.452838
0.452838
0.452838
0.452838
0.452838
0.452838
0.452838
0.452838
0.452838
0.452838
0.452838
0.452838
0.452838
0.452838
0.452838
0.452838
0.452838
0.452838
0.452838
0.452838
0.452838
0.452838
0.452838
0.452839
0.452838
0.452838
0.452838
0.452838
0.452853
0.452979
0.509922
0.204759
0.998961
0.987066
0.0126782
0.0575324
0.102632
0.030162
0.993396
0.115439
0.0679293
0.0747115
0.0319958
0.0193638
0.996735
0.00398493
0.0228215
0.0122738
0.00126412
6.80447e-05
8.02043e-06
3.1373e-05
0.00129827
1.12514e-05
0.0144126
0.00184844
0.00288047
0.00299946
0.00355488
0.00339038
0.00443448
0.00910373
0.0570365
0.302935
0.0036307
0.000724508
0.000119024
0.452838
0.452838
0.452838
0.452838
0.452838
0.452838
0.452838
0.452838
0.452838
0.452838
0.452838
0.452838
0.452838
0.452838
0.452838
0.452838
0.452838
0.452838
0.452838
0.452838
0.452838
0.452838
0.452838
0.452838
0.452838
0.452838
0.452838
0.452838
0.452838
0.452838
0.452838
0.452838
0.452838
0.452838
0.452838
0.452838
0.452838
0.452838
0.452838
0.452838
0.452838
0.452838
0.452838
0.452838
0.452838
0.452838
0.452838
0.452838
0.452838
0.452838
0.452838
0.452838
0.452839
0.452838
0.452838
0.452837
0.452838
0.452838
0.45284
0.551606
0.959556
0.143576
0.0348067
0.964513
0.858739
0.132394
0.720168
0.994905
0.970169
0.996246
0.0310651
0.969185
0.973941
0.940161
0.349997
0.917703
0.924707
0.923611
0.789946
0.0343421
0.0150794
0.995984
0.239519
0.0105569
0.51417
2.23306e-05
5.38401e-06
0.00060114
0.000334887
0.000410452
0.000988494
0.000614477
0.00033999
0.000172536
0.000101336
4.22638e-05
0.452838
0.452838
0.452838
0.452838
0.452838
0.452838
0.452838
0.452838
0.452838
0.452838
0.452838
0.452838
0.452838
0.452838
0.452838
0.452838
0.452838
0.452838
0.452838
0.452838
0.452838
0.452838
0.452838
0.452838
0.452838
0.452838
0.452838
0.452838
0.452838
0.452838
0.452838
0.452838
0.452838
0.452838
0.452838
0.452838
0.452838
0.452838
0.452838
0.452838
0.452838
0.452838
0.452838
0.452838
0.452838
0.452838
0.452838
0.452838
0.452838
0.452838
0.452838
0.452838
0.452839
0.452838
0.452838
0.452839
0.452841
0.452925
0.461326
0.570223
0.139652
0.569232
0.865269
0.463975
0.855938
0.291596
0.411574
0.723185
0.556266
0.858861
0.426585
0.444258
0.755014
0.219515
0.761805
0.374857
0.459806
0.618375
0.3484
0.668877
0.367673
0.0915384
0.741116
0.978654
0.926958
0.304323
0.871288
0.158707
0.095336
0.156396
0.100641
0.446901
0.599347
0.119299
0.234326
0.0129819
0.452838
0.452838
0.452838
0.452838
0.452838
0.452838
0.452838
0.452838
0.452838
0.452838
0.452838
0.452838
0.452838
0.452838
0.452838
0.452838
0.452838
0.452838
0.452838
0.452838
0.452838
0.452838
0.452838
0.452838
0.452838
0.452838
0.452838
0.452838
0.452838
0.452838
0.452838
0.452838
0.452838
0.452838
0.452838
0.452838
0.452838
0.452838
0.452838
0.452838
0.452838
0.452838
0.452838
0.452838
0.452838
0.452838
0.452838
0.452838
0.452838
0.452838
0.452838
0.452838
0.452838
0.452838
0.452839
0.452838
0.452839
0.453293
0.454326
0.570033
0.188405
0.999973
0.380456
0.521032
0.721659
0.273907
0.279853
0.789183
0.447077
0.305466
0.633049
0.553321
0.648124
0.3364
0.543871
0.318692
0.558482
0.23912
0.515328
0.198572
0.697021
0.705499
0.651356
0.653657
0.252233
0.240019
0.520013
0.470719
0.454231
0.434307
0.370487
0.275793
0.175114
0.990944
0.994654
0.999806
0.452838
0.452838
0.452838
0.452838
0.452838
0.452838
0.452838
0.452838
0.452838
0.452838
0.452838
0.452838
0.452838
0.452838
0.452838
0.452838
0.452838
0.452838
0.452838
0.452838
0.452838
0.452838
0.452838
0.452838
0.452838
0.452838
0.452838
0.452838
0.452838
0.452838
0.452838
0.452838
0.452838
0.452838
0.452838
0.452838
0.452838
0.452838
0.452838
0.452838
0.452838
0.452838
0.452838
0.452838
0.452838
0.452838
0.452838
0.452838
0.452838
0.452838
0.452838
0.452838
0.452838
0.452838
0.452839
0.452838
0.452839
0.452865
0.449363
0.520385
0.296095
0.915399
0.606049
0.386254
0.999263
0.785119
0.389699
0.237631
0.156307
0.434378
0.998922
0.368975
0.584681
0.431714
0.829288
0.41358
0.999998
0.903125
0.673158
0.698686
0.966884
0.964513
0.846033
0.860623
0.911656
0.997065
0.900844
0.465664
0.474328
0.466058
0.598334
0.380469
0.538626
0.540575
0.96295
0.912564
0.452838
0.452838
0.452838
0.452838
0.452838
0.452838
0.452838
0.452838
0.452838
0.452838
0.452838
0.452838
0.452838
0.452838
0.452838
0.452838
0.452838
0.452838
0.452838
0.452838
0.452838
0.452838
0.452838
0.452838
0.452838
0.452838
0.452838
0.452838
0.452838
0.452838
0.452838
0.452838
0.452838
0.452838
0.452838
0.452838
0.452838
0.452838
0.452838
0.452838
0.452838
0.452838
0.452838
0.452838
0.452838
0.452838
0.452838
0.452838
0.452838
0.452838
0.452838
0.452838
0.452838
0.452838
0.452838
0.452838
0.452839
0.452843
0.452781
0.52238
0.0316266
0.126431
0.145062
0.00881422
0.0289302
0.129686
0.0998007
0.0173093
0.0255626
0.0611362
0.118136
0.102512
0.0525008
0.0320344
0.0195812
0.0058306
0.0203245
0.0460114
0.934826
0.952023
0.289881
0.417742
0.999991
0.590438
0.0158093
0.798016
0.734221
0.397698
0.893115
0.261625
0.802702
0.211957
0.810656
0.035772
0.0621408
0.00189158
0.452838
0.452838
0.452838
0.452838
0.452838
0.452838
0.452838
0.452838
0.452838
0.452838
0.452838
0.452838
0.452838
0.452838
0.452838
0.452838
0.452838
0.452838
0.452838
0.452838
0.452838
0.452838
0.452838
0.452838
0.452838
0.452838
0.452838
0.452838
0.452838
0.452838
0.452838
0.452838
0.452838
0.452838
0.452838
0.452838
0.452838
0.452838
0.452838
0.452838
0.452838
0.452838
0.452838
0.452838
0.452838
0.452838
0.452838
0.452838
0.452838
0.452838
0.452838
0.452838
0.452838
0.452838
0.452838
0.452838
0.452839
0.452849
0.434734
0.554966
0.348928
0.999984
0.000128845
9.64677e-06
7.04997e-06
0.00035177
0.000483437
0.000455105
6.91325e-06
1.30907e-05
7.51219e-05
0.000337911
0.0002449
0.000478364
0.0187194
0.00192375
0.00621462
0.011528
0.00206894
0.00166723
0.001369
0.00111346
0.00112161
0.00152972
0.00110619
0.00232383
0.000350149
5.02827e-05
7.55599e-06
3.71349e-06
0.000188636
0.000157087
1.86576e-05
0.000365842
3.09421e-05
0.000147228
0.452838
0.452838
0.452838
0.452838
0.452838
0.452838
0.452838
0.452838
0.452838
0.452838
0.452838
0.452838
0.452838
0.452838
0.452838
0.452838
0.452838
0.452838
0.452838
0.452838
0.452838
0.452838
0.452838
0.452838
0.452838
0.452838
0.452838
0.452838
0.452838
0.452838
0.452838
0.452838
0.452838
0.452838
0.452838
0.452838
0.452838
0.452838
0.452838
0.452838
0.452838
0.452838
0.452838
0.452838
0.452838
0.452838
0.452838
0.452838
0.452838
0.452838
0.452838
0.452838
0.452838
0.452838
0.452838
0.452838
0.45284
0.452841
0.446501
0.499338
0.6353
0.999998
0.000107044
5.2841e-06
0.000929323
0.00834128
0.0017684
0.00419118
0.00698046
0.000639478
0.000377854
0.000335174
0.000246393
0.000230116
0.000333428
0.000440317
0.00107911
0.00301419
0.000409878
0.000206192
0.000145631
0.000137712
0.000145762
0.000151956
0.000196171
0.00156447
0.000188915
0.000118258
0.000138703
0.000553387
0.000399566
0.0019226
0.001944
0.000296577
0.000725243
0.000119276
0.452838
0.452838
0.452838
0.452838
0.452838
0.452838
0.452838
0.452838
0.452838
0.452838
0.452838
0.452838
0.452838
0.452838
0.452838
0.452838
0.452838
0.452838
0.452838
0.452838
0.452838
0.452838
0.452838
0.452838
0.452838
0.452838
0.452838
0.452838
0.452838
0.452838
0.452838
0.452838
0.452838
0.452838
0.452838
0.452838
0.452838
0.452838
0.452838
0.452838
0.452838
0.452838
0.452838
0.452838
0.452838
0.452838
0.452838
0.452838
0.452838
0.452838
0.452838
0.452838
0.452838
0.452838
0.452838
0.452838
0.45284
0.452838
0.453067
0.527889
0.289182
0.00213048
0.000912442
0.00655243
0.000883519
0.00431093
0.00508181
0.00221211
0.00131236
0.000968075
0.000847673
0.000817818
0.000909387
0.00110952
0.00125688
0.00214065
0.00504775
0.00923118
0.00900429
0.00626216
0.00190696
0.151387
0.00402707
0.00315683
0.00505786
0.00944943
0.0269257
0.0447124
0.00313587
0.00160958
0.000785297
0.00050375
0.00136428
0.00237763
0.000576517
0.000102455
0.452838
0.452838
0.452838
0.452838
0.452838
0.452838
0.452838
0.452838
0.452838
0.452838
0.452838
0.452838
0.452838
0.452838
0.452838
0.452838
0.452838
0.452838
0.452838
0.452838
0.452838
0.452838
0.452838
0.452838
0.452838
0.452838
0.452838
0.452838
0.452838
0.452838
0.452838
0.452838
0.452838
0.452838
0.452838
0.452838
0.452838
0.452838
0.452838
0.452838
0.452838
0.452838
0.452838
0.452838
0.452838
0.452838
0.452838
0.452838
0.452838
0.452838
0.452838
0.452838
0.452838
0.452838
0.452838
0.452838
0.452841
0.452814
0.454771
0.504559
0.4905
4.74539e-05
0.000416237
0.000268225
0.000842796
0.00510956
0.00376644
0.0127792
0.0038961
0.00236581
0.00225038
0.00192881
0.00151935
0.00165712
0.00148669
0.0015021
0.00203745
0.00290282
0.00795228
0.00215883
0.000867544
0.00167319
0.00707812
0.00339925
0.00131014
0.00129397
0.00147166
0.00248246
0.0190415
0.0708859
0.00173737
0.001539
0.00103511
0.00203443
0.001129
0.000108665
0.452838
0.452838
0.452838
0.452838
0.452838
0.452838
0.452838
0.452838
0.452838
0.452838
0.452838
0.452838
0.452838
0.452838
0.452838
0.452838
0.452838
0.452838
0.452838
0.452838
0.452838
0.452838
0.452838
0.452838
0.452838
0.452838
0.452838
0.452838
0.452838
0.452838
0.452838
0.452838
0.452838
0.452838
0.452838
0.452838
0.452838
0.452838
0.452838
0.452838
0.452838
0.452838
0.452838
0.452838
0.452838
0.452838
0.452838
0.452838
0.452838
0.452838
0.452838
0.452838
0.452838
0.452838
0.452838
0.452838
0.452842
0.453438
0.490031
0.365282
0.556798
0.0018299
4.61254e-06
0.000382993
0.000462347
0.000436425
0.00101915
0.0017071
0.00169124
0.00195263
0.00313403
0.00737634
0.00877391
0.0211921
0.0111778
0.00223386
0.00494537
0.0045464
0.00342776
0.00619157
0.00131185
0.0046433
0.00208257
0.00300576
0.00621913
0.00866545
0.00201567
0.00150124
0.00283063
0.0205942
0.00770223
0.315244
0.00351566
0.00556185
0.000857491
0.000109903
0.452838
0.452838
0.452838
0.452838
0.452838
0.452838
0.452838
0.452838
0.452838
0.452838
0.452838
0.452838
0.452838
0.452838
0.452838
0.452838
0.452838
0.452838
0.452838
0.452838
0.452838
0.452838
0.452838
0.452838
0.452838
0.452838
0.452838
0.452838
0.452838
0.452838
0.452838
0.452838
0.452838
0.452838
0.452838
0.452838
0.452838
0.452838
0.452838
0.452838
0.452838
0.452838
0.452838
0.452838
0.452838
0.452838
0.452838
0.452838
0.452838
0.452838
0.452838
0.452838
0.452838
0.452838
0.452838
0.452839
0.452841
0.453008
0.460376
0.550512
0.184365
0.0487615
1.19307e-05
2.89133e-06
0.000780582
0.00364042
0.00150693
0.00303891
0.00722308
0.00313304
0.00288044
0.0039444
0.0172947
0.0152942
0.00615198
0.00452186
0.00273344
0.00623582
0.0130594
0.00175668
0.000862094
0.00518247
0.00451885
0.00259161
0.00439452
0.800128
0.00519864
0.0018499
0.0067021
0.0290924
0.0228883
0.00598702
0.00754942
0.00276656
0.000654096
0.00010431