/*--------------------------------*- C++ -*----------------------------------*\
| =========                 |                                                 |
| \\      /  F ield         | OpenFOAM: The Open Source CFD Toolbox           |
|  \\    /   O peration     | Version:  2.3.0                                 |
|   \\  /    A nd           | Web:      www.OpenFOAM.org                      |
|    \\/     M anipulation  |                                                 |
\*---------------------------------------------------------------------------*/
FoamFile
{
    version     2.0;
    format      ascii;
    class       volScalarField;
    location    "55";
    object      alpha.air;
}
// * * * * * * * * * * * * * * * * * * * * * * * * * * * * * * * * * * * * * //

dimensions      [0 0 0 0 0 0 0];

internalField   nonuniform List<scalar> 
6144
(
0.999996
0.999996
0.999995
0.999995
0.999994
0.999993
0.999992
0.999991
0.99999
0.99999
0.99999
0.99999
0.99999
0.99999
0.99999
0.99999
0.99999
0.99999
0.99999
0.99999
0.99999
0.99999
0.99999
0.99999
0.99999
0.99999
0.99999
0.99999
0.99999
0.99999
0.99999
0.99999
0.99999
0.99999
0.99999
0.99999
0.99999
0.99999
0.99999
0.99999
0.99999
0.99999
0.99999
0.999988
0.999984
0.999978
0.999969
0.999954
0.999929
0.999906
0.999891
0.999873
0.999873
0.999873
0.999873
0.999873
0.999874
0.999873
0.99778
0.911479
0.0183583
6.72872e-05
4.66344e-07
4.66356e-07
4.67801e-07
4.70948e-07
4.71956e-07
4.71066e-07
4.72226e-07
4.75842e-07
4.75155e-07
4.75619e-07
4.79782e-07
4.85815e-07
4.95535e-07
5.13523e-07
5.43739e-07
5.66894e-07
5.69248e-07
5.66088e-07
5.63094e-07
5.64722e-07
5.67555e-07
5.677e-07
5.6709e-07
5.65674e-07
5.65338e-07
5.64107e-07
5.61831e-07
5.55745e-07
5.47061e-07
5.36627e-07
5.27038e-07
4.88055e-07
3.92e-07
3.89539e-07
0.999997
0.999996
0.999995
0.999995
0.999994
0.999993
0.999992
0.999991
0.99999
0.99999
0.99999
0.99999
0.99999
0.99999
0.99999
0.99999
0.99999
0.99999
0.99999
0.99999
0.99999
0.99999
0.99999
0.99999
0.99999
0.99999
0.99999
0.99999
0.99999
0.99999
0.99999
0.99999
0.99999
0.99999
0.99999
0.99999
0.99999
0.99999
0.99999
0.99999
0.99999
0.99999
0.99999
0.999989
0.999985
0.999979
0.999971
0.999958
0.99994
0.999924
0.999895
0.99987
0.999865
0.999863
0.999864
0.999866
0.999871
0.999866
0.998783
0.93098
0.0176597
4.56136e-05
4.66333e-07
4.66344e-07
4.67154e-07
4.82566e-07
4.83453e-07
4.97641e-07
5.07589e-07
5.06422e-07
5.17924e-07
5.32839e-07
5.50868e-07
5.6667e-07
5.7111e-07
5.74145e-07
5.80998e-07
5.82355e-07
5.76508e-07
5.68877e-07
5.66615e-07
5.67082e-07
5.68149e-07
5.64952e-07
5.54821e-07
5.42401e-07
5.27998e-07
5.19521e-07
5.23013e-07
5.36269e-07
5.4522e-07
5.44463e-07
5.39835e-07
5.04758e-07
4.0376e-07
3.95629e-07
0.999997
0.999996
0.999995
0.999995
0.999994
0.999993
0.999992
0.999991
0.999991
0.99999
0.99999
0.99999
0.99999
0.99999
0.99999
0.99999
0.99999
0.99999
0.99999
0.99999
0.99999
0.99999
0.99999
0.99999
0.99999
0.99999
0.99999
0.99999
0.99999
0.99999
0.99999
0.99999
0.99999
0.99999
0.99999
0.99999
0.99999
0.99999
0.99999
0.99999
0.99999
0.99999
0.99999
0.999989
0.999986
0.999982
0.999977
0.999969
0.999958
0.999939
0.999896
0.999865
0.999858
0.999858
0.999859
0.999861
0.999866
0.99986
0.99908
0.921405
0.0149997
3.21892e-05
4.66343e-07
4.66356e-07
4.68768e-07
5.94028e-07
5.02963e-07
4.69265e-07
4.69287e-07
4.69848e-07
4.97148e-07
5.0719e-07
5.49956e-07
6.10036e-07
6.67449e-07
7.02451e-07
7.54007e-07
7.17404e-07
6.87596e-07
6.48522e-07
6.12054e-07
5.34163e-07
4.8318e-07
4.577e-07
4.42108e-07
4.43796e-07
4.37733e-07
4.59259e-07
4.77107e-07
5.01597e-07
5.34803e-07
5.43683e-07
5.41892e-07
5.0413e-07
4.03491e-07
3.98479e-07
0.999997
0.999997
0.999996
0.999995
0.999994
0.999993
0.999992
0.999991
0.999991
0.99999
0.99999
0.99999
0.99999
0.99999
0.99999
0.99999
0.99999
0.99999
0.99999
0.99999
0.99999
0.99999
0.99999
0.99999
0.99999
0.99999
0.99999
0.99999
0.99999
0.99999
0.99999
0.99999
0.99999
0.99999
0.99999
0.99999
0.99999
0.99999
0.99999
0.99999
0.99999
0.99999
0.999989
0.999988
0.999986
0.999983
0.999979
0.999973
0.999967
0.999944
0.999891
0.999861
0.999856
0.999857
0.999858
0.999859
0.999865
0.999858
0.999363
0.878657
0.00598101
1.09686e-05
1.69297e-06
8.12131e-07
4.92703e-07
8.05534e-07
1.42598e-06
1.7022e-06
1.06585e-06
6.74958e-07
5.78216e-07
5.69654e-07
2.11062e-06
2.79182e-06
2.08523e-06
2.04017e-06
1.84579e-06
1.20344e-06
7.69455e-07
6.74257e-07
6.19479e-07
4.64891e-07
4.39684e-07
4.41081e-07
4.31507e-07
4.07481e-07
3.9402e-07
4.40347e-07
4.80174e-07
4.98879e-07
5.21863e-07
5.37399e-07
5.34298e-07
4.68581e-07
3.97274e-07
3.991e-07
0.999997
0.999997
0.999996
0.999995
0.999994
0.999993
0.999992
0.999991
0.999991
0.99999
0.99999
0.99999
0.99999
0.99999
0.99999
0.99999
0.99999
0.99999
0.99999
0.99999
0.99999
0.99999
0.99999
0.99999
0.99999
0.99999
0.99999
0.99999
0.99999
0.99999
0.99999
0.99999
0.99999
0.99999
0.99999
0.99999
0.99999
0.99999
0.99999
0.99999
0.99999
0.99999
0.999989
0.999988
0.999986
0.999983
0.999978
0.999974
0.999968
0.999941
0.999882
0.999857
0.99986
0.999861
0.999864
0.999862
0.999865
0.99986
0.999516
0.845314
0.00568254
0.000164324
0.000127878
0.000117049
0.000122581
0.000120923
0.000123207
0.000119637
0.000112047
0.000109407
0.000131001
0.000164266
0.000198603
0.000222507
0.000229066
0.000205399
0.000173544
0.000131168
8.94852e-05
5.38465e-05
2.87478e-05
1.32259e-05
5.24896e-06
1.6166e-06
5.14732e-07
3.61195e-07
3.60813e-07
3.60438e-07
4.36068e-07
4.97505e-07
5.10971e-07
5.17981e-07
4.90749e-07
4.25156e-07
4.04042e-07
4.01556e-07
0.999997
0.999997
0.999996
0.999996
0.999995
0.999994
0.999993
0.999992
0.999991
0.999991
0.99999
0.99999
0.99999
0.99999
0.99999
0.99999
0.99999
0.99999
0.99999
0.99999
0.99999
0.99999
0.99999
0.99999
0.99999
0.99999
0.99999
0.99999
0.99999
0.99999
0.99999
0.99999
0.99999
0.99999
0.99999
0.99999
0.99999
0.99999
0.99999
0.99999
0.99999
0.99999
0.999989
0.999988
0.999985
0.999982
0.999978
0.999973
0.999966
0.999937
0.999875
0.999857
0.999863
0.999862
0.999865
0.999859
0.999863
0.999844
0.999416
0.83843
0.0308506
0.00204103
0.00205716
0.00198918
0.00220459
0.00226243
0.00224369
0.00217177
0.00205853
0.00195284
0.00191131
0.00212984
0.00245137
0.00275964
0.00291857
0.00295622
0.00276146
0.00251115
0.00213552
0.00170319
0.00129054
0.000886389
0.000537286
0.000253045
8.25652e-05
1.65664e-05
1.48681e-06
3.08713e-07
3.74194e-07
4.15888e-07
4.4042e-07
4.40318e-07
4.19973e-07
4.0301e-07
4.00988e-07
3.68492e-07
0.999997
0.999997
0.999997
0.999996
0.999995
0.999994
0.999993
0.999992
0.999991
0.999991
0.99999
0.99999
0.99999
0.99999
0.99999
0.99999
0.99999
0.99999
0.99999
0.99999
0.99999
0.99999
0.99999
0.99999
0.99999
0.99999
0.99999
0.99999
0.99999
0.99999
0.99999
0.99999
0.99999
0.99999
0.99999
0.99999
0.99999
0.99999
0.99999
0.99999
0.99999
0.99999
0.999989
0.999988
0.999985
0.999982
0.999978
0.999972
0.999964
0.999934
0.99987
0.999858
0.999856
0.999855
0.999855
0.999854
0.999859
0.999765
0.999097
0.873357
0.0403441
0.00727076
0.00840655
0.00880541
0.00945527
0.00982006
0.00988932
0.0098844
0.00950667
0.0091844
0.00878756
0.00861446
0.00925625
0.010001
0.0106128
0.0108422
0.0108038
0.0103948
0.00988643
0.00913802
0.00825693
0.00709891
0.00580794
0.0043713
0.00288265
0.00157174
0.000620454
0.000150628
2.05499e-06
3.07505e-07
3.07504e-07
3.07504e-07
3.07504e-07
3.07504e-07
3.07505e-07
2.87777e-06
0.999997
0.999997
0.999997
0.999996
0.999995
0.999994
0.999993
0.999992
0.999991
0.999991
0.99999
0.99999
0.99999
0.99999
0.99999
0.99999
0.99999
0.99999
0.99999
0.99999
0.99999
0.99999
0.99999
0.99999
0.99999
0.99999
0.99999
0.99999
0.99999
0.99999
0.99999
0.99999
0.99999
0.99999
0.99999
0.99999
0.99999
0.99999
0.99999
0.99999
0.99999
0.99999
0.999989
0.999988
0.999986
0.999982
0.999977
0.99997
0.99996
0.999929
0.999865
0.999854
0.999853
0.999852
0.999855
0.999855
0.999859
0.999792
0.9993
0.882692
0.039241
0.0117727
0.0134799
0.013873
0.0144477
0.0150526
0.0154609
0.0158211
0.0159905
0.0161379
0.016303
0.0163908
0.016499
0.0166857
0.0168865
0.0170462
0.0170552
0.0166068
0.0160945
0.0154941
0.0147319
0.0139189
0.0132617
0.0128339
0.0125527
0.0123221
0.0122277
0.0122369
0.0128036
0.0134965
0.0146116
0.0160822
0.0179272
0.019534
0.0202977
0.0171067
0.999997
0.999997
0.999997
0.999997
0.999996
0.999995
0.999993
0.999993
0.999992
0.999991
0.99999
0.99999
0.99999
0.99999
0.99999
0.99999
0.99999
0.99999
0.99999
0.99999
0.99999
0.99999
0.99999
0.99999
0.99999
0.99999
0.99999
0.99999
0.99999
0.99999
0.99999
0.99999
0.99999
0.99999
0.99999
0.99999
0.99999
0.99999
0.99999
0.99999
0.99999
0.99999
0.999989
0.999988
0.999986
0.999982
0.999976
0.999967
0.999956
0.999927
0.999869
0.999846
0.999851
0.999858
0.999868
0.999875
0.999879
0.999836
0.999499
0.902962
0.0372369
0.00947243
0.00997609
0.00940929
0.00927532
0.00955004
0.0103395
0.01132
0.0123088
0.0131268
0.0136589
0.0139841
0.0141652
0.0142041
0.0139544
0.0138357
0.0138467
0.0141165
0.014207
0.0138431
0.0135592
0.013312
0.0132275
0.0131556
0.0138436
0.014634
0.0153599
0.0159268
0.0162807
0.0163847
0.0165074
0.0165558
0.0154662
0.0132852
0.0093458
0.00507755
0.999998
0.999997
0.999997
0.999997
0.999996
0.999995
0.999993
0.999993
0.999992
0.999991
0.99999
0.99999
0.99999
0.99999
0.99999
0.99999
0.99999
0.99999
0.99999
0.99999
0.99999
0.99999
0.99999
0.99999
0.99999
0.99999
0.99999
0.99999
0.99999
0.99999
0.99999
0.99999
0.99999
0.99999
0.99999
0.99999
0.99999
0.99999
0.99999
0.99999
0.99999
0.99999
0.999989
0.999988
0.999986
0.999981
0.999974
0.999964
0.999951
0.99993
0.999881
0.999841
0.999847
0.999865
0.999877
0.99988
0.999881
0.999784
0.999457
0.942168
0.0425353
0.0037612
0.00313665
0.00227387
0.00190885
0.00173649
0.00203378
0.00237622
0.00273487
0.00300635
0.00312949
0.00313588
0.00284211
0.00254928
0.00231031
0.00222196
0.00248415
0.00266739
0.00280146
0.00303846
0.00334426
0.00396429
0.00493198
0.00608107
0.00740518
0.0086345
0.00952845
0.0100695
0.0103704
0.0103063
0.0090142
0.0076136
0.00550109
0.00330761
0.00155403
0.000695618
0.999998
0.999998
0.999998
0.999997
0.999996
0.999995
0.999993
0.999992
0.999992
0.999991
0.99999
0.99999
0.99999
0.99999
0.99999
0.99999
0.99999
0.99999
0.99999
0.99999
0.99999
0.99999
0.99999
0.99999
0.99999
0.99999
0.99999
0.99999
0.99999
0.99999
0.99999
0.99999
0.99999
0.99999
0.99999
0.99999
0.99999
0.99999
0.99999
0.99999
0.99999
0.99999
0.99999
0.999988
0.999985
0.99998
0.999973
0.999962
0.999945
0.99993
0.999895
0.999847
0.99984
0.999854
0.999872
0.999868
0.999874
0.999837
0.99975
0.968251
0.0503244
0.000622472
0.000281012
0.000146082
8.68251e-05
6.40136e-05
6.05071e-05
7.86903e-05
9.65691e-05
0.000112377
0.000116986
9.86432e-05
8.53011e-05
8.01918e-05
9.03552e-05
0.000112529
0.000141071
0.000175577
0.000216305
0.000275556
0.000372861
0.000529798
0.000779496
0.00113333
0.00154628
0.00190164
0.00211259
0.0021996
0.00212305
0.00186216
0.00131637
0.000826033
0.000406406
0.000166642
5.78166e-05
2.40755e-05
0.999998
0.999998
0.999998
0.999998
0.999997
0.999996
0.999994
0.999992
0.999992
0.999991
0.99999
0.99999
0.99999
0.99999
0.99999
0.99999
0.99999
0.99999
0.99999
0.99999
0.99999
0.99999
0.99999
0.99999
0.99999
0.99999
0.99999
0.99999
0.99999
0.99999
0.99999
0.99999
0.99999
0.99999
0.99999
0.99999
0.99999
0.99999
0.99999
0.99999
0.99999
0.99999
0.999989
0.999987
0.999984
0.999979
0.999973
0.999961
0.999938
0.999923
0.999904
0.999864
0.999841
0.999841
0.999847
0.999847
0.999875
0.999876
0.999788
0.979682
0.0518086
0.000213414
4.91966e-06
1.7711e-06
1.03636e-06
1.16992e-06
8.9166e-07
9.88419e-07
7.61009e-07
5.39381e-07
5.39375e-07
5.3938e-07
5.39385e-07
5.39395e-07
5.39405e-07
5.39416e-07
5.8847e-07
1.42059e-06
2.57603e-06
3.68743e-06
7.6001e-06
1.61231e-05
3.15787e-05
5.5326e-05
7.9136e-05
9.05155e-05
8.78763e-05
7.38016e-05
6.47844e-05
4.79158e-05
2.51075e-05
1.07681e-05
3.68346e-06
1.42911e-06
1.06423e-06
1.01514e-06
0.999998
0.999998
0.999998
0.999998
0.999997
0.999996
0.999995
0.999993
0.999991
0.999991
0.99999
0.99999
0.99999
0.99999
0.99999
0.99999
0.99999
0.99999
0.99999
0.99999
0.99999
0.99999
0.99999
0.99999
0.99999
0.99999
0.99999
0.99999
0.99999
0.99999
0.99999
0.99999
0.99999
0.99999
0.99999
0.99999
0.99999
0.99999
0.99999
0.99999
0.99999
0.99999
0.999989
0.999987
0.999983
0.999979
0.999973
0.99996
0.999933
0.999913
0.999901
0.999881
0.999852
0.999842
0.999846
0.999857
0.99989
0.999874
0.999681
0.978635
0.0642474
0.000412372
1.01066e-06
4.99439e-07
4.9944e-07
4.9944e-07
4.99837e-07
5.10109e-07
5.54316e-07
5.82746e-07
6.06315e-07
6.05544e-07
5.96372e-07
5.88119e-07
5.8315e-07
5.72868e-07
5.59476e-07
5.57073e-07
5.3613e-07
5.36083e-07
5.36175e-07
5.36265e-07
5.36355e-07
5.36442e-07
5.36529e-07
6.58797e-07
1.40377e-06
1.05111e-06
6.2985e-07
8.83472e-07
8.64584e-07
5.28283e-07
4.32659e-07
3.71755e-07
3.31237e-07
3.19692e-07
0.999998
0.999998
0.999998
0.999998
0.999998
0.999997
0.999996
0.999993
0.999991
0.999991
0.99999
0.99999
0.99999
0.99999
0.99999
0.99999
0.99999
0.99999
0.99999
0.99999
0.99999
0.99999
0.99999
0.99999
0.99999
0.99999
0.99999
0.99999
0.99999
0.99999
0.99999
0.99999
0.99999
0.99999
0.99999
0.99999
0.99999
0.99999
0.99999
0.99999
0.99999
0.99999
0.999989
0.999987
0.999983
0.999979
0.999973
0.999959
0.99993
0.999909
0.999896
0.999881
0.99986
0.999861
0.999866
0.999878
0.999884
0.999797
0.999558
0.965209
0.0689947
0.00049109
1.00612e-06
4.99439e-07
4.99853e-07
5.03075e-07
5.04729e-07
5.08302e-07
5.23971e-07
5.4977e-07
5.73759e-07
5.98334e-07
5.98351e-07
5.94244e-07
5.87358e-07
5.73877e-07
5.52959e-07
5.50609e-07
5.42396e-07
5.35999e-07
5.36978e-07
5.51114e-07
5.87382e-07
5.76807e-07
5.47125e-07
5.43658e-07
5.54009e-07
5.92611e-07
6.21903e-07
6.54479e-07
6.22978e-07
5.57903e-07
4.80796e-07
4.20972e-07
3.61847e-07
3.1294e-07
0.999998
0.999997
0.999997
0.999997
0.999998
0.999997
0.999996
0.999994
0.999992
0.999991
0.99999
0.99999
0.99999
0.99999
0.99999
0.99999
0.99999
0.99999
0.99999
0.99999
0.99999
0.99999
0.99999
0.99999
0.99999
0.99999
0.99999
0.99999
0.99999
0.99999
0.99999
0.99999
0.99999
0.99999
0.99999
0.99999
0.99999
0.99999
0.99999
0.99999
0.99999
0.99999
0.999989
0.999987
0.999983
0.999978
0.999972
0.999957
0.999929
0.99991
0.9999
0.999892
0.999888
0.999895
0.999897
0.999883
0.999861
0.999715
0.999338
0.955119
0.0637417
0.000448819
1.04866e-06
4.99439e-07
4.99847e-07
5.0274e-07
5.05771e-07
5.07768e-07
5.12035e-07
5.1852e-07
5.28627e-07
5.47637e-07
5.45505e-07
5.4001e-07
5.32457e-07
5.27108e-07
5.24292e-07
5.32544e-07
5.25236e-07
5.187e-07
5.23353e-07
5.48324e-07
5.81558e-07
5.32745e-07
4.96876e-07
5.14396e-07
5.4958e-07
5.67087e-07
5.91276e-07
6.12673e-07
6.05293e-07
6.02789e-07
5.93076e-07
5.69492e-07
4.74205e-07
3.43292e-07
0.999998
0.999998
0.999998
0.999997
0.999997
0.999997
0.999996
0.999994
0.999992
0.99999
0.99999
0.99999
0.99999
0.99999
0.99999
0.99999
0.99999
0.99999
0.99999
0.99999
0.99999
0.99999
0.99999
0.99999
0.99999
0.99999
0.99999
0.99999
0.99999
0.99999
0.99999
0.99999
0.99999
0.99999
0.99999
0.99999
0.99999
0.99999
0.99999
0.99999
0.99999
0.99999
0.999989
0.999987
0.999983
0.999977
0.999969
0.999953
0.999931
0.999914
0.999908
0.999905
0.999903
0.999901
0.999902
0.999888
0.999892
0.999737
0.998922
0.94147
0.0491148
0.000298662
9.35492e-07
4.9944e-07
5.0215e-07
5.04496e-07
5.05371e-07
5.06466e-07
5.07066e-07
5.09321e-07
5.13676e-07
5.17952e-07
5.17482e-07
5.17035e-07
5.15704e-07
5.13808e-07
5.13893e-07
5.24099e-07
5.17147e-07
5.10451e-07
5.17192e-07
5.48819e-07
5.74303e-07
5.13083e-07
4.78374e-07
5.0651e-07
5.5228e-07
5.79476e-07
5.98999e-07
6.10634e-07
6.12112e-07
6.18025e-07
6.2058e-07
6.22375e-07
5.86884e-07
4.47479e-07
0.999997
0.999996
0.999995
0.999995
0.999994
0.999993
0.999992
0.999991
0.99999
0.99999
0.99999
0.99999
0.99999
0.99999
0.99999
0.99999
0.99999
0.99999
0.99999
0.99999
0.99999
0.99999
0.99999
0.99999
0.99999
0.99999
0.99999
0.99999
0.99999
0.99999
0.99999
0.99999
0.99999
0.99999
0.99999
0.99999
0.99999
0.99999
0.99999
0.99999
0.99999
0.99999
0.99999
0.999988
0.999984
0.999978
0.999969
0.999955
0.999929
0.999909
0.999899
0.999884
0.999879
0.999873
0.999869
0.999867
0.999868
0.999857
0.998618
0.932563
0.0262932
0.000114989
4.66334e-07
4.66344e-07
4.67496e-07
4.69101e-07
4.70367e-07
4.70613e-07
4.71226e-07
4.71869e-07
4.71331e-07
4.70827e-07
4.71393e-07
4.734e-07
4.7762e-07
4.85787e-07
5.00827e-07
5.23293e-07
5.45315e-07
5.49823e-07
5.48558e-07
5.48615e-07
5.48952e-07
5.48287e-07
5.46537e-07
5.43213e-07
5.38231e-07
5.31075e-07
5.21808e-07
5.13384e-07
5.11054e-07
5.11625e-07
5.15554e-07
5.08815e-07
4.85737e-07
4.48293e-07
0.999997
0.999996
0.999995
0.999994
0.999993
0.999993
0.999992
0.999991
0.999991
0.99999
0.99999
0.99999
0.99999
0.99999
0.99999
0.99999
0.99999
0.99999
0.99999
0.99999
0.99999
0.99999
0.99999
0.99999
0.99999
0.99999
0.99999
0.99999
0.99999
0.99999
0.99999
0.99999
0.99999
0.99999
0.99999
0.99999
0.99999
0.99999
0.99999
0.99999
0.99999
0.99999
0.99999
0.999989
0.999985
0.99998
0.99997
0.999953
0.999933
0.999919
0.999911
0.999892
0.999874
0.999863
0.999861
0.99986
0.999864
0.99985
0.999365
0.906984
0.00901661
7.887e-06
4.66323e-07
4.73467e-07
4.68789e-07
4.6689e-07
4.67057e-07
4.69238e-07
4.74667e-07
4.79875e-07
4.84769e-07
4.92597e-07
4.94175e-07
4.99255e-07
5.06407e-07
5.09633e-07
5.14607e-07
5.21625e-07
5.21414e-07
5.21804e-07
5.27806e-07
5.39652e-07
5.48669e-07
5.49111e-07
5.46303e-07
5.39742e-07
5.32067e-07
5.29507e-07
5.30723e-07
5.30248e-07
5.2881e-07
5.24726e-07
5.24497e-07
5.18558e-07
4.96658e-07
4.60782e-07
0.999998
0.999997
0.999995
0.999994
0.999993
0.999993
0.999992
0.999991
0.999991
0.999991
0.99999
0.99999
0.99999
0.99999
0.99999
0.99999
0.99999
0.99999
0.99999
0.99999
0.99999
0.99999
0.99999
0.99999
0.99999
0.99999
0.99999
0.99999
0.99999
0.99999
0.99999
0.99999
0.99999
0.99999
0.99999
0.99999
0.99999
0.99999
0.99999
0.99999
0.99999
0.99999
0.999989
0.999988
0.999986
0.999982
0.999976
0.999965
0.999949
0.999931
0.999913
0.999883
0.999859
0.999857
0.999858
0.999858
0.999861
0.999846
0.999496
0.867634
0.00705511
9.33413e-07
9.37018e-07
5.21504e-07
5.18545e-07
5.31137e-07
4.95071e-07
4.69242e-07
4.69265e-07
4.69287e-07
4.69311e-07
4.76238e-07
5.44032e-07
6.28776e-07
6.98492e-07
6.82792e-07
6.74547e-07
6.58949e-07
6.38877e-07
6.41068e-07
6.30653e-07
5.93087e-07
5.29689e-07
4.8399e-07
4.62569e-07
4.64562e-07
4.6694e-07
4.76962e-07
4.85795e-07
4.97669e-07
5.12321e-07
5.19532e-07
5.25246e-07
5.19539e-07
4.97694e-07
4.62282e-07
0.999998
0.999998
0.999996
0.999995
0.999994
0.999993
0.999993
0.999992
0.999991
0.999991
0.99999
0.99999
0.99999
0.99999
0.99999
0.99999
0.99999
0.99999
0.99999
0.99999
0.99999
0.99999
0.99999
0.99999
0.99999
0.99999
0.99999
0.99999
0.99999
0.99999
0.99999
0.99999
0.99999
0.99999
0.99999
0.99999
0.99999
0.99999
0.99999
0.99999
0.99999
0.99999
0.999989
0.999987
0.999985
0.999982
0.999977
0.99997
0.999959
0.999938
0.99991
0.999868
0.999854
0.999857
0.999862
0.999859
0.999865
0.999831
0.999583
0.780105
0.000488977
3.1898e-05
2.1345e-05
1.38314e-05
1.09375e-05
7.52221e-06
5.27266e-06
3.7668e-06
3.14745e-06
3.12983e-06
3.38459e-06
3.57447e-06
2.45586e-06
1.17928e-06
8.9101e-07
9.19734e-07
1.13408e-06
1.16557e-06
9.90643e-07
8.03771e-07
5.71323e-07
4.6824e-07
4.45219e-07
4.54258e-07
4.57892e-07
4.70143e-07
4.79517e-07
4.81647e-07
4.8602e-07
4.83235e-07
4.88691e-07
5.04262e-07
5.20904e-07
5.05812e-07
4.8125e-07
4.55774e-07
0.999998
0.999998
0.999997
0.999996
0.999995
0.999994
0.999993
0.999992
0.999991
0.999991
0.99999
0.99999
0.99999
0.99999
0.99999
0.99999
0.99999
0.99999
0.99999
0.99999
0.99999
0.99999
0.99999
0.99999
0.99999
0.99999
0.99999
0.99999
0.99999
0.99999
0.99999
0.99999
0.99999
0.99999
0.99999
0.99999
0.99999
0.99999
0.99999
0.99999
0.99999
0.99999
0.999989
0.999987
0.999985
0.999981
0.999975
0.999969
0.999961
0.99994
0.999901
0.999856
0.999852
0.999861
0.999863
0.999856
0.999844
0.999788
0.999665
0.727191
0.00318699
0.00138734
0.00119882
0.00103463
0.000908804
0.000748254
0.000589079
0.000460309
0.000371987
0.00032695
0.000314531
0.0003247
0.000319655
0.000256037
0.000200886
0.000144043
9.771e-05
6.04308e-05
3.34077e-05
1.58741e-05
6.90974e-06
2.88044e-06
1.27022e-06
8.60922e-07
7.561e-07
4.83993e-07
5.69826e-07
4.77193e-07
4.86146e-07
4.79346e-07
4.90768e-07
5.02791e-07
5.01907e-07
4.79642e-07
4.71342e-07
4.50061e-07
0.999998
0.999998
0.999997
0.999996
0.999995
0.999994
0.999993
0.999992
0.999991
0.999991
0.99999
0.99999
0.99999
0.99999
0.99999
0.99999
0.99999
0.99999
0.99999
0.99999
0.99999
0.99999
0.99999
0.99999
0.99999
0.99999
0.99999
0.99999
0.99999
0.99999
0.99999
0.99999
0.99999
0.99999
0.99999
0.99999
0.99999
0.99999
0.99999
0.99999
0.99999
0.99999
0.999989
0.999988
0.999985
0.999981
0.999974
0.999967
0.999958
0.999935
0.999886
0.999852
0.999852
0.99986
0.99986
0.999842
0.999814
0.999772
0.999755
0.642557
0.0136602
0.00939355
0.00915899
0.00889773
0.00858005
0.00799536
0.00718919
0.00644739
0.00571733
0.00512347
0.00469462
0.00453554
0.00451077
0.00442392
0.00408423
0.00362054
0.00297319
0.00231221
0.0016758
0.00110891
0.000684429
0.00036809
0.000171566
7.47658e-05
3.34402e-05
1.31412e-05
4.92125e-06
2.13486e-06
1.00688e-06
6.85028e-07
3.8829e-07
4.51206e-07
4.50798e-07
4.42025e-07
4.62726e-07
4.39459e-07
0.999998
0.999998
0.999998
0.999997
0.999995
0.999994
0.999993
0.999992
0.999991
0.999991
0.99999
0.99999
0.99999
0.99999
0.99999
0.99999
0.99999
0.99999
0.99999
0.99999
0.99999
0.99999
0.99999
0.99999
0.99999
0.99999
0.99999
0.99999
0.99999
0.99999
0.99999
0.99999
0.99999
0.99999
0.99999
0.99999
0.99999
0.99999
0.99999
0.99999
0.99999
0.99999
0.999989
0.999988
0.999985
0.999981
0.999974
0.999964
0.999954
0.999927
0.99987
0.999855
0.999856
0.999856
0.999846
0.999819
0.999789
0.999754
0.99971
0.755643
0.0276905
0.016705
0.017224
0.0174403
0.0176835
0.0178409
0.0173865
0.0170931
0.0168148
0.0163922
0.0158993
0.0155971
0.0155044
0.0156461
0.0157373
0.0158173
0.0149112
0.0137865
0.0125361
0.0111228
0.0095545
0.00774237
0.00582349
0.00409212
0.00283548
0.00186023
0.00117947
0.000786375
0.000480616
0.000355126
0.000341851
0.000436634
0.000491853
0.000589539
0.000800418
0.00109191
0.999998
0.999999
0.999998
0.999997
0.999996
0.999995
0.999993
0.999992
0.999991
0.999991
0.99999
0.99999
0.99999
0.99999
0.99999
0.99999
0.99999
0.99999
0.99999
0.99999
0.99999
0.99999
0.99999
0.99999
0.99999
0.99999
0.99999
0.99999
0.99999
0.99999
0.99999
0.99999
0.99999
0.99999
0.99999
0.99999
0.99999
0.99999
0.99999
0.99999
0.99999
0.99999
0.999989
0.999988
0.999986
0.99998
0.999972
0.99996
0.999947
0.99992
0.999864
0.99985
0.999848
0.999839
0.999821
0.999799
0.999774
0.999734
0.999654
0.831469
0.0339299
0.0151248
0.0163333
0.0167931
0.0173962
0.0182828
0.0191518
0.0199536
0.0206766
0.0210867
0.0213613
0.0217894
0.0222426
0.0226948
0.0230606
0.0234557
0.0240228
0.0246776
0.0256528
0.0267423
0.0279713
0.0288444
0.0290754
0.027562
0.0263292
0.025498
0.0252157
0.0257317
0.0259613
0.0290996
0.0338952
0.0410041
0.0513157
0.0713676
0.121467
0.3255
0.999998
0.999999
0.999998
0.999998
0.999997
0.999995
0.999993
0.999992
0.999991
0.999991
0.99999
0.99999
0.99999
0.99999
0.99999
0.99999
0.99999
0.99999
0.99999
0.99999
0.99999
0.99999
0.99999
0.99999
0.99999
0.99999
0.99999
0.99999
0.99999
0.99999
0.99999
0.99999
0.99999
0.99999
0.99999
0.99999
0.99999
0.99999
0.99999
0.99999
0.99999
0.99999
0.999989
0.999988
0.999986
0.99998
0.99997
0.999956
0.999939
0.999923
0.99987
0.999843
0.999844
0.999833
0.999824
0.999818
0.999825
0.999804
0.999793
0.870246
0.025406
0.00597335
0.00563539
0.00507134
0.00499862
0.00619764
0.00708652
0.00823812
0.00945862
0.0105394
0.0113686
0.0118577
0.0120653
0.0125122
0.0135696
0.0150406
0.0171735
0.0199058
0.0230802
0.0261506
0.0291138
0.0320638
0.0355938
0.0388809
0.0415166
0.0444162
0.0480418
0.0520603
0.055426
0.0580472
0.0603902
0.0639426
0.0691054
0.0760427
0.0829859
0.0844064
0.999998
0.999999
0.999999
0.999998
0.999998
0.999996
0.999994
0.999992
0.999991
0.999991
0.99999
0.99999
0.99999
0.99999
0.99999
0.99999
0.99999
0.99999
0.99999
0.99999
0.99999
0.99999
0.99999
0.99999
0.99999
0.99999
0.99999
0.99999
0.99999
0.99999
0.99999
0.99999
0.99999
0.99999
0.99999
0.99999
0.99999
0.99999
0.99999
0.99999
0.99999
0.99999
0.999989
0.999988
0.999986
0.99998
0.999969
0.999954
0.999935
0.999923
0.999887
0.999847
0.999843
0.999843
0.999839
0.999846
0.999862
0.999817
0.999781
0.913467
0.014525
0.000982742
0.000808759
0.000611047
0.000576671
0.000762679
0.000939784
0.00119552
0.00143109
0.00157657
0.00158729
0.00138869
0.00134257
0.00144905
0.00170557
0.00216664
0.00290812
0.00395393
0.00513965
0.00614706
0.00741717
0.00928959
0.0117624
0.0150236
0.0189848
0.0232723
0.0273976
0.0313216
0.0349633
0.0372262
0.0379911
0.0353848
0.0312729
0.0239218
0.0135729
0.00614964
0.999998
0.999999
0.999999
0.999999
0.999998
0.999997
0.999994
0.999992
0.999991
0.999991
0.99999
0.99999
0.99999
0.99999
0.99999
0.99999
0.99999
0.99999
0.99999
0.99999
0.99999
0.99999
0.99999
0.99999
0.99999
0.99999
0.99999
0.99999
0.99999
0.99999
0.99999
0.99999
0.99999
0.99999
0.99999
0.99999
0.99999
0.99999
0.99999
0.99999
0.99999
0.99999
0.999989
0.999988
0.999985
0.999979
0.999968
0.999951
0.999932
0.999917
0.999901
0.999868
0.999845
0.999846
0.999848
0.999849
0.999867
0.99987
0.999888
0.937596
0.0120539
5.29609e-05
4.69542e-05
2.69899e-05
2.44133e-05
2.8536e-05
3.23049e-05
4.01213e-05
5.0682e-05
5.88399e-05
6.07314e-05
5.71253e-05
6.53099e-05
7.9901e-05
0.000107744
0.000154234
0.000228732
0.000347186
0.000505795
0.000665864
0.000846662
0.00109957
0.00143478
0.00182223
0.00220288
0.00250466
0.00267773
0.0029055
0.00323799
0.00335939
0.00339808
0.00270523
0.00187791
0.00099242
0.000336695
0.000107062
0.999998
0.999999
0.999999
0.999999
0.999999
0.999997
0.999995
0.999993
0.999991
0.999991
0.99999
0.99999
0.99999
0.99999
0.99999
0.99999
0.99999
0.99999
0.99999
0.99999
0.99999
0.99999
0.99999
0.99999
0.99999
0.99999
0.99999
0.99999
0.99999
0.99999
0.99999
0.99999
0.99999
0.99999
0.99999
0.99999
0.99999
0.99999
0.99999
0.99999
0.99999
0.99999
0.999989
0.999988
0.999985
0.999979
0.999967
0.999949
0.999929
0.999915
0.999907
0.999895
0.999857
0.999852
0.999859
0.999865
0.999887
0.999882
0.999858
0.960764
0.0279002
5.00993e-07
2.09442e-06
5.68248e-07
1.64432e-06
2.89506e-06
2.28389e-06
1.30671e-06
1.18498e-06
1.32543e-06
1.55599e-06
1.76564e-06
2.11059e-06
2.60067e-06
3.56219e-06
5.56597e-06
9.11288e-06
1.48898e-05
2.12527e-05
2.57082e-05
3.069e-05
3.72959e-05
4.51127e-05
5.1967e-05
5.49684e-05
5.09599e-05
3.60304e-05
2.39219e-05
1.79962e-05
1.58235e-05
1.37677e-05
9.15317e-06
5.44687e-06
3.10444e-06
1.42695e-06
9.28377e-07
0.999998
0.999999
0.999999
0.999999
0.999999
0.999998
0.999996
0.999994
0.999991
0.999991
0.99999
0.99999
0.99999
0.99999
0.99999
0.99999
0.99999
0.99999
0.99999
0.99999
0.99999
0.99999
0.99999
0.99999
0.99999
0.99999
0.99999
0.99999
0.99999
0.99999
0.99999
0.99999
0.99999
0.99999
0.99999
0.99999
0.99999
0.99999
0.99999
0.99999
0.99999
0.99999
0.999989
0.999988
0.999985
0.999979
0.999968
0.99995
0.99993
0.999913
0.999903
0.999897
0.999888
0.999876
0.999881
0.999876
0.99989
0.999849
0.99975
0.97438
0.0485557
5.00994e-07
5.75542e-07
5.55636e-07
5.15868e-07
5.07209e-07
4.99871e-07
5.1407e-07
5.18477e-07
5.39104e-07
5.87951e-07
6.01855e-07
5.62411e-07
5.48643e-07
5.48314e-07
5.4798e-07
5.4765e-07
6.06955e-07
6.51963e-07
6.41829e-07
6.54159e-07
6.45141e-07
6.61263e-07
6.93081e-07
7.73155e-07
8.65956e-07
9.74704e-07
1.05229e-06
8.8089e-07
8.06656e-07
7.26497e-07
5.37398e-07
4.6134e-07
4.155e-07
3.60749e-07
3.05883e-07
0.999998
0.999998
0.999998
0.999998
0.999999
0.999999
0.999998
0.999996
0.999992
0.999991
0.99999
0.99999
0.99999
0.99999
0.99999
0.99999
0.99999
0.99999
0.99999
0.99999
0.99999
0.99999
0.99999
0.99999
0.99999
0.99999
0.99999
0.99999
0.99999
0.99999
0.99999
0.99999
0.99999
0.99999
0.99999
0.99999
0.99999
0.99999
0.99999
0.99999
0.99999
0.99999
0.999989
0.999987
0.999985
0.99998
0.999969
0.999951
0.99993
0.999915
0.999904
0.999898
0.999897
0.999886
0.999893
0.999888
0.999874
0.999697
0.999656
0.93958
0.029506
1.23797e-05
5.00993e-07
5.65021e-07
5.71616e-07
5.7058e-07
5.35786e-07
5.08683e-07
5.08595e-07
5.10401e-07
5.39142e-07
5.85542e-07
5.84918e-07
5.72233e-07
5.56518e-07
5.50893e-07
5.47321e-07
5.60919e-07
4.95286e-07
5.02022e-07
5.48029e-07
5.70838e-07
5.79722e-07
5.72518e-07
5.55565e-07
5.51437e-07
5.5569e-07
6.00364e-07
6.55269e-07
6.445e-07
6.23366e-07
5.91829e-07
5.37827e-07
4.80536e-07
3.89405e-07
3.10098e-07
0.999998
0.999998
0.999998
0.999998
0.999999
0.999999
0.999999
0.999998
0.999994
0.99999
0.99999
0.99999
0.99999
0.99999
0.99999
0.99999
0.99999
0.99999
0.99999
0.99999
0.99999
0.99999
0.99999
0.99999
0.99999
0.99999
0.99999
0.99999
0.99999
0.99999
0.99999
0.99999
0.99999
0.99999
0.99999
0.99999
0.99999
0.99999
0.99999
0.99999
0.99999
0.99999
0.999989
0.999987
0.999984
0.999979
0.999969
0.999953
0.999931
0.999916
0.999907
0.999901
0.9999
0.999898
0.999895
0.999883
0.999774
0.999544
0.999535
0.946097
0.0343259
3.09214e-05
5.00993e-07
5.44634e-07
5.70247e-07
5.66351e-07
5.48023e-07
5.25627e-07
5.13752e-07
5.04136e-07
5.02662e-07
5.0461e-07
5.05116e-07
5.09574e-07
5.11357e-07
5.14965e-07
5.31342e-07
5.54474e-07
4.88533e-07
4.78567e-07
5.03835e-07
5.13705e-07
5.15337e-07
4.97434e-07
4.94864e-07
5.16827e-07
5.56773e-07
5.91657e-07
6.0914e-07
6.15086e-07
6.0554e-07
6.1003e-07
6.06852e-07
5.69645e-07
4.62316e-07
3.45126e-07
0.999998
0.999998
0.999998
0.999997
0.999998
0.999998
0.999998
0.999998
0.999995
0.999991
0.99999
0.99999
0.99999
0.99999
0.99999
0.99999
0.99999
0.99999
0.99999
0.99999
0.99999
0.99999
0.99999
0.99999
0.99999
0.99999
0.99999
0.99999
0.99999
0.99999
0.99999
0.99999
0.99999
0.99999
0.99999
0.99999
0.99999
0.99999
0.99999
0.99999
0.99999
0.99999
0.999989
0.999987
0.999984
0.999977
0.999968
0.999952
0.999932
0.999916
0.999908
0.999904
0.999903
0.999897
0.999896
0.999875
0.99988
0.999647
0.999148
0.954731
0.0457829
0.000188087
5.00994e-07
5.13036e-07
5.20943e-07
5.2602e-07
5.28612e-07
5.26528e-07
5.21286e-07
5.15395e-07
5.11731e-07
5.08184e-07
5.0535e-07
5.04442e-07
5.04068e-07
5.05734e-07
5.2127e-07
5.47191e-07
4.66318e-07
4.45863e-07