/*--------------------------------*- C++ -*----------------------------------*\
| =========                 |                                                 |
| \\      /  F ield         | OpenFOAM: The Open Source CFD Toolbox           |
|  \\    /   O peration     | Version:  2.3.0                                 |
|   \\  /    A nd           | Web:      www.OpenFOAM.org                      |
|    \\/     M anipulation  |                                                 |
\*---------------------------------------------------------------------------*/
FoamFile
{
    version     2.0;
    format      ascii;
    class       surfaceScalarField;
    location    "55";
    object      phi;
}
// * * * * * * * * * * * * * * * * * * * * * * * * * * * * * * * * * * * * * //

dimensions      [0 3 -1 0 0 0 0];

internalField   nonuniform List<scalar> 
16448
(
-1.41959e-06
-2.47573e-06
6.10476e-07
3.62723e-07
-2.56615e-06
7.83834e-07
4.00915e-07
-1.21089e-06
1.17269e-06
3.35653e-07
-1.00835e-06
1.0736e-06
-2.2984e-08
-5.17936e-07
8.7656e-07
-1.58106e-07
-6.66497e-07
8.01605e-07
-1.81934e-07
-6.98573e-07
7.22388e-07
-1.73645e-07
-6.78822e-07
6.7052e-07
-2.44733e-07
-5.33292e-07
6.04368e-07
-4.08783e-07
-3.84495e-07
5.48534e-07
-6.01983e-07
-2.84467e-07
4.77656e-07
-6.9516e-07
-2.88855e-07
3.82021e-07
-6.78235e-07
-3.22093e-07
3.05156e-07
-5.66247e-07
-3.66008e-07
2.54007e-07
-4.3479e-07
-3.79314e-07
2.47843e-07
-2.93094e-07
-3.97466e-07
2.55756e-07
-1.64427e-07
-4.10002e-07
2.81322e-07
-5.5447e-08
-4.2231e-07
3.13315e-07
2.65593e-08
-4.3289e-07
3.50869e-07
8.15346e-08
-4.4098e-07
3.85989e-07
1.08219e-07
-4.44569e-07
4.17869e-07
1.12229e-07
-4.48493e-07
4.44467e-07
1.01918e-07
-4.49038e-07
4.59333e-07
8.40229e-08
-4.44729e-07
4.62607e-07
6.26471e-08
-4.35109e-07
4.56469e-07
4.20255e-08
-4.21883e-07
4.42487e-07
2.64271e-08
-4.07905e-07
4.23487e-07
1.98117e-08
-3.96674e-07
4.03272e-07
2.15071e-08
-3.84673e-07
3.8296e-07
2.83133e-08
-3.71281e-07
3.64456e-07
3.92137e-08
-3.5765e-07
3.46732e-07
5.60073e-08
-3.45125e-07
3.28312e-07
8.20262e-08
-3.34411e-07
3.08374e-07
1.21219e-07
-3.26464e-07
2.87251e-07
1.76266e-07
-3.21633e-07
2.66567e-07
2.42463e-07
-3.1803e-07
2.51812e-07
3.08612e-07
-3.13243e-07
2.47074e-07
3.58093e-07
-3.05184e-07
2.55682e-07
3.5584e-07
-2.86456e-07
2.88689e-07
2.49021e-07
-2.57457e-07
3.64254e-07
-2.32563e-08
-2.2872e-07
5.00976e-07
-4.37654e-07
-2.42996e-07
6.57371e-07
-8.5961e-07
-3.73472e-07
7.95407e-07
-1.16467e-06
-6.61654e-07
9.66692e-07
-1.34232e-06
-9.51718e-07
1.12935e-06
-1.25809e-06
-1.32441e-06
1.24016e-06
-6.7204e-07
-1.85289e-06
1.26681e-06
-3.68758e-07
-1.63408e-06
1.33078e-06
-1.82784e-06
3.64282e-07
1.09478e-06
-3.57722e-06
1.30287e-06
4.46503e-07
7.04418e-07
-5.59495e-06
1.31331e-06
5.73677e-06
-6.72364e-06
1.69127e-06
9.66768e-06
-4.11958e-06
1.88641e-07
1.41695e-05
-3.13054e-06
-1.37135e-06
1.71289e-05
-1.87944e-07
-2.77142e-06
1.57005e-05
3.67407e-06
-2.24577e-06
9.11992e-06
7.59387e-06
-1.01337e-06
8.66937e-06
6.87401e-06
-6.42358e-06
-1.02799e-05
1.40252e-05
4.92384e-06
1.13651e-07
-4.21749e-06
-6.17618e-06
2.73157e-05
-2.23894e-05
-4.81256e-06
3.72853e-05
-1.16918e-05
1.7222e-06
3.92477e-05
-6.13276e-06
4.17031e-06
4.0582e-05
-6.30905e-06
4.97478e-06
4.16714e-05
-6.00624e-06
4.91687e-06
4.24526e-05
-5.74343e-06
4.96223e-06
4.21546e-05
-4.16775e-06
4.46568e-06
4.0548e-05
-1.81937e-06
3.42595e-06
3.91021e-05
-1.52636e-06
2.97226e-06
3.78617e-05
-1.52754e-06
2.76802e-06
3.56759e-05
-2.33069e-07
2.41885e-06
3.20245e-05
8.70246e-07
2.78114e-06
2.95226e-05
-5.03397e-07
3.00528e-06
2.7336e-05
-3.86755e-07
2.57334e-06
2.24099e-05
2.37209e-06
2.55401e-06
1.6215e-05
2.88199e-06
3.31289e-06
1.24569e-05
-4.33246e-07
4.19136e-06
1.16989e-05
-4.10893e-06
4.86691e-06
1.24079e-05
-5.76447e-06
5.05546e-06
1.33676e-05
-5.62067e-06
4.66098e-06
1.49598e-05
-5.27379e-06
3.68162e-06
1.75762e-05
-5.02219e-06
2.40577e-06
2.10094e-05
-4.74943e-06
1.31626e-06
2.44978e-05
-4.75107e-06
1.26264e-06
2.77739e-05
-5.08534e-06
1.80929e-06
3.12438e-05
-5.33176e-06
1.86184e-06
3.45629e-05
-4.72822e-06
1.40906e-06
3.73237e-05
-3.9477e-06
1.18693e-06
3.96074e-05
-2.35738e-06
7.36472e-08
3.90551e-05
2.37026e-06
-1.81794e-06
3.61424e-05
5.35677e-06
-2.4441e-06
3.13467e-05
7.55397e-06
-2.75821e-06
2.07214e-05
8.92349e-06
1.70178e-06
4.96542e-06
8.73885e-06
7.01712e-06
-3.7457e-06
8.17227e-06
5.38852e-07
6.76711e-06
-1.05128e-05
-2.18593e-06
-3.55611e-06
-1.11376e-07
-7.74294e-07
-3.86386e-06
-1.13927e-07
-3.97613e-07
-2.29595e-06
7.08363e-07
3.5957e-08
-1.89833e-06
4.56399e-07
9.81464e-08
-8.89132e-07
3.08986e-07
-3.56167e-08
-8.03929e-07
2.71174e-07
-1.51231e-07
-7.41476e-07
1.58497e-07
-2.4575e-07
-6.75801e-07
9.14782e-08
-3.99072e-07
-4.65619e-07
8.56328e-08
-6.14124e-07
-2.86677e-07
1.17217e-07
-8.07383e-07
-1.94894e-07
1.03669e-07
-8.7284e-07
-2.48332e-07
2.49161e-08
-8.39263e-07
-3.13137e-07
-4.25527e-08
-7.2554e-07
-3.84493e-07
-9.52586e-08
-5.87821e-07
-4.07594e-07
-1.09461e-07
-4.38313e-07
-4.35185e-07
-1.1181e-07
-2.98378e-07
-4.5134e-07
-9.86203e-08
-1.74535e-07
-4.66553e-07
-7.96228e-08
-7.45023e-08
-4.77274e-07
-5.56734e-08
-6.80162e-10
-4.8341e-07
-3.14167e-08
4.52714e-08
-4.82557e-07
-7.98966e-09
6.66639e-08
-4.78252e-07
8.33973e-09
7.18716e-08
-4.6982e-07
1.5546e-08
6.65465e-08
-4.56294e-07
1.68619e-08
5.48096e-08
-4.37029e-07
1.36272e-08
4.04078e-08
-4.14438e-07
6.92743e-09
2.72798e-08
-3.91743e-07
-3.0656e-09
2.07084e-08
-3.71618e-07
-1.85159e-08
2.12424e-08
-3.51664e-07
-3.35756e-08
2.74394e-08
-3.29756e-07
-4.77548e-08
3.93814e-08
-3.07959e-07
-6.16665e-08
5.86267e-08
-2.88828e-07
-7.55771e-08
8.78698e-08
-2.74414e-07
-8.92765e-08
1.30551e-07
-2.6749e-07
-1.01691e-07
1.88542e-07
-2.67773e-07
-1.11888e-07
2.57053e-07
-2.7045e-07
-1.16131e-07
3.24982e-07
-2.70073e-07
-1.11138e-07
3.723e-07
-2.61708e-07
-9.08343e-08
3.57169e-07
-2.30751e-07
-4.06168e-08
2.25083e-07
-1.68462e-07
4.3048e-08
-4.93016e-08
-1.12308e-07
1.57929e-07
-4.21128e-07
-1.33939e-07
2.62726e-07
-8.89876e-07
-2.38914e-07
3.34145e-07
-1.51111e-06
-5.2424e-07
4.83779e-07
-2.22709e-06
-9.16883e-07
6.81098e-07
-2.89027e-06
-1.46769e-06
8.06419e-07
-3.57257e-06
-2.08876e-06
9.18139e-07
-4.20639e-06
-2.03177e-06
1.03147e-06
-3.803e-06
-5.8432e-07
5.45185e-07
4.63418e-07
-2.43634e-06
-5.2724e-07
5.62457e-06
-1.01854e-05
-5.70778e-07
7.41446e-06
-9.65226e-06
1.13869e-06
1.16772e-05
-6.92894e-06
-1.45341e-06
1.65831e-05
-4.8649e-06
-3.17166e-06
1.97818e-05
6.43324e-07
-4.02997e-06
1.97223e-05
7.49099e-06
-3.75746e-06
1.61178e-05
1.30955e-05
-1.89723e-06
1.73559e-05
1.2816e-05
-7.18026e-06
-6.38971e-06
2.59228e-05
1.18477e-05
2.13445e-07
-5.75796e-06
-5.06291e-06
2.01914e-05
-3.08444e-05
-1.1523e-05
2.3539e-05
-1.90474e-05
4.00795e-06
2.16064e-05
-1.13162e-05
7.11607e-06
2.12432e-05
-1.06463e-05
4.70046e-06
1.79088e-05
-8.10708e-06
5.43523e-06
1.226e-05
-6.33744e-06
6.24283e-06
8.18078e-06
-4.87423e-06
4.78572e-06
5.41409e-06
-2.29565e-06
3.24298e-06
3.0488e-06
-2.4498e-06
3.28872e-06
1.53728e-06
-2.77919e-06
2.76317e-06
9.37105e-07
-1.08343e-06
1.45055e-06
1.43022e-06
-1.68285e-07
5.45412e-07
2.46891e-06
-6.86247e-07
-8.55838e-07
4.15113e-06
-8.09715e-07
-1.25926e-06
6.62873e-06
2.70284e-07
-3.75797e-07
8.72241e-06
6.19551e-07
1.68764e-07
1.01235e-05
-1.85013e-06
1.57934e-08
1.15468e-05
-5.63481e-06
1.02538e-07
1.27309e-05
-7.09723e-06
1.48696e-07
1.46661e-05
-6.57907e-06
-9.76776e-07
1.81027e-05
-5.02026e-06
-3.69012e-06
2.14021e-05
-3.22628e-06
-5.09531e-06
2.41432e-05
-2.29858e-06
-5.19202e-06
2.61702e-05
-2.77525e-06
-4.00278e-06
2.74433e-05
-4.37284e-06
-1.98565e-06
2.83278e-05
-5.3898e-06
-8.26438e-07
3.02671e-05
-6.79786e-06
1.30291e-07
3.36229e-05
-7.74379e-06
4.40313e-07
3.68044e-05
-4.47822e-06
-1.06061e-06
3.83644e-05
4.29765e-06
-3.48742e-06
3.68364e-05
1.08993e-05
-4.01464e-06
3.32609e-05
1.45708e-05
-3.44133e-06
2.49314e-05
1.71157e-05
1.37306e-07
9.31964e-06
1.85324e-05
5.81825e-06
-6.28786e-07
1.76178e-05
5.02868e-07
1.63357e-05
-1.01974e-05
-2.67581e-06
-3.84258e-06
-3.86369e-07
-1.55212e-06
-4.39797e-06
-5.8958e-07
-1.08963e-06
-2.98995e-06
2.3149e-07
-4.39536e-07
-2.62318e-06
7.47353e-08
-1.35433e-07
-1.2192e-06
2.59398e-08
-1.63071e-07
-7.9723e-07
2.0919e-08
-2.80449e-07
-4.91439e-07
-1.32679e-07
-3.70692e-07
-4.17536e-07
-1.68039e-07
-4.77327e-07
-1.88005e-07
-1.70996e-07
-5.83509e-07
-4.6762e-08
-1.33749e-07
-6.96937e-07
2.93239e-08
-1.10806e-07
-7.44894e-07
-4.70348e-08
-1.53358e-07
-7.42816e-07
-1.06905e-07
-2.08328e-07
-6.9102e-07
-1.80737e-07
-2.55571e-07
-6.1311e-07
-2.08337e-07
-2.77188e-07
-5.18308e-07
-2.37558e-07
-2.9245e-07
-4.2218e-07
-2.51772e-07
-2.95716e-07
-3.28904e-07
-2.64953e-07
-2.949e-07
-2.4556e-07
-2.71532e-07
-2.8911e-07
-1.74067e-07
-2.73355e-07
-2.81572e-07
-1.16037e-07
-2.67268e-07
-2.73343e-07
-7.1626e-08
-2.55007e-07
-2.67681e-07
-4.02988e-08
-2.378e-07
-2.63373e-07
-1.99252e-08
-2.16412e-07
-2.60282e-07
-7.69281e-09
-1.91145e-07
-2.58143e-07
-6.04561e-10
-1.64161e-07
-2.57394e-07
3.62853e-09
-1.37955e-07
-2.58049e-07
6.36472e-09
-1.13865e-07
-2.6052e-07
9.79949e-09
-9.07393e-08
-2.64389e-07
1.56027e-08
-6.63159e-08
-2.69275e-07
2.48794e-08
-4.30473e-08
-2.74221e-07
3.76746e-08
-2.35524e-08
-2.78104e-07
5.32611e-08
-9.86075e-09
-2.80173e-07
7.17563e-08
-5.25038e-09
-2.8077e-07
9.28177e-08
-1.03169e-08
-2.78553e-07
1.14943e-07
-2.03767e-08
-2.72235e-07
1.31355e-07
-2.86507e-08
-2.57872e-07
1.21334e-07
-2.50481e-08
-2.26677e-07
5.33372e-08
6.40375e-09
-1.69197e-07
-8.35701e-08
5.28923e-08
-8.44874e-08
-2.22108e-07
2.9061e-08
-2.87269e-09
-2.71009e-07
-1.11088e-07
2.60074e-08
-3.80109e-07
-1.89887e-07
6.00309e-08
-8.37014e-07
-2.65647e-07
1.98269e-07
-1.62515e-06
-5.07616e-07
3.78829e-07
-2.47062e-06
-9.79746e-07
3.57482e-07
-3.20352e-06
-1.44586e-06
8.99566e-08
-3.69135e-06
-1.6376e-06
9.36264e-08
-2.69236e-06
-1.25672e-06
-3.26623e-07
2.65333e-06
-5.72513e-06
-2.05694e-06
5.9099e-06
-1.23192e-05
-1.12276e-06
7.47029e-06
-1.12441e-05
3.1442e-08
1.33784e-05
-9.16782e-06
-3.66922e-06
1.90996e-05
-6.06156e-06
-4.52461e-06
2.19377e-05
1.29605e-06
-3.49094e-06
2.28778e-05
9.20552e-06
-2.65469e-06
1.94152e-05
1.83483e-05
-1.79011e-06
2.17449e-05
1.77022e-05
-7.21613e-06
-6.24806e-06
3.42773e-05
1.96378e-05
-6.0392e-09
-1.09875e-05
-1.01275e-06
1.5217e-05
-3.10661e-05
-1.50013e-05
1.6203e-05
-1.75923e-05
-2.44112e-06
1.45794e-05
-1.0645e-05
9.52373e-07
9.43266e-06
-9.07405e-06
3.57453e-06
1.52275e-06
-6.019e-06
5.82183e-06
-2.63577e-06
-5.46974e-06
3.29081e-06
-3.90909e-06
-5.88296e-06
2.28206e-06
-3.23923e-06
-5.74958e-06
2.78408e-06
-2.33762e-06
-5.65465e-06
2.30324e-06
-1.76002e-06
-4.80379e-06
1.44699e-06
-8.02346e-07
-1.86795e-06
-1.73149e-07
7.26924e-07
2.01744e-06
-3.71499e-06
3.2706e-06
6.51338e-06
-9.74331e-06
5.66407e-06
8.88192e-06
-1.20851e-05
5.87991e-06
9.35488e-06
-9.30043e-06
4.78509e-06
6.72923e-06
-5.01486e-06
3.41102e-06
2.02231e-07
-6.78298e-07
1.28513e-06
-5.68377e-06
2.17486e-06
-3.23993e-07
-7.50702e-06
2.01891e-06
-4.59438e-07
-7.58134e-06
1.13772e-06
2.71014e-07
-7.00188e-06
1.25117e-06
7.4105e-07
-6.49187e-06
2.79555e-06
6.21417e-07
-6.87946e-06
4.70051e-06
7.75856e-07
-8.2552e-06
5.32551e-06
1.5003e-06
-1.04779e-05
5.38061e-06
3.59063e-06
-1.18705e-05
4.39041e-06
6.72263e-06
-1.32373e-05
3.30741e-06
1.18601e-05
-1.40788e-05
1.19745e-06
2.01576e-05
-1.0235e-05
-2.5406e-06
2.84405e-05
1.55412e-06
-5.53936e-06
3.16185e-05
1.41124e-05
-6.3911e-06
3.07917e-05
2.15752e-05
-6.17764e-06
2.39626e-05
2.58309e-05
-1.8861e-06
8.57337e-06
2.81621e-05
5.75953e-06
-7.79582e-07
2.68429e-05
1.27889e-07
2.56837e-05
-1.01276e-05
-3.12939e-06
-3.90278e-06
-1.58764e-07
-2.04535e-06
-4.66276e-06
-8.19259e-07
-1.71115e-06
-3.42486e-06
1.00697e-07
-1.03385e-06
-3.34529e-06
4.48019e-08
-5.55521e-07
-1.85543e-06
1.57883e-07
-3.63721e-07
-1.0698e-06
8.07529e-08
-3.85135e-07
-3.27666e-07
-1.42378e-07
-4.06249e-07
-1.87838e-07
-2.08601e-07
-3.99559e-07
2.91974e-08
-2.2391e-07
-4.24628e-07
1.68961e-07
-1.90671e-07
-4.83128e-07
2.74769e-07
-1.86963e-07
-5.44658e-07
2.28051e-07
-2.13573e-07
-6.01353e-07
1.96436e-07
-2.46666e-07
-6.08253e-07
1.16211e-07
-2.90068e-07
-5.8088e-07
8.03609e-08
-3.16092e-07
-5.259e-07
4.87799e-08
-3.41339e-07
-4.59525e-07
3.95264e-08
-3.57696e-07
-3.8938e-07
3.64909e-08
-3.71611e-07
-3.21762e-07
4.11313e-08
-3.80305e-07
-2.5869e-07
4.89353e-08
-3.85387e-07
-2.00818e-07
6.19191e-08
-3.87085e-07
-1.48771e-07
7.88878e-08
-3.85967e-07
-1.04662e-07
9.99786e-08
-3.81914e-07
-6.96074e-08
1.24541e-07
-3.76035e-07
-4.32983e-08
1.52226e-07
-3.69709e-07
-2.50086e-08
1.81345e-07
-3.63824e-07
-1.26721e-08
2.08401e-07
-3.58723e-07
-3.77517e-09
2.32136e-07
-3.54927e-07
3.55591e-09
2.54873e-07
-3.52975e-07
9.87843e-09
2.79185e-07
-3.51855e-07
1.48835e-08
3.02983e-07
-3.51068e-07
1.7612e-08
3.23059e-07
-3.49372e-07
1.612e-08
3.36838e-07
-3.45242e-07
7.71673e-09
3.40881e-07
-3.37762e-07
-7.97618e-09
3.33054e-07
-3.27715e-07
-3.08415e-08
3.18527e-07
-3.16074e-07
-6.82583e-08
3.08371e-07
-2.99642e-07
-1.42997e-07
3.18464e-07
-2.68811e-07
-2.67633e-07
3.48284e-07
-2.17284e-07
-3.77419e-07
3.2327e-07
-1.60631e-07
-3.36656e-07
1.18672e-07
-1.30416e-07
-9.88246e-08
-1.69689e-07
-1.79272e-07
1.05476e-07
-2.21117e-07
-1.73114e-07
8.25749e-09
-1.18382e-07
-5.00896e-08
-2.89117e-07
-3.01017e-07
9.07317e-08
-6.2925e-07
-7.20439e-07
8.0784e-08
-8.33286e-07
-1.0898e-06
-1.52057e-07
-8.94344e-07
-1.16473e-06
-4.11853e-07
9.23335e-07
-2.00796e-06
-1.06648e-06
4.9415e-06
-7.25248e-06
-2.49086e-06
6.19319e-06
-1.28785e-05
-6.9245e-07
8.75352e-06
-1.23693e-05
-1.43514e-06
1.54711e-05
-1.08501e-05
-5.03539e-06
2.19669e-05
-8.14408e-06
-4.41325e-06
2.36714e-05
2.3006e-07
-6.38575e-07
2.38443e-05
5.5967e-06
3.43588e-06
2.05355e-05
2.24974e-05
-8.40184e-07
2.43266e-05
1.73604e-05
-3.44935e-06
-2.78075e-06
3.59648e-05
2.5419e-05
-6.64364e-07
-7.52347e-06
-5.58063e-06
1.01846e-05
-2.37897e-05
-1.81253e-05
9.89474e-06
-1.32476e-05
-4.05486e-06
7.24933e-06
-6.40438e-06
-1.59524e-06
-2.65331e-06
-2.44328e-06
3.27188e-06
-9.81459e-06
1.03477e-07
1.0388e-06
-1.23306e-05
-2.62517e-06
-3.28545e-07
-1.36428e-05
-2.97383e-06
-1.59695e-06
-1.2725e-05
-2.70381e-06
-3.96357e-06
-1.01087e-05
-2.50895e-06
-5.762e-06
-7.78068e-06
-5.3086e-07
-6.60093e-06
-5.85505e-06
3.2615e-06
-7.05508e-06
-4.84218e-06
8.14576e-06
-7.14119e-06
-2.21996e-06
1.20352e-05
-8.14408e-06
6.39971e-08
1.24426e-05
-5.84462e-06
3.64304e-07
1.04194e-05
-1.36478e-06
-1.42661e-06
5.56799e-06
2.95216e-06
-6.39399e-06
-1.59742e-06
6.76703e-06
-1.33875e-05
-6.27046e-06
7.58017e-06
-1.70064e-05
-9.60798e-06
5.71987e-06
-1.76647e-05
-1.13105e-05
4.38752e-06
-1.63375e-05
-1.20077e-05
3.67867e-06
-1.37201e-05
-1.21071e-05
2.99782e-06
-1.05322e-05
-1.23876e-05
2.3203e-06
-6.84197e-06
-1.41684e-05
2.22297e-06
-4.1905e-06
-1.50847e-05
1.95532e-06
-2.13005e-06
-1.49434e-05
1.01237e-06
-7.88312e-07
-1.44322e-05
-1.4677e-07
5.11139e-07
-1.42472e-05
-1.13097e-06
6.10397e-06
-1.2996e-05
-2.83186e-06
1.42872e-05
-1.05819e-06
-5.57096e-06
2.15466e-05
1.33751e-05
-6.52202e-06
2.28464e-05
2.4297e-05
-4.02153e-06
1.2569e-05
3.21198e-05
3.98841e-06
-4.38812e-07
3.43278e-05
6.84211e-06
-4.29237e-06
3.07994e-05
-1.02904e-07
3.13676e-05
-9.97623e-06
-3.53038e-06
-3.78945e-06
5.43283e-08
-2.47025e-06
-4.81992e-06
-9.02987e-07
-2.23018e-06
-3.62567e-06
-3.92697e-08
-1.5423e-06
-3.87758e-06
-1.55612e-07
-1.04797e-06
-2.65487e-06
3.05093e-07
-5.54852e-07
-1.76259e-06
1.99648e-07
-3.98543e-07
-3.66914e-07
-1.17077e-07
-4.07494e-07
8.52069e-09
-1.87424e-07
-3.3315e-07
2.00994e-07
-2.46156e-07
-3.00976e-07
3.59523e-07
-2.22752e-07
-3.13118e-07
5.00141e-07
-2.13247e-07
-3.8177e-07
5.01927e-07
-2.05242e-07
-4.75697e-07
5.00985e-07
-2.10639e-07
-5.23436e-07
4.0295e-07
-2.3902e-07
-5.26382e-07
3.45377e-07
-2.62088e-07
-4.93698e-07
3.05608e-07
-2.89532e-07
-4.44932e-07
3.02121e-07
-3.11381e-07
-3.93053e-07
3.17008e-07
-3.32419e-07
-3.41636e-07
3.39473e-07
-3.49779e-07
-2.90679e-07
3.61765e-07
-3.6381e-07
-2.38304e-07
3.84249e-07
-3.74727e-07
-1.86074e-07
4.08063e-07
-3.81429e-07
-1.37268e-07
4.34544e-07
-3.83395e-07
-9.43307e-08
4.62657e-07
-3.8108e-07
-5.8316e-08
4.9173e-07
-3.75543e-07
-3.00198e-08
5.20128e-07
-3.67107e-07
-8.20041e-09
5.44179e-07
-3.57623e-07
8.05094e-09
5.64026e-07
-3.4817e-07
1.82297e-08
5.83476e-07
-3.38809e-07
2.25542e-08
6.04566e-07
-3.29735e-07
2.04452e-08
6.25502e-07
-3.20438e-07
1.06492e-08
6.43141e-07
-3.10318e-07
-1.0456e-08
6.56895e-07
-2.98981e-07
-4.69879e-08
6.64322e-07
-2.86941e-07
-1.0486e-07
6.65492e-07
-2.74596e-07
-1.89513e-07
6.65357e-07
-2.62209e-07
-3.02996e-07
6.69429e-07
-2.47608e-07
-4.42011e-07
6.8358e-07
-2.26135e-07
-5.76221e-07
6.80639e-07
-1.98178e-07
-6.06201e-07
5.43585e-07
-1.90369e-07
-4.17258e-07
1.73324e-07
-2.43629e-07
-4.30726e-08
-1.61466e-07
-3.82444e-07
3.40522e-07
-1.78599e-07
-4.26149e-07
6.13769e-07
-5.43433e-08
-3.37323e-07
7.9732e-07
-2.41995e-07
-2.4261e-07
9.25541e-07
-5.59487e-07
-2.89208e-07
1.03891e-06
-8.13048e-07
-3.90163e-07
1.44922e-06
-9.41055e-07
-6.34021e-07
3.01997e-06
-2.6372e-06
-9.41535e-07
5.49953e-06
-8.17188e-06
-1.56019e-06
5.42581e-06
-1.1934e-05
-8.70809e-07
7.27183e-06
-1.15206e-05
-2.69475e-06
1.22728e-05
-1.09048e-05
-4.94624e-06
1.86027e-05
-1.03763e-05
-4.09773e-06
2.2105e-05
-2.81364e-06
-4.58588e-07
2.49249e-05
-1.34104e-06
4.11788e-06
2.0497e-05
2.87482e-05
-1.8227e-06
2.49295e-05
9.72472e-06
3.2031e-06
-1.08906e-06
3.5143e-05
2.6839e-05
8.14226e-08
-2.78996e-06
-5.90405e-06
7.82876e-06
-1.07636e-05
-2.07734e-05
5.97445e-06
-6.27056e-06
-5.12268e-06
3.69141e-06
-1.63382e-07
-3.95794e-06
-5.43481e-06
4.28145e-06
2.4015e-06
-1.24083e-05
5.51634e-06
1.5606e-06
-1.62001e-05
1.13766e-06
2.90139e-08
-1.73873e-05
-1.2639e-06
-5.22696e-07
-1.58138e-05
-2.96236e-06
-1.31491e-06
-1.25222e-05
-3.73521e-06
-2.06532e-06
-8.67028e-06
-1.95702e-06
-2.42575e-06
-4.2781e-06
1.92838e-06
-3.05904e-06
-2.11505e-06
8.93312e-06
-2.95038e-06
-1.68154e-06
1.34778e-05
-1.87601e-06
-2.92879e-06
1.24823e-05
1.20756e-06
-4.80973e-06
8.70743e-06
3.5929e-06
-7.04804e-06
1.53963e-06
6.2667e-06
-1.2416e-05
-4.70421e-06
8.47482e-06
-1.97957e-05
-6.38398e-06
7.49322e-06
-2.2574e-05
-1.02849e-05
3.45529e-06
-2.21508e-05
-1.2684e-05
9.50228e-07
-1.97468e-05
-1.35545e-05
-8.57252e-07
-1.61039e-05
-1.33426e-05
-2.40748e-06
-1.23378e-05
-1.43889e-05
-1.76476e-06
-9.06532e-06
-1.70896e-05
-3.51339e-07
-6.98665e-06
-1.7579e-05
4.15635e-07
-5.40209e-06
-1.5679e-05
-8.48869e-07
-5.32454e-06
-1.11553e-05
-3.35451e-06
-5.6916e-06
-1.04651e-05
-3.41504e-06
-6.71721e-06
-9.8249e-06
-2.1455e-06
-4.79225e-06
-1.89066e-06
-1.09249e-06
-1.45929e-06
1.12824e-05
-1.2403e-06
-2.24253e-06
2.29908e-05
2.08941e-06
-7.34287e-06
3.16481e-05
5.57202e-06
-8.29295e-06
3.21228e-05
3.1551e-06
-6.64429e-06
3.15561e-05
-2.40542e-06
3.57361e-05
-1.10128e-05
-3.9022e-06
-3.4892e-06
3.79132e-07
-2.89795e-06
-4.94737e-06
-8.76804e-07
-2.64351e-06
-3.70679e-06
-1.73327e-07
-1.77966e-06
-4.09359e-06
-6.47849e-07
-1.29245e-06
-3.25808e-06
1.15982e-07
-6.18272e-07
-2.57713e-06
1.4035e-07
-3.12431e-07
-6.233e-07
-4.94696e-08
-3.44926e-07
1.50501e-07
-1.09498e-07
-2.55081e-07
3.51684e-07
-2.40549e-07
-2.02965e-07
5.20097e-07
-2.12704e-07
-1.86078e-07
6.89446e-07
-2.06207e-07
-2.63637e-07
7.59832e-07
-1.8036e-07
-3.82527e-07
7.90192e-07
-1.70333e-07
-4.49041e-07
6.61555e-07
-1.92107e-07
-4.54598e-07
5.73053e-07
-2.22136e-07
-4.23266e-07
5.29739e-07
-2.55478e-07
-3.79353e-07
5.41145e-07
-2.82955e-07
-3.41938e-07
5.84646e-07
-3.05069e-07
-3.11894e-07
6.32754e-07
-3.23342e-07
-2.84634e-07
6.72545e-07
-3.38057e-07
-2.54221e-07
7.03538e-07
-3.4972e-07
-2.19771e-07
7.30207e-07
-3.56612e-07
-1.83578e-07
7.56362e-07
-3.58031e-07
-1.47858e-07
7.82161e-07
-3.55242e-07
-1.17154e-07
8.09555e-07
-3.48549e-07
-9.18611e-08
8.33371e-07
-3.38556e-07
-6.97717e-08
8.4848e-07
-3.26412e-07
-5.07098e-08
8.58327e-07
-3.13382e-07
-3.69277e-08
8.69174e-07
-2.99501e-07
-3.23869e-08
8.85788e-07
-2.85783e-07
-4.13908e-08
9.07382e-07
-2.72898e-07
-6.70724e-08
9.29579e-07
-2.60777e-07
-1.13591e-07
9.51934e-07
-2.48541e-07
-1.83785e-07
9.71582e-07
-2.37086e-07
-2.80723e-07
9.88479e-07
-2.2607e-07
-4.04579e-07
1.00392e-06
-2.14727e-07
-5.41175e-07
1.01131e-06
-2.05308e-07
-6.52955e-07
9.97461e-07
-2.02121e-07
-6.82716e-07
9.18604e-07
-2.08225e-07
-5.80564e-07
6.92981e-07
-2.51566e-07
-3.72671e-07
3.38835e-07
-3.73425e-07
-4.28405e-08
9.19534e-08
-5.8327e-07
4.42272e-07
8.5215e-08
-7.48947e-07
1.02394e-06
1.00057e-07
-7.36084e-07
1.62494e-06
-1.37778e-07
-7.0524e-07
2.19333e-06
-3.93551e-07
-7.3435e-07
2.7464e-06
-7.0156e-07
-6.64569e-07
3.63704e-06
-1.13903e-06
-6.92689e-07
4.79243e-06
-2.9688e-06
-8.238e-07
5.41149e-06
-7.6051e-06
-1.18586e-06
2.90448e-06
-8.55345e-06
-8.73535e-07
-1.10414e-06
-5.78088e-06
-1.73114e-06
-2.74806e-06
-8.84118e-06
-4.19732e-07
-2.98994e-06
-7.90533e-06
-2.22905e-06
8.65221e-06
-6.01579e-06
-8.44e-06
1.13953e-05
-1.24201e-06
-2.84207e-06
1.09521e-05
3.5324e-05
-6.13214e-06
4.23772e-06
1.20445e-05
4.39458e-06
-1.51976e-06
2.37477e-05
1.71509e-05
2.27751e-06
1.8875e-06
-8.47458e-06
3.42586e-06
6.71233e-06
-1.86239e-05
1.07779e-06
-1.94933e-06
-1.97284e-06
-1.36314e-07
4.59741e-06
-3.54639e-06
-8.72397e-06
8.99224e-06
3.87722e-06
-1.40039e-05
8.18008e-06
2.61661e-06
-1.8507e-05
3.80805e-06
1.83307e-06
-1.99609e-05
-8.53163e-07
1.04359e-06
-1.96797e-05
-4.1049e-06
8.61698e-07
-1.78006e-05
-6.34972e-06
7.35774e-07
-1.37451e-05
-6.7432e-06
7.30983e-07
-7.99857e-06
-4.07662e-06
2.58842e-07
-4.74858e-06
4.74404e-06
9.3944e-07
-5.37516e-06
1.19147e-05
2.19011e-06
-9.5951e-06
1.20677e-05
4.63508e-06
-1.60627e-05
8.88496e-06
6.29062e-06
-2.47082e-05
1.96025e-06
8.22543e-06
-2.97943e-05
-4.13957e-06
4.522e-06
-2.998e-05
-7.87127e-06
1.67351e-06
-2.98814e-05
-1.07189e-05
3.35787e-07
-2.82744e-05
-1.17585e-05
-2.5322e-06
-2.46395e-05
-1.348e-05
-3.70913e-06
-2.00752e-05
-1.46577e-05
-3.24903e-06
-1.58158e-05
-1.73452e-05
-1.30286e-06
-1.2424e-05
-1.99372e-05
-5.442e-07
-1.10748e-05
-2.00813e-05
1.15312e-06
-9.72204e-06
-1.76091e-05
5.77352e-07
-7.4317e-06
-1.01062e-05
-3.33938e-06
-8.18465e-06
-5.53246e-06
-4.17973e-06
-1.17912e-05
-3.10554e-06
-3.11282e-06
-1.528e-05
1.96444e-06
-3.66277e-07
-1.58018e-05
1.08882e-05
9.16022e-07
-1.57595e-05
2.08012e-05
2.14732e-06
-1.40377e-05
2.74249e-05
2.50139e-06
-1.06534e-05
2.88705e-05
-1.31916e-07
-7.27948e-06
3.33308e-05
-5.14861e-06
3.98753e-05
-1.14187e-05
-4.20118e-06
-2.94838e-06
7.41095e-07
-3.31176e-06
-4.90684e-06
-9.29945e-07
-3.07299e-06
-3.55158e-06
-3.93993e-07
-1.94163e-06
-4.0156e-06
-1.20936e-06
-1.29304e-06
-3.48645e-06
-4.20231e-07
-4.76627e-07
-2.99556e-06
-3.98003e-07
-1.33405e-07
-8.28401e-07
-1.38131e-07
-2.60257e-07
3.4575e-07
-6.84084e-08
-1.96362e-07
5.42641e-07
-2.54861e-07
-1.81664e-07
7.29956e-07
-2.24567e-07
-1.51695e-07
8.91625e-07
-2.32158e-07
-2.04634e-07
9.87792e-07
-1.75033e-07
-2.92691e-07
1.02985e-06
-1.51606e-07
-3.33031e-07
8.75922e-07
-1.74038e-07
-3.25908e-07
7.84225e-07
-2.18305e-07
-2.98006e-07
7.54479e-07
-2.52653e-07
-2.70907e-07
7.92322e-07
-2.78286e-07
-2.58481e-07
8.65172e-07
-2.92963e-07
-2.59052e-07
9.3635e-07
-3.03035e-07
-2.6545e-07
9.89836e-07
-3.10904e-07
-2.70689e-07
1.02614e-06
-3.17367e-07
-2.71561e-07
1.05195e-06
-3.20881e-07
-2.66775e-07
1.07191e-06
-3.20345e-07
-2.57573e-07
1.0881e-06
-3.15155e-07
-2.48941e-07
1.10584e-06
-3.04929e-07
-2.41449e-07
1.11815e-06
-2.92281e-07
-2.30521e-07
1.11871e-06
-2.81163e-07
-2.16834e-07
1.11515e-06
-2.70518e-07
-2.04124e-07
1.11636e-06
-2.59903e-07
-2.01079e-07
1.13144e-06
-2.48703e-07
-2.16961e-07
1.16023e-06
-2.36973e-07
-2.55227e-07
1.19342e-06
-2.25579e-07
-3.15253e-07
1.22728e-06
-2.15325e-07
-3.92337e-07
1.25542e-06
-2.06757e-07
-4.79241e-07
1.27539e-06
-2.00006e-07
-5.63409e-07
1.28395e-06
-1.9587e-07
-6.22319e-07
1.26587e-06
-1.95644e-07
-6.22145e-07
1.20352e-06
-2.06238e-07
-5.33384e-07
1.05977e-06
-2.29921e-07
-3.60145e-07
8.02836e-07
-2.83094e-07
-1.86733e-07
5.41145e-07
-3.75719e-07
1.22854e-08
4.71003e-07
-5.78064e-07
4.28104e-07
4.93539e-07
-8.24138e-07
1.19031e-06
3.21373e-07
-9.83512e-07
2.20438e-06
-9.30048e-08
-1.05884e-06
3.25244e-06
-3.69894e-07
-1.07171e-06
4.07209e-06
-5.81032e-07
-9.40163e-07
5.41402e-06
-1.58347e-06
-8.97489e-07
6.68725e-06
-3.29633e-06
-9.45692e-07
5.65618e-06
-5.41929e-06
-1.15472e-06
6.0612e-07
-2.65353e-06
-8.49837e-07
-7.3769e-06
1.30474e-06
8.97427e-07
-1.44823e-05
-4.45766e-06
2.72195e-06
-1.91092e-05
-2.8248e-06
-4.53598e-07
-2.33989e-05
1.70032e-06
-3.42628e-06
-2.6373e-05
5.50841e-06
-3.77616e-06
1.82661e-06
1.77907e-05
-1.06655e-05
-1.37243e-06
1.70224e-05
-1.77896e-06
-3.60163e-06
9.88929e-06
1.60851e-05
8.75073e-07
6.59706e-06
-9.18595e-06
1.89537e-06
2.23573e-05
-1.66642e-05
-3.47713e-06
5.00446e-06
-1.57997e-06
-8.33952e-06
1.11478e-05
-1.68663e-06
-1.69451e-05
1.33836e-05
4.21587e-06
-2.26252e-05
1.14917e-05
2.3702e-06
-2.60442e-05
5.50195e-06
1.72707e-06
-2.7601e-05
-9.58935e-07
1.66444e-06
-2.83128e-05
-5.42476e-06
2.03361e-06
-2.86642e-05
-7.77568e-06
1.77931e-06
-2.8119e-05
-8.97708e-06
1.69039e-06
-2.44923e-05
-9.11169e-06
1.41006e-06
-1.90052e-05
-2.57852e-06
1.83714e-06
-1.731e-05
6.87599e-06
3.34529e-06
-2.23382e-05
1.07485e-05
6.34936e-06
-3.32876e-05
1.15609e-05
8.27567e-06
-4.01194e-05
4.64169e-06
4.15278e-06
-4.03691e-05
-3.04107e-06
-8.46499e-07
-3.91635e-05
-6.8161e-06
-2.25851e-06
-3.67019e-05
-8.77149e-06
-4.40695e-06
-3.29723e-05
-1.04233e-05
-5.06286e-06
-2.82899e-05
-1.28606e-05
-5.30023e-06
-2.30026e-05
-1.65032e-05
-3.44034e-06
-1.89898e-05
-2.06849e-05
-6.71953e-07
-1.71189e-05
-2.37549e-05
1.94766e-06
-1.70749e-05
-2.49161e-05
4.79142e-06
-1.80373e-05
-2.18097e-05
5.16328e-06
-1.49813e-05
-1.22714e-05
-8.90707e-07
-1.22798e-05
-4.3458e-06
-3.88818e-06
-1.10171e-05
2.54777e-08
-4.39368e-06
-1.36236e-05
7.08023e-06
-2.50925e-06
-1.49442e-05
1.31638e-05
-9.5507e-07
-1.42759e-05
1.96196e-05
5.13323e-07
-1.18903e-05
2.49196e-05
1.19671e-07
-9.68093e-06
2.90694e-05
-2.40831e-06
-5.97346e-06
3.64583e-05
-6.83496e-06
4.48636e-05
-1.09618e-05
-4.11261e-06
-2.22049e-06
1.38582e-06
-3.60071e-06
-4.52029e-06
-8.98448e-07
-3.62618e-06
-3.23571e-06
-2.90407e-07
-2.39653e-06
-3.82235e-06
-1.42291e-06
-1.43738e-06
-3.57478e-06
-8.70823e-07
-3.03244e-07
-3.19818e-06
-9.31524e-07
1.12914e-07
-1.08259e-06
-1.61978e-07
-3.83564e-08
4.54379e-07
4.26353e-08
-4.42465e-08
8.56921e-07
-3.08397e-07
-1.69255e-07
1.11439e-06
-2.59428e-07
-1.50361e-07
1.17805e-06
-3.05324e-07
-1.52589e-07
1.26126e-06
-2.7125e-07
-1.36572e-07
1.29429e-06
-2.80461e-07
-1.26956e-07
1.18597e-06
-3.19667e-07
-1.2423e-07
1.14797e-06
-3.66471e-07
-1.39886e-07
1.1699e-06
-3.9977e-07
-1.69935e-07
1.24592e-06
-4.23553e-07
-2.10436e-07
1.34305e-06
-4.3738e-07
-2.5706e-07
1.43222e-06
-4.49247e-07
-3.08524e-07
1.50105e-06
-4.59751e-07
-3.52934e-07
1.53922e-06
-4.68673e-07
-3.85944e-07
1.5602e-06
-4.75237e-07
-4.08118e-07
1.57317e-06
-4.79089e-07
-4.19894e-07
1.58074e-06
-4.8086e-07
-4.21683e-07
1.58772e-06
-4.80084e-07
-4.16486e-07
1.59074e-06
-4.7778e-07
-4.07885e-07
1.58584e-06
-4.75728e-07
-3.95946e-07
1.57736e-06
-4.74147e-07
-3.84653e-07
1.57622e-06
-4.71152e-07
-3.84948e-07
1.59664e-06
-4.64901e-07
-4.08466e-07
1.63923e-06
-4.55469e-07
-4.54346e-07
1.68499e-06
-4.4568e-07
-5.17496e-07
1.72833e-06
-4.37894e-07
-5.85196e-07
1.75678e-06
-4.33649e-07
-6.40496e-07
1.76395e-06
-4.33251e-07
-6.60533e-07
1.74301e-06
-4.39e-07
-6.09742e-07
1.67268e-06
-4.57591e-07
-4.62504e-07
1.55461e-06
-4.98308e-07
-2.02689e-07
1.36115e-06
-5.61179e-07
1.17414e-07
1.12489e-06
-6.42131e-07
3.40296e-07
1.04925e-06
-7.30962e-07
3.951e-07
1.29151e-06
-8.75286e-07
7.01851e-07
1.35493e-06
-1.1681e-06
1.54827e-06
9.791e-07
-1.5041e-06
2.9586e-06
3.32068e-07
-1.83536e-06
4.39523e-06
-2.60575e-08
-1.78043e-06
5.29815e-06
-2.93094e-07
-1.19081e-06
6.92468e-06
-2.01531e-06
-1.19465e-06
8.03287e-06
-2.94779e-06
-1.4567e-06
6.25099e-06
-1.20234e-06
-2.43502e-06
3.94333e-06
3.6479e-06
-3.99374e-06
-2.11921e-06
6.74637e-06
6.20962e-07
-1.29413e-05
4.36429e-06
2.00027e-06
-2.19085e-05
6.54025e-06
-3.97819e-07
-3.05859e-05
1.10153e-05
-6.37456e-07
-3.13939e-05
6.11052e-06
2.06074e-07
3.9474e-06
-7.03885e-06
-1.0511e-05
1.05247e-05
9.24556e-06
1.19951e-06
-3.36584e-06
-4.04407e-06
2.78214e-05
-8.74799e-07
1.31003e-05
-8.99321e-06
1.68388e-07
4.06014e-05
-1.92851e-05
-9.54193e-06
1.65662e-05
-1.84886e-06
-1.69148e-05
1.9292e-05
-7.68781e-07
-2.41786e-05
1.36222e-05
7.0283e-06
-2.73907e-05
1.27213e-05
1.9856e-06
-2.75298e-05
4.40522e-06
1.23922e-06
-2.84725e-05
-2.03675e-06
2.02402e-06
-3.22884e-05
-4.87056e-06
3.26532e-06
-3.82749e-05
-4.41466e-06
2.62928e-06
-4.46182e-05
-4.53303e-06
1.90329e-06
-5.13088e-05
-5.63465e-06
3.21768e-06
-5.47055e-05
-5.06186e-06
5.88434e-06
-5.44036e-05
1.05698e-06
5.52154e-06
-5.43448e-05
6.419e-06
4.27515e-06
-5.2334e-05
9.54897e-06
5.54025e-09
-4.96626e-05
4.75693e-06
-2.78224e-06
-4.80828e-05
-6.98592e-07
-3.91798e-06
-4.61782e-05
-1.68691e-06
-7.02948e-06
-4.26173e-05
-1.24803e-06
-1.10804e-05
-3.76883e-05
-2.58798e-06
-1.27605e-05
-3.25569e-05
-6.49994e-06
-1.14885e-05
-2.74464e-05
-1.39479e-05
-7.66257e-06
-2.25139e-05
-2.22209e-05
-3.3934e-06
-2.05607e-05
-2.57592e-05
5.40941e-08
-2.23951e-05
-2.76534e-05
4.57463e-06
-2.63465e-05
-2.67658e-05
8.9105e-06
-3.05834e-05
-1.66885e-05
8.65698e-06
-3.04512e-05
-6.68269e-06
2.2077e-06
-2.76889e-05
-6.44537e-07
-2.08922e-06
-2.6148e-05
7.95226e-06
-2.40968e-06
-2.63864e-05
1.49181e-05
-1.51246e-06
-2.60479e-05
1.9719e-05
-4.34128e-07
-2.41267e-05
2.4122e-05
-1.11947e-06
-2.14479e-05
3.08002e-05
-4.40521e-06
-1.37255e-05
3.83485e-05
-9.6084e-06
4.22406e-05
-1.11007e-05
-3.27293e-06
-1.20064e-06
2.37578e-06
-3.66304e-06
-4.03261e-06
-9.75807e-08
-4.14815e-06
-2.93515e-06
1.84542e-07
-3.06092e-06
-3.78939e-06
-1.12019e-06
-1.92612e-06
-3.79064e-06
-9.18942e-07
-3.94291e-07
-3.57213e-06
-1.15789e-06
2.78315e-07
-1.69173e-06
-6.34704e-08
1.28867e-07
1.84581e-07
4.19241e-07
6.16509e-10
8.84429e-07
1.00738e-07
-1.54228e-07
1.16337e-06
1.0586e-07
-1.14708e-07
1.17013e-06
-3.16055e-08
-7.24222e-08
1.20535e-06