/*--------------------------------*- C++ -*----------------------------------*\
| =========                 |                                                 |
| \\      /  F ield         | OpenFOAM: The Open Source CFD Toolbox           |
|  \\    /   O peration     | Version:  2.3.0                                 |
|   \\  /    A nd           | Web:      www.OpenFOAM.org                      |
|    \\/     M anipulation  |                                                 |
\*---------------------------------------------------------------------------*/
FoamFile
{
    version     2.0;
    format      ascii;
    class       surfaceScalarField;
    location    "55";
    object      phi.air;
}
// * * * * * * * * * * * * * * * * * * * * * * * * * * * * * * * * * * * * * //

dimensions      [0 3 -1 0 0 0 0];

internalField   nonuniform List<scalar> 
16448
(
-1.41959e-06
-2.47573e-06
6.10476e-07
3.62723e-07
-2.56615e-06
7.83834e-07
4.00915e-07
-1.21089e-06
1.17269e-06
3.35652e-07
-1.00835e-06
1.0736e-06
-2.29845e-08
-5.17936e-07
8.7656e-07
-1.58106e-07
-6.66497e-07
8.01605e-07
-1.81935e-07
-6.98573e-07
7.22388e-07
-1.73646e-07
-6.78822e-07
6.7052e-07
-2.44734e-07
-5.33292e-07
6.04368e-07
-4.08784e-07
-3.84495e-07
5.48534e-07
-6.01984e-07
-2.84467e-07
4.77656e-07
-6.95161e-07
-2.88855e-07
3.82021e-07
-6.78236e-07
-3.22093e-07
3.05156e-07
-5.66248e-07
-3.66008e-07
2.54007e-07
-4.34791e-07
-3.79314e-07
2.47843e-07
-2.93095e-07
-3.97466e-07
2.55756e-07
-1.64428e-07
-4.10002e-07
2.81322e-07
-5.54481e-08
-4.2231e-07
3.13315e-07
2.65581e-08
-4.3289e-07
3.50869e-07
8.15335e-08
-4.4098e-07
3.85989e-07
1.08218e-07
-4.44569e-07
4.17869e-07
1.12227e-07
-4.48493e-07
4.44467e-07
1.01917e-07
-4.49038e-07
4.59333e-07
8.40218e-08
-4.44729e-07
4.62607e-07
6.2646e-08
-4.35109e-07
4.56469e-07
4.20244e-08
-4.21883e-07
4.42487e-07
2.64259e-08
-4.07905e-07
4.23487e-07
1.98106e-08
-3.96674e-07
4.03272e-07
2.1506e-08
-3.84673e-07
3.8296e-07
2.83122e-08
-3.71281e-07
3.64456e-07
3.92126e-08
-3.5765e-07
3.46732e-07
5.60061e-08
-3.45125e-07
3.28312e-07
8.20251e-08
-3.34411e-07
3.08374e-07
1.21218e-07
-3.26464e-07
2.87251e-07
1.76264e-07
-3.21633e-07
2.66567e-07
2.42462e-07
-3.1803e-07
2.51812e-07
3.08611e-07
-3.13243e-07
2.47074e-07
3.58092e-07
-3.05184e-07
2.55682e-07
3.55838e-07
-2.86456e-07
2.88689e-07
2.49019e-07
-2.57457e-07
3.64254e-07
-2.32575e-08
-2.2872e-07
5.00976e-07
-4.37655e-07
-2.42996e-07
6.57371e-07
-8.59611e-07
-3.73472e-07
7.95407e-07
-1.16467e-06
-6.61654e-07
9.66692e-07
-1.34233e-06
-9.51718e-07
1.12935e-06
-1.2581e-06
-1.32441e-06
1.24016e-06
-6.72052e-07
-1.85289e-06
1.26681e-06
-3.6878e-07
-1.63408e-06
1.33078e-06
-1.82788e-06
3.64281e-07
1.09478e-06
-3.57728e-06
1.30287e-06
4.46503e-07
7.04341e-07
-5.59495e-06
1.31331e-06
5.73669e-06
-6.72364e-06
1.69127e-06
9.6676e-06
-4.11958e-06
1.8864e-07
1.41695e-05
-3.13054e-06
-1.37135e-06
1.71288e-05
-1.87942e-07
-2.77142e-06
1.57004e-05
3.67407e-06
-2.24577e-06
9.11982e-06
7.59388e-06
-1.01336e-06
8.66766e-06
6.87401e-06
-6.42359e-06
-1.09043e-05
1.40263e-05
4.92439e-06
-3.45476e-05
-4.42567e-06
-6.13041e-06
-5.96437e-05
-1.654e-05
1.46089e-06
-8.71515e-06
-1.57465e-06
1.02302e-05
3.83644e-05
-6.13018e-06
4.1652e-06
3.98574e-05
-6.37393e-06
4.94802e-06
4.08e-05
-6.04773e-06
4.90667e-06
4.14278e-05
-5.78959e-06
4.94364e-06
4.11245e-05
-4.20455e-06
4.46924e-06
3.96358e-05
-1.82195e-06
3.438e-06
3.81287e-05
-1.53847e-06
2.96569e-06
3.67985e-05
-1.54751e-06
2.75155e-06
3.47058e-05
-2.30258e-07
2.39954e-06
3.10855e-05
8.61415e-07
2.75812e-06
2.85056e-05
-5.07833e-07
2.97558e-06
2.62926e-05
-3.84194e-07
2.54643e-06
2.13436e-05
2.33872e-06
2.52945e-06
1.51283e-05
2.85895e-06
3.2855e-06
1.1319e-05
-4.44439e-07
4.16159e-06
1.05274e-05
-4.15155e-06
4.83628e-06
1.12229e-05
-5.81734e-06
5.0207e-06
1.22189e-05
-5.6698e-06
4.62123e-06
1.38366e-05
-5.3027e-06
3.64191e-06
1.64191e-05
-5.00136e-06
2.37658e-06
1.98329e-05
-4.70853e-06
1.29979e-06
2.33132e-05
-4.7023e-06
1.25052e-06
2.65875e-05
-5.03236e-06
1.79812e-06
3.00649e-05
-5.28294e-06
1.85182e-06
3.33337e-05
-4.72718e-06
1.40078e-06
3.60931e-05
-3.97592e-06
1.18075e-06
3.84074e-05
-2.37121e-06
6.93635e-08
3.79366e-05
2.36538e-06
-1.81371e-06
3.50384e-05
5.34036e-06
-2.45329e-06
3.03051e-05
7.52967e-06
-2.7755e-06
1.96939e-05
8.89171e-06
1.69988e-06
3.94235e-06
8.70781e-06
6.9752e-06
-4.54394e-06
8.16905e-06
5.22921e-07
6.79891e-06
-1.0429e-05
-2.18593e-06
-3.55611e-06
-1.11376e-07
-7.74294e-07
-3.86386e-06
-1.13927e-07
-3.97613e-07
-2.29595e-06
7.08363e-07
3.59565e-08
-1.89833e-06
4.56399e-07
9.81458e-08
-8.89132e-07
3.08986e-07
-3.56174e-08
-8.03929e-07
2.71174e-07
-1.51232e-07
-7.41476e-07
1.58497e-07
-2.45751e-07
-6.75801e-07
9.14782e-08
-3.99073e-07
-4.65619e-07
8.56328e-08
-6.14125e-07
-2.86677e-07
1.17217e-07
-8.07384e-07
-1.94894e-07
1.03669e-07
-8.72841e-07
-2.48332e-07
2.49161e-08
-8.39264e-07
-3.13137e-07
-4.25527e-08
-7.25542e-07
-3.84493e-07
-9.52586e-08
-5.87822e-07
-4.07594e-07
-1.09461e-07
-4.38314e-07
-4.35185e-07
-1.1181e-07
-2.98379e-07
-4.5134e-07
-9.86203e-08
-1.74536e-07
-4.66553e-07
-7.96228e-08
-7.45034e-08
-4.77274e-07
-5.56734e-08
-6.81293e-10
-4.8341e-07
-3.14167e-08
4.52703e-08
-4.82557e-07
-7.98966e-09
6.66628e-08
-4.78252e-07
8.33973e-09
7.18704e-08
-4.6982e-07
1.5546e-08
6.65453e-08
-4.56294e-07
1.68619e-08
5.48084e-08
-4.37029e-07
1.36272e-08
4.04066e-08
-4.14438e-07
6.92743e-09
2.72786e-08
-3.91743e-07
-3.06559e-09
2.07072e-08
-3.71618e-07
-1.85159e-08
2.12413e-08
-3.51664e-07
-3.35756e-08
2.74383e-08
-3.29756e-07
-4.77548e-08
3.93803e-08
-3.07959e-07
-6.16665e-08
5.86255e-08
-2.88828e-07
-7.55771e-08
8.78687e-08
-2.74414e-07
-8.92765e-08
1.3055e-07
-2.6749e-07
-1.01691e-07
1.88541e-07
-2.67773e-07
-1.11888e-07
2.57052e-07
-2.7045e-07
-1.16131e-07
3.24981e-07
-2.70073e-07
-1.11138e-07
3.72299e-07
-2.61708e-07
-9.08343e-08
3.57168e-07
-2.30751e-07
-4.06168e-08
2.25082e-07
-1.68462e-07
4.3048e-08
-4.93028e-08
-1.12308e-07
1.57929e-07
-4.21129e-07
-1.33939e-07
2.62726e-07
-8.89877e-07
-2.38914e-07
3.34145e-07
-1.51111e-06
-5.2424e-07
4.83779e-07
-2.22709e-06
-9.16883e-07
6.81098e-07
-2.89027e-06
-1.46769e-06
8.06419e-07
-3.57258e-06
-2.08876e-06
9.18139e-07
-4.2064e-06
-2.03178e-06
1.03147e-06
-3.80303e-06
-5.84321e-07
5.45185e-07
4.63364e-07
-2.43635e-06
-5.2724e-07
5.62449e-06
-1.01854e-05
-5.70778e-07
7.41437e-06
-9.65226e-06
1.13869e-06
1.16771e-05
-6.92894e-06
-1.45341e-06
1.65831e-05
-4.8649e-06
-3.17166e-06
1.97817e-05
6.43325e-07
-4.02997e-06
1.97222e-05
7.491e-06
-3.75746e-06
1.61176e-05
1.30955e-05
-1.89722e-06
1.7356e-05
1.2816e-05
-7.18027e-06
-6.83809e-06
2.59229e-05
1.1848e-05
-3.41652e-05
-6.11384e-06
-5.17669e-06
-6.85906e-05
-2.43827e-05
-5.18889e-06
-2.06727e-05
-8.7897e-06
9.65888e-06
2.07764e-05
-1.11611e-05
7.08121e-06
2.02703e-05
-1.05746e-05
4.74358e-06
1.6825e-05
-8.09187e-06
5.44942e-06
1.1183e-05
-6.33122e-06
6.19954e-06
7.13699e-06
-4.89776e-06
4.73905e-06
4.31759e-06
-2.32726e-06
3.2098e-06
1.90475e-06
-2.48516e-06
3.26292e-06
3.88791e-07
-2.80264e-06
2.73767e-06
-2.2088e-07
-1.08779e-06
1.42768e-06
2.10195e-07
-1.57762e-07
5.35539e-07
1.20327e-06
-6.64119e-07
-8.51249e-07
2.90723e-06
-7.88084e-07
-1.25024e-06
5.36883e-06
2.73758e-07
-3.74587e-07
7.4354e-06
6.2868e-07
1.72629e-07
8.83071e-06
-1.84098e-06
2.22671e-08
1.02304e-05
-5.59326e-06
1.09699e-07
1.14374e-05
-7.03838e-06
1.54293e-07
1.34372e-05
-6.52262e-06
-9.88106e-07
1.68679e-05
-4.97535e-06
-3.72292e-06
2.01387e-05
-3.22298e-06
-5.12128e-06
2.28802e-05
-2.3153e-06
-5.19815e-06
2.49331e-05
-2.80334e-06
-3.99341e-06
2.62024e-05
-4.41734e-06
-1.9777e-06
2.70952e-05
-5.4382e-06
-8.24724e-07
2.90253e-05
-6.83223e-06
1.32844e-07
3.23545e-05
-7.75082e-06
4.42545e-07
3.56132e-05
-4.48665e-06
-1.05639e-06
3.72e-05
4.29637e-06
-3.47821e-06
3.56241e-05
1.09517e-05
-4.02428e-06
3.20811e-05
1.46105e-05
-3.46589e-06
2.37832e-05
1.71236e-05
1.55309e-07
8.13956e-06
1.85039e-05
5.78584e-06
-1.56262e-06
1.75871e-05
4.88477e-07
1.63059e-05
-1.01063e-05
-2.67581e-06
-3.84258e-06
-3.86369e-07
-1.55212e-06
-4.39797e-06
-5.8958e-07
-1.08963e-06
-2.98995e-06
2.3149e-07
-4.39537e-07
-2.62318e-06
7.47353e-08
-1.35433e-07
-1.2192e-06
2.59398e-08
-1.63072e-07
-7.9723e-07
2.0919e-08
-2.80449e-07
-4.91439e-07
-1.32679e-07
-3.70693e-07
-4.17536e-07
-1.68039e-07
-4.77328e-07
-1.88005e-07
-1.70996e-07
-5.8351e-07
-4.6762e-08
-1.33749e-07
-6.96938e-07
2.93239e-08
-1.10806e-07
-7.44895e-07
-4.70348e-08
-1.53358e-07
-7.42817e-07
-1.06905e-07
-2.08328e-07
-6.91022e-07
-1.80737e-07
-2.55571e-07
-6.13111e-07
-2.08337e-07
-2.77188e-07
-5.18309e-07
-2.37558e-07
-2.9245e-07
-4.22182e-07
-2.51772e-07
-2.95716e-07
-3.28905e-07
-2.64953e-07
-2.949e-07
-2.45561e-07
-2.71532e-07
-2.8911e-07
-1.74068e-07
-2.73355e-07
-2.81572e-07
-1.16038e-07
-2.67268e-07
-2.73343e-07
-7.16271e-08
-2.55007e-07
-2.67681e-07
-4.03e-08
-2.378e-07
-2.63373e-07
-1.99263e-08
-2.16412e-07
-2.60282e-07
-7.69398e-09
-1.91145e-07
-2.58143e-07
-6.05734e-10
-1.64161e-07
-2.57394e-07
3.62735e-09
-1.37955e-07
-2.58049e-07
6.36354e-09
-1.13865e-07
-2.6052e-07
9.79831e-09
-9.07393e-08
-2.64389e-07
1.56015e-08
-6.63159e-08
-2.69275e-07
2.48782e-08
-4.30473e-08
-2.74221e-07
3.76734e-08
-2.35524e-08
-2.78104e-07
5.32599e-08
-9.86074e-09
-2.80173e-07
7.17551e-08
-5.25038e-09
-2.8077e-07
9.28164e-08
-1.03169e-08
-2.78553e-07
1.14942e-07
-2.03767e-08
-2.72235e-07
1.31354e-07
-2.86507e-08
-2.57872e-07
1.21332e-07
-2.50481e-08
-2.26677e-07
5.3336e-08
6.40375e-09
-1.69197e-07
-8.35714e-08
5.28923e-08
-8.44874e-08
-2.22109e-07
2.9061e-08
-2.87269e-09
-2.7101e-07
-1.11088e-07
2.60074e-08
-3.8011e-07
-1.89887e-07
6.00309e-08
-8.37016e-07
-2.65647e-07
1.98269e-07
-1.62515e-06
-5.07616e-07
3.78829e-07
-2.47062e-06
-9.79746e-07
3.57482e-07
-3.20352e-06
-1.44586e-06
8.99566e-08
-3.69136e-06
-1.6376e-06
9.36264e-08
-2.69238e-06
-1.25672e-06
-3.26623e-07
2.65328e-06
-5.72513e-06
-2.05694e-06
5.90982e-06
-1.23192e-05
-1.12276e-06
7.47019e-06
-1.12441e-05
3.14416e-08
1.33782e-05
-9.16782e-06
-3.66922e-06
1.90995e-05
-6.06156e-06
-4.52461e-06
2.19376e-05
1.29606e-06
-3.49094e-06
2.28778e-05
9.20553e-06
-2.65469e-06
1.9415e-05
1.83483e-05
-1.79011e-06
2.17451e-05
1.77022e-05
-7.21615e-06
-6.8475e-06
3.42777e-05
1.96381e-05
-3.65537e-05
-1.15316e-05
-1.43812e-06
-7.68766e-05
-2.629e-05
-1.39221e-05
-2.90546e-05
-1.15565e-05
-3.06985e-06
1.3581e-05
-7.90064e-06
1.02489e-06
8.27218e-06
-9.23553e-06
3.59414e-06
2.82863e-07
-6.05305e-06
5.77724e-06
-3.92124e-06
-5.45215e-06
3.26857e-06
-5.06717e-06
-5.12629e-06
2.2703e-06
-4.38268e-06
-4.78063e-06
2.76231e-06
-3.48891e-06
-4.41538e-06
2.27388e-06
-2.93086e-06
-4.80541e-06
1.41682e-06
-2.02498e-06
-1.85098e-06
-1.82842e-07
-5.35997e-07
1.98972e-06
-3.76505e-06
1.90055e-06
8.30256e-06
-9.79804e-06
4.1234e-06
9.48998e-06
-1.21411e-05
4.25203e-06
7.99032e-06
-9.35172e-06
3.10949e-06
3.48564e-06
-5.02605e-06
1.68774e-06
-1.70251e-06
-6.45121e-07
-3.8695e-07
-6.57638e-06
2.21922e-06
-1.87983e-06
-7.49593e-06
2.05392e-06
-1.9375e-06
-7.59751e-06
1.15743e-06
-1.10088e-06
-7.02561e-06
1.2681e-06
-4.82218e-07
-6.50949e-06
2.82322e-06
-5.20542e-07
-6.88758e-06
4.73161e-06
-3.43274e-07
-8.2664e-06
5.34711e-06
4.16327e-07
-1.04915e-05
5.38918e-06
2.51807e-06
-1.18889e-05
4.37745e-06
5.63345e-06
-1.32392e-05
3.28912e-06
1.06034e-05
-1.405e-05
1.18535e-06
1.8934e-05
-1.02397e-05
-2.53524e-06
2.72828e-05
1.53776e-06
-5.53584e-06
3.02957e-05
1.40109e-05
-6.44096e-06
2.94947e-05
2.14593e-05
-6.24066e-06
2.27279e-05
2.57518e-05
-1.8866e-06
7.30707e-06
2.81426e-05
5.73192e-06
-1.80156e-06
2.67769e-05
1.25043e-07
2.56577e-05
-1.00419e-05
-3.12939e-06
-3.90278e-06
-1.58764e-07
-2.04535e-06
-4.66276e-06
-8.19259e-07
-1.71115e-06
-3.42486e-06
1.00697e-07
-1.03385e-06
-3.34529e-06
4.48019e-08
-5.55522e-07
-1.85543e-06
1.57883e-07
-3.63721e-07
-1.0698e-06
8.07529e-08
-3.85136e-07
-3.27666e-07
-1.42378e-07
-4.0625e-07
-1.87838e-07
-2.08601e-07
-3.9956e-07
2.91974e-08
-2.2391e-07
-4.24629e-07
1.68961e-07
-1.90671e-07
-4.83129e-07
2.74769e-07
-1.86963e-07
-5.44659e-07
2.28051e-07
-2.13573e-07
-6.01355e-07
1.96436e-07
-2.46666e-07
-6.08254e-07
1.16211e-07
-2.90068e-07
-5.80882e-07
8.03609e-08
-3.16092e-07
-5.25901e-07
4.87799e-08
-3.41339e-07
-4.59527e-07
3.95264e-08
-3.57696e-07
-3.89381e-07
3.64909e-08
-3.71611e-07
-3.21764e-07
4.11313e-08
-3.80305e-07
-2.58691e-07
4.89353e-08
-3.85387e-07
-2.00819e-07
6.19191e-08
-3.87085e-07
-1.48772e-07
7.88878e-08
-3.85967e-07
-1.04664e-07
9.99786e-08
-3.81914e-07
-6.96086e-08
1.24541e-07
-3.76035e-07
-4.32995e-08
1.52226e-07
-3.69709e-07
-2.50098e-08
1.81345e-07
-3.63824e-07
-1.26733e-08
2.08401e-07
-3.58723e-07
-3.77638e-09
2.32136e-07
-3.54927e-07
3.55469e-09
2.54873e-07
-3.52975e-07
9.87721e-09
2.79185e-07
-3.51855e-07
1.48823e-08
3.02983e-07
-3.51068e-07
1.76107e-08
3.23059e-07
-3.49372e-07
1.61188e-08
3.36838e-07
-3.45242e-07
7.71549e-09
3.40881e-07
-3.37762e-07
-7.97743e-09
3.33054e-07
-3.27715e-07
-3.08428e-08
3.18527e-07
-3.16074e-07
-6.82596e-08
3.08371e-07
-2.99642e-07
-1.42998e-07
3.18464e-07
-2.68811e-07
-2.67634e-07
3.48284e-07
-2.17284e-07
-3.77421e-07
3.2327e-07
-1.60631e-07
-3.36657e-07
1.18672e-07
-1.30416e-07
-9.8826e-08
-1.69689e-07
-1.79272e-07
1.05475e-07
-2.21117e-07
-1.73114e-07
8.25555e-09
-1.18382e-07
-5.00896e-08
-2.89119e-07
-3.01017e-07
9.07317e-08
-6.29254e-07
-7.20439e-07
8.07841e-08
-8.33292e-07
-1.0898e-06
-1.52057e-07
-8.94353e-07
-1.16473e-06
-4.11853e-07
9.23317e-07
-2.00796e-06
-1.06648e-06
4.94146e-06
-7.25248e-06
-2.49086e-06
6.19309e-06
-1.28785e-05
-6.92451e-07
8.7534e-06
-1.23694e-05
-1.43514e-06
1.5471e-05
-1.08501e-05
-5.03539e-06
2.19667e-05
-8.14408e-06
-4.41325e-06
2.36713e-05
2.30057e-07
-6.38574e-07
2.38442e-05
5.59669e-06
3.43588e-06
2.05353e-05
2.24974e-05
-8.40187e-07
2.43268e-05
1.73604e-05
-3.44941e-06
-4.14599e-06
3.59649e-05
2.54193e-05
-4.52113e-05
-8.31738e-06
-6.41636e-06
-0.000100667
-2.06198e-05
-1.377e-05
-8.93017e-05
-7.23214e-06
-3.74055e-07
-3.81499e-05
-3.09819e-06
1.21499e-06
-4.89267e-06
-1.18155e-06
2.55241e-06
-1.1509e-05
-1.31789e-07
5.85831e-07
-3.82338e-05
-2.30645e-06
-9.89794e-07
-7.95067e-05
-3.10134e-06
-2.4603e-06
-9.24989e-05
-2.2228e-06
-4.72647e-06
-5.00004e-05
-9.53544e-07
-5.97617e-06
-9.4441e-06
1.97325e-06
-7.33913e-06
-7.60493e-06
5.68165e-06
-7.14769e-06
-4.5472e-05
9.61214e-06
-6.40617e-06
-9.51939e-05
1.21432e-05
-5.5687e-06
-0.000106593
1.03199e-05
-2.31143e-06
-0.000109579
5.15972e-06
-1.25379e-06
-0.000111887
-1.25498e-06
3.35439e-06
-0.000103526
-5.11629e-06
7.64994e-06
-5.56736e-05
-8.33021e-06
7.79372e-06
-1.90169e-05
-1.04831e-05
6.64701e-06
-1.95527e-05
-1.19389e-05
4.40006e-06
-1.80033e-05
-1.22276e-05
3.71013e-06
-1.51522e-05
-1.2371e-05
3.02687e-06
-1.18556e-05
-1.29577e-05
2.34856e-06
-8.08442e-06
-1.47648e-05
2.25048e-06
-5.30879e-06
-1.50655e-05
1.97767e-06
-3.19872e-06
-1.49086e-05
1.0304e-06
-1.88475e-06
-1.43851e-05
-1.38629e-07
-7.11596e-07
-1.42064e-05
-1.12265e-06
4.74515e-06
-1.29326e-05
-2.81045e-06
1.2971e-05
-1.06059e-06
-5.56326e-06
2.02012e-05
1.34613e-05
-6.58713e-06
2.14625e-05
2.43683e-05
-4.06522e-06
1.1242e-05
3.21245e-05
3.973e-06
-1.70088e-06
3.42709e-05
6.78358e-06
-5.34752e-06
3.07977e-05
-1.08518e-07
3.14272e-05
-9.95995e-06
-3.53038e-06
-3.78945e-06
5.43283e-08
-2.47025e-06
-4.81992e-06
-9.02987e-07
-2.23018e-06
-3.62567e-06
-3.92697e-08
-1.5423e-06
-3.87758e-06
-1.55612e-07
-1.04797e-06
-2.65487e-06
3.05093e-07
-5.54852e-07
-1.76259e-06
1.99648e-07
-3.98544e-07
-3.66914e-07
-1.17077e-07
-4.07495e-07
8.52068e-09
-1.87424e-07
-3.33151e-07
2.00994e-07
-2.46156e-07
-3.00978e-07
3.59523e-07
-2.22752e-07
-3.13119e-07
5.00141e-07
-2.13247e-07
-3.81771e-07
5.01927e-07
-2.05242e-07
-4.75698e-07
5.00985e-07
-2.10639e-07
-5.23437e-07
4.0295e-07
-2.3902e-07
-5.26383e-07
3.45377e-07
-2.62088e-07
-4.937e-07
3.05608e-07
-2.89532e-07
-4.44934e-07
3.02121e-07
-3.11381e-07
-3.93054e-07
3.17008e-07
-3.32419e-07
-3.41638e-07
3.39473e-07
-3.49779e-07
-2.9068e-07
3.61765e-07
-3.6381e-07
-2.38305e-07
3.84249e-07
-3.74727e-07
-1.86075e-07
4.08063e-07
-3.81429e-07
-1.3727e-07
4.34544e-07
-3.83395e-07
-9.43319e-08
4.62657e-07
-3.8108e-07
-5.83172e-08
4.9173e-07
-3.75543e-07
-3.0021e-08
5.20128e-07
-3.67107e-07
-8.20166e-09
5.44179e-07
-3.57623e-07
8.04969e-09
5.64026e-07
-3.4817e-07
1.82284e-08
5.83476e-07
-3.38809e-07
2.2553e-08
6.04566e-07
-3.29735e-07
2.04439e-08
6.25502e-07
-3.20438e-07
1.0648e-08
6.43141e-07
-3.10318e-07
-1.04573e-08
6.56895e-07
-2.98981e-07
-4.69892e-08
6.64322e-07
-2.86941e-07
-1.04861e-07
6.65492e-07
-2.74596e-07
-1.89515e-07
6.65357e-07
-2.62209e-07
-3.02997e-07
6.69429e-07
-2.47608e-07
-4.42012e-07
6.8358e-07
-2.26135e-07
-5.76222e-07
6.80639e-07
-1.98178e-07
-6.06202e-07
5.43585e-07
-1.90369e-07
-4.17259e-07
1.73324e-07
-2.43629e-07
-4.30741e-08
-1.61466e-07
-3.82444e-07
3.4052e-07
-1.78599e-07
-4.26149e-07
6.13766e-07
-5.43433e-08
-3.37323e-07
7.97317e-07
-2.41995e-07
-2.4261e-07
9.25536e-07
-5.59488e-07
-2.89208e-07
1.03891e-06
-8.13048e-07
-3.90163e-07
1.44921e-06
-9.41055e-07
-6.34021e-07
3.01995e-06
-2.6372e-06
-9.41535e-07
5.49947e-06
-8.17188e-06
-1.56019e-06
5.4257e-06
-1.1934e-05
-8.70809e-07
7.27171e-06
-1.15206e-05
-2.69475e-06
1.22727e-05
-1.09049e-05
-4.94624e-06
1.86026e-05
-1.03763e-05
-4.09773e-06
2.21049e-05
-2.81365e-06
-4.5859e-07
2.49248e-05
-1.34105e-06
4.11787e-06
2.04967e-05
2.87482e-05
-1.82273e-06
2.49296e-05
9.72468e-06
3.20285e-06
-3.14798e-06
3.51432e-05
2.68392e-05
-4.99675e-05
-3.49156e-06
-7.24564e-06
-0.000109459
-9.09834e-06
-1.76554e-05
-0.000107302
-1.62442e-06
-2.29216e-06
-0.000113309
2.32185e-06
-1.65271e-06
-0.000123617
3.63388e-06
2.55042e-06
-0.000128825
2.32898e-06
8.96547e-07
-0.000130845
-4.23153e-07
-1.15557e-07
-0.000131088
-1.9095e-06
-6.24415e-07
-0.000129026
-2.11888e-06
-1.43178e-06
-0.000124613
-7.49189e-07
-1.79576e-06
-0.000119739
3.34371e-06
-1.82806e-06
-0.000116614
8.13436e-06
-1.7057e-06
-0.00011712
1.14148e-05
-4.87139e-07
-0.00011989
1.21107e-05
1.70557e-06
-0.00012313
7.58763e-06
4.48071e-06
-0.000125986
2.08607e-06
6.55314e-06
-0.000129874
-3.6574e-06
8.39022e-06
-0.000136736
-6.26066e-06
8.71984e-06
-0.000142276
-8.21308e-06
6.1869e-06
-0.000142871
-1.11358e-05
3.01618e-06
-0.000141372
-1.24028e-05
9.03093e-07
-0.000137634
-1.26155e-05
-5.50913e-07
-0.000129368
-1.28648e-05
-1.16512e-06
-0.000108501
-1.4402e-05
-2.53757e-08
-5.19636e-05
-1.60014e-05
1.19673e-06
-8.5191e-06
-1.57369e-05
3.99179e-07
-6.61046e-06
-1.33519e-05
-8.31324e-07
-6.38584e-06
-9.02198e-06
-3.34668e-06
-6.88535e-06
-1.04591e-05
-3.39932e-06
-8.10466e-06
-9.76862e-06
-2.12584e-06
-6.2882e-06
-1.88939e-06
-1.09149e-06
-2.9443e-06
1.13856e-05
-1.26019e-06
-3.7179e-06
2.31557e-05
2.05496e-06
-8.72498e-06
3.17879e-05
5.52035e-06
-9.68436e-06
3.22153e-05
3.10137e-06
-7.77769e-06
3.16356e-05
-2.48121e-06
3.58091e-05
-1.10648e-05
-3.9022e-06
-3.4892e-06
3.79132e-07
-2.89795e-06
-4.94737e-06
-8.76804e-07
-2.64351e-06
-3.70679e-06
-1.73327e-07
-1.77966e-06
-4.09359e-06
-6.47849e-07
-1.29245e-06
-3.25808e-06
1.15982e-07
-6.18272e-07
-2.57713e-06
1.4035e-07
-3.12432e-07
-6.233e-07
-4.94696e-08
-3.44927e-07
1.50501e-07
-1.09498e-07
-2.55082e-07
3.51684e-07
-2.40549e-07
-2.02966e-07
5.20097e-07
-2.12704e-07
-1.86079e-07
6.89446e-07
-2.06207e-07
-2.63638e-07
7.59832e-07
-1.8036e-07
-3.82529e-07
7.90192e-07
-1.70333e-07
-4.49042e-07
6.61555e-07
-1.92107e-07
-4.546e-07
5.73053e-07
-2.22136e-07
-4.23268e-07
5.29739e-07
-2.55478e-07
-3.79354e-07
5.41145e-07
-2.82955e-07
-3.41939e-07
5.84646e-07
-3.05069e-07
-3.11896e-07
6.32754e-07
-3.23342e-07
-2.84635e-07
6.72545e-07
-3.38057e-07
-2.54222e-07
7.03538e-07
-3.4972e-07
-2.19772e-07
7.30207e-07
-3.56612e-07
-1.83579e-07
7.56362e-07
-3.58031e-07
-1.47859e-07
7.82161e-07
-3.55242e-07
-1.17156e-07
8.09555e-07
-3.48549e-07
-9.18624e-08
8.33371e-07
-3.38556e-07
-6.9773e-08
8.4848e-07
-3.26412e-07
-5.0711e-08
8.58327e-07
-3.13382e-07
-3.6929e-08
8.69174e-07
-2.99501e-07
-3.23882e-08
8.85788e-07
-2.85783e-07
-4.13921e-08
9.07382e-07
-2.72898e-07
-6.70737e-08
9.29579e-07
-2.60777e-07
-1.13592e-07
9.51934e-07
-2.48541e-07
-1.83786e-07
9.71582e-07
-2.37086e-07
-2.80724e-07
9.88479e-07
-2.2607e-07
-4.0458e-07
1.00392e-06
-2.14727e-07
-5.41176e-07
1.01131e-06
-2.05308e-07
-6.52956e-07
9.97461e-07
-2.02121e-07
-6.82717e-07
9.18604e-07
-2.08225e-07
-5.80566e-07
6.92981e-07
-2.51566e-07
-3.72672e-07
3.38835e-07
-3.73425e-07
-4.2842e-08
9.19534e-08
-5.8327e-07
4.42271e-07
8.5215e-08
-7.48947e-07
1.02393e-06
1.00057e-07
-7.36084e-07
1.62494e-06
-1.37778e-07
-7.0524e-07
2.19333e-06
-3.93551e-07
-7.3435e-07
2.74639e-06
-7.0156e-07
-6.64569e-07
3.63703e-06
-1.13903e-06
-6.92689e-07
4.79241e-06
-2.9688e-06
-8.238e-07
5.41143e-06
-7.6051e-06
-1.18586e-06
2.90436e-06
-8.55345e-06
-8.73534e-07
-1.10426e-06
-5.78089e-06
-1.73114e-06
-2.74819e-06
-8.84119e-06
-4.19729e-07
-2.99005e-06
-7.90534e-06
-2.22905e-06
8.65209e-06
-6.01582e-06
-8.44e-06
1.13953e-05
-1.24204e-06
-2.84208e-06
1.09517e-05
3.53241e-05
-6.13222e-06
4.2384e-06
1.20445e-05
4.39436e-06
-3.83118e-06
2.37474e-05
1.7151e-05
-5.04183e-05
1.71543e-06
-9.7239e-06
-0.000119931
6.01303e-06
-1.51807e-05
-0.000117182
2.42106e-06
-5.65395e-07
-0.000123244
6.60687e-06
-9.6615e-07
-0.000130766
7.53572e-06
3.87486e-06
-0.000135903
4.57116e-06
2.5181e-06
-0.000140106
4.27364e-07
2.30705e-06
-0.000140758
-2.98891e-06
1.69685e-06
-0.000139583
-4.36203e-06
1.47262e-06
-0.000137006
-4.48706e-06
1.42526e-06
-0.000133554
-1.93589e-06
1.53541e-06
-0.000130582
3.33672e-06
1.79394e-06
-0.00012999
8.9688e-06
2.76199e-06
-0.000132414
1.07976e-05
4.80347e-06
-0.000138882
7.83248e-06
6.72808e-06
-0.000147246
3.50402e-06
8.04196e-06
-0.000154411
-2.19707e-06
7.88288e-06
-0.000156853
-5.40223e-06
4.09103e-06
-0.000156576
-8.36443e-06
2.18713e-06
-0.000156438
-1.05634e-05
4.64448e-07
-0.00015447
-1.15979e-05
-1.70474e-06
-0.000151142
-1.30537e-05
-2.34297e-06
-0.000147325
-1.42405e-05
-1.52461e-06
-0.00014374
-1.66753e-05
1.12633e-07
-0.000140601
-1.75451e-05
3.66391e-07
-0.000134467
-1.59769e-05
4.97872e-07
-0.000112011
-1.21855e-05
-1.82167e-06
-5.13584e-05
-6.56461e-06
-4.25781e-06
-9.44022e-06
-3.90187e-06
-4.04641e-06
-1.30869e-05
-1.40747e-06
-3.07198e-06
-1.66227e-05
1.88506e-06
-3.57014e-07
-1.71549e-05
1.08116e-05
9.30751e-07
-1.71029e-05
2.0729e-05
2.12991e-06
-1.54238e-05
2.74549e-05
2.46681e-06
-1.20323e-05
2.89417e-05
-1.36324e-07
-8.43254e-06
3.33833e-05
-5.22831e-06
4.03446e-05
-1.14548e-05
-4.20118e-06
-2.94838e-06
7.41095e-07
-3.31176e-06
-4.90684e-06
-9.29945e-07
-3.07299e-06
-3.55158e-06
-3.93993e-07
-1.94163e-06
-4.0156e-06
-1.20936e-06
-1.29304e-06
-3.48645e-06
-4.20231e-07
-4.76628e-07
-2.99556e-06
-3.98003e-07
-1.33406e-07
-8.28401e-07
-1.38131e-07
-2.60258e-07
3.4575e-07
-6.84084e-08
-1.96363e-07
5.42641e-07
-2.54861e-07
-1.81665e-07
7.29956e-07
-2.24567e-07
-1.51696e-07
8.91625e-07
-2.32158e-07
-2.04635e-07
9.87792e-07
-1.75033e-07
-2.92692e-07
1.02985e-06
-1.51606e-07
-3.33032e-07
8.75922e-07
-1.74038e-07
-3.25909e-07
7.84225e-07
-2.18305e-07
-2.98007e-07
7.54479e-07
-2.52653e-07
-2.70908e-07
7.92322e-07
-2.78286e-07
-2.58483e-07
8.65172e-07
-2.92963e-07
-2.59053e-07
9.3635e-07
-3.03035e-07
-2.65451e-07
9.89836e-07
-3.10904e-07
-2.7069e-07
1.02614e-06
-3.17367e-07
-2.71563e-07
1.05195e-06
-3.20881e-07
-2.66776e-07
1.07191e-06
-3.20345e-07
-2.57574e-07
1.0881e-06
-3.15155e-07
-2.48943e-07
1.10584e-06
-3.04929e-07
-2.4145e-07
1.11815e-06
-2.92281e-07
-2.30523e-07
1.11871e-06
-2.81163e-07
-2.16835e-07
1.11515e-06
-2.70518e-07
-2.04125e-07
1.11636e-06
-2.59903e-07
-2.0108e-07
1.13144e-06
-2.48703e-07
-2.16963e-07
1.16023e-06
-2.36973e-07
-2.55229e-07
1.19342e-06
-2.25579e-07
-3.15254e-07
1.22728e-06
-2.15325e-07
-3.92338e-07
1.25542e-06
-2.06757e-07
-4.79243e-07
1.27539e-06
-2.00006e-07
-5.6341e-07
1.28395e-06
-1.9587e-07
-6.2232e-07
1.26587e-06
-1.95644e-07
-6.22146e-07
1.20352e-06
-2.06238e-07
-5.33386e-07
1.05977e-06
-2.29921e-07
-3.60146e-07
8.02836e-07
-2.83094e-07
-1.86735e-07
5.41145e-07
-3.75719e-07
1.22838e-08
4.71003e-07
-5.78064e-07
4.28103e-07
4.93539e-07
-8.24138e-07
1.1903e-06
3.21373e-07
-9.83512e-07
2.20438e-06
-9.30048e-08
-1.05884e-06
3.25244e-06
-3.69894e-07
-1.07171e-06
4.07208e-06
-5.81032e-07
-9.40163e-07
5.41401e-06
-1.58347e-06
-8.97489e-07
6.68723e-06
-3.29633e-06
-9.45692e-07
5.65611e-06
-5.41929e-06
-1.15472e-06
6.05995e-07
-2.65353e-06
-8.49837e-07
-7.37703e-06
1.30474e-06
8.97429e-07
-1.44825e-05
-4.45767e-06
2.72196e-06
-1.91093e-05
-2.82481e-06
-4.53592e-07
-2.33991e-05
1.70031e-06
-3.42627e-06
-2.6373e-05
5.50836e-06
-3.77616e-06
1.82552e-06
1.77905e-05
-1.06657e-05
-1.37161e-06
1.70225e-05
-1.77903e-06
-5.24509e-06
9.89002e-06
1.60852e-05
-5.2541e-05
6.77934e-06
-9.75452e-06
-0.000129816
2.01127e-05
-1.1858e-05
-0.000128109
8.01232e-06
7.74997e-07
-0.00013622
1.11928e-05
5.61561e-07
-0.000144035
1.05515e-05
4.35136e-06
-0.000148932
6.94678e-06
2.98262e-06
-0.000153678
8.18271e-07
2.74121e-06
-0.000155283
-3.61938e-06
2.5986e-06
-0.000155789
-6.37424e-06
2.63989e-06
-0.000155358
-7.16731e-06
2.44538e-06
-0.000154598
-7.03171e-06
2.32547e-06
-0.000152067
-3.77626e-06
2.30051e-06
-0.000149348
3.20713e-06
3.41684e-06
-0.00015142
8.45721e-06
5.36013e-06
-0.000159319
9.92909e-06
7.7853e-06
-0.000169224
7.30966e-06
6.68886e-06
-0.000173664
5.4894e-07
2.10668e-06
-0.000172493
-4.85045e-06
-9.74234e-07
-0.000171092
-7.5616e-06
-1.78421e-06
-0.00016874
-9.79696e-06
-3.79529e-06
-0.000165169
-1.22268e-05
-3.80494e-06
-0.000161304
-1.53964e-05
-3.5954e-06
-0.000157177
-1.86625e-05
-1.4158e-06
-0.00015501
-2.13256e-05
1.07716e-06
-0.000155152
-2.18036e-05
3.17343e-06
-0.000155611
-2.00677e-05
3.85787e-06
-0.000153773
-1.42296e-05
1.69587e-06
-0.000144041
-5.87501e-06
-2.44912e-06
-0.000117786
-7.79909e-07
-3.37749e-06
-5.57562e-05
3.45369e-06
-2.1252e-06
-1.49391e-05
9.35259e-06
-1.22456e-06
-1.61318e-05
1.51259e-05
1.50922e-07
-1.54879e-05
2.07875e-05
6.22362e-07
-1.32475e-05
2.63016e-05
-4.96848e-07
-1.16244e-05
3.10264e-05
-3.38098e-06
-6.04891e-05
3.78495e-05
-7.85916e-06
4.42378e-05
-1.13489e-05
-4.11261e-06
-2.22049e-06
1.38582e-06
-3.60071e-06
-4.52029e-06
-8.98448e-07
-3.62618e-06
-3.23571e-06
-2.90407e-07
-2.39653e-06
-3.82235e-06
-1.42291e-06
-1.43738e-06
-3.57478e-06
-8.70823e-07
-3.03244e-07
-3.19818e-06
-9.31524e-07
1.12913e-07
-1.08259e-06
-1.61978e-07
-3.83573e-08
4.54379e-07
4.26353e-08
-4.42476e-08
8.56921e-07
-3.08397e-07
-1.69256e-07
1.11439e-06
-2.59428e-07
-1.50362e-07
1.17805e-06
-3.05324e-07
-1.5259e-07
1.26126e-06
-2.7125e-07
-1.36574e-07
1.29429e-06
-2.80461e-07
-1.26957e-07
1.18597e-06
-3.19667e-07
-1.24231e-07
1.14797e-06
-3.66471e-07
-1.39888e-07
1.1699e-06
-3.9977e-07
-1.69936e-07
1.24592e-06
-4.23553e-07
-2.10437e-07
1.34305e-06
-4.3738e-07
-2.57061e-07
1.43222e-06
-4.49247e-07
-3.08526e-07
1.50105e-06
-4.59751e-07
-3.52936e-07
1.53922e-06
-4.68673e-07
-3.85945e-07
1.5602e-06
-4.75237e-07
-4.08119e-07
1.57317e-06
-4.79089e-07
-4.19896e-07
1.58074e-06
-4.8086e-07
-4.21684e-07
1.58772e-06
-4.80084e-07
-4.16487e-07
1.59074e-06
-4.7778e-07
-4.07886e-07
1.58584e-06
-4.75728e-07
-3.95947e-07
1.57736e-06
-4.74147e-07
-3.84654e-07
1.57622e-06
-4.71152e-07
-3.8495e-07
1.59664e-06
-4.64901e-07
-4.08468e-07
1.63923e-06
-4.55469e-07
-4.54348e-07
1.68499e-06
-4.4568e-07
-5.17497e-07
1.72833e-06
-4.37894e-07
-5.85197e-07
1.75678e-06
-4.33649e-07
-6.40497e-07
1.76395e-06
-4.33251e-07
-6.60535e-07
1.74301e-06
-4.39e-07
-6.09744e-07
1.67268e-06
-4.57591e-07
-4.62505e-07
1.55461e-06
-4.98308e-07
-2.0269e-07
1.36115e-06
-5.61179e-07
1.17413e-07
1.12489e-06
-6.42131e-07
3.40295e-07
1.04925e-06
-7.30962e-07
3.95099e-07
1.29151e-06
-8.75285e-07
7.01849e-07
1.35493e-06
-1.1681e-06
1.54826e-06
9.791e-07
-1.5041e-06
2.95859e-06
3.32068e-07
-1.83536e-06
4.39523e-06
-2.60575e-08
-1.78043e-06
5.29814e-06
-2.93094e-07
-1.19081e-06
6.92466e-06
-2.01531e-06
-1.19465e-06
8.03284e-06
-2.94779e-06
-1.4567e-06
6.2509e-06
-1.20235e-06
-2.43502e-06
3.94319e-06
3.6479e-06
-3.99374e-06
-2.11937e-06
6.74637e-06
6.20962e-07
-1.29415e-05
4.36429e-06
2.00027e-06
-2.19086e-05
6.54025e-06
-3.97815e-07
-3.05861e-05
1.10153e-05
-6.37454e-07
-3.1394e-05
6.11055e-06
2.06079e-07
3.9467e-06
-7.03882e-06
-1.05111e-05
1.05258e-05
9.24554e-06
1.19915e-06
-5.10207e-06
-4.04447e-06
2.78214e-05
-6.09093e-05
1.35644e-05
-9.50981e-06
-0.000154397
3.72472e-05
-1.20261e-05
-0.000154258
1.62459e-05
2.54783e-06
-0.000162948
1.60724e-05
2.74458e-06
-0.000170197
1.11742e-05
6.17873e-06
-0.000172816
7.80952e-06
3.49173e-06
-0.000175316
6.52237e-07
3.48618e-06
-0.00017815
-2.84624e-06
4.17667e-06
-0.00018496
-4.43207e-06
4.87211e-06
-0.000192316
-3.56617e-06
3.9428e-06
-0.000199004
-3.72961e-06
4.04407e-06
-0.000205355
-3.85501e-06
5.06957e-06
-0.000208439
-1.07233e-06
5.86808e-06
-0.000208461
3.98661e-06
4.07965e-06
-0.000208468
7.82732e-06
2.0124e-06
-0.000207286
7.35188e-06
-1.09288e-06
-0.000205708
2.28717e-06
-3.85196e-06
-0.000204633
-1.17018e-06
-5.83528e-06
-0.000203307
-1.78278e-06
-9.03068e-06
-0.000200153
-2.77125e-06
-1.10099e-05
-0.000196055
-6.22287e-06
-1.07398e-05
-0.000192444
-1.20919e-05
-8.43759e-06
-0.000188698
-1.97127e-05
-4.64985e-06
-0.000186932
-2.40306e-05
-3.72981e-07
-0.000188415
-2.57577e-05
3.50218e-06
-0.000192343
-2.4303e-05
7.59587e-06
-0.000197132
-1.94858e-05
9.71954e-06
-0.000199934
-9.11979e-06
6.70029e-06
-0.000197961
-1.10754e-06
1.18434e-06
-0.000192742
5.49108e-06
-1.33353e-06
-0.0001895
1.31996e-05
-8.79623e-07
-0.000187857
1.91674e-05
-5.15049e-07
-0.000185113
2.41463e-05
-8.64292e-07
-0.000181514
2.96454e-05
-3.29743e-06
-0.000178263
3.57435e-05
-6.71668e-06
-0.000176442
4.04955e-05
-1.00325e-05
4.18346e-05
-9.92049e-06
-3.27293e-06
-1.20064e-06
2.37578e-06
-3.66304e-06
-4.03261e-06
-9.75807e-08
-4.14815e-06
-2.93515e-06
1.84542e-07
-3.06092e-06
-3.78939e-06
-1.12019e-06
-1.92612e-06
-3.79064e-06
-9.18942e-07
-3.94291e-07
-3.57213e-06
-1.15789e-06
2.78314e-07
-1.69173e-06
-6.34704e-08
1.28866e-07
1.84581e-07
4.19241e-07
6.15567e-10
8.84429e-07
1.00738e-07
-1.54229e-07
1.16337e-06
1.0586e-07
-1.14709e-07
1.17013e-06
-3.16055e-08