/*--------------------------------*- C++ -*----------------------------------*\
| =========                 |                                                 |
| \\      /  F ield         | OpenFOAM: The Open Source CFD Toolbox           |
|  \\    /   O peration     | Version:  2.3.0                                 |
|   \\  /    A nd           | Web:      www.OpenFOAM.org                      |
|    \\/     M anipulation  |                                                 |
\*---------------------------------------------------------------------------*/
FoamFile
{
    version     2.0;
    format      ascii;
    class       volScalarField;
    location    "55";
    object      rho;
}
// * * * * * * * * * * * * * * * * * * * * * * * * * * * * * * * * * * * * * //

dimensions      [1 -3 0 0 0 0 0];

internalField   nonuniform List<scalar> 
6144
(
1.16236
1.16303
1.1635
1.16395
1.16444
1.16544
1.16656
1.16761
1.1684
1.16878
1.16886
1.16887
1.16888
1.16889
1.16889
1.16889
1.1689
1.1689
1.1689
1.1689
1.1689
1.16891
1.16891
1.16891
1.16891
1.16891
1.16891
1.16891
1.16891
1.16891
1.16891
1.16892
1.16892
1.16892
1.16892
1.16892
1.16892
1.16892
1.16892
1.16892
1.16892
1.16894
1.16937
1.17119
1.17484
1.1812
1.19078
1.20561
1.23151
1.25505
1.27099
1.28896
1.28916
1.28911
1.28891
1.28923
1.28846
1.28851
3.43592
91.9759
1008.26
1027.03
1027.1
1027.1
1027.1
1027.1
1027.1
1027.1
1027.1
1027.1
1027.1
1027.1
1027.1
1027.1
1027.1
1027.1
1027.1
1027.1
1027.1
1027.1
1027.1
1027.1
1027.1
1027.1
1027.1
1027.1
1027.1
1027.1
1027.1
1027.1
1027.1
1027.1
1027.1
1027.1
1027.1
1027.1
1.16201
1.16285
1.16372
1.16422
1.16497
1.16571
1.16669
1.16768
1.16843
1.16876
1.16885
1.16887
1.16888
1.16889
1.1689
1.1689
1.1689
1.16891
1.16891
1.16891
1.16891
1.16891
1.16891
1.16891
1.16892
1.16892
1.16892
1.16892
1.16892
1.16892
1.16892
1.16893
1.16893
1.16893
1.16893
1.16893
1.16893
1.16893
1.16893
1.16893
1.16893
1.16894
1.16917
1.17036
1.17364
1.17984
1.1887
1.20195
1.22006
1.23664
1.2666
1.29227
1.29752
1.29886
1.29779
1.29626
1.29156
1.29626
2.40779
71.9688
1008.98
1027.05
1027.1
1027.1
1027.1
1027.1
1027.1
1027.1
1027.1
1027.1
1027.1
1027.1
1027.1
1027.1
1027.1
1027.1
1027.1
1027.1
1027.1
1027.1
1027.1
1027.1
1027.1
1027.1
1027.1
1027.1
1027.1
1027.1
1027.1
1027.1
1027.1
1027.1
1027.1
1027.1
1027.1
1027.1
1.1618
1.16244
1.1635
1.16423
1.16513
1.16587
1.16683
1.16769
1.16828
1.16862
1.16877
1.16883
1.16886
1.16888
1.16889
1.1689
1.1689
1.16891
1.16891
1.16891
1.16891
1.16891
1.16891
1.16891
1.16892
1.16892
1.16892
1.16892
1.16892
1.16892
1.16892
1.16892
1.16892
1.16893
1.16893
1.16893
1.16893
1.16893
1.16893
1.16893
1.16893
1.16898
1.1693
1.17023
1.17257
1.17699
1.18278
1.19057
1.20226
1.22078
1.26502
1.29672
1.3042
1.30472
1.30352
1.30182
1.29572
1.30185
2.10232
81.7922
1011.71
1027.06
1027.1
1027.1
1027.1
1027.1
1027.1
1027.1
1027.1
1027.1
1027.1
1027.1
1027.1
1027.1
1027.1
1027.1
1027.1
1027.1
1027.1
1027.1
1027.1
1027.1
1027.1
1027.1
1027.1
1027.1
1027.1
1027.1
1027.1
1027.1
1027.1
1027.1
1027.1
1027.1
1027.1
1027.1
1.16171
1.16207
1.16314
1.16384
1.16495
1.16589
1.16685
1.16756
1.16814
1.16852
1.16871
1.1688
1.16885
1.16887
1.16889
1.1689
1.1689
1.1689
1.1689
1.1689
1.16891
1.16891
1.16891
1.16891
1.16891
1.16891
1.16891
1.16891
1.16892
1.16892
1.16892
1.16892
1.16892
1.16892
1.16892
1.16892
1.16892
1.16892
1.16893
1.16893
1.16894
1.16907
1.16953
1.17058
1.17261
1.17623
1.18067
1.18627
1.19242
1.21618
1.27095
1.30171
1.30598
1.30559
1.30435
1.30381
1.29742
1.30469
1.8121
125.648
1020.96
1027.08
1027.09
1027.09
1027.1
1027.1
1027.09
1027.09
1027.1
1027.1
1027.1
1027.1
1027.09
1027.09
1027.09
1027.1
1027.1
1027.1
1027.1
1027.1
1027.1
1027.1
1027.1
1027.1
1027.1
1027.1
1027.1
1027.1
1027.1
1027.1
1027.1
1027.1
1027.1
1027.1
1027.1
1027.1
1.16165
1.16178
1.1628
1.16343
1.16448
1.16538
1.16666
1.16745
1.16802
1.16842
1.16866
1.16879
1.16885
1.16888
1.16889
1.1689
1.1689
1.16891
1.16891
1.16891
1.16891
1.16891
1.16891
1.16891
1.16892
1.16892
1.16892
1.16892
1.16892
1.16892
1.16892
1.16892
1.16892
1.16892
1.16892
1.16892
1.16892
1.16892
1.16893
1.16893
1.16897
1.16915
1.1697
1.17093
1.17316
1.17656
1.1808
1.1856
1.19193
1.21945
1.27967
1.30496
1.30283
1.3014
1.29794
1.29994
1.29686
1.30231
1.65527
159.857
1021.27
1026.93
1026.96
1026.98
1026.97
1026.97
1026.97
1026.97
1026.98
1026.98
1026.96
1026.93
1026.89
1026.87
1026.86
1026.89
1026.92
1026.96
1027.01
1027.04
1027.07
1027.08
1027.09
1027.1
1027.1
1027.1
1027.1
1027.1
1027.1
1027.1
1027.1
1027.1
1027.1
1027.1
1027.1
1027.1
1.16161
1.16162
1.16245
1.16302
1.16407
1.16486
1.16614
1.16728
1.16788
1.16833
1.16861
1.16877
1.16884
1.16887
1.16888
1.16889
1.1689
1.1689
1.1689
1.1689
1.1689
1.16891
1.16891
1.16891
1.16891
1.16891
1.16891
1.16891
1.16891
1.16892
1.16892
1.16892
1.16892
1.16892
1.16892
1.16892
1.16892
1.16892
1.16892
1.16893
1.16897
1.16914
1.16977
1.17122
1.17365
1.17689
1.1813
1.1859
1.19349
1.22295
1.28703
1.30535
1.2992
1.30072
1.29771
1.30314
1.29923
1.31836
1.75752
166.919
995.445
1025
1024.99
1025.05
1024.83
1024.77
1024.79
1024.87
1024.98
1025.09
1025.14
1024.91
1024.58
1024.27
1024.1
1024.06
1024.26
1024.52
1024.91
1025.35
1025.77
1026.19
1026.55
1026.84
1027.01
1027.08
1027.1
1027.1
1027.1
1027.1
1027.1
1027.1
1027.1
1027.1
1027.1
1027.1
1.16157
1.16158
1.16218
1.16264
1.16375
1.16454
1.16562
1.16703
1.16776
1.16826
1.16857
1.16875
1.16884
1.16887
1.16889
1.1689
1.1689
1.1689
1.1689
1.16891
1.16891
1.16891
1.16891
1.16891
1.16891
1.16891
1.16891
1.16892
1.16892
1.16892
1.16892
1.16892
1.16892
1.16892
1.16892
1.16892
1.16892
1.16892
1.16893
1.16893
1.16897
1.16912
1.16969
1.17121
1.17361
1.17679
1.18152
1.18693
1.19589
1.22653
1.2923
1.30487
1.30666
1.30751
1.30724
1.3083
1.30388
1.39974
2.08557
131.087
985.705
1019.64
1018.47
1018.06
1017.4
1017.02
1016.95
1016.96
1017.34
1017.67
1018.08
1018.26
1017.6
1016.84
1016.21
1015.97
1016.01
1016.43
1016.95
1017.72
1018.63
1019.81
1021.14
1022.61
1024.14
1025.49
1026.46
1026.94
1027.1
1027.1
1027.1
1027.1
1027.1
1027.1
1027.1
1027.1
1.16149
1.16161
1.162
1.16235
1.16349
1.16436
1.16546
1.16658
1.16757
1.16819
1.16854
1.16874
1.16884
1.16887
1.16888
1.1689
1.1689
1.1689
1.1689
1.16891
1.16891
1.16891
1.16891
1.16891
1.16891
1.16892
1.16892
1.16892
1.16892
1.16892
1.16892
1.16892
1.16892
1.16892
1.16892
1.16893
1.16893
1.16893
1.16893
1.16894
1.16896
1.16906
1.16959
1.17108
1.17347
1.177
1.18248
1.1893
1.20025
1.23178
1.29696
1.30892
1.30993
1.31059
1.3077
1.30799
1.30382
1.37237
1.87733
121.509
986.837
1015.02
1013.27
1012.86
1012.27
1011.65
1011.23
1010.86
1010.69
1010.54
1010.37
1010.28
1010.17
1009.98
1009.77
1009.61
1009.6
1010.06
1010.59
1011.2
1011.98
1012.82
1013.49
1013.93
1014.22
1014.46
1014.55
1014.54
1013.96
1013.25
1012.11
1010.6
1008.71
1007.06
1006.28
1009.55
1.16126
1.16162
1.16183
1.16212
1.16323
1.16422
1.16554
1.16615
1.16724
1.1681
1.16851
1.16873
1.16883
1.16886
1.16888
1.16889
1.16889
1.1689
1.1689
1.1689
1.1689
1.1689
1.16891
1.16891
1.16891
1.16891
1.16891
1.16891
1.16892
1.16892
1.16892
1.16892
1.16892
1.16892
1.16892
1.16892
1.16892
1.16893
1.16893
1.16893
1.16894
1.16904
1.1695
1.17085
1.17323
1.17715
1.18348
1.19215
1.20412
1.23321
1.29291
1.31686
1.31171
1.30421
1.29457
1.28667
1.28242
1.32695
1.6725
100.714
988.893
1017.38
1016.86
1017.44
1017.58
1017.3
1016.49
1015.48
1014.47
1013.63
1013.08
1012.75
1012.56
1012.52
1012.78
1012.9
1012.89
1012.61
1012.52
1012.9
1013.19
1013.44
1013.53
1013.6
1012.9
1012.09
1011.34
1010.76
1010.4
1010.29
1010.16
1010.11
1011.23
1013.47
1017.51
1021.89
1.16098
1.16127
1.16152
1.1618
1.1629
1.16407
1.16557
1.16617
1.16707
1.16805
1.1685
1.16872
1.16882
1.16887
1.16888
1.16889
1.1689
1.1689
1.1689
1.16891
1.16891
1.16891
1.16891
1.16891
1.16891
1.16891
1.16892
1.16892
1.16892
1.16892
1.16892
1.16892
1.16892
1.16892
1.16892
1.16892
1.16892
1.16893
1.16893
1.16893
1.16894
1.16905
1.16947
1.17075
1.17331
1.17782
1.18501
1.19592
1.20866
1.23043
1.28053
1.32167
1.31543
1.29723
1.28505
1.28216
1.2811
1.38011
1.71565
60.4907
983.457
1023.24
1023.88
1024.76
1025.14
1025.31
1025.01
1024.66
1024.29
1024.01
1023.89
1023.88
1024.18
1024.48
1024.73
1024.82
1024.55
1024.36
1024.22
1023.98
1023.67
1023.03
1022.04
1020.86
1019.5
1018.24
1017.32
1016.77
1016.46
1016.53
1017.85
1019.29
1021.46
1023.71
1025.51
1026.39
1.16075
1.16101
1.16117
1.16143
1.16253
1.16381
1.16554
1.16663
1.16713
1.16807
1.16852
1.16871
1.1688
1.16885
1.16887
1.16889
1.16889
1.1689
1.1689
1.1689
1.1689
1.16891
1.16891
1.16891
1.16891
1.16891
1.16892
1.16892
1.16892
1.16892
1.16892
1.16892
1.16892
1.16892
1.16892
1.16892
1.16893
1.16893
1.16893
1.16893
1.16895
1.16906
1.16946
1.17099
1.17431
1.17934
1.18628
1.19804
1.21523
1.23076
1.26593
1.3155
1.3228
1.30874
1.29021
1.29382
1.28789
1.32604
1.41471
33.7308
975.466
1026.46
1026.81
1026.95
1027.01
1027.03
1027.03
1027.02
1027
1026.98
1026.98
1027
1027.01
1027.01
1027
1026.98
1026.95
1026.92
1026.88
1026.81
1026.72
1026.55
1026.3
1025.94
1025.51
1025.15
1024.93
1024.84
1024.92
1025.19
1025.75
1026.25
1026.68
1026.93
1027.04
1027.07
1.16064
1.16081
1.16085
1.16096
1.1619
1.16323
1.16528
1.16687
1.16726
1.16813
1.16858
1.16873
1.16879
1.16883
1.16886
1.16888
1.16889
1.1689
1.1689
1.1689
1.16891
1.16891
1.16891
1.16891
1.16891
1.16891
1.16892
1.16892
1.16892
1.16892
1.16892
1.16892
1.16892
1.16892
1.16893
1.16893
1.16893
1.16893
1.16893
1.16893
1.16895
1.16905
1.16948
1.17157
1.17558
1.18043
1.18688
1.19909
1.22218
1.23733
1.2577
1.2983
1.32187
1.32186
1.31549
1.31539
1.28675
1.28623
1.3763
22.0041
973.943
1026.88
1027.09
1027.09
1027.09
1027.09
1027.1
1027.1
1027.1
1027.1
1027.1
1027.1
1027.1
1027.1
1027.1
1027.1
1027.1
1027.1
1027.09
1027.09
1027.09
1027.08
1027.07
1027.04
1027.02
1027.01
1027.01
1027.02
1027.03
1027.05
1027.07
1027.09
1027.1
1027.1
1027.1
1027.1
1.16051
1.16074
1.16072
1.16071
1.16127
1.16228
1.1642
1.16624
1.16752
1.1682
1.16863
1.16876
1.16882
1.16884
1.16886
1.16889
1.1689
1.16891
1.16891
1.16891
1.16891
1.16891
1.16891
1.16891
1.16892
1.16892
1.16892
1.16892
1.16892
1.16892
1.16892
1.16892
1.16893
1.16893
1.16893
1.16893
1.16893
1.16893
1.16893
1.16894
1.16896
1.16906
1.16958
1.17213
1.17638
1.1806
1.18681
1.2
1.22709
1.24812
1.26066
1.2809
1.31048
1.32077
1.31715
1.30499
1.27155
1.28815
1.48589
23.0779
961.182
1026.67
1027.09
1027.1
1027.1
1027.1
1027.1
1027.1
1027.1
1027.1
1027.1
1027.1
1027.1
1027.1
1027.1
1027.1
1027.1
1027.1
1027.1
1027.1
1027.1
1027.1
1027.1
1027.1
1027.1
1027.1
1027.1
1027.1
1027.1
1027.1
1027.1
1027.1
1027.1
1027.1
1027.1
1027.1
1.16051
1.16079
1.16073
1.16072
1.16092
1.16168
1.16319
1.16538
1.16773
1.16828
1.16863
1.16875
1.1688
1.16883
1.16885
1.16888
1.16891
1.16891
1.16891
1.16891
1.16891
1.16892
1.16892
1.16892
1.16892
1.16892
1.16892
1.16892
1.16892
1.16893
1.16893
1.16893
1.16893
1.16893
1.16893
1.16893
1.16893
1.16893
1.16894
1.16894
1.16896
1.16909
1.1698
1.17242
1.17654
1.18043
1.18655
1.20082
1.23056
1.25232
1.26588
1.28071
1.302
1.30099
1.29619
1.28376
1.27803
1.36697
1.61255
36.8518
956.311
1026.59
1027.09
1027.1
1027.1
1027.1
1027.1
1027.1
1027.1
1027.1
1027.1
1027.1
1027.1
1027.1
1027.1
1027.1
1027.1
1027.1
1027.1
1027.1
1027.1
1027.1
1027.1
1027.1
1027.1
1027.1
1027.1
1027.1
1027.1
1027.1
1027.1
1027.1
1027.1
1027.1
1027.1
1027.1
1.16063
1.16126
1.16128
1.16131
1.1611
1.16162
1.16258
1.16449
1.16734
1.16833
1.16864
1.16873
1.16878
1.16882
1.16884
1.16887
1.1689
1.16891
1.16891
1.16891
1.16891
1.16891
1.16892
1.16892
1.16892
1.16892
1.16892
1.16892
1.16892
1.16892
1.16892
1.16893
1.16893
1.16893
1.16893
1.16893
1.16893
1.16893
1.16893
1.16894
1.16897
1.16914
1.16999
1.17239
1.17639
1.18124
1.18741
1.2026
1.23175
1.25082
1.26087
1.26905
1.27401
1.26607
1.26399
1.27919
1.30099
1.45076
1.83808
47.2034
961.7
1026.63
1027.09
1027.1
1027.1
1027.1
1027.1
1027.1
1027.1
1027.1
1027.1
1027.1
1027.1
1027.1
1027.1
1027.1
1027.1
1027.1
1027.1
1027.1
1027.1
1027.1
1027.1
1027.1
1027.1
1027.1
1027.1
1027.1
1027.1
1027.1
1027.1
1027.1
1027.1
1027.1
1027.1
1027.1
1.16035
1.16036
1.1609
1.162
1.16201
1.162
1.16292
1.16442
1.16723
1.16842
1.16866
1.16872
1.16876
1.1688
1.16883
1.16888
1.16891
1.16891
1.16892
1.16892
1.16892
1.16892
1.16892
1.16892
1.16893
1.16893
1.16893
1.16893
1.16893
1.16893
1.16893
1.16893
1.16893
1.16893
1.16893
1.16894
1.16894
1.16894
1.16894
1.16894
1.16897
1.16917
1.17002
1.17205
1.17583
1.18183
1.19066
1.20647
1.22994
1.24684
1.25346
1.25624
1.25778
1.2605
1.25917
1.27365
1.26908
1.42804
2.26445
61.2073
976.707
1026.79
1027.09
1027.1
1027.1
1027.1
1027.1
1027.1
1027.1
1027.1
1027.1
1027.1
1027.1
1027.1
1027.1
1027.1
1027.1
1027.1
1027.1
1027.1
1027.1
1027.1
1027.1
1027.1
1027.1
1027.1
1027.1
1027.1
1027.1
1027.1
1027.1
1027.1
1027.1
1027.1
1027.1
1027.1
1.16195
1.16298
1.16356
1.16402
1.16452
1.16558
1.16676
1.1678
1.1685
1.16876
1.16881
1.16885
1.16888
1.1689
1.16891
1.16892
1.16892
1.16892
1.16892
1.16892
1.16892
1.16892
1.16893
1.16893
1.16893
1.16893
1.16893
1.16893
1.16893
1.16894
1.16894
1.16894
1.16894
1.16894
1.16894
1.16894
1.16894
1.16894
1.16894
1.16894
1.16895
1.16896
1.16932
1.17142
1.17539
1.18159
1.19074
1.20504
1.23128
1.25257
1.2625
1.27734
1.28296
1.28932
1.293
1.2952
1.29378
1.30549
2.57661
70.3447
1000.12
1026.98
1027.1
1027.1
1027.1
1027.1
1027.1
1027.1
1027.1
1027.1
1027.1
1027.1
1027.1
1027.1
1027.1
1027.1
1027.1
1027.1
1027.1
1027.1
1027.1
1027.1
1027.1
1027.1
1027.1
1027.1
1027.1
1027.1
1027.1
1027.1
1027.1
1027.1
1027.1
1027.1
1027.1
1027.1
1.16124
1.16265
1.16403
1.16461
1.16531
1.16606
1.16708
1.16787
1.1683
1.1685
1.16865
1.16877
1.16884
1.16888
1.16889
1.16891
1.16891
1.16892
1.16892
1.16892
1.16892
1.16892
1.16892
1.16893
1.16893
1.16893
1.16893
1.16893
1.16893
1.16893
1.16893
1.16893
1.16893
1.16893
1.16893
1.16894
1.16894
1.16894
1.16894
1.16894
1.16897
1.16907
1.16925
1.17027
1.17374
1.17966
1.18936
1.20669
1.22732
1.24193
1.25025
1.26961
1.28831
1.29971
1.30114
1.30226
1.2981
1.31256
1.81049
96.5875
1017.84
1027.09
1027.1
1027.1
1027.1
1027.1
1027.1
1027.1
1027.1
1027.1
1027.1
1027.1
1027.1
1027.1
1027.1
1027.1
1027.1
1027.1
1027.1
1027.1
1027.1
1027.1
1027.1
1027.1
1027.1
1027.1
1027.1
1027.1
1027.1
1027.1
1027.1
1027.1
1027.1
1027.1
1027.1
1027.1
1.1609
1.16183
1.16367
1.16453
1.16533
1.166
1.16675
1.16743
1.16795
1.16829
1.16855
1.16873
1.16883
1.16887
1.16889
1.1689
1.16891
1.16891
1.16891
1.16892
1.16892
1.16892
1.16892
1.16892
1.16892
1.16892
1.16893
1.16893
1.16893
1.16893
1.16893
1.16893
1.16893
1.16893
1.16893
1.16893
1.16893
1.16893
1.16894
1.16894
1.16899
1.16922
1.16987
1.17095
1.17302
1.17673
1.18308
1.19437
1.21149
1.22997
1.24753
1.27832
1.30328
1.30501
1.30417
1.3042
1.30087
1.31702
1.67564
136.958
1019.86
1027.09
1027.09
1027.1
1027.1
1027.1
1027.1
1027.1
1027.1
1027.1
1027.1
1027.1
1027.1
1027.1
1027.1
1027.1
1027.1
1027.1
1027.1
1027.1
1027.1
1027.1
1027.1
1027.1
1027.1
1027.1
1027.1
1027.1
1027.1
1027.1
1027.1
1027.1
1027.1
1027.1
1027.1
1027.1
1.16076
1.16114
1.16289
1.1638
1.16464
1.16544
1.16628
1.16706
1.16772
1.16819
1.16851
1.16871
1.16882
1.16887
1.16888
1.1689
1.16891
1.16891
1.16891
1.16891
1.16891
1.16892
1.16892
1.16892
1.16892
1.16892
1.16892
1.16892
1.16892
1.16893
1.16893
1.16893
1.16893
1.16893
1.16893
1.16893
1.16893
1.16893
1.16893
1.16894
1.16898
1.16923
1.17001
1.17156
1.17401
1.17754
1.18277
1.18903
1.20093
1.22202
1.25077
1.29436
1.30891
1.30577
1.30072
1.30286
1.29732
1.33201
1.58691
226.757
1026.59
1027.06
1027.07
1027.08
1027.08
1027.09
1027.09
1027.09
1027.09
1027.09
1027.09
1027.09
1027.09
1027.1
1027.1
1027.1
1027.1
1027.1
1027.1
1027.1
1027.1
1027.1
1027.1
1027.1
1027.1
1027.1
1027.1
1027.1
1027.1
1027.1
1027.1
1027.1
1027.1
1027.1
1027.1
1027.1
1.16067
1.16069
1.16219
1.16324
1.16414
1.16502
1.16594
1.16681
1.16758
1.16814
1.16849
1.16871
1.16882
1.16886
1.16888
1.1689
1.16891
1.16891
1.16891
1.16891
1.16891
1.16891
1.16892
1.16892
1.16892
1.16892
1.16892
1.16892
1.16892
1.16892
1.16892
1.16893
1.16893
1.16893
1.16893
1.16893
1.16893
1.16893
1.16893
1.16894
1.16898
1.16921
1.16999
1.17165
1.17426
1.17804
1.18456
1.19075
1.19847
1.21983
1.26048
1.30656
1.31038
1.30153
1.29975
1.30633
1.31859
1.37671
1.50284
281.043
1023.83
1025.67
1025.87
1026.03
1026.16
1026.33
1026.49
1026.62
1026.71
1026.76
1026.77
1026.76
1026.77
1026.83
1026.89
1026.95
1027
1027.04
1027.06
1027.08
1027.09
1027.09
1027.1
1027.1
1027.1
1027.1
1027.1
1027.1
1027.1
1027.1
1027.1
1027.1
1027.1
1027.1
1027.1
1027.1
1.16059
1.16042
1.16152
1.16269
1.16371
1.16472
1.16574
1.16667
1.1675
1.16811
1.16848
1.1687
1.16881
1.16886
1.16888
1.1689
1.1689
1.16891
1.16891
1.16891
1.16891
1.16891
1.16891
1.16892
1.16892
1.16892
1.16892
1.16892
1.16892
1.16892
1.16892
1.16892
1.16893
1.16893
1.16893
1.16893
1.16893
1.16893
1.16893
1.16894
1.16897
1.16917
1.16985
1.17151
1.17416
1.17817
1.18524
1.19288
1.20141
1.22522
1.27532
1.31032
1.31034
1.30281
1.30285
1.32036
1.34993
1.39223
1.40983
367.873
1013.08
1017.46
1017.7
1017.97
1018.29
1018.89
1019.72
1020.48
1021.23
1021.84
1022.28
1022.44
1022.47
1022.56
1022.91
1023.38
1024.05
1024.73
1025.38
1025.96
1026.4
1026.72
1026.92
1027.02
1027.06
1027.08
1027.09
1027.1
1027.1
1027.1
1027.1
1027.1
1027.1
1027.1
1027.1
1027.1
1.16055
1.16023
1.16098
1.16207
1.16334
1.16448
1.1656
1.16659
1.16746
1.1681
1.16848
1.1687
1.16881
1.16886
1.16888
1.1689
1.1689
1.16891
1.16891
1.16891
1.16891
1.16891
1.16891
1.16891
1.16892
1.16892
1.16892
1.16892
1.16892
1.16892
1.16892
1.16892
1.16892
1.16893
1.16893
1.16893
1.16893
1.16893
1.16893
1.16894
1.16897
1.16911
1.16969
1.1712
1.17375
1.17829
1.18569
1.19542
1.20593
1.2337
1.29164
1.30779
1.30652
1.30616
1.31702
1.34417
1.37504
1.41083
1.45635
251.854
998.687
1009.96
1009.42
1009.2
1008.95
1008.79
1009.26
1009.56
1009.85
1010.28
1010.79
1011.1
1011.19
1011.05
1010.95
1010.87
1011.8
1012.95
1014.24
1015.69
1017.3
1019.15
1021.12
1022.9
1024.19
1025.19
1025.89
1026.29
1026.61
1026.73
1026.75
1026.65
1026.59
1026.49
1026.28
1025.98
1.16055
1.16011
1.16055
1.16138
1.16275
1.16412
1.16548
1.16654
1.16744
1.1681
1.16847
1.16871
1.16882
1.16886
1.16888
1.1689
1.1689
1.16891
1.16891
1.16891
1.16891
1.16891
1.16891
1.16892
1.16892
1.16892
1.16892
1.16892
1.16892
1.16892
1.16892
1.16893
1.16893
1.16893
1.16893
1.16893
1.16893
1.16893
1.16893
1.16894
1.16896
1.16906
1.16957
1.17097
1.17349
1.17906
1.18744
1.19981
1.21347
1.2405
1.29861
1.31259
1.31443
1.32415
1.3422
1.36498
1.39029
1.43134
1.51372
174.061
992.285
1011.58
1010.34
1009.87
1009.25
1008.34
1007.45
1006.63
1005.88
1005.46
1005.18
1004.74
1004.28
1003.81
1003.44
1003.03
1002.45
1001.78
1000.78
999.662
998.402
997.506
997.269
998.822
1000.09
1000.94
1001.23
1000.7
1000.46
997.246
992.326
985.033
974.455
953.884
902.487
693.172
1.16047
1.16004
1.16026
1.16075
1.16199
1.16357
1.16531
1.16651
1.16743
1.1681
1.16849
1.16871
1.16882
1.16887
1.16888
1.1689
1.16891
1.16891
1.16891
1.16891
1.16891
1.16891
1.16892
1.16892
1.16892
1.16892
1.16892
1.16892
1.16892
1.16892
1.16893
1.16893
1.16893
1.16893
1.16893
1.16893
1.16893
1.16893
1.16893
1.16894
1.16895
1.16905
1.16954
1.17088
1.1734
1.1795
1.18921
1.20394
1.22081
1.23771
1.29189
1.31958
1.31901
1.33052
1.33905
1.34579
1.33849
1.35934
1.37059
134.278
1001.03
1020.97
1021.31
1021.89
1021.97
1020.74
1019.83
1018.64
1017.39
1016.28
1015.43
1014.93
1014.72
1014.26
1013.18
1011.67
1009.48
1006.68
1003.42
1000.27
997.23
994.203
990.582
987.21
984.506
981.532
977.812
973.69
970.237
967.548
965.145
961.501
956.204
949.088
941.965
940.508
1.16035
1.16
1.16005
1.16028
1.16113
1.16284
1.16504
1.1665
1.16746
1.16812
1.1685
1.16872
1.16883
1.16887
1.16888
1.1689
1.16891
1.16891
1.16891
1.16891
1.16891
1.16892
1.16892
1.16892
1.16892
1.16892
1.16892
1.16892
1.16893
1.16893
1.16893
1.16893
1.16893
1.16893
1.16893
1.16893
1.16893
1.16893
1.16893
1.16894
1.16895
1.16905
1.16955
1.17087
1.17348
1.17961
1.19024
1.2063
1.22494
1.23765
1.27492
1.31518
1.31974
1.32016
1.32377
1.31651
1.29987
1.34656
1.38381
89.9362
1012.19
1026.09
1026.27
1026.47
1026.5
1026.31
1026.13
1025.87
1025.63
1025.48
1025.47
1025.67
1025.72
1025.61
1025.35
1024.87
1024.11
1023.04
1021.82
1020.79
1019.49
1017.57
1015.03
1011.69
1007.62
1003.22
998.991
994.966
991.23
988.909
988.124
990.798
995.016
1002.56
1013.18
1020.79
1.16027
1.15996
1.15994
1.15999
1.16049
1.16196
1.16449
1.16635
1.16748
1.16815
1.16851
1.16874
1.16883
1.16887
1.16888
1.1689
1.16891
1.16891
1.16891
1.16891
1.16891
1.16892
1.16892
1.16892
1.16892
1.16892
1.16892
1.16892
1.16893
1.16893
1.16893
1.16893
1.16893
1.16893
1.16893
1.16893
1.16893
1.16893
1.16893
1.16894
1.16895
1.16905
1.16956
1.1709
1.17368
1.17989
1.19148
1.20904
1.22879
1.24398
1.26012
1.29393
1.31731
1.31713
1.31456
1.31319
1.2948
1.29212
1.27402
65.1809
1014.73
1027.04
1027.05
1027.07
1027.07
1027.07
1027.06
1027.05
1027.04
1027.04
1027.03
1027.04
1027.03
1027.01
1026.99
1026.94
1026.86
1026.74
1026.58
1026.41
1026.23
1025.97
1025.63
1025.23
1024.84
1024.53
1024.35
1024.12
1023.78
1023.65
1023.61
1024.32
1025.17
1026.08
1026.75
1026.99
1.16022
1.15993
1.15989
1.15988
1.16014
1.16135
1.16375
1.16612
1.16752
1.1682
1.16854
1.16875
1.16884
1.16887
1.16888
1.16889
1.16891
1.16891
1.16891
1.16891
1.16891
1.16892
1.16892
1.16892
1.16892
1.16892
1.16892
1.16892
1.16893
1.16893
1.16893
1.16893
1.16893
1.16893
1.16893
1.16893
1.16893
1.16893
1.16893
1.16894
1.16895
1.16906
1.1696
1.171
1.17388
1.18017
1.19238
1.21138
1.23195
1.24624
1.2542
1.26642
1.30535
1.3102
1.3033
1.29753
1.27458
1.27969
1.30403
41.4121
998.471
1027.09
1027.09
1027.1
1027.09
1027.09
1027.09
1027.09
1027.1
1027.1
1027.09
1027.09
1027.09
1027.09
1027.09
1027.09
1027.09
1027.08
1027.08
1027.07
1027.07
1027.06
1027.05
1027.04
1027.04
1027.05
1027.06
1027.07
1027.08
1027.08
1027.08
1027.09
1027.09
1027.1
1027.1
1027.1
1.16025
1.16008
1.15992
1.15989
1.15989
1.16048
1.16229
1.16504
1.16747
1.16825
1.16858
1.16876
1.16884
1.16886
1.16887
1.16889
1.16891
1.16891
1.16891
1.16891
1.16891
1.16892
1.16892
1.16892
1.16892
1.16892
1.16892
1.16892
1.16893
1.16893
1.16893
1.16893
1.16893
1.16893
1.16893
1.16893
1.16893
1.16893
1.16893
1.16894
1.16895
1.16908
1.16973
1.17131
1.17412
1.17985
1.19145
1.21031
1.23066
1.24747
1.25858
1.26472
1.27389
1.28591
1.28085
1.28629
1.27147
1.3133
1.41524
27.4431
977.28
1027.09
1027.09
1027.1
1027.1
1027.1
1027.1
1027.1
1027.1
1027.1
1027.1
1027.1
1027.1
1027.1
1027.1
1027.1
1027.1
1027.1
1027.1
1027.1
1027.1
1027.1
1027.1
1027.1
1027.1
1027.1
1027.1
1027.1
1027.1
1027.1
1027.1
1027.1
1027.1
1027.1
1027.1
1027.1
1.16039
1.16055
1.16027
1.16021
1.15989
1.15991
1.16061
1.16288
1.16665
1.16835
1.16863
1.16877
1.16882
1.16884
1.16885
1.16888
1.1689
1.16891
1.16891
1.16891
1.16891
1.16891
1.16891
1.16892
1.16892
1.16892
1.16892
1.16892
1.16892
1.16892
1.16892
1.16892
1.16892
1.16892
1.16892
1.16892
1.16893
1.16893
1.16893
1.16893
1.16895
1.16913
1.16996
1.17179
1.17455
1.17952
1.19039
1.20873
1.23027
1.24601
1.2573
1.2634
1.26485
1.27522
1.26845
1.27331
1.28778
1.46934
1.51181
63.1458
996.824
1027.08
1027.1
1027.1
1027.1
1027.1
1027.1
1027.1
1027.1
1027.1
1027.1
1027.1
1027.1
1027.1
1027.1
1027.1
1027.1
1027.1
1027.1
1027.1
1027.1
1027.1
1027.1
1027.1
1027.1
1027.1
1027.1
1027.1
1027.1
1027.1
1027.1
1027.1
1027.1
1027.1
1027.1
1027.1
1.16055
1.16085
1.16087
1.16083
1.16016
1.16007
1.16009
1.16112
1.165
1.16841
1.16867
1.16875
1.16878
1.1688
1.16882
1.16887
1.1689
1.1689
1.16891
1.16891
1.16891
1.16891
1.16891
1.16891
1.16892
1.16892
1.16892
1.16892
1.16892
1.16892
1.16892
1.16892
1.16892
1.16892
1.16892
1.16892
1.16892
1.16892
1.16893
1.16893
1.16896
1.16918
1.17008
1.17207
1.17527
1.18058
1.19036
1.20727
1.22997
1.24526
1.25416
1.26004
1.26162
1.26311
1.26604
1.27884
1.39095
1.62685
1.63533
56.4594
991.879
1027.06
1027.1
1027.1
1027.1
1027.1
1027.1
1027.1
1027.1
1027.1
1027.1
1027.1
1027.1
1027.1
1027.1
1027.1
1027.1
1027.1
1027.1
1027.1
1027.1
1027.1
1027.1
1027.1
1027.1
1027.1
1027.1
1027.1
1027.1
1027.1
1027.1
1027.1
1027.1
1027.1
1027.1
1027.1
1.16029
1.16035
1.16066
1.16124
1.1603
1.16018
1.16023
1.16087
1.16396
1.16836
1.16869
1.16873
1.16876
1.16878
1.16881
1.16887
1.1689
1.16891
1.16891
1.16891
1.16891
1.16892
1.16892
1.16892
1.16892
1.16892
1.16892
1.16892
1.16893
1.16893
1.16893
1.16893
1.16893
1.16893
1.16893
1.16893
1.16893
1.16893
1.16894
1.16894
1.16897
1.16918
1.17002
1.17198
1.17562
1.18189
1.19191
1.20786
1.22882
1.24485
1.25295
1.25701
1.25868
1.26436
1.26495
1.28716
1.28152
1.52074
2.03298
47.6015
980.125
1026.9
1027.1
1027.1
1027.1
1027.1
1027.1
1027.1
1027.1
1027.1
1027.1
1027.1
1027.1
1027.1
1027.1
1027.1
1027.1
1027.1
1027.1
1027.1
1027.1
1027.1
1027.1
1027.1
1027.1
1027.1
1027.1
1027.1
1027.1
1027.1
1027.1
1027.1
1027.1
1027.1
1027.1
1027.1
1.16168
1.16268
1.16344
1.16395
1.16446
1.16551
1.1667
1.1678
1.16856
1.16877
1.16882
1.16885
1.16888
1.16889
1.1689
1.16891
1.16891
1.16891
1.16891
1.16892
1.16892
1.16892
1.16892
1.16892
1.16892
1.16892
1.16892
1.16893
1.16893
1.16893
1.16893
1.16893
1.16893
1.16893
1.16893
1.16893
1.16894
1.16894
1.16894
1.16894
1.16894
1.16896
1.1694
1.17181
1.17612
1.18187
1.18993
1.20162
1.22423
1.25119
1.26167
1.26685
1.27454
1.28512
1.28845
1.2899
1.2888
1.30478
2.73982
88.8315
1010.2
1027.06
1027.1
1027.1
1027.1
1027.1
1027.1
1027.1
1027.1
1027.1
1027.1
1027.1
1027.1
1027.1
1027.1
1027.1
1027.1
1027.1
1027.1
1027.1
1027.1
1027.1
1027.1
1027.1
1027.1
1027.1
1027.1
1027.1
1027.1
1027.1
1027.1
1027.1
1027.1
1027.1
1027.1
1027.1
1.16073
1.16176
1.16392
1.16437
1.16493
1.16582
1.16693
1.168
1.1685
1.16866
1.16874
1.16881
1.16885
1.16888
1.16889
1.1689
1.16891
1.16891
1.16891
1.16891
1.16892
1.16892
1.16892
1.16892
1.16892
1.16892
1.16892
1.16893
1.16893
1.16893
1.16893
1.16893
1.16893
1.16893
1.16893
1.16893
1.16893
1.16893
1.16893
1.16894
1.16895
1.16899
1.16932
1.17124
1.17554
1.18172
1.19077
1.2045
1.2236
1.24562
1.25026
1.26536
1.28961
1.29843
1.29698
1.29643
1.29193
1.30238
1.77606
122.697
1022.75
1027.09
1027.1
1027.1
1027.1
1027.1
1027.1
1027.1
1027.1
1027.1
1027.1
1027.1
1027.1
1027.1
1027.1
1027.1
1027.1
1027.1
1027.1
1027.1
1027.1
1027.1
1027.1
1027.1
1027.1
1027.1
1027.1
1027.1
1027.1
1027.1
1027.1
1027.1
1027.1
1027.1
1027.1
1027.1
1.16038
1.16075
1.16391
1.16468
1.16531
1.1661
1.16705
1.16792
1.16833
1.16851
1.16865
1.16877
1.16884
1.16887
1.16888
1.16889
1.1689
1.1689
1.1689
1.1689
1.16891
1.16891
1.16891
1.16891
1.16891
1.16892
1.16892
1.16892
1.16892
1.16892
1.16892
1.16892
1.16892
1.16892
1.16892
1.16892
1.16892
1.16892
1.16892
1.16893
1.16895
1.16904
1.16939
1.17099
1.17466
1.1803
1.18849
1.20297
1.22346
1.24018
1.24992
1.28506
1.30308
1.30022
1.29527
1.29472
1.28922
1.30677
1.49068
166.281
1023.53
1027.09
1027.09
1027.1
1027.09
1027.1
1027.1
1027.1
1027.1
1027.1
1027.1
1027.1
1027.1
1027.1
1027.1
1027.1
1027.1
1027.1
1027.1
1027.1
1027.1
1027.1
1027.1
1027.1
1027.1
1027.1
1027.1
1027.1
1027.1
1027.1
1027.1
1027.1
1027.1
1027.1
1027.1
1027.1
1.16033
1.16039
1.16318
1.16454
1.16525
1.1661
1.16702
1.16775
1.16815
1.16841
1.16862
1.16876
1.16883
1.16887
1.16888
1.1689
1.1689
1.1689
1.1689
1.16891
1.16891
1.16891
1.16891
1.16891
1.16891
1.16891
1.16891
1.16891
1.16891
1.16892
1.16892
1.16892
1.16892
1.16892
1.16892
1.16892
1.16892
1.16892
1.16893
1.16893
1.16896
1.16908
1.1694
1.17065
1.17388
1.17966
1.18839
1.20008
1.2171
1.2335
1.25648
1.29961
1.30579
1.29572
1.29321
1.29323
1.3064
1.32495
1.35463
277.652
1026.66
1026.99
1027.02
1027.05
1027.07
1027.08
1027.09
1027.09
1027.09
1027.1
1027.1
1027.1
1027.1
1027.1
1027.1
1027.1
1027.1
1027.1
1027.1
1027.1
1027.1
1027.1
1027.1
1027.1
1027.1
1027.1
1027.1
1027.1
1027.1
1027.1
1027.1
1027.1
1027.1
1027.1
1027.1
1027.1
1.16031
1.16038
1.16142
1.16422
1.16512
1.16606
1.16694
1.16756
1.16803
1.16836
1.16859
1.16875
1.16883
1.16887
1.16888
1.16889
1.1689
1.1689
1.1689
1.16891
1.16891
1.16891
1.16891
1.16891
1.16891
1.16891
1.16891
1.16891
1.16891
1.16892
1.16892
1.16892
1.16892
1.16892
1.16892
1.16892
1.16892
1.16892
1.16894
1.16897
1.16902
1.16918
1.16952
1.1705
1.17289
1.17836
1.18843
1.19851
1.21023
1.22743
1.26813
1.30902
1.30654
1.29546
1.29504
1.29918
1.30252
1.30032
1.26869
317.807
1023.36
1025.14
1025.34
1025.67
1025.92
1026.16
1026.37
1026.54
1026.68
1026.79
1026.87
1026.94
1026.98
1027.02
1027.05
1027.07
1027.08
1027.09
1027.09
1027.1
1027.1
1027.1
1027.1
1027.1
1027.1
1027.1
1027.1
1027.1
1027.1
1027.1
1027.1
1027.1
1027.1
1027.1
1027.1
1027.1
1.16037
1.16039
1.16104
1.1635
1.16495
1.16602
1.16684
1.1674
1.16793
1.16832
1.16858
1.16873
1.16881
1.16886
1.16888
1.16889
1.16889
1.1689
1.1689
1.1689
1.16891
1.16891
1.16891
1.16891
1.16891
1.16891
1.16891
1.16891
1.16891
1.16892
1.16892
1.16892
1.16892
1.16892
1.16892
1.16892
1.16892
1.16893
1.16896
1.16907
1.16926
1.16952
1.16996
1.17087
1.17297
1.17791
1.18761
1.19769
1.20619
1.22738
1.2723
1.31332
1.31334
1.29911
1.29495
1.29765
1.29975
1.30248
1.26869
419.837
1017.03
1019.3
1019.38
1019.9
1020.51
1021.13
1021.76
1022.33
1022.9
1023.43
1023.95
1024.42
1024.86
1025.29
1025.74
1026.15
1026.47
1026.66
1026.79
1026.89
1026.97
1027.03
1027.06
1027.08
1027.09
1027.1
1027.1
1027.1
1027.1
1027.1
1027.1
1027.1
1027.1
1027.1
1027.1
1027.1
1.16036
1.16023
1.16089
1.16278
1.16454
1.16584
1.16694
1.16746
1.16795
1.16831
1.16855
1.1687
1.16879
1.16885
1.16888
1.16889
1.16889
1.1689
1.1689
1.1689
1.16891
1.16891
1.16891
1.16891
1.16892
1.16892
1.16892
1.16892
1.16892
1.16892
1.16892
1.16892
1.16892
1.16892
1.16892
1.16893
1.16893
1.16893
1.16895
1.16901
1.16919
1.16947
1.16994
1.17093
1.17357
1.17885
1.18757
1.1973
1.2057
1.23088
1.27551
1.31415
1.31824
1.31355
1.30495
1.30415
1.30572
1.31681
1.26869
296.425
1009.3
1015.14
1014.15
1014.08
1014.93
1015.59
1016.48
1017.26
1018.08
1018.79
1019.45
1020.05
1020.69
1021.49
1022.38
1023.16
1023.52
1023.69
1023.97
1024.25
1024.7
1025.27
1025.85
1026.27
1026.62
1026.86
1026.97
1026.99
1026.99
1027.05
1027.09
1027.1
1027.09
1027.1
1027.1
1027.1
1.1603
1.16012
1.16065
1.16181
1.1638
1.16527
1.1665
1.16714
1.16782
1.16811
1.16836
1.16866
1.16877
1.16884
1.16888
1.16889
1.16889
1.16889
1.1689
1.1689
1.1689
1.1689
1.1689
1.16891
1.16891
1.16891
1.16891
1.16891