/*--------------------------------*- C++ -*----------------------------------*\
| =========                 |                                                 |
| \\      /  F ield         | OpenFOAM: The Open Source CFD Toolbox           |
|  \\    /   O peration     | Version:  2.3.0                                 |
|   \\  /    A nd           | Web:      www.OpenFOAM.org                      |
|    \\/     M anipulation  |                                                 |
\*---------------------------------------------------------------------------*/
FoamFile
{
    version     2.0;
    format      ascii;
    class       volVectorField;
    location    "55";
    object      U;
}
// * * * * * * * * * * * * * * * * * * * * * * * * * * * * * * * * * * * * * //

dimensions      [0 1 -1 0 0 0 0];

internalField   nonuniform List<vector> 
6144
(
(0.0109739 0.020849 -0.000937101)
(0.0111531 -0.0016038 -0.00207815)
(0.00445736 -0.00286461 -0.00293775)
(0.00359215 -0.00262082 -0.00266728)
(0.002049 -0.00127054 -0.00187825)
(0.00307845 0.00149403 -0.00165001)
(0.00331914 0.000701532 -0.00135833)
(0.00328473 0.00145102 -0.00119235)
(0.00263951 0.00088697 -0.000942753)
(0.00199297 0.00211819 -0.000398582)
(0.00143518 0.00319724 0.000183646)
(0.00133674 0.00433576 0.000889631)
(0.00143048 0.00449491 0.00133454)
(0.00156519 0.0040302 0.00172879)
(0.00160236 0.00316054 0.00180996)
(0.00167837 0.0023108 0.00175588)
(0.00174674 0.00141414 0.00155357)
(0.0018217 0.000663011 0.0013015)
(0.00189193 4.87332e-05 0.001033)
(0.00195253 -0.000379375 0.000786771)
(0.00199217 -0.000637364 0.000565029)
(0.00202734 -0.000719438 0.000372157)
(0.0020427 -0.000688901 0.000261136)
(0.00203513 -0.00059209 0.000236978)
(0.00200379 -0.000463059 0.000286099)
(0.00195468 -0.000325227 0.000398167)
(0.00189886 -0.000204205 0.000549633)
(0.0018477 -0.000130723 0.000708063)
(0.00179024 -0.000120177 0.000870094)
(0.00172783 -0.000150568 0.00101977)
(0.00166372 -0.000204988 0.00116353)
(0.00160124 -0.000287516 0.00131328)
(0.00154155 -0.000416174 0.00147669)
(0.00148638 -0.000614104 0.00165404)
(0.00143797 -0.000908422 0.00183097)
(0.00139521 -0.00129665 0.00195704)
(0.00135481 -0.0017229 0.00199457)
(0.00131244 -0.00211421 0.00192318)
(0.00126141 -0.00231304 0.00165688)
(0.00122012 -0.00208162 0.00104886)
(0.00119856 -0.000988774 -1.8788e-05)
(0.00138519 0.0012885 -0.00114867)
(0.00219187 0.00433361 -0.00195589)
(0.00367896 0.00672051 -0.00237166)
(0.00505558 0.00815443 -0.00274647)
(0.00656139 0.0087969 -0.0031525)
(0.00894815 0.00601311 -0.00309207)
(0.00863891 0.00210204 -0.00351675)
(-0.00430099 0.00272336 -0.00302188)
(-0.011318 0.0228793 0.00135188)
(0.0191825 0.0188713 -0.00146235)
(0.0346577 -0.0290349 -0.00341311)
(0.0192008 -0.0407065 0.00420669)
(0.0136932 -0.0779836 0.0116224)
(0.0015493 -0.0935752 0.0173276)
(-0.0129035 -0.115362 0.0157626)
(-0.0277861 -0.0664913 0.0101007)
(-0.0133398 -0.0644377 0.0419191)
(-0.0396875 -0.0236977 -0.0115211)
(0.0354939 0.13424 0.0414615)
(0.126287 -0.282106 0.0699427)
(0.0757557 -0.162845 0.0230199)
(0.0477461 -0.213936 0.00712982)
(0.0423838 -0.258435 0.002514)
(0.0387648 -0.260462 -0.00020513)
(0.0370718 -0.257223 -0.00216296)
(0.0323295 -0.253388 -0.00160033)
(0.0293146 -0.252839 0.00158867)
(0.0267449 -0.247229 0.00251625)
(0.0256584 -0.229659 0.00524154)
(0.019351 -0.222961 0.00430241)
(0.00508537 -0.212975 -0.00261561)
(0.000855763 -0.182915 -0.000601733)
(-0.0140001 -0.174702 0.0026977)
(-0.0413692 -0.154478 0.00128863)
(-0.0458626 -0.115562 -0.00387919)
(-0.0136184 -0.0819867 -0.00601863)
(0.0218547 -0.0689049 -0.00321157)
(0.0374576 -0.0708685 0.000560911)
(0.037623 -0.0755446 0.00627259)
(0.0377451 -0.0858833 0.0125645)
(0.0364804 -0.0979253 0.0175351)
(0.0395488 -0.114279 0.0234962)
(0.0403008 -0.136978 0.0235149)
(0.0397632 -0.154659 0.01776)
(0.0434521 -0.175365 0.016541)
(0.0393947 -0.196724 0.0143728)
(0.0313234 -0.209214 0.00797136)
(0.0260198 -0.229192 0.00571813)
(0.00559527 -0.239808 0.00595784)
(-0.00393602 -0.232097 0.00716839)
(-0.0185626 -0.206637 0.0113424)
(-0.0241931 -0.179638 -0.0271945)
(-0.0241922 -0.0746864 -0.0371039)
(-0.0260379 0.0236224 0.0490435)
(-0.0209369 0.0151257 0.0842889)
(0.0208431 0.0215002 0.00295477)
(0.022181 0.0070084 0.00200731)
(0.0115761 0.00302892 -0.0020204)
(0.00974117 0.00156769 -0.000586133)
(0.00470726 -0.00191846 0.000776704)
(0.00524331 0.000506251 0.00123512)
(0.00537471 4.06414e-05 0.00195706)
(0.00511325 0.00173431 0.00226307)
(0.00391094 0.00153268 0.00237658)
(0.00268197 0.00336407 0.00247028)
(0.00200665 0.00450393 0.00273899)
(0.002167 0.00549647 0.00344342)
(0.00248684 0.00543306 0.00399821)
(0.00289782 0.00497725 0.00430834)
(0.00302174 0.00407604 0.0043809)
(0.00316728 0.00320691 0.0043779)
(0.00325015 0.00225436 0.00431117)
(0.00332375 0.00144247 0.00423061)
(0.00338045 0.000732308 0.00414807)
(0.00341562 0.000192078 0.00408414)
(0.00341622 -0.000182791 0.00404141)
(0.00342275 -0.000371576 0.00397374)
(0.0034072 -0.000444041 0.0039412)
(0.0033557 -0.000435858 0.00396397)
(0.00326362 -0.000378984 0.00403515)
(0.00314604 -0.000293116 0.00414274)
(0.00302702 -0.00020174 0.00426221)
(0.00293651 -0.000134606 0.00434431)
(0.00284424 -0.000119318 0.00443504)
(0.00274045 -0.000140611 0.00452403)
(0.00263631 -0.000194058 0.00461019)
(0.0025453 -0.000284819 0.00469504)
(0.00247505 -0.000426595 0.00478112)
(0.00243522 -0.000638186 0.00486857)
(0.0024274 -0.000941177 0.00494675)
(0.00242916 -0.00132944 0.0049929)
(0.0024142 -0.00175069 0.00499417)
(0.00236118 -0.0021263 0.00493925)
(0.00218351 -0.00228073 0.00477003)
(0.00185604 -0.00194029 0.00429222)
(0.00148418 -0.000694146 0.00316026)
(0.00140607 0.00129722 0.00196767)
(0.00210015 0.00385035 0.00110186)
(0.00409623 0.007073 0.000296184)
(0.00639359 0.011622 -0.000955654)
(0.00953547 0.0157647 -0.00133173)
(0.0134879 0.0195013 -0.000669165)
(0.0107844 0.0245177 -0.00150335)
(-0.000822408 0.0241874 -0.00123143)
(-0.00360729 0.0219161 0.00217159)
(0.0513892 -0.0291009 0.000854799)
(0.0500776 -0.0389024 -0.00278034)
(0.0330365 -0.0474012 0.00645985)
(0.0261562 -0.0896468 0.0106517)
(0.00219625 -0.0979452 0.0223712)
(-0.0293388 -0.133347 0.0246373)
(-0.0597905 -0.0776026 0.0146687)
(-0.0591309 -0.149565 0.0535029)
(-0.142087 0.00262541 -0.0617434)
(0.0169354 0.0659117 0.0271064)
(0.168536 -0.248308 0.136616)
(0.0923465 -0.0721193 0.0713892)
(0.043408 -0.137886 0.0170527)
(0.0423247 -0.13128 0.0152578)
(0.0378116 -0.116893 0.00359468)
(0.0375726 -0.0822658 0.00345781)
(0.0224882 -0.0554089 0.0160191)
(-0.00735126 -0.041286 0.0228771)
(-0.00746223 -0.0214824 0.0157957)
(-0.00440867 -0.0106099 0.0116414)
(-0.0149403 -0.00559905 0.0164926)
(-0.0119016 -0.00663585 0.0259608)
(0.00971873 -0.00833987 0.0365018)
(0.023272 -0.0174379 0.0343346)
(0.0213703 -0.0326356 0.0210074)
(0.0167588 -0.0444654 0.0114246)
(0.0208724 -0.0528852 0.00979452)
(0.0314157 -0.059251 0.00755835)
(0.0366459 -0.0649948 0.00596999)
(0.0350155 -0.073261 0.00987725)
(0.0286574 -0.0926019 0.0217465)
(0.0216119 -0.111334 0.0317394)
(0.0127928 -0.12649 0.0341705)
(0.0105303 -0.140783 0.0275069)
(0.013946 -0.148984 0.0168311)
(0.0133109 -0.151432 0.0101233)
(0.0158975 -0.156179 0.000252466)
(0.018791 -0.168709 0.00012561)
(0.00604482 -0.188975 0.00756423)
(-0.0283789 -0.214214 0.0112031)
(-0.0532124 -0.213206 0.0130331)
(-0.0636221 -0.195279 0.0123081)
(-0.0752491 -0.177121 -0.0189122)
(-0.0747029 -0.102122 -0.0376772)
(-0.0638876 0.011587 0.0417255)
(-0.0537091 -0.00777419 0.0858325)
(0.0239837 0.0213595 0.00410349)
(0.026664 0.0126989 0.00400775)
(0.017082 0.00721085 0.000484397)
(0.0142384 0.00577826 0.00196693)
(0.00648935 6.37185e-05 0.00306635)
(0.0049197 0.00142889 0.00309491)
(0.00382468 0.000818784 0.00408238)
(0.00331663 0.00253069 0.0041602)
(0.00190769 0.00228749 0.00407857)
(0.000995802 0.00350937 0.00401742)
(0.000519134 0.00387403 0.00409717)
(0.00100893 0.00464842 0.00443273)
(0.00147073 0.00458096 0.00476925)
(0.00192976 0.00449993 0.00501883)
(0.00207097 0.00398443 0.0050638)
(0.00224432 0.0034869 0.00505822)
(0.00233662 0.00284838 0.00501281)
(0.00242714 0.00228026 0.00497006)
(0.00248089 0.00172151 0.00492762)
(0.00250393 0.00125358 0.00490592)
(0.00247961 0.000854768 0.00490464)
(0.00241336 0.000545841 0.00493678)
(0.00232269 0.000317557 0.00498741)
(0.00220945 0.000165988 0.00504298)
(0.00207057 7.13365e-05 0.00510161)
(0.00191951 1.90448e-05 0.00516312)
(0.00177061 -1.25109e-05 0.00522738)
(0.00162728 -3.10399e-05 0.00530052)
(0.0014884 -4.57135e-05 0.0053793)
(0.00133901 -7.13118e-05 0.00545979)
(0.00119257 -0.000113919 0.00553866)
(0.00106622 -0.000179585 0.00561252)
(0.000976784 -0.000263174 0.00568027)
(0.000947633 -0.000360821 0.00573795)
(0.000974166 -0.000475243 0.00578287)
(0.00101813 -0.000603115 0.00580738)
(0.00103898 -0.000725998 0.00580093)
(0.00100255 -0.00077779 0.00574555)
(0.000825991 -0.000590973 0.00559089)
(0.000417053 -7.00752e-06 0.00517278)
(9.48782e-05 0.00100278 0.00437417)
(0.000352294 0.0015307 0.00332844)
(0.000806932 0.00166854 0.00232849)
(0.00190288 0.00285072 0.00134663)
(0.00385262 0.00718063 0.000431079)
(0.00694708 0.0121245 0.00125534)
(0.0102193 0.0166455 0.00491845)
(0.0118459 0.0196347 0.0048662)
(0.00732506 0.0235013 0.00351246)
(0.0302774 0.00264239 0.00703214)
(0.0657555 -0.0341862 0.00130286)
(0.0598378 -0.0344259 -0.00308054)
(0.0469073 -0.0471325 0.0134656)
(0.030925 -0.102469 0.016449)
(-0.00758423 -0.101341 0.0197075)
(-0.0507002 -0.143368 0.0256613)
(-0.0856696 -0.0841199 0.0222627)
(-0.0758412 -0.171844 0.0549781)
(-0.169122 0.0273051 -0.0813978)
(0.0472693 0.0438037 -0.0291748)
(0.19032 -0.219828 0.150286)
(0.115723 -0.0183894 0.0839302)
(0.0746466 -0.10746 0.026641)
(0.0711989 -0.0728965 0.00645855)
(0.0508132 -0.0220097 -0.0157602)
(0.0326198 0.00762011 -0.00495816)
(0.0347824 0.0212237 -0.00108929)
(0.0370265 0.0182946 -0.00365473)
(0.0391217 0.0149492 0.000903642)
(0.0387404 0.0111858 0.00586895)
(0.0296278 0.00881926 0.0163254)
(0.0166501 0.000941461 0.0422643)
(-0.00104525 -0.0111011 0.0700484)
(-0.0143206 -0.0253604 0.0790478)
(-0.0227493 -0.0300975 0.066234)
(-0.0228743 -0.0277127 0.0421379)
(-0.00102276 -0.0250096 0.0236453)
(0.0249691 -0.0132919 0.000824367)
(0.0334136 0.00181057 -0.00974923)
(0.0303972 0.00205163 -0.00249453)
(0.0218678 0.00230906 -0.00288701)
(0.0143978 -0.0047097 -0.0128508)
(0.0156836 -0.00407121 -0.0192407)
(0.0239338 -0.00354077 -0.0202029)
(0.0384412 -0.00326769 -0.0228258)
(0.0498567 -0.0127457 -0.015692)
(0.0603997 -0.0250641 -0.00900922)
(0.0654531 -0.0443071 -0.000174606)
(0.0453152 -0.0649618 0.0111482)
(-0.0115764 -0.136183 0.0191998)
(-0.0608357 -0.162929 0.0266319)
(-0.0887161 -0.159072 0.0250289)
(-0.105019 -0.156686 -0.0159855)
(-0.12062 -0.0911704 -0.0461048)
(-0.111214 0.0148554 0.0435042)
(-0.102184 -0.0105616 0.0866923)
(0.0248555 0.021426 0.00414104)
(0.0286424 0.0170085 0.00439157)
(0.0203741 0.00998629 0.000452511)
(0.0185476 0.010448 0.000740526)
(0.00904425 0.00295213 0.00123993)
(0.00527728 0.00348379 0.00213722)
(0.00240929 0.00137206 0.00403571)
(0.00192082 0.00316896 0.00433771)
(0.000534929 0.00204333 0.00435492)
(-0.000313613 0.00273798 0.00422357)
(-0.000779548 0.00257908 0.00430179)
(-0.000279659 0.00324836 0.00465531)
(4.35507e-05 0.00346141 0.00494969)
(0.000527444 0.00377265 0.00517538)
(0.000740489 0.00358563 0.00522012)
(0.000934023 0.00337204 0.0052499)
(0.00101682 0.00293752 0.00524595)
(0.00108456 0.00253754 0.00525227)
(0.00110539 0.00210105 0.00524362)
(0.0010979 0.00171256 0.00523585)
(0.00104228 0.00134659 0.00522973)
(0.000955171 0.00101746 0.0052387)
(0.000836549 0.000728851 0.00526048)
(0.000695052 0.000495244 0.0052876)
(0.000537405 0.000315022 0.00532079)
(0.000375344 0.000186668 0.00536076)
(0.000223021 0.000100873 0.00540271)
(9.05401e-05 4.29927e-05 0.00544735)
(-3.3182e-05 -1.14864e-06 0.00550128)
(-0.000160535 -4.02231e-05 0.00556362)
(-0.000277071 -7.31563e-05 0.00562815)
(-0.000370379 -9.67188e-05 0.00568533)
(-0.00043429 -0.000102771 0.00572416)
(-0.000449895 -7.74727e-05 0.00573741)
(-0.000401056 -8.9198e-06 0.00572546)
(-0.000313716 9.77703e-05 0.00570119)
(-0.000230773 0.000247197 0.00566672)
(-0.000237965 0.000518371 0.00558574)
(-0.000432497 0.00108624 0.00538125)
(-0.000605852 0.00187972 0.00490314)
(-8.06441e-05 0.00227545 0.00410027)
(0.00116801 0.00137272 0.00326378)
(0.00152842 -0.000257022 0.00232484)
(0.00116115 -0.000799516 0.0014467)
(0.00196345 0.000797841 0.00114615)
(0.00430414 0.00254178 0.00236305)
(0.00682997 0.00459173 0.00524184)
(0.00753631 0.00374446 0.00679736)
(0.00771324 0.00679138 0.00600114)
(0.0349982 -0.0196922 0.0102415)
(0.0695542 -0.0323278 0.00326082)
(0.0629626 -0.0365544 0.000179705)
(0.0557082 -0.0537148 0.018906)
(0.0381568 -0.111452 0.0168319)
(-0.0029979 -0.107467 0.00940209)
(-0.0448756 -0.150488 0.0130148)
(-0.113313 -0.0674492 0.0248057)
(-0.0994602 -0.190296 0.0790653)
(-0.203734 0.0969409 -0.075371)
(0.0683245 -0.00897507 0.0285189)
(0.144011 -0.179167 0.173874)
(0.0787297 0.0185603 0.0753958)
(0.0411504 -0.082007 0.0301121)
(0.0217439 -0.0105302 -0.0266272)
(0.00826152 0.042409 -0.00711727)
(0.0197414 0.0576108 0.00411223)
(0.0213661 0.066295 0.00594806)
(0.0181271 0.0685136 0.0170569)
(0.0155003 0.0582876 0.0248938)
(0.00758508 0.0439124 0.0258017)
(-0.0107977 0.0336041 0.0298192)
(-0.035527 0.0256573 0.0302482)
(-0.0491875 0.0196566 0.0569903)
(-0.0539053 0.00346162 0.0576097)
(-0.0527234 -0.00357209 0.0425936)
(-0.0373419 -0.00139815 0.0139999)
(-0.00125909 0.0138484 -0.0158557)
(0.0293209 0.0499441 -0.0242616)
(0.0404575 0.0824131 -0.0175825)
(0.0467454 0.0851015 -0.0126713)
(0.0502257 0.0841111 -0.0167474)
(0.05097 0.071972 -0.0173147)
(0.0522761 0.057001 -0.0146872)
(0.0578304 0.0406918 -0.0167663)
(0.0649914 0.0257947 -0.0159228)
(0.0686117 0.0132755 -0.00729978)
(0.0707989 0.0060831 0.00124935)
(0.0718434 -0.000441261 0.00636826)
(0.0574403 -0.00330652 0.00696782)
(0.00346239 -0.047417 0.0172794)
(-0.0588518 -0.0900514 0.0237918)
(-0.10401 -0.117988 0.00195157)
(-0.14149 -0.101449 -0.0514977)
(-0.155317 -0.023129 -0.0394534)
(-0.131043 0.0309095 0.0573117)
(-0.125418 0.00155948 0.085439)
(0.0248532 0.0216143 0.00400246)
(0.0302426 0.0206118 0.00491396)
(0.0225239 0.012556 0.000850609)
(0.0231712 0.0139288 0.000560582)
(0.0137734 0.00608585 -0.00127017)
(0.00794527 0.00607772 -0.000451627)
(0.00187795 0.00117742 0.00271155)
(0.000592778 0.00345946 0.0035188)
(-0.000763373 0.00172618 0.00377487)
(-0.00159613 0.00219143 0.003916)
(-0.00240413 0.00155556 0.00405947)
(-0.00230637 0.00215557 0.00446887)
(-0.00224786 0.00252146 0.00470368)
(-0.00173251 0.00310739 0.00494444)
(-0.00149031 0.00313525 0.00497784)
(-0.00128479 0.00306893 0.00504819)
(-0.00124258 0.00274718 0.00509473)
(-0.0012586 0.00245865 0.00515219)
(-0.00132225 0.00213279 0.00517187)
(-0.00139587 0.00183502 0.00516602)
(-0.00148303 0.00152644 0.0051358)
(-0.00158369 0.00121602 0.00510192)
(-0.00169833 0.000916961 0.00507129)
(-0.00182701 0.000649833 0.00504966)
(-0.00197183 0.000421621 0.00503773)
(-0.0021237 0.000238406 0.00503078)
(-0.00225578 9.84391e-05 0.00503118)
(-0.00236284 -8.01001e-06 0.00503866)
(-0.00245988 -8.1158e-05 0.00505163)
(-0.00256517 -0.000121114 0.00507488)
(-0.00266906 -0.000127569 0.00510016)
(-0.00275116 -9.70845e-05 0.00511564)
(-0.0028008 -1.75073e-05 0.00510815)
(-0.00279757 0.000132317 0.0050671)
(-0.00273055 0.000380423 0.00500028)
(-0.00263197 0.000760391 0.00492308)
(-0.00259059 0.00128738 0.0048185)
(-0.00271667 0.00196157 0.00464738)
(-0.00290432 0.00276544 0.00438051)
(-0.00250733 0.00336664 0.003973)
(-0.000857911 0.00301896 0.00347309)
(0.000899964 0.00129544 0.00291904)
(0.000964357 -0.000860214 0.0021649)
(0.000172901 -0.00274382 0.00137795)
(0.00120868 -0.00362483 0.00129785)
(0.00343879 -0.00476493 0.00303917)
(0.00505781 -0.00481232 0.00550366)
(0.00564249 -0.00677593 0.00735409)
(0.0137409 -0.00711873 0.00637127)
(0.0422017 -0.0278747 0.0108299)
(0.0648009 -0.0262779 0.00626261)
(0.0670107 -0.031215 0.00696992)
(0.0603697 -0.0407966 0.0167973)
(0.051583 -0.0848896 0.00524851)
(0.0042667 -0.0857422 0.018651)
(-0.0147847 -0.155327 0.0223857)
(-0.106081 -0.0464675 0.0596663)
(-0.0582542 -0.201686 0.115633)
(-0.174045 0.139655 -0.0761758)
(0.0135241 -0.033767 0.0292644)
(0.11278 -0.153935 0.188703)
(0.0611747 0.0322119 0.0836238)
(0.0255801 -0.0623917 0.0703493)
(-0.00116038 0.0130108 -0.00920676)
(-0.0106589 0.0463698 -0.00218679)
(0.00886936 0.0729086 0.0116683)
(0.0113945 0.0813305 0.0123144)
(0.0127568 0.0814399 0.0136434)
(0.0139834 0.0670224 0.0136761)
(0.000962864 0.0490475 0.00790069)
(-0.017966 0.0304862 0.00442678)
(-0.0405339 0.011857 0.00222147)
(-0.0628755 0.00790949 0.0133892)
(-0.0638246 0.00857789 0.0226934)
(-0.0478809 0.0157554 0.019915)
(-0.0151845 0.0258665 -0.00131608)
(0.0142687 0.0360458 -0.0313234)
(0.0257842 0.080117 -0.0427517)
(0.049644 0.104066 -0.0160478)
(0.0614423 0.104155 -0.00378372)
(0.0637606 0.0962904 0.00281336)
(0.0617119 0.0803603 0.0020972)
(0.0606291 0.0610999 -0.0046874)
(0.0692083 0.0458011 -0.0164271)
(0.0708833 0.0363274 -0.0221633)
(0.0653507 0.0270349 -0.0122763)
(0.059124 0.0201104 0.00667047)
(0.0570973 0.0240201 0.0127092)
(0.0561116 0.0288536 0.00435215)
(0.00640795 0.0346419 -0.00438216)
(-0.0681589 0.0109285 -0.0136687)
(-0.123419 -0.0010743 -0.0330419)
(-0.157258 0.0151271 -0.0439906)
(-0.148809 0.0451994 0.00750277)
(-0.129164 0.0359484 0.0649409)
(-0.139152 0.0118696 0.0833352)
(0.0235012 0.0208506 0.00379755)
(0.0312891 0.0246969 0.00629987)
(0.0233994 0.0146835 0.00246661)
(0.0253033 0.0162289 0.0024095)
(0.0188506 0.00709779 -0.00126547)
(0.0134207 0.00776041 -0.0019704)
(0.00275491 0.000246262 0.000460683)
(-0.000586401 0.00330046 0.00193304)
(-0.0014798 0.00111757 0.00267593)
(-0.00252376 0.00179369 0.00318948)
(-0.00334248 0.000745263 0.00333937)
(-0.00339127 0.00140004 0.00381394)
(-0.0033691 0.00182399 0.00404358)
(-0.00265754 0.00262249 0.00445507)
(-0.00217525 0.002662 0.00465937)
(-0.00186947 0.0026073 0.00489947)
(-0.0018264 0.00229468 0.00506631)
(-0.00193472 0.00206861 0.00518673)
(-0.0020824 0.00185671 0.00522391)
(-0.00221861 0.0016977 0.00519948)
(-0.00234552 0.00152755 0.00511601)
(-0.00247517 0.00133583 0.00500056)
(-0.0026209 0.00112631 0.00487624)
(-0.0027699 0.000916698 0.00475489)
(-0.0029108 0.000724342 0.00464462)
(-0.00303541 0.000567808 0.00454298)
(-0.00313018 0.000436656 0.00444947)
(-0.00320228 0.000321479 0.00437046)
(-0.00327869 0.000227682 0.00431131)
(-0.00336137 0.00017202 0.00428197)
(-0.00344128 0.000178952 0.0042724)
(-0.00350826 0.000265985 0.00425701)
(-0.00357025 0.000450341 0.00420744)
(-0.00362434 0.000750863 0.00410425)
(-0.00368466 0.0011809 0.00393577)
(-0.00377013 0.00175942 0.00370214)
(-0.00384555 0.00244886 0.00343184)
(-0.00385135 0.00313888 0.00317588)
(-0.00359821 0.00357535 0.00304125)
(-0.00252686 0.00339813 0.00316914)
(-0.000325193 0.00254044 0.00368269)
(0.00140659 0.00121529 0.00428795)
(0.00145511 -0.000819691 0.00423595)
(0.00081497 -0.00377899 0.00371117)
(0.00177782 -0.00682032 0.00390661)
(0.00310736 -0.00978559 0.0058043)
(0.00436073 -0.0124263 0.00700659)
(0.0052198 -0.0159685 0.00667287)
(0.0138316 -0.0195992 0.00558747)
(0.041684 -0.0296169 0.0149883)
(0.0542084 -0.0219519 0.010804)
(0.0458584 -0.00761342 0.0071407)
(0.0461717 0.0198009 -0.0125855)
(0.0441472 0.000458051 -0.00687685)
(0.0340464 0.0363643 0.0527131)
(0.0438677 -0.135483 0.0606312)
(-0.162046 0.0691277 0.0993884)
(-0.0250073 -0.229159 0.138425)
(-0.164291 0.341189 -0.0569227)
(0.019666 -0.107028 0.0499798)
(0.0143988 -0.118058 0.170141)
(0.016062 0.0529034 0.0480645)
(-0.00931514 -0.04989 0.0766869)
(-0.0378447 0.0448781 -0.00873592)
(-0.0372243 0.0448232 0.0112219)
(-0.0158088 0.0783417 0.0251642)
(0.00414635 0.0885333 0.0342175)
(0.0193746 0.0915321 0.0327871)
(0.0275081 0.0830551 0.0325175)
(0.0236483 0.0716887 0.0292416)
(0.00596515 0.051369 0.0252234)
(-0.0353711 0.0234605 0.0147113)
(-0.0580688 0.0171461 0.00825151)
(-0.0498881 0.0293774 0.00738399)
(-0.0311315 0.0497428 -0.00157363)
(-0.00503997 0.0829811 -0.0350955)
(0.0196493 0.130254 -0.0149248)
(0.0297158 0.130674 0.010771)
(0.044171 0.127436 0.0136717)
(0.0507879 0.127685 0.0187548)
(0.0559825 0.112112 0.0272729)
(0.0551961 0.0977209 0.0240037)
(0.0605966 0.0724942 0.00265973)
(0.0703363 0.0552195 -0.0126696)
(0.06959 0.0464622 -0.0309598)
(0.061879 0.0489748 -0.0408146)
(0.0382304 0.0314461 -0.00553075)
(0.0307547 0.0281336 0.0111511)
(0.0225799 0.038118 0.00399482)
(0.00511694 0.0620005 -0.00405157)
(-0.0417317 0.06153 -0.00492666)
(-0.0914957 0.062159 -0.0133229)
(-0.125193 0.0608296 -0.00452676)
(-0.119749 0.0547888 0.0382811)
(-0.122892 0.0361399 0.0663242)
(-0.141311 0.014626 0.0793123)
(0.0206284 0.0190859 0.00433768)
(0.0317056 0.0287662 0.00887058)
(0.0230578 0.0167467 0.00506497)
(0.0251945 0.0186322 0.00535794)
(0.0210392 0.00695975 0.00126677)
(0.017702 0.00765503 0.000370412)
(0.00458675 -0.0014562 -0.000806781)
(-0.0011428 0.00290081 0.000620243)
(-0.00282483 0.000456047 0.00173752)
(-0.00372503 0.00172814 0.00258174)
(-0.00494483 0.00054009 0.00256627)
(-0.00563406 0.00116806 0.00323829)
(-0.00595627 0.0013233 0.00357447)
(-0.00506504 0.00200838 0.00437092)
(-0.00443763 0.00187707 0.00490661)
(-0.00415957 0.00183182 0.0053838)
(-0.00426402 0.00158131 0.00567043)
(-0.00458958 0.00148208 0.00582599)
(-0.00492986 0.00143409 0.00584414)
(-0.005185 0.00146095 0.00577537)
(-0.00534867 0.00148903 0.00562138)
(-0.00545991 0.00149872 0.00542038)
(-0.00554792 0.00147901 0.00520396)
(-0.00562715 0.00142634 0.0049886)
(-0.00572969 0.0013644 0.00480915)
(-0.00580807 0.00131523 0.00465804)
(-0.00582118 0.00126041 0.0045309)
(-0.00579836 0.00118613 0.0044473)
(-0.00578353 0.00110108 0.00441122)
(-0.00582044 0.0010404 0.00441638)
(-0.0059068 0.00106133 0.00444079)
(-0.00600942 0.00119294 0.00444562)
(-0.00611941 0.00144079 0.00440189)
(-0.00621268 0.00178789 0.0042764)
(-0.00627412 0.0022067 0.00406015)
(-0.00630154 0.0026381 0.00375597)
(-0.00625607 0.00303274 0.00339601)
(-0.00606792 0.00318629 0.00313652)
(-0.00546696 0.00297791 0.00314812)
(-0.00414008 0.00227174 0.00374094)
(-0.00256224 0.00132421 0.00498251)
(-0.00157788 0.000554248 0.0064741)
(-0.00151732 -0.000709063 0.0070525)
(-0.00107708 -0.00366429 0.00715308)
(0.000378524 -0.00828668 0.00760073)
(0.00168367 -0.013676 0.00879944)
(0.00343897 -0.0180611 0.00855808)
(0.00657419 -0.0220249 0.00557705)
(0.0150954 -0.0304916 0.00752735)
(0.032539 -0.0307832 0.0198694)
(0.0288473 -0.0214486 0.0233044)
(0.00868306 0.016971 0.0148725)
(0.0331682 0.0503288 -0.00380307)
(0.0295082 0.081065 0.00752144)
(0.0205988 0.103105 0.0577243)
(-0.0228782 0.0733523 0.10444)
(-0.130909 0.236094 0.165336)
(-0.0554912 -0.254232 0.107929)
(-0.0933927 0.416547 -0.0994011)
(-0.0258773 -0.132705 0.056953)
(-0.0382594 -0.127954 0.15355)
(0.00551786 0.0785028 0.0206684)
(-0.0233287 -0.0314251 0.0470896)
(-0.0504615 0.0835451 -0.0133129)
(-0.0369068 0.0770545 0.0158348)
(-0.0127398 0.112717 0.0309517)
(0.0123848 0.113449 0.0351909)
(0.0260261 0.119768 0.028623)
(0.036075 0.117151 0.0285505)
(0.0399657 0.121055 0.0275107)
(0.0370482 0.117039 0.0269516)
(0.00360498 0.0940678 0.0247683)
(-0.0347024 0.0639718 0.0213143)
(-0.0517571 0.0743482 -0.00879432)
(-0.0539898 0.103262 -0.0387489)
(-0.0206747 0.161939 -0.0207631)
(0.0165694 0.172676 0.0209018)
(0.0402251 0.158047 0.0331426)
(0.0495578 0.155723 0.044134)
(0.0533742 0.138789 0.0547982)
(0.0619012 0.123877 0.0566557)
(0.0713828 0.104224 0.0544887)
(0.0846058 0.0798146 0.0417158)
(0.0959758 0.0662565 0.0238158)
(0.0907526 0.0660464 -0.0183979)
(0.0692693 0.0675943 -0.0531132)
(0.0392978 0.0701844 -0.0485124)
(0.020724 0.0510506 0.00411415)
(0.00684067 0.039177 0.011566)
(-0.0207074 0.0461307 -0.00675021)
(-0.0421521 0.0563389 -0.00361101)
(-0.0717919 0.0558126 -0.00187732)
(-0.0928108 0.0506989 0.00888466)
(-0.0998773 0.0418881 0.0411637)
(-0.119751 0.0313352 0.0632535)
(-0.148336 0.00925908 0.0722465)
(0.0184006 0.0134699 0.00421911)
(0.030565 0.0316152 0.0105989)
(0.0217742 0.0184552 0.00559996)
(0.0248277 0.0227653 0.00565491)
(0.0219571 0.00839756 0.00242209)
(0.0191024 0.00754276 0.00262589)
(0.00567982 -0.00351706 -0.00180199)
(-0.00313565 0.00192078 -0.000651695)
(-0.00337307 -0.00133723 0.00226461)
(-0.00463829 0.00174657 0.00321214)
(-0.00519477 0.000380374 0.00323748)
(-0.00553779 0.00121974 0.00407973)
(-0.00559079 0.000602051 0.00468729)
(-0.00451104 0.000873977 0.00577093)
(-0.00390302 0.000589664 0.00652389)
(-0.00368577 0.000751235 0.00724477)
(-0.00387633 0.00079774 0.00767635)
(-0.00425093 0.00102737 0.00790568)
(-0.00459791 0.00123526 0.00795518)
(-0.00483883 0.00150217 0.00789175)
(-0.00499791 0.00174867 0.00772037)
(-0.00510959 0.00193604 0.0074815)
(-0.00519161 0.00205972 0.00721645)
(-0.00525091 0.00212801 0.0069585)
(-0.00531225 0.00213968 0.00671974)
(-0.00534922 0.0021089 0.0065143)
(-0.00532955 0.00205716 0.00636353)
(-0.00526917 0.00198829 0.00626451)
(-0.00522627 0.00190483 0.00621247)
(-0.0052606 0.00184427 0.00619228)
(-0.00537812 0.00188333 0.00617825)
(-0.00552986 0.00203649 0.00612894)
(-0.0056946 0.00228624 0.00602251)
(-0.00584033 0.00259192 0.00583774)
(-0.00595931 0.00287525 0.0055589)
(-0.00601287 0.00305566 0.005229)
(-0.00587151 0.00299726 0.00493077)
(-0.00538113 0.00254545 0.00480915)
(-0.0044267 0.00160764 0.00508786)
(-0.00296902 0.000217357 0.00605038)
(-0.00161342 -0.00129753 0.00777484)
(-0.00133826 -0.00157105 0.0098971)
(-0.00131128 -0.00196304 0.0110079)
(6.79422e-05 -0.00436173 0.0116759)
(0.0025977 -0.00975311 0.0125646)
(0.00420324 -0.0167464 0.0126717)
(0.00396897 -0.0213959 0.00752636)
(0.00987067 -0.0251921 0.0046388)
(0.0180569 -0.0343493 0.00996254)
(0.0209645 -0.0300343 0.0232243)
(-0.000340149 -0.0209614 0.0290193)
(-0.0156645 -0.00881036 0.0384165)
(0.00592781 0.0234087 0.0276172)
(-0.0030263 0.0786767 0.0334784)
(-0.0224171 0.115701 0.0579504)
(-0.0181328 0.0804809 0.0886875)
(-0.00527841 0.234344 0.174195)
(-0.054159 -0.313194 0.184939)
(0.014507 0.335074 -0.0726828)
(-0.0204807 -0.100543 0.0442294)
(-0.117592 -0.137469 0.135471)
(-0.0494245 0.107616 -0.0193962)
(-0.0712512 -0.00646486 0.00058889)
(-0.0651098 0.107315 -0.0254281)
(-0.0555777 0.0871449 0.00126855)
(-0.025571 0.108687 0.010984)
(0.000673738 0.0953331 0.00163751)
(0.0211045 0.105762 0.000872288)
(0.0309063 0.125974 0.0100869)
(0.0406905 0.150491 0.0140006)
(0.0401754 0.168465 -0.00187577)
(0.0161727 0.190987 -0.0248632)
(-0.0219888 0.190982 -0.023285)
(-0.0386618 0.186389 -0.0197666)
(-0.0409475 0.183393 -0.00466681)
(-0.010011 0.177659 0.0305042)
(0.0186995 0.166176 0.0404029)
(0.02821 0.155444 0.0510749)
(0.037061 0.150156 0.0685842)
(0.0488559 0.133725 0.0688157)
(0.0641701 0.118719 0.0687265)
(0.0853379 0.102362 0.0594586)
(0.10302 0.0761503 0.0531541)
(0.107438 0.0666106 0.0380824)
(0.108457 0.0655462 0.00842527)
(0.0887487 0.072783 -0.0450352)
(0.0332189 0.0916285 -0.0682488)
(0.000758205 0.104302 -0.0509817)
(-0.00895758 0.0935712 -0.0198848)
(-0.0318156 0.0774428 -0.018408)
(-0.0529414 0.0810989 -0.00939961)
(-0.06636 0.080167 0.00565121)
(-0.0796286 0.0799704 0.020115)
(-0.0965132 0.0683766 0.0448628)
(-0.122 0.0576055 0.0657243)
(-0.145186 0.0194623 0.0702166)
(0.0112404 0.00414735 0.00078189)
(0.0269529 0.0322817 0.009993)
(0.0192743 0.0198611 0.00360721)
(0.0238323 0.02771 0.00330919)
(0.0228403 0.0122734 0.00139318)
(0.0208444 0.00963891 0.00269937)
(0.00729077 -0.00441663 -0.0051065)
(-0.00241969 0.000574562 -0.00520542)
(-0.00642679 -0.00186503 -0.0014349)
(-0.00789965 0.001832 0.000397568)
(-0.0079588 0.000200482 0.000624324)
(-0.0083039 0.00102924 0.00138844)
(-0.00834244 -9.50576e-05 0.00198552)
(-0.00782562 4.71884e-05 0.00282466)
(-0.00769236 -0.000175685 0.00346267)
(-0.00783547 0.000208933 0.00413971)
(-0.00820477 0.000454057 0.004707)
(-0.0086507 0.000862661 0.00512138)
(-0.00906504 0.00118889 0.00535659)
(-0.0093826 0.00153854 0.00545079)
(-0.00947282 0.00184974 0.00541465)
(-0.0094424 0.00210482 0.00529491)
(-0.00936586 0.00230115 0.00513652)
(-0.00925777 0.00242899 0.00497652)
(-0.00914523 0.0024903 0.00482251)
(-0.00901874 0.00249718 0.00468296)
(-0.00886237 0.00247502 0.00457019)
(-0.00869927 0.00244749 0.00448931)
(-0.00858468 0.00241802 0.00444102)
(-0.00860932 0.00241258 0.00441469)
(-0.00877742 0.00248578 0.00439217)
(-0.00895346 0.00263431 0.00433663)
(-0.00910779 0.00284278 0.0042249)
(-0.00915679 0.00305509 0.00404298)
(-0.00905477 0.0031796 0.00380077)
(-0.00876152 0.00312256 0.00355128)
(-0.00817226 0.00279217 0.00338538)
(-0.00741989 0.00203085 0.00337606)
(-0.00625622 0.000756479 0.00373159)
(-0.00491879 -0.0007491 0.00462323)
(-0.0046119 -0.00211092 0.00623369)
(-0.00601423 -0.00247506 0.00811918)
(-0.00591995 -0.00321138 0.00932832)
(-0.00337471 -0.00570011 0.0100628)
(0.000575025 -0.0116183 0.011239)
(0.00184111 -0.0186792 0.00990451)
(0.00132367 -0.0220448 0.00143324)
(0.0105897 -0.0228874 0.000213155)
(0.012805 -0.0302144 0.00300275)
(0.00235686 -0.0311482 0.0210434)
(-0.0173783 -0.0230316 0.0300017)
(-0.0291042 -0.0222948 0.0290817)
(-0.0328789 0.0179852 0.016761)
(-0.0349488 0.0751331 0.0298478)
(-0.0438167 0.110127 0.0364159)
(0.0166856 0.0733344 0.0453465)
(0.130431 0.196039 0.0684666)
(0.0553092 -0.242403 0.148026)
(-0.00649026 0.197595 0.0196283)
(-0.0673772 -0.0438879 0.0361101)
(-0.159664 -0.185689 0.12542)
(-0.09636 0.10661 -0.00621736)
(-0.0887178 -0.0402418 -0.00135803)
(-0.0661474 0.102553 -0.0213031)
(-0.0478923 0.0585855 0.0121512)
(-0.000953888 0.0660562 0.022178)
(0.0201533 0.022492 0.0130968)
(0.0220457 0.0167127 -0.00383622)
(0.0109197 0.000420148 -0.0101176)
(0.00265021 0.00165213 -0.00875643)
(0.00115071 0.0172144 -0.00667126)
(-0.000522658 0.0502383 -0.029836)
(-0.00947984 0.113577 -0.0320667)
(-0.0267159 0.13147 -0.0123048)
(-0.0306271 0.128611 -0.000326075)
(-0.00511324 0.105602 0.0177492)
(0.00958858 0.0809445 0.0164056)
(0.0176663 0.0784025 0.0297183)
(0.0192729 0.0650706 0.047556)
(0.0230716 0.0485965 0.0554464)