/*--------------------------------*- C++ -*----------------------------------*\
| =========                 |                                                 |
| \\      /  F ield         | OpenFOAM: The Open Source CFD Toolbox           |
|  \\    /   O peration     | Version:  2.3.0                                 |
|   \\  /    A nd           | Web:      www.OpenFOAM.org                      |
|    \\/     M anipulation  |                                                 |
\*---------------------------------------------------------------------------*/
FoamFile
{
    version     2.0;
    format      ascii;
    class       volVectorField;
    location    "55";
    object      U.airMean;
}
// * * * * * * * * * * * * * * * * * * * * * * * * * * * * * * * * * * * * * //

dimensions      [0 1 -1 0 0 0 0];

internalField   nonuniform List<vector> 
6144
(
(0.00991319 0.0202338 -0.000553934)
(0.010215 -0.000695218 -0.00153293)
(0.00457117 -0.00223095 -0.00253266)
(0.00411795 -0.00277571 -0.00242425)
(0.00257871 -0.0025216 -0.00192239)
(0.00299031 -0.000730351 -0.00166182)
(0.00269917 -0.000817793 -0.00131306)
(0.0026526 0.000227441 -0.00103521)
(0.00229253 0.000358431 -0.000894216)
(0.00203745 0.00158263 -0.000557872)
(0.0018278 0.00248599 -0.000236858)
(0.0018819 0.00326235 0.000207105)
(0.00200772 0.00328018 0.000419818)
(0.00214264 0.00289522 0.00066121)
(0.00220919 0.0022118 0.000604671)
(0.00228618 0.00159214 0.000504419)
(0.00233416 0.000978317 0.000299642)
(0.00238593 0.000532267 0.000119055)
(0.0024277 0.000169034 -7.14606e-05)
(0.00245912 -4.51536e-05 -0.000221752)
(0.00247794 -0.000174154 -0.000342497)
(0.00248957 -0.000204586 -0.000423919)
(0.00248877 -0.000190442 -0.00045948)
(0.002477 -0.000141518 -0.000454476)
(0.00245471 -8.10635e-05 -0.000416157)
(0.0024248 -1.73409e-05 -0.000350095)
(0.00239129 3.85045e-05 -0.000266519)
(0.00235709 7.68521e-05 -0.000176382)
(0.0023214 9.80404e-05 -8.41529e-05)
(0.00228387 9.43863e-05 4.345e-06)
(0.00224565 9.48686e-05 9.17683e-05)
(0.00220252 5.13548e-05 0.000184933)
(0.00215901 4.63379e-05 0.000290541)
(0.00210792 -7.3666e-05 0.000416188)
(0.00206278 -0.000112418 0.000567888)
(0.00201373 -0.000417166 0.00073782)
(0.00198318 -0.00056769 0.000904878)
(0.00195383 -0.0011514 0.00102111)
(0.00195219 -0.00134863 0.00104096)
(0.00195312 -0.00204456 0.000901132)
(0.0019645 -0.00189889 0.000562031)
(0.00196755 -0.00213031 1.57033e-06)
(0.00202884 -0.000895431 -0.000580789)
(0.00237493 -0.000397029 -0.00102951)
(0.00306066 0.000959534 -0.00145649)
(0.00381173 0.000475687 -0.00202884)
(0.00421045 0.00165488 -0.00276293)
(0.0035477 0.00225579 -0.00386426)
(0.0029176 0.00851931 -0.0056326)
(0.00647925 0.0126195 -0.00772415)
(0.0182056 0.0134162 -0.0100838)
(0.0273146 -0.00783713 -0.0103614)
(0.0320119 -0.0199602 -0.0112519)
(0.0300382 -0.0563362 -0.010533)
(0.0249841 -0.0511063 -0.0111836)
(0.021137 -0.0899714 -0.007422)
(0.00219465 -0.0429498 -0.0128058)
(0.00532182 -0.0936794 0.0230769)
(-0.0370664 0.0124533 -0.0458858)
(0.0335919 0.11525 0.0394535)
(0.113494 0.315925 0.0321269)
(0.0473137 0.38845 -0.00873973)
(0.0453096 -0.0844652 -0.00118502)
(0.0516837 -0.180124 0.00442711)
(0.0431578 -0.186216 0.00515258)
(0.0358253 -0.180305 0.00530619)
(0.0295394 -0.179208 0.00470083)
(0.0247816 -0.174194 0.00433521)
(0.0215223 -0.171093 0.00435521)
(0.0186825 -0.164714 0.00459293)
(0.0161361 -0.159724 0.00487257)
(0.0136359 -0.151672 0.00527755)
(0.0115778 -0.143814 0.00582792)
(0.0090842 -0.134457 0.00630596)
(0.00612142 -0.124163 0.00647984)
(0.00387122 -0.111426 0.0050917)
(0.00284947 -0.0986239 0.00262489)
(0.00172471 -0.0861044 0.00124189)
(0.000666189 -0.0733659 0.00120828)
(0.00161402 -0.0612241 0.00197665)
(0.00305247 -0.0513392 0.0026509)
(0.00357324 -0.0434809 0.0033739)
(0.00356352 -0.0383468 0.00438451)
(0.00254542 -0.0344484 0.00457014)
(0.00198493 -0.0298355 0.00404109)
(0.00211482 -0.0242404 0.00333016)
(0.00228239 -0.0183414 0.00305421)
(0.00199061 -0.0119433 0.00234228)
(0.00118609 -0.00572121 0.00137194)
(-4.59599e-05 0.00253996 0.000752052)
(0.000247358 0.0103801 0.00145183)
(0.00105382 0.0170654 0.00254404)
(0.00127805 0.0216728 0.00382193)
(0.00125839 0.0245061 0.00651386)
(0.00223411 0.0240523 0.0101876)
(0.00516289 0.0158133 0.015604)
(0.0192793 0.0212414 0.00302894)
(0.0205232 0.00733451 0.00245675)
(0.0105192 0.00384206 -0.00064079)
(0.00997447 0.00260742 0.000114973)
(0.00569918 -0.000347703 0.00101687)
(0.00574924 0.000645259 0.00153098)
(0.00451925 -0.000256677 0.00209545)
(0.00430924 0.00116359 0.00215643)
(0.00358108 0.00138471 0.00214854)
(0.00318038 0.00293645 0.0022075)
(0.00300152 0.00373435 0.0023738)
(0.00334419 0.00439997 0.00285836)
(0.00371309 0.00422677 0.00311533)
(0.00410757 0.00383062 0.00331251)
(0.00424607 0.0030654 0.00330459)
(0.00438836 0.00238981 0.00327518)
(0.00442531 0.00167412 0.00318821)
(0.00447997 0.00114619 0.00312114)
(0.00450902 0.000687991 0.00304177)
(0.00452708 0.000390176 0.00299122)
(0.00452532 0.000183119 0.00295158)
(0.00451776 9.09449e-05 0.00292276)
(0.0044905 5.27706e-05 0.00292611)
(0.00444511 6.28045e-05 0.00296079)
(0.00438248 9.44549e-05 0.00301931)
(0.00430872 0.000139983 0.00309548)
(0.00423308 0.000186146 0.00317445)
(0.00416258 0.000221037 0.00324584)
(0.00409265 0.000240762 0.00331745)
(0.00402076 0.000235871 0.00338377)
(0.00394976 0.000230312 0.00344839)
(0.00387157 0.000169908 0.00351571)
(0.00380171 0.000143092 0.00358836)
(0.00372606 -1.88872e-05 0.00366689)
(0.00368448 -8.30631e-05 0.00375572)
(0.00364594 -0.000431315 0.00384669)
(0.00366362 -0.000556239 0.00393588)
(0.00366423 -0.00114488 0.00399926)
(0.00370365 -0.00124031 0.00402017)
(0.00367501 -0.00193016 0.00394544)
(0.00361938 -0.00164716 0.00371841)
(0.00352824 -0.00201736 0.00325568)
(0.00361624 -0.000952879 0.00262541)
(0.00413617 -0.00112819 0.00209089)
(0.00522511 0.000233481 0.00153299)
(0.00617015 0.000284633 0.000720535)
(0.00591092 0.00317461 -0.00048037)
(0.00499401 0.00520897 -0.00191135)
(0.00678405 0.0104072 -0.0033699)
(0.0165904 0.00766567 -0.00433492)
(0.038598 0.00185129 -0.00578611)
(0.0527954 -0.0151995 -0.00574607)
(0.0598823 -0.0197497 -0.003657)
(0.0549976 -0.0472273 -0.00102442)
(0.0421951 -0.0357066 0.00463825)
(0.0409225 -0.0928108 0.0122328)
(-0.000372767 -0.0413931 0.0122139)
(-0.00117167 -0.156498 0.0437705)
(-0.0963602 0.039158 -0.0738575)
(0.0232622 0.0450171 0.0231899)
(0.124663 0.350096 0.0759792)
(0.0240617 0.429194 0.00372188)
(0.0198733 -0.0676248 0.00571414)
(0.0254082 -0.036894 0.0157747)
(0.0124665 -0.0541152 0.0172784)
(0.00489366 -0.0451009 0.0155283)
(0.00165028 -0.0467692 0.0128681)
(0.00139322 -0.0423985 0.0120835)
(0.0023991 -0.0414941 0.0115805)
(0.00185027 -0.0373011 0.0104811)
(0.000247238 -0.0375242 0.0112591)
(-0.00186074 -0.0373206 0.0122908)
(-0.00331494 -0.0394732 0.0127628)
(-0.00572366 -0.0407813 0.0119495)
(-0.00865414 -0.0419155 0.0105493)
(-0.00970587 -0.0398652 0.00925603)
(-0.00933337 -0.037812 0.00801778)
(-0.00975593 -0.0352146 0.00749003)
(-0.0096649 -0.0318093 0.00735498)
(-0.00796963 -0.0288778 0.00770612)
(-0.00591146 -0.025351 0.00777187)
(-0.00428102 -0.0219003 0.0083093)
(-0.00336971 -0.021044 0.00935728)
(-0.00341564 -0.0216215 0.00931467)
(-0.0038154 -0.0214857 0.00803671)
(-0.00337733 -0.0203537 0.00682795)
(-0.00298277 -0.0172269 0.00530751)
(-0.00326042 -0.0126999 0.00383232)
(-0.00388896 -0.00770597 0.00253961)
(-0.00457709 -0.00175005 0.00168182)
(-0.0041043 0.00403296 0.00262303)
(-0.00272176 0.00906728 0.00382417)
(-0.0027761 0.0146752 0.00566597)
(-0.00303223 0.016979 0.0094834)
(-0.00246021 0.0177907 0.014275)
(0.000320776 0.0108259 0.0202778)
(0.0225748 0.0211724 0.00413845)
(0.0245882 0.0121029 0.00403633)
(0.0146861 0.0074398 0.00123078)
(0.0135399 0.00684546 0.00217311)
(0.00699871 0.00225334 0.00291969)
(0.00610084 0.00280305 0.00313304)
(0.00357282 0.000940951 0.00371964)
(0.00316416 0.0022552 0.00362086)
(0.00222454 0.00225782 0.00354957)
(0.00209958 0.00348327 0.00362002)
(0.00199827 0.00370003 0.00368991)
(0.00264559 0.00421518 0.00398609)
(0.00309261 0.00397715 0.00417394)
(0.00359573 0.00383086 0.00433372)
(0.00378104 0.0032856 0.00432406)
(0.00397037 0.00282541 0.00431305)
(0.00399033 0.00223861 0.00426518)
(0.0040343 0.00179348 0.00424285)
(0.00401618 0.00135931 0.00422272)
(0.00399341 0.00104825 0.00422753)
(0.00393561 0.000785181 0.004244)
(0.00386442 0.00061286 0.004279)
(0.00378326 0.000492544 0.00432086)
(0.00369602 0.000427241 0.00436883)
(0.00360097 0.000392926 0.00441975)
(0.00350332 0.000381149 0.00447231)
(0.00340503 0.000378187 0.00452646)
(0.00330705 0.000377174 0.00458375)
(0.00321045 0.000374472 0.00464331)
(0.0031094 0.000354777 0.00470462)
(0.003009 0.00033504 0.00476732)
(0.00290446 0.000263867 0.00483118)
(0.00281468 0.000223911 0.0048967)
(0.00271983 6.69489e-05 0.00496129)
(0.00267203 2.79891e-05 0.00502523)
(0.00262669 -0.000231662 0.00507991)
(0.00265759 -0.000204746 0.00512441)
(0.00267096 -0.000544724 0.00514175)
(0.00275178 -0.000333031 0.00512479)
(0.00275233 -0.00066936 0.00503976)
(0.00279328 -9.86691e-05 0.00485271)
(0.00276392 -0.00043748 0.00459748)
(0.00294399 0.000363769 0.00435578)
(0.00348341 -0.000318981 0.00414814)
(0.00437302 0.00100385 0.0036227)
(0.00516233 0.00109179 0.00300214)
(0.00519195 0.0037221 0.00208054)
(0.00598674 0.00331092 0.000860258)
(0.0112233 0.00625605 -0.000424374)
(0.0271527 -0.000307791 -0.000476078)
(0.0530881 -0.00283045 -0.001901)
(0.0707245 -0.00999502 -0.000848557)
(0.0751021 -0.00398994 0.00257314)
(0.0690035 -0.0209564 0.00580871)
(0.0594299 -0.00672735 0.0154406)
(0.0547204 -0.0724214 0.023906)
(-0.000180078 -0.00847328 0.0346339)
(0.0136282 -0.180128 0.0634376)
(-0.115833 0.0846907 -0.0603459)
(0.0524965 0.0194585 -0.0031686)
(0.172319 0.37085 0.0901419)
(0.0762324 0.444087 0.0250418)
(0.0710335 -0.00688833 0.0204473)
(0.0462561 0.0545188 0.0150362)
(0.0308958 0.0170929 0.0124992)
(0.0213254 0.0290659 0.0131308)
(0.0182467 0.0214469 0.0135129)
(0.0139799 0.023692 0.0112735)
(0.0124079 0.023793 0.010051)
(0.0119208 0.0231 0.010754)
(0.0102375 0.016271 0.01295)
(0.00690696 0.0100395 0.0148145)
(0.00427711 0.00403227 0.0154478)
(0.00117041 0.00158664 0.0146006)
(-0.0021293 -0.00172791 0.0124445)
(-0.00398193 -0.00263457 0.0101483)
(-0.0048063 -0.00210027 0.00915537)
(-0.00611409 -0.001138 0.00907549)
(-0.00743381 -0.00123988 0.00972332)
(-0.0069451 -0.00194739 0.010071)
(-0.00527223 -0.00189669 0.0101871)
(-0.00333745 -0.00216084 0.0110105)
(-0.00224924 -0.00384634 0.0122013)
(-0.00360254 -0.00550317 0.0114731)
(-0.00472898 -0.00686432 0.0104487)
(-0.00512374 -0.00753274 0.00900611)
(-0.00503931 -0.00651166 0.00667632)
(-0.0051643 -0.00499386 0.00405556)
(-0.00530456 -0.00274596 0.00120982)
(-0.00564074 0.00202251 -0.000351262)
(-0.00566537 0.00631294 0.00234445)
(-0.00574774 0.00974474 0.00544803)
(-0.00581034 0.0128788 0.00833733)
(-0.00605571 0.0133675 0.0120608)
(-0.00745841 0.0141293 0.0167624)
(-0.00733108 0.00821424 0.0219024)
(0.0237429 0.0212232 0.00437451)
(0.0272213 0.0153807 0.00453469)
(0.016739 0.00918016 0.000979625)
(0.0165093 0.00999503 0.00140145)
(0.0088385 0.00414117 0.00202567)
(0.00733853 0.0048447 0.00251328)
(0.00315694 0.00148792 0.00350841)
(0.00223268 0.00250751 0.00350815)
(0.000905921 0.00178809 0.00360851)
(0.00101055 0.00299196 0.00373596)
(0.000930547 0.0028623 0.00388877)
(0.00156051 0.00347609 0.00428831)
(0.00192933 0.00344767 0.0044931)
(0.00245432 0.00360073 0.00465517)
(0.00267108 0.00325248 0.00463052)
(0.00288168 0.00297447 0.004634)
(0.00289121 0.00248182 0.00460669)
(0.0029204 0.00211281 0.0046134)
(0.00287367 0.00171187 0.00461021)
(0.00282888 0.00141188 0.00462198)
(0.0027431 0.00113335 0.00463579)
(0.00264779 0.000926834 0.00466157)
(0.00253696 0.000757278 0.00469302)
(0.00242218 0.000640707 0.00473082)
(0.00230619 0.000561574 0.00477241)
(0.00219376 0.000515364 0.00481762)
(0.00208795 0.000489149 0.0048642)
(0.00198994 0.000472827 0.00491183)
(0.00189799 0.000459198 0.00496136)
(0.00180812 0.000434769 0.00501311)
(0.00172497 0.000413543 0.005067)
(0.00164338 0.000354863 0.00512075)
(0.0015812 0.000334776 0.00517129)
(0.00151752 0.000224004 0.00521312)
(0.00150253 0.000244801 0.00524154)
(0.00147769 8.50223e-05 0.00524823)
(0.00152724 0.000235322 0.00523109)
(0.00153258 6.92071e-05 0.00518028)
(0.00160856 0.000480186 0.00509546)
(0.00159842 0.000359664 0.0049614)
(0.00171816 0.00109459 0.00476781)
(0.00184579 0.000788325 0.00455892)
(0.00220855 0.00142794 0.00437824)
(0.00257255 0.000563576 0.00422796)
(0.00317935 0.001387 0.00400788)
(0.00388868 0.00065862 0.00388274)
(0.0046837 0.00228225 0.00351368)
(0.00662191 -0.000230711 0.00250657)
(0.0145618 0.000618637 0.00155472)
(0.0312271 -0.00650618 0.00150245)
(0.0564131 -0.00275381 0.000852086)
(0.0728861 0.00247559 0.00360717)
(0.0792609 0.0184007 0.00802212)
(0.0753274 0.0131824 0.0120869)
(0.0658054 0.0340332 0.0250019)
(0.0592758 -0.0244704 0.0408747)
(0.0166538 0.0616323 0.0759342)
(0.0330729 -0.189727 0.101568)
(-0.151289 0.210087 -0.0416614)
(0.0565773 -0.0457443 0.02166)
(0.154973 0.454503 0.0901724)
(0.0519271 0.572451 0.0168307)
(0.0378159 0.384459 0.0156651)
(0.0124888 0.427942 0.0027817)
(0.00968207 0.38107 0.00809759)
(0.00212144 0.359749 0.00847139)
(0.00222202 0.334008 0.00990455)
(0.00148296 0.312487 0.00938823)
(0.00262688 0.288843 0.00872769)
(0.002848 0.266779 0.00868816)
(0.00234391 0.236508 0.00973255)
(0.00043415 0.20892 0.0097375)
(-0.00230529 0.17922 0.00983243)
(-0.0050015 0.149879 0.00943622)
(-0.00695759 0.123339 0.00839863)
(-0.00848733 0.108226 0.0080518)
(-0.00959931 0.0967947 0.00813359)
(-0.0101096 0.0865482 0.00788781)
(-0.0103397 0.0725492 0.00900598)
(-0.00980554 0.0594758 0.010159)
(-0.00892175 0.0519822 0.0119534)
(-0.00892605 0.0471816 0.0118117)
(-0.00902545 0.0419955 0.0124689)
(-0.00940281 0.0348117 0.0119526)
(-0.0105546 0.030018 0.0111742)
(-0.0109988 0.026409 0.00995977)
(-0.0100999 0.0235409 0.00620973)
(-0.00874356 0.0221178 0.00346879)
(-0.00906952 0.019817 0.00101832)
(-0.00903553 0.0194317 -0.000581156)
(-0.00877624 0.0190526 0.00324692)
(-0.00896393 0.0175639 0.00654493)
(-0.00952464 0.0168587 0.00940733)
(-0.0112126 0.0141458 0.0137421)
(-0.0152149 0.0134465 0.0174845)
(-0.0174 0.00726732 0.0223117)
(0.0237583 0.0213654 0.0045042)
(0.0290751 0.0184376 0.00516631)
(0.0183921 0.0104755 0.000879955)
(0.0195949 0.0123109 0.0009647)
(0.0110776 0.00493234 0.000299791)
(0.00928005 0.00640199 0.000892394)
(0.00364727 0.00173356 0.00218821)
(0.00204097 0.00298397 0.00269126)
(-0.00025331 0.000985218 0.00306822)
(-0.000376682 0.00210517 0.00343506)
(-0.000724882 0.00170421 0.00367713)
(-0.00035252 0.00258721 0.00422804)
(-0.000159152 0.00279963 0.00443981)
(0.000408895 0.00325478 0.00463032)
(0.000667028 0.00307481 0.00457809)
(0.000878997 0.00290895 0.00460038)
(0.000833306 0.00247647 0.00458654)
(0.000770858 0.0021761 0.00461684)
(0.000637392 0.00182584 0.0046177)
(0.000528522 0.00156388 0.00461969)
(0.000397667 0.00129452 0.00460793)
(0.000275986 0.00107553 0.00460279)
(0.000152702 0.000880508 0.00460155)
(3.16605e-05 0.000733775 0.00460821)
(-8.92912e-05 0.000622525 0.00462016)
(-0.000200476 0.000546368 0.00463807)
(-0.000298772 0.000494152 0.00466043)
(-0.000382736 0.000456901 0.00468575)
(-0.000457021 0.000429328 0.00471153)
(-0.000528887 0.000402831 0.00473803)
(-0.000596594 0.000388163 0.00476489)
(-0.000663802 0.000352655 0.00478915)
(-0.000714354 0.000365389 0.00480783)
(-0.000767726 0.000318058 0.00481275)
(-0.000770848 0.000417177 0.0047983)
(-0.000785481 0.000377868 0.00475298)
(-0.000725633 0.000660517 0.00467504)
(-0.000719581 0.000672834 0.00455549)
(-0.000626988 0.00126186 0.00441062)
(-0.000596089 0.00131283 0.00425669)
(-0.000320054 0.00210952 0.00413932)
(-6.74039e-07 0.00173031 0.00404266)
(0.000587629 0.00220672 0.00389823)
(0.00115608 0.00106135 0.00370468)
(0.00193114 0.00142772 0.00369953)
(0.00258626 9.91695e-06 0.00384351)
(0.00386685 0.000606794 0.00425256)
(0.00718069 -0.00326986 0.00388333)
(0.0167505 -0.00450841 0.00381379)
(0.0317243 -0.00807448 0.00517255)
(0.0502027 0.00354685 0.00643914)
(0.0650492 0.0192395 0.0115042)
(0.070803 0.0467288 0.0149619)
(0.0679215 0.0546992 0.0187869)
(0.0596204 0.0841583 0.0346424)
(0.0488939 0.0440877 0.0509278)
(0.0188771 0.133607 0.0862326)
(0.0270522 -0.106487 0.103074)
(-0.123043 0.319622 -0.0133416)
(0.0457961 -0.0777529 0.0283014)
(0.144516 0.504997 0.096257)
(0.0463875 0.621674 0.0159891)
(0.0379106 0.550477 0.0157581)
(0.0133074 0.603312 0.00177992)
(0.0117648 0.593631 0.00740802)
(0.00458424 0.60458 0.00683384)
(0.00523627 0.599115 0.00802764)
(0.00293167 0.596786 0.00785298)
(0.0030815 0.589849 0.00834013)
(0.00273521 0.584629 0.00935404)
(0.0024163 0.577623 0.0103941)
(0.00107895 0.568778 0.0105459)
(0.000413889 0.558248 0.0102804)
(-0.000464894 0.545232 0.00990407)
(-0.000956984 0.527949 0.0097151)
(-0.00181268 0.502991 0.00908367)
(-0.00277315 0.481995 0.0088466)
(-0.00460997 0.461698 0.00907422)
(-0.00594436 0.442856 0.0108915)
(-0.00687817 0.42538 0.0121815)
(-0.00782018 0.40752 0.012836)
(-0.00851609 0.378709 0.013859)
(-0.00850086 0.338758 0.013345)
(-0.00811839 0.296675 0.0109789)
(-0.00659892 0.256712 0.00778672)
(-0.00491441 0.224259 0.00396054)
(-0.00369918 0.185782 0.00168338)
(-0.00298291 0.155037 0.000871396)
(-0.00424798 0.131051 0.000366213)
(-0.00476768 0.112534 0.00318205)
(-0.0068228 0.0965297 0.00675913)
(-0.00817013 0.074398 0.0090098)
(-0.00981395 0.0577788 0.0127146)
(-0.0136748 0.0382415 0.0163715)
(-0.0209042 0.0246865 0.0181958)
(-0.0275369 0.0116202 0.0212951)
(0.0224039 0.0209805 0.0050347)
(0.0303983 0.0218419 0.00646242)
(0.0191085 0.0115645 0.00179433)
(0.0218129 0.0143735 0.00230698)
(0.0136042 0.00448588 -0.000178951)
(0.0114868 0.00695216 -0.000225276)
(0.00472168 0.00105309 0.000785532)
(0.0023389 0.00333768 0.00153387)
(-0.000449059 0.000346322 0.00219884)
(-0.00136271 0.00137789 0.00280161)
(-0.00199781 0.000428977 0.00309185)
(-0.00182191 0.00154444 0.00380481)
(-0.00156516 0.00200382 0.00410791)
(-0.000807929 0.00281346 0.00448722)
(-0.00033767 0.00269739 0.00458623)
(-4.81545e-05 0.00260129 0.00473928)
(-0.000112414 0.00218991 0.00477318)
(-0.00024402 0.00197028 0.00481567)
(-0.000435961 0.00171631 0.00479279)
(-0.000582493 0.00156478 0.00475567)
(-0.000737107 0.00138816 0.00468553)
(-0.000874943 0.0012409 0.00461037)
(-0.00101715 0.00109068 0.00453426)
(-0.00114736 0.000965954 0.00446753)
(-0.00126116 0.000863536 0.00440982)
(-0.00135404 0.000790818 0.00436123)
(-0.00142529 0.000737929 0.00432177)
(-0.00147975 0.000698384 0.0042915)
(-0.00152691 0.000667752 0.00427006)
(-0.00156895 0.000642715 0.00425947)
(-0.00160485 0.000638125 0.00425804)
(-0.00163732 0.000632897 0.00425855)
(-0.00165557 0.000689228 0.00425517)
(-0.00167819 0.000716877 0.004234)
(-0.00166433 0.000898905 0.00418698)
(-0.00167614 0.000972394 0.00410166)
(-0.00163798 0.00134783 0.00397753)
(-0.00167275 0.00145485 0.00381149)
(-0.00161438 0.0020529 0.0036391)
(-0.00155353 0.00205768 0.00351926)
(-0.00117441 0.00270968 0.00352332)
(-0.000694876 0.0022546 0.00360805)
(5.19177e-05 0.00264774 0.00360299)
(0.000725275 0.00142082 0.00358144)
(0.00155938 0.00167944 0.00391503)
(0.00215183 -7.59881e-05 0.00438086)
(0.00399974 -0.00079324 0.00479552)
(0.00892881 -0.00507288 0.00455013)
(0.0162976 -0.00634567 0.0056485)
(0.0252015 -0.0067182 0.00981295)
(0.0355428 0.00898899 0.0138004)
(0.043956 0.0324288 0.0195376)
(0.0522074 0.0665682 0.0253067)
(0.0533662 0.0828562 0.0326624)
(0.0488284 0.111812 0.0483568)
(0.0411206 0.0771617 0.0580717)
(0.029738 0.152153 0.0799803)
(0.0458129 -0.0804974 0.0793035)
(-0.034475 0.358619 0.0180517)
(0.035194 -0.081689 0.0320989)
(0.0942036 0.543885 0.0927249)
(0.0186384 0.642442 0.010312)
(0.0146028 0.604709 0.0130134)
(-0.00365791 0.657261 0.00323321)
(-0.00141694 0.65641 0.0107013)
(-0.00398731 0.669231 0.0109624)
(-0.000590647 0.668926 0.0129874)
(0.000609723 0.672985 0.0133694)
(0.0029143 0.671794 0.014577)
(0.00412546 0.670834 0.0148942)
(0.00518327 0.664763 0.0144879)
(0.0050872 0.660846 0.0138922)
(0.00519908 0.657883 0.0130938)
(0.0042247 0.655847 0.0125994)
(0.00262715 0.65273 0.0124878)
(0.000541741 0.650925 0.0122803)
(-0.0013864 0.648151 0.0125914)
(-0.00364106 0.643674 0.0134002)
(-0.00592973 0.636918 0.0138652)
(-0.00740027 0.626476 0.0139096)
(-0.00841319 0.614683 0.0134246)
(-0.00869753 0.600306 0.0118619)
(-0.00763822 0.584679 0.00915779)
(-0.0062489 0.565875 0.00572495)
(-0.00530756 0.546282 0.00229985)
(-0.00437959 0.522567 -0.00032837)
(-0.00390587 0.486002 -0.000853685)
(-0.00419408 0.437527 0.00131744)
(-0.00600365 0.39017 0.00476005)
(-0.00796258 0.343274 0.00796332)
(-0.00984055 0.29212 0.0090825)
(-0.0116891 0.236261 0.0108966)
(-0.0143526 0.200308 0.0145018)
(-0.0191346 0.156658 0.0177623)
(-0.0262502 0.106654 0.0194152)
(-0.0327749 0.0746439 0.0191373)
(0.0189564 0.0194356 0.0052184)
(0.0304607 0.0255846 0.00855679)
(0.018048 0.0120944 0.00375971)
(0.0218141 0.0165645 0.00503556)
(0.0144128 0.00354031 0.00150726)
(0.0123878 0.00662875 0.000664989)
(0.00484647 -0.000374252 0.000821207)
(0.00225396 0.00324598 0.0011007)
(-0.000900848 -2.87751e-05 0.00164632)
(-0.00231305 0.00127934 0.00242113)
(-0.00366926 -0.000219172 0.00261981)
(-0.00434673 0.000933428 0.00339002)
(-0.00448229 0.0013052 0.00381487)
(-0.00348594 0.00221019 0.00458263)
(-0.00287935 0.00207019 0.00498695)
(-0.00260113 0.00209902 0.00532909)
(-0.00280657 0.00177349 0.0054088)
(-0.0031392 0.00168574 0.00541985)
(-0.00349183 0.00155448 0.00532931)
(-0.00372583 0.00154288 0.00522202)
(-0.00390956 0.00149976 0.00507786)
(-0.00403424 0.00148261 0.00493362)
(-0.00413611 0.00144054 0.00479242)
(-0.00422092 0.0014 0.00467127)
(-0.00430408 0.0013607 0.00457515)
(-0.00435915 0.00133417 0.00449638)
(-0.00438439 0.00130934 0.00443319)
(-0.00438309 0.00128439 0.00439322)
(-0.0043704 0.00125917 0.00437525)
(-0.00436179 0.00123842 0.00437655)
(-0.00436213 0.00124464 0.00439227)
(-0.00436782 0.00126876 0.00441115)
(-0.00437339 0.0013685 0.00442263)
(-0.00438791 0.00146341 0.0044096)
(-0.00436407 0.00170156 0.00436936)
(-0.00435248 0.00182788 0.00429343)
(-0.0042719 0.00219453 0.00419224)
(-0.00423231 0.00223447 0.00406302)
(-0.00407841 0.00263386 0.00393429)
(-0.00393851 0.00237152 0.00383618)
(-0.00354124 0.00272681 0.00382605)
(-0.00309041 0.0021366 0.00382679)
(-0.00221697 0.00260203 0.00381432)
(-0.00139253 0.00160561 0.00400758)
(-0.000518606 0.00182874 0.00450179)
(0.000564935 -8.1996e-05 0.00496055)
(0.00368618 -0.00137615 0.00510908)
(0.00853795 -0.00448485 0.00504712)
(0.0137374 -0.00406793 0.00669301)
(0.0156564 0.000325434 0.0128044)
(0.0134902 0.0203793 0.0202388)
(0.017216 0.0448492 0.0258073)
(0.0242145 0.082396 0.0329261)
(0.0293366 0.104716 0.0414578)
(0.0351948 0.130306 0.053798)
(0.0398411 0.096253 0.0595634)
(0.04729 0.165501 0.072651)
(0.0431179 -0.0687252 0.06069)
(0.00822212 0.353761 0.0468855)
(0.0131542 -0.0666398 0.0327571)
(0.0357962 0.576425 0.0804055)
(-0.00399765 0.661856 0.00991624)
(-0.00359638 0.643222 0.0117938)
(-0.0114464 0.689903 0.00541228)
(-0.00594677 0.687603 0.0135316)
(-0.00433248 0.699161 0.0133556)
(-0.000699499 0.698309 0.015177)
(0.00104476 0.702565 0.0155039)
(0.0034446 0.702901 0.0165661)
(0.00548444 0.702802 0.0166818)
(0.007145 0.701366 0.0163742)
(0.00750721 0.69913 0.0161034)
(0.00745771 0.698695 0.0161031)
(0.00629239 0.697258 0.0159056)
(0.00491631 0.695189 0.0159926)
(0.00294713 0.690216 0.0157324)
(0.00133883 0.683395 0.0155955)
(-0.000201893 0.675644 0.0153194)
(-0.00114592 0.669168 0.0150074)
(-0.00187695 0.661543 0.0148165)
(-0.00169029 0.652982 0.0133118)
(-0.000787437 0.645438 0.0107596)
(0.00089746 0.640941 0.00723825)
(0.00210994 0.63681 0.00313874)
(0.0029316 0.628938 -0.000309786)
(0.00273252 0.616645 -0.00272037)
(0.00164463 0.605546 -0.00216622)
(0.000336267 0.590878 0.000251863)
(-0.0012475 0.564411 0.00282375)
(-0.0044264 0.542177 0.0051158)
(-0.00900917 0.519578 0.00619513)
(-0.0145923 0.489758 0.0080696)
(-0.0205159 0.447443 0.0102972)
(-0.0272796 0.388879 0.0122833)
(-0.0345103 0.318876 0.0140283)
(-0.0425404 0.281816 0.0124572)
(0.0159404 0.0141799 0.00433384)
(0.0293167 0.0286594 0.00949417)
(0.0155846 0.0122135 0.00448958)
(0.0206871 0.0196096 0.00597232)
(0.0141774 0.00380786 0.00262324)
(0.0118212 0.00672971 0.00164112)
(0.00341223 -0.00164403 0.00150844)
(0.000638089 0.00295062 0.00125572)
(-0.0016029 -0.000665708 0.00212283)
(-0.00315002 0.00154028 0.00280115)
(-0.00440299 -0.000300417 0.00307894)
(-0.00515031 0.00070878 0.00393415)
(-0.00510939 0.000193176 0.00462221)
(-0.00394493 0.000820371 0.00565205)
(-0.00330182 0.000598282 0.00637887)
(-0.00304784 0.00100256 0.00698504)
(-0.00324333 0.00105821 0.00726484)
(-0.0035294 0.00136356 0.0073646)
(-0.00383205 0.00148597 0.00730274)
(-0.00401984 0.00169023 0.00718762)
(-0.00417237 0.00180298 0.00701756)
(-0.00426772 0.00190418 0.0068423)
(-0.0043395 0.00194531 0.00667254)
(-0.00438782 0.00196697 0.00652488)
(-0.00442377 0.00196078 0.00639862)
(-0.00443364 0.00194343 0.00629858)
(-0.0044144 0.00192133 0.00622539)
(-0.00437085 0.00189634 0.00617723)
(-0.00432063 0.00186888 0.00615031)
(-0.00428145 0.00185019 0.0061419)
(-0.00426143 0.00186757 0.00614339)
(-0.00425676 0.00191862 0.00614132)
(-0.00426361 0.00205197 0.00612583)
(-0.00427522 0.00218874 0.00608795)
(-0.00424507 0.00243831 0.00602711)
(-0.00422317 0.00255427 0.00593966)
(-0.00411577 0.0028322 0.00584252)
(-0.00402478 0.00275062 0.00573401)
(-0.00378433 0.00295672 0.00564253)
(-0.00357689 0.0025444 0.0055726)
(-0.00321289 0.0027367 0.00555406)
(-0.00289316 0.00209355 0.00553448)
(-0.0021829 0.0025423 0.00553607)
(-0.00135041 0.00157895 0.00577143)
(-0.000503575 0.00191393 0.00618619)
(0.000831196 -0.000317683 0.00616017)
(0.00357166 -0.000200723 0.00535336)
(0.00644829 -0.000117495 0.00550939)
(0.00737792 0.00399356 0.0079946)
(0.00106891 0.013128 0.0173444)
(-0.00770762 0.0323646 0.0268657)
(-0.0121602 0.0535329 0.0309194)
(-0.007555 0.0871138 0.0340359)
(0.00748731 0.113595 0.039285)
(0.0249451 0.143849 0.0504298)
(0.0504079 0.128503 0.0575236)
(0.0750763 0.185734 0.0731153)
(0.083368 -0.0114046 0.0666511)
(0.0925252 0.385701 0.0351222)
(-0.0243408 -0.0748365 0.0267383)
(-0.0520756 0.608469 0.0445121)
(-0.0356487 0.691189 -0.00698034)
(-0.0316976 0.673191 0.00218387)
(-0.0226765 0.713153 -4.36892e-05)
(-0.0151016 0.70714 0.00754913)
(-0.00728381 0.715369 0.00679212)
(-0.00365987 0.713442 0.00810586)
(0.00150664 0.714852 0.00828005)
(0.00493355 0.716574 0.00973462)
(0.00820854 0.716182 0.0106579)
(0.00981474 0.716291 0.0111827)
(0.0106032 0.717411 0.0119183)
(0.0114388 0.716602 0.0131215)
(0.0120425 0.714243 0.0144249)
(0.0123182 0.709823 0.0157562)
(0.0124747 0.705221 0.0169131)
(0.012747 0.698002 0.0178246)
(0.0127886 0.689013 0.0184304)
(0.0125226 0.678435 0.0185991)
(0.0121877 0.666857 0.0181833)
(0.0119545 0.656855 0.0170577)
(0.0121136 0.643787 0.015007)
(0.0118421 0.630736 0.012185)
(0.0111491 0.623584 0.00897425)
(0.010001 0.619039 0.00664402)
(0.00869991 0.611818 0.00508066)
(0.00805985 0.604166 0.00482312)
(0.00718881 0.596348 0.00509965)
(0.00607423 0.589003 0.00680503)
(0.00379962 0.578745 0.00955398)
(-0.000424769 0.559653 0.012402)
(-0.00639613 0.535773 0.01489)
(-0.0132789 0.512433 0.015104)
(-0.0221998 0.491971 0.0115248)
(-0.0304338 0.468734 0.00232912)
(-0.0366387 0.449149 -0.0151175)
(0.00669299 0.00859967 -0.0021428)
(0.0267121 0.0303642 0.00778824)
(0.0116692 0.0126479 0.00223144)
(0.0186897 0.0236045 0.00370007)
(0.0135119 0.00610492 0.00140414)
(0.0111676 0.00828941 0.00043221)
(0.00161847 -0.00204787 -0.00191214)
(-0.000826654 0.00322536 -0.0021801)
(-0.00395318 -0.000585579 -0.00117165)
(-0.00528521 0.00205442 -0.000431905)
(-0.00660301 -0.000197773 -4.96032e-05)
(-0.00732731 0.000564615 0.000806842)
(-0.00774802 -0.000670804 0.00152461)
(-0.0071799 -0.000141521 0.00239619)
(-0.00713363 -0.000271658 0.00311992)
(-0.0072045 0.00041948 0.00374066)
(-0.0076096 0.00068464 0.00420561)
(-0.00795585 0.00119665 0.00449643)
(-0.00830561 0.00144432 0.00461455)
(-0.00850259 0.00175112 0.00463348)
(-0.00859521 0.00193411 0.00457232)
(-0.00859382 0.00209626 0.00448694)
(-0.00856598 0.00218798 0.00439716)
(-0.00851908 0.00224643 0.00431818)
(-0.00846267 0.00226721 0.00424861)
(-0.00839025 0.00226744 0.0041912)
(-0.00830052 0.0022577 0.00414671)
(-0.00819773 0.00224795 0.00411523)
(-0.00809854 0.00224248 0.00409495)
(-0.00803749 0.00224834 0.00408344)
(-0.00802077 0.00228449 0.00407539)
(-0.00802306 0.00235053 0.00406121)
(-0.0080335 0.00248129 0.00403462)
(-0.00802746 0.00260376 0.00398992)
(-0.00794727 0.0028151 0.00392589)
(-0.00783533 0.00290046 0.00384878)
(-0.00762163 0.00313637 0.00376328)
(-0.00743301 0.00305011 0.0036733)
(-0.00717983 0.00323401 0.0035769)
(-0.00703175 0.00282372 0.00348394)
(-0.00673539 0.00296665 0.00338929)
(-0.00646046 0.00223509 0.00327744)
(-0.00569908 0.00245344 0.00315033)
(-0.0048572 0.00127648 0.0032896)
(-0.00388221 0.00144865 0.00345165)
(-0.00290447 -0.000838104 0.00276359)
(-0.00115015 0.00154536 0.00218537)
(0.000267065 0.00194205 0.00253249)
(-0.00278678 0.00863137 0.00532682)
(-0.0139766 0.0149019 0.0147865)
(-0.0289428 0.0267377 0.0265674)
(-0.0343475 0.0364115 0.0308558)
(-0.0334694 0.059305 0.0293678)
(-0.0192445 0.0722822 0.0256814)
(0.0003736 0.117248 0.0340505)
(0.0364023 0.0857259 0.0407402)
(0.0735282 0.183822 0.0602072)
(0.0973734 -0.0312542 0.0676342)
(0.175556 0.410784 0.033844)
(-0.0485806 -0.10091 0.018011)
(-0.123324 0.576706 0.0246317)
(-0.0516751 0.674814 -0.00652686)
(-0.0461243 0.631737 0.00315318)
(-0.0219838 0.67041 0.00384688)
(-0.0162854 0.64793 0.00862792)
(-0.00491627 0.65058 0.005197)
(-0.00416645 0.640925 0.00385157)
(-0.000439589 0.640599 0.00198127)
(0.00164149 0.639775 0.00163953)
(0.00468725 0.640343 0.00100903)
(0.00580919 0.64056 -0.000104291)
(0.00671335 0.642591 -5.75642e-05)
(0.00730812 0.642922 0.00076065)
(0.00862494 0.644326 0.00247294)
(0.0102708 0.645092 0.00436511)
(0.0120273 0.644792 0.00631313)