/*--------------------------------*- C++ -*----------------------------------*\
| =========                 |                                                 |
| \\      /  F ield         | OpenFOAM: The Open Source CFD Toolbox           |
|  \\    /   O peration     | Version:  2.3.0                                 |
|   \\  /    A nd           | Web:      www.OpenFOAM.org                      |
|    \\/     M anipulation  |                                                 |
\*---------------------------------------------------------------------------*/
FoamFile
{
    version     2.0;
    format      ascii;
    class       volVectorField;
    location    "55";
    object      U.water;
}
// * * * * * * * * * * * * * * * * * * * * * * * * * * * * * * * * * * * * * //

dimensions      [0 1 -1 0 0 0 0];

internalField   nonuniform List<vector> 
6144
(
(0.0109741 0.0204888 -0.000936892)
(0.0111532 -0.00199534 -0.00207783)
(0.00445714 -0.00328976 -0.00293751)
(0.00359171 -0.00307357 -0.00266715)
(0.00204834 -0.0017579 -0.00187821)
(0.00307769 0.000955792 -0.00164999)
(0.00331837 0.00010494 -0.00135833)
(0.00328398 0.000802563 -0.00119237)
(0.00263882 0.000201544 -0.000942799)
(0.00199235 0.00141481 -0.000398632)
(0.00143465 0.00248999 0.000183607)
(0.00133631 0.00362966 0.000889587)
(0.00143015 0.00379044 0.00133449)
(0.00156494 0.00332715 0.00172874)
(0.00160218 0.00245873 0.00180992)
(0.00167826 0.00161008 0.00175584)
(0.00174667 0.000714353 0.00155353)
(0.00182168 -3.59721e-05 0.00130147)
(0.00189194 -0.000649574 0.00103298)
(0.00195257 -0.00107712 0.000786758)
(0.00199223 -0.00133466 0.000565021)
(0.00202743 -0.00141636 0.000372155)
(0.00204281 -0.00138551 0.000261134)
(0.00203526 -0.00128845 0.000236981)
(0.00200392 -0.00115922 0.0002861)
(0.00195484 -0.00102124 0.000398173)
(0.00189903 -0.000900133 0.000549637)
(0.00184788 -0.000826605 0.000708072)
(0.00179043 -0.000816062 0.000870102)
(0.00172804 -0.000846505 0.00101979)
(0.00166393 -0.000901039 0.00116355)
(0.00160147 -0.00098374 0.00131331)
(0.00154177 -0.00111264 0.00147672)
(0.00148662 -0.00131088 0.00165409)
(0.00143818 -0.00160559 0.00183102)
(0.00139543 -0.00199429 0.00195712)
(0.00135499 -0.0024211 0.00199467)
(0.00131259 -0.00281305 0.00192332)
(0.00126147 -0.00301257 0.00165706)
(0.00122008 -0.0027819 0.0010491)
(0.00119832 -0.00168962 -1.8497e-05)
(0.00138469 0.000583023 -0.00114832)
(0.00219098 0.00359739 -0.00195548)
(0.00367763 0.00589569 -0.00237113)
(0.00505365 0.00716338 -0.00274587)
(0.00655868 0.00755368 -0.00315188)
(0.00894444 0.00442762 -0.00309156)
(0.00863377 3.27133e-05 -0.00351665)
(-0.00430963 3.99355e-05 -0.00302401)
(-0.0113253 0.0196476 0.00134604)
(0.0191992 0.0152247 -0.00145723)
(0.0346917 -0.0329842 -0.00341632)
(0.0192234 -0.0447374 0.00419651)
(0.0137136 -0.0820354 0.011608)
(0.00158709 -0.0976816 0.017324)
(-0.0128454 -0.119598 0.0157588)
(-0.0276328 -0.0709484 0.0101305)
(-0.0132818 -0.0712293 0.0418146)
(-0.0382095 -0.0491058 -0.0104956)
(0.0280873 -0.0219807 0.0418376)
(0.126941 -0.293128 0.0707891)
(0.0757598 -0.16288 0.0230239)
(0.0477461 -0.213936 0.00712982)
(0.0423838 -0.258435 0.002514)
(0.0387648 -0.260462 -0.00020513)
(0.0370718 -0.257223 -0.00216296)
(0.0323295 -0.253388 -0.00160033)
(0.0293146 -0.252839 0.00158867)
(0.0267449 -0.247229 0.00251625)
(0.0256584 -0.229659 0.00524154)
(0.019351 -0.222961 0.00430241)
(0.00508537 -0.212975 -0.00261561)
(0.000855763 -0.182915 -0.000601733)
(-0.0140001 -0.174702 0.0026977)
(-0.0413692 -0.154478 0.00128863)
(-0.0458626 -0.115562 -0.00387919)
(-0.0136184 -0.0819867 -0.00601863)
(0.0218547 -0.0689049 -0.00321157)
(0.0374576 -0.0708685 0.000560911)
(0.037623 -0.0755446 0.00627259)
(0.0377451 -0.0858833 0.0125645)
(0.0364804 -0.0979253 0.0175351)
(0.0395488 -0.114279 0.0234962)
(0.0403008 -0.136978 0.0235149)
(0.0397632 -0.154659 0.01776)
(0.0434521 -0.175365 0.016541)
(0.0393947 -0.196724 0.0143728)
(0.0313234 -0.209214 0.00797136)
(0.0260198 -0.229192 0.00571813)
(0.00559527 -0.239808 0.00595784)
(-0.00393602 -0.232097 0.00716839)
(-0.0185626 -0.206637 0.0113424)
(-0.0241931 -0.179638 -0.0271945)
(-0.0241922 -0.0746865 -0.0371039)
(-0.0260379 0.0236224 0.0490435)
(-0.0209369 0.0151257 0.0842889)
(0.0208431 0.0211613 0.00295499)
(0.0221806 0.0066253 0.00200763)
(0.011575 0.00259491 -0.00202019)
(0.00973968 0.00109473 -0.000586036)
(0.00470531 -0.00243049 0.000776706)
(0.00524111 -4.96294e-05 0.00123509)
(0.00537246 -0.000564062 0.001957)
(0.00511112 0.0010819 0.00226301)
(0.00390902 0.000845976 0.00237651)
(0.00268032 0.0026613 0.0024702)
(0.00200528 0.00379756 0.00273892)
(0.00216591 0.00479081 0.00344334)
(0.00248602 0.00472875 0.00399813)
(0.00289724 0.00427418 0.00430825)
(0.00302136 0.00337408 0.00438081)
(0.00316707 0.00250594 0.00437781)
(0.00325006 0.00155429 0.0043111)
(0.00332377 0.000743187 0.00423054)
(0.00338056 3.37057e-05 0.00414802)
(0.00341581 -0.000505966 0.0040841)
(0.00341647 -0.000880385 0.00404138)
(0.00342307 -0.00106879 0.00397371)
(0.00340757 -0.00114095 0.00394118)
(0.00335612 -0.00113252 0.00396394)
(0.00326408 -0.00107546 0.00403513)
(0.00314655 -0.000989467 0.00414272)
(0.00302755 -0.000898026 0.00426219)
(0.00293708 -0.000830866 0.00434429)
(0.00284484 -0.000815594 0.00443502)
(0.00274109 -0.000836962 0.004524)
(0.00263697 -0.000890543 0.00461017)
(0.00254598 -0.000981499 0.00469501)
(0.00247574 -0.00112353 0.00478111)
(0.00243591 -0.00133545 0.00486855)
(0.00242806 -0.00163885 0.00494676)
(0.00242978 -0.00202761 0.00499291)
(0.00241472 -0.00244943 0.00499422)
(0.00236156 -0.00282572 0.00493931)
(0.00218364 -0.00298089 0.00477014)
(0.00185582 -0.00264127 0.00429238)
(0.00148344 -0.0013959 0.00316049)
(0.00140458 0.000592582 0.00196793)
(0.00209753 0.00312705 0.00110221)
(0.00409207 0.00628264 0.000296584)
(0.00638718 0.0106789 -0.000955209)
(0.00952605 0.0145752 -0.00133119)
(0.0134745 0.0179834 -0.000668216)
(0.0107663 0.0225776 -0.00150185)
(-0.000839009 0.0217789 -0.0012307)
(-0.00362212 0.019014 0.00216855)
(0.0514143 -0.0326227 0.000853185)
(0.0501115 -0.0429069 -0.00278602)
(0.033062 -0.0515618 0.00645549)
(0.0261861 -0.0938169 0.0106508)
(0.00227361 -0.102136 0.0223839)
(-0.0291878 -0.137575 0.0246556)
(-0.0593833 -0.0823193 0.0147753)
(-0.0589158 -0.15598 0.0533488)
(-0.14084 -0.0178188 -0.0611381)
(-0.00604092 -0.0744708 0.0116473)
(0.169451 -0.258938 0.137261)
(0.0923499 -0.0721398 0.0713921)
(0.043408 -0.137886 0.0170527)
(0.0423247 -0.13128 0.0152578)
(0.0378116 -0.116893 0.00359468)
(0.0375726 -0.0822658 0.00345781)
(0.0224882 -0.0554089 0.0160191)
(-0.00735126 -0.041286 0.0228771)
(-0.00746223 -0.0214824 0.0157957)
(-0.00440867 -0.0106099 0.0116414)
(-0.0149403 -0.00559905 0.0164926)
(-0.0119016 -0.00663585 0.0259608)
(0.00971873 -0.00833987 0.0365018)
(0.023272 -0.0174379 0.0343346)
(0.0213703 -0.0326356 0.0210074)
(0.0167588 -0.0444654 0.0114246)
(0.0208724 -0.0528852 0.00979452)
(0.0314157 -0.059251 0.00755835)
(0.0366459 -0.0649948 0.00596999)
(0.0350155 -0.073261 0.00987725)
(0.0286574 -0.0926019 0.0217465)
(0.0216119 -0.111334 0.0317394)
(0.0127928 -0.12649 0.0341705)
(0.0105303 -0.140783 0.0275069)
(0.013946 -0.148984 0.0168311)
(0.0133109 -0.151432 0.0101233)
(0.0158975 -0.156179 0.000252466)
(0.018791 -0.168709 0.00012561)
(0.00604482 -0.188975 0.00756423)
(-0.0283789 -0.214214 0.0112031)
(-0.0532124 -0.213206 0.0130331)
(-0.0636221 -0.195279 0.0123081)
(-0.0752491 -0.177121 -0.0189122)
(-0.0747029 -0.102122 -0.0376772)
(-0.0638876 0.011587 0.0417255)
(-0.0537091 -0.00777419 0.0858325)
(0.0239833 0.0210373 0.00410354)
(0.0266625 0.0123362 0.00400787)
(0.01708 0.00678995 0.000484556)
(0.0142357 0.00530525 0.00196696)
(0.0064862 -0.000456205 0.00306626)
(0.00491626 0.000863868 0.00309476)
(0.00382124 0.000207671 0.00408222)
(0.00331341 0.0018782 0.00416005)
(0.00190485 0.0016071 0.00407841)
(0.000993424 0.00281391 0.00401729)
(0.000517229 0.00317249 0.00409705)
(0.0010075 0.00394543 0.00443261)
(0.00146975 0.0038781 0.00476913)
(0.00192917 0.00379771 0.0050187)
(0.00207068 0.00328303 0.00506367)
(0.0022443 0.00278631 0.0050581)
(0.0023368 0.00214858 0.00501269)
(0.00242749 0.00158118 0.00496995)
(0.00248138 0.00102306 0.00492752)
(0.00250454 0.000555657 0.00490582)
(0.00248032 0.000157282 0.00490454)
(0.00241416 -0.000151286 0.00493669)
(0.00232357 -0.000379278 0.00498732)
(0.0022104 -0.000530612 0.00504289)
(0.00207159 -0.000625084 0.00510152)
(0.0019206 -0.000677246 0.00516303)
(0.00177175 -0.000708719 0.00522729)
(0.00162849 -0.000727217 0.00530044)
(0.00148965 -0.000741917 0.00537921)
(0.00134032 -0.000767595 0.00545971)
(0.00119391 -0.000810333 0.00553857)
(0.0010676 -0.000876182 0.00561244)
(0.000978157 -0.000960016 0.0056802)
(0.000949 -0.00105798 0.00573788)
(0.000975472 -0.00117281 0.00578282)
(0.00101935 -0.0013012 0.00580734)
(0.00104001 -0.00142471 0.00580091)
(0.00100333 -0.00147724 0.00574556)
(0.000826377 -0.00129129 0.00559092)
(0.000416887 -0.000708309 0.00517285)
(9.39007e-05 0.000300038 0.00437428)
(0.000350228 0.000822396 0.0033286)
(0.000803266 0.000940445 0.00232873)
(0.0018969 0.00206947 0.00134694)
(0.00384348 0.00628555 0.000431396)
(0.00693357 0.0110476 0.00125583)
(0.0102005 0.0153378 0.00491954)
(0.0118217 0.0180405 0.0048685)
(0.0073017 0.0215313 0.00351369)
(0.0302566 7.74484e-05 0.0070307)
(0.0657613 -0.0376348 0.00129296)
(0.0598309 -0.0384911 -0.00308168)
(0.0469021 -0.051371 0.01347)
(0.0309258 -0.106684 0.0164568)
(-0.00753496 -0.105517 0.0197177)
(-0.0505795 -0.147477 0.0256596)
(-0.0851237 -0.0890703 0.0223986)
(-0.075495 -0.17876 0.0549337)
(-0.167814 0.00728087 -0.081076)
(0.017986 -0.103765 -0.0589435)
(0.190667 -0.228701 0.15054)
(0.115724 -0.018403 0.0839314)
(0.0746466 -0.10746 0.026641)
(0.0711989 -0.0728965 0.00645855)
(0.0508132 -0.0220097 -0.0157602)
(0.0326198 0.00762011 -0.00495816)
(0.0347824 0.0212237 -0.00108929)
(0.0370265 0.0182946 -0.00365473)
(0.0391217 0.0149492 0.000903642)
(0.0387404 0.0111858 0.00586895)
(0.0296278 0.00881926 0.0163254)
(0.0166501 0.000941458 0.0422643)
(-0.00104525 -0.0111011 0.0700484)
(-0.0143206 -0.0253604 0.0790478)
(-0.0227493 -0.0300975 0.066234)
(-0.0228743 -0.0277127 0.0421379)
(-0.00102276 -0.0250096 0.0236453)
(0.0249691 -0.0132919 0.000824367)
(0.0334136 0.00181056 -0.00974923)
(0.0303972 0.00205163 -0.00249453)
(0.0218678 0.00230905 -0.00288701)
(0.0143978 -0.0047097 -0.0128508)
(0.0156836 -0.00407121 -0.0192407)
(0.0239338 -0.00354077 -0.0202029)
(0.0384412 -0.00326769 -0.0228258)
(0.0498567 -0.0127457 -0.015692)
(0.0603997 -0.0250641 -0.00900922)
(0.0654531 -0.0443071 -0.000174606)
(0.0453152 -0.0649618 0.0111482)
(-0.0115764 -0.136183 0.0191998)
(-0.0608357 -0.162929 0.0266319)
(-0.0887161 -0.159072 0.0250289)
(-0.105019 -0.156686 -0.0159855)
(-0.12062 -0.0911704 -0.0461048)
(-0.111214 0.0148554 0.0435042)
(-0.102184 -0.0105616 0.0866923)
(0.0248548 0.0211134 0.00414098)
(0.02864 0.0166653 0.00439146)
(0.020371 0.00958883 0.00045255)
(0.0185438 0.00999508 0.000740409)
(0.00903992 0.00244284 0.00123969)
(0.00527264 0.00291984 0.00213698)
(0.00240481 0.000761596 0.00403548)
(0.0019167 0.00252193 0.00433749)
(0.000531371 0.0013701 0.00435473)
(-0.000316547 0.00204815 0.0042234)
(-0.000781833 0.00188114 0.00430164)
(-0.00028131 0.00254734 0.00465517)
(4.24797e-05 0.00275963 0.00494955)
(0.000526873 0.00307116 0.00517523)
(0.000740338 0.00288481 0.00521999)
(0.000934218 0.00267194 0.00524976)
(0.00101731 0.00223815 0.00524583)
(0.00108528 0.00183887 0.00525214)
(0.00110631 0.00140299 0.0052435)
(0.00109899 0.00101501 0.00523573)
(0.00104351 0.000649463 0.00522963)
(0.000956524 0.000320678 0.00523859)
(0.000838016 3.23556e-05 0.00526038)
(0.000696616 -0.000201019 0.00528749)
(0.000539069 -0.000381056 0.00532069)
(0.000377093 -0.000509278 0.00536065)
(0.000224861 -0.000594993 0.00540261)
(9.24543e-05 -0.000652851 0.00544724)
(-3.11879e-05 -0.000697028 0.00550119)
(-0.000158481 -0.000736202 0.00556353)
(-0.000274957 -0.000769297 0.00562807)
(-0.000368234 -0.000793086 0.00568524)
(-0.000432123 -0.000799428 0.0057241)
(-0.000447753 -0.000774503 0.00573735)
(-0.000398967 -0.00070642 0.00572544)
(-0.000311757 -0.000600316 0.00570116)
(-0.000229008 -0.000451606 0.00566673)
(-0.000236522 -0.000181308 0.00558575)
(-0.000431512 0.000385506 0.00538131)
(-0.000605546 0.00117774 0.00490321)
(-8.12589e-05 0.00157068 0.00410039)
(0.00116614 0.000658098 0.00326394)
(0.0015248 -0.000998296 0.00232512)
(0.00115502 -0.00159605 0.00144708)
(0.00195391 -9.9297e-05 0.00114658)
(0.00429025 0.00149409 0.00236373)
(0.00681096 0.00335898 0.00524273)
(0.00751121 0.00231413 0.00679912)
(0.00768362 0.00505472 0.00600112)
(0.0349705 -0.022156 0.0102391)
(0.0695306 -0.0358484 0.00325015)
(0.0629148 -0.040699 0.000183123)
(0.0556448 -0.0579776 0.0189166)
(0.0380787 -0.115635 0.0168403)
(-0.00304554 -0.111571 0.00942633)
(-0.0449048 -0.154352 0.0129649)
(-0.112579 -0.0727499 0.0247567)
(-0.0988458 -0.198234 0.0787223)
(-0.201772 0.0772123 -0.0748091)
(0.0419823 -0.189532 0.00293119)
(0.144132 -0.18295 0.174125)
(0.07873 0.0185545 0.0753963)
(0.0411504 -0.0820078 0.0301122)
(0.0217439 -0.0105302 -0.0266272)
(0.00826152 0.042409 -0.00711727)
(0.0197414 0.0576108 0.00411223)
(0.0213661 0.0662947 0.00594806)
(0.0181271 0.0685128 0.0170569)
(0.0155003 0.0582873 0.0248938)
(0.00758508 0.0439123 0.0258017)
(-0.0107977 0.0336041 0.0298192)
(-0.035527 0.0256573 0.0302482)
(-0.0491875 0.0196558 0.0569903)
(-0.0539053 0.00346017 0.0576098)
(-0.0527235 -0.00357318 0.0425936)
(-0.0373419 -0.00139926 0.0139999)
(-0.00125912 0.0138474 -0.0158557)
(0.0293209 0.0499436 -0.0242616)
(0.0404575 0.0824131 -0.0175825)
(0.0467454 0.0851015 -0.0126713)
(0.0502257 0.0841111 -0.0167474)
(0.05097 0.071972 -0.0173147)
(0.0522761 0.057001 -0.0146872)
(0.0578304 0.0406918 -0.0167663)
(0.0649914 0.0257947 -0.0159228)
(0.0686117 0.0132755 -0.00729978)
(0.0707989 0.0060831 0.00124935)
(0.0718434 -0.000441264 0.00636826)
(0.0574403 -0.00330652 0.00696782)
(0.00346239 -0.047417 0.0172794)
(-0.0588518 -0.0900514 0.0237918)
(-0.10401 -0.117988 0.00195157)
(-0.14149 -0.101449 -0.0514977)
(-0.155317 -0.023129 -0.0394534)
(-0.131043 0.0309095 0.0573117)
(-0.125418 0.00155948 0.085439)
(0.0248522 0.0213074 0.00400232)
(0.0302393 0.020284 0.00491366)
(0.0225197 0.0121805 0.000850584)
(0.0231661 0.0135005 0.000560459)
(0.0137679 0.00560401 -0.00127045)
(0.00793953 0.00553812 -0.000451927)
(0.00187255 0.0005805 0.00271129)
(0.000587942 0.00281965 0.00351857)
(-0.000767458 0.00105964 0.00377468)
(-0.00159943 0.00150703 0.00391584)
(-0.00240666 0.000860958 0.00405933)
(-0.00230816 0.00145621 0.00446875)
(-0.00224898 0.00182046 0.00470356)
(-0.00173305 0.00240633 0.00494432)
(-0.00149036 0.0024347 0.00497772)
(-0.00128441 0.00236901 0.00504808)
(-0.00124185 0.00204792 0.00509461)
(-0.00125757 0.00176004 0.00515209)
(-0.00132097 0.00143475 0.00517176)
(-0.00139437 0.00113745 0.00516593)
(-0.00148135 0.000829265 0.0051357)
(-0.00158183 0.000519164 0.00510184)
(-0.00169633 0.000220373 0.0050712)
(-0.00182488 -4.65327e-05 0.00504958)
(-0.00196959 -0.000274569 0.00503765)
(-0.00212135 -0.000457654 0.00503071)
(-0.00225333 -0.000597543 0.00503111)
(-0.00236029 -0.000703965 0.00503861)
(-0.00245725 -0.000777143 0.00505157)
(-0.00256245 -0.000817188 0.00507485)
(-0.00266628 -0.000823798 0.00510012)
(-0.00274833 -0.000793536 0.00511563)
(-0.00279797 -0.000714263 0.00510813)
(-0.00279474 -0.000564835 0.00506713)
(-0.00272778 -0.00031724 0.00500031)
(-0.00262933 6.2087e-05 0.00492316)
(-0.00258816 0.00058827 0.00481859)
(-0.00271455 0.00126146 0.00464751)
(-0.00290269 0.0020641 0.00438064)
(-0.00250634 0.00266345 0.00397319)
(-0.000857792 0.00231135 0.00347331)
(0.000898891 0.000575064 0.00291939)
(0.000961555 -0.00161243 0.00216539)
(0.000167709 -0.00355971 0.00137862)
(0.00120018 -0.00454603 0.00129878)
(0.00342627 -0.0058316 0.00304058)
(0.00504023 -0.00605064 0.00550544)
(0.00561852 -0.00819449 0.00735563)
(0.0137088 -0.00886125 0.00637113)
(0.0421678 -0.0304341 0.0108268)
(0.0647409 -0.029939 0.00625733)
(0.0669145 -0.035433 0.00697341)
(0.0602261 -0.0450404 0.0167967)
(0.051338 -0.0889693 0.005228)
(0.00393764 -0.0896926 0.0186044)
(-0.0150014 -0.158752 0.0223004)
(-0.105548 -0.0519653 0.0591101)
(-0.0583259 -0.211956 0.114868)
(-0.172694 0.121562 -0.0761917)
(-0.0149272 -0.229802 -0.000446421)
(0.112826 -0.157514 0.188832)
(0.0611798 0.0321257 0.08363)
(0.0255824 -0.0624637 0.0703543)
(-0.00116015 0.012945 -0.00920648)
(-0.0106603 0.0463011 -0.00218817)
(0.00886926 0.0728422 0.0116684)
(0.0113946 0.0812641 0.0123147)
(0.0127575 0.0813759 0.0136439)
(0.0139853 0.066963 0.013677)
(0.000965445 0.0489905 0.00790138)
(-0.0179631 0.0304185 0.00442692)
(-0.0405318 0.0117703 0.00222056)
(-0.0628764 0.00780235 0.0133889)
(-0.0638294 0.00845544 0.0226948)
(-0.0478885 0.0156281 0.0199203)
(-0.0151903 0.0257523 -0.0013114)
(0.0142664 0.0359475 -0.0313226)
(0.0257825 0.0800433 -0.0427538)
(0.0496436 0.104017 -0.0160484)
(0.0614423 0.104126 -0.00378377)
(0.0637607 0.096275 0.00281353)
(0.0617119 0.0803534 0.00209733)
(0.0606291 0.0610973 -0.00468735)
(0.0692083 0.0458006 -0.0164271)
(0.0708833 0.0363274 -0.0221633)
(0.0653507 0.0270349 -0.0122763)
(0.059124 0.0201104 0.00667047)
(0.0570973 0.0240201 0.0127092)
(0.0561116 0.0288536 0.00435215)
(0.00640795 0.0346419 -0.00438216)
(-0.0681589 0.0109285 -0.0136687)
(-0.123419 -0.00107431 -0.0330419)
(-0.157258 0.0151271 -0.0439906)
(-0.148809 0.0451994 0.00750277)
(-0.129164 0.0359484 0.0649409)
(-0.139152 0.0118696 0.0833352)
(0.0234997 0.0205458 0.00379732)
(0.0312846 0.0243792 0.00629936)
(0.023394 0.0143283 0.00246647)
(0.0252969 0.0158252 0.00240936)
(0.018844 0.00664191 -0.00126569)
(0.0134141 0.00724957 -0.00197066)
(0.00274868 -0.000325665 0.000460407)
(-0.000591879 0.00267429 0.00193283)
(-0.00148429 0.000458553 0.00267576)
(-0.00252736 0.00111501 0.00318934)
(-0.00334517 5.42756e-05 0.00333926)
(-0.00339315 0.000702749 0.00381384)
(-0.00337024 0.00112425 0.0040435)
(-0.00265804 0.00192237 0.00445498)
(-0.00217518 0.00196229 0.00465928)
(-0.00186892 0.00190816 0.00489937)
(-0.00182545 0.00159613 0.00506622)
(-0.00193343 0.00137065 0.00518663)
(-0.00208081 0.00115927 0.00522382)
(-0.00221677 0.00100069 0.00519939)
(-0.00234347 0.000830892 0.00511594)
(-0.00247294 0.000639461 0.00500048)
(-0.00261849 0.000430177 0.00487618)
(-0.00276736 0.000220761 0.00475483)
(-0.00290812 2.85581e-05 0.00464458)
(-0.00303262 -0.00012787 0.00454294)
(-0.00312727 -0.000258963 0.00444945)
(-0.00319928 -0.000374134 0.00437044)
(-0.0032756 -0.000467977 0.00431131)
(-0.0033582 -0.000523749 0.00428198)
(-0.00343805 -0.000516992 0.00427243)
(-0.00350498 -0.000430212 0.00425705)
(-0.00356696 -0.000246193 0.00420751)
(-0.00362107 5.38832e-05 0.00410434)
(-0.00368145 0.000483344 0.0039359)
(-0.00376706 0.00106113 0.00370229)
(-0.00384269 0.00174963 0.00343204)
(-0.00384881 0.0024385 0.0031761)
(-0.00359612 0.00287363 0.00304152)
(-0.00252537 0.00269434 0.00316944)
(-0.000324478 0.00183197 0.00368306)
(0.00140625 0.000493064 0.00428842)
(0.00145323 -0.00157844 0.00423657)
(0.000811008 -0.0046105 0.00371205)
(0.00177118 -0.00776267 0.00390803)
(0.00309729 -0.010873 0.00580649)
(0.00434631 -0.0136848 0.0070096)
(0.00519892 -0.017414 0.00667517)
(0.013801 -0.0213982 0.00558719)
(0.0416458 -0.0322826 0.0149888)
(0.0541332 -0.0257436 0.010808)
(0.0457428 -0.0118872 0.00718246)
(0.045973 0.0155355 -0.0125709)
(0.0438444 -0.00370902 -0.00685745)
(0.0335188 0.0324796 0.0527135)
(0.0432716 -0.139045 0.0605302)
(-0.161238 0.0638081 0.0987128)
(-0.0259625 -0.23883 0.137687)
(-0.164455 0.322982 -0.0573909)
(0.00785613 -0.304136 0.0285942)
(0.0145637 -0.137921 0.170749)
(0.0161029 0.0518442 0.0480835)
(-0.00928925 -0.051071 0.076762)
(-0.0378595 0.0437892 -0.00875548)
(-0.0372676 0.0436046 0.0111925)
(-0.0158415 0.0770926 0.0251612)
(0.00412834 0.0873125 0.034226)
(0.0193776 0.0903634 0.0327982)
(0.027536 0.0819602 0.0325322)
(0.0237025 0.0706578 0.0292607)
(0.00603545 0.0503583 0.0252445)
(-0.0353453 0.0222897 0.0147235)
(-0.0580918 0.0157911 0.00826038)
(-0.0499574 0.0278424 0.00741725)
(-0.0312051 0.048084 -0.00152593)
(-0.00509742 0.0812904 -0.0351226)
(0.0196388 0.128741 -0.014958)
(0.0297043 0.129319 0.0107698)
(0.0441669 0.126283 0.0136764)
(0.0507885 0.126774 0.0187587)
(0.0559866 0.111425 0.0272875)
(0.0551983 0.0972498 0.0240227)
(0.0605973 0.0722072 0.00266942)
(0.0703383 0.0550835 -0.0126671)
(0.0695911 0.0464184 -0.0309601)
(0.0618793 0.0489667 -0.040815)
(0.0382304 0.0314456 -0.00553078)
(0.0307547 0.0281335 0.0111511)
(0.0225799 0.038118 0.00399482)
(0.00511694 0.0620005 -0.00405157)
(-0.0417317 0.06153 -0.00492666)
(-0.0914957 0.062159 -0.0133229)
(-0.125193 0.0608296 -0.00452676)
(-0.119749 0.0547888 0.0382811)
(-0.122892 0.0361399 0.0663242)
(-0.141311 0.014626 0.0793123)
(0.0206263 0.0187805 0.00433729)
(0.0316995 0.0284528 0.00886964)
(0.0230509 0.016407 0.00506452)
(0.0251867 0.0182501 0.00535755)
(0.0210315 0.00652433 0.00126654)
(0.0176946 0.00716627 0.00037026)
(0.00457996 -0.00200394 -0.000807057)
(-0.00114879 0.00229115 0.000620051)
(-0.00282961 -0.000194919 0.00173736)
(-0.00372881 0.0010543 0.00258161)
(-0.00494762 -0.000147877 0.00256617)
(-0.005636 0.000472403 0.00323821)
(-0.00595745 0.000624365 0.0035744)
(-0.00506551 0.00130875 0.00437086)
(-0.00443748 0.00117771 0.00490652)
(-0.00415889 0.00113291 0.00538371)
(-0.00426292 0.000882896 0.00567032)
(-0.00458812 0.000784203 0.00582589)
(-0.0049281 0.000736689 0.00584404)
(-0.00518298 0.000763954 0.00577529)
(-0.00534644 0.000792369 0.0056213)
(-0.00545749 0.000802352 0.00542033)
(-0.00554534 0.000782893 0.0052039)
(-0.00562443 0.00073042 0.00498857)
(-0.00572684 0.000668632 0.00480913)
(-0.00580512 0.000619575 0.00465803)
(-0.00581812 0.000564814 0.0045309)
(-0.00579521 0.000490535 0.00444732)
(-0.0057803 0.000405429 0.00441125)
(-0.00581714 0.000344623 0.00441643)
(-0.00590345 0.000365355 0.00444085)
(-0.00600605 0.000496695 0.0044457)
(-0.00611604 0.000744183 0.00440199)
(-0.00620937 0.0010908 0.00427654)
(-0.0062709 0.00150899 0.00406031)
(-0.00629849 0.00193958 0.00375618)
(-0.00625326 0.00233318 0.00339626)
(-0.00606546 0.00248544 0.00313684)
(-0.00546496 0.00227551 0.00314848)
(-0.00413868 0.0015671 0.00374137)
(-0.00256158 0.00061506 0.00498298)
(-0.00157816 -0.000167537 0.00647461)
(-0.00151881 -0.00146681 0.00705312)
(-0.00108011 -0.00449629 0.00715408)
(0.00037368 -0.00922964 0.00760245)
(0.00167657 -0.0147659 0.00880221)
(0.00342905 -0.0193354 0.00856182)
(0.00655879 -0.0235157 0.00558006)
(0.0150704 -0.0323718 0.00752797)
(0.0325035 -0.0335533 0.0198715)
(0.0287829 -0.0253337 0.02331)
(0.00858163 0.0126229 0.0149055)
(0.0329749 0.0459325 -0.00374937)
(0.0292604 0.0767053 0.00760005)
(0.0201113 0.0989998 0.0578274)
(-0.0239502 0.070632 0.104455)
(-0.132329 0.229414 0.163752)
(-0.0558523 -0.27047 0.106377)
(-0.0921979 0.396034 -0.0980266)
(-0.0286799 -0.31602 0.040255)
(-0.038462 -0.155033 0.15491)
(0.00564995 0.0747167 0.0207032)
(-0.0232641 -0.0363066 0.0472883)
(-0.0505769 0.0787286 -0.013413)
(-0.0370896 0.071866 0.0157537)
(-0.0129127 0.107351 0.0309668)
(0.0122828 0.108011 0.0352469)
(0.0260041 0.114331 0.0286395)
(0.0361088 0.111985 0.0285702)
(0.0400863 0.116159 0.0275347)
(0.0373011 0.112375 0.0269844)
(0.00384492 0.0894534 0.0248589)
(-0.0346491 0.0588347 0.0214933)
(-0.0518233 0.0686964 -0.00860409)
(-0.0542494 0.0971671 -0.0388891)
(-0.0209241 0.155933 -0.0210542)
(0.0164524 0.166866 0.0207771)
(0.0401982 0.152445 0.0330887)
(0.0495524 0.150429 0.0440905)
(0.0533578 0.133927 0.0548257)
(0.0618886 0.119486 0.056732)
(0.0713945 0.100462 0.0546232)
(0.0846464 0.0767089 0.0418866)
(0.0960564 0.0638827 0.0239745)
(0.0908236 0.0644798 -0.0183412)
(0.0693056 0.0667482 -0.0531306)
(0.0393066 0.0698631 -0.0485342)
(0.0207254 0.050979 0.00411227)
(0.00684069 0.0391763 0.011566)
(-0.0207074 0.0461307 -0.00675021)
(-0.0421521 0.0563389 -0.00361101)
(-0.0717919 0.0558126 -0.00187732)
(-0.0928108 0.0506989 0.00888466)
(-0.0998773 0.0418881 0.0411637)
(-0.119751 0.0313352 0.0632535)
(-0.148336 0.00925796 0.0722465)
(0.0183967 0.0131639 0.00421814)
(0.0305568 0.0313018 0.0105971)
(0.0217656 0.0181253 0.00559896)
(0.0248186 0.0224007 0.00565411)
(0.0219485 0.00797871 0.00242166)
(0.0190945 0.00706601 0.00262565)
(0.0056726 -0.00405108 -0.00180235)
(-0.00314207 0.00132963 -0.0006519)
(-0.00337805 -0.00197515 0.00226445)
(-0.0046422 0.00107806 0.00321201)
(-0.00519758 -0.000305028 0.00323737)
(-0.00553969 0.000525566 0.00407962)
(-0.00559185 -9.58529e-05 0.00468717)
(-0.00451134 0.000175152 0.00577079)
(-0.00390268 -0.000108999 0.00652374)
(-0.00368488 5.28786e-05 0.0072446)
(-0.00387501 9.97586e-05 0.00767617)
(-0.00424926 0.000329851 0.00790548)
(-0.00459596 0.000538158 0.00795499)
(-0.00483663 0.000805428 0.00789155)
(-0.0049955 0.00105222 0.00772019)
(-0.005107 0.00123982 0.00748132)
(-0.00518886 0.0013637 0.00721629)
(-0.00524802 0.00143214 0.00695835)
(-0.00530925 0.00144392 0.00671961)
(-0.00534611 0.00141321 0.00651418)
(-0.00532635 0.00136149 0.00636344)
(-0.00526589 0.00129259 0.00626443)
(-0.00522293 0.00120904 0.00621242)
(-0.00525721 0.00114834 0.00619224)
(-0.00537472 0.00118719 0.00617823)
(-0.00552647 0.00134004 0.00612895)
(-0.00569128 0.00158938 0.00602255)
(-0.00583709 0.00189451 0.00583781)
(-0.00595624 0.00217712 0.00555903)
(-0.00601001 0.0023566 0.00522918)
(-0.00586896 0.00229703 0.00493101)
(-0.00537898 0.0018438 0.00480945)
(-0.00442506 0.000904259 0.00508824)
(-0.00296798 -0.000488228 0.00605084)
(-0.00161315 -0.00200685 0.00777535)
(-0.00133889 -0.00229133 0.00989762)
(-0.00131295 -0.00271763 0.0110085)
(6.52968e-05 -0.0051896 0.0116769)
(0.00259427 -0.0106951 0.0125665)
(0.00419938 -0.0178497 0.0126748)
(0.00396379 -0.0227133 0.00752994)
(0.00986274 -0.0267712 0.00464182)
(0.0180413 -0.0363612 0.00996407)
(0.0209365 -0.0329349 0.023227)
(-0.000383963 -0.0249456 0.0290164)
(-0.0157262 -0.0132718 0.0384252)
(0.00582939 0.0188675 0.0276548)
(-0.00311184 0.0741378 0.0335311)
(-0.0224556 0.110985 0.0580435)
(-0.018256 0.0753423 0.089004)
(-0.00661455 0.229053 0.17352)
(-0.0540175 -0.323663 0.183371)
(0.0149256 0.318423 -0.0735306)
(-0.00833551 -0.277675 0.0331364)
(-0.117583 -0.163975 0.137489)
(-0.0493188 0.101468 -0.0193791)
(-0.0713427 -0.0142351 0.000704999)
(-0.065273 0.099798 -0.025548)
(-0.0558551 0.0792669 0.00126271)
(-0.0258769 0.100491 0.0110845)
(0.000489206 0.0868369 0.00167604)
(0.020966 0.0969607 0.00085019)
(0.0308876 0.117016 0.0101221)
(0.0407494 0.141509 0.0141701)
(0.0404043 0.159417 -0.00171371)
(0.0164565 0.181966 -0.0249074)
(-0.021882 0.181988 -0.0234197)
(-0.0386684 0.177312 -0.0199792)
(-0.04116 0.174249 -0.00500761)
(-0.0102328 0.168504 0.0302878)
(0.0186029 0.156992 0.04026)
(0.0281379 0.146468 0.0508821)
(0.0369248 0.141536 0.0685306)
(0.0486818 0.12549 0.0688417)
(0.0639748 0.110893 0.0688005)
(0.0852116 0.0949753 0.0595966)
(0.10305 0.0690185 0.0534097)
(0.107607 0.0596048 0.0385218)
(0.108792 0.0586389 0.00892481)
(0.0892401 0.0659358 -0.0448072)
(0.0335334 0.0849343 -0.0683665)
(0.000887657 0.0977704 -0.0512066)
(-0.00873719 0.0868392 -0.0199635)
(-0.0315988 0.0704385 -0.018486)
(-0.052755 0.0736395 -0.00961915)
(-0.0661668 0.0721296 0.00541115)
(-0.0793422 0.0712005 0.0197986)
(-0.0961935 0.0589217 0.0445864)
(-0.121775 0.0477222 0.0656531)
(-0.145135 0.0107242 0.0703187)
(0.0112346 0.00396155 0.000779284)
(0.0269425 0.0319632 0.00999017)
(0.019264 0.0195409 0.00360581)
(0.0238221 0.027361 0.00330816)
(0.0228309 0.0118699 0.00139265)
(0.020836 0.00916951 0.00269912)
(0.00728329 -0.00494505 -0.0051068)
(-0.00242622 4.34864e-07 -0.00520565)
(-0.00643216 -0.00248533 -0.00143493)
(-0.0079039 0.00117135 0.000397615)
(-0.00796197 -0.000481836 0.000624418)
(-0.00830616 0.00033699 0.00138858)
(-0.00834387 -0.000791514 0.00198566)
(-0.00782635 -0.000650435 0.00282481)
(-0.00769249 -0.00087332 0.00346282)
(-0.00783513 -0.000488546 0.00413987)
(-0.00820402 -0.000243175 0.00470717)
(-0.00864962 0.000165787 0.00512157)
(-0.00906367 0.000492368 0.00535678)
(-0.00938101 0.000842331 0.005451)
(-0.00947102 0.00115378 0.00541485)
(-0.00944042 0.00140905 0.00529512)
(-0.00936372 0.00160554 0.00513673)
(-0.0092555 0.0017335 0.00497672)
(-0.00914283 0.00179489 0.00482272)
(-0.00901624 0.00180183 0.00468318)
(-0.00885978 0.00177967 0.00457041)
(-0.00869661 0.00175208 0.00448954)
(-0.00858197 0.0017225 0.00444126)
(-0.00860661 0.00171688 0.00441494)
(-0.00877473 0.00178981 0.00439245)
(-0.00895083 0.00193798 0.00433693)
(-0.00910526 0.00214599 0.00422521)
(-0.00915442 0.00235767 0.00404332)
(-0.0090526 0.00248135 0.00380111)
(-0.00875965 0.00242327 0.00355164)
(-0.00817075 0.00209158 0.00338575)
(-0.00741885 0.0013287 0.00337646)
(-0.00625575 5.25141e-05 0.00373201)
(-0.004919 -0.00145526 0.00462368)
(-0.00461296 -0.00282064 0.00623419)
(-0.00601636 -0.00319483 0.00811974)
(-0.00592304 -0.00396222 0.00932901)
(-0.00337844 -0.0065198 0.0100638)
(0.000571388 -0.0125542 0.0112408)
(0.00183821 -0.0197924 0.00990755)
(0.0013212 -0.0234075 0.00143644)
(0.0105881 -0.0245585 0.00021695)
(0.0127956 -0.0323273 0.00300553)
(0.0023406 -0.03408 0.0210502)
(-0.0173827 -0.0270094 0.030008)
(-0.0290953 -0.0268346 0.0290862)
(-0.0328257 0.0134232 0.0167845)
(-0.0348512 0.0708393 0.0298703)
(-0.0434233 0.106085 0.0364674)
(0.0174823 0.0699109 0.0453854)
(0.131083 0.190794 0.0677842)
(0.0545417 -0.253381 0.147106)
(-0.00915278 0.180218 0.0196886)
(-0.0519643 -0.205311 0.0288139)
(-0.159952 -0.210905 0.127344)
(-0.0964555 0.101705 -0.00615229)
(-0.0888781 -0.0460412 -0.00132063)
(-0.0663335 0.0975791 -0.0214347)
(-0.0481236 0.0536403 0.0121562)
(-0.00103047 0.0610097 0.0222947)
(0.0202209 0.0169248 0.0132419)
(0.0221933 0.0105842 -0.00373202)
(0.0110289 -0.00634359 -0.0100792)
(0.00272746 -0.00559049 -0.0086997)
(0.00119887 0.00942496 -0.00649956)
(-0.000398856 0.0421377 -0.0298324)
(-0.00938054 0.105728 -0.0322665)
(-0.0267272 0.123845 -0.0124711)
(-0.0308306 0.121225 -0.000507619)
(-0.00529835 0.0982204 0.0176348)