/*--------------------------------*- C++ -*----------------------------------*\
| =========                 |                                                 |
| \\      /  F ield         | OpenFOAM: The Open Source CFD Toolbox           |
|  \\    /   O peration     | Version:  2.3.0                                 |
|   \\  /    A nd           | Web:      www.OpenFOAM.org                      |
|    \\/     M anipulation  |                                                 |
\*---------------------------------------------------------------------------*/
FoamFile
{
    version     2.0;
    format      ascii;
    class       volScalarField;
    location    "54";
    object      alpha.air;
}
// * * * * * * * * * * * * * * * * * * * * * * * * * * * * * * * * * * * * * //

dimensions      [0 0 0 0 0 0 0];

internalField   nonuniform List<scalar> 
6144
(
0.999996
0.999996
0.999995
0.999995
0.999994
0.999993
0.999992
0.999991
0.99999
0.99999
0.99999
0.99999
0.99999
0.99999
0.99999
0.99999
0.99999
0.99999
0.99999
0.99999
0.99999
0.99999
0.99999
0.99999
0.99999
0.99999
0.99999
0.99999
0.99999
0.99999
0.99999
0.99999
0.99999
0.99999
0.99999
0.99999
0.99999
0.99999
0.99999
0.99999
0.99999
0.99999
0.99999
0.999989
0.999986
0.999982
0.999975
0.999963
0.999943
0.99992
0.999911
0.999884
0.999879
0.999877
0.999876
0.999874
0.999873
0.99987
0.998841
0.934729
0.0312675
0.000166644
7.00635e-07
4.68069e-07
4.70529e-07
4.77501e-07
4.93986e-07
5.11388e-07
5.28055e-07
5.32178e-07
5.30205e-07
5.25538e-07
5.20527e-07
5.14511e-07
5.07948e-07
5.01518e-07
4.9595e-07
4.90967e-07
4.84918e-07
4.80227e-07
4.79072e-07
4.78151e-07
4.77116e-07
4.76521e-07
4.76526e-07
4.78344e-07
4.79591e-07
4.79591e-07
4.83267e-07
4.85398e-07
4.80336e-07
4.69872e-07
4.64468e-07
4.6681e-07
4.57545e-07
3.75278e-07
0.999997
0.999996
0.999995
0.999995
0.999994
0.999993
0.999992
0.999991
0.99999
0.99999
0.99999
0.99999
0.99999
0.99999
0.99999
0.99999
0.99999
0.99999
0.99999
0.99999
0.99999
0.99999
0.99999
0.99999
0.99999
0.99999
0.99999
0.99999
0.99999
0.99999
0.99999
0.99999
0.99999
0.99999
0.99999
0.99999
0.99999
0.99999
0.99999
0.99999
0.99999
0.99999
0.99999
0.999989
0.999987
0.999984
0.999978
0.999969
0.999959
0.999946
0.999913
0.999876
0.999879
0.999881
0.99988
0.999876
0.999876
0.999866
0.999302
0.942649
0.0293624
9.89838e-05
4.66364e-07
4.81851e-07
5.18926e-07
5.87291e-07
5.72646e-07
5.5528e-07
5.45251e-07
5.34513e-07
5.29743e-07
5.37405e-07
5.41941e-07
5.35977e-07
5.34517e-07
5.44161e-07
5.64522e-07
5.82256e-07
5.81377e-07
5.75653e-07
5.65462e-07
5.51899e-07
5.36825e-07
5.15351e-07
4.8806e-07
4.78648e-07
4.77526e-07
4.78245e-07
4.72084e-07
4.46587e-07
4.31733e-07
4.29907e-07
4.32172e-07
4.47873e-07
4.52403e-07
3.69673e-07
0.999997
0.999996
0.999995
0.999995
0.999994
0.999993
0.999992
0.999991
0.999991
0.99999
0.99999
0.99999
0.99999
0.99999
0.99999
0.99999
0.99999
0.99999
0.99999
0.99999
0.99999
0.99999
0.99999
0.99999
0.99999
0.99999
0.99999
0.99999
0.99999
0.99999
0.99999
0.99999
0.99999
0.99999
0.99999
0.99999
0.99999
0.99999
0.99999
0.99999
0.99999
0.99999
0.99999
0.999989
0.999987
0.999984
0.999979
0.999972
0.999962
0.99995
0.999891
0.999868
0.999881
0.999884
0.999879
0.999873
0.999876
0.999866
0.999362
0.933676
0.0235645
6.37105e-05
4.66365e-07
8.0926e-07
7.34203e-07
7.13313e-07
5.32524e-07
5.20995e-07
5.20995e-07
5.20995e-07
5.47604e-07
5.73583e-07
5.87603e-07
5.84278e-07
5.73676e-07
5.62777e-07
5.60221e-07
5.5827e-07
5.55622e-07
5.50292e-07
5.41027e-07
5.26742e-07
5.10927e-07
4.95108e-07
4.75151e-07
4.57919e-07
4.42011e-07
4.39964e-07
4.57026e-07
4.68361e-07
4.66762e-07
4.59645e-07
4.54165e-07
4.589e-07
4.44247e-07
3.58979e-07
0.999997
0.999997
0.999996
0.999995
0.999994
0.999993
0.999992
0.999991
0.999991
0.99999
0.99999
0.99999
0.99999
0.99999
0.99999
0.99999
0.99999
0.99999
0.99999
0.99999
0.99999
0.99999
0.99999
0.99999
0.99999
0.99999
0.99999
0.99999
0.99999
0.99999
0.99999
0.99999
0.99999
0.99999
0.99999
0.99999
0.99999
0.99999
0.99999
0.99999
0.99999
0.99999
0.999989
0.999988
0.999986
0.999982
0.999977
0.99997
0.999959
0.999931
0.999874
0.999866
0.99988
0.99988
0.999878
0.999873
0.999878
0.999865
0.999418
0.890158
0.00736571
4.30814e-05
2.78351e-05
2.36966e-05
1.96691e-05
1.45404e-05
1.02367e-05
5.4028e-06
2.59896e-06
1.04918e-06
5.41617e-07
5.41617e-07
6.00707e-07
6.49223e-07
6.34162e-07
6.13587e-07
5.99571e-07
5.82182e-07
5.50539e-07
5.11127e-07
5.29658e-07
6.07817e-07
4.67998e-07
4.14312e-07
4.00435e-07
3.93664e-07
4.1294e-07
4.57101e-07
4.79522e-07
4.8682e-07
4.87819e-07
4.88455e-07
4.80479e-07
4.79039e-07
4.44641e-07
3.518e-07
0.999997
0.999997
0.999996
0.999995
0.999994
0.999993
0.999992
0.999991
0.999991
0.99999
0.99999
0.99999
0.99999
0.99999
0.99999
0.99999
0.99999
0.99999
0.99999
0.99999
0.99999
0.99999
0.99999
0.99999
0.99999
0.99999
0.99999
0.99999
0.99999
0.99999
0.99999
0.99999
0.99999
0.99999
0.99999
0.99999
0.99999
0.99999
0.99999
0.99999
0.99999
0.99999
0.999989
0.999988
0.999985
0.99998
0.999974
0.999967
0.999954
0.99991
0.999863
0.99986
0.999875
0.999877
0.999877
0.999873
0.999876
0.999852
0.999327
0.850322
0.00663195
0.000794185
0.000763206
0.00073126
0.00073832
0.000650711
0.000585677
0.000429861
0.000291623
0.000160376
6.68072e-05
2.27799e-05
8.76129e-06
6.0051e-06
4.81679e-06
4.73049e-06
6.95297e-06
8.28378e-06
7.95007e-06
6.59372e-06
4.45021e-06
2.11424e-06
1.05569e-06
5.87151e-07
3.86216e-07
3.34632e-07
3.82425e-07
4.4535e-07
4.69026e-07
4.89194e-07
4.90629e-07
4.91728e-07
4.8935e-07
4.84117e-07
4.34684e-07
3.3885e-07
0.999997
0.999997
0.999996
0.999996
0.999995
0.999994
0.999993
0.999992
0.999991
0.999991
0.99999
0.99999
0.99999
0.99999
0.99999
0.99999
0.99999
0.99999
0.99999
0.99999
0.99999
0.99999
0.99999
0.99999
0.99999
0.99999
0.99999
0.99999
0.99999
0.99999
0.99999
0.99999
0.99999
0.99999
0.99999
0.99999
0.99999
0.99999
0.99999
0.99999
0.99999
0.99999
0.999989
0.999987
0.999984
0.999978
0.999971
0.999963
0.999945
0.999894
0.999856
0.999848
0.999864
0.999871
0.999871
0.999867
0.999866
0.999774
0.999215
0.847574
0.0225408
0.00411504
0.00421432
0.00392215
0.00413981
0.00401454
0.00383901
0.00348098
0.00305208
0.00257004
0.00202495
0.00149638
0.00111327
0.000924274
0.000860579
0.000892635
0.000979259
0.00100034
0.000901836
0.000818699
0.000628186
0.00042183
0.000255448
0.000130676
5.50545e-05
1.81838e-05
4.60753e-06
1.0517e-06
3.06938e-07
3.06937e-07
3.06937e-07
3.06937e-07
3.06937e-07
3.06937e-07
3.06937e-07
3.06937e-07
0.999997
0.999997
0.999997
0.999996
0.999995
0.999994
0.999993
0.999992
0.999991
0.999991
0.99999
0.99999
0.99999
0.99999
0.99999
0.99999
0.99999
0.99999
0.99999
0.99999
0.99999
0.99999
0.99999
0.99999
0.99999
0.99999
0.99999
0.99999
0.99999
0.99999
0.99999
0.99999
0.99999
0.99999
0.99999
0.99999
0.99999
0.99999
0.99999
0.99999
0.99999
0.99999
0.999989
0.999987
0.999983
0.999976
0.999967
0.999958
0.999932
0.999882
0.999851
0.999835
0.999835
0.999845
0.999848
0.999845
0.999852
0.999637
0.999088
0.837079
0.0364729
0.00822298
0.00808041
0.00707
0.0070747
0.00673212
0.0065736
0.00637134
0.00626445
0.00617765
0.00607985
0.0059147
0.00579423
0.00569904
0.00563728
0.00566745
0.00583044
0.00602889
0.0061801
0.00614753
0.00578533
0.00517096
0.00446739
0.0036691
0.00280975
0.00199157
0.00123674
0.000653998
0.000284307
0.000113488
8.36677e-05
9.06989e-05
0.000132351
0.000165483
0.000188737
0.000152598
0.999997
0.999997
0.999997
0.999996
0.999995
0.999994
0.999993
0.999992
0.999991
0.999991
0.99999
0.99999
0.99999
0.99999
0.99999
0.99999
0.99999
0.99999
0.99999
0.99999
0.99999
0.99999
0.99999
0.99999
0.99999
0.99999
0.99999
0.99999
0.99999
0.99999
0.99999
0.99999
0.99999
0.99999
0.99999
0.99999
0.99999
0.99999
0.99999
0.99999
0.99999
0.99999
0.999989
0.999987
0.999981
0.999972
0.999962
0.999952
0.999911
0.999872
0.999851
0.999835
0.99982
0.999809
0.9998
0.999791
0.999812
0.999637
0.999181
0.869116
0.0329312
0.00773197
0.00756525
0.00668354
0.00648354
0.00623199
0.00623228
0.00629388
0.00647824
0.00672434
0.00703751
0.00733234
0.00758534
0.00775328
0.00785827
0.00796625
0.00831164
0.00886201
0.00953772
0.0101379
0.0106197
0.0109243
0.0111387
0.0113064
0.0114308
0.0114751
0.011335
0.0112564
0.0112
0.0109238
0.0103264
0.010323
0.0108567
0.0112396
0.0109319
0.00970497
0.999997
0.999997
0.999997
0.999997
0.999996
0.999995
0.999993
0.999993
0.999992
0.999991
0.99999
0.99999
0.99999
0.99999
0.99999
0.99999
0.99999
0.99999
0.99999
0.99999
0.99999
0.99999
0.99999
0.99999
0.99999
0.99999
0.99999
0.99999
0.99999
0.99999
0.99999
0.99999
0.99999
0.99999
0.99999
0.99999
0.99999
0.99999
0.99999
0.99999
0.99999
0.99999
0.999989
0.999986
0.999979
0.999969
0.999961
0.99995
0.999914
0.999878
0.999862
0.999845
0.999831
0.999827
0.999833
0.999864
0.999887
0.999678
0.999604
0.906906
0.029102
0.00371098
0.00316086
0.00211364
0.00135494
0.000974174
0.000853973
0.000979257
0.00111221
0.00130229
0.0015247
0.00171601
0.00184503
0.00192653
0.0019982
0.00211433
0.00220224
0.00233208
0.00254493
0.00277142
0.00307543
0.00340624
0.00374057
0.00408392
0.00438102
0.00466424
0.00495989
0.00532848
0.00554631
0.00563237
0.00516187
0.00466434
0.00369302
0.00247117
0.0011363
0.000428717
0.999998
0.999997
0.999997
0.999997
0.999996
0.999995
0.999993
0.999993
0.999992
0.999991
0.99999
0.99999
0.99999
0.99999
0.99999
0.99999
0.99999
0.99999
0.99999
0.99999
0.99999
0.99999
0.99999
0.99999
0.99999
0.99999
0.99999
0.99999
0.99999
0.99999
0.99999
0.99999
0.99999
0.99999
0.99999
0.99999
0.99999
0.99999
0.99999
0.99999
0.99999
0.99999
0.999989
0.999985
0.999976
0.999967
0.99996
0.999951
0.999931
0.999892
0.999875
0.999869
0.999866
0.999872
0.999877
0.999877
0.999887
0.999868
0.999751
0.939682
0.0238983
0.000633928
0.000373411
0.00013721
3.39845e-05
6.73174e-06
1.50245e-06
4.74732e-06
9.20276e-06
1.57801e-05
2.54511e-05
3.70086e-05
5.03779e-05
6.44141e-05
7.78985e-05
9.1647e-05
0.000106949
0.000123369
0.000141815
0.00016453
0.000190125
0.000218523
0.000252624
0.000299567
0.000361877
0.000431134
0.000489249
0.000528774
0.000546232
0.000548971
0.000458712
0.000309829
0.000148438
5.0409e-05
9.36925e-06
1.60832e-06
0.999998
0.999998
0.999997
0.999997
0.999996
0.999995
0.999993
0.999992
0.999992
0.999991
0.99999
0.99999
0.99999
0.99999
0.99999
0.99999
0.99999
0.99999
0.99999
0.99999
0.99999
0.99999
0.99999
0.99999
0.99999
0.99999
0.99999
0.99999
0.99999
0.99999
0.99999
0.99999
0.99999
0.99999
0.99999
0.99999
0.99999
0.99999
0.99999
0.99999
0.99999
0.99999
0.999989
0.999984
0.999975
0.999968
0.99996
0.99995
0.999938
0.999917
0.999887
0.999879
0.99988
0.99988
0.99988
0.999877
0.999887
0.999876
0.999779
0.966091
0.0292308
0.000108424
7.34274e-06
1.51825e-06
5.01343e-07
5.013e-07
5.01269e-07
5.01285e-07
5.01317e-07
5.01355e-07
5.01393e-07
5.01431e-07
5.0147e-07
5.01509e-07
5.0155e-07
5.01577e-07
5.01606e-07
5.01616e-07
5.01626e-07
6.03993e-07
8.13042e-07
1.23122e-06
2.84783e-06
2.68174e-06
2.46977e-06
4.15165e-06
5.55799e-06
6.00767e-06
5.42115e-06
4.44445e-06
2.85108e-06
1.49939e-06
8.40607e-07
5.65728e-07
4.40783e-07
4.11701e-07
0.999998
0.999998
0.999998
0.999998
0.999997
0.999995
0.999993
0.999992
0.999992
0.999991
0.99999
0.99999
0.99999
0.99999
0.99999
0.99999
0.99999
0.99999
0.99999
0.99999
0.99999
0.99999
0.99999
0.99999
0.99999
0.99999
0.99999
0.99999
0.99999
0.99999
0.99999
0.99999
0.99999
0.99999
0.99999
0.99999
0.99999
0.99999
0.99999
0.99999
0.99999
0.99999
0.999989
0.999985
0.999976
0.999969
0.999962
0.999948
0.999936
0.999923
0.999899
0.999886
0.999883
0.99988
0.99988
0.999881
0.999893
0.999869
0.999752
0.979569
0.044478
0.000232713
9.00433e-07
5.02095e-07
5.02013e-07
5.11017e-07
5.6029e-07
5.72215e-07
5.64823e-07
5.67003e-07
5.83556e-07
6.0877e-07
6.321e-07
6.49673e-07
6.59619e-07
6.71046e-07
6.79456e-07
6.37337e-07
5.52938e-07
6.03684e-07
6.24349e-07
6.30248e-07
6.34545e-07
6.21415e-07
6.10091e-07
6.16981e-07
6.32002e-07
6.53011e-07
6.82302e-07
6.8871e-07
6.83925e-07
6.62631e-07
6.25548e-07
5.85805e-07
5.48519e-07
4.49753e-07
0.999998
0.999998
0.999998
0.999998
0.999997
0.999996
0.999994
0.999992
0.999991
0.999991
0.99999
0.99999
0.99999
0.99999
0.99999
0.99999
0.99999
0.99999
0.99999
0.99999
0.99999
0.99999
0.99999
0.99999
0.99999
0.99999
0.99999
0.99999
0.99999
0.99999
0.99999
0.99999
0.99999
0.99999
0.99999
0.99999
0.99999
0.99999
0.99999
0.99999
0.99999
0.99999
0.999989
0.999986
0.999979
0.999973
0.999965
0.999949
0.999934
0.999924
0.999914
0.999899
0.999892
0.999886
0.99989
0.999892
0.999897
0.999849
0.999593
0.977639
0.0605546
0.000452481
1.36042e-06
5.02177e-07
5.02095e-07
5.09468e-07
5.26409e-07
5.30102e-07
5.36638e-07
5.4871e-07
5.74479e-07
5.98807e-07
6.12887e-07
6.22267e-07
6.2799e-07
6.30987e-07
6.34518e-07
6.39482e-07
6.42172e-07
6.42216e-07
6.4201e-07
6.29919e-07
6.23537e-07
6.26467e-07
6.23651e-07
6.16825e-07
6.12679e-07
6.02048e-07
6.0373e-07
6.10992e-07
6.21844e-07
6.29648e-07
6.28568e-07
6.21929e-07
5.78924e-07
4.17643e-07
0.999998
0.999998
0.999998
0.999998
0.999998
0.999997
0.999995
0.999993
0.999991
0.999991
0.99999
0.99999
0.99999
0.99999
0.99999
0.99999
0.99999
0.99999
0.99999
0.99999
0.99999
0.99999
0.99999
0.99999
0.99999
0.99999
0.99999
0.99999
0.99999
0.99999
0.99999
0.99999
0.99999
0.99999
0.99999
0.99999
0.99999
0.99999
0.99999
0.99999
0.99999
0.99999
0.999989
0.999987
0.999982
0.999976
0.999967
0.999952
0.999935
0.999922
0.999918
0.999912
0.999906
0.999904
0.999906
0.999897
0.999897
0.999855
0.999586
0.976812
0.0947703
0.00126201
4.08486e-06
5.02257e-07
5.02687e-07
5.03915e-07
5.06896e-07
5.1716e-07
5.32745e-07
5.48101e-07
5.64302e-07
5.8462e-07
6.05615e-07
6.173e-07
6.20774e-07
6.23171e-07
6.26564e-07
6.32886e-07
6.40504e-07
6.40405e-07
6.39693e-07
6.37567e-07
6.31978e-07
6.23838e-07
6.18002e-07
6.19535e-07
6.20408e-07
6.19599e-07
6.15345e-07
6.16521e-07
6.24715e-07
6.23646e-07
6.1913e-07
6.21148e-07
5.82678e-07
4.33938e-07
0.999998
0.999997
0.999997
0.999997
0.999998
0.999997
0.999996
0.999994
0.999991
0.99999
0.99999
0.99999
0.99999
0.99999
0.99999
0.99999
0.99999
0.99999
0.99999
0.99999
0.99999
0.99999
0.99999
0.99999
0.99999
0.99999
0.99999
0.99999
0.99999
0.99999
0.99999
0.99999
0.99999
0.99999
0.99999
0.99999
0.99999
0.99999
0.99999
0.99999
0.99999
0.99999
0.999989
0.999988
0.999985
0.999979
0.999971
0.999958
0.999941
0.99992
0.999916
0.999912
0.999911
0.999906
0.999906
0.999894
0.999893
0.999875
0.999831
0.962583
0.0994581
0.000997558
2.60491e-06
5.02338e-07
5.03151e-07
5.0377e-07
5.06468e-07
5.15714e-07
5.25612e-07
5.32685e-07
5.40554e-07
5.52605e-07
5.69161e-07
5.86553e-07
6.0478e-07
6.20285e-07
6.31302e-07
6.39939e-07
6.48384e-07
6.49773e-07
6.49514e-07
6.45852e-07
6.3536e-07
6.22266e-07
6.09864e-07
6.00015e-07
6.03323e-07
6.11413e-07
6.14903e-07
6.17132e-07
6.26186e-07
6.29166e-07
6.24235e-07
6.24452e-07
6.00574e-07
4.84739e-07
0.999998
0.999998
0.999998
0.999997
0.999997
0.999997
0.999996
0.999994
0.999991
0.99999
0.99999
0.99999
0.99999
0.99999
0.99999
0.99999
0.99999
0.99999
0.99999
0.99999
0.99999
0.99999
0.99999
0.99999
0.99999
0.99999
0.99999
0.99999
0.99999
0.99999
0.99999
0.99999
0.99999
0.99999
0.99999
0.99999
0.99999
0.99999
0.99999
0.99999
0.99999
0.99999
0.999989
0.999988
0.999986
0.999983
0.999976
0.999966
0.999949
0.999922
0.999909
0.999903
0.999902
0.999897
0.999897
0.999888
0.999893
0.999874
0.999874
0.952662
0.0817529
0.000495382
9.77171e-07
5.02415e-07
5.05542e-07
5.04522e-07
5.04532e-07
5.06005e-07
5.10937e-07
5.20251e-07
5.30779e-07
5.4091e-07
5.54341e-07
5.73073e-07
5.92522e-07
6.08723e-07
6.2164e-07
6.33061e-07
6.44388e-07
6.54482e-07
6.53263e-07
6.43146e-07
6.25886e-07
6.08755e-07
5.87091e-07
5.70788e-07
5.74593e-07
5.88109e-07
6.03367e-07
6.12757e-07
6.19518e-07
6.3022e-07
6.2935e-07
6.28149e-07
6.09571e-07
4.99644e-07
0.999997
0.999996
0.999995
0.999995
0.999994
0.999993
0.999992
0.999991
0.99999
0.99999
0.99999
0.99999
0.99999
0.99999
0.99999
0.99999
0.99999
0.99999
0.99999
0.99999
0.99999
0.99999
0.99999
0.99999
0.99999
0.99999
0.99999
0.99999
0.99999
0.99999
0.99999
0.99999
0.99999
0.99999
0.99999
0.99999
0.99999
0.99999
0.99999
0.99999
0.99999
0.99999
0.99999
0.999989
0.999986
0.999982
0.999975
0.999962
0.99994
0.999914
0.999905
0.99988
0.999877
0.999875
0.999874
0.999871
0.999872
0.999864
0.999516
0.937317
0.0238248
5.25502e-05
4.66364e-07
4.72067e-07
4.717e-07
4.73074e-07
4.82659e-07
4.9704e-07
5.10763e-07
5.14262e-07
5.13649e-07
5.11041e-07
5.06466e-07
5.00901e-07
4.96748e-07
4.94788e-07
4.91471e-07
4.90521e-07
4.91127e-07
4.92855e-07
4.96005e-07
4.99267e-07
4.98648e-07
4.95523e-07
4.91064e-07
4.8498e-07
4.78425e-07
4.78817e-07
4.78274e-07
4.76112e-07
4.7579e-07
4.76178e-07
4.72825e-07
4.72785e-07
4.64373e-07
4.00201e-07
0.999997
0.999996
0.999995
0.999994
0.999993
0.999993
0.999992
0.999991
0.999991
0.99999
0.99999
0.99999
0.99999
0.99999
0.99999
0.99999
0.99999
0.99999
0.99999
0.99999
0.99999
0.99999
0.99999
0.99999
0.99999
0.99999
0.99999
0.99999
0.99999
0.99999
0.99999
0.99999
0.99999
0.99999
0.99999
0.99999
0.99999
0.99999
0.99999
0.99999
0.99999
0.99999
0.99999
0.999989
0.999987
0.999982
0.999976
0.999967
0.999955
0.999939
0.99991
0.999875
0.999876
0.999875
0.999873
0.99987
0.999874
0.999855
0.999684
0.908077
0.0106301
6.15205e-06
4.66363e-07
4.79252e-07
5.11014e-07
5.71433e-07
5.72143e-07
5.66326e-07
5.58523e-07
5.49348e-07
5.49886e-07
5.49961e-07
5.48501e-07
5.51079e-07
5.70956e-07
6.17721e-07
6.2233e-07
6.15418e-07
6.00241e-07
5.8157e-07
5.71734e-07
5.63014e-07
5.49761e-07
5.2993e-07
5.06261e-07
4.85135e-07
4.76288e-07
4.76879e-07
4.76076e-07
4.72747e-07
4.72921e-07
4.73816e-07
4.68275e-07
4.67976e-07
4.62995e-07
3.96714e-07
0.999998
0.999997
0.999995
0.999994
0.999993
0.999993
0.999992
0.999991
0.999991
0.999991
0.99999
0.99999
0.99999
0.99999
0.99999
0.99999
0.99999
0.99999
0.99999
0.99999
0.99999
0.99999
0.99999
0.99999
0.99999
0.99999
0.99999
0.99999
0.99999
0.99999
0.99999
0.99999
0.99999
0.99999
0.99999
0.99999
0.99999
0.99999
0.99999
0.99999
0.99999
0.99999
0.999989
0.999988
0.999985
0.999981
0.999975
0.99997
0.999961
0.999945
0.999895
0.999865
0.999872
0.999873
0.999871
0.999868
0.999874
0.999857
0.999701
0.890788
0.0129935
9.6136e-07
9.6951e-07
5.13245e-07
8.71351e-07
6.68937e-07
5.2629e-07
5.20996e-07
5.26691e-07
5.5083e-07
6.05937e-07
6.327e-07
5.89353e-07
5.6389e-07
5.61686e-07
5.76566e-07
5.89761e-07
5.95446e-07
5.91749e-07
5.75828e-07
5.56074e-07
5.33651e-07
5.11515e-07
4.94679e-07
4.8384e-07
4.74365e-07
4.66837e-07
4.63176e-07
4.67594e-07
4.75579e-07
4.78379e-07
4.784e-07
4.77575e-07
4.80363e-07
4.65156e-07
3.82322e-07
0.999998
0.999998
0.999996
0.999995
0.999994
0.999993
0.999993
0.999992
0.999991
0.999991
0.99999
0.99999
0.99999
0.99999
0.99999
0.99999
0.99999
0.99999
0.99999
0.99999
0.99999
0.99999
0.99999
0.99999
0.99999
0.99999
0.99999
0.99999
0.99999
0.99999
0.99999
0.99999
0.99999
0.99999
0.99999
0.99999
0.99999
0.99999
0.99999
0.99999
0.99999
0.99999
0.999989
0.999987
0.999983
0.999978
0.999973
0.999968
0.99996
0.99993
0.999878
0.999859
0.999869
0.999869
0.999871
0.99987
0.999877
0.999847
0.999702
0.823196
0.00215693
5.91979e-05
4.50791e-05
2.4519e-05
1.57814e-05
7.84675e-06
4.01977e-06
2.03817e-06
1.36729e-06
1.24687e-06
7.68492e-07
8.6494e-07
1.23704e-06
8.22168e-07
7.48322e-07
9.44476e-07
8.74148e-07
7.43964e-07
6.38471e-07
5.29228e-07
5.35985e-07
6.0146e-07
4.82865e-07
4.33856e-07
4.29945e-07
4.36531e-07
4.52558e-07
4.6671e-07
4.73407e-07
4.79677e-07
4.82448e-07
4.88248e-07
4.94351e-07
4.98203e-07
4.74508e-07
3.76093e-07
0.999998
0.999998
0.999997
0.999996
0.999995
0.999994
0.999993
0.999992
0.999991
0.999991
0.99999
0.99999
0.99999
0.99999
0.99999
0.99999
0.99999
0.99999
0.99999
0.99999
0.99999
0.99999
0.99999
0.99999
0.99999
0.99999
0.99999
0.99999
0.99999
0.99999
0.99999
0.99999
0.99999
0.99999
0.99999
0.99999
0.99999
0.99999
0.99999
0.99999
0.99999
0.99999
0.999989
0.999986
0.999981
0.999976
0.999971
0.999966
0.999955
0.999912
0.999866
0.999855
0.99986
0.999867
0.999875
0.999867
0.999854
0.999805
0.999692
0.722507
0.00501609
0.00225992
0.00206245
0.00176275
0.00152532
0.00119623
0.000904224
0.000628852
0.000395822
0.00024697
0.000156738
0.000126533
0.000107449
8.08475e-05
5.94723e-05
4.52083e-05
3.13202e-05
2.13601e-05
1.62511e-05
1.01849e-05
5.93343e-06
2.65446e-06
1.05657e-06
6.62116e-07
6.87134e-07
5.90926e-07
5.32333e-07
5.12781e-07
5.07487e-07
5.10206e-07
5.02513e-07
4.94638e-07
4.98936e-07
4.99017e-07
4.81113e-07
3.77181e-07
0.999998
0.999998
0.999997
0.999996
0.999995
0.999994
0.999993
0.999992
0.999991
0.999991
0.99999
0.99999
0.99999
0.99999
0.99999
0.99999
0.99999
0.99999
0.99999
0.99999
0.99999
0.99999
0.99999
0.99999
0.99999
0.99999
0.99999
0.99999
0.99999
0.99999
0.99999
0.99999
0.99999
0.99999
0.99999
0.99999
0.99999
0.99999
0.99999
0.99999
0.99999
0.99999
0.999988
0.999985
0.99998
0.999975
0.999969
0.999963
0.999951
0.999898
0.999861
0.999851
0.999854
0.999859
0.99986
0.999849
0.999833
0.999823
0.999834
0.678413
0.0213412
0.0146142
0.0148244
0.0148923
0.0141331
0.0134215
0.012564
0.0116153
0.01041
0.0090653
0.00765749
0.00635952
0.00521779
0.00437381
0.00381098
0.00353332
0.00333061
0.00310838
0.0027924
0.0022409
0.00162491
0.00103405
0.00055369
0.000244494
0.000100365
3.31633e-05
9.78995e-06
3.86589e-06
1.43967e-06
9.44368e-07
3.06937e-07
3.93873e-07
4.31205e-07
4.64649e-07
4.4436e-07
3.54575e-07
0.999998
0.999998
0.999998
0.999997
0.999995
0.999994
0.999993
0.999992
0.999991
0.999991
0.99999
0.99999
0.99999
0.99999
0.99999
0.99999
0.99999
0.99999
0.99999
0.99999
0.99999
0.99999
0.99999
0.99999
0.99999
0.99999
0.99999
0.99999
0.99999
0.99999
0.99999
0.99999
0.99999
0.99999
0.99999
0.99999
0.99999
0.99999
0.99999
0.99999
0.99999
0.99999
0.999989
0.999985
0.999981
0.999975
0.999967
0.999961
0.999942
0.999886
0.999862
0.999848
0.999828
0.999822
0.999822
0.999817
0.99981
0.999799
0.999785
0.609585
0.0346784
0.0271897
0.0279603
0.0283738
0.0284163
0.0284685
0.0285394
0.0292514
0.0295925
0.0297524
0.0297467
0.0286822
0.0276467
0.0269887
0.0268241
0.0270564
0.0281776
0.0291416
0.0297497
0.0293164
0.0267671
0.0237141
0.0199641
0.0160077
0.0122358
0.00846183
0.00547233
0.00358522
0.00241364
0.00218997
0.00272462
0.00316886
0.003651
0.00442705
0.00575661
0.0072456
0.999998
0.999999
0.999998
0.999997
0.999996
0.999995
0.999993
0.999992
0.999991
0.999991
0.99999
0.99999
0.99999
0.99999
0.99999
0.99999
0.99999
0.99999
0.99999
0.99999
0.99999
0.99999
0.99999
0.99999
0.99999
0.99999
0.99999
0.99999
0.99999
0.99999
0.99999
0.99999
0.99999
0.99999
0.99999
0.99999
0.99999
0.99999
0.99999
0.99999
0.99999
0.99999
0.999989
0.999986
0.999981
0.999975
0.999966
0.999953
0.999924
0.999874
0.999866
0.999855
0.999829
0.999807
0.999794
0.999782
0.999753
0.999651
0.999559
0.759034
0.0365294
0.0205679
0.0207297
0.0204499
0.0214599
0.0227168
0.0245916
0.0262549
0.0285865
0.0306413
0.0325525
0.0339439
0.0353432
0.0371149
0.040068
0.0442996
0.0498948
0.055916
0.0614709
0.0659165
0.0698154
0.0732149
0.0765491
0.0803121
0.0843425
0.0883359
0.0919747
0.0950744
0.0983617
0.102527
0.108781
0.116044
0.124501
0.138357
0.179953
0.375443
0.999998
0.999999
0.999998
0.999998
0.999997
0.999995
0.999994
0.999992
0.999991
0.999991
0.99999
0.99999
0.99999
0.99999
0.99999
0.99999
0.99999
0.99999
0.99999
0.99999
0.99999
0.99999
0.99999
0.99999
0.99999
0.99999
0.99999
0.99999
0.99999
0.99999
0.99999
0.99999
0.99999
0.99999
0.99999
0.99999
0.99999
0.99999
0.99999
0.99999
0.99999
0.99999
0.999989
0.999986
0.999982
0.999976
0.999965
0.99995
0.999932
0.999899
0.999869
0.999866
0.999854
0.999845
0.999856
0.999869
0.999883
0.999866
0.999831
0.865345
0.0210309
0.00236263
0.00164358
0.000931259
0.00100834
0.00105891
0.00104965
0.00130403
0.00146767
0.00151779
0.00150001
0.0015854
0.00175357
0.001844
0.00187941
0.00191321
0.00217133
0.00243333
0.0028268
0.00345887
0.0042795
0.00533771
0.00679357
0.00892203
0.0119747
0.0158377
0.0196351
0.0235072
0.0277322
0.0316144
0.0341867
0.035164
0.0315833
0.0273884
0.0226873
0.018625
0.999998
0.999999
0.999999
0.999998
0.999998
0.999996
0.999994
0.999992
0.999991
0.999991
0.99999
0.99999
0.99999
0.99999
0.99999
0.99999
0.99999
0.99999
0.99999
0.99999
0.99999
0.99999
0.99999
0.99999
0.99999
0.99999
0.99999
0.99999
0.99999
0.99999
0.99999
0.99999
0.99999
0.99999
0.99999
0.99999
0.99999
0.99999
0.99999
0.99999
0.99999
0.99999
0.999989
0.999987
0.999983
0.999977
0.999966
0.99995
0.999936
0.999925
0.999888
0.999873
0.999871
0.999871
0.999874
0.999874
0.999881
0.999867
0.999874
0.909654
0.0105857
3.78168e-05
3.19784e-05
1.63744e-05
1.60635e-05
1.84483e-05
2.0235e-05
2.34513e-05
2.67749e-05
2.92892e-05
3.13028e-05
3.62847e-05
4.55391e-05
5.71171e-05
6.77257e-05
7.45273e-05
7.69136e-05
7.66774e-05
8.7841e-05
0.000130742
0.000187608
0.000241687
0.000303686
0.000398777
0.000552793
0.000743136
0.000890112
0.000958493
0.00090856
0.000686942
0.000500572
0.000421185
0.000204481
7.60078e-05
5.21243e-07
4.6434e-07
0.999998
0.999999
0.999999
0.999999
0.999998
0.999997
0.999994
0.999992
0.999991
0.999991
0.99999
0.99999
0.99999
0.99999
0.99999
0.99999
0.99999
0.99999
0.99999
0.99999
0.99999
0.99999
0.99999
0.99999
0.99999
0.99999
0.99999
0.99999
0.99999
0.99999
0.99999
0.99999
0.99999
0.99999
0.99999
0.99999
0.99999
0.99999
0.99999
0.99999
0.99999
0.99999
0.999989
0.999987
0.999984
0.999979
0.999969
0.999953
0.999936
0.999925
0.999911
0.999892
0.999884
0.999877
0.999878
0.999877
0.999881
0.999867
0.999868
0.961903
0.0402161
5.97727e-07
1.09358e-06
5.35019e-07
8.39989e-07
8.32587e-07
7.33702e-07
6.61291e-07
7.1716e-07
8.4326e-07
9.33821e-07
8.77581e-07
6.58187e-07
5.06304e-07
5.0158e-07
5.01608e-07
1.032e-06
1.56633e-06
7.0472e-07
5.58713e-07
6.61923e-07
2.53511e-06
4.10837e-06
3.61361e-06
4.19122e-06
6.12497e-06
6.46001e-06
5.16614e-06
3.47542e-06
1.9304e-06
1.45465e-06
1.20369e-06
6.81146e-07
6.73673e-07
5.36628e-07
4.0702e-07
0.999998
0.999999
0.999999
0.999999
0.999999
0.999997
0.999995
0.999993
0.999991
0.999991
0.99999
0.99999
0.99999
0.99999
0.99999
0.99999
0.99999
0.99999
0.99999
0.99999
0.99999
0.99999
0.99999
0.99999
0.99999
0.99999
0.99999
0.99999
0.99999
0.99999
0.99999
0.99999
0.99999
0.99999
0.99999
0.99999
0.99999
0.99999
0.99999
0.99999
0.99999
0.99999
0.999989
0.999988
0.999985
0.999981
0.999972
0.999958
0.999939
0.999922
0.999921
0.999913
0.999902
0.999892
0.99989
0.999885
0.999887
0.999861
0.999811
0.978095
0.0293243
5.97726e-07
9.58152e-07
5.3695e-07
6.57557e-07
6.93219e-07
6.93794e-07
6.76353e-07
6.44028e-07
6.70345e-07
7.01005e-07
6.88999e-07
6.80714e-07
6.77253e-07
6.75711e-07
6.83747e-07
6.84423e-07
6.41234e-07
5.5454e-07
6.04353e-07
6.26257e-07
6.27086e-07
6.27191e-07
6.10093e-07
6.10092e-07
6.11708e-07
6.11925e-07
6.0233e-07
6.38054e-07
6.59157e-07
6.41528e-07
6.33739e-07
6.37296e-07
6.16209e-07
5.71846e-07
4.44769e-07
0.999998
0.999999
0.999999
0.999999
0.999999
0.999998
0.999996
0.999993
0.999991
0.999991
0.99999
0.99999
0.99999
0.99999
0.99999
0.99999
0.99999
0.99999
0.99999
0.99999
0.99999
0.99999
0.99999
0.99999
0.99999
0.99999
0.99999
0.99999
0.99999
0.99999
0.99999
0.99999
0.99999
0.99999
0.99999
0.99999
0.99999
0.99999
0.99999
0.99999
0.99999
0.99999
0.999989
0.999988
0.999986
0.999982
0.999976
0.999962
0.999945
0.999923
0.999915
0.999911
0.999908
0.999903
0.999901
0.999891
0.999891
0.999814
0.999669
0.973285
0.0540987
5.97726e-07
9.272e-07
6.58412e-07
5.49647e-07
5.64028e-07
5.84418e-07
6.05476e-07
6.27119e-07
6.60876e-07
7.08916e-07
6.99693e-07
6.83486e-07
6.73831e-07
6.67579e-07
6.64175e-07
6.61477e-07
6.56631e-07
6.52271e-07
6.48739e-07
6.44939e-07
6.37338e-07
6.29615e-07
6.26493e-07
6.21278e-07
6.11771e-07
5.85524e-07
5.56375e-07
5.58677e-07
5.73686e-07
5.88871e-07
6.0746e-07
6.17152e-07
6.16912e-07
5.63378e-07
3.93623e-07
0.999998
0.999998
0.999998
0.999998
0.999999
0.999999
0.999998
0.999995
0.999992
0.999991
0.99999
0.99999
0.99999
0.99999
0.99999
0.99999
0.99999
0.99999
0.99999
0.99999
0.99999
0.99999
0.99999
0.99999
0.99999
0.99999
0.99999
0.99999
0.99999
0.99999
0.99999
0.99999
0.99999
0.99999
0.99999
0.99999
0.99999
0.99999
0.99999
0.99999
0.99999
0.99999
0.999989
0.999988
0.999986
0.999983
0.999978
0.999965
0.999947
0.999926
0.999911
0.999902
0.999903
0.9999
0.9999
0.999892
0.999885
0.999782
0.99943
0.971563
0.0618653
0.000150848
1.21336e-06
5.02338e-07
5.02491e-07
5.06922e-07
5.25623e-07
5.59179e-07
6.03484e-07
6.36968e-07
6.54314e-07
6.54661e-07
6.51112e-07
6.53723e-07
6.57459e-07
6.57675e-07
6.61922e-07
6.63466e-07
6.61378e-07
6.57726e-07
6.51927e-07
6.42414e-07
6.23749e-07
6.03391e-07
6.04623e-07
6.01054e-07
5.7064e-07
5.46701e-07
5.54533e-07
5.56201e-07
5.5521e-07
5.83752e-07
6.05598e-07
6.01178e-07
5.34591e-07
4.04791e-07
0.999998
0.999998
0.999998
0.999998
0.999999
0.999999
0.999998
0.999997
0.999993
0.99999
0.99999
0.99999
0.99999
0.99999
0.99999
0.99999
0.99999
0.99999
0.99999
0.99999
0.99999
0.99999
0.99999
0.99999
0.99999
0.99999
0.99999
0.99999
0.99999
0.99999
0.99999
0.99999
0.99999
0.99999
0.99999
0.99999
0.99999
0.99999
0.99999
0.99999
0.99999
0.99999
0.999989
0.999988
0.999986
0.999983
0.999977
0.999966
0.99995
0.999927
0.999909
0.999898
0.999899
0.999894
0.999895
0.999881
0.999835
0.999809
0.999715
0.943583
0.0425497
6.35014e-05
9.07411e-07
5.65462e-07
5.31088e-07
5.34722e-07
5.4905e-07
5.64904e-07
5.65721e-07
5.71529e-07
5.73104e-07
5.73904e-07
5.80964e-07
6.02366e-07
6.32334e-07
6.50531e-07
6.59623e-07
6.66823e-07
6.67847e-07
6.67514e-07
6.4947e-07
5.90854e-07
5.33288e-07
5.32515e-07
5.56013e-07
5.43754e-07
5.26718e-07
5.2474e-07
5.46603e-07
5.50259e-07
5.38635e-07
5.50209e-07
5.95838e-07
6.01506e-07
5.52759e-07
4.52515e-07
0.999998
0.999998
0.999998
0.999997
0.999998
0.999998
0.999998
0.999997
0.999993
0.99999
0.99999
0.99999
0.99999
0.99999
0.99999
0.99999
0.99999
0.99999
0.99999
0.99999
0.99999
0.99999
0.99999
0.99999
0.99999
0.99999
0.99999
0.99999
0.99999
0.99999
0.99999
0.99999
0.99999
0.99999
0.99999
0.99999
0.99999
0.99999
0.99999
0.99999
0.99999
0.99999
0.999989
0.999988
0.999986
0.999984
0.999978
0.999968
0.999951
0.999925
0.999907
0.999896
0.999896
0.99989
0.999892
0.999884
0.999882
0.999841
0.999822
0.970725
0.0614382
0.000206157
5.25632e-07
5.25505e-07
5.19956e-07
5.16018e-07
5.19443e-07