/*--------------------------------*- C++ -*----------------------------------*\
| =========                 |                                                 |
| \\      /  F ield         | OpenFOAM: The Open Source CFD Toolbox           |
|  \\    /   O peration     | Version:  2.3.0                                 |
|   \\  /    A nd           | Web:      www.OpenFOAM.org                      |
|    \\/     M anipulation  |                                                 |
\*---------------------------------------------------------------------------*/
FoamFile
{
    version     2.0;
    format      ascii;
    class       surfaceScalarField;
    location    "54";
    object      phi;
}
// * * * * * * * * * * * * * * * * * * * * * * * * * * * * * * * * * * * * * //

dimensions      [0 3 -1 0 0 0 0];

internalField   nonuniform List<scalar> 
16448
(
-1.44899e-06
-2.49905e-06
6.01661e-07
3.92299e-07
-2.61353e-06
7.72245e-07
4.38073e-07
-1.22183e-06
1.17606e-06
3.67214e-07
-1.01048e-06
1.08134e-06
-1.12259e-08
-4.98801e-07
8.77241e-07
-1.57814e-07
-6.55217e-07
8.01805e-07
-1.89569e-07
-6.92021e-07
7.23778e-07
-1.8174e-07
-6.77882e-07
6.70055e-07
-2.48352e-07
-5.36761e-07
6.03376e-07
-4.07545e-07
-3.92148e-07
5.51345e-07
-5.98398e-07
-2.92531e-07
4.8339e-07
-6.92483e-07
-2.95435e-07
3.89527e-07
-6.78396e-07
-3.26948e-07
3.12867e-07
-5.68425e-07
-3.70625e-07
2.60659e-07
-4.37622e-07
-3.83796e-07
2.52999e-07
-2.96161e-07
-4.01322e-07
2.59866e-07
-1.67464e-07
-4.13373e-07
2.84682e-07
-5.90464e-08
-4.24829e-07
3.16416e-07
2.17992e-08
-4.34635e-07
3.53796e-07
7.52529e-08
-4.4203e-07
3.88581e-07
1.00361e-07
-4.4501e-07
4.19909e-07
1.02657e-07
-4.48521e-07
4.46229e-07
9.04591e-08
-4.48239e-07
4.60443e-07
7.0463e-08
-4.43133e-07
4.63134e-07
4.67655e-08
-4.32754e-07
4.56457e-07
2.34437e-08
-4.18783e-07
4.4211e-07
4.56453e-09
-4.04061e-07
4.22945e-07
-6.15749e-09
-3.91938e-07
4.02665e-07
-9.3473e-09
-3.79002e-07
3.82197e-07
-8.23095e-09
-3.64607e-07
3.63495e-07
-3.85881e-09
-3.49877e-07
3.45509e-07
5.49947e-09
-3.3597e-07
3.26616e-07
2.26663e-08
-3.23266e-07
3.06103e-07
5.08334e-08
-3.12319e-07
2.84155e-07
9.21302e-08
-3.03453e-07
2.6216e-07
1.43095e-07
-2.95058e-07
2.44096e-07
1.94162e-07
-2.85079e-07
2.34016e-07
2.31349e-07
-2.71756e-07
2.34571e-07
2.2541e-07
-2.48404e-07
2.54346e-07
1.22747e-07
-2.07555e-07
3.1022e-07
-1.40733e-07
-1.53387e-07
4.1687e-07
-5.68616e-07
-1.13049e-07
5.40935e-07
-1.02763e-06
-1.51514e-07
6.10532e-07
-1.34909e-06
-3.82867e-07
7.04329e-07
-1.62004e-06
-6.61299e-07
9.32262e-07
-2.04927e-06
-8.87473e-07
1.31671e-06
-2.31313e-06
-1.41839e-06
1.68226e-06
-2.0593e-06
-2.35465e-06
2.10084e-06
-2.10927e-06
-2.09405e-06
2.14404e-06
-3.24357e-06
-4.83242e-07
1.61755e-06
5.36916e-07
-4.67633e-06
8.95863e-07
9.67723e-06
-1.06073e-05
1.46698e-06
1.65016e-05
-7.79326e-06
9.6886e-07
2.04683e-05
-3.18162e-06
-7.85062e-07
2.09573e-05
2.70449e-06
-3.19347e-06
1.97012e-05
4.26586e-06
-3.00987e-06
1.31127e-05
8.92692e-06
-2.3384e-06
1.31478e-05
6.54154e-06
-6.57681e-06
-7.76415e-06
1.37584e-05
7.15323e-06
-6.44382e-09
-1.41919e-06
-6.33872e-06
2.39463e-05
-1.93923e-05
-4.5604e-06
3.23494e-05
-1.09634e-05
2.56029e-06
3.18187e-05
-5.24837e-06
5.77907e-06
3.24673e-05
-4.40295e-06
3.75437e-06
3.24797e-05
-3.04569e-06
3.03323e-06
3.15226e-05
-2.56388e-06
3.52101e-06
3.10261e-05
-4.68966e-06
5.1861e-06
3.05009e-05
-5.75858e-06
6.28385e-06
2.9945e-05
-6.11904e-06
6.67495e-06
2.975e-05
-6.72987e-06
6.92479e-06
3.03603e-05
-7.29418e-06
6.68387e-06
3.20465e-05
-6.93315e-06
5.24698e-06
3.49157e-05
-6.24888e-06
3.37967e-06
3.74057e-05
-4.6961e-06
2.20608e-06
3.93375e-05
-2.93782e-06
1.00602e-06
4.12107e-05
-2.06565e-06
1.9245e-07
4.26867e-05
-1.40154e-06
-7.44687e-08
4.39554e-05
-9.94488e-07
-2.74201e-07
4.48715e-05
-4.15643e-07
-5.00481e-07
4.57081e-05
-1.92358e-08
-8.17304e-07
4.62604e-05
3.27515e-07
-8.79858e-07
4.6328e-05
4.10472e-07
-4.78091e-07
4.58369e-05
-4.49313e-08
5.36047e-07
4.42203e-05
-8.0967e-08
1.69755e-06
4.01393e-05
1.3964e-06
2.68463e-06
3.34181e-05
1.76802e-06
4.9532e-06
2.50611e-05
2.95019e-06
5.40675e-06
1.70732e-05
4.13641e-06
3.85152e-06
1.15663e-05
2.83548e-06
2.67137e-06
8.33658e-06
1.21517e-06
2.01457e-06
6.16987e-06
8.56439e-07
1.31027e-06
5.34152e-06
4.75411e-07
3.52945e-07
4.76992e-06
8.22587e-07
-2.50993e-07
3.40845e-06
2.06032e-06
-6.98842e-07
9.72545e-07
4.34526e-06
-1.90936e-06
5.69959e-06
-4.72704e-06
-2.20781e-06
-3.58013e-06
-1.13778e-07
-7.80218e-07
-3.91466e-06
-1.26467e-07
-4.06507e-07
-2.30982e-06
7.14274e-07
2.51666e-08
-1.91113e-06
4.68976e-07
9.37421e-08
-8.70206e-07
3.02824e-07
-3.19667e-08
-7.99073e-07
2.69559e-07
-1.50584e-07
-7.35082e-07
1.61674e-07
-2.47598e-07
-6.73517e-07
9.26449e-08
-3.97739e-07
-4.72065e-07
8.54453e-08
-6.0978e-07
-2.97633e-07
1.17527e-07
-8.02055e-07
-2.05303e-07
1.05049e-07
-8.68916e-07
-2.56315e-07
2.77422e-08
-8.37496e-07
-3.20548e-07
-3.78184e-08
-7.25242e-07
-3.92079e-07
-9.08008e-08
-5.88525e-07
-4.15016e-07
-1.05498e-07
-4.39535e-07
-4.41834e-07
-1.08477e-07
-2.99698e-07
-4.57267e-07
-9.59411e-08
-1.7639e-07
-4.70971e-07
-7.7164e-08
-7.74446e-08
-4.80232e-07
-5.33483e-08
-5.04384e-09
-4.85087e-07
-2.93428e-08
3.89025e-08
-4.83056e-07
-5.90005e-09
5.84525e-08
-4.77548e-07
9.47726e-09
6.15974e-08
-4.67736e-07
1.63512e-08
5.3938e-08
-4.52833e-07
1.73587e-08
3.95432e-08
-4.32216e-07
1.38558e-08
2.20565e-08
-4.08241e-07
6.94271e-09
5.29947e-09
-3.84023e-07
-3.28343e-09
-5.7252e-09
-3.62158e-07
-1.87585e-08
-1.04083e-08
-3.40351e-07
-3.39709e-08
-1.02316e-08
-3.16425e-07
-4.8362e-08
-5.08795e-09
-2.92358e-07
-6.26665e-08
7.06325e-09
-2.70746e-07
-7.738e-08
2.88044e-08
-2.52514e-07
-9.2499e-08
6.28626e-08
-2.39861e-07
-1.06522e-07
1.10658e-07
-2.32612e-07
-1.18643e-07
1.6722e-07
-2.26009e-07
-1.25617e-07
2.22663e-07
-2.1545e-07
-1.2508e-07
2.6326e-07
-1.9857e-07
-1.1379e-07
2.60135e-07
-1.63992e-07
-8.12959e-08
1.63428e-07
-9.68097e-08
-1.40465e-08
-3.39698e-08
-2.74138e-08
7.14157e-08
-2.52934e-07
-2.03142e-08
1.26221e-07
-4.26545e-07
-6.78792e-08
8.99684e-08
-6.4136e-07
-2.61434e-07
9.33756e-08
-1.05029e-06
-5.26608e-07
2.74228e-07
-1.62228e-06
-8.86467e-07
5.70984e-07
-2.32797e-06
-1.62374e-06
9.11037e-07
-3.30231e-06
-2.97638e-06
1.59607e-06
-3.7908e-06
-3.46229e-06
1.85673e-06
-1.57041e-06
-4.13296e-06
1.42934e-06
5.19289e-06
-1.20044e-05
5.64719e-07
1.11108e-05
-1.85983e-05
2.07315e-06
1.2061e-05
-9.72901e-06
9.85506e-07
1.23453e-05
-4.19459e-07
-3.04641e-06
1.42051e-05
7.49795e-06
-6.65329e-06
1.61241e-05
8.31778e-06
-5.97097e-06
1.34194e-05
1.57475e-05
-4.11594e-06
1.54535e-05
1.58553e-05
-1.1348e-05
-4.19215e-06
2.44114e-05
8.99213e-06
4.57896e-07
-1.80773e-06
-4.26179e-06
1.72532e-05
-2.70717e-05
-9.11587e-06
1.99965e-05
-1.69325e-05
3.22586e-06
1.7471e-05
-7.87454e-06
5.15169e-06
1.6227e-05
-4.68279e-06
1.52375e-06
1.356e-05
-2.62643e-06
2.24782e-06
1.05393e-05
-4.7047e-06
5.16144e-06
8.34258e-06
-9.07853e-06
6.58562e-06
8.58545e-06
-1.13892e-05
5.38772e-06
9.96397e-06
-1.18738e-05
4.37624e-06
1.18297e-05
-1.23442e-05
3.7486e-06
1.54694e-05
-1.20951e-05
1.1613e-06
1.96943e-05
-1.02578e-05
-9.00255e-07
2.38192e-05
-8.79417e-06
-1.57965e-06
2.74289e-05
-5.71996e-06
-2.58586e-06
3.02141e-05
-2.06479e-06
-3.65822e-06
3.36015e-05
1.94547e-06
-7.39854e-06
3.67638e-05
5.14486e-06
-9.70866e-06
3.86242e-05
6.00302e-06
-8.85788e-06
3.97276e-05
4.73586e-06
-6.25493e-06
4.01922e-05
3.05901e-06
-3.54282e-06
4.06256e-05
7.82436e-07
-8.88371e-07
4.10671e-05
-1.04123e-06
1.01023e-06
4.07395e-05
-2.47872e-06
2.76138e-06
3.68737e-05
-3.19602e-07
4.10439e-06
2.99317e-05
3.80411e-06
4.53428e-06
2.07732e-05
6.5266e-06
4.39998e-06
1.28985e-05
6.61077e-06
4.21411e-06
8.12287e-06
5.85224e-06
3.05976e-06
5.2508e-06
4.30149e-06
1.40606e-06
3.31968e-06
2.11631e-06
1.02998e-06
1.80935e-06
1.65164e-06
7.15129e-07
1.0657e-06
2.26082e-06
-1.04177e-06
5.94182e-07
2.98529e-06
-1.69118e-06
-7.19433e-08
4.65747e-06
-1.93103e-06
-6.06398e-07
7.8411e-06
-2.96139e-06
1.08163e-05
-5.72313e-06
-2.68087e-06
-3.87295e-06
-3.65973e-07
-1.53756e-06
-4.45102e-06
-6.0694e-07
-1.08134e-06
-3.00761e-06
2.41559e-07
-4.18193e-07
-2.6523e-06
7.80178e-08
-1.11056e-07
-1.2045e-06
2.71513e-08
-1.45443e-07
-7.89465e-07
2.47723e-08
-2.68051e-07
-4.84768e-07
-1.27709e-07
-3.6718e-07
-4.09718e-07
-1.64674e-07
-4.80003e-07
-1.8775e-07
-1.71491e-07
-5.9047e-07
-5.28938e-08
-1.3427e-07
-7.03508e-07
2.1198e-08
-1.13461e-07
-7.497e-07
-5.53978e-08
-1.54723e-07
-7.4532e-07
-1.16709e-07
-2.08217e-07
-6.92218e-07
-1.90746e-07
-2.54434e-07
-6.14321e-07
-2.17581e-07
-2.75329e-07
-5.19971e-07
-2.45785e-07
-2.90398e-07
-4.24262e-07
-2.58954e-07
-2.94019e-07
-3.31374e-07
-2.70347e-07
-2.93511e-07
-2.48589e-07
-2.75054e-07
-2.87961e-07
-1.77997e-07
-2.75161e-07
-2.80516e-07
-1.21165e-07
-2.67461e-07
-2.72425e-07
-7.85392e-08
-2.53338e-07
-2.66835e-07
-4.93533e-08
-2.34317e-07
-2.62604e-07
-3.1523e-08
-2.11063e-07
-2.596e-07
-2.23165e-08
-1.83886e-07
-2.57536e-07
-1.87957e-08
-1.54883e-07
-2.5688e-07
-1.85528e-08
-1.26517e-07
-2.5775e-07
-2.04063e-08
-9.99157e-08
-2.60391e-07
-2.2333e-08
-7.39332e-08
-2.64493e-07
-2.26475e-08
-4.64726e-08
-2.69641e-07
-1.9823e-08
-1.99201e-08
-2.75266e-07
-1.32131e-08
3.08034e-09
-2.8044e-07
-4.77958e-09
2.36118e-08
-2.84563e-07
7.14777e-09
3.5871e-08
-2.87664e-07
2.23694e-08
4.01386e-08
-2.87977e-07
3.78104e-08
4.25724e-08
-2.84028e-07
4.70617e-08
4.8338e-08
-2.73044e-07
3.58481e-08
6.15698e-08
-2.48933e-07
-2.04992e-08
9.54e-08
-2.03051e-07
-1.30851e-07
1.47828e-07
-1.34293e-07
-2.08258e-07
1.34435e-07
-8.44477e-08
-1.04376e-07
8.2389e-09
-1.32442e-07
1.59955e-07
-9.84029e-08
-2.33814e-07
3.11277e-07
-1.63116e-07
-2.49647e-07
2.23043e-07
-3.50367e-07
-8.80132e-08
2.11916e-07
-8.96362e-07
2.10165e-08
2.481e-07
-1.79307e-06
1.33148e-07
-2.17769e-07
-3.0797e-06
5.69181e-07
-8.62392e-07
-4.09418e-06
1.27651e-06
1.20003e-06
-7.61311e-06
1.41773e-06
3.98278e-06
-1.66684e-05
1.8813e-06
4.23159e-07
-1.83872e-05
3.34849e-06
-3.72108e-06
-7.65199e-06
2.06724e-06
-4.2831e-06
2.27912e-06
-2.13654e-06
4.14845e-06
7.80688e-06
-8.74047e-06
1.24803e-05
8.00881e-06
-8.02284e-06
1.24373e-05
2.33173e-05
-7.52677e-06
1.90988e-05
2.14717e-05
-1.22782e-05
-5.2019e-06
3.55855e-05
1.31258e-05
8.27007e-07
-6.04047e-06
-1.79654e-06
1.5954e-05
-3.02336e-05
-1.19651e-05
1.57261e-05
-1.5901e-05
-8.03625e-07
1.31907e-05
-5.784e-06
4.44852e-07
1.00723e-05
-3.87025e-06
2.30585e-06
5.04422e-06
-5.06164e-06
7.46332e-06
1.18591e-06
-8.1508e-06
7.3044e-06
-3.43338e-07
-1.15835e-05
4.0342e-06
1.51441e-06
-1.34666e-05
2.19642e-07
4.87509e-06
-1.36944e-05
-1.54012e-06
8.81474e-06
-1.21988e-05
-4.0851e-06
1.27347e-05
-8.12746e-06
-7.88762e-06
1.70462e-05
-4.19974e-06
-1.03695e-05
2.05735e-05
-1.89922e-06
-1.04223e-05
2.39837e-05
-1.29831e-07
-9.0003e-06
2.69357e-05
1.87181e-06
-6.88862e-06
2.96565e-05
4.6661e-06
-5.44146e-06
3.31883e-05
6.04644e-06
-4.43334e-06
3.55495e-05
5.4157e-06
-1.77385e-06
3.66817e-05
2.45144e-06
1.15218e-06
3.73257e-05
-1.40949e-06
3.82448e-06
3.61852e-05
-3.93191e-06
5.85482e-06
3.06323e-05
-2.85348e-06
7.36523e-06
2.01499e-05
-1.29313e-06
9.29674e-06
9.88119e-06
1.67196e-06
8.27716e-06
2.84403e-06
4.93327e-06
5.908e-06
-1.47784e-06
5.80941e-06
5.03905e-06
-3.46026e-06
3.91094e-06
4.68225e-06
-3.74442e-06
2.20099e-06
3.93541e-06
-3.30801e-06
5.73076e-07
3.29201e-06
-3.41589e-06
1.96155e-07
2.02804e-06
-3.23913e-06
2.12803e-06
-6.53147e-07
-2.37153e-06
4.20925e-06
-2.81602e-06
-2.10317e-06
6.06399e-06
-3.34707e-06
-1.65773e-06
8.62009e-06
-4.40805e-06
-1.67534e-06
1.25188e-05
-4.66007e-06
1.55604e-05
-6.41947e-06
-3.09588e-06
-3.93645e-06
-1.51737e-07
-1.99289e-06
-4.73505e-06
-8.1896e-07
-1.66244e-06
-3.44783e-06
1.0977e-07
-9.74383e-07
-3.39175e-06
5.13901e-08
-5.0259e-07
-1.84247e-06
1.66172e-07
-3.35776e-07
-1.04827e-06
9.19815e-08
-3.69804e-07
-3.13607e-07
-1.37139e-07
-3.96134e-07
-1.78103e-07
-2.05286e-07
-3.97709e-07
3.5638e-08
-2.21813e-07
-4.30312e-07
1.6974e-07
-1.90028e-07
-4.92666e-07
2.70796e-07
-1.87242e-07
-5.53249e-07
2.19743e-07
-2.14554e-07
-6.06381e-07
1.84303e-07
-2.47879e-07
-6.09956e-07
1.03423e-07
-2.90591e-07
-5.81081e-07
6.93488e-08
-3.15802e-07
-5.25768e-07
3.93158e-08
-3.40411e-07
-4.60068e-07
3.21239e-08
-3.56776e-07
-3.90627e-07
3.1275e-08
-3.7106e-07
-3.23669e-07
3.80929e-08
-3.80103e-07
-2.61383e-07
4.79189e-08
-3.85362e-07
-2.04822e-07
6.29428e-08
-3.86964e-07
-1.54249e-07
8.19258e-08
-3.85835e-07
-1.1206e-07
1.05108e-07
-3.81614e-07
-7.94141e-08
1.31955e-07
-3.75663e-07
-5.60175e-08
1.62097e-07
-3.6938e-07
-4.11127e-08
1.93865e-07
-3.63652e-07
-3.27493e-08
2.2392e-07
-3.58801e-07
-2.82513e-08
2.51039e-07
-3.55453e-07
-2.60372e-08
2.77929e-07
-3.54078e-07
-2.56243e-08
3.07094e-07
-3.53981e-07
-2.73011e-08
3.36209e-07
-3.54456e-07
-3.25376e-08
3.62585e-07
-3.5427e-07
-4.13472e-08
3.84335e-07
-3.51917e-07
-5.60441e-08
3.98074e-07
-3.4751e-07
-7.6868e-08
4.02716e-07
-3.41758e-07
-1.04437e-07
4.04695e-07
-3.34558e-07
-1.45554e-07
4.11521e-07
-3.22071e-07
-2.19982e-07
4.31242e-07
-2.95248e-07
-3.3695e-07
4.60478e-07
-2.48116e-07
-4.33857e-07
4.45227e-07
-2.00497e-07
-3.56236e-07
2.58186e-07
-2.01379e-07
-2.46749e-08
-1.0355e-09
-3.22292e-07
3.92865e-07
-9.22859e-08
-4.23664e-07
7.26378e-07
-4.14049e-08
-4.55231e-07
1.0733e-06
-2.90657e-07
-4.06641e-07
1.66003e-06
-1.00173e-06
-4.81363e-07
2.21087e-06
-1.99444e-06
-3.49481e-07
1.95811e-06
-3.18065e-06
3.53713e-07
1.01311e-06
-4.69141e-06
1.54223e-06
1.53524e-06
-1.01264e-05
1.99113e-06
-8.79586e-08
-1.7575e-05
2.52983e-06
-7.49891e-06
-1.44282e-05
3.45199e-06
-1.14774e-05
-4.95861e-06
1.28511e-06
-7.30022e-06
1.56959e-06
-3.46758e-06
9.13642e-07
6.22044e-06
-6.6274e-06
2.29755e-06
1.01673e-05
-3.54234e-06
7.41733e-06
2.78917e-05
-9.69396e-06
1.56437e-05
2.21112e-05
-8.86599e-06
-2.36117e-06
3.76859e-05
1.59033e-05
3.0642e-07
-5.52145e-06
-3.1869e-06
9.27284e-06
-2.52359e-05
-1.39641e-05
7.22234e-06
-1.16585e-05
-2.19201e-06
6.75606e-06
-3.0304e-06
-2.28732e-06
-1.54922e-06
2.32737e-06
2.10766e-06
-7.37395e-06
-1.38424e-06
2.14733e-06
-9.14634e-06
-4.53618e-06
-1.84222e-06
-7.50584e-06
-7.57285e-06
-5.65112e-06
-4.69474e-06
-9.61761e-06
-6.66004e-06
-5.17323e-07
-1.10681e-05
-6.80366e-06
4.26763e-06
-1.10938e-05
-5.88999e-06
8.92709e-06
-6.96308e-06
-5.82383e-06
1.26805e-05
-2.16914e-06
-5.78404e-06
1.54766e-05
9.28313e-07
-5.62364e-06
1.9075e-05
1.1249e-06
-4.85313e-06
2.26272e-05
1.67844e-06
-3.35876e-06
2.6115e-05
2.70321e-06
-1.52498e-06
2.91284e-05
2.00452e-06
1.02853e-06
2.93841e-05
2.88889e-07
4.87109e-06
2.72366e-05
-2.0689e-06
6.6679e-06
1.84764e-05
-2.36661e-06
9.71724e-06
7.11509e-06
-3.04392e-06
1.04734e-05
-3.70385e-06
-1.35611e-06
9.32157e-06
-1.11061e-05
-1.70353e-06
7.81263e-06
-1.44809e-05
-2.1275e-06
7.17433e-06
-1.51057e-05
-1.7091e-06
7.26717e-06
-1.39605e-05
-1.82607e-06
6.49021e-06
-1.23007e-05
-2.77441e-06
5.0256e-06
-1.02936e-05
-2.95996e-06
3.1538e-06
-7.14749e-06
-2.75548e-06
1.82466e-07
-4.19621e-06
-1.1626e-06
-1.59252e-06
-1.95834e-06
3.43658e-06
-3.54641e-06
-1.06302e-06
7.77565e-06
-4.46172e-06
-1.38142e-06
1.09179e-05
-4.53555e-06
-1.30812e-06
1.39806e-05
-5.43385e-06
-1.34731e-06
1.79967e-05
-5.43876e-06
2.09045e-05
-6.69139e-06
-3.49047e-06
-3.81248e-06
5.52676e-08
-2.41264e-06
-4.90785e-06
-9.05019e-07
-2.17715e-06
-3.64812e-06
-3.51996e-08
-1.47653e-06
-3.93109e-06
-1.61284e-07
-9.88958e-07
-2.64557e-06
3.15524e-07
-5.20538e-07
-1.73217e-06
2.15477e-07
-3.77984e-07
-3.4108e-07
-1.15082e-07
-3.92669e-07
2.53373e-08
-1.88756e-07
-3.21762e-07
2.14248e-07
-2.49513e-07
-2.99099e-07
3.72721e-07
-2.25642e-07
-3.21525e-07
5.08782e-07
-2.15555e-07
-3.92989e-07
4.99551e-07
-2.08341e-07
-4.84489e-07
4.89721e-07
-2.13912e-07
-5.27781e-07
3.88976e-07
-2.42257e-07
-5.27903e-07
3.33556e-07
-2.64081e-07
-4.93494e-07
2.9557e-07
-2.9066e-07
-4.44489e-07
2.94986e-07
-3.11862e-07
-3.93003e-07
3.12658e-07
-3.32865e-07
-3.42318e-07
3.37777e-07
-3.50364e-07
-2.92194e-07
3.62359e-07
-3.6456e-07
-2.40828e-07
3.87111e-07
-3.7553e-07
-1.89788e-07
4.13088e-07
-3.822e-07
-1.42476e-07
4.41939e-07
-3.84139e-07
-1.01411e-07
4.72604e-07
-3.81712e-07
-6.79223e-08
5.04698e-07
-3.76086e-07
-4.25774e-08
5.36324e-07
-3.67803e-07
-2.41584e-08
5.64142e-07
-3.58638e-07
-1.1682e-08
5.88289e-07
-3.49726e-07
-5.4326e-09
6.12888e-07
-3.41207e-07
-5.50744e-09
6.40351e-07
-3.33182e-07
-1.26477e-08
6.68693e-07
-3.25342e-07
-2.82656e-08
6.95368e-07
-3.17166e-07
-5.57995e-08
7.19958e-07
-3.08089e-07
-1.00231e-07
7.40455e-07
-2.9795e-07
-1.66911e-07
7.56761e-07
-2.87366e-07
-2.59294e-07
7.73733e-07
-2.76657e-07
-3.787e-07
7.93409e-07
-2.62482e-07
-5.24934e-07
8.16779e-07
-2.39304e-07
-6.67628e-07
8.15856e-07
-2.12685e-07
-6.97898e-07
6.92798e-07
-2.17301e-07
-4.83248e-07
3.53821e-07
-3.10287e-07
-7.42277e-08
6.32734e-08
-4.73331e-07
3.40955e-07
1.06948e-07
-6.14419e-07
7.68228e-07
1.82467e-07
-6.51147e-07
1.44872e-06
-2.64368e-07
-7.06778e-07
2.41946e-06
-1.13344e-06
-8.39037e-07
3.14859e-06
-2.16713e-06
-5.56431e-07
2.76829e-06
-3.26088e-06
4.60521e-07
1.01104e-06
-5.05013e-06
2.11597e-06
-5.55669e-07
-1.07927e-05
2.23308e-06
-5.37733e-06
-1.5462e-05
2.70866e-06
-1.30198e-05
-1.06865e-05
3.90081e-06
-1.64158e-05
-1.22856e-06
-3.34086e-07
-1.44137e-05
3.88714e-06
-4.31958e-06
-1.49999e-05
7.19209e-06
-3.85396e-07
-1.644e-05
1.36009e-05
-1.99326e-06
2.06819e-06
2.38956e-05
-1.45118e-05
1.64954e-05
1.34764e-05
-5.79266e-06
-1.94062e-06
3.75666e-05
1.85539e-05
6.25254e-08
-3.50517e-06
-4.01964e-06
5.37049e-06
-1.26908e-05
-1.7853e-05
5.08793e-07
-2.84492e-06
-3.95176e-06
-6.79329e-08
3.34893e-06
-5.8025e-06
-9.25281e-06
1.0884e-05
6.28369e-07
-1.35767e-05
4.19412e-06
-1.25437e-06
-1.60885e-05
-1.21024e-06
-8.1404e-07
-1.64625e-05
-6.51605e-06
-6.82716e-07
-1.48664e-05
-1.05415e-05
-6.72162e-07
-1.07032e-05
-1.41376e-05
-1.09367e-06
-4.47402e-06
-1.58485e-05
-1.47444e-06
4.47048e-06
-1.3021e-05
-2.88658e-06
1.30205e-05
-7.66746e-06
-3.05168e-06
1.78227e-05
-2.56748e-06
-1.30638e-06
2.01453e-05
-2.32523e-06
1.12747e-06
2.09106e-05
-1.50391e-06
2.41702e-06
1.8748e-05
8.73757e-07
3.99214e-06
1.42327e-05
1.45876e-06
5.06101e-06
4.16207e-06
3.63688e-06
6.72264e-06
-9.22742e-06
1.88013e-06
9.44046e-06
-2.07405e-05
-1.20046e-06
1.03469e-05
-2.71472e-05
-6.21928e-06
9.58211e-06
-2.78623e-05
-8.77926e-06
8.13826e-06
-2.68762e-05
-9.68276e-06
6.99313e-06
-2.5345e-05
-9.22685e-06
5.56816e-06
-2.27365e-05
-7.91943e-06
3.60184e-06
-1.93201e-05
-6.45068e-06
1.20817e-06
-1.60341e-05
-5.57778e-06
-4.82596e-07
-1.26009e-05
-4.2036e-06
-2.18953e-06
-8.83479e-06
-2.26045e-06
-4.26117e-06
-4.75027e-06
1.19397e-07
-5.36652e-06
-1.40194e-06
5.48381e-06
-5.39557e-06
-2.07812e-07
1.18813e-05
-5.29977e-06
-5.26182e-07
1.61763e-05
-4.93995e-06
-9.66617e-07
1.99262e-05
-5.5051e-06
-1.41737e-06
2.40971e-05
-5.64964e-06
2.70523e-05
-7.56511e-06
-3.84355e-06
-3.4845e-06
3.64387e-07
-2.81738e-06
-5.03814e-06
-8.95881e-07
-2.57641e-06
-3.70894e-06
-1.80153e-07
-1.70291e-06
-4.13254e-06
-6.7206e-07
-1.22228e-06
-3.24216e-06
1.15959e-07
-5.72179e-07
-2.54621e-06
1.6394e-07
-2.82536e-07
-5.76954e-07
-5.37689e-08
-3.27182e-07
1.84635e-07
-1.14647e-07
-2.32319e-07
3.70713e-07
-2.51324e-07
-1.88659e-07
5.4778e-07
-2.18712e-07
-1.84743e-07
7.14304e-07
-2.09433e-07
-2.71477e-07
7.70395e-07
-1.84103e-07
-3.92666e-07
7.86269e-07
-1.75353e-07
-4.54237e-07
6.48746e-07
-1.98191e-07
-4.56384e-07
5.62746e-07
-2.27036e-07
-4.22642e-07
5.21389e-07
-2.59553e-07
-3.77534e-07
5.35651e-07
-2.85766e-07
-3.40148e-07
5.82332e-07
-3.07051e-07
-3.11057e-07
6.33537e-07
-3.24844e-07
-2.84914e-07
6.75628e-07
-3.39402e-07
-2.55526e-07
7.0872e-07
-3.5099e-07
-2.21985e-07
7.37368e-07
-3.57813e-07
-1.86742e-07
7.65819e-07
-3.59116e-07
-1.5191e-07
7.94036e-07
-3.56255e-07
-1.22597e-07
8.2485e-07
-3.49458e-07
-9.88307e-08
8.52066e-07
-3.39501e-07
-7.85267e-08
8.71491e-07
-3.27647e-07
-6.1502e-08
8.86182e-07
-3.1491e-07
-5.01024e-08
9.03015e-07
-3.0152e-07
-4.83734e-08
9.2718e-07
-2.8855e-07
-6.03698e-08
9.5719e-07
-2.76494e-07
-8.9863e-08
9.89483e-07
-2.64615e-07
-1.42253e-07
1.02431e-06
-2.51952e-07
-2.21314e-07
1.05869e-06
-2.39163e-07
-3.29329e-07
1.09027e-06
-2.2549e-07
-4.64703e-07
1.11977e-06
-2.10654e-07
-6.12967e-07
1.14283e-06
-2.01149e-07
-7.43636e-07
1.14617e-06
-1.98711e-07
-7.99192e-07
1.08319e-06
-2.11767e-07
-7.08371e-07
8.79634e-07
-2.77649e-07
-4.79126e-07
5.61921e-07
-4.37337e-07
-1.79786e-07
4.2512e-07
-6.61178e-07
1.80333e-07
5.79913e-07
-8.33074e-07
7.36181e-07
5.79855e-07
-9.53227e-07
1.64391e-06
-3.92989e-08
-1.13279e-06
2.83853e-06
-1.10759e-06
-1.22045e-06
3.55025e-06
-2.34746e-06
-5.31391e-07
2.57481e-06
-3.26079e-06
9.75364e-07
-3.95632e-07
-4.57764e-06
2.49798e-06
-3.72982e-06
-9.5947e-06
2.1362e-06
-1.07565e-05
-1.06469e-05
2.21165e-06
-1.8208e-05
-5.09825e-06
1.86324e-06
-2.00847e-05
3.28538e-06
-2.63718e-06
-2.3263e-05
9.24423e-06
-2.17868e-06
-2.60365e-05
1.13318e-05
-1.36616e-06
-2.24044e-05
1.35218e-05
-3.55293e-06
-1.29317e-05
2.61348e-05
-1.17115e-05
-7.70519e-06
1.71269e-05
-8.8771e-06
-2.01861e-06
3.14438e-05
4.34457e-07
6.07413e-07
-1.31739e-06
-4.81353e-06
5.08504e-06
1.80442e-06
-1.89722e-05
-6.20385e-07
7.2853e-06
-4.42414e-06
-4.37928e-06
1.29992e-05
-5.89075e-06
-1.03664e-05
1.69608e-05
-8.905e-08
-1.51439e-05
9.10205e-06
-1.29743e-07
-1.84741e-05
1.24989e-06
8.70784e-07
-2.04088e-05
-5.16604e-06
5.85325e-07
-2.09007e-05
-1.19825e-05
1.93355e-06
-2.00482e-05
-1.6847e-05
1.85748e-06
-1.80485e-05
-2.01951e-05
2.34732e-06
-1.1835e-05
-2.08936e-05
1.65946e-06
-2.3066e-06
-1.81921e-05
9.96531e-07
4.67107e-06
-1.06486e-05
1.10363e-06
6.50702e-06
-6.04114e-06
1.8801e-06
5.4837e-06
-2.3401e-06
1.85963e-06
-2.01134e-06
4.90774e-06
3.46121e-06
-1.53761e-05
8.81434e-06
6.00937e-06
-2.85636e-05
9.15234e-06
7.67218e-06
-3.56296e-05
1.41693e-06
7.52944e-06
-3.69653e-05
-6.60485e-06
6.74028e-06
-3.90133e-05
-1.00303e-05
5.85916e-06
-4.04085e-05
-1.18333e-05
4.44929e-06
-3.98743e-05
-1.29267e-05
2.70984e-06
-3.70152e-05
-1.26503e-05
5.64353e-07
-3.2079e-05
-1.1435e-05
-1.42065e-06
-2.66128e-05
-9.16642e-06
-2.75037e-06
-2.14577e-05
-6.34325e-06
-4.38963e-06
-1.62128e-05
-3.51651e-06
-5.93201e-06
-1.14095e-05
-1.0383e-06
-6.0255e-06
-7.54665e-06
1.47598e-06
-5.21939e-06
-6.26537e-06
6.64552e-06
-2.44299e-06
-5.75008e-06
1.36971e-05
-2.33109e-06
-5.82571e-06
1.87831e-05
-2.53121e-06
-5.21866e-06
2.33452e-05
-4.0261e-06
-4.00258e-06
2.76168e-05
-4.73571e-06
3.03468e-05
-7.29714e-06
-4.11387e-06
-2.87488e-06
6.92306e-07
-3.19564e-06
-4.97188e-06
-9.84474e-07
-2.98028e-06
-3.51279e-06
-4.11505e-07
-1.85681e-06
-4.0254e-06
-1.23061e-06
-1.22246e-06
-3.45392e-06
-4.22585e-07
-4.36356e-07
-2.95386e-06
-3.78454e-07
-1.10089e-07
-7.50198e-07
-1.53017e-07
-2.49699e-07
3.93945e-07
-6.96956e-08
-1.74818e-07
5.67588e-07
-2.71746e-07
-1.66009e-07
7.74459e-07
-2.35479e-07
-1.45861e-07
9.32958e-07
-2.38791e-07
-2.09869e-07
1.01616e-06
-1.81747e-07
-3.04091e-07
1.04173e-06
-1.61224e-07
-3.41997e-07
8.72732e-07
-1.86069e-07
-3.32196e-07
7.79809e-07
-2.26851e-07
-3.01789e-07
7.50517e-07
-2.59525e-07
-2.72757e-07
7.89942e-07
-2.83309e-07
-2.59216e-07
8.65335e-07
-2.96533e-07
-2.59713e-07
9.39563e-07
-3.05514e-07
-2.66556e-07
9.95243e-07
-3.12759e-07
-2.7233e-07
1.03339e-06
-3.18879e-07
-2.7359e-07
1.06098e-06
-3.22337e-07
-2.69041e-07
1.0829e-06
-3.21611e-07
-2.60013e-07
1.10147e-06
-3.16453e-07
-2.51636e-07
1.12243e-06
-3.05941e-07
-2.44407e-07
1.13854e-06
-2.93685e-07
-2.34021e-07
1.1439e-06
-2.82782e-07
-2.2097e-07
1.1455e-06
-2.72357e-07
-2.09424e-07
1.15334e-06
-2.6185e-07
-2.08683e-07
1.17682e-06
-2.50366e-07
-2.27107e-07
1.21397e-06
-2.38341e-07
-2.687e-07
1.2571e-06
-2.26004e-07
-3.35108e-07
1.30462e-06
-2.13886e-07
-4.21041e-07
1.34782e-06
-2.03185e-07
-5.1797e-07
1.38133e-06
-1.9411e-07
-6.15189e-07
1.40347e-06
-1.86467e-07
-6.89838e-07
1.40449e-06
-1.86994e-07
-7.12389e-07
1.37355e-06
-2.04811e-07
-6.47832e-07
1.27043e-06
-2.51776e-07
-4.77968e-07
1.06119e-06
-3.51399e-07
-2.73681e-07
8.56666e-07
-4.99009e-07
-9.28568e-08
9.59997e-07
-7.15677e-07
1.47841e-07
1.27258e-06
-9.33342e-07
7.76004e-07
1.15382e-06
-1.2021e-06
1.913e-06
2.54987e-07
-1.43125e-06
3.07983e-06
-1.02652e-06
-1.24788e-06
3.23917e-06
-2.22253e-06
-2.84232e-07
1.61898e-06
-2.90842e-06
1.26785e-06
-1.79912e-06
-3.60967e-06
2.45016e-06
-6.93507e-06
-6.18065e-06
1.72194e-06
-1.39489e-05
-4.94167e-06
1.30859e-06
-1.79796e-05
1.68022e-06
-2.74761e-06
-1.79065e-05
9.35465e-06
-6.14236e-06
-2.042e-05
1.44385e-05
-2.68061e-06
-2.27013e-05
1.66807e-05
-3.06746e-06
-1.98459e-05
1.49975e-05
-4.33077e-06
-3.16501e-08
1.87522e-05
-1.24311e-05
-1.22089e-06
2.09944e-05
-2.67841e-06
-1.96133e-06
2.20549e-05
1.0127e-05
1.19384e-06
4.48584e-06
-8.95814e-06
1.06914e-06
2.12019e-05
-1.92715e-05
-4.25682e-06
1.82825e-05
-5.66987e-06
-6.76446e-06
2.19079e-05
-6.39984e-06
-1.14025e-05
2.20798e-05
-4.79697e-07
-1.62461e-05
1.47866e-05
-8.39626e-07
-2.05183e-05
5.41794e-06
1.05402e-07
-2.28202e-05
-2.00597e-06
-8.56934e-07
-2.43137e-05
-1.04021e-05
-8.56981e-08
-2.49996e-05
-1.59943e-05
-1.65571e-07
-2.5148e-05
-2.01934e-05
1.47933e-07
-2.42992e-05
-2.17781e-05
3.69089e-08
-2.1334e-05
-2.11848e-05
2.85951e-08
-1.66932e-05
-1.54034e-05
1.15072e-07
-1.65608e-05
-7.23213e-06
1.05963e-06
-2.18394e-05
9.44483e-07
1.9951e-06
-2.79749e-05
7.42661e-06
3.61778e-06
-3.36002e-05
8.81525e-06
5.62565e-06
-3.4253e-05
2.99768e-06
6.80877e-06
-3.42275e-05
-4.68664e-06
6.07938e-06
-3.8066e-05
-8.06318e-06
5.29816e-06
-4.17586e-05
-1.08242e-05
4.48779e-06
-4.40842e-05
-1.28963e-05
3.38965e-06
-4.5817e-05
-1.41019e-05
2.90907e-06
-4.58729e-05
-1.412e-05
1.52647e-06
-4.35904e-05
-1.34755e-05
-2.41311e-07
-3.92689e-05
-1.16772e-05
-1.81029e-06
-3.25682e-05
-9.0694e-06
-3.97429e-06
-2.43797e-05
-6.19395e-06
-5.51089e-06
-1.67241e-05
-3.32944e-06
-5.36445e-06
-1.05607e-05
-5.07422e-07
-4.17994e-06
-8.32228e-06
6.47218e-06
-2.06507e-06
-8.82581e-06
1.36486e-05
5.52077e-07
-8.376e-06
1.85479e-05
-2.14581e-07
-7.21234e-06
2.3921e-05
-1.73944e-06
-4.95761e-06
2.82391e-05
-2.87704e-06
3.09028e-05
-5.51361e-06
-4.00582e-06
-2.03169e-06
1.31569e-06
-3.459e-06
-4.58083e-06
-9.37878e-07
-3.49401e-06
-3.15345e-06
-3.24329e-07
-2.2885e-06
-3.80235e-06
-1.42855e-06
-1.34382e-06
-3.51443e-06
-8.84174e-07
-2.44783e-07
-3.12506e-06
-9.27826e-07
1.49845e-07
-9.45963e-07
-1.98855e-07
-2.09982e-08
5.13746e-07
5.10545e-08
-2.00895e-08
8.87599e-07
-3.20909e-07
-1.53416e-07
1.17018e-06
-2.62382e-07
-1.43478e-07
1.24176e-06
-3.18722e-07
-1.5047e-07
1.30351e-06
-2.80342e-07
-1.36982e-07
1.31987e-06
-2.91615e-07
-1.29853e-07
1.19612e-06
-3.30501e-07
-1.27304e-07
1.15294e-06
-3.75665e-07
-1.43441e-07
1.17324e-06
-4.0657e-07
-1.74047e-07
1.249e-06
-4.28431e-07
-2.14549e-07
1.34683e-06
-4.40976e-07
-2.6089e-07
1.4376e-06
-4.51678e-07
-3.12064e-07
1.5077e-06
-4.61262e-07
-3.55892e-07
1.54698e-06
-4.69747e-07
-3.88429e-07
1.56942e-06
-4.75881e-07
-4.1004e-07
1.58409e-06
-4.7956e-07
-4.21429e-07
1.59403e-06
-4.81139e-07
-4.22544e-07
1.60378e-06
-4.80212e-07
-4.16877e-07
1.61061e-06
-4.77711e-07
-4.0798e-07
1.61004e-06
-4.7501e-07
-3.96064e-07
1.60668e-06
-4.73068e-07
-3.85281e-07
1.61181e-06
-4.6923e-07
-3.87077e-07
1.64035e-06
-4.61711e-07
-4.13205e-07
1.69078e-06
-4.50649e-07
-4.63683e-07
1.74643e-06
-4.38824e-07
-5.33199e-07
1.80177e-06
-4.27613e-07
-6.08548e-07
1.84308e-06
-4.19875e-07
-6.72848e-07
1.8636e-06
-4.17938e-07
-7.02033e-07
1.86108e-06
-4.28388e-07
-6.68793e-07
1.82346e-06
-4.52173e-07
-5.45319e-07
1.75215e-06
-5.02036e-07
-3.20472e-07
1.63244e-06
-5.86825e-07
-4.61276e-08
1.49556e-06
-7.08674e-07
9.24e-08
1.54565e-06
-8.27473e-07
5.14705e-08
1.95797e-06
-9.57003e-07
2.09984e-07
2.35715e-06
-1.24303e-06
8.69291e-07
2.21055e-06
-1.71599e-06
1.91073e-06
1.29815e-06
-2.08455e-06
2.31646e-06
7.56066e-08
-1.5078e-06
1.14563e-06
-9.27943e-07
-1.23712e-07
-1.638e-06
-1.42836e-06
1.30362e-06
-7.85318e-06
5.72976e-07
2.03259e-06
-1.82701e-05
3.984e-06
2.52301e-07
-2.44949e-05
4.20248e-06
-2.91924e-06
-2.34889e-05
7.2135e-06
-6.53912e-06
-2.00748e-05
1.00546e-05
-4.114e-06
-1.81361e-05
1.05154e-05
1.98447e-06
-1.52925e-05
1.04227e-05
3.41459e-06
-1.15776e-05
7.97802e-06
3.30482e-06
1.39925e-05
1.5091e-06
-8.32647e-06
1.36657e-05
1.64761e-05
4.84496e-06
-2.85982e-06
2.86285e-06
3.57152e-05
-2.86657e-07
1.30912e-05
-1.1178e-05
2.7642e-06
4.15261e-05
-2.33736e-05
2.7124e-06
2.37461e-05
-5.4103e-06
4.23546e-06
2.53044e-05
-4.9184e-06
-1.57671e-06
2.35169e-05
4.37624e-06
-9.98735e-07
1.53637e-05
-1.15395e-06
-2.76034e-06
6.84395e-06
3.36801e-07
-3.46929e-06
-1.4526e-06
1.56809e-07
-9.34977e-06
-5.77718e-06
1.25689e-06
-1.75227e-05
-9.1901e-06
1.37013e-06
-2.58568e-05
-1.34326e-05
1.57476e-06
-3.17596e-05
-1.72678e-05
1.39414e-06
-3.48482e-05
-1.90718e-05
9.77483e-07
-3.51281e-05
-1.63231e-05
1.20139e-06
-3.43913e-05
-1.04835e-05
2.51639e-06
-3.44527e-05
-3.3044e-06
4.31223e-06
-3.38352e-05
2.92498e-07
6.5185e-06
-3.28397e-05
7.75929e-07
7.04586e-06
-3.31939e-05
-3.25413e-06
6.60823e-06
-3.70148e-05
-5.01231e-06
4.14886e-06
-4.06912e-05
-6.75645e-06
2.37223e-06
-4.2949e-05
-9.5044e-06
9.40775e-07
-4.54168e-05
-1.06402e-05
2.14631e-07
-4.74358e-05
-1.22456e-05
1.657e-07
-4.99652e-05
-1.23098e-05
7.22406e-07
-5.21178e-05
-1.19141e-05
5.94289e-07
-5.28434e-05
-1.1251e-05
3.02635e-07
-5.31074e-05
-8.7576e-06
-4.45778e-08
-5.16831e-05
-7.1672e-06
-4.47999e-07
-4.74652e-05
-7.02317e-06
-5.21139e-07
-3.99852e-05
-6.67573e-06
-1.3088e-06
-3.43704e-05
2.0175e-06
-1.15746e-06
-3.15762e-05
1.08816e-05
-2.45204e-08
-2.75694e-05
1.53332e-05
-7.89381e-07
-2.19891e-05
2.03058e-05
-1.96224e-06
-1.38809e-05
2.2814e-05
-2.68057e-06
2.24473e-05
-5.42419e-06
-3.12042e-06
-1.03793e-06
2.27657e-06
-3.50885e-06
-4.06875e-06
-1.23638e-07
-3.97377e-06
-2.83796e-06
1.49441e-07
-2.92898e-06
-3.72474e-06
-1.12238e-06
-1.8191e-06
-3.69947e-06
-9.24827e-07
-2.89105e-07
-3.48237e-06
-1.17267e-06
3.79885e-07
-1.56842e-06
-4.6519e-08
1.98139e-07
2.38323e-07
4.57182e-07
3.48819e-08
9.23282e-07
1.27589e-07
-1.32524e-07
1.20549e-06
1.32111e-07
-1.0267e-07
1.23441e-06
-2.2492e-08
-6.37294e-08
1.24446e-06
2.01207e-08
8.07779e-09