/*--------------------------------*- C++ -*----------------------------------*\
| =========                 |                                                 |
| \\      /  F ield         | OpenFOAM: The Open Source CFD Toolbox           |
|  \\    /   O peration     | Version:  2.3.0                                 |
|   \\  /    A nd           | Web:      www.OpenFOAM.org                      |
|    \\/     M anipulation  |                                                 |
\*---------------------------------------------------------------------------*/
FoamFile
{
    version     2.0;
    format      ascii;
    class       surfaceScalarField;
    location    "54";
    object      phi.water;
}
// * * * * * * * * * * * * * * * * * * * * * * * * * * * * * * * * * * * * * //

dimensions      [0 3 -1 0 0 0 0];

internalField   nonuniform List<scalar> 
16448
(
-1.39958e-06
-2.4989e-06
6.01451e-07
4.46715e-07
-2.61364e-06
7.72105e-07
4.97299e-07
-1.22234e-06
1.17599e-06
4.30785e-07
-1.011e-06
1.08126e-06
5.9599e-08
-4.99266e-07
8.77266e-07
-7.68124e-08
-6.55541e-07
8.01855e-07
-9.84796e-08
-6.92312e-07
7.23873e-07
-8.23727e-08
-6.78131e-07
6.70137e-07
-1.43381e-07
-5.36972e-07
6.03419e-07
-3.00301e-07
-3.92321e-07
5.51347e-07
-4.90178e-07
-2.92684e-07
4.83401e-07
-5.83798e-07
-2.95553e-07
3.89598e-07
-5.69192e-07
-3.27029e-07
3.12974e-07
-4.5886e-07
-3.70673e-07
2.60784e-07
-3.27678e-07
-3.83816e-07
2.53135e-07
-1.85948e-07
-4.01317e-07
2.60008e-07
-5.6988e-08
-4.13347e-07
2.84828e-07
5.16389e-08
-4.24787e-07
3.16563e-07
1.32675e-07
-4.34579e-07
3.53942e-07
1.86287e-07
-4.41964e-07
3.88724e-07
2.1154e-07
-4.44936e-07
4.20047e-07
2.13958e-07
-4.4844e-07
4.46362e-07
2.0187e-07
-4.48152e-07
4.60573e-07
1.81966e-07
-4.43042e-07
4.63262e-07
1.58358e-07
-4.32658e-07
4.56586e-07
1.35113e-07
-4.18686e-07
4.42241e-07
1.16313e-07
-4.0396e-07
4.23081e-07
1.05659e-07
-3.91837e-07
4.02803e-07
1.02543e-07
-3.78896e-07
3.82339e-07
1.03726e-07
-3.64502e-07
3.63637e-07
1.08177e-07
-3.49767e-07
3.45652e-07
1.17608e-07
-3.35861e-07
3.26756e-07
1.34864e-07
-3.2315e-07
3.06242e-07
1.63116e-07
-3.12202e-07
2.84289e-07
2.04515e-07
-3.03327e-07
2.62288e-07
2.55575e-07
-2.94929e-07
2.44212e-07
3.06765e-07
-2.84937e-07
2.34119e-07
3.44063e-07
-2.71607e-07
2.34656e-07
3.38269e-07
-2.48236e-07
2.54412e-07
2.35759e-07
-2.07372e-07
3.10254e-07
-2.7574e-08
-1.53166e-07
4.16849e-07
-4.54934e-07
-1.12782e-07
5.40826e-07
-9.08595e-07
-1.51139e-07
6.1024e-07
-1.21543e-06
-3.82339e-07
7.03806e-07
-1.4638e-06
-6.60614e-07
9.31718e-07
-1.85813e-06
-8.86566e-07
1.31633e-06
-2.06189e-06
-1.41671e-06
1.68211e-06
-1.72327e-06
-2.35021e-06
2.09991e-06
-1.67631e-06
-2.08492e-06
2.14338e-06
-2.75336e-06
-4.73463e-07
1.62014e-06
1.17261e-06
-4.68616e-06
8.99506e-07
1.02907e-05
-1.06676e-05
1.47741e-06
1.7133e-05
-7.85073e-06
9.8022e-07
2.11293e-05
-3.21965e-06
-7.71083e-07
2.16764e-05
2.67824e-06
-3.18145e-06
2.03478e-05
4.25846e-06
-3.00149e-06
1.40367e-05
8.86896e-06
-2.35275e-06
1.36032e-05
6.57573e-06
-6.53374e-06
3.23853e-06
1.3423e-05
6.93236e-06
3.01759e-05
8.81073e-07
-6.68918e-06
2.53277e-05
-1.95062e-05
-4.70255e-06
3.23532e-05
-1.09643e-05
2.55975e-06
3.18187e-05
-5.24837e-06
5.77907e-06
3.24673e-05
-4.40295e-06
3.75437e-06
3.24797e-05
-3.04569e-06
3.03323e-06
3.15226e-05
-2.56388e-06
3.52101e-06
3.10261e-05
-4.68966e-06
5.1861e-06
3.05009e-05
-5.75858e-06
6.28385e-06
2.9945e-05
-6.11904e-06
6.67495e-06
2.975e-05
-6.72987e-06
6.92479e-06
3.03603e-05
-7.29418e-06
6.68387e-06
3.20465e-05
-6.93315e-06
5.24698e-06
3.49157e-05
-6.24888e-06
3.37967e-06
3.74057e-05
-4.6961e-06
2.20608e-06
3.93375e-05
-2.93782e-06
1.00602e-06
4.12107e-05
-2.06565e-06
1.9245e-07
4.26867e-05
-1.40154e-06
-7.44687e-08
4.39554e-05
-9.94488e-07
-2.74201e-07
4.48715e-05
-4.15643e-07
-5.00481e-07
4.57081e-05
-1.92358e-08
-8.17304e-07
4.62604e-05
3.27515e-07
-8.79858e-07
4.6328e-05
4.10472e-07
-4.78091e-07
4.58369e-05
-4.49313e-08
5.36047e-07
4.42203e-05
-8.0967e-08
1.69755e-06
4.01393e-05
1.3964e-06
2.68463e-06
3.34181e-05
1.76802e-06
4.9532e-06
2.50611e-05
2.95019e-06
5.40675e-06
1.70732e-05
4.13641e-06
3.85152e-06
1.15663e-05
2.83548e-06
2.67137e-06
8.33658e-06
1.21517e-06
2.01457e-06
6.16987e-06
8.56439e-07
1.31027e-06
5.34152e-06
4.75411e-07
3.52945e-07
4.76992e-06
8.22587e-07
-2.50993e-07
3.40845e-06
2.06032e-06
-6.98842e-07
9.72546e-07
4.34526e-06
-1.90936e-06
5.69959e-06
-4.72704e-06
-2.1615e-06
-3.58006e-06
-1.14142e-07
-7.25446e-07
-3.91463e-06
-1.26562e-07
-3.44666e-07
-2.30991e-06
7.14271e-07
9.30913e-08
-1.91156e-06
4.69025e-07
1.68915e-07
-8.70757e-07
3.02935e-07
5.13716e-08
-7.99686e-07
2.6965e-07
-5.80127e-08
-7.35632e-07
1.61773e-07
-1.469e-07
-6.74086e-07
9.26061e-08
-2.91644e-07
-4.72622e-07
8.52678e-08
-5.01458e-07
-2.98182e-07
1.17299e-07
-6.92525e-07
-2.05775e-07
1.04853e-07
-7.5874e-07
-2.56705e-07
2.75695e-08
-7.26648e-07
-3.20859e-07
-3.79365e-08
-6.13885e-07
-3.92328e-07
-9.08532e-08
-4.76654e-07
-4.15209e-07
-1.05531e-07
-3.27265e-07
-4.41978e-07
-1.08502e-07
-1.87042e-07
-4.57367e-07
-9.59731e-08
-6.34085e-08
-4.71034e-07
-7.721e-08
3.58487e-08
-4.80263e-07
-5.34147e-08
1.08535e-07
-4.85095e-07
-2.94327e-08
1.52745e-07
-4.83046e-07
-6.0276e-09
1.72539e-07
-4.77527e-07
9.35901e-09
1.75914e-07
-4.6771e-07
1.62416e-08
1.68474e-07
-4.52804e-07
1.72522e-08
1.54292e-07
-4.32186e-07
1.37455e-08
1.37011e-07
-4.0821e-07
6.82304e-09
1.20457e-07
-3.83994e-07
-3.41548e-09
1.09629e-07
-3.62131e-07
-1.88566e-08
1.05142e-07
-3.40326e-07
-3.40522e-08
1.05518e-07
-3.164e-07
-4.84272e-08
1.10863e-07
-2.92333e-07
-6.27228e-08
1.23219e-07
-2.70715e-07
-7.74241e-08
1.4517e-07
-2.5248e-07
-9.25382e-08
1.79447e-07
-2.39818e-07
-1.06552e-07
2.27465e-07
-2.32555e-07
-1.18674e-07
2.84257e-07
-2.25931e-07
-1.25647e-07
3.39941e-07
-2.15343e-07
-1.25125e-07
3.80787e-07
-1.98425e-07
-1.13852e-07
3.77924e-07
-1.638e-07
-8.14044e-08
2.81517e-07
-9.65403e-08
-1.42374e-08
8.442e-08
-2.70469e-08
7.12174e-08
-1.33772e-07
-1.98216e-08
1.26011e-07
-3.03647e-07
-6.72614e-08
8.96297e-08
-5.08506e-07
-2.60659e-07
9.28362e-08
-8.98032e-07
-5.25575e-07
2.73701e-07
-1.43581e-06
-8.85194e-07
5.71013e-07
-2.09179e-06
-1.62243e-06
9.11861e-07
-3.00853e-06
-2.97517e-06
1.59772e-06
-3.43078e-06
-3.45987e-06
1.85852e-06
-1.06819e-06
-4.12861e-06
1.43157e-06
5.88196e-06
-1.20244e-05
5.65906e-07
1.17624e-05
-1.85957e-05
2.0849e-06
1.27251e-05
-9.72456e-06
1.00391e-06
1.30356e-05
-4.2979e-07
-3.02523e-06
1.49735e-05
7.48345e-06
-6.6387e-06
1.67447e-05
8.29182e-06
-5.96337e-06
1.46251e-05
1.56779e-05
-4.14591e-06
1.52094e-05
1.57965e-05
-1.12606e-05
7.81892e-06
2.43696e-05
8.99412e-06
3.14274e-05
2.35853e-06
-3.60959e-06
1.85851e-05
-2.71978e-05
-9.2219e-06
1.99987e-05
-1.69332e-05
3.22562e-06
1.7471e-05
-7.87454e-06
5.15169e-06
1.6227e-05
-4.68279e-06
1.52375e-06
1.356e-05
-2.62643e-06
2.24782e-06
1.05393e-05
-4.7047e-06
5.16144e-06
8.34258e-06
-9.07853e-06
6.58562e-06
8.58545e-06
-1.13892e-05
5.38772e-06
9.96397e-06
-1.18738e-05
4.37624e-06
1.18297e-05
-1.23442e-05
3.7486e-06
1.54694e-05
-1.20951e-05
1.1613e-06
1.96943e-05
-1.02578e-05
-9.00255e-07
2.38192e-05
-8.79417e-06
-1.57965e-06
2.74289e-05
-5.71996e-06
-2.58586e-06
3.02141e-05
-2.06479e-06
-3.65822e-06
3.36015e-05
1.94547e-06
-7.39854e-06
3.67638e-05
5.14486e-06
-9.70866e-06
3.86242e-05
6.00302e-06
-8.85788e-06
3.97276e-05
4.73586e-06
-6.25493e-06
4.01922e-05
3.05901e-06
-3.54282e-06
4.06256e-05
7.82436e-07
-8.88371e-07
4.10671e-05
-1.04123e-06
1.01023e-06
4.07395e-05
-2.47872e-06
2.76138e-06
3.68737e-05
-3.19602e-07
4.10439e-06
2.99317e-05
3.80411e-06
4.53428e-06
2.07732e-05
6.5266e-06
4.39998e-06
1.28985e-05
6.61077e-06
4.21411e-06
8.12287e-06
5.85224e-06
3.05976e-06
5.2508e-06
4.30149e-06
1.40606e-06
3.31968e-06
2.11631e-06
1.02998e-06
1.80935e-06
1.65164e-06
7.15129e-07
1.0657e-06
2.26082e-06
-1.04177e-06
5.94183e-07
2.98529e-06
-1.69118e-06
-7.19428e-08
4.65747e-06
-1.93103e-06
-6.06397e-07
7.8411e-06
-2.96139e-06
1.08163e-05
-5.72313e-06
-2.63828e-06
-3.87308e-06
-3.66306e-07
-1.48595e-06
-4.45118e-06
-6.06908e-07
-1.02028e-06
-3.00797e-06
2.41526e-07
-3.49061e-07
-2.65278e-06
7.80117e-08
-3.38375e-08
-1.20537e-06
2.70951e-08
-6.0319e-08
-7.90451e-07
2.46575e-08
-1.73967e-07
-4.85709e-07
-1.27871e-07
-2.6606e-07
-4.10604e-07
-1.64932e-07
-3.73993e-07
-1.88596e-07
-1.71783e-07
-4.81799e-07
-5.36345e-08
-1.34583e-07
-5.93083e-07
2.05614e-08
-1.13732e-07
-6.38252e-07
-5.5962e-08
-1.54908e-07
-6.32941e-07
-1.17214e-07
-2.08336e-07
-5.79149e-07
-1.91197e-07
-2.54509e-07
-5.00596e-07
-2.1798e-07
-2.75388e-07
-4.05706e-07
-2.46138e-07
-2.90445e-07
-3.09485e-07
-2.59265e-07
-2.94064e-07
-2.16148e-07
-2.70622e-07
-2.93557e-07
-1.32928e-07
-2.75297e-07
-2.8801e-07
-6.19332e-08
-2.75379e-07
-2.80568e-07
-4.71628e-09
-2.67656e-07
-2.72479e-07
3.8279e-08
-2.53515e-07
-2.66888e-07
6.782e-08
-2.34479e-07
-2.62657e-07
8.5992e-08
-2.11216e-07
-2.59652e-07
9.55337e-08
-1.84031e-07
-2.57587e-07
9.9381e-08
-1.55025e-07
-2.56929e-07
9.99471e-08
-1.26653e-07
-2.57797e-07
9.84142e-08
-1.00048e-07
-2.60436e-07
9.68106e-08
-7.40566e-08
-2.64535e-07
9.68176e-08
-4.65878e-08
-2.69681e-07
9.99697e-08
-2.00172e-08
-2.75303e-07
1.06902e-07
3.00039e-09
-2.80478e-07
1.15671e-07
2.35423e-08
-2.846e-07
1.27936e-07
3.58192e-08
-2.87705e-07
1.43513e-07
4.01234e-08
-2.88024e-07
1.59315e-07
4.25985e-08
-2.84084e-07
1.68946e-07
4.8427e-08
-2.73115e-07
1.58123e-07
6.17286e-08
-2.49028e-07
1.02198e-07
9.56605e-08
-2.03187e-07
-7.74418e-09
1.48221e-07
-1.34492e-07
-8.45086e-08
1.35009e-07
-8.47054e-08
2.12281e-08
8.94868e-09
-1.32692e-07
2.91367e-07
-9.75232e-08
-2.34119e-07
4.5448e-07
-1.61951e-07
-2.50221e-07
3.88521e-07
-3.48742e-07
-8.86084e-08
4.09533e-07
-8.9444e-07
2.04045e-08
4.87757e-07
-1.7909e-06
1.33466e-07
7.38776e-08
-3.07749e-06
5.70119e-07
-5.09324e-07
-4.0939e-06
1.27721e-06
1.78791e-06
-7.61992e-06
1.41945e-06
4.69936e-06
-1.66621e-05
1.87534e-06
1.14792e-06
-1.83847e-05
3.35447e-06
-3.03009e-06
-7.63424e-06
2.07242e-06
-3.59155e-06
2.32333e-06
-2.13502e-06
4.96355e-06
7.81015e-06
-8.74036e-06
1.30951e-05
8.00448e-06
-8.01699e-06
1.39188e-05
2.31803e-05
-7.55309e-06
1.89715e-05
2.14789e-05
-1.22501e-05
8.08625e-06
3.52472e-05
1.2937e-05
3.34025e-05
-5.78186e-07
2.67718e-07
1.70696e-05
-3.03068e-05
-1.20055e-05
1.57276e-05
-1.59014e-05
-8.03577e-07
1.31907e-05
-5.78402e-06
4.44852e-07
1.00723e-05
-3.87026e-06
2.30585e-06
5.04422e-06
-5.06164e-06
7.46332e-06
1.18591e-06
-8.1508e-06
7.3044e-06
-3.43337e-07
-1.15835e-05
4.0342e-06
1.51442e-06
-1.34666e-05
2.19642e-07
4.87509e-06
-1.36944e-05
-1.54012e-06
8.81475e-06
-1.21988e-05
-4.0851e-06
1.27347e-05
-8.12746e-06
-7.88762e-06
1.70462e-05
-4.19974e-06
-1.03695e-05
2.05735e-05
-1.89922e-06
-1.04223e-05
2.39837e-05
-1.29831e-07
-9.0003e-06
2.69357e-05
1.87181e-06
-6.88862e-06
2.96565e-05
4.6661e-06
-5.44146e-06
3.31883e-05
6.04644e-06
-4.43334e-06
3.55495e-05
5.4157e-06
-1.77385e-06
3.66817e-05
2.45144e-06
1.15218e-06
3.73257e-05
-1.40949e-06
3.82448e-06
3.61852e-05
-3.93191e-06
5.85482e-06
3.06323e-05
-2.85348e-06
7.36523e-06
2.01499e-05
-1.29313e-06
9.29674e-06
9.8812e-06
1.67196e-06
8.27716e-06
2.84403e-06
4.93327e-06
5.908e-06
-1.47784e-06
5.80941e-06
5.03905e-06
-3.46026e-06
3.91094e-06
4.68225e-06
-3.74442e-06
2.20099e-06
3.93541e-06
-3.30801e-06
5.73076e-07
3.29201e-06
-3.41589e-06
1.96155e-07
2.02804e-06
-3.23913e-06
2.12803e-06
-6.53147e-07
-2.37153e-06
4.20925e-06
-2.81602e-06
-2.10317e-06
6.06399e-06
-3.34707e-06
-1.65773e-06
8.62009e-06
-4.40805e-06
-1.67534e-06
1.25188e-05
-4.66007e-06
1.55604e-05
-6.41947e-06
-3.05583e-06
-3.93669e-06
-1.5241e-07
-1.94532e-06
-4.73548e-06
-8.18788e-07
-1.60506e-06
-3.44849e-06
1.09599e-07
-9.07526e-07
-3.39247e-06
5.11834e-08
-4.25539e-07
-1.84328e-06
1.65859e-07
-2.49764e-07
-1.0493e-06
9.15317e-08
-2.75303e-07
-3.14881e-07
-1.37633e-07
-2.95104e-07
-1.79297e-07
-2.05729e-07
-2.91481e-07
3.45747e-08
-2.22219e-07
-3.20945e-07
1.6879e-07
-1.90419e-07
-3.81141e-07
2.69974e-07
-1.8758e-07
-4.404e-07
2.19043e-07
-2.14828e-07
-4.92384e-07
1.83725e-07
-2.48105e-07
-4.95138e-07
1.02934e-07
-2.9078e-07
-4.6548e-07
6.8934e-08
-3.15979e-07
-4.09507e-07
3.89607e-08
-3.40574e-07
-3.43179e-07
3.18195e-08
-3.56933e-07
-2.73173e-07
3.10111e-08
-3.71212e-07
-2.05666e-07
3.78623e-08
-3.80252e-07
-1.4286e-07
4.77156e-08
-3.85508e-07
-8.57941e-08
6.27606e-08
-3.87107e-07
-3.47331e-08
8.17611e-08
-3.85975e-07
7.92838e-09
1.04955e-07
-3.81753e-07
4.10377e-08
1.31813e-07
-3.758e-07
6.48865e-08
1.6196e-07
-3.69519e-07
8.02423e-08
1.93733e-07
-3.63789e-07
8.90508e-08
2.23788e-07
-3.58942e-07
9.39977e-08
2.50909e-07
-3.55593e-07
9.66569e-08
2.77794e-07
-3.54222e-07
9.75243e-08
3.06961e-07
-3.54124e-07
9.62978e-08
3.36074e-07
-3.54604e-07
9.1528e-08
3.62457e-07
-3.54419e-07
8.31786e-08
3.84213e-07
-3.52076e-07
6.89628e-08
3.9798e-07
-3.47674e-07
4.86234e-08
4.02651e-07
-3.41938e-07
2.15627e-08
4.04689e-07
-3.34744e-07
-1.9044e-08
4.11587e-07
-3.22277e-07
-9.29249e-08
4.3143e-07
-2.95471e-07
-2.09315e-07
4.60827e-07
-2.4838e-07
-3.05561e-07
4.45759e-07
-2.00801e-07
-2.26832e-07
2.58902e-07
-2.01727e-07
1.08038e-07
-1.62047e-10
-3.22664e-07
5.34215e-07
-9.11198e-08
-4.24357e-07
8.84377e-07
-3.99297e-08
-4.56228e-07
1.25989e-06
-2.88852e-07
-4.0788e-07
1.88406e-06
-9.99774e-07
-4.82682e-07
2.47811e-06
-1.99214e-06
-3.49738e-07
2.27506e-06
-3.17771e-06
3.54073e-07
1.43139e-06
-4.68788e-06
1.54059e-06
2.20219e-06
-1.01211e-05
1.98845e-06
6.81631e-07
-1.75622e-05
2.52079e-06
-6.74354e-06
-1.44034e-05
3.45427e-06
-1.07053e-05
-4.93528e-06
1.2794e-06
-6.61643e-06
1.57957e-06
-3.48144e-06
1.71001e-06
6.25458e-06
-6.63888e-06
2.89834e-06
1.02085e-05
-3.54974e-06
9.46464e-06
2.76536e-05
-9.60318e-06
1.53521e-05
2.19092e-05
-8.80944e-06
1.7827e-05
3.747e-05
1.5572e-05
3.6283e-05
-8.01569e-08
-7.1443e-07
9.69275e-06
-2.52697e-05
-1.39838e-05
7.22614e-06
-1.16613e-05
-2.19212e-06
6.75891e-06
-3.03139e-06
-2.28739e-06
-1.54681e-06
2.32796e-06
2.10767e-06
-7.37209e-06
-1.38366e-06
2.14739e-06
-9.14503e-06
-4.53618e-06
-1.8422e-06
-7.50503e-06
-7.57285e-06
-5.65112e-06
-4.69436e-06
-9.61778e-06
-6.66004e-06
-5.17178e-07
-1.10684e-05
-6.80366e-06
4.26766e-06
-1.1094e-05
-5.88999e-06
8.92709e-06
-6.96316e-06
-5.82383e-06
1.26805e-05
-2.16915e-06
-5.78404e-06
1.54766e-05
9.28313e-07
-5.62364e-06
1.9075e-05
1.12491e-06
-4.85313e-06
2.26272e-05
1.67844e-06
-3.35876e-06
2.6115e-05
2.70321e-06
-1.52498e-06
2.91284e-05
2.00453e-06
1.02853e-06
2.93841e-05
2.88893e-07
4.87109e-06
2.72366e-05
-2.0689e-06
6.6679e-06
1.84764e-05
-2.36661e-06
9.71724e-06
7.11509e-06
-3.04392e-06
1.04734e-05
-3.70385e-06
-1.3561e-06
9.32157e-06
-1.11061e-05
-1.70353e-06
7.81263e-06
-1.44809e-05
-2.1275e-06
7.17433e-06
-1.51057e-05
-1.7091e-06
7.26717e-06
-1.39605e-05
-1.82607e-06
6.49021e-06
-1.23007e-05
-2.77441e-06
5.0256e-06
-1.02936e-05
-2.95996e-06
3.1538e-06
-7.14748e-06
-2.75548e-06
1.82466e-07
-4.19621e-06
-1.1626e-06
-1.59252e-06
-1.95834e-06
3.43658e-06
-3.54641e-06
-1.06302e-06
7.77565e-06
-4.46172e-06
-1.38142e-06
1.09179e-05
-4.53555e-06
-1.30812e-06
1.39806e-05
-5.43385e-06
-1.34731e-06
1.79967e-05
-5.43876e-06
2.09045e-05
-6.69139e-06
-3.45213e-06
-3.81286e-06
5.42391e-08
-2.36872e-06
-4.90868e-06
-9.04946e-07
-2.12368e-06
-3.64924e-06
-3.54902e-08
-1.4139e-06
-3.93221e-06
-1.61594e-07
-9.15895e-07
-2.64664e-06
3.15215e-07
-4.36666e-07
-1.7332e-06
2.15055e-07
-2.83833e-07
-3.42496e-07
-1.15673e-07
-2.91643e-07
2.39723e-08
-1.89346e-07
-2.15281e-07
2.12967e-07
-2.5001e-07
-1.8898e-07
3.71583e-07
-2.26115e-07
-2.08798e-07
5.07768e-07
-2.15995e-07
-2.78635e-07
4.98671e-07
-2.08745e-07
-3.6879e-07
4.88953e-07
-2.14291e-07
-4.11134e-07
3.88311e-07
-2.42607e-07
-4.10353e-07
3.32976e-07
-2.64424e-07
-3.75163e-07
2.95058e-07
-2.90988e-07
-3.2542e-07
2.94524e-07
-3.12183e-07
-2.73252e-07
3.12231e-07
-3.33179e-07
-2.219e-07
3.37372e-07
-3.50673e-07
-1.71135e-07
3.61967e-07
-3.64865e-07
-1.19144e-07
3.86728e-07
-3.75832e-07
-6.74974e-08
4.12709e-07
-3.82501e-07
-1.95904e-08
4.41562e-07
-3.84439e-07
2.20562e-08
4.72226e-07
-3.82014e-07
5.61222e-08
5.04321e-07
-3.76388e-07
8.20369e-08
5.35944e-07
-3.68109e-07
1.01028e-07
5.63765e-07
-3.58946e-07
1.14069e-07
5.87913e-07
-3.50041e-07
1.20894e-07
6.12521e-07
-3.41524e-07
1.2139e-07
6.39989e-07
-3.33508e-07
1.14835e-07
6.6835e-07
-3.25672e-07
9.97987e-08
6.95041e-07
-3.17507e-07
7.2867e-08
7.19669e-07
-3.08438e-07
2.9037e-08
7.40204e-07
-2.98317e-07
-3.70136e-08
7.56578e-07
-2.87744e-07
-1.28756e-07
7.73619e-07
-2.77054e-07
-2.47482e-07
7.93401e-07
-2.62889e-07
-3.93028e-07
8.16881e-07
-2.39737e-07
-5.34958e-07
8.16104e-07
-2.13138e-07
-5.64289e-07
6.93201e-07
-2.17788e-07
-3.47922e-07
3.54433e-07
-3.10811e-07
6.54015e-08
6.41404e-08
-4.74096e-07
4.91597e-07
1.08081e-07
-6.156e-07
9.40698e-07
1.83924e-07
-6.52784e-07
1.65615e-06
-2.62645e-07
-7.08714e-07
2.66919e-06
-1.13157e-06
-8.4073e-07
3.44589e-06
-2.16528e-06
-5.57301e-07
3.12104e-06
-3.25697e-06
4.60093e-07
1.50461e-06
-5.04206e-06
2.11277e-06
1.73508e-07
-1.07763e-05
2.22689e-06
-4.54361e-06
-1.54354e-05
2.6993e-06
-1.22119e-05
-1.06481e-05
3.89013e-06
-1.56188e-05
-1.17946e-06
-3.39696e-07
-1.36866e-05
3.92726e-06
-4.36134e-06
-1.41053e-05
7.27342e-06
-4.23927e-07
-1.6115e-05
1.36916e-05
-2.0082e-06
5.44998e-06
2.41809e-05
-1.40927e-05
1.62224e-05
1.38746e-05
-5.29643e-06
2.21514e-05
3.71748e-05
1.83645e-05
3.78663e-05
2.18338e-07
-9.14824e-07
5.81394e-06
-1.27454e-05
-1.78747e-05
5.96545e-07
-2.85754e-06
-3.9545e-06
1.96638e-08
3.342e-06
-5.80677e-06
-9.16782e-06
1.08908e-05
6.28589e-07
-1.3497e-05
4.2011e-06
-1.25471e-06
-1.60179e-05
-1.20734e-06
-8.14378e-07
-1.64049e-05
-6.51331e-06
-6.82871e-07
-1.48257e-05
-1.05415e-05
-6.72323e-07
-1.0678e-05
-1.41406e-05
-1.09381e-06
-4.46144e-06
-1.58546e-05
-1.47456e-06
4.47547e-06
-1.30272e-05
-2.88679e-06
1.30223e-05
-7.67102e-06
-3.05199e-06
1.78235e-05
-2.56835e-06
-1.30665e-06
2.0146e-05
-2.32582e-06
1.12731e-06
2.09112e-05
-1.50488e-06
2.41692e-06
1.87487e-05
8.73163e-07
3.99205e-06
1.42337e-05
1.45882e-06
5.06093e-06
4.16312e-06
3.63794e-06
6.72258e-06
-9.22649e-06
1.88136e-06
9.44043e-06
-2.07398e-05
-1.19923e-06
1.03469e-05
-2.71469e-05
-6.21898e-06
9.58211e-06
-2.78623e-05
-8.77916e-06
8.13826e-06
-2.68762e-05
-9.68271e-06
6.99313e-06
-2.5345e-05
-9.22686e-06
5.56816e-06
-2.27365e-05
-7.91944e-06
3.60184e-06
-1.93201e-05
-6.45069e-06
1.20817e-06
-1.60341e-05
-5.57779e-06
-4.82596e-07
-1.26009e-05
-4.2036e-06
-2.18953e-06
-8.83479e-06
-2.26045e-06
-4.26117e-06
-4.75027e-06
1.19397e-07
-5.36652e-06
-1.40194e-06
5.48381e-06
-5.39557e-06
-2.07812e-07
1.18813e-05
-5.29977e-06
-5.26181e-07
1.61763e-05
-4.93995e-06
-9.66617e-07
1.99262e-05
-5.5051e-06
-1.41737e-06
2.40971e-05
-5.64964e-06
2.70523e-05
-7.56511e-06
-3.80614e-06
-3.4849e-06
3.62769e-07
-2.77646e-06
-5.03918e-06
-8.96297e-07
-2.52697e-06
-3.71027e-06
-1.80702e-07
-1.64442e-06
-4.13385e-06
-6.72421e-07
-1.15332e-06
-3.24357e-06
1.15554e-07
-4.92353e-07
-2.54751e-06
1.63449e-07
-1.9074e-07
-5.78353e-07
-5.43163e-08
-2.26394e-07
1.83117e-07
-1.15306e-07
-1.25638e-07
3.69433e-07
-2.51891e-07
-7.78032e-08
5.46662e-07
-2.19278e-07
-7.08248e-08
7.13404e-07
-2.0998e-07
-1.55649e-07
7.6965e-07
-1.84644e-07
-2.75307e-07
7.85682e-07
-1.75885e-07
-3.35826e-07
6.48282e-07
-1.98698e-07
-3.3696e-07
5.6238e-07
-2.27527e-07
-3.02328e-07
5.21095e-07
-2.60025e-07
-2.56374e-07
5.35417e-07
-2.86225e-07
-2.18193e-07
5.82144e-07
-3.07502e-07
-1.88318e-07
6.33386e-07
-3.25293e-07
-1.61415e-07
6.75501e-07
-3.39851e-07
-1.31283e-07
7.08608e-07
-3.51442e-07
-9.70112e-08
7.37265e-07
-3.5827e-07
-6.10511e-08
7.65719e-07
-3.5958e-07
-2.55142e-08
7.93938e-07
-3.56725e-07
4.49791e-09
8.24751e-07
-3.49937e-07
2.89664e-08
8.51973e-07
-3.39985e-07
4.99623e-08
8.71401e-07
-3.28143e-07
6.76854e-08
8.86104e-07
-3.15412e-07
7.97781e-08
9.02947e-07
-3.02036e-07
8.22161e-08
9.27135e-07
-2.89074e-07
7.09255e-08
9.57165e-07
-2.77031e-07
4.21583e-08
9.89494e-07
-2.65159e-07
-9.50363e-09
1.02435e-06
-2.52515e-07
-8.78096e-08
1.05879e-06
-2.39739e-07
-1.95067e-07
1.09043e-06
-2.26091e-07
-3.29626e-07
1.12001e-06
-2.11274e-07
-4.77059e-07
1.14315e-06
-2.01793e-07
-6.06849e-07
1.14661e-06
-1.99365e-07
-6.61512e-07
1.08379e-06
-2.12437e-07
-5.69582e-07
8.80432e-07
-2.78324e-07
-3.38413e-07
5.62909e-07
-4.38084e-07
-3.40356e-08
4.26388e-07
-6.62245e-07
3.39727e-07
5.81512e-07
-8.34469e-07
9.23694e-07
5.81858e-07
-9.55021e-07
1.87341e-06
-3.71532e-08
-1.13471e-06
3.11947e-06
-1.10504e-06
-1.2217e-06
3.8831e-06
-2.34473e-06
-5.32876e-07
2.97481e-06
-3.25677e-06
9.73358e-07
1.6729e-07
-4.5721e-06
2.49139e-06
-2.92973e-06
-9.58186e-06
2.12719e-06
-9.86402e-06
-1.0648e-05
2.20213e-06
-1.73023e-05
-5.09446e-06
1.85861e-06
-1.92593e-05
3.33704e-06
-2.65935e-06
-2.2433e-05
9.33489e-06
-2.22017e-06
-2.50634e-05
1.14184e-05
-1.42804e-06
-2.18711e-05
1.35938e-05
-3.65088e-06
-9.33258e-06
2.5701e-05
-1.14653e-05
-8.28921e-06
1.73117e-05
-8.7089e-06
2.28918e-05
3.19678e-05
1.38708e-06
4.15198e-05
-1.03923e-07
-3.83857e-06
6.77298e-06
1.65587e-06
-1.90419e-05
-1.26516e-07
7.25846e-06
-4.43889e-06
-3.88616e-06
1.29922e-05
-5.91098e-06
-9.87752e-06
1.69804e-05
-9.40101e-08
-1.465e-05
9.13041e-06
-1.36181e-07
-1.79959e-05
1.26531e-06
8.66093e-07
-1.99651e-05
-5.14735e-06
5.77969e-07
-2.05043e-05
-1.19736e-05
1.92829e-06
-1.97104e-05
-1.68477e-05
1.85385e-06
-1.7777e-05
-2.02062e-05
2.34393e-06
-1.16285e-05
-2.09149e-05
1.65653e-06
-2.1501e-06
-1.82186e-05
9.91688e-07
4.79725e-06
-1.06652e-05
1.09843e-06
6.61964e-06
-6.05376e-06
1.87557e-06
5.59786e-06
-2.35405e-06
1.85395e-06
-1.88531e-06
4.90355e-06
3.45448e-06
-1.5242e-05
8.82322e-06
6.00416e-06
-2.84371e-05
9.1752e-06
7.66918e-06
-3.55178e-05
1.4362e-06
7.52839e-06
-3.68713e-05
-6.59677e-06
6.73936e-06
-3.89449e-05
-1.00256e-05
5.85924e-06
-4.03646e-05
-1.1832e-05
4.4497e-06
-3.98495e-05
-1.2927e-05
2.7102e-06
-3.70034e-05
-1.26518e-05
5.6449e-07
-3.20745e-05
-1.14369e-05
-1.42059e-06
-2.66116e-05
-9.168e-06
-2.75036e-06
-2.14575e-05
-6.34414e-06
-4.38962e-06
-1.62128e-05
-3.51692e-06
-5.93201e-06
-1.14095e-05
-1.03847e-06
-6.0255e-06
-7.54665e-06
1.47586e-06
-5.21939e-06
-6.26537e-06
6.64541e-06
-2.44299e-06
-5.75008e-06
1.3697e-05
-2.33109e-06
-5.82571e-06
1.8783e-05
-2.53121e-06
-5.21866e-06
2.33451e-05
-4.0261e-06
-4.00258e-06
2.76167e-05
-4.73571e-06
3.03468e-05
-7.29714e-06
-4.07684e-06
-2.87582e-06
6.89862e-07
-3.15694e-06
-4.97316e-06
-9.85614e-07
-2.93424e-06
-3.51453e-06
-4.12394e-07
-1.80177e-06
-4.02721e-06
-1.23073e-06
-1.15635e-06
-3.45574e-06
-4.22992e-07
-3.60109e-07
-2.95567e-06
-3.79184e-07
-2.12336e-08
-7.52046e-07
-1.53669e-07
-1.49389e-07
3.92348e-07
-7.04881e-08
-6.77648e-08
5.65982e-07
-2.72554e-07
-5.42717e-08
7.73074e-07
-2.36248e-07
-3.06367e-08
9.31695e-07
-2.39559e-07
-9.24591e-08
1.01511e-06
-1.82481e-07
-1.84969e-07
1.04082e-06
-1.61958e-07
-2.21727e-07
8.7193e-07
-1.86755e-07
-2.10795e-07
7.79071e-07
-2.27504e-07
-1.79395e-07
7.49842e-07
-2.60142e-07
-1.494e-07
7.89313e-07
-2.8391e-07
-1.34951e-07
8.64746e-07
-2.97128e-07
-1.3455e-07
9.39003e-07
-3.06116e-07
-1.40519e-07
9.94707e-07
-3.13373e-07
-1.45434e-07
1.03288e-06
-3.19512e-07
-1.45853e-07
1.0605e-06
-3.22992e-07
-1.40468e-07
1.08244e-06
-3.22292e-07
-1.30617e-07
1.10105e-06
-3.17166e-07
-1.21418e-07
1.12205e-06
-3.06704e-07
-1.13369e-07
1.1382e-06
-2.94488e-07
-1.02162e-07
1.14362e-06
-2.83601e-07
-8.82927e-08
1.14525e-06
-2.73188e-07
-7.592e-08
1.15311e-06
-2.62686e-07
-7.43515e-08
1.17661e-06
-2.51209e-07
-9.19283e-08
1.21379e-06
-2.39187e-07
-1.32673e-07
1.25695e-06
-2.26858e-07
-1.98202e-07
1.30453e-06
-2.14744e-07
-2.83251e-07
1.3478e-06
-2.04059e-07
-3.79256e-07
1.38142e-06
-1.94999e-07
-4.75536e-07
1.40369e-06
-1.87384e-07
-5.49179e-07
1.40486e-06
-1.87933e-07
-5.70692e-07
1.37407e-06
-2.05789e-07
-5.05038e-07
1.27109e-06
-2.5278e-07
-3.33977e-07
1.06195e-06
-3.52426e-07
-1.27601e-07
8.57494e-07
-5.00059e-07
5.83746e-08
9.60935e-07
-7.16777e-07
3.14471e-07
1.27376e-06
-9.3453e-07
9.76588e-07
1.15526e-06
-1.20348e-06
2.16512e-06
2.56765e-07
-1.43265e-06
3.39599e-06
-1.02474e-06
-1.24971e-06
3.61204e-06
-2.2175e-06
-2.86806e-07
2.08332e-06
-2.90056e-06
1.26462e-06
-1.1377e-06
-3.58386e-06
2.4383e-06
-6.09712e-06
-6.15446e-06
1.70645e-06
-1.29996e-05
-4.93259e-06
1.28953e-06
-1.69456e-05
1.66476e-06
-2.75104e-06
-1.69274e-05
9.30735e-06
-6.15429e-06
-1.9481e-05
1.43866e-05
-2.67603e-06
-2.15707e-05
1.6621e-05
-3.05382e-06
-1.95857e-05
1.5019e-05
-4.36223e-06
6.72173e-06
1.89055e-05
-1.18593e-05
-3.66127e-07
2.10149e-05
-2.48994e-06
2.40859e-05
2.1951e-05
1.02463e-05
4.4752e-05
3.08693e-06
-7.07555e-06
4.03404e-06
2.10607e-05
-1.93886e-05
-3.25258e-06
1.82707e-05
-5.70711e-06
-5.80949e-06
2.19189e-05
-6.42531e-06
-1.05045e-05
2.2113e-05
-4.91702e-07
-1.53657e-05
1.48301e-05
-8.4376e-07
-1.96645e-05
5.45093e-06
1.07617e-07
-2.19895e-05
-1.97248e-06
-8.5886e-07
-2.34944e-05
-1.03822e-05
-8.64863e-08
-2.41929e-05
-1.59854e-05
-1.68813e-07
-2.4357e-05
-2.01968e-05
1.43085e-07
-2.35263e-05
-2.17934e-05
3.24552e-08
-2.05801e-05
-2.12184e-05
1.90359e-08
-1.59389e-05
-1.54447e-05
9.93559e-08
-1.57948e-05
-7.26317e-06
1.03862e-06
-2.1064e-05
9.35026e-07
1.96454e-06
-2.71843e-05
7.44394e-06
3.57619e-06
-3.27959e-05
8.85928e-06
5.58715e-06
-3.34233e-05
3.0462e-06
6.77695e-06
-3.33792e-05
-4.66176e-06
6.04717e-06
-3.72394e-05
-8.04606e-06
5.26337e-06
-4.09935e-05
-1.08078e-05
4.46699e-06
-4.34119e-05
-1.28881e-05
3.37709e-06
-4.52544e-05
-1.41004e-05
2.91047e-06
-4.54263e-05
-1.41228e-05
1.53258e-06
-4.32596e-05
-1.3485e-05
-2.36506e-07
-3.90474e-05
-1.169e-05
-1.8045e-06
-3.24388e-05
-9.08426e-06
-3.9717e-06
-2.43156e-05
-6.21038e-06
-5.51231e-06
-1.66969e-05
-3.35025e-06
-5.36734e-06
-1.05473e-05
-5.38221e-07
-4.18347e-06
-8.31054e-06
6.44308e-06
-2.06899e-06
-8.81102e-06
1.36257e-05
5.51932e-07
-8.35655e-06
1.85266e-05
-2.12809e-07
-7.18947e-06
2.39031e-05
-1.73758e-06
-4.93591e-06
2.82301e-05
-2.87266e-06
3.08997e-05
-5.50774e-06
-3.9689e-06
-2.03279e-06
1.31216e-06
-3.42126e-06
-4.58244e-06
-9.39972e-07
-3.45003e-06
-3.15561e-06
-3.25815e-07
-2.23578e-06
-3.80469e-06
-1.42828e-06
-1.27906e-06
-3.51673e-06
-8.84247e-07
-1.68584e-07
-3.12735e-06
-9.285e-07
2.37774e-07
-9.48067e-07
-1.99572e-07
7.89574e-08
5.11819e-07
5.01855e-08
8.85187e-08
8.8563e-07
-3.21746e-07
-3.90103e-08
1.1684e-06
-2.63199e-07
-2.47815e-08
1.24014e-06
-3.19494e-07
-2.92603e-08
1.30204e-06
-2.81059e-07
-1.36325e-08
1.31851e-06
-2.923e-07
-5.1262e-09
1.19487e-06
-3.3114e-07
-1.00132e-09
1.15178e-06
-3.76276e-07
-1.58471e-08
1.17214e-06
-4.07151e-07
-4.51249e-08
1.24794e-06
-4.28993e-07
-8.43775e-08
1.34581e-06
-4.41527e-07
-1.29469e-07
1.4366e-06
-4.52223e-07
-1.79403e-07
1.50672e-06
-4.61808e-07
-2.22003e-07
1.54601e-06
-4.70304e-07
-2.53319e-07
1.56845e-06
-4.76454e-07
-2.73714e-07
1.58312e-06
-4.80154e-07
-2.83886e-07
1.59305e-06
-4.81755e-07
-2.83791e-07
1.60279e-06
-4.80852e-07
-2.76912e-07
1.60962e-06
-4.78371e-07
-2.66799e-07
1.60905e-06
-4.75689e-07
-2.53652e-07
1.6057e-06
-4.73761e-07
-2.41634e-07
1.61083e-06
-4.69937e-07
-2.42184e-07
1.6394e-06
-4.62427e-07
-2.67048e-07
1.68985e-06
-4.51377e-07
-3.16237e-07
1.74554e-06
-4.3956e-07
-3.84444e-07
1.80094e-06
-4.28366e-07
-4.58442e-07
1.8423e-06
-4.20648e-07
-5.21357e-07
1.86289e-06
-4.18741e-07
-5.49106e-07
1.86046e-06
-4.29219e-07
-5.14381e-07
1.82295e-06
-4.53041e-07
-3.89365e-07
1.7518e-06
-5.02928e-07
-1.62942e-07
1.63231e-06
-5.87721e-07
1.13103e-07
1.49568e-06
-7.09527e-07
2.54022e-07
1.54606e-06
-8.28226e-07
2.19223e-07
1.95874e-06
-9.57605e-07
3.96977e-07
2.35821e-06
-1.24348e-06
1.10296e-06
2.21189e-06
-1.71627e-06
2.21674e-06
1.30018e-06
-2.08567e-06
2.70086e-06
7.96837e-08
-1.51147e-06
1.5975e-06
-9.23511e-07
-1.27419e-07
-1.04247e-06
-1.4233e-06
1.29886e-06
-7.05305e-06
5.77614e-07
2.01404e-06
-1.72962e-05
3.99316e-06
2.44657e-07
-2.34156e-05
4.20262e-06
-2.93242e-06
-2.23224e-05
7.23777e-06
-6.56066e-06
-1.88479e-05
1.01019e-05
-4.1416e-06
-1.69453e-05
1.05607e-05
1.94422e-06
-1.3703e-05
1.05009e-05
3.37945e-06
-1.07975e-05
8.0043e-06
3.23599e-06
2.01458e-05
1.51332e-06
-8.01407e-06
1.38659e-05
1.63106e-05
5.24201e-06
2.61926e-05
3.67981e-06
3.48969e-05
4.91462e-05
8.59685e-06
-5.94062e-06
5.82019e-06
4.14877e-05
-2.35448e-05
3.79096e-06
2.37507e-05
-5.47454e-06
5.27564e-06
2.53187e-05
-4.97819e-06
-6.23318e-07
2.35412e-05
4.39225e-06
-5.75743e-08
1.53882e-05
-1.16734e-06
-1.82537e-06
6.86291e-06
3.22696e-07
-2.50775e-06
-1.44065e-06
1.56451e-07
-8.34896e-06
-5.76911e-06
1.24582e-06
-1.64815e-05
-9.1814e-06
1.36973e-06
-2.47747e-05
-1.34266e-05
1.56887e-06
-3.06354e-05
-1.72697e-05
1.38904e-06
-3.36842e-05
-1.90836e-05
9.56431e-07
-3.3927e-05
-1.63405e-05
1.16264e-06
-3.31582e-05
-1.04973e-05
2.46379e-06
-3.31969e-05
-3.30233e-06
4.24805e-06
-3.25386e-05
3.04995e-07
6.45673e-06
-3.1456e-05
7.95374e-07
6.9775e-06
-3.16852e-05
-3.24174e-06
6.53435e-06
-3.53915e-05
-5.00458e-06
4.07415e-06
-3.89727e-05
-6.74702e-06
2.26484e-06
-4.11499e-05
-9.49896e-06
8.32535e-07
-4.35624e-05
-1.0635e-05
9.13375e-08
-4.55317e-05
-1.22438e-05
2.81331e-08
-4.80218e-05
-1.23125e-05
5.96409e-07
-5.01545e-05
-1.19203e-05
4.97024e-07
-5.08825e-05
-1.12652e-05
2.39286e-07
-5.11646e-05
-8.77121e-06
-7.64865e-08
-4.97621e-05
-7.18091e-06
-4.74137e-07
-4.55789e-05
-7.04681e-06
-5.51272e-07
-3.81513e-05
-6.73279e-06
-1.36696e-06
-3.25682e-05
1.96141e-06
-1.26068e-06
-2.97202e-05
1.08497e-05
-7.36341e-08
-2.56262e-05
1.53095e-05
-8.24165e-07
-2.00448e-05
2.02928e-05
-2.02291e-06
-1.20855e-05
2.2815e-05
-2.75775e-06
2.24497e-05
-5.94713e-06
-3.08387e-06
-1.03952e-06
2.27162e-06
-3.47255e-06
-4.0709e-06
-1.27648e-07
-3.93184e-06
-2.84026e-06
1.47279e-07
-2.87932e-06
-3.72701e-06
-1.12184e-06
-1.75706e-06
-3.70151e-06
-9.24353e-07
-2.13407e-07
-3.48435e-06
-1.17306e-06
4.6538e-07
-1.57019e-06
-4.71042e-08
2.92285e-07
2.36671e-07
4.56097e-07
1.38857e-07
9.21979e-07
1.26611e-07
-2.20411e-08
1.20439e-06
1.3116e-07
1.19869e-08
1.23352e-06
-2.34148e-08
5.30817e-08
1.24376e-06
1.92063e-08
1.26484e-07
1.21362e-06
3.3014e-08
1.33705e-07
1.11556e-06
7.31221e-08