/*--------------------------------*- C++ -*----------------------------------*\
| =========                 |                                                 |
| \\      /  F ield         | OpenFOAM: The Open Source CFD Toolbox           |
|  \\    /   O peration     | Version:  2.3.0                                 |
|   \\  /    A nd           | Web:      www.OpenFOAM.org                      |
|    \\/     M anipulation  |                                                 |
\*---------------------------------------------------------------------------*/
FoamFile
{
    version     2.0;
    format      ascii;
    class       volVectorField;
    location    "54";
    object      U;
}
// * * * * * * * * * * * * * * * * * * * * * * * * * * * * * * * * * * * * * //

dimensions      [0 1 -1 0 0 0 0];

internalField   nonuniform List<vector> 
6144
(
(0.0111703 0.0212421 -0.000827134)
(0.011481 -0.0016213 -0.00204853)
(0.00454773 -0.00316328 -0.00297298)
(0.00360993 -0.0028425 -0.00269067)
(0.00194362 -0.00141302 -0.00185634)
(0.00300096 0.00149771 -0.00165423)
(0.00328339 0.000707389 -0.00138213)
(0.00327841 0.0015304 -0.00121176)
(0.00264402 0.000917665 -0.00095908)
(0.0020215 0.0021291 -0.000439254)
(0.00147407 0.00317174 0.00012891)
(0.00137069 0.00431464 0.000830924)
(0.00145469 0.00448536 0.00127534)
(0.00158848 0.00404101 0.00167049)
(0.00162347 0.0031774 0.00176692)
(0.00169591 0.00232988 0.00172325)
(0.00176159 0.00143355 0.00152743)
(0.00183314 0.000683212 0.0012772)
(0.00190037 7.42354e-05 0.00101067)
(0.00195807 -0.000345034 0.000767028)
(0.00199544 -0.000593071 0.000549513)
(0.00202845 -0.000664832 0.000357984)
(0.00204069 -0.000622992 0.000251828)
(0.00203031 -0.000513645 0.000232216)
(0.00199629 -0.000370923 0.000285674)
(0.00194464 -0.000217583 0.000400703)
(0.0018865 -7.73374e-05 0.000553763)
(0.00183247 1.86833e-05 0.000713637)
(0.00177217 5.65165e-05 0.000877893)
(0.00170682 5.92405e-05 0.00103066)
(0.00163993 4.27904e-05 0.00117835)
(0.00157481 4.08441e-06 0.00133385)
(0.00151128 -7.39751e-05 0.00150439)
(0.00144822 -0.00021168 0.00169038)
(0.0013872 -0.000428679 0.00187889)
(0.00132783 -0.000723905 0.0020348)
(0.00126871 -0.00105455 0.00212188)
(0.0012056 -0.00135314 0.00212151)
(0.00112881 -0.00149753 0.00196608)
(0.00102803 -0.00126628 0.00149621)
(0.000878814 -0.000222906 0.00061416)
(0.000727622 0.00200777 -0.000357857)
(0.00106423 0.00525618 -0.000914901)
(0.00231402 0.00792207 -0.00134062)
(0.00383346 0.00912666 -0.00219987)
(0.00499729 0.0115302 -0.00407175)
(0.00696121 0.0147159 -0.00496578)
(0.00959501 0.0138371 -0.00622405)
(0.00649707 0.0115301 -0.00688614)
(-0.0047549 0.0148154 -0.00350461)
(0.0077014 0.0289648 0.000375585)
(0.0429727 -0.0388085 -0.0030012)
(0.0360265 -0.0741318 -0.00127562)
(0.0107805 -0.125026 -0.000751456)
(-9.96407e-05 -0.126701 0.0120494)
(-0.0104631 -0.138734 0.0130957)
(-0.0374735 -0.085579 0.00873996)
(-0.0185338 -0.108268 0.0361051)
(-0.0489646 -0.0123662 -0.0300656)
(0.0192327 0.099578 0.0434279)
(0.106525 -0.266234 0.0765553)
(0.0711148 -0.131543 0.0454249)
(0.047998 -0.189019 0.022743)
(0.0367919 -0.209742 0.0194695)
(0.0345233 -0.204203 0.0181427)
(0.0264648 -0.196015 0.0146152)
(0.0221642 -0.18595 -0.003723)
(0.0209627 -0.183368 -0.00923791)
(0.022241 -0.183109 -0.0127526)
(0.0255589 -0.179949 -0.0132791)
(0.0323916 -0.179571 -0.00929863)
(0.0354719 -0.189804 -0.00527676)
(0.0334642 -0.20451 0.00112216)
(0.0279573 -0.220284 0.00495585)
(0.0221133 -0.231525 0.00775604)
(0.0195136 -0.240493 0.0115166)
(0.0222661 -0.253916 0.0115971)
(0.0259231 -0.263754 0.0110662)
(0.0272694 -0.271318 0.00885792)
(0.0214568 -0.275646 0.00510892)
(0.0147134 -0.276737 0.00361085)
(0.0135798 -0.277424 0.000157012)
(0.0105474 -0.276519 -0.00521115)
(0.0046526 -0.271467 -0.00449808)
(0.000973307 -0.259655 -0.00873955)
(0.00752879 -0.230287 -0.0239903)
(0.00296424 -0.172543 -0.0156036)
(-0.00607367 -0.122849 0.00383058)
(0.00260039 -0.0802279 0.00958277)
(0.00687789 -0.0554078 0.0109972)
(0.00495005 -0.0419391 0.0138584)
(0.00599062 -0.0332088 0.0141646)
(0.00390424 -0.0312498 0.0148298)
(-0.00156414 -0.0273894 0.0111901)
(-0.0195328 -0.0135108 0.00989798)
(-0.0252344 -0.000184449 0.0165106)
(0.0209914 0.0216596 0.00304902)
(0.0224899 0.00716792 0.00202737)
(0.0116268 0.00302455 -0.00200595)
(0.00974883 0.00165516 -0.000662299)
(0.00457453 -0.00188604 0.000845379)
(0.00518378 0.000523527 0.00123949)
(0.00532784 -1.83572e-05 0.00191621)
(0.00510798 0.00177544 0.00221528)
(0.00395164 0.0015221 0.0023502)
(0.00274857 0.00335177 0.0024354)
(0.00206686 0.00446391 0.00270977)
(0.00221337 0.00546837 0.00340092)
(0.00252194 0.00541606 0.00395748)
(0.0029314 0.00497204 0.00427309)
(0.00305632 0.00407841 0.00435395)
(0.00319782 0.00321335 0.00435803)
(0.00327737 0.00226274 0.00429591)
(0.0033438 0.0014515 0.00421703)
(0.00339389 0.000746322 0.00413586)
(0.00342338 0.000215148 0.00407356)
(0.0034185 -0.000149233 0.00403331)
(0.00342187 -0.000326712 0.00396098)
(0.00339929 -0.000387867 0.00393195)
(0.00334077 -0.000366151 0.00395818)
(0.00324204 -0.000294058 0.00403224)
(0.00311799 -0.000191071 0.00414208)
(0.00299224 -7.87319e-05 0.00426252)
(0.00289381 1.23036e-05 0.00434631)
(0.00279312 5.58093e-05 0.00443903)
(0.00268015 6.83961e-05 0.00453072)
(0.00256551 5.37395e-05 0.00462108)
(0.0024604 5.58154e-06 0.0047123)
(0.00236883 -9.24975e-05 0.00480751)
(0.00230035 -0.000257721 0.00490822)
(0.00225682 -0.000505225 0.00500403)
(0.00221852 -0.000826548 0.00507164)
(0.00216121 -0.00117364 0.00510018)
(0.0020678 -0.00147755 0.00508776)
(0.00186505 -0.00163454 0.0049899)
(0.00146743 -0.00141445 0.0046526)
(0.000936624 -0.000486894 0.00377812)
(0.000568231 0.000916627 0.00283159)
(0.000636757 0.00222374 0.00236601)
(0.00207348 0.00302835 0.00217513)
(0.00386714 0.00488259 0.00107855)
(0.00537825 0.00804082 -0.000922792)
(0.00962255 0.0119552 -0.00110641)
(0.0176208 0.0168098 -0.00218496)
(0.017126 0.0228631 -0.00492483)
(0.011558 0.0206871 -0.00573622)
(0.0522664 -0.00540787 0.00226161)
(0.0934801 -0.0589796 -0.00768812)
(0.067905 -0.0636466 -0.00665716)
(0.0343729 -0.0745354 0.00668706)
(-0.0289624 -0.0705572 0.0218852)
(-0.0407851 -0.105736 0.0196244)
(-0.0661722 -0.0543215 0.0128233)
(-0.0595173 -0.143883 0.059472)
(-0.122555 0.0482417 -0.0715047)
(-0.000826956 0.0327012 0.0199679)
(0.144742 -0.235255 0.117924)
(0.0808078 -0.047457 0.0664947)
(0.0287008 -0.122684 0.0239381)
(0.018679 -0.101604 0.030026)
(0.00223802 -0.0842181 0.011816)
(0.00606244 -0.0714643 -0.0117182)
(0.0376714 -0.0462544 -0.0129243)
(0.0545591 -0.0428509 -0.00508711)
(0.0582352 -0.0528007 0.00164846)
(0.0632329 -0.061121 0.00608367)
(0.0637606 -0.0743127 0.0147567)
(0.0564876 -0.101653 0.0227701)
(0.0503957 -0.119997 0.0247212)
(0.0351994 -0.145075 0.0234174)
(0.0158021 -0.164279 0.0196619)
(0.00250629 -0.178586 0.0338802)
(-0.00873683 -0.196518 0.0427695)
(-0.0161764 -0.210324 0.0403004)
(-0.0211557 -0.219883 0.0312215)
(-0.0202675 -0.227039 0.0186303)
(-0.0168003 -0.22616 0.00850793)
(-0.017395 -0.225754 0.00153971)
(-0.0101435 -0.225615 -0.00463713)
(-0.00344242 -0.214444 -0.0140504)
(-0.0145622 -0.195949 -0.0173753)
(-0.0270888 -0.144458 -0.00858335)
(-0.035076 -0.0821145 0.00496188)
(-0.0385516 -0.0563021 0.0123732)
(-0.0332404 -0.0340729 0.0157146)
(-0.0190852 -0.0205949 0.0141132)
(-0.0128036 -0.0134993 0.00801677)
(-0.0100009 -0.0079589 0.00466249)
(-0.0118075 -0.00426198 0.00510106)
(-0.0200297 -0.00160024 0.00423079)
(-0.0287085 0.00227514 0.0104257)
(-0.0412641 0.00318658 0.0197377)
(0.02417 0.0213037 0.0040868)
(0.0269722 0.0127717 0.00403334)
(0.0171871 0.00708558 0.000501343)
(0.0143596 0.00576557 0.00195222)
(0.00636342 -0.000169545 0.00309808)
(0.00489847 0.00136183 0.00307192)
(0.00379341 0.000666976 0.0040594)
(0.00329326 0.00251591 0.0041074)
(0.00194321 0.00226965 0.00405094)
(0.00106559 0.0035546 0.00398162)
(0.000589491 0.00391858 0.00407044)
(0.00106516 0.00468364 0.00440502)
(0.00152653 0.00460416 0.00473954)
(0.00198849 0.0045079 0.00498879)
(0.00212628 0.00399231 0.00503676)
(0.00229441 0.00349474 0.00503661)
(0.00238103 0.00286064 0.00499657)
(0.00246006 0.00229382 0.00495699)
(0.00250249 0.00173797 0.00491673)
(0.00251566 0.00127419 0.00489677)
(0.00248301 0.000881647 0.00489681)
(0.00240561 0.000581601 0.00493068)
(0.00230551 0.000364867 0.0049822)
(0.00218293 0.00022715 0.0050385)
(0.00203459 0.000148866 0.00509752)
(0.00187345 0.000114801 0.00515925)
(0.00171335 0.00010523 0.00522473)
(0.0015574 0.000111956 0.00529882)
(0.00140505 0.000125782 0.00537798)
(0.00124137 0.000134445 0.00545893)
(0.00107891 0.000128165 0.00554028)
(0.00093665 9.88226e-05 0.00562106)
(0.000828395 5.48437e-05 0.00570288)
(0.00076393 -1.87458e-06 0.00577987)
(0.000738774 -8.26463e-05 0.00584335)
(0.000715734 -0.000178452 0.00587858)
(0.000664184 -0.000259129 0.00587667)
(0.000578625 -0.0002791 0.00583387)
(0.000392525 -0.000119886 0.005709)
(-1.01071e-05 0.000372493 0.00535267)
(-0.000339283 0.00115857 0.00462447)
(-0.000101899 0.00118567 0.00382913)
(0.000394264 6.78604e-05 0.00332209)
(0.00125751 -0.00186945 0.00297127)
(0.00244236 -0.00143194 0.00181495)
(0.00500948 -0.000994971 0.000943502)
(0.00944966 -0.0011519 0.00184588)
(0.0170654 -0.00172959 0.00263671)
(0.0224344 0.00434323 -0.00114549)
(0.0368002 0.00524943 -0.00392444)
(0.0849883 -0.0211002 -0.00182989)
(0.115927 -0.0250137 -0.0136691)
(0.0377767 0.0223326 -0.0104121)
(-0.0286413 0.0186027 -0.00148174)
(-0.0525681 0.0320129 0.0163478)
(-0.0481635 -0.0859919 0.0186203)
(-0.113001 -0.0223617 0.0148359)
(-0.10397 -0.153914 0.0596964)
(-0.173627 0.044419 -0.070967)
(0.0213317 0.0360371 -0.0188857)
(0.172764 -0.233833 0.128814)
(0.10883 -0.0158587 0.0798211)
(0.053085 -0.103637 0.0412079)
(0.0362102 -0.0613675 0.0163478)
(0.0282595 -0.0416865 -0.029388)
(0.0485481 -0.0136089 -0.0306776)
(0.0713279 0.00263605 -0.00230688)
(0.0815788 0.00180863 0.0130177)
(0.0825192 -0.0180972 0.0217215)
(0.0754143 -0.0344858 0.0248921)
(0.0637322 -0.0583539 0.03878)
(0.0472136 -0.0819209 0.0521364)
(0.0365764 -0.0950389 0.0501148)
(0.0221706 -0.113253 0.0479631)
(0.00671072 -0.131966 0.034629)
(-0.0171119 -0.147162 0.0241168)
(-0.0355128 -0.163432 0.0237621)
(-0.0385202 -0.184811 0.00882191)
(-0.0288232 -0.188867 0.000409352)
(-0.0165076 -0.195219 -0.00946374)
(0.00677041 -0.188134 -0.0203984)
(0.0289041 -0.175443 -0.03028)
(0.0312501 -0.139701 -0.0374484)
(0.00367702 -0.0635087 -0.0113189)
(-0.0323753 -0.0320307 0.00224569)
(-0.0454828 -0.000419673 -0.00180249)
(-0.0355084 0.0161591 -0.00498267)
(-0.0238675 0.0194739 -0.00677753)
(-0.0105064 0.0182371 -0.00869137)
(-0.00202096 0.0170957 -0.0113739)
(-0.00462803 0.0184082 -0.000776986)
(-0.014276 0.0121624 0.0136363)
(-0.0205223 0.0118701 0.0143265)
(-0.0308549 0.00829993 0.0164783)
(-0.0525336 0.00831246 0.0161175)
(-0.0670654 0.00685352 0.017103)
(0.025056 0.0211906 0.00416213)
(0.029032 0.0167743 0.00442872)
(0.0205161 0.00960655 0.000403409)
(0.0188312 0.0101909 0.000674846)
(0.00898328 0.00249106 0.0012166)
(0.00520918 0.00329189 0.00205869)
(0.00234731 0.00122382 0.00402887)
(0.00184429 0.00311443 0.00430829)
(0.000496306 0.00198684 0.00432534)
(-0.000313431 0.0027644 0.00419025)
(-0.000750996 0.00263031 0.00427642)
(-0.000233403 0.00330984 0.00463228)
(0.00010824 0.00350417 0.0049219)
(0.000590911 0.00379043 0.00514256)
(0.000797579 0.00359019 0.00518745)
(0.000983484 0.00337022 0.00522082)
(0.00105923 0.00293908 0.005224)
(0.00111642 0.00254272 0.0052364)
(0.00112558 0.00211065 0.0052324)
(0.00110696 0.00172561 0.00522752)
(0.00104 0.00136589 0.005223)
(0.00094151 0.00104516 0.00523357)
(0.000810795 0.000765882 0.00525661)
(0.000656624 0.00054483 0.0052844)
(0.000485877 0.000379865 0.00531808)
(0.000310033 0.000269554 0.00535877)
(0.00014313 0.000204399 0.00540256)
(-6.52897e-06 0.000169557 0.00544992)
(-0.000150903 0.000151475 0.00550551)
(-0.000301116 0.000143214 0.00556955)
(-0.000443425 0.000146018 0.00563836)
(-0.000564827 0.000163875 0.00570192)
(-0.000658462 0.000200293 0.00575268)
(-0.000712091 0.000264294 0.00578963)
(-0.00071881 0.000362969 0.00580531)
(-0.000710212 0.00049398 0.00579833)
(-0.000712521 0.000669564 0.00576654)
(-0.000767371 0.00095782 0.00569604)
(-0.000964291 0.00150338 0.00552307)
(-0.00119428 0.0022306 0.00513123)
(-0.000798516 0.00249204 0.00448646)
(0.000381279 0.00133611 0.00404216)
(0.00108006 -0.00106301 0.00356822)
(0.000871612 -0.0033094 0.0031271)
(0.00157421 -0.00469505 0.00264827)
(0.00504839 -0.00735318 0.00331657)
(0.0105837 -0.0111775 0.00357203)
(0.0172681 -0.0129638 0.00272921)
(0.0235398 -0.00704096 -0.00229171)
(0.0478918 -0.00277308 -0.00454461)
(0.0958703 -0.015971 -0.00519563)
(0.0830526 0.0177209 -0.0100333)
(0.0428811 0.0660661 0.00376123)
(0.000947218 0.0457205 0.0291179)
(-0.025654 0.0431502 0.0315019)
(-0.0332636 -0.0592377 0.0201528)
(-0.130413 0.0508457 0.0383639)
(-0.12052 -0.158695 0.0797677)
(-0.205757 0.129253 -0.0787516)
(0.0401395 -0.0221909 0.00311654)
(0.152598 -0.197004 0.146024)
(0.071875 0.0463612 0.0564574)
(0.0203283 -0.086006 0.0404498)
(0.00303785 -0.00296487 -0.00601104)
(0.0187727 0.023136 -0.0141498)
(0.030652 0.0524077 0.00319242)
(0.0406493 0.041172 0.026404)
(0.0487608 0.0331859 0.0314466)
(0.0510071 0.0129994 0.0354909)
(0.0450361 -0.00788581 0.0248312)
(0.0275699 -0.0331418 0.0249191)
(0.00827243 -0.0554969 0.022859)
(-0.00705696 -0.0686504 0.0184439)
(-0.0153458 -0.0809011 0.0176629)
(-0.0192192 -0.100083 0.0135061)
(-0.0262748 -0.121529 0.00827782)
(-0.0270959 -0.138172 0.00398164)
(-0.0193171 -0.146835 -0.0142226)
(0.00343995 -0.143033 -0.0198839)
(0.025232 -0.118152 -0.0440127)
(0.020987 -0.066172 -0.0327033)
(-0.0115422 0.000527875 -0.019518)
(-0.0224547 0.0406363 -0.0267785)
(-0.0190567 0.062254 -0.0286028)
(-0.0151031 0.0699912 -0.0272899)
(-0.0110097 0.069796 -0.0237248)
(-0.00275909 0.0626329 -0.0190081)
(0.00290351 0.0547689 -0.0132272)
(0.00514311 0.041034 -0.00319851)
(-0.000422944 0.0254322 0.000775872)
(-0.0149674 0.0137527 0.0102963)
(-0.0251109 0.00340003 0.0206355)
(-0.0365204 0.00688651 0.020342)
(-0.0498308 0.00514044 0.0209151)
(-0.0669235 0.00673609 0.0170508)
(-0.0815374 0.00469678 0.0173102)
(0.0250734 0.0212886 0.00406797)
(0.0307858 0.0203844 0.00500602)
(0.0226875 0.012109 0.000843586)
(0.0234835 0.0136702 0.000549183)
(0.0136993 0.00555147 -0.00138684)
(0.00775655 0.00587968 -0.0006184)
(0.00175745 0.000973627 0.00271035)
(0.00054104 0.00339774 0.00351539)
(-0.000806255 0.00161924 0.00378045)
(-0.00160708 0.00215459 0.0039141)
(-0.00238538 0.00157849 0.00406631)
(-0.00225347 0.00222824 0.00447308)
(-0.00216352 0.00258661 0.00469661)
(-0.00164159 0.00314473 0.00492557)
(-0.00141722 0.00315166 0.00495385)
(-0.00122238 0.00306983 0.00502592)
(-0.00119711 0.00274558 0.00507613)
(-0.00122868 0.00245619 0.00513918)
(-0.00130683 0.00213474 0.00516388)
(-0.0013936 0.00184109 0.00516104)
(-0.00149388 0.00153791 0.0051323)
(-0.00160694 0.00123372 0.00509976)
(-0.00173403 0.000941984 0.00507001)
(-0.00187652 0.000684299 0.00504936)
(-0.00203627 0.000468265 0.00503915)
(-0.0022041 0.000300475 0.00503456)
(-0.00235492 0.00017758 0.00503803)
(-0.00248206 9.1064e-05 0.00504818)
(-0.00260461 3.90525e-05 0.00506508)
(-0.00274039 2.08428e-05 0.00509361)
(-0.0028772 3.94262e-05 0.00512821)
(-0.00299759 9.95318e-05 0.0051579)
(-0.00309393 0.000210833 0.0051731)
(-0.0031465 0.000398372 0.00516273)
(-0.00314957 0.000693159 0.00512469)
(-0.00314574 0.00111758 0.00506658)
(-0.00319996 0.0016769 0.00496203)
(-0.0033731 0.00238279 0.00478902)
(-0.00355751 0.00322649 0.00454678)
(-0.00320194 0.00384593 0.00428092)
(-0.0015994 0.00345607 0.00415062)
(0.000100919 0.00150737 0.00416305)
(0.000270206 -0.000747891 0.00398048)
(-8.30193e-05 -0.00294346 0.00371898)
(0.00184552 -0.00535453 0.00431156)
(0.00623203 -0.0104337 0.00601432)
(0.0112596 -0.01543 0.00564863)
(0.0166911 -0.0169096 0.0023568)
(0.025332 -0.00982544 -0.00359983)
(0.05662 0.000364684 -0.00215935)
(0.086335 0.00497528 -0.00327139)
(0.0626376 0.050358 -0.0111027)
(0.010821 0.0842909 0.0131434)
(-0.00931374 0.075866 0.036481)
(-0.0338024 0.0800458 0.0300175)
(-0.0666135 0.0402429 0.0459477)
(-0.13005 0.167248 0.10323)
(-0.0737695 -0.18762 0.106871)
(-0.191963 0.180995 -0.144867)
(0.01743 -0.0416729 0.015372)
(0.111539 -0.160601 0.170256)
(0.0457604 0.0690348 0.0471684)
(0.0119052 -0.0598509 0.0543188)
(-0.0314463 0.0543075 -0.0193013)
(-0.00585049 0.0462882 0.00518514)
(0.0144116 0.078647 0.00569578)
(0.0361564 0.076068 0.0055795)
(0.0469967 0.0756023 0.000897147)
(0.0582053 0.0632657 0.0024839)
(0.0622143 0.0371307 0.00604396)
(0.039181 0.00405566 0.0176389)
(0.0124437 -0.0442152 0.018672)
(-0.00169052 -0.073113 0.0117987)
(0.00530127 -0.0864872 0.0112093)
(0.00218086 -0.0968272 0.00662752)
(-0.00336211 -0.0955163 -0.00449438)
(0.00374349 -0.0802378 -0.0133603)
(0.0106949 -0.0524768 -0.0293424)
(0.00475786 0.0087604 -0.0333436)
(-0.0140757 0.0793756 -0.0288932)
(0.00600326 0.116466 -0.044872)
(0.0232524 0.12592 -0.0383767)
(0.032202 0.124549 -0.0316466)
(0.0311753 0.116583 -0.023434)
(0.0274287 0.105788 -0.0160236)
(0.0264883 0.0916318 -0.00640222)
(0.0285911 0.0782255 0.00139402)
(0.0245035 0.0622005 0.00907953)
(0.0205674 0.0453472 0.0195374)
(0.0118744 0.0293989 0.0175749)
(-0.0148489 0.0133918 0.0129821)
(-0.0389124 -0.00114937 0.0175267)
(-0.053811 0.0032344 0.0228017)
(-0.0669234 0.000554395 0.0276746)
(-0.0871136 0.00815638 0.0232109)
(-0.101336 0.002483 0.0217643)
(0.0235645 0.0203976 0.00398205)
(0.0318627 0.0243469 0.00649205)
(0.0235004 0.014087 0.00255953)
(0.025621 0.0159374 0.00250229)
(0.0187845 0.00645984 -0.00136929)
(0.0132329 0.00753333 -0.00226482)
(0.00256117 -6.9206e-05 0.000445923)
(-0.000728315 0.00324991 0.00194269)
(-0.00159751 0.00095768 0.0026968)
(-0.00267755 0.00167815 0.00319785)
(-0.00346536 0.000694968 0.00336103)
(-0.00341556 0.00143036 0.00383993)
(-0.00332093 0.00189026 0.00406681)
(-0.00258544 0.00267121 0.00447131)
(-0.00211105 0.00268007 0.00466732)
(-0.00181634 0.002609 0.00490893)
(-0.00179046 0.00228678 0.00507411)
(-0.00191525 0.00205649 0.005193)
(-0.00207854 0.00184881 0.00522969)
(-0.00222742 0.0016961 0.00520431)
(-0.00236659 0.00153209 0.00511963)
(-0.00250784 0.00134581 0.00500317)
(-0.00266707 0.00114131 0.0048786)
(-0.00283005 0.000936536 0.00475768)
(-0.00298869 0.000750248 0.00464881)
(-0.00313209 0.000601436 0.00454971)
(-0.00324831 0.00047897 0.00446024)
(-0.00334569 0.000374118 0.00438648)
(-0.00344957 0.000292138 0.00433711)
(-0.00356705 0.000249807 0.00432019)
(-0.00368956 0.000271678 0.00432436)
(-0.00380951 0.00037548 0.00432588)
(-0.00393395 0.000582741 0.00430001)
(-0.004064 0.000920854 0.00422238)
(-0.00420653 0.00140652 0.00407828)
(-0.00436761 0.00204383 0.00387417)
(-0.00450656 0.0027854 0.00362426)
(-0.00456184 0.0035385 0.00337868)
(-0.00433713 0.00408942 0.00325371)
(-0.00335458 0.00404191 0.00346111)
(-0.00135327 0.00313006 0.0042564)
(-1.61326e-05 0.00164106 0.00521941)
(-0.00059326 0.000149239 0.00564276)
(-0.00102237 -0.0021043 0.00584736)
(0.00184032 -0.00570162 0.00758419)
(0.00671667 -0.0115574 0.00994082)
(0.0121477 -0.0174643 0.00778941)
(0.0161109 -0.0169338 0.000579473)
(0.0235349 -0.0063155 -0.00584739)
(0.0506936 0.0110379 0.00289915)
(0.0644611 0.025707 0.00174666)
(0.0384322 0.0802614 -0.00320492)
(0.0015745 0.0935474 0.0213504)
(-0.0251119 0.10407 0.0278449)
(-0.0371542 0.121355 0.023035)
(-0.0592567 0.0961086 0.0312512)
(-0.105243 0.165481 0.0839822)
(-0.0634476 -0.0928228 0.038822)
(-0.191347 0.284079 -0.14166)
(0.0221242 -0.0835891 0.0426654)
(0.0401733 -0.137748 0.174882)
(-0.00946632 0.052123 0.0474269)
(-0.0351489 -0.0333404 0.0483228)
(-0.0666148 0.0592139 -0.000986006)
(-0.0323728 0.0457902 0.00939306)
(-0.00301944 0.0844441 0.00968778)
(0.0285644 0.086498 0.0147786)
(0.0570883 0.0923507 0.0109676)
(0.0804953 0.0914165 0.0109715)
(0.092515 0.0846696 0.0113639)
(0.0906604 0.072355 0.014975)
(0.0692878 0.0366183 0.0218195)
(0.0320196 -0.0155413 0.013559)
(0.0195179 -0.0286309 0.000841688)
(0.0156968 -0.0236651 0.00377246)
(-0.00159557 -0.0199672 0.00743089)
(-0.01715 0.0339824 -0.00386469)
(-0.0441826 0.0932109 -0.0241161)
(-0.022741 0.149661 -0.0316717)
(0.0220224 0.156612 -0.0265232)
(0.0378257 0.161323 -0.0247379)
(0.0429822 0.171173 -0.0219599)
(0.0488683 0.170495 -0.0144553)
(0.0464764 0.162857 -0.00770996)
(0.039955 0.143653 0.00312948)
(0.0298075 0.120326 0.010263)
(0.0189781 0.0968712 0.0168462)
(0.0121039 0.0760296 0.0240626)
(0.000915608 0.0543552 0.0203511)
(-0.00989396 0.0366474 0.0124584)
(-0.030521 0.0280032 0.000740092)
(-0.0575203 0.0232461 0.001448)
(-0.075505 0.0246983 0.0113909)
(-0.0904127 0.0197705 0.0213016)
(-0.106236 0.0208661 0.0138224)
(-0.116017 0.00872013 0.0150373)
(0.0204737 0.0184053 0.00458772)
(0.0322321 0.0282725 0.00914514)
(0.022943 0.0158675 0.00515247)
(0.0253485 0.0183047 0.00546372)
(0.0209084 0.00627342 0.00124823)
(0.017491 0.00747281 0.000119418)
(0.00422032 -0.00174653 -0.00072512)
(-0.00140249 0.00291652 0.000667792)
(-0.00294133 0.000317631 0.00180377)
(-0.00389674 0.00161143 0.00263322)
(-0.00512965 0.000470158 0.00260663)
(-0.00573646 0.00116786 0.00330025)
(-0.00595974 0.00138952 0.00365894)
(-0.00498717 0.00206975 0.00446206)
(-0.00438183 0.00192334 0.00496401)
(-0.00411422 0.00185832 0.00543189)
(-0.00423524 0.00159704 0.00570888)
(-0.00458179 0.00148755 0.00585318)
(-0.0049424 0.00143711 0.00586197)
(-0.00521101 0.0014656 0.00578623)
(-0.00538589 0.00149657 0.00562715)
(-0.00550742 0.0015093 0.00542411)
(-0.00560743 0.00149051 0.00520507)
(-0.00569902 0.00143915 0.00499095)
(-0.00582095 0.00137803 0.00481405)
(-0.00591678 0.00133047 0.00466403)
(-0.00595547 0.0012775 0.00454025)
(-0.00596032 0.00120471 0.00446053)
(-0.00597952 0.00112457 0.00442865)
(-0.00605876 0.00107427 0.00443781)
(-0.00618999 0.00110677 0.00446517)
(-0.00634395 0.00125216 0.0044751)
(-0.00652007 0.00152171 0.00443314)
(-0.00668895 0.0019091 0.00431148)
(-0.00682129 0.00237265 0.00409636)
(-0.0069177 0.00286114 0.00380302)
(-0.00695794 0.00332177 0.00345824)
(-0.00688784 0.00355642 0.00320714)
(-0.00641412 0.00347964 0.00325743)
(-0.00520255 0.00285969 0.00395567)
(-0.00376814 0.00185575 0.00532869)
(-0.00351884 0.000785057 0.00689611)
(-0.00439815 0.000110503 0.00778665)
(-0.00384353 -0.00166675 0.00876623)
(2.77783e-06 -0.00642611 0.0108339)
(0.00582575 -0.0128807 0.0119712)
(0.0119738 -0.0169119 0.0071701)
(0.0149665 -0.012816 -0.00351007)
(0.0207977 -0.000613062 -0.00243932)
(0.043006 0.0169498 0.0151874)
(0.0407388 0.050439 0.0140541)
(0.0140527 0.0820974 0.0267964)
(-0.0282778 0.0794598 0.0436354)
(-0.0606418 0.0888104 0.0438978)
(-0.0676668 0.105729 0.0483881)
(-0.0657475 0.0642152 0.0509434)
(-0.101854 0.172797 0.109156)
(-0.0859167 -0.16418 0.000498681)
(-0.135556 0.332048 -0.123539)
(0.000423412 -0.110277 0.058845)
(-0.025404 -0.113698 0.169202)
(-0.047096 0.0763527 0.0489772)
(-0.0676283 -0.0207369 0.0609384)
(-0.0817221 0.0631676 0.00122321)
(-0.0434107 0.0463165 0.0107741)
(-0.00354651 0.0864165 0.0122349)
(0.0261998 0.0931373 0.0194991)
(0.0598475 0.0972512 0.0204986)
(0.0780084 0.104639 0.0240463)
(0.0927397 0.10299 0.0268057)
(0.097176 0.104646 0.0318834)
(0.0920818 0.101786 0.038543)
(0.0683856 0.0791596 0.0407416)
(0.0412658 0.0601758 0.0397777)
(0.0101035 0.0758404 0.0394987)
(-0.0353011 0.102156 0.0227431)
(-0.0511295 0.125015 -0.0077886)
(-0.0343239 0.136175 -0.0249412)
(0.00355584 0.13855 -0.0167914)
(0.0266176 0.141909 -0.0144502)
(0.040421 0.164469 -0.0178793)
(0.0510026 0.171737 -0.0130954)
(0.0545622 0.178902 -0.0168325)
(0.0555346 0.181077 -0.0154101)
(0.0524829 0.176251 -0.00955973)
(0.0437186 0.160091 -0.00387771)
(0.035092 0.142188 0.00279374)
(0.0230507 0.109372 0.0127429)
(0.0141003 0.07751 0.0167411)
(0.00374755 0.0521986 0.0127929)
(-0.0199122 0.0309018 -0.00146967)
(-0.0492621 0.0334103 -0.00674508)
(-0.0689332 0.0333657 0.00206023)
(-0.0868353 0.0278364 0.0107953)
(-0.105017 0.0242799 0.00650708)
(-0.114811 0.0112106 0.00879024)
(0.0174376 0.0124964 0.00446828)
(0.0309056 0.0311934 0.0109333)
(0.0213634 0.0171846 0.00575571)
(0.0248324 0.0223331 0.00568758)
(0.0216848 0.00757271 0.00250227)
(0.0187345 0.0072374 0.0024927)
(0.00510416 -0.0039257 -0.00144066)
(-0.00346501 0.00183673 -0.000604271)
(-0.00353429 -0.00148652 0.00235553)
(-0.00498953 0.00164449 0.00326547)
(-0.00547013 0.000300267 0.0033977)
(-0.00575858 0.0012155 0.00419442)
(-0.0057062 0.000589077 0.00479829)
(-0.00452869 0.000889697 0.00588319)
(-0.00389194 0.000606599 0.00662648)
(-0.00367477 0.000768229 0.00732455)
(-0.00386942 0.00081986 0.0077394)
(-0.00425374 0.00104991 0.0079517)
(-0.00461628 0.00125677 0.00798486)
(-0.00486955 0.00152179 0.0079082)
(-0.00503927 0.00176585 0.00772602)
(-0.00516025 0.0019503 0.00748002)
(-0.00525097 0.002071 0.00721268)
(-0.00532236 0.0021367 0.00695323)
(-0.00539708 0.00214592 0.00671392)
(-0.00545261 0.00211156 0.00650951)
(-0.00545431 0.00205769 0.00635551)
(-0.00541823 0.00198889 0.00625622)
(-0.00540601 0.00190453 0.00619808)
(-0.00548 0.001851 0.00617156)
(-0.00563316 0.00189806 0.00614897)
(-0.00583012 0.00206696 0.00609026)
(-0.00606445 0.00234305 0.00596478)
(-0.00628155 0.00268099 0.00575955)
(-0.00646112 0.00299806 0.00547022)
(-0.00658119 0.00321785 0.00512654)
(-0.00653469 0.00320898 0.0048604)
(-0.00622471 0.00284431 0.00477254)
(-0.00549816 0.00203196 0.00510928)
(-0.00428119 0.000801433 0.00611208)
(-0.00316142 -0.000408365 0.00774982)
(-0.003873 -0.000357715 0.00950071)
(-0.0056996 -0.000122472 0.0104865)
(-0.00482858 -0.00185907 0.0120409)
(0.000181664 -0.0063319 0.0141696)
(0.00647538 -0.0103108 0.012006)
(0.00901789 -0.0088622 0.0028173)
(0.0102677 0.000372764 -0.00163522)
(0.00989944 0.0144604 0.00416212)
(0.0156014 0.052298 0.0283197)
(0.00792936 0.0987245 0.0397811)
(-0.0205908 0.102544 0.0538847)
(-0.0385787 0.0876063 0.0547181)
(-0.0493515 0.0755437 0.0521852)
(-0.0576819 0.0831205 0.0559007)
(-0.0524841 0.00537722 0.0577583)
(-0.0409096 0.127821 0.125508)
(-0.0824851 -0.24443 0.0927264)
(-0.0584372 0.278386 -0.0731504)
(-0.0305587 -0.0856315 0.0484235)
(-0.108728 -0.129705 0.168004)
(-0.0927709 0.0753997 0.0288278)
(-0.0997678 -0.0754953 0.0465569)
(-0.106918 0.0276783 -0.0172182)
(-0.0703985 -0.0127169 0.011456)
(-0.0391899 0.0187682 0.015409)
(-0.00575664 0.00436311 0.00707589)
(0.0237573 0.0177843 0.00814251)
(0.0517751 0.0476938 0.01006)
(0.0730179 0.0757037 0.00972341)
(0.0859422 0.104918 0.0138769)
(0.0873536 0.119723 0.0253334)
(0.0620766 0.1282 0.0277552)
(0.0234226 0.1223 0.02316)
(-0.0115856 0.117199 0.0148669)
(-0.0244856 0.113542 0.000981358)
(-0.0270763 0.112164 -0.00617951)
(0.00478358 0.108351 -0.0162451)
(0.0319272 0.118459 0.000176657)
(0.0380051 0.131771 0.00993157)
(0.0489632 0.139575 0.0175449)
(0.0546826 0.146608 0.0182956)
(0.0567804 0.149921 0.017433)
(0.0517533 0.155591 0.00934449)
(0.0469086 0.164466 0.00637131)
(0.041415 0.165899 0.00214815)
(0.0305331 0.168562 -0.00116633)
(0.0248725 0.169615 -0.00209756)
(0.0151478 0.156351 -0.00114058)
(0.00416439 0.13744 0.00704408)
(-0.0246714 0.115203 0.00511223)
(-0.049328 0.0986399 -0.000964953)
(-0.0668661 0.090458 0.00318361)
(-0.086904 0.0780098 0.00633282)
(-0.100639 0.0523588 -0.00207207)
(-0.107691 0.0261255 -0.0030523)
(0.00997445 0.00229626 0.000998636)
(0.0273554 0.0321717 0.0102312)
(0.0187005 0.0181374 0.00388545)
(0.0235592 0.0271289 0.00331595)
(0.022363 0.0113727 0.00142513)
(0.020356 0.0092206 0.00274746)
(0.006263 -0.00532808 -0.00521777)
(-0.00280364 0.000146909 -0.00522836)
(-0.00663681 -0.00218885 -0.00146543)
(-0.00819774 0.00165369 0.000411437)
(-0.00840523 0.000110506 0.000716885)
(-0.00854362 0.000977087 0.00155177)
(-0.00849578 -0.000146868 0.00212299)
(-0.00790377 3.04509e-05 0.00293539)
(-0.00773999 -0.00017207 0.00354876)
(-0.00786699 0.000218864 0.0042124)
(-0.00823162 0.000471543 0.00476568)
(-0.00867819 0.000882326 0.00516904)
(-0.00909765 0.00120967 0.00539217)
(-0.00941959 0.00155737 0.00547489)
(-0.00951296 0.00186716 0.00542985)
(-0.00949083 0.00212046 0.00530238)
(-0.00942452 0.00231361 0.00513921)
(-0.00932998 0.00243877 0.00497502)
(-0.00923341 0.0024973 0.00481822)
(-0.00912728 0.00250102 0.00467615)
(-0.00899589 0.00247621 0.00455919)
(-0.00886337 0.00244772 0.00447151)
(-0.00878505 0.00242022 0.00441247)
(-0.00885724 0.0024173 0.00437086)
(-0.00907474 0.00249529 0.00432887)
(-0.00931067 0.00265933 0.00425474)
(-0.00952431 0.00289004 0.0041245)
(-0.00963779 0.00313014 0.00392242)
(-0.00960562 0.00329195 0.00366327)
(-0.00941748 0.00328667 0.00340418)
(-0.00902415 0.00299913 0.00324736)
(-0.00849618 0.00231139 0.003301)
(-0.00775584 0.00122512 0.00373363)
(-0.00705844 6.46128e-05 0.00464431)
(-0.00775269 -0.000674806 0.00593701)
(-0.0101422 -0.000354773 0.00693104)
(-0.011592 -0.000895991 0.00739898)
(-0.0101253 -0.00386317 0.00919185)
(-0.00561492 -0.00769448 0.0106853)
(-0.00243662 -0.00864733 0.00571704)
(-9.99453e-05 -0.00345688 -0.00324482)
(0.00198528 0.00553853 -0.00519641)
(-0.0143524 0.0169758 -0.0070703)
(-0.037712 0.0363835 0.019005)
(-0.0205733 0.0899308 0.0465562)
(-0.0196371 0.0975822 0.0494443)
(-0.0351814 0.098971 0.0352887)
(-0.0325166 0.110046 0.0205996)
(-0.0287867 0.12849 0.0221083)
(0.00576789 0.0978744 0.0404375)
(0.0748305 0.199482 0.05163)
(-0.0144336 -0.21761 0.0926213)
(-0.00866699 0.185913 -0.00717104)
(-0.0598493 -0.0420713 0.0249914)
(-0.150752 -0.182396 0.155932)
(-0.0981615 0.0579293 0.0400964)
(-0.101687 -0.108458 0.0342622)
(-0.101152 -0.0350535 0.0104449)
(-0.0654032 -0.0591443 0.0102994)
(-0.0142031 -0.0442301 0.0217186)
(0.0166234 -0.0482019 0.00675176)
(0.0221312 -0.0421194 -0.0024116)
(0.0262603 -0.0312804 -0.00343783)
(0.0357086 -0.0185452 -0.0153528)
(0.0447647 0.00666074 -0.0328685)
(0.0570072 0.0556081 -0.0329246)
(0.0614957 0.103686 -0.0209574)
(0.0523353 0.123975 -0.0137442)
(0.0301019 0.118207 -0.0114018)
(0.0162189 0.108787 -0.0044353)
(0.0169037 0.0935374 0.00392023)
(0.0234943 0.0864689 0.0167274)
(0.0212807 0.0853723 0.0247174)
(0.0291244 0.08082 0.0292284)