/*--------------------------------*- C++ -*----------------------------------*\
| =========                 |                                                 |
| \\      /  F ield         | OpenFOAM: The Open Source CFD Toolbox           |
|  \\    /   O peration     | Version:  2.3.0                                 |
|   \\  /    A nd           | Web:      www.OpenFOAM.org                      |
|    \\/     M anipulation  |                                                 |
\*---------------------------------------------------------------------------*/
FoamFile
{
    version     2.0;
    format      ascii;
    class       volVectorField;
    location    "54";
    object      U.waterMean;
}
// * * * * * * * * * * * * * * * * * * * * * * * * * * * * * * * * * * * * * //

dimensions      [0 1 -1 0 0 0 0];

internalField   nonuniform List<vector> 
6144
(
(0.00989205 0.0197273 -0.000547778)
(0.0101951 -0.00119295 -0.00152289)
(0.00457262 -0.00275768 -0.00252475)
(0.00412763 -0.00333957 -0.00241942)
(0.00258956 -0.00313053 -0.00192334)
(0.0029894 -0.00138818 -0.00166191)
(0.00268804 -0.00149317 -0.0013119)
(0.00264094 -0.000470643 -0.00103204)
(0.00228605 -0.000346046 -0.000893104)
(0.002038 0.000868833 -0.000560389)
(0.00183471 0.00176679 -0.000244081)
(0.00189169 0.002536 0.000195062)
(0.00201821 0.00255096 0.000403476)
(0.00215314 0.00216719 0.000642036)
(0.00222026 0.00148712 0.000582803)
(0.0022973 0.000871685 0.000481602)
(0.00234492 0.000263087 0.000276724)
(0.0023963 -0.000177339 9.74498e-05)
(0.00243757 -0.000535995 -9.16342e-05)
(0.00246848 -0.000746332 -0.000240168)
(0.00248693 -0.000873068 -0.000359077)
(0.00249814 -0.000902671 -0.000438444)
(0.00249707 -0.000888966 -0.000472652)
(0.00248525 -0.000841075 -0.000467148)
(0.00246315 -0.00078205 -0.000429069)
(0.00243362 -0.000719876 -0.000363885)
(0.00240054 -0.000665449 -0.000281581)
(0.00236667 -0.000627997 -0.000192722)
(0.00233141 -0.000606899 -0.000101801)
(0.00229436 -0.000610395 -1.44609e-05)
(0.00225665 -0.000609282 7.18844e-05)
(0.0022139 -0.00065251 0.000163952)
(0.00217071 -0.000655738 0.000268423)
(0.00211977 -0.000774898 0.000393029)
(0.00207481 -0.000809695 0.00054416)
(0.00202583 -0.00111386 0.000714622)
(0.00199568 -0.00126035 0.000883641)
(0.00196683 -0.0018488 0.00100272)
(0.00196647 -0.00204701 0.00102688)
(0.00196894 -0.00276101 0.000894487)
(0.00198235 -0.00263385 0.000567574)
(0.0019856 -0.0029137 1.63962e-05)
(0.00203766 -0.00172058 -0.000564043)
(0.00236474 -0.00128044 -0.00101219)
(0.00303722 2.26841e-05 -0.00143378)
(0.00377649 -0.00061434 -0.00199597)
(0.00414129 0.000379869 -0.00273607)
(0.00344222 0.000702863 -0.00383946)
(0.0029604 0.00663081 -0.00563066)
(0.00678919 0.0101246 -0.00783558)
(0.0183618 0.0104303 -0.0102641)
(0.0270881 -0.0102597 -0.0105022)
(0.0321193 -0.0223715 -0.011502)
(0.030413 -0.05868 -0.0108505)
(0.0254858 -0.0533031 -0.0116431)
(0.0217059 -0.0925176 -0.00783623)
(0.0027638 -0.0454821 -0.0132647)
(0.00573958 -0.0983822 0.0227869)
(-0.0358052 -0.00620076 -0.0454365)
(0.0242562 -0.0307976 0.0378169)
(0.137996 -0.294905 0.0611083)
(0.0941282 -0.120035 0.0272101)
(0.0615243 -0.188505 0.00747708)
(0.0519983 -0.199365 0.00442744)
(0.0433872 -0.199862 0.00513417)
(0.0359546 -0.192854 0.00529043)
(0.0296229 -0.192464 0.0047049)
(0.0248204 -0.186878 0.00439956)
(0.021575 -0.184095 0.00448361)
(0.0187742 -0.177471 0.00477963)
(0.0162628 -0.172583 0.0050822)
(0.0137465 -0.164352 0.00546718)
(0.0116428 -0.156501 0.00599114)
(0.00912982 -0.146958 0.00646017)
(0.00606991 -0.136366 0.00663079)
(0.00366299 -0.123304 0.00521521)
(0.00246642 -0.110133 0.00268357)
(0.00118686 -0.0971104 0.00122945)
(4.52189e-05 -0.0838465 0.0011197)
(0.000981031 -0.0710934 0.00182936)
(0.00245376 -0.0605131 0.00247293)
(0.00303517 -0.0520074 0.00321751)
(0.00308052 -0.046287 0.00430447)
(0.00212346 -0.0418096 0.00456681)
(0.0016235 -0.0366438 0.00408542)
(0.00184804 -0.0305485 0.00342596)
(0.00211397 -0.0242771 0.00320959)
(0.00195599 -0.0176155 0.00250428)
(0.00125968 -0.0113682 0.00149992)
(0.000103984 -0.00323866 0.000848407)
(0.000481979 0.00440309 0.00151901)
(0.00139609 0.010663 0.00265062)
(0.00158471 0.0147796 0.00394529)
(0.00155137 0.0170926 0.00647579)
(0.00265237 0.0164833 0.00989712)
(0.00559603 0.00861129 0.0149856)
(0.0192493 0.0207647 0.00302948)
(0.0204901 0.00683602 0.00246498)
(0.0104993 0.00331607 -0.000615261)
(0.0099788 0.00205633 0.000128733)
(0.00571881 -0.000916461 0.00102076)
(0.0057591 2.12922e-05 0.0015365)
(0.0045038 -0.000914955 0.00209846)
(0.00429434 0.000474917 0.00215496)
(0.00357452 0.000686966 0.00214462)
(0.00318893 0.00222513 0.00220302)
(0.00301935 0.00301445 0.00236735)
(0.00336553 0.00367326 0.00284796)
(0.00373547 0.00349766 0.00309937)
(0.00412966 0.00310232 0.0032944)
(0.00426843 0.00233945 0.00328492)
(0.00441069 0.00166736 0.00325495)
(0.00444681 0.000956025 0.00316757)
(0.00450118 0.000433334 0.00310074)
(0.00452978 -2.02528e-05 0.00302142)
(0.00454757 -0.000313684 0.00297111)
(0.0045458 -0.000517756 0.00293151)
(0.00453801 -0.000608272 0.00290345)
(0.0045106 -0.000645947 0.00290745)
(0.00446538 -0.000636037 0.00294232)
(0.00440334 -0.000605034 0.00300058)
(0.00433045 -0.000560454 0.00307615)
(0.00425567 -0.000515368 0.00315436)
(0.0041856 -0.000481344 0.00322553)
(0.00411615 -0.000461847 0.00329677)
(0.00404493 -0.000466795 0.00336266)
(0.00397462 -0.000471882 0.00342685)
(0.00389678 -0.000532174 0.00349379)
(0.0038271 -0.00055732 0.00356611)
(0.00375103 -0.000718862 0.00364436)
(0.00370916 -0.000779188 0.00373323)
(0.00367027 -0.00112741 0.00382485)
(0.00368903 -0.00124768 0.00391546)
(0.00369114 -0.00184117 0.00398069)
(0.00373503 -0.00193586 0.00400457)
(0.0037132 -0.00264438 0.00393595)
(0.00366554 -0.00237743 0.00372374)
(0.00357813 -0.00278792 0.00327257)
(0.00366269 -0.00174734 0.00264319)
(0.00416278 -0.00198963 0.00210873)
(0.00523775 -0.000725765 0.00156377)
(0.00615877 -0.000862113 0.000757755)
(0.00580996 0.00180227 -0.000472528)
(0.00482468 0.00348052 -0.00191337)
(0.00676579 0.00834942 -0.00337091)
(0.0168341 0.00518251 -0.00437896)
(0.0382229 -0.000367625 -0.00590787)
(0.0524986 -0.0175351 -0.00576731)
(0.0601568 -0.022265 -0.00375731)
(0.0554895 -0.0498968 -0.00128135)
(0.0431536 -0.038261 0.004215)
(0.0421523 -0.0956852 0.0119382)
(0.000646207 -0.0443649 0.012038)
(0.000107443 -0.160908 0.0433948)
(-0.0943197 0.0245648 -0.0734562)
(0.00679572 -0.0838594 0.012861)
(0.176722 -0.262464 0.100196)
(0.0873066 0.00895626 0.0425759)
(0.0251292 -0.113397 0.00951451)
(0.025306 -0.0541888 0.0157282)
(0.0123753 -0.0714875 0.0173228)
(0.00482556 -0.0609826 0.0156242)
(0.00168024 -0.0628797 0.0129453)
(0.00135208 -0.0572523 0.0121602)
(0.00212301 -0.0559752 0.0117382)
(0.00143801 -0.0510328 0.0106453)
(-0.000195703 -0.051072 0.0113093)
(-0.00241942 -0.0503234 0.012197)
(-0.00403184 -0.0521327 0.0126031)
(-0.00652984 -0.0529839 0.0117903)
(-0.00944789 -0.0536958 0.0104631)
(-0.0103691 -0.0513335 0.00919041)
(-0.0099195 -0.0489984 0.00780954)
(-0.010276 -0.0459342 0.00710384)
(-0.010108 -0.0420356 0.00683497)
(-0.00828932 -0.0385136 0.00715972)
(-0.00614408 -0.0343378 0.00729652)
(-0.00440566 -0.0303507 0.00799314)
(-0.00340989 -0.0290391 0.00923391)
(-0.00345131 -0.0291725 0.00933635)
(-0.00384153 -0.028681 0.0081563)
(-0.00334098 -0.0272713 0.00699897)
(-0.0028364 -0.0239703 0.00547687)
(-0.0029164 -0.0193196 0.00394584)
(-0.00328109 -0.0143262 0.00258142)
(-0.00380547 -0.00851508 0.00167515)
(-0.00324686 -0.00289069 0.00264693)
(-0.00187048 0.00183816 0.0039971)
(-0.00192499 0.00708212 0.00594577)
(-0.00222624 0.00892488 0.00964649)
(-0.00179256 0.00973073 0.0139411)
(0.00100407 0.00335726 0.0196114)
(0.0225471 0.0207158 0.00413903)
(0.0245469 0.0116064 0.00403646)
(0.0146408 0.00691887 0.00124458)
(0.0135258 0.00630432 0.00217717)
(0.0070092 0.00170173 0.00291681)
(0.00612284 0.00220395 0.00313401)
(0.00356844 0.000291986 0.00371312)
(0.00316149 0.00157481 0.00361134)
(0.00223004 0.00156731 0.00354002)
(0.00211933 0.00278386 0.00361299)
(0.00202498 0.00299356 0.00368263)
(0.00267538 0.00350176 0.00397807)
(0.00312217 0.00325947 0.00416318)
(0.00362609 0.00311153 0.00432128)
(0.00381227 0.00256547 0.00431058)
(0.00400194 0.00210586 0.00429942)
(0.0040206 0.00151993 0.00425146)
(0.00406381 0.00107705 0.00422947)
(0.00404445 0.000645134 0.00420974)
(0.0040209 0.000336911 0.00421503)
(0.00396256 7.62753e-05 0.00423181)
(0.00389137 -9.36275e-05 0.00426685)
(0.00381046 -0.000212084 0.00430854)
(0.00372378 -0.000275953 0.00435637)
(0.00362962 -0.00030934 0.00440715)
(0.00353303 -0.000320577 0.00445954)
(0.00343577 -0.000323258 0.00451349)
(0.00333873 -0.000324229 0.00457049)
(0.00324301 -0.00032702 0.00462969)
(0.00314297 -0.000346971 0.00469065)
(0.00304354 -0.000366683 0.00475304)
(0.00293953 -0.000438349 0.00481667)
(0.00284989 -0.000477903 0.00488203)
(0.00275411 -0.00063639 0.00494658)
(0.00270539 -0.000674308 0.00501072)
(0.00265904 -0.000936734 0.00506588)
(0.00269087 -0.000907488 0.00511132)
(0.00270575 -0.00125322 0.00512996)
(0.00279168 -0.00104106 0.00511542)
(0.00280021 -0.00139412 0.00503622)
(0.00284881 -0.000830178 0.00486031)
(0.00281587 -0.00118206 0.00461772)
(0.00299346 -0.000364895 0.00438608)
(0.00352924 -0.00107791 0.0041882)
(0.00441095 0.000170074 0.00367316)
(0.00516598 0.000104519 0.00304299)
(0.00512652 0.00256222 0.00205621)
(0.00584786 0.00184899 0.000800725)
(0.0111614 0.00439217 -0.000446361)
(0.0269759 -0.00258509 -0.000496745)
(0.052555 -0.00500011 -0.00188673)
(0.0704626 -0.0128573 -0.000720929)
(0.0757818 -0.0072038 0.002518)
(0.0702605 -0.0239828 0.00568162)
(0.0611556 -0.00970606 0.0152028)
(0.0566027 -0.0752902 0.0238063)
(0.00153065 -0.0112716 0.0347294)
(0.0155962 -0.184738 0.0633548)
(-0.113213 0.0722133 -0.0595341)
(0.0301216 -0.11695 -0.0170237)
(0.200185 -0.23748 0.10319)
(0.107234 0.0584548 0.0470708)
(0.0747749 -0.0874073 0.0242766)
(0.046435 -0.00166017 0.0160787)
(0.0303078 -0.032454 0.0132572)
(0.0203147 -0.0156843 0.013663)
(0.0176274 -0.0206551 0.0138784)
(0.0131753 -0.0146077 0.0116589)
(0.0114605 -0.0113704 0.0103576)
(0.0111735 -0.00612546 0.010926)
(0.00970385 -0.00655837 0.0128323)
(0.00650038 -0.00679148 0.0142079)
(0.00403606 -0.0101668 0.0145362)
(0.00109041 -0.0116402 0.0136936)
(-0.00212301 -0.0143583 0.0116787)
(-0.00394889 -0.0147237 0.00966277)
(-0.00474774 -0.0137142 0.00897406)
(-0.00606394 -0.0122492 0.00905795)
(-0.00738949 -0.0119447 0.0098496)
(-0.00698554 -0.0119516 0.0102386)
(-0.00547204 -0.0115415 0.0105576)
(-0.00370288 -0.0114636 0.0115899)
(-0.00272913 -0.0130121 0.0129472)
(-0.00416395 -0.0148089 0.0122169)
(-0.00523069 -0.0164659 0.0110663)
(-0.0054267 -0.0171664 0.00940175)
(-0.00514812 -0.0160878 0.00697179)
(-0.00500041 -0.0143449 0.00426357)
(-0.00480047 -0.0117046 0.00133935)
(-0.00483837 -0.00655581 -0.000272668)
(-0.00463931 -0.00217673 0.00247711)
(-0.00459937 0.00128113 0.00566814)
(-0.00463728 0.00441959 0.00862969)
(-0.00495002 0.0047572 0.012104)
(-0.00639653 0.00579338 0.0162996)
(-0.00625166 0.000577706 0.0211781)
(0.0237205 0.0207811 0.00437847)
(0.027191 0.0148858 0.00453685)
(0.0166704 0.00866204 0.000989826)
(0.0164688 0.0094453 0.00141432)
(0.00883521 0.00358696 0.00204053)
(0.00737725 0.00425674 0.00252101)
(0.00317137 0.000845703 0.00349867)
(0.00223909 0.00182465 0.00349301)
(0.000913126 0.001097 0.00359493)
(0.00103505 0.00230061 0.00372722)
(0.000961974 0.00216611 0.00388135)
(0.00159421 0.00277562 0.00428171)
(0.00196374 0.00274113 0.00448487)
(0.00248954 0.00289071 0.0046458)
(0.00270645 0.0025393 0.00461986)
(0.00291744 0.00226004 0.00462282)
(0.00292569 0.00176623 0.004595)
(0.00295426 0.00139773 0.00460166)
(0.00290638 0.000997389 0.00459854)
(0.00286099 0.000698979 0.00461064)
(0.00277474 0.000421987 0.0046248)
(0.00267938 0.000217641 0.00465089)
(0.00256879 5.01754e-05 0.0046825)
(0.0024546 -6.4374e-05 0.0047205)
(0.00233948 -0.000141809 0.00476224)
(0.00222808 -0.000186703 0.00480755)
(0.00212324 -0.000212046 0.0048542)
(0.002026 -0.000227857 0.00490186)
(0.00193478 -0.000241209 0.0049513)
(0.00184578 -0.000265703 0.00500285)
(0.00176345 -0.000287088 0.00505652)
(0.00168229 -0.000346842 0.00511015)
(0.00162037 -0.000367637 0.00516081)
(0.00155608 -0.000481333 0.00520297)
(0.00154036 -0.000461728 0.00523188)
(0.00151414 -0.000626689 0.00523896)
(0.00156387 -0.000476617 0.00522213)
(0.00156998 -0.000651027 0.00517184)
(0.00165127 -0.000242841 0.00508912)
(0.00164515 -0.000379837 0.00496091)
(0.00175943 0.000362377 0.00477757)
(0.00186826 6.81883e-05 0.00457724)
(0.00223055 0.000749768 0.00440705)
(0.00260989 -0.000127022 0.00426642)
(0.00321614 0.000658709 0.00405021)
(0.00388878 -0.000172498 0.00390555)
(0.00462555 0.00133295 0.00349749)
(0.00653086 -0.00146507 0.00246079)
(0.0145446 -0.00105739 0.0015652)
(0.0308971 -0.00864736 0.00150051)
(0.0558313 -0.00515355 0.000931378)
(0.0730383 -0.000711088 0.00374355)
(0.079837 0.0152238 0.00791614)
(0.0762673 0.0107193 0.0119873)
(0.0674008 0.0316465 0.0251276)
(0.0609565 -0.0265457 0.0413216)
(0.0189986 0.0592392 0.0766777)
(0.0356462 -0.194735 0.10204)
(-0.148664 0.198885 -0.0402789)
(0.0301234 -0.209694 0.00873072)
(0.185037 -0.200852 0.111622)
(0.0797869 0.0841467 0.0344636)
(0.0530453 -0.0415726 0.0237181)
(0.0155148 0.0466762 0.00430876)
(0.0120667 0.0227396 0.00762172)
(0.00195603 0.0419971 0.00830644)
(0.000827883 0.0388413 0.00992182)
(-0.00015295 0.0449428 0.00998383)
(0.00135934 0.0430855 0.00912792)
(0.00211068 0.0459118 0.0084808)
(0.00197303 0.0438297 0.00938611)
(0.00105243 0.041649 0.00970431)
(-0.00110798 0.0373329 0.00980473)
(-0.00408482 0.0343513 0.00955963)
(-0.00667551 0.0301493 0.00849845)
(-0.0083947 0.0278698 0.0085126)
(-0.00982132 0.0246944 0.00866311)
(-0.0105503 0.0229093 0.00856272)
(-0.0110121 0.019988 0.00984899)
(-0.0106749 0.0184804 0.0111155)
(-0.0100734 0.0165962 0.0128005)
(-0.00977897 0.0154344 0.0124811)
(-0.00967817 0.0142721 0.0132134)
(-0.0100102 0.0113337 0.0127177)
(-0.0112674 0.00862322 0.0118989)
(-0.0118137 0.00602913 0.0105804)
(-0.0109057 0.00431204 0.00670969)
(-0.00927473 0.0044403 0.00388581)
(-0.00913068 0.00383321 0.00137659)
(-0.00850341 0.00634908 -0.000307775)
(-0.00781975 0.00842312 0.0035052)
(-0.0077731 0.0079465 0.00682823)
(-0.00821929 0.00757552 0.00964506)
(-0.00994269 0.00509763 0.0136494)
(-0.0140157 0.00486721 0.0169815)
(-0.0161425 -0.000480454 0.0215855)
(0.023736 0.0209345 0.00451281)
(0.029048 0.0179489 0.00516988)
(0.018314 0.00995401 0.00088054)
(0.0195256 0.0117595 0.000972267)
(0.0110282 0.00435485 0.000329936)
(0.00930629 0.00581207 0.000918836)
(0.00368113 0.00111337 0.00217851)
(0.00206823 0.00231326 0.00267593)
(-0.000243466 0.000289736 0.00305504)
(-0.000354006 0.00140991 0.00342616)
(-0.000693896 0.00100694 0.00366999)
(-0.000316763 0.00189094 0.00422355)
(-0.000121142 0.00209839 0.00443498)
(0.000447857 0.00255044 0.00462466)
(0.000706487 0.00236648 0.00457088)
(0.000918697 0.00219878 0.00459225)
(0.000871555 0.00176421 0.00457726)
(0.000808402 0.00146359 0.004607)
(0.000673778 0.0011128 0.00460747)
(0.000564377 0.000851427 0.00460957)
(0.000432826 0.000582703 0.00459814)
(0.000310859 0.000365316 0.00459353)
(0.000187512 0.000172119 0.00459283)
(6.67192e-05 2.74957e-05 0.0046)
(-5.3678e-05 -8.17351e-05 0.00461239)
(-0.000163994 -0.000156089 0.00463074)
(-0.000261535 -0.000206877 0.00465349)
(-0.000344935 -0.000243071 0.00467912)
(-0.000418619 -0.000270036 0.0047051)
(-0.000489645 -0.000296523 0.00473161)
(-0.000556453 -0.000311604 0.00475843)
(-0.000623126 -0.000348623 0.00478273)
(-0.000673378 -0.000337426 0.00480168)
(-0.0007274 -0.000388753 0.00480717)
(-0.0007313 -0.000292822 0.00479345)
(-0.000747276 -0.000340298 0.00474854)
(-0.000686269 -6.24105e-05 0.00467107)
(-0.000677297 -6.25134e-05 0.00455254)
(-0.000579369 0.00052237 0.00440981)
(-0.000554561 0.000563313 0.00425948)
(-0.000302929 0.00138202 0.00414622)
(-8.09188e-06 0.00102901 0.0040534)
(0.000590883 0.00154862 0.0039156)
(0.00118235 0.00039727 0.0037281)
(0.00194709 0.000746098 0.00371675)
(0.00255598 -0.000741069 0.00382737)
(0.00380287 -0.000247863 0.00422224)
(0.00711556 -0.00444038 0.00386192)
(0.0166797 -0.00620316 0.00387177)
(0.0312739 -0.0102864 0.00521648)
(0.0497264 0.000773336 0.00655934)
(0.0651037 0.0159773 0.0117782)
(0.0713547 0.0438998 0.0149672)
(0.0688466 0.0525022 0.0191045)
(0.0608694 0.081924 0.0350381)
(0.0499375 0.0427174 0.0513073)
(0.0216003 0.130791 0.0861771)
(0.0289031 -0.109356 0.102742)
(-0.121455 0.309943 -0.0113312)
(0.0185448 -0.27089 0.0160135)
(0.161275 -0.163459 0.114277)
(0.0619508 0.0963726 0.0287057)
(0.0536827 0.00094125 0.0261746)
(0.0184575 0.0784663 0.003205)
(0.0180618 0.0659575 0.00845276)
(0.00810582 0.0825362 0.00864214)
(0.00747352 0.0811994 0.00970757)
(0.00478579 0.0873628 0.00884007)
(0.00437417 0.0866077 0.00871413)
(0.00373089 0.0893427 0.00938418)
(0.00403224 0.0869407 0.010982)
(0.00314797 0.0860794 0.0113303)
(0.00269691 0.0835553 0.0114626)
(0.00168835 0.0801478 0.0111507)
(0.000842105 0.0757823 0.0112637)
(-0.000842427 0.0715353 0.0107019)
(-0.00222637 0.0681382 0.0099448)
(-0.00431134 0.0651918 0.00955177)
(-0.00615884 0.0627777 0.0113396)
(-0.0075822 0.0606265 0.0130821)
(-0.0088269 0.0579983 0.0136136)
(-0.010041 0.0534419 0.0150184)
(-0.0104155 0.0474363 0.015725)
(-0.0106354 0.0410039 0.0140432)
(-0.010566 0.0348468 0.010908)
(-0.0091844 0.0302951 0.00661691)
(-0.00707492 0.0275622 0.00273022)
(-0.00535277 0.0263004 0.00102321)
(-0.00563513 0.0253748 0.000226767)
(-0.00507869 0.0244206 0.00313545)
(-0.00637992 0.0219434 0.0069639)
(-0.00730658 0.0182076 0.009215)
(-0.00859737 0.0152693 0.0128005)
(-0.0123587 0.00891288 0.016196)
(-0.0194396 0.00703829 0.0177869)
(-0.0261013 -0.000485856 0.0206284)
(0.0223831 0.0205672 0.00505582)
(0.0303758 0.0213557 0.00646339)
(0.019028 0.0110443 0.00178105)
(0.0217451 0.0138386 0.00230428)
(0.0135076 0.00390177 -0.000157913)
(0.0114524 0.0063594 -0.000190379)
(0.00475984 0.000454433 0.00079169)
(0.00239434 0.00268868 0.00152631)
(-0.000428889 -0.000341538 0.00218974)
(-0.00133981 0.000680904 0.00279431)
(-0.00197175 -0.000274673 0.00308706)
(-0.00179258 0.000843895 0.00380442)
(-0.00153211 0.00130106 0.0041089)
(-0.000774219 0.00211008 0.00448765)
(-0.000304041 0.00199108 0.00458477)
(-1.46782e-05 0.00189424 0.00473618)
(-8.07242e-05 0.00148106 0.00476764)
(-0.000212583 0.00126155 0.00480869)
(-0.000405185 0.00100673 0.00478471)
(-0.000551784 0.000855227 0.00474736)
(-0.000706802 0.000678387 0.00467749)
(-0.000844695 0.000531858 0.00460309)
(-0.000986729 0.000382637 0.00452788)
(-0.0011165 0.000259391 0.00446216)
(-0.00122967 0.000158533 0.00440542)
(-0.00132184 8.72455e-05 0.00435779)
(-0.0013925 3.56741e-05 0.0043193)
(-0.00144647 -2.61602e-06 0.00428989)
(-0.00149291 -3.22361e-05 0.00426907)
(-0.00153397 -5.68773e-05 0.00425871)
(-0.00156878 -6.18609e-05 0.0042573)
(-0.00160025 -6.89836e-05 0.00425795)
(-0.00161726 -1.52583e-05 0.00425521)
(-0.00163876 6.98361e-06 0.00423534)
(-0.00162293 0.000183916 0.00419037)
(-0.00163284 0.000247525 0.00410757)
(-0.00159216 0.000616723 0.00398597)
(-0.00162712 0.000712503 0.00382155)
(-0.00157209 0.00131295 0.00364844)
(-0.00152905 0.00132078 0.00352346)
(-0.00118151 0.00200235 0.00351578)
(-0.000720583 0.00156462 0.00358811)
(4.63518e-05 0.00199051 0.00357997)
(0.000743238 0.000765732 0.00356)
(0.00155956 0.00103461 0.00387908)
(0.00211035 -0.000776152 0.00430758)
(0.00393481 -0.00159543 0.00473405)
(0.0089042 -0.00621827 0.00456073)
(0.0162156 -0.00804977 0.00576252)
(0.0247195 -0.00906996 0.00983364)
(0.0351656 0.00596691 0.0139683)
(0.0439906 0.0289658 0.0197794)
(0.0526843 0.0633249 0.025747)
(0.0541635 0.0795932 0.0334216)
(0.0496405 0.108472 0.0489867)
(0.0423774 0.074907 0.0584703)
(0.0333646 0.147806 0.0792177)
(0.04718 -0.0825166 0.0787795)
(-0.0318026 0.347661 0.020454)
(0.0200333 -0.308161 0.0224451)
(0.104728 -0.122146 0.108654)
(0.0271132 0.112716 0.0174928)
(0.0240036 0.0495477 0.0193058)
(3.15919e-05 0.114676 0.00325213)
(0.00141816 0.11304 0.0108054)
(-0.00272212 0.126755 0.0118114)
(-0.000806347 0.126011 0.0132258)
(1.46568e-05 0.131598 0.0131748)
(0.00224427 0.129947 0.0139585)
(0.00379472 0.131315 0.0148884)
(0.00530394 0.128143 0.0151655)
(0.0057302 0.127193 0.0147573)
(0.00645629 0.124307 0.0143341)
(0.00606704 0.122895 0.0138952)
(0.00500098 0.120222 0.0139443)
(0.00309614 0.117174 0.0138812)
(0.00124304 0.1141 0.0139751)
(-0.00095986 0.110956 0.0147184)
(-0.00359757 0.106586 0.0155711)
(-0.00582673 0.100178 0.0160593)
(-0.00752828 0.0927808 0.0166228)
(-0.00884378 0.0836936 0.0164329)
(-0.0086433 0.0748332 0.0143783)
(-0.00774484 0.0664156 0.0105286)
(-0.00695931 0.0603645 0.00610791)
(-0.00567819 0.0563332 0.00227255)
(-0.00428667 0.0538242 -0.000710942)
(-0.00407923 0.0518893 -0.00102019)
(-0.00493917 0.0486478 0.00188248)
(-0.00652696 0.0431239 0.00678041)
(-0.00857057 0.0363662 0.00875758)
(-0.0103395 0.0302635 0.0111689)
(-0.012385 0.0246029 0.0152535)
(-0.0168189 0.016259 0.0186171)
(-0.0243251 0.0116221 0.0196729)
(-0.0309832 0.000467169 0.0186694)
(0.0189273 0.0190353 0.00523238)
(0.0304321 0.0251043 0.00854804)
(0.0179565 0.0115651 0.00373475)
(0.0217499 0.0160452 0.00502867)
(0.0142914 0.00295921 0.00151194)
(0.0122913 0.00604735 0.00067247)
(0.00485471 -0.000953178 0.000850579)
(0.00231929 0.00261409 0.0011091)
(-0.000863991 -0.00070201 0.00164393)
(-0.00228525 0.000587926 0.0024176)
(-0.00364376 -0.000928293 0.00262039)
(-0.00432188 0.000226835 0.00339221)
(-0.00445489 0.000598812 0.00381853)
(-0.00345727 0.00150675 0.00458568)
(-0.00285074 0.00136637 0.00498786)
(-0.00257236 0.00139659 0.00532757)
(-0.00277947 0.0010697 0.00540353)
(-0.00311202 0.000982228 0.00541201)
(-0.00346469 0.000849405 0.00531954)
(-0.00369817 0.000837038 0.00521161)
(-0.00388218 0.000792542 0.00506769)
(-0.00400704 0.000774829 0.00492452)
(-0.00410908 0.000732287 0.00478475)
(-0.00419393 0.00069192 0.00466534)
(-0.00427659 0.000652977 0.00457074)
(-0.00433113 0.0006268 0.00449331)
(-0.00435643 0.000602451 0.00443126)
(-0.00435536 0.000578353 0.00439208)
(-0.00434248 0.00055413 0.0043744)
(-0.00433275 0.000533948 0.00437559)
(-0.00433121 0.000539738 0.00439112)
(-0.00433477 0.000561672 0.00441022)
(-0.00433797 0.000658414 0.00442269)
(-0.00435053 0.00074822 0.00441169)
(-0.00432466 0.000982605 0.00437474)
(-0.0043119 0.00110281 0.00430303)
(-0.00423012 0.00146844 0.00420656)
(-0.00419248 0.00150589 0.00407953)
(-0.00404601 0.00191598 0.00394773)
(-0.00392736 0.00166219 0.0038358)
(-0.00355047 0.00204328 0.00380134)
(-0.00310217 0.00145884 0.00377395)
(-0.002204 0.00194415 0.00374798)
(-0.00137327 0.000950208 0.00393301)
(-0.000530501 0.00121256 0.00440949)
(0.000510758 -0.000728494 0.00484825)
(0.00361514 -0.00214871 0.00504287)
(0.00849354 -0.00560899 0.00510769)
(0.0136152 -0.00568221 0.00676097)
(0.0152206 -0.00197599 0.0127094)
(0.013213 0.0174013 0.0202454)
(0.0175689 0.0414735 0.0257881)
(0.0248901 0.0791408 0.0331706)
(0.0301808 0.101162 0.0419578)
(0.0363477 0.126693 0.054208)
(0.041507 0.0928969 0.0596614)
(0.0503189 0.16028 0.0714043)
(0.0448462 -0.0692198 0.0610118)
(0.0106807 0.341109 0.0498925)
(0.00921529 -0.325607 0.0281854)
(0.0427974 -0.0797372 0.0938855)
(0.000411779 0.128092 0.0179984)
(0.00174885 0.0926802 0.0162094)
(-0.0100925 0.149453 0.00483001)
(-0.00507047 0.147463 0.013793)
(-0.00433185 0.158668 0.0140581)
(-0.0014969 0.156896 0.0148174)
(-0.000342917 0.16224 0.0148738)
(0.0014482 0.162879 0.0159511)
(0.00347699 0.165609 0.0166311)
(0.00598753 0.164041 0.0167311)
(0.00692094 0.165758 0.0162732)
(0.00819212 0.165086 0.0165894)
(0.00785652 0.164889 0.0166648)
(0.00738024 0.162873 0.017369)
(0.0055418 0.159797 0.0175209)
(0.00358185 0.155239 0.0175543)
(0.0014444 0.149222 0.0173074)
(1.83053e-05 0.142414 0.0169089)
(-0.00116313 0.133996 0.0174534)
(-0.00188023 0.124245 0.0174299)
(-0.00195385 0.114431 0.0156986)
(-0.000628065 0.105782 0.0125673)
(0.000700712 0.0991509 0.00837493)
(0.00199073 0.0947798 0.00432608)
(0.00287409 0.0905784 -0.000127254)
(0.00262839 0.0872436 -0.00210535)
(0.00206921 0.0827543 -0.000456701)
(0.00154783 0.0751822 0.00183075)
(7.80168e-05 0.0660279 0.00481239)
(-0.00309806 0.0543064 0.00641373)
(-0.00766343 0.043695 0.0079862)
(-0.0126271 0.0338183 0.0108184)
(-0.0189991 0.0227844 0.01333)
(-0.0272654 0.0148024 0.0157294)
(-0.0384782 0.000546296 0.0127382)
(0.0159043 0.0137941 0.00433382)
(0.02929 0.0281878 0.00947009)
(0.0154743 0.0116696 0.00446754)
(0.0206104 0.0190862 0.00597781)
(0.0140363 0.00322052 0.00262629)
(0.0116901 0.00616472 0.0016238)
(0.00337576 -0.00219678 0.00156643)
(0.000711092 0.00234117 0.00129057)
(-0.00156833 -0.00131012 0.00211927)
(-0.00311905 0.000858646 0.00279286)
(-0.00438559 -0.00100512 0.00307441)
(-0.00514099 -1.93226e-06 0.00393026)
(-0.00509923 -0.00051948 0.00461984)
(-0.00393401 0.000112665 0.00564865)
(-0.00329036 -0.000108675 0.00637508)
(-0.00303563 0.000299915 0.00697933)
(-0.0032311 0.000355614 0.00725647)
(-0.00351542 0.000662319 0.00735399)
(-0.00381709 0.000783109 0.00729021)
(-0.00400378 0.000986175 0.00717425)
(-0.00415609 0.00109642 0.00700432)
(-0.00425107 0.00119598 0.00683032)
(-0.0043226 0.00123555 0.00666235)
(-0.00437063 0.00125629 0.00651675)
(-0.00440603 0.00124972 0.00639259)
(-0.00441528 0.00123258 0.00629449)
(-0.00439591 0.00121097 0.00622277)
(-0.00435253 0.00118671 0.00617556)
(-0.00430198 0.0011602 0.00614916)
(-0.00426119 0.00114213 0.00614103)
(-0.00423842 0.00115894 0.00614288)
(-0.0042306 0.00120786 0.00614177)
(-0.00423405 0.00133873 0.00612815)
(-0.00424272 0.00147203 0.0060932)
(-0.00420948 0.00172062 0.00603647)
(-0.00418591 0.00183505 0.00595358)
(-0.00407865 0.00211892 0.00585985)
(-0.00399377 0.00204392 0.00575112)
(-0.003765 0.00227101 0.00565195)
(-0.0035792 0.00187692 0.00556189)
(-0.00323172 0.00209934 0.00551103)
(-0.00290203 0.00144567 0.00545434)
(-0.00216217 0.00189809 0.00543544)
(-0.00133618 0.000937762 0.00565159)
(-0.000543994 0.00132852 0.00604147)
(0.000738599 -0.000944574 0.00603273)
(0.00349982 -0.000992953 0.00535218)
(0.00636124 -0.00127167 0.00557412)
(0.00721142 0.00241767 0.00797537)
(0.000754425 0.0106357 0.017122)
(-0.00774234 0.0293186 0.02671)
(-0.0118219 0.0506009 0.0307106)
(-0.00713176 0.0845327 0.0339773)
(0.00822949 0.110921 0.0394531)
(0.0262844 0.140977 0.0506143)
(0.0523335 0.126714 0.0576432)
(0.0771133 0.181783 0.0719654)
(0.085904 -0.00948539 0.0654773)
(0.0946897 0.375208 0.0370899)
(-0.0037625 -0.346944 0.027862)
(-0.04285 -0.0461766 0.0637129)
(-0.0350499 0.160427 -0.00536048)
(-0.0319315 0.131114 0.00455627)
(-0.023064 0.17928 -0.000656432)
(-0.016573 0.172577 0.00883214)
(-0.00903275 0.178471 0.0082782)
(-0.00584402 0.176458 0.00851132)
(-0.00162071 0.180081 0.00833896)
(0.00172771 0.181254 0.0093623)
(0.00575271 0.182588 0.0105526)
(0.00805792 0.182739 0.0109973)
(0.00894676 0.184324 0.0114181)
(0.0100327 0.184818 0.0125979)
(0.0113234 0.186146 0.0141265)
(0.0121668 0.185354 0.0156803)
(0.0124166 0.182404 0.0169233)
(0.0126156 0.177848 0.017897)
(0.0125429 0.171354 0.0184774)
(0.0124002 0.163937 0.0189145)
(0.0120607 0.155554 0.0190608)
(0.0114705 0.14755 0.0187224)
(0.0113445 0.139012 0.0176241)
(0.0111837 0.132118 0.0152655)
(0.0107602 0.127523 0.0113531)
(0.00990542 0.125075 0.00815857)
(0.00836358 0.123775 0.00633508)
(0.0078515 0.121857 0.00602677)
(0.00795744 0.118969 0.00590404)
(0.00830666 0.115328 0.00642187)
(0.00778395 0.110259 0.0085655)
(0.00522561 0.101239 0.0113811)
(0.000496243 0.0901176 0.0143732)
(-0.0043224 0.0761854 0.0167041)
(-0.0113288 0.0580933 0.0170262)
(-0.0207978 0.0366303 0.0119241)
(-0.0297949 0.00797445 -0.00332001)
(0.0066223 0.00846422 -0.00219733)
(0.0267035 0.0299015 0.00774472)
(0.0115346 0.0120972 0.00220355)
(0.0185972 0.0230752 0.00370717)
(0.013344 0.00550001 0.00140431)
(0.0109931 0.00772138 0.000389626)
(0.00152273 -0.00258448 -0.00185198)
(-0.00079353 0.00265296 -0.0021238)
(-0.00390535 -0.00121284 -0.00116647)
(-0.00523395 0.00138501 -0.000447488)
(-0.00657376 -0.000894549 -6.29916e-05)
(-0.00730702 -0.00014344 0.000794566)
(-0.00773559 -0.00138557 0.00151484)
(-0.00716719 -0.000851107 0.00238731)
(-0.00712276 -0.00098014 0.00311289)
(-0.00719242 -0.000283574 0.00373273)
(-0.0075982 -1.81907e-05 0.00419593)
(-0.00794259 0.000495665 0.00448457)
(-0.00829109 0.00074182 0.00460064)
(-0.00848578 0.00104779 0.00461828)
(-0.00857843 0.00122835 0.00455674)
(-0.00857749 0.00138871 0.00447206)
(-0.00855046 0.00147845 0.00438359)
(-0.00850458 0.00153556 0.00430615)
(-0.00844908 0.00155552 0.00423816)
(-0.00837751 0.00155555 0.00418229)
(-0.00828884 0.00154597 0.00413911)
(-0.00818694 0.00153644 0.0041086)
(-0.00808779 0.00153128 0.00408894)
(-0.00802482 0.0015372 0.00407784)
(-0.00800434 0.00157248 0.00407022)
(-0.00800302 0.00163671 0.00405697)
(-0.00801045 0.00176569 0.00403214)
(-0.00800304 0.00188614 0.00399016)
(-0.0079229 0.00209875 0.00392953)
(-0.00781363 0.00218639 0.00385558)
(-0.00760561 0.00243262 0.00377121)
(-0.00742628 0.00235864 0.00367888)
(-0.00718728 0.00256884 0.00357294)
(-0.00705646 0.00217721 0.00346059)
(-0.00675158 0.00234383 0.0033353)
(-0.00643468 0.00159956 0.00319266)
(-0.00564673 0.00182985 0.0030442)
(-0.00483141 0.000664927 0.00315755)
(-0.00392646 0.000888682 0.00329334)
(-0.00298081 -0.00147851 0.00265874)
(-0.00121548 0.00071192 0.002245)
(0.000116585 0.000709296 0.00262355)
(-0.00278567 0.00707904 0.005437)
(-0.0139492 0.0125603 0.0145102)
(-0.0291014 0.0237537 0.026348)
(-0.0343374 0.0333591 0.0308341)
(-0.0332241 0.0562564 0.0295616)
(-0.018738 0.068663 0.025916)
(0.00131648 0.113683 0.0343085)
(0.0372882 0.0821464 0.0409549)
(0.0733208 0.179476 0.0605493)
(0.0989839 -0.0312008 0.0666466)
(0.178634 0.403143 0.034078)
(-0.010094 -0.329204 0.0219472)
(-0.114737 -0.0868173 0.0444008)
(-0.0569049 0.15043 -0.00932178)
(-0.0540757 0.0865416 0.00393504)
(-0.0250886 0.138715 0.00232858)
(-0.0217861 0.111657 0.0117117)
(-0.00780355 0.113937 0.00902804)
(-0.00603763 0.102197 0.00695028)
(-0.00267561 0.101491 0.00481497)