/*--------------------------------*- C++ -*----------------------------------*\
| =========                 |                                                 |
| \\      /  F ield         | OpenFOAM: The Open Source CFD Toolbox           |
|  \\    /   O peration     | Version:  2.3.0                                 |
|   \\  /    A nd           | Web:      www.OpenFOAM.org                      |
|    \\/     M anipulation  |                                                 |
\*---------------------------------------------------------------------------*/
FoamFile
{
    version     2.0;
    format      ascii;
    class       volScalarField;
    location    "36";
    object      alpha.airMean;
}
// * * * * * * * * * * * * * * * * * * * * * * * * * * * * * * * * * * * * * //

dimensions      [0 0 0 0 0 0 0];

internalField   nonuniform List<scalar> 
6144
(
0.999993
0.999992
0.999992
0.999992
0.999991
0.999991
0.999991
0.99999
0.99999
0.99999
0.99999
0.99999
0.99999
0.99999
0.99999
0.99999
0.99999
0.99999
0.99999
0.99999
0.99999
0.99999
0.99999
0.99999
0.99999
0.99999
0.99999
0.99999
0.99999
0.99999
0.99999
0.99999
0.99999
0.99999
0.99999
0.99999
0.99999
0.99999
0.99999
0.99999
0.99999
0.99999
0.99999
0.99999
0.99999
0.999989
0.999986
0.99998
0.999969
0.999955
0.999942
0.999929
0.999923
0.999916
0.999913
0.999906
0.999903
0.999897
0.998698
0.935133
0.0361279
0.000233716
1.11383e-06
8.16561e-07
8.14653e-07
8.07415e-07
8.07836e-07
8.01978e-07
8.03006e-07
7.9918e-07
7.98728e-07
7.95405e-07
7.92357e-07
7.88713e-07
7.85416e-07
7.82027e-07
7.80628e-07
7.79038e-07
7.75999e-07
7.69531e-07
7.59764e-07
7.49338e-07
7.40149e-07
7.30895e-07
7.17698e-07
6.96787e-07
6.77072e-07
6.60953e-07
6.39879e-07
6.08741e-07
5.75542e-07
5.47934e-07
5.11552e-07
4.76087e-07
4.41509e-07
4.23494e-07
0.999993
0.999993
0.999992
0.999992
0.999991
0.999991
0.999991
0.99999
0.99999
0.99999
0.99999
0.99999
0.99999
0.99999
0.99999
0.99999
0.99999
0.99999
0.99999
0.99999
0.99999
0.99999
0.99999
0.99999
0.99999
0.99999
0.99999
0.99999
0.99999
0.99999
0.99999
0.99999
0.99999
0.99999
0.99999
0.99999
0.99999
0.99999
0.99999
0.99999
0.99999
0.99999
0.99999
0.99999
0.99999
0.999989
0.999986
0.999979
0.999972
0.999962
0.999944
0.999928
0.999919
0.99991
0.999905
0.999898
0.999897
0.999887
0.99938
0.949514
0.0304926
0.000123923
8.75606e-07
8.54308e-07
8.46578e-07
8.43318e-07
8.42597e-07
8.39619e-07
8.3885e-07
8.28282e-07
8.24207e-07
8.16142e-07
8.12599e-07
8.07934e-07
8.04189e-07
8.00764e-07
7.99943e-07
7.98147e-07
7.92253e-07
7.82742e-07
7.70832e-07
7.58124e-07
7.43906e-07
7.30334e-07
7.13974e-07
6.95282e-07
6.7964e-07
6.68562e-07
6.56374e-07
6.36133e-07
6.10343e-07
5.75199e-07
5.35484e-07
5.02572e-07
4.68404e-07
4.3647e-07
0.999993
0.999993
0.999992
0.999992
0.999991
0.999991
0.999991
0.99999
0.99999
0.99999
0.99999
0.99999
0.99999
0.99999
0.99999
0.99999
0.99999
0.99999
0.99999
0.99999
0.99999
0.99999
0.99999
0.99999
0.99999
0.99999
0.99999
0.99999
0.99999
0.99999
0.99999
0.99999
0.99999
0.99999
0.99999
0.99999
0.99999
0.99999
0.99999
0.99999
0.99999
0.99999
0.99999
0.99999
0.99999
0.999989
0.999985
0.99998
0.999973
0.999962
0.999939
0.999921
0.99991
0.999901
0.999896
0.99989
0.999891
0.999881
0.999588
0.940083
0.0265359
7.99441e-05
1.7119e-06
1.74128e-06
1.70952e-06
1.65945e-06
1.47507e-06
1.26962e-06
1.07547e-06
9.38652e-07
8.79277e-07
8.51216e-07
8.37373e-07
8.25397e-07
8.23112e-07
8.18176e-07
8.15275e-07
8.1003e-07
8.01147e-07
7.90682e-07
7.79768e-07
7.64936e-07
7.47674e-07
7.28557e-07
7.11399e-07
6.96991e-07
6.87214e-07
6.83022e-07
6.75321e-07
6.58943e-07
6.37778e-07
6.02629e-07
5.56143e-07
5.1864e-07
4.88181e-07
4.46387e-07
0.999994
0.999993
0.999993
0.999992
0.999992
0.999991
0.999991
0.99999
0.99999
0.99999
0.99999
0.99999
0.99999
0.99999
0.99999
0.99999
0.99999
0.99999
0.99999
0.99999
0.99999
0.99999
0.99999
0.99999
0.99999
0.99999
0.99999
0.99999
0.99999
0.99999
0.99999
0.99999
0.99999
0.99999
0.99999
0.99999
0.99999
0.99999
0.99999
0.99999
0.99999
0.99999
0.99999
0.99999
0.99999
0.999988
0.999986
0.999981
0.999973
0.999958
0.999932
0.999913
0.999902
0.999893
0.999889
0.999883
0.999886
0.999872
0.999689
0.916014
0.0225945
7.56463e-05
3.16802e-05
2.86936e-05
2.76441e-05
2.59405e-05
2.2943e-05
1.85427e-05
1.3568e-05
8.92553e-06
5.40653e-06
3.11976e-06
1.91105e-06
1.38544e-06
1.1883e-06
1.07373e-06
9.79043e-07
8.99189e-07
8.43165e-07
8.09896e-07
7.98477e-07
7.88009e-07
7.75167e-07
7.58961e-07
7.5214e-07
7.53817e-07
7.47846e-07
7.40942e-07
7.25821e-07
6.9604e-07
6.69634e-07
6.347e-07
5.82429e-07
5.37465e-07
5.04445e-07
4.56113e-07
0.999994
0.999994
0.999993
0.999993
0.999992
0.999992
0.999991
0.999991
0.99999
0.99999
0.99999
0.99999
0.99999
0.99999
0.99999
0.99999
0.99999
0.99999
0.99999
0.99999
0.99999
0.99999
0.99999
0.99999
0.99999
0.99999
0.99999
0.99999
0.99999
0.99999
0.99999
0.99999
0.99999
0.99999
0.99999
0.99999
0.99999
0.99999
0.99999
0.99999
0.99999
0.99999
0.99999
0.99999
0.999989
0.999988
0.999986
0.99998
0.99997
0.999953
0.999925
0.999905
0.999896
0.999888
0.999884
0.99988
0.999881
0.999867
0.999719
0.885589
0.0240513
0.000513874
0.000462934
0.000407297
0.000388987
0.000360557
0.000324782
0.000280177
0.000235796
0.00019193
0.000152024
0.000117836
9.0521e-05
7.04581e-05
5.7136e-05
4.79624e-05
4.11311e-05
3.57028e-05
3.13671e-05
2.79674e-05
2.56325e-05
2.40556e-05
2.28897e-05
2.10828e-05
2.01016e-05
1.91269e-05
1.76161e-05
1.53083e-05
1.2636e-05
9.19966e-06
5.51316e-06
2.93851e-06
1.47519e-06
7.99938e-07
5.78712e-07
4.97863e-07
0.999994
0.999994
0.999993
0.999993
0.999992
0.999992
0.999991
0.999991
0.99999
0.99999
0.99999
0.99999
0.99999
0.99999
0.99999
0.99999
0.99999
0.99999
0.99999
0.99999
0.99999
0.99999
0.99999
0.99999
0.99999
0.99999
0.99999
0.99999
0.99999
0.99999
0.99999
0.99999
0.99999
0.99999
0.99999
0.99999
0.99999
0.99999
0.99999
0.99999
0.99999
0.99999
0.99999
0.99999
0.999989
0.999988
0.999985
0.999978
0.999968
0.999949
0.99992
0.999901
0.999892
0.999886
0.999884
0.999882
0.999885
0.999869
0.999765
0.843936
0.0233498
0.00267045
0.00273545
0.00259722
0.00256901
0.00245486
0.00233009
0.00218373
0.00204171
0.00190066
0.00175635
0.00161399
0.00147599
0.00134476
0.00122592
0.00112101
0.00103182
0.000954643
0.000885107
0.000818511
0.000747578
0.000675949
0.000603556
0.000540811
0.00049967
0.000479974
0.000466569
0.00044528
0.000404909
0.000338206
0.000256167
0.000174154
0.000103848
5.12314e-05
1.94723e-05
7.55361e-06
0.999994
0.999994
0.999994
0.999993
0.999993
0.999992
0.999992
0.999991
0.999991
0.99999
0.99999
0.99999
0.99999
0.99999
0.99999
0.99999
0.99999
0.99999
0.99999
0.99999
0.99999
0.99999
0.99999
0.99999
0.99999
0.99999
0.99999
0.99999
0.99999
0.99999
0.99999
0.99999
0.99999
0.99999
0.99999
0.99999
0.99999
0.99999
0.99999
0.99999
0.99999
0.99999
0.99999
0.99999
0.999989
0.999988
0.999984
0.999978
0.999966
0.999945
0.999916
0.999898
0.99989
0.999887
0.999886
0.999885
0.999888
0.999878
0.999825
0.79561
0.0257238
0.00700747
0.00736399
0.00729088
0.00723897
0.00710843
0.00696442
0.0068277
0.00669578
0.00655136
0.00640955
0.00624224
0.00608333
0.00590816
0.00572894
0.00553289
0.00534442
0.00513689
0.00491853
0.00466568
0.00439535
0.00410882
0.00383033
0.0035719
0.00333973
0.00312495
0.00294115
0.00276332
0.00256097
0.00235103
0.00210369
0.00181548
0.00148147
0.00109165
0.000672498
0.000353759
0.999994
0.999994
0.999994
0.999994
0.999993
0.999992
0.999992
0.999991
0.999991
0.99999
0.99999
0.99999
0.99999
0.99999
0.99999
0.99999
0.99999
0.99999
0.99999
0.99999
0.99999
0.99999
0.99999
0.99999
0.99999
0.99999
0.99999
0.99999
0.99999
0.99999
0.99999
0.99999
0.99999
0.99999
0.99999
0.99999
0.99999
0.99999
0.99999
0.99999
0.99999
0.99999
0.99999
0.99999
0.999989
0.999988
0.999985
0.999977
0.999962
0.99994
0.999914
0.999898
0.999892
0.99989
0.999891
0.999892
0.999894
0.999882
0.999809
0.77737
0.0282588
0.0108936
0.01152
0.0115633
0.0114875
0.0114316
0.0113807
0.0113874
0.0114035
0.0114298
0.0114687
0.011498
0.0115151
0.0115149
0.0115078
0.0114923
0.0114654
0.0114251
0.0113619
0.0113067
0.0112843
0.0113211
0.0114268
0.0116209
0.0118828
0.0121945
0.012531
0.0128587
0.0131804
0.0134972
0.0137378
0.0138795
0.0138015
0.0132983
0.0119476
0.00980688
0.999994
0.999994
0.999994
0.999994
0.999993
0.999992
0.999992
0.999991
0.999991
0.999991
0.99999
0.99999
0.99999
0.99999
0.99999
0.99999
0.99999
0.99999
0.99999
0.99999
0.99999
0.99999
0.99999
0.99999
0.99999
0.99999
0.99999
0.99999
0.99999
0.99999
0.99999
0.99999
0.99999
0.99999
0.99999
0.99999
0.99999
0.99999
0.99999
0.99999
0.99999
0.99999
0.99999
0.99999
0.999989
0.999988
0.999984
0.999976
0.999961
0.999941
0.999918
0.999902
0.999895
0.999893
0.999894
0.999893
0.999897
0.999886
0.999809
0.840898
0.0267526
0.00623504
0.00607173
0.00546805
0.00514416
0.00491782
0.00480719
0.0047389
0.00471357
0.00470506
0.00471927
0.00472825
0.00473719
0.00474192
0.00475077
0.00476319
0.00478064
0.00479685
0.00480394
0.0048034
0.0048058
0.00479589
0.00477943
0.00474281
0.00468052
0.00460677
0.00452973
0.00446064
0.00437912
0.0042667
0.00410956
0.00383195
0.00336694
0.00269675
0.00174251
0.000912032
0.999995
0.999994
0.999994
0.999994
0.999993
0.999992
0.999992
0.999991
0.999991
0.999991
0.99999
0.99999
0.99999
0.99999
0.99999
0.99999
0.99999
0.99999
0.99999
0.99999
0.99999
0.99999
0.99999
0.99999
0.99999
0.99999
0.99999
0.99999
0.99999
0.99999
0.99999
0.99999
0.99999
0.99999
0.99999
0.99999
0.99999
0.99999
0.99999
0.99999
0.99999
0.99999
0.99999
0.99999
0.999989
0.999987
0.999984
0.999976
0.999965
0.999948
0.999925
0.999909
0.9999
0.999894
0.999894
0.999893
0.999898
0.99989
0.999865
0.903433
0.0218076
0.00164142
0.00141345
0.00109675
0.000986035
0.000922172
0.000907199
0.000892095
0.000889141
0.000883575
0.000879484
0.000870591
0.000861982
0.000852758
0.000846157
0.000842951
0.000848029
0.000863249
0.000901512
0.000955258
0.00101886
0.00108844
0.00114748
0.00118439
0.00120256
0.0012128
0.00121327
0.00120075
0.00116864
0.0010949
0.000969212
0.000785278
0.000563092
0.000329342
0.000146357
6.35959e-05
0.999995
0.999994
0.999994
0.999994
0.999993
0.999992
0.999992
0.999991
0.999991
0.99999
0.99999
0.99999
0.99999
0.99999
0.99999
0.99999
0.99999
0.99999
0.99999
0.99999
0.99999
0.99999
0.99999
0.99999
0.99999
0.99999
0.99999
0.99999
0.99999
0.99999
0.99999
0.99999
0.99999
0.99999
0.99999
0.99999
0.99999
0.99999
0.99999
0.99999
0.99999
0.99999
0.99999
0.99999
0.999989
0.999987
0.999984
0.999977
0.999967
0.999953
0.999934
0.999918
0.999907
0.999899
0.999897
0.999894
0.9999
0.999889
0.99987
0.943836
0.0232564
0.000201832
0.000118867
8.02601e-05
7.51543e-05
7.35463e-05
7.61553e-05
7.70983e-05
7.70771e-05
7.64848e-05
7.56758e-05
7.4029e-05
7.18957e-05
6.9232e-05
6.65795e-05
6.38098e-05
6.20158e-05
6.19729e-05
6.52657e-05
7.11764e-05
7.90421e-05
8.73248e-05
9.4658e-05
0.000100511
0.000105598
0.000110361
0.000114844
0.000115852
0.000110288
9.81386e-05
7.84952e-05
5.36973e-05
3.04817e-05
1.32551e-05
4.92668e-06
2.32251e-06
0.999996
0.999995
0.999994
0.999994
0.999994
0.999993
0.999992
0.999991
0.999991
0.99999
0.99999
0.99999
0.99999
0.99999
0.99999
0.99999
0.99999
0.99999
0.99999
0.99999
0.99999
0.99999
0.99999
0.99999
0.99999
0.99999
0.99999
0.99999
0.99999
0.99999
0.99999
0.99999
0.99999
0.99999
0.99999
0.99999
0.99999
0.99999
0.99999
0.99999
0.99999
0.99999
0.99999
0.99999
0.999989
0.999988
0.999985
0.999978
0.999969
0.999956
0.99994
0.999926
0.999916
0.999906
0.999902
0.999898
0.999902
0.999887
0.99982
0.966898
0.0353948
8.92587e-05
2.98475e-06
1.99739e-06
2.13237e-06
2.31022e-06
2.5267e-06
2.63395e-06
2.58812e-06
2.62593e-06
2.65077e-06
2.57956e-06
2.43064e-06
2.24707e-06
2.04727e-06
1.85628e-06
1.7274e-06
1.65387e-06
1.70108e-06
1.82116e-06
2.01583e-06
2.27999e-06
2.58878e-06
2.90033e-06
3.19873e-06
3.47963e-06
3.69972e-06
3.66883e-06
3.31978e-06
2.8161e-06
2.20573e-06
1.54587e-06
1.01797e-06
7.11206e-07
5.81157e-07
4.8948e-07
0.999996
0.999996
0.999995
0.999995
0.999994
0.999993
0.999992
0.999991
0.999991
0.99999
0.99999
0.99999
0.99999
0.99999
0.99999
0.99999
0.99999
0.99999
0.99999
0.99999
0.99999
0.99999
0.99999
0.99999
0.99999
0.99999
0.99999
0.99999
0.99999
0.99999
0.99999
0.99999
0.99999
0.99999
0.99999
0.99999
0.99999
0.99999
0.99999
0.99999
0.99999
0.99999
0.99999
0.99999
0.99999
0.999988
0.999985
0.999979
0.99997
0.999957
0.999943
0.999931
0.999923
0.999912
0.999908
0.999902
0.999905
0.999885
0.999734
0.974285
0.0493922
0.000170787
9.91611e-07
9.16739e-07
9.10327e-07
9.11241e-07
9.06161e-07
9.01064e-07
8.94655e-07
8.87337e-07
8.82792e-07
8.76359e-07
8.71997e-07
8.65161e-07
8.54421e-07
8.43527e-07
8.38281e-07
8.33939e-07
8.26023e-07
8.18928e-07
8.16086e-07
8.15706e-07
8.10303e-07
8.00872e-07
7.88466e-07
7.73212e-07
7.58598e-07
7.42121e-07
7.18582e-07
6.92511e-07
6.69635e-07
6.38034e-07
5.9577e-07
5.66015e-07
5.22275e-07
4.48889e-07
0.999997
0.999996
0.999996
0.999995
0.999995
0.999994
0.999993
0.999991
0.999991
0.99999
0.99999
0.99999
0.99999
0.99999
0.99999
0.99999
0.99999
0.99999
0.99999
0.99999
0.99999
0.99999
0.99999
0.99999
0.99999
0.99999
0.99999
0.99999
0.99999
0.99999
0.99999
0.99999
0.99999
0.99999
0.99999
0.99999
0.99999
0.99999
0.99999
0.99999
0.99999
0.99999
0.99999
0.99999
0.99999
0.999989
0.999986
0.99998
0.999971
0.999958
0.999944
0.999931
0.999924
0.999915
0.999911
0.999904
0.999903
0.999873
0.999658
0.970847
0.0584553
0.000305868
1.21218e-06
9.01573e-07
8.92433e-07
8.91384e-07
8.91811e-07
8.85093e-07
8.81346e-07
8.75842e-07
8.71335e-07
8.63726e-07
8.5769e-07
8.50469e-07
8.43509e-07
8.36735e-07
8.30853e-07
8.2696e-07
8.22454e-07
8.17581e-07
8.11776e-07
8.08773e-07
8.05592e-07
8.00467e-07
7.92221e-07
7.79657e-07
7.59698e-07
7.35533e-07
7.02829e-07
6.65032e-07
6.35694e-07
6.14966e-07
5.86517e-07
5.61516e-07
5.19331e-07
4.43242e-07
0.999997
0.999996
0.999996
0.999996
0.999996
0.999995
0.999994
0.999992
0.999991
0.99999
0.99999
0.99999
0.99999
0.99999
0.99999
0.99999
0.99999
0.99999
0.99999
0.99999
0.99999
0.99999
0.99999
0.99999
0.99999
0.99999
0.99999
0.99999
0.99999
0.99999
0.99999
0.99999
0.99999
0.99999
0.99999
0.99999
0.99999
0.99999
0.99999
0.99999
0.99999
0.99999
0.99999
0.99999
0.99999
0.999989
0.999986
0.999981
0.999971
0.999959
0.999945
0.999932
0.999925
0.999917
0.999912
0.999905
0.999899
0.999872
0.9996
0.965299
0.0575897
0.000277532
1.12362e-06
8.92533e-07
8.83863e-07
8.76406e-07
8.73858e-07
8.68431e-07
8.65721e-07
8.59129e-07
8.56618e-07
8.5163e-07
8.46858e-07
8.41686e-07
8.36146e-07
8.29976e-07
8.24119e-07
8.21233e-07
8.18349e-07
8.15024e-07
8.10852e-07
8.06038e-07
8.01624e-07
7.96985e-07
7.91794e-07
7.8398e-07
7.69481e-07
7.45895e-07
7.10658e-07
6.66262e-07
6.30181e-07
6.02801e-07
5.77368e-07
5.4598e-07
4.98246e-07
4.34867e-07
0.999998
0.999997
0.999997
0.999996
0.999996
0.999995
0.999995
0.999993
0.999991
0.99999
0.99999
0.99999
0.99999
0.99999
0.99999
0.99999
0.99999
0.99999
0.99999
0.99999
0.99999
0.99999
0.99999
0.99999
0.99999
0.99999
0.99999
0.99999
0.99999
0.99999
0.99999
0.99999
0.99999
0.99999
0.99999
0.99999
0.99999
0.99999
0.99999
0.99999
0.99999
0.99999
0.99999
0.99999
0.99999
0.999989
0.999986
0.999981
0.999971
0.999958
0.999944
0.999932
0.999925
0.999919
0.999915
0.999904
0.999902
0.999878
0.999282
0.956645
0.0636366
0.000572431
1.91125e-06
8.89499e-07
8.85157e-07
8.76558e-07
8.717e-07
8.64728e-07
8.63183e-07
8.57404e-07
8.54008e-07
8.49109e-07
8.44674e-07
8.40431e-07
8.36155e-07
8.31721e-07
8.27246e-07
8.2301e-07
8.19078e-07
8.16077e-07
8.11851e-07
8.05863e-07
8.01309e-07
7.97283e-07
7.92529e-07
7.8734e-07
7.77818e-07
7.5921e-07
7.28239e-07
6.85985e-07
6.38017e-07
5.93548e-07
5.57648e-07
5.10928e-07
4.66004e-07
4.17071e-07
0.999993
0.999992
0.999992
0.999992
0.999991
0.999991
0.999991
0.99999
0.99999
0.99999
0.99999
0.99999
0.99999
0.99999
0.99999
0.99999
0.99999
0.99999
0.99999
0.99999
0.99999
0.99999
0.99999
0.99999
0.99999
0.99999
0.99999
0.99999
0.99999
0.99999
0.99999
0.99999
0.99999
0.99999
0.99999
0.99999
0.99999
0.99999
0.99999
0.99999
0.99999
0.99999
0.99999
0.99999
0.99999
0.999989
0.999986
0.99998
0.999969
0.999955
0.999942
0.999931
0.999925
0.999919
0.999915
0.99991
0.999908
0.999884
0.9992
0.946388
0.0349325
0.000131294
8.73083e-07
8.18041e-07
8.1346e-07
8.04212e-07
8.03823e-07
7.97288e-07
7.97243e-07
7.92914e-07
7.92451e-07
7.88565e-07
7.86216e-07
7.82283e-07
7.78776e-07
7.7536e-07
7.72318e-07
7.69494e-07
7.65761e-07
7.5879e-07
7.50665e-07
7.41755e-07
7.32433e-07
7.20259e-07
7.07864e-07
6.96233e-07
6.85309e-07
6.74679e-07
6.60932e-07
6.39825e-07
6.13919e-07
5.84372e-07
5.47029e-07
5.10508e-07
4.73678e-07
4.38345e-07
0.999994
0.999993
0.999992
0.999992
0.999991
0.999991
0.999991
0.999991
0.99999
0.99999
0.99999
0.99999
0.99999
0.99999
0.99999
0.99999
0.99999
0.99999
0.99999
0.99999
0.99999
0.99999
0.99999
0.99999
0.99999
0.99999
0.99999
0.99999
0.99999
0.99999
0.99999
0.99999
0.99999
0.99999
0.99999
0.99999
0.99999
0.99999
0.99999
0.99999
0.99999
0.99999
0.99999
0.99999
0.99999
0.999989
0.999986
0.999979
0.999971
0.99996
0.999946
0.999932
0.999921
0.999913
0.99991
0.999905
0.999903
0.999877
0.999575
0.919889
0.0161448
1.33832e-05
8.29548e-07
8.86096e-07
8.63845e-07
8.60204e-07
8.57565e-07
8.44903e-07
8.41927e-07
8.31593e-07
8.26129e-07
8.14045e-07
8.06961e-07
7.9997e-07
7.95065e-07
7.90655e-07
7.87466e-07
7.8385e-07
7.78219e-07
7.71245e-07
7.62342e-07
7.52133e-07
7.37355e-07
7.21148e-07
7.05233e-07
6.90407e-07
6.77869e-07
6.67962e-07
6.57567e-07
6.43016e-07
6.25974e-07
6.01901e-07
5.66617e-07
5.3731e-07
5.10648e-07
4.63357e-07
0.999994
0.999993
0.999992
0.999992
0.999992
0.999991
0.999991
0.999991
0.999991
0.99999
0.99999
0.99999
0.99999
0.99999
0.99999
0.99999
0.99999
0.99999
0.99999
0.99999
0.99999
0.99999
0.99999
0.99999
0.99999
0.99999
0.99999
0.99999
0.99999
0.99999
0.99999
0.99999
0.99999
0.99999
0.99999
0.99999
0.99999
0.99999
0.99999
0.99999
0.99999
0.99999
0.99999
0.99999
0.99999
0.999989
0.999986
0.99998
0.999972
0.999962
0.999944
0.999924
0.999911
0.999903
0.999901
0.999899
0.999899
0.999871
0.999711
0.894853
0.0142815
5.1764e-06
4.62105e-06
4.14346e-06
3.97911e-06
3.2714e-06
2.65739e-06
1.96561e-06
1.50641e-06
1.1804e-06
1.01578e-06
9.16072e-07
8.6796e-07
8.47804e-07
8.38285e-07
8.30151e-07
8.22902e-07
8.15108e-07
8.07945e-07
7.98667e-07
7.86392e-07
7.72414e-07
7.55678e-07
7.34298e-07
7.1462e-07
6.99526e-07
6.86847e-07
6.75669e-07
6.65499e-07
6.53393e-07
6.40975e-07
6.1862e-07
5.81778e-07
5.5098e-07
5.26875e-07
4.80037e-07
0.999994
0.999994
0.999993
0.999992
0.999992
0.999992
0.999991
0.999991
0.999991
0.999991
0.99999
0.99999
0.99999
0.99999
0.99999
0.99999
0.99999
0.99999
0.99999
0.99999
0.99999
0.99999
0.99999
0.99999
0.99999
0.99999
0.99999
0.99999
0.99999
0.99999
0.99999
0.99999
0.99999
0.99999
0.99999
0.99999
0.99999
0.99999
0.99999
0.99999
0.99999
0.99999
0.99999
0.99999
0.999989
0.999988
0.999986
0.99998
0.999972
0.999961
0.999935
0.999911
0.999898
0.999893
0.999892
0.999885
0.999876
0.99985
0.999775
0.840278
0.00807624
0.000206361
0.000184012
0.000154831
0.000143065
0.000118145
9.3397e-05
6.887e-05
4.83386e-05
3.21635e-05
2.09192e-05
1.34853e-05
9.05035e-06
6.57715e-06
5.36368e-06
4.7385e-06
4.41218e-06
4.21657e-06
4.05022e-06
3.8676e-06
3.69338e-06
3.52333e-06
3.32771e-06
3.08584e-06
2.83416e-06
2.54617e-06
2.21613e-06
1.88771e-06
1.41182e-06
1.03034e-06
8.10583e-07
7.13328e-07
6.62193e-07
6.09105e-07
5.59365e-07
5.00596e-07
0.999994
0.999994
0.999993
0.999993
0.999992
0.999992
0.999992
0.999991
0.999991
0.999991
0.99999
0.99999
0.99999
0.99999
0.99999
0.99999
0.99999
0.99999
0.99999
0.99999
0.99999
0.99999
0.99999
0.99999
0.99999
0.99999
0.99999
0.99999
0.99999
0.99999
0.99999
0.99999
0.99999
0.99999
0.99999
0.99999
0.99999
0.99999
0.99999
0.99999
0.99999
0.99999
0.99999
0.99999
0.999989
0.999988
0.999985
0.99998
0.99997
0.999954
0.999923
0.999901
0.999889
0.999883
0.999876
0.999865
0.999855
0.999841
0.999838
0.760325
0.00970092
0.00293046
0.00278048
0.00250814
0.00233365
0.0020664
0.00180242
0.00153192
0.0012738
0.00103596
0.000834462
0.000669425
0.000542202
0.000449968
0.000384144
0.000340391
0.000313463
0.000297982
0.000291514
0.000290288
0.000291967
0.000289644
0.000283675
0.000274961
0.000260981
0.000244438
0.000224688
0.000190258
0.000144385
9.61577e-05
5.47516e-05
2.603e-05
1.05376e-05
3.86609e-06
1.45094e-06
7.72225e-07
0.999995
0.999995
0.999994
0.999993
0.999992
0.999992
0.999992
0.999991
0.999991
0.999991
0.99999
0.99999
0.99999
0.99999
0.99999
0.99999
0.99999
0.99999
0.99999
0.99999
0.99999
0.99999
0.99999
0.99999
0.99999
0.99999
0.99999
0.99999
0.99999
0.99999
0.99999
0.99999
0.99999
0.99999
0.99999
0.99999
0.99999
0.99999
0.99999
0.99999
0.99999
0.99999
0.99999
0.99999
0.99999
0.999988
0.999985
0.999978
0.999969
0.999949
0.999913
0.999894
0.999884
0.999875
0.999865
0.999858
0.999856
0.999853
0.999825
0.641968
0.0194681
0.0126795
0.0129483
0.0127676
0.0125778
0.0122406
0.0118553
0.0114044
0.0108529
0.0102468
0.00959031
0.00891879
0.00825244
0.0076139
0.00702329
0.00650948
0.00606958
0.00570249
0.00541124
0.00518262
0.00498438
0.00480251
0.00460563
0.00444212
0.00425706
0.00402524
0.00378254
0.00348476
0.00311976
0.00264921
0.00212531
0.00156357
0.00102018
0.000561057
0.000238311
8.4494e-05
0.999995
0.999995
0.999994
0.999993
0.999993
0.999992
0.999992
0.999991
0.999991
0.999991
0.99999
0.99999
0.99999
0.99999
0.99999
0.99999
0.99999
0.99999
0.99999
0.99999
0.99999
0.99999
0.99999
0.99999
0.99999
0.99999
0.99999
0.99999
0.99999
0.99999
0.99999
0.99999
0.99999
0.99999
0.99999
0.99999
0.99999
0.99999
0.99999
0.99999
0.99999
0.99999
0.99999
0.99999
0.99999
0.999988
0.999985
0.999977
0.999967
0.999944
0.999908
0.99989
0.999881
0.999875
0.99987
0.999866
0.999867
0.999861
0.999531
0.579848
0.0292755
0.0232574
0.0243004
0.0247902
0.0252052
0.025639
0.026034
0.0264331
0.026777
0.027129
0.0274516
0.0277585
0.0279964
0.0281688
0.0282374
0.0282305
0.0281398
0.0279998
0.0277857
0.0274806
0.0270497
0.0264908
0.025865
0.025193
0.0244384
0.0236757
0.0228733
0.0220887
0.0213885
0.020698
0.0198376
0.0186001
0.0168972
0.0145859
0.0117776
0.00929341
0.999995
0.999995
0.999995
0.999994
0.999993
0.999993
0.999992
0.999991
0.999991
0.999991
0.99999
0.99999
0.99999
0.99999
0.99999
0.99999
0.99999
0.99999
0.99999
0.99999
0.99999
0.99999
0.99999
0.99999
0.99999
0.99999
0.99999
0.99999
0.99999
0.99999
0.99999
0.99999
0.99999
0.99999
0.99999
0.99999
0.99999
0.99999
0.99999
0.99999
0.99999
0.99999
0.99999
0.99999
0.99999
0.999988
0.999985
0.999976
0.999962
0.999939
0.999909
0.999892
0.999885
0.999883
0.999882
0.999881
0.999884
0.999881
0.999193
0.678901
0.0315765
0.0205894
0.0214354
0.0217022
0.0221157
0.0228021
0.0237032
0.0247861
0.0259851
0.0272939
0.0286839
0.0301978
0.0318105
0.0334766
0.035216
0.0370253
0.0389492
0.0410174
0.0432224
0.045576
0.0480717
0.05075
0.0536777
0.0568729
0.0604526
0.0643439
0.0684971
0.0730648
0.0783386
0.0844236
0.0917635
0.101002
0.113709
0.13465
0.183289
0.378785
0.999995
0.999995
0.999995
0.999995
0.999994
0.999993
0.999992
0.999991
0.999991
0.999991
0.99999
0.99999
0.99999
0.99999
0.99999
0.99999
0.99999
0.99999
0.99999
0.99999
0.99999
0.99999
0.99999
0.99999
0.99999
0.99999
0.99999
0.99999
0.99999
0.99999
0.99999
0.99999
0.99999
0.99999
0.99999
0.99999
0.99999
0.99999
0.99999
0.99999
0.99999
0.99999
0.99999
0.99999
0.99999
0.999988
0.999985
0.999978
0.999965
0.999943
0.999917
0.999901
0.999892
0.999888
0.999886
0.999884
0.999886
0.999882
0.999831
0.825335
0.0213974
0.00614303
0.00570614
0.00479312
0.00440818
0.00407657
0.00391938
0.00385282
0.00387728
0.00393312
0.00403419
0.00412528
0.00424202
0.00440696
0.0046443
0.00493127
0.00526974
0.00564364
0.00605855
0.0065318
0.00706403
0.00766288
0.00826091
0.00880117
0.00925632
0.00968629
0.0100779
0.0104559
0.0108884
0.011479
0.0122338
0.0132066
0.0143606
0.0153963
0.0158991
0.0146956
0.999996
0.999996
0.999995
0.999995
0.999994
0.999993
0.999992
0.999991
0.999991
0.999991
0.99999
0.99999
0.99999
0.99999
0.99999
0.99999
0.99999
0.99999
0.99999
0.99999
0.99999
0.99999
0.99999
0.99999
0.99999
0.99999
0.99999
0.99999
0.99999
0.99999
0.99999
0.99999
0.99999
0.99999
0.99999
0.99999
0.99999
0.99999
0.99999
0.99999
0.99999
0.99999
0.99999
0.99999
0.99999
0.999988
0.999985
0.999979
0.999969
0.999953
0.999928
0.999911
0.999901
0.999893
0.999889
0.999887
0.999889
0.999879
0.999892
0.890091
0.012609
0.000917995
0.000766862
0.000553928
0.000487997
0.000429322
0.000403818
0.000388069
0.000384045
0.000382964
0.000388455
0.000396945
0.000407861
0.000421381
0.000436359
0.000454248
0.00047898
0.000513001
0.000558493
0.000611039
0.000668809
0.000738447
0.000818088
0.000903468
0.000991001
0.00106927
0.00115473
0.00124289
0.00135261
0.00148021
0.00162169
0.00173182
0.00174952
0.0014691
0.000904584
0.000405021
0.999996
0.999996
0.999995
0.999995
0.999995
0.999994
0.999992
0.999991
0.999991
0.999991
0.99999
0.99999
0.99999
0.99999
0.99999
0.99999
0.99999
0.99999
0.99999
0.99999
0.99999
0.99999
0.99999
0.99999
0.99999
0.99999
0.99999
0.99999
0.99999
0.99999
0.99999
0.99999
0.99999
0.99999
0.99999
0.99999
0.99999
0.99999
0.99999
0.99999
0.99999
0.99999
0.99999
0.99999
0.99999
0.999988
0.999985
0.99998
0.99997
0.999958
0.999939
0.999921
0.999911
0.999903
0.999899
0.999894
0.999892
0.999873
0.999879
0.931007
0.0147669
7.31335e-05
6.64615e-05
4.79627e-05
4.62276e-05
4.3469e-05
4.16147e-05
3.80588e-05
3.43274e-05
3.07636e-05
2.81715e-05
2.6492e-05
2.59742e-05
2.64035e-05
2.63593e-05
2.61867e-05
2.57918e-05
2.62868e-05
2.92183e-05
3.33909e-05
3.76991e-05
4.19145e-05
4.51946e-05
4.85061e-05
5.07663e-05
4.98327e-05
4.6935e-05
4.2578e-05
3.88256e-05
3.66855e-05
3.53643e-05
3.27864e-05
2.57416e-05
1.65686e-05
7.96354e-06
3.43827e-06
0.999996
0.999996
0.999996
0.999996
0.999995
0.999994
0.999993
0.999992
0.999991
0.999991
0.99999
0.99999
0.99999
0.99999
0.99999
0.99999
0.99999
0.99999
0.99999
0.99999
0.99999
0.99999
0.99999
0.99999
0.99999
0.99999
0.99999
0.99999
0.99999
0.99999
0.99999
0.99999
0.99999
0.99999
0.99999
0.99999
0.99999
0.99999
0.99999
0.99999
0.99999
0.99999
0.99999
0.99999
0.99999
0.999989
0.999986
0.999981
0.999971
0.999959
0.999944
0.999929
0.999918
0.999909
0.999906
0.9999
0.999894
0.999867
0.999826
0.955968
0.022719
3.01217e-06
4.37604e-06
2.65662e-06
2.79657e-06
2.72218e-06
2.58746e-06
2.36076e-06
2.15285e-06
1.96811e-06
1.82133e-06
1.65939e-06
1.50244e-06
1.37723e-06
1.3025e-06
1.27294e-06
1.25977e-06
1.28949e-06
1.36618e-06
1.46851e-06
1.58763e-06
1.68696e-06
1.7448e-06
1.74496e-06
1.67275e-06
1.52347e-06
1.32403e-06
1.11521e-06
9.50247e-07
8.26787e-07
7.57172e-07
7.0292e-07
6.46271e-07
5.99055e-07
5.53449e-07
4.77521e-07
0.999996
0.999996
0.999996
0.999996
0.999996
0.999995
0.999993
0.999992
0.999991
0.999991
0.99999
0.99999
0.99999
0.99999
0.99999
0.99999
0.99999
0.99999
0.99999
0.99999
0.99999
0.99999
0.99999
0.99999
0.99999
0.99999
0.99999
0.99999
0.99999
0.99999
0.99999
0.99999
0.99999
0.99999
0.99999
0.99999
0.99999
0.99999
0.99999
0.99999
0.99999
0.99999
0.99999
0.99999
0.99999
0.999989
0.999986
0.999981
0.999972
0.99996
0.999946
0.999931
0.999922
0.999911
0.999905
0.999897
0.999887
0.999858
0.999744
0.963476
0.0334418
1.18007e-05
1.01565e-06
9.34999e-07
9.54887e-07
9.46353e-07
9.36846e-07
9.23255e-07
9.16706e-07
9.02844e-07
8.93753e-07
8.82944e-07
8.75348e-07
8.66501e-07
8.57e-07
8.47881e-07
8.41293e-07
8.33693e-07
8.25913e-07
8.22377e-07
8.2124e-07
8.20127e-07
8.18681e-07
8.10817e-07
7.96429e-07
7.79127e-07
7.5862e-07
7.35868e-07
7.11065e-07
6.80598e-07
6.46754e-07
6.23364e-07
5.92837e-07
5.59473e-07
5.08883e-07
4.2948e-07
0.999997
0.999996
0.999996
0.999996
0.999996
0.999995
0.999994
0.999992
0.999991
0.999991
0.99999
0.99999
0.99999
0.99999
0.99999
0.99999
0.99999
0.99999
0.99999
0.99999
0.99999
0.99999
0.99999
0.99999
0.99999
0.99999
0.99999
0.99999
0.99999
0.99999
0.99999
0.99999
0.99999
0.99999
0.99999
0.99999
0.99999
0.99999
0.99999
0.99999
0.99999
0.99999
0.99999
0.99999
0.99999
0.999989
0.999986
0.999981
0.999972
0.999959
0.999945
0.999932
0.999922
0.999911
0.9999
0.999891
0.999877
0.999834
0.999627
0.956835
0.0371436
2.67407e-05
9.44926e-07
9.18546e-07
8.98363e-07
8.95549e-07
8.96743e-07
8.89221e-07
8.8514e-07
8.76423e-07
8.71049e-07
8.63019e-07
8.57662e-07
8.50303e-07
8.43222e-07
8.36322e-07
8.30686e-07
8.25499e-07
8.20387e-07
8.16128e-07
8.11628e-07
8.07742e-07
8.04951e-07
8.00515e-07
7.92718e-07
7.79723e-07
7.60182e-07
7.36351e-07
7.06915e-07
6.67182e-07
6.29171e-07
6.03595e-07
5.85036e-07
5.63993e-07
5.21203e-07
4.33376e-07
0.999997
0.999997
0.999997
0.999996
0.999996
0.999996
0.999995
0.999993
0.999991
0.999991
0.99999
0.99999
0.99999
0.99999
0.99999
0.99999
0.99999
0.99999
0.99999
0.99999
0.99999
0.99999
0.99999
0.99999
0.99999
0.99999
0.99999
0.99999
0.99999
0.99999
0.99999
0.99999
0.99999
0.99999
0.99999
0.99999
0.99999
0.99999
0.99999
0.99999
0.99999
0.99999
0.99999
0.99999
0.99999
0.999989
0.999986
0.999981
0.999972
0.999959
0.999945
0.999933
0.999922
0.99991
0.999897
0.999881
0.999865
0.999825
0.999601
0.937572
0.0344428
5.85108e-05
9.66903e-07
8.94417e-07
8.82923e-07
8.72366e-07
8.71647e-07
8.65773e-07
8.6419e-07
8.58624e-07
8.55795e-07
8.49294e-07
8.44501e-07
8.3838e-07
8.33716e-07
8.28714e-07
8.24164e-07
8.20818e-07
8.17262e-07
8.13886e-07
8.10372e-07
8.06792e-07
8.03452e-07
7.98828e-07
7.91842e-07
7.81208e-07
7.64044e-07
7.39672e-07
7.05661e-07
6.60443e-07
6.17393e-07
5.88121e-07
5.7265e-07
5.48674e-07
5.02968e-07
4.28661e-07
0.999998
0.999997
0.999997
0.999997
0.999996
0.999996
0.999996
0.999994
0.999991
0.99999
0.99999
0.99999
0.99999
0.99999
0.99999
0.99999
0.99999
0.99999
0.99999
0.99999
0.99999
0.99999
0.99999
0.99999
0.99999
0.99999
0.99999
0.99999
0.99999
0.99999
0.99999
0.99999
0.99999
0.99999
0.99999
0.99999
0.99999
0.99999
0.99999
0.99999
0.99999
0.99999
0.99999
0.99999
0.99999
0.999989
0.999986
0.999981
0.999971
0.999958
0.999944
0.999932
0.999926
0.999917
0.999906
0.99989
0.999879
0.99983
0.999415
0.954743
0.0551646
0.000407974
1.49836e-06
8.8813e-07
8.82214e-07
8.70762e-07
8.68676e-07
8.6148e-07
8.59027e-07
8.52585e-07
8.49382e-07
8.43844e-07
8.40476e-07
8.35885e-07
8.32211e-07
8.2841e-07
8.25355e-07
8.21956e-07
8.18723e-07
8.16471e-07