/*--------------------------------*- C++ -*----------------------------------*\
| =========                 |                                                 |
| \\      /  F ield         | OpenFOAM: The Open Source CFD Toolbox           |
|  \\    /   O peration     | Version:  2.3.0                                 |
|   \\  /    A nd           | Web:      www.OpenFOAM.org                      |
|    \\/     M anipulation  |                                                 |
\*---------------------------------------------------------------------------*/
FoamFile
{
    version     2.0;
    format      ascii;
    class       volScalarField;
    location    "36";
    object      dsauterMean;
}
// * * * * * * * * * * * * * * * * * * * * * * * * * * * * * * * * * * * * * //

dimensions      [0 0 0 0 0 0 0];

internalField   nonuniform List<scalar> 
6144
(
0.00833335
0.00833335
0.00833335
0.00833335
0.00833335
0.00833335
0.00833335
0.00833335
0.00833335
0.00833335
0.00833335
0.00833335
0.00833335
0.00833335
0.00833335
0.00833335
0.00833335
0.00833335
0.00833335
0.00833335
0.00833335
0.00833335
0.00833335
0.00833335
0.00833335
0.00833335
0.00833335
0.00833335
0.00833335
0.00833335
0.00833335
0.00833335
0.00833335
0.00833335
0.00833335
0.00833335
0.00833335
0.00833335
0.00833335
0.00833335
0.00833335
0.00833335
0.00833335
0.00833335
0.00833335
0.00833335
0.00833335
0.00833335
0.00833335
0.00833335
0.00833335
0.00833335
0.00833335
0.00833335
0.00833335
0.00833335
0.00833335
0.00833328
0.00832384
0.00834551
0.00833547
0.00833314
0.00243729
0.000283036
0.000277244
0.000272673
0.000268098
0.000261238
0.000256661
0.000250951
0.000246372
0.000240653
0.00023608
0.000231505
0.000226933
0.000221212
0.000216641
0.000212063
0.000207491
0.000202977
0.000198008
0.000194522
0.000188348
0.00018611
0.00018088
0.000177759
0.00017313
0.000169866
0.000166255
0.000164037
0.00016175
0.000159463
0.000158321
0.000157175
0.000158312
0.000157195
0.00833335
0.00833335
0.00833335
0.00833335
0.00833335
0.00833335
0.00833335
0.00833335
0.00833335
0.00833335
0.00833335
0.00833335
0.00833335
0.00833335
0.00833335
0.00833335
0.00833335
0.00833335
0.00833335
0.00833335
0.00833335
0.00833335
0.00833335
0.00833335
0.00833335
0.00833335
0.00833335
0.00833335
0.00833335
0.00833335
0.00833335
0.00833335
0.00833335
0.00833335
0.00833335
0.00833335
0.00833335
0.00833335
0.00833335
0.00833335
0.00833335
0.00833335
0.00833335
0.00833335
0.00833335
0.00833335
0.00833335
0.00833335
0.00833335
0.00833335
0.00833335
0.00833335
0.00833335
0.00833335
0.00833335
0.00833335
0.00833335
0.00833312
0.00832407
0.0083443
0.00837664
0.00833058
0.000356149
0.00036645
0.000322906
0.00035707
0.000340115
0.000324823
0.000296711
0.000267253
0.000255605
0.000241638
0.000237189
0.000231482
0.000226147
0.00022107
0.000216822
0.000212613
0.000207
0.000202868
0.000198627
0.00019368
0.000189525
0.000185778
0.000181208
0.000177846
0.000174329
0.000170898
0.00016747
0.000164037
0.000161751
0.000160607
0.000158039
0.000158427
0.00015833
0.000158342
0.00833335
0.00833335
0.00833335
0.00833335
0.00833335
0.00833335
0.00833335
0.00833335
0.00833335
0.00833335
0.00833335
0.00833335
0.00833335
0.00833335
0.00833335
0.00833335
0.00833335
0.00833335
0.00833335
0.00833335
0.00833335
0.00833335
0.00833335
0.00833335
0.00833335
0.00833335
0.00833335
0.00833335
0.00833335
0.00833335
0.00833335
0.00833335
0.00833335
0.00833335
0.00833335
0.00833335
0.00833335
0.00833335
0.00833335
0.00833335
0.00833335
0.00833335
0.00833335
0.00833335
0.00833335
0.00833335
0.00833335
0.00833335
0.00833335
0.00833335
0.00833335
0.00833335
0.00833335
0.00833335
0.00833335
0.00833335
0.00833335
0.00833335
0.00833366
0.00835642
0.00762432
0.00632555
0.00129228
0.0012187
0.00117003
0.00112468
0.00109785
0.00101915
0.000974968
0.00087666
0.000844535
0.000789818
0.000765037
0.000705126
0.000673133
0.000595768
0.000469448
0.000346132
0.000243331
0.000203452
0.000198738
0.000193768
0.000190339
0.00018576
0.000181113
0.000177762
0.000174329
0.000170899
0.000167468
0.000164037
0.000161891
0.000160493
0.00015834
0.00015778
0.000159764
0.000158422
0.00833335
0.00833335
0.00833335
0.00833335
0.00833335
0.00833335
0.00833335
0.00833335
0.00833335
0.00833335
0.00833335
0.00833335
0.00833335
0.00833335
0.00833335
0.00833335
0.00833335
0.00833335
0.00833335
0.00833335
0.00833335
0.00833335
0.00833335
0.00833335
0.00833335
0.00833335
0.00833335
0.00833335
0.00833335
0.00833335
0.00833335
0.00833335
0.00833335
0.00833335
0.00833335
0.00833335
0.00833335
0.00833335
0.00833335
0.00833335
0.00833335
0.00833335
0.00833335
0.00833335
0.00833335
0.00833335
0.00833335
0.00833335
0.00833335
0.00833335
0.00833335
0.00833335
0.00833335
0.00833335
0.00833335
0.00833335
0.00833335
0.00833335
0.00832982
0.00833729
0.00835607
0.00450175
0.00210089
0.00163911
0.00153193
0.00137095
0.00127738
0.00126329
0.00119807
0.00112402
0.00111826
0.00103533
0.00095976
0.000892647
0.000838605
0.00078336
0.000762392
0.000717072
0.000676702
0.000629967
0.000572506
0.000510374
0.000370186
0.000202078
0.000185511
0.000177754
0.00017433
0.000171071
0.000166984
0.000164037
0.000161755
0.000160219
0.000158764
0.000158316
0.000158319
0.000159463
0.00833335
0.00833335
0.00833335
0.00833335
0.00833335
0.00833335
0.00833335
0.00833335
0.00833335
0.00833335
0.00833335
0.00833335
0.00833335
0.00833335
0.00833335
0.00833335
0.00833335
0.00833335
0.00833335
0.00833335
0.00833335
0.00833335
0.00833335
0.00833335
0.00833335
0.00833335
0.00833335
0.00833335
0.00833335
0.00833335
0.00833335
0.00833335
0.00833335
0.00833335
0.00833335
0.00833335
0.00833335
0.00833335
0.00833335
0.00833335
0.00833335
0.00833335
0.00833335
0.00833335
0.00833335
0.00833335
0.00833335
0.00833335
0.00833335
0.00833335
0.00833335
0.00833335
0.00833335
0.00833335
0.00833335
0.00833335
0.00833335
0.00833335
0.00833332
0.00835387
0.00738418
0.0083251
0.00828565
0.00823995
0.0078512
0.0062492
0.00621004
0.00586337
0.00584355
0.00578529
0.00579365
0.00578628
0.00556096
0.00555213
0.00534031
0.00498592
0.00457642
0.00410134
0.00358519
0.00284833
0.00221589
0.00173115
0.0012657
0.00078192
0.000532997
0.000441382
0.000194148
0.000170052
0.000166423
0.000163877
0.00016175
0.000159463
0.000157172
0.00015717
0.000158325
0.00015832
0.00833335
0.00833335
0.00833335
0.00833335
0.00833335
0.00833335
0.00833335
0.00833335
0.00833335
0.00833335
0.00833335
0.00833335
0.00833335
0.00833335
0.00833335
0.00833335
0.00833335
0.00833335
0.00833335
0.00833335
0.00833335
0.00833335
0.00833335
0.00833335
0.00833335
0.00833335
0.00833335
0.00833335
0.00833335
0.00833335
0.00833335
0.00833335
0.00833335
0.00833335
0.00833335
0.00833335
0.00833335
0.00833335
0.00833335
0.00833335
0.00833335
0.00833335
0.00833335
0.00833335
0.00833335
0.00833335
0.00833335
0.00833335
0.00833335
0.00833335
0.00833335
0.00833335
0.00833335
0.00833335
0.00833335
0.00833335
0.00833335
0.00833335
0.00833335
0.00834875
0.00732971
0.00780899
0.00791802
0.00831058
0.00816093
0.00824624
0.00830959
0.00814037
0.00825555
0.00793223
0.00837566
0.00796717
0.00813328
0.00807902
0.00809436
0.00794312
0.00796777
0.00789322
0.00760385
0.00779235
0.00760899
0.00747467
0.0072278
0.00679657
0.00610833
0.00513684
0.00456899
0.0035594
0.00193103
0.00109799
0.000616454
0.00023466
0.00015837
0.000156158
0.000156
0.00015841
0.00833335
0.00833335
0.00833335
0.00833335
0.00833335
0.00833335
0.00833335
0.00833335
0.00833335
0.00833335
0.00833335
0.00833335
0.00833335
0.00833335
0.00833335
0.00833335
0.00833335
0.00833335
0.00833335
0.00833335
0.00833335
0.00833335
0.00833335
0.00833335
0.00833335
0.00833335
0.00833335
0.00833335
0.00833335
0.00833335
0.00833335
0.00833335
0.00833335
0.00833335
0.00833335
0.00833335
0.00833335
0.00833335
0.00833335
0.00833335
0.00833335
0.00833335
0.00833335
0.00833335
0.00833335
0.00833335
0.00833335
0.00833335
0.00833335
0.00833335
0.00833335
0.00833335
0.00833335
0.00833335
0.00833335
0.00833335
0.00833335
0.00833333
0.00833358
0.00833314
0.00833248
0.00929629
0.00589422
0.00833226
0.00817279
0.00797413
0.00828476
0.00724828
0.00803068
0.00773272
0.00803356
0.00787684
0.00824537
0.00782908
0.00823169
0.00789342
0.00878738
0.00725811
0.00814667
0.00839225
0.00788366
0.0084374
0.00832146
0.0082767
0.00814298
0.00780561
0.00784709
0.007791
0.00731726
0.00645964
0.00590877
0.00565378
0.0057487
0.00461929
0.00397328
0.00548345
0.00833335
0.00833335
0.00833335
0.00833335
0.00833335
0.00833335
0.00833335
0.00833335
0.00833335
0.00833335
0.00833335
0.00833335
0.00833335
0.00833335
0.00833335
0.00833335
0.00833335
0.00833335
0.00833335
0.00833335
0.00833335
0.00833335
0.00833335
0.00833335
0.00833335
0.00833335
0.00833335
0.00833335
0.00833335
0.00833335
0.00833335
0.00833335
0.00833335
0.00833335
0.00833335
0.00833335
0.00833335
0.00833335
0.00833335
0.00833335
0.00833335
0.00833335
0.00833335
0.00833335
0.00833335
0.00833335
0.00833335
0.00833335
0.00833335
0.00833335
0.00833335
0.00833335
0.00833335
0.00833335
0.00833335
0.00833335
0.00833335
0.00833334
0.00833376
0.00833263
0.00831546
0.00835321
0.00832217
0.00826799
0.00833091
0.0081745
0.00797009
0.00873128
0.00808037
0.00839386
0.00815005
0.0083099
0.00832833
0.00832631
0.00830539
0.00827536
0.00805909
0.00842179
0.00830266
0.00830511
0.00831181
0.00832381
0.00830795
0.00829906
0.00829832
0.00825463
0.00829707
0.00817586
0.00803306
0.00827847
0.00797286
0.00772312
0.00803587
0.00741906
0.00781621
0.00813767
0.00833335
0.00833335
0.00833335
0.00833335
0.00833335
0.00833335
0.00833335
0.00833335
0.00833335
0.00833335
0.00833335
0.00833335
0.00833335
0.00833335
0.00833335
0.00833335
0.00833335
0.00833335
0.00833335
0.00833335
0.00833335
0.00833335
0.00833335
0.00833335
0.00833335
0.00833335
0.00833335
0.00833335
0.00833335
0.00833335
0.00833335
0.00833335
0.00833335
0.00833335
0.00833335
0.00833335
0.00833335
0.00833335
0.00833335
0.00833335
0.00833335
0.00833335
0.00833335
0.00833335
0.00833335
0.00833335
0.00833335
0.00833335
0.00833335
0.00833335
0.00833335
0.00833335
0.00833335
0.00833335
0.00833335
0.00833335
0.00833335
0.00833333
0.00833359
0.00833541
0.00812131
0.007669
0.00773005
0.00765189
0.00827902
0.0071541
0.00766438
0.00813143
0.00805963
0.0078822
0.00776522
0.00843025
0.00759682
0.00848005
0.00781338
0.00819166
0.00828143
0.00832936
0.00809532
0.00798594
0.00806377
0.00806714
0.00795718
0.00823686
0.00801499
0.00852338
0.00806029
0.0084067
0.00802928
0.00832717
0.0082536
0.00819711
0.00827314
0.0082889
0.00688883
0.007435
0.00833335
0.00833335
0.00833335
0.00833335
0.00833335
0.00833335
0.00833335
0.00833335
0.00833335
0.00833335
0.00833335
0.00833335
0.00833335
0.00833335
0.00833335
0.00833335
0.00833335
0.00833335
0.00833335
0.00833335
0.00833335
0.00833335
0.00833335
0.00833335
0.00833335
0.00833335
0.00833335
0.00833335
0.00833335
0.00833335
0.00833335
0.00833335
0.00833335
0.00833335
0.00833335
0.00833335
0.00833335
0.00833335
0.00833335
0.00833335
0.00833335
0.00833335
0.00833335
0.00833335
0.00833335
0.00833335
0.00833335
0.00833335
0.00833335
0.00833335
0.00833335
0.00833335
0.00833335
0.00833335
0.00833335
0.00833335
0.00833335
0.00833336
0.00833321
0.00833485
0.00819942
0.00840483
0.00725107
0.00825604
0.00812417
0.00772469
0.00760983
0.00760113
0.00738969
0.00744681
0.00731332
0.00734224
0.00685318
0.00706766
0.00680656
0.00661699
0.00637336
0.00607172
0.00582065
0.00548238
0.00507195
0.00505664
0.00455938
0.00494414
0.00494872
0.00500172
0.00520978
0.00488029
0.00513526
0.00527673
0.00496288
0.00483867
0.00502883
0.00489202
0.00457226
0.00420562
0.00833335
0.00833335
0.00833335
0.00833335
0.00833335
0.00833335
0.00833335
0.00833335
0.00833335
0.00833335
0.00833335
0.00833335
0.00833335
0.00833335
0.00833335
0.00833335
0.00833335
0.00833335
0.00833335
0.00833335
0.00833335
0.00833335
0.00833335
0.00833335
0.00833335
0.00833335
0.00833335
0.00833335
0.00833335
0.00833335
0.00833335
0.00833335
0.00833335
0.00833335
0.00833335
0.00833335
0.00833335
0.00833335
0.00833335
0.00833335
0.00833335
0.00833335
0.00833335
0.00833335
0.00833335
0.00833335
0.00833335
0.00833335
0.00833335
0.00833335
0.00833335
0.00833335
0.00833335
0.00833335
0.00833335
0.00833335
0.00833335
0.00833386
0.00831575
0.0083373
0.00833367
0.00797868
0.00744875
0.00672557
0.00662515
0.00617486
0.00623258
0.00575688
0.00547561
0.0050762
0.00474668
0.00454385
0.00415942
0.00404641
0.00376406
0.00368899
0.0036407
0.00362409
0.00360426
0.00355425
0.00348521
0.00356016
0.00347204
0.00346422
0.00341485
0.00337501
0.00335755
0.00320897
0.00316794
0.00304864
0.00302202
0.00283388
0.00237034
0.00207336
0.00179047
0.00144821
0.00833335
0.00833335
0.00833335
0.00833335
0.00833335
0.00833335
0.00833335
0.00833335
0.00833335
0.00833335
0.00833335
0.00833335
0.00833335
0.00833335
0.00833335
0.00833335
0.00833335
0.00833335
0.00833335
0.00833335
0.00833335
0.00833335
0.00833335
0.00833335
0.00833335
0.00833335
0.00833335
0.00833335
0.00833335
0.00833335
0.00833335
0.00833335
0.00833335
0.00833335
0.00833335
0.00833335
0.00833335
0.00833335
0.00833335
0.00833335
0.00833335
0.00833335
0.00833335
0.00833335
0.00833335
0.00833335
0.00833335
0.00833335
0.00833335
0.00833335
0.00833335
0.00833335
0.00833335
0.00833335
0.00833335
0.00833335
0.00833335
0.00833334
0.00833375
0.0083497
0.00830567
0.00424141
0.00251773
0.00210585
0.00198655
0.00197031
0.0019394
0.00181194
0.00181989
0.00163
0.00168209
0.00164638
0.00158391
0.00154635
0.00153207
0.00154155
0.00156336
0.00155777
0.00148051
0.00152487
0.00159765
0.0015041
0.00139905
0.0012879
0.00128119
0.001327
0.00133802
0.00134556
0.00137039
0.00134092
0.00124734
0.00114016
0.000908027
0.000628403
0.000229222
0.000297829
0.00833335
0.00833335
0.00833335
0.00833335
0.00833335
0.00833335
0.00833335
0.00833335
0.00833335
0.00833335
0.00833335
0.00833335
0.00833335
0.00833335
0.00833335
0.00833335
0.00833335
0.00833335
0.00833335
0.00833335
0.00833335
0.00833335
0.00833335
0.00833335
0.00833335
0.00833335
0.00833335
0.00833335
0.00833335
0.00833335
0.00833335
0.00833335
0.00833335
0.00833335
0.00833335
0.00833335
0.00833335
0.00833335
0.00833335
0.00833335
0.00833335
0.00833335
0.00833335
0.00833335
0.00833335
0.00833335
0.00833335
0.00833335
0.00833335
0.00833335
0.00833335
0.00833335
0.00833335
0.00833335
0.00833335
0.00833335
0.00833335
0.00833335
0.00833335
0.00833454
0.00833466
0.00417302
0.00186249
0.00153409
0.00154356
0.00150014
0.00149021
0.00141343
0.00137593
0.00128369
0.00120009
0.00108097
0.00096521
0.000885661
0.000792651
0.000714057
0.000617927
0.000427414
0.000239621
0.000202917
0.000198335
0.000193751
0.000190378
0.000185345
0.000181343
0.000178094
0.000197201
0.000218232
0.000210938
0.000213217
0.000201808
0.000184621
0.00016175
0.00015832
0.000159463
0.000159463
0.00833335
0.00833335
0.00833335
0.00833335
0.00833335
0.00833335
0.00833335
0.00833335
0.00833335
0.00833335
0.00833335
0.00833335
0.00833335
0.00833335
0.00833335
0.00833335
0.00833335
0.00833335
0.00833335
0.00833335
0.00833335
0.00833335
0.00833335
0.00833335
0.00833335
0.00833335
0.00833335
0.00833335
0.00833335
0.00833335
0.00833335
0.00833335
0.00833335
0.00833335
0.00833335
0.00833335
0.00833335
0.00833335
0.00833335
0.00833335
0.00833335
0.00833335
0.00833335
0.00833335
0.00833335
0.00833335
0.00833335
0.00833335
0.00833335
0.00833335
0.00833335
0.00833335
0.00833335
0.00833335
0.00833335
0.00833335
0.00833335
0.00833335
0.00833335
0.00833057
0.00833333
0.00690922
0.00106337
0.000953013
0.000989641
0.000962552
0.000969959
0.000872995
0.00082042
0.000706555
0.000619185
0.000460222
0.000336743
0.000249801
0.000226558
0.000222283
0.00021629
0.000211462
0.000206895
0.000202917
0.000198341
0.00019391
0.000189689
0.000186631
0.00018117
0.00017773
0.000174294
0.000170898
0.000167468
0.000164021
0.000161695
0.000160475
0.000158575
0.00015832
0.000159463
0.000159463
0.00833335
0.00833335
0.00833335
0.00833335
0.00833335
0.00833335
0.00833335
0.00833335
0.00833335
0.00833335
0.00833335
0.00833335
0.00833335
0.00833335
0.00833335
0.00833335
0.00833335
0.00833335
0.00833335
0.00833335
0.00833335
0.00833335
0.00833335
0.00833335
0.00833335
0.00833335
0.00833335
0.00833335
0.00833335
0.00833335
0.00833335
0.00833335
0.00833335
0.00833335
0.00833335
0.00833335
0.00833335
0.00833335
0.00833335
0.00833335
0.00833335
0.00833335
0.00833335
0.00833335
0.00833335
0.00833335
0.00833335
0.00833335
0.00833335
0.00833335
0.00833335
0.00833335
0.00833335
0.00833335
0.00833335
0.00833335
0.00833335
0.00833335
0.00833284
0.00830265
0.00913766
0.00764921
0.000368716
0.000309253
0.000324237
0.000319457
0.000311538
0.000300117
0.000284104
0.00026423
0.000247785
0.000241797
0.000237165
0.000231505
0.000226931
0.000222357
0.000218018
0.000213219
0.000206201
0.00020371
0.000198334
0.000193423
0.000190572
0.000185785
0.00018129
0.000176231
0.000174915
0.000170412
0.000167162
0.000164131
0.00016143
0.000160979
0.000158263
0.00015832
0.000159464
0.000159463
0.00833335
0.00833335
0.00833335
0.00833335
0.00833335
0.00833335
0.00833335
0.00833335
0.00833335
0.00833335
0.00833335
0.00833335
0.00833335
0.00833335
0.00833335
0.00833335
0.00833335
0.00833335
0.00833335
0.00833335
0.00833335
0.00833335
0.00833335
0.00833335
0.00833335
0.00833335
0.00833335
0.00833335
0.00833335
0.00833335
0.00833335
0.00833335
0.00833335
0.00833335
0.00833335
0.00833335
0.00833335
0.00833335
0.00833335
0.00833335
0.00833335
0.00833335
0.00833335
0.00833335
0.00833335
0.00833335
0.00833335
0.00833335
0.00833335
0.00833335
0.00833335
0.00833335
0.00833335
0.00833335
0.00833335
0.00833335
0.00833335
0.00833334
0.00832954
0.00833737
0.00833749
0.00809996
0.00350696
0.000283116
0.000278233
0.000272669
0.000268291
0.000261043
0.000256704
0.000252088
0.000246387
0.000241807
0.000237883
0.000231344
0.000227242
0.000222521
0.000216516
0.000212064
0.000207491
0.000203361
0.000197985
0.000193768
0.0001903
0.000185586
0.000181192
0.000177763
0.000173819
0.000171435
0.000167501
0.000164038
0.00016175
0.00016066
0.000158325
0.000158319
0.000159441
0.000159483
0.00833335
0.00833335
0.00833335
0.00833335
0.00833335
0.00833335
0.00833335
0.00833335
0.00833335
0.00833335
0.00833335
0.00833335
0.00833335
0.00833335
0.00833335
0.00833335
0.00833335
0.00833335
0.00833335
0.00833335
0.00833335
0.00833335
0.00833335
0.00833335
0.00833335
0.00833335
0.00833335
0.00833335
0.00833335
0.00833335
0.00833335
0.00833335
0.00833335
0.00833335
0.00833335
0.00833335
0.00833335
0.00833335
0.00833335
0.00833335
0.00833335
0.00833335
0.00833335
0.00833335
0.00833335
0.00833335
0.00833335
0.00833335
0.00833335
0.00833335
0.00833335
0.00833335
0.00833335
0.00833335
0.00833335
0.00833335
0.00833335
0.00833299
0.00833356
0.00833192
0.00833294
0.00833338
0.0054734
0.00028296
0.000277248
0.000273027
0.000266222
0.000261795
0.00025658
0.000250933
0.000246265
0.000240674
0.000236081
0.000231504
0.000227284
0.0002213
0.000216639
0.000212075
0.00020749
0.000202916
0.000198223
0.000193942
0.000190338
0.000186069
0.000180632
0.000178243
0.000174329
0.000170913
0.000167678
0.00016395
0.000161647
0.000160654
0.00015832
0.00015832
0.00015832
0.00015832
0.00833335
0.00833335
0.00833335
0.00833335
0.00833335
0.00833335
0.00833335
0.00833335
0.00833335
0.00833335
0.00833335
0.00833335
0.00833335
0.00833335
0.00833335
0.00833335
0.00833335
0.00833335
0.00833335
0.00833335
0.00833335
0.00833335
0.00833335
0.00833335
0.00833335
0.00833335
0.00833335
0.00833335
0.00833335
0.00833335
0.00833335
0.00833335
0.00833335
0.00833335
0.00833335
0.00833335
0.00833335
0.00833335
0.00833335
0.00833335
0.00833335
0.00833335
0.00833335
0.00833335
0.00833335
0.00833335
0.00833335
0.00833335
0.00833335
0.00833335
0.00833335
0.00833335
0.00833335
0.00833335
0.00833335
0.00833335
0.00833335
0.00833334
0.00833345
0.00833347
0.0084055
0.00759082
0.00052854
0.0004179
0.000433245
0.00042928
0.000418546
0.000411156
0.000393806
0.000375611
0.000360881
0.000338996
0.000319556
0.000295537
0.000270913
0.000249313
0.0002235
0.000212065
0.000207471
0.000202926
0.000198343
0.000194915
0.000190339
0.000186181
0.00018171
0.00017776
0.000174329
0.000170898
0.000167468
0.000164037
0.00016175
0.000160607
0.000158552
0.000158503
0.000159578
0.000158302
0.00833335
0.00833335
0.00833335
0.00833335
0.00833335
0.00833335
0.00833335
0.00833335
0.00833335
0.00833335
0.00833335
0.00833335
0.00833335
0.00833335
0.00833335
0.00833335
0.00833335
0.00833335
0.00833335
0.00833335
0.00833335
0.00833335
0.00833335
0.00833335
0.00833335
0.00833335
0.00833335
0.00833335
0.00833335
0.00833335
0.00833335
0.00833335
0.00833335
0.00833335
0.00833335
0.00833335
0.00833335
0.00833335
0.00833335
0.00833335
0.00833335
0.00833335
0.00833335
0.00833335
0.00833335
0.00833335
0.00833335
0.00833335
0.00833335
0.00833335
0.00833335
0.00833335
0.00833335
0.00833335
0.00833335
0.00833335
0.00833335
0.00833335
0.00833661
0.00832991
0.00828954
0.00202232
0.00274151
0.00134617
0.00131787
0.00122749
0.00120564
0.00112398
0.00108628
0.0010284
0.000960265
0.000895894
0.000843351
0.000795621
0.000747659
0.000702585
0.000651211
0.000621916
0.000566335
0.000509895
0.000359813
0.000270035
0.000206838
0.000191859
0.00018247
0.000177645
0.000174329
0.000170895
0.000167555
0.000163735
0.000161673
0.000160603
0.000158169
0.000158462
0.000159463
0.000159463
0.00833335
0.00833335
0.00833335
0.00833335
0.00833335
0.00833335
0.00833335
0.00833335
0.00833335
0.00833335
0.00833335
0.00833335
0.00833335
0.00833335
0.00833335
0.00833335
0.00833335
0.00833335
0.00833335
0.00833335
0.00833335
0.00833335
0.00833335
0.00833335
0.00833335
0.00833335
0.00833335
0.00833335
0.00833335
0.00833335
0.00833335
0.00833335
0.00833335
0.00833335
0.00833335
0.00833335
0.00833335
0.00833335
0.00833335
0.00833335
0.00833335
0.00833335
0.00833335
0.00833335
0.00833335
0.00833335
0.00833335
0.00833335
0.00833335
0.00833335
0.00833335
0.00833335
0.00833335
0.00833335
0.00833335
0.00833335
0.00833335
0.00833335
0.00833331
0.00834648
0.00768751
0.00307198
0.00807695
0.00353416
0.00396516
0.00290199
0.00291622
0.00283971
0.00278598
0.00270062
0.00263812
0.00253388
0.00241571
0.00225787
0.00212148
0.00195506
0.00175443
0.00148143
0.00121599
0.000948792
0.000838835
0.000676251
0.000563657
0.000477461
0.000402917
0.000197654
0.000189184
0.000171639
0.000166855
0.000163759
0.000161893
0.000159635
0.000157201
0.000158323
0.000158295
0.000159488
0.00833335
0.00833335
0.00833335
0.00833335
0.00833335
0.00833335
0.00833335
0.00833335
0.00833335
0.00833335
0.00833335
0.00833335
0.00833335
0.00833335
0.00833335
0.00833335
0.00833335
0.00833335
0.00833335
0.00833335
0.00833335
0.00833335
0.00833335
0.00833335
0.00833335
0.00833335
0.00833335
0.00833335
0.00833335
0.00833335
0.00833335
0.00833335
0.00833335
0.00833335
0.00833335
0.00833335
0.00833335
0.00833335
0.00833335
0.00833335
0.00833335
0.00833335
0.00833335
0.00833335
0.00833335
0.00833335
0.00833335
0.00833335
0.00833335
0.00833335
0.00833335
0.00833335
0.00833335
0.00833335
0.00833335
0.00833335
0.00833335
0.00833335
0.00833334
0.00834201
0.00731998
0.00783434
0.00828121
0.0082125
0.00828847
0.00822981
0.00836391
0.00814565
0.00782941
0.00767863
0.00765588
0.00756185
0.00755903
0.0076521
0.00733982
0.0071612
0.00719631
0.00705855
0.00676627
0.00636317
0.00576218
0.00505301
0.00439712
0.00364277
0.00293661
0.00212591
0.00138869
0.000709909
0.0004042
0.000301281
0.000176624
0.000160608
0.000158298
0.000157188
0.000158325
0.00015832
0.00833335
0.00833335
0.00833335
0.00833335
0.00833335
0.00833335
0.00833335
0.00833335
0.00833335
0.00833335
0.00833335
0.00833335
0.00833335
0.00833335
0.00833335
0.00833335
0.00833335
0.00833335
0.00833335
0.00833335
0.00833335
0.00833335
0.00833335
0.00833335
0.00833335
0.00833335
0.00833335
0.00833335
0.00833335
0.00833335
0.00833335
0.00833335
0.00833335
0.00833335
0.00833335
0.00833335
0.00833335
0.00833335
0.00833335
0.00833335
0.00833335
0.00833335
0.00833335
0.00833335
0.00833335
0.00833335
0.00833335
0.00833335
0.00833335
0.00833335
0.00833335
0.00833335
0.00833335
0.00833335
0.00833335
0.00833335
0.00833335
0.00833335
0.00833339
0.00831727
0.0095716
0.00828171
0.00833124
0.00875978
0.00720014
0.0083341
0.00795809
0.00841784
0.00835164
0.00823796
0.00829519
0.00785942
0.00851645
0.00834097
0.00832092
0.00911384
0.00692689
0.00900402
0.00739792
0.00853777
0.00888069
0.00832929
0.00787447
0.00838673
0.00726687
0.00811264
0.00723134
0.00696003
0.00586922
0.00462794
0.00328435
0.00200228
0.000597674
0.000155661
0.000158243
0.000158385
0.00833335
0.00833335
0.00833335
0.00833335
0.00833335
0.00833335
0.00833335
0.00833335
0.00833335
0.00833335
0.00833335
0.00833335
0.00833335
0.00833335
0.00833335
0.00833335
0.00833335
0.00833335
0.00833335
0.00833335
0.00833335
0.00833335
0.00833335
0.00833335
0.00833335
0.00833335
0.00833335
0.00833335
0.00833335
0.00833335
0.00833335
0.00833335
0.00833335
0.00833335
0.00833335
0.00833335
0.00833335
0.00833335
0.00833335
0.00833335
0.00833335
0.00833335
0.00833335
0.00833335
0.00833335
0.00833335
0.00833335
0.00833335
0.00833335
0.00833335
0.00833335
0.00833335
0.00833335
0.00833335
0.00833335
0.00833335
0.00833335
0.00833335
0.00833334
0.00829314
0.00923405
0.00826844
0.00830238
0.00831167
0.00831854
0.00831751
0.00832643
0.00823999
0.00810252
0.00853342
0.00813413
0.0083098
0.00820054
0.00809817
0.00849144
0.00832935
0.00831126
0.00831409
0.00833738
0.0082423
0.00826228
0.00832611
0.00815768
0.00777292
0.00859473
0.0083297
0.00831635
0.00832259
0.00823067
0.00726584
0.0082819
0.00826024
0.00833323
0.00847782
0.00833939
0.00826193
0.00833335
0.00833335
0.00833335
0.00833335
0.00833335
0.00833335
0.00833335
0.00833335
0.00833335
0.00833335
0.00833335
0.00833335
0.00833335
0.00833335
0.00833335
0.00833335
0.00833335
0.00833335
0.00833335
0.00833335
0.00833335
0.00833335
0.00833335
0.00833335
0.00833335
0.00833335
0.00833335
0.00833335
0.00833335
0.00833335
0.00833335
0.00833335
0.00833335
0.00833335
0.00833335
0.00833335
0.00833335
0.00833335
0.00833335
0.00833335
0.00833335
0.00833335
0.00833335
0.00833335
0.00833335
0.00833335
0.00833335
0.00833335
0.00833335
0.00833335
0.00833335
0.00833335
0.00833335
0.00833335
0.00833335
0.00833335
0.00833335
0.00833319
0.00833348
0.00829707
0.00875736
0.0082545
0.00810281
0.00835681
0.00812662
0.00833348
0.00831124
0.00816162
0.00822232
0.00825686
0.00834882
0.00825602
0.00833653
0.00832943
0.00832571
0.00833249
0.00833049
0.00832481
0.00833168
0.00833125
0.00828521
0.00828564
0.00832427
0.00828889
0.00832524
0.00832933
0.00830892
0.00831109
0.00840548
0.00831145
0.00834235
0.00835604
0.00839813
0.0082045
0.00835768
0.00833332
0.00833335
0.00833335
0.00833335
0.00833335
0.00833335
0.00833335
0.00833335
0.00833335
0.00833335
0.00833335
0.00833335
0.00833335
0.00833335
0.00833335
0.00833335
0.00833335
0.00833335
0.00833335
0.00833335
0.00833335
0.00833335
0.00833335
0.00833335
0.00833335
0.00833335
0.00833335
0.00833335
0.00833335
0.00833335
0.00833335
0.00833335
0.00833335
0.00833335
0.00833335
0.00833335
0.00833335
0.00833335
0.00833335
0.00833335
0.00833335
0.00833335
0.00833335
0.00833335
0.00833335
0.00833335
0.00833335
0.00833335
0.00833335
0.00833335
0.00833335
0.00833335
0.00833335
0.00833335
0.00833335
0.00833335
0.00833335
0.00833335
0.00833334
0.00833317
0.00832954
0.00755363
0.00895457
0.00803843
0.00810912
0.00826138
0.00832025
0.00832757
0.00827735
0.00829686
0.00834939
0.00833201
0.00820969
0.00828636
0.00834302
0.00829258
0.00833041
0.00805818
0.00814811
0.00811651
0.00828346
0.00829871
0.00833623
0.00827036
0.00832318
0.00827649
0.00801498
0.00843403
0.00832726
0.00823483
0.00833561
0.00829444
0.00836198
0.00832534
0.00833372
0.00833023
0.008331
0.00833335
0.00833335
0.00833335
0.00833335
0.00833335
0.00833335
0.00833335
0.00833335
0.00833335
0.00833335
0.00833335
0.00833335
0.00833335
0.00833335
0.00833335
0.00833335
0.00833335
0.00833335
0.00833335
0.00833335
0.00833335
0.00833335
0.00833335
0.00833335
0.00833335
0.00833335
0.00833335
0.00833335
0.00833335
0.00833335
0.00833335
0.00833335
0.00833335
0.00833335
0.00833335
0.00833335
0.00833335
0.00833335
0.00833335
0.00833335
0.00833335
0.00833335
0.00833335
0.00833335
0.00833335
0.00833335
0.00833335
0.00833335
0.00833335
0.00833335
0.00833335
0.00833335
0.00833335
0.00833335
0.00833335
0.00833335
0.00833335
0.00833335
0.00833335
0.00833076
0.00858453
0.00836863
0.00835091
0.00834789
0.00824409
0.00816019
0.00838573
0.00816162
0.00832054
0.00811821
0.00800782
0.00791808
0.00822292
0.00794034
0.00817088
0.00826645
0.00817287
0.00822168
0.00841805
0.00831858
0.00828346
0.00812443
0.00833571
0.00826731
0.00827944
0.00825601
0.00817746
0.00722044
0.0069572
0.00604466
0.00564937
0.00550544
0.00555116
0.0054078
0.00507635
0.00375744
0.00833335
0.00833335
0.00833335
0.00833335
0.00833335
0.00833335
0.00833335
0.00833335
0.00833335
0.00833335
0.00833335
0.00833335
0.00833335
0.00833335
0.00833335
0.00833335
0.00833335
0.00833335
0.00833335
0.00833335
0.00833335
0.00833335
0.00833335
0.00833335
0.00833335
0.00833335
0.00833335
0.00833335
0.00833335
0.00833335
0.00833335
0.00833335
0.00833335
0.00833335
0.00833335
0.00833335
0.00833335
0.00833335
0.00833335
0.00833335
0.00833335
0.00833335
0.00833335
0.00833335
0.00833335
0.00833335
0.00833335
0.00833335
0.00833335
0.00833335
0.00833335
0.00833335
0.00833335
0.00833335
0.00833335
0.00833335
0.00833335
0.00833334
0.008333
0.00833327
0.00835219
0.00330178
0.0079347
0.00494263
0.00532834
0.00468828
0.00438307
0.00402498
0.00379387
0.00355664
0.00337406
0.00316885
0.00317982
0.00322133
0.00321995
0.00324878
0.00330613
0.0033237
0.00329219
0.00329927
0.00329934
0.00326837
0.00320265
0.0031303
0.00305931
0.00281729
0.00264484
0.00257325
0.00246274
0.00228339
0.00227767
0.00216702
0.00212083
0.00219413
0.00217856
0.0019733
0.00833335
0.00833335
0.00833335
0.00833335
0.00833335
0.00833335
0.00833335
0.00833335
0.00833335
0.00833335
0.00833335
0.00833335
0.00833335
0.00833335
0.00833335
0.00833335
0.00833335
0.00833335
0.00833335
0.00833335
0.00833335
0.00833335
0.00833335
0.00833335
0.00833335
0.00833335
0.00833335
0.00833335
0.00833335
0.00833335
0.00833335
0.00833335
0.00833335