/*--------------------------------*- C++ -*----------------------------------*\
| =========                 |                                                 |
| \\      /  F ield         | OpenFOAM: The Open Source CFD Toolbox           |
|  \\    /   O peration     | Version:  2.3.0                                 |
|   \\  /    A nd           | Web:      www.OpenFOAM.org                      |
|    \\/     M anipulation  |                                                 |
\*---------------------------------------------------------------------------*/
FoamFile
{
    version     2.0;
    format      ascii;
    class       volScalarField;
    location    "36";
    object      epsilon.water;
}
// * * * * * * * * * * * * * * * * * * * * * * * * * * * * * * * * * * * * * //

dimensions      [0 2 -3 0 0 0 0];

internalField   nonuniform List<scalar> 
6144
(
5.50961e-05
4.50157e-05
2.64641e-05
2.01147e-05
1.15972e-05
7.49405e-06
5.60659e-06
5.18568e-06
5.15036e-06
6.53669e-06
8.07722e-06
9.54115e-06
1.01705e-05
1.02431e-05
9.64079e-06
9.26452e-06
8.74293e-06
8.37652e-06
7.96537e-06
7.79215e-06
7.71589e-06
7.6903e-06
7.70496e-06
7.73672e-06
7.78434e-06
7.84808e-06
7.92546e-06
8.01398e-06
8.17143e-06
8.39371e-06
8.59326e-06
8.7231e-06
8.80442e-06
8.85274e-06
8.90025e-06
8.94552e-06
9.05396e-06
9.19483e-06
9.40785e-06
9.61483e-06
9.79278e-06
1.01839e-05
1.03658e-05
1.10278e-05
1.08761e-05
1.09781e-05
9.83373e-06
9.23447e-06
9.13075e-06
1.21539e-05
1.44472e-05
2.10172e-05
4.42145e-05
0.000226841
0.000670354
0.000762564
0.00129564
0.00333158
0.0113736
0.0191957
0.0645082
0.0323587
0.0150875
0.00681692
0.00321433
0.00109014
0.000331086
0.000317731
0.000433975
0.000504612
0.000593885
0.000655955
0.000709989
0.000739081
0.000751793
0.000753053
0.000740931
0.000718729
0.000698579
0.000671035
0.000653121
0.000647419
0.000640091
0.00063174
0.000622861
0.000611268
0.000610314
0.000634375
0.00072525
0.00088329
0.0010117
0.00105709
0.00105013
0.0010194
0.000932942
0.000664935
0.00010255
7.32582e-05
4.68156e-05
4.0468e-05
2.44954e-05
1.99346e-05
1.81799e-05
1.74026e-05
1.7144e-05
2.05592e-05
2.37734e-05
2.66843e-05
2.73544e-05
2.61569e-05
2.42001e-05
2.30377e-05
2.21677e-05
2.19076e-05
2.1887e-05
2.22388e-05
2.27001e-05
2.31374e-05
2.35339e-05
2.3872e-05
2.41698e-05
2.44434e-05
2.47114e-05
2.49804e-05
2.5469e-05
2.5992e-05
2.64027e-05
2.66868e-05
2.69167e-05
2.71074e-05
2.72997e-05
2.74851e-05
2.77695e-05
2.80726e-05
2.84714e-05
2.89324e-05
2.92601e-05
3.00499e-05
3.02655e-05
3.1248e-05
3.06875e-05
3.00557e-05
2.76896e-05
2.70529e-05
2.53729e-05
2.92626e-05
3.45452e-05
4.20019e-05
6.47889e-05
0.000285516
0.00151838
0.00192693
0.00300356
0.00550707
0.00823366
0.00834054
0.0310281
0.00538068
0.00707593
0.00451736
0.00229095
0.000749801
0.000551455
0.000794585
0.00101342
0.00113724
0.00123228
0.00129135
0.0013546
0.00139498
0.0014423
0.00148531
0.00153487
0.00158752
0.00164469
0.00167575
0.00166363
0.00162088
0.00155979
0.0014656
0.00135313
0.00123752
0.00118026
0.00119251
0.00128252
0.0013038
0.00126152
0.0011655
0.00104446
0.000967348
0.000879289
0.000685823
0.000123853
8.50947e-05
6.22908e-05
5.89014e-05
4.55618e-05
3.95363e-05
3.7088e-05
3.16854e-05
2.77371e-05
2.88312e-05
3.17007e-05
3.25844e-05
3.08725e-05
2.8484e-05
2.67134e-05
2.60477e-05
2.61876e-05
2.71639e-05
2.88767e-05
3.0401e-05
3.1598e-05
3.2623e-05
3.34368e-05
3.40658e-05
3.456e-05
3.49569e-05
3.53025e-05
3.56159e-05
3.58905e-05
3.60905e-05
3.61982e-05
3.62597e-05
3.63166e-05
3.63575e-05
3.64076e-05
3.64477e-05
3.64923e-05
3.64814e-05
3.65588e-05
3.66406e-05
3.67e-05
3.6805e-05
3.65771e-05
3.68938e-05
3.68106e-05
3.68005e-05
3.5725e-05
3.77524e-05
4.10062e-05
4.63493e-05
6.0237e-05
7.3449e-05
0.000152474
0.000659612
0.00264306
0.00392766
0.00721889
0.00668406
0.00494636
0.00508939
0.0199427
0.00208341
0.00166641
0.00172861
0.00106667
0.000920716
0.00116811
0.00135551
0.00145854
0.00150462
0.00152667
0.001537
0.00156076
0.00158852
0.00163394
0.00169119
0.00177441
0.00189227
0.00203078
0.0021759
0.00227769
0.0023167
0.00231826
0.00227622
0.00215442
0.00197841
0.00186584
0.00183537
0.00173421
0.00150893
0.00117416
0.000937029
0.000866472
0.000848499
0.000816823
0.000749223
0.000145221
9.44825e-05
7.02294e-05
6.74652e-05
5.88662e-05
5.79583e-05
5.07622e-05
4.15258e-05
3.42903e-05
3.25777e-05
3.42159e-05
3.40116e-05
3.14498e-05
2.86315e-05
2.69285e-05
2.647e-05
2.70677e-05
2.84453e-05
3.00667e-05
3.1549e-05
3.27846e-05
3.38606e-05
3.4695e-05
3.5317e-05
3.57804e-05
3.61344e-05
3.64295e-05
3.66945e-05
3.69175e-05
3.70537e-05
3.7095e-05
3.70713e-05
3.70212e-05
3.69427e-05
3.6884e-05
3.68231e-05
3.67932e-05
3.67239e-05
3.67658e-05
3.66836e-05
3.66683e-05
3.63744e-05
3.61127e-05
3.59035e-05
3.65663e-05
3.78393e-05
4.16787e-05
4.6737e-05
5.2815e-05
5.91573e-05
7.68484e-05
0.000115815
0.00036371
0.00147217
0.00420418
0.00670337
0.00904501
0.00746707
0.00439457
0.00438656
0.0137601
0.00150373
0.00118856
0.00124698
0.00119812
0.00139174
0.00155572
0.00162311
0.00164801
0.00163978
0.00158721
0.00155933
0.00155106
0.00155919
0.00160432
0.0016665
0.00176926
0.00191578
0.00209648
0.00229827
0.00249716
0.0026278
0.00268389
0.00270269
0.00264328
0.00243122
0.00223409
0.00211387
0.00181987
0.00137512
0.000903157
0.000592678
0.000549305
0.000586308
0.000681487
0.000760036
0.000161745
0.000100521
7.63568e-05
7.31156e-05
6.40589e-05
6.66247e-05
5.51387e-05
4.45972e-05
3.9119e-05
3.54224e-05
3.57403e-05
3.36967e-05
3.01997e-05
2.67954e-05
2.52548e-05
2.49431e-05
2.5826e-05
2.74019e-05
2.91965e-05
3.09112e-05
3.24795e-05
3.38088e-05
3.47587e-05
3.54038e-05
3.58078e-05
3.60611e-05
3.6215e-05
3.63227e-05
3.63854e-05
3.63652e-05
3.62455e-05
3.605e-05
3.58096e-05
3.55529e-05
3.53179e-05
3.50954e-05
3.49203e-05
3.4715e-05
3.46109e-05
3.42696e-05
3.40471e-05
3.33148e-05
3.30754e-05
3.30828e-05
3.54964e-05
3.93894e-05
4.90576e-05
5.42102e-05
5.92439e-05
6.46992e-05
8.68109e-05
0.000162796
0.000586817
0.00194165
0.00477047
0.00777734
0.00912231
0.00845881
0.00454604
0.00447614
0.0108022
0.00158798
0.00138033
0.00147689
0.0015946
0.00168283
0.00171942
0.00172036
0.00164016
0.00151644
0.0013664
0.00122879
0.00116191
0.00114464
0.0012095
0.00129364
0.00146006
0.00170814
0.00198286
0.00225727
0.00253136
0.00272959
0.00283314
0.0028742
0.0028199
0.00253516
0.00224533
0.00194786
0.00139895
0.000777506
0.00044598
0.000325295
0.000326643
0.00038852
0.000559066
0.000733574
0.00017049
0.000104815
8.44135e-05
8.54804e-05
6.9633e-05
7.11524e-05
5.55163e-05
4.71744e-05
4.19836e-05
3.58684e-05
3.56423e-05
3.24121e-05
2.86294e-05
2.46611e-05
2.21516e-05
2.15749e-05
2.27012e-05
2.47686e-05
2.72537e-05
2.961e-05
3.15565e-05
3.29547e-05
3.38941e-05
3.44909e-05
3.48165e-05
3.49606e-05
3.49954e-05
3.49849e-05
3.49309e-05
3.47804e-05
3.45366e-05
3.4224e-05
3.38702e-05
3.35048e-05
3.31617e-05
3.28589e-05
3.25987e-05
3.23445e-05
3.21035e-05
3.16944e-05
3.12604e-05
3.05681e-05
3.04561e-05
3.11677e-05
3.50583e-05
4.09902e-05
5.26208e-05
5.59749e-05
5.75286e-05
6.55044e-05
8.75256e-05
0.000142606
0.000372152
0.00124935
0.00361375
0.00644633
0.00897589
0.00976087
0.0041295
0.00402885
0.0106577
0.00185778
0.00167025
0.00175696
0.0017815
0.00178575
0.00174544
0.00166729
0.00155086
0.00136552
0.00115444
0.000921302
0.000729791
0.00057508
0.000516162
0.000535023
0.000692791
0.000998638
0.00143549
0.00188689
0.00232963
0.00260461
0.00274697
0.00279802
0.00273749
0.00230933
0.00172878
0.0012725
0.00078828
0.000400886
0.000273074
0.000251164
0.000281949
0.000372423
0.00052491
0.000728797
0.000159885
0.00011255
8.80188e-05
9.62361e-05
7.41955e-05
7.62292e-05
5.83833e-05
4.98663e-05
4.46511e-05
3.57742e-05
3.474e-05
3.05278e-05
2.5737e-05
2.0706e-05
1.85533e-05
1.81703e-05
1.93043e-05
2.10596e-05
2.30915e-05
2.52218e-05
2.71103e-05
2.85648e-05
2.95897e-05
3.02121e-05
3.04795e-05
3.05235e-05
3.04304e-05
3.03027e-05
3.01517e-05
2.99426e-05
2.96064e-05
2.91649e-05
2.86558e-05
2.81458e-05
2.77246e-05
2.73595e-05
2.7016e-05
2.67102e-05
2.6366e-05
2.59898e-05
2.55368e-05
2.52056e-05
2.56625e-05
2.74883e-05
3.30402e-05
3.87364e-05
4.68049e-05
4.50905e-05
4.31614e-05
5.55762e-05
8.04259e-05
0.000112817
0.000250222
0.00073205
0.00217021
0.00524897
0.00783163
0.00998415
0.00457057
0.00447646
0.0118718
0.00210374
0.00188049
0.00196736
0.0019831
0.001892
0.00182458
0.00168693
0.0015664
0.00138103
0.00119197
0.000949491
0.000739168
0.000516411
0.000329781
0.000252974
0.000235055
0.000308816
0.000547019
0.00104545
0.00164945
0.00214781
0.00244931
0.00258153
0.00259505
0.00219264
0.00148336
0.000876514
0.000560626
0.000362946
0.000295823
0.000268414
0.000293459
0.000381547
0.000495609
0.000683605
0.000128494
0.000122829
8.87386e-05
0.000101106
7.80425e-05
7.64458e-05
5.34803e-05
4.41958e-05
4.31132e-05
3.50762e-05
3.36015e-05
2.92286e-05
2.49575e-05
1.94381e-05
1.62277e-05
1.54399e-05
1.68014e-05
1.89911e-05
2.13741e-05
2.36106e-05
2.55086e-05
2.69259e-05
2.7919e-05
2.85381e-05
2.88337e-05
2.89251e-05
2.88867e-05
2.87829e-05
2.86041e-05
2.8328e-05
2.79131e-05
2.74246e-05
2.69039e-05
2.63795e-05
2.58879e-05
2.54576e-05
2.50545e-05
2.47033e-05
2.4339e-05
2.39945e-05
2.35963e-05
2.33971e-05
2.39062e-05
2.55313e-05
3.02575e-05
3.42994e-05
3.89652e-05
3.6115e-05
3.32517e-05
4.53363e-05
6.77244e-05
0.000115759
0.00025534
0.00078352
0.00227869
0.00660566
0.0105798
0.0100008
0.00499399
0.00491236
0.0116652
0.00212068
0.00189002
0.00194891
0.00194742
0.0016792
0.00156545
0.00139514
0.00129574
0.00116014
0.00106732
0.000948074
0.000797506
0.000615426
0.000423928
0.000231941
0.000161504
0.000143649
0.00016797
0.000284284
0.000607074
0.00116584
0.00178197
0.00221775
0.00239603
0.00227581
0.00170661
0.000851413
0.000515585
0.000389913
0.000359766
0.000361555
0.000379131
0.000434563
0.000473909
0.000707101
0.00010808
0.000113151
8.75507e-05
0.000100365
7.55748e-05
6.93004e-05
4.94652e-05
3.97362e-05
3.91412e-05
3.32303e-05
3.15116e-05
2.71363e-05
2.23418e-05
1.57332e-05
1.14378e-05
1.01878e-05
1.13282e-05
1.33733e-05
1.54723e-05
1.72815e-05
1.8807e-05
2.00317e-05
2.09513e-05
2.15846e-05
2.19564e-05
2.21432e-05
2.22106e-05
2.22065e-05
2.21031e-05
2.18669e-05
2.15017e-05
2.10828e-05
2.06481e-05
2.02378e-05
1.98624e-05
1.95472e-05
1.92352e-05
1.89694e-05
1.87011e-05
1.85061e-05
1.82723e-05
1.82487e-05
1.87045e-05
1.96633e-05
2.23361e-05
2.37092e-05
2.49718e-05
2.27593e-05
2.23586e-05
3.10441e-05
4.98004e-05
0.000107191
0.000270427
0.0008414
0.00219647
0.00610562
0.011782
0.00996859
0.00490925
0.00480799
0.0163358
0.00229843
0.00177347
0.00173512
0.00179741
0.00144685
0.00129051
0.00110836
0.000987503
0.000884906
0.000789534
0.000703038
0.000620975
0.000536408
0.000441705
0.000323535
0.000195114
0.00013474
0.000121193
0.000125075
0.000184768
0.000311765
0.000503943
0.000921562
0.00160804
0.00195854
0.00198879
0.00129268
0.000631326
0.00042777
0.000382917
0.000408918
0.000444789
0.000470305
0.00046825
0.0006245
0.000100334
9.80198e-05
8.95419e-05
0.000105003
7.06804e-05
6.24509e-05
4.85792e-05
3.55416e-05
3.14156e-05
2.81198e-05
2.65792e-05
2.29602e-05
1.78279e-05
1.17499e-05
7.84276e-06
6.55692e-06
7.14463e-06
8.59132e-06
1.00585e-05
1.12999e-05
1.2405e-05
1.32393e-05
1.38652e-05
1.43315e-05
1.46343e-05
1.48116e-05
1.4917e-05
1.49673e-05
1.49475e-05
1.48442e-05
1.46611e-05
1.44452e-05
1.42343e-05
1.40512e-05
1.3878e-05
1.37224e-05
1.35481e-05
1.33906e-05
1.32202e-05
1.31086e-05
1.30356e-05
1.30934e-05
1.33965e-05
1.37538e-05
1.46367e-05
1.46538e-05
1.476e-05
1.38382e-05
1.45536e-05
2.04629e-05
3.57578e-05
8.24585e-05
0.000213504
0.000699565
0.00184448
0.00485744
0.0101069
0.00965667
0.00588758
0.00589719
0.0239466
0.00261037
0.00150734
0.00143608
0.00158116
0.00141418
0.00130333
0.00112652
0.000999478
0.000891931
0.000791693
0.000699132
0.000614342
0.00053261
0.000453715
0.000365382
0.000258657
0.000178024
0.000138112
0.000117155
0.000120173
0.000173447
0.00021991
0.000301302
0.000497497
0.000995118
0.00159137
0.0016852
0.000981787
0.000565709
0.000400803
0.00039119
0.000439434
0.000457532
0.000445276
0.000562899
8.97961e-05
7.76323e-05
7.94393e-05
8.92535e-05
5.27509e-05
4.57915e-05
3.84541e-05
2.99177e-05
2.66292e-05
2.32772e-05
2.18026e-05
1.72833e-05
1.29473e-05
8.27082e-06
5.49642e-06
4.40158e-06
4.59259e-06
5.46879e-06
6.42737e-06
7.23971e-06
7.96616e-06
8.52985e-06
8.96455e-06
9.30215e-06
9.54742e-06
9.72213e-06
9.86348e-06
9.96131e-06
9.99365e-06
9.96236e-06
9.88292e-06
9.79165e-06
9.71292e-06
9.67144e-06
9.6426e-06
9.61471e-06
9.56782e-06
9.51214e-06
9.43841e-06
9.38858e-06
9.38001e-06
9.39581e-06
9.57998e-06
9.70666e-06
1.00722e-05
9.98987e-06
1.01461e-05
9.85449e-06
1.11544e-05
1.64832e-05
3.0411e-05
7.02601e-05
0.000154107
0.000442171
0.00128393
0.00303929
0.00524271
0.00769709
0.00902745
0.00953116
0.0386805
0.0042701
0.00155578
0.00171026
0.00187462
0.00163448
0.00150787
0.00132893
0.00117783
0.00104789
0.000926561
0.000814685
0.000718254
0.000632351
0.000554913
0.000485797
0.000404568
0.000317516
0.000237128
0.000148764
0.000107982
0.000125632
0.000146458
0.000168409
0.000207097
0.000263904
0.000395116
0.000749717
0.000996285
0.000803496
0.000433845
0.000346751
0.000375285
0.000399025
0.000370075
0.000437685
8.71339e-05
6.65657e-05
6.17182e-05
7.60708e-05
4.28371e-05
3.31176e-05
2.24218e-05
1.87649e-05
1.94902e-05
2.05873e-05
1.97357e-05
1.3926e-05
9.00276e-06
5.37491e-06
3.65146e-06
3.08548e-06
3.27885e-06
3.86369e-06
4.4925e-06
5.0381e-06
5.52135e-06
5.9166e-06
6.25371e-06
6.53835e-06
6.76839e-06
6.96226e-06
7.13812e-06
7.29395e-06
7.40807e-06
7.47742e-06
7.4903e-06
7.48271e-06
7.48989e-06
7.53265e-06
7.58466e-06
7.62062e-06
7.62155e-06
7.60807e-06
7.57604e-06
7.53855e-06
7.54323e-06
7.55421e-06
7.71574e-06
7.74097e-06
7.91611e-06
7.7244e-06
7.86516e-06
7.94904e-06
1.05749e-05
1.71105e-05
3.12983e-05
6.83856e-05
0.000139555
0.000346435
0.000668963
0.00179349
0.00420588
0.00716626
0.0182344
0.020703
0.0653001
0.0121165
0.00203598
0.00175288
0.00236914
0.00226712
0.00200895
0.00170743
0.00144018
0.00121009
0.00102219
0.000878546
0.000768722
0.000679429
0.000598283
0.00052895
0.000461352
0.000397453
0.00034795
0.000256638
0.000121658
8.9165e-05
0.000112996
0.000124646
0.000133351
0.000136505
0.000151281
0.000221492
0.000318413
0.00041544
0.000441662
0.000320312
0.000263259
0.000259155
0.000220718
0.000256282
5.64316e-05
5.12574e-05
4.75637e-05
4.80147e-05
2.85659e-05
2.45012e-05
1.57257e-05
1.12309e-05
1.20252e-05
1.47999e-05
1.49551e-05
1.02249e-05
6.1988e-06
3.68431e-06
2.80306e-06
2.52509e-06
2.6534e-06
3.0013e-06
3.38794e-06
3.73658e-06
4.03966e-06
4.29439e-06
4.50985e-06
4.70517e-06
4.90142e-06
5.08579e-06
5.26696e-06
5.44499e-06
5.6005e-06
5.70915e-06
5.75927e-06
5.78332e-06
5.82375e-06
5.90155e-06
5.98852e-06
6.06547e-06
6.11448e-06
6.13604e-06
6.13423e-06
6.11933e-06
6.15593e-06
6.18903e-06
6.37533e-06
6.41437e-06
6.51433e-06
6.34537e-06
6.61861e-06
7.15932e-06
1.09304e-05
1.81095e-05
3.42954e-05
7.23141e-05
0.000154102
0.000387419
0.00058954
0.00127618
0.00403303
0.00835033
0.027773
0.0348874
0.0868672
0.0124672
0.00365954
0.00301757
0.00312429
0.00298962
0.00260455
0.00208531
0.00165294
0.00132513
0.00109271
0.000927417
0.000801712
0.000706044
0.000626282
0.000558429
0.00049388
0.000429081
0.000382967
0.000327201
0.000185162
7.66591e-05
8.09086e-05
9.45006e-05
9.9461e-05
9.83358e-05
9.59722e-05
0.000116731
0.000135605
0.000162925
0.000183799
0.000190565
0.000183167
0.00016234
0.000131285
0.000144288
4.58406e-05
4.74566e-05
4.3415e-05
4.23121e-05
2.4042e-05
1.98974e-05
1.3838e-05
8.88458e-06
8.93961e-06
9.78421e-06
1.05549e-05
6.84669e-06
4.20804e-06
2.94303e-06
2.39508e-06
2.12597e-06
2.22072e-06
2.48894e-06
2.77292e-06
3.02566e-06
3.24208e-06
3.42311e-06
3.5839e-06
3.72794e-06
3.85508e-06
3.9779e-06
4.10966e-06
4.25408e-06
4.39114e-06
4.49697e-06
4.54032e-06
4.556e-06
4.59121e-06
4.67875e-06
4.79507e-06
4.89727e-06
4.98055e-06
5.03553e-06
5.06455e-06
5.07854e-06
5.14483e-06
5.20188e-06
5.41794e-06
5.48328e-06
5.57841e-06
5.46448e-06
5.73786e-06
6.53317e-06
1.06526e-05
1.84015e-05
3.45983e-05
7.31918e-05
0.000163508
0.000386411
0.000676622
0.00140361
0.004228
0.0102481
0.0348931
0.0422602
0.105822
0.0143192
0.010547
0.00763134
0.00564808
0.00412103
0.00305595
0.00231126
0.00177911
0.00140159
0.00113247
0.00094225
0.000806628
0.0007131
0.00063773
0.000571555
0.000518379
0.000455628
0.000406968
0.000359717
0.000252097
8.35622e-05
6.33442e-05
7.56856e-05
7.97141e-05
7.89967e-05
7.61112e-05
8.30296e-05
8.5859e-05
8.85025e-05
9.3522e-05
9.58549e-05
9.58905e-05
9.05867e-05
7.28098e-05
7.69437e-05
3.77161e-05
3.6473e-05
3.80377e-05
3.5405e-05
2.12404e-05
1.61762e-05
8.90361e-06
7.11074e-06
6.71489e-06
6.09673e-06
5.72454e-06
4.19135e-06
2.98992e-06
2.23341e-06
1.80263e-06
1.63003e-06
1.7081e-06
1.904e-06
2.10468e-06
2.27975e-06
2.4311e-06
2.56631e-06
2.69425e-06
2.82081e-06
2.94709e-06
3.07652e-06
3.21898e-06
3.37558e-06
3.52998e-06
3.65985e-06
3.73864e-06
3.78801e-06
3.85189e-06
3.95568e-06
4.07685e-06
4.18468e-06
4.27895e-06
4.34706e-06
4.38877e-06
4.41086e-06
4.48257e-06
4.54996e-06
4.77268e-06
4.84794e-06
4.92305e-06
4.82938e-06
5.18987e-06
6.34096e-06
1.08786e-05
1.85251e-05
3.31875e-05
6.7337e-05
0.00015278
0.000345374
0.000718453
0.00161471
0.00516053
0.0130154
0.0352667
0.0473588
0.119556
0.0331016
0.0166451
0.00908431
0.0060669
0.00432753
0.00313461
0.00231601
0.00176089
0.0013851
0.00113469
0.000964788
0.000836408
0.00074406
0.000668426
0.000593172
0.000540593
0.000476937
0.000423582
0.000381469
0.000286904
9.41795e-05
5.25761e-05
6.29066e-05
6.72104e-05
6.82671e-05
6.5456e-05
6.45577e-05
6.20983e-05
5.82119e-05
5.62607e-05
5.39896e-05
5.06822e-05
4.66292e-05
4.07164e-05
4.27261e-05
3.91677e-05
2.39586e-05
1.76368e-05
1.88968e-05
1.58042e-05
1.38563e-05
6.30581e-06
4.1452e-06
3.6334e-06
3.13618e-06
2.75722e-06
2.28482e-06
1.78925e-06
1.37793e-06
1.11133e-06
1.013e-06
1.05469e-06
1.15978e-06
1.26524e-06
1.35706e-06
1.43872e-06
1.51551e-06
1.59196e-06
1.67129e-06
1.75521e-06
1.84363e-06
1.93974e-06
2.04564e-06
2.15362e-06
2.25138e-06
2.32295e-06
2.37366e-06
2.42841e-06
2.50759e-06
2.61021e-06
2.70423e-06
2.79432e-06
2.86622e-06
2.91675e-06
2.94499e-06
3.00859e-06
3.07131e-06
3.2559e-06
3.32901e-06
3.38742e-06
3.33646e-06
3.67344e-06
4.90533e-06
9.28354e-06
1.6409e-05
2.62404e-05
4.37165e-05
8.83643e-05
0.000177061
0.000387913
0.000901164
0.0024997
0.00685813
0.0334688
0.0541713
0.134295
0.0605249
0.0297749
0.0151513
0.00928398
0.00603892
0.00399146
0.00272518
0.00197916
0.00153573
0.00126373
0.00108614
0.000947646
0.000838981
0.000747293
0.000656268
0.000592507
0.000518504
0.000456404
0.000411129
0.000311136
9.84031e-05
4.42523e-05
4.68945e-05
4.79438e-05
4.73171e-05
4.49459e-05
4.22716e-05
3.96262e-05
3.69204e-05
3.33767e-05
2.98977e-05
2.71328e-05
2.45214e-05
2.23929e-05
2.1045e-05
0.000152775
0.000128164
6.47846e-05
3.92578e-05
1.84322e-05
1.17858e-05
1.18862e-05
1.53108e-05
2.09398e-05
3.28195e-05
4.19279e-05
4.94139e-05
5.12113e-05
5.02861e-05
4.6324e-05
4.35932e-05
4.05624e-05
3.81368e-05
3.53371e-05
3.28035e-05
3.09625e-05
3.00098e-05
2.98279e-05
3.01112e-05
3.08147e-05
3.18664e-05
3.31748e-05
3.46737e-05
3.61918e-05
3.75815e-05
3.86664e-05
3.93884e-05
3.99026e-05
4.03073e-05
4.0696e-05
4.11352e-05
4.19189e-05
4.29292e-05
4.42725e-05
4.5612e-05
4.69615e-05
4.92859e-05
5.11795e-05
5.53935e-05
5.57624e-05
5.54819e-05
4.71961e-05
3.66081e-05
2.49857e-05
2.29135e-05
2.19422e-05
2.70091e-05
5.16505e-05
0.000264801
0.00086394
0.000952604
0.00301183
0.00543036
0.00747444
0.0150323
0.0378962
0.0233436
0.0131041
0.00794747
0.00512812
0.00331124
0.00196613
0.000805495
0.000551022
0.000618608
0.000682987
0.000726688
0.000797493
0.000881153
0.000938661
0.000971654
0.0009847
0.000986272
0.000996375
0.00101702
0.00104384
0.00108343
0.00112153
0.00115977
0.00120537
0.00121638
0.0012418
0.00135687
0.00163646
0.00170491
0.00163903
0.00145572
0.00126248
0.0011476
0.0010066
0.000659671
0.000139869
9.80133e-05
6.81482e-05
5.27502e-05
3.22857e-05
2.80015e-05
3.07827e-05
3.54434e-05
3.95904e-05
4.90129e-05
5.45614e-05
5.9129e-05
5.97099e-05
5.71818e-05
5.38149e-05
5.15855e-05
5.02476e-05
4.97814e-05
4.92897e-05
4.86107e-05
4.81182e-05
4.80465e-05
4.83761e-05
4.90224e-05
4.99485e-05
5.11067e-05
5.24424e-05
5.3883e-05
5.525e-05
5.64003e-05
5.72316e-05
5.78681e-05
5.84451e-05
5.89892e-05
5.95278e-05
6.01124e-05
6.08438e-05
6.1695e-05
6.27897e-05
6.3959e-05
6.53176e-05
6.70524e-05
6.87877e-05
7.12077e-05
7.24492e-05
7.26663e-05
6.9467e-05
6.298e-05
5.43638e-05
4.55666e-05
4.35897e-05
4.5517e-05
6.75612e-05
0.000292969
0.00138089
0.00198099
0.00412296
0.00712572
0.00875688
0.0101715
0.0427175
0.00511646
0.0107644
0.00878175
0.0048196
0.00385336
0.00286194
0.0020155
0.0019405
0.00193306
0.00169817
0.00159271
0.00158795
0.00161206
0.00166977
0.00171402
0.00173845
0.00177549
0.00183733
0.00190962
0.00196745
0.00202072
0.00204099
0.00201665
0.00195543
0.00185348
0.00178144
0.00179343
0.00178159
0.00166684
0.00135611
0.000952693
0.000843037
0.000929127
0.00110386
0.000767324
0.000205022
0.000119644
9.34577e-05
8.24188e-05
6.66687e-05
5.71233e-05
5.48226e-05
5.77607e-05
5.8691e-05
6.43051e-05
6.7537e-05
6.94445e-05
6.80138e-05
6.38821e-05
5.97982e-05
5.79119e-05
5.77032e-05
5.88951e-05
6.04998e-05
6.18236e-05
6.3003e-05
6.41431e-05
6.51758e-05
6.62279e-05
6.73088e-05
6.84375e-05
6.96111e-05
7.081e-05
7.19447e-05
7.28574e-05
7.3519e-05
7.41035e-05
7.46752e-05
7.52262e-05
7.57925e-05
7.63968e-05
7.70526e-05
7.77274e-05
7.85794e-05
7.94348e-05
8.02979e-05
8.09922e-05
8.1504e-05
8.23562e-05
8.37677e-05
8.66964e-05
9.07903e-05
9.49892e-05
9.92843e-05
8.87797e-05
8.58819e-05
0.000102081
0.00018506
0.000721872
0.00273054
0.00391533
0.00807164
0.00912586
0.00761293
0.00743277
0.0388887
0.00313089
0.00392604
0.00458805
0.00352586
0.00334123
0.00279045
0.00259484
0.00262537
0.00263006
0.00250143
0.00244806
0.00248637
0.00254876
0.002635
0.00267489
0.0026457
0.00265628
0.00277756
0.00294207
0.00309484
0.0032511
0.00335015
0.00336454
0.00328447
0.0031372
0.00295741
0.00281222
0.00256178
0.00195099
0.00133284
0.000881052
0.000745344
0.000832107
0.00117596
0.00100946
0.000331367
0.000165788
0.000119174
0.00010732
0.00010368
9.36072e-05
8.37335e-05
8.03528e-05
7.74915e-05
7.92028e-05
8.17417e-05
8.18544e-05
7.857e-05
7.28445e-05
6.74532e-05
6.50865e-05
6.52225e-05
6.68673e-05
6.91347e-05
7.13773e-05
7.36382e-05
7.56035e-05
7.70891e-05
7.84099e-05
7.96509e-05
8.08958e-05
8.21111e-05
8.33033e-05
8.43828e-05
8.52012e-05
8.57737e-05
8.62254e-05
8.66032e-05
8.69545e-05
8.73634e-05
8.78319e-05
8.8409e-05
8.8983e-05
8.96907e-05
9.01857e-05
9.06123e-05
9.06261e-05
9.1199e-05
9.25102e-05
9.63547e-05
0.000101604
0.000109503
0.000117415
0.000124926
0.000120306
0.000125959
0.000183786
0.000486924
0.00176852
0.00578328
0.00817866
0.010343
0.0107733
0.00634487
0.00630331
0.0351772
0.00301259
0.00209229
0.00235124
0.00255845
0.00258559
0.00274325
0.00287096
0.00310578
0.00323213
0.00329302
0.0033122
0.0033866
0.00345672
0.0035215
0.00354077
0.00344687
0.00341374
0.00363657
0.00398851
0.00440896
0.00476269
0.00501196
0.00506256
0.0049036
0.00457169
0.00423298
0.00386968
0.00308414
0.00200842
0.0012937
0.000759315
0.000589264
0.000672357
0.00111507
0.00110225
0.000529337
0.000226117
0.000146257
0.00012536
0.000121375
0.000121024
0.000107173
9.96401e-05
9.54395e-05
9.48315e-05
9.72625e-05
9.54715e-05
8.97005e-05
7.95766e-05
7.15416e-05
6.80681e-05
6.89739e-05
7.21355e-05
7.62452e-05
8.02835e-05
8.38441e-05
8.67807e-05
8.91601e-05
9.11566e-05
9.28182e-05
9.42307e-05
9.55686e-05
9.68711e-05
9.80399e-05
9.891e-05
9.94502e-05
9.98029e-05
0.000100052
0.000100268
0.000100586
0.000100985
0.000101455
0.000101951
0.000102455
0.000102752
0.000102888
0.000102971
0.000104433
0.0001075
0.000114156
0.000121733
0.000132009
0.000132895
0.000131034
0.00013102
0.000139056
0.000241397
0.000904742
0.00281578
0.00743563
0.0114245
0.0159382
0.017742
0.00697265
0.0071147
0.0302221
0.00244181
0.00186279
0.00214942
0.00253042
0.002739
0.00309717
0.0034567
0.0037242
0.00392294
0.0039757
0.00392473
0.00389931
0.0038983
0.00390033
0.00379884
0.00367574
0.0036542
0.00400235
0.0044799
0.00516365
0.00602971
0.00676275
0.00707487
0.00700735
0.0065592
0.00591312
0.00493662
0.0032502
0.00169562
0.000812272
0.000450554
0.000427559
0.000535953
0.000952792
0.0011031
0.000762365
0.000285182
0.000180781
0.000151628
0.000139142
0.000139926
0.000126463
0.000118935
0.000112997
0.000108434
0.000109142
0.000103413
9.45158e-05
8.13022e-05
7.16234e-05
6.71698e-05
6.85063e-05
7.24817e-05
7.75302e-05
8.25891e-05
8.70194e-05
9.06245e-05
9.38211e-05
9.6418e-05
9.84752e-05
0.00010017
0.000101647
0.000103017
0.000104193
0.000104973
0.000105292
0.000105364
0.000105291
0.000105167
0.000105324
0.000105583
0.000105837
0.000106141
0.000106306
0.000106354
0.000106146
0.000106157
0.0001081
0.00011298
0.000123993
0.000131896
0.000139773
0.000135968
0.000123564
0.000131324
0.00014541
0.000200099
0.000505545
0.00177816
0.00546706
0.0122079
0.0211764
0.0247832
0.00827348
0.00853782
0.0332292
0.00303931
0.00232392
0.00263951
0.00295792
0.00323047
0.00352295
0.00379
0.0039096
0.0039468
0.00380144
0.00360353
0.00339835
0.00315505
0.00294923
0.00261903
0.00244289
0.00251794
0.00319638
0.00409928
0.00530154
0.0065447
0.00767807
0.00846844
0.00874991
0.0085661
0.007714
0.00581974
0.00322829
0.00133835
0.000424456
0.000296414
0.000334014
0.000473334
0.000816943
0.00106053
0.000780169
0.000326449
0.000221451
0.000175395
0.000161915
0.000160513
0.00014795
0.000135636
0.000129812
0.000117963
0.000115902
0.000106006
9.51224e-05
7.74592e-05
6.43862e-05
5.89537e-05
6.09593e-05
6.60049e-05
7.22811e-05
7.84848e-05
8.41245e-05
8.88842e-05
9.26447e-05
9.5646e-05
9.79246e-05
9.96951e-05
0.000101136
0.000102423
0.00010346
0.00010402
0.000104021
0.000103735
0.000103278
0.00010274
0.000102628
0.000102627
0.000102541
0.000102517
0.000102259
0.000101992
0.000101369
0.000101323
0.000103652
0.00010964
0.000123463
0.000130408
0.000132972
0.00011444
9.55824e-05
0.000119955
0.000153726
0.000196993
0.000375968
0.00115325
0.00367263
0.0115339
0.0229423
0.0271309
0.0081893
0.00846127
0.0361297
0.00382775
0.00309789
0.00351954
0.00366472
0.00373206
0.00381027
0.00391798
0.00395479
0.00390339
0.00367066
0.00332066
0.00294741
0.00247882
0.00195683
0.00134895
0.00105433
0.000977257
0.00125143
0.00211307
0.00374473
0.00567242
0.00749681
0.00877107
0.00933712
0.0093942
0.00863687
0.00646717
0.00357404
0.00154723
0.00059351
0.000355012
0.000362043
0.000492332
0.000694654
0.00104102
0.000654235
0.000355826
0.000255076
0.000184916
0.000169898
0.000165798
0.000156431
0.000140371
0.000138472
0.000122473
0.000118385
0.000105421
9.12532e-05
6.81754e-05
5.17644e-05
4.51348e-05
4.85735e-05
5.55131e-05
6.3434e-05
7.05866e-05
7.66653e-05
8.15381e-05
8.53604e-05
8.83421e-05
9.05141e-05
9.20979e-05
9.32608e-05
9.4022e-05
9.43049e-05
9.40088e-05
9.3177e-05
9.21487e-05
9.10215e-05
8.97598e-05
8.82857e-05
8.69198e-05
8.55337e-05
8.4337e-05
8.30983e-05
8.21404e-05
8.0773e-05
8.04736e-05
8.16429e-05
8.62594e-05
9.7513e-05
0.000103874
9.89807e-05
7.89435e-05
6.12741e-05
9.19196e-05
0.000138828
0.000204966
0.000385525
0.00126768
0.00534574
0.0157361
0.0263259
0.0280023
0.00844249
0.00862177
0.0359667
0.00400174
0.00354412
0.00390565
0.00399461
0.00389955
0.00387636
0.00388733
0.00381936
0.00365776
0.00343238
0.00315338
0.00279604
0.00236052
0.00180246
0.00112059
0.000651295
0.00047184
0.000433357
0.000685078
0.00142945
0.00292561
0.00475241
0.00655892
0.00808476
0.00870634
0.00818004
0.00564055
0.00312613
0.0016133
0.000917957
0.000634611
0.000560414
0.000698552
0.0012411
0.00303306
0.000525907
0.000405641
0.000293566
0.000201621
0.000156546
0.00014744
0.000158361
0.000140801
0.000141656
0.000126171
0.000120619
0.000103278
8.50702e-05
5.64016e-05
3.66133e-05
2.85236e-05
2.91583e-05
3.25907e-05
3.72331e-05
4.22789e-05
4.78779e-05
5.25695e-05
5.6316e-05
5.91891e-05
6.11876e-05
6.24538e-05
6.32729e-05
6.38384e-05
6.40805e-05
6.36609e-05
6.26339e-05
6.1344e-05
5.99391e-05
5.8675e-05
5.776e-05
5.70934e-05
5.62125e-05
5.56249e-05
5.49034e-05
5.45479e-05
5.35057e-05
5.34303e-05
5.36769e-05
5.62448e-05
6.09091e-05
6.37185e-05
5.70844e-05
4.63368e-05
4.0464e-05
6.86876e-05
0.00012177
0.000187716
0.000326269
0.00100597
0.0038615
0.0120097
0.0225546
0.0192229
0.00785461
0.008027
0.0389893
0.004024
0.00356248
0.0036712
0.00377708
0.00331507
0.00313992
0.00281532
0.00260586
0.00239507
0.00217001
0.00195942
0.00174813
0.00154196
0.00133488
0.00106888
0.000722997
0.000399337
0.000259795
0.000257049
0.000414891
0.000826975
0.00144079
0.00220724
0.00378787
0.00581339
0.00669085
0.00537479
0.00260511
0.00147627
0.00108511
0.000987871
0.00106212
0.00156076
0.00273485
0.00340584
0.000525572
0.000421084
0.00039109
0.000322866
0.000161524
0.000120237
0.000118348
0.000123438
0.000121584
0.00011174
0.000105026
8.69271e-05
6.54652e-05
4.06666e-05
2.68288e-05
2.18122e-05
2.14674e-05
2.29121e-05
2.51638e-05
2.7734e-05
3.04962e-05
3.27928e-05
3.4679e-05
3.62037e-05
3.73065e-05
3.81196e-05
3.88176e-05
3.94854e-05
3.98608e-05
3.97451e-05
3.92698e-05
3.86937e-05
3.81673e-05
3.77185e-05
3.72673e-05
3.69068e-05
3.64688e-05
3.61341e-05
3.55566e-05
3.5155e-05
3.44419e-05
3.40539e-05
3.3786e-05
3.42036e-05
3.53411e-05
3.64464e-05
3.27154e-05
3.15385e-05
3.30376e-05
5.7936e-05
0.00010682
0.000173328
0.000296907
0.000671539
0.00200452
0.00654184
0.0153947
0.0195302
0.0091216
0.00960879
0.0385149
0.00361535
0.00304543
0.00280852
0.00307206
0.00234333
0.00213001
0.00174447
0.00156706
0.0014097
0.00126334
0.00112975
0.0010039
0.000873119
0.000742034
0.000588014
0.000420389
0.000284477
0.00021352
0.000206785
0.000261817
0.000378423
0.000527924
0.000650466
0.000991586
0.00200505
0.00475689
0.00594653
0.00434436
0.00260782
0.00200385
0.00189426
0.00204723
0.0023643
0.00248507
0.00160032
0.000464438
0.000364519
0.000460849
0.000507968
0.00024764
0.000131563
9.1935e-05
8.68588e-05
9.07199e-05
9.04859e-05
8.66906e-05
7.23556e-05
5.32509e-05
3.29522e-05
2.321e-05
2.00416e-05
1.95503e-05
1.99838e-05
2.06949e-05
2.19509e-05
2.32992e-05
2.44596e-05
2.55064e-05
2.63806e-05