/*--------------------------------*- C++ -*----------------------------------*\
| =========                 |                                                 |
| \\      /  F ield         | OpenFOAM: The Open Source CFD Toolbox           |
|  \\    /   O peration     | Version:  2.3.0                                 |
|   \\  /    A nd           | Web:      www.OpenFOAM.org                      |
|    \\/     M anipulation  |                                                 |
\*---------------------------------------------------------------------------*/
FoamFile
{
    version     2.0;
    format      ascii;
    class       volScalarField;
    location    "36";
    object      nut.water;
}
// * * * * * * * * * * * * * * * * * * * * * * * * * * * * * * * * * * * * * //

dimensions      [0 2 -1 0 0 0 0];

internalField   nonuniform List<scalar> 
6144
(
1.33502e-05
1.24857e-05
1.04659e-05
9.55657e-06
7.95911e-06
6.88407e-06
6.25204e-06
6.09351e-06
6.08182e-06
6.58828e-06
7.07448e-06
7.48308e-06
7.64834e-06
7.67043e-06
7.52084e-06
7.42538e-06
7.2871e-06
7.18762e-06
7.0717e-06
7.02348e-06
7.00414e-06
7.00003e-06
7.00813e-06
7.02141e-06
7.03946e-06
7.0623e-06
7.08913e-06
7.11915e-06
7.1694e-06
7.23761e-06
7.29822e-06
7.33854e-06
7.36508e-06
7.3824e-06
7.39945e-06
7.41588e-06
7.44964e-06
7.49209e-06
7.55344e-06
7.6128e-06
7.66357e-06
7.76925e-06
7.81982e-06
7.9885e-06
7.95685e-06
7.98776e-06
7.70742e-06
7.55615e-06
7.5258e-06
8.26914e-06
8.74492e-06
9.90118e-06
1.26841e-05
2.20272e-05
3.15823e-05
3.29411e-05
3.9293e-05
5.40172e-05
8.19218e-05
9.79668e-05
0.000159928
0.000119025
9.54638e-05
7.21129e-05
5.64227e-05
3.84843e-05
2.58638e-05
2.63642e-05
3.02911e-05
3.22862e-05
3.4344e-05
3.57531e-05
3.68564e-05
3.73446e-05
3.73112e-05
3.6946e-05
3.62967e-05
3.54405e-05
3.46508e-05
3.37136e-05
3.30862e-05
3.30837e-05
3.34413e-05
3.39224e-05
3.44397e-05
3.49754e-05
3.53703e-05
3.60103e-05
3.78374e-05
4.05982e-05
4.32672e-05
4.47108e-05
4.4555e-05
4.35505e-05
4.10191e-05
3.35203e-05
1.64346e-05
1.47209e-05
1.27114e-05
1.21379e-05
1.02953e-05
9.63359e-06
9.36279e-06
9.24781e-06
9.22231e-06
9.82141e-06
1.03332e-05
1.07642e-05
1.0879e-05
1.07426e-05
1.04916e-05
1.03442e-05
1.02356e-05
1.02187e-05
1.0239e-05
1.03169e-05
1.04115e-05
1.05018e-05
1.05855e-05
1.06602e-05
1.07286e-05
1.07934e-05
1.08571e-05
1.0921e-05
1.10167e-05
1.11165e-05
1.11997e-05
1.12649e-05
1.13225e-05
1.13746e-05
1.1427e-05
1.14784e-05
1.15436e-05
1.16115e-05
1.16922e-05
1.17814e-05
1.18522e-05
1.19848e-05
1.20403e-05
1.21964e-05
1.21509e-05
1.20933e-05
1.17968e-05
1.17408e-05
1.15224e-05
1.20965e-05
1.27899e-05
1.36731e-05
1.58943e-05
2.61725e-05
4.55751e-05
4.93909e-05
5.73355e-05
7.07203e-05
8.11802e-05
8.27584e-05
0.000139229
7.98861e-05
8.53922e-05
6.97808e-05
5.66359e-05
3.92512e-05
3.64076e-05
4.24146e-05
4.63443e-05
4.84816e-05
5.00282e-05
5.11057e-05
5.2107e-05
5.26973e-05
5.32012e-05
5.34665e-05
5.37496e-05
5.40005e-05
5.43087e-05
5.4268e-05
5.38205e-05
5.3029e-05
5.2071e-05
5.08573e-05
4.95544e-05
4.83855e-05
4.8069e-05
4.89449e-05
5.08206e-05
5.22946e-05
5.29645e-05
5.25052e-05
5.13451e-05
4.96633e-05
4.72372e-05
3.5415e-05
1.7513e-05
1.5507e-05
1.40284e-05
1.38209e-05
1.27428e-05
1.22026e-05
1.19897e-05
1.14204e-05
1.0966e-05
1.11496e-05
1.15511e-05
1.1701e-05
1.15356e-05
1.12719e-05
1.1074e-05
1.10218e-05
1.10822e-05
1.12595e-05
1.15338e-05
1.17766e-05
1.1973e-05
1.21454e-05
1.22902e-05
1.24118e-05
1.25167e-05
1.26099e-05
1.26969e-05
1.27801e-05
1.28587e-05
1.29284e-05
1.29873e-05
1.30408e-05
1.30939e-05
1.31451e-05
1.31976e-05
1.32489e-05
1.33009e-05
1.33462e-05
1.34023e-05
1.3459e-05
1.35129e-05
1.35723e-05
1.35908e-05
1.36764e-05
1.3714e-05
1.37595e-05
1.36744e-05
1.39805e-05
1.44289e-05
1.50804e-05
1.6493e-05
1.76761e-05
2.26788e-05
3.69611e-05
5.89094e-05
6.73867e-05
8.26703e-05
8.10221e-05
7.39059e-05
7.6417e-05
0.000129222
6.47777e-05
5.3451e-05
5.87866e-05
4.89256e-05
4.89214e-05
5.26006e-05
5.58437e-05
5.72923e-05
5.82073e-05
5.8734e-05
5.91871e-05
5.97819e-05
6.03469e-05
6.10171e-05
6.1665e-05
6.25398e-05
6.37067e-05
6.50242e-05
6.63164e-05
6.7107e-05
6.72825e-05
6.70746e-05
6.63974e-05
6.4987e-05
6.30119e-05
6.18844e-05
6.22732e-05
6.22755e-05
6.10928e-05
5.79114e-05
5.48566e-05
5.39078e-05
5.37345e-05
5.27008e-05
3.8786e-05
1.84776e-05
1.60928e-05
1.46541e-05
1.4533e-05
1.39671e-05
1.39738e-05
1.3442e-05
1.2638e-05
1.19183e-05
1.17758e-05
1.20315e-05
1.20691e-05
1.18186e-05
1.15129e-05
1.13371e-05
1.13295e-05
1.14717e-05
1.1722e-05
1.20007e-05
1.2256e-05
1.24759e-05
1.26737e-05
1.28402e-05
1.29803e-05
1.31009e-05
1.32083e-05
1.33088e-05
1.34058e-05
1.34978e-05
1.35795e-05
1.36498e-05
1.37121e-05
1.37713e-05
1.3827e-05
1.38852e-05
1.39431e-05
1.40049e-05
1.40617e-05
1.41327e-05
1.41878e-05
1.42513e-05
1.42784e-05
1.43092e-05
1.43464e-05
1.45007e-05
1.47322e-05
1.5285e-05
1.59492e-05
1.66886e-05
1.74136e-05
1.91043e-05
2.20336e-05
3.23366e-05
5.15768e-05
7.36272e-05
8.64187e-05
9.59858e-05
9.03989e-05
7.68124e-05
7.9653e-05
0.000121166
6.28408e-05
5.43665e-05
5.87279e-05
5.74496e-05
6.08346e-05
6.29876e-05
6.42051e-05
6.46448e-05
6.48546e-05
6.44572e-05
6.44661e-05
6.46792e-05
6.51152e-05
6.59616e-05
6.69049e-05
6.83266e-05
7.01181e-05
7.22061e-05
7.44039e-05
7.6363e-05
7.75587e-05
7.80179e-05
7.79509e-05
7.70356e-05
7.45819e-05
7.23725e-05
7.1686e-05
6.96637e-05
6.54492e-05
5.90051e-05
5.2529e-05
5.16909e-05
5.33759e-05
5.64561e-05
4.08629e-05
1.91697e-05
1.64682e-05
1.51265e-05
1.50096e-05
1.44599e-05
1.47499e-05
1.39487e-05
1.3084e-05
1.26082e-05
1.22767e-05
1.23935e-05
1.22318e-05
1.187e-05
1.14796e-05
1.13272e-05
1.13524e-05
1.15579e-05
1.18632e-05
1.21933e-05
1.25058e-05
1.27934e-05
1.30465e-05
1.32493e-05
1.34131e-05
1.35466e-05
1.36615e-05
1.37642e-05
1.38613e-05
1.39528e-05
1.40339e-05
1.41021e-05
1.41604e-05
1.42124e-05
1.4262e-05
1.4314e-05
1.43673e-05
1.44268e-05
1.44817e-05
1.45505e-05
1.45852e-05
1.46361e-05
1.46123e-05
1.46591e-05
1.47427e-05
1.5178e-05
1.58004e-05
1.70903e-05
1.77582e-05
1.83879e-05
1.90574e-05
2.11812e-05
2.63193e-05
4.03497e-05
6.02847e-05
8.19766e-05
9.70437e-05
0.000102869
0.000100717
8.44809e-05
8.77201e-05
0.0001173
6.81443e-05
6.26714e-05
6.65973e-05
6.82984e-05
6.98596e-05
7.04059e-05
7.0712e-05
6.97999e-05
6.83643e-05
6.6441e-05
6.46237e-05
6.38126e-05
6.38578e-05
6.5318e-05
6.68755e-05
6.97168e-05
7.34923e-05
7.73863e-05
8.09098e-05
8.41047e-05
8.62647e-05
8.74399e-05
8.77912e-05
8.69511e-05
8.34837e-05
7.95887e-05
7.59793e-05
6.94232e-05
5.91062e-05
5.06754e-05
4.56866e-05
4.66794e-05
5.0509e-05
5.83646e-05
4.22293e-05
1.95276e-05
1.67421e-05
1.57034e-05
1.58963e-05
1.49666e-05
1.51957e-05
1.41082e-05
1.34742e-05
1.30676e-05
1.2497e-05
1.25685e-05
1.22726e-05
1.1868e-05
1.13797e-05
1.1064e-05
1.10511e-05
1.13259e-05
1.17485e-05
1.22209e-05
1.26581e-05
1.30265e-05
1.33145e-05
1.35394e-05
1.37186e-05
1.38623e-05
1.39825e-05
1.40883e-05
1.41883e-05
1.42824e-05
1.43632e-05
1.44309e-05
1.44885e-05
1.45394e-05
1.45879e-05
1.46386e-05
1.46945e-05
1.4756e-05
1.48177e-05
1.48807e-05
1.49163e-05
1.49467e-05
1.49338e-05
1.50143e-05
1.5231e-05
1.59453e-05
1.69071e-05
1.84829e-05
1.89751e-05
1.92685e-05
2.02731e-05
2.25204e-05
2.67219e-05
3.68893e-05
5.53741e-05
7.95048e-05
9.71014e-05
0.000108975
0.000112638
8.58154e-05
8.9424e-05
0.000123556
7.57079e-05
7.16469e-05
7.5303e-05
7.60158e-05
7.62428e-05
7.58424e-05
7.48823e-05
7.32266e-05
7.05827e-05
6.70335e-05
6.28211e-05
5.88073e-05
5.5047e-05
5.36597e-05
5.44526e-05
5.95183e-05
6.68784e-05
7.54797e-05
8.2651e-05
8.88331e-05
9.25586e-05
9.46289e-05
9.55203e-05
9.48103e-05
8.93946e-05
8.05945e-05
7.20847e-05
6.1658e-05
4.99395e-05
4.39842e-05
4.27567e-05
4.64853e-05
5.34947e-05
6.24099e-05
4.31932e-05
1.9142e-05
1.71929e-05
1.59889e-05
1.66334e-05
1.53939e-05
1.56772e-05
1.44798e-05
1.38723e-05
1.35014e-05
1.26561e-05
1.26473e-05
1.22252e-05
1.16546e-05
1.09375e-05
1.06386e-05
1.06589e-05
1.09727e-05
1.13955e-05
1.1854e-05
1.23143e-05
1.27237e-05
1.30587e-05
1.33261e-05
1.35328e-05
1.36872e-05
1.38086e-05
1.39094e-05
1.40049e-05
1.40966e-05
1.41788e-05
1.42401e-05
1.42831e-05
1.43133e-05
1.43413e-05
1.43825e-05
1.44318e-05
1.44834e-05
1.45404e-05
1.4589e-05
1.46302e-05
1.46552e-05
1.47021e-05
1.49025e-05
1.53637e-05
1.64572e-05
1.74751e-05
1.87335e-05
1.86232e-05
1.84987e-05
2.03027e-05
2.31716e-05
2.618e-05
3.44163e-05
4.95178e-05
7.14506e-05
9.6535e-05
0.000110794
0.00012091
9.44293e-05
9.84362e-05
0.000135853
8.31239e-05
7.89151e-05
8.23732e-05
8.29168e-05
8.18191e-05
8.07958e-05
7.8767e-05
7.69773e-05
7.40401e-05
7.0657e-05
6.60002e-05
6.12685e-05
5.49956e-05
4.81619e-05
4.48508e-05
4.47242e-05
4.93423e-05
5.94988e-05
7.35148e-05
8.54759e-05
9.36273e-05
9.84288e-05
0.000100943
0.000101681
9.6763e-05
8.51792e-05
7.11469e-05
6.07066e-05
5.18228e-05
4.76344e-05
4.59378e-05
4.99975e-05
5.74663e-05
6.59494e-05
4.23186e-05
1.78173e-05
1.77492e-05
1.6105e-05
1.70148e-05
1.57797e-05
1.58396e-05
1.42121e-05
1.34876e-05
1.35286e-05
1.27666e-05
1.27185e-05
1.22705e-05
1.1766e-05
1.09402e-05
1.04089e-05
1.03437e-05
1.07492e-05
1.13126e-05
1.18879e-05
1.24138e-05
1.28665e-05
1.32319e-05
1.35259e-05
1.37599e-05
1.39428e-05
1.40937e-05
1.4224e-05
1.43437e-05
1.44507e-05
1.45408e-05
1.46059e-05
1.46563e-05
1.46986e-05
1.47377e-05
1.47804e-05
1.48324e-05
1.48875e-05
1.49512e-05
1.50104e-05
1.50719e-05
1.51205e-05
1.52107e-05
1.54551e-05
1.59365e-05
1.70097e-05
1.78809e-05
1.88013e-05
1.84764e-05
1.8138e-05
2.03141e-05
2.34829e-05
2.83009e-05
3.72341e-05
5.47443e-05
7.86454e-05
0.000112555
0.000132133
0.000130893
0.000104623
0.000108926
0.000147303
8.938e-05
8.4614e-05
8.74408e-05
8.70201e-05
8.29302e-05
8.09055e-05
7.80582e-05
7.61879e-05
7.35608e-05
7.18824e-05
6.94055e-05
6.60723e-05
6.12502e-05
5.4961e-05
4.57635e-05
4.11984e-05
4.04952e-05
4.33409e-05
5.20782e-05
6.72118e-05
8.4015e-05
9.71689e-05
0.000105513
0.000109145
0.000108204
9.94692e-05
8.0231e-05
6.79272e-05
6.10277e-05
5.8796e-05
5.94326e-05
6.16557e-05
6.69151e-05
7.15042e-05
4.23176e-05
1.68002e-05
1.72225e-05
1.59697e-05
1.68772e-05
1.54925e-05
1.51773e-05
1.36901e-05
1.284e-05
1.28971e-05
1.23247e-05
1.22167e-05
1.17268e-05
1.10899e-05
9.95489e-06
9.02981e-06
8.76327e-06
9.15742e-06
9.7624e-06
1.03372e-05
1.08174e-05
1.12215e-05
1.15568e-05
1.18295e-05
1.20471e-05
1.22164e-05
1.23518e-05
1.24655e-05
1.25661e-05
1.26479e-05
1.27037e-05
1.27332e-05
1.27503e-05
1.27618e-05
1.27761e-05
1.27955e-05
1.2826e-05
1.28554e-05
1.28937e-05
1.29301e-05
1.29822e-05
1.30244e-05
1.31164e-05
1.33235e-05
1.3648e-05
1.43426e-05
1.47321e-05
1.50836e-05
1.47291e-05
1.47551e-05
1.66069e-05
1.96196e-05
2.54887e-05
3.49545e-05
5.15234e-05
7.15331e-05
0.00010102
0.000126219
0.000120275
9.55353e-05
9.83865e-05
0.000154253
8.35729e-05
7.38748e-05
7.4888e-05
7.43306e-05
6.92708e-05
6.58189e-05
6.31714e-05
6.16371e-05
6.03548e-05
5.89126e-05
5.74144e-05
5.57343e-05
5.36693e-05
5.08248e-05
4.62397e-05
3.93063e-05
3.52315e-05
3.48875e-05
3.55637e-05
3.98187e-05
4.77053e-05
5.71106e-05
7.0514e-05
8.5532e-05
9.21401e-05
9.33352e-05
8.22824e-05
6.60002e-05
5.78294e-05
5.45399e-05
5.51957e-05
5.76482e-05
6.05843e-05
6.31235e-05
4.04521e-05
1.63751e-05
1.6379e-05
1.60467e-05
1.70685e-05
1.50658e-05
1.45745e-05
1.3505e-05
1.22574e-05
1.18603e-05
1.15217e-05
1.13955e-05
1.09373e-05
1.01318e-05
8.88663e-06
7.82601e-06
7.42803e-06
7.70124e-06
8.25164e-06
8.76291e-06
9.17812e-06
9.5388e-06
9.82045e-06
1.00465e-05
1.02325e-05
1.03793e-05
1.04968e-05
1.05976e-05
1.06856e-05
1.07571e-05
1.08084e-05
1.08397e-05
1.08619e-05
1.08843e-05
1.09128e-05
1.09429e-05
1.09768e-05
1.10048e-05
1.10365e-05
1.10638e-05
1.11069e-05
1.11607e-05
1.12518e-05
1.14132e-05
1.15895e-05
1.19069e-05
1.19868e-05
1.20834e-05
1.19052e-05
1.21869e-05
1.37586e-05
1.66925e-05
2.21811e-05
3.06352e-05
4.5864e-05
6.36586e-05
8.83739e-05
0.000113732
0.000112855
9.60757e-05
9.8657e-05
0.000167509
8.29206e-05
6.67118e-05
6.62341e-05
6.55854e-05
6.43204e-05
6.31859e-05
6.12281e-05
5.98683e-05
5.85968e-05
5.71513e-05
5.55494e-05
5.38444e-05
5.18627e-05
4.95879e-05
4.6585e-05
4.17606e-05
3.65592e-05
3.40251e-05
3.30523e-05
3.28584e-05
3.64053e-05
3.98458e-05
4.51161e-05
5.37617e-05
6.74611e-05
7.93147e-05
8.20237e-05
7.02268e-05
5.93483e-05
5.25179e-05
5.1016e-05
5.31117e-05
5.52498e-05
5.72745e-05
3.74444e-05
1.5769e-05
1.51265e-05
1.53636e-05
1.60935e-05
1.35915e-05
1.3045e-05
1.24013e-05
1.14689e-05
1.11066e-05
1.06899e-05
1.05288e-05
9.81045e-06
8.96946e-06
7.77656e-06
6.83063e-06
6.38363e-06
6.51616e-06
6.95128e-06
7.3833e-06
7.73158e-06
8.03304e-06
8.27055e-06
8.46202e-06
8.62098e-06
8.75068e-06
8.85873e-06
8.9568e-06
9.04183e-06
9.10726e-06
9.15339e-06
9.1846e-06
9.21179e-06
9.24254e-06
9.28486e-06
9.3311e-06
9.37758e-06
9.41774e-06
9.45479e-06
9.4857e-06
9.52451e-06
9.57717e-06
9.63834e-06
9.75666e-06
9.85582e-06
1.00322e-05
1.00597e-05
1.01626e-05
1.01221e-05
1.06087e-05
1.21592e-05
1.50199e-05
1.99654e-05
2.60317e-05
3.71312e-05
5.3178e-05
7.14224e-05
8.5995e-05
9.86391e-05
0.00010431
0.00010811
0.000186143
9.06039e-05
6.39712e-05
6.67579e-05
6.59329e-05
6.3346e-05
6.30878e-05
6.16611e-05
6.02494e-05
5.88527e-05
5.72677e-05
5.55264e-05
5.38298e-05
5.21124e-05
5.03072e-05
4.84914e-05
4.59723e-05
4.26288e-05
3.8876e-05
3.34803e-05
3.02389e-05
3.06943e-05
3.25273e-05
3.48609e-05
3.78694e-05
4.09647e-05
4.64707e-05
5.71618e-05
6.36256e-05
6.03662e-05
5.03764e-05
4.63936e-05
4.7481e-05
4.92374e-05
4.95358e-05
3.26157e-05
1.55965e-05
1.43342e-05
1.40566e-05
1.51627e-05
1.26061e-05
1.1637e-05
1.02732e-05
9.7345e-06
9.91044e-06
1.01438e-05
1.00548e-05
9.00068e-06
7.82566e-06
6.62521e-06
5.85458e-06
5.56367e-06
5.70763e-06
6.06082e-06
6.40736e-06
6.69229e-06
6.93627e-06
7.13538e-06
7.30658e-06
7.45456e-06
7.58025e-06
7.69163e-06
7.79592e-06
7.8926e-06
7.97413e-06
8.03959e-06
8.08503e-06
8.12319e-06
8.16682e-06
8.22345e-06
8.28358e-06
8.33787e-06
8.37953e-06
8.41598e-06
8.44555e-06
8.47303e-06
8.5161e-06
8.56164e-06
8.66314e-06
8.71392e-06
8.81899e-06
8.78828e-06
8.87933e-06
8.95497e-06
9.89401e-06
1.16764e-05
1.43709e-05
1.87445e-05
2.38666e-05
3.2439e-05
4.05101e-05
5.66007e-05
7.53546e-05
9.05347e-05
0.000123735
0.000130459
0.000207254
0.000119035
6.96082e-05
6.06482e-05
6.87249e-05
6.73301e-05
6.57778e-05
6.35876e-05
6.11025e-05
5.85447e-05
5.60922e-05
5.39371e-05
5.21044e-05
5.04752e-05
4.87666e-05
4.71251e-05
4.53048e-05
4.32897e-05
4.14259e-05
3.7672e-05
2.94701e-05
2.59804e-05
2.79206e-05
2.95983e-05
3.0773e-05
3.10029e-05
3.18164e-05
3.56981e-05
4.03363e-05
4.44199e-05
4.57933e-05
4.15585e-05
3.9161e-05
3.92328e-05
3.76234e-05
2.53869e-05
1.34609e-05
1.30906e-05
1.28209e-05
1.2916e-05
1.09238e-05
1.04299e-05
9.03761e-06
8.11977e-06
8.34949e-06
8.98726e-06
9.05211e-06
8.00641e-06
6.80404e-06
5.74302e-06
5.26405e-06
5.10481e-06
5.2113e-06
5.45242e-06
5.70082e-06
5.91454e-06
6.09547e-06
6.24665e-06
6.37555e-06
6.49288e-06
6.60887e-06
6.71801e-06
6.8245e-06
6.9285e-06
7.02203e-06
7.09544e-06
7.1446e-06
7.18315e-06
7.22864e-06
7.28962e-06
7.35429e-06
7.41476e-06
7.4639e-06
7.50194e-06
7.53059e-06
7.55393e-06
7.59837e-06
7.64153e-06
7.74646e-06
7.79176e-06
7.86043e-06
7.82171e-06
7.95994e-06
8.20367e-06
9.47992e-06
1.12665e-05
1.40104e-05
1.80486e-05
2.32904e-05
3.17681e-05
3.66244e-05
4.74925e-05
6.98569e-05
8.95341e-05
0.0001347
0.000145203
0.000214308
0.000116234
7.92255e-05
6.81582e-05
7.12393e-05
7.03478e-05
6.7922e-05
6.42581e-05
6.05159e-05
5.70513e-05
5.41594e-05
5.18228e-05
4.98468e-05
4.8219e-05
4.66699e-05
4.52164e-05
4.36304e-05
4.17478e-05
4.0203e-05
3.79977e-05
3.14987e-05
2.3042e-05
2.30117e-05
2.50432e-05
2.59411e-05
2.57945e-05
2.53752e-05
2.68072e-05
2.82325e-05
3.02612e-05
3.1645e-05
3.21694e-05
3.17606e-05
3.04585e-05
2.82619e-05
2.03389e-05
1.25435e-05
1.27266e-05
1.23845e-05
1.23133e-05
1.02415e-05
9.64854e-06
8.57796e-06
7.43255e-06
7.47709e-06
7.73681e-06
7.95295e-06
6.90067e-06
5.88283e-06
5.23684e-06
4.90396e-06
4.7266e-06
4.80985e-06
5.01108e-06
5.2103e-06
5.37992e-06
5.52157e-06
5.63909e-06
5.74295e-06
5.83594e-06
5.91882e-06
5.99851e-06
6.08172e-06
6.17004e-06
6.25366e-06
6.32157e-06
6.35998e-06
6.38562e-06
6.42052e-06
6.47972e-06
6.55169e-06
6.61668e-06
6.67287e-06
6.71629e-06
6.74829e-06
6.77375e-06
6.82234e-06
6.86686e-06
6.97931e-06
7.0263e-06
7.08511e-06
7.0557e-06
7.18904e-06
7.52895e-06
8.88532e-06
1.0695e-05
1.32554e-05
1.70772e-05
2.23686e-05
2.98552e-05
3.60469e-05
4.60015e-05
6.65528e-05
8.98015e-05
0.000135667
0.000146654
0.000213555
0.000112929
0.000100496
8.54209e-05
8.04954e-05
7.34608e-05
6.74234e-05
6.25635e-05
5.83623e-05
5.47215e-05
5.16267e-05
4.90772e-05
4.70131e-05
4.54966e-05
4.41473e-05
4.28074e-05
4.164e-05
3.99609e-05
3.8403e-05
3.66198e-05
3.22873e-05
2.18251e-05
1.92252e-05
2.13598e-05
2.22733e-05
2.21929e-05
2.16816e-05
2.21328e-05
2.25107e-05
2.28847e-05
2.34054e-05
2.3584e-05
2.35e-05
2.28386e-05
2.09787e-05
1.64835e-05
1.17496e-05
1.16352e-05
1.18104e-05
1.15396e-05
9.75825e-06
8.92893e-06
7.34237e-06
6.83129e-06
6.71847e-06
6.52057e-06
6.39586e-06
5.7696e-06
5.16343e-06
4.6935e-06
4.37803e-06
4.24086e-06
4.31488e-06
4.48167e-06
4.64195e-06
4.77551e-06
4.88738e-06
4.98494e-06
5.07518e-06
5.16229e-06
5.24716e-06
5.332e-06
5.42234e-06
5.5183e-06
5.61068e-06
5.68818e-06
5.73827e-06
5.77316e-06
5.81536e-06
5.87715e-06
5.94659e-06
6.00863e-06
6.06355e-06
6.10574e-06
6.13551e-06
6.15622e-06
6.19985e-06
6.24134e-06
6.3514e-06
6.39469e-06
6.43707e-06
6.40627e-06
6.57172e-06
7.03955e-06
8.4397e-06
1.00984e-05
1.23001e-05
1.56112e-05
2.05323e-05
2.69569e-05
3.44051e-05
4.50402e-05
6.64896e-05
9.0911e-05
0.000127047
0.000141412
0.000207514
0.000129794
0.000105838
8.3677e-05
7.59039e-05
6.96184e-05
6.3686e-05
5.86689e-05
5.45082e-05
5.10617e-05
4.838e-05
4.63278e-05
4.45666e-05
4.3177e-05
4.19425e-05
4.0511e-05
3.9394e-05
3.78436e-05
3.62264e-05
3.47173e-05
3.10409e-05
2.09973e-05
1.61686e-05
1.83883e-05
1.94657e-05
1.96333e-05
1.92153e-05
1.90116e-05
1.88553e-05
1.85816e-05
1.83687e-05
1.80161e-05
1.74432e-05
1.66991e-05
1.57039e-05
1.37165e-05
1.18932e-05
1.00984e-05
9.10568e-06
9.31076e-06
8.75473e-06
8.37158e-06
6.44186e-06
5.60987e-06
5.37212e-06
5.11376e-06
4.89649e-06
4.59632e-06
4.23483e-06
3.88058e-06
3.61101e-06
3.49978e-06
3.54569e-06
3.65832e-06
3.76451e-06
3.85193e-06
3.92611e-06
3.99313e-06
4.05753e-06
4.12216e-06
4.18831e-06
4.25574e-06
4.32668e-06
4.40224e-06
4.47649e-06
4.54126e-06
4.58684e-06
4.618e-06
4.65136e-06
4.69952e-06
4.7608e-06
4.81525e-06
4.86606e-06
4.90534e-06
4.93191e-06
4.94576e-06
4.97911e-06
5.01156e-06
5.10754e-06
5.14298e-06
5.16983e-06
5.14164e-06
5.30867e-06
5.85129e-06
7.23694e-06
8.73914e-06
1.02148e-05
1.21154e-05
1.53045e-05
1.92584e-05
2.49584e-05
3.29486e-05
4.62234e-05
6.49317e-05
0.000110104
0.00012839
0.000189248
0.000138515
0.000113874
9.05294e-05
7.8157e-05
6.92768e-05
6.13725e-05
5.48461e-05
5.00324e-05
4.66181e-05
4.42121e-05
4.24436e-05
4.08798e-05
3.94907e-05
3.81884e-05
3.66892e-05
3.54885e-05
3.39532e-05
3.23138e-05
3.08491e-05
2.73384e-05
1.80884e-05
1.32561e-05
1.44394e-05
1.50628e-05
1.50574e-05
1.46314e-05
1.43195e-05
1.40903e-05
1.39149e-05
1.35248e-05
1.29206e-05
1.22405e-05
1.1489e-05
1.07823e-05
1.01963e-05
1.87498e-05
1.76858e-05
1.40958e-05
1.19374e-05
9.28357e-06
7.99974e-06
8.02272e-06
8.72994e-06
9.69354e-06
1.12653e-05
1.22307e-05
1.29256e-05
1.3086e-05
1.30114e-05
1.26647e-05
1.24149e-05
1.21247e-05
1.18826e-05
1.15889e-05
1.13093e-05
1.10977e-05
1.09867e-05
1.09685e-05
1.10073e-05
1.10966e-05
1.12257e-05
1.13817e-05
1.15551e-05
1.17257e-05
1.18783e-05
1.19959e-05
1.20745e-05
1.21315e-05
1.21771e-05
1.22209e-05
1.22696e-05
1.23519e-05
1.24553e-05
1.2589e-05
1.27203e-05
1.28501e-05
1.3065e-05
1.32363e-05
1.35971e-05
1.36341e-05
1.36199e-05
1.29174e-05
1.18868e-05
1.04786e-05
1.01726e-05
9.99805e-06
1.0685e-05
1.32272e-05
2.29345e-05
3.40292e-05
3.51458e-05
5.17407e-05
6.30458e-05
7.0443e-05
8.92324e-05
0.000134793
0.000106404
9.14627e-05
7.73604e-05
6.73258e-05
5.81915e-05
4.89108e-05
3.55915e-05
3.07591e-05
3.29463e-05
3.47643e-05
3.59869e-05
3.7323e-05
3.8574e-05
3.91499e-05
3.91979e-05
3.89488e-05
3.85358e-05
3.82934e-05
3.82784e-05
3.84792e-05
3.90287e-05
3.97837e-05
4.06597e-05
4.16582e-05
4.23213e-05
4.28751e-05
4.41118e-05
4.71865e-05
4.86684e-05
4.90032e-05
4.83337e-05
4.6392e-05
4.43696e-05
4.11297e-05
3.31267e-05
6.94006e-05
6.17259e-05
4.88975e-05
4.14524e-05
3.31667e-05
3.30527e-05
3.60692e-05
3.79179e-05
3.93403e-05
4.22589e-05
4.36138e-05
4.3843e-05
4.24896e-05
4.03601e-05
3.85559e-05
3.78392e-05
3.80295e-05
3.86417e-05
3.9154e-05
3.95901e-05
3.98622e-05
4.01943e-05
4.0578e-05
4.09361e-05
4.12653e-05
4.1568e-05
4.18629e-05
4.2145e-05
4.23634e-05
4.25199e-05
4.26216e-05
4.26816e-05
4.27147e-05
4.27328e-05
4.27535e-05
4.2797e-05
4.28819e-05
4.29955e-05
4.31662e-05
4.33434e-05
4.35383e-05
4.37238e-05
4.40489e-05
4.47531e-05
4.57108e-05
4.69123e-05
4.71003e-05
4.64219e-05
4.30562e-05
3.87954e-05
3.92681e-05
3.44848e-05
2.7734e-05
4.31893e-05
0.000114235
0.000129982
0.000205007
0.000287389
0.000406777
0.000363974
2.3332e-05
5.80507e-05
0.000119311
0.000112333
9.73113e-05
9.21397e-05
7.54014e-05
7.25036e-05
8.72276e-05
9.47442e-05
0.000103867
0.000103221
0.000106705
0.000110673
0.000114724
0.000115367
0.000114057
0.000112905
0.000113582
0.000115642
0.000117523
0.000118903
0.000120255
0.000121171
0.000121437
0.000119736
0.00011766
0.00011838
0.000116201
0.000103843
8.873e-05
8.6915e-05
7.59424e-05
7.03723e-05
5.5902e-05
3.63508e-05
6.70628e-05
6.2895e-05
5.94729e-05
5.71651e-05
5.26739e-05
4.92697e-05
4.84565e-05
4.87824e-05
4.86844e-05
4.88175e-05
4.81099e-05
4.70003e-05
4.44314e-05
4.10506e-05
3.85623e-05
3.75376e-05
3.80214e-05
3.91691e-05
4.03231e-05
4.14839e-05
4.23916e-05
4.32432e-05
4.39726e-05
4.4509e-05
4.48799e-05
4.51241e-05
4.53042e-05
4.54461e-05
4.5539e-05
4.55728e-05
4.55472e-05
4.54619e-05
4.53387e-05
4.52089e-05
4.50997e-05
4.5021e-05
4.49826e-05
4.49683e-05
4.49766e-05
4.49557e-05
4.49807e-05
4.49635e-05
4.53993e-05
4.63469e-05
4.84266e-05
5.03779e-05
5.21625e-05
5.23745e-05
5.24999e-05
5.26573e-05
5.57254e-05
5.13086e-05
5.23843e-05
8.19751e-05
0.00014742
0.000175816
0.000257995
0.000286181
0.00018006
0.000155958
1.9849e-05
7.24562e-05
0.000105598
0.000104059
0.000100073
9.68415e-05
0.0001053
0.000114433
0.000129868
0.000135632
0.000142599
0.000143025
0.000147763
0.000150243
0.000151295
0.000150981
0.000146374
0.0001441
0.000143361
0.000146558
0.000149752
0.000149553
0.000150519
0.000150392
0.000147761
0.000143877
0.000137379
0.000129733
0.000112026
9.53378e-05
8.13349e-05
7.24803e-05
7.57255e-05
7.65627e-05
7.44077e-05
4.16815e-05
7.78786e-05
6.75878e-05
6.34066e-05
6.22075e-05
6.08557e-05
5.96669e-05
5.69608e-05
5.51732e-05
5.2698e-05
5.04197e-05
4.87362e-05
4.54882e-05
4.17087e-05
3.78274e-05
3.5166e-05
3.41948e-05
3.47951e-05
3.63056e-05
3.81011e-05
3.97602e-05
4.10296e-05
4.22012e-05
4.3168e-05
4.38488e-05
4.42755e-05
4.45037e-05
4.46377e-05
4.47247e-05
4.47677e-05
4.47541e-05
4.46612e-05
4.45066e-05
4.43221e-05
4.41389e-05
4.39874e-05
4.3865e-05
4.37655e-05
4.36834e-05
4.3603e-05
4.34995e-05
4.34312e-05
4.33807e-05
4.36306e-05
4.42938e-05
4.64514e-05
4.883e-05
5.14769e-05
5.13487e-05
5.32677e-05
5.60178e-05
6.09271e-05
6.10175e-05
7.49866e-05
0.000111939
0.000168375
0.000203617
0.000232059
0.000230123
0.000116958
0.000115789
1.85127e-05
8.47043e-05
9.36812e-05
0.00010129
0.000110498
0.000114529
0.00012716
0.000142857
0.000156281
0.000165379
0.000169921
0.000171426
0.000171755
0.000170942
0.000169776
0.000166678
0.00016283
0.00016104
0.000162286
0.000166022
0.000172405
0.00017985
0.000179733
0.000177261
0.000168849
0.000156844
0.000143998
0.000131217
0.00010689
8.99675e-05
7.61418e-05
6.40451e-05
6.68958e-05
7.41684e-05
7.75296e-05
4.48697e-05
8.84489e-05
6.92211e-05
6.32984e-05
6.33962e-05
6.32382e-05
6.38505e-05
6.16593e-05
5.80316e-05
5.44866e-05
4.99143e-05
4.73613e-05
4.36617e-05
3.98085e-05
3.58592e-05
3.36629e-05
3.28458e-05
3.31429e-05
3.41168e-05
3.53186e-05
3.64822e-05
3.76986e-05
3.88542e-05
3.96712e-05
4.02305e-05
4.05915e-05
4.08384e-05
4.0983e-05
4.10757e-05
4.11199e-05
4.10977e-05
4.0989e-05
4.08164e-05
4.06075e-05
4.04072e-05
4.02452e-05
4.01114e-05
4.00164e-05
3.99242e-05
3.98432e-05
3.96808e-05
3.95483e-05
3.94077e-05
3.97663e-05
4.07883e-05
4.3503e-05
4.57536e-05
4.78487e-05
4.80938e-05
5.14473e-05
5.55781e-05
6.13255e-05
6.53945e-05
8.59205e-05
0.000122837
0.000170185
0.000185327
0.000172415
0.000159391
4.77007e-05
4.81037e-05
1.56983e-05
9.12298e-05
0.000102344
0.00011658
0.000130058
0.000140925
0.000163675
0.000174133
0.000184365
0.000186858
0.000187735
0.00018494
0.000180993
0.000176068
0.00017182
0.000167827
0.000165553
0.000164155
0.00016769
0.000172484
0.000179489
0.000186972
0.000187903
0.000186228
0.000179635
0.0001651
0.000147498
0.000127632
0.000104949
8.31323e-05
6.32823e-05
5.67493e-05
6.16269e-05
7.42652e-05
7.99347e-05
4.65679e-05
9.76504e-05
6.95593e-05
6.16906e-05
6.21898e-05
6.13456e-05
6.369e-05
6.21623e-05
5.74495e-05
5.41355e-05
4.83798e-05
4.58965e-05
4.23155e-05
3.89095e-05
3.48125e-05
3.02898e-05
2.82965e-05
2.86793e-05
3.02405e-05
3.23587e-05
3.45001e-05
3.62688e-05
3.73936e-05
3.80494e-05
3.85016e-05
3.87944e-05
3.89823e-05
3.91109e-05
3.92091e-05
3.92746e-05
3.92912e-05
3.92382e-05
3.91254e-05
3.89805e-05
3.88488e-05
3.87058e-05
3.85856e-05
3.84967e-05
3.84073e-05
3.83094e-05
3.80963e-05
3.78685e-05
3.77425e-05
3.81334e-05
3.90817e-05
4.11218e-05
4.34538e-05
4.60314e-05
4.38993e-05
4.18435e-05
5.02916e-05
6.02753e-05
6.77861e-05
7.82088e-05
0.000107987
0.000154359
0.000184488
0.000179871
0.000166976
2.48606e-05
2.84062e-05
1.61428e-05
0.000114654
0.000133378
0.000159667
0.000173771
0.000182796
0.000189781
0.000192301
0.000192153
0.000190748
0.000182235
0.00017298
0.000161848
0.000150276
0.000138935
0.000135068
0.000135664
0.000138301
0.000149702
0.000160469
0.000178724
0.000190899
0.000194491
0.000189402
0.000184366
0.000168037
0.000150944
0.000134057
0.000108176
7.59258e-05
5.56553e-05
5.90071e-05
6.6162e-05
8.05149e-05
7.78263e-05
4.71272e-05
9.6607e-05
6.99185e-05
5.8233e-05
5.79272e-05
5.78971e-05
6.1127e-05
5.89138e-05
5.47291e-05
5.14524e-05
4.64608e-05
4.45032e-05
4.14564e-05
3.70437e-05
3.09138e-05
2.67908e-05
2.4867e-05
2.50487e-05
2.61173e-05
2.74311e-05
2.87762e-05
3.01173e-05
3.13005e-05
3.22812e-05
3.29992e-05
3.34599e-05
3.37373e-05
3.39054e-05
3.40411e-05
3.41086e-05
3.40682e-05
3.38831e-05
3.35835e-05
3.32246e-05
3.28905e-05
3.26128e-05
3.23597e-05
3.2094e-05
3.1836e-05
3.15578e-05
3.12846e-05
3.10495e-05
3.10139e-05
3.1605e-05
3.3097e-05
3.62832e-05
3.76461e-05
3.70065e-05
3.26646e-05
3.30554e-05
4.47764e-05
5.97367e-05
6.80054e-05
7.63755e-05
9.72163e-05
0.000139574
0.000187667
0.000193559
0.000177451
2.27664e-05
2.66475e-05
1.91859e-05
0.000134662
0.000160366
0.000186024
0.000192451
0.000194911
0.000194124
0.000191062
0.000188392
0.000180661
0.000171062
0.000158324
0.00014502
0.000130128
0.000113944
9.80533e-05
9.11699e-05
9.06028e-05
0.000103991
0.000138507
0.000159074
0.000180165
0.000191391
0.000189438
0.000185647
0.000170171
0.000156427
0.000144887
0.000120687
8.72598e-05
6.94281e-05
6.55908e-05
6.82868e-05
7.85914e-05
7.37166e-05
4.7518e-05
8.04863e-05
7.52437e-05
5.32994e-05
5.07942e-05
5.44459e-05
5.78201e-05
5.63107e-05
5.19443e-05
4.89871e-05
4.46686e-05
4.24845e-05
3.81724e-05
3.34111e-05
2.71618e-05
2.17442e-05
1.92499e-05
1.95024e-05
2.11235e-05
2.29661e-05
2.45649e-05
2.59384e-05
2.69054e-05
2.7573e-05
2.80508e-05
2.83435e-05
2.85043e-05
2.8582e-05
2.85911e-05
2.84906e-05
2.82756e-05
2.79325e-05
2.75603e-05
2.72084e-05
2.6877e-05
2.65465e-05
2.62426e-05
2.5938e-05
2.56565e-05
2.53806e-05
2.51056e-05
2.48355e-05
2.47159e-05
2.49028e-05
2.55321e-05
2.71052e-05
2.79019e-05
2.70255e-05
2.42404e-05
2.46985e-05
3.73602e-05
5.43917e-05
6.85304e-05
7.83338e-05
9.27148e-05
0.000140231
0.000203099
0.000220424
0.000178669
2.27359e-05
2.65018e-05
1.95122e-05
0.000132995
0.000176564
0.000187946
0.0001898
0.000189677
0.000186104
0.000182463
0.0001764
0.000167931
0.000159585
0.00014929
0.000138345
0.000125159
0.00010962
9.1634e-05
7.47044e-05
6.82709e-05
6.64666e-05
7.9625e-05
0.00011743
0.000155389
0.000174784
0.000178256
0.000177191
0.000177925
0.000164685
0.000151549
0.000131666
0.000116283
0.000105
9.87051e-05
9.50831e-05
9.86444e-05
0.00011373
0.000113097
6.1713e-05
7.65308e-05
4.95571e-05
4.31618e-05
4.13712e-05
4.34287e-05
4.91863e-05
4.56875e-05
4.55402e-05
4.18932e-05
3.93488e-05
3.45681e-05
2.92635e-05
2.23687e-05
1.78669e-05
1.57662e-05
1.56474e-05
1.63043e-05
1.71878e-05
1.79399e-05
1.84897e-05
1.92174e-05
1.98521e-05
2.03195e-05
2.05894e-05
2.07174e-05
2.07789e-05
2.08505e-05
2.08769e-05
2.07836e-05
2.05636e-05
2.02688e-05
1.99402e-05
1.96694e-05
1.94706e-05
1.93062e-05
1.91168e-05
1.8944e-05
1.87536e-05
1.86004e-05
1.84149e-05
1.83883e-05
1.85521e-05
1.90051e-05
1.97798e-05
2.00387e-05
1.86112e-05
1.80442e-05
2.08377e-05
3.12063e-05
4.90435e-05
6.46202e-05
7.7063e-05
9.58799e-05
0.000139548
0.00021067
0.000278315
0.000241308
4.37055e-05
4.34528e-05
1.91498e-05
0.000120531
0.000166696
0.000169005
0.000165008
0.000157922
0.000155861
0.000148975
0.000143203
0.000137514
0.000131752
0.000124729
0.000115686
0.000105205
9.51439e-05
8.43228e-05
7.34117e-05
6.2869e-05
5.2214e-05
5.15123e-05
5.88625e-05
8.24947e-05
0.000101539
0.000114428
0.000129783
0.000147574
0.000156708
0.000161463
0.000123001
0.000109121
0.000104579
0.00010316
0.000104689
9.6537e-05
7.06358e-05
6.16994e-05
6.226e-05
7.40984e-05
4.92732e-05
4.4432e-05
3.6481e-05
3.37294e-05
3.61918e-05
3.93714e-05
3.86452e-05
3.64055e-05
3.48542e-05
3.12304e-05
2.57002e-05
1.97478e-05
1.54867e-05
1.40886e-05
1.39707e-05
1.44316e-05
1.50204e-05
1.56715e-05
1.66417e-05
1.71038e-05
1.73378e-05
1.75543e-05
1.76656e-05
1.76502e-05
1.76335e-05
1.76792e-05
1.76748e-05
1.75886e-05
1.74031e-05
1.71926e-05
1.70324e-05
1.69228e-05
1.68431e-05
1.68038e-05
1.67426e-05
1.66999e-05
1.65943e-05
1.65277e-05
1.64396e-05
1.63866e-05
1.63904e-05
1.63331e-05
1.62024e-05
1.61271e-05
1.54553e-05
1.56765e-05
1.94361e-05
2.81384e-05
4.44138e-05