/*--------------------------------*- C++ -*----------------------------------*\
| =========                 |                                                 |
| \\      /  F ield         | OpenFOAM: The Open Source CFD Toolbox           |
|  \\    /   O peration     | Version:  2.3.0                                 |
|   \\  /    A nd           | Web:      www.OpenFOAM.org                      |
|    \\/     M anipulation  |                                                 |
\*---------------------------------------------------------------------------*/
FoamFile
{
    version     2.0;
    format      ascii;
    class       surfaceScalarField;
    location    "36";
    object      phi.water;
}
// * * * * * * * * * * * * * * * * * * * * * * * * * * * * * * * * * * * * * //

dimensions      [0 3 -1 0 0 0 0];

internalField   nonuniform List<scalar> 
16448
(
-9.49093e-07
-2.49973e-06
4.14936e-07
1.11425e-06
-2.61196e-06
5.52208e-07
1.15132e-06
-1.12588e-06
1.09177e-06
1.11434e-06
-1.08215e-06
1.12141e-06
6.8898e-07
-5.97342e-07
1.02633e-06
3.87405e-07
-6.2664e-07
9.32594e-07
1.61422e-07
-4.87705e-07
7.20403e-07
2.80351e-08
-4.21739e-07
5.61055e-07
-1.94529e-07
-2.64844e-07
4.89807e-07
-4.5127e-07
-1.86349e-07
4.43322e-07
-6.26037e-07
-1.88923e-07
3.64e-07
-6.54326e-07
-2.4838e-07
2.76922e-07
-5.71931e-07
-3.16082e-07
2.33993e-07
-4.16411e-07
-3.68317e-07
2.13057e-07
-2.59947e-07
-3.97623e-07
2.41491e-07
-1.07239e-07
-4.25009e-07
2.72579e-07
1.07262e-08
-4.38131e-07
3.20491e-07
9.89006e-08
-4.53034e-07
3.65154e-07
1.51755e-07
-4.63966e-07
4.11408e-07
1.77024e-07
-4.74944e-07
4.49955e-07
1.83001e-07
-4.82649e-07
4.76949e-07
1.77052e-07
-4.85304e-07
4.91523e-07
1.64827e-07
-4.83413e-07
4.95904e-07
1.49518e-07
-4.77343e-07
4.92919e-07
1.34117e-07
-4.68091e-07
4.83759e-07
1.21272e-07
-4.56694e-07
4.69807e-07
1.12455e-07
-4.43636e-07
4.52727e-07
1.08347e-07
-4.29428e-07
4.33816e-07
1.10384e-07
-4.17186e-07
4.15433e-07
1.18733e-07
-4.06928e-07
3.98864e-07
1.31481e-07
-3.97345e-07
3.84887e-07
1.451e-07
-3.87722e-07
3.74393e-07
1.57805e-07
-3.78695e-07
3.66287e-07
1.68995e-07
-3.70326e-07
3.5943e-07
1.79449e-07
-3.62708e-07
3.5256e-07
1.90102e-07
-3.55607e-07
3.45252e-07
2.05508e-07
-3.5043e-07
3.35341e-07
2.28518e-07
-3.46757e-07
3.24038e-07
2.61167e-07
-3.44681e-07
3.12374e-07
3.08242e-07
-3.47216e-07
3.00404e-07
3.61614e-07
-3.46335e-07
2.93365e-07
4.46891e-07
-3.64228e-07
2.79166e-07
5.3805e-07
-3.67227e-07
2.76575e-07
6.884e-07
-4.1588e-07
2.65641e-07
8.17552e-07
-4.17347e-07
2.88874e-07
9.92908e-07
-5.22249e-07
3.46775e-07
1.07789e-06
-5.44271e-07
4.60283e-07
1.33733e-06
-9.11113e-07
6.51893e-07
1.61722e-06
-1.03559e-06
7.67673e-07
2.04757e-06
-1.43764e-06
1.02504e-06
1.93663e-06
-7.73631e-07
9.4042e-07
1.61881e-06
-7.32465e-07
1.08074e-06
3.69336e-07
6.81224e-08
1.33755e-06
-2.21031e-06
7.71389e-07
1.81221e-06
8.184e-07
-4.6661e-06
1.8354e-06
-8.5536e-07
-2.05872e-06
3.56136e-06
3.47773e-06
-4.01753e-06
6.16499e-07
3.26671e-06
2.78481e-06
-3.8046e-06
5.20955e-06
1.05394e-05
-2.04328e-06
2.70055e-05
-1.39426e-05
1.12387e-05
1.51296e-05
-1.78436e-05
3.93234e-06
1.52465e-05
-3.19336e-06
1.46851e-06
1.03999e-05
5.93341e-06
-1.08991e-06
8.91118e-06
1.76437e-06
-2.75704e-07
4.18993e-06
5.4261e-06
-7.04857e-07
8.25394e-07
3.26187e-06
1.02651e-07
-2.2955e-06
2.7956e-06
3.2528e-07
-5.84473e-06
2.32586e-06
1.22336e-06
-8.48702e-06
1.38761e-06
1.25467e-06
-9.82177e-06
3.6939e-07
9.65352e-07
-1.07166e-05
-6.96797e-07
1.59165e-06
-1.14965e-05
-1.57511e-06
2.35503e-06
-1.18432e-05
-2.42043e-06
2.76708e-06
-1.15561e-05
-3.14268e-06
2.85561e-06
-1.05623e-05
-3.76335e-06
2.76954e-06
-9.05649e-06
-4.23874e-06
2.7329e-06
-7.34066e-06
-4.62693e-06
2.91111e-06
-5.59734e-06
-4.84557e-06
3.10226e-06
-3.7156e-06
-5.10599e-06
3.22424e-06
-1.72817e-06
-5.2672e-06
3.27978e-06
3.84706e-07
-5.37841e-06
3.26554e-06
2.63692e-06
-5.42538e-06
3.17317e-06
4.88732e-06
-5.27689e-06
3.0265e-06
7.11198e-06
-5.0537e-06
2.82904e-06
9.34998e-06
-4.63851e-06
2.40052e-06
1.11729e-05
-3.81349e-06
1.99054e-06
1.23235e-05
-2.91803e-06
1.7675e-06
1.36876e-05
-2.55592e-06
1.19178e-06
1.55454e-05
-2.43652e-06
5.78769e-07
1.77519e-05
-1.70437e-06
-5.02212e-07
1.99775e-05
-5.99479e-07
-1.62608e-06
2.07084e-05
1.59531e-06
-2.3262e-06
1.91251e-05
3.99863e-06
-2.41538e-06
1.55005e-05
5.6641e-06
-2.03945e-06
9.57241e-06
7.46736e-06
-1.53928e-06
8.33985e-06
1.23256e-06
-1.67167e-06
-3.59614e-06
-1.26321e-07
-2.72002e-07
-3.88831e-06
-1.16102e-07
7.30723e-08
-2.11856e-06
6.52669e-07
3.88575e-07
-1.9551e-06
5.61759e-07
4.17823e-07
-1.04681e-06
4.24847e-07
3.5641e-07
-8.2202e-07
2.60863e-07
2.29143e-07
-4.10023e-07
5.49393e-08
4.77745e-09
-2.44333e-07
5.161e-08
-3.6131e-07
6.0294e-09
9.71797e-08
-6.98791e-07
4.82104e-08
1.02735e-07
-8.79373e-07
-3.99731e-08
3.16497e-08
-8.87309e-07
-1.81537e-07
-5.89071e-08
-7.86665e-07
-2.98408e-07
-1.18179e-07
-6.19309e-07
-3.87781e-07
-1.47785e-07
-4.39069e-07
-4.40012e-07
-1.37697e-07
-2.64339e-07
-4.82515e-07
-1.17114e-07
-1.23007e-07
-4.98465e-07
-8.08492e-08
-9.37952e-09
-5.17893e-07
-4.86687e-08
6.76467e-08
-5.26441e-07
-1.4457e-08
1.13392e-07
-5.31717e-07
1.11086e-08
1.36937e-07
-5.32372e-07
2.62739e-08
1.44385e-07
-5.27261e-07
3.46057e-08
1.41992e-07
-5.17554e-07
3.66279e-08
1.33766e-07
-5.03756e-07
3.4728e-08
1.23559e-07
-4.86957e-07
2.91534e-08
1.14313e-07
-4.68169e-07
2.07919e-08
1.07615e-07
-4.47939e-07
1.10597e-08
1.04279e-07
-4.2705e-07
1.00085e-09
1.07396e-07
-4.07362e-07
-1.28885e-08
1.15973e-07
-3.90197e-07
-2.52445e-08
1.27452e-07
-3.73349e-07
-3.54036e-08
1.39348e-07
-3.56144e-07
-4.33987e-08
1.51578e-07
-3.4034e-07
-5.0501e-08
1.64041e-07
-3.25678e-07
-5.70281e-08
1.77683e-07
-3.12688e-07
-6.35674e-08
1.92827e-07
-3.00796e-07
-6.98674e-08
2.13077e-07
-2.93239e-07
-7.73302e-08
2.39343e-07
-2.87882e-07
-8.50586e-08
2.74341e-07
-2.88478e-07
-9.10563e-08
3.21522e-07
-2.93875e-07
-1.0046e-07
3.78283e-07
-3.00879e-07
-1.02008e-07
4.65858e-07
-3.35852e-07
-1.15938e-07
5.66066e-07
-3.57014e-07
-1.10106e-07
7.1284e-07
-4.51959e-07
-1.10819e-07
8.31296e-07
-4.64934e-07
-7.03702e-08
9.23157e-07
-6.28042e-07
1.34744e-08
8.955e-07
-6.27804e-07
1.12138e-07
7.13813e-07
-1.05187e-06
3.22259e-07
6.57054e-07
-1.30806e-06
3.41784e-07
3.0752e-07
-1.66537e-06
5.94051e-07
7.08067e-07
-1.32305e-06
2.09497e-07
2.53431e-07
-7.15483e-07
4.6161e-07
-8.25362e-07
3.94116e-07
8.87058e-07
-7.73019e-07
2.81683e-07
4.75415e-07
1.43317e-06
-6.5025e-06
-1.75416e-07
4.36864e-06
-5.75008e-06
6.28716e-07
-2.19806e-06
-2.14723e-08
3.16236e-06
-1.11481e-05
1.01847e-05
8.8603e-07
1.07097e-05
6.00982e-06
-4.52322e-06
2.92458e-05
-2.08127e-05
3.77099e-06
-8.08594e-07
-2.01276e-05
5.27949e-06
-1.15933e-06
-2.67898e-06
-1.46289e-06
5.25415e-06
2.52304e-06
-3.00327e-06
2.2664e-07
8.24834e-06
-1.45648e-06
6.76982e-08
7.49252e-06
-1.90751e-06
-5.50906e-06
7.85179e-06
9.86817e-07
-1.0474e-05
5.91854e-06
1.84194e-06
-1.45452e-05
4.35038e-06
2.04672e-06
-1.65739e-05
2.04186e-06
1.37439e-06
-1.76345e-05
3.91074e-07
1.039e-06
-1.82535e-05
-1.5028e-06
1.42494e-06
-1.88743e-05
-2.98547e-06
2.03117e-06
-1.90468e-05
-4.51627e-06
2.26832e-06
-1.88068e-05
-5.68542e-06
2.30276e-06
-1.79244e-05
-6.85409e-06
2.2084e-06
-1.65055e-05
-7.81331e-06
2.15563e-06
-1.49222e-05
-8.66492e-06
2.45473e-06
-1.32725e-05
-9.27738e-06
2.78206e-06
-1.14288e-05
-9.89596e-06
2.94628e-06
-9.3601e-06
-1.03697e-05
3.03387e-06
-7.06348e-06
-1.07187e-05
3.04369e-06
-4.54696e-06
-1.09168e-05
2.97491e-06
-1.82341e-06
-1.08455e-05
2.84511e-06
9.77146e-07
-1.04839e-05
2.62961e-06
3.80907e-06
-9.77647e-06
2.30604e-06
6.57522e-06
-8.57299e-06
1.99335e-06
9.16425e-06
-7.19655e-06
1.6895e-06
1.20354e-05
-6.4179e-06
9.90872e-07
1.54288e-05
-5.68924e-06
-1.40664e-07
1.91833e-05
-3.90058e-06
-1.5583e-06
2.18378e-05
-7.41719e-07
-2.51228e-06
2.29657e-05
3.10807e-06
-2.64065e-06
2.13198e-05
7.90962e-06
-2.26511e-06
1.6478e-05
1.2156e-05
-1.65009e-06
9.76584e-06
1.60403e-05
-1.86078e-06
1.73108e-05
7.94925e-07
-2.17871e-06
-3.90682e-06
-3.66276e-07
-1.16535e-06
-4.32211e-06
-5.71626e-07
-8.84571e-07
-2.55344e-06
1.60118e-07
-4.16909e-07
-2.36098e-06
-5.71782e-08
-1.3883e-07
-1.22964e-06
-9.07709e-08
4.05152e-09
-8.34654e-07
-1.26758e-07
7.44629e-08
-2.21509e-07
-2.54366e-07
-5.05009e-08
4.95881e-08
-1.64833e-07
-3.50914e-07
4.09441e-07
-1.00764e-07
-6.51491e-07
4.11374e-07
-6.23402e-08
-8.11418e-07
2.46846e-07
-1.26521e-07
-8.36585e-07
4.95837e-08
-2.05606e-07
-7.87658e-07
-8.16132e-08
-2.65373e-07
-6.88086e-07
-1.83418e-07
-3.03687e-07
-5.53579e-07
-2.48497e-07
-3.25826e-07
-4.13509e-07
-2.96202e-07
-3.26247e-07
-2.90878e-07
-3.08851e-07
-3.12095e-07
-1.82807e-07
-3.27124e-07
-2.98726e-07
-9.31752e-08
-3.31688e-07
-2.84268e-07
-2.50354e-08
-3.27719e-07
-2.7203e-07
2.27813e-08
-3.17645e-07
-2.6243e-07
5.4103e-08
-3.02503e-07
-2.55966e-07
7.25946e-08
-2.83686e-07
-2.52244e-07
8.19668e-08
-2.62054e-07
-2.50957e-07
8.58924e-08
-2.39128e-07
-2.51636e-07
8.73534e-08
-2.1597e-07
-2.5354e-07
8.86923e-08
-1.93008e-07
-2.56147e-07
9.16801e-08
-1.70966e-07
-2.58946e-07
9.63068e-08
-1.50005e-07
-2.6185e-07
1.00893e-07
-1.29896e-07
-2.64749e-07
1.04499e-07
-1.09429e-07
-2.67378e-07
1.08161e-07
-8.93472e-08
-2.70307e-07
1.14386e-07
-7.23313e-08
-2.7407e-07
1.23561e-07
-5.69197e-08
-2.77768e-07
1.36404e-07
-4.40975e-08
-2.81253e-07
1.51892e-07
-3.27344e-08
-2.83374e-07
1.70508e-07
-2.66642e-08
-2.84989e-07
1.90475e-07
-2.32464e-08
-2.84428e-07
2.16896e-07
-2.8943e-08
-2.85718e-07
2.50594e-07
-3.97966e-08
-2.87631e-07
2.96932e-07
-5.93818e-08
-2.8754e-07
3.58268e-07
-1.04854e-07
-2.92253e-07
4.28184e-07
-1.51403e-07
-2.75146e-07
4.9587e-07
-2.61604e-07
-2.58103e-07
5.48872e-07
-3.22136e-07
-1.95241e-07
5.03629e-07
-4.86379e-07
-9.67553e-08
4.16462e-07
-5.60054e-07
2.04076e-08
3.40566e-08
-8.62176e-07
1.92664e-07
-3.53491e-07
-1.16631e-06
2.53565e-07
-8.63833e-07
-1.44323e-06
3.00941e-07
-4.55328e-07
-1.60158e-06
-5.41782e-08
-6.5465e-07
-5.41775e-07
5.03497e-08
-1.11642e-06
6.15103e-07
3.54084e-07
1.59322e-06
-1.15446e-06
-1.22645e-06
4.17507e-06
-7.62299e-06
-1.13818e-06
6.7604e-06
-6.39858e-06
-1.99592e-06
9.45316e-06
2.17563e-06
-3.91127e-06
7.19775e-06
1.47676e-05
-2.54561e-06
2.39963e-05
-2.5382e-06
7.52519e-06
3.10375e-05
-1.64782e-05
3.04637e-06
-4.61887e-06
-2.04231e-05
6.30808e-06
-8.08587e-06
-3.22314e-06
3.41801e-06
-8.52461e-06
-9.43732e-07
3.90505e-06
-1.00854e-05
9.32744e-06
4.81976e-07
-1.28733e-05
8.2155e-06
2.06497e-06
-1.63818e-05
8.482e-06
2.87834e-06
-1.89913e-05
5.33942e-06
3.18865e-06
-2.0878e-05
3.82488e-06
2.41241e-06
-2.17404e-05
1.1453e-06
1.75917e-06
-2.22523e-05
-4.49238e-07
1.35237e-06
-2.24356e-05
-2.70759e-06
1.38822e-06
-2.27067e-05
-4.30906e-06
1.5947e-06
-2.27906e-05
-6.02639e-06
1.59402e-06
-2.25984e-05
-7.34345e-06
1.46579e-06
-2.19306e-05
-8.74214e-06
1.22e-06
-2.07292e-05
-1.007e-05
1.05529e-06
-1.94057e-05
-1.12647e-05
1.27615e-06
-1.80199e-05
-1.22361e-05
1.57297e-06
-1.64343e-05
-1.31636e-05
1.68198e-06
-1.46024e-05
-1.39359e-05
1.73432e-06
-1.24877e-05
-1.45415e-05
1.70802e-06
-1.00772e-05
-1.49675e-05
1.64029e-06
-7.24532e-06
-1.518e-05
1.5026e-06
-4.04531e-06
-1.492e-05
1.2361e-06
-5.76221e-07
-1.40432e-05
7.97628e-07
3.2089e-06
-1.25381e-05
1.79988e-07
7.13545e-06
-1.07322e-05
-3.90935e-07
1.13397e-05
-9.25456e-06
-1.36755e-06
1.63118e-05
-7.61751e-06
-3.04391e-06
2.09938e-05
-4.45451e-06
-4.12805e-06
2.39878e-05
-3.35865e-08
-3.70208e-06
2.46738e-05
4.92848e-06
-2.50642e-06
2.29372e-05
1.09235e-05
-1.27727e-06
1.79204e-05
1.76488e-05
-4.75925e-07
1.06144e-05
2.39738e-05
-6.27602e-07
2.68772e-05
1.04795e-06
-2.61291e-06
-3.97186e-06
-1.98722e-07
-1.63292e-06
-4.50952e-06
-7.85383e-07
-1.50269e-06
-2.79229e-06
1.15322e-07
-1.03874e-06
-2.76002e-06
-6.02813e-08
-7.28053e-07
-1.45677e-06
-7.87343e-08
-3.11204e-07
-1.05409e-06
-1.9368e-07
-2.6988e-08
-2.12452e-07
-2.88419e-07
2.05105e-08
1.94114e-07
-1.87665e-07
-1.48471e-07
7.24356e-07
-1.43407e-07
-4.07196e-07
7.73846e-07
-1.03321e-07
-5.69251e-07
5.80205e-07
-1.70855e-07
-6.7341e-07
3.8666e-07
-2.32469e-07
-7.18434e-07
2.44463e-07
-2.80588e-07
-6.92069e-07
1.16621e-07
-3.26014e-07
-6.05845e-07
2.66417e-08
-3.60995e-07
-4.90873e-07
-2.65094e-08
-3.84341e-07
-3.81112e-07
-2.5627e-08
-3.9264e-07
-2.81595e-07
-2.8889e-08
-3.97427e-07
-1.9243e-07
-2.10621e-08
-3.99459e-07
-1.15332e-07
-6.64437e-09
-3.97861e-07
-5.31004e-08
1.28887e-08
-3.92454e-07
-4.70082e-09
3.48474e-08
-3.85445e-07
3.09909e-08
5.93734e-08
-3.78444e-07
5.54756e-08
8.61799e-08
-3.72414e-07
7.09129e-08
1.13691e-07
-3.67951e-07
8.00428e-08
1.39837e-07
-3.64629e-07
8.48175e-08
1.64492e-07
-3.61966e-07
8.7096e-08
1.86642e-07
-3.59578e-07
8.8434e-08
2.06368e-07
-3.57408e-07
8.87005e-08
2.25472e-07
-3.55334e-07
8.85411e-08
2.45256e-07
-3.54233e-07
8.90157e-08
2.64613e-07
-3.54148e-07
9.16048e-08
2.80413e-07
-3.55054e-07
9.60003e-08
2.94542e-07
-3.55583e-07
1.03182e-07
3.04917e-07
-3.55925e-07
1.11591e-07
3.13718e-07
-3.54597e-07
1.24195e-07
3.14593e-07
-3.53591e-07
1.37096e-07
3.13698e-07
-3.49596e-07
1.59366e-07
2.98216e-07
-3.4914e-07
1.8071e-07
2.82111e-07
-3.43015e-07
2.14444e-07
2.45791e-07
-3.38558e-07
2.25356e-07
2.0495e-07
-3.20507e-07
2.38263e-07
1.30978e-07
-2.94803e-07
1.60673e-07
5.78007e-08
-2.41675e-07
1.11217e-07
-8.37519e-08
-1.88383e-07
-9.89724e-08
-1.96276e-07
-8.00405e-08
-1.5692e-07
-4.85411e-07
-1.56596e-08
-2.73974e-07
-7.91131e-07
4.58355e-08
-5.28276e-07
-1.0273e-06
1.21228e-07
-9.98527e-07
-1.09025e-06
1.28397e-07
-1.13493e-06
-1.36028e-06
-3.43223e-08
-1.06399e-06
-6.14311e-07
2.67939e-08
1.4312e-07
1.84753e-07
-5.84127e-07
1.33948e-06
-2.37776e-07
-2.04516e-06
-1.97e-07
-3.07518e-06
-2.65586e-06
-2.38361e-06
-3.20189e-07
-4.10456e-06
6.31872e-06
2.34768e-06
-8.11361e-06
1.49916e-05
1.40733e-05
-7.58571e-06
3.02865e-05
-8.48514e-06
1.08312e-05
3.17325e-05
-1.1137e-05
3.9781e-06
-1.05351e-05
-1.71285e-05
6.73615e-06
-1.65877e-05
-1.79578e-06
4.48653e-06
-2.18166e-05
-9.06858e-07
5.19657e-06
-2.14782e-05
5.89067e-06
3.10877e-06
-2.29682e-05
6.18245e-06
3.52359e-06
-2.36846e-05
5.89846e-06
3.29455e-06
-2.46099e-05
3.48291e-06
2.77324e-06
-2.5172e-05
2.27543e-06
2.10412e-06
-2.54139e-05
-1.075e-07
1.49428e-06
-2.52499e-05
-1.71448e-06
1.1022e-06
-2.51791e-05
-3.74303e-06
9.63978e-07
-2.51764e-05
-5.29711e-06
9.86036e-07
-2.5179e-05
-6.89242e-06
8.67234e-07
-2.49989e-05
-8.20232e-06
6.71229e-07
-2.45632e-05
-9.5616e-06
3.74054e-07
-2.37156e-05
-1.108e-05
1.57693e-07
-2.27672e-05
-1.25278e-05
3.12038e-07
-2.1702e-05
-1.38282e-05
5.24548e-07
-2.05652e-05
-1.48648e-05
5.62853e-07
-1.91683e-05
-1.58676e-05
5.34069e-07
-1.73813e-05
-1.67438e-05
4.14971e-07
-1.52129e-05
-1.74388e-05
3.02755e-07
-1.24617e-05
-1.79994e-05
6.81587e-08
-8.99032e-06
-1.80983e-05
-2.93109e-07
-4.78598e-06
-1.73444e-05
-9.03141e-07
9.89346e-08
-1.56308e-05
-1.79215e-06
5.31388e-06
-1.31944e-05
-2.75273e-06
1.09083e-05
-1.07112e-05
-4.13782e-06
1.69668e-05
-8.11408e-06
-5.56196e-06
2.19611e-05
-3.94636e-06
-5.50248e-06
2.41067e-05
8.54441e-07
-3.0336e-06
2.38582e-05
5.87816e-06
-7.01152e-07
2.18384e-05
1.3034e-05
-9.07775e-08
1.76498e-05
2.18467e-05
-9.28667e-09
1.03938e-05
3.15547e-05
-3.2479e-07
3.61077e-05
1.1633e-06
-2.98244e-06
-3.96018e-06
8.3011e-09
-1.99135e-06
-4.62889e-06
-8.6515e-07
-1.98397e-06
-3.05047e-06
2.58058e-07
-1.44363e-06
-3.25493e-06
-4.04517e-08
-1.04863e-06
-1.92859e-06
8.22692e-08
-4.4584e-07
-1.51975e-06
-1.32931e-07
-4.94823e-08
-3.76422e-07
-2.27322e-07
1.08576e-07
2.06545e-07
-1.65707e-07
8.23454e-08
9.09419e-07
-1.55633e-07
-1.72341e-07
1.12191e-06
-9.24559e-08
-3.5758e-07
9.12658e-07
-1.46586e-07
-5.23953e-07
7.28208e-07
-1.7475e-07
-6.37423e-07
5.62035e-07
-2.03738e-07
-6.66751e-07
3.9384e-07
-2.47626e-07
-6.13406e-07
2.64038e-07
-2.90503e-07
-5.12074e-07
1.99592e-07
-3.27247e-07
-4.11331e-07
2.2397e-07
-3.50147e-07
-3.20784e-07
2.48137e-07
-3.67412e-07
-2.39091e-07
2.78116e-07
-3.80707e-07
-1.61765e-07
3.07387e-07
-3.91218e-07
-9.33768e-08
3.39929e-07
-3.95295e-07
-3.53541e-08
3.72112e-07
-3.95172e-07
1.10661e-08
4.04762e-07
-3.91704e-07
4.62335e-08
4.37062e-07
-3.85955e-07
7.06911e-08
4.67796e-07
-3.78474e-07
8.62919e-08
4.94506e-07
-3.70188e-07
9.45987e-08
5.17764e-07
-3.61497e-07
9.81909e-08
5.36237e-07
-3.53107e-07
9.86561e-08
5.51259e-07
-3.45273e-07
9.65632e-08
5.65964e-07
-3.38316e-07
9.34553e-08
5.80813e-07
-3.32357e-07
9.07472e-08
5.94551e-07
-3.27135e-07
8.9454e-08
6.04329e-07
-3.22512e-07
8.85373e-08
6.13165e-07
-3.17599e-07
8.8156e-08
6.17717e-07
-3.1229e-07
8.75673e-08
6.20492e-07
-3.0607e-07
9.17451e-08
6.11561e-07
-3.00999e-07
9.31327e-08
6.04285e-07
-2.91856e-07
1.05629e-07
5.73507e-07
-2.87618e-07
1.00179e-07
5.57589e-07
-2.69901e-07
1.04519e-07
5.01723e-07
-2.60082e-07
5.01239e-08
4.82635e-07
-2.23205e-07
-2.93957e-08
4.04262e-07
-1.93466e-07
-1.90829e-07
3.59018e-07
-1.39929e-07
-3.76494e-07
2.09777e-07
-1.07408e-07
-5.54341e-07
4.7474e-08
-6.64815e-08
-5.60129e-07
-3.36903e-07
-1.41692e-07
-4.75036e-07
-7.03441e-07
-1.73303e-07
-6.33968e-07
-7.3811e-07
-1.24945e-07
-1.1143e-06
-5.1532e-07
-8.39498e-08
-2.06253e-06
-3.58614e-07
9.18905e-09
-1.5847e-06
-9.27646e-07
-1.40977e-07
7.66098e-07
-1.07942e-06
-7.88945e-07
1.11941e-07
2.00667e-06
-1.57357e-06
-6.04173e-06
5.80294e-06
-2.49994e-06
-6.35589e-06
4.93687e-06
-5.12447e-06
4.39836e-06
-9.29567e-07
-7.06234e-06
2.11329e-05
6.55189e-06
-9.06694e-06
2.84694e-05
-7.24562e-06
1.38596e-05
2.8757e-05
-4.54721e-06
2.66161e-06
-1.62336e-05
-9.91915e-06
5.86787e-06
-2.20145e-05
-1.51397e-06
5.25822e-06
-2.76438e-05
1.43976e-07
4.62781e-06
-2.88879e-05
4.01302e-06
3.17436e-06
-2.97328e-05
4.32691e-06
2.71788e-06
-2.94464e-05
3.40511e-06
2.18164e-06
-2.95495e-05
1.76827e-06
1.72847e-06
-2.91118e-05
5.43016e-07
1.17533e-06
-2.87471e-05
-1.28213e-06
7.99255e-07
-2.80184e-05
-2.88068e-06
4.76857e-07
-2.74732e-05
-4.60082e-06
3.11272e-07
-2.70313e-05
-6.02983e-06
2.90542e-07
-2.69023e-05
-7.23733e-06
2.19724e-07
-2.67071e-05
-8.54265e-06
6.68924e-08
-2.63411e-05
-9.8845e-06
-1.68491e-07
-2.58563e-05
-1.1265e-05
-2.94556e-07
-2.55852e-05
-1.25987e-05
-1.70737e-07
-2.5526e-05
-1.38402e-05
-7.2896e-08
-2.50379e-05
-1.53802e-05
-5.20495e-09
-2.42983e-05
-1.65746e-05
-5.00067e-08
-2.31099e-05
-1.77367e-05
-2.02617e-07
-2.14934e-05
-1.87132e-05
-3.46678e-07
-1.92422e-05
-1.96961e-05
-5.58729e-07
-1.59174e-05
-2.04301e-05
-9.958e-07
-1.12891e-05
-2.02594e-05
-1.71469e-06
-5.53488e-06
-1.87644e-05
-2.62117e-06
8.96125e-07
-1.59325e-05
-3.69296e-06
7.40392e-06
-1.23504e-05
-4.86855e-06
1.40514e-05
-9.13306e-06
-5.62855e-06
1.87737e-05
-4.92279e-06
-3.74583e-06
1.91575e-05
-4.81878e-07
9.52475e-07
1.82124e-05
5.20713e-06
1.6162e-06
1.70465e-05
1.41577e-05
4.21861e-08
1.42524e-05
2.53747e-05
-7.33926e-07
9.19877e-06
3.718e-05
-5.71713e-07
4.4496e-05
8.10476e-07
-3.41097e-06
-3.85745e-06
2.16853e-07
-2.49183e-06
-4.7596e-06
-7.83035e-07
-2.61285e-06
-3.25452e-06
3.32318e-07
-1.89923e-06
-3.77454e-06
-1.88451e-07
-1.42776e-06
-2.61692e-06
2.23563e-07
-6.35372e-07
-2.24334e-06
-6.36614e-08
-1.37365e-07
-7.42014e-07
-1.26832e-07
1.4258e-07
5.23213e-08
-1.20426e-07
2.88766e-07
8.81776e-07
-1.14503e-07
1.07962e-07
1.32862e-06
-2.45235e-08
-8.29948e-08
1.19733e-06
-9.30266e-08
-3.23003e-07
1.07597e-06
-1.07201e-07
-5.10682e-07
8.91761e-07
-1.4151e-07
-5.79039e-07
6.50283e-07
-1.87634e-07
-5.44788e-07
4.74805e-07
-2.44571e-07
-4.50743e-07
4.00923e-07
-2.94971e-07
-3.58545e-07
4.55368e-07
-3.23151e-07
-2.88474e-07
5.22014e-07
-3.43498e-07
-2.33016e-07
5.82841e-07
-3.59702e-07
-1.8032e-07
6.28397e-07
-3.73237e-07
-1.29212e-07
6.68931e-07
-3.79641e-07
-8.15505e-08
7.04523e-07
-3.79615e-07
-3.91185e-08
7.37669e-07
-3.74888e-07
-4.3736e-09
7.69136e-07
-3.66376e-07
2.0012e-08
7.99086e-07
-3.55232e-07
3.53534e-08
8.22167e-07
-3.42563e-07
4.29553e-08
8.39986e-07
-3.29388e-07
4.53985e-08
8.50928e-07
-3.16702e-07
4.57509e-08
8.55955e-07
-3.04623e-07
4.53415e-08
8.60357e-07
-2.93557e-07
4.39103e-08
8.66532e-07
-2.83862e-07
4.14651e-08
8.72537e-07
-2.7511e-07
3.75155e-08
8.75706e-07
-2.66998e-07
3.12941e-08
8.78778e-07
-2.5896e-07
2.2608e-08
8.7795e-07
-2.51112e-07
1.37743e-08
8.73339e-07
-2.43595e-07
5.83802e-09
8.56719e-07
-2.36771e-07
-2.93078e-10
8.38291e-07
-2.27527e-07
-6.31113e-09
7.98696e-07
-2.18667e-07
-2.24257e-08
7.74659e-07
-2.00644e-07
-6.00231e-08
7.24879e-07
-1.8507e-07
-1.35804e-07
7.12331e-07
-1.53661e-07
-2.65292e-07
6.62032e-07
-1.27731e-07
-4.1326e-07
6.0554e-07
-9.85127e-08
-5.62107e-07
4.72804e-07
-1.13388e-07
-6.58167e-07
2.5817e-07
-1.15176e-07
-5.81252e-07
-1.38838e-07
-2.73261e-07
-5.01218e-07
-4.90122e-07
-2.93133e-07
-7.80153e-07
-1.98245e-07
-2.52264e-07
-1.27682e-06
2.07564e-07
-2.1206e-07
-2.44792e-06
9.83842e-07
-1.01594e-07
-2.27908e-06
-8.18724e-07
-2.43094e-07
-3.71518e-07
-2.18826e-06
-5.86686e-07
2.68484e-06
2.53109e-07
-1.23131e-06
2.24873e-06
8.66625e-06
-2.04807e-06
2.97644e-06
7.70502e-06
-3.56928e-06
7.40534e-06
2.51293e-08
-5.04994e-06
2.43212e-05
-1.78623e-06
-8.46524e-06
3.10118e-05
-5.04893e-06
1.53478e-05
3.19878e-05
8.18752e-07
2.65801e-06
-1.63387e-05
1.03407e-07
5.02108e-06
-2.54921e-05
2.19957e-06
5.22903e-06
-3.22604e-05
3.33549e-06
3.64241e-06
-3.43098e-05
4.12169e-06
1.96695e-06
-3.42916e-05
3.35193e-06
9.60773e-07
-3.35048e-05
2.0342e-06
5.76862e-07
-3.27876e-05
6.0688e-07
3.45124e-07
-3.13114e-05
-1.01751e-06
-6.55288e-08
-2.97996e-05
-2.62439e-06
-2.67196e-07
-2.81495e-05
-4.20899e-06
-3.36957e-07
-2.67458e-05
-5.66376e-06
-3.30486e-07
-2.58442e-05
-6.73243e-06
-1.97929e-07
-2.52912e-05
-7.61091e-06
-2.04084e-07
-2.50722e-05
-8.64457e-06
-1.70373e-07
-2.49705e-05
-9.67783e-06
-3.42876e-07
-2.52013e-05
-1.09902e-05
-9.74551e-08
-2.55792e-05
-1.22997e-05
-3.07387e-08
-2.63885e-05
-1.35223e-05
3.44405e-07
-2.72508e-05
-1.50647e-05
4.38481e-07
-2.79826e-05
-1.63572e-05
4.51717e-07
-2.84965e-05
-1.7485e-05
2.18355e-07
-2.82178e-05
-1.89165e-05
-9.66369e-08
-2.71735e-05
-2.03692e-05
-4.03794e-07
-2.47331e-05
-2.19351e-05
-9.8093e-07
-2.03628e-05
-2.28597e-05
-1.7969e-06
-1.43742e-05
-2.22844e-05
-2.48416e-06
-7.47386e-06
-1.97319e-05
-3.10919e-06
-5.13791e-07
-1.57272e-05
-3.58649e-06
5.94519e-06
-1.19475e-05
-3.64602e-06
9.11053e-06
-7.73646e-06
-3.52388e-07
8.28185e-06
-2.58524e-06
2.9317e-06
6.96615e-06
5.25884e-06
1.2636e-06
6.63387e-06
1.58198e-05
-1.33036e-06
6.27643e-06
2.80425e-05
-2.31081e-06
4.36267e-06
4.07902e-05
-1.69651e-06
4.8534e-05
3.24703e-07
-3.86188e-06
-3.54844e-06
4.17296e-07
-2.99761e-06
-4.7624e-06
-8.57927e-07
-3.17384e-06
-3.24296e-06
1.71189e-07
-2.22219e-06
-3.99279e-06
-7.27811e-07
-1.66708e-06
-3.20312e-06
3.8963e-08
-7.05086e-07
-2.9139e-06
-2.85513e-07
-1.70289e-07
-1.09629e-06
-1.74377e-07
4.82045e-08
-2.5481e-09
-1.57895e-07
2.7789e-07
8.28102e-07
-1.71354e-07
2.66676e-07
1.36016e-06
-1.85958e-08
1.29629e-07
1.38283e-06
-4.77981e-08
-1.30597e-07
1.36547e-06
-2.87934e-08
-3.21957e-07
1.14796e-06
-6.4528e-08
-4.08205e-07
8.61906e-07
-1.25296e-07
-4.03373e-07
6.75993e-07
-2.05972e-07
-3.38644e-07
6.12451e-07
-2.76246e-07
-2.66639e-07
6.93073e-07
-3.09721e-07
-2.20301e-07
7.98786e-07
-3.23162e-07
-1.95162e-07
8.88124e-07
-3.30489e-07
-1.78526e-07
9.48242e-07
-3.3657e-07
-1.63565e-07
9.93066e-07
-3.39185e-07
-1.47988e-07
1.0259e-06
-3.37038e-07
-1.31784e-07
1.05177e-06
-3.3039e-07
-1.17679e-07
1.07473e-06
-3.19796e-07
-1.09028e-07
1.09556e-06
-3.05218e-07
-1.0289e-07
1.10682e-06
-2.90871e-07
-1.0076e-07
1.11462e-06
-2.76825e-07
-1.01246e-07
1.11584e-06
-2.64479e-07
-1.01049e-07
1.11031e-06
-2.54596e-07
-9.92827e-08
1.10451e-06
-2.45975e-07
-9.86741e-08
1.10338e-06
-2.37509e-07
-1.00076e-07
1.10317e-06
-2.29302e-07
-1.04992e-07
1.10187e-06
-2.21312e-07
-1.1491e-07
1.10187e-06
-2.13241e-07
-1.2969e-07
1.09809e-06
-2.05404e-07
-1.44991e-07
1.08692e-06
-1.98341e-07
-1.62456e-07
1.06512e-06
-1.90945e-07
-1.76998e-07
1.0354e-06
-1.82636e-07
-1.9872e-07
9.92874e-07
-1.72406e-07
-2.23561e-07
9.58605e-07
-1.59203e-07
-2.75993e-07
9.21876e-07
-1.44437e-07
-3.39875e-07
9.02467e-07
-1.26426e-07
-4.31709e-07
8.70822e-07
-1.16687e-07
-4.93455e-07
7.80207e-07
-1.13334e-07
-4.79197e-07
6.2497e-07
-1.65838e-07
-4.51209e-07
3.8944e-07
-1.60208e-07
-2.39145e-07
-4.82306e-08
-3.0135e-07
-2.39942e-07
-2.66262e-07
-2.23148e-07
-4.29931e-07
1.68877e-07
-1.67915e-07
-8.12309e-07
8.31094e-07
-2.26471e-07
-1.39326e-06
1.97315e-06
-3.11672e-07
-1.6666e-06
8.97406e-08
-5.90407e-07
-2.29007e-06
-1.23841e-06
-2.24359e-07
5.92445e-07
-1.32561e-06
-1.23887e-06
3.79256e-06
7.74761e-06
-1.87843e-06
9.96946e-06
5.359e-06
-3.89438e-06
1.16462e-05
2.31145e-06
-3.63175e-06
2.65122e-05
-9.19554e-06
-7.34195e-06
3.04463e-05
-4.37577e-07
1.61607e-05
3.31893e-05
6.39455e-06
1.99029e-06
-1.66858e-05
1.09733e-05
4.34145e-06
-2.66768e-05
7.26048e-06
4.61198e-06
-3.32851e-05
7.72657e-06
2.39713e-06
-3.49624e-05
5.45516e-06
4.79218e-07
-3.42247e-05
3.39185e-06
-9.54158e-07
-3.2189e-05
7.92131e-07
-1.0773e-06
-3.02675e-05
-4.00431e-07
-1.03542e-06
-2.77432e-05
-2.45347e-06
-1.02423e-06
-2.56749e-05
-3.5936e-06
-1.13267e-06
-2.35154e-05
-5.27709e-06
-1.15304e-06
-2.16742e-05
-6.3513e-06
-1.12106e-06
-1.99407e-05
-7.48368e-06
-1.00866e-06
-1.8407e-05
-8.40386e-06
-8.5771e-07
-1.75904e-05
-9.10151e-06
-4.0781e-07
-1.75081e-05
-9.8679e-06
1.22438e-07
-1.8683e-05
-1.04427e-05
6.95503e-07
-2.07678e-05
-1.11917e-05
9.50613e-07
-2.31124e-05
-1.24603e-05
1.13623e-06
-2.57458e-05
-1.39815e-05
1.41708e-06
-2.81423e-05
-1.54846e-05
1.44578e-06
-2.98919e-05
-1.68559e-05
1.06592e-06
-3.11751e-05
-1.83407e-05
6.17935e-07
-3.20398e-05
-1.9747e-05
8.93429e-08
-3.1885e-05
-2.15529e-05
-6.82979e-07
-2.9611e-05
-2.34616e-05
-1.80664e-06
-2.5257e-05
-2.44962e-05
-2.23501e-06
-1.89687e-05
-2.38168e-05
-2.26696e-06
-1.19148e-05
-2.08254e-05
-2.00294e-06
-5.85837e-06
-1.62621e-05
-1.77013e-06
-2.39502e-06
-1.09599e-05
-2.50717e-07
-2.38814e-06
-4.23335e-06
1.6359e-06
-1.48905e-06
4.66942e-06
-3.15082e-07
1.39692e-07
1.69021e-05
-2.71771e-06
1.45665e-06
3.02931e-05
-3.58095e-06
1.16461e-06
4.34283e-05
-2.36603e-06
5.02383e-05
-5.53361e-07
-4.31766e-06
-2.7551e-06
5.54758e-07
-3.48741e-06
-4.41572e-06
-1.17555e-06
-3.81827e-06
-3.01933e-06
1.12868e-07
-2.58866e-06
-3.84671e-06
-1.36999e-06
-1.86873e-06
-3.43845e-06
-4.7583e-07
-7.65358e-07
-3.40382e-06
-6.05268e-07
-1.45453e-07
-1.59162e-06
-1.16187e-07
-1.88115e-08
-1.5332e-07
2.99556e-08
1.38781e-07
7.78482e-07
-1.02974e-07
2.31995e-07
1.21418e-06
5.49581e-08
2.72409e-07
1.33832e-06
4.92274e-09
1.87401e-07
1.44484e-06
5.96888e-09
1.2321e-07
1.31634e-06
-1.0392e-07
6.01107e-08
1.1153e-06
-1.9012e-07
-6.85667e-10
1.02315e-06
-2.86096e-07
-6.66396e-08
1.04246e-06
-3.63859e-07
-1.20204e-07
1.16538e-06
-4.18514e-07
-1.68381e-07
1.29643e-06
-4.49247e-07
-2.1574e-07
1.40389e-06
-4.68171e-07
-2.52294e-07
1.46449e-06
-4.79477e-07
-2.71532e-07
1.49827e-06
-4.85794e-07
-2.79678e-07
1.52166e-06
-4.87497e-07
-2.81106e-07
1.53911e-06
-4.85842e-07
-2.78789e-07
1.5541e-06
-4.8166e-07
-2.75232e-07
1.56729e-06
-4.7533e-07
-2.72833e-07
1.57408e-06
-4.69762e-07
-2.7025e-07
1.57633e-06
-4.6444e-07
-2.6518e-07
1.57126e-06
-4.60674e-07
-2.57238e-07
1.56021e-06
-4.58061e-07
-2.50696e-07
1.55377e-06
-4.56027e-07
-2.50046e-07
1.5558e-06
-4.53306e-07
-2.54557e-07
1.55862e-06
-4.51172e-07
-2.64825e-07
1.56108e-06
-4.49186e-07
-2.81695e-07
1.56512e-06
-4.46629e-07
-3.03473e-07
1.56383e-06
-4.44223e-07
-3.24378e-07
1.55104e-06
-4.43501e-07
-3.46047e-07
1.52884e-06
-4.42326e-07
-3.65474e-07
1.49652e-06
-4.42031e-07
-3.90051e-07
1.45656e-06
-4.3937e-07
-4.11725e-07
1.41633e-06
-4.36459e-07
-4.54549e-07
1.39349e-06
-4.28963e-07
-4.90456e-07
1.36245e-06
-4.24557e-07
-5.19166e-07
1.33465e-06
-4.35061e-07
-4.93788e-07
1.21027e-06
-4.56174e-07
-3.20909e-07
1.01807e-06
-5.65453e-07
-1.72329e-07
7.94506e-07
-5.54995e-07
1.68423e-07
3.15241e-07
-7.03114e-07
6.23575e-08
3.31406e-07
-4.91424e-07
1.09818e-07
6.10847e-07
-4.78048e-07
-3.12102e-07
1.68027e-06
-4.12211e-07
-3.99901e-08
2.35722e-06
-5.32254e-07
-6.74212e-07
1.99255e-06
-1.20931e-06
-2.29407e-06
1.40296e-06
-8.60911e-07
-2.27114e-06
1.56499e-06
-2.91488e-06
-3.48794e-08
7.72245e-06
-1.74247e-06
6.04174e-06
4.63858e-06
-5.48793e-06
9.35674e-06
5.68931e-06
-6.17815e-06
2.67431e-05
-1.63662e-05
-9.83639e-06
3.62061e-05
-1.0702e-06
2.02299e-05
3.81867e-05
1.37903e-05
9.97779e-07
-1.98714e-05
2.54933e-05
3.94831e-06
-2.7166e-05
8.71277e-06
5.26312e-06
-3.39119e-05
1.24368e-05
1.97935e-06
-3.23462e-05
4.12256e-06
-3.2825e-07
-3.02246e-05
3.73785e-06
-2.50586e-06
-2.56537e-05
-1.44072e-06
-2.17284e-06
-2.26786e-05
-1.44309e-06
-1.85302e-06
-1.95118e-05
-3.8414e-06
-1.87532e-06
-1.63937e-05
-4.88739e-06
-1.89513e-06
-1.37983e-05
-5.96662e-06
-1.91763e-06
-1.15811e-05
-6.4995e-06
-2.08887e-06
-9.78847e-06
-7.07123e-06
-2.23964e-06
-8.32373e-06
-7.59338e-06
-2.31028e-06
-7.10955e-06
-8.26278e-06
-2.09364e-06
-6.61306e-06
-9.14124e-06
-1.28759e-06
-7.15676e-06
-1.01451e-05
3.31363e-07
-9.44396e-06
-1.08138e-05
2.05166e-06
-1.33447e-05
-1.17578e-05
3.16123e-06
-1.7802e-05
-1.32431e-05
3.68417e-06
-2.28862e-05
-1.37904e-05
3.43084e-06
-2.87764e-05
-1.34614e-05
2.54745e-06
-3.40246e-05
-1.43646e-05
1.25689e-06
-3.73835e-05
-1.60836e-05
-4.38637e-07
-3.92089e-05
-1.79157e-05
-2.03277e-06
-3.8907e-05
-1.98666e-05
-4.15961e-06
-3.68707e-05
-2.12358e-05
-5.59819e-06
-3.36072e-05
-2.19451e-05
-5.45046e-06
-2.91935e-05
-2.16541e-05
-3.88605e-06
-2.43177e-05
-1.89519e-05
-2.40355e-06
-2.0828e-05
-1.42481e-05
-3.25901e-07
-1.9515e-05
-6.37613e-06
8.13164e-07
-1.85203e-05
4.24267e-06
-5.68816e-07
-1.51016e-05
1.5169e-05
-1.84012e-06
-1.02797e-05
2.70079e-05
-1.81705e-06
-4.70748e-06
3.75758e-05
1.60602e-07
4.32238e-05
2.43244e-06
-4.38796e-06
-4.47542e-07
2.18107e-06
-3.77527e-06
-4.21931e-06
-8.11061e-07
-4.49657e-06
-2.5589e-06
2.64931e-07
-3.10148e-06
-3.61541e-06
-1.62087e-06
-2.16789e-06
-3.28968e-06
-1.07292e-06
-8.84069e-07
-3.46409e-06
-1.21343e-06
-1.1845e-07
-2.12461e-06
-2.22869e-07
-1.1625e-08
-6.15837e-07
3.62228e-07
4.37165e-08
5.7446e-07
1.53961e-07
1.65226e-07
8.44038e-07
2.51296e-07
3.57459e-07
1.0013e-06
1.4599e-07
4.65731e-07
1.15175e-06
1.85461e-07
5.01753e-07