/*--------------------------------*- C++ -*----------------------------------*\
| =========                 |                                                 |
| \\      /  F ield         | OpenFOAM: The Open Source CFD Toolbox           |
|  \\    /   O peration     | Version:  2.3.0                                 |
|   \\  /    A nd           | Web:      www.OpenFOAM.org                      |
|    \\/     M anipulation  |                                                 |
\*---------------------------------------------------------------------------*/
FoamFile
{
    version     2.0;
    format      ascii;
    class       surfaceScalarField;
    location    "36";
    object      phi.air;
}
// * * * * * * * * * * * * * * * * * * * * * * * * * * * * * * * * * * * * * //

dimensions      [0 3 -1 0 0 0 0];

internalField   nonuniform List<scalar> 
16448
(
-1.0636e-06
-2.57949e-06
4.24017e-07
1.12358e-06
-2.79993e-06
6.12741e-07
1.05665e-06
-1.0282e-06
1.09513e-06
7.88148e-07
-8.11284e-07
1.07978e-06
2.82471e-07
-4.75408e-07
9.81075e-07
3.80033e-08
-6.54591e-07
8.99048e-07
-6.26885e-08
-6.54743e-07
7.55424e-07
-8.07812e-08
-6.13947e-07
6.3203e-07
-1.65688e-07
-4.58422e-07
5.43319e-07
-3.46408e-07
-3.31616e-07
5.12327e-07
-5.45718e-07
-2.55236e-07
4.54537e-07
-6.43318e-07
-2.65217e-07
3.62809e-07
-6.27998e-07
-3.13809e-07
2.98481e-07
-5.1327e-07
-3.64811e-07
2.50073e-07
-3.75485e-07
-3.89616e-07
2.51822e-07
-2.29873e-07
-4.13711e-07
2.68088e-07
-1.08213e-07
-4.24831e-07
3.03162e-07
-1.02806e-08
-4.37677e-07
3.39734e-07
5.64273e-08
-4.46716e-07
3.79999e-07
9.16786e-08
-4.51876e-07
4.16614e-07
1.0307e-07
-4.57888e-07
4.46486e-07
9.94756e-08
-4.61218e-07
4.64802e-07
8.69487e-08
-4.5971e-07
4.72227e-07
7.0023e-08
-4.54057e-07
4.70972e-07
5.19519e-08
-4.44677e-07
4.62738e-07
3.52962e-08
-4.32351e-07
4.48996e-07
2.18794e-08
-4.17994e-07
4.31401e-07
1.46356e-08
-4.05604e-07
4.12836e-07
1.55286e-08
-3.9413e-07
3.93226e-07
2.39387e-08
-3.82855e-07
3.74433e-07
3.65431e-08
-3.70507e-07
3.57892e-07
5.05859e-08
-3.57116e-07
3.43061e-07
6.69245e-08
-3.4388e-07
3.2753e-07
8.95878e-08
-3.32143e-07
3.09468e-07
1.24529e-07
-3.23523e-07
2.8857e-07
1.7731e-07
-3.19278e-07
2.66483e-07
2.48386e-07
-3.1921e-07
2.48123e-07
3.3388e-07
-3.22488e-07
2.3698e-07
4.28119e-07
-3.28345e-07
2.34093e-07
5.25008e-07
-3.36999e-07
2.40096e-07
6.07736e-07
-3.40759e-07
2.58017e-07
6.55582e-07
-3.37636e-07
2.89776e-07
6.71117e-07
-3.22928e-07
3.0738e-07
7.4707e-07
-3.29807e-07
2.5384e-07
9.30949e-07
-2.97503e-07
1.1361e-07
1.02526e-06
-5.39321e-08
-4.03955e-08
1.14003e-06
-3.52419e-07
2.37638e-07
9.84854e-07
-7.54264e-07
9.09412e-07
-1.38288e-06
8.4976e-07
1.51794e-06
-3.70908e-06
1.59129e-07
2.16704e-06
-1.32992e-06
-7.65876e-06
5.27959e-06
3.18586e-06
-1.19693e-05
7.45347e-06
9.10696e-06
-1.42278e-05
8.30668e-06
1.48592e-05
-1.30723e-05
7.32009e-06
1.75863e-05
-8.45804e-06
5.73089e-06
1.9861e-05
-5.20241e-06
2.92764e-06
1.42019e-05
4.05809e-06
1.60096e-06
1.04594e-05
4.04526e-06
-3.03097e-07
-1.12502e-05
1.49362e-05
6.56632e-06
-3.00943e-05
-9.86058e-06
-1.01041e-06
-6.33581e-05
-2.00818e-05
5.28644e-06
-3.73036e-05
-1.78242e-06
6.12486e-06
6.03818e-06
1.74858e-06
1.42504e-06
2.63355e-05
-6.20613e-07
1.14892e-06
2.57012e-05
1.38044e-06
-7.17664e-07
2.603e-05
1.5479e-06
-1.93268e-06
2.75693e-05
1.45687e-06
-3.07571e-06
2.97036e-05
1.5335e-06
-3.6904e-06
3.17265e-05
2.01622e-06
-4.06874e-06
3.3586e-05
2.22218e-06
-4.15139e-06
3.56433e-05
1.71828e-06
-3.83647e-06
3.8015e-05
1.26758e-06
-3.71083e-06
4.08337e-05
3.10288e-07
-3.24692e-06
4.33983e-05
-7.0127e-08
-2.54647e-06
4.48231e-05
4.72299e-07
-1.83935e-06
4.54339e-05
1.05873e-06
-1.64918e-06
4.56464e-05
1.07535e-06
-1.30764e-06
4.54356e-05
2.59663e-07
-4.32606e-08
4.50034e-05
3.61789e-07
6.14872e-08
4.2684e-05
2.27688e-06
7.81263e-08
3.89196e-05
4.17772e-06
-4.19904e-07
3.50815e-05
5.03979e-06
-1.31757e-06
2.82566e-05
5.78114e-06
9.61673e-07
2.09781e-05
6.7268e-06
5.5683e-07
1.61896e-05
6.63055e-06
-1.80259e-06
9.39378e-06
7.27195e-06
-4.9534e-07
1.40481e-06
5.84995e-06
2.1393e-06
-2.90901e-06
1.48982e-06
2.88807e-06
-3.56752e-06
-2.00657e-06
2.66647e-06
-3.19707e-06
-2.32158e-06
1.99768e-06
-2.75095e-06
-1.74157e-06
1.34329e-06
-2.14191e-06
-1.23174e-06
6.645e-07
-1.32398e-06
-7.6476e-07
3.12933e-08
-1.20607e-06
-2.52237e-07
2.23359e-07
-1.33183e-06
1.63447e-07
1.41114e-08
-2.28973e-07
-4.69756e-07
-1.58123e-06
-3.61927e-06
-3.22263e-07
7.89881e-08
-4.05644e-06
-4.0371e-07
4.14448e-07
-1.99908e-06
6.35406e-07
5.41974e-07
-1.52086e-06
5.82034e-07
3.57631e-07
-7.03628e-07
4.12547e-07
1.65788e-07
-7.6686e-07
3.04096e-07
-3.76884e-10
-6.32058e-07
1.43464e-07
-1.17655e-07
-5.73176e-07
7.64919e-08
-2.7977e-07
-3.72317e-07
7.59972e-08
-5.22468e-07
-2.10397e-07
1.21467e-07
-7.37145e-07
-1.34011e-07
9.34396e-08
-8.19778e-07
-1.98054e-07
1.54565e-08
-7.94427e-07
-2.87278e-07
-5.18957e-08
-6.77615e-07
-3.78058e-07
-1.0358e-07
-5.30494e-07
-4.21962e-07
-1.14791e-07
-3.71963e-07
-4.60974e-07
-1.11284e-07
-2.33215e-07
-4.7512e-07
-8.84751e-08
-1.15625e-07
-4.90915e-07
-6.43686e-08
-2.71532e-08
-4.98969e-07
-3.62369e-08
3.02925e-08
-4.98908e-07
-1.04318e-08
5.98435e-08
-4.96477e-07
9.02021e-09
7.05227e-08
-4.9041e-07
1.84938e-08
6.86402e-08
-4.79919e-07
2.20718e-08
5.91457e-08
-4.6539e-07
2.08085e-08
4.58411e-08
-4.47293e-07
1.59005e-08
3.19684e-08
-4.26726e-07
8.22697e-09
2.02048e-08
-4.04617e-07
-1.63497e-09
1.48093e-08
-3.83736e-07
-1.64935e-08
1.71687e-08
-3.65234e-07
-3.12774e-08
2.58041e-08
-3.46499e-07
-4.50134e-08
3.79282e-08
-3.25295e-07
-5.73585e-08
5.2693e-08
-3.02822e-07
-6.9082e-08
7.24926e-08
-2.82334e-07
-8.13699e-08
1.00847e-07
-2.66032e-07
-9.44897e-08
1.39671e-07
-2.5516e-07
-1.07212e-07
1.90591e-07
-2.51118e-07
-1.19105e-07
2.53478e-07
-2.53339e-07
-1.28785e-07
3.27018e-07
-2.60683e-07
-1.35371e-07
4.08758e-07
-2.71699e-07
-1.38415e-07
4.94402e-07
-2.83799e-07
-1.38872e-07
5.78735e-07
-2.8724e-07
-1.37882e-07
6.52153e-07
-2.68761e-07
-1.42323e-07
7.73332e-07
-2.53525e-07
-1.90612e-07
1.03311e-06
-2.52001e-07
-3.37613e-07
1.61831e-06
-2.53377e-07
-6.29357e-07
2.71903e-06
-1.78666e-07
-9.76025e-07
2.8514e-06
-2.60356e-07
-2.2447e-07
5.259e-07
4.41957e-07
1.12924e-06
-9.84471e-07
1.77785e-06
5.82245e-07
-2.2208e-07
-1.10365e-06
5.00342e-07
-7.60801e-07
-1.04224e-05
3.30237e-06
-4.9773e-06
-1.59462e-05
8.19345e-06
-6.56353e-06
-2.11336e-05
8.49202e-06
-5.3848e-06
-2.05273e-05
6.27626e-06
1.68517e-07
-1.51439e-05
1.13249e-06
4.94213e-06
-7.015e-06
-2.96105e-06
9.22903e-06
3.12254e-06
-3.35147e-06
1.61361e-05
3.05973e-06
-5.92151e-06
-5.09616e-06
3.10345e-05
4.9378e-06
-3.06627e-05
-1.25321e-05
-2.23086e-06
-7.87539e-05
-2.56365e-05
3.92525e-07
-3.57876e-05
-6.86664e-06
1.24643e-06
1.31281e-05
-5.34719e-06
-3.67555e-06
1.34909e-05
6.64455e-06
-8.06084e-06
1.28954e-05
1.09185e-05
-8.72127e-06
1.5464e-05
7.92243e-06
-8.85319e-06
1.81269e-05
7.57724e-06
-8.7863e-06
2.04102e-05
7.62389e-06
-8.40507e-06
2.3498e-05
6.30836e-06
-7.36516e-06
2.67249e-05
4.45386e-06
-5.44326e-06
2.90391e-05
3.28972e-06
-3.71841e-06
3.12284e-05
1.76362e-06
-2.63107e-06
3.39966e-05
-2.16043e-06
-4.35861e-07
3.56244e-05
-2.43666e-06
7.80836e-07
3.66194e-05
-1.30006e-06
8.49899e-07
3.62691e-05
-6.61191e-07
2.01262e-06
3.32602e-05
-3.52919e-07
4.3481e-06
2.97045e-05
-7.99175e-07
4.56827e-06
2.8488e-05
-1.07176e-07
1.83216e-06
2.87181e-05
3.19048e-06
-9.92918e-07
2.8435e-05
7.24552e-06
-2.71349e-06
2.76492e-05
1.01286e-05
-4.1895e-06
2.432e-05
1.21025e-05
-2.93498e-06
2.01906e-05
1.28465e-05
-2.15323e-06
1.7718e-05
1.16876e-05
-2.69194e-06
1.61671e-05
1.07626e-05
-1.92797e-06
1.25211e-05
9.54083e-06
8.48679e-08
7.7606e-06
3.9336e-06
2.37029e-06
4.688e-06
-2.152e-06
3.18574e-06
1.50595e-06
-2.45577e-06
3.29637e-06
-9.53076e-07
-1.9488e-06
2.70581e-06
-9.73163e-07
-2.28897e-06
1.14195e-06
4.06201e-07
-1.47851e-06
-6.18273e-07
9.99772e-07
3.27452e-09
-7.58764e-07
6.02592e-07
1.43122e-06
-6.66812e-07
2.10108e-06
-9.25278e-07
-2.01177e-06
-3.91164e-06
-5.4063e-07
-7.44467e-07
-4.49417e-06
-8.29578e-07
-2.53936e-07
-2.62269e-06
1.33071e-07
7.99819e-08
-1.98169e-06
1.26901e-07
9.16127e-08
-7.36405e-07
2.11305e-08
-6.90174e-08
-6.01455e-07
-4.79094e-09
-1.81817e-07
-3.71533e-07
-1.4774e-07
-2.68134e-07
-3.00707e-07
-1.86166e-07
-3.6666e-07
-9.67168e-08
-1.77087e-07
-5.03264e-07
4.73964e-08
-1.21201e-07
-6.4578e-07
1.204e-07
-1.11907e-07
-7.17197e-07
3.27303e-08
-1.5938e-07
-7.27255e-07
-6.04346e-08
-2.16799e-07
-6.78894e-07
-1.62488e-07
-2.63946e-07
-5.94771e-07
-2.1835e-07
-2.87749e-07
-4.86851e-07
-2.6484e-07
-3.04069e-07
-3.8068e-07
-2.78932e-07
-3.02374e-07
-2.8246e-07
-2.92648e-07
-2.96503e-07
-1.97142e-07
-2.97044e-07
-2.87259e-07
-1.25556e-07
-2.92743e-07
-2.77767e-07
-7.3154e-08
-2.79222e-07
-2.69674e-07
-3.83349e-08
-2.61642e-07
-2.63605e-07
-1.73617e-08
-2.41119e-07
-2.59791e-07
-6.3209e-09
-2.18147e-07
-2.58303e-07
-1.24432e-09
-1.93804e-07
-2.58585e-07
1.56168e-09
-1.69229e-07
-2.60322e-07
4.81233e-09
-1.44929e-07
-2.62958e-07
8.98504e-09
-1.21534e-07
-2.66396e-07
1.43687e-08
-1.00511e-07
-2.70127e-07
2.08288e-08
-7.90874e-08
-2.73893e-07
2.87411e-08
-5.53851e-08
-2.77844e-07
3.99388e-08
-3.1859e-08
-2.82183e-07
5.57659e-08
-1.1792e-08
-2.86391e-07
7.57935e-08
3.47086e-09
-2.89554e-07
9.78906e-08
1.47106e-08
-2.91991e-07
1.21016e-07
1.87875e-08
-2.93056e-07
1.45592e-07
1.58788e-08
-2.93818e-07
1.72833e-07
6.98699e-09
-2.94937e-07
2.06008e-07
-6.53879e-09
-2.9836e-07
2.50727e-07
-2.18891e-08
-3.06656e-07
3.32386e-07
-3.91544e-08
-3.29773e-07
4.85071e-07
-4.48698e-08
-3.76604e-07
7.71285e-07
-7.23872e-08
-4.67381e-07
1.30314e-06
-1.45026e-07
-6.38863e-07
2.29277e-06
-2.96501e-07
-9.46531e-07
3.72833e-06
-2.64366e-07
-1.34989e-06
3.47226e-06
4.6836e-07
-4.72682e-07
6.37165e-07
2.23649e-06
1.04052e-06
-1.13144e-07
2.40166e-06
1.26455e-07
8.78702e-07
-1.43106e-06
-6.64477e-07
-4.13611e-06
-8.60582e-06
3.19816e-06
-1.36081e-05
-1.49011e-05
8.42692e-06
-2.07976e-05
-2.22717e-05
8.32763e-06
-2.32477e-05
-2.38138e-05
5.7366e-06
-1.82781e-05
-1.84278e-05
-1.68573e-06
-9.48359e-06
-5.18059e-06
-1.06289e-05
6.91339e-06
2.60249e-06
-1.5877e-05
1.8309e-05
9.33853e-06
-1.76744e-05
-3.11081e-06
5.42171e-05
-2.24957e-06
-3.44261e-05
-1.41011e-05
-9.51216e-07
-9.22683e-05
-2.93988e-05
2.78033e-06
-4.84175e-05
-1.09878e-05
2.55241e-06
-6.84982e-06
-7.40358e-06
2.5081e-06
-2.31191e-06
5.85636e-06
-4.76913e-06
6.53837e-06
6.41301e-06
-5.11691e-06
9.09556e-06
7.36586e-06
-4.22505e-06
1.31875e-05
4.40358e-06
-2.9994e-06
1.72316e-05
2.76752e-06
-1.01746e-06
1.72382e-05
9.09926e-07
3.35756e-06
1.40704e-05
-1.11737e-06
6.20716e-06
9.94916e-06
-3.23616e-06
7.47267e-06
6.00169e-06
-6.32162e-06
8.7985e-06
4.64241e-06
-9.97105e-06
8.41376e-06
6.59768e-06
-9.74392e-06
6.34451e-06
7.95244e-06
-6.94431e-06
4.51518e-06
9.56166e-06
-6.53914e-06
4.29982e-06
1.19211e-05
-6.17403e-06
3.43882e-06
1.43158e-05
-4.95424e-06
1.70219e-06
1.6794e-05
-1.98391e-06
-6.24581e-07
1.93371e-05
2.83051e-06
-2.22896e-06
2.11047e-05
9.75108e-06
-4.41287e-06
2.04496e-05
1.61926e-05
-5.61394e-06
1.74771e-05
1.87748e-05
-3.79949e-06
1.55539e-05
1.7757e-05
-2.91532e-06
1.55768e-05
1.59487e-05
-4.19674e-06
1.49174e-05
1.45975e-05
-3.1405e-06
1.2625e-05
1.15501e-05
2.163e-07
1.00513e-05
3.95103e-06
2.46121e-06
7.37369e-06
-1.91778e-06
2.44767e-06
3.93807e-06
-1.70719e-06
2.63557e-06
3.27762e-07
-6.93996e-07
2.32539e-06
-5.47584e-07
-1.62904e-06
3.56844e-07
9.98296e-07
-8.25296e-07
-2.0747e-06
1.39558e-06
1.36201e-06
-1.66537e-06
5.39004e-07
3.27447e-06
-8.00922e-07
4.51499e-06
-1.04086e-06
-2.58178e-06
-3.93242e-06
-3.47203e-07
-1.3638e-06
-4.69047e-06
-1.02168e-06
-8.97252e-07
-3.03099e-06
-5.8261e-08
-3.57818e-07
-2.55346e-06
3.23265e-08
-1.42222e-07
-9.63601e-07
1.15837e-08
-2.10253e-07
-5.24688e-07
-8.75147e-09
-2.87741e-07
-1.33937e-07
-1.60124e-07
-3.03511e-07
-8.27712e-08
-2.02179e-07
-3.10541e-07
1.34537e-07
-2.24236e-07
-3.42995e-07
2.78622e-07
-1.98784e-07
-4.21091e-07
3.9732e-07
-1.98838e-07
-5.22214e-07
3.5265e-07
-2.18809e-07
-6.02856e-07
2.73583e-07
-2.5339e-07
-6.22061e-07
1.52686e-07
-2.95984e-07
-5.92177e-07
7.62802e-08
-3.24529e-07
-5.23501e-07
2.07066e-08
-3.54237e-07
-4.41316e-07
9.9219e-09
-3.71056e-07
-3.60606e-07
9.3625e-09
-3.82736e-07
-2.86002e-07
1.74091e-08
-3.89074e-07
-2.16637e-07
3.03938e-08
-3.92519e-07
-1.56683e-07
5.16214e-08
-3.90816e-07
-1.07914e-07
7.58448e-08
-3.86274e-07
-7.04174e-08
1.01774e-07
-3.80409e-07
-4.35814e-08
1.29816e-07
-3.74817e-07
-2.58052e-08
1.58712e-07
-3.70311e-07
-1.44237e-08
1.86004e-07
-3.66634e-07
-7.23211e-09
2.11329e-07
-3.63471e-07
-2.21304e-09
2.34066e-07
-3.60638e-07
1.91103e-09
2.5418e-07
-3.58836e-07
5.98633e-09
2.74555e-07
-3.57739e-07
1.05316e-08
2.97657e-07
-3.57609e-07
1.57389e-08
3.20572e-07
-3.57661e-07
2.16528e-08
3.39336e-07
-3.57065e-07
2.79929e-08
3.52282e-07
-3.55174e-07
3.61043e-08
3.58766e-07
-3.52191e-07
4.54579e-08
3.58151e-07
-3.48741e-07
5.63697e-08
3.51027e-07
-3.46085e-07
6.70736e-08
3.40048e-07
-3.4379e-07
7.81573e-08
3.25872e-07
-3.43521e-07
1.06033e-07
3.01805e-07
-3.51597e-07
1.91185e-07
2.54281e-07
-3.78616e-07
4.23476e-07
1.53382e-07
-4.3057e-07
9.63637e-07
-1.10013e-07
-5.02564e-07
2.01654e-06
-5.4125e-07
-6.56714e-07
3.58382e-06
-8.78377e-07
-9.85429e-07
4.89822e-06
-2.76944e-07
-1.30186e-06
3.97321e-06
1.9016e-06
-5.08268e-07
1.46171e-06
3.91122e-06
8.36738e-07
1.30549e-06
2.86276e-06
-3.04917e-07
2.2861e-06
-6.74824e-07
-1.73689e-06
-4.32963e-06
-4.8517e-06
2.86157e-06
-1.54312e-05
-1.07443e-05
6.94469e-06
-2.77157e-05
-1.78777e-05
7.8905e-06
-3.96808e-05
-2.0525e-05
8.67642e-06
-4.58169e-05
-1.98023e-05
7.51076e-06
-3.6725e-05
-1.14474e-05
-2.82505e-06
-2.88921e-05
-6.23401e-07
-4.60716e-06
-2.26704e-05
1.13507e-05
-8.23379e-06
1.6452e-06
4.24055e-05
-1.34966e-05
-4.14951e-05
-1.2176e-05
-1.58308e-07
-0.00012432
-2.77721e-05
6.11049e-06
-0.000120221
-7.00309e-06
5.27681e-06
-0.000120524
-5.99931e-06
3.41429e-06
-0.000118486
1.36487e-06
2.82673e-06
-0.000115694
3.24769e-06
2.74364e-06
-0.000115559
4.27908e-06
2.83611e-06
-0.000117336
2.63438e-06
3.70187e-06
-0.000121082
1.82117e-06
4.35114e-06
-0.00012396
-1.13513e-07
4.52997e-06
-0.00012386
-3.84691e-06
4.438e-06
-0.000119341
-9.11263e-06
4.06762e-06
-0.000110117
-1.2724e-05
2.90699e-06
-8.98708e-05
-1.33438e-05
3.25699e-07
-3.69074e-05
-1.0628e-05
-1.16032e-06
4.45257e-06
-7.71721e-06
-4.53592e-07
5.45284e-06
-6.49706e-06
1.45287e-06
5.87774e-06
-5.39351e-06
8.91526e-07
6.8101e-06
-1.91136e-06
-4.88026e-07
7.00866e-06
4.44824e-06
-3.05683e-06
7.6148e-06
9.85087e-06
-4.78995e-06
7.80361e-06
1.55103e-05
-4.50377e-06
6.72127e-06
1.93382e-05
-1.78381e-06
6.50306e-06
2.0411e-05
-1.60404e-06
7.84094e-06
1.99419e-05
-4.24869e-06
9.76471e-06
1.80491e-05
-5.48695e-06
1.05499e-05
1.42431e-05
-2.66828e-06
1.07821e-05
1.00568e-05
1.35121e-06
9.24896e-06
2.9284e-06
2.64176e-06
5.54659e-06
-6.1063e-08
1.97337e-06
1.35385e-06
6.35445e-07
1.73658e-06
-9.77068e-07
1.38424e-06
1.40672e-07
-4.71832e-08
8.31855e-07
-3.21586e-06
1.57e-06
1.08045e-06
-3.25752e-06
1.47488e-06
3.0638e-06
-1.42913e-06
-1.30657e-07
4.57173e-06
5.00296e-07
5.89021e-06
-6.11789e-07
-3.12069e-06
-3.78104e-06
-1.24493e-07
-1.95045e-06
-4.8298e-06
-1.03092e-06
-1.50496e-06
-3.2743e-06
-2.0218e-07
-6.67899e-07
-3.19901e-06
-1.91529e-07
-1.92441e-07
-1.56821e-06
1.29131e-07
-1.31283e-07
-6.78975e-07
9.31128e-08
-1.91078e-07
5.66445e-08
-1.30799e-07
-2.62895e-07
1.53256e-07
-1.64223e-07
-2.36688e-07
3.40512e-07
-2.32193e-07
-2.20113e-07
4.94453e-07
-2.32419e-07
-2.55499e-07
6.6229e-07
-2.29596e-07
-3.70127e-07
6.80658e-07
-2.13394e-07
-4.95816e-07
6.18502e-07
-2.19244e-07
-5.60429e-07
4.63216e-07
-2.45931e-07
-5.60636e-07
3.48824e-07
-2.72351e-07
-5.1302e-07
2.79452e-07
-3.06376e-07
-4.46606e-07
2.74585e-07
-3.31092e-07
-3.81394e-07
2.95374e-07
-3.51239e-07
-3.18356e-07
3.21687e-07
-3.67331e-07
-2.56943e-07
3.48533e-07
-3.79569e-07
-1.96517e-07
3.78868e-07
-3.87688e-07
-1.41267e-07
4.10906e-07
-3.90329e-07
-9.47902e-08
4.44162e-07
-3.88881e-07
-5.80532e-08
4.77069e-07
-3.84008e-07
-3.1106e-08
5.08488e-07
-3.76741e-07
-1.21999e-08
5.35492e-07
-3.68412e-07
7.47924e-10
5.5805e-07
-3.59686e-07
9.35907e-09
5.76697e-07
-3.51262e-07
1.41928e-08
5.92765e-07
-3.43438e-07
1.70321e-08
6.08222e-07
-3.36526e-07
1.87133e-08
6.25954e-07
-3.29998e-07
1.85369e-08
6.44002e-07
-3.23273e-07
1.54187e-08
6.58908e-07
-3.16473e-07
9.10905e-09
6.68198e-07
-3.09627e-07
-7.78925e-10
6.71453e-07
-3.02819e-07
-1.56345e-08
6.68928e-07
-2.95943e-07
-3.85636e-08
6.62964e-07
-2.89029e-07
-7.49618e-08
6.59215e-07
-2.82791e-07
-1.25785e-07
6.56761e-07
-2.80088e-07
-1.75103e-07
6.39131e-07
-2.88031e-07
-1.70113e-07
5.64173e-07
-3.14904e-07
2.38382e-08
3.072e-07
-3.47793e-07
6.01095e-07
-2.97359e-07
-3.89935e-07
1.79656e-06
-1.18277e-06
-5.53972e-07
3.38098e-06
-1.48904e-06
-9.73783e-07
3.92721e-06
1.71604e-07
-9.94804e-07
2.75629e-06
3.30212e-06
-2.29636e-07
1.97446e-06
4.12926e-06
5.63765e-07
2.98267e-06
2.80253e-06
-9.48008e-07
4.14268e-06
-1.64747e-07
-1.67012e-06
-3.4621e-07
-2.04566e-06
1.68281e-06
-9.20206e-06
-6.08962e-06
4.20119e-06
-2.3365e-05
-1.03891e-05
6.67438e-06
-4.17323e-05
-1.20441e-05
9.88639e-06
-5.74531e-05
-1.61105e-05
1.20291e-05
-6.69776e-05
-1.51313e-05
1.32085e-05
-7.49703e-05
-7.39339e-06
1.47626e-05
-5.42053e-05
-8.48495e-06
-9.29196e-07
2.09179e-06
4.29836e-06
-1.97764e-05
-4.73543e-05
-8.56964e-06
6.57368e-08
-0.000134998
-2.59195e-05
8.01914e-06
-0.00013414
-5.85261e-06
5.66318e-06
-0.000136896
-5.90165e-06
3.13804e-06
-0.000137601
4.43163e-07
4.43685e-07
-0.000134531
4.77549e-06
-2.95264e-06
-0.000132392
7.18562e-06
-4.40004e-06
-0.00013158
7.9197e-06
-3.99312e-06
-0.000132749
7.43893e-06
-2.20663e-06
-0.000136244
3.76636e-06
3.33918e-07
-0.000138041
-3.22886e-06
9.26827e-07
-0.000136504
-1.19821e-05
9.80336e-07
-0.00013392
-1.64087e-05
1.51091e-06
-0.000129749
-1.81047e-05
7.06185e-07
-0.00012516
-1.56865e-05
-2.03479e-08
-0.000122418
-9.7022e-06
1.17486e-06
-0.000122114
-7.98225e-06
2.49485e-06
-0.0001234
-4.80192e-06
2.51548e-06
-0.000122881
-5.30463e-08
4.11743e-07
-0.000121296
7.03612e-06
-4.81089e-07
-0.000120616
1.2528e-05
-8.76512e-07
-0.000119086
1.71862e-05
-1.14971e-06
-0.000116508
2.04852e-05
-2.57512e-06
-0.000112285
2.15235e-05
-3.76472e-06
-0.000104889
2.00395e-05
-3.64013e-06
-8.65861e-05
1.60785e-05
-4.08034e-07
-3.37765e-05
1.11782e-05
2.2658e-06
4.73209e-06
8.51674e-06
3.08664e-06
6.68588e-07
6.8755e-06
1.07738e-06
-4.32901e-06
5.50387e-06
-6.02758e-07
-6.31446e-06
4.46954e-06
-3.27808e-06
-4.59462e-06
3.92978e-06
-3.98859e-06
-2.48415e-06
3.47179e-06
-3.51051e-06
-6.23815e-07
3.27137e-06
-3.08833e-06
-7.0717e-07
4.19724e-06
-4.72482e-07
-1.93787e-06
4.83556e-06
1.07221e-06
5.32391e-06
-4.6421e-07
-3.52448e-06
-3.49443e-06
1.96131e-07
-2.44456e-06
-4.96474e-06
-9.44986e-07
-2.08336e-06
-3.32796e-06
-3.07541e-07
-1.00635e-06
-3.50489e-06
-7.7115e-07
-3.4958e-07
-2.22217e-06
-2.8261e-09
-3.65061e-08
-1.1103e-06
1.18242e-07
2.90421e-08
1.03957e-07
-1.12873e-07
-1.32125e-07
4.04639e-07
-9.02257e-08
-1.14358e-07
5.2647e-07
-2.03737e-07
-1.02552e-07
6.78894e-07
-1.96258e-07
-1.16053e-07
8.80743e-07
-2.04963e-07
-2.48101e-07
9.95336e-07
-1.82641e-07
-4.1022e-07
9.6132e-07
-1.80711e-07
-4.9335e-07
7.51552e-07
-2.05216e-07
-4.93235e-07
5.91445e-07
-2.42749e-07
-4.41221e-07
5.11325e-07
-2.83897e-07
-3.80049e-07
5.24664e-07
-3.11264e-07
-3.3456e-07
5.79735e-07
-3.29862e-07
-2.9809e-07
6.30862e-07
-3.45658e-07
-2.64518e-07
6.72711e-07
-3.57761e-07
-2.25633e-07
7.06734e-07
-3.66764e-07
-1.84512e-07
7.3899e-07
-3.69217e-07
-1.44956e-07
7.70828e-07
-3.66235e-07
-1.10704e-07
8.02019e-07
-3.59213e-07
-8.61431e-08
8.33227e-07
-3.49313e-07
-6.91068e-08
8.5591e-07
-3.37466e-07
-5.8344e-08
8.7204e-07
-3.24767e-07
-5.10387e-08
8.81554e-07
-3.12175e-07
-4.56021e-08
8.87607e-07
-3.00292e-07
-4.22667e-08
8.94422e-07
-2.89548e-07
-4.32597e-08
9.06337e-07
-2.79403e-07
-5.0043e-08
9.20567e-07
-2.69794e-07
-6.40277e-08
9.33505e-07
-2.60625e-07
-8.48569e-08
9.40677e-07
-2.51662e-07
-1.12419e-07
9.41815e-07
-2.42813e-07
-1.47793e-07
9.37922e-07
-2.33632e-07
-1.98585e-07
9.36533e-07
-2.22789e-07
-2.75287e-07
9.49503e-07
-2.13599e-07
-3.87194e-07
9.77199e-07
-2.08543e-07
-5.33773e-07
9.99113e-07
-2.13415e-07
-7.02394e-07
9.63655e-07
-2.30871e-07
-8.46472e-07
6.99909e-07
-2.48641e-07
-8.50197e-07
1.95455e-08
-3.1319e-07
-4.43377e-07
-9.74311e-07
-6.15291e-07
4.10723e-07
-1.25344e-06
-1.08971e-06
1.43418e-06
1.19713e-07
-9.71582e-07
1.95581e-06
2.89814e-06
-1.17656e-07
2.49021e-06
3.57924e-06
1.56096e-08
3.91481e-06
2.49466e-06
-1.11674e-06
4.5564e-06
8.1895e-07
-1.62529e-06
2.41049e-06
-7.88324e-07
8.88551e-07
-1.74876e-06
-5.00877e-06
3.07837e-06
-9.00394e-06
-7.7491e-06
4.61521e-06
-1.67215e-05
-9.10511e-06
4.77866e-06
-2.62706e-05
-1.10236e-05
4.46221e-06
-3.45772e-05
-1.13431e-05
4.51851e-06
-5.25519e-05
4.1821e-06
6.39932e-06
-4.63594e-05
-1.45064e-05
-1.70748e-07
2.94393e-06
-3.10397e-05
-1.62308e-05
-5.10082e-05
-5.01855e-06
9.95803e-07
-0.000137663
-1.96523e-05
8.24498e-06
-0.000137809
-3.00558e-06
5.67294e-06
-0.000141069
-2.53361e-06
1.18756e-06
-0.000143199
4.34911e-06
-3.873e-06
-0.000142041
9.99325e-06
-5.91315e-06
-0.000141854
1.34629e-05
-7.11002e-06
-0.000142448
1.37967e-05
-4.5586e-06
-0.000144962
1.15848e-05
-2.3181e-06
-0.000146175
5.28288e-06
-1.25907e-06
-0.000145495
-4.20264e-06
-7.45099e-07
-0.000146876
-1.40747e-05
1.50515e-06
-0.000148884
-1.99304e-05
3.64504e-06
-0.000148475
-2.33153e-05
4.29795e-06
-0.000146195
-2.17922e-05
3.12537e-06
-0.000142248
-1.48012e-05
1.96149e-06
-0.000139924
-1.13429e-05
1.27144e-06
-0.000141345
-5.89454e-06
6.73861e-07
-0.00014291
-1.56591e-07
-5.8302e-07
-0.000142845
6.8452e-06
-1.30176e-06
-0.000142679
1.23603e-05
-1.25706e-06
-0.000141708
1.73598e-05
-2.03994e-06
-0.000139893
2.07937e-05
-2.89133e-06
-0.000137014
2.14568e-05
-3.01711e-06
-0.000134018
1.89053e-05
-1.52558e-06
-0.000132829
1.49826e-05
4.42898e-07
-0.000132223
1.22767e-05
1.10317e-06
-0.00013602
1.17861e-05
6.32272e-07
-0.000142002
1.09265e-05
-9.11386e-07
-0.000142882
8.00036e-06
-2.26993e-06
-0.000140623
5.8119e-06
-2.70154e-06
-0.000135652
4.60682e-06
-1.68127e-06
-0.000119132
3.96585e-06
-1.08524e-06
-7.9819e-05
4.21806e-06
-5.82132e-07
-3.15808e-05
3.83229e-06
-1.05835e-06
-7.90359e-06
2.81191e-06
-1.64931e-06
2.08397e-06
-1.94992e-06
-3.76651e-06
-2.95633e-06
5.27258e-07
-2.75713e-06
-4.93551e-06
-1.03861e-06
-2.43611e-06
-3.14081e-06
-5.08182e-07
-1.19845e-06
-3.4071e-06
-1.33545e-06
-4.34532e-07
-2.4738e-06
-5.123e-07
7.06056e-08
-1.46705e-06
-1.48396e-07
2.2324e-07
1.71835e-07
-2.2052e-07
-3.24802e-08
7.61523e-07
-1.01173e-07
-5.47443e-08
7.84316e-07
-2.3559e-07
-6.65224e-08
9.03031e-07
-2.12367e-07
-6.792e-08
1.0963e-06
-2.14168e-07
-1.76078e-07
1.26585e-06
-1.62365e-07
-3.11655e-07
1.25085e-06
-1.53959e-07
-3.79893e-07
1.00981e-06
-1.90028e-07
-3.83898e-07
8.40271e-07
-2.44828e-07
-3.46284e-07
7.64896e-07
-2.91192e-07
-3.04482e-07
7.96912e-07
-3.14055e-07
-2.81056e-07
8.76644e-07
-3.20342e-07
-2.7141e-07
9.45572e-07
-3.24362e-07
-2.69257e-07
9.97761e-07
-3.27209e-07
-2.65054e-07
1.03303e-06
-3.305e-07
-2.56207e-07
1.06031e-06
-3.30176e-07
-2.43036e-07
1.0826e-06
-3.24947e-07
-2.29649e-07
1.10385e-06
-3.15222e-07
-2.22253e-07
1.12643e-06
-3.00605e-07
-2.17992e-07
1.13853e-06
-2.86886e-07
-2.15349e-07
1.14327e-06
-2.73873e-07
-2.1301e-07
1.1418e-06
-2.62589e-07
-2.08919e-07
1.13626e-06
-2.52748e-07
-2.06092e-07
1.13479e-06
-2.43201e-07
-2.10806e-07
1.14417e-06
-2.33123e-07
-2.26826e-07
1.15964e-06
-2.23051e-07
-2.56245e-07
1.17577e-06
-2.12844e-07
-2.95347e-07
1.18257e-06
-2.02797e-07
-3.40786e-07
1.18015e-06
-1.92901e-07
-3.89947e-07
1.17101e-06
-1.83926e-07
-4.47787e-07
1.16812e-06
-1.73747e-07
-5.2259e-07
1.18843e-06
-1.64122e-07
-6.17627e-07
1.23167e-06
-1.59428e-07
-7.26319e-07
1.27168e-06
-1.63874e-07
-8.78418e-07
1.28354e-06
-1.67776e-07
-1.17884e-06
1.16076e-06
-1.60423e-07
-1.73164e-06
7.47555e-07
-1.75197e-07
-2.22967e-06
-1.31439e-07
-3.44839e-07
-2.10486e-06
-8.48542e-07
-5.29693e-07
-1.24012e-06
-2.61471e-07
-4.83548e-07
2.30637e-07
1.6496e-06
-2.22202e-07
1.83812e-06
2.47266e-06
-5.00884e-07
3.76299e-06
1.68333e-06
-1.11354e-06
4.6648e-06
1.3027e-06
-1.38555e-06
3.75375e-06
-8.8519e-07
1.0079e-06
-1.4542e-06
-3.30609e-06
3.50524e-06
-1.33029e-05
1.94208e-07
3.90538e-06
-2.16261e-05
1.16806e-07
-8.98637e-07
-2.46911e-05
-2.26287e-06
-5.69563e-06
-2.36634e-05
-6.3516e-06
-6.0189e-06
-5.92526e-06
-2.74986e-06
-1.08065e-05
-6.97977e-06
-1.64762e-05
3.02417e-06
1.77215e-06
-5.03022e-05
6.02721e-06
-6.52524e-05
3.37269e-06
7.54373e-07
-0.000155669
-3.94752e-06
5.981e-06
-0.000158913
1.81808e-06
4.75158e-06
-0.000162864
5.29885e-06
-2.61056e-06
-0.000163507
8.81026e-06
-5.08198e-06
-0.000160845
1.22136e-05
-6.41762e-06
-0.000158066
1.25105e-05
-4.0024e-06
-0.00015391
1.11151e-05
-2.30119e-06
-0.000149023
6.46827e-06
-8.57244e-07
-0.000143501
-1.03655e-07
-8.61319e-07
-0.00013927
-7.55971e-06
7.27367e-07
-0.000141927
-1.46687e-05
3.65887e-06
-0.000151525
-1.78009e-05
6.14034e-06
-0.000161207
-2.07048e-05
6.64399e-06
-0.000166197
-2.08865e-05
4.76353e-06
-0.000165698
-1.64944e-05
1.94095e-06
-0.000163755
-1.19866e-05
-4.0564e-07
-0.00016202
-7.39989e-06
-1.73471e-06
-0.000161009
-5.96627e-07
-1.96174e-06
-0.000160892
6.26868e-06
-1.14037e-06
-0.000160624
1.20478e-05
-1.45413e-06
-0.000159416
1.66558e-05
-1.33647e-06
-0.000156165
1.92067e-05
-1.49744e-06
-0.000152022
1.92806e-05
-1.11742e-06
-0.000149347
1.76158e-05
2.00494e-07
-0.000151055
1.64174e-05
1.90862e-06
-0.000157156
1.56414e-05
2.69082e-06
-0.000161587
1.42514e-05
1.37012e-06
-0.000160782
1.02958e-05
4.92988e-07
-0.000157068
3.84817e-06
1.04095e-06
-0.000153101
2.89085e-07
1.82275e-06
-0.000149778
-8.83026e-07
2.93581e-06
-0.000145726
6.19625e-07
4.23527e-06
-0.000137549
1.71968e-06
4.48449e-06
-0.000118118
1.00316e-06
3.91555e-06
-5.57013e-05
-4.72257e-07
3.39883e-06
-6.50016e-06
3.3386e-06
-3.54884e-06
-2.1656e-06
1.07775e-06
-2.88088e-06
-4.58307e-06
-1.02042e-06
-2.7908e-06
-2.80431e-06
-4.26571e-07
-1.5394e-06
-3.20724e-06
-1.45127e-06
-5.71517e-07
-2.57545e-06
-8.66231e-07
1.58993e-07
-1.74727e-06
-4.50299e-07
3.60545e-07
2.67676e-07
-2.974e-07
1.39059e-07
1.00051e-06
-1.75046e-08
5.04073e-08
1.14013e-06
-2.67166e-07
-6.13695e-08
1.22047e-06
-2.05664e-07
-6.64647e-08
1.34569e-06
-2.44303e-07
-7.67232e-08
1.50032e-06
-2.24213e-07
-6.8611e-08
1.48823e-06
-2.45503e-07
-6.94709e-08
1.30909e-06
-2.98427e-07
-9.11538e-08
1.21182e-06
-3.49866e-07
-1.39597e-07
1.20639e-06
-3.93056e-07
-1.93044e-07
1.27455e-06
-4.24196e-07
-2.43665e-07
1.36956e-06
-4.42296e-07
-2.91574e-07
1.45123e-06
-4.57747e-07
-3.39515e-07
1.51402e-06
-4.68317e-07
-3.72517e-07
1.54153e-06
-4.75502e-07
-3.90538e-07
1.55756e-06
-4.79225e-07
-3.9909e-07
1.5705e-06
-4.79346e-07
-4.01281e-07
1.58279e-06
-4.76745e-07
-3.98929e-07
1.59562e-06
-4.71536e-07
-3.9627e-07
1.60195e-06
-4.66079e-07
-3.93896e-07
1.60237e-06
-4.61468e-07
-3.90016e-07
1.59571e-06
-4.57785e-07
-3.84719e-07
1.58514e-06
-4.54165e-07
-3.84404e-07
1.58385e-06
-4.49369e-07
-3.97286e-07
1.59871e-06
-4.41647e-07
-4.24811e-07
1.61985e-06
-4.3268e-07
-4.65904e-07
1.63992e-06
-4.2305e-07
-5.14557e-07
1.64669e-06
-4.15446e-07
-5.66411e-07
1.64078e-06
-4.08758e-07
-6.16731e-07
1.62414e-06
-4.02801e-07
-6.64463e-07
1.61329e-06
-3.9742e-07
-7.17714e-07
1.63133e-06
-3.89632e-07
-7.78285e-07
1.67121e-06
-3.78948e-07
-8.34004e-07
1.69657e-06
-3.69145e-07
-9.0699e-07
1.71202e-06
-3.55473e-07
-1.13605e-06
1.73177e-06
-3.41919e-07
-1.75925e-06
1.71658e-06
-3.45796e-07
-2.95256e-06
1.37597e-06
-3.14059e-07
-4.09567e-06
7.01275e-07
-4.0667e-07
-4.39469e-06
4.89801e-07
-4.52211e-07
-3.17048e-06
1.11893e-06
-6.93504e-07
-5.59614e-07
9.88925e-07
-1.12709e-06
2.25532e-06
3.42004e-07
-1.47357e-06
2.83861e-06
2.11439e-06
-1.39497e-06
-2.50346e-06
4.49431e-06
-3.74389e-08
-1.50806e-05
9.72057e-06
-4.49474e-07
-2.55571e-05
1.49281e-05
-4.25728e-06
-3.00242e-05
1.44292e-05
-9.84516e-06
-3.16703e-05
1.14818e-05
-1.20985e-05
-2.84637e-05
3.48615e-06
-1.3044e-05
2.71403e-06
-1.22853e-05
-2.16422e-05
1.07478e-05
-2.43533e-05
-1.56796e-07
5.74995e-07
-5.27433e-05
7.63677e-06
-7.63003e-05
1.22532e-05
-1.29759e-06
-0.000175915
1.89378e-05
6.44468e-07
-0.000183416
1.12092e-05
7.85618e-06
-0.000187629
1.27974e-05
3.03104e-07
-0.000187163
1.10993e-05
-3.28858e-06
-0.000182337
1.10041e-05
-5.9636e-06
-0.00017507
5.4629e-06
-2.93172e-06
-0.0001659
2.69325e-06
-7.82016e-07
-0.000156329
-2.08095e-06
-7.85958e-07
-0.000148463
-7.96245e-06
7.62719e-07
-0.000146082
-1.12545e-05
3.72101e-06
-0.000152825
-1.35075e-05
7.46916e-06
-0.000166162
-1.28803e-05
1.00489e-05
-0.000184009
-1.26593e-05
1.09814e-05
-0.000199424
-1.16669e-05
7.51208e-06
-0.00020608
-1.09807e-05
3.55416e-06
-0.000209112
-9.37688e-06
1.13536e-06
-0.000208709
-6.05702e-06
-1.5673e-06
-0.000204883
-1.73772e-06
-2.69127e-06
-0.00020123
4.65389e-06
-2.13437e-06
-0.000197107
9.39097e-06
-1.77512e-06
-0.000192143
1.33297e-05
-1.18277e-06
-0.000188705
1.58981e-05
7.5053e-07
-0.000188316
1.6113e-05
2.92514e-06
-0.000191729
1.57307e-05
5.04568e-06
-0.000197207
1.51406e-05
5.35848e-06
-0.000200029
1.28036e-05
4.71464e-06
-0.000200011
9.50734e-06
3.81935e-06
-0.000196282
3.88143e-06
3.6419e-06
-0.000186512
-2.13234e-06
3.2229e-06
-0.00015327
-6.14196e-06
3.45827e-07
-6.97405e-05
-8.47744e-06
1.57651e-07
-5.16675e-06
-9.26753e-06
2.70359e-06
6.54243e-07
-7.29844e-06
5.03323e-06
2.11391e-06
-5.32682e-06
6.6902e-06
-5.84923e-05
-5.67317e-06
7.52504e-06
-1.09153e-05
8.877e-06
-2.79649e-06
-1.12289e-06
1.87408e-06
-2.81223e-06
-4.23941e-06
-3.27922e-07
-3.09741e-06
-2.5686e-06
4.94685e-08
-2.047e-06
-3.2352e-06
-1.02245e-06
-9.19917e-07
-2.85661e-06
-8.45929e-07
1.14137e-07
-2.13941e-06
-6.41922e-07
3.59081e-07
-1.08411e-07
1.31139e-07
1.58953e-07
7.1096e-07
4.8967e-07
6.78675e-08
1.1175e-06
1.13707e-07
-6.85169e-08
1.16949e-06
1.87361e-07
-3.47441e-08
1.26249e-06
4.94336e-08
2.76233e-08
1.36875e-06
6.91938e-08
1.0766e-07
1.33493e-06
7.32687e-08
1.17416e-07
1.18624e-06
1.13093e-07