/*--------------------------------*- C++ -*----------------------------------*\
| =========                 |                                                 |
| \\      /  F ield         | OpenFOAM: The Open Source CFD Toolbox           |
|  \\    /   O peration     | Version:  2.3.0                                 |
|   \\  /    A nd           | Web:      www.OpenFOAM.org                      |
|    \\/     M anipulation  |                                                 |
\*---------------------------------------------------------------------------*/
FoamFile
{
    version     2.0;
    format      ascii;
    class       volVectorField;
    location    "36";
    object      U;
}
// * * * * * * * * * * * * * * * * * * * * * * * * * * * * * * * * * * * * * //

dimensions      [0 1 -1 0 0 0 0];

internalField   nonuniform List<vector> 
6144
(
(0.0108892 0.0195744 0.00127877)
(0.0114129 -0.00577883 4.84941e-05)
(0.00396438 -0.00750927 -0.00233026)
(0.00374634 -0.00694766 -0.00240155)
(0.00229304 -0.00584344 -0.00235631)
(0.00273939 -0.00243686 -0.00224914)
(0.00246299 -0.00127717 -0.00164776)
(0.00230504 0.000129352 -0.000991629)
(0.00169 0.000692634 -0.000453581)
(0.00122377 0.00278167 0.000315916)
(0.00103792 0.00416362 0.000932721)
(0.00113643 0.00481041 0.00151094)
(0.00135405 0.00456643 0.00184879)
(0.00153296 0.00373846 0.00208105)
(0.0016669 0.00268023 0.00186881)
(0.00179878 0.00170097 0.00163257)
(0.00188732 0.000808214 0.00125564)
(0.00197643 0.000169854 0.000926618)
(0.00205294 -0.000288855 0.000594354)
(0.00211445 -0.000502409 0.000316628)
(0.00215392 -0.00059828 0.000147655)
(0.00217423 -0.000583102 5.52692e-05)
(0.00217472 -0.000521138 2.51991e-05)
(0.00215668 -0.00042907 4.16634e-05)
(0.00212428 -0.000327909 9.84387e-05)
(0.00208248 -0.000235146 0.000187349)
(0.00203326 -0.000165264 0.000309157)
(0.00197747 -0.000123385 0.000465139)
(0.00192698 -0.000113841 0.00061886)
(0.00188035 -0.000147282 0.000754969)
(0.0018368 -0.000215997 0.000870262)
(0.00179544 -0.000303979 0.000959384)
(0.00175751 -0.000383964 0.00102993)
(0.0017236 -0.000462734 0.00109073)
(0.00169173 -0.0005201 0.00115047)
(0.00166162 -0.000594761 0.00121528)
(0.00163337 -0.00064688 0.00130111)
(0.00161061 -0.000798547 0.00140401)
(0.00158624 -0.000900897 0.00151225)
(0.0015882 -0.0012595 0.00163372)
(0.0015668 -0.00138308 0.00170988)
(0.00162723 -0.00207337 0.00186465)
(0.00160986 -0.00221202 0.00190075)
(0.00178072 -0.00352043 0.00203898)
(0.00177176 -0.00360987 0.00184019)
(0.00221156 -0.00575053 0.00151502)
(0.00229828 -0.00484916 0.000717493)
(0.00401742 -0.00811827 -7.61983e-05)
(0.00435699 -0.00611786 -0.000900922)
(0.00613196 -0.0145483 -0.00198468)
(0.00277745 -0.00601997 -0.00243173)
(0.00314515 -0.0195734 -0.00341093)
(0.000748543 0.00750558 -0.00494987)
(-5.79144e-05 -0.00939657 -0.00724188)
(0.0201457 0.0516041 -0.00316793)
(0.00534451 -0.0593585 -0.0116075)
(0.0421208 0.0889619 -0.00183918)
(0.0143933 -0.131259 0.0146045)
(-0.0925056 0.1522 -0.0784786)
(0.0278052 0.00564291 -0.111945)
(0.0977002 -0.21107 -0.0192633)
(0.0525293 -0.0320397 -0.00625348)
(-0.00281156 -0.098188 0.00167625)
(0.00654424 -0.0549416 -0.00101739)
(-0.018778 -0.0431442 0.00150194)
(-0.0132041 -0.0119559 0.000571902)
(-0.00778571 0.00296786 0.00908012)
(-0.00841562 0.0257721 0.000781015)
(-0.00606726 0.046481 -0.00686957)
(-0.00152513 0.0562217 -0.00782324)
(0.00214289 0.063064 -0.00942838)
(0.00584344 0.0686915 -0.00965358)
(0.00904126 0.0718893 -0.0106981)
(0.0122391 0.0717395 -0.0106682)
(0.0144641 0.0669943 -0.0103551)
(0.0162161 0.0591888 -0.0100542)
(0.0171789 0.0496101 -0.0105772)
(0.0174622 0.0389718 -0.0110274)
(0.0181236 0.0283221 -0.0107697)
(0.0184596 0.0166363 -0.00945399)
(0.018491 0.00412985 -0.00891308)
(0.0183598 -0.00886081 -0.00871203)
(0.0174247 -0.0228372 -0.00847891)
(0.0169075 -0.0356645 -0.00799195)
(0.0157744 -0.0486802 -0.0064314)
(0.0117798 -0.0631032 -0.00492327)
(0.00722621 -0.0713974 -0.00402313)
(0.00615674 -0.077116 -0.000630814)
(0.00701058 -0.0869391 0.00217475)
(0.00304804 -0.0965166 0.00565625)
(0.0036957 -0.111431 0.0123651)
(-0.00487833 -0.124265 0.0157342)
(-0.0113672 -0.121933 0.0162204)
(-0.0165881 -0.110105 0.0141709)
(-0.0242167 -0.0827693 0.0115546)
(-0.031684 -0.0373575 -0.00383291)
(0.0211697 0.0187199 0.00372871)
(0.0228121 0.00413533 0.00309188)
(0.0110848 0.000170006 -0.000549962)
(0.0106537 -0.000357391 -0.000868125)
(0.00567059 -0.00337291 -0.000419431)
(0.00534675 -0.0013786 0.00087125)
(0.00353901 -0.00190132 0.00232002)
(0.00281862 -0.000113529 0.00256468)
(0.00147313 0.00125682 0.00240226)
(0.000984683 0.00428486 0.00265516)
(0.00121453 0.00571315 0.00324277)
(0.00185968 0.00632625 0.00392932)
(0.00248356 0.00585333 0.00432096)
(0.0029506 0.00501988 0.00450409)
(0.00317598 0.00382469 0.00443417)
(0.00338359 0.0027352 0.00433329)
(0.0034567 0.00170375 0.00418494)
(0.00355111 0.00093521 0.00406764)
(0.00360737 0.000320342 0.00396012)
(0.0036779 -2.99685e-05 0.00382124)
(0.00372755 -0.000241098 0.00371202)
(0.00373346 -0.000320118 0.00366461)
(0.00370294 -0.000329359 0.00367196)
(0.00363997 -0.000289131 0.00372588)
(0.00355275 -0.000226544 0.00381583)
(0.00344941 -0.000161836 0.00393221)
(0.00333386 -0.000110991 0.00406802)
(0.0032117 -7.64799e-05 0.00421329)
(0.0031075 -7.09113e-05 0.00432029)
(0.00302522 -0.000109364 0.00440418)
(0.00294874 -0.000171623 0.00447777)
(0.00286977 -0.000245583 0.00454491)
(0.00279468 -0.000311947 0.00460869)
(0.00272375 -0.000392051 0.0046698)
(0.00266038 -0.000455238 0.00472858)
(0.00260217 -0.000557346 0.00478943)
(0.0025666 -0.000624508 0.00485419)
(0.00254451 -0.000813586 0.00492825)
(0.00254457 -0.000896319 0.00499825)
(0.00257397 -0.00129065 0.00510107)
(0.00258456 -0.00134566 0.00514889)
(0.00274235 -0.00211883 0.00529707)
(0.00279688 -0.00214055 0.00530318)
(0.00321694 -0.00362914 0.00542481)
(0.00324437 -0.00337519 0.00525941)
(0.00407418 -0.00570478 0.00498838)
(0.00423014 -0.00344243 0.00397152)
(0.00682408 -0.00673744 0.00273026)
(0.00803119 0.000486331 0.00208729)
(0.0106459 -0.00825366 0.00110464)
(0.00641285 0.00736205 0.00115566)
(0.00504501 -0.0159074 -0.000847877)
(-0.00170554 0.0171684 -0.00388623)
(-0.00805664 -0.00818773 -0.0046764)
(0.0357912 0.0271749 0.0129409)
(0.0211175 -0.0436174 0.00944812)
(0.000181294 0.0156449 -0.0215642)
(-0.0449436 0.00452042 -0.0372666)
(-0.0375905 0.228538 -0.0499215)
(0.13593 -0.0454305 -0.046093)
(0.114733 -0.163636 -0.0192499)
(-0.0058279 0.153485 0.00384743)
(-0.0496023 -0.117462 -0.00466687)
(-0.0316205 0.030028 -0.0035267)
(-0.0398096 -0.0273725 0.00717434)
(-0.0300536 0.0247703 -0.00546909)
(-0.0286045 0.0438922 0.000248167)
(-0.0217183 0.0767999 -0.00537224)
(-0.0121018 0.0890935 -0.00849504)
(-0.00372583 0.0972943 -0.0075352)
(0.00538444 0.101875 -0.00770801)
(0.01315 0.105949 -0.00767613)
(0.020525 0.107615 -0.00786559)
(0.0263627 0.106795 -0.00741999)
(0.03179 0.102915 -0.00687483)
(0.0357966 0.0959896 -0.00678873)
(0.0394528 0.0878299 -0.00769993)
(0.0417979 0.07876 -0.00859278)
(0.0443424 0.0691226 -0.00869402)
(0.0460052 0.0580127 -0.00872307)
(0.0472726 0.0457171 -0.00837079)
(0.0478514 0.0324216 -0.00763994)
(0.0468536 0.017943 -0.0068116)
(0.0445804 0.00244895 -0.00571564)
(0.0406953 -0.0127114 -0.00393424)
(0.0346641 -0.0291409 -0.00276565)
(0.0282977 -0.0434442 -0.0022559)
(0.0249754 -0.0582102 0.000383598)
(0.0226646 -0.0738227 0.00461496)
(0.0178995 -0.0926354 0.0103936)
(0.00436515 -0.11232 0.0140506)
(-0.011861 -0.122866 0.0140124)
(-0.0334216 -0.126038 0.0118298)
(-0.0486318 -0.109879 0.00767832)
(-0.0640423 -0.0773258 0.0105497)
(-0.0673746 -0.0342356 -0.00325633)
(0.0243186 0.0185072 0.00449489)
(0.0264133 0.0103853 0.00488731)
(0.0153081 0.00547021 0.00269701)
(0.0137892 0.00583888 0.0030842)
(0.00730145 0.000722417 0.00374751)
(0.00488245 0.00162183 0.00357541)
(0.00159535 -0.000559987 0.00434923)
(0.000341929 0.000609051 0.0040474)
(-0.00149319 0.00124448 0.00377547)
(-0.00149413 0.00410449 0.00387046)
(-0.00061611 0.005213 0.00422057)
(0.000530584 0.00584893 0.00479638)
(0.00132863 0.00557158 0.00511111)
(0.00193404 0.00518987 0.0052561)
(0.00231234 0.00434527 0.00517211)
(0.00259428 0.00352458 0.0050557)
(0.00268505 0.00266615 0.00493487)
(0.00280404 0.00199239 0.00485837)
(0.00283116 0.00136401 0.00481209)
(0.00281018 0.000893665 0.00480409)
(0.00275952 0.000540705 0.0048231)
(0.00268551 0.000311195 0.0048598)
(0.00259452 0.000165157 0.00490732)
(0.00248844 8.90458e-05 0.00496783)
(0.00237205 5.51987e-05 0.00503526)
(0.0022494 4.46415e-05 0.0051053)
(0.00212387 4.08953e-05 0.00517814)
(0.00199938 3.13398e-05 0.0052517)
(0.00187473 9.60768e-06 0.00532544)
(0.00175748 -1.9725e-05 0.00539751)
(0.00163806 -4.07671e-05 0.00546396)
(0.0015168 -5.98108e-05 0.00552932)
(0.00140877 -7.9864e-05 0.00559703)
(0.00131108 -0.000130088 0.00566413)
(0.00122642 -0.000179402 0.00573016)
(0.00115095 -0.000280212 0.00579368)
(0.00110467 -0.000343105 0.0058546)
(0.00107174 -0.000508747 0.00591191)
(0.00108616 -0.000531728 0.00596507)
(0.00112819 -0.000865201 0.00603703)
(0.00120937 -0.000812276 0.00606527)
(0.00146832 -0.00153103 0.00617662)
(0.00167265 -0.0012818 0.00613667)
(0.00237401 -0.00262484 0.00622772)
(0.00248907 -0.00157366 0.00596813)
(0.00351114 -0.00386137 0.00575392)
(0.00333181 -0.000179195 0.00486521)
(0.00534511 -0.00390557 0.00366354)
(0.00703485 0.00497709 0.00304551)
(0.00902498 -0.00090024 0.00334544)
(0.00886743 0.0144485 0.00409419)
(0.00369895 -0.0100228 0.00306734)
(-0.0031171 0.0237284 -0.00140495)
(0.0044497 -0.0138343 0.00451531)
(0.0422781 0.00592373 0.0198015)
(0.0499335 -0.0541308 0.0222222)
(0.00182404 0.0074276 0.0380755)
(-0.0688053 -0.106969 -0.0138315)
(-0.0220107 0.214303 -0.149577)
(0.104802 -0.0857426 -0.0271476)
(0.113302 -0.130403 -0.0230434)
(0.029028 0.144477 -0.00691217)
(0.0110676 -0.0167144 -0.0104655)
(-0.0547702 0.0808306 -0.0019867)
(-0.0480471 0.0433664 -0.00841562)
(-0.0523065 0.0847285 -0.0121406)
(-0.0334894 0.0953154 -0.0117336)
(-0.0242658 0.109331 -0.0111481)
(-0.00944385 0.112932 -0.00862126)
(-0.00043541 0.117 -0.00646602)
(0.0120045 0.118118 -0.00498294)
(0.0207051 0.119612 -0.00425489)
(0.0301029 0.119905 -0.00330195)
(0.0368783 0.11908 -0.00204884)
(0.0441313 0.11608 -0.000554254)
(0.0504288 0.110597 0.000136868)
(0.0559962 0.104311 -0.000127263)
(0.0603058 0.0971842 -0.000441103)
(0.064477 0.0893066 0.000181298)
(0.0679504 0.0803691 0.000481969)
(0.070449 0.0697441 0.00119585)
(0.0719718 0.05818 0.00200343)
(0.0721136 0.0452034 0.00275238)
(0.0701365 0.0294144 0.00367945)
(0.0657392 0.0122222 0.00499787)
(0.0585415 -0.00625802 0.00668904)
(0.0501935 -0.0263287 0.00803788)
(0.0448963 -0.047392 0.011731)
(0.039293 -0.067585 0.0189501)
(0.0258897 -0.0934407 0.0225805)
(0.00551266 -0.113373 0.019033)
(-0.0181993 -0.123519 0.00984371)
(-0.0464531 -0.122706 0.00293641)
(-0.0755983 -0.109984 -0.00287999)
(-0.0991256 -0.0759196 -0.00146853)
(-0.11063 -0.0360145 -0.00770195)
(0.0253579 0.0186967 0.0043939)
(0.0279919 0.0138688 0.0048488)
(0.0168365 0.00864743 0.00185171)
(0.0159144 0.0100229 0.00239521)
(0.00813463 0.00456339 0.00390253)
(0.00558799 0.00477833 0.00403708)
(0.00122132 0.000377111 0.0049379)
(-0.000867974 0.000793544 0.00444776)
(-0.00353759 0.000116667 0.00429437)
(-0.0035408 0.00270951 0.00425958)
(-0.00230821 0.00350633 0.0045584)
(-0.00096623 0.00451102 0.00520789)
(-0.000105671 0.00482153 0.00551803)
(0.000581592 0.00496395 0.00566217)
(0.00101511 0.00448482 0.00554524)
(0.00131476 0.00388558 0.00541501)
(0.00136757 0.00313127 0.00530605)
(0.00145947 0.00253817 0.00524932)
(0.00147497 0.00194817 0.00520767)
(0.00143403 0.00145744 0.00518108)
(0.00135046 0.00103603 0.00517413)
(0.00123448 0.000714976 0.00518702)
(0.00109702 0.000466904 0.00521344)
(0.000946993 0.000295237 0.00525434)
(0.000796891 0.000183163 0.00530774)
(0.000653903 0.000116783 0.00536771)
(0.00051828 8.08215e-05 0.00543055)
(0.000393675 6.49512e-05 0.0054911)
(0.000280976 5.79287e-05 0.00554514)
(0.000171655 5.3837e-05 0.00559024)
(6.10303e-05 5.88003e-05 0.00563225)
(-4.18222e-05 5.87055e-05 0.00567956)
(-0.000120393 5.85187e-05 0.00573439)
(-0.000190206 3.19972e-05 0.00578833)
(-0.000242149 1.57957e-05 0.00584086)
(-0.00028693 -4.79209e-05 0.00588085)
(-0.000298061 -6.60906e-05 0.00591313)
(-0.000291677 -0.000197689 0.00592341)
(-0.000223602 -0.000177645 0.00594296)
(-0.000120032 -0.000481184 0.00595845)
(4.0594e-05 -0.000332386 0.00596508)
(0.000329247 -0.000954919 0.0059851)
(0.000668804 -0.000272026 0.00591898)
(0.00120029 -0.00133039 0.00577647)
(0.0017921 0.000857479 0.00557368)
(0.00237474 -0.000993125 0.00491472)
(0.00323219 0.0035169 0.00424964)
(0.00447272 -0.00115966 0.00306089)
(0.00591611 0.00593561 0.00232022)
(0.00713049 -0.000328787 0.00226563)
(0.00905292 0.0148147 0.00483883)
(0.00267877 -0.00448876 0.00459015)
(-0.00279452 0.0228769 0.00431844)
(0.0101772 -0.0230746 0.0168679)
(0.0409065 0.0189406 0.041151)
(0.0151574 -0.0150319 0.0331678)
(-0.0190951 0.0618359 0.0627346)
(-0.0847263 -0.114149 0.038188)
(0.0312759 0.158179 -0.170698)
(0.0769303 -0.0737113 -0.0251554)
(0.0943174 -0.0963738 -0.0255826)
(0.0067632 0.147615 -0.019671)
(-0.00067054 0.0699489 -0.0220579)
(-0.041358 0.120979 -0.0143645)
(-0.0396043 0.107917 -0.015699)
(-0.0394045 0.119553 -0.0142249)
(-0.0228731 0.121473 -0.0114056)
(-0.0158859 0.125781 -0.00853734)
(-0.0027293 0.12536 -0.00534206)
(0.0049229 0.126271 -0.00328756)
(0.0164453 0.12491 -0.00137325)
(0.0243685 0.1249 -0.000686686)
(0.0327241 0.123991 0.00028671)
(0.0393979 0.123129 0.00171947)
(0.0465581 0.120945 0.00322977)
(0.0536698 0.116966 0.00442008)
(0.0598876 0.113128 0.00427816)
(0.0653142 0.107641 0.004355)
(0.0701519 0.102081 0.00495659)
(0.0746287 0.096078 0.00582585)
(0.0781745 0.0877232 0.0074613)
(0.0807301 0.0781107 0.00867259)
(0.0824651 0.067004 0.00986049)
(0.081822 0.0518424 0.0112381)
(0.0776338 0.0332983 0.0130317)
(0.0698215 0.0119472 0.0150895)
(0.059682 -0.0129888 0.0171267)
(0.0509354 -0.0384281 0.0222504)
(0.04169 -0.0630449 0.0287753)
(0.0240377 -0.0912086 0.0264641)
(-0.0027662 -0.109047 0.00911084)
(-0.0273581 -0.11139 -0.00241759)
(-0.0572283 -0.108171 -0.00577286)
(-0.092439 -0.0965909 -0.00810632)
(-0.129116 -0.0725284 -0.00573906)
(-0.144546 -0.0290276 -0.0114863)
(0.0255477 0.0193157 0.00396625)
(0.0290943 0.0167894 0.00378822)
(0.0183092 0.0109044 -0.000210453)
(0.0186359 0.0132653 -8.24728e-05)
(0.010083 0.00654087 0.00136005)
(0.00758697 0.00649026 0.00226607)
(0.00159325 0.000380615 0.00384452)
(-0.00135726 0.00100281 0.00373722)
(-0.00511831 -0.0012239 0.00421653)
(-0.00567642 0.00128788 0.00428785)
(-0.00452044 0.00201648 0.00448958)
(-0.00348805 0.00335554 0.00514921)
(-0.00261453 0.00410174 0.0054652)
(-0.00173388 0.004606 0.00566176)
(-0.00107907 0.00441392 0.0055316)
(-0.000740521 0.00392234 0.00539927)
(-0.000804834 0.00323543 0.0052959)
(-0.000855095 0.00270424 0.00526112)
(-0.000955055 0.00217702 0.00521803)
(-0.00106734 0.00171937 0.00516961)
(-0.00120664 0.0012826 0.0051256)
(-0.00134505 0.000918182 0.00509785)
(-0.00148507 0.00061509 0.00508665)
(-0.00163305 0.000384137 0.00509155)
(-0.00178331 0.000217034 0.00510644)
(-0.00191915 0.000107985 0.00512979)
(-0.00204012 4.52486e-05 0.00515823)
(-0.00213936 1.76699e-05 0.00518532)
(-0.00221838 1.06226e-05 0.00520007)
(-0.00229094 1.75311e-05 0.00519805)
(-0.00236618 3.8477e-05 0.00519308)
(-0.00243795 5.5639e-05 0.00519312)
(-0.0024903 7.3957e-05 0.00519852)
(-0.00253677 7.23342e-05 0.00520363)
(-0.00256041 9.36577e-05 0.00520621)
(-0.00257724 7.29724e-05 0.00519341)
(-0.00253944 0.000115549 0.00517914)
(-0.00251006 1.82684e-05 0.00512818)
(-0.00237335 0.000125192 0.00511098)
(-0.00229027 -0.000125491 0.0050229)
(-0.00202455 0.000205268 0.00499822)
(-0.00188628 -0.000185829 0.00484227)
(-0.00145034 0.000848812 0.00467825)
(-0.00121922 0.000475883 0.00433356)
(-0.000411788 0.00285131 0.00390487)
(0.000158849 0.00180345 0.00343913)
(0.00218379 0.00559297 0.00317129)
(0.00394322 0.000562499 0.002446)
(0.00475272 0.0062984 0.00129945)
(0.00409618 0.000111578 0.000567682)
(0.00505351 0.0150413 0.00299537)
(0.00418186 0.00367684 0.00453328)
(0.0022516 0.0196274 0.0108447)
(-0.00562041 -0.0249594 0.022067)
(-0.00624082 0.033188 0.0399328)
(-0.005628 0.0213836 0.0469748)
(0.00233833 0.0671529 0.0663399)
(-0.0548336 -0.102719 0.0629065)
(0.0246999 0.0679015 -0.174265)
(0.0385975 -0.0377832 -0.0131049)
(0.0646755 -0.0539333 -0.0189874)
(0.00994244 0.15433 -0.0201369)
(0.0040638 0.104554 -0.0179894)
(-0.0227476 0.143294 -0.0129531)
(-0.0250879 0.141179 -0.0110925)
(-0.0215918 0.144091 -0.00663062)
(-0.012311 0.141078 -0.00532244)
(-0.00701248 0.140447 -0.00226747)
(0.00343188 0.136434 -0.000797752)
(0.0115111 0.134112 0.000820644)
(0.0204611 0.130316 0.00279199)
(0.0276927 0.127821 0.00268608)
(0.0342395 0.125149 0.00270183)
(0.0406102 0.123573 0.00422465)
(0.0465087 0.12156 0.00413364)
(0.0533622 0.118155 0.00546363)
(0.059829 0.11651 0.00565164)
(0.0655975 0.114751 0.00639325)
(0.0713168 0.113567 0.0057422)
(0.0756697 0.111685 0.00765288)
(0.0807966 0.10675 0.010125)
(0.0846563 0.0998511 0.0121514)
(0.0880434 0.0918582 0.0138441)
(0.0897321 0.0793097 0.0151104)
(0.0873275 0.0610581 0.0165454)
(0.0794828 0.0381981 0.0175185)
(0.06735 0.00977105 0.0179319)
(0.0539173 -0.0183982 0.0192995)
(0.0409602 -0.0446298 0.0221407)
(0.018397 -0.0736494 0.0060255)
(-0.00362721 -0.085532 -0.0111005)
(-0.0229073 -0.0770334 -0.0113924)
(-0.0555609 -0.0782971 -0.00658452)
(-0.0987347 -0.0713191 -0.00810795)
(-0.147036 -0.0552337 -0.0097148)
(-0.173722 -0.0291779 -0.0136475)
(0.0248576 0.0202071 0.0050534)
(0.0298808 0.0203368 0.00310434)
(0.0199472 0.0143969 -0.00089563)
(0.0220992 0.0168679 -0.00174145)
(0.0137987 0.00882164 -0.00272138)
(0.0112665 0.00852588 -0.000873496)
(0.00312072 0.000716493 0.000701987)
(-0.00112552 0.00162362 0.00152764)
(-0.00580658 -0.00222562 0.00275358)
(-0.00766591 -0.000324157 0.00332569)
(-0.00622 0.000166693 0.00359017)
(-0.004904 0.00187369 0.0044573)
(-0.00370362 0.00314067 0.00495285)
(-0.00252004 0.00395918 0.0054721)
(-0.00161183 0.0039157 0.0055596)
(-0.00116951 0.00350153 0.00558665)
(-0.00135344 0.0028427 0.0054789)
(-0.00154084 0.00240886 0.00544364)
(-0.00174456 0.00203584 0.00537293)
(-0.00192812 0.00173896 0.00527739)
(-0.00212304 0.00143006 0.00515957)
(-0.00231288 0.00114855 0.00504637)
(-0.00250409 0.000889211 0.00494236)
(-0.00267973 0.000670639 0.00485215)
(-0.00283222 0.000504853 0.0047731)
(-0.00295186 0.000397708 0.00470196)
(-0.00304647 0.00033756 0.00463795)
(-0.0031092 0.000314703 0.00457387)
(-0.00315487 0.000312839 0.00450217)
(-0.00320334 0.000314039 0.00442884)
(-0.00324873 0.000321695 0.00436908)
(-0.00328334 0.000330668 0.00432391)
(-0.0032937 0.000352182 0.00428933)
(-0.00329978 0.000372474 0.00425924)
(-0.00328453 0.000425502 0.00423016)
(-0.00325927 0.000452373 0.00418906)
(-0.00316752 0.000540301 0.00414579)
(-0.00308975 0.000501843 0.00407395)
(-0.00287403 0.00065455 0.0040273)
(-0.00276746 0.00049774 0.0039164)
(-0.00243811 0.000912229 0.00385362)
(-0.00236991 0.000746487 0.00365756)
(-0.0020107 0.00186399 0.00342931)
(-0.00180526 0.00174203 0.00309068)
(-0.0011303 0.0037911 0.0027199)
(-0.00013574 0.00247606 0.00261152)
(0.00193676 0.00579434 0.00324318)
(0.0039453 0.000301517 0.00319087)
(0.00333073 0.00666094 0.00262775)
(0.00142963 0.000779936 0.00114211)
(-0.00129646 0.0156982 0.00167227)
(0.00551952 0.00559512 0.00395352)
(0.0100845 0.0246202 0.00896207)
(-0.0094104 -0.0215648 0.0137441)
(-0.0404232 0.0077321 0.0328525)
(-0.0325519 -0.028258 0.0436589)
(0.0199652 0.0180973 0.0660314)
(0.00537187 -0.0907462 0.0701809)
(0.0113382 0.0231503 -0.175253)
(0.00489774 -0.0426552 -0.00932848)
(0.021826 -0.0545372 -0.0106146)
(-0.000740295 0.158092 -0.0144959)
(-0.00755815 0.124957 -0.0100225)
(-0.0166145 0.160626 -0.0046491)
(-0.0158457 0.160576 0.000141497)
(-0.0105429 0.157054 0.00128617)
(-0.00466471 0.151783 0.00287784)
(0.00258004 0.145186 0.00487093)
(0.00993128 0.137063 0.00600042)
(0.0171531 0.131572 0.00607088)
(0.0241619 0.123147 0.00615318)
(0.0293778 0.11836 0.0047797)
(0.0335528 0.114266 0.00420576)
(0.0383439 0.111691 0.00356081)
(0.0433504 0.110413 0.004751)
(0.0496865 0.109389 0.00466991)
(0.0556475 0.111814 0.00580052)
(0.0611548 0.112291 0.0037014)
(0.0682069 0.115762 0.00533221)
(0.0733953 0.117067 0.00717818)
(0.07721 0.119813 0.009185)
(0.0817836 0.120401 0.0123786)
(0.0872778 0.117323 0.015483)
(0.0921214 0.109835 0.0173401)
(0.0934826 0.0944392 0.0188742)
(0.0882942 0.0734492 0.0176483)
(0.0759093 0.045161 0.0125241)
(0.0581636 0.0154995 0.00759881)
(0.0426033 -0.010669 0.00396897)
(0.0231615 -0.0356332 -0.0133373)
(0.00346126 -0.0364475 -0.0162695)
(-0.0248091 -0.0281835 -0.00571391)
(-0.0654891 -0.0278667 0.00234086)
(-0.11379 -0.0269933 0.00103098)
(-0.162667 -0.0261436 -0.00409889)
(-0.193309 -0.0121802 -0.0123412)
(0.0234704 0.0205732 0.00471288)
(0.0304726 0.0245785 0.00421747)
(0.0207294 0.0173691 0.000849217)
(0.02444 0.0198379 -5.52697e-06)
(0.018082 0.0101474 -0.00406714)
(0.0158557 0.00970523 -0.00186537)
(0.00572551 0.000379292 -0.0022108)
(0.000546748 0.00230748 -0.000577751)
(-0.00483865 -0.00178112 0.00105155)
(-0.00825402 -0.000669962 0.0017682)
(-0.00797058 -0.00123981 0.00216906)
(-0.00770457 0.000772673 0.00335443)
(-0.00667556 0.00194555 0.00421149)
(-0.004937 0.00286525 0.00532768)
(-0.00372727 0.00295182 0.00591119)
(-0.00325074 0.00275344 0.00630798)
(-0.00367407 0.00222233 0.00627991)
(-0.00421905 0.00191482 0.00618321)
(-0.00466895 0.00170319 0.00601164)
(-0.00495234 0.00160482 0.00580374)
(-0.00515903 0.0015061 0.00557383)
(-0.00531008 0.00142123 0.00535704)
(-0.00542944 0.00132416 0.00515934)
(-0.00554285 0.00123347 0.00499961)
(-0.00565959 0.00116808 0.00488238)
(-0.005735 0.00112423 0.00476599)
(-0.00577561 0.00109708 0.0046559)
(-0.00577189 0.00109387 0.00456156)
(-0.0057238 0.00109554 0.00449021)
(-0.00566937 0.00108476 0.00443614)
(-0.00563614 0.00107449 0.00439888)
(-0.00560986 0.00107029 0.00437513)
(-0.00557548 0.00108452 0.00436218)
(-0.00554282 0.00111311 0.00435652)
(-0.00548822 0.00118239 0.00436042)
(-0.00540477 0.00124646 0.00435286)
(-0.00526738 0.00134853 0.00433261)
(-0.00510118 0.00137698 0.00429443)
(-0.00485836 0.00154572 0.00425746)
(-0.00467841 0.00149152 0.00419533)
(-0.00445994 0.00190821 0.00413705)
(-0.00437807 0.00180995 0.00402875)
(-0.00420889 0.00276823 0.0038798)
(-0.00384663 0.00229553 0.0037106)
(-0.00317926 0.00391297 0.00355732)
(-0.00203427 0.00131503 0.00334583)
(-1.28338e-05 0.00472039 0.00468373)
(0.00133129 -0.00191378 0.00476611)
(-0.000894138 0.00605562 0.00520238)
(-0.00305158 -0.00198318 0.0038012)
(-0.00785753 0.0132925 0.00365628)
(0.00255114 -0.00186768 0.00502751)
(0.0104495 0.0249341 0.00647247)
(0.00873678 -0.0076499 0.00856996)
(-0.035037 0.00908854 0.0269723)
(-0.0286071 -0.0445965 0.0421765)
(-0.0077539 -0.0227708 0.0590944)
(0.0267052 -0.0887219 0.0659552)
(-0.003098 -0.00469045 -0.170965)
(-0.0176798 -0.0355269 -0.00576055)
(-0.0248749 -0.0518135 -0.00384426)
(-0.0219973 0.157473 -0.0102879)
(-0.0245115 0.12605 -0.0033925)
(-0.0203233 0.159512 0.00249209)
(-0.0128378 0.156166 0.00882966)
(-0.00566208 0.147056 0.00857681)
(0.00158958 0.136461 0.0103214)
(0.00866739 0.126733 0.00947698)
(0.0150546 0.11707 0.010482)
(0.0219418 0.107483 0.0105255)
(0.027333 0.0975861 0.0106283)
(0.0317009 0.0900745 0.00917561)
(0.0350578 0.0824447 0.00755299)
(0.0379495 0.0772906 0.00469864)
(0.0406154 0.074195 0.00172438)
(0.0428106 0.074581 -0.000915161)
(0.0474454 0.0836086 -0.00108239)
(0.0531496 0.0917326 0.000893271)
(0.0597212 0.101338 0.00242501)
(0.06614 0.111292 0.00483346)
(0.0722445 0.1188 0.00787073)
(0.078843 0.124765 0.0121397)
(0.0839173 0.127709 0.0166544)
(0.090357 0.128176 0.0206887)
(0.0962733 0.121564 0.0250732)
(0.0978622 0.109721 0.0250357)
(0.0897774 0.0877624 0.0158844)
(0.0729379 0.060016 0.00393619)
(0.0552937 0.0343667 -0.00424316)
(0.0365369 0.0119298 -0.0166662)
(0.0152222 0.00862208 -0.0161036)
(-0.0151758 0.00905397 -0.00356805)
(-0.0586654 0.00178904 0.00600947)
(-0.108866 -0.00283012 0.0047651)
(-0.161886 -0.00912735 -0.00431585)
(-0.189859 -0.00106565 -0.0152459)
(0.0242128 0.0197757 0.00457125)
(0.0296062 0.0288899 0.00624659)
(0.0202691 0.0202822 0.00264555)
(0.0248731 0.0235233 0.00289122)
(0.0209702 0.0109753 -0.00249944)
(0.0196652 0.0107637 -0.000867617)
(0.00773759 -7.47586e-05 -0.00484114)
(-0.000612123 0.00238738 -0.00342552)
(-0.00496041 -0.000936684 -0.000778476)
(-0.00789341 0.000248744 0.000455674)
(-0.00822502 -0.00166139 0.00114374)
(-0.00822611 -0.000510023 0.00266976)
(-0.0064243 -0.000433221 0.00421615)
(-0.0045152 0.000142714 0.00580562)
(-0.00336254 0.000326906 0.00683784)
(-0.00295191 0.000774685 0.00774684)
(-0.00331635 0.00106277 0.00815082)
(-0.00385196 0.00134925 0.0082468)
(-0.00431044 0.0015903 0.00812793)
(-0.00462432 0.00182363 0.00789729)
(-0.00486468 0.00194739 0.00760289)
(-0.00503335 0.00200585 0.00731738)
(-0.00515939 0.0020115 0.00705416)
(-0.00526259 0.00199433 0.0068226)
(-0.00534926 0.00196264 0.00662833)
(-0.00538833 0.00193486 0.00647105)
(-0.00539729 0.00191286 0.00632957)
(-0.00536206 0.00188625 0.00621265)
(-0.00528579 0.00184124 0.00611827)
(-0.00520122 0.00179044 0.00605263)
(-0.00513721 0.00176125 0.00601415)
(-0.00507482 0.00175897 0.00599336)
(-0.00501094 0.00178528 0.00598092)
(-0.0049627 0.00183455 0.00596363)
(-0.00490308 0.00192339 0.00593735)
(-0.00480517 0.00200716 0.00589262)
(-0.00466087 0.00210802 0.00583651)
(-0.00447116 0.00215547 0.00576819)
(-0.0042333 0.00230952 0.00570638)
(-0.00401828 0.00226429 0.00563616)
(-0.00381138 0.00260795 0.00558256)
(-0.00364142 0.00241698 0.00549213)
(-0.0034427 0.00317254 0.00544813)
(-0.00287092 0.00220415 0.00537499)
(-0.00196328 0.00355611 0.00561349)
(-0.000850385 -0.000142968 0.00557865)
(0.00170609 0.00324208 0.00731606)
(0.00224231 -0.00375 0.00739861)
(0.000920649 0.00474633 0.00872547)
(-0.00361889 -0.00479388 0.00710343)
(-0.00871548 0.0103989 0.00574478)
(-0.0021185 -0.00946235 0.00806639)
(0.00214432 0.0213782 0.00852791)
(0.00596517 -0.00461818 0.0158031)
(-0.030257 0.0345821 0.0282331)
(-0.0111654 -0.032 0.0472357)
(0.00288663 0.00435794 0.0747813)
(0.0748418 -0.07827 0.0692775)
(-0.0334964 0.0136292 -0.158149)
(-0.050359 -0.0383658 0.008632)
(-0.0768204 -0.0409179 0.00882228)
(-0.0392676 0.148461 -0.00784187)
(-0.0426763 0.106884 0.00280781)
(-0.0217128 0.136049 0.0075848)
(-0.0113872 0.119113 0.0132769)
(0.0026368 0.106492 0.0102319)
(0.0048506 0.0925335 0.00972861)
(0.0148864 0.0804694 0.00904512)
(0.0175937 0.0687908 0.00838547)
(0.0233743 0.0570513 0.00809938)
(0.026467 0.0502309 0.00881218)
(0.0302292 0.0417044 0.00913079)
(0.0335121 0.0366941 0.00917572)
(0.0370621 0.0314954 0.00819115)
(0.0416968 0.0278037 0.00470606)
(0.0439798 0.0264371 -0.00140347)
(0.0424735 0.0315393 -0.00671113)
(0.0431505 0.0444279 -0.00684052)
(0.0474978 0.0558837 -0.00394827)
(0.0529519 0.0725329 0.000763718)
(0.0597865 0.0912851 0.00506161)
(0.0691152 0.111556 0.00993756)
(0.0774992 0.12378 0.0162586)
(0.0866181 0.130444 0.0221568)
(0.0950698 0.129233 0.0284013)
(0.0988679 0.123922 0.0327797)
(0.0972264 0.115622 0.0321853)
(0.087309 0.10227 0.0236001)
(0.0673692 0.0863203 0.0117817)
(0.0399109 0.0694615 -0.00537203)
(0.00728223 0.0598715 -0.0155032)
(-0.0250266 0.0622969 -0.00553273)
(-0.0679517 0.0517416 0.00514683)
(-0.113323 0.0391784 0.00855727)
(-0.155831 0.0200428 0.000834651)
(-0.183633 0.00548635 -0.0201185)
(0.00971309 0.0207132 -0.00495731)
(0.0270509 0.0301855 0.00658288)
(0.0174925 0.0235162 0.00321085)
(0.0238216 0.0283441 0.00440067)
(0.0215375 0.0132331 0.000350558)
(0.021983 0.0122348 0.00183557)
(0.0110322 -9.99006e-05 -0.00652225)
(0.00191782 0.0021124 -0.00866533)
(-0.00458105 -0.000730153 -0.00632474)
(-0.00662383 0.00110784 -0.00424908)
(-0.00754662 -0.00184963 -0.00285836)
(-0.00836884 -0.00151289 -0.00135492)
(-0.00815855 -0.00269301 0.000252966)
(-0.00726145 -0.00217118 0.00183936)
(-0.00694577 -0.00159527 0.00305216)
(-0.00715895 -0.000555054 0.00412199)
(-0.00782618 0.000294727 0.00494185)
(-0.00847808 0.000994035 0.0054143)
(-0.00900394 0.00150583 0.00555225)
(-0.00919695 0.00188536 0.00550041)
(-0.00918736 0.00211148 0.00536173)
(-0.00914069 0.00226115 0.00520262)
(-0.00907558 0.00233545 0.00504674)
(-0.00900784 0.00236734 0.00489878)
(-0.00893572 0.0023667 0.00476292)
(-0.00884021 0.00234926 0.00464315)
(-0.00872976 0.0023251 0.0045321)
(-0.00858497 0.00229464 0.00443367)
(-0.00841786 0.00225413 0.00434225)
(-0.00830471 0.00221267 0.00426524)
(-0.0082528 0.00218917 0.00421113)
(-0.00820287 0.00218671 0.00417561)
(-0.00814819 0.00221081 0.00415281)
(-0.00809582 0.00225847 0.00412986)
(-0.0080072 0.00234026 0.00409459)
(-0.00785468 0.00241338 0.00403828)
(-0.0076652 0.00250012 0.00396103)
(-0.0074359 0.00254511 0.00387027)
(-0.00718836 0.00269958 0.00377272)
(-0.00693005 0.00271498 0.00367517)
(-0.00682935 0.00308088 0.00359216)
(-0.0066516 0.00282622 0.00348988)
(-0.00648403 0.00343577 0.00349625)
(-0.00584466 0.00206468 0.00339078)
(-0.00470406 0.00319167 0.00371698)
(-0.00374264 -0.00100129 0.00345916)
(-0.00107587 0.00222803 0.0049712)
(-0.00180077 -0.00400618 0.0044418)
(-0.00205138 0.00408226 0.00619297)
(-0.00803782 -0.00542035 0.00466993)
(-0.0105562 0.00543587 0.00196288)
(-0.012289 -0.0123595 0.00550233)
(-0.0114774 0.0151997 0.00280009)
(-0.0120587 0.00600139 0.0114613)
(-0.0237129 0.0500533 0.0190632)
(-0.0068167 -0.0414127 0.0300639)
(-0.00778196 0.030505 0.0757104)
(0.100376 -0.112275 0.0577979)
(-0.0489938 0.0921925 -0.163007)
(-0.084727 -0.0511456 0.00243976)
(-0.122015 -0.0915629 0.00973496)
(-0.0424563 0.126491 -0.00533928)
(-0.0542996 0.040399 0.00644611)
(-0.00831352 0.0845908 0.00873559)
(-0.0100582 0.051184 0.0149731)
(0.0167519 0.0403474 0.0118697)
(0.0129591 0.014031 0.00877475)
(0.0208969 0.000804727 0.00636688)
(0.0252316 -0.0108865 0.00441763)
(0.0280161 -0.0210102 0.00288587)
(0.028956 -0.0284886 0.00168775)