/*--------------------------------*- C++ -*----------------------------------*\
| =========                 |                                                 |
| \\      /  F ield         | OpenFOAM: The Open Source CFD Toolbox           |
|  \\    /   O peration     | Version:  2.3.0                                 |
|   \\  /    A nd           | Web:      www.OpenFOAM.org                      |
|    \\/     M anipulation  |                                                 |
\*---------------------------------------------------------------------------*/
FoamFile
{
    version     2.0;
    format      ascii;
    class       volVectorField;
    location    "36";
    object      U.water;
}
// * * * * * * * * * * * * * * * * * * * * * * * * * * * * * * * * * * * * * //

dimensions      [0 1 -1 0 0 0 0];

internalField   nonuniform List<vector> 
6144
(
(0.0116722 0.0200137 0.00030354)
(0.0127976 -0.00626671 -0.00151856)
(0.0041672 -0.0085958 -0.00301744)
(0.00295564 -0.0064487 -0.00269961)
(0.00192687 -0.0040702 -0.00223149)
(0.00304228 -0.000906373 -0.0020119)
(0.00320321 -0.000679298 -0.00161788)
(0.00298305 9.09627e-05 -0.00113097)
(0.0022645 -0.000320553 -0.000746783)
(0.00172472 0.000948476 -0.000277688)
(0.00132043 0.00214883 0.000236858)
(0.00126856 0.00327765 0.00092536)
(0.00140206 0.00348194 0.00132158)
(0.00155257 0.00300535 0.00175015)
(0.00164488 0.00211302 0.00176974)
(0.00175302 0.00121247 0.00165403)
(0.00182563 0.000326951 0.00138406)
(0.00190475 -0.000357394 0.00111319)
(0.00197096 -0.000896772 0.000829623)
(0.00202108 -0.00119886 0.000573575)
(0.00206338 -0.00133649 0.000355229)
(0.00208939 -0.00134785 0.000225844)
(0.00209303 -0.00129035 0.000176946)
(0.00207831 -0.00119156 0.000182893)
(0.00204679 -0.00107718 0.000239137)
(0.00200113 -0.000965646 0.000349193)
(0.00194544 -0.000867687 0.00049411)
(0.00189188 -0.000797894 0.00064416)
(0.00183695 -0.000776706 0.000801271)
(0.00178202 -0.000809262 0.000952003)
(0.00172412 -0.000881098 0.001085)
(0.00166287 -0.000966888 0.00120526)
(0.0016008 -0.00105842 0.00133236)
(0.00154046 -0.00117311 0.00148246)
(0.00148622 -0.00134282 0.00166062)
(0.00144486 -0.00161183 0.00185582)
(0.0014214 -0.00199925 0.00202291)
(0.00141772 -0.00249518 0.00212444)
(0.00143458 -0.00305367 0.00213685)
(0.00148096 -0.00366659 0.00204747)
(0.00153877 -0.00422282 0.0018092)
(0.00158869 -0.00468468 0.00138692)
(0.00157203 -0.00477836 0.00104306)
(0.00160614 -0.00485288 0.00108919)
(0.00137989 -0.00605407 0.00155175)
(-5.92207e-05 -0.0067538 0.00163896)
(0.00174605 -0.00724567 -0.000565546)
(0.0080842 -0.0103933 -0.00341821)
(-0.0012053 -0.00521934 -0.00455096)
(-0.00147927 0.0194409 -0.00731589)
(0.0363815 0.0192372 -0.0205084)
(0.0598278 -0.0143942 -0.0295691)
(0.067169 -0.0331696 -0.0288174)
(0.064706 -0.083231 -0.0238825)
(0.0388016 -0.0949749 -0.0200568)
(0.0267743 -0.134908 -0.0115577)
(0.00327162 -0.102237 -0.00781516)
(0.00591116 -0.109601 0.010476)
(-0.0403129 -0.0165102 -0.0349256)
(0.0493134 0.0083849 0.0180526)
(0.159117 -0.319238 0.0148486)
(0.0979934 -0.117691 0.00119738)
(0.0407564 -0.185195 0.00235515)
(0.0402771 -0.181376 0.00761655)
(0.0361848 -0.165357 0.0110594)
(0.0341563 -0.162658 0.0132249)
(0.0315846 -0.166278 0.0153996)
(0.0273031 -0.177441 0.0168127)
(0.0195245 -0.1938 0.0187761)
(0.0114507 -0.205141 0.0196551)
(0.00674616 -0.216981 0.0163615)
(0.00102375 -0.231365 0.013064)
(0.00332102 -0.245743 0.0115533)
(0.00604116 -0.25848 0.00522608)
(0.00362255 -0.273477 -0.00211813)
(0.00553023 -0.28189 -0.00136424)
(0.0113574 -0.282148 -0.000718846)
(0.01687 -0.280104 -0.00480936)
(0.0158859 -0.279022 -0.00517313)
(0.0105425 -0.274678 -0.00442615)
(0.00465031 -0.258399 -0.00129597)
(-0.00245471 -0.233337 0.00486103)
(-0.0142423 -0.204384 -0.00114182)
(-0.0296358 -0.14694 0.002064)
(-0.0326919 -0.11563 0.0148223)
(-0.031066 -0.092944 0.0146894)
(-0.0138267 -0.0329154 -0.00102994)
(0.00992254 0.00613091 -0.008884)
(0.013812 0.0140363 -0.00856194)
(0.00973305 0.0161006 -0.00467858)
(0.00670417 0.0115065 0.00210755)
(0.00386775 0.0112412 0.00631858)
(0.00296781 0.00424287 0.00514981)
(0.00212105 0.00205129 0.00537558)
(0.0028443 0.00450819 0.00854177)
(0.0093769 0.00336864 0.0103546)
(0.0214443 0.0183232 0.00378574)
(0.0237896 0.00176397 0.0033328)
(0.00960347 -0.00368824 -0.00161319)
(0.00781866 -0.0030994 -0.00127882)
(0.004307 -0.0043979 -0.000119042)
(0.00523841 -0.00163591 0.000717767)
(0.00489406 -0.00147929 0.00173113)
(0.00457023 0.000173644 0.00229891)
(0.00333695 6.97551e-05 0.00253992)
(0.00229105 0.00195791 0.00252942)
(0.00175485 0.00333122 0.00278978)
(0.00193703 0.00439967 0.00349777)
(0.00240794 0.00445403 0.00394826)
(0.00289192 0.00399607 0.00426243)
(0.00310329 0.00305432 0.00432068)
(0.00329073 0.00211698 0.0042993)
(0.00335274 0.00113479 0.00421527)
(0.00343009 0.000358181 0.0041349)
(0.00347247 -0.000305133 0.00406123)
(0.00348172 -0.000747221 0.00400753)
(0.0035088 -0.00100884 0.00392287)
(0.00351755 -0.00111669 0.00386953)
(0.00348909 -0.00113639 0.00387121)
(0.00342831 -0.00109471 0.00391867)
(0.00333912 -0.00101952 0.00400426)
(0.00322874 -0.000932271 0.00412033)
(0.00310443 -0.000849011 0.00425286)
(0.00300148 -0.000789925 0.00434248)
(0.00291282 -0.00078186 0.00443302)
(0.00282754 -0.000818669 0.00451826)
(0.00273254 -0.000885814 0.00459761)
(0.00262856 -0.000966058 0.0046781)
(0.00252827 -0.00106549 0.00476608)
(0.00244617 -0.00120684 0.00486386)
(0.00239744 -0.00140582 0.00496945)
(0.0023903 -0.00167426 0.00507475)
(0.00241611 -0.0020132 0.0051664)
(0.00246181 -0.00242411 0.00523762)
(0.00251583 -0.00288102 0.00528958)
(0.00256995 -0.00339511 0.00531387)
(0.00254721 -0.00388287 0.00528025)
(0.00244205 -0.00437808 0.00510217)
(0.00226224 -0.0047746 0.00487862)
(0.00232699 -0.00568872 0.00485785)
(0.00227542 -0.00827083 0.00543012)
(0.000972888 -0.0134726 0.00608176)
(0.00324357 -0.0226505 0.000479889)
(0.000361517 -0.0107643 -0.0030688)
(-0.00981532 0.000879395 -0.00133551)
(-0.000208428 0.00609746 0.000270188)
(0.0581129 -0.0105508 -0.0132981)
(0.0874113 0.00940869 -0.0377582)
(0.110048 0.0390776 -0.0307148)
(0.102014 0.0306434 -0.0219907)
(0.074976 0.0359615 0.00209843)
(0.0399727 -0.0489159 0.0248798)
(-0.0498393 1.32629e-05 0.0224693)
(-0.0476828 -0.153098 0.0513751)
(-0.157104 0.0449064 -0.0348104)
(0.0511108 -0.0821666 0.0249058)
(0.20366 -0.271531 0.0362806)
(0.0665384 0.118566 0.0149641)
(-0.0331483 -0.136474 0.0183334)
(-0.0312925 -0.0680697 0.0397064)
(-0.0529809 -0.0796328 0.0447834)
(-0.049214 -0.0857084 0.0469814)
(-0.0454989 -0.1042 0.0543587)
(-0.0420014 -0.111837 0.048376)
(-0.0389866 -0.12897 0.0382407)
(-0.0325685 -0.148321 0.0291062)
(-0.0220279 -0.162571 0.0194681)
(-0.0120566 -0.18412 0.0146713)
(-0.0064566 -0.189466 -0.00184929)
(-0.00563368 -0.196359 -0.00939794)
(-0.0102079 -0.211075 -0.0108388)
(-0.0206767 -0.216301 -0.0198983)
(-0.0274461 -0.204469 -0.0318877)
(-0.0221284 -0.175162 -0.0276643)
(-0.0198416 -0.159628 0.00235491)
(-0.0328948 -0.171196 0.0262048)
(-0.0479228 -0.169628 0.0320727)
(-0.0499357 -0.164608 0.031986)
(-0.0473361 -0.157964 0.0249344)
(-0.0490747 -0.127667 0.0191988)
(-0.0455383 -0.106151 0.0178663)
(-0.0500758 -0.0994403 0.0166845)
(-0.0494837 -0.0868751 0.0123834)
(-0.0262183 -0.0637846 -0.00431342)
(0.00952601 -0.0391778 -0.0122171)
(0.0157232 -0.0262252 -0.00965851)
(0.0126629 -0.00318517 -0.00653655)
(0.0114022 0.000785275 0.003768)
(0.00663437 -0.00271622 0.00838564)
(0.00128236 -0.0134219 0.00454744)
(-0.00440351 -0.00758826 0.00685356)
(-0.0064916 -0.00863624 0.0109358)
(0.024396 0.017749 0.00471734)
(0.0275274 0.00768049 0.00478092)
(0.0152989 0.000857654 0.000698968)
(0.0113185 0.00091683 0.00141138)
(0.0044909 -0.00283436 0.00289642)
(0.00426513 0.000287503 0.00303353)
(0.00298325 -0.000508781 0.00389916)
(0.00259042 0.00131184 0.00407746)
(0.00136435 0.000858964 0.00414278)
(0.000436973 0.00219272 0.00407987)
(1.12442e-05 0.00279429 0.00411585)
(0.000631177 0.0037159 0.00446375)
(0.00124383 0.00376655 0.00477374)
(0.00186314 0.00372853 0.00500459)
(0.00216939 0.00320299 0.00501899)
(0.00243503 0.00264301 0.00499073)
(0.00251813 0.00191816 0.00492889)
(0.00261016 0.00131473 0.00488648)
(0.0026453 0.000735797 0.00485808)
(0.00262047 0.000260547 0.00486102)
(0.00255266 -0.000125178 0.00488416)
(0.00246424 -0.000380468 0.00492751)
(0.00236207 -0.000545986 0.00498)
(0.00224594 -0.000635483 0.00504079)
(0.00211748 -0.000679264 0.00510897)
(0.00198278 -0.000696099 0.00517894)
(0.00184552 -0.000712172 0.00525015)
(0.0017056 -0.000734809 0.00532648)
(0.00158021 -0.000762614 0.00540358)
(0.00144955 -0.00079863 0.00547587)
(0.0012998 -0.000838619 0.00554815)
(0.00114594 -0.000891529 0.00562728)
(0.00101289 -0.000970778 0.00571363)
(0.000912043 -0.00107718 0.00580324)
(0.00084552 -0.00120157 0.0058873)
(0.000817753 -0.00133341 0.00595478)
(0.00082752 -0.0014672 0.00600536)
(0.000872759 -0.00161656 0.00604017)
(0.000950367 -0.00177495 0.00606673)
(0.00103762 -0.00199426 0.0060781)
(0.00108873 -0.00228709 0.00606338)
(0.000945119 -0.00291701 0.00599936)
(0.000905124 -0.00400232 0.00587705)
(0.000723872 -0.00609983 0.00571566)
(0.000748915 -0.0105634 0.00638989)
(0.00122835 -0.018654 0.0077776)
(-0.000696983 -0.0274521 0.00151502)
(-0.00615505 -0.0108849 -0.00171899)
(-0.0107224 7.07855e-05 0.00436323)
(0.0128071 -0.0044408 0.00889393)
(0.0589898 -0.0119828 -0.0141521)
(0.0906275 0.0460082 -0.0339224)
(0.126673 0.0909076 -0.0242431)
(0.131174 0.13141 -0.0205801)
(0.103362 0.131792 0.0275356)
(0.0496636 0.0448226 0.0748753)
(0.0252647 0.0744738 0.104708)
(0.0235693 -0.18163 0.121293)
(-0.217488 0.114092 0.022633)
(0.0511578 -0.16495 0.0216525)
(0.201265 -0.193863 0.011159)
(0.0760146 0.169307 0.0121516)
(0.0806972 -0.0380327 0.0330056)
(-0.0410125 0.0735669 0.0576448)
(-0.0548151 -0.0547709 0.036111)
(-0.0413165 -0.0420682 0.0399026)
(-0.0386396 -0.0626769 0.0353861)
(-0.0417168 -0.0933993 0.0212984)
(-0.0337623 -0.107094 -0.00395014)
(-0.0228197 -0.0938933 -0.0188878)
(-0.0221881 -0.0740667 -0.0224458)
(-0.0137156 -0.0540877 -0.0244702)
(0.0258563 -0.0258393 -0.0226864)
(0.0333055 -0.0360386 -0.0109565)
(0.0259734 -0.0484045 -0.000485816)
(0.0290102 -0.0526797 -0.000763763)
(0.0322825 -0.061 0.00616967)
(0.0334039 -0.0715209 0.0234298)
(0.0234172 -0.0836276 0.0367278)
(-0.00122668 -0.100932 0.0428346)
(-0.0299818 -0.117178 0.0447431)
(-0.0607781 -0.121141 0.0377995)
(-0.082102 -0.105683 0.0220188)
(-0.0823327 -0.087288 0.015869)
(-0.0719852 -0.0839192 0.0200168)
(-0.0620346 -0.0852428 0.0211224)
(-0.0551658 -0.0784497 0.0122987)
(-0.0193474 -0.0653077 -0.00287625)
(0.0109147 -0.048818 -0.00181795)
(0.00996553 -0.0395424 -0.00533671)
(0.00785755 -0.0148072 -0.00229219)
(0.013332 -0.00222781 0.00522778)
(0.00977093 -0.00576572 0.0133565)
(-0.000614734 -0.0158566 0.00770191)
(-0.0103531 -0.00749869 0.00504995)
(-0.0141788 -0.00753963 0.011083)
(0.0252255 0.0184852 0.00502467)
(0.0290967 0.012786 0.00511813)
(0.0176703 0.00448209 0.000370675)
(0.0135938 0.0049343 0.000734852)
(0.00486617 -0.00111514 0.0025637)
(0.00345539 0.00144514 0.00295176)
(0.00168052 0.000230379 0.00409751)
(0.00122418 0.00180989 0.00430688)
(-9.34583e-05 0.000787755 0.00444962)
(-0.000950546 0.00152897 0.00432111)
(-0.00142372 0.00139835 0.00440239)
(-0.000895006 0.00230482 0.00476395)
(-0.000317204 0.00272612 0.00504697)
(0.000363099 0.00313924 0.00524414)
(0.000762085 0.00298115 0.00523216)
(0.00107506 0.0027125 0.00522799)
(0.00116257 0.00216949 0.00520105)
(0.00123294 0.00169895 0.00520206)
(0.00124426 0.00121128 0.00519791)
(0.00120909 0.000786991 0.00520524)
(0.00110591 0.0003889 0.00520932)
(0.000977659 6.83472e-05 0.00522664)
(0.00083279 -0.000188624 0.00525628)
(0.000677848 -0.000376228 0.00529735)
(0.000523526 -0.000504382 0.00534805)
(0.000375898 -0.000586283 0.00540534)
(0.000236371 -0.000637313 0.00546411)
(0.00010938 -0.000670756 0.00551924)
(-3.06851e-06 -0.000694793 0.00556998)
(-0.000114978 -0.000717343 0.00561709)
(-0.000233788 -0.000741892 0.00567163)
(-0.000346498 -0.000770493 0.00573595)
(-0.000440876 -0.000801682 0.00580017)
(-0.000505711 -0.000835273 0.00585178)
(-0.000538785 -0.000877361 0.00588608)
(-0.000538789 -0.000926065 0.00590027)
(-0.000503044 -0.000981568 0.00590228)
(-0.000443031 -0.00104771 0.00589531)
(-0.000359848 -0.0011013 0.00588221)
(-0.000248679 -0.00117742 0.00583466)
(-8.60141e-05 -0.00141054 0.0057273)
(0.000123672 -0.00211324 0.00546455)
(0.000473144 -0.00401311 0.00490031)
(0.00150909 -0.00826132 0.00447953)
(0.00346058 -0.0164283 0.00558406)
(0.00272052 -0.0260689 0.00616817)
(-0.00505948 -0.0289577 0.000289634)
(-0.0193757 -0.0138206 -0.00171283)
(-0.0146231 -0.0051706 0.0109473)
(0.00501519 -0.0150519 0.0177022)
(0.0342637 -0.0152298 -0.00944411)
(0.069206 0.0508008 -0.0186402)
(0.11383 0.10132 -0.026111)
(0.119671 0.176842 -0.0372749)
(0.0885807 0.234938 -0.027035)
(0.0171396 0.237112 0.0174397)
(-0.0365712 0.173177 0.0527696)
(-0.0950671 0.0478233 0.0717258)
(-0.306204 0.371703 0.0727855)
(0.0481333 -0.303671 0.0356264)
(0.175434 -0.150903 0.0113845)
(0.0485408 0.159334 -0.00650487)
(0.0423346 0.0423021 0.00867222)
(-0.0181922 0.103098 0.0143492)
(-0.0262696 0.0470274 0.00869731)
(-0.0427196 0.0519262 -0.00288132)
(-0.0228393 0.0436796 -0.0139308)
(-0.0114547 0.0461558 -0.0152428)
(-0.0016466 0.0624151 -0.0206718)
(0.00943854 0.0769703 -0.0205207)
(0.0251526 0.0764425 -0.0163075)
(0.0527751 0.0532907 -0.0103689)
(0.0731943 0.0320659 -0.000639108)
(0.0718447 0.00193501 0.013866)
(0.0431759 -0.0279137 0.0173478)
(0.0344778 -0.0364141 0.00716386)
(0.0291371 -0.0326526 0.00732233)
(0.023178 -0.0347206 0.0212295)
(0.00546177 -0.0396475 0.0403526)
(-0.0165574 -0.0403685 0.0422326)
(-0.0564392 -0.0493066 0.0328093)
(-0.0897113 -0.0419419 0.0195025)
(-0.0981521 -0.0377654 0.017311)
(-0.0941881 -0.0398705 0.0306166)
(-0.0864454 -0.0461591 0.0382071)
(-0.0787964 -0.0560221 0.0284052)
(-0.0560078 -0.0593278 0.00421085)
(-0.018943 -0.0566942 -0.0022228)
(0.00963665 -0.0403785 0.00450031)
(0.00695249 -0.025465 -0.000382519)
(-0.000466745 -0.0023214 0.00726917)
(0.00388806 -0.00474076 0.0179246)
(0.00104213 -0.00836589 0.0196983)
(-0.0104127 -0.0166906 0.007575)
(-0.0195416 -0.00666892 0.00100916)
(-0.0263408 -0.00110868 0.00834913)
(0.0248316 0.019496 0.00490061)
(0.0302338 0.0173479 0.00534236)
(0.0200265 0.0081074 0.000824192)
(0.0180534 0.00848947 0.000296089)
(0.00712739 -0.000642162 -0.000182925)
(0.00324764 0.00151575 0.000686297)
(0.000126063 -0.000842911 0.00308893)
(-4.33988e-05 0.00169037 0.00370486)
(-0.0013951 0.00039491 0.00408829)
(-0.00225896 0.000994431 0.00421972)
(-0.00321386 0.000388943 0.00435225)
(-0.00317351 0.00125315 0.00471168)
(-0.00279554 0.00188108 0.00493599)
(-0.0019893 0.00260713 0.00514032)
(-0.0014467 0.00266847 0.00509921)
(-0.00107769 0.00254374 0.00512274)
(-0.00102466 0.00210072 0.00512844)
(-0.00107526 0.00173403 0.00516574)
(-0.00117366 0.00133323 0.00517214)
(-0.00128408 0.000975055 0.00516437)
(-0.00142425 0.000607169 0.00513338)
(-0.00157047 0.000266427 0.0051065)
(-0.00171476 -3.28526e-05 0.005092)
(-0.00186853 -0.000272596 0.00508753)
(-0.00202767 -0.000454476 0.00509279)
(-0.00216924 -0.00058268 0.00510838)
(-0.0022913 -0.000669281 0.00513077)
(-0.00239111 -0.000728964 0.00515179)
(-0.00246979 -0.000765665 0.00516222)
(-0.00254638 -0.000783982 0.00517006)
(-0.00263653 -0.000796617 0.005186)
(-0.00273019 -0.000802847 0.00520849)
(-0.00280357 -0.000794412 0.0052281)
(-0.00284283 -0.000768223 0.00523612)
(-0.00284151 -0.000726345 0.00522823)
(-0.0027985 -0.000664501 0.00519975)
(-0.00272347 -0.000571271 0.00515686)
(-0.00263821 -0.000430036 0.00509618)
(-0.0025415 -0.000195058 0.00501316)
(-0.002367 7.84915e-05 0.00489845)
(-0.00199559 0.000289795 0.00471858)
(-0.00111872 1.58984e-05 0.00424533)
(0.00131744 -0.00174653 0.00337943)
(0.0054233 -0.00665038 0.00344116)
(0.00774377 -0.0155108 0.00617904)
(0.000755079 -0.022101 0.00529283)
(-0.0167946 -0.0202912 -0.00184765)
(-0.0221237 -0.0115304 -0.000189862)
(-0.0141782 -0.0125967 0.0137254)
(0.00360371 -0.0246123 0.0141841)
(0.0155857 -0.0215441 -0.00542645)
(0.0400264 0.0172022 0.00203468)
(0.0607604 0.0647435 -0.00872872)
(0.0725249 0.158864 -0.0289845)
(0.0959618 0.246847 -0.0454482)
(0.0805155 0.32385 -0.0663579)
(0.0296319 0.345674 -0.0616661)
(-0.0307649 0.286026 -0.0067971)
(-0.158211 0.45327 0.0610169)
(0.0209699 -0.338815 0.0421755)
(0.15646 -0.123093 0.00632262)
(0.0376488 0.15995 -0.00706189)
(0.0500828 0.0776424 0.00752143)
(0.0160147 0.139276 0.011579)
(-0.00218652 0.11012 0.0170623)
(-0.0075406 0.0946564 0.017202)
(-0.00966759 0.0780852 0.0189859)
(-0.0142429 0.0733708 0.0153891)
(-0.0167158 0.0794591 0.00305687)
(-0.00579546 0.100612 -0.000496662)
(0.0342889 0.101947 0.0114943)
(0.0734373 0.0920731 0.00374232)
(0.087911 0.0900087 0.00128405)
(0.0835155 0.0639558 0.0105612)
(0.0469322 0.0250327 0.0172295)
(0.0359721 0.0132487 0.0116374)
(0.0388977 0.0179364 0.00645539)
(0.0268955 0.0274803 0.0127921)
(-0.0106068 0.0254667 0.0246611)
(-0.0483068 0.0280654 0.0269979)
(-0.0737582 0.0324497 0.0196085)
(-0.087417 0.0274364 0.0198482)
(-0.0928253 0.0156494 0.0266781)
(-0.0933961 -0.00129002 0.032851)
(-0.0869729 -0.0200104 0.0303424)
(-0.0727815 -0.0371255 0.0114805)
(-0.0394639 -0.0299408 0.00697856)
(-0.00803853 -0.0258121 0.0166088)
(-0.0090778 0.00442956 0.00240494)
(-0.0135573 0.0189222 0.00414161)
(-0.0103557 0.0157408 0.0231117)
(-0.00723412 0.00496313 0.0283404)
(-0.00546985 0.00112943 0.0265864)
(-0.0145316 -0.00710102 0.00797356)
(-0.0218585 0.00463036 -0.00758254)
(-0.0240081 0.00377536 0.00592519)
(0.023419 0.0192852 0.00477266)
(0.0312813 0.0213117 0.00658747)
(0.0211849 0.0113056 0.00280962)
(0.0216944 0.0119111 0.00272119)
(0.0120496 0.000468409 -0.00146334)
(0.00512565 0.00214629 -0.00191282)
(-0.000736884 -0.00272888 0.0011952)
(-0.00179524 0.00100517 0.00238481)
(-0.00256768 -0.000531401 0.00299985)
(-0.00351989 0.000441918 0.0035254)
(-0.00448983 -0.000495672 0.00369538)
(-0.0046679 0.00043498 0.00414932)
(-0.00421833 0.00121155 0.00440482)
(-0.00311283 0.00217108 0.00485183)
(-0.002265 0.00222941 0.00503382)
(-0.00178074 0.00208962 0.00522241)
(-0.00173229 0.00163075 0.00528805)
(-0.00187124 0.00135421 0.00532593)
(-0.002026 0.00109916 0.00529976)
(-0.00217624 0.000911168 0.00523461)
(-0.00233917 0.000694966 0.00512357)
(-0.00251581 0.000457585 0.00499978)
(-0.00270696 0.000221257 0.00488336)
(-0.0028821 6.05321e-06 0.00478189)
(-0.003032 -0.000162278 0.00469589)
(-0.00314826 -0.000277398 0.00461868)
(-0.003233 -0.000354101 0.004551)
(-0.003296 -0.000402002 0.00448721)
(-0.0033527 -0.00043728 0.00442576)
(-0.00340316 -0.000463398 0.00437946)
(-0.00346181 -0.000474109 0.00435557)
(-0.00351865 -0.000457753 0.00434593)
(-0.00356175 -0.000405766 0.00433419)
(-0.00358056 -0.000316334 0.00430362)
(-0.00357948 -0.000193978 0.00424767)
(-0.00356404 -3.83967e-05 0.00416047)
(-0.00354909 0.000167559 0.00404927)
(-0.00357304 0.00046421 0.0039126)
(-0.00363136 0.000930065 0.0037531)
(-0.00361789 0.00153975 0.00361003)
(-0.00320483 0.00237587 0.00350794)
(-0.00143253 0.00307807 0.00328003)
(0.00250752 0.00363161 0.00341921)
(0.0075285 0.00293526 0.00586612)
(0.00814047 -0.000624071 0.010601)
(-0.00158232 -0.00640561 0.0111919)
(-0.0172872 -0.0118836 0.00267841)
(-0.0201586 -0.0119744 0.00084406)
(-0.0130278 -0.0167563 0.0129911)
(-0.000191357 -0.0274557 0.0140106)
(0.00372628 -0.0205715 0.0022747)
(0.0217638 -0.0112742 0.00777106)
(0.0447452 0.0177535 0.00580029)
(0.0535565 0.0637087 0.0132917)
(0.0690149 0.0949431 0.0286687)
(0.0690545 0.134068 0.0138648)
(0.0286519 0.220358 -0.0241493)
(0.111725 0.164466 -0.0254952)
(0.116696 0.48391 0.036335)
(0.0377796 -0.352296 0.0489511)
(0.128835 -0.113083 0.0195562)
(0.0221181 0.134579 -0.01355)
(0.0405794 0.073359 0.00770295)
(0.0146415 0.119804 0.018341)
(-0.011135 0.102589 0.0321704)
(-0.0278777 0.0933555 0.0332337)
(-0.0470463 0.0869305 0.0244326)
(-0.055891 0.0965524 0.0199425)
(-0.0501888 0.107686 0.0275667)
(-0.0144609 0.110672 0.0403375)
(0.0451389 0.0937053 0.038202)
(0.0810551 0.0969443 0.00430109)
(0.104627 0.105808 -0.0005536)
(0.110127 0.116163 0.00643757)
(0.0750049 0.0994207 0.0246426)
(0.0551859 0.0660313 0.0171613)
(0.0440203 0.0594492 0.0100701)
(0.032019 0.0666466 0.00822891)
(0.00370861 0.0655862 0.0121477)
(-0.0294857 0.0601146 0.0104628)
(-0.0550977 0.0573113 0.0159412)
(-0.082353 0.0461517 0.0263039)
(-0.0982861 0.0394024 0.0392361)
(-0.09531 0.0245498 0.0493735)
(-0.0794194 0.0128873 0.0447037)
(-0.050495 0.00079233 0.0188795)
(-0.0307146 0.00591083 -0.0216851)
(-0.0412088 0.0267787 -0.0173576)
(-0.0304271 0.0547148 0.015861)
(-0.0175961 0.0519203 0.0282837)
(-0.0123702 0.041387 0.0280852)
(-0.0108743 0.0330024 0.0205532)
(-0.0110446 0.0311412 0.013326)
(-0.0177922 0.0281797 0.002517)
(-0.0213102 0.0283367 -0.000508795)
(-0.0204859 0.0113278 0.00969287)
(0.0206682 0.0172718 0.00523116)
(0.0317274 0.0249607 0.00934037)
(0.0205516 0.0124832 0.00539945)
(0.0214492 0.014392 0.00601635)
(0.0148745 0.000778966 0.000834873)
(0.00805322 0.00273912 -0.00216088)
(-0.000627236 -0.00451119 0.000181672)
(-0.00301031 0.000255508 0.00145187)
(-0.00386113 -0.00105881 0.00196933)
(-0.0046276 0.000278762 0.00282575)
(-0.00605241 -0.000771388 0.0028825)
(-0.00711103 0.000128922 0.00349301)
(-0.00707485 0.000634508 0.00396189)
(-0.0056217 0.00152319 0.00492688)
(-0.00450669 0.00151784 0.00557572)
(-0.00397126 0.00146113 0.00604016)
(-0.00411643 0.0011053 0.00615973)
(-0.00456024 0.000945899 0.00612766)
(-0.00494031 0.000832775 0.00599159)
(-0.00521269 0.000814838 0.00581162)
(-0.00537809 0.000790417 0.00558521)
(-0.0055055 0.000746885 0.00535593)
(-0.00561037 0.00067384 0.00514023)
(-0.00572062 0.000585614 0.00495558)
(-0.00585235 0.000518457 0.00481662)
(-0.0059242 0.000481766 0.00468916)
(-0.00595422 0.000455793 0.00457974)
(-0.00593285 0.000440011 0.00450421)
(-0.00588194 0.000416879 0.00445793)
(-0.00584627 0.000384782 0.00443654)
(-0.00585382 0.000374172 0.00443899)
(-0.00588205 0.000418104 0.00445092)
(-0.00590862 0.000528168 0.00444951)
(-0.00590101 0.000698796 0.0044154)
(-0.0058539 0.000907555 0.00434734)
(-0.0057743 0.00113378 0.00424676)
(-0.00572659 0.00137754 0.00411927)
(-0.00579009 0.00167458 0.00397856)
(-0.00596947 0.00207885 0.00382665)
(-0.00615554 0.00253939 0.00366561)
(-0.00617529 0.00306356 0.00353492)
(-0.0052767 0.00387953 0.00339815)
(-0.00219213 0.00588882 0.00367304)
(0.00345604 0.00999122 0.00646527)
(0.00638029 0.0105069 0.0103069)
(0.0021985 0.00712513 0.0123048)
(-0.0110252 0.0001649 0.00914006)
(-0.0151902 -0.00667863 0.00722271)
(-0.00956151 -0.0150559 0.0131514)
(-0.00474677 -0.0254539 0.0145614)
(0.00569077 -0.0227803 0.00524927)
(0.0300485 -0.020961 0.00535559)
(0.0327353 0.0252905 0.0122882)
(0.03635 0.0910982 0.0499033)
(0.0398736 0.106154 0.0719628)
(0.0422545 0.0731477 0.0823041)
(-0.0326243 0.201936 0.112734)
(0.0499675 -0.187918 0.012295)
(0.209658 0.462956 0.0949381)
(0.0338729 -0.377308 0.0617751)
(0.0716134 -0.0256747 0.0395122)
(0.0167625 0.164308 0.00706207)
(0.00968359 0.154562 0.0264859)
(-0.0203669 0.179392 0.0344336)
(-0.0393701 0.163481 0.050474)
(-0.0563501 0.153395 0.0440301)
(-0.060162 0.1371 0.0443743)
(-0.0597863 0.113765 0.0390701)
(-0.0431245 0.0951258 0.0469588)
(-0.00628924 0.0686285 0.0587895)
(0.0425845 0.0290727 0.0468241)
(0.0722847 0.0383093 0.0125117)
(0.0984429 0.0737097 -0.0100673)
(0.108556 0.125182 0.00578193)
(0.0850628 0.145355 0.0144905)
(0.0625091 0.139196 0.0172299)
(0.0428119 0.127904 0.0191974)
(0.0160091 0.114516 0.0299331)
(-0.0172077 0.102646 0.0225449)
(-0.0423682 0.097072 0.0264341)
(-0.0628344 0.0952321 0.0368582)
(-0.076742 0.086524 0.0458422)
(-0.0815852 0.0704586 0.0479117)
(-0.0756438 0.049188 0.0457018)
(-0.0604104 0.0276191 0.0224836)
(-0.0533226 0.0337102 -0.0162306)
(-0.0601913 0.0696129 -0.0187687)
(-0.0499931 0.0840931 0.0115101)
(-0.0337079 0.0786277 0.0201406)
(-0.0235289 0.0556131 0.0165343)
(-0.0202259 0.0406713 0.0103272)
(-0.0153151 0.0261704 -0.000674401)
(-0.0220662 0.0243958 -0.0155635)
(-0.023025 0.0259714 -0.0212132)
(-0.0136079 0.0200077 -0.0242484)
(0.00309229 0.00662717 -0.0321281)
(0.0183198 0.0110036 0.005587)
(0.0308 0.0269792 0.0112929)
(0.0189612 0.0128081 0.00620054)
(0.020881 0.0176184 0.00602618)
(0.01555 0.00199583 0.00212324)
(0.00970204 0.00293567 -0.00118032)
(-0.00136777 -0.00556549 0.000308058)
(-0.00599045 -0.000438125 0.000619263)
(-0.0052403 -0.00222341 0.00198738)
(-0.0057706 0.000189668 0.00291313)
(-0.00648389 -0.000731517 0.00308543)
(-0.00732932 2.46361e-05 0.00401775)
(-0.00702349 -0.000467642 0.00471043)
(-0.00544103 -0.000195312 0.00602253)
(-0.0044051 -0.000381648 0.00698909)
(-0.00392965 -3.56037e-05 0.00781405)
(-0.0040234 0.000183421 0.00819073)
(-0.00436964 0.00050209 0.00826865)
(-0.00466506 0.000729195 0.00815008)
(-0.00488792 0.000992517 0.00793591)
(-0.00504978 0.00119388 0.0076445)
(-0.00517306 0.00130519 0.00734411)
(-0.00526886 0.00135023 0.00706885)
(-0.00535268 0.00135696 0.00682722)
(-0.00543696 0.00133368 0.00662182)
(-0.00547776 0.00130049 0.00645244)
(-0.00547763 0.00127234 0.00631382)
(-0.00543021 0.00124293 0.0062109)
(-0.00535287 0.00120151 0.0061347)
(-0.00529078 0.0011626 0.00608665)
(-0.00529044 0.00116718 0.00605244)
(-0.00533327 0.00124858 0.00600907)
(-0.00539222 0.00139828 0.00593524)
(-0.00539935 0.00159563 0.0058293)
(-0.00536146 0.00181559 0.0056924)
(-0.00529527 0.00203085 0.00553152)
(-0.00526394 0.00222377 0.00536554)
(-0.00534862 0.00241238 0.00519768)
(-0.00553425 0.00264706 0.00501602)
(-0.00567283 0.00286632 0.00483549)
(-0.00568411 0.00307192 0.00475101)
(-0.00534451 0.0034096 0.00515437)
(-0.00443942 0.00517809 0.00596943)
(-0.00123306 0.0091195 0.00690697)
(0.00301369 0.0161385 0.00833946)
(0.00238042 0.0178969 0.00817618)
(-0.00273964 0.0154692 0.00862854)
(-0.00512177 0.00645621 0.0112607)
(-0.00214748 -0.00664436 0.0150586)
(-0.00310206 -0.0165247 0.0182542)
(0.00320155 -0.0143176 0.0218956)
(-0.00381945 0.0266693 0.0235732)
(-0.0346427 0.0852031 0.0331558)
(-0.0272458 0.116743 0.0806668)
(-0.00841118 0.126064 0.0946063)
(0.0231112 0.0750037 0.0949947)
(0.0738933 0.205048 0.14588)
(0.0906871 -0.292981 -0.041864)
(0.238988 0.375347 0.032906)
(0.00191856 -0.348677 0.06658)
(-0.00514844 -0.0617429 0.108851)
(-0.018366 0.157037 -0.0034878)
(-0.0362988 0.153734 0.0107934)
(-0.0371044 0.17301 0.0188126)
(-0.0462194 0.161705 0.0360223)
(-0.0463517 0.138832 0.0300585)
(-0.0487586 0.106751 0.0202826)
(-0.0303868 0.0682651 0.0165448)
(-0.00262742 0.033075 0.0284853)
(0.0368169 -0.02546 0.0326706)
(0.0585149 -0.0342793 0.0288477)
(0.056132 -0.0154055 0.0153516)
(0.0478101 0.0209039 -0.021479)
(0.061409 0.0918665 -0.00726844)
(0.0731 0.153042 0.021107)
(0.0574642 0.168114 0.033674)
(0.0479788 0.177841 0.036672)
(0.0300352 0.165843 0.0482651)
(0.00170353 0.145362 0.0426242)
(-0.0245169 0.126737 0.0437997)
(-0.0462758 0.111042 0.0468007)
(-0.0625455 0.0847229 0.0418433)
(-0.0705261 0.0667297 0.0221233)
(-0.0709217 0.0579212 -0.00583604)
(-0.0745507 0.0706058 -0.0303519)
(-0.0742598 0.0894591 -0.0312685)
(-0.0622385 0.0934386 -0.0112819)
(-0.0496161 0.0949526 -0.00309507)
(-0.0155007 0.0774016 0.00418132)
(0.0225587 0.080093 0.0188109)
(0.0364648 0.0460752 0.0306512)
(0.0413544 0.015998 0.0327348)
(0.029624 -0.00543736 0.0192874)
(0.0249739 -0.0207272 0.00764673)
(0.021384 -0.0166015 -0.0014761)
(0.0270328 -0.0135639 -0.0394862)
(0.0108274 0.00289775 0.00303022)
(0.0280407 0.0274389 0.0110981)
(0.0167083 0.0125363 0.00439551)
(0.0200581 0.0214748 0.00274561)
(0.0168232 0.00512617 0.000632091)
(0.0119726 0.00385656 -0.00105538)
(-0.00188946 -0.00597081 -0.00460914)
(-0.00599039 -0.000192509 -0.00403192)
(-0.00800967 -0.00266515 -0.00190871)
(-0.00819638 0.00036893 -0.000435935)
(-0.00877395 -0.000774818 2.77806e-05)
(-0.00938117 -0.000259911 0.00112939)
(-0.00922718 -0.00140104 0.00186441)
(-0.00833808 -0.00131126 0.00287102)
(-0.00790725 -0.00139491 0.00364241)
(-0.00794687 -0.000803871 0.00443406)
(-0.00830059 -0.000296551 0.00505428)
(-0.00875432 0.000257598 0.005437)
(-0.00915722 0.000673414 0.00557321)
(-0.00945604 0.00106488 0.00553464)
(-0.00945713 0.00135251 0.00537707)
(-0.00937849 0.00154111 0.00519598)
(-0.00929468 0.00165527 0.0050253)
(-0.00921452 0.0017157 0.00487183)
(-0.00913772 0.0017312 0.00473553)
(-0.00903578 0.00172056 0.00461565)
(-0.00891324 0.00170439 0.00450943)
(-0.00875972 0.00169187 0.00441945)
(-0.0085946 0.00168663 0.00433914)
(-0.00850774 0.00169036 0.00427123)
(-0.00852414 0.00173352 0.00420949)
(-0.00856664 0.00183713 0.00414497)
(-0.00859424 0.00198649 0.00405556)
(-0.00855337 0.00216458 0.00392455)
(-0.00844546 0.00235557 0.0037634)
(-0.00827531 0.00255521 0.00357937)
(-0.00813572 0.00276806 0.00340068)
(-0.00816858 0.00299383 0.00324256)
(-0.00832958 0.0032238 0.00308418)
(-0.00841884 0.00340022 0.00289804)
(-0.00852505 0.00356642 0.0027144)
(-0.0088451 0.00379548 0.00264997)
(-0.00908167 0.00461341 0.00286961)
(-0.00821497 0.00569685 0.00367461)
(-0.00556197 0.00892247 0.00357922)
(-0.00400026 0.0115966 0.00126829)
(-0.00519843 0.0124339 0.000929916)
(-0.000927406 0.00865876 0.00373861)
(0.00448791 0.000402128 0.0069344)
(-0.007022 -0.012948 0.0137375)
(-0.0284335 -0.0148315 0.0233993)
(-0.0641725 0.0220295 0.0252838)
(-0.0834719 0.0586556 0.0184502)
(-0.064996 0.0798344 0.0469019)
(-0.0421819 0.0883172 0.0525547)
(-0.00250933 0.0394091 0.0423627)
(0.120641 0.1851 0.072495)
(0.101111 -0.243886 -0.00214153)
(0.260314 0.466109 -0.00884745)
(0.0183486 -0.350733 0.051012)
(-0.0774877 -0.0783037 0.0740553)
(-0.0609127 0.15 -0.00398355)
(-0.0557717 0.124069 0.0114029)
(-0.039521 0.138041 0.0227331)
(-0.0430933 0.113651 0.042734)
(-0.0267704 0.0617335 0.024027)
(-0.00682561 0.0396402 0.0222049)
(0.0083242 -0.0212721 0.0170473)
(0.0321074 -0.0447055 0.0198994)
(0.056117 -0.0661158 0.0233901)
(0.0621608 -0.0711471 0.00842784)
(0.0577842 -0.0581829 -0.0135914)
(0.0469107 -0.0215116 -0.0386431)
(0.0339382 0.0190178 -0.0240318)
(0.035474 0.0743782 0.0165106)