/*--------------------------------*- C++ -*----------------------------------*\
| =========                 |                                                 |
| \\      /  F ield         | OpenFOAM: The Open Source CFD Toolbox           |
|  \\    /   O peration     | Version:  2.3.0                                 |
|   \\  /    A nd           | Web:      www.OpenFOAM.org                      |
|    \\/     M anipulation  |                                                 |
\*---------------------------------------------------------------------------*/
FoamFile
{
    version     2.0;
    format      ascii;
    class       volVectorField;
    location    "36";
    object      U.waterMean;
}
// * * * * * * * * * * * * * * * * * * * * * * * * * * * * * * * * * * * * * //

dimensions      [0 1 -1 0 0 0 0];

internalField   nonuniform List<vector> 
6144
(
(0.00877816 0.019065 -0.00103656)
(0.00886076 0.00103763 -0.00157211)
(0.00459942 -0.000439412 -0.00236398)
(0.0044954 -0.00230311 -0.00233937)
(0.00295685 -0.00306701 -0.0019474)
(0.00293039 -0.00209067 -0.00173214)
(0.00237417 -0.00192193 -0.00138543)
(0.0024269 -0.000689163 -0.00115338)
(0.00223144 2.9188e-05 -0.00110583)
(0.00216323 0.00142788 -0.000757288)
(0.00214127 0.00224116 -0.000504297)
(0.00229813 0.00265641 -0.000199007)
(0.00245183 0.00240547 -0.00010164)
(0.00258772 0.00191924 -2.46223e-05)
(0.00264599 0.00126951 -0.000188911)
(0.00270817 0.000759435 -0.00032297)
(0.00273743 0.000295792 -0.000522154)
(0.00277358 7.81223e-06 -0.00066441)
(0.00279818 -0.000230804 -0.000805161)
(0.00281322 -0.000353999 -0.000888497)
(0.00281874 -0.000444315 -0.000945972)
(0.00281808 -0.000475126 -0.000972511)
(0.00281125 -0.000489714 -0.000980897)
(0.00280072 -0.000484271 -0.000972481)
(0.0027861 -0.000472065 -0.000952482)
(0.00276968 -0.000457097 -0.000923282)
(0.0027519 -0.000443211 -0.000887627)
(0.0027333 -0.000435517 -0.000843471)
(0.00271428 -0.000429812 -0.000794896)
(0.00269568 -0.000436817 -0.000749472)
(0.00267922 -0.000432441 -0.000705189)
(0.00266071 -0.000469077 -0.000671306)
(0.00264772 -0.00043353 -0.00063373)
(0.00262447 -0.000520594 -0.000615445)
(0.00261993 -0.000386363 -0.000570417)
(0.00258796 -0.000600789 -0.000560724)
(0.00259063 -0.000276922 -0.00049148)
(0.00255034 -0.000762397 -0.00048425)
(0.00255467 -0.000117339 -0.000380301)
(0.00251467 -0.00108617 -0.000375561)
(0.00251815 5.31187e-05 -0.000251951)
(0.00250183 -0.00166389 -0.000255389)
(0.00249415 0.000195639 -0.000162366)
(0.00255345 -0.00257329 -0.000213982)
(0.00247123 0.000410003 -0.00024628)
(0.00260324 -0.00367628 -0.000395182)
(0.0024165 0.00129215 -0.00070758)
(0.00250394 -0.00418493 -0.000753315)
(0.00244213 0.00371641 -0.0011447)
(0.0025326 -0.00416699 -0.00119943)
(0.0038583 0.00838312 -0.00183738)
(0.0036365 -0.00932215 -0.00244604)
(0.0046252 0.0139123 -0.0042901)
(0.00464524 -0.0113141 -0.00590067)
(0.00773649 0.0365623 -0.00774904)
(0.00578624 -0.0330108 -0.011672)
(0.0164099 0.0621205 -0.00365687)
(0.00992037 -0.0688037 -0.018996)
(-0.0445959 0.0935714 -0.0880909)
(0.0279191 -0.10272 -0.123182)
(0.110472 -0.239306 -0.0136788)
(0.0722811 -0.0676715 -0.00555099)
(0.030188 -0.148573 -0.00453313)
(0.0302074 -0.142067 -0.0018342)
(0.0238662 -0.148303 -0.000366896)
(0.0163001 -0.146084 0.00157753)
(0.0116092 -0.153451 0.00234655)
(0.00842435 -0.150586 0.0018046)
(0.00645979 -0.15104 0.00103427)
(0.00481096 -0.145881 0.000480295)
(0.00350725 -0.143083 -7.57616e-05)
(0.00252838 -0.136758 -0.000472178)
(0.0018985 -0.132172 -0.00077416)
(0.00157959 -0.125986 -0.000948084)
(0.00142444 -0.121254 -0.00101063)
(0.00138119 -0.116202 -0.00101395)
(0.00133896 -0.112099 -0.00100764)
(0.00131688 -0.108204 -0.00101927)
(0.00136199 -0.104904 -0.00106263)
(0.00147101 -0.101837 -0.0011637)
(0.00158208 -0.098802 -0.00126912)
(0.00163226 -0.0955448 -0.00138604)
(0.00154345 -0.0919755 -0.00149112)
(0.00133744 -0.0879026 -0.00157723)
(0.000968102 -0.083373 -0.00166059)
(0.000541882 -0.078196 -0.00169574)
(-1.84401e-06 -0.0723418 -0.00178516)
(-0.000672763 -0.0653924 -0.00186268)
(-0.00155951 -0.057153 -0.00201403)
(-0.00220854 -0.0470291 -0.00189654)
(-0.00179338 -0.0366683 -0.00201888)
(-0.00131225 -0.0264933 -0.00374187)
(-0.00160057 -0.0148779 -0.00409437)
(-0.00270104 -0.00376024 -0.00151232)
(-0.00251802 0.00389315 0.00542951)
(-0.00191906 0.00330475 0.0108841)
(0.0179696 0.0219653 0.00253234)
(0.0185942 0.00943747 0.00215942)
(0.01079 0.00652072 -5.26537e-05)
(0.0107457 0.00410371 0.000757571)
(0.00653812 0.000848921 0.00118811)
(0.00621905 0.000672837 0.00163567)
(0.00423192 -0.000694923 0.00212225)
(0.00401997 0.000562947 0.00190073)
(0.00351051 0.00131806 0.00166965)
(0.00359941 0.00296154 0.00180746)
(0.00382217 0.00357471 0.00201845)
(0.00437664 0.00387581 0.00242501)
(0.00473978 0.00340449 0.00257309)
(0.00507598 0.00287986 0.00267436)
(0.00515987 0.00210607 0.00259564)
(0.00526713 0.00151013 0.00253857)
(0.00526899 0.000927885 0.00243468)
(0.00531386 0.00055606 0.00235942)
(0.00533028 0.000232413 0.00226891)
(0.00534424 5.10231e-05 0.00221398)
(0.00533798 -8.97485e-05 0.0021774)
(0.00532149 -0.000154799 0.00217161)
(0.00529405 -0.000195556 0.00218325)
(0.0052595 -0.000206354 0.00221301)
(0.00521907 -0.000205445 0.00225341)
(0.00517568 -0.00019787 0.00230249)
(0.00513031 -0.000188757 0.00235703)
(0.00508429 -0.000184116 0.00241423)
(0.00503902 -0.00017857 0.00247114)
(0.00499519 -0.000185413 0.00252079)
(0.00496048 -0.000180633 0.0025675)
(0.00491488 -0.000216658 0.00260499)
(0.00488934 -0.000177779 0.00264797)
(0.00482807 -0.00027005 0.0026738)
(0.00482625 -0.000125537 0.0027225)
(0.004741 -0.000370026 0.00273748)
(0.00477138 -7.52262e-06 0.00280358)
(0.00465744 -0.000577047 0.0028072)
(0.00472702 0.000172809 0.00289871)
(0.00459438 -0.000973401 0.00289059)
(0.00470696 0.000398967 0.0030035)
(0.00458311 -0.00163961 0.00298544)
(0.0047255 0.000686364 0.00309176)
(0.00465432 -0.00263401 0.00305768)
(0.00472522 0.00114661 0.00307966)
(0.00469993 -0.00390294 0.00295504)
(0.00451957 0.0021444 0.00263768)
(0.00443383 -0.00484901 0.00248156)
(0.00403301 0.00419238 0.00175879)
(0.00409543 -0.00508467 0.00206864)
(0.00667107 0.00730193 0.000913174)
(0.00653203 -0.00820403 3.58246e-05)
(0.00559997 0.0150134 -0.00102727)
(0.00483824 -0.00892056 -0.00104959)
(0.0207817 0.0369426 0.00265824)
(0.0306784 -0.0429819 -0.00113353)
(-0.0151471 0.0289371 0.00380646)
(-0.0138911 -0.0213107 -0.0163342)
(0.0168276 0.159776 -0.0256334)
(0.154712 -0.128362 -0.0702121)
(0.16087 -0.217555 -0.00249627)
(0.0551837 0.0782067 0.0078729)
(-0.011903 -0.114128 0.00289392)
(0.00054164 -0.0609463 0.00765594)
(-0.00326569 -0.088295 0.00855574)
(-0.00881505 -0.0971803 0.00925629)
(-0.0100493 -0.107945 0.00819069)
(-0.0102322 -0.108674 0.00710221)
(-0.00961744 -0.113512 0.0058427)
(-0.00928095 -0.112007 0.00476327)
(-0.00868569 -0.112367 0.00382423)
(-0.00807752 -0.108617 0.00305503)
(-0.0071453 -0.10621 0.00239298)
(-0.00613374 -0.101943 0.00182829)
(-0.00505334 -0.0989269 0.00135206)
(-0.00403535 -0.0953494 0.000999223)
(-0.00279986 -0.0924091 0.000769551)
(-0.00160211 -0.0892152 0.000667565)
(-0.000891385 -0.0861436 0.00061475)
(-0.000722997 -0.0830439 0.000574346)
(-0.000863949 -0.0798478 0.000566724)
(-0.00112894 -0.0764788 0.000594645)
(-0.00140954 -0.0729976 0.000646437)
(-0.00169391 -0.0694455 0.000747598)
(-0.00213393 -0.0659225 0.000891237)
(-0.00282994 -0.0623738 0.00104905)
(-0.00383644 -0.0586269 0.00111139)
(-0.00513935 -0.054326 0.00100251)
(-0.00683648 -0.0491718 0.000492475)
(-0.00816828 -0.0422738 0.000242773)
(-0.00820115 -0.0343005 0.000141167)
(-0.00766816 -0.0255494 -0.00131493)
(-0.00799382 -0.0151154 -0.00169038)
(-0.00895508 -0.00485767 0.00144473)
(-0.0100426 0.00220138 0.0092635)
(-0.00871973 0.00210445 0.0157752)
(0.0215286 0.0226526 0.00364484)
(0.0229656 0.0139314 0.00360039)
(0.0143584 0.0102975 0.00134679)
(0.0143371 0.0089954 0.00230964)
(0.00834989 0.00438009 0.00255588)
(0.00734863 0.00357306 0.00298449)
(0.0038665 0.000852993 0.00352936)
(0.0032583 0.00166862 0.00329784)
(0.00237612 0.00200934 0.00305096)
(0.00278886 0.00344258 0.00317311)
(0.00321955 0.00366403 0.00332081)
(0.00411967 0.00392191 0.00365313)
(0.0045703 0.00345043 0.00377901)
(0.00501517 0.00311889 0.00387507)
(0.00512082 0.00245227 0.0038251)
(0.00524571 0.00195706 0.00380782)
(0.0051881 0.00139508 0.0037622)
(0.00518983 0.00102358 0.00375577)
(0.00512428 0.000668206 0.00374736)
(0.00507835 0.000451592 0.00376182)
(0.00500995 0.000268796 0.00378004)
(0.00494698 0.000165764 0.00381055)
(0.00487976 9.11914e-05 0.00384382)
(0.00481537 5.41345e-05 0.00388378)
(0.00475093 3.52689e-05 0.00392538)
(0.00468856 2.9533e-05 0.00396859)
(0.00462791 3.07344e-05 0.00401228)
(0.00456872 3.04833e-05 0.00405656)
(0.004511 3.24047e-05 0.00410065)
(0.00445323 2.7336e-05 0.00414465)
(0.00440205 3.03945e-05 0.00418861)
(0.00433644 8.48452e-06 0.0042279)
(0.00429309 3.99471e-05 0.00427052)
(0.00420732 -3.71157e-05 0.00430343)
(0.00419534 7.89439e-05 0.004352)
(0.00407689 -0.000145289 0.00437618)
(0.00411861 0.00016876 0.00443438)
(0.00395227 -0.000363397 0.00444695)
(0.00407095 0.000339074 0.00451875)
(0.00385093 -0.000728836 0.00451242)
(0.00407137 0.000633777 0.00459436)
(0.00379934 -0.00127192 0.00455855)
(0.0041509 0.00111409 0.00464613)
(0.0038736 -0.00203779 0.00457387)
(0.0042681 0.00186238 0.00464218)
(0.00400125 -0.00319359 0.00453058)
(0.0040784 0.0029067 0.0044115)
(0.00373942 -0.00465561 0.00429335)
(0.0032862 0.00444743 0.00356995)
(0.00380517 -0.0058175 0.00411586)
(0.00585866 0.00636639 0.0027786)
(0.00592227 -0.00607791 0.00219279)
(0.00449896 0.0177497 0.00223542)
(0.00422095 -0.0182377 0.00419013)
(0.0298474 0.0218733 0.00732855)
(0.0425799 -0.0542944 0.00363899)
(-0.0408494 0.0519 0.0210505)
(-0.0605193 -0.109043 -0.00411185)
(-0.0422349 0.153314 -0.0571028)
(0.154585 -0.141638 -0.0441941)
(0.18064 -0.181639 0.00062673)
(0.0756995 0.122472 0.00719082)
(0.0676668 -0.10052 0.00782749)
(0.0334222 -0.0270782 0.0125109)
(0.0136531 -0.0612974 0.0121852)
(0.00583208 -0.0670568 0.0113613)
(0.00119171 -0.0755531 0.00913962)
(-0.00330853 -0.0757844 0.0071164)
(-0.00560769 -0.0797396 0.00501793)
(-0.00733163 -0.0773169 0.0032565)
(-0.00796579 -0.0768564 0.00173718)
(-0.0079012 -0.0725928 0.000482267)
(-0.00684784 -0.0698826 -0.000657486)
(-0.00558714 -0.0648121 -0.00158471)
(-0.0044801 -0.0608859 -0.00185172)
(-0.00384299 -0.0562442 -0.00188409)
(-0.00339746 -0.0518396 -0.00164307)
(-0.00294572 -0.0468146 -0.00119427)
(-0.00227015 -0.0430032 -0.00057669)
(-0.00166467 -0.0405091 0.000332271)
(-0.00135237 -0.0393968 0.0012619)
(-0.00133906 -0.039221 0.0020336)
(-0.00157606 -0.0395369 0.00261407)
(-0.00202913 -0.0399185 0.00305102)
(-0.00277236 -0.0401527 0.0033172)
(-0.0038042 -0.0400871 0.00342861)
(-0.00526552 -0.0395134 0.00340305)
(-0.00717003 -0.0382663 0.00302488)
(-0.00973966 -0.035849 0.00199696)
(-0.0121673 -0.0319802 0.000830961)
(-0.0129702 -0.026528 0.000252205)
(-0.012989 -0.0203392 -0.000687953)
(-0.0143377 -0.0118724 -0.000408821)
(-0.0170354 -0.00373018 0.00318624)
(-0.0194213 0.00213347 0.0108701)
(-0.0206466 0.00123889 0.0172885)
(0.0231862 0.0229487 0.00374548)
(0.0261692 0.0166837 0.00414476)
(0.0163244 0.0118804 0.0011715)
(0.0175712 0.0122077 0.00165884)
(0.0107639 0.00673259 0.00158629)
(0.00981656 0.00618426 0.0022878)
(0.00422196 0.00154203 0.00310348)
(0.00273835 0.00181006 0.00301135)
(0.00116346 0.00128431 0.00300788)
(0.00186531 0.00298852 0.00324272)
(0.0023452 0.00302257 0.00351346)
(0.00327431 0.00351321 0.0039991)
(0.00369439 0.00322701 0.00416825)
(0.00416291 0.00314371 0.00428683)
(0.00425735 0.00259086 0.00422327)
(0.00438141 0.00220302 0.00421228)
(0.0042881 0.0016663 0.00417952)
(0.00427158 0.00132687 0.00418952)
(0.0041744 0.000960925 0.00419032)
(0.00410504 0.000725315 0.00421172)
(0.00401078 0.000509776 0.00423489)
(0.00392705 0.00037714 0.0042702)
(0.00383613 0.000275434 0.00430531)
(0.00374833 0.000216978 0.00434444)
(0.00366429 0.000179989 0.00438564)
(0.00358657 0.000162848 0.00442855)
(0.00351379 0.000156712 0.00447152)
(0.00344529 0.00015456 0.00451433)
(0.00338019 0.000157577 0.00455599)
(0.00331798 0.000157784 0.00459603)
(0.00326102 0.000166024 0.00463494)
(0.00319601 0.000155105 0.00467058)
(0.00315052 0.000184264 0.00471091)
(0.00307145 0.000123225 0.00474081)
(0.00305866 0.000225122 0.00478453)
(0.00294766 2.65901e-05 0.00480432)
(0.00299791 0.000318598 0.00485374)
(0.00283247 -0.000166714 0.0048559)
(0.0029792 0.000511089 0.00491239)
(0.00274268 -0.000477963 0.00488889)
(0.00301476 0.000856376 0.0049527)
(0.0027021 -0.000919556 0.0048944)
(0.00312705 0.0014195 0.00497314)
(0.0027847 -0.00152549 0.00487167)
(0.00337734 0.00227585 0.00499269)
(0.00295477 -0.00245765 0.00481638)
(0.0035025 0.00336051 0.00484644)
(0.0028399 -0.00387955 0.00461837)
(0.00289864 0.00443172 0.00424407)
(0.00317813 -0.00617836 0.00460365)
(0.00391929 0.00651866 0.00356942)
(0.00337622 -0.00674378 0.00341528)
(0.00777022 0.0149627 0.00472459)
(0.0102942 -0.0250567 0.00525237)
(0.0317831 0.0114867 0.0130942)
(0.0304872 -0.0426425 0.00905012)
(-0.0116914 0.0739908 0.0225439)
(-0.073244 -0.128768 0.0151889)
(-0.0388878 0.188062 -0.103209)
(0.165133 -0.190749 -0.0265533)
(0.194313 -0.161245 0.00158862)
(0.074228 0.117264 -0.000808477)
(0.0784137 -0.0341265 0.00673532)
(0.000770097 0.0491036 0.0118879)
(-0.000301838 -0.0215076 0.0146796)
(-0.00376824 -0.0152747 0.00987429)
(-0.00624035 -0.0293699 0.00521273)
(-0.00860735 -0.0301235 0.00145236)
(-0.00897582 -0.0326682 -0.00136693)
(-0.00907001 -0.0278125 -0.00339448)
(-0.0088476 -0.0247171 -0.00493347)
(-0.0084128 -0.0166039 -0.00584093)
(-0.00740006 -0.0088926 -0.0058238)
(-0.00629013 -0.000297917 -0.00430551)
(-0.00533433 0.00519648 -0.00266926)
(-0.00437384 0.00922305 -0.0010924)
(-0.0032104 0.0110841 0.000228439)
(-0.00174715 0.0114535 0.00130355)
(-0.000342976 0.0103298 0.00220471)
(0.000393528 0.00771857 0.00317142)
(0.000495706 0.00424892 0.00401258)
(2.59301e-05 0.00019678 0.00463918)
(-0.000839598 -0.00398253 0.0049971)
(-0.00203037 -0.00807822 0.0051822)
(-0.00353397 -0.0118179 0.00516366)
(-0.00536614 -0.0150222 0.00498283)
(-0.0076373 -0.0174926 0.00449935)
(-0.0103065 -0.0190805 0.00343547)
(-0.013045 -0.0194078 0.00191564)
(-0.0151168 -0.0184924 0.000679643)
(-0.0161768 -0.0160599 0.000310304)
(-0.0172779 -0.0123174 0.000214813)
(-0.0197248 -0.00674077 0.000994019)
(-0.0230114 -0.00127019 0.00476391)
(-0.0266416 0.0026298 0.0119315)
(-0.0286581 0.000893283 0.0179349)
(0.0234223 0.0230518 0.00439033)
(0.0283273 0.0192181 0.00504949)
(0.0175562 0.0124839 0.00116005)
(0.0201233 0.0141343 0.00152495)
(0.0131509 0.00748485 0.0004935)
(0.0129705 0.00820917 0.00104017)
(0.00609052 0.00261364 0.00131488)
(0.0034523 0.0027512 0.00189902)
(0.000125802 0.000248668 0.00232642)
(0.000336978 0.00188925 0.00284234)
(0.000773255 0.00177264 0.00326198)
(0.00157027 0.00271963 0.00398166)
(0.00188227 0.00271752 0.00419702)
(0.00236094 0.00293013 0.00435533)
(0.0024655 0.00251464 0.0042673)
(0.00254939 0.0022217 0.00426726)
(0.00235325 0.00172096 0.00423169)
(0.00224095 0.00143252 0.00425223)
(0.00206281 0.00108861 0.00424803)
(0.00193591 0.00086997 0.00425952)
(0.00179078 0.000648214 0.00426248)
(0.00167131 0.000502129 0.00427555)
(0.0015567 0.000377791 0.00429055)
(0.00145526 0.000299068 0.00431308)
(0.00136236 0.000246496 0.00433768)
(0.00128086 0.000219218 0.00436529)
(0.00120922 0.000205438 0.00439361)
(0.00114535 0.000200606 0.00442147)
(0.00108792 0.000202376 0.00444801)
(0.00103522 0.000203965 0.00447094)
(0.000986586 0.000213971 0.00448979)
(0.000933616 0.000208954 0.00450434)
(0.000894119 0.000238337 0.00452265)
(0.000827649 0.00018967 0.00452991)
(0.000820285 0.000286699 0.00455556)
(0.0007242 0.000110161 0.00455122)
(0.000779639 0.000394561 0.00458497)
(0.000627039 -4.67308e-05 0.00455807)
(0.000778745 0.00061935 0.00459793)
(0.000549137 -0.000288247 0.00454245)
(0.000822038 0.00101629 0.00458744)
(0.00051395 -0.000616444 0.00449776)
(0.000934738 0.0016495 0.00455543)
(0.000608047 -0.00101697 0.00443667)
(0.00120853 0.00258464 0.00453804)
(0.000882528 -0.00154321 0.00438581)
(0.00148701 0.00372305 0.00445621)
(0.00118027 -0.00265148 0.00424504)
(0.00165314 0.00459121 0.00394319)
(0.00169455 -0.00539606 0.00381385)
(0.00234235 0.00675974 0.00269067)
(0.00213152 -0.00792926 0.00446625)
(0.0104437 0.0103793 0.00815676)
(0.0127184 -0.0241026 0.0127281)
(0.0257696 0.0149575 0.031314)
(0.016856 -0.0467616 0.0306101)
(-0.00233822 0.0517331 0.0579725)
(-0.0969851 -0.129559 0.0471504)
(-0.00178281 0.153683 -0.162828)
(0.118342 -0.24022 -0.00988218)
(0.174461 -0.115014 0.00387611)
(0.0657702 0.119077 -0.00621622)
(0.0757975 0.0321553 0.0049147)
(0.0262647 0.0795527 0.00545356)
(0.0266759 0.0322657 0.0064125)
(0.00850684 0.0374063 0.00158998)
(0.00414406 0.0292024 -0.00224112)
(-1.10285e-05 0.0339135 -0.00439598)
(-0.00203506 0.0367152 -0.00615256)
(-0.00417511 0.0458477 -0.00661628)
(-0.00552381 0.0518353 -0.00600995)
(-0.00636971 0.060079 -0.00432596)
(-0.00607565 0.0646799 -0.00227573)
(-0.00527047 0.0685162 -0.000105264)
(-0.00403345 0.0695992 0.00162977)
(-0.00261499 0.069651 0.00313827)
(-0.000909418 0.0673663 0.00439812)
(0.00077209 0.0636852 0.00531011)
(0.00217903 0.0588824 0.00606168)
(0.00289044 0.0527187 0.00666658)
(0.00291987 0.0459775 0.00705732)
(0.00245096 0.0387505 0.00717564)
(0.00159043 0.0315856 0.00697139)
(0.00039052 0.0244141 0.00667571)
(-0.00124112 0.0175014 0.00630035)
(-0.00328044 0.0109889 0.00582503)
(-0.00569057 0.00527108 0.0048646)
(-0.00831636 0.00069229 0.00346206)
(-0.0111795 -0.00222083 0.00207245)
(-0.0139693 -0.00347263 0.00144148)
(-0.0164469 -0.00337632 0.00158398)
(-0.0190929 -0.00219087 0.00187562)
(-0.0230587 0.000258688 0.00277231)
(-0.0280271 0.00274867 0.00616207)
(-0.033977 0.0044167 0.0120117)
(-0.0400563 0.0011274 0.0170341)
(0.0216838 0.0228669 0.00674729)
(0.029423 0.0218309 0.00641893)
(0.0176296 0.0127783 0.00180927)
(0.0215988 0.0158232 0.002644)
(0.0146292 0.00681912 0.000557218)
(0.0151355 0.008952 0.000595072)
(0.00839997 0.00265933 -0.000167299)
(0.00542749 0.00379919 0.000589191)
(0.000731145 -0.000122522 0.00148049)
(-0.000444839 0.000911157 0.00221618)
(-0.00059731 4.97164e-05 0.00274347)
(8.46125e-05 0.00137584 0.00373001)
(0.000537159 0.00171519 0.00409588)
(0.00116245 0.00235297 0.0044384)
(0.00138612 0.00208614 0.00446748)
(0.00149002 0.00194251 0.0045497)
(0.00122889 0.00150725 0.00451524)
(0.00105143 0.00132482 0.00453171)
(0.000819936 0.00106445 0.0044934)
(0.000659371 0.000931575 0.00446522)
(0.000493858 0.000766733 0.00441777)
(0.000363642 0.000662123 0.00437841)
(0.000243106 0.000560172 0.00433915)
(0.000141408 0.000492653 0.00430773)
(5.5578e-05 0.000442713 0.00427985)
(-1.18693e-05 0.000416218 0.00425855)
(-6.54491e-05 0.000402693 0.00424182)
(-0.000108696 0.000401163 0.0042274)
(-0.000144152 0.0004069 0.0042139)
(-0.000175107 0.000413202 0.00419941)
(-0.000202836 0.000425292 0.00418512)
(-0.000234608 0.000422004 0.00417009)
(-0.000253431 0.000450436 0.00416217)
(-0.000295661 0.000409265 0.00414509)
(-0.000280684 0.000507812 0.00415167)
(-0.000356462 0.000359867 0.00411998)
(-0.000278933 0.000646467 0.00414511)
(-0.000413542 0.000262086 0.0040864)
(-0.000236904 0.000908899 0.00413551)
(-0.000441672 9.14847e-05 0.00404515)
(-0.000160944 0.00132947 0.00410964)
(-0.000419256 -0.00015648 0.00398659)
(-6.61989e-05 0.00196682 0.00405291)
(-0.00026259 -0.000431896 0.00393697)
(0.000107042 0.00289631 0.00400549)
(0.000101927 -0.000738986 0.00396703)
(0.000472212 0.00407676 0.00408874)
(0.000696938 -0.00181448 0.00409364)
(0.0012668 0.00493129 0.00413938)
(0.00134768 -0.00454809 0.0036259)
(0.00222317 0.00673156 0.00259145)
(0.00329084 -0.00790042 0.00491236)
(0.00947111 0.00826216 0.0106057)
(0.00793906 -0.0142858 0.0191083)
(0.0121768 0.0182973 0.042361)
(-0.00494903 -0.029471 0.0514678)
(0.0133936 0.0327004 0.0901891)
(-0.0733186 -0.122269 0.0790263)
(0.0299365 0.0441453 -0.168996)
(0.0686992 -0.252731 -0.00516323)
(0.13902 -0.0614989 -0.00104175)
(0.053798 0.137597 -0.00776313)
(0.0598016 0.0940756 0.00431815)
(0.0281035 0.126983 0.00372771)
(0.0228501 0.11181 0.00327945)
(0.010646 0.116638 -0.000141955)
(0.00648408 0.11278 -0.00154986)
(0.00202814 0.118598 -0.00243485)
(-0.000588729 0.120184 -0.00201386)
(-0.00344228 0.126244 -0.000883078)
(-0.00527228 0.128124 0.000727392)
(-0.00579179 0.131708 0.00252568)
(-0.00535837 0.13128 0.00429234)
(-0.00440321 0.130823 0.00574695)
(-0.00334178 0.128095 0.00687921)
(-0.000887629 0.125143 0.00781885)
(0.00147397 0.120663 0.00847371)
(0.0037585 0.115122 0.00884132)
(0.0056241 0.108711 0.00901843)
(0.00659637 0.100754 0.00900778)
(0.00638657 0.0918338 0.00891427)
(0.00547814 0.0820562 0.00867628)
(0.00437753 0.0723291 0.00820101)
(0.00310447 0.0621455 0.00771745)
(0.00124462 0.0519185 0.00708529)
(-0.00143745 0.0416633 0.00635966)
(-0.00472178 0.0321617 0.00533984)
(-0.00844751 0.023821 0.0042302)
(-0.0122472 0.017535 0.00349355)
(-0.0157029 0.013044 0.00329004)
(-0.0187101 0.0100676 0.00365639)
(-0.0219545 0.00801728 0.00457856)
(-0.026324 0.00646237 0.00649345)
(-0.0313987 0.00458611 0.00897215)
(-0.0367218 0.00414394 0.0125813)
(-0.0422749 0.000915356 0.0151895)
(0.0174218 0.0217968 0.00649556)
(0.02889 0.0254549 0.00796461)
(0.0154328 0.0126352 0.00320892)
(0.0210346 0.0179172 0.00524551)
(0.0138634 0.0057621 0.00238202)
(0.0151551 0.00873383 0.00230928)
(0.00905121 0.00120182 0.000566924)
(0.0063742 0.00372655 0.000284579)
(0.00123044 -0.000285443 0.00103131)
(-0.000924726 0.000842207 0.00204501)
(-0.00218574 -0.00102556 0.0024997)
(-0.00258471 0.000335843 0.00345134)
(-0.00250928 0.000758447 0.00394565)
(-0.00167856 0.00163878 0.0046094)
(-0.00139 0.00146411 0.00486999)
(-0.00130553 0.00152097 0.00508589)
(-0.00171583 0.00119721 0.00504667)
(-0.00204842 0.00116075 0.00501941)
(-0.00238972 0.00100904 0.00491665)
(-0.00260402 0.000993418 0.00482877)
(-0.00279241 0.000922066 0.00472378)
(-0.00291973 0.00090275 0.00463601)
(-0.00302186 0.000863959 0.00455331)
(-0.00309905 0.00084522 0.00448863)
(-0.00315689 0.000828624 0.00443668)
(-0.0031957 0.000822079 0.00439797)
(-0.00321683 0.000820104 0.00436542)
(-0.00322368 0.000824518 0.00433812)
(-0.00321824 0.00083282 0.00431654)
(-0.00320357 0.000840241 0.00429928)
(-0.00318668 0.000849473 0.00428576)
(-0.00317275 0.000847066 0.00427515)
(-0.00315893 0.000867115 0.00427082)
(-0.00316078 0.000838107 0.00426331)
(-0.0031326 0.000928258 0.0042725)
(-0.0031581 0.000817553 0.00425647)
(-0.00308893 0.00108129 0.00428695)
(-0.00313856 0.000770071 0.00425448)
(-0.00300739 0.00135708 0.00431647)
(-0.00307748 0.000657523 0.00426556)
(-0.00291734 0.00177452 0.00433467)
(-0.00298283 0.000446976 0.00426675)
(-0.00286112 0.00236861 0.00430833)
(-0.00279415 0.000113949 0.00426946)
(-0.00280391 0.00320311 0.00424763)
(-0.00239192 -0.000362735 0.00429202)
(-0.00236187 0.00425533 0.00430448)
(-0.00156463 -0.00161068 0.00452521)
(-0.00123556 0.00516595 0.00473569)
(-0.000475542 -0.0040449 0.00429531)
(-0.000115997 0.00670551 0.00326748)
(0.00258768 -0.00762477 0.00427014)
(0.00210217 0.00753151 0.00980726)
(-0.00283632 -0.0162907 0.01532)
(-0.00711095 0.0105103 0.0365631)
(-0.0208471 -0.0369505 0.0520283)
(0.00480245 -0.0107582 0.087633)
(-0.0272322 -0.113082 0.0847424)
(0.0285839 -0.0613598 -0.169463)
(0.0342005 -0.267701 -0.00512615)
(0.0707654 0.0034393 -0.00338024)
(0.0289467 0.179221 -0.00685618)
(0.0343768 0.170485 0.00540631)
(0.0214427 0.19798 0.00705753)
(0.0191886 0.193811 0.00857079)
(0.0117205 0.199467 0.00643621)
(0.00740576 0.196254 0.00629669)
(0.0027217 0.198854 0.0060514)
(-0.000597391 0.196181 0.0067935)
(-0.00330365 0.196628 0.00753362)
(-0.00466724 0.193467 0.008529)
(-0.00530419 0.192658 0.0089622)
(-0.00461435 0.188391 0.00963158)
(-0.00348225 0.185004 0.00992646)
(-0.00142247 0.17971 0.0106153)
(0.000946426 0.175182 0.0105137)
(0.0039599 0.170427 0.0108234)
(0.00702312 0.164426 0.0108284)
(0.00998614 0.158279 0.0108983)
(0.0123499 0.15137 0.0107866)
(0.0139616 0.143684 0.0108143)
(0.0145495 0.134696 0.0108077)
(0.0142104 0.124663 0.0106386)
(0.0132483 0.113584 0.0102798)
(0.0116285 0.101897 0.00940461)
(0.0088984 0.0899498 0.00861076)
(0.00503309 0.077411 0.00742192)
(0.000378383 0.0648 0.00620785)
(-0.00505741 0.0524719 0.00484565)
(-0.0103864 0.0411114 0.00392803)
(-0.0157019 0.0313773 0.0043785)
(-0.0207773 0.0230798 0.00593281)
(-0.027065 0.0154879 0.00803264)
(-0.035171 0.00825273 0.0102554)
(-0.0443148 0.00399496 0.0118228)
(-0.0549886 -0.000465334 0.0115384)
(0.0136882 0.0171984 0.00471856)
(0.0271576 0.0287586 0.00816854)
(0.0115538 0.0120732 0.00389261)
(0.0187764 0.0205137 0.00686219)
(0.0118607 0.00562623 0.00397209)
(0.01356 0.00926784 0.00400963)
(0.00743797 -3.49938e-05 0.0021685)
(0.00542852 0.00330527 0.00100917)
(0.000724094 -0.000673052 0.00152027)
(-0.00134901 0.00107474 0.00250687)
(-0.0030075 -0.00140138 0.00301742)
(-0.00376296 -0.000388681 0.00392284)
(-0.00358308 -0.000747545 0.00473349)
(-0.00260872 0.000108814 0.00561296)
(-0.00229316 1.62476e-06 0.00619376)
(-0.00222285 0.000554711 0.00664575)
(-0.00259232 0.000605394 0.00679059)
(-0.00286401 0.000941477 0.00684043)
(-0.00315823 0.00101561 0.00675783)
(-0.003327 0.00118462 0.00666121)
(-0.00347691 0.00122402 0.00653841)
(-0.00356184 0.0012878 0.00643548)
(-0.00362356 0.00130077 0.00633998)
(-0.00365815 0.00131613 0.00626607)
(-0.00367193 0.00131966 0.00620718)
(-0.00366528 0.00132381 0.00616388)
(-0.00364616 0.00132779 0.0061292)
(-0.00361558 0.00133184 0.00610244)
(-0.00357695 0.00133351 0.00608197)
(-0.00353117 0.00133247 0.00606724)
(-0.00348408 0.00133305 0.00605849)
(-0.00343793 0.00132659 0.00605485)
(-0.00339825 0.00133988 0.00605615)
(-0.00336897 0.00131947 0.00605587)
(-0.00332726 0.00140451 0.00606306)
(-0.00331877 0.00132036 0.00604841)
(-0.00325274 0.00156964 0.00606069)
(-0.00326051 0.00129927 0.00601853)
(-0.00314864 0.00184581 0.00604608)
(-0.00315138 0.0011993 0.00597879)
(-0.00302179 0.00224073 0.00601953)
(-0.00296313 0.000975122 0.0059368)
(-0.00290413 0.00280191 0.00596995)
(-0.00267398 0.000555005 0.00590743)
(-0.00287136 0.00356257 0.00584761)
(-0.0022197 -0.000233369 0.0058846)
(-0.00249985 0.00444159 0.00580908)
(-0.00144508 -0.00188924 0.0060825)
(-0.00163184 0.00556155 0.00651104)
(-0.000599958 -0.00432593 0.00608259)
(-0.000709834 0.00773715 0.00570017)
(0.00369087 -0.00791185 0.00625765)
(0.00242625 0.0086683 0.0112828)
(-0.00217148 -0.0176111 0.015294)
(-0.0150504 0.00826322 0.0351563)
(-0.0219538 -0.0420305 0.0508649)
(-0.00971428 -0.0233105 0.086529)
(0.018276 -0.0981566 0.0829957)
(0.000243713 -0.0870319 -0.154989)
(-0.00505203 -0.26213 -0.00595317)
(-0.0142728 0.0349809 -0.00676673)
(-0.00367768 0.20427 -0.00748768)
(0.00422955 0.206469 0.00690506)
(0.0098319 0.235672 0.0102059)
(0.0106373 0.233606 0.0125658)
(0.00833582 0.240876 0.0115803)
(0.00523475 0.237069 0.0118673)
(0.00223529 0.238978 0.0117248)
(-0.000773369 0.23456 0.0123217)
(-0.00238969 0.233255 0.0126399)
(-0.00354025 0.228554 0.0131698)
(-0.00386626 0.225338 0.0133888)
(-0.00316553 0.220359 0.0137025)
(-0.00141328 0.215943 0.0136195)
(0.00156734 0.210948 0.0137618)
(0.00448464 0.206194 0.0135784)
(0.00797109 0.201434 0.0135923)
(0.0113801 0.196907 0.0135432)
(0.0145786 0.19265 0.0136738)
(0.0173026 0.188947 0.0137581)
(0.0195517 0.185514 0.0138923)
(0.0209079 0.182331 0.0140448)
(0.0209003 0.178854 0.0142184)
(0.0199593 0.174933 0.0143502)
(0.0183508 0.170245 0.0144013)
(0.0158078 0.164712 0.0150079)
(0.0127353 0.157453 0.0154353)
(0.00885802 0.148957 0.0157482)
(0.00431035 0.13806 0.0161687)
(-0.000890984 0.125134 0.0163055)
(-0.00668228 0.1118 0.01634)
(-0.0131515 0.0965301 0.0160174)
(-0.0207034 0.080235 0.0152819)
(-0.0299903 0.0607375 0.0125968)
(-0.0420902 0.0365006 0.00294926)
(-0.0533089 0.0111445 -0.0137849)
(0.0026613 0.0138286 -0.00646146)
(0.0247026 0.0308542 0.00550811)
(0.00568632 0.0114965 0.00156402)
(0.0149627 0.0235581 0.0050971)
(0.00844177 0.00663304 0.00268889)
(0.0108376 0.0110725 0.00295666)
(0.00497011 0.000247745 0.000875826)
(0.00319276 0.00374702 -0.00102939)
(-0.00121214 -0.000505965 -0.00132871)
(-0.00296151 0.00152262 -0.000800992)
(-0.00477543 -0.00142375 -0.00017542)
(-0.00592905 -0.000657707 0.000492269)
(-0.00669406 -0.00184426 0.00129178)
(-0.00624031 -0.000958471 0.00211345)
(-0.00645802 -0.000890854 0.0028329)
(-0.00659493 -3.09206e-07 0.00337349)
(-0.00709596 0.000260069 0.00372697)
(-0.00739406 0.000800054 0.00393503)
(-0.00768315 0.000984653 0.00400051)
(-0.00779868 0.00125302 0.0040115)
(-0.00789069 0.00135862 0.00397806)
(-0.00792139 0.00147253 0.00394679)
(-0.0079278 0.0015209 0.00391541)
(-0.00791348 0.00155896 0.00389435)
(-0.00788288 0.00157701 0.00387939)
(-0.00783536 0.00159028 0.00387214)
(-0.0077715 0.00159849 0.00386953)
(-0.00769317 0.00160447 0.00387083)
(-0.00760723 0.00160855 0.00387317)
(-0.00751799 0.00161085 0.00387589)
(-0.00743532 0.00161538 0.00387993)
(-0.00735737 0.00161652 0.00388569)
(-0.00729745 0.00163399 0.00389309)
(-0.00724509 0.00162547 0.00389881)
(-0.00720055 0.00170486 0.00390439)
(-0.00714768 0.00164362 0.00389643)
(-0.00710153 0.00186932 0.00389149)
(-0.00701222 0.00164253 0.00386203)
(-0.0069742 0.00215283 0.00384616)
(-0.00681447 0.00158281 0.0038053)
(-0.00686981 0.00257329 0.00378591)
(-0.00660795 0.00136694 0.00374329)
(-0.00682327 0.00311391 0.00371685)
(-0.00633258 0.000907704 0.00368392)
(-0.00671838 0.00385748 0.00358414)
(-0.00583522 2.39346e-05 0.00357186)
(-0.00614298 0.00475603 0.0034261)
(-0.00508888 -0.00183692 0.00349753)
(-0.00545417 0.00601407 0.00397468)
(-0.00451207 -0.00499802 0.00329007)
(-0.00493537 0.00792307 0.00368852)
(-0.000114045 -0.00878702 0.0048829)
(-0.00355876 0.0105419 0.00784965)
(-0.00705263 -0.0181366 0.010128)
(-0.0218612 0.0168128 0.0254781)
(-0.0190739 -0.0549756 0.0394958)
(-0.0279604 -0.0228336 0.065608)
(0.0517578 -0.127753 0.0678838)
(-0.0342096 -0.0313479 -0.169059)
(-0.0420703 -0.257145 -0.0155903)