/*--------------------------------*- C++ -*----------------------------------*\
| =========                 |                                                 |
| \\      /  F ield         | OpenFOAM: The Open Source CFD Toolbox           |
|  \\    /   O peration     | Version:  2.3.0                                 |
|   \\  /    A nd           | Web:      www.OpenFOAM.org                      |
|    \\/     M anipulation  |                                                 |
\*---------------------------------------------------------------------------*/
FoamFile
{
    version     2.0;
    format      ascii;
    class       volVectorField;
    location    "36";
    object      U.waterMean;
}
// * * * * * * * * * * * * * * * * * * * * * * * * * * * * * * * * * * * * * //

dimensions      [0 1 -1 0 0 0 0];

internalField   nonuniform List<vector> 
6144
(
(0.00907634 0.0191914 -0.000671723)
(0.00929944 0.000209688 -0.00143027)
(0.00468247 -0.0013785 -0.00234448)
(0.0044799 -0.0027013 -0.00229664)
(0.00288374 -0.00327038 -0.00190446)
(0.00292694 -0.00203685 -0.00166153)
(0.00240764 -0.00196317 -0.00129461)
(0.00244798 -0.000837333 -0.00101945)
(0.0022554 -0.000434904 -0.000973779)
(0.00217411 0.00075539 -0.000727881)
(0.00208204 0.00155212 -0.000503107)
(0.00218838 0.00216235 -0.000170226)
(0.00232355 0.00210496 -5.06017e-05)
(0.00246343 0.00175229 9.57441e-05)
(0.00253348 0.00115437 -1.62343e-05)
(0.00260181 0.000652482 -0.000128958)
(0.00263547 0.000175319 -0.000319643)
(0.0026725 -0.00013266 -0.000459717)
(0.00269896 -0.000386081 -0.000608203)
(0.00271772 -0.000518593 -0.000709462)
(0.00272684 -0.000610003 -0.000781166)
(0.00272768 -0.000637388 -0.000815505)
(0.00272124 -0.000645026 -0.000826877)
(0.00270963 -0.000627513 -0.000818012)
(0.00269324 -0.000603358 -0.000794047)
(0.00267342 -0.000574398 -0.000756652)
(0.00265022 -0.000545587 -0.000706807)
(0.00262485 -0.000520086 -0.000648717)
(0.00259898 -0.000493305 -0.000586687)
(0.002572 -0.000486747 -0.000522094)
(0.00254492 -0.000467581 -0.000453395)
(0.00251034 -0.000511562 -0.000377293)
(0.00247556 -0.000487929 -0.000289223)
(0.00242967 -0.000622609 -0.000181115)
(0.00239206 -0.000604146 -4.35863e-05)
(0.00234494 -0.000950562 0.000118454)
(0.00232007 -0.0010139 0.000290683)
(0.0022882 -0.00170619 0.000428477)
(0.00228962 -0.00181727 0.000494614)
(0.00228726 -0.0027728 0.000434607)
(0.00230653 -0.00263302 0.000202869)
(0.00232786 -0.00341264 -0.000267235)
(0.00235446 -0.0023063 -0.000848265)
(0.00249001 -0.00226189 -0.00137507)
(0.00275239 -7.49684e-05 -0.00174022)
(0.00320351 -0.000558317 -0.00197271)
(0.00388618 0.000979401 -0.00254683)
(0.00420532 -0.000361209 -0.00352976)
(0.00244423 0.00489924 -0.00464286)
(0.00258741 0.0100811 -0.00651675)
(0.011914 0.0165135 -0.00952659)
(0.0227484 0.00266744 -0.010694)
(0.0319543 -0.00526117 -0.0123771)
(0.0341596 -0.0437519 -0.0124612)
(0.032169 -0.040028 -0.015288)
(0.0297823 -0.0854212 -0.0106839)
(0.013253 -0.0435088 -0.0196112)
(0.0109949 -0.100684 0.0163892)
(-0.0311238 0.00207993 -0.0500503)
(0.0229382 -0.0342499 0.0381448)
(0.131575 -0.291773 0.0672954)
(0.0898777 -0.114742 0.0317891)
(0.059052 -0.186357 0.0106766)
(0.0492233 -0.193752 0.00645365)
(0.0405395 -0.196261 0.00646419)
(0.0335852 -0.187403 0.00636293)
(0.0274154 -0.188854 0.00542894)
(0.022745 -0.182739 0.00478089)
(0.0196988 -0.181513 0.00475948)
(0.0174578 -0.174929 0.00499935)
(0.0158608 -0.17191 0.00551152)
(0.0141509 -0.16508 0.00588271)
(0.0121154 -0.158864 0.00632768)
(0.00901409 -0.14953 0.00661095)
(0.00534545 -0.138341 0.00704222)
(0.0026795 -0.123184 0.00554034)
(0.00114825 -0.107837 0.00253192)
(-0.000458367 -0.0919948 0.000970203)
(-0.00102999 -0.076625 0.000866571)
(0.00118216 -0.0621827 0.00111866)
(0.00375792 -0.0502998 0.000713125)
(0.00537956 -0.0405329 0.000412715)
(0.00586254 -0.0338258 0.00130661)
(0.00467056 -0.0292448 0.00186462)
(0.00358287 -0.0233193 0.001711)
(0.0035621 -0.0165895 0.0011642)
(0.00362294 -0.00952116 0.00140523)
(0.0031241 -0.00264799 0.00117198)
(0.00200287 0.00408338 0.000467232)
(0.000586141 0.0129051 2.39674e-05)
(0.00118906 0.0210732 0.00118674)
(0.00183657 0.0271135 0.00352441)
(0.00191191 0.0301092 0.00667465)
(0.00245699 0.0291037 0.0105462)
(0.00427461 0.0242432 0.0138121)
(0.00717527 0.0110368 0.0187634)
(0.0181444 0.0210402 0.00278679)
(0.0191077 0.00804054 0.00234407)
(0.0103386 0.00499029 -0.000148192)
(0.0104009 0.00349542 0.000526439)
(0.00632779 0.00043446 0.00113138)
(0.00606439 0.000603556 0.00167551)
(0.00429264 -0.000759516 0.00214557)
(0.00415494 0.000416605 0.0020495)
(0.00366084 0.000783106 0.00190919)
(0.00361939 0.00221079 0.00196137)
(0.00362302 0.00284166 0.00209386)
(0.00403977 0.00334333 0.00248399)
(0.00439716 0.00308069 0.00265498)
(0.00477166 0.00268888 0.00280145)
(0.00489854 0.00198058 0.00275755)
(0.00502562 0.00140076 0.00271593)
(0.00503835 0.000808465 0.00262267)
(0.00508039 0.000416075 0.00256342)
(0.00509577 7.33158e-05 0.00248377)
(0.00510969 -0.000124156 0.00243603)
(0.00510751 -0.000270523 0.00239661)
(0.00509249 -0.000336302 0.00238889)
(0.00506351 -0.00037286 0.00240096)
(0.0050251 -0.000373741 0.00243307)
(0.00497906 -0.000362001 0.00247792)
(0.00492741 -0.000339973 0.00253318)
(0.00487059 -0.000315351 0.00259537)
(0.00481055 -0.000293092 0.00265954)
(0.00475168 -0.000271863 0.00272191)
(0.00469533 -0.000273033 0.0027777)
(0.00464326 -0.000265589 0.00283216)
(0.00457861 -0.00033103 0.00289003)
(0.00452244 -0.00032853 0.00295403)
(0.00445022 -0.000509682 0.00302433)
(0.00441873 -0.000512794 0.00310879)
(0.0043768 -0.000917839 0.00319878)
(0.00440781 -0.00095352 0.00329547)
(0.00440732 -0.00168534 0.00337188)
(0.00447945 -0.00168494 0.00341959)
(0.00447954 -0.00268152 0.00339577)
(0.00448534 -0.00236074 0.00327507)
(0.00441457 -0.00324624 0.00290946)
(0.00438947 -0.00196549 0.00223425)
(0.00443236 -0.00231187 0.00154649)
(0.00492305 -0.000185943 0.00111481)
(0.00584863 -0.00127919 0.000801655)
(0.00616619 0.000832179 -0.000364161)
(0.00497466 0.00213105 -0.00177509)
(0.00292186 0.0094517 -0.00211661)
(0.00694867 0.00698599 -0.00224812)
(0.0255517 0.00276703 -0.00326732)
(0.0418706 -0.0161758 -0.00313041)
(0.0585865 -0.0201796 -0.00216477)
(0.0611406 -0.0489587 -0.000288685)
(0.0551356 -0.0376869 0.00337533)
(0.0553159 -0.0962049 0.0126724)
(0.0158247 -0.0496515 0.0105304)
(0.00896603 -0.166035 0.0393514)
(-0.0843303 0.0251507 -0.0801143)
(0.00723985 -0.0835792 0.0108519)
(0.168005 -0.261753 0.108204)
(0.0849058 0.0033279 0.0453793)
(0.0245364 -0.112433 0.0108671)
(0.0247097 -0.050261 0.015218)
(0.0131738 -0.0692024 0.0160291)
(0.00640645 -0.053627 0.0134221)
(0.00351475 -0.0561727 0.0103144)
(0.00394461 -0.0488467 0.00964883)
(0.00564187 -0.0483102 0.00976772)
(0.0053829 -0.0428782 0.0088616)
(0.0037646 -0.0426467 0.00994051)
(0.00115262 -0.0408502 0.0111791)
(-0.00135971 -0.0428885 0.0113867)
(-0.00491743 -0.0436 0.0101517)
(-0.0082933 -0.0440427 0.00843776)
(-0.00931775 -0.040509 0.00697456)
(-0.00857925 -0.036868 0.00521465)
(-0.00851485 -0.0328835 0.00497754)
(-0.00761737 -0.0286333 0.00482436)
(-0.00467114 -0.0248215 0.00530118)
(-0.00121813 -0.0204581 0.00514048)
(0.00171082 -0.0162848 0.00602103)
(0.00344551 -0.015637 0.00769722)
(0.00275041 -0.0170002 0.00812127)
(0.000692102 -0.0175668 0.00703581)
(-1.89718e-05 -0.0171007 0.00615141)
(-9.59281e-05 -0.0141232 0.00497116)
(-0.000407107 -0.00887897 0.00385663)
(-0.000705789 -0.00340899 0.00283207)
(-0.0013452 0.00307268 0.00143792)
(-0.000942986 0.00878549 0.00263753)
(-0.000256925 0.0137012 0.00389496)
(-0.000771347 0.0183681 0.00701021)
(-0.00020045 0.0185002 0.0121959)
(0.0009509 0.0167678 0.0176008)
(0.00308144 0.00531234 0.0241496)
(0.0215244 0.0211959 0.00391396)
(0.023182 0.0121878 0.00375666)
(0.0138448 0.00820522 0.00124564)
(0.0137266 0.00775832 0.00205747)
(0.00790032 0.00359857 0.00257044)
(0.00701554 0.00330625 0.00301558)
(0.0038476 0.000722074 0.00352626)
(0.00341756 0.00159652 0.00338761)
(0.00261826 0.00167014 0.00324615)
(0.00283681 0.00287342 0.00333583)
(0.00291496 0.00303509 0.00340761)
(0.00363307 0.00343265 0.00369637)
(0.00406381 0.00309584 0.00383654)
(0.00455532 0.00288813 0.00396607)
(0.00472052 0.00230746 0.00393802)
(0.00488285 0.00185322 0.00392863)
(0.00485156 0.00130174 0.00388569)
(0.00486715 0.000924214 0.0038774)
(0.00481227 0.00055539 0.00386932)
(0.00477119 0.000320026 0.0038841)
(0.00470284 0.000121856 0.00390413)
(0.00463877 8.93613e-06 0.00393705)
(0.00456746 -7.06398e-05 0.00397274)
(0.0044961 -0.000106512 0.00401439)
(0.00442316 -0.000123263 0.00405842)
(0.00435043 -0.000124509 0.00410408)
(0.00427663 -0.00012151 0.00415036)
(0.00420121 -0.000121391 0.00419784)
(0.00412658 -0.000125308 0.0042471)
(0.00405068 -0.000150921 0.00429832)
(0.00397724 -0.000168104 0.00435109)
(0.00389017 -0.000251151 0.00440508)
(0.0038159 -0.00027315 0.00446209)
(0.00372263 -0.000461674 0.00451977)
(0.00368673 -0.00046184 0.00458114)
(0.00363742 -0.000800307 0.00463714)
(0.00368589 -0.000716508 0.0046922)
(0.00369209 -0.00122359 0.00472744)
(0.00380349 -0.000936815 0.00474581)
(0.00382248 -0.0015606 0.00471848)
(0.00391212 -0.000867659 0.00463527)
(0.00382036 -0.0015301 0.00446372)
(0.00378293 -0.000282517 0.00418877)
(0.00389079 -0.0011387 0.00379491)
(0.00453238 0.000271341 0.00343231)
(0.00541488 -0.00119908 0.0030662)
(0.00504151 0.00152748 0.00194097)
(0.00360506 0.00192247 0.000668129)
(0.00441702 0.00635629 0.000935326)
(0.0155584 -0.00381566 0.000855472)
(0.0397245 -0.00801924 0.00055767)
(0.0614479 -0.0223476 0.00174146)
(0.0752104 -0.0171563 0.00466689)
(0.0797285 -0.0358742 0.00693283)
(0.0775304 -0.0177632 0.0152072)
(0.0779695 -0.0791704 0.0271792)
(0.0299847 -0.0203961 0.0366467)
(0.038417 -0.186297 0.0679984)
(-0.0952771 0.0698685 -0.0651263)
(0.0277992 -0.119056 -0.0185852)
(0.191417 -0.237928 0.115206)
(0.10441 0.0511119 0.0506489)
(0.0689099 -0.086671 0.0249942)
(0.044423 0.00022378 0.0147219)
(0.0299146 -0.0293989 0.0129445)
(0.0199279 -0.00755185 0.0115797)
(0.0184735 -0.0135271 0.0119901)
(0.0156438 -0.00526774 0.00980491)
(0.0154189 -0.000783668 0.00846997)
(0.0149652 0.00582396 0.00926306)
(0.0132809 0.0043804 0.0107614)
(0.0104873 0.00397926 0.0115612)
(0.00770885 0.000358156 0.0106828)
(0.00368831 -0.000504345 0.00910813)
(9.30685e-06 -0.00188381 0.00709804)
(-0.00190587 -0.00148443 0.00548225)
(-0.00258505 -0.000760247 0.00632284)
(-0.00288891 -0.000415835 0.00759006)
(-0.00317539 -0.00180362 0.00919712)
(-0.00199551 -0.00314117 0.00978115)
(0.000206793 -0.00300697 0.0100234)
(0.00282091 -0.00337318 0.0116005)
(0.00411989 -0.00561759 0.0143785)
(0.00151895 -0.00880035 0.0148526)
(-0.00156711 -0.0119974 0.014025)
(-0.00347478 -0.0137671 0.0127853)
(-0.00433836 -0.0123685 0.0100773)
(-0.00500683 -0.00948085 0.00717945)
(-0.00470799 -0.00486526 0.00346715)
(-0.00416003 0.00252743 0.000907068)
(-0.00297118 0.00756704 0.00346748)
(-0.00266045 0.0117926 0.0059604)
(-0.00216968 0.0142917 0.009651)
(-0.00116689 0.0129666 0.0142455)
(-0.00220798 0.0118648 0.0194499)
(-0.00396779 0.00187999 0.0253297)
(0.0228357 0.021348 0.00417864)
(0.026114 0.014974 0.00430277)
(0.0154782 0.00946242 0.000967665)
(0.0164232 0.0104589 0.00143284)
(0.00980997 0.00533177 0.00173592)
(0.00911132 0.00558544 0.00235176)
(0.00403244 0.00135921 0.00318607)
(0.00284365 0.00183584 0.00315782)
(0.00143346 0.00113677 0.00324242)
(0.00191609 0.00248737 0.00342476)
(0.0019981 0.00235864 0.00359082)
(0.00270528 0.00294214 0.00401439)
(0.00307487 0.00278609 0.0041958)
(0.00358534 0.00284798 0.00434495)
(0.00376373 0.00240549 0.00430483)
(0.00393937 0.00208413 0.0043043)
(0.00388639 0.00157198 0.0042738)
(0.00388651 0.0012324 0.00428529)
(0.00380413 0.00086295 0.00428804)
(0.00374162 0.000616212 0.00430924)
(0.00364721 0.000388277 0.00433047)
(0.0035572 0.000243587 0.00436306)
(0.00345803 0.000129586 0.00439745)
(0.00336262 6.25233e-05 0.00443734)
(0.00327016 1.99039e-05 0.0044797)
(0.0031829 -1.5807e-06 0.00452481)
(0.00309949 -1.42271e-05 0.00457108)
(0.00301977 -2.45767e-05 0.00461779)
(0.00294536 -3.65094e-05 0.00466453)
(0.00287546 -6.57701e-05 0.00471107)
(0.00281266 -8.88773e-05 0.00475807)
(0.00274278 -0.000166472 0.0048062)
(0.0026927 -0.000182471 0.00485463)
(0.00262802 -0.000337534 0.00489854)
(0.00262403 -0.000298358 0.00493441)
(0.00259094 -0.000552654 0.00495345)
(0.00265757 -0.000365997 0.00495693)
(0.00264761 -0.00070884 0.00493532)
(0.00274883 -0.000223537 0.00489582)
(0.00272085 -0.000589223 0.0048275)
(0.00282751 0.000389538 0.00473111)
(0.00284461 -7.56005e-05 0.00459874)
(0.00312495 0.00109248 0.00442924)
(0.00344702 -0.000224171 0.00424102)
(0.00396957 0.000714315 0.00413421)
(0.00436453 -0.00105192 0.00393564)
(0.00380729 0.00173081 0.00304194)
(0.00352354 -0.000206945 0.00213732)
(0.00860346 1.29803e-05 0.00262216)
(0.0209805 -0.0122996 0.00235845)
(0.0448562 -0.0137424 0.00355015)
(0.0658609 -0.0170818 0.00777456)
(0.0794135 -0.00205185 0.0128801)
(0.0828829 -0.00905863 0.0169532)
(0.0791027 0.0194402 0.0308306)
(0.0765413 -0.0391638 0.0452004)
(0.03188 0.0503971 0.0837895)
(0.0525133 -0.186861 0.111639)
(-0.121351 0.196925 -0.0408532)
(0.026223 -0.209562 0.00814553)
(0.171781 -0.202553 0.125186)
(0.0764659 0.0754246 0.0389308)
(0.0475216 -0.0462931 0.0244747)
(0.0143087 0.0454109 0.00159123)
(0.0101985 0.0249585 0.00616689)
(0.00313459 0.0470668 0.00697654)
(0.00329806 0.0455012 0.00798772)
(0.00239304 0.0544102 0.0071409)
(0.00513839 0.0535818 0.00634462)
(0.00661052 0.0567568 0.00629181)
(0.00670121 0.0530339 0.00663122)
(0.00528689 0.0521309 0.00520352)
(0.00307914 0.0489765 0.00435248)
(6.53323e-05 0.0474033 0.00406663)
(-0.00132025 0.0446397 0.00453473)
(-0.00257417 0.0415061 0.00707684)
(-0.00462116 0.0363584 0.00950276)
(-0.00611688 0.0317859 0.0120955)
(-0.00721168 0.0255559 0.0141302)
(-0.00763364 0.0218226 0.0146997)
(-0.00676905 0.0187337 0.0158935)
(-0.00622757 0.0167833 0.0161829)
(-0.00616581 0.0146356 0.0174493)
(-0.00710353 0.0111177 0.017481)
(-0.0103033 0.00814194 0.0169168)
(-0.0128911 0.00557594 0.0152441)
(-0.0129504 0.00576036 0.0103514)
(-0.0128523 0.00787493 0.00742314)
(-0.0124625 0.00931571 0.00352092)
(-0.0105789 0.0143894 0.000737276)
(-0.00843138 0.017349 0.00431991)
(-0.00723468 0.0184478 0.0074803)
(-0.00636853 0.0174944 0.0111789)
(-0.00580379 0.0129587 0.016101)
(-0.00875542 0.0104714 0.0204119)
(-0.0130387 0.000694584 0.0255299)
(0.0228732 0.0215508 0.00448068)
(0.0280474 0.0178403 0.00508897)
(0.0166757 0.0101567 0.000800138)
(0.0187156 0.0122186 0.00115371)
(0.0114976 0.00545864 0.000581318)
(0.0114609 0.00699861 0.00114629)
(0.00531783 0.00199841 0.00173462)
(0.00328133 0.00254487 0.00228391)
(0.000407246 0.000220905 0.00269164)
(0.000536247 0.00150972 0.00308809)
(0.000401598 0.00113352 0.00334301)
(0.000918901 0.00209794 0.00396606)
(0.00114117 0.00221789 0.00418785)
(0.00168513 0.0025966 0.0043801)
(0.00188993 0.00230907 0.00431533)
(0.00205153 0.00209315 0.00433005)
(0.00192232 0.00162161 0.0042997)
(0.00183076 0.0013315 0.00432324)
(0.00166376 0.00098685 0.00432095)
(0.00154214 0.000758673 0.00433096)
(0.00139785 0.000523353 0.00433035)
(0.00127578 0.000359638 0.00434023)
(0.00115638 0.000220516 0.00435207)
(0.00104766 0.00012965 0.0043708)
(0.000947073 6.47545e-05 0.00439312)
(0.000857492 2.44215e-05 0.00442047)
(0.000776102 -3.07542e-06 0.0044504)
(0.000703903 -2.45037e-05 0.00448193)
(0.000641785 -4.51227e-05 0.00451303)
(0.000587244 -7.59392e-05 0.00454213)
(0.000539191 -9.77341e-05 0.00456902)
(0.000483726 -0.00015909 0.00459401)
(0.000443234 -0.000156221 0.00461724)
(0.000385629 -0.000261057 0.00463193)
(0.000391057 -0.000166714 0.00463389)
(0.000368491 -0.000321502 0.0046093)
(0.000449612 -3.51738e-05 0.0045609)
(0.000433098 -0.000216286 0.00447359)
(0.000519601 0.000440089 0.00436198)
(0.000441132 0.00029064 0.00422586)
(0.000609768 0.00141312 0.00410397)
(0.000818317 0.000996769 0.00399912)
(0.00151334 0.00206605 0.00389226)
(0.00209677 0.00056993 0.00380705)
(0.00262569 0.00145786 0.00389946)
(0.00256643 -0.000409377 0.00391463)
(0.00249786 0.00179587 0.00358905)
(0.00518354 -0.00208895 0.00338938)
(0.0124948 -0.00329652 0.0040251)
(0.0253231 -0.014324 0.00496859)
(0.0442032 -0.0101542 0.00916984)
(0.0612015 -0.00254998 0.0173371)
(0.0713434 0.0232351 0.0228214)
(0.0734583 0.0252436 0.0265011)
(0.0671128 0.0580036 0.0433961)
(0.0628183 0.0142225 0.0575932)
(0.0393726 0.118108 0.0959942)
(0.0616716 -0.128865 0.111816)
(-0.0831344 0.310884 -0.00791755)
(0.0197595 -0.268664 0.0178369)
(0.14934 -0.169928 0.129585)
(0.0576163 0.0872313 0.0333668)
(0.0452942 -0.00672107 0.0261516)
(0.0138313 0.0759966 -5.80851e-05)
(0.0155673 0.0654018 0.00565767)
(0.00829791 0.0861534 0.00670311)
(0.00849457 0.0861542 0.00771577)
(0.00719651 0.0944179 0.00708727)
(0.00898827 0.093677 0.00710973)
(0.00945764 0.0974802 0.00697538)
(0.00977259 0.0955694 0.00701438)
(0.00899145 0.0961918 0.00686016)
(0.00854472 0.0935224 0.00770859)
(0.00712333 0.0906642 0.0092317)
(0.00596948 0.0856282 0.0118052)
(0.00353975 0.0799568 0.0131867)
(0.00113728 0.0740365 0.0139044)
(-0.00174835 0.0677244 0.0143987)
(-0.00431958 0.0620391 0.0152926)
(-0.00627445 0.0572964 0.0158452)
(-0.00738385 0.0527261 0.0168537)
(-0.00836524 0.0469075 0.0181642)
(-0.00920394 0.040144 0.0190682)
(-0.0107951 0.0342939 0.0171502)
(-0.0128966 0.0294506 0.0131835)
(-0.0138131 0.0266757 0.00863278)
(-0.0132396 0.0259351 0.00483109)
(-0.0126682 0.0257043 0.00131614)
(-0.0122869 0.0272509 -0.00109059)
(-0.010259 0.0282124 0.00212032)
(-0.00946161 0.0270079 0.00645981)
(-0.00831951 0.0245237 0.00940107)
(-0.00753002 0.0213004 0.0137012)
(-0.00875375 0.0137333 0.018108)
(-0.0141542 0.0112046 0.0211567)
(-0.0230117 6.75965e-05 0.0240987)
(0.0214784 0.021324 0.00535119)
(0.0294215 0.0209997 0.00636906)
(0.0171152 0.0107326 0.00153399)
(0.0204904 0.0139657 0.00238856)
(0.0127969 0.0043064 0.000516267)
(0.0129311 0.00716104 0.000666574)
(0.00683997 0.00153631 0.000611923)
(0.00448521 0.00321719 0.00127954)
(0.000616062 -0.00028324 0.00195994)
(-0.000315288 0.00073792 0.00253942)
(-0.000892141 -0.000322143 0.00283417)
(-0.000639144 0.000903613 0.00363543)
(-0.000329732 0.00130918 0.00398437)
(0.000386531 0.00210239 0.00436921)
(0.000767045 0.00192135 0.00443788)
(0.000983339 0.00183248 0.00455695)
(0.000823419 0.00140745 0.00454478)
(0.000672573 0.0012148 0.00456758)
(0.000455373 0.000953085 0.00453241)
(0.000302135 0.000815408 0.00450263)
(0.000138141 0.000645201 0.00444862)
(3.22718e-06 0.000529071 0.0044005)
(-0.000126593 0.000415039 0.0043521)
(-0.000237724 0.000333304 0.00431335)
(-0.000330736 0.000268221 0.00428149)
(-0.000404179 0.000224743 0.00425853)
(-0.000461708 0.000195517 0.00424339)
(-0.000504776 0.000176411 0.00423464)
(-0.000536829 0.00016241 0.00422936)
(-0.000559586 0.000144151 0.00422739)
(-0.000575301 0.000137569 0.00422941)
(-0.000594402 0.000107199 0.00423391)
(-0.000598912 0.000145012 0.00424065)
(-0.000616614 0.000108366 0.00423704)
(-0.000580679 0.00027401 0.00421618)
(-0.00058229 0.000235194 0.00416064)
(-0.000515375 0.000617976 0.00406671)
(-0.000586333 0.000562054 0.00391331)
(-0.00057305 0.00126502 0.00372221)
(-0.000676622 0.00113758 0.00352478)
(-0.000452834 0.0021403 0.00338252)
(-9.3914e-05 0.00163505 0.00331821)
(0.000818048 0.00263634 0.00334938)
(0.0014754 0.00118796 0.0034961)
(0.00184975 0.00222926 0.00373323)
(0.00152634 0.000412518 0.00375675)
(0.00218389 0.0018374 0.00349724)
(0.00644072 -0.00208227 0.00384114)
(0.0145373 -0.0017049 0.00495428)
(0.02453 -0.011077 0.00825831)
(0.0349105 -0.00160698 0.0156243)
(0.0428571 0.0102388 0.0262998)
(0.0533398 0.0386266 0.0325493)
(0.0569212 0.0460023 0.0373036)
(0.0531797 0.0809906 0.0532777)
(0.0485113 0.0336996 0.0595921)
(0.0389455 0.126115 0.0800491)
(0.0560808 -0.108689 0.0773685)
(-0.00883658 0.350327 0.0304717)
(0.0178529 -0.303303 0.0246395)
(0.0904027 -0.132256 0.122449)
(0.0230633 0.104997 0.0175754)
(0.0160551 0.0391169 0.0154569)
(-0.00355571 0.110017 -0.000980227)
(-0.00113728 0.111396 0.00777615)
(-0.00337565 0.128943 0.0100089)
(0.000273529 0.129039 0.0118179)
(0.00280635 0.135574 0.011606)
(0.00659356 0.133878 0.0117238)
(0.00926589 0.137329 0.0118464)
(0.0121585 0.135789 0.0122945)
(0.0132006 0.135915 0.0126074)
(0.0138811 0.132901 0.0132782)
(0.013089 0.130753 0.0145562)
(0.0115867 0.125648 0.0160691)
(0.00894114 0.119648 0.0172228)
(0.00635764 0.112408 0.0178859)
(0.00337068 0.10488 0.0178417)
(0.000233716 0.0972195 0.0175252)
(-0.00292138 0.0879067 0.0176642)
(-0.00561763 0.0787115 0.0174787)
(-0.00776639 0.0694399 0.0169838)
(-0.00890825 0.0607564 0.0145563)
(-0.00991215 0.0536531 0.00973836)
(-0.0114457 0.04925 0.00508714)
(-0.012176 0.0471775 0.0016037)
(-0.0117156 0.0461848 -0.00226396)
(-0.0120566 0.0464149 -0.00390795)
(-0.011481 0.0461562 -0.000687096)
(-0.0109276 0.0437984 0.00575991)
(-0.0112491 0.0389899 0.0091056)
(-0.011643 0.0337282 0.0122235)
(-0.0122776 0.0276043 0.0166667)
(-0.0146397 0.0182165 0.0202299)
(-0.0208309 0.0138457 0.022162)
(-0.0282622 0.00044755 0.0211967)
(0.0177259 0.0200088 0.00540044)
(0.029326 0.0247243 0.00827288)
(0.0155547 0.0107237 0.0033239)
(0.0202958 0.0160359 0.00517636)
(0.012383 0.00288762 0.00222148)
(0.0124327 0.00657623 0.00191625)
(0.00661084 -3.82467e-06 0.00131134)
(0.00480233 0.0031129 0.00122382)
(0.000559075 -0.000576115 0.0016395)
(-0.00110917 0.000710244 0.00236022)
(-0.00256214 -0.00109428 0.00257586)
(-0.00323098 0.000147425 0.00336188)
(-0.00334953 0.00050478 0.00380104)
(-0.00242322 0.00147178 0.00452724)
(-0.00194064 0.00132588 0.00485506)
(-0.00173921 0.00141357 0.00511734)
(-0.00203143 0.00108604 0.00511676)
(-0.00235201 0.00103298 0.00509717)
(-0.00269806 0.000878615 0.00499376)
(-0.00291731 0.000860035 0.00489929)
(-0.00310654 0.000790753 0.00478192)
(-0.00323696 0.000768131 0.00468103)
(-0.00334181 0.00072441 0.00458624)
(-0.00342208 0.000694773 0.00451217)
(-0.00348642 0.000665246 0.00445496)
(-0.00353058 0.000644847 0.00441272)
(-0.0035591 0.00062891 0.00438099)
(-0.0035677 0.000620837 0.0043621)
(-0.00355768 0.000618573 0.00435521)
(-0.00353482 0.00061571 0.00435845)
(-0.0035112 0.000628283 0.00437145)
(-0.00349714 0.000633721 0.00439009)
(-0.00348611 0.000717222 0.00441013)
(-0.00349935 0.00075874 0.00441394)
(-0.00346544 0.000995844 0.00439918)
(-0.00345677 0.00104913 0.0043514)
(-0.00335778 0.00147036 0.00428209)
(-0.00335551 0.00142402 0.0041634)
(-0.00325121 0.00198248 0.00399563)
(-0.00326721 0.00163313 0.0037724)
(-0.00296883 0.00229514 0.00356989)
(-0.0025718 0.00150469 0.00341663)
(-0.00160249 0.00234993 0.00345755)
(-0.00101361 0.000956531 0.00364382)
(-0.000704139 0.00215002 0.0038569)
(-0.000833631 0.000467716 0.00366854)
(0.000903873 0.00153845 0.00340659)
(0.0053909 -0.00182839 0.00420077)
(0.0138221 -0.00157537 0.00561957)
(0.0210547 -0.00522964 0.0102866)
(0.0202961 0.0100053 0.0189566)
(0.0221614 0.0264408 0.0291221)
(0.0282196 0.0575409 0.0374126)
(0.0335881 0.0726698 0.0463683)
(0.0408956 0.103056 0.0594235)
(0.0452947 0.0557996 0.0630865)
(0.0567962 0.143274 0.0744753)
(0.0534188 -0.105439 0.0588462)
(0.0179725 0.338644 0.0551308)
(0.00949109 -0.314948 0.0302639)
(0.0312111 -0.0964 0.107801)
(-0.00414804 0.121326 0.0169676)
(-0.00681506 0.0798845 0.0115844)
(-0.0164126 0.145856 -0.00115324)
(-0.0100776 0.145328 0.00997368)
(-0.00681621 0.159169 0.011692)
(-0.00164491 0.155967 0.0129557)
(0.0024124 0.161334 0.0131072)
(0.0062891 0.159584 0.0140644)
(0.00896621 0.162523 0.0146613)
(0.0122389 0.160548 0.0154995)
(0.0140686 0.161781 0.0157131)
(0.0159908 0.159572 0.0167256)
(0.0156942 0.157274 0.0171004)
(0.0151363 0.152035 0.018262)
(0.0128806 0.145743 0.0183147)
(0.0106125 0.138112 0.0179572)
(0.00757839 0.129467 0.0170449)
(0.00493341 0.120582 0.0163514)
(0.00218909 0.110835 0.0163562)
(0.000224878 0.100349 0.0159205)
(-0.00103145 0.0900191 0.0134211)
(-0.00125318 0.0813727 0.00966227)
(-0.00186299 0.0749763 0.00490468)
(-0.0027861 0.0704997 0.00027857)
(-0.00425329 0.0665628 -0.00564014)
(-0.00653922 0.0655894 -0.008632)
(-0.00793291 0.0642799 -0.00657257)
(-0.00811862 0.060653 -0.00308927)
(-0.00783144 0.0571183 0.00135814)
(-0.00846101 0.050453 0.00384686)
(-0.0104864 0.0439379 0.00578932)
(-0.0122415 0.0361173 0.0086178)
(-0.0164505 0.0254825 0.0126962)
(-0.0231919 0.0177025 0.0160156)
(-0.0353222 -0.00026604 0.0139591)
(0.0141757 0.0148964 0.00410652)
(0.028087 0.0279291 0.00897494)
(0.0124237 0.0102191 0.00417792)
(0.0185792 0.0187591 0.00658254)
(0.0111888 0.00259317 0.00347485)
(0.0105606 0.00675923 0.00281676)
(0.00444429 -0.00131881 0.00251345)
(0.00336869 0.00289723 0.00191792)
(-0.000214717 -0.000985248 0.00216688)
(-0.00189528 0.00101617 0.00281916)
(-0.00345415 -0.00119262 0.00312556)
(-0.00437026 -0.000161404 0.0039177)
(-0.0043616 -0.000678855 0.00461753)
(-0.00329553 8.9627e-05 0.00556)
(-0.00277123 -8.72205e-05 0.00621058)
(-0.00257628 0.000421171 0.00670706)
(-0.00282765 0.000461468 0.00689769)
(-0.0030808 0.000785274 0.00696046)
(-0.00336655 0.000861414 0.00688397)
(-0.00353479 0.00103582 0.00678132)
(-0.00368529 0.00108317 0.00664288)
(-0.00377461 0.00114501 0.00652251)
(-0.0038393 0.00115538 0.00641161)
(-0.00387471 0.00116306 0.00632478)
(-0.00389091 0.00115518 0.00625672)
(-0.00388519 0.00114723 0.00620879)
(-0.0038657 0.00113973 0.00617558)
(-0.00383077 0.00113695 0.00615613)
(-0.00378295 0.00113902 0.00614679)
(-0.0037256 0.00114641 0.00614752)
(-0.0036744 0.00117326 0.00615512)
(-0.00364175 0.00120886 0.00616365)
(-0.003624 0.00132817 0.00616836)
(-0.00362767 0.00142444 0.00615915)
(-0.00358006 0.00169095 0.00613527)
(-0.00355293 0.00177415 0.0060847)
(-0.00342636 0.00215105 0.00601993)
(-0.00337589 0.00205308 0.00591191)
(-0.00316969 0.00247935 0.00577492)
(-0.00307089 0.00200623 0.00558727)
(-0.00269094 0.00243991 0.00540373)
(-0.00237509 0.00144112 0.00523771)
(-0.00164684 0.00204032 0.00525543)
(-0.00132982 0.000548733 0.00544946)
(-0.00139759 0.00168348 0.00556707)
(-0.00143147 -3.32234e-05 0.00519652)
(0.000254099 -7.96426e-05 0.00471691)
(0.00488588 -0.00375804 0.00472932)
(0.0110484 -0.000486856 0.00647791)
(0.00895683 0.00682167 0.0151288)
(-0.00102963 0.0253192 0.0261365)
(-0.00505952 0.0441897 0.0343152)
(-0.00118698 0.073754 0.0392905)
(0.011503 0.0942678 0.0454285)
(0.0290671 0.126472 0.0586226)
(0.0528231 0.105789 0.065284)
(0.0811508 0.170485 0.0817967)
(0.0763335 -0.0318024 0.0710489)
(0.0665213 0.369409 0.0375714)
(-0.00790078 -0.335521 0.0301632)
(-0.0494833 -0.0667193 0.0773552)
(-0.0405378 0.157383 -0.00876916)
(-0.0405908 0.118945 0.00107616)
(-0.031163 0.175245 -0.0051991)
(-0.0219648 0.163889 0.00643389)
(-0.0103139 0.169697 0.00650395)
(-0.00430951 0.163154 0.00715704)
(0.00180318 0.166006 0.00681442)
(0.00614222 0.164905 0.007679)
(0.0103199 0.167039 0.00932839)
(0.0134158 0.166 0.0105546)
(0.0154146 0.167497 0.0112635)
(0.0173234 0.167502 0.0121048)
(0.0189606 0.169184 0.0130165)
(0.0200592 0.167887 0.0148587)
(0.01994 0.1642 0.016384)
(0.0192822 0.15861 0.0173284)
(0.018334 0.151792 0.0180597)
(0.0169263 0.143556 0.0184584)
(0.0157534 0.134541 0.0184303)
(0.0145063 0.125256 0.0178614)
(0.0135004 0.115703 0.0161503)
(0.0116445 0.108135 0.0127852)
(0.00941724 0.1036 0.00716981)
(0.00639753 0.102012 0.00232119)
(0.00192106 0.101636 -0.000603839)
(-0.000947818 0.100751 -0.0014493)
(-0.00224972 0.0979929 -0.00214908)
(-0.00236979 0.0952249 -0.00181318)
(-0.00168913 0.0913683 0.000121001)
(-0.00217097 0.0855918 0.00295779)
(-0.0044529 0.0784198 0.00647414)
(-0.00631092 0.0686525 0.010402)
(-0.0101919 0.0542077 0.0131305)
(-0.0171368 0.0361128 0.0105391)
(-0.026271 0.00731689 -0.00217407)
(0.00411624 0.0104012 -0.00394617)
(0.0255591 0.0298631 0.00685011)
(0.00752832 0.0101854 0.00166798)
(0.0157556 0.0223936 0.00426946)
(0.00916754 0.00422545 0.00200545)
(0.00835019 0.00839031 0.000959732)
(0.00163701 -0.00129415 -7.42271e-05)
(0.00110083 0.00355703 -0.000846996)
(-0.00231788 -0.000544348 -0.000898942)
(-0.00387856 0.00161568 -0.000421946)
(-0.00562951 -0.000971733 -3.27803e-05)
(-0.00658042 -0.000213851 0.00069422)
(-0.00719119 -0.00151418 0.00139655)
(-0.00667352 -0.000821622 0.00220715)
(-0.00674149 -0.000912504 0.00291796)
(-0.00680615 -0.000100073 0.00346078)
(-0.00724382 0.000127148 0.00384514)
(-0.0075389 0.000653291 0.00407538)
(-0.007857 0.000840745 0.00415707)
(-0.0079944 0.00111149 0.00416691)
(-0.00808055 0.00122297 0.00412264)
(-0.00810934 0.00133756 0.00407732)
(-0.00811373 0.00138587 0.00403222)
(-0.00809658 0.00141897 0.00399936)
(-0.00806574 0.00142908 0.0039754)
(-0.00802079 0.00143367 0.00396172)
(-0.00796573 0.00143605 0.00395514)
(-0.00789833 0.00144273 0.00395472)
(-0.00781845 0.00145725 0.00395689)
(-0.00773544 0.00148312 0.00396066)
(-0.00767267 0.00152805 0.00396495)
(-0.00763734 0.0015861 0.0039668)
(-0.00762636 0.00171317 0.00396358)
(-0.00763152 0.00181081 0.00395014)
(-0.00756895 0.00204922 0.00392141)
(-0.00749291 0.00211764 0.0038801)
(-0.00729412 0.00246455 0.0038238)
(-0.00715977 0.00238975 0.00374313)
(-0.00691614 0.00280003 0.00361614)
(-0.00678542 0.00234428 0.0034468)
(-0.00637869 0.00273825 0.0032447)
(-0.00603444 0.00170733 0.00305288)
(-0.00528232 0.00207543 0.00300106)
(-0.00504409 0.000388957 0.00322879)
(-0.00512426 0.00109884 0.003236)
(-0.00432897 -0.00110861 0.00248508)
(-0.00152016 -0.00088058 0.00234261)
(-7.08349e-05 -0.00488336 0.00140842)
(-0.00177342 0.00301547 0.0033253)
(-0.00849151 0.012215 0.0123346)
(-0.0237051 0.0254902 0.0248605)
(-0.0295894 0.0332928 0.0328295)
(-0.0275789 0.0561853 0.0344979)
(-0.0160653 0.0637145 0.0326636)
(-0.00158391 0.109204 0.0418918)
(0.0292263 0.0721484 0.043373)
(0.0717002 0.171539 0.0634366)
(0.0894124 -0.0190081 0.0697391)
(0.154367 0.408765 0.0274497)
(-0.0105023 -0.319681 0.0253227)
(-0.115489 -0.10761 0.059209)
(-0.0646424 0.146847 -0.0117679)
(-0.0607498 0.0734854 0.00269887)
(-0.0312731 0.130955 -0.000476003)
(-0.0238672 0.0984861 0.0110765)
(-0.00790199 0.102953 0.00865909)
(-0.00331973 0.090464 0.00800819)
(0.00182382 0.0904327 0.00630887)
(0.0043198 0.0863524 0.00502402)