/*--------------------------------*- C++ -*----------------------------------*\
| =========                 |                                                 |
| \\      /  F ield         | OpenFOAM: The Open Source CFD Toolbox           |
|  \\    /   O peration     | Version:  2.3.0                                 |
|   \\  /    A nd           | Web:      www.OpenFOAM.org                      |
|    \\/     M anipulation  |                                                 |
\*---------------------------------------------------------------------------*/
FoamFile
{
    version     2.0;
    format      ascii;
    class       volVectorField;
    location    "36";
    object      Ur;
}
// * * * * * * * * * * * * * * * * * * * * * * * * * * * * * * * * * * * * * //

dimensions      [0 1 -1 0 0 0 0];

internalField   nonuniform List<vector> 
6144
(
(-3.10235e-07 0.000326319 1.32124e-07)
(-4.20904e-07 0.000351139 1.106e-07)
(-2.92899e-07 0.000377386 4.13219e-08)
(-2.64946e-07 0.000398478 -1.72996e-08)
(-2.34843e-07 0.000421188 -3.8602e-08)
(-1.89295e-07 0.000448989 -5.19745e-08)
(-1.71142e-07 0.000484933 -6.00185e-08)
(-1.57518e-07 0.000524015 -5.52554e-08)
(-1.41919e-07 0.000549304 -4.11512e-08)
(-1.29558e-07 0.000556863 -5.05685e-08)
(-1.2164e-07 0.000557911 -5.13125e-08)
(-1.16705e-07 0.00055851 -2.74011e-08)
(-1.08887e-07 0.000559046 -1.69594e-08)
(-9.54201e-08 0.000559494 -9.38467e-09)
(-7.83052e-08 0.000559858 -8.52162e-09)
(-6.22226e-08 0.000560161 -1.14004e-08)
(-5.15468e-08 0.000560409 -1.79299e-08)
(-3.92171e-08 0.000560625 -2.18462e-08)
(-3.29931e-08 0.000560807 -2.77987e-08)
(-2.38173e-08 0.000560957 -3.07446e-08)
(-2.01227e-08 0.000561078 -3.52639e-08)
(-1.30216e-08 0.000561175 -3.49367e-08)
(-1.11736e-08 0.000561252 -3.48692e-08)
(-5.92465e-09 0.000561308 -3.15978e-08)
(-5.14921e-09 0.000561345 -2.9107e-08)
(-1.56225e-09 0.000561362 -2.46212e-08)
(-1.62787e-09 0.000561371 -2.26363e-08)
(5.73156e-10 0.00056138 -1.87276e-08)
(-8.68506e-11 0.000561392 -1.67122e-08)
(2.7155e-10 0.000561401 -1.3888e-08)
(-1.63116e-09 0.000561414 -1.2802e-08)
(-2.48656e-09 0.000561432 -1.12654e-08)
(-4.59758e-09 0.00056146 -1.02e-08)
(-6.70712e-09 0.000561499 -8.79772e-09)
(-9.71027e-09 0.000561554 -7.62247e-09)
(-1.37541e-08 0.000561627 -6.20208e-09)
(-1.8391e-08 0.000561715 -4.60892e-09)
(-2.49139e-08 0.000561822 -2.60434e-09)
(-3.2242e-08 0.000561939 -9.17299e-10)
(-4.15514e-08 0.000562078 3.10619e-09)
(-4.97534e-08 0.000562248 7.52394e-09)
(-6.21611e-08 0.000562445 1.40981e-08)
(-7.01254e-08 0.000562686 2.09649e-08)
(-8.09901e-08 0.000562951 2.78132e-08)
(-8.88608e-08 0.000563249 2.72798e-08)
(-8.15418e-08 0.000563592 1.71097e-08)
(-7.6104e-08 0.000563856 -3.55574e-09)
(-2.39327e-08 0.000566749 -2.82449e-08)
(-3.06358e-08 0.00059698 -1.70532e-10)
(2.26921e-07 0.000699337 -3.92279e-08)
(2.22247e-07 0.00090398 -1.36293e-07)
(8.89047e-07 0.00122371 -7.66794e-07)
(1.68269e-07 0.0017608 -1.01437e-06)
(-1.0977e-05 0.00235417 -2.77332e-06)
(-6.41656e-06 0.00279648 -1.79524e-06)
(-1.85431e-05 0.00313144 -1.01215e-05)
(4.90881e-05 0.00406417 3.67408e-05)
(3.68007e-05 0.00515116 -1.2134e-05)
(0.000313535 0.0183007 0.00164946)
(0.00904389 0.124925 0.0143017)
(-0.023676 0.57038 0.0200452)
(-0.0299161 0.414459 0.00533587)
(-0.000486492 0.0225471 7.50148e-05)
(8.59756e-06 0.00702326 -1.79216e-05)
(-4.6819e-05 0.00729511 -1.8818e-06)
(1.59704e-05 0.00781178 -6.98608e-06)
(7.85147e-06 0.00831986 8.89134e-06)
(-6.95405e-06 0.008419 1.55165e-05)
(-1.3202e-05 0.00833922 1.03857e-05)
(-1.64378e-05 0.00833224 4.40213e-06)
(-1.81754e-05 0.00831652 2.54715e-06)
(-1.88985e-05 0.00829299 3.15883e-06)
(-1.91058e-05 0.00826186 -7.92561e-07)
(-1.93388e-05 0.00819753 -5.60243e-06)
(-2.05753e-05 0.00807175 -7.86629e-06)
(-2.40583e-05 0.0078951 -7.01019e-06)
(-2.79616e-05 0.00772258 -7.32527e-06)
(-2.97399e-05 0.00759221 -9.69342e-06)
(-2.97847e-05 0.0074987 -1.29062e-05)
(-2.95254e-05 0.00742896 -1.83921e-05)
(-2.79784e-05 0.00737411 -1.81501e-05)
(-2.62725e-05 0.0073205 -1.73813e-05)
(-2.4565e-05 0.00725752 -1.6188e-05)
(-2.27786e-05 0.0072041 -1.44415e-05)
(-2.07089e-05 0.00718646 -1.30162e-05)
(-1.92912e-05 0.00721108 -9.60173e-06)
(-1.8868e-05 0.00727667 -7.12305e-06)
(-1.61401e-05 0.0073621 -5.23167e-06)
(-1.78361e-05 0.007433 -4.9418e-06)
(-2.32912e-05 0.00748794 -2.67487e-06)
(-2.88657e-05 0.0075348 2.09989e-06)
(-4.49977e-05 0.00759177 8.50566e-07)
(-5.06061e-05 0.0076953 -8.65337e-06)
(-5.24623e-05 0.00783627 -1.61174e-05)
(-5.72919e-05 0.00771906 -2.94135e-05)
(-5.12369e-05 0.00724175 -2.70277e-05)
(-4.65446e-07 0.000311288 3.09752e-07)
(-6.22845e-07 0.000348528 2.37397e-07)
(-6.10383e-07 0.000387461 1.0708e-07)
(-5.59629e-07 0.000415101 1.27122e-08)
(-5.22353e-07 0.000441541 -1.18833e-08)
(-4.59206e-07 0.000467522 -4.02781e-09)
(-4.51635e-07 0.000496141 1.18942e-08)
(-4.33256e-07 0.000528416 3.09247e-08)
(-4.28399e-07 0.000550522 4.35616e-08)
(-4.23729e-07 0.000557133 5.90839e-08)
(-4.04673e-07 0.00055782 6.26095e-08)
(-3.83385e-07 0.000558428 9.6453e-08)
(-3.45796e-07 0.000559147 1.17569e-07)
(-2.98101e-07 0.000559761 1.25943e-07)
(-2.3986e-07 0.00056018 1.22893e-07)
(-1.90903e-07 0.000560476 1.13608e-07)
(-1.4845e-07 0.000560708 1.08155e-07)
(-1.12781e-07 0.000560906 1.00507e-07)
(-8.35044e-08 0.000561071 9.76472e-08)
(-5.9281e-08 0.000561205 9.30286e-08)
(-4.37225e-08 0.000561314 9.34985e-08)
(-3.05329e-08 0.000561403 9.18035e-08)
(-2.42744e-08 0.000561473 9.53776e-08)
(-1.86668e-08 0.000561525 9.68627e-08)
(-1.79936e-08 0.000561563 1.02126e-07)
(-1.76132e-08 0.00056159 1.05272e-07)
(-2.11159e-08 0.000561614 1.11282e-07)
(-2.45121e-08 0.000561637 1.14998e-07)
(-3.12537e-08 0.000561656 1.1967e-07)
(-3.80247e-08 0.000561672 1.23106e-07)
(-4.62396e-08 0.000561691 1.26662e-07)
(-5.34836e-08 0.000561716 1.29111e-07)
(-6.17247e-08 0.000561752 1.31461e-07)
(-7.05212e-08 0.000561802 1.33734e-07)
(-8.10203e-08 0.000561865 1.35344e-07)
(-9.31947e-08 0.000561942 1.38289e-07)
(-1.08232e-07 0.000562036 1.40316e-07)
(-1.25733e-07 0.000562146 1.46182e-07)
(-1.46343e-07 0.000562273 1.44776e-07)
(-1.68374e-07 0.000562424 1.54342e-07)
(-1.93224e-07 0.00056261 1.55819e-07)
(-2.18364e-07 0.000562821 1.66635e-07)
(-2.41721e-07 0.000563077 1.66758e-07)
(-2.56217e-07 0.000563354 1.78342e-07)
(-2.69315e-07 0.000563698 1.7263e-07)
(-2.0297e-07 0.000563985 1.75069e-07)
(-1.58454e-07 0.000564533 1.53788e-07)
(7.49377e-08 0.0005668 1.57617e-07)
(2.23681e-07 0.000596799 1.4785e-07)
(6.42878e-07 0.000697154 1.4767e-07)
(7.60435e-07 0.000896506 1.15689e-08)
(1.57378e-06 0.0011796 -7.29139e-07)
(-3.23343e-07 0.00158179 -1.25485e-06)
(-1.00184e-05 0.00213065 8.5005e-08)
(-1.09296e-05 0.00274663 5.47707e-07)
(-3.9961e-05 0.00321854 -5.78427e-06)
(-1.55706e-05 0.00454177 -5.50863e-06)
(-0.000119387 0.00585911 -9.50206e-05)
(-0.00179723 0.0219826 0.00214776)
(0.000862725 0.139436 0.00922054)
(-0.0658903 0.567616 0.0145902)
(-0.0229979 0.300725 -0.00583935)
(0.000782365 0.0220358 1.77802e-05)
(-0.000276144 0.00695196 -2.50462e-05)
(-9.61559e-05 0.00697542 -4.55279e-06)
(-0.000365481 0.00730271 -4.55742e-05)
(-0.000315823 0.0081656 -1.57468e-05)
(-0.000279688 0.00945094 9.75508e-05)
(-0.000262094 0.0107504 4.52032e-06)
(-0.000262181 0.0112099 -4.35203e-06)
(-0.000243631 0.0110321 -3.36968e-06)
(-0.00022043 0.0103435 -2.26154e-06)
(-0.000196973 0.00972092 -6.24023e-06)
(-0.000177942 0.00930181 -1.07011e-05)
(-0.000169093 0.009029 -1.35059e-05)
(-0.000180012 0.00858577 -1.11823e-05)
(-6.24339e-05 0.00761173 -1.28922e-05)
(-6.73975e-05 0.00743223 -1.44589e-05)
(-6.56328e-05 0.00730463 -1.75976e-05)
(-6.21638e-05 0.00721374 -2.01147e-05)
(-5.68708e-05 0.0071235 -2.14504e-05)
(-5.24351e-05 0.00700714 -2.20987e-05)
(-4.91163e-05 0.00689402 -2.17761e-05)
(-4.62515e-05 0.0068163 -2.14855e-05)
(-4.17317e-05 0.00669541 -2.00974e-05)
(-3.63502e-05 0.00655812 -1.70898e-05)
(-3.70832e-05 0.00660037 -1.56981e-05)
(-3.83603e-05 0.00675686 -1.60475e-05)
(-4.57338e-05 0.00683871 -1.42091e-05)
(-6.34099e-05 0.00681871 -1.29859e-05)
(-8.8145e-05 0.00679269 -7.40654e-06)
(-0.000119533 0.00688168 -5.72219e-06)
(-0.000139598 0.00713861 -1.40647e-05)
(-0.000152787 0.00753008 -1.92667e-05)
(-0.00016756 0.00762756 -2.67889e-05)
(-0.000145428 0.00723084 -3.07341e-05)
(-4.89365e-07 0.000297368 2.30172e-07)
(-6.16388e-07 0.000335881 2.37816e-07)
(-8.34414e-07 0.000381461 1.39383e-07)
(-8.02454e-07 0.000416471 6.35469e-08)
(-7.87566e-07 0.000445982 7.26987e-08)
(-7.65494e-07 0.000471746 6.15801e-08)
(-7.83451e-07 0.000497616 1.01996e-07)
(-7.84914e-07 0.000525141 1.10022e-07)
(-7.77497e-07 0.000545427 1.11328e-07)
(-7.57868e-07 0.000553508 1.1354e-07)
(-7.17563e-07 0.000555555 1.13025e-07)
(-6.79276e-07 0.000557201 1.30717e-07)
(-6.25163e-07 0.000558681 1.42834e-07)
(-5.5626e-07 0.000559655 1.4696e-07)
(-4.8607e-07 0.000560214 1.3976e-07)
(-4.20355e-07 0.00056054 1.33065e-07)
(-3.65874e-07 0.000560773 1.28628e-07)
(-3.1927e-07 0.000560966 1.28713e-07)
(-2.82352e-07 0.000561127 1.29867e-07)
(-2.49423e-07 0.000561257 1.33891e-07)
(-2.2886e-07 0.000561363 1.37244e-07)
(-2.12186e-07 0.000561448 1.42353e-07)
(-2.06416e-07 0.000561514 1.46173e-07)
(-2.02261e-07 0.000561562 1.51073e-07)
(-2.06133e-07 0.000561596 1.54516e-07)
(-2.10177e-07 0.00056162 1.58552e-07)
(-2.19828e-07 0.000561639 1.61367e-07)
(-2.28965e-07 0.000561656 1.64678e-07)
(-2.4203e-07 0.00056167 1.6697e-07)
(-2.5351e-07 0.000561683 1.69251e-07)
(-2.66299e-07 0.000561701 1.70515e-07)
(-2.77871e-07 0.000561725 1.72239e-07)
(-2.91116e-07 0.00056176 1.73396e-07)
(-3.05268e-07 0.000561807 1.74749e-07)
(-3.2139e-07 0.000561866 1.75702e-07)
(-3.39315e-07 0.000561937 1.76841e-07)
(-3.6017e-07 0.000562018 1.77684e-07)
(-3.84339e-07 0.00056211 1.78863e-07)
(-4.11053e-07 0.000562235 1.7862e-07)
(-4.41907e-07 0.000562382 1.80943e-07)
(-4.73061e-07 0.000562573 1.82027e-07)
(-5.05394e-07 0.000562798 1.77895e-07)
(-5.33881e-07 0.000563069 1.86261e-07)
(-5.33067e-07 0.000563332 1.85436e-07)
(-5.51137e-07 0.000563727 1.91991e-07)
(-4.13783e-07 0.000563983 1.78031e-07)
(-3.00077e-07 0.000564731 1.8894e-07)
(-5.78668e-08 0.000566742 2.2116e-07)
(3.28276e-07 0.000584129 1.91013e-07)
(7.69525e-07 0.000652405 4.68201e-07)
(1.56292e-06 0.000848664 4.53761e-07)
(2.15504e-06 0.00117754 1.88309e-07)
(-9.70045e-07 0.00152732 -1.02366e-06)
(-3.28386e-06 0.00205341 -1.93545e-06)
(7.3917e-06 0.00295107 2.5479e-06)
(4.92371e-05 0.00341985 -4.87023e-06)
(-2.10735e-05 0.0044771 7.53279e-05)
(-0.000322048 0.00407085 2.21961e-05)
(-0.00188307 0.0205768 0.00144316)
(0.00787924 0.155462 0.0113245)
(-0.0341042 0.588812 0.00962099)
(-0.0177665 0.461101 -0.0019289)
(-0.0218371 0.512564 0.000825863)
(0.00284324 0.488753 -0.00387986)
(0.00167058 0.490658 -0.002224)
(0.0078893 0.489246 -0.00010795)
(0.00939289 0.492268 0.00104424)
(0.00746425 0.495949 0.0013961)
(0.00754529 0.500441 0.00127073)
(0.00674597 0.496918 0.000765765)
(0.00662508 0.501237 0.000526033)
(0.0043477 0.504703 0.000367306)
(0.00361026 0.495168 0.000295761)
(0.0039037 0.491999 0.000200778)
(0.00277614 0.468714 -0.000319085)
(0.00184898 0.346961 -0.000640123)
(-0.000193855 0.0291409 -9.72952e-05)
(-0.000203208 0.00940718 -0.000163043)
(-0.000190432 0.00973693 -0.000199041)
(-0.000183369 0.00953038 -0.000230776)
(-0.000175545 0.00900059 -2.07531e-05)
(-0.000184612 0.00762748 -3.66415e-05)
(-4.6622e-05 0.00694449 -3.24723e-05)
(-0.000183743 0.00715756 -4.35463e-05)
(-4.06888e-05 0.00671766 -3.05997e-05)
(-3.69587e-05 0.00667518 -2.36393e-05)
(-4.86473e-05 0.0071302 -2.39066e-05)
(-5.82702e-05 0.00742474 -2.48654e-05)
(-7.71128e-05 0.0072407 -2.33804e-05)
(-0.000112971 0.00689031 -2.10984e-05)
(-0.000142019 0.00657984 -1.10129e-05)
(-0.000168501 0.00646885 -1.40608e-05)
(-0.000192194 0.00663159 -2.12712e-05)
(-0.00021864 0.00708956 -2.35279e-05)
(-0.000247936 0.00738958 -3.3825e-05)
(-0.000220909 0.00714825 -3.55097e-05)
(-5.56198e-07 0.000285479 1.83534e-07)
(-6.79683e-07 0.000320836 2.63974e-07)
(-1.1567e-06 0.000366217 1.28953e-07)
(-1.15087e-06 0.000402802 1.21587e-07)
(-1.19808e-06 0.000433568 1.4897e-07)
(-1.16389e-06 0.000460906 1.35011e-07)
(-1.18361e-06 0.00048847 1.56421e-07)
(-1.14506e-06 0.000517997 1.41618e-07)
(-1.09661e-06 0.000540804 1.37157e-07)
(-1.03473e-06 0.000551055 1.26876e-07)
(-9.65625e-07 0.000554276 1.2568e-07)
(-8.98032e-07 0.000556582 1.35694e-07)
(-8.19668e-07 0.000558437 1.45305e-07)
(-7.4552e-07 0.000559547 1.45197e-07)
(-6.7099e-07 0.000560141 1.40797e-07)
(-6.13405e-07 0.000560473 1.28612e-07)
(-5.62041e-07 0.000560702 1.28886e-07)
(-5.27865e-07 0.000560887 1.25214e-07)
(-4.96441e-07 0.000561044 1.32611e-07)
(-4.73754e-07 0.000561171 1.32328e-07)
(-4.52858e-07 0.000561271 1.40054e-07)
(-4.42575e-07 0.000561348 1.40581e-07)
(-4.35093e-07 0.000561402 1.48404e-07)
(-4.35664e-07 0.000561439 1.48702e-07)
(-4.37272e-07 0.000561462 1.55087e-07)
(-4.44537e-07 0.000561476 1.54772e-07)
(-4.51658e-07 0.000561487 1.59214e-07)
(-4.62542e-07 0.000561497 1.58187e-07)
(-4.72628e-07 0.000561506 1.60402e-07)
(-4.8473e-07 0.000561517 1.58609e-07)
(-4.95597e-07 0.000561532 1.59417e-07)
(-5.07755e-07 0.000561557 1.5845e-07)
(-5.20986e-07 0.000561594 1.58575e-07)
(-5.35981e-07 0.000561643 1.58033e-07)
(-5.53472e-07 0.000561704 1.57043e-07)
(-5.71894e-07 0.000561778 1.56602e-07)
(-5.94987e-07 0.000561867 1.54326e-07)
(-6.18646e-07 0.000561968 1.54526e-07)
(-6.50951e-07 0.000562097 1.51032e-07)
(-6.77151e-07 0.000562247 1.5248e-07)
(-7.10908e-07 0.000562443 1.47513e-07)
(-7.36076e-07 0.000562663 1.45235e-07)
(-7.51277e-07 0.000562959 1.41044e-07)
(-7.51758e-07 0.000563215 1.23195e-07)
(-7.13976e-07 0.000563685 1.46274e-07)
(-6.63348e-07 0.000564058 9.56413e-08)
(-5.5295e-07 0.00056485 9.17051e-08)
(-3.98144e-07 0.000566903 1.38404e-07)
(-2.84582e-08 0.000578426 2.6081e-08)
(5.54721e-07 0.000632301 4.33195e-07)
(1.82301e-06 0.000806392 7.51136e-07)
(2.76648e-06 0.00109601 1.35427e-06)
(-6.26355e-07 0.00152814 1.58418e-06)
(2.18551e-06 0.00230477 1.17364e-06)
(4.47898e-05 0.00331247 3.83139e-05)
(6.99353e-05 0.00356781 -1.07428e-05)
(2.70793e-05 0.00407721 9.22858e-05)
(-0.000280769 0.00327908 9.03306e-05)
(-0.00128224 0.0230262 0.00191949)
(0.00441391 0.201378 0.0147495)
(-0.0261069 0.606133 0.00384556)
(-0.00660945 0.475289 0.000223123)
(-0.00847922 0.462486 0.00141598)
(0.0020054 0.428018 -9.61072e-05)
(0.0041805 0.484209 0.000946528)
(0.00528052 0.421544 0.00142121)
(0.0049027 0.514318 0.00182288)
(0.00660155 0.48992 0.00174014)
(0.00456846 0.467576 0.000924294)
(0.00523936 0.506136 0.000807008)
(0.00347851 0.499583 0.000453899)
(0.00432504 0.493166 0.000669863)
(0.00392949 0.494759 0.000878665)
(0.00303469 0.481465 0.000570181)
(0.00366859 0.416144 0.000344788)
(0.0016091 0.344236 -0.000351841)
(0.00235415 0.497155 -0.000498701)
(0.00102684 0.494224 -0.000599211)
(0.00117246 0.494126 -0.000574587)
(0.000928066 0.477454 -0.000220909)
(9.74105e-05 0.456718 -0.000586994)
(-6.29954e-05 0.321226 -0.000820982)
(-0.000111821 0.0527668 -0.000214637)
(-0.00134631 0.182317 -0.00116554)
(-0.000131964 0.0301155 -0.00024689)
(-0.000162394 0.0079197 -2.16228e-05)
(-6.03832e-05 0.00841136 -2.72334e-05)
(-7.7988e-05 0.0082804 -1.9303e-05)
(-0.000105952 0.00721696 -1.70605e-05)
(-0.000143324 0.00641984 -1.55041e-05)
(-0.000173371 0.0060378 -2.73678e-05)
(-0.000189487 0.00599301 -3.52561e-05)
(-0.000207068 0.0061501 -2.77188e-05)
(-0.000226927 0.00659024 -1.61337e-05)
(-0.000267854 0.00703395 -2.76963e-05)
(-0.000246857 0.0069734 -3.5397e-05)
(-6.39604e-07 0.000273487 9.16499e-08)
(-9.17343e-07 0.000304783 2.49093e-07)
(-1.56919e-06 0.000348786 8.67401e-08)
(-1.51353e-06 0.000387255 5.51229e-08)
(-1.60595e-06 0.00042049 9.30123e-08)
(-1.53644e-06 0.000450658 7.53363e-08)
(-1.51803e-06 0.000480224 1.22136e-07)
(-1.41193e-06 0.000510692 1.08814e-07)
(-1.33458e-06 0.000535986 1.16863e-07)
(-1.21418e-06 0.000549291 1.10137e-07)
(-1.12365e-06 0.000553931 1.08598e-07)
(-1.01662e-06 0.000556738 1.2772e-07)
(-9.24155e-07 0.000558679 1.22905e-07)
(-8.38218e-07 0.000559741 1.36569e-07)
(-7.77314e-07 0.000560305 1.26545e-07)
(-7.31322e-07 0.000560631 1.25284e-07)
(-7.02463e-07 0.00056086 1.15371e-07)
(-6.83289e-07 0.000561048 1.20269e-07)
(-6.75001e-07 0.000561207 1.15488e-07)
(-6.65221e-07 0.000561336 1.20536e-07)
(-6.6239e-07 0.000561438 1.16239e-07)
(-6.57974e-07 0.000561515 1.21531e-07)
(-6.5777e-07 0.000561572 1.18191e-07)
(-6.55187e-07 0.000561608 1.22883e-07)
(-6.56754e-07 0.00056163 1.19927e-07)
(-6.56184e-07 0.000561641 1.2316e-07)
(-6.5851e-07 0.000561646 1.20101e-07)
(-6.59405e-07 0.000561647 1.21351e-07)
(-6.63219e-07 0.000561648 1.17091e-07)
(-6.66485e-07 0.000561648 1.1547e-07)
(-6.71416e-07 0.000561652 1.11366e-07)
(-6.76583e-07 0.000561661 1.0902e-07)
(-6.83592e-07 0.000561681 1.05625e-07)
(-6.92827e-07 0.000561714 1.01864e-07)
(-7.03904e-07 0.000561763 9.86394e-08)
(-7.18504e-07 0.000561824 9.30496e-08)
(-7.35229e-07 0.000561904 9.08226e-08)
(-7.54565e-07 0.000561991 8.44946e-08)
(-7.77278e-07 0.000562114 8.56507e-08)
(-8.10888e-07 0.000562259 7.31738e-08)
(-8.33625e-07 0.000562454 7.1077e-08)
(-8.59362e-07 0.000562692 5.45766e-08)
(-8.72491e-07 0.000563003 4.35288e-08)
(-9.05823e-07 0.000563367 2.12308e-08)
(-8.98298e-07 0.000563819 8.39758e-09)
(-9.69824e-07 0.000564156 -6.89279e-09)
(-9.99849e-07 0.00056516 -4.11633e-08)
(-9.43208e-07 0.000568651 -5.53625e-08)
(-8.26749e-07 0.000581723 -2.94376e-07)
(-4.03493e-07 0.000637264 4.32182e-08)
(6.23914e-07 0.000800596 4.55942e-07)
(2.009e-06 0.00103052 1.40499e-06)
(4.16498e-06 0.00156634 5.05607e-06)
(2.77471e-06 0.00260365 5.96125e-06)
(-7.54471e-06 0.00346914 4.01789e-05)
(-1.45892e-05 0.00352511 2.75737e-05)
(4.58267e-05 0.00374828 8.15628e-05)
(-0.000140274 0.00254244 0.000114023)
(-0.000673217 0.0226727 0.00239295)
(0.00443779 0.240097 0.0181694)
(-0.00686277 0.573161 0.00182449)
(-0.0032884 0.495637 0.00118586)
(-0.00364634 0.508393 0.0018566)
(0.00145724 0.500603 0.0015947)
(0.00321515 0.499894 0.00210411)
(0.00463408 0.497058 0.00211394)
(0.00386021 0.494187 0.0013593)
(0.00499261 0.470298 0.00131336)
(0.00385372 0.340335 0.000539351)
(0.00503417 0.513278 0.00124657)
(0.00393124 0.495133 0.000394316)
(0.00325774 0.501501 0.000625492)
(0.00213717 0.45799 0.000693718)
(0.00196732 0.478195 6.97371e-05)
(0.00245937 0.249972 0.000668549)
(0.000109522 0.0786486 4.28484e-05)
(0.00227213 0.398269 0.000132985)
(0.00117866 0.47994 -0.00108787)
(0.000683986 0.493671 0.000279694)
(0.00136544 0.475669 0.000595472)
(0.00120438 0.465901 0.000359191)
(-0.000877419 0.463915 -0.000561078)
(-0.00275673 0.492485 -0.00106395)
(-0.00588406 0.477911 -0.000639638)
(-0.00874921 0.457542 -0.000705966)
(-0.0090921 0.341475 -0.00100122)
(-0.000215756 0.0306295 -0.00020231)
(-0.000353572 0.00929594 -0.000253433)
(-0.000427379 0.00717286 -3.21674e-05)
(-0.000455381 0.00573929 -3.49868e-05)
(-0.000133032 0.00559528 -3.56129e-05)
(-0.000121884 0.00581368 -1.84115e-05)
(-0.000134886 0.00611932 -1.50275e-07)
(-0.000162927 0.00659367 2.55348e-06)
(-0.00021266 0.00697824 -8.2897e-06)
(-0.000214607 0.00686943 -2.26873e-05)
(-8.38254e-07 0.000260127 2.53418e-07)
(-1.36261e-06 0.000286599 1.91914e-07)
(-2.13501e-06 0.000326487 3.70454e-08)
(-1.85724e-06 0.00036531 -5.89704e-08)
(-1.92397e-06 0.000402347 -2.33722e-08)
(-1.7749e-06 0.000436852 -5.371e-08)
(-1.72866e-06 0.000469561 -1.54255e-08)
(-1.581e-06 0.000502425 -8.8945e-11)
(-1.46907e-06 0.000531166 2.96005e-08)
(-1.27118e-06 0.000547873 4.09062e-08)
(-1.17109e-06 0.000553727 6.08244e-08)
(-1.05441e-06 0.000556694 8.05652e-08)
(-9.57528e-07 0.000558642 9.15682e-08)
(-8.70111e-07 0.000559618 1.07589e-07)
(-7.96889e-07 0.000560128 1.12722e-07)
(-7.60274e-07 0.000560427 1.08283e-07)
(-7.44226e-07 0.00056064 1.1236e-07)
(-7.49886e-07 0.000560819 1.08073e-07)
(-7.62461e-07 0.000560977 1.15195e-07)
(-7.78464e-07 0.000561114 1.09304e-07)
(-7.8875e-07 0.000561226 1.11727e-07)
(-7.94237e-07 0.000561314 1.02431e-07)
(-7.92708e-07 0.000561379 1.02416e-07)
(-7.89627e-07 0.000561426 9.3546e-08)
(-7.83424e-07 0.000561455 9.30746e-08)
(-7.76222e-07 0.000561474 8.50535e-08)
(-7.67464e-07 0.000561485 8.34396e-08)
(-7.5978e-07 0.000561493 7.58938e-08)
(-7.52475e-07 0.000561498 7.24947e-08)
(-7.46184e-07 0.000561502 6.6101e-08)
(-7.41045e-07 0.000561506 6.33233e-08)
(-7.37453e-07 0.000561517 5.93079e-08)
(-7.36618e-07 0.000561537 5.55804e-08)
(-7.38456e-07 0.000561571 5.20704e-08)
(-7.4375e-07 0.000561617 4.69293e-08)
(-7.51849e-07 0.000561679 4.37874e-08)
(-7.65132e-07 0.000561759 3.79778e-08)
(-7.80622e-07 0.000561847 3.47697e-08)
(-8.02111e-07 0.000561955 2.67375e-08)
(-8.31926e-07 0.000562109 2.56276e-08)
(-8.63825e-07 0.000562303 1.08183e-08)
(-8.98855e-07 0.000562553 8.19416e-10)
(-9.47379e-07 0.000562862 -2.37339e-08)
(-9.97465e-07 0.000563214 -3.83328e-08)
(-1.09985e-06 0.000563682 -6.9627e-08)
(-1.1716e-06 0.000563964 -7.21072e-08)
(-1.36477e-06 0.000565334 -8.24096e-08)
(-1.37223e-06 0.000569891 -8.76871e-08)
(-1.48237e-06 0.000588673 -3.6359e-07)
(-1.321e-06 0.000658017 -8.59046e-09)
(-1.35564e-06 0.000840309 3.31791e-07)
(3.09277e-07 0.0011158 1.3013e-06)
(8.11039e-06 0.00152486 5.65007e-06)
(7.86175e-06 0.00225985 1.3597e-06)
(-3.8891e-05 0.00323037 3.35105e-05)
(-7.26879e-05 0.00357944 5.67749e-05)
(4.7596e-05 0.00387523 0.000108114)
(-8.31382e-05 0.0026028 0.000103177)
(0.000607876 0.0238121 0.00248111)
(0.00223728 0.263631 0.0201965)
(0.000676023 0.587403 0.00417454)
(-0.00173063 0.497894 0.00102821)
(-0.000516694 0.505507 0.00177561)
(0.00169615 0.495926 0.00158471)
(0.00249678 0.485267 0.00136504)
(0.00398102 0.482866 0.000959198)
(0.00577622 0.485959 0.00135183)
(0.00338868 0.486679 7.43754e-05)
(0.00310804 0.502704 -0.000420886)
(0.00219423 0.484012 -0.000428918)
(0.00224664 0.494331 -0.000718894)
(0.000891484 0.489248 -7.94528e-05)
(0.00265457 0.491164 2.45886e-06)
(0.0034025 0.48001 0.00101213)
(0.00431891 0.463813 0.00153778)
(0.00371239 0.504796 0.000719777)
(0.00323071 0.495582 0.000882617)
(0.00312057 0.498063 -5.39914e-05)
(0.00230168 0.469405 0.000852914)
(0.00149269 0.475158 0.000784165)
(0.00218772 0.437092 0.000759141)
(0.000452559 0.381715 -0.000755731)
(-0.000397647 0.469222 -0.00154418)
(-0.00431162 0.48747 -0.00263716)
(-0.00777675 0.463108 -0.00407463)
(-0.0149899 0.491299 -0.0062108)
(-0.0197727 0.477203 -0.00712685)
(-0.0191245 0.477928 -0.00747537)
(-0.0195531 0.454337 -0.0116216)
(-0.016815 0.338641 -0.00863604)
(-0.000184118 0.0281796 5.20199e-05)
(-0.000123609 0.00475159 -4.88301e-06)
(-8.20881e-05 0.00372155 8.63333e-06)
(-8.4499e-05 0.00371444 1.97031e-05)
(-0.000191944 0.00377145 -8.00092e-07)
(-0.0003202 0.00380662 -3.44226e-05)
(-1.52044e-06 0.000244831 1.31363e-07)
(-2.15963e-06 0.000265716 7.96998e-08)
(-2.92829e-06 0.000299157 7.06184e-08)
(-2.31725e-06 0.000336792 -3.84756e-08)
(-2.21728e-06 0.000378667 -8.9963e-08)
(-1.92978e-06 0.000419665 -1.37802e-07)
(-1.83558e-06 0.000457911 -1.29335e-07)
(-1.61228e-06 0.000494173 -6.30752e-08)
(-1.52133e-06 0.000525639 -6.1395e-08)
(-1.25888e-06 0.000545884 -4.33965e-09)
(-1.16171e-06 0.000553442 2.19119e-08)
(-1.00352e-06 0.000556727 5.95265e-08)
(-9.1413e-07 0.000558851 5.89119e-08)
(-8.33795e-07 0.000559869 8.39028e-08)
(-8.05933e-07 0.000560373 9.34609e-08)
(-7.99393e-07 0.000560663 1.22245e-07)
(-8.02482e-07 0.000560861 1.21184e-07)
(-8.15087e-07 0.000561023 1.23482e-07)
(-8.29893e-07 0.000561158 1.1e-07)
(-8.42272e-07 0.000561264 1.06768e-07)
(-8.4933e-07 0.000561352 9.25497e-08)
(-8.5112e-07 0.000561424 8.7956e-08)
(-8.4821e-07 0.000561483 7.54276e-08)
(-8.39993e-07 0.000561523 7.15287e-08)
(-8.2725e-07 0.000561549 6.19415e-08)
(-8.12557e-07 0.000561562 5.85035e-08)
(-7.97197e-07 0.000561569 5.02617e-08)
(-7.83584e-07 0.000561574 4.78209e-08)
(-7.7227e-07 0.000561577 4.28577e-08)
(-7.63455e-07 0.000561579 4.13705e-08)
(-7.55256e-07 0.000561584 3.84272e-08)
(-7.48698e-07 0.000561593 3.63166e-08)
(-7.43889e-07 0.000561612 3.39231e-08)
(-7.42998e-07 0.000561641 3.04059e-08)
(-7.45245e-07 0.000561685 2.88455e-08)
(-7.52716e-07 0.000561741 2.41343e-08)
(-7.62881e-07 0.000561813 2.32015e-08)
(-7.82768e-07 0.000561894 1.58903e-08)
(-8.08517e-07 0.000562005 1.4856e-08)
(-8.42443e-07 0.000562147 5.10138e-09)
(-8.91837e-07 0.000562339 1.80045e-09)
(-9.55289e-07 0.000562586 -1.42143e-08)
(-1.03542e-06 0.000562901 -2.34908e-08)
(-1.12807e-06 0.000563224 -4.4298e-08)
(-1.30355e-06 0.000563718 -5.3121e-08)
(-1.39103e-06 0.000563945 -9.15227e-08)
(-1.65381e-06 0.000565259 -7.02955e-08)
(-1.60427e-06 0.000569842 -9.61976e-08)
(-2.04521e-06 0.000589253 -3.26399e-07)
(-2.02811e-06 0.000656231 4.44184e-08)
(-3.24802e-06 0.00087236 5.31762e-07)
(-3.40472e-06 0.00124637 1.87371e-06)
(4.62001e-06 0.00157794 3.2233e-06)
(9.80013e-06 0.00199798 2.87824e-06)
(-1.19603e-05 0.00289675 2.51604e-05)
(-3.34427e-05 0.00347855 5.57455e-05)
(-1.30402e-05 0.00378773 7.51078e-05)
(-3.53669e-05 0.0026785 0.000101424)
(0.000670426 0.0240891 0.00235337)
(-0.0027748 0.2771 0.0212674)
(-0.000182612 0.59584 0.00437524)
(-0.000340932 0.491598 0.00179729)
(0.00190949 0.433478 0.00184238)
(0.00425456 0.496262 0.00238588)
(0.0042428 0.510175 0.00030868)
(0.00480532 0.496117 0.00100988)
(0.00396851 0.405629 -0.000249929)
(0.00237445 0.419813 0.000204987)
(0.00289375 0.494455 -0.00032886)
(0.00361169 0.486076 -0.000651343)
(0.00220698 0.454987 -0.00122196)
(0.00234363 0.495456 -0.00157664)
(0.00180106 0.495838 -0.00192457)
(0.00120779 0.498957 -0.00141835)
(0.00111484 0.502125 -0.000619051)
(0.00243355 0.484009 0.000745782)
(0.00440578 0.476129 0.00234828)
(0.00501881 0.491003 0.00168788)
(0.00611373 0.500207 0.0023538)
(0.00420313 0.499059 0.002033)
(0.0038927 0.50199 0.00221413)
(0.00237536 0.492947 0.00119376)
(0.00068913 0.495668 -0.00098083)
(0.000927126 0.48128 -0.00146981)
(-0.00441404 0.47106 -0.0061786)
(-0.0098984 0.42632 -0.0097594)
(-0.0162846 0.459055 -0.012372)
(-0.0167425 0.495839 -0.00975551)
(-0.022095 0.47995 -0.0089168)
(-0.0201209 0.470712 -0.000329856)
(-0.0289062 0.488542 0.00729592)
(-0.0350118 0.468639 0.00481699)
(-0.0371988 0.454637 -0.00174913)
(-0.0337315 0.429565 -0.00747453)
(-0.0199877 0.426918 -0.00904986)
(-0.00836851 0.408294 -0.00808339)
(-2.0166e-06 0.000228508 -2.32567e-07)
(-3.43961e-06 0.000245671 -1.661e-08)
(-3.91292e-06 0.000270922 9.18012e-08)
(-2.92479e-06 0.000303776 1.32686e-07)
(-2.56367e-06 0.00034869 -1.49207e-07)
(-2.04808e-06 0.00039888 -1.17964e-07)
(-1.82074e-06 0.000448389 -1.25874e-07)
(-1.54747e-06 0.000490936 -6.11429e-08)
(-1.47822e-06 0.000522644 -7.1491e-08)
(-1.24533e-06 0.000543796 -3.08817e-08)
(-1.14017e-06 0.000552655 -1.70531e-09)
(-9.73544e-07 0.000556387 3.21072e-08)
(-9.14588e-07 0.000558751 7.26502e-08)
(-8.54779e-07 0.000559854 1.12855e-07)
(-8.35152e-07 0.000560373 1.50971e-07)
(-8.43759e-07 0.000560676 1.83751e-07)
(-8.71416e-07 0.00056088 2.18054e-07)
(-8.98909e-07 0.000561041 2.35419e-07)
(-9.25871e-07 0.000561184 2.50297e-07)
(-9.41618e-07 0.000561317 2.49078e-07)
(-9.5586e-07 0.000561433 2.45394e-07)
(-9.60081e-07 0.000561526 2.32806e-07)
(-9.62501e-07 0.000561599 2.25305e-07)
(-9.57794e-07 0.000561655 2.13241e-07)
(-9.52671e-07 0.000561696 2.06004e-07)
(-9.44226e-07 0.000561725 1.96145e-07)
(-9.38788e-07 0.000561746 1.90587e-07)
(-9.32148e-07 0.00056176 1.8362e-07)
(-9.28438e-07 0.000561765 1.79613e-07)
(-9.24111e-07 0.00056177 1.75721e-07)
(-9.2089e-07 0.000561776 1.73587e-07)
(-9.18551e-07 0.000561788 1.71344e-07)
(-9.2057e-07 0.000561807 1.68013e-07)
(-9.25939e-07 0.000561837 1.6467e-07)
(-9.3612e-07 0.000561879 1.58049e-07)
(-9.52451e-07 0.000561938 1.52664e-07)
(-9.74529e-07 0.000562007 1.43864e-07)
(-1.008e-06 0.00056209 1.37883e-07)
(-1.05048e-06 0.000562199 1.28445e-07)
(-1.10963e-06 0.000562333 1.22001e-07)
(-1.1768e-06 0.000562521 1.10916e-07)
(-1.26499e-06 0.000562758 1.04035e-07)
(-1.36758e-06 0.000563072 9.87441e-08)
(-1.48892e-06 0.000563366 9.37885e-08)
(-1.68684e-06 0.000563862 1.19101e-07)
(-1.82551e-06 0.000563967 7.77009e-08)
(-2.09923e-06 0.000565132 1.57417e-07)
(-2.09915e-06 0.000568701 -2.19873e-08)
(-2.82472e-06 0.000590311 -8.26881e-08)
(-2.90998e-06 0.000651416 -3.80446e-08)
(-4.41191e-06 0.000870682 7.61601e-07)
(-6.11586e-06 0.00129615 2.53077e-06)
(-4.57196e-06 0.00171898 4.11158e-06)
(9.96043e-08 0.00207543 4.02264e-06)
(-1.52523e-05 0.00269381 3.96583e-05)
(-7.55866e-06 0.00327561 6.25152e-05)
(-3.90557e-05 0.0037593 0.000135228)
(0.000126183 0.00290302 0.000137839)
(0.000752456 0.0264427 0.00136218)
(-0.00593233 0.275943 0.0209391)
(0.00396197 0.58398 0.00115024)
(0.00263935 0.488481 0.00310953)
(0.00665869 0.491552 0.0023067)
(0.00619812 0.479111 0.0013401)
(0.00832584 0.44423 -0.00106977)
(0.00180645 0.425547 -0.000160654)
(0.00627325 0.472793 -0.000474192)
(0.00228471 0.495202 -0.000166625)
(0.0039531 0.485802 -2.89861e-05)
(0.00330628 0.49168 0.000301939)
(0.0035509 0.49165 0.00010968)
(0.00376839 0.492457 -0.000634555)
(0.00418088 0.492732 -0.00201777)
(0.00308212 0.489328 -0.00332776)
(0.00153925 0.47881 -0.00432541)
(-0.00026298 0.427747 -0.001197)
(0.00252502 0.505867 0.000580579)
(0.00483527 0.529011 0.00277413)
(0.00604552 0.506233 0.00382719)
(0.00713392 0.497543 0.00395717)
(0.0092225 0.510753 0.00457309)
(0.00853238 0.510675 0.00409413)
(0.0072959 0.500998 0.00285356)
(0.00383082 0.502224 0.00114105)
(-0.000172186 0.500321 -0.000601834)
(-0.00342753 0.496543 -0.00269467)
(-0.0106331 0.494049 -0.00859436)
(-0.0188291 0.495316 -0.013566)
(-0.0176052 0.454922 -0.0115441)
(-0.0226347 0.476837 -0.00858628)
(-0.0272008 0.476178 0.00161723)
(-0.0264663 0.451876 0.00547822)
(-0.01766 0.467878 0.000445301)
(-0.0156708 0.480232 0.000719971)
(-0.00947797 0.486147 0.00563756)
(0.00529429 0.45631 0.0147486)
(-5.82207e-06 0.00010478 -2.6285e-06)
(-5.38323e-06 0.000234346 -5.03388e-07)
(-5.1561e-06 0.000247217 -1.36964e-07)
(-3.45555e-06 0.000273521 1.07296e-07)
(-2.77324e-06 0.000316979 -2.24617e-07)
(-2.02622e-06 0.000373251 -1.81275e-07)
(-1.62516e-06 0.000433157 -3.66714e-07)
(-1.36949e-06 0.000483121 -2.04433e-07)
(-1.25625e-06 0.000517208 -2.31522e-07)
(-1.11314e-06 0.000539663 -2.2064e-07)