/*--------------------------------*- C++ -*----------------------------------*\
| =========                 |                                                 |
| \\      /  F ield         | OpenFOAM: The Open Source CFD Toolbox           |
|  \\    /   O peration     | Version:  2.3.0                                 |
|   \\  /    A nd           | Web:      www.OpenFOAM.org                      |
|    \\/     M anipulation  |                                                 |
\*---------------------------------------------------------------------------*/
FoamFile
{
    version     2.0;
    format      ascii;
    class       volVectorField;
    location    "36";
    object      Ur;
}
// * * * * * * * * * * * * * * * * * * * * * * * * * * * * * * * * * * * * * //

dimensions      [0 1 -1 0 0 0 0];

internalField   nonuniform List<vector> 
6144
(
(-2.85595e-07 0.000396644 -3.1443e-07)
(-3.15065e-07 0.000429539 -4.97582e-07)
(9.72845e-08 0.000469862 -3.38947e-07)
(3.78677e-07 0.000506323 -1.86263e-07)
(5.52523e-07 0.000543408 -7.76981e-08)
(6.55782e-07 0.000583321 -5.17165e-08)
(6.84319e-07 0.000623311 -1.82318e-08)
(6.51157e-07 0.000661499 1.01331e-08)
(5.95151e-07 0.000690678 4.54517e-08)
(5.10733e-07 0.00070322 3.85411e-08)
(4.21597e-07 0.0007044 1.83518e-08)
(3.33223e-07 0.000702749 2.28747e-08)
(2.42866e-07 0.000701073 3.02362e-08)
(1.64437e-07 0.000699613 2.58478e-08)
(1.00496e-07 0.000698358 2.25975e-08)
(4.4679e-08 0.000697294 1.44911e-08)
(8.22714e-09 0.000696423 9.28019e-09)
(-2.76563e-08 0.00069574 6.01485e-10)
(-5.34308e-08 0.000695216 -3.97046e-09)
(-7.98666e-08 0.000694818 -1.20144e-08)
(-9.45819e-08 0.000694526 -1.47024e-08)
(-1.15688e-07 0.000694323 -2.13155e-08)
(-1.23308e-07 0.000694199 -2.12412e-08)
(-1.40394e-07 0.000694141 -2.50567e-08)
(-1.4289e-07 0.000694143 -2.32609e-08)
(-1.57527e-07 0.000694196 -2.68204e-08)
(-1.55916e-07 0.000694299 -2.45593e-08)
(-1.68757e-07 0.000694441 -2.95392e-08)
(-1.63445e-07 0.000694621 -2.79604e-08)
(-1.75158e-07 0.000694834 -3.60779e-08)
(-1.65156e-07 0.000695084 -3.71695e-08)
(-1.73835e-07 0.000695366 -4.8383e-08)
(-1.56428e-07 0.000695689 -5.07987e-08)
(-1.596e-07 0.000696047 -6.5771e-08)
(-1.31489e-07 0.000696453 -7.21353e-08)
(-1.2498e-07 0.000696906 -9.54138e-08)
(-7.94999e-08 0.000697417 -1.10378e-07)
(-5.50897e-08 0.000697974 -1.44434e-07)
(1.86425e-08 0.000698579 -1.6918e-07)
(7.46584e-08 0.000699225 -2.18505e-07)
(1.94337e-07 0.000699929 -2.62336e-07)
(3.00805e-07 0.000700703 -3.35241e-07)
(4.90121e-07 0.000701591 -4.08593e-07)
(6.67816e-07 0.000704606 -5.26754e-07)
(9.79249e-07 0.000719094 -6.21523e-07)
(1.45514e-06 0.000797018 -6.38336e-07)
(9.17728e-07 0.00109614 -5.65528e-07)
(1.00121e-06 0.00174587 -1.20358e-06)
(6.01476e-06 0.00259707 -2.40037e-06)
(6.92239e-06 0.00333463 5.97894e-07)
(-1.29968e-05 0.00379484 -1.70487e-05)
(-3.86634e-05 0.00395273 -1.79921e-05)
(-6.46855e-05 0.00388458 -8.70019e-06)
(-9.79068e-05 0.0037872 2.54636e-06)
(-0.000138201 0.00387186 2.34063e-05)
(-8.29959e-05 0.00407569 4.14137e-05)
(-0.000185675 0.00444992 4.47576e-05)
(5.32457e-05 0.00585487 7.6896e-05)
(-0.00111595 0.0178462 -0.000615721)
(0.00577829 0.122443 0.000821866)
(-0.0311043 0.611878 -0.0113587)
(-0.056994 0.542153 -0.010925)
(-0.0425792 0.239073 0.00178751)
(-5.18106e-05 0.0299449 7.61367e-05)
(-6.58185e-05 0.00630534 3.37993e-05)
(-2.53168e-05 0.00648478 -5.9751e-08)
(-2.23982e-05 0.00643853 -3.59654e-06)
(-3.01695e-05 0.00640745 -7.21757e-06)
(-4.19324e-05 0.00640346 -1.97119e-05)
(-4.61627e-05 0.00642139 -2.60851e-05)
(-4.52411e-05 0.0064227 -3.54995e-05)
(-3.10101e-05 0.00641196 -4.44931e-05)
(1.05015e-05 0.00642273 -3.44154e-05)
(9.07416e-07 0.00641975 -5.46969e-05)
(-2.69483e-05 0.00640944 -7.80071e-05)
(-1.11827e-05 0.00647937 -3.29092e-05)
(2.40125e-05 0.00654212 -5.82404e-06)
(3.05599e-05 0.00657917 -1.3318e-05)
(-1.54598e-05 0.00661392 4.08358e-07)
(-7.01507e-05 0.0066435 1.61625e-05)
(-7.49314e-05 0.00675902 3.02123e-05)
(-6.39763e-05 0.00678044 9.31293e-06)
(-7.44817e-05 0.0067506 -4.33391e-05)
(-6.25329e-05 0.00677709 -3.16516e-05)
(-3.08e-05 0.00676166 -3.26159e-06)
(-2.44536e-05 0.00672927 4.53686e-06)
(-2.90893e-05 0.00659456 3.67715e-06)
(-7.31177e-06 0.00636836 -5.23568e-06)
(1.64716e-06 0.00618054 -1.53673e-06)
(3.01798e-06 0.00589855 -2.25562e-06)
(1.62989e-06 0.00557929 -4.14823e-06)
(-8.90705e-07 0.00529741 -4.11212e-06)
(-1.2482e-06 0.0049107 -3.39474e-06)
(-1.29516e-06 0.00436055 -3.59375e-06)
(4.04992e-07 0.00392502 -1.80897e-06)
(7.63267e-07 0.00379553 -8.04174e-07)
(-1.2466e-07 0.00037387 -3.97533e-07)
(1.81386e-07 0.000419722 -5.63645e-07)
(8.01716e-07 0.000482424 -3.63817e-07)
(1.28568e-06 0.000531454 -1.25289e-07)
(1.63658e-06 0.000570308 -2.03594e-08)
(1.92232e-06 0.000603966 8.99295e-09)
(1.94755e-06 0.000633412 2.63089e-08)
(1.83444e-06 0.000663986 5.21818e-08)
(1.61687e-06 0.000690413 5.81565e-08)
(1.35891e-06 0.000702784 5.82043e-08)
(1.09235e-06 0.000704098 4.42175e-08)
(8.39479e-07 0.000702597 4.51719e-08)
(5.88999e-07 0.000701056 5.56926e-08)
(3.70605e-07 0.000699767 6.85234e-08)
(1.99178e-07 0.000698637 6.43651e-08)
(6.23497e-08 0.000697629 6.1318e-08)
(-3.61413e-08 0.000696779 4.65039e-08)
(-1.20251e-07 0.0006961 3.86634e-08)
(-1.83905e-07 0.000695576 2.54707e-08)
(-2.42194e-07 0.000695181 1.90813e-08)
(-2.89656e-07 0.000694882 7.95238e-09)
(-3.35821e-07 0.000694672 9.71981e-09)
(-3.68484e-07 0.000694547 1.05566e-09)
(-4.02859e-07 0.000694491 6.34851e-09)
(-4.24545e-07 0.000694498 -1.33405e-09)
(-4.5014e-07 0.000694565 5.9329e-09)
(-4.62774e-07 0.00069468 -2.84175e-09)
(-4.82653e-07 0.000694834 6.88297e-09)
(-4.88395e-07 0.000695024 -1.48184e-09)
(-5.00066e-07 0.000695252 8.3012e-09)
(-4.93112e-07 0.000695519 -4.08192e-09)
(-4.89342e-07 0.000695826 4.63023e-09)
(-4.59695e-07 0.000696172 -1.18656e-08)
(-4.2898e-07 0.00069656 -4.24663e-09)
(-3.6444e-07 0.000696991 -2.59971e-08)
(-2.92196e-07 0.000697467 -2.1669e-08)
(-1.69749e-07 0.000697987 -5.31086e-08)
(-2.52791e-08 0.000698548 -5.76308e-08)
(1.9074e-07 0.000699155 -1.06449e-07)
(4.48588e-07 0.000699813 -1.28e-07)
(8.10272e-07 0.000700545 -2.07372e-07)
(1.23538e-06 0.000701398 -2.59872e-07)
(1.80363e-06 0.00070282 -3.7011e-07)
(2.49874e-06 0.000707559 -4.46198e-07)
(3.52867e-06 0.000722777 -5.15287e-07)
(5.35629e-06 0.00082387 -4.52346e-07)
(6.81232e-06 0.00123674 1.17884e-06)
(1.25422e-05 0.00199529 7.59677e-07)
(1.94066e-05 0.00272714 -1.29571e-06)
(1.82552e-05 0.00328966 -7.11636e-07)
(-1.82037e-05 0.0037819 -2.02721e-05)
(-3.1825e-05 0.00396216 -1.27378e-05)
(-5.05506e-05 0.00382154 -1.5958e-05)
(-0.000119743 0.0036563 -8.27974e-06)
(-0.000165515 0.00377915 3.73011e-05)
(-0.00016846 0.00389429 3.04487e-05)
(-0.000410949 0.00471529 2.11601e-05)
(-3.50384e-06 0.00567812 7.91137e-05)
(-0.00127753 0.0150057 0.000117993)
(0.0137747 0.110668 0.00222697)
(-0.0836359 0.629099 -0.00125526)
(-0.0742567 0.347973 -0.00583018)
(-0.0043976 0.0203419 -0.000213997)
(-1.54208e-05 0.00666222 0.0001082)
(-0.000147926 0.00648055 3.26207e-05)
(-3.02819e-05 0.00647164 6.70969e-06)
(-5.1025e-05 0.00645479 5.4364e-06)
(-5.10935e-05 0.0065046 -1.55981e-05)
(-2.56936e-05 0.00656823 -6.13759e-05)
(1.50478e-05 0.00659297 -8.01182e-05)
(8.0295e-05 0.00658474 -7.54601e-05)
(0.000114527 0.00656728 -8.77069e-05)
(4.65059e-05 0.0065149 -0.000120363)
(-2.42082e-05 0.0064532 -7.35593e-05)
(-2.39745e-05 0.0064518 -2.95202e-05)
(-4.83485e-05 0.00647998 -4.56468e-05)
(-8.7878e-05 0.00650493 -9.19949e-05)
(-7.30502e-05 0.00652019 -8.19359e-05)
(-5.46149e-05 0.00648139 4.68643e-05)
(-9.6513e-05 0.00653446 0.000101518)
(-0.000126968 0.00669166 9.04232e-05)
(-0.000102308 0.00674874 6.49856e-05)
(-8.63037e-05 0.00677247 3.49454e-05)
(-8.70676e-05 0.00682002 -2.98725e-06)
(-7.65921e-05 0.00679895 -2.21091e-05)
(-6.01683e-05 0.00674916 -1.44583e-05)
(-3.55662e-05 0.00677893 3.48383e-06)
(2.75345e-05 0.00692812 -1.22488e-05)
(2.74165e-05 0.00702577 -1.18637e-05)
(6.19148e-06 0.00695768 -6.82501e-06)
(-4.45136e-07 0.00671958 -7.83221e-06)
(-2.51283e-06 0.00637391 -5.83487e-06)
(-3.40537e-06 0.00608046 -5.96577e-06)
(-4.35239e-06 0.00569357 -5.0422e-06)
(-5.91344e-06 0.00492328 -1.95618e-06)
(-7.24893e-07 0.00409229 -2.53285e-07)
(4.07869e-07 0.000363405 -4.76104e-07)
(1.33484e-06 0.000405898 -4.28289e-07)
(1.85306e-06 0.000473159 -2.76479e-07)
(2.31665e-06 0.000531304 -3.79379e-08)
(2.66937e-06 0.000577303 9.65058e-08)
(2.93942e-06 0.000611312 8.9355e-08)
(2.92021e-06 0.000637187 1.12384e-07)
(2.71811e-06 0.000662038 1.21798e-07)
(2.35084e-06 0.000682733 1.26369e-07)
(1.93492e-06 0.000694906 1.16383e-07)
(1.49797e-06 0.000699092 1.00649e-07)
(1.05511e-06 0.000699825 9.74182e-08)
(6.54935e-07 0.000699665 1.00727e-07)
(3.07704e-07 0.000699076 1.03793e-07)
(4.13809e-08 0.000698258 1.03985e-07)
(-1.73388e-07 0.000697399 9.90394e-08)
(-3.27764e-07 0.000696624 9.39272e-08)
(-4.58842e-07 0.000695987 8.68551e-08)
(-5.51729e-07 0.000695491 8.2918e-08)
(-6.37968e-07 0.000695114 7.78333e-08)
(-7.01889e-07 0.000694833 7.52047e-08)
(-7.65751e-07 0.000694639 7.17561e-08)
(-8.13323e-07 0.000694524 7.13559e-08)
(-8.65287e-07 0.000694475 6.98018e-08)
(-9.02061e-07 0.000694487 7.0692e-08)
(-9.45078e-07 0.000694553 6.97901e-08)
(-9.71178e-07 0.000694667 7.08113e-08)
(-1.0031e-06 0.000694824 6.923e-08)
(-1.0141e-06 0.000695021 6.89469e-08)
(-1.02927e-06 0.000695257 6.56409e-08)
(-1.01637e-06 0.000695533 6.40982e-08)
(-1.00226e-06 0.000695849 5.91489e-08)
(-9.50482e-07 0.000696208 5.46284e-08)
(-8.90471e-07 0.000696607 4.43165e-08)
(-7.74931e-07 0.000697051 3.48675e-08)
(-6.34428e-07 0.000697545 1.96857e-08)
(-4.16417e-07 0.000698094 3.81948e-09)
(-1.50567e-07 0.0006987 -1.95654e-08)
(2.25218e-07 0.000699381 -4.57932e-08)
(6.75563e-07 0.000700172 -8.4177e-08)
(1.26699e-06 0.000701113 -1.31877e-07)
(1.96689e-06 0.000702385 -1.98917e-07)
(2.83572e-06 0.000705258 -2.84256e-07)
(3.8929e-06 0.000717242 -3.83026e-07)
(5.36605e-06 0.000763535 -4.38528e-07)
(7.8614e-06 0.000909176 -5.17266e-07)
(1.48646e-05 0.00131014 2.05677e-06)
(2.5257e-05 0.0020078 2.82037e-06)
(3.08435e-05 0.0027021 -4.59181e-07)
(2.76798e-05 0.00324764 -1.0312e-05)
(-4.18087e-06 0.00377667 -1.33879e-05)
(-5.20174e-06 0.00397524 -1.03932e-05)
(2.13301e-05 0.00383609 -3.23689e-05)
(3.44449e-05 0.00362283 2.60093e-07)
(1.62709e-05 0.00360615 2.64418e-05)
(-0.000171774 0.00364989 7.11468e-05)
(-0.000223612 0.0050998 2.94982e-05)
(0.000315873 0.00684351 0.000206057)
(-0.00119421 0.0153833 0.000521548)
(0.024654 0.138674 -0.00272909)
(-0.0308318 0.614429 0.00373164)
(0.00494373 0.327883 -0.00305645)
(0.000591234 0.0217977 4.94162e-05)
(-0.000296937 0.00603019 6.46283e-06)
(9.86847e-05 0.00658058 -6.99721e-06)
(-0.000280585 0.00771208 -3.01111e-05)
(-0.000153357 0.00903901 -9.72556e-05)
(4.05546e-05 0.0091272 -0.000105848)
(7.29027e-05 0.0082048 -0.000113061)
(-0.000135854 0.00802147 -9.90137e-05)
(-0.000272407 0.00873194 -9.76788e-05)
(-0.000230368 0.00972603 -0.000120249)
(-0.000271815 0.00992726 -9.36612e-05)
(-0.000239129 0.00846731 -5.65481e-05)
(-3.14875e-05 0.00719467 -3.7052e-05)
(-3.21859e-05 0.00675935 -4.31522e-05)
(-6.39729e-05 0.00654686 -2.41734e-05)
(-8.32526e-05 0.00645435 -6.97622e-06)
(-6.58877e-05 0.00648223 8.20222e-06)
(-4.64172e-05 0.00658051 2.87784e-05)
(-5.56736e-05 0.00670561 5.10953e-05)
(-9.19163e-05 0.00676106 1.77538e-05)
(-0.000115033 0.0067825 -3.34397e-05)
(-0.000101792 0.0067926 -2.34727e-05)
(-7.05745e-05 0.00678453 -7.53357e-06)
(-4.59085e-05 0.00682683 4.77836e-06)
(1.8195e-06 0.00698629 2.41006e-06)
(5.6656e-05 0.00711054 -2.54223e-05)
(2.37655e-05 0.00704531 -1.29541e-05)
(-2.04257e-06 0.00710356 -8.78602e-06)
(-5.55021e-06 0.00724771 -7.16159e-06)
(-3.34361e-06 0.00694077 -1.00428e-05)
(-1.0464e-05 0.00624779 -4.02318e-06)
(-1.59627e-05 0.0055675 -6.99852e-06)
(-1.22905e-05 0.00478885 -4.8008e-06)
(-5.43117e-06 0.00399856 -8.67065e-07)
(7.97924e-07 0.000358153 -1.10845e-07)
(2.36385e-06 0.000387965 -4.40017e-08)
(2.88107e-06 0.000444581 -6.66455e-08)
(3.3824e-06 0.000506644 1.23685e-07)
(3.65453e-06 0.000567798 2.12015e-07)
(3.84334e-06 0.000610109 1.8045e-07)
(3.70518e-06 0.000634755 1.67252e-07)
(3.39726e-06 0.000657273 1.50558e-07)
(2.89352e-06 0.000676635 1.42917e-07)
(2.33673e-06 0.000689326 1.37289e-07)
(1.74477e-06 0.000695403 1.22383e-07)
(1.1773e-06 0.000697844 1.16638e-07)
(6.55012e-07 0.000698594 1.07634e-07)
(2.15196e-07 0.000698371 1.16903e-07)
(-1.45461e-07 0.0006977 1.07417e-07)
(-4.3184e-07 0.000696923 1.10417e-07)
(-6.59771e-07 0.000696201 9.90135e-08)
(-8.38391e-07 0.000695601 1.02158e-07)
(-9.86209e-07 0.000695137 9.09921e-08)
(-1.10083e-06 0.000694785 9.60324e-08)
(-1.20052e-06 0.000694522 8.52503e-08)
(-1.27831e-06 0.000694339 9.2071e-08)
(-1.35346e-06 0.000694227 8.08947e-08)
(-1.41285e-06 0.000694178 8.93162e-08)
(-1.47486e-06 0.000694186 7.72591e-08)
(-1.52176e-06 0.000694247 8.67316e-08)
(-1.57133e-06 0.000694357 7.25594e-08)
(-1.60197e-06 0.000694516 8.23121e-08)
(-1.6338e-06 0.000694719 6.5177e-08)
(-1.64169e-06 0.000694972 7.53548e-08)
(-1.64467e-06 0.000695272 5.55639e-08)
(-1.61299e-06 0.000695624 6.56244e-08)
(-1.56639e-06 0.000696025 4.02123e-08)
(-1.4699e-06 0.00069648 4.84006e-08)
(-1.34022e-06 0.000696992 1.5531e-08)
(-1.13413e-06 0.00069757 1.9695e-08)
(-8.71182e-07 0.000698217 -1.99591e-08)
(-4.99895e-07 0.00069894 -1.93861e-08)
(-3.67651e-08 0.000699752 -7.02958e-08)
(5.56867e-07 0.000700683 -7.21302e-08)
(1.25808e-06 0.000701773 -1.17215e-07)
(2.0732e-06 0.000703341 -1.02432e-07)
(2.96893e-06 0.000707882 -9.92793e-08)
(3.86592e-06 0.000746356 1.83232e-08)
(4.72572e-06 0.00087377 3.15201e-09)
(7.18061e-06 0.00110914 4.17451e-08)
(1.78502e-05 0.00148926 1.97961e-06)
(3.40807e-05 0.00204477 2.79456e-06)
(3.78181e-05 0.00257573 -1.96434e-06)
(3.26166e-05 0.00300047 -1.577e-05)
(5.72793e-06 0.00357861 -1.39729e-05)
(7.34751e-06 0.0039744 -2.1614e-05)
(8.68372e-05 0.00398113 -3.43339e-05)
(0.000206799 0.00379646 -4.47818e-05)
(0.000326574 0.0036037 -8.5654e-05)
(0.000346797 0.00369473 0.000104982)
(0.000707455 0.00625702 -0.000274609)
(0.00132546 0.00800998 -4.97654e-05)
(-0.00105495 0.0124188 0.00086319)
(0.0311268 0.158056 -0.00474634)
(-0.0339547 0.696654 -0.00687944)
(-0.0135895 0.513683 0.00668909)
(-0.0216841 0.542804 0.000952836)
(-0.00177238 0.517857 -0.00662636)
(0.00185337 0.534729 -0.00827952)
(0.0134754 0.530485 -0.0067309)
(0.0115352 0.535132 -0.00469264)
(0.0103814 0.547389 -0.00411316)
(0.010544 0.551404 -0.00107793)
(0.0122382 0.542761 0.00341535)
(0.0127538 0.530476 0.00354159)
(0.0034932 0.51702 0.00470273)
(-0.0110955 0.48372 0.00724001)
(-0.0198168 0.345246 0.00423362)
(-9.81399e-05 0.0290074 -0.000245197)
(-3.27077e-05 0.00807496 -0.000369917)
(8.89987e-06 0.00754463 -1.01812e-05)
(7.43769e-05 0.00651872 3.51995e-05)
(0.000229015 0.0063312 4.48058e-05)
(0.000238145 0.00639122 2.02998e-05)
(7.22142e-05 0.0064517 -2.72788e-05)
(-0.000104761 0.00644093 -5.42311e-05)
(-0.000139504 0.00646347 -2.019e-05)
(-0.000103615 0.00650879 3.52517e-05)
(-0.000203712 0.00666913 1.08221e-05)
(-0.000120078 0.00701124 -1.26136e-06)
(2.06395e-05 0.00727368 -2.46992e-05)
(3.30025e-05 0.007084 -2.08815e-05)
(1.51008e-05 0.0067937 -6.38928e-06)
(-5.72192e-06 0.00705254 -7.17069e-06)
(-1.12163e-05 0.00772226 -9.82198e-06)
(-1.3517e-05 0.00757654 -9.91861e-06)
(-2.29724e-05 0.00642683 -3.30115e-06)
(-2.26302e-05 0.0053308 -1.21208e-05)
(-1.00393e-05 0.0045143 -4.84866e-06)
(-4.65886e-06 0.00390102 -8.96718e-07)
(9.97392e-07 0.000355204 1.18219e-07)
(3.17716e-06 0.000374949 2.70861e-07)
(3.76138e-06 0.000418459 1.56958e-09)
(4.36602e-06 0.000475188 1.18416e-07)
(4.56039e-06 0.000542986 3.2174e-07)
(4.70413e-06 0.0005975 2.71017e-07)
(4.35266e-06 0.000629122 2.00997e-07)
(3.92318e-06 0.000652545 1.49519e-07)
(3.26972e-06 0.000671308 1.30337e-07)
(2.57764e-06 0.000684492 1.2633e-07)
(1.8777e-06 0.000692262 1.21961e-07)
(1.22923e-06 0.000696309 1.016e-07)
(6.4256e-07 0.0006979 9.87022e-08)
(1.2805e-07 0.000697981 9.4091e-08)
(-2.91831e-07 0.000697435 9.91296e-08)
(-6.47978e-07 0.000696736 8.90822e-08)
(-9.2744e-07 0.000696088 9.43079e-08)
(-1.16451e-06 0.000695556 8.29031e-08)
(-1.35112e-06 0.000695144 8.84837e-08)
(-1.51215e-06 0.000694833 7.49991e-08)
(-1.63744e-06 0.000694606 8.01688e-08)
(-1.74954e-06 0.000694448 6.51446e-08)
(-1.83759e-06 0.000694355 7.11021e-08)
(-1.92115e-06 0.000694317 5.54187e-08)
(-1.98578e-06 0.000694333 6.25149e-08)
(-2.04986e-06 0.000694397 4.52432e-08)
(-2.09551e-06 0.00069451 5.29718e-08)
(-2.14069e-06 0.000694666 3.33312e-08)
(-2.16513e-06 0.000694869 4.15644e-08)
(-2.18541e-06 0.000695116 1.9418e-08)
(-2.17522e-06 0.000695415 2.80194e-08)
(-2.14894e-06 0.000695766 1.26398e-09)
(-2.07762e-06 0.00069618 7.15182e-09)
(-1.97338e-06 0.00069666 -2.60493e-08)
(-1.80327e-06 0.000697219 -2.28025e-08)
(-1.57463e-06 0.000697859 -6.26406e-08)
(-1.24646e-06 0.000698594 -5.89841e-08)
(-8.25042e-07 0.000699422 -9.6104e-08)
(-2.70789e-07 0.000700349 -7.98998e-08)
(4.0323e-07 0.000701385 -8.23844e-08)
(1.19649e-06 0.000702645 -7.87792e-10)
(2.04225e-06 0.000704288 1.23182e-07)
(2.85426e-06 0.000725326 4.78708e-07)
(3.61453e-06 0.000849523 1.24482e-06)
(4.0613e-06 0.00114729 2.13575e-06)
(8.23874e-06 0.00151058 1.99267e-06)
(2.11007e-05 0.00181697 1.73784e-06)
(3.42315e-05 0.00214638 -8.39698e-07)
(3.84845e-05 0.00248285 -4.53742e-06)
(3.34783e-05 0.00277362 -1.2628e-05)
(1.92854e-05 0.00330032 -1.39473e-05)
(-1.83952e-07 0.00394356 -2.70354e-05)
(6.97812e-05 0.00416019 -4.67385e-05)
(0.000187921 0.00403416 -0.000109153)
(0.000316709 0.00391765 -0.000174709)
(0.000396892 0.00421563 -0.000140837)
(5.45399e-05 0.00704857 -0.000364801)
(0.00138853 0.00832615 -0.000853263)
(0.000155211 0.0108645 1.26366e-05)
(0.0281598 0.179379 -0.00628921)
(-0.0196862 0.700431 -0.00826361)
(-0.00188259 0.529392 0.00617755)
(-0.0133248 0.553755 0.00189007)
(-0.00871083 0.534937 0.00130846)
(-0.00476504 0.532547 -0.000915756)
(-0.0055146 0.537382 -0.00338463)
(-0.00562263 0.547456 -0.00736125)
(-0.00272442 0.548028 -0.00906124)
(0.00801431 0.547835 -0.00513411)
(0.0207048 0.547053 0.00433981)
(0.0155811 0.538136 -0.00220261)
(-0.00609475 0.537703 -0.000962701)
(-0.0180877 0.520748 0.00561159)
(-0.0281032 0.52271 0.00349468)
(-0.0119834 0.540934 -0.0036063)
(-0.00694513 0.54346 -0.000552824)
(-0.019503 0.539437 0.00612792)
(-0.0312946 0.53686 0.00899385)
(-0.0262682 0.523617 0.00161161)
(-0.0126763 0.51756 -0.00347453)
(-0.00515239 0.505889 -0.000139747)
(-0.000368975 0.500174 0.00418866)
(0.00297141 0.495689 0.00241445)
(0.00711558 0.487813 -0.00156459)
(0.0123386 0.464175 -0.00839114)
(0.0191147 0.335742 -0.00689866)
(-0.000155572 0.0294819 -4.40389e-05)
(-0.000227918 0.00762065 -7.91098e-05)
(-0.000209269 0.00780631 -0.000240791)
(-0.000270258 0.00869262 -0.000292778)
(-0.000327745 0.00946964 -0.000292722)
(-0.00026118 0.0087297 -0.00021155)
(-0.000159386 0.00687602 -8.33197e-06)
(-5.59122e-05 0.00491304 -1.80525e-05)
(-2.12777e-06 0.003862 9.22063e-07)
(3.53029e-06 0.00370664 6.07017e-07)
(1.23545e-06 0.00035398 2.91473e-07)
(4.00684e-06 0.000367467 5.35816e-07)
(4.64116e-06 0.000396717 9.23874e-08)
(5.37088e-06 0.000443028 8.61124e-08)
(5.34777e-06 0.000509901 2.85399e-07)
(5.44802e-06 0.000572458 3.51782e-07)
(4.8936e-06 0.000616312 2.42603e-07)
(4.33394e-06 0.000646174 1.65124e-07)
(3.53252e-06 0.000665753 1.02808e-07)
(2.76389e-06 0.000679827 1.09386e-07)
(1.96196e-06 0.000689097 8.96505e-08)
(1.25349e-06 0.000694547 8.57465e-08)
(5.97897e-07 0.000696859 6.38987e-08)
(3.9481e-08 0.000697129 8.11194e-08)
(-4.43588e-07 0.000696644 7.5975e-08)
(-8.41191e-07 0.000696014 9.09802e-08)
(-1.16678e-06 0.000695428 7.96638e-08)
(-1.4301e-06 0.000694945 8.70948e-08)
(-1.65088e-06 0.000694575 7.05519e-08)
(-1.82963e-06 0.000694304 7.44932e-08)
(-1.98096e-06 0.000694117 5.47663e-08)
(-2.10225e-06 0.000693999 5.75468e-08)
(-2.20545e-06 0.000693938 3.59118e-08)
(-2.28887e-06 0.00069393 3.96296e-08)
(-2.36363e-06 0.000693968 1.77645e-08)
(-2.42205e-06 0.000694055 2.24832e-08)
(-2.47287e-06 0.000694187 -1.24466e-09)
(-2.50796e-06 0.000694365 4.31722e-09)
(-2.53345e-06 0.000694588 -2.04351e-08)
(-2.53902e-06 0.000694863 -1.33438e-08)
(-2.52658e-06 0.00069519 -4.04397e-08)
(-2.48016e-06 0.000695581 -3.51665e-08)
(-2.39887e-06 0.000696039 -6.85282e-08)
(-2.26283e-06 0.00069658 -6.74143e-08)
(-2.06641e-06 0.000697212 -1.07321e-07)
(-1.78732e-06 0.000697949 -1.0869e-07)
(-1.41118e-06 0.000698796 -1.47845e-07)
(-9.13938e-07 0.000699767 -1.35372e-07)
(-2.82305e-07 0.000700864 -1.44328e-07)
(5.1006e-07 0.000702054 -6.90226e-08)
(1.44128e-06 0.000703363 5.40233e-08)
(2.47065e-06 0.000708503 4.2026e-07)
(3.55435e-06 0.000766792 1.22639e-06)
(5.01823e-06 0.000981993 2.89983e-06)
(7.34084e-06 0.00135512 4.60366e-06)
(1.27824e-05 0.00173003 3.82186e-06)
(2.18514e-05 0.00200218 -9.75884e-07)
(2.98096e-05 0.00222423 -4.8633e-06)
(3.11337e-05 0.00243031 -6.03712e-06)
(2.27778e-05 0.00261031 -8.91394e-06)
(2.08444e-05 0.0030442 -1.12651e-05)
(8.29508e-06 0.00379726 -1.91277e-05)
(6.83201e-06 0.00421194 -2.39822e-05)
(4.09547e-05 0.00423165 -3.8801e-05)
(0.000153301 0.00425851 -0.000128493)
(0.00029623 0.00431862 -0.000376885)
(-0.00132936 0.00680096 -0.000549115)
(-4.3556e-05 0.0082345 -0.000865297)
(0.00086235 0.0104758 2.75481e-05)
(0.00206924 0.199097 -0.00508165)
(-0.0149528 0.687266 -0.0179879)
(-0.000901919 0.529844 0.00838524)
(-0.0138779 0.546607 0.00366561)
(-0.0189389 0.538249 0.0041232)
(-0.0197022 0.53601 -0.00282585)
(-0.0206631 0.548661 -0.00580519)
(-0.00766239 0.549283 -0.000616683)
(0.00731037 0.541035 0.00508162)
(0.0286958 0.544102 0.00891256)
(0.035543 0.533721 -0.00135558)
(0.0209089 0.54475 -0.0156485)
(0.00470017 0.556375 -0.000298853)
(-0.0072553 0.546675 0.00423457)
(-0.0193055 0.523617 0.0071728)
(-0.0163124 0.527941 -0.00485548)
(-0.00700034 0.53664 -0.00448205)
(-0.0157379 0.540332 -0.000773694)
(-0.0217176 0.544312 0.0035913)
(-0.0239257 0.542047 0.00287639)
(-0.0158331 0.544219 0.006791)
(-0.0125136 0.544126 0.0125819)
(-0.00326896 0.544803 0.0124148)
(0.0085041 0.541545 0.00823406)
(0.0170892 0.537241 -0.00576191)
(0.021195 0.538058 -0.0216902)
(0.00920091 0.547965 -0.0200818)
(-0.00649313 0.537098 0.00964006)
(0.00357745 0.546205 0.0221309)
(0.00310682 0.53434 0.00371068)
(0.0012064 0.524074 -0.00203655)
(-0.00141609 0.521904 -0.00845619)
(-0.00269833 0.498836 -0.00874371)
(-0.00367993 0.397203 -0.0076633)
(-0.000173327 0.160197 -0.000614876)
(-0.000118215 0.0329052 -0.000195498)
(-1.6287e-05 0.0105617 -1.30755e-05)
(1.52297e-06 0.000353973 5.13739e-07)
(5.09654e-06 0.000365575 9.78616e-07)
(5.58338e-06 0.00038428 3.66295e-07)
(6.34361e-06 0.000418631 2.20428e-07)
(6.02436e-06 0.000478553 1.87793e-07)
(5.89055e-06 0.000541606 3.82218e-07)
(5.20688e-06 0.000595212 2.99802e-07)
(4.55066e-06 0.000636576 1.98101e-07)
(3.63764e-06 0.000661031 1.26239e-07)
(2.8131e-06 0.000676127 1.04658e-07)
(1.9768e-06 0.000686355 8.99751e-08)
(1.28052e-06 0.000692991 7.41e-08)
(6.08294e-07 0.000696073 6.33044e-08)
(-1.72127e-08 0.000696655 6.54885e-08)
(-5.58508e-07 0.000696333 9.15818e-08)
(-9.94494e-07 0.00069582 1.01924e-07)
(-1.33111e-06 0.000695317 1.16794e-07)
(-1.59602e-06 0.000694896 9.85803e-08)
(-1.81222e-06 0.000694571 9.20122e-08)
(-1.9899e-06 0.000694319 6.49385e-08)
(-2.13619e-06 0.000694132 5.98735e-08)
(-2.25389e-06 0.00069401 3.54415e-08)
(-2.3509e-06 0.000693951 3.28403e-08)
(-2.42764e-06 0.000693944 1.04889e-08)
(-2.48934e-06 0.000693985 9.95928e-09)
(-2.53838e-06 0.00069407 -1.25026e-08)
(-2.57894e-06 0.000694203 -1.27377e-08)
(-2.60455e-06 0.000694385 -3.56571e-08)
(-2.62087e-06 0.000694623 -3.49756e-08)
(-2.61297e-06 0.000694917 -5.95583e-08)
(-2.58319e-06 0.000695274 -6.02611e-08)
(-2.51031e-06 0.000695698 -8.98108e-08)
(-2.39784e-06 0.000696202 -9.62595e-08)
(-2.21798e-06 0.000696798 -1.33888e-07)
(-1.97467e-06 0.000697505 -1.45928e-07)
(-1.63102e-06 0.000698334 -1.85063e-07)
(-1.18695e-06 0.0006993 -1.92922e-07)
(-5.91639e-07 0.000700409 -2.18626e-07)
(1.50397e-07 0.000701666 -1.95779e-07)
(1.0994e-06 0.000703035 -1.57201e-07)
(2.2655e-06 0.000704641 4.00121e-09)
(3.74503e-06 0.000711911 3.93473e-07)
(5.58212e-06 0.000767089 1.37582e-06)
(8.06094e-06 0.000962877 3.30458e-06)
(1.14857e-05 0.00132627 5.67436e-06)
(1.45901e-05 0.00171837 4.46741e-06)
(1.7798e-05 0.00199382 -1.69065e-06)
(1.85829e-05 0.00215627 -7.49035e-06)
(1.48487e-05 0.0022715 -1.18817e-05)
(7.43435e-06 0.00245056 -1.34828e-05)
(2.29227e-05 0.00296353 -1.99179e-05)
(4.20815e-05 0.00380656 -3.33311e-05)
(3.46594e-05 0.00430988 -3.06056e-05)
(3.61002e-05 0.00436333 -4.70606e-05)
(9.36643e-05 0.00435798 -3.39315e-05)
(0.00018512 0.00335026 -0.000108929)
(-0.000720751 0.00691795 0.000760464)
(-0.000904584 0.013256 0.000566876)
(-0.000374331 0.0126952 -0.000493812)
(-0.0184081 0.261229 -0.0119686)
(-0.0109719 0.66767 -0.00999044)
(-0.00738086 0.539494 0.00496771)
(-0.0120323 0.538372 0.00477032)
(-0.00855694 0.536172 0.0038964)
(-0.00985659 0.531551 -0.000565931)
(-0.00405815 0.531301 0.000618398)
(0.00489917 0.527857 0.0024691)
(0.0177329 0.527469 0.00511388)
(0.0312911 0.522841 0.00582042)
(0.0348277 0.522682 -0.0113794)
(0.0218559 0.546242 -0.0215247)
(0.0157129 0.566459 -0.0131948)
(0.00553599 0.576534 0.00719547)
(-0.0102332 0.55466 0.00208628)
(-0.0152315 0.53874 -0.00208129)
(-0.0117407 0.531481 0.000910289)
(-0.0167118 0.533065 0.00530582)
(-0.0178678 0.536389 0.00177093)
(-0.0125345 0.542968 0.00450697)
(-0.00623481 0.545443 0.0109159)
(-0.00220538 0.543117 0.0077736)
(0.00375925 0.540693 0.000292524)
(0.00902075 0.535632 -0.0078691)
(0.010552 0.539921 -0.0233632)
(0.00132413 0.552554 -0.0234581)
(-0.0063347 0.562549 -0.00222244)
(0.00133111 0.55467 0.0149384)
(0.00459366 0.540831 0.00220802)
(0.00412546 0.532217 -0.00810474)
(-0.000263797 0.534393 -0.011579)
(0.000139349 0.535241 -0.0141008)
(-0.00252046 0.533771 -0.0142074)
(0.001045 0.516384 -0.00832159)
(0.00798543 0.467816 -0.00437594)
(0.00616168 0.349396 -0.00326456)
(-0.000108411 0.0312242 -2.18335e-06)
(2.44619e-06 0.000356091 1.06391e-06)
(6.54608e-06 0.000371289 1.81243e-06)
(6.55154e-06 0.000383753 8.8261e-07)
(7.05709e-06 0.000407818 6.06243e-07)
(6.55363e-06 0.00045985 3.36259e-07)
(6.09733e-06 0.000519726 3.85168e-07)
(5.40204e-06 0.00057595 3.55613e-07)
(4.80645e-06 0.000624889 2.21352e-07)
(3.68716e-06 0.000655288 1.6932e-07)
(2.86288e-06 0.000672731 1.34691e-07)
(1.97028e-06 0.000684049 1.06158e-07)
(1.23443e-06 0.00069149 1.19792e-07)
(5.1467e-07 0.000695067 1.15219e-07)
(-1.47307e-07 0.000695903 1.40235e-07)
(-6.99581e-07 0.000695744 1.41238e-07)
(-1.14855e-06 0.000695369 1.61766e-07)
(-1.49485e-06 0.000694958 1.66687e-07)
(-1.77223e-06 0.000694601 1.81198e-07)
(-1.98815e-06 0.000694327 1.78989e-07)
(-2.16743e-06 0.000694128 1.83484e-07)
(-2.30465e-06 0.000694006 1.67503e-07)
(-2.42242e-06 0.000693944 1.60339e-07)
(-2.51073e-06 0.00069393 1.38353e-07)
(-2.5886e-06 0.000693966 1.28808e-07)
(-2.64181e-06 0.000694046 1.05545e-07)
(-2.69047e-06 0.00069417 9.59806e-08)
(-2.71657e-06 0.000694336 7.34271e-08)
(-2.73635e-06 0.00069455 6.38078e-08)
(-2.72746e-06 0.000694819 3.91405e-08)
(-2.70227e-06 0.000695149 2.72056e-08)
(-2.62997e-06 0.000695545 -7.13467e-10)
(-2.52273e-06 0.00069602 -1.80511e-08)
(-2.34791e-06 0.000696589 -5.52265e-08)
(-2.11901e-06 0.000697268 -8.44772e-08)
(-1.79407e-06 0.000698081 -1.32276e-07)
(-1.37839e-06 0.000699046 -1.68122e-07)
(-8.19186e-07 0.000700176 -2.15058e-07)
(-1.14336e-07 0.000701471 -2.40473e-07)
(7.98434e-07 0.000702945 -2.60364e-07)
(1.9189e-06 0.000704602 -2.41684e-07)
(3.35229e-06 0.000706527 -1.55317e-07)
(5.187e-06 0.000712507 8.64589e-08)
(7.70963e-06 0.000750394 6.98081e-07)
(1.0845e-05 0.000879022 1.94378e-06)
(1.42923e-05 0.00112926 3.31994e-06)
(1.60943e-05 0.00144814 2.59093e-06)
(1.42117e-05 0.0017269 -1.90127e-06)
(9.93186e-06 0.00190963 -7.90291e-06)
(3.63857e-06 0.00210135 -1.33657e-05)
(-4.39673e-06 0.00260573 -8.79477e-06)
(5.34587e-06 0.00353641 -1.44216e-05)
(1.63643e-05 0.00431914 -5.07849e-05)
(-7.63264e-06 0.00451575 -7.80898e-05)
(-2.23921e-05 0.00450625 -8.06224e-05)
(-7.02235e-05 0.00463581 -0.000132071)
(-6.14228e-05 0.00387879 -0.000343918)
(0.000395768 0.00561242 0.000323093)
(-0.000222817 0.00543521 -4.55812e-05)
(-0.0013451 0.0107508 -0.000155525)
(-0.0353656 0.266925 0.00696382)
(-0.0105406 0.677478 -0.0306442)
(-0.00807167 0.541632 0.00369956)
(-0.00235379 0.539828 0.00144932)
(-0.00202385 0.531974 -0.000378636)
(0.00278658 0.519692 -0.00543322)
(0.0107346 0.518293 -0.0135379)
(0.0202507 0.514853 -0.00629613)
(0.0300743 0.510871 0.00195061)
(0.0311207 0.513959 0.00181857)
(0.00932673 0.542885 -0.00287676)
(0.00188513 0.552833 -0.0100633)
(-0.00206935 0.572551 -0.0155663)
(0.00983934 0.583075 0.00843719)
(0.00922496 0.581951 0.0196719)
(-0.00440533 0.551893 0.00558547)
(-0.00447863 0.540489 0.00456818)
(-0.00503687 0.537018 0.00496711)
(-0.0108359 0.530736 0.000979927)
(-0.0099352 0.533662 -0.00171491)
(-0.00775273 0.534894 -0.00156807)
(-0.0044679 0.532228 -0.0126174)
(-0.00134271 0.536128 -0.025052)
(0.000510173 0.545236 -0.0316075)
(3.02377e-05 0.552553 -0.0183176)
(0.00229697 0.554536 -0.00109601)
(0.00995748 0.548477 0.0113766)
(0.014229 0.541585 0.00603372)
(0.0219423 0.534999 0.00186489)
(0.0225501 0.524753 0.00693469)
(0.0086177 0.481201 0.00779826)
(-0.00128917 0.320868 0.00254739)
(-5.00367e-05 0.0323335 -0.000226652)
(-6.96232e-05 0.0107517 -0.000566872)
(-8.93118e-05 0.0113335 -0.000541769)
(-0.000123098 0.0358933 -9.35894e-05)
(-0.00483754 0.343776 -0.0150834)
(3.75091e-06 0.000211132 2.62042e-06)
(8.15503e-06 0.000386904 2.73662e-06)
(7.30089e-06 0.000390253 1.20355e-06)
(7.49893e-06 0.000409354 7.71082e-07)
(6.86976e-06 0.0004535 3.42589e-07)
(6.09627e-06 0.000509632 1.70351e-07)
(5.62497e-06 0.000563811 3.41794e-07)
(4.87062e-06 0.000612956 1.41892e-07)
(3.92777e-06 0.000648297 6.30594e-08)
(3.09692e-06 0.000669352 -2.94335e-08)
(2.24809e-06 0.000681434 -1.07148e-07)
(1.51453e-06 0.000689567 -1.59806e-07)
(8.3221e-07 0.000693743 -1.71879e-07)
(2.66356e-07 0.000694897 -1.74313e-07)