/*--------------------------------*- C++ -*----------------------------------*\
| =========                 |                                                 |
| \\      /  F ield         | OpenFOAM: The Open Source CFD Toolbox           |
|  \\    /   O peration     | Version:  2.3.0                                 |
|   \\  /    A nd           | Web:      www.OpenFOAM.org                      |
|    \\/     M anipulation  |                                                 |
\*---------------------------------------------------------------------------*/
FoamFile
{
    version     2.0;
    format      ascii;
    class       volScalarField;
    location    "19";
    object      alpha.airMean;
}
// * * * * * * * * * * * * * * * * * * * * * * * * * * * * * * * * * * * * * //

dimensions      [0 0 0 0 0 0 0];

internalField   nonuniform List<scalar> 
6144
(
0.999991
0.999991
0.99999
0.99999
0.99999
0.99999
0.99999
0.99999
0.99999
0.99999
0.99999
0.99999
0.99999
0.99999
0.99999
0.99999
0.99999
0.99999
0.99999
0.99999
0.99999
0.99999
0.99999
0.99999
0.99999
0.99999
0.99999
0.99999
0.99999
0.99999
0.99999
0.99999
0.99999
0.99999
0.99999
0.99999
0.99999
0.99999
0.99999
0.99999
0.99999
0.99999
0.99999
0.99999
0.99999
0.99999
0.99999
0.99999
0.99999
0.99999
0.99999
0.999986
0.99998
0.999961
0.999944
0.999897
0.999814
0.999409
0.99862
0.938846
0.0407485
0.000253171
1.34261e-06
1.14289e-06
1.14014e-06
1.11719e-06
1.11667e-06
1.09817e-06
1.09453e-06
1.08058e-06
1.07316e-06
1.06128e-06
1.05273e-06
1.0416e-06
1.03272e-06
1.0223e-06
1.01336e-06
1.00445e-06
9.94867e-07
9.85953e-07
9.77099e-07
9.67689e-07
9.58987e-07
9.51069e-07
9.43459e-07
9.3632e-07
9.28679e-07
9.15568e-07
8.72672e-07
7.61544e-07
6.46524e-07
5.75063e-07
4.96397e-07
4.41237e-07
4.39747e-07
4.32145e-07
0.999992
0.999992
0.999991
0.999991
0.99999
0.99999
0.99999
0.99999
0.99999
0.99999
0.99999
0.99999
0.99999
0.99999
0.99999
0.99999
0.99999
0.99999
0.99999
0.99999
0.99999
0.99999
0.99999
0.99999
0.99999
0.99999
0.99999
0.99999
0.99999
0.99999
0.99999
0.99999
0.99999
0.99999
0.99999
0.99999
0.99999
0.99999
0.99999
0.99999
0.99999
0.99999
0.99999
0.99999
0.99999
0.99999
0.99999
0.99999
0.99999
0.99999
0.999989
0.999986
0.99998
0.999961
0.999947
0.999908
0.999801
0.999296
0.998519
0.94925
0.0425404
8.23105e-05
1.16247e-06
1.1601e-06
1.14584e-06
1.1215e-06
1.11942e-06
1.10076e-06
1.09456e-06
1.07875e-06
1.07168e-06
1.06014e-06
1.05211e-06
1.04232e-06
1.03309e-06
1.02286e-06
1.01264e-06
1.00303e-06
9.94e-07
9.8602e-07
9.78201e-07
9.71098e-07
9.64373e-07
9.5661e-07
9.48913e-07
9.41106e-07
9.31012e-07
9.12332e-07
8.65258e-07
7.63829e-07
6.58641e-07
5.86901e-07
5.07029e-07
4.52322e-07
4.53136e-07
4.44589e-07
0.999992
0.999992
0.999991
0.999991
0.99999
0.99999
0.99999
0.99999
0.99999
0.99999
0.99999
0.99999
0.99999
0.99999
0.99999
0.99999
0.99999
0.99999
0.99999
0.99999
0.99999
0.99999
0.99999
0.99999
0.99999
0.99999
0.99999
0.99999
0.99999
0.99999
0.99999
0.99999
0.99999
0.99999
0.99999
0.99999
0.99999
0.99999
0.99999
0.99999
0.99999
0.99999
0.99999
0.99999
0.99999
0.99999
0.99999
0.99999
0.99999
0.99999
0.999989
0.999987
0.999981
0.999966
0.999943
0.999889
0.999856
0.999452
0.99912
0.953831
0.0490664
3.74347e-05
1.18842e-06
1.18401e-06
1.16305e-06
1.14441e-06
1.1432e-06
1.12503e-06
1.1193e-06
1.10346e-06
1.09365e-06
1.0777e-06
1.0661e-06
1.05208e-06
1.04086e-06
1.02902e-06
1.02162e-06
1.01347e-06
1.00335e-06
9.93355e-07
9.83387e-07
9.73309e-07
9.64088e-07
9.5567e-07
9.47333e-07
9.3945e-07
9.26483e-07
8.99719e-07
8.45745e-07
7.55182e-07
6.69293e-07
6.03924e-07
5.22996e-07
4.63466e-07
4.62277e-07
4.51619e-07
0.999992
0.999992
0.999992
0.999992
0.999991
0.99999
0.99999
0.99999
0.99999
0.99999
0.99999
0.99999
0.99999
0.99999
0.99999
0.99999
0.99999
0.99999
0.99999
0.99999
0.99999
0.99999
0.99999
0.99999
0.99999
0.99999
0.99999
0.99999
0.99999
0.99999
0.99999
0.99999
0.99999
0.99999
0.99999
0.99999
0.99999
0.99999
0.99999
0.99999
0.99999
0.99999
0.99999
0.99999
0.99999
0.99999
0.99999
0.99999
0.99999
0.99999
0.999989
0.999987
0.999981
0.999965
0.999929
0.999875
0.99988
0.999568
0.999583
0.943591
0.0517044
2.7879e-05
1.24752e-06
1.25445e-06
1.23112e-06
1.16933e-06
1.15686e-06
1.13142e-06
1.12437e-06
1.10396e-06
1.10045e-06
1.10285e-06
1.10866e-06
1.10137e-06
1.08602e-06
1.06759e-06
1.04498e-06
1.02433e-06
1.00815e-06
9.95062e-07
9.83698e-07
9.73709e-07
9.62882e-07
9.51127e-07
9.39612e-07
9.25882e-07
9.02423e-07
8.63966e-07
8.06054e-07
7.37729e-07
6.8209e-07
6.20425e-07
5.39428e-07
4.76777e-07
4.68994e-07
4.54416e-07
0.999992
0.999992
0.999992
0.999992
0.999992
0.999991
0.99999
0.99999
0.99999
0.99999
0.99999
0.99999
0.99999
0.99999
0.99999
0.99999
0.99999
0.99999
0.99999
0.99999
0.99999
0.99999
0.99999
0.99999
0.99999
0.99999
0.99999
0.99999
0.99999
0.99999
0.99999
0.99999
0.99999
0.99999
0.99999
0.99999
0.99999
0.99999
0.99999
0.99999
0.99999
0.99999
0.99999
0.99999
0.99999
0.99999
0.99999
0.99999
0.99999
0.99999
0.999989
0.999985
0.99998
0.999967
0.99993
0.999858
0.999846
0.999676
0.999804
0.873578
0.0171635
5.81572e-05
1.96051e-05
9.19205e-06
6.59431e-06
5.02743e-06
5.09832e-06
4.68381e-06
4.59582e-06
4.40425e-06
4.34932e-06
4.21637e-06
4.03607e-06
3.7296e-06
3.38256e-06
3.02089e-06
2.58716e-06
2.09612e-06
1.68514e-06
1.35248e-06
1.1402e-06
1.02538e-06
9.62218e-07
9.19339e-07
8.83013e-07
8.5223e-07
8.26484e-07
7.98137e-07
7.64218e-07
7.2818e-07
6.86053e-07
6.30166e-07
5.55747e-07
4.90836e-07
4.74686e-07
4.55528e-07
0.999992
0.999992
0.999992
0.999992
0.999992
0.999991
0.99999
0.99999
0.99999
0.99999
0.99999
0.99999
0.99999
0.99999
0.99999
0.99999
0.99999
0.99999
0.99999
0.99999
0.99999
0.99999
0.99999
0.99999
0.99999
0.99999
0.99999
0.99999
0.99999
0.99999
0.99999
0.99999
0.99999
0.99999
0.99999
0.99999
0.99999
0.99999
0.99999
0.99999
0.99999
0.99999
0.99999
0.99999
0.99999
0.99999
0.99999
0.99999
0.99999
0.99999
0.999988
0.999986
0.99998
0.999966
0.999917
0.99985
0.999853
0.99978
0.99995
0.745005
0.00914543
0.00137596
0.00112664
0.000839561
0.00074486
0.000698339
0.000683922
0.000681488
0.000684695
0.000676416
0.000664571
0.000651563
0.000628085
0.000576282
0.000523414
0.000471011
0.00040548
0.000338753
0.00027024
0.000203468
0.000146482
9.73297e-05
6.0552e-05
3.58459e-05
1.97429e-05
9.73744e-06
4.28277e-06
1.93137e-06
1.03304e-06
6.8614e-07
5.24972e-07
4.68876e-07
4.64732e-07
4.68329e-07
4.54406e-07
4.32685e-07
0.999992
0.999993
0.999992
0.999992
0.999992
0.999991
0.999991
0.99999
0.99999
0.99999
0.99999
0.99999
0.99999
0.99999
0.99999
0.99999
0.99999
0.99999
0.99999
0.99999
0.99999
0.99999
0.99999
0.99999
0.99999
0.99999
0.99999
0.99999
0.99999
0.99999
0.99999
0.99999
0.99999
0.99999
0.99999
0.99999
0.99999
0.99999
0.99999
0.99999
0.99999
0.99999
0.99999
0.99999
0.99999
0.99999
0.99999
0.99999
0.99999
0.99999
0.999989
0.999986
0.999981
0.999969
0.999933
0.999858
0.999819
0.999795
0.99999
0.578693
0.0135962
0.00942536
0.00964023
0.00909816
0.00873619
0.00871295
0.00856383
0.00865226
0.00860114
0.00853695
0.00842991
0.00813242
0.00794286
0.0078106
0.00767268
0.00718743
0.00661067
0.00621469
0.0056099
0.00496619
0.00448475
0.00380856
0.00314838
0.00258652
0.00206024
0.0016092
0.00116878
0.000783933
0.000515084
0.000305005
0.000145064
4.9673e-05
8.75735e-06
3.69945e-06
3.93128e-06
7.22281e-06
0.999992
0.999993
0.999992
0.999992
0.999992
0.999991
0.999991
0.999991
0.999991
0.99999
0.99999
0.99999
0.99999
0.99999
0.99999
0.99999
0.99999
0.99999
0.99999
0.99999
0.99999
0.99999
0.99999
0.99999
0.99999
0.99999
0.99999
0.99999
0.99999
0.99999
0.99999
0.99999
0.99999
0.99999
0.99999
0.99999
0.99999
0.99999
0.99999
0.99999
0.99999
0.99999
0.99999
0.99999
0.99999
0.99999
0.99999
0.99999
0.99999
0.99999
0.999989
0.999987
0.999981
0.999968
0.999944
0.999873
0.999828
0.999789
0.999976
0.501835
0.025523
0.0221756
0.0227547
0.0229052
0.0228625
0.0229395
0.0228536
0.02269
0.0227721
0.0227956
0.0226584
0.022517
0.0223242
0.0221636
0.0219974
0.0218212
0.0216482
0.021367
0.0210695
0.0208398
0.0206283
0.0204085
0.0201774
0.019929
0.0196542
0.0193774
0.018957
0.0183853
0.017781
0.0169723
0.016197
0.0152896
0.014064
0.0127896
0.0107147
0.00845843
0.999993
0.999993
0.999992
0.999992
0.999992
0.999991
0.999991
0.999991
0.999991
0.99999
0.99999
0.99999
0.99999
0.99999
0.99999
0.99999
0.99999
0.99999
0.99999
0.99999
0.99999
0.99999
0.99999
0.99999
0.99999
0.99999
0.99999
0.99999
0.99999
0.99999
0.99999
0.99999
0.99999
0.99999
0.99999
0.99999
0.99999
0.99999
0.99999
0.99999
0.99999
0.99999
0.99999
0.99999
0.99999
0.99999
0.99999
0.99999
0.99999
0.99999
0.999989
0.999987
0.99998
0.999963
0.999945
0.999896
0.999861
0.999787
0.999953
0.626655
0.0177063
0.0100266
0.00950712
0.00870038
0.00807019
0.00777232
0.00733912
0.00687318
0.00656036
0.00622401
0.00595049
0.00553004
0.0051644
0.00488839
0.00466845
0.00451683
0.004396
0.00436531
0.00444062
0.00452939
0.00446976
0.00440009
0.00435327
0.00427169
0.00418441
0.00407227
0.00394402
0.00378518
0.00355377
0.00328891
0.00295539
0.00256971
0.00209116
0.00153317
0.000925574
0.000430534
0.999993
0.999993
0.999992
0.999992
0.999992
0.999991
0.999991
0.999991
0.999991
0.99999
0.99999
0.99999
0.99999
0.99999
0.99999
0.99999
0.99999
0.99999
0.99999
0.99999
0.99999
0.99999
0.99999
0.99999
0.99999
0.99999
0.99999
0.99999
0.99999
0.99999
0.99999
0.99999
0.99999
0.99999
0.99999
0.99999
0.99999
0.99999
0.99999
0.99999
0.99999
0.99999
0.99999
0.99999
0.99999
0.99999
0.99999
0.99999
0.99999
0.99999
0.999989
0.999987
0.999979
0.999961
0.999943
0.999904
0.999885
0.999735
0.99988
0.772237
0.0113553
0.00162881
0.00128624
0.000898083
0.000698163
0.000583862
0.000492527
0.000423723
0.000375243
0.000335227
0.000307418
0.000284518
0.000274194
0.000260856
0.000245208
0.000238777
0.000238526
0.000241917
0.000248789
0.000259921
0.000266077
0.000265224
0.000267671
0.000262956
0.000248552
0.000235175
0.000215276
0.000190407
0.000158335
0.000125337
9.58557e-05
6.72274e-05
3.9851e-05
1.95472e-05
7.59916e-06
2.87481e-06
0.999994
0.999993
0.999992
0.999992
0.999992
0.999991
0.999991
0.999991
0.999991
0.99999
0.99999
0.99999
0.99999
0.99999
0.99999
0.99999
0.99999
0.99999
0.99999
0.99999
0.99999
0.99999
0.99999
0.99999
0.99999
0.99999
0.99999
0.99999
0.99999
0.99999
0.99999
0.99999
0.99999
0.99999
0.99999
0.99999
0.99999
0.99999
0.99999
0.99999
0.99999
0.99999
0.99999
0.99999
0.99999
0.99999
0.99999
0.99999
0.99999
0.99999
0.999989
0.999986
0.999979
0.999959
0.999933
0.999903
0.999892
0.999621
0.999739
0.894456
0.0238996
7.99567e-05
3.01519e-05
1.25797e-05
8.06881e-06
5.38931e-06
4.27952e-06
3.51732e-06
3.11095e-06
2.68069e-06
2.34899e-06
2.09626e-06
1.94359e-06
1.82873e-06
1.7742e-06
1.77206e-06
1.82062e-06
1.89733e-06
2.0081e-06
2.15232e-06
2.29104e-06
2.38737e-06
2.42315e-06
2.40127e-06
2.29133e-06
2.11356e-06
1.84532e-06
1.53946e-06
1.20801e-06
9.30857e-07
7.31126e-07
5.99058e-07
5.17784e-07
4.63836e-07
4.0145e-07
3.90402e-07
0.999994
0.999994
0.999993
0.999992
0.999992
0.999991
0.999991
0.999991
0.999991
0.99999
0.99999
0.99999
0.99999
0.99999
0.99999
0.99999
0.99999
0.99999
0.99999
0.99999
0.99999
0.99999
0.99999
0.99999
0.99999
0.99999
0.99999
0.99999
0.99999
0.99999
0.99999
0.99999
0.99999
0.99999
0.99999
0.99999
0.99999
0.99999
0.99999
0.99999
0.99999
0.99999
0.99999
0.99999
0.99999
0.99999
0.99999
0.99999
0.99999
0.99999
0.999989
0.999986
0.999981
0.999964
0.999924
0.999894
0.999885
0.999516
0.999626
0.951814
0.0493599
2.72196e-05
1.25045e-06
1.07264e-06
1.11035e-06
1.08799e-06
1.09054e-06
1.07411e-06
1.06789e-06
1.04914e-06
1.02176e-06
9.95455e-07
9.74727e-07
9.50283e-07
9.28625e-07
9.08936e-07
8.911e-07
8.73612e-07
8.57178e-07
8.39828e-07
8.22027e-07
8.05619e-07
7.89015e-07
7.75272e-07
7.65986e-07
7.56482e-07
7.31481e-07
6.89499e-07
6.45226e-07
5.9265e-07
5.3243e-07
4.67283e-07
4.10772e-07
3.90539e-07
3.90287e-07
3.90491e-07
0.999995
0.999994
0.999993
0.999993
0.999993
0.999992
0.999992
0.999991
0.999991
0.99999
0.99999
0.99999
0.99999
0.99999
0.99999
0.99999
0.99999
0.99999
0.99999
0.99999
0.99999
0.99999
0.99999
0.99999
0.99999
0.99999
0.99999
0.99999
0.99999
0.99999
0.99999
0.99999
0.99999
0.99999
0.99999
0.99999
0.99999
0.99999
0.99999
0.99999
0.99999
0.99999
0.99999
0.99999
0.99999
0.99999
0.99999
0.99999
0.99999
0.99999
0.999989
0.999986
0.999981
0.999971
0.999941
0.999903
0.999857
0.999409
0.999461
0.967872
0.0585749
4.08602e-05
1.03229e-06
1.00305e-06
9.98542e-07
9.97176e-07
9.95107e-07
9.72341e-07
9.65243e-07
9.45459e-07
9.34839e-07
9.1736e-07
9.06964e-07
8.93095e-07
8.80522e-07
8.66625e-07
8.51765e-07
8.36338e-07
8.18944e-07
8.01665e-07
7.86213e-07
7.70649e-07
7.55838e-07
7.45302e-07
7.3718e-07
7.29325e-07
7.14866e-07
6.87735e-07
6.48532e-07
5.98493e-07
5.4338e-07
4.84982e-07
4.31704e-07
4.00558e-07
3.96871e-07
3.9229e-07
0.999996
0.999994
0.999994
0.999994
0.999993
0.999993
0.999992
0.999992
0.999991
0.999991
0.99999
0.99999
0.99999
0.99999
0.99999
0.99999
0.99999
0.99999
0.99999
0.99999
0.99999
0.99999
0.99999
0.99999
0.99999
0.99999
0.99999
0.99999
0.99999
0.99999
0.99999
0.99999
0.99999
0.99999
0.99999
0.99999
0.99999
0.99999
0.99999
0.99999
0.99999
0.99999
0.99999
0.99999
0.99999
0.99999
0.99999
0.99999
0.99999
0.99999
0.999989
0.999985
0.99998
0.99997
0.999956
0.999927
0.999796
0.999296
0.999324
0.958209
0.0511071
2.1536e-05
9.43385e-07
9.4943e-07
9.52374e-07
9.39226e-07
9.37597e-07
9.17854e-07
9.07073e-07
8.88942e-07
8.75797e-07
8.60605e-07
8.47688e-07
8.35089e-07
8.23496e-07
8.11636e-07
8.00129e-07
7.88125e-07
7.75115e-07
7.63497e-07
7.51904e-07
7.39979e-07
7.30571e-07
7.23129e-07
7.17875e-07
7.14216e-07
7.06077e-07
6.82373e-07
6.41358e-07
5.95717e-07
5.43114e-07
4.87712e-07
4.39634e-07
4.20581e-07
4.12302e-07
3.9783e-07
0.999996
0.999995
0.999995
0.999994
0.999994
0.999993
0.999993
0.999992
0.999992
0.999991
0.99999
0.99999
0.99999
0.99999
0.99999
0.99999
0.99999
0.99999
0.99999
0.99999
0.99999
0.99999
0.99999
0.99999
0.99999
0.99999
0.99999
0.99999
0.99999
0.99999
0.99999
0.99999
0.99999
0.99999
0.99999
0.99999
0.99999
0.99999
0.99999
0.99999
0.99999
0.99999
0.99999
0.99999
0.99999
0.99999
0.99999
0.99999
0.99999
0.99999
0.999989
0.999986
0.999978
0.999966
0.999957
0.999929
0.999697
0.999181
0.998792
0.956861
0.0473277
0.000103279
9.44977e-07
9.31595e-07
9.17795e-07
8.85759e-07
8.78386e-07
8.60483e-07
8.49702e-07
8.36496e-07
8.24982e-07
8.12606e-07
8.03705e-07
7.91848e-07
7.83813e-07
7.74605e-07
7.65451e-07
7.57834e-07
7.49966e-07
7.41296e-07
7.33834e-07
7.26909e-07
7.20383e-07
7.1532e-07
7.12412e-07
7.11588e-07
7.04507e-07
6.82283e-07
6.41003e-07
5.93992e-07
5.43354e-07
4.88958e-07
4.40383e-07
4.20336e-07
4.1503e-07
4.01393e-07
0.999997
0.999995
0.999995
0.999995
0.999994
0.999993
0.999993
0.999992
0.999991
0.999991
0.99999
0.99999
0.99999
0.99999
0.99999
0.99999
0.99999
0.99999
0.99999
0.99999
0.99999
0.99999
0.99999
0.99999
0.99999
0.99999
0.99999
0.99999
0.99999
0.99999
0.99999
0.99999
0.99999
0.99999
0.99999
0.99999
0.99999
0.99999
0.99999
0.99999
0.99999
0.99999
0.99999
0.99999
0.99999
0.99999
0.99999
0.99999
0.99999
0.99999
0.999989
0.999986
0.999979
0.999968
0.999956
0.999876
0.999787
0.999274
0.999005
0.951724
0.0536089
0.000410144
1.55143e-06
8.54659e-07
8.54475e-07
8.35036e-07
8.34238e-07
8.21849e-07
8.16361e-07
8.04875e-07
7.99799e-07
7.88649e-07
7.82741e-07
7.73471e-07
7.66999e-07
7.58784e-07
7.51334e-07
7.44932e-07
7.37972e-07
7.30884e-07
7.25753e-07
7.2037e-07
7.15107e-07
7.11133e-07
7.09186e-07
7.10445e-07
7.07865e-07
6.85947e-07
6.40436e-07
5.94425e-07
5.43999e-07
4.90143e-07
4.40229e-07
4.17233e-07
4.12048e-07
3.99548e-07
0.999991
0.999991
0.99999
0.99999
0.99999
0.99999
0.99999
0.99999
0.99999
0.99999
0.99999
0.99999
0.99999
0.99999
0.99999
0.99999
0.99999
0.99999
0.99999
0.99999
0.99999
0.99999
0.99999
0.99999
0.99999
0.99999
0.99999
0.99999
0.99999
0.99999
0.99999
0.99999
0.99999
0.99999
0.99999
0.99999
0.99999
0.99999
0.99999
0.99999
0.99999
0.99999
0.99999
0.99999
0.99999
0.99999
0.99999
0.99999
0.99999
0.99999
0.99999
0.999986
0.999981
0.999961
0.999946
0.999903
0.999823
0.999195
0.997021
0.93875
0.0567778
0.000459984
1.72327e-06
1.13698e-06
1.13449e-06
1.11102e-06
1.11149e-06
1.0921e-06
1.08919e-06
1.07349e-06
1.06741e-06
1.05444e-06
1.04646e-06
1.03496e-06
1.02538e-06
1.01556e-06
1.00628e-06
9.96527e-07
9.87367e-07
9.78235e-07
9.68633e-07
9.59718e-07
9.50956e-07
9.42446e-07
9.34372e-07
9.2687e-07
9.19815e-07
9.11935e-07
8.96367e-07
8.52525e-07
7.46966e-07
6.03975e-07
5.0875e-07
4.76692e-07
4.8321e-07
4.64003e-07
0.999992
0.999991
0.999991
0.999991
0.99999
0.99999
0.99999
0.99999
0.99999
0.99999
0.99999
0.99999
0.99999
0.99999
0.99999
0.99999
0.99999
0.99999
0.99999
0.99999
0.99999
0.99999
0.99999
0.99999
0.99999
0.99999
0.99999
0.99999
0.99999
0.99999
0.99999
0.99999
0.99999
0.99999
0.99999
0.99999
0.99999
0.99999
0.99999
0.99999
0.99999
0.99999
0.99999
0.99999
0.99999
0.99999
0.99999
0.99999
0.99999
0.99999
0.999989
0.999987
0.99998
0.999962
0.999949
0.99991
0.999796
0.999273
0.998166
0.945367
0.0479745
0.000128634
1.17965e-06
1.15679e-06
1.14349e-06
1.11392e-06
1.11499e-06
1.09661e-06
1.09375e-06
1.07904e-06
1.072e-06
1.05936e-06
1.0512e-06
1.03944e-06
1.02926e-06
1.01944e-06
1.00965e-06
9.98929e-07
9.90245e-07
9.81167e-07
9.71359e-07
9.63486e-07
9.54869e-07
9.45769e-07
9.38126e-07
9.29867e-07
9.21207e-07
9.12622e-07
8.97212e-07
8.60903e-07
7.78318e-07
6.47284e-07
5.30059e-07
4.78308e-07
5.00702e-07
4.81243e-07
0.999992
0.999992
0.999991
0.999991
0.999991
0.999991
0.99999
0.99999
0.99999
0.99999
0.99999
0.99999
0.99999
0.99999
0.99999
0.99999
0.99999
0.99999
0.99999
0.99999
0.99999
0.99999
0.99999
0.99999
0.99999
0.99999
0.99999
0.99999
0.99999
0.99999
0.99999
0.99999
0.99999
0.99999
0.99999
0.99999
0.99999
0.99999
0.99999
0.99999
0.99999
0.99999
0.99999
0.99999
0.99999
0.99999
0.99999
0.99999
0.99999
0.99999
0.999989
0.999986
0.99998
0.999964
0.999952
0.99989
0.99985
0.999463
0.999088
0.948266
0.0427171
7.85359e-06
1.32098e-06
1.21642e-06
1.18083e-06
1.15115e-06
1.15048e-06
1.12928e-06
1.12444e-06
1.10501e-06
1.0952e-06
1.0771e-06
1.06544e-06
1.05169e-06
1.0415e-06
1.03177e-06
1.02364e-06
1.01529e-06
1.00611e-06
9.95624e-07
9.84919e-07
9.74892e-07
9.64326e-07
9.53491e-07
9.43591e-07
9.34445e-07
9.25598e-07
9.14909e-07
8.98143e-07
8.66461e-07
7.9933e-07
6.89726e-07
5.70302e-07
5.02756e-07
5.15023e-07
4.93211e-07
0.999992
0.999992
0.999992
0.999991
0.999991
0.999991
0.999991
0.999991
0.99999
0.99999
0.99999
0.99999
0.99999
0.99999
0.99999
0.99999
0.99999
0.99999
0.99999
0.99999
0.99999
0.99999
0.99999
0.99999
0.99999
0.99999
0.99999
0.99999
0.99999
0.99999
0.99999
0.99999
0.99999
0.99999
0.99999
0.99999
0.99999
0.99999
0.99999
0.99999
0.99999
0.99999
0.99999
0.99999
0.99999
0.99999
0.99999
0.99999
0.99999
0.99999
0.999988
0.999985
0.99998
0.999965
0.999937
0.999862
0.999841
0.999546
0.999625
0.941845
0.0399636
2.37883e-06
6.04847e-06
2.05913e-06
2.02487e-06
1.69677e-06
1.62557e-06
1.46129e-06
1.38111e-06
1.30107e-06
1.26978e-06
1.23532e-06
1.2262e-06
1.20274e-06
1.18232e-06
1.16054e-06
1.13642e-06
1.10003e-06
1.066e-06
1.0407e-06
1.01905e-06
9.97288e-07
9.81652e-07
9.67428e-07
9.5509e-07
9.42269e-07
9.29187e-07
9.12845e-07
8.90791e-07
8.54216e-07
7.9753e-07
7.10969e-07
6.07503e-07
5.3901e-07
5.32546e-07
4.97204e-07
0.999992
0.999992
0.999992
0.999991
0.999991
0.999991
0.999991
0.999991
0.999991
0.99999
0.99999
0.99999
0.99999
0.99999
0.99999
0.99999
0.99999
0.99999
0.99999
0.99999
0.99999
0.99999
0.99999
0.99999
0.99999
0.99999
0.99999
0.99999
0.99999
0.99999
0.99999
0.99999
0.99999
0.99999
0.99999
0.99999
0.99999
0.99999
0.99999
0.99999
0.99999
0.99999
0.99999
0.99999
0.99999
0.99999
0.99999
0.99999
0.99999
0.99999
0.999986
0.999981
0.999976
0.999966
0.999899
0.99982
0.999774
0.999747
0.999841
0.883473
0.0167589
0.000320137
0.000264308
0.000148744
0.000122306
0.000106026
9.93201e-05
9.35899e-05
8.69556e-05
7.82042e-05
7.29706e-05
6.61992e-05
6.02098e-05
5.34397e-05
4.69295e-05
3.87819e-05
3.02685e-05
2.14976e-05
1.48371e-05
9.50106e-06
5.82019e-06
3.51387e-06
2.16947e-06
1.4896e-06
1.19925e-06
1.05341e-06
9.68102e-07
9.11685e-07
8.55448e-07
8.06686e-07
7.61134e-07
7.04181e-07
6.36352e-07
5.76205e-07
5.48493e-07
4.99629e-07
0.999993
0.999993
0.999992
0.999991
0.999991
0.999991
0.999991
0.999991
0.999991
0.99999
0.99999
0.99999
0.99999
0.99999
0.99999
0.99999
0.99999
0.99999
0.99999
0.99999
0.99999
0.99999
0.99999
0.99999
0.99999
0.99999
0.99999
0.99999
0.99999
0.99999
0.99999
0.99999
0.99999
0.99999
0.99999
0.99999
0.99999
0.99999
0.99999
0.99999
0.99999
0.99999
0.99999
0.99999
0.99999
0.99999
0.99999
0.99999
0.99999
0.999989
0.999986
0.999981
0.999974
0.999958
0.999868
0.99982
0.999827
0.999868
0.99996
0.747332
0.0145425
0.00657119
0.00635047
0.00549826
0.00526235
0.00494498
0.00467212
0.00456715
0.00447277
0.00446548
0.00445322
0.00440262
0.00421056
0.00393671
0.00368053
0.00337458
0.00312261
0.00262518
0.00216537
0.00174365
0.00132452
0.00100324
0.000726303
0.000494176
0.000330042
0.000209807
0.000125739
7.38295e-05
4.02975e-05
1.94162e-05
7.05815e-06
2.53642e-06
1.16314e-06
7.85114e-07
5.93359e-07
4.88824e-07
0.999993
0.999993
0.999993
0.999992
0.999991
0.999991
0.999991
0.999991
0.999991
0.99999
0.99999
0.99999
0.99999
0.99999
0.99999
0.99999
0.99999
0.99999
0.99999
0.99999
0.99999
0.99999
0.99999
0.99999
0.99999
0.99999
0.99999
0.99999
0.99999
0.99999
0.99999
0.99999
0.99999
0.99999
0.99999
0.99999
0.99999
0.99999
0.99999
0.99999
0.99999
0.99999
0.99999
0.99999
0.99999
0.99999
0.99999
0.99999
0.99999
0.99999
0.999989
0.999985
0.999979
0.999968
0.999906
0.999812
0.999754
0.999788
0.999949
0.57177
0.0332429
0.027771
0.028959
0.0289179
0.0291502
0.0293811
0.0295594
0.0299336
0.0302016
0.0304217
0.0308727
0.0312711
0.0314351
0.0315585
0.031461
0.0314098
0.0311516
0.0305046
0.0296289
0.0284678
0.0269341
0.0250528
0.0230059
0.020616
0.0177966
0.0152412
0.012878
0.010623
0.00868447
0.00689007
0.00482965
0.00296372
0.00156275
0.000776814
0.000656547
0.000769263
0.999993
0.999993
0.999993
0.999992
0.999992
0.999991
0.999991
0.999991
0.999991
0.99999
0.99999
0.99999
0.99999
0.99999
0.99999
0.99999
0.99999
0.99999
0.99999
0.99999
0.99999
0.99999
0.99999
0.99999
0.99999
0.99999
0.99999
0.99999
0.99999
0.99999
0.99999
0.99999
0.99999
0.99999
0.99999
0.99999
0.99999
0.99999
0.99999
0.99999
0.99999
0.99999
0.99999
0.99999
0.99999
0.99999
0.99999
0.99999
0.99999
0.99999
0.999989
0.999986
0.999981
0.999968
0.999929
0.99983
0.999769
0.999765
0.999778
0.536613
0.0420463
0.0365808
0.0375843
0.0379913
0.0390763
0.0401538
0.0410203
0.0420758
0.0431653
0.0443021
0.0456122
0.0471606
0.0489126
0.0508496
0.053076
0.0556025
0.0583897
0.0614686
0.0647962
0.0683812
0.0722195
0.076265
0.0804635
0.0848756
0.08948
0.0942181
0.0992564
0.104584
0.110351
0.116753
0.124145
0.133292
0.145879
0.166518
0.213113
0.403431
0.999994
0.999993
0.999993
0.999993
0.999992
0.999992
0.999991
0.999991
0.999991
0.99999
0.99999
0.99999
0.99999
0.99999
0.99999
0.99999
0.99999
0.99999
0.99999
0.99999
0.99999
0.99999
0.99999
0.99999
0.99999
0.99999
0.99999
0.99999
0.99999
0.99999
0.99999
0.99999
0.99999
0.99999
0.99999
0.99999
0.99999
0.99999
0.99999
0.99999
0.99999
0.99999
0.99999
0.99999
0.99999
0.99999
0.99999
0.99999
0.99999
0.99999
0.999989
0.999986
0.999981
0.999964
0.999937
0.999877
0.999807
0.999755
0.999931
0.711467
0.0192738
0.00680935
0.00552479
0.00426474
0.00376724
0.00344293
0.00325245
0.00309876
0.00294571
0.00280114
0.0027024
0.00264276
0.00262565
0.00267668
0.00281637
0.00300577
0.00330245
0.0035963
0.00381867
0.00409177
0.00445572
0.00485895
0.00524329
0.00559899
0.00600186
0.00639504
0.00666532
0.00702587
0.00746449
0.00788088
0.00817637
0.00829215
0.00803337
0.00733332
0.00612647
0.00512184
0.999994
0.999994
0.999994
0.999993
0.999993
0.999992
0.999992
0.999991
0.999991
0.999991
0.99999
0.99999
0.99999
0.99999
0.99999
0.99999
0.99999
0.99999
0.99999
0.99999
0.99999
0.99999
0.99999
0.99999
0.99999
0.99999
0.99999
0.99999
0.99999
0.99999
0.99999
0.99999
0.99999
0.99999
0.99999
0.99999
0.99999
0.99999
0.99999
0.99999
0.99999
0.99999
0.99999
0.99999
0.99999
0.99999
0.99999
0.99999
0.99999
0.99999
0.999989
0.999987
0.999981
0.999966
0.999937
0.99988
0.999826
0.999725
0.99991
0.844342
0.0109504
0.000406747
0.00027903
0.000177553
0.00015237
0.000135551
0.000121464
0.000110447
0.000105137
0.000101029
0.000100555
9.9529e-05
9.574e-05
9.55633e-05
9.42906e-05
9.11993e-05
9.07867e-05
8.98507e-05
8.80694e-05
8.78689e-05
8.83178e-05
8.74659e-05
8.36489e-05
7.5821e-05
6.86751e-05
6.20082e-05
5.58647e-05
5.15136e-05
4.90733e-05
4.82247e-05
4.84772e-05
4.8179e-05
4.67286e-05
3.88541e-05
1.76696e-05
3.9048e-06
0.999994
0.999994
0.999994
0.999993
0.999993
0.999992
0.999992
0.999991
0.999991
0.999991
0.99999
0.99999
0.99999
0.99999
0.99999
0.99999
0.99999
0.99999
0.99999
0.99999
0.99999
0.99999
0.99999
0.99999
0.99999
0.99999
0.99999
0.99999
0.99999
0.99999
0.99999
0.99999
0.99999
0.99999
0.99999
0.99999
0.99999
0.99999
0.99999
0.99999
0.99999
0.99999
0.99999
0.99999
0.99999
0.99999
0.99999
0.99999
0.99999
0.99999
0.999989
0.999987
0.999981
0.999968
0.99994
0.999896
0.999824
0.999607
0.999792
0.927581
0.043399
6.7784e-06
1.08299e-05
4.32497e-06
3.58205e-06
2.73065e-06
2.43779e-06
2.20866e-06
2.15098e-06
2.04965e-06
1.98583e-06
1.90395e-06
1.8299e-06
1.74185e-06
1.65817e-06
1.59011e-06
1.52008e-06
1.46191e-06
1.40697e-06
1.36541e-06
1.32059e-06
1.25026e-06
1.14756e-06
1.06458e-06
9.95098e-07
9.3518e-07
8.82832e-07
8.23379e-07
7.51033e-07
6.81556e-07
6.05863e-07
5.29387e-07
4.7773e-07
4.66921e-07
4.47344e-07
4.05119e-07
0.999995
0.999994
0.999993
0.999993
0.999993
0.999993
0.999992
0.999991
0.999991
0.999991
0.99999
0.99999
0.99999
0.99999
0.99999
0.99999
0.99999
0.99999
0.99999
0.99999
0.99999
0.99999
0.99999
0.99999
0.99999
0.99999
0.99999
0.99999
0.99999
0.99999
0.99999
0.99999
0.99999
0.99999
0.99999
0.99999
0.99999
0.99999
0.99999
0.99999
0.99999
0.99999
0.99999
0.99999
0.99999
0.99999
0.99999
0.99999
0.99999
0.99999
0.999989
0.999987
0.999981
0.999968
0.999942
0.999902
0.999858
0.99948
0.999604
0.956044
0.0480668
3.44115e-06
1.39098e-06
1.00015e-06
1.1848e-06
1.11948e-06
1.1268e-06
1.10542e-06
1.10228e-06
1.08265e-06
1.05902e-06
1.02817e-06
1.00291e-06
9.76392e-07
9.53632e-07
9.29751e-07
9.06903e-07
8.82652e-07
8.56423e-07
8.31103e-07
8.10122e-07
7.89265e-07
7.70018e-07
7.55195e-07
7.45286e-07
7.39265e-07
7.31629e-07
7.12819e-07
6.8332e-07
6.34419e-07
5.66522e-07
4.90982e-07
4.30901e-07
4.08041e-07
4.02367e-07
3.94486e-07
0.999995
0.999994
0.999994
0.999994
0.999993
0.999993
0.999992
0.999991
0.999991
0.999991
0.99999
0.99999
0.99999
0.99999
0.99999
0.99999
0.99999
0.99999
0.99999
0.99999
0.99999
0.99999
0.99999
0.99999
0.99999
0.99999
0.99999
0.99999
0.99999
0.99999
0.99999
0.99999
0.99999
0.99999
0.99999
0.99999
0.99999
0.99999
0.99999
0.99999
0.99999
0.99999
0.99999
0.99999
0.99999
0.99999
0.99999
0.99999
0.99999
0.99999
0.999989
0.999986
0.999979
0.999967
0.999956
0.999917
0.999836
0.999387
0.999185
0.964785
0.058466
1.48846e-05
1.17245e-06
1.04035e-06
1.05531e-06
1.06677e-06
1.08449e-06
1.07568e-06
1.06482e-06
1.03591e-06
1.00802e-06
9.79671e-07
9.55461e-07
9.32673e-07
9.12225e-07
8.90514e-07
8.68497e-07
8.4584e-07
8.23153e-07
8.02012e-07
7.82481e-07
7.64824e-07
7.50494e-07
7.38856e-07
7.31972e-07
7.27538e-07
7.20274e-07
7.05438e-07
6.75607e-07
6.2634e-07
5.61654e-07
4.93854e-07
4.39656e-07
4.16754e-07
4.0996e-07
3.98048e-07
0.999995
0.999995
0.999995
0.999994
0.999994
0.999993
0.999992
0.999992
0.999991
0.999991
0.99999
0.99999
0.99999
0.99999
0.99999
0.99999
0.99999
0.99999
0.99999
0.99999
0.99999
0.99999
0.99999
0.99999
0.99999
0.99999
0.99999
0.99999
0.99999
0.99999
0.99999
0.99999
0.99999
0.99999
0.99999
0.99999
0.99999
0.99999
0.99999
0.99999
0.99999
0.99999
0.99999
0.99999
0.99999
0.99999
0.99999
0.99999
0.99999
0.99999
0.999989
0.999986
0.999979
0.999966
0.999957
0.999934
0.999775
0.999298
0.998951
0.959177
0.0605194
1.61457e-05
1.05963e-06
1.04887e-06
1.02139e-06
9.98897e-07
1.00141e-06
9.84039e-07
9.77957e-07
9.55836e-07
9.4179e-07
9.18585e-07
9.00895e-07
8.79823e-07
8.61949e-07
8.43828e-07
8.26222e-07
8.08897e-07
7.91682e-07
7.75268e-07
7.6041e-07
7.48141e-07
7.37902e-07
7.29986e-07
7.25449e-07
7.22389e-07
7.16668e-07
7.0125e-07
6.69402e-07
6.20571e-07
5.57456e-07
4.93882e-07
4.4236e-07
4.21761e-07
4.142e-07
4.00401e-07
0.999996
0.999995
0.999995
0.999995
0.999994
0.999993
0.999992
0.999992
0.999992
0.999991
0.99999
0.99999
0.99999
0.99999
0.99999
0.99999
0.99999
0.99999
0.99999
0.99999
0.99999
0.99999
0.99999
0.99999
0.99999
0.99999
0.99999
0.99999
0.99999
0.99999
0.99999
0.99999
0.99999
0.99999
0.99999
0.99999
0.99999
0.99999
0.99999
0.99999
0.99999
0.99999
0.99999
0.99999
0.99999
0.99999
0.99999
0.99999
0.99999
0.99999
0.999989
0.999986
0.999978
0.999967
0.999955
0.999926
0.999704
0.999157
0.998167
0.950457
0.0635504
0.000217726
1.07255e-06
9.17029e-07
8.8811e-07
8.58597e-07
8.573e-07
8.42249e-07
8.44353e-07
8.33453e-07
8.31922e-07
8.22215e-07
8.17538e-07
8.0799e-07
8.00026e-07
7.89633e-07
7.78838e-07
7.69393e-07
7.59558e-07
7.49092e-07
7.41287e-07
7.34333e-07
7.28318e-07
7.23855e-07
7.21246e-07
7.2088e-07
7.1607e-07
7.00297e-07
6.64626e-07
6.11926e-07
5.51826e-07
4.91948e-07
4.41007e-07
4.20941e-07
4.14406e-07
4.01009e-07
0.999997
0.999996
0.999996
0.999995
0.999994
0.999993
0.999993
0.999992
0.999992
0.999991
0.99999
0.99999
0.99999
0.99999
0.99999
0.99999
0.99999
0.99999
0.99999
0.99999
0.99999
0.99999
0.99999
0.99999
0.99999
0.99999
0.99999
0.99999
0.99999
0.99999
0.99999
0.99999
0.99999
0.99999
0.99999
0.99999
0.99999
0.99999
0.99999
0.99999
0.99999
0.99999
0.99999
0.99999
0.99999
0.99999
0.99999
0.99999
0.99999
0.99999
0.999989
0.999986
0.999978
0.999968
0.99996
0.999905
0.999775
0.999086
0.997221
0.943797
0.0714653
0.000780332
2.54627e-06
8.47869e-07
8.47536e-07
8.2701e-07
8.28974e-07
8.14042e-07
8.11321e-07
7.98283e-07
7.93755e-07
7.82957e-07
7.77549e-07
7.68506e-07
7.61161e-07
7.54126e-07
7.48408e-07
7.41762e-07
7.35932e-07
7.31237e-07
7.26589e-07
7.22325e-07
7.20315e-07
7.1876e-07
7.18382e-07
7.2032e-07
7.17533e-07
7.01343e-07
6.61393e-07
6.06476e-07