/*--------------------------------*- C++ -*----------------------------------*\
| =========                 |                                                 |
| \\      /  F ield         | OpenFOAM: The Open Source CFD Toolbox           |
|  \\    /   O peration     | Version:  2.3.0                                 |
|   \\  /    A nd           | Web:      www.OpenFOAM.org                      |
|    \\/     M anipulation  |                                                 |
\*---------------------------------------------------------------------------*/
FoamFile
{
    version     2.0;
    format      ascii;
    class       volScalarField;
    location    "19";
    object      alpha.water;
}
// * * * * * * * * * * * * * * * * * * * * * * * * * * * * * * * * * * * * * //

dimensions      [0 0 0 0 0 0 0];

internalField   nonuniform List<scalar> 
6144
(
6.83438e-06
7.26119e-06
7.48615e-06
7.85928e-06
8.1792e-06
8.70624e-06
9.26707e-06
9.72961e-06
9.9053e-06
9.9624e-06
9.98076e-06
9.98834e-06
9.98974e-06
9.99146e-06
9.99024e-06
9.99024e-06
9.98998e-06
9.98998e-06
9.98994e-06
9.98994e-06
9.98991e-06
9.98991e-06
9.98983e-06
9.98981e-06
9.98972e-06
9.98968e-06
9.98955e-06
9.9895e-06
9.98935e-06
9.98931e-06
9.98911e-06
9.98907e-06
9.98881e-06
9.98875e-06
9.98859e-06
9.98857e-06
9.98855e-06
9.98855e-06
9.98855e-06
9.98854e-06
9.98854e-06
9.98854e-06
9.98854e-06
9.98854e-06
9.98855e-06
1.00089e-05
1.02327e-05
1.12178e-05
1.48392e-05
2.68076e-05
5.10384e-05
6.92859e-05
7.71858e-05
9.21814e-05
0.000106633
0.000126407
0.000129565
0.000137118
0.0013216
0.0604393
0.961978
0.999759
0.999999
0.999999
0.999999
0.999999
0.999999
0.999999
0.999999
0.999999
0.999999
0.999999
0.999999
0.999999
0.999999
0.999999
0.999999
0.999999
0.999999
0.999999
0.999999
0.999999
0.999999
0.999999
0.999999
0.999999
0.999999
1
1
1
1
1
1
1
1
1
7.04641e-06
7.52508e-06
7.82789e-06
8.20332e-06
8.60297e-06
9.06157e-06
9.54772e-06
9.81177e-06
9.88303e-06
9.95008e-06
9.98274e-06
9.99245e-06
9.99544e-06
9.99754e-06
9.99592e-06
9.99688e-06
9.99587e-06
9.99633e-06
9.99583e-06
9.99597e-06
9.99581e-06
9.99585e-06
9.9958e-06
9.99584e-06
9.99583e-06
9.99584e-06
9.99582e-06
9.99583e-06
9.99581e-06
9.99584e-06
9.99573e-06
9.99573e-06
9.99551e-06
9.99553e-06
9.99528e-06
9.9953e-06
9.99502e-06
9.99492e-06
9.99464e-06
9.99424e-06
9.99369e-06
9.99303e-06
9.9919e-06
9.99241e-06
1.00033e-05
1.01472e-05
1.07837e-05
1.25569e-05
1.83126e-05
3.24281e-05
4.98138e-05
6.49394e-05
8.79782e-05
0.000114968
0.000138683
0.000152118
0.000153004
0.000159225
0.000696788
0.0394609
0.962266
0.999804
0.999999
0.999999
0.999999
0.999999
0.999999
0.999999
0.999999
0.999999
0.999999
0.999999
0.999999
0.999999
0.999999
0.999999
0.999999
0.999999
0.999999
0.999999
0.999999
0.999999
0.999999
1
1
1
1
1
1
1
1
1
1
1
1
1
6.91773e-06
7.44719e-06
7.75739e-06
8.04431e-06
8.38425e-06
8.80791e-06
9.44963e-06
9.76208e-06
9.83968e-06
9.9029e-06
9.94533e-06
9.9737e-06
9.98916e-06
9.99585e-06
9.99556e-06
9.99704e-06
9.9962e-06
9.99683e-06
9.99642e-06
9.99667e-06
9.99654e-06
9.99663e-06
9.9966e-06
9.99665e-06
9.99666e-06
9.99667e-06
9.99663e-06
9.99662e-06
9.99654e-06
9.99652e-06
9.99639e-06
9.99637e-06
9.99614e-06
9.99609e-06
9.99577e-06
9.99563e-06
9.99517e-06
9.99483e-06
9.9942e-06
9.99364e-06
9.99294e-06
9.99214e-06
9.99232e-06
1.00024e-05
1.01349e-05
1.09216e-05
1.28626e-05
1.58582e-05
2.42812e-05
4.08747e-05
6.03945e-05
8.34359e-05
0.000112188
0.000142023
0.00015688
0.000154845
0.00015507
0.000164945
0.00052716
0.0422091
0.965313
0.99987
0.999999
0.999999
0.999999
0.999999
0.999999
0.999999
0.999999
0.999999
0.999999
0.999999
0.999999
0.999999
0.999999
0.999999
0.999999
0.999999
0.999999
0.999999
0.999999
0.999999
1
1
1
1
1
1
1
1
1
1
1
1
1
1
6.34417e-06
6.95585e-06
7.43328e-06
7.75446e-06
8.10826e-06
8.40711e-06
9.05242e-06
9.6445e-06
9.84995e-06
9.8932e-06
9.91561e-06
9.95949e-06
9.98319e-06
9.99282e-06
9.99287e-06
9.99351e-06
9.99327e-06
9.99332e-06
9.99329e-06
9.99329e-06
9.9931e-06
9.99298e-06
9.99278e-06
9.99262e-06
9.99249e-06
9.99231e-06
9.99216e-06
9.99196e-06
9.99183e-06
9.99167e-06
9.99156e-06
9.99144e-06
9.9913e-06
9.99116e-06
9.99105e-06
9.99091e-06
9.99083e-06
9.99083e-06
9.99083e-06
9.99083e-06
9.99083e-06
9.99083e-06
9.99138e-06
1.0027e-05
1.03519e-05
1.18793e-05
1.49098e-05
2.02086e-05
3.21605e-05
4.92615e-05
7.29191e-05
0.000106078
0.00013223
0.000157184
0.000158081
0.00014263
0.000137082
0.000151084
0.000309011
0.0600816
0.980088
0.999955
0.999994
0.999996
0.999997
0.999998
0.999998
0.999999
0.999999
0.999999
0.999998
0.999998
0.999999
0.999999
0.999998
0.999999
0.999999
0.999999
0.999999
1
1
1
1
1
0.999999
0.999999
0.999999
0.999997
0.999998
0.999999
0.999999
0.999999
0.999999
1
1
1
5.67699e-06
6.17708e-06
6.71527e-06
7.18402e-06
7.80772e-06
8.14597e-06
8.55026e-06
9.19538e-06
9.81762e-06
9.90376e-06
9.8858e-06
9.94802e-06
9.98269e-06
9.9953e-06
9.99527e-06
9.99707e-06
9.99626e-06
9.99747e-06
9.99699e-06
9.99758e-06
9.99737e-06
9.9975e-06
9.99737e-06
9.99736e-06
9.99718e-06
9.99712e-06
9.99695e-06
9.99685e-06
9.9966e-06
9.99646e-06
9.99615e-06
9.99602e-06
9.99563e-06
9.99547e-06
9.99497e-06
9.99486e-06
9.99441e-06
9.99424e-06
9.99378e-06
9.99346e-06
9.993e-06
9.99298e-06
9.99848e-06
1.00662e-05
1.06806e-05
1.28548e-05
1.68456e-05
2.49071e-05
3.80317e-05
5.56184e-05
8.85056e-05
0.000125353
0.000144004
0.000161388
0.000158912
0.00014232
0.000137094
0.000195917
0.000314977
0.0985465
0.970365
0.999551
0.999689
0.999756
0.99979
0.999822
0.999842
0.999854
0.999855
0.999846
0.99984
0.99984
0.999839
0.999835
0.999847
0.999856
0.999851
0.999819
0.999791
0.999761
0.999725
0.999684
0.999645
0.999619
0.999585
0.999547
0.999528
0.999553
0.999614
0.999707
0.999823
0.999909
0.999961
0.999988
0.999997
0.999999
5.16474e-06
5.43258e-06
5.88244e-06
6.35967e-06
7.22945e-06
7.87719e-06
8.37761e-06
8.8196e-06
9.44652e-06
9.7819e-06
9.82035e-06
9.92383e-06
9.96875e-06
9.98821e-06
9.98914e-06
9.99029e-06
9.99002e-06
9.99005e-06
9.99004e-06
9.99024e-06
9.99034e-06
9.99054e-06
9.99052e-06
9.9905e-06
9.99046e-06
9.99038e-06
9.99035e-06
9.99027e-06
9.99021e-06
9.99009e-06
9.98997e-06
9.98984e-06
9.9896e-06
9.98937e-06
9.989e-06
9.98875e-06
9.98861e-06
9.98859e-06
9.98859e-06
9.98859e-06
9.98859e-06
9.98873e-06
9.99972e-06
1.01793e-05
1.12278e-05
1.40516e-05
1.91324e-05
2.75102e-05
3.87327e-05
6.9795e-05
0.000117001
0.000140402
0.00014832
0.000161931
0.000170938
0.000170328
0.000137589
0.000447074
0.000355404
0.184523
0.96252
0.9966
0.997146
0.997745
0.997867
0.997981
0.997975
0.998124
0.998199
0.99824
0.998152
0.99796
0.99775
0.997535
0.997343
0.997126
0.996789
0.996386
0.995978
0.995567
0.995179
0.994797
0.994415
0.994007
0.993563
0.993094
0.992764
0.992629
0.99294
0.993693
0.994901
0.996338
0.997621
0.998729
0.999454
0.99977
4.80245e-06
4.86501e-06
5.27338e-06
5.67933e-06
6.57789e-06
7.44106e-06
8.28682e-06
8.73792e-06
9.00391e-06
9.46176e-06
9.69952e-06
9.8935e-06
9.96919e-06
9.99501e-06
9.99521e-06
9.99679e-06
9.99559e-06
9.99583e-06
9.99513e-06
9.99546e-06
9.99519e-06
9.99533e-06
9.99511e-06
9.99499e-06
9.99476e-06
9.99461e-06
9.99444e-06
9.99428e-06
9.99405e-06
9.9939e-06
9.9937e-06
9.99356e-06
9.99327e-06
9.99304e-06
9.99258e-06
9.99234e-06
9.99226e-06
9.99257e-06
9.99316e-06
9.99402e-06
9.99467e-06
9.99566e-06
1.00161e-05
1.0392e-05
1.18743e-05
1.47855e-05
1.95078e-05
2.4556e-05
5.27499e-05
0.000109814
0.000141544
0.000144662
0.00014798
0.000153496
0.000161382
0.000167512
0.000169257
0.00024821
0.000126962
0.239084
0.965262
0.989509
0.989725
0.990117
0.989723
0.98938
0.989116
0.988935
0.988806
0.988712
0.988441
0.987878
0.987149
0.986277
0.985449
0.98487
0.984513
0.984111
0.983536
0.983055
0.982663
0.982283
0.982058
0.981951
0.981834
0.981656
0.981415
0.981252
0.981223
0.981685
0.982075
0.983073
0.984834
0.987672
0.991544
0.995167
4.54018e-06
4.47109e-06
4.8275e-06
5.12101e-06
6.02462e-06
7.02895e-06
8.12159e-06
8.81307e-06
8.92226e-06
9.25318e-06
9.60405e-06
9.86965e-06
9.96592e-06
9.99634e-06
9.99477e-06
9.99829e-06
9.99523e-06
9.99702e-06
9.99582e-06
9.99659e-06
9.99627e-06
9.99648e-06
9.99653e-06
9.99668e-06
9.99681e-06
9.99699e-06
9.99717e-06
9.99729e-06
9.9974e-06
9.99749e-06
9.99755e-06
9.99762e-06
9.99771e-06
9.99795e-06
9.99853e-06
9.99912e-06
9.99925e-06
9.99925e-06
9.99925e-06
9.99925e-06
9.99896e-06
9.99892e-06
1.00392e-05
1.05073e-05
1.18944e-05
1.45435e-05
1.89702e-05
2.51339e-05
9.55629e-05
0.000141478
0.00014434
0.000146551
0.000148197
0.000150427
0.000157948
0.000175909
0.000217482
0.000298222
0.000364609
0.150458
0.958554
0.986329
0.985565
0.985507
0.98561
0.985273
0.985102
0.984945
0.984862
0.984795
0.98472
0.984628
0.984602
0.984593
0.984588
0.984584
0.984582
0.98467
0.984803
0.984972
0.985134
0.985318
0.98556
0.985854
0.986101
0.986245
0.986262
0.985525
0.984436
0.982589
0.980339
0.977888
0.975942
0.975039
0.974818
0.979467
4.38989e-06
4.32964e-06
4.55115e-06
4.72322e-06
5.50568e-06
6.69124e-06
7.99208e-06
8.90368e-06
8.97852e-06
9.28932e-06
9.6049e-06
9.85873e-06
9.95477e-06
9.98975e-06
9.98913e-06
9.99137e-06
9.99064e-06
9.99064e-06
9.99064e-06
9.99064e-06
9.99076e-06
9.99113e-06
9.9912e-06
9.99143e-06
9.99165e-06
9.99188e-06
9.9921e-06
9.99231e-06
9.99254e-06
9.99277e-06
9.99294e-06
9.99312e-06
9.99332e-06
9.99367e-06
9.99418e-06
9.99453e-06
9.99453e-06
9.99454e-06
9.99454e-06
9.99454e-06
9.99455e-06
9.99455e-06
1.00596e-05
1.05524e-05
1.1783e-05
1.35775e-05
1.65563e-05
2.0451e-05
7.5764e-05
0.000142065
0.000146816
0.000147971
0.000148079
0.000147886
0.000146267
0.000146373
0.000135318
0.000219332
0.000687483
0.0900015
0.957719
0.989717
0.989318
0.989786
0.99059
0.991119
0.991466
0.991588
0.991505
0.991239
0.991134
0.991135
0.991781
0.992494
0.993422
0.994436
0.995412
0.996206
0.99682
0.997353
0.997858
0.998286
0.998651
0.999027
0.999413
0.999717
0.999935
1
1
0.999983
0.999939
0.999884
1
0.999919
0.999895
0.99989
4.46296e-06
4.67108e-06
4.51867e-06
4.58195e-06
5.18772e-06
6.4572e-06
7.97563e-06
9.10726e-06
9.21869e-06
9.58036e-06
9.74637e-06
9.90561e-06
9.96187e-06
9.99603e-06
9.99613e-06
9.99878e-06
9.99683e-06
9.9986e-06
9.99747e-06
9.99833e-06
9.9981e-06
9.99843e-06
9.99834e-06
9.99839e-06
9.99837e-06
9.99836e-06
9.99835e-06
9.99836e-06
9.99841e-06
9.99846e-06
9.99844e-06
9.99838e-06
9.99827e-06
9.9982e-06
9.99812e-06
9.99789e-06
9.99747e-06
9.99722e-06
9.99716e-06
9.99714e-06
9.99703e-06
9.99964e-06
1.00702e-05
1.05264e-05
1.14836e-05
1.2719e-05
1.51136e-05
1.94101e-05
4.41495e-05
0.000117364
0.000144204
0.000144614
0.000143651
0.000147981
0.0001454
0.000150772
0.000133363
0.000146161
0.000248538
0.0536825
0.964465
0.996656
0.996987
0.997763
0.998302
0.998725
0.998852
0.998857
0.99876
0.998715
0.99871
0.998853
0.999014
0.999268
0.999509
0.999709
0.99984
0.999904
0.999935
0.999957
0.999975
0.999985
0.999992
0.999997
0.999999
0.999999
0.999999
0.999999
1
1
1
1
1
1
1
1
4.54945e-06
5.06729e-06
5.06265e-06
4.94988e-06
5.17339e-06
6.43165e-06
8.0403e-06
9.50062e-06
9.64806e-06
9.90972e-06
9.94099e-06
9.99177e-06
9.97499e-06
9.99611e-06
9.99206e-06
9.99381e-06
9.99109e-06
9.99199e-06
9.99169e-06
9.99353e-06
9.99357e-06
9.99438e-06
9.99458e-06
9.99489e-06
9.99507e-06
9.99519e-06
9.9953e-06
9.99542e-06
9.99558e-06
9.99571e-06
9.99578e-06
9.9958e-06
9.99584e-06
9.99593e-06
9.99602e-06
9.99614e-06
9.99615e-06
9.99618e-06
9.99621e-06
9.99626e-06
9.9963e-06
1.00004e-05
1.0051e-05
1.03506e-05
1.10329e-05
1.19518e-05
1.38748e-05
1.90349e-05
2.79275e-05
7.50928e-05
0.000121231
0.000135984
0.000140347
0.000143719
0.000141625
0.000142228
0.000133173
0.000145688
0.000184958
0.0334791
0.965451
0.999644
0.999843
0.999929
0.999969
0.999986
0.999987
0.999985
0.999984
0.999985
0.999987
0.999991
0.999993
0.999996
0.999998
0.999999
0.999999
0.999999
0.999999
0.999999
0.999999
0.999999
0.999999
0.999999
0.999999
0.999999
0.999999
0.999999
0.999999
0.999999
0.999999
0.999999
0.999999
0.999999
0.999999
0.999999
4.23278e-06
4.76189e-06
4.99831e-06
5.12456e-06
5.65136e-06
6.89016e-06
8.64029e-06
9.72804e-06
9.88881e-06
9.95582e-06
9.98339e-06
1.00093e-05
1.00059e-05
1.00104e-05
9.99995e-06
1.00072e-05
9.99775e-06
9.99985e-06
9.99607e-06
9.99712e-06
9.99606e-06
9.99655e-06
9.99638e-06
9.99651e-06
9.99654e-06
9.99658e-06
9.9966e-06
9.99667e-06
9.99674e-06
9.99683e-06
9.99689e-06
9.99696e-06
9.99712e-06
9.99737e-06
9.99759e-06
9.99786e-06
9.99805e-06
9.998e-06
9.998e-06
9.99811e-06
9.99874e-06
1.00019e-05
1.00181e-05
1.01268e-05
1.05301e-05
1.12508e-05
1.29956e-05
1.87025e-05
2.89586e-05
5.09504e-05
8.65535e-05
0.000108861
0.000122882
0.000133932
0.000136241
0.000139966
0.000129091
0.000160914
0.000283794
0.027525
0.964118
0.999884
0.999999
0.999999
0.999999
0.999999
0.999999
0.999999
0.999999
0.999999
0.999999
0.999999
0.999999
0.999999
0.999999
0.999999
0.999999
0.999999
0.999999
0.999999
0.999999
0.999999
0.999999
0.999999
0.999999
0.999999
0.999999
0.999999
0.999999
0.999999
0.999999
0.999999
0.999999
0.999999
0.999999
0.999999
3.60441e-06
3.55267e-06
3.30748e-06
4.46572e-06
5.8596e-06
6.92278e-06
8.39659e-06
9.64539e-06
9.85835e-06
9.91631e-06
9.94926e-06
1.00067e-05
1.00108e-05
1.00108e-05
1.00108e-05
1.00108e-05
1.00107e-05
1.00107e-05
1.00102e-05
1.00102e-05
1.0009e-05
1.00089e-05
1.00076e-05
1.00066e-05
1.00056e-05
1.00047e-05
1.0004e-05
1.00034e-05
1.00028e-05
1.00023e-05
1.00018e-05
1.00014e-05
1.00008e-05
1.00003e-05
9.99987e-06
9.99965e-06
9.9995e-06
9.99943e-06
1.00001e-05
1.00021e-05
1.00046e-05
1.00068e-05
1.00109e-05
1.00321e-05
1.01818e-05
1.06868e-05
1.21937e-05
1.84108e-05
3.36366e-05
5.30194e-05
7.77485e-05
9.41918e-05
0.000106859
0.000118426
0.000125728
0.000134682
0.000130084
0.000187512
0.000378145
0.0267102
0.957602
0.999823
0.999999
0.999999
0.999999
0.999999
0.999999
0.999999
0.999999
0.999999
0.999999
0.999999
0.999999
0.999999
0.999999
0.999999
0.999999
0.999999
0.999999
0.999999
0.999999
0.999999
0.999999
0.999999
0.999999
0.999999
0.999999
0.999999
0.999999
0.999999
0.999999
0.999999
0.999999
0.999999
0.999999
0.999999
2.97748e-06
2.98122e-06
2.95053e-06
3.9696e-06
4.9634e-06
4.28214e-06
6.95713e-06
9.54358e-06
9.79503e-06
9.90038e-06
9.93166e-06
9.99536e-06
1.00047e-05
1.00108e-05
1.00097e-05
1.00108e-05
1.00084e-05
1.00105e-05
1.00093e-05
1.00101e-05
1.00093e-05
1.00093e-05
1.00089e-05
1.00086e-05
1.00082e-05
1.00079e-05
1.00074e-05
1.0007e-05
1.00066e-05
1.00061e-05
1.00056e-05
1.00051e-05
1.00044e-05
1.00037e-05
1.00028e-05
1.00023e-05
1.00019e-05
1.00022e-05
1.00037e-05
1.00058e-05
1.00071e-05
1.00081e-05
1.00097e-05
1.0018e-05
1.00599e-05
1.03801e-05
1.16011e-05
1.83387e-05
3.90963e-05
6.2467e-05
8.06639e-05
8.66083e-05
9.20491e-05
0.00010047
0.000111139
0.000126913
0.000147171
0.000178554
0.000328584
0.0290185
0.943588
0.999647
0.999999
0.999999
0.999999
0.999999
0.999999
0.999999
0.999999
0.999999
0.999999
0.999999
0.999999
0.999999
0.999999
0.999999
0.999999
0.999999
0.999999
0.999999
0.999999
0.999999
0.999999
0.999999
0.999999
0.999999
0.999999
0.999999
0.999999
0.999999
0.999999
0.999999
0.999999
0.999999
0.999999
0.999999
2.4598e-06
2.54194e-06
2.54043e-06
3.69685e-06
2.97454e-06
2.54941e-06
4.5276e-06
8.72512e-06
9.77494e-06
9.95391e-06
9.95677e-06
9.99774e-06
9.99646e-06
1.00051e-05
1.00015e-05
1.0007e-05
1.00007e-05
1.00062e-05
1.00038e-05
1.00058e-05
1.0005e-05
1.00056e-05
1.00053e-05
1.00053e-05
1.00052e-05
1.0005e-05
1.00048e-05
1.00046e-05
1.00044e-05
1.00041e-05
1.00038e-05
1.00035e-05
1.00031e-05
1.00026e-05
1.0002e-05
1.00016e-05
1.00013e-05
1.00017e-05
1.00029e-05
1.00041e-05
1.00046e-05
1.00046e-05
1.00045e-05
1.00088e-05
1.00243e-05
1.02091e-05
1.1293e-05
1.72803e-05
3.86529e-05
6.3672e-05
7.88111e-05
8.71479e-05
9.30948e-05
0.000102178
0.000105431
0.000121335
0.000138381
0.000151216
0.000204504
0.0404997
0.945105
0.999727
0.999999
0.999999
0.999999
0.999999
0.999999
0.999999
0.999999
0.999999
0.999999
0.999999
0.999999
0.999999
0.999999
0.999999
0.999999
0.999999
0.999999
0.999999
0.999999
0.999999
0.999999
0.999999
0.999999
0.999999
0.999999
0.999999
0.999999
0.999999
0.999999
0.999999
1
0.999999
0.999999
0.999999
1.49732e-06
1.65113e-06
1.58152e-06
1.61378e-06
1.64661e-06
1.82396e-06
2.19843e-06
4.43508e-06
9.35758e-06
9.96595e-06
9.98086e-06
1.00069e-05
1.00059e-05
1.00102e-05
1.00102e-05
1.00102e-05
1.00102e-05
1.00114e-05
1.00114e-05
1.00114e-05
1.00114e-05
1.00114e-05
1.00114e-05
1.00114e-05
1.00114e-05
1.00114e-05
1.00114e-05
1.00113e-05
1.00112e-05
1.00111e-05
1.00109e-05
1.00107e-05
1.00105e-05
1.00102e-05
1.00099e-05
1.00099e-05
1.00101e-05
1.00101e-05
1.00101e-05
1.00101e-05
1.00101e-05
1.00101e-05
1.00101e-05
1.00152e-05
1.00317e-05
1.01694e-05
1.09726e-05
1.44053e-05
2.99448e-05
6.36022e-05
8.47197e-05
9.41356e-05
0.000101285
0.000107873
0.00011226
0.000121776
0.000120981
0.000150079
0.000491616
0.0487615
0.941118
0.999652
0.999999
0.999999
0.999999
0.999999
0.999999
0.999999
0.999999
0.999999
0.999999
0.999999
0.999999
0.999999
0.999999
0.999999
0.999999
0.999999
0.999999
0.999999
0.999999
0.999999
0.999999
0.999999
0.999999
0.999999
0.999999
0.999999
0.999999
0.999999
0.999999
1
1
0.999999
0.999999
1
6.97318e-06
7.37256e-06
7.5476e-06
7.89107e-06
8.25096e-06
8.85025e-06
9.45572e-06
9.75132e-06
9.87095e-06
9.9114e-06
9.9606e-06
9.99066e-06
1.00082e-05
1.00092e-05
1.00092e-05
1.00092e-05
1.00092e-05
1.00092e-05
1.00087e-05
1.00086e-05
1.00083e-05
1.00082e-05
1.00081e-05
1.00081e-05
1.00082e-05
1.00082e-05
1.00083e-05
1.00083e-05
1.00083e-05
1.00084e-05
1.00085e-05
1.00092e-05
1.00095e-05
1.00095e-05
1.00095e-05
1.00095e-05
1.00095e-05
1.00095e-05
1.00095e-05
1.00095e-05
1.00089e-05
1.00084e-05
1.00071e-05
1.00086e-05
1.00142e-05
1.00498e-05
1.02497e-05
1.1077e-05
1.40222e-05
2.39495e-05
4.70831e-05
6.98929e-05
7.62118e-05
8.48208e-05
9.50738e-05
0.000108244
0.000116819
0.00016676
0.000854376
0.0340631
0.944472
0.999691
0.999999
0.999999
0.999999
0.999999
0.999999
0.999999
0.999999
0.999999
0.999999
0.999999
0.999999
0.999999
0.999999
0.999999
0.999999
0.999999
0.999999
0.999999
0.999999
0.999999
0.999999
0.999999
0.999999
0.999999
0.999999
0.999999
0.999999
1
1
1
1
1
1
1
7.15763e-06
7.77133e-06
8.14807e-06
8.52316e-06
8.8158e-06
9.03641e-06
9.18561e-06
9.2857e-06
9.4088e-06
9.54599e-06
9.75653e-06
9.90756e-06
9.97948e-06
1.00058e-05
1.00045e-05
1.00086e-05
1.00065e-05
1.00083e-05
1.00075e-05
1.00082e-05
1.00081e-05
1.00082e-05
1.00081e-05
1.00081e-05
1.0008e-05
1.00079e-05
1.00078e-05
1.00076e-05
1.00073e-05
1.0007e-05
1.00067e-05
1.00064e-05
1.00062e-05
1.00059e-05
1.00056e-05
1.00052e-05
1.00046e-05
1.0004e-05
1.00032e-05
1.00025e-05
1.00019e-05
1.00016e-05
1.00056e-05
1.00397e-05
1.02236e-05
1.0971e-05
1.24417e-05
1.4238e-05
1.78297e-05
2.81558e-05
4.52487e-05
6.01194e-05
6.81493e-05
8.81896e-05
0.000113836
0.000128919
0.000128027
0.000151562
0.000467573
0.0500029
0.973893
0.999975
0.999999
0.999999
0.999999
0.999999
0.999999
0.999999
0.999999
0.999999
0.999999
0.999999
0.999999
0.999999
0.999999
0.999999
0.999999
0.999999
0.999999
0.999999
0.999999
0.999999
0.999999
1
1
1
1
1
1
1
1
1
1
1
1
1
6.61988e-06
7.35518e-06
7.82387e-06
8.13639e-06
8.38369e-06
8.61427e-06
8.86053e-06
9.0073e-06
9.09594e-06
9.31315e-06
9.59445e-06
9.85146e-06
9.95397e-06
1.00013e-05
1.0001e-05
1.00063e-05
1.00037e-05
1.00057e-05
1.00043e-05
1.00051e-05
1.00046e-05
1.00047e-05
1.00045e-05
1.00045e-05
1.00044e-05
1.00042e-05
1.0004e-05
1.00039e-05
1.00037e-05
1.00036e-05
1.00034e-05
1.00032e-05
1.0003e-05
1.00026e-05
1.00021e-05
1.00016e-05
1.0001e-05
1.00005e-05
9.99996e-06
9.99954e-06
9.99932e-06
9.99949e-06
1.00092e-05
1.01181e-05
1.0855e-05
1.34656e-05
1.83108e-05
2.34686e-05
2.7214e-05
3.57893e-05
4.75884e-05
6.10248e-05
9.27296e-05
0.000125978
0.000145921
0.000153636
0.000145433
0.000155097
0.000297392
0.076311
0.991019
0.999998
0.999999
0.999999
0.999999
0.999999
0.999999
0.999999
0.999999
0.999999
0.999999
0.999999
0.999999
0.999999
0.999999
0.999999
0.999999
0.999999
0.999999
0.999999
0.999999
0.999999
0.999999
1
1
1
1
1
0.999999
0.999999
0.999999
0.999999
1
1
1
1
5.98679e-06
6.62094e-06
7.11656e-06
7.57052e-06
7.83787e-06
8.21331e-06
8.67325e-06
8.93444e-06
9.01847e-06
9.25341e-06
9.53293e-06
9.831e-06
9.93995e-06
9.99845e-06
9.99864e-06
1.00044e-05
1.00009e-05
1.0003e-05
1.00013e-05
1.00023e-05
1.00016e-05
1.00017e-05
1.00015e-05
1.00014e-05
1.00012e-05
1.0001e-05
1.00008e-05
1.00006e-05
1.00005e-05
1.00004e-05
1.00002e-05
1.00001e-05
9.99989e-06
9.99964e-06
9.99916e-06
9.99877e-06
9.99835e-06
9.99805e-06
9.99769e-06
9.99734e-06
9.99707e-06
9.99738e-06
1.00086e-05
1.01382e-05
1.10531e-05
1.4459e-05
2.16988e-05
3.1107e-05
3.98026e-05
4.74684e-05
6.14798e-05
9.84019e-05
0.000129081
0.000149
0.000154971
0.000155073
0.000136823
0.000151253
0.000219944
0.088767
0.991367
0.999963
0.999966
0.999982
0.999982
0.999985
0.999985
0.999985
0.999983
0.999982
0.99998
0.999979
0.999977
0.999977
0.999977
0.999976
0.999975
0.999973
0.999971
0.999974
0.999978
0.999979
0.999982
0.999984
0.999985
0.999987
0.999989
0.999992
0.999995
0.999998
0.999999
0.999999
0.999999
0.999999
0.999999
1
5.51999e-06
6.17735e-06
6.48916e-06
7.07523e-06
7.21547e-06
7.69209e-06
8.40705e-06
8.85531e-06
8.99654e-06
9.24662e-06
9.51546e-06
9.82373e-06
9.93327e-06
9.9972e-06
9.998e-06
1.00036e-05
9.99965e-06
1.00019e-05
1.00001e-05
1.00011e-05
1.00003e-05
1.00004e-05
1.00002e-05
1.00001e-05
9.99984e-06
9.99962e-06
9.99941e-06
9.99926e-06
9.99916e-06
9.99909e-06
9.999e-06
9.99889e-06
9.99874e-06
9.99855e-06
9.99817e-06
9.99785e-06
9.99757e-06
9.99735e-06
9.99708e-06
9.99685e-06
9.99667e-06
9.99722e-06
1.00086e-05
1.01235e-05
1.09853e-05
1.46161e-05
2.23703e-05
3.28084e-05
4.49498e-05
6.10018e-05
8.68625e-05
0.000129663
0.000145758
0.000152308
0.000142239
0.000139535
0.000141686
0.000150515
0.00014812
0.176526
0.982772
0.997776
0.998169
0.998522
0.998608
0.998692
0.998747
0.998773
0.998743
0.998701
0.998652
0.99857
0.998486
0.998393
0.998283
0.998142
0.997973
0.997785
0.997613
0.997497
0.997404
0.997338
0.997322
0.9974
0.997496
0.997706
0.997944
0.998262
0.998646
0.999059
0.999444
0.999703
0.999862
0.999941
0.99998
0.999993
4.93389e-06
5.87328e-06
6.09226e-06
6.87525e-06
6.82059e-06
7.14006e-06
8.06356e-06
8.76394e-06
8.98352e-06
9.25941e-06
9.51066e-06
9.82019e-06
9.92989e-06
9.99618e-06
9.99748e-06
1.00028e-05
9.99859e-06
1.00008e-05
9.9991e-06
9.99994e-06
9.99916e-06
9.99918e-06
9.99896e-06
9.99882e-06
9.99859e-06
9.99838e-06
9.99821e-06
9.99811e-06
9.99804e-06
9.998e-06
9.99797e-06
9.99795e-06
9.99788e-06
9.99781e-06
9.99757e-06
9.99735e-06
9.99717e-06
9.997e-06
9.99676e-06
9.9966e-06
9.99646e-06
9.99719e-06
1.00072e-05
1.00874e-05
1.06994e-05
1.39085e-05
2.17018e-05
3.12181e-05
4.27032e-05
6.67744e-05
0.000109529
0.00014762
0.000150665
0.000150315
0.000149425
0.000158179
0.00017381
0.000189672
0.000143422
0.471176
0.978612
0.983421
0.984361
0.985024
0.985087
0.985057
0.9855
0.985978
0.986209
0.986231
0.986138
0.985779
0.985197
0.984639
0.983981
0.983055
0.981994
0.980832
0.979682
0.978612
0.977642
0.977036
0.976849
0.976772
0.976762
0.97701
0.9773
0.978107
0.979316
0.981183
0.983689
0.986814
0.990701
0.994153
0.996969
0.998723
4.26342e-06
5.22685e-06
5.58979e-06
6.67202e-06
6.65305e-06
6.63198e-06
7.64048e-06
8.65692e-06
8.97005e-06
9.26032e-06
9.50485e-06
9.81328e-06
9.92804e-06
9.99593e-06
9.99742e-06
1.00025e-05
9.99823e-06
1.00004e-05
9.99871e-06
9.99943e-06
9.99871e-06
9.99873e-06
9.99852e-06
9.9984e-06
9.99822e-06
9.99802e-06
9.9979e-06
9.99782e-06
9.99778e-06
9.99774e-06
9.99775e-06
9.99778e-06
9.99775e-06
9.99773e-06
9.99756e-06
9.99739e-06
9.99723e-06
9.99705e-06
9.99672e-06
9.99644e-06
9.99618e-06
9.99664e-06
1.00038e-05
1.00638e-05
1.04975e-05
1.32439e-05
2.0797e-05
2.92789e-05
5.17065e-05
9.43815e-05
0.000130755
0.000153765
0.000163651
0.000167725
0.000175425
0.000186581
0.00020294
0.000238933
0.000129874
0.717184
0.971331
0.971006
0.971026
0.97091
0.970969
0.971176
0.971525
0.971678
0.971734
0.971717
0.971438
0.971001
0.970505
0.970104
0.969544
0.968909
0.968363
0.967928
0.967499
0.966955
0.96648
0.965917
0.964983
0.963672
0.962298
0.961091
0.959861
0.958527
0.956974
0.955573
0.953808
0.951644
0.949566
0.948153
0.946354
0.950717
3.71911e-06
4.07487e-06
4.61748e-06
5.68878e-06
6.02896e-06
5.94744e-06
7.14084e-06
8.51166e-06
8.96529e-06
9.25957e-06
9.50204e-06
9.81082e-06
9.92763e-06
9.99619e-06
9.99716e-06
1.00019e-05
9.99786e-06
1e-05
9.99847e-06
9.99919e-06
9.99859e-06
9.99863e-06
9.99845e-06
9.99838e-06
9.99826e-06
9.99838e-06
9.99844e-06
9.99845e-06
9.99839e-06
9.99836e-06
9.99834e-06
9.99841e-06
9.99839e-06
9.99837e-06
9.99813e-06
9.99785e-06
9.99761e-06
9.99736e-06
9.99685e-06
9.99628e-06
9.99575e-06
9.99578e-06
1.00008e-05
1.00467e-05
1.03761e-05
1.26603e-05
1.98015e-05
2.7068e-05
6.56972e-05
0.00012827
0.000138648
0.000154824
0.000163898
0.000169744
0.000173028
0.000173656
0.000169389
0.000175835
0.000126962
0.318538
0.977568
0.985038
0.984836
0.984959
0.985305
0.985357
0.985342
0.985276
0.985236
0.985202
0.985169
0.985116
0.985233
0.985282
0.985351
0.985354
0.984597
0.98369
0.98286
0.982168
0.981487
0.980705
0.97987
0.979039
0.978267
0.9773
0.975823
0.973432
0.970346
0.965471
0.958864
0.950519
0.938493
0.917826
0.86869
0.660513
3.66133e-06
3.17215e-06
3.54704e-06
4.31426e-06
5.01304e-06
5.03575e-06
6.42353e-06
8.29935e-06
8.96338e-06
9.29438e-06
9.52585e-06
9.82176e-06
9.94007e-06
1.00003e-05
1.00003e-05
1.00042e-05
1.00005e-05
1.00024e-05
1.0001e-05
1.00015e-05
1.0001e-05
1.00009e-05
1.00008e-05
1.00007e-05
1.00006e-05
1.00004e-05
1.00003e-05
1.00002e-05
1.00002e-05
1.00001e-05
1e-05
1e-05
1e-05
9.99996e-06
9.99978e-06
9.99958e-06
9.99938e-06
9.99921e-06
9.99896e-06
9.99867e-06
9.99818e-06
9.99823e-06
1.00015e-05
1.0037e-05
1.03354e-05
1.22312e-05
1.88769e-05
2.76561e-05
4.79967e-05
0.000119128
0.000140797
0.000151068
0.000155097
0.000147919
0.000138789
0.000136949
0.000136596
0.000139118
0.000141663
0.125815
0.975743
0.993015
0.993248
0.994261
0.994902
0.995357
0.995617
0.995777
0.995944
0.996151
0.996494
0.996971
0.997457
0.997909
0.998272
0.998452
0.998315
0.99808
0.997904
0.997703
0.997544
0.997474
0.997545
0.997757
0.998091
0.998529
0.999141
0.999608
0.99972
0.999614
0.999498
0.999334
0.999075
0.99869
0.998153
0.997384
3.75537e-06
3.02021e-06
2.95156e-06
3.10552e-06
3.66243e-06
4.15321e-06
5.60943e-06
7.98897e-06
8.95811e-06
9.34746e-06
9.58074e-06
9.85804e-06
9.95949e-06
1.00036e-05
1.0002e-05
1.00054e-05
1.00021e-05
1.00039e-05
1.00028e-05
1.00032e-05
1.00029e-05
1.00028e-05
1.00026e-05
1.00026e-05
1.00024e-05
1.00023e-05
1.00022e-05
1.00022e-05
1.00021e-05
1.0002e-05
1.00019e-05
1.00019e-05
1.00018e-05
1.00018e-05
1.00016e-05
1.00014e-05
1.00011e-05
1.00008e-05
1.00004e-05
1.00001e-05
9.99957e-06
9.99931e-06
1.00014e-05
1.00253e-05
1.0278e-05
1.1771e-05
1.77527e-05
2.93666e-05
3.66732e-05
8.8271e-05
0.00012611
0.000142566
0.000145149
0.000143093
0.000142761
0.000149902
0.000140654
0.000146301
0.000126962
0.0841913
0.982611
0.998422
0.99865
0.999106
0.99927
0.999354
0.999356
0.999356
0.999392
0.999463
0.999574
0.999696
0.999794
0.999861
0.999902
0.999919
0.999922
0.999918
0.999914
0.999914
0.999926
0.999942
0.999961
0.999979
0.999989
0.999994
0.999998
0.999999
0.999999
0.999999
0.999999
0.999999
0.999999
0.999999
0.999999
0.999999
3.56147e-06
3.02174e-06
2.89022e-06
2.86403e-06
3.1354e-06
3.82395e-06
5.15111e-06
7.77162e-06
8.9315e-06
9.39822e-06
9.62612e-06
9.88696e-06
9.975e-06
1.00044e-05
1.00021e-05
1.00054e-05
1.00023e-05
1.00039e-05
1.0003e-05
1.00035e-05
1.00033e-05
1.00033e-05
1.00031e-05
1.00031e-05
1.0003e-05
1.00029e-05
1.00029e-05
1.00028e-05
1.00027e-05
1.00026e-05
1.00024e-05
1.00023e-05
1.00023e-05
1.00022e-05
1.00021e-05
1.00019e-05
1.00017e-05
1.00014e-05
1.00011e-05
1.00008e-05
1.00003e-05
9.99998e-06
1.00008e-05
1.00182e-05
1.02126e-05
1.12627e-05
1.57166e-05
2.65502e-05
3.99027e-05
6.36156e-05
9.30568e-05
0.000112177
0.000124779
0.000130836
0.000134948
0.000142229
0.000136196
0.000167607
0.000126962
0.0737604
0.991193
0.99992
0.999937
0.999975
0.999982
0.999988
0.999988
0.999988
0.999992
0.999995
0.999997
0.999998
0.999998
0.999999
0.999999
0.999999
0.999999
0.999999
0.999999
0.999999
0.999999
0.999999
0.999999
0.999999
0.999999
0.999999
0.999999
0.999999
0.999999
0.999999
0.999999
0.999999
0.999999
0.999999
0.999999
0.999999
2.99532e-06
3.28202e-06
3.04692e-06
2.89728e-06
2.95335e-06
3.70638e-06
5.64074e-06
8.17581e-06
9.07678e-06
9.44226e-06
9.66471e-06
9.91578e-06
9.98674e-06
1.00047e-05
1.00016e-05
1.00054e-05
1.00019e-05
1.00039e-05
1.00026e-05
1.00035e-05
1.00028e-05
1.00032e-05
1.00029e-05
1.0003e-05
1.00029e-05
1.00028e-05
1.00027e-05
1.00026e-05
1.00025e-05
1.00024e-05
1.00023e-05
1.00022e-05
1.0002e-05
1.00019e-05
1.00016e-05
1.00014e-05
1.00011e-05
1.0001e-05
1.00008e-05
1.00008e-05
1.00006e-05
1.00004e-05
1.00005e-05
1.00124e-05
1.01583e-05
1.09022e-05
1.3888e-05
2.36598e-05
4.23519e-05
6.02535e-05
6.91677e-05
7.73553e-05
8.9157e-05
0.000104299
0.000114435
0.000129045
0.000129208
0.000209398
0.000189765
0.0408689
0.990583
0.999999
0.999998
0.999999
0.999999
0.999999
0.999999
0.999999
0.999999
0.999999
0.999999
0.999999
0.999999
0.999999
0.999999
0.999999
0.999999
0.999999
0.999999
0.999999
0.999999
0.999999
0.999999
0.999999
0.999999
0.999999
0.999999
0.999999
0.999999
0.999999
0.999999
0.999999
0.999999
0.999999
0.999999
0.999999
2.87432e-06
3.55417e-06
3.58403e-06
3.50852e-06
3.1611e-06
3.76982e-06
6.03707e-06
8.42613e-06
9.2356e-06
9.53931e-06
9.73135e-06
9.94841e-06
9.99438e-06
1.00048e-05
1.00022e-05
1.00038e-05
1.00016e-05
1.00039e-05
1.00026e-05
1.00035e-05
1.00029e-05
1.00032e-05
1.0003e-05
1.00031e-05
1.0003e-05
1.00029e-05
1.00028e-05
1.00027e-05
1.00027e-05
1.00026e-05
1.00024e-05
1.00022e-05
1.0002e-05
1.00018e-05
1.00014e-05
1.0001e-05
1.00005e-05
1.00003e-05
1e-05
1.00003e-05
1.00008e-05
1.00008e-05
1.00014e-05
1.00092e-05
1.00881e-05
1.04665e-05
1.20843e-05
1.9926e-05
3.93099e-05
5.8976e-05
7.12164e-05
8.44269e-05
9.78248e-05
0.000110358
0.000112859
0.000122111
0.000162626
0.00026734
0.000274316
0.0362355
0.982823
0.999999
0.999999
0.999999
0.999999
0.999999
0.999999
0.999999
0.999999
0.999999
0.999999
0.999999
0.999999