/*--------------------------------*- C++ -*----------------------------------*\
| =========                 |                                                 |
| \\      /  F ield         | OpenFOAM: The Open Source CFD Toolbox           |
|  \\    /   O peration     | Version:  2.3.0                                 |
|   \\  /    A nd           | Web:      www.OpenFOAM.org                      |
|    \\/     M anipulation  |                                                 |
\*---------------------------------------------------------------------------*/
FoamFile
{
    version     2.0;
    format      ascii;
    class       volScalarField;
    location    "19";
    object      alpha.airMean;
}
// * * * * * * * * * * * * * * * * * * * * * * * * * * * * * * * * * * * * * //

dimensions      [0 0 0 0 0 0 0];

internalField   nonuniform List<scalar> 
6144
(
0.999991
0.999991
0.999991
0.999991
0.99999
0.99999
0.99999
0.99999
0.99999
0.99999
0.99999
0.99999
0.99999
0.99999
0.99999
0.99999
0.99999
0.99999
0.99999
0.99999
0.99999
0.99999
0.99999
0.99999
0.99999
0.99999
0.99999
0.99999
0.99999
0.99999
0.99999
0.99999
0.99999
0.99999
0.99999
0.99999
0.99999
0.99999
0.99999
0.99999
0.99999
0.99999
0.99999
0.99999
0.99999
0.99999
0.999989
0.999985
0.999977
0.999971
0.999965
0.99996
0.999957
0.999951
0.999946
0.999937
0.999931
0.999922
0.998775
0.934974
0.0336246
0.000203064
1.24122e-06
1.0643e-06
1.05746e-06
1.03964e-06
1.03736e-06
1.02369e-06
1.02318e-06
1.01389e-06
1.01123e-06
1.00349e-06
9.96433e-07
9.8827e-07
9.81418e-07
9.7129e-07
9.63466e-07
9.57076e-07
9.48509e-07
9.36579e-07
9.22252e-07
9.07526e-07
8.9454e-07
8.81835e-07
8.67898e-07
8.53812e-07
8.40453e-07
8.23689e-07
7.96171e-07
7.50047e-07
6.93106e-07
6.43908e-07
5.84681e-07
5.35113e-07
4.97781e-07
4.78424e-07
0.999992
0.999991
0.999991
0.999991
0.999991
0.99999
0.99999
0.99999
0.99999
0.99999
0.99999
0.99999
0.99999
0.99999
0.99999
0.99999
0.99999
0.99999
0.99999
0.99999
0.99999
0.99999
0.99999
0.99999
0.99999
0.99999
0.99999
0.99999
0.99999
0.99999
0.99999
0.99999
0.99999
0.99999
0.99999
0.99999
0.99999
0.99999
0.99999
0.99999
0.99999
0.99999
0.99999
0.99999
0.99999
0.99999
0.999988
0.999984
0.999979
0.999974
0.999968
0.999961
0.999954
0.999945
0.999937
0.999926
0.999921
0.999911
0.99943
0.947846
0.028441
0.000113281
1.12079e-06
1.10879e-06
1.08815e-06
1.07345e-06
1.07121e-06
1.06485e-06
1.0652e-06
1.04731e-06
1.04109e-06
1.02474e-06
1.01557e-06
1.00631e-06
9.97359e-07
9.83154e-07
9.74237e-07
9.66765e-07
9.55969e-07
9.40807e-07
9.22768e-07
9.06584e-07
8.91e-07
8.74589e-07
8.57134e-07
8.40994e-07
8.27879e-07
8.15714e-07
7.98823e-07
7.67906e-07
7.20724e-07
6.58369e-07
5.92985e-07
5.47078e-07
5.14933e-07
4.86721e-07
0.999992
0.999992
0.999991
0.999991
0.999991
0.99999
0.99999
0.99999
0.99999
0.99999
0.99999
0.99999
0.99999
0.99999
0.99999
0.99999
0.99999
0.99999
0.99999
0.99999
0.99999
0.99999
0.99999
0.99999
0.99999
0.99999
0.99999
0.99999
0.99999
0.99999
0.99999
0.99999
0.99999
0.99999
0.99999
0.99999
0.99999
0.99999
0.99999
0.99999
0.99999
0.99999
0.99999
0.99999
0.99999
0.99999
0.999988
0.999985
0.99998
0.999974
0.999966
0.999956
0.999946
0.999933
0.999924
0.999912
0.999911
0.999903
0.999611
0.935936
0.0249571
7.474e-05
2.69766e-06
2.71985e-06
2.67107e-06
2.56255e-06
2.21584e-06
1.83695e-06
1.47958e-06
1.22487e-06
1.11047e-06
1.05778e-06
1.04025e-06
1.02649e-06
1.01759e-06
9.98086e-07
9.86955e-07
9.7459e-07
9.6107e-07
9.46412e-07
9.31281e-07
9.13749e-07
8.96879e-07
8.75317e-07
8.55661e-07
8.39621e-07
8.26642e-07
8.16022e-07
8.01491e-07
7.77694e-07
7.37807e-07
6.80711e-07
6.08914e-07
5.55457e-07
5.30263e-07
4.90822e-07
0.999992
0.999992
0.999992
0.999991
0.999991
0.999991
0.99999
0.99999
0.99999
0.99999
0.99999
0.99999
0.99999
0.99999
0.99999
0.99999
0.99999
0.99999
0.99999
0.99999
0.99999
0.99999
0.99999
0.99999
0.99999
0.99999
0.99999
0.99999
0.99999
0.99999
0.99999
0.99999
0.99999
0.99999
0.99999
0.99999
0.99999
0.99999
0.99999
0.99999
0.99999
0.99999
0.99999
0.99999
0.99999
0.99999
0.999988
0.999985
0.999981
0.999972
0.999961
0.999948
0.999936
0.999922
0.999912
0.999901
0.999903
0.999893
0.999684
0.912691
0.0238668
9.57112e-05
4.9613e-05
4.81461e-05
4.77549e-05
4.5778e-05
4.08381e-05
3.30942e-05
2.40317e-05
1.55379e-05
9.13498e-06
5.02501e-06
2.87975e-06
1.94768e-06
1.58693e-06
1.38331e-06
1.22655e-06
1.09992e-06
1.01495e-06
9.71858e-07
9.60525e-07
9.46e-07
9.29044e-07
8.94986e-07
8.73722e-07
8.60704e-07
8.5314e-07
8.45196e-07
8.29541e-07
7.96005e-07
7.52005e-07
6.94457e-07
6.27637e-07
5.73762e-07
5.45668e-07
4.92398e-07
0.999992
0.999992
0.999992
0.999992
0.999991
0.999991
0.999991
0.99999
0.99999
0.99999
0.99999
0.99999
0.99999
0.99999
0.99999
0.99999
0.99999
0.99999
0.99999
0.99999
0.99999
0.99999
0.99999
0.99999
0.99999
0.99999
0.99999
0.99999
0.99999
0.99999
0.99999
0.99999
0.99999
0.99999
0.99999
0.99999
0.99999
0.99999
0.99999
0.99999
0.99999
0.99999
0.99999
0.99999
0.99999
0.999989
0.999988
0.999986
0.99998
0.999968
0.999954
0.999939
0.999927
0.999913
0.999903
0.999895
0.999896
0.999886
0.99972
0.886697
0.0263545
0.000604392
0.000580098
0.000552693
0.000550298
0.000520563
0.000470676
0.000405907
0.000338698
0.000271911
0.000211751
0.000161725
0.000122724
9.46307e-05
7.63157e-05
6.32357e-05
5.25434e-05
4.3117e-05
3.4801e-05
2.73587e-05
2.17622e-05
1.73547e-05
1.39261e-05
1.01061e-05
8.08745e-06
7.61593e-06
7.60096e-06
7.36065e-06
6.52393e-06
5.11211e-06
3.46158e-06
2.0986e-06
1.23932e-06
7.84957e-07
6.11464e-07
5.14822e-07
0.999992
0.999992
0.999992
0.999992
0.999992
0.999991
0.999991
0.999991
0.99999
0.99999
0.99999
0.99999
0.99999
0.99999
0.99999
0.99999
0.99999
0.99999
0.99999
0.99999
0.99999
0.99999
0.99999
0.99999
0.99999
0.99999
0.99999
0.99999
0.99999
0.99999
0.99999
0.99999
0.99999
0.99999
0.99999
0.99999
0.99999
0.99999
0.99999
0.99999
0.99999
0.99999
0.99999
0.99999
0.99999
0.999989
0.999988
0.999986
0.999978
0.999964
0.999947
0.999931
0.999921
0.999909
0.999902
0.999897
0.999901
0.999883
0.99978
0.852786
0.022905
0.00260083
0.00274769
0.00270544
0.00272965
0.00259744
0.00243529
0.00225493
0.00208015
0.00191609
0.00175653
0.0016066
0.00146609
0.00133523
0.00121773
0.00111379
0.00102128
0.000933607
0.000841323
0.000740577
0.00062524
0.00050688
0.000394769
0.000299775
0.000243796
0.00022476
0.00022016
0.000213664
0.000199284
0.000169811
0.000134179
9.57183e-05
6.10243e-05
3.27571e-05
1.33459e-05
5.33429e-06
0.999992
0.999992
0.999992
0.999992
0.999992
0.999991
0.999991
0.999991
0.99999
0.99999
0.99999
0.99999
0.99999
0.99999
0.99999
0.99999
0.99999
0.99999
0.99999
0.99999
0.99999
0.99999
0.99999
0.99999
0.99999
0.99999
0.99999
0.99999
0.99999
0.99999
0.99999
0.99999
0.99999
0.99999
0.99999
0.99999
0.99999
0.99999
0.99999
0.99999
0.99999
0.99999
0.99999
0.99999
0.99999
0.999989
0.999988
0.999986
0.999974
0.999957
0.99994
0.999926
0.999918
0.999912
0.999909
0.999905
0.999909
0.999897
0.999817
0.830098
0.0262842
0.00587891
0.00623376
0.0061591
0.00610101
0.00592106
0.00574577
0.00560573
0.00549159
0.00535529
0.00522448
0.00505318
0.00490168
0.00473109
0.004564
0.00437736
0.00419601
0.00398883
0.00375804
0.00346739
0.00314135
0.00277137
0.00238087
0.00200879
0.00170795
0.00147426
0.00133841
0.00126229
0.0011911
0.00112327
0.0010462
0.000945347
0.000795859
0.000594952
0.000374493
0.000202166
0.999992
0.999992
0.999992
0.999992
0.999992
0.999992
0.999991
0.999991
0.999991
0.99999
0.99999
0.99999
0.99999
0.99999
0.99999
0.99999
0.99999
0.99999
0.99999
0.99999
0.99999
0.99999
0.99999
0.99999
0.99999
0.99999
0.99999
0.99999
0.99999
0.99999
0.99999
0.99999
0.99999
0.99999
0.99999
0.99999
0.99999
0.99999
0.99999
0.99999
0.99999
0.99999
0.99999
0.99999
0.99999
0.999989
0.999988
0.999984
0.999967
0.999948
0.999933
0.999924
0.999919
0.999918
0.999918
0.999918
0.999918
0.999903
0.99978
0.807707
0.0300799
0.00934043
0.00992399
0.00988806
0.00979166
0.00967515
0.00963001
0.00967994
0.00974713
0.00980228
0.00985601
0.009876
0.00987082
0.00982125
0.00974971
0.0096497
0.0095333
0.0094302
0.00931899
0.00923176
0.00917846
0.00915867
0.00914082
0.00912871
0.00917148
0.00926574
0.00939058
0.00954686
0.00972403
0.00991389
0.0100545
0.0101079
0.00992181
0.00946532
0.00836041
0.00685621
0.999993
0.999992
0.999992
0.999992
0.999992
0.999992
0.999991
0.999991
0.999991
0.99999
0.99999
0.99999
0.99999
0.99999
0.99999
0.99999
0.99999
0.99999
0.99999
0.99999
0.99999
0.99999
0.99999
0.99999
0.99999
0.99999
0.99999
0.99999
0.99999
0.99999
0.99999
0.99999
0.99999
0.99999
0.99999
0.99999
0.99999
0.99999
0.99999
0.99999
0.99999
0.99999
0.99999
0.99999
0.99999
0.999989
0.999986
0.99998
0.999966
0.999948
0.999935
0.999927
0.999922
0.999921
0.999921
0.99992
0.999922
0.99991
0.999802
0.864378
0.0275818
0.00509531
0.00498399
0.00445585
0.00420038
0.00401328
0.003921
0.00385471
0.00383507
0.0038456
0.00389737
0.00394549
0.00399051
0.00402035
0.0040517
0.00407154
0.00408975
0.00409872
0.00410429
0.00409262
0.00407353
0.00403829
0.0040013
0.00395457
0.00391891
0.0039137
0.00394676
0.0040098
0.00404089
0.00399918
0.00385865
0.00357765
0.00312264
0.00243025
0.00150703
0.000744176
0.999993
0.999993
0.999992
0.999992
0.999992
0.999992
0.999991
0.999991
0.999991
0.99999
0.99999
0.99999
0.99999
0.99999
0.99999
0.99999
0.99999
0.99999
0.99999
0.99999
0.99999
0.99999
0.99999
0.99999
0.99999
0.99999
0.99999
0.99999
0.99999
0.99999
0.99999
0.99999
0.99999
0.99999
0.99999
0.99999
0.99999
0.99999
0.99999
0.99999
0.99999
0.99999
0.99999
0.99999
0.999989
0.999987
0.999985
0.999979
0.999969
0.999954
0.999941
0.999932
0.999926
0.999923
0.999923
0.999922
0.999925
0.999918
0.999873
0.917455
0.023764
0.00117051
0.00097331
0.000711989
0.000618682
0.000544966
0.000513884
0.000492765
0.000492683
0.000499681
0.000515403
0.000528914
0.000541963
0.000552967
0.000564868
0.000576363
0.000586481
0.000594186
0.000608824
0.000630343
0.000661657
0.000708244
0.000773226
0.000851544
0.000935988
0.00101919
0.00108695
0.00112083
0.00111613
0.00104807
0.000912248
0.000710503
0.000484203
0.000267703
0.000111537
4.46135e-05
0.999994
0.999993
0.999992
0.999992
0.999992
0.999991
0.999991
0.999991
0.999991
0.99999
0.99999
0.99999
0.99999
0.99999
0.99999
0.99999
0.99999
0.99999
0.99999
0.99999
0.99999
0.99999
0.99999
0.99999
0.99999
0.99999
0.99999
0.99999
0.99999
0.99999
0.99999
0.99999
0.99999
0.99999
0.99999
0.99999
0.99999
0.99999
0.99999
0.99999
0.99999
0.99999
0.99999
0.99999
0.999989
0.999987
0.999985
0.99998
0.999972
0.99996
0.999948
0.99994
0.999933
0.999928
0.999926
0.999924
0.999928
0.999918
0.999875
0.949091
0.0256893
0.000144306
5.75858e-05
3.39771e-05
2.56986e-05
2.03991e-05
1.95534e-05
1.97999e-05
2.1269e-05
2.31699e-05
2.52525e-05
2.69571e-05
2.8367e-05
2.93372e-05
2.9977e-05
3.02554e-05
3.01802e-05
3.0195e-05
3.16512e-05
3.43854e-05
3.88223e-05
4.48108e-05
5.19075e-05
5.91321e-05
6.52898e-05
6.99143e-05
7.28501e-05
7.37735e-05
7.06604e-05
6.18636e-05
4.83434e-05
3.01187e-05
1.54428e-05
6.23175e-06
2.27835e-06
1.16875e-06
0.999995
0.999993
0.999993
0.999993
0.999992
0.999991
0.999991
0.999991
0.999991
0.99999
0.99999
0.99999
0.99999
0.99999
0.99999
0.99999
0.99999
0.99999
0.99999
0.99999
0.99999
0.99999
0.99999
0.99999
0.99999
0.99999
0.99999
0.99999
0.99999
0.99999
0.99999
0.99999
0.99999
0.99999
0.99999
0.99999
0.99999
0.99999
0.99999
0.99999
0.99999
0.99999
0.99999
0.99999
0.999989
0.999988
0.999986
0.999981
0.999975
0.999965
0.999955
0.999947
0.999941
0.999933
0.999931
0.999928
0.999929
0.999918
0.999812
0.966714
0.036297
0.000121938
1.62945e-06
1.31049e-06
1.21187e-06
1.17801e-06
1.15524e-06
1.12939e-06
1.12143e-06
1.12301e-06
1.13784e-06
1.12958e-06
1.11858e-06
1.10833e-06
1.09434e-06
1.07307e-06
1.03958e-06
1.00348e-06
9.94595e-07
9.93514e-07
1.00694e-06
1.05207e-06
1.11395e-06
1.17362e-06
1.21964e-06
1.24032e-06
1.21219e-06
1.14435e-06
1.0946e-06
1.02207e-06
9.04509e-07
7.74578e-07
6.69852e-07
6.19402e-07
5.85625e-07
5.19289e-07
0.999996
0.999994
0.999994
0.999993
0.999993
0.999992
0.999991
0.999991
0.999991
0.99999
0.99999
0.99999
0.99999
0.99999
0.99999
0.99999
0.99999
0.99999
0.99999
0.99999
0.99999
0.99999
0.99999
0.99999
0.99999
0.99999
0.99999
0.99999
0.99999
0.99999
0.99999
0.99999
0.99999
0.99999
0.99999
0.99999
0.99999
0.99999
0.99999
0.99999
0.99999
0.99999
0.99999
0.99999
0.99999
0.999989
0.999987
0.999983
0.999976
0.999969
0.99996
0.999953
0.999947
0.99994
0.999935
0.999932
0.999931
0.999916
0.999735
0.972474
0.0509413
0.000224607
1.24214e-06
1.11885e-06
1.10364e-06
1.09558e-06
1.08856e-06
1.07551e-06
1.06333e-06
1.05028e-06
1.04417e-06
1.03787e-06
1.03428e-06
1.02512e-06
1.0109e-06
9.97795e-07
9.89835e-07
9.81968e-07
9.70869e-07
9.60618e-07
9.51158e-07
9.40855e-07
9.30878e-07
9.20344e-07
9.06906e-07
8.84872e-07
8.54903e-07
8.16124e-07
7.67878e-07
7.19876e-07
6.87381e-07
6.47533e-07
5.94465e-07
5.65823e-07
5.34151e-07
4.74639e-07
0.999996
0.999995
0.999994
0.999994
0.999993
0.999993
0.999992
0.999991
0.999991
0.99999
0.99999
0.99999
0.99999
0.99999
0.99999
0.99999
0.99999
0.99999
0.99999
0.99999
0.99999
0.99999
0.99999
0.99999
0.99999
0.99999
0.99999
0.99999
0.99999
0.99999
0.99999
0.99999
0.99999
0.99999
0.99999
0.99999
0.99999
0.99999
0.99999
0.99999
0.99999
0.99999
0.99999
0.99999
0.99999
0.999989
0.999988
0.999984
0.999977
0.99997
0.999963
0.999956
0.999951
0.999945
0.999939
0.999934
0.999931
0.999909
0.999704
0.970406
0.0604046
0.0003504
1.42583e-06
1.10591e-06
1.09069e-06
1.0802e-06
1.07774e-06
1.06715e-06
1.05959e-06
1.04735e-06
1.04116e-06
1.03011e-06
1.02278e-06
1.01357e-06
1.00375e-06
9.9279e-07
9.82758e-07
9.74278e-07
9.65676e-07
9.5714e-07
9.47481e-07
9.38828e-07
9.30155e-07
9.20994e-07
9.10451e-07
8.92359e-07
8.61669e-07
8.18762e-07
7.62561e-07
6.99071e-07
6.47555e-07
6.1917e-07
5.83259e-07
5.59374e-07
5.28898e-07
4.64214e-07
0.999997
0.999995
0.999995
0.999994
0.999994
0.999994
0.999993
0.999992
0.999991
0.999991
0.99999
0.99999
0.99999
0.99999
0.99999
0.99999
0.99999
0.99999
0.99999
0.99999
0.99999
0.99999
0.99999
0.99999
0.99999
0.99999
0.99999
0.99999
0.99999
0.99999
0.99999
0.99999
0.99999
0.99999
0.99999
0.99999
0.99999
0.99999
0.99999
0.99999
0.99999
0.99999
0.99999
0.99999
0.99999
0.99999
0.999988
0.999985
0.999979
0.999972
0.999966
0.999959
0.999954
0.999949
0.999944
0.999938
0.999931
0.999912
0.999718
0.964783
0.055291
0.000244929
1.2175e-06
1.10059e-06
1.0887e-06
1.07331e-06
1.06531e-06
1.05324e-06
1.04735e-06
1.03496e-06
1.03048e-06
1.02145e-06
1.01307e-06
1.0041e-06
9.94892e-07
9.85205e-07
9.7555e-07
9.68291e-07
9.60395e-07
9.5234e-07
9.44222e-07
9.35659e-07
9.2707e-07
9.19464e-07
9.1125e-07
8.99071e-07
8.76579e-07
8.36547e-07
7.77829e-07
7.0545e-07
6.43059e-07
6.01578e-07
5.67999e-07
5.41428e-07
5.1029e-07
4.55203e-07
0.999997
0.999996
0.999996
0.999995
0.999995
0.999994
0.999993
0.999992
0.999991
0.999991
0.99999
0.99999
0.99999
0.99999
0.99999
0.99999
0.99999
0.99999
0.99999
0.99999
0.99999
0.99999
0.99999
0.99999
0.99999
0.99999
0.99999
0.99999
0.99999
0.99999
0.99999
0.99999
0.99999
0.99999
0.99999
0.99999
0.99999
0.99999
0.99999
0.99999
0.99999
0.99999
0.99999
0.99999
0.99999
0.99999
0.999988
0.999985
0.999978
0.99997
0.999965
0.99996
0.999956
0.999953
0.999946
0.999936
0.999932
0.999918
0.999479
0.958877
0.0590189
0.000455297
1.69095e-06
1.10161e-06
1.09235e-06
1.07582e-06
1.06612e-06
1.05177e-06
1.04764e-06
1.03579e-06
1.02867e-06
1.01884e-06
1.00988e-06
1.0013e-06
9.92532e-07
9.83735e-07
9.7573e-07
9.67876e-07
9.59593e-07
9.52116e-07
9.44362e-07
9.3596e-07
9.28491e-07
9.21218e-07
9.13444e-07
9.06238e-07
8.91866e-07
8.59998e-07
8.08315e-07
7.40436e-07
6.58915e-07
5.85981e-07
5.47202e-07
5.10259e-07
4.77922e-07
4.37514e-07
0.999991
0.999991
0.999991
0.999991
0.999991
0.99999
0.99999
0.99999
0.99999
0.99999
0.99999
0.99999
0.99999
0.99999
0.99999
0.99999
0.99999
0.99999
0.99999
0.99999
0.99999
0.99999
0.99999
0.99999
0.99999
0.99999
0.99999
0.99999
0.99999
0.99999
0.99999
0.99999
0.99999
0.99999
0.99999
0.99999
0.99999
0.99999
0.99999
0.99999
0.99999
0.99999
0.99999
0.99999
0.99999
0.99999
0.999989
0.999985
0.999977
0.999971
0.999966
0.99996
0.999957
0.999952
0.999948
0.999942
0.999938
0.999913
0.999233
0.945312
0.0326531
0.000114489
1.09708e-06
1.06287e-06
1.0544e-06
1.03637e-06
1.03466e-06
1.02075e-06
1.01885e-06
1.00905e-06
1.00674e-06
9.98263e-07
9.92809e-07
9.84465e-07
9.77099e-07
9.68665e-07
9.60743e-07
9.5369e-07
9.4495e-07
9.32032e-07
9.19612e-07
9.05564e-07
8.90349e-07
8.71901e-07
8.54868e-07
8.44226e-07
8.36523e-07
8.2776e-07
8.12706e-07
7.82558e-07
7.32109e-07
6.69228e-07
6.00681e-07
5.44295e-07
5.10161e-07
4.84725e-07
0.999992
0.999991
0.999991
0.999991
0.999991
0.999991
0.999991
0.99999
0.99999
0.99999
0.99999
0.99999
0.99999
0.99999
0.99999
0.99999
0.99999
0.99999
0.99999
0.99999
0.99999
0.99999
0.99999
0.99999
0.99999
0.99999
0.99999
0.99999
0.99999
0.99999
0.99999
0.99999
0.99999
0.99999
0.99999
0.99999
0.99999
0.99999
0.99999
0.99999
0.99999
0.99999
0.99999
0.99999
0.99999
0.99999
0.999988
0.999985
0.999979
0.999973
0.999967
0.99996
0.999953
0.999946
0.999941
0.999935
0.999928
0.999899
0.999604
0.913761
0.0143927
1.29753e-05
1.09114e-06
1.15796e-06
1.11962e-06
1.1049e-06
1.09813e-06
1.07743e-06
1.07377e-06
1.05836e-06
1.05062e-06
1.02912e-06
1.01652e-06
1.0031e-06
9.92685e-07
9.81375e-07
9.72724e-07
9.64845e-07
9.5427e-07
9.41457e-07
9.26142e-07
9.10573e-07
8.91451e-07
8.67574e-07
8.43287e-07
8.24819e-07
8.11432e-07
8.03575e-07
7.95081e-07
7.76651e-07
7.39726e-07
6.80657e-07
6.10366e-07
5.59838e-07
5.34496e-07
4.97633e-07
0.999992
0.999992
0.999991
0.999991
0.999991
0.999991
0.999991
0.999991
0.999991
0.99999
0.99999
0.99999
0.99999
0.99999
0.99999
0.99999
0.99999
0.99999
0.99999
0.99999
0.99999
0.99999
0.99999
0.99999
0.99999
0.99999
0.99999
0.99999
0.99999
0.99999
0.99999
0.99999
0.99999
0.99999
0.99999
0.99999
0.99999
0.99999
0.99999
0.99999
0.99999
0.99999
0.99999
0.99999
0.99999
0.99999
0.999988
0.999985
0.99998
0.999974
0.999965
0.999953
0.999942
0.999933
0.999929
0.999926
0.999922
0.999892
0.999741
0.880529
0.0119825
8.26588e-06
7.57864e-06
7.05918e-06
6.74806e-06
5.4834e-06
4.35577e-06
3.08698e-06
2.22772e-06
1.63561e-06
1.33556e-06
1.16636e-06
1.08713e-06
1.05702e-06
1.04701e-06
1.03043e-06
1.01844e-06
1.00882e-06
1.00094e-06
9.89446e-07
9.783e-07
9.61134e-07
9.35142e-07
8.94298e-07
8.55195e-07
8.2845e-07
8.09214e-07
7.95243e-07
7.8353e-07
7.67848e-07
7.39895e-07
6.92368e-07
6.2371e-07
5.70978e-07
5.48554e-07
5.08952e-07
0.999992
0.999992
0.999991
0.999991
0.999991
0.999991
0.999991
0.999991
0.999991
0.99999
0.99999
0.99999
0.99999
0.99999
0.99999
0.99999
0.99999
0.99999
0.99999
0.99999
0.99999
0.99999
0.99999
0.99999
0.99999
0.99999
0.99999
0.99999
0.99999
0.99999
0.99999
0.99999
0.99999
0.99999
0.99999
0.99999
0.99999
0.99999
0.99999
0.99999
0.99999
0.99999
0.99999
0.99999
0.99999
0.999989
0.999988
0.999985
0.999981
0.999972
0.999956
0.999941
0.999927
0.999919
0.999914
0.999902
0.999888
0.999865
0.999783
0.820733
0.00785805
0.000295139
0.000273835
0.000243688
0.000230349
0.00019365
0.000155065
0.000115911
8.21043e-05
5.48383e-05
3.54156e-05
2.23242e-05
1.43498e-05
9.79826e-06
7.49278e-06
6.22712e-06
5.50556e-06
5.00104e-06
4.49281e-06
3.94185e-06
3.42653e-06
2.97344e-06
2.57507e-06
2.20656e-06
1.89608e-06
1.64951e-06
1.42055e-06
1.19968e-06
1.02866e-06
8.90887e-07
8.02008e-07
7.36019e-07
6.78752e-07
6.17718e-07
5.71647e-07
5.07498e-07
0.999992
0.999992
0.999992
0.999992
0.999991
0.999991
0.999991
0.999991
0.999991
0.99999
0.99999
0.99999
0.99999
0.99999
0.99999
0.99999
0.99999
0.99999
0.99999
0.99999
0.99999
0.99999
0.99999
0.99999
0.99999
0.99999
0.99999
0.99999
0.99999
0.99999
0.99999
0.99999
0.99999
0.99999
0.99999
0.99999
0.99999
0.99999
0.99999
0.99999
0.99999
0.99999
0.99999
0.99999
0.99999
0.999989
0.999988
0.999986
0.99998
0.999966
0.999948
0.999932
0.999915
0.999904
0.999892
0.999874
0.999862
0.999851
0.999844
0.734343
0.0112353
0.00374209
0.00361739
0.00335794
0.00318418
0.00286353
0.00252406
0.00216801
0.00181821
0.00148917
0.00120344
0.000962096
0.000769083
0.000624404
0.000516165
0.00044237
0.000394141
0.000362051
0.000341895
0.000327798
0.00031285
0.000287152
0.000256499
0.000226362
0.000190962
0.000156071
0.000124366
9.47963e-05
6.79098e-05
4.47939e-05
2.66089e-05
1.4004e-05
6.6825e-06
2.87673e-06
1.29896e-06
7.48406e-07
0.999993
0.999992
0.999992
0.999992
0.999992
0.999991
0.999991
0.999991
0.999991
0.99999
0.99999
0.99999
0.99999
0.99999
0.99999
0.99999
0.99999
0.99999
0.99999
0.99999
0.99999
0.99999
0.99999
0.99999
0.99999
0.99999
0.99999
0.99999
0.99999
0.99999
0.99999
0.99999
0.99999
0.99999
0.99999
0.99999
0.99999
0.99999
0.99999
0.99999
0.99999
0.99999
0.99999
0.99999
0.99999
0.999989
0.999988
0.999985
0.999978
0.999962
0.999942
0.999926
0.99991
0.999894
0.999879
0.999871
0.999869
0.999864
0.999785
0.607191
0.020885
0.0151992
0.0156198
0.0155223
0.0153623
0.0150469
0.0146214
0.0141161
0.0134631
0.0127434
0.0119421
0.0111069
0.0102606
0.00944201
0.00866433
0.00797859
0.00738335
0.00688973
0.0064897
0.00615417
0.00582614
0.00548518
0.0050819
0.00471118
0.00431153
0.0038394
0.00336334
0.00289003
0.00242483
0.00195804
0.00152275
0.00111949
0.000752066
0.000431122
0.000193874
6.63921e-05
0.999993
0.999993
0.999992
0.999992
0.999992
0.999992
0.999991
0.999991
0.999991
0.99999
0.99999
0.99999
0.99999
0.99999
0.99999
0.99999
0.99999
0.99999
0.99999
0.99999
0.99999
0.99999
0.99999
0.99999
0.99999
0.99999
0.99999
0.99999
0.99999
0.99999
0.99999
0.99999
0.99999
0.99999
0.99999
0.99999
0.99999
0.99999
0.99999
0.99999
0.99999
0.99999
0.99999
0.99999
0.99999
0.999989
0.999987
0.999983
0.999974
0.999957
0.999937
0.99992
0.999909
0.999901
0.999894
0.999888
0.999887
0.999879
0.999218
0.588607
0.031958
0.0251337
0.0264053
0.0269868
0.027443
0.0279601
0.0284252
0.028866
0.0292541
0.0296644
0.0300543
0.0304334
0.03071
0.0309128
0.0309997
0.0310324
0.0309651
0.0308414
0.0306026
0.0302379
0.0296867
0.0289547
0.028149
0.0272837
0.0262769
0.0252447
0.0240818
0.0228623
0.0216543
0.0203808
0.018966
0.0173743
0.0154449
0.013114
0.0103828
0.008111
0.999993
0.999993
0.999993
0.999993
0.999992
0.999992
0.999991
0.999991
0.999991
0.99999
0.99999
0.99999
0.99999
0.99999
0.99999
0.99999
0.99999
0.99999
0.99999
0.99999
0.99999
0.99999
0.99999
0.99999
0.99999
0.99999
0.99999
0.99999
0.99999
0.99999
0.99999
0.99999
0.99999
0.99999
0.99999
0.99999
0.99999
0.99999
0.99999
0.99999
0.99999
0.99999
0.99999
0.99999
0.99999
0.999989
0.999987
0.999982
0.999967
0.999946
0.999932
0.999922
0.999917
0.999917
0.999914
0.999909
0.999906
0.9999
0.998591
0.71832
0.0328015
0.019656
0.0205224
0.0207586
0.0212397
0.0220755
0.0232031
0.0245045
0.0259976
0.0275894
0.0292911
0.0311415
0.0330876
0.0350796
0.0371601
0.0393109
0.0416055
0.0440636
0.0466392
0.0492718
0.0519571
0.0548352
0.0580541
0.0616384
0.0655605
0.0697741
0.0742906
0.0792541
0.0848731
0.0914197
0.0993865
0.109295
0.122577
0.143651
0.192047
0.387261
0.999993
0.999993
0.999993
0.999993
0.999993
0.999992
0.999992
0.999991
0.999991
0.99999
0.99999
0.99999
0.99999
0.99999
0.99999
0.99999
0.99999
0.99999
0.99999
0.99999
0.99999
0.99999
0.99999
0.99999
0.99999
0.99999
0.99999
0.99999
0.99999
0.99999
0.99999
0.99999
0.99999
0.99999
0.99999
0.99999
0.99999
0.99999
0.99999
0.99999
0.99999
0.99999
0.99999
0.99999
0.99999
0.999989
0.999986
0.999981
0.99997
0.999949
0.999935
0.99993
0.999924
0.999922
0.999916
0.99991
0.999908
0.999902
0.999786
0.839514
0.0204037
0.00511755
0.00478297
0.00398745
0.00368529
0.00342762
0.00338984
0.00344092
0.00352569
0.003647
0.00379254
0.00392135
0.00405135
0.004191
0.00438082
0.00461205
0.00489164
0.00516189
0.00542471
0.00571506
0.0060259
0.00633564
0.00660824
0.00691941
0.0073594
0.0079568
0.00870145
0.00952529
0.0103487
0.0111405
0.0118247
0.0125429
0.0135049
0.0144836
0.0151336
0.0138467
0.999994
0.999993
0.999993
0.999993
0.999993
0.999992
0.999992
0.999991
0.999991
0.999991
0.99999
0.99999
0.99999
0.99999
0.99999
0.99999
0.99999
0.99999
0.99999
0.99999
0.99999
0.99999
0.99999
0.99999
0.99999
0.99999
0.99999
0.99999
0.99999
0.99999
0.99999
0.99999
0.99999
0.99999
0.99999
0.99999
0.99999
0.99999
0.99999
0.99999
0.99999
0.99999
0.99999
0.99999
0.99999
0.999988
0.999986
0.999981
0.999975
0.99996
0.999944
0.999938
0.999932
0.999926
0.999918
0.999914
0.999913
0.999903
0.999902
0.895738
0.0123969
0.000664886
0.000564324
0.000397769
0.000342245
0.000291916
0.000286557
0.000293754
0.000308605
0.00032516
0.000343623
0.000358753
0.000370376
0.000378139
0.000381977
0.000383292
0.000384388
0.000381943
0.000381652
0.000389934
0.000409756
0.000457204
0.000524989
0.000616935
0.00072366
0.000846584
0.000987152
0.00112414
0.00127156
0.001431
0.00157806
0.00166281
0.00162516
0.00127457
0.000764282
0.000334761
0.999995
0.999994
0.999993
0.999993
0.999993
0.999992
0.999992
0.999991
0.999991
0.999991
0.99999
0.99999
0.99999
0.99999
0.99999
0.99999
0.99999
0.99999
0.99999
0.99999
0.99999
0.99999
0.99999
0.99999
0.99999
0.99999
0.99999
0.99999
0.99999
0.99999
0.99999
0.99999
0.99999
0.99999
0.99999
0.99999
0.99999
0.99999
0.99999
0.99999
0.99999
0.99999
0.99999
0.99999
0.99999
0.999989
0.999987
0.999983
0.999976
0.999968
0.999955
0.999946
0.999941
0.999936
0.99993
0.999924
0.999919
0.9999
0.999888
0.929835
0.0140755
4.00608e-05
3.52545e-05
2.06922e-05
1.81141e-05
1.55346e-05
1.53832e-05
1.54242e-05
1.5685e-05
1.57725e-05
1.60481e-05
1.6376e-05
1.6669e-05
1.6655e-05
1.67541e-05
1.66433e-05
1.56672e-05
1.42299e-05
1.36214e-05
1.38963e-05
1.5279e-05
1.87491e-05
2.32748e-05
2.87418e-05
3.35585e-05
3.61414e-05
3.65322e-05
3.52201e-05
3.34017e-05
3.15002e-05
3.08203e-05
2.94726e-05
2.3256e-05
1.32209e-05
6.03665e-06
2.55558e-06
0.999995
0.999994
0.999994
0.999994
0.999993
0.999993
0.999992
0.999991
0.999991
0.999991
0.99999
0.99999
0.99999
0.99999
0.99999
0.99999
0.99999
0.99999
0.99999
0.99999
0.99999
0.99999
0.99999
0.99999
0.99999
0.99999
0.99999
0.99999
0.99999
0.99999
0.99999
0.99999
0.99999
0.99999
0.99999
0.99999
0.99999
0.99999
0.99999
0.99999
0.99999
0.99999
0.99999
0.99999
0.99999
0.99999
0.999988
0.999985
0.999978
0.999972
0.999963
0.999954
0.999948
0.999942
0.999938
0.999932
0.999921
0.999898
0.999841
0.950417
0.0203822
1.66202e-06
2.41951e-06
1.36991e-06
1.40589e-06
1.28918e-06
1.28878e-06
1.24737e-06
1.22814e-06
1.20269e-06
1.19523e-06
1.19433e-06
1.18915e-06
1.17451e-06
1.1574e-06
1.14005e-06
1.09961e-06
1.06425e-06
1.05392e-06
1.04781e-06
1.05445e-06
1.06338e-06
1.07862e-06
1.09529e-06
1.09527e-06
1.05147e-06
9.58976e-07
8.82113e-07
8.40079e-07
7.98867e-07
7.44776e-07
6.88685e-07
6.39839e-07
6.05891e-07
5.67319e-07
5.11332e-07
0.999995
0.999994
0.999994
0.999994
0.999994
0.999993
0.999992
0.999991
0.999991
0.999991
0.99999
0.99999
0.99999
0.99999
0.99999
0.99999
0.99999
0.99999
0.99999
0.99999
0.99999
0.99999
0.99999
0.99999
0.99999
0.99999
0.99999
0.99999
0.99999
0.99999
0.99999
0.99999
0.99999
0.99999
0.99999
0.99999
0.99999
0.99999
0.99999
0.99999
0.99999
0.99999
0.99999
0.99999
0.99999
0.99999
0.999989
0.999985
0.999979
0.999973
0.999967
0.999958
0.999949
0.999942
0.999937
0.999929
0.999915
0.999898
0.999783
0.957241
0.0324075
2.09801e-05
1.16075e-06
1.12853e-06
1.13388e-06
1.11907e-06
1.11024e-06
1.09418e-06
1.08439e-06
1.06503e-06
1.05415e-06
1.0402e-06
1.03117e-06
1.01799e-06
1.00433e-06
9.92044e-07
9.84119e-07
9.73252e-07
9.61123e-07
9.51936e-07
9.42112e-07
9.32111e-07
9.24213e-07
9.16261e-07
9.05259e-07
8.87031e-07
8.58339e-07
8.19013e-07
7.71497e-07
7.20391e-07
6.67411e-07
6.32799e-07
5.89051e-07
5.60461e-07
5.18312e-07
4.51692e-07
0.999996
0.999995
0.999995
0.999994
0.999994
0.999993
0.999992
0.999991
0.999991
0.999991
0.99999
0.99999
0.99999
0.99999
0.99999
0.99999
0.99999
0.99999
0.99999
0.99999
0.99999
0.99999
0.99999
0.99999
0.99999
0.99999
0.99999
0.99999
0.99999
0.99999
0.99999
0.99999
0.99999
0.99999
0.99999
0.99999
0.99999
0.99999
0.99999
0.99999
0.99999
0.99999
0.99999
0.99999
0.99999
0.99999
0.999989
0.999985
0.999979
0.999973
0.999967
0.999959
0.999949
0.99994
0.999931
0.999922
0.999907
0.999884
0.999717
0.95145
0.033753
2.92433e-05
1.13678e-06
1.11334e-06
1.09116e-06
1.07884e-06
1.07773e-06
1.06437e-06
1.05928e-06
1.04544e-06
1.03748e-06
1.02546e-06
1.01871e-06
1.00739e-06
9.96318e-07
9.85073e-07
9.75402e-07
9.65586e-07
9.56132e-07
9.47837e-07
9.38646e-07
9.29691e-07
9.22715e-07
9.15087e-07
9.04836e-07
8.88874e-07
8.60347e-07
8.20933e-07
7.70395e-07
7.04047e-07
6.4217e-07
6.03427e-07
5.77996e-07
5.61083e-07
5.31099e-07
4.52803e-07
0.999996
0.999996
0.999995
0.999995
0.999994
0.999993
0.999993
0.999992
0.999991
0.999991
0.99999
0.99999
0.99999
0.99999
0.99999
0.99999
0.99999
0.99999
0.99999
0.99999
0.99999
0.99999
0.99999
0.99999
0.99999
0.99999
0.99999
0.99999
0.99999
0.99999
0.99999
0.99999
0.99999
0.99999
0.99999
0.99999
0.99999
0.99999
0.99999
0.99999
0.99999
0.99999
0.99999
0.99999
0.99999
0.99999
0.999989
0.999985
0.999979
0.999972
0.999967
0.999961
0.999948
0.999941
0.999927
0.999913
0.999894
0.999873
0.999737
0.931918
0.0280873
5.40839e-05
1.14627e-06
1.09697e-06
1.0824e-06
1.06388e-06
1.06065e-06
1.04699e-06
1.04232e-06
1.03025e-06
1.0243e-06
1.01275e-06
1.00516e-06
9.94924e-07
9.86709e-07
9.77508e-07
9.68812e-07
9.61234e-07
9.52639e-07
9.44428e-07
9.3567e-07
9.2691e-07
9.19921e-07
9.12973e-07
9.04586e-07
8.935e-07
8.72241e-07
8.33556e-07
7.75668e-07
7.03517e-07
6.33487e-07
5.81467e-07
5.58923e-07
5.40873e-07
5.09982e-07
4.45642e-07
0.999997
0.999996
0.999996
0.999995
0.999995
0.999994
0.999993
0.999993
0.999992
0.999991
0.99999
0.99999
0.99999
0.99999
0.99999
0.99999
0.99999
0.99999
0.99999
0.99999
0.99999
0.99999
0.99999
0.99999
0.99999
0.99999
0.99999
0.99999
0.99999
0.99999
0.99999
0.99999
0.99999
0.99999
0.99999
0.99999
0.99999
0.99999
0.99999
0.99999
0.99999
0.99999
0.99999
0.99999
0.99999
0.99999
0.999989
0.999985
0.999979
0.99997
0.999965
0.99996
0.999956
0.999949
0.999935
0.999916
0.9999
0.999868
0.999613
0.954457
0.0471469
0.000286006
1.47662e-06
1.09483e-06
1.08439e-06
1.06455e-06
1.06067e-06
1.04648e-06
1.04121e-06
1.02847e-06
1.02184e-06
1.01067e-06
1.00346e-06
9.93805e-07
9.85725e-07
9.77381e-07
9.70376e-07
9.62689e-07
9.54257e-07
9.47181e-07