/*--------------------------------*- C++ -*----------------------------------*\
| =========                 |                                                 |
| \\      /  F ield         | OpenFOAM: The Open Source CFD Toolbox           |
|  \\    /   O peration     | Version:  2.3.0                                 |
|   \\  /    A nd           | Web:      www.OpenFOAM.org                      |
|    \\/     M anipulation  |                                                 |
\*---------------------------------------------------------------------------*/
FoamFile
{
    version     2.0;
    format      ascii;
    class       volScalarField;
    location    "19";
    object      epsilon.water;
}
// * * * * * * * * * * * * * * * * * * * * * * * * * * * * * * * * * * * * * //

dimensions      [0 2 -3 0 0 0 0];

internalField   nonuniform List<scalar> 
6144
(
4.20106e-05
2.43388e-05
1.848e-05
1.55062e-05
9.69937e-06
7.42524e-06
5.00273e-06
4.06292e-06
3.93843e-06
4.84385e-06
6.47825e-06
8.01021e-06
8.49285e-06
8.55231e-06
7.87048e-06
7.4908e-06
7.19557e-06
7.05059e-06
6.94139e-06
6.87874e-06
6.84468e-06
6.83466e-06
6.84552e-06
6.87083e-06
6.9014e-06
6.93409e-06
6.96766e-06
7.01077e-06
7.05635e-06
7.10073e-06
7.15049e-06
7.1869e-06
7.24838e-06
7.25072e-06
7.35314e-06
7.29194e-06
7.46362e-06
7.32354e-06
7.60268e-06
7.44359e-06
7.84729e-06
8.01695e-06
8.33629e-06
9.37071e-06
8.99456e-06
1.0213e-05
8.55752e-06
8.93848e-06
7.96614e-06
1.01926e-05
1.99393e-05
2.32595e-05
5.67519e-05
0.000150088
0.000472168
0.00100112
0.00182033
0.00454846
0.0101876
0.0170685
0.0501134
0.0265056
0.0156588
0.00996517
0.00705609
0.00536375
0.00430915
0.00358829
0.003049
0.00261516
0.00224939
0.00193136
0.00165598
0.00141674
0.00121174
0.00103602
0.000889761
0.000771001
0.000677611
0.00060882
0.000557401
0.000530111
0.000514943
0.000503508
0.000494684
0.000484164
0.000474877
0.000461615
0.00044658
0.00043013
0.000404331
0.000370006
0.000282999
7.95777e-05
5.98837e-05
7.28577e-05
8.03569e-05
5.20916e-05
4.12272e-05
3.28082e-05
2.24079e-05
1.94698e-05
1.43882e-05
1.36754e-05
1.60604e-05
2.02859e-05
2.3192e-05
2.4734e-05
2.47599e-05
2.38298e-05
2.22395e-05
2.15661e-05
2.12553e-05
2.14176e-05
2.16355e-05
2.19005e-05
2.21571e-05
2.23939e-05
2.26156e-05
2.28295e-05
2.30278e-05
2.32097e-05
2.33678e-05
2.35155e-05
2.366e-05
2.3805e-05
2.39548e-05
2.40766e-05
2.42349e-05
2.4282e-05
2.45247e-05
2.4388e-05
2.47911e-05
2.43433e-05
2.513e-05
2.42179e-05
2.55267e-05
2.48138e-05
2.59579e-05
2.68953e-05
2.70323e-05
2.90831e-05
2.81718e-05
2.93373e-05
2.73475e-05
3.58274e-05
5.32846e-05
6.94856e-05
0.000141805
0.000321598
0.00097451
0.00211456
0.00511215
0.011332
0.0198622
0.0154445
0.0238785
0.00499538
0.00605989
0.00495796
0.00417031
0.00369297
0.00323555
0.00282436
0.00248103
0.00218227
0.00191071
0.00165845
0.00143356
0.00122039
0.00104226
0.000890283
0.000768453
0.000667292
0.000601947
0.000565143
0.000564838
0.000563706
0.000555974
0.00053863
0.000516263
0.000490985
0.00047179
0.000450234
0.000432399
0.000408474
0.000376129
0.000340676
0.000264906
8.96898e-05
6.40223e-05
8.45033e-05
0.000100207
7.18227e-05
6.00026e-05
5.4304e-05
4.01056e-05
3.58394e-05
2.42886e-05
2.03983e-05
2.22896e-05
2.60816e-05
2.95535e-05
3.10004e-05
3.00191e-05
2.82275e-05
2.74989e-05
2.74918e-05
2.78269e-05
2.85079e-05
2.92079e-05
2.99142e-05
3.05423e-05
3.10867e-05
3.15434e-05
3.1943e-05
3.22983e-05
3.26155e-05
3.28824e-05
3.31099e-05
3.33274e-05
3.35425e-05
3.37468e-05
3.39258e-05
3.41031e-05
3.4227e-05
3.44596e-05
3.44004e-05
3.46881e-05
3.42932e-05
3.45974e-05
3.3699e-05
3.41664e-05
3.28492e-05
3.36422e-05
3.33506e-05
3.5342e-05
3.80134e-05
4.22329e-05
4.7132e-05
5.06267e-05
6.53043e-05
6.81653e-05
0.00010166
0.000209045
0.000445602
0.00107049
0.00254015
0.004638
0.0103123
0.0125468
0.00743494
0.0151962
0.00246689
0.00285415
0.00274434
0.0026303
0.00241803
0.00213777
0.00191386
0.00174582
0.00158816
0.00142291
0.00126876
0.00112382
0.000961047
0.000817203
0.000696307
0.000601105
0.000579294
0.00062919
0.000647246
0.000619325
0.000584201
0.000553732
0.000504923
0.000441606
0.000396484
0.000365195
0.000358325
0.000364602
0.000361996
0.000345962
0.000310444
0.000235832
7.98937e-05
7.39106e-05
0.000105648
0.000128242
8.59183e-05
6.93397e-05
6.48586e-05
5.07107e-05
4.55945e-05
2.62728e-05
2.24171e-05
2.29655e-05
2.62182e-05
2.98029e-05
3.12232e-05
3.03899e-05
2.86771e-05
2.80557e-05
2.81011e-05
2.85073e-05
2.92622e-05
3.00311e-05
3.07956e-05
3.14634e-05
3.20359e-05
3.25022e-05
3.28928e-05
3.3235e-05
3.35311e-05
3.37713e-05
3.39687e-05
3.41505e-05
3.43252e-05
3.44882e-05
3.4633e-05
3.47679e-05
3.48673e-05
3.50002e-05
3.49506e-05
3.5086e-05
3.47544e-05
3.48235e-05
3.40398e-05
3.41815e-05
3.30313e-05
3.365e-05
3.33337e-05
3.59864e-05
3.97426e-05
4.63183e-05
5.4879e-05
6.45222e-05
7.58351e-05
7.40563e-05
0.000119448
0.000302445
0.000714752
0.00177459
0.00386942
0.00597138
0.0114961
0.00662189
0.00414187
0.0115786
0.00176666
0.0013186
0.00181032
0.00199237
0.00173125
0.00153796
0.00137205
0.00121422
0.00106959
0.000930049
0.00080521
0.000695149
0.000723046
0.000796576
0.000815113
0.000820996
0.000804348
0.000797922
0.000732532
0.000662118
0.000582628
0.00050104
0.000417311
0.000342621
0.000300357
0.000293761
0.000303973
0.000316548
0.000321123
0.000314547
0.000275989
0.000180329
6.80757e-05
7.9772e-05
0.000117151
0.000169591
0.000101378
7.39884e-05
6.94625e-05
5.5467e-05
5.21787e-05
3.03472e-05
2.47028e-05
2.34362e-05
2.62711e-05
3.0481e-05
3.12352e-05
3.01644e-05
2.78896e-05
2.71539e-05
2.70013e-05
2.76604e-05
2.86755e-05
2.96773e-05
3.05747e-05
3.12826e-05
3.18434e-05
3.22916e-05
3.2645e-05
3.29131e-05
3.31127e-05
3.32633e-05
3.33815e-05
3.34833e-05
3.35635e-05
3.36254e-05
3.36799e-05
3.37118e-05
3.37257e-05
3.37155e-05
3.36029e-05
3.35325e-05
3.3158e-05
3.28988e-05
3.20899e-05
3.17231e-05
3.07746e-05
3.06238e-05
3.15084e-05
3.33843e-05
3.98699e-05
4.65881e-05
5.64545e-05
6.73911e-05
7.64113e-05
7.90751e-05
0.000148992
0.000403274
0.00100941
0.00269609
0.00562782
0.0119318
0.0155048
0.00424612
0.00310631
0.00726153
0.00151146
0.00123882
0.00126313
0.00128281
0.000986076
0.000868211
0.000798369
0.000754911
0.000753604
0.0007953
0.000828854
0.000854244
0.000921118
0.0009483
0.000956888
0.000958721
0.000910164
0.000835265
0.000745309
0.000652264
0.000556113
0.000469093
0.00038673
0.00031137
0.000267459
0.000250114
0.000256749
0.000265218
0.000268629
0.000253407
0.000190885
9.41808e-05
6.54336e-05
8.01926e-05
0.000122761
0.00022926
0.000133836
8.39017e-05
7.73734e-05
5.7442e-05
5.50743e-05
3.62757e-05
2.8853e-05
2.62935e-05
2.86091e-05
3.30845e-05
3.17217e-05
3.04244e-05
2.74561e-05
2.66284e-05
2.60961e-05
2.70236e-05
2.81927e-05
2.93768e-05
3.03528e-05
3.10595e-05
3.15901e-05
3.19845e-05
3.22666e-05
3.24588e-05
3.25812e-05
3.26534e-05
3.26872e-05
3.26927e-05
3.26643e-05
3.26011e-05
3.25292e-05
3.24307e-05
3.23321e-05
3.21945e-05
3.19776e-05
3.17778e-05
3.12816e-05
3.09096e-05
3.00122e-05
2.94577e-05
2.86541e-05
2.8118e-05
2.9659e-05
3.11086e-05
3.8684e-05
4.57072e-05
5.56803e-05
6.5954e-05
7.31781e-05
8.44414e-05
0.000154569
0.0003301
0.000774832
0.00295696
0.00830771
0.0147251
0.0156203
0.00400247
0.00345457
0.00539875
0.0017004
0.00144895
0.00124653
0.00111165
0.000930295
0.000905107
0.000899096
0.000924851
0.000964479
0.00103491
0.00110008
0.00114839
0.00116831
0.00117327
0.00117213
0.00111897
0.00106057
0.000982335
0.000909568
0.000829163
0.000743663
0.000644654
0.000537975
0.000424585
0.00031278
0.000230136
0.000189498
0.000168171
0.000155312
0.000133985
9.82673e-05
7.38014e-05
6.82863e-05
7.93687e-05
0.000120293
0.000273134
0.000232226
0.000119564
0.000102884
5.89825e-05
5.32259e-05
3.92364e-05
3.24619e-05
3.07478e-05
3.21499e-05
3.65266e-05
3.07348e-05
2.94787e-05
2.44891e-05
2.34232e-05
2.21836e-05
2.31849e-05
2.43538e-05
2.58707e-05
2.71147e-05
2.80609e-05
2.87108e-05
2.91087e-05
2.93027e-05
2.93443e-05
2.92876e-05
2.91963e-05
2.91042e-05
2.90272e-05
2.8929e-05
2.88013e-05
2.8653e-05
2.84522e-05
2.82551e-05
2.79121e-05
2.76419e-05
2.70779e-05
2.67082e-05
2.57055e-05
2.52211e-05
2.38159e-05
2.39576e-05
2.26977e-05
2.56924e-05
2.72053e-05
3.62851e-05
4.40711e-05
5.19457e-05
5.71694e-05
6.73339e-05
8.76242e-05
0.000157455
0.000322445
0.000719915
0.00206951
0.00584186
0.0130032
0.013698
0.00444624
0.00422419
0.00427182
0.00222452
0.00203717
0.00174162
0.00153685
0.00142078
0.0014065
0.00140956
0.00144375
0.00146439
0.00147793
0.00148316
0.0014779
0.00144278
0.0013828
0.00130016
0.0011986
0.0011127
0.00102738
0.000958721
0.000893
0.000835535
0.000783325
0.000722748
0.000657366
0.000571091
0.000469299
0.000364966
0.000265497
0.000197394
0.000168929
0.000143357
0.000132116
0.000110448
8.8284e-05
0.00012223
0.000362859
0.000420013
0.000210847
0.000163285
6.05119e-05
3.56312e-05
3.45219e-05
3.28555e-05
3.19819e-05
3.20009e-05
3.58753e-05
2.93637e-05
2.90788e-05
2.3225e-05
2.19936e-05
1.99484e-05
2.09143e-05
2.19217e-05
2.3487e-05
2.47486e-05
2.57631e-05
2.64948e-05
2.69891e-05
2.72847e-05
2.74437e-05
2.74944e-05
2.74726e-05
2.73953e-05
2.72748e-05
2.7132e-05
2.69634e-05
2.678e-05
2.6547e-05
2.63268e-05
2.59748e-05
2.57212e-05
2.50955e-05
2.48179e-05
2.37201e-05
2.33982e-05
2.19755e-05
2.21703e-05
2.10362e-05
2.36969e-05
2.5527e-05
3.31177e-05
4.14181e-05
4.57089e-05
5.03484e-05
6.06394e-05
9.19145e-05
0.000174729
0.000370877
0.000724542
0.00171874
0.00426002
0.0112233
0.011733
0.00456604
0.00443157
0.00402073
0.00292576
0.0029361
0.00272487
0.00243161
0.00221546
0.00209927
0.00201001
0.00196368
0.00190365
0.00185553
0.00176152
0.00165086
0.00150954
0.00133208
0.00114355
0.000962049
0.000817515
0.000714273
0.00066476
0.000649901
0.000644959
0.000654393
0.000665409
0.000671027
0.00065664
0.000611635
0.000560274
0.000508649
0.000452571
0.000395135
0.000354116
0.000304692
0.000248652
0.000200953
0.00032038
0.000435766
0.000581353
0.000364504
0.000314248
8.64092e-05
2.75131e-05
2.44598e-05
2.42324e-05
2.40726e-05
2.3562e-05
2.61564e-05
2.13972e-05
2.17291e-05
1.61274e-05
1.44468e-05
1.27263e-05
1.35212e-05
1.42729e-05
1.54912e-05
1.64605e-05
1.72947e-05
1.79299e-05
1.8403e-05
1.87689e-05
1.90432e-05
1.92186e-05
1.93063e-05
1.93224e-05
1.92891e-05
1.92356e-05
1.9162e-05
1.90732e-05
1.89526e-05
1.88307e-05
1.86145e-05
1.84774e-05
1.80238e-05
1.79338e-05
1.71039e-05
1.71055e-05
1.60703e-05
1.65152e-05
1.5786e-05
1.80215e-05
1.96551e-05
2.52377e-05
3.14807e-05
3.2761e-05
3.4242e-05
4.37335e-05
7.68124e-05
0.000160148
0.000322364
0.000634627
0.00186189
0.00576386
0.0104414
0.0163649
0.00474498
0.00446676
0.00440094
0.0029336
0.00290926
0.00275968
0.00249383
0.00228234
0.00218704
0.00207222
0.00199738
0.00186795
0.00175831
0.00160166
0.0013952
0.00116232
0.00093789
0.00072675
0.000550811
0.000431841
0.000364467
0.00033716
0.000319558
0.000301856
0.000275759
0.000246594
0.000233337
0.000241627
0.000260598
0.000266179
0.000260252
0.000252759
0.00024606
0.000235499
0.000215859
0.000191996
0.000160168
0.000217152
0.000477479
0.000615682
0.000454974
0.000450592
0.00018454
2.82425e-05
1.70012e-05
1.27185e-05
1.41582e-05
1.46917e-05
1.55881e-05
1.35603e-05
1.30551e-05
9.09606e-06
7.88434e-06
6.89734e-06
7.41848e-06
7.91646e-06
8.69607e-06
9.33099e-06
9.90707e-06
1.03685e-05
1.074e-05
1.10387e-05
1.12744e-05
1.14461e-05
1.15517e-05
1.16116e-05
1.16544e-05
1.16884e-05
1.17085e-05
1.1712e-05
1.1699e-05
1.16691e-05
1.16019e-05
1.15419e-05
1.13582e-05
1.13083e-05
1.09312e-05
1.09377e-05
1.0519e-05
1.07812e-05
1.06052e-05
1.19413e-05
1.31013e-05
1.62386e-05
1.93947e-05
2.03495e-05
2.06945e-05
2.87741e-05
5.49613e-05
0.000132111
0.000298074
0.000711885
0.00288929
0.00899798
0.0141811
0.0153196
0.00457832
0.0042673
0.00509463
0.00254754
0.0024045
0.00216762
0.00192155
0.00165525
0.00157408
0.00145556
0.00141446
0.00127409
0.00117954
0.0010095
0.000875995
0.000737166
0.000612928
0.000521781
0.000452382
0.000393583
0.000363377
0.000345711
0.000331077
0.000323634
0.00030237
0.000253481
0.000190792
0.000152794
0.000141205
0.000143547
0.000144356
0.000133954
0.000128207
0.000119672
0.000107868
9.32886e-05
7.58557e-05
9.61256e-05
0.000598829
0.000819538
0.000412458
0.000377695
0.000209038
3.8803e-05
1.50665e-05
8.56189e-06
1.03537e-05
1.16049e-05
1.11127e-05
9.78958e-06
7.94378e-06
5.21261e-06
4.51582e-06
3.94706e-06
4.16591e-06
4.39925e-06
4.78966e-06
5.1204e-06
5.44273e-06
5.71714e-06
5.95837e-06
6.16589e-06
6.34114e-06
6.47966e-06
6.58151e-06
6.66113e-06
6.73614e-06
6.81173e-06
6.88385e-06
6.95e-06
7.00722e-06
7.05324e-06
7.08103e-06
7.09984e-06
7.09666e-06
7.11224e-06
7.04582e-06
7.09108e-06
7.07711e-06
7.24447e-06
7.46187e-06
8.03003e-06
8.9773e-06
1.02697e-05
1.19409e-05
1.26134e-05
1.35658e-05
2.14012e-05
4.86674e-05
0.000123432
0.000301379
0.000790543
0.00241328
0.00579348
0.0159481
0.0169404
0.00407958
0.0034462
0.00791237
0.00191417
0.0015057
0.00133521
0.00128407
0.000848758
0.000679961
0.00057474
0.000548472
0.000519524
0.000511037
0.000493806
0.000484568
0.000477764
0.000478096
0.000484417
0.000493701
0.000505574
0.00051174
0.000515898
0.000512914
0.00050966
0.000509301
0.000491841
0.000409604
0.000237305
0.000135565
0.000114962
0.000115941
0.000118434
0.000114578
0.000104566
8.47819e-05
6.4865e-05
4.4036e-05
5.29121e-05
0.000997039
0.00155071
0.000269891
0.000106192
5.81128e-05
1.6111e-05
9.20888e-06
6.83644e-06
9.17077e-06
1.04465e-05
9.52497e-06
8.19189e-06
5.32342e-06
3.60418e-06
3.11192e-06
2.91005e-06
2.98276e-06
3.05332e-06
3.19474e-06
3.31562e-06
3.44586e-06
3.56373e-06
3.67821e-06
3.78394e-06
3.88031e-06
3.96565e-06
4.04391e-06
4.12053e-06
4.20111e-06
4.28651e-06
4.37839e-06
4.48497e-06
4.58696e-06
4.68214e-06
4.75883e-06
4.83393e-06
4.87931e-06
4.93606e-06
4.93797e-06
5.05451e-06
5.08704e-06
5.31997e-06
5.46406e-06
5.911e-06
6.56676e-06
7.28645e-06
8.43782e-06
8.89572e-06
1.03376e-05
1.73863e-05
4.24525e-05
0.000106409
0.000253555
0.000576715
0.00148241
0.00414291
0.00981922
0.0138549
0.00539186
0.00373482
0.00965037
0.00155978
0.00116877
0.00117709
0.00121659
0.000918132
0.000724305
0.000625501
0.000570919
0.000555939
0.000556814
0.000564481
0.000582203
0.000610617
0.000643211
0.000677344
0.000705265
0.000726813
0.000734615
0.000732855
0.000724606
0.000700948
0.000688678
0.000658962
0.000622226
0.000560446
0.00040469
0.000154949
8.99113e-05
8.47286e-05
8.40955e-05
7.50735e-05
5.69853e-05
3.83077e-05
2.78888e-05
3.45108e-05
0.00344009
0.00218146
0.000399566
3.27255e-05
2.01702e-05
8.96879e-06
6.52954e-06
5.50165e-06
8.12852e-06
9.70149e-06
9.21545e-06
7.74536e-06
5.07863e-06
3.45905e-06
2.99719e-06
2.79194e-06
2.8173e-06
2.83662e-06
2.8757e-06
2.90547e-06
2.93598e-06
2.96143e-06
2.99007e-06
3.02426e-06
3.06141e-06
3.09728e-06
3.13486e-06
3.17559e-06
3.22304e-06
3.27836e-06
3.33876e-06
3.40533e-06
3.47403e-06
3.54714e-06
3.6105e-06
3.66843e-06
3.6981e-06
3.748e-06
3.78162e-06
3.88008e-06
3.98899e-06
4.14846e-06
4.41921e-06
4.60301e-06
5.11917e-06
5.33108e-06
6.15376e-06
6.62943e-06
8.00867e-06
1.44285e-05
3.98234e-05
0.000104135
0.000227819
0.000472377
0.0010674
0.00309815
0.00645838
0.0109937
0.00867753
0.00523235
0.0132749
0.00174239
0.00127716
0.00189505
0.00201091
0.00173603
0.00137699
0.00117464
0.00108086
0.00102226
0.000996996
0.000994755
0.000998268
0.00101077
0.00102468
0.00104206
0.00105507
0.00105374
0.00104667
0.00102387
0.000995381
0.00092755
0.000897037
0.000850452
0.000785768
0.000711215
0.00061432
0.00051403
0.000275994
8.11707e-05
5.54667e-05
4.81012e-05
4.4681e-05
4.47863e-05
4.69148e-05
5.28237e-05
0.00177838
0.000587423
0.000186944
3.50382e-05
2.87116e-05
3.35744e-05
1.43408e-05
4.30414e-06
6.29478e-06
7.32807e-06
7.63932e-06
5.62804e-06
4.07612e-06
2.999e-06
2.73284e-06
2.54413e-06
2.56186e-06
2.56033e-06
2.59327e-06
2.60774e-06
2.62365e-06
2.63424e-06
2.64242e-06
2.64386e-06
2.63061e-06
2.61447e-06
2.60441e-06
2.60187e-06
2.6097e-06
2.62368e-06
2.64263e-06
2.66689e-06
2.69796e-06
2.74157e-06
2.78816e-06
2.83639e-06
2.87003e-06
2.9036e-06
2.95536e-06
3.02695e-06
3.15593e-06
3.26634e-06
3.53115e-06
3.63671e-06
4.01201e-06
4.08859e-06
4.67677e-06
5.07937e-06
6.31906e-06
1.11158e-05
3.58669e-05
9.38397e-05
0.000192454
0.000598371
0.000961521
0.00219187
0.0057013
0.0100405
0.0119309
0.00844982
0.0170684
0.00250147
0.00315444
0.00300278
0.00273827
0.0025412
0.00233377
0.00210994
0.00192165
0.0017933
0.00170118
0.00163332
0.00158016
0.00154192
0.00151059
0.00147895
0.00144148
0.00138679
0.00133321
0.00125256
0.00117783
0.00105622
0.000999426
0.00094126
0.000878297
0.00078802
0.000691981
0.000615247
0.000516996
0.000360608
0.000162105
7.37512e-05
5.02271e-05
6.37372e-05
8.06891e-05
7.14493e-05
0.00163744
0.000580847
0.00018646
6.73559e-05
0.000108298
0.000152749
9.08883e-05
8.17089e-06
3.01104e-06
3.2856e-06
3.58625e-06
2.74286e-06
2.23983e-06
1.97276e-06
1.9742e-06
1.87094e-06
1.87831e-06
1.86314e-06
1.88066e-06
1.88346e-06
1.89107e-06
1.89366e-06
1.89574e-06
1.89622e-06
1.90865e-06
1.92442e-06
1.94448e-06
1.97167e-06
2.00773e-06
2.04887e-06
2.09514e-06
2.14202e-06
2.19089e-06
2.24474e-06
2.29844e-06
2.35178e-06
2.40041e-06
2.44838e-06
2.52102e-06
2.59374e-06
2.73125e-06
2.82714e-06
3.07235e-06
3.1633e-06
3.48393e-06
3.51726e-06
4.04042e-06
4.37017e-06
5.30779e-06
9.48309e-06
3.09545e-05
6.61239e-05
0.000112586
0.000387145
0.00100271
0.0019778
0.00620086
0.0119642
0.0187169
0.0145775
0.0254686
0.00622079
0.0061807
0.00470922
0.00405412
0.0037083
0.00340233
0.00311564
0.00285137
0.00260706
0.00239474
0.00221918
0.00207213
0.00193548
0.00182318
0.00172373
0.00163461
0.00154173
0.00144733
0.00133728
0.00123517
0.00111062
0.00102383
0.000929265
0.000843217
0.000759051
0.000674657
0.000606617
0.000541387
0.00047053
0.000376838
0.000269881
0.000202758
0.000161667
0.000132235
8.10721e-05
0.00126503
0.000914063
0.00071092
0.000329724
0.000269579
0.000245572
0.000208249
8.16595e-05
3.94376e-06
1.69959e-06
1.61878e-06
1.34466e-06
1.21029e-06
1.12644e-06
1.12839e-06
1.09075e-06
1.09816e-06
1.09643e-06
1.10946e-06
1.11825e-06
1.13171e-06
1.14506e-06
1.16066e-06
1.17789e-06
1.19763e-06
1.21843e-06
1.2411e-06
1.26643e-06
1.2951e-06
1.32688e-06
1.36377e-06
1.40202e-06
1.44084e-06
1.48129e-06
1.5212e-06
1.56145e-06
1.60174e-06
1.6403e-06
1.6924e-06
1.7401e-06
1.84178e-06
1.90437e-06
2.07504e-06
2.13238e-06
2.35104e-06
2.3665e-06
2.75496e-06
3.09644e-06
3.9572e-06
7.1605e-06
1.96139e-05
3.44123e-05
6.58807e-05
0.000187254
0.000518086
0.00100321
0.00276548
0.00480364
0.00971525
0.0179376
0.0531663
0.0309418
0.0194472
0.0125405
0.00871992
0.00648768
0.0051217
0.00425298
0.00367179
0.00325315
0.00293105
0.00267421
0.00246152
0.00227922
0.00212
0.00197615
0.00184728
0.00172174
0.00160775
0.00148196
0.00136799
0.00123146
0.00111893
0.000985587
0.00086477
0.000752312
0.000658995
0.000594767
0.000526745
0.000463876
0.00040406
0.000337832
0.000280242
0.00022246
0.000170221
8.41347e-05
0.000109466
5.12489e-05
3.20749e-05
2.47313e-05
1.79574e-05
1.52574e-05
1.25403e-05
1.34077e-05
1.72472e-05
2.88685e-05
3.87678e-05
4.74138e-05
4.76084e-05
4.59675e-05
4.05095e-05
3.72699e-05
3.40784e-05
3.22022e-05
3.08321e-05
3.00542e-05
2.96329e-05
2.94735e-05
2.95026e-05
2.96763e-05
2.99252e-05
3.02079e-05
3.04982e-05
3.08162e-05
3.11447e-05
3.14837e-05
3.18411e-05
3.21463e-05
3.25749e-05
3.26807e-05
3.33825e-05
3.31039e-05
3.43565e-05
3.35423e-05
3.56433e-05
3.4674e-05
3.81189e-05
3.78097e-05
4.25726e-05
4.33866e-05
4.57326e-05
4.35555e-05
3.46832e-05
2.87185e-05
2.11875e-05
2.94421e-05
6.3107e-05
5.64093e-05
0.000126264
0.000193526
0.000730234
0.00167858
0.00454965
0.00949791
0.0152527
0.0233907
0.0323773
0.0207261
0.0137562
0.00984121
0.00760269
0.00614832
0.00512233
0.0043269
0.00370331
0.00318568
0.00274016
0.00235815
0.00202841
0.00174178
0.00149386
0.00128543
0.0011096
0.00097332
0.000865363
0.000791424
0.000758193
0.000750124
0.000755272
0.000759904
0.000754095
0.000737042
0.0007013
0.00066067
0.000619416
0.000582428
0.000531525
0.00047793
0.000406667
0.000245203
0.000120147
0.000110086
0.00011865
6.70737e-05
4.86749e-05
4.07331e-05
3.74746e-05
3.73863e-05
3.8773e-05
4.43733e-05
4.80039e-05
5.59181e-05
5.73398e-05
6.06419e-05
5.87131e-05
5.65606e-05
5.30747e-05
5.121e-05
4.94554e-05
4.86598e-05
4.81811e-05
4.8074e-05
4.81596e-05
4.84203e-05
4.8798e-05
4.92635e-05
4.97814e-05
5.03067e-05
5.07963e-05
5.12617e-05
5.1736e-05
5.2221e-05
5.27149e-05
5.31728e-05
5.36808e-05
5.40289e-05
5.4682e-05
5.48023e-05
5.57551e-05
5.55131e-05
5.69743e-05
5.64854e-05
5.88657e-05
5.82622e-05
6.18656e-05
6.09019e-05
6.4718e-05
6.0789e-05
5.95858e-05
5.21349e-05
5.30147e-05
6.48754e-05
9.5131e-05
0.000110928
0.000206589
0.000426555
0.0013355
0.00335955
0.00631055
0.0115104
0.0206592
0.0251523
0.0410345
0.00744987
0.00783554
0.00661246
0.00507985
0.00409132
0.00334686
0.00281297
0.00247552
0.00223106
0.00203061
0.00185432
0.0016419
0.00144068
0.00126949
0.00112747
0.00105422
0.00102659
0.00104027
0.00108312
0.00114622
0.00114913
0.00111904
0.00104873
0.000940284
0.000845815
0.000761585
0.000679357
0.00060994
0.000530538
0.000479796
0.000424923
0.000382353
0.000289639
0.000206435
0.000141381
0.000166664
9.95402e-05
7.69734e-05
6.46208e-05
6.04377e-05
6.10092e-05
6.02068e-05
6.41869e-05
6.32231e-05
6.74701e-05
6.83291e-05
6.86316e-05
6.57554e-05
6.34431e-05
6.12609e-05
6.04351e-05
6.01566e-05
6.07371e-05
6.14608e-05
6.23173e-05
6.30783e-05
6.38535e-05
6.46322e-05
6.54094e-05
6.61946e-05
6.69498e-05
6.76099e-05
6.81881e-05
6.87653e-05
6.934e-05
6.99037e-05
7.04513e-05
7.09766e-05
7.14867e-05
7.20282e-05
7.24163e-05
7.2993e-05
7.30614e-05
7.37179e-05
7.32376e-05
7.42131e-05
7.31119e-05
7.46943e-05
7.42092e-05
7.77633e-05
7.89653e-05
8.55025e-05
8.44369e-05
9.85356e-05
0.000110286
0.000126065
0.000155484
0.000291404
0.000636145
0.00168795
0.00361158
0.00540472
0.0110703
0.0159875
0.0151224
0.0329457
0.00549471
0.00721077
0.00441879
0.00327156
0.00241037
0.00176789
0.00156844
0.00156992
0.00158838
0.00157849
0.00155398
0.00156804
0.00164712
0.00162103
0.00156241
0.00158179
0.00171343
0.00182697
0.00176582
0.00162128
0.00143159
0.00123706
0.0010677
0.000917807
0.000814765
0.000734556
0.000675261
0.000598466
0.000518818
0.000459196
0.000397075
0.000363448
0.00027938
0.000208903
0.000178026
0.000265298
0.000147182
0.000111551
9.37855e-05
8.72417e-05
8.27203e-05
6.96088e-05
6.74935e-05
6.58331e-05
6.95012e-05
7.36e-05
7.63319e-05
7.47664e-05
7.23965e-05
6.98223e-05
6.83458e-05
6.8053e-05
6.90421e-05
7.04604e-05
7.19581e-05
7.30803e-05
7.41602e-05
7.52116e-05
7.62183e-05
7.71807e-05
7.80808e-05
7.88682e-05
7.95696e-05
8.02583e-05
8.09242e-05
8.15597e-05
8.21659e-05
8.27291e-05
8.3291e-05
8.3805e-05
8.42368e-05
8.465e-05
8.47442e-05
8.49043e-05
8.44526e-05
8.46207e-05
8.37983e-05
8.47021e-05
8.60915e-05
8.99144e-05
9.67885e-05
0.000104716
0.000111887
0.000125914
0.000134859
0.000140052
0.000182482
0.000365733
0.000848609
0.00209309
0.00531013
0.0064606
0.0125445
0.0153618
0.0119392
0.0346615
0.00559042
0.00306058
0.00253036
0.00254431
0.00127015
0.00124026
0.0013513
0.00141917
0.00147361
0.00149837
0.00156959
0.00175523
0.0020707
0.00232455
0.00242827
0.00238022
0.00213851
0.00175166
0.00145474
0.00123196
0.00105517
0.000913762
0.000795289
0.000679462
0.000579767
0.000519156
0.000505712
0.00048722
0.00045218
0.00040345
0.000363821
0.000325429
0.000237106
0.000189932
0.000182112
0.000435259
0.000220968
0.000142366
0.000114464
0.00010591
0.000100636
7.78911e-05
7.31235e-05
7.56229e-05
8.11993e-05
8.68459e-05
8.60835e-05
8.5912e-05
8.10358e-05
7.88607e-05
7.61442e-05
7.67615e-05
7.84007e-05
8.08038e-05
8.31059e-05
8.51134e-05
8.68592e-05
8.82789e-05
8.94727e-05
9.05526e-05
9.15224e-05
9.23916e-05
9.32127e-05
9.40251e-05
9.47712e-05
9.54595e-05
9.61206e-05
9.67036e-05
9.73059e-05
9.77367e-05
9.81985e-05
9.83987e-05
9.85564e-05
9.83001e-05
9.80172e-05
9.7326e-05
9.75476e-05
9.7246e-05
0.000101678
0.000104409
0.00011545
0.000121581
0.000132142
0.0001423
0.000152619
0.000160679
0.000220464
0.000429275
0.00118656
0.00356641
0.00815054
0.0126269
0.0210917
0.00811192
0.0076622
0.0414677
0.00431509
0.00276236
0.00218833
0.00203091
0.00159731
0.00163924
0.00159452
0.00170711
0.00185615
0.00210639
0.0023761
0.00248851
0.00239156
0.00234072
0.00221027
0.00201634
0.0018457
0.00167266
0.00151
0.00135279
0.00118838
0.00103
0.000891615
0.000739323
0.000578804
0.000455062
0.000383471
0.000353993
0.000336699
0.000314485
0.000292178
0.000217996
0.000169568
0.000148499
0.000178838
0.000761199
0.000301542
0.000190505
0.000140622
0.000119994
0.000113898
8.93766e-05
8.01834e-05
8.23793e-05
8.81439e-05
9.43469e-05
8.91865e-05
9.0583e-05
8.35154e-05
8.16116e-05
7.79931e-05
7.91102e-05
8.10395e-05
8.41235e-05
8.6962e-05
8.98093e-05
9.21824e-05
9.41066e-05
9.56706e-05
9.69692e-05
9.80576e-05
9.89957e-05
9.98684e-05
0.000100852
0.000101741
0.000102535
0.000103309
0.000103936
0.000104644
0.000104828
0.000105466
0.000104903
0.000105579
0.000103709
0.0001046
0.000101261
0.000104259
0.000100821
0.000110785
0.000112549
0.000130441
0.000139122
0.000150351
0.000152015
0.00017305
0.000193161
0.000245439
0.000432669
0.00109912
0.00430825
0.0116138
0.0217456
0.0253256
0.00758035
0.00754562
0.047881
0.00507895
0.00392029
0.00336519
0.00298738
0.0026308
0.00260058
0.00258843
0.00264329
0.00264238
0.00269327
0.00271717
0.00273023
0.00276996
0.0028075
0.00284203
0.00288826
0.00291089
0.00285206
0.00270219
0.00247656
0.00217847
0.00184519
0.00159546
0.00137018
0.00109999
0.000818597
0.000563854
0.0003958
0.000318638
0.000277407
0.000254302
0.000216453
0.000170434
0.000132411
0.000164968
0.000857987
0.000401025
0.000281959
0.000183088
0.000144274
0.000126489
9.66649e-05
8.50213e-05
8.48664e-05
9.0081e-05
9.68205e-05
8.83009e-05
9.11619e-05
8.08543e-05
7.92724e-05
7.2433e-05
7.44412e-05
7.65687e-05
8.12815e-05
8.52713e-05
8.87938e-05
9.16042e-05
9.38041e-05
9.55009e-05
9.68295e-05
9.78722e-05
9.87256e-05
9.94823e-05
0.000100443
0.000101302
0.000102039
0.000102766
0.000103291
0.000103964
0.000103816
0.000104514
0.000103181
0.00010426
0.000100925
0.000102845
9.7169e-05
0.000102497
9.62724e-05
0.000110467
0.000111412
0.000133346
0.000144066
0.0001552
0.000150692
0.000178586
0.000203224
0.000271393
0.000473736
0.00101411
0.00290376
0.00920344
0.0216655
0.0242202
0.0115809
0.0116105
0.0410546
0.00611613
0.00621509
0.00548392
0.00439648
0.00381971
0.0035791
0.00346703
0.0034443
0.00345143
0.00362292
0.00370315
0.00381604
0.00393784
0.00406224
0.0041522
0.00419208
0.00421273
0.00414523
0.00401668
0.00382406
0.00355847
0.00317808
0.00283481
0.0025478
0.00233389
0.00212155
0.00190872
0.00165906
0.00138555
0.00116551
0.000985698
0.000767132
0.000432312
0.000199555
0.000175385
0.00097185
0.00063924
0.000482921
0.000276769
0.000176248
0.000136568
0.000100523
8.77306e-05
8.44955e-05
8.91908e-05
9.6085e-05
8.27856e-05
8.78497e-05
7.14052e-05
7.02803e-05
6.07269e-05
6.38548e-05
6.55691e-05
7.09425e-05
7.51534e-05
7.9229e-05
8.23411e-05
8.47371e-05
8.65721e-05
8.80298e-05
8.90797e-05
8.97961e-05
9.01706e-05
9.01384e-05
9.00193e-05
8.98544e-05
8.97368e-05
8.94832e-05
8.94306e-05
8.86818e-05
8.87595e-05
8.65194e-05
8.71067e-05
8.26073e-05
8.41807e-05
7.74155e-05
8.14215e-05
7.47258e-05
8.58252e-05
8.90278e-05
0.000108482
0.000127127
0.000128223
0.000123586
0.000137542
0.000177303
0.000279147
0.000523629
0.00105761
0.00243848
0.00700505
0.0192231
0.021646
0.0133364
0.0133762
0.0397543
0.00730736
0.00807886
0.00815345
0.00709302
0.0066043
0.00599259
0.00572555
0.00551083
0.00539071
0.00526267
0.00519829
0.00517163
0.00516778
0.00512437
0.00502916
0.00490875
0.00477943
0.00465579
0.00445583
0.00424339
0.00410166
0.00379914
0.00346187
0.00314921
0.00293926
0.00272933
0.00266031
0.00260812
0.00233835
0.0021226
0.00185698
0.00148845
0.00104831
0.000783625
0.000786622
0.00107147
0.00131264
0.000953947
0.000586346
0.000281921
0.000155757
9.50283e-05
8.30986e-05
8.46863e-05
9.03602e-05
9.71961e-05
7.74471e-05
7.69901e-05
5.12414e-05
4.28933e-05
3.46061e-05
3.59315e-05
3.67647e-05
4.00194e-05
4.26431e-05
4.52821e-05
4.74905e-05
4.94822e-05
5.10142e-05
5.19367e-05
5.24061e-05
5.25685e-05
5.25784e-05
5.25626e-05
5.2509e-05
5.24159e-05
5.23946e-05
5.22758e-05
5.23476e-05
5.17574e-05
5.20182e-05
5.02165e-05
5.1417e-05
4.76725e-05
5.04877e-05
4.48828e-05
5.02836e-05
4.43701e-05
5.44547e-05
5.36434e-05
7.01119e-05
8.20711e-05
8.02214e-05
6.95215e-05
7.3582e-05
0.000112316
0.000247043
0.000455696
0.000967274
0.00309705
0.0092582
0.0203187
0.0316053
0.0123363
0.012175
0.0370781
0.00668174
0.00788233
0.00797074
0.00714072
0.00678406
0.00630489
0.00593204
0.00554155
0.00509733
0.00462597
0.00414791
0.00362819
0.00307465
0.00255545
0.0021887
0.00191958
0.0016927
0.00147146
0.00127122
0.00117646
0.00117288
0.00123037
0.00122704
0.0011479
0.000936676
0.000737911
0.00067244
0.000634319
0.000563177
0.000495228
0.000429595
0.000370274
0.000348396
0.000346987
0.000119183
0.00124943
0.0021098
0.0017065
0.00130067
0.000718206
0.000262703
8.54358e-05
5.98225e-05
6.52459e-05
7.40951e-05
7.42084e-05
6.25724e-05
5.48406e-05
3.64203e-05
3.0002e-05
2.44159e-05
2.46051e-05
2.48918e-05
2.64204e-05
2.77028e-05
2.90527e-05
3.01287e-05
3.10095e-05
3.16769e-05
3.2132e-05
3.23816e-05
3.2464e-05
3.24598e-05
3.24018e-05
3.23132e-05
3.22037e-05
3.21475e-05
3.20788e-05
3.20864e-05
3.17915e-05
3.1813e-05
3.10587e-05
3.17034e-05
3.01655e-05
3.17534e-05
2.90571e-05
3.20713e-05
2.8252e-05
3.30596e-05
3.06887e-05
3.92488e-05
4.41012e-05
4.41022e-05
3.94686e-05
4.72971e-05
8.13474e-05
0.000194238
0.000421443
0.00120199
0.00513612
0.0166855
0.026023
0.0273134
0.00818375
0.00809326
0.0429756
0.00514828
0.00555643
0.00505205
0.00464528
0.00404921
0.00391479
0.00360773
0.00348561
0.00318441
0.00289317
0.00252675
0.00216743
0.00180627
0.00151609
0.00133385
0.00117964
0.00104894
0.000906014
0.000786653
0.000725562
0.000731551
0.00077919
0.000796004
0.000720669
0.000539434
0.000310891
0.000229384
0.00019065
0.000164749
0.000146603
0.00013096
0.0001147
9.13515e-05
7.91242e-05
6.14565e-05
0.00226816
0.00292138
0.00191004
0.00158981
0.00114539
0.000394278
8.70562e-05
5.10374e-05
5.65425e-05
5.86351e-05
6.01873e-05
5.38096e-05
4.51028e-05
3.02444e-05
2.51897e-05
2.15406e-05