/*--------------------------------*- C++ -*----------------------------------*\
| =========                 |                                                 |
| \\      /  F ield         | OpenFOAM: The Open Source CFD Toolbox           |
|  \\    /   O peration     | Version:  2.3.0                                 |
|   \\  /    A nd           | Web:      www.OpenFOAM.org                      |
|    \\/     M anipulation  |                                                 |
\*---------------------------------------------------------------------------*/
FoamFile
{
    version     2.0;
    format      ascii;
    class       volScalarField;
    location    "19";
    object      k.water;
}
// * * * * * * * * * * * * * * * * * * * * * * * * * * * * * * * * * * * * * //

dimensions      [0 2 -2 0 0 0 0];

internalField   nonuniform List<scalar> 
6144
(
7.53919e-05
5.24262e-05
4.36553e-05
3.88477e-05
2.84199e-05
2.37944e-05
1.82906e-05
1.59247e-05
1.56081e-05
1.7931e-05
2.17715e-05
2.50808e-05
2.60824e-05
2.62089e-05
2.48008e-05
2.40024e-05
2.33729e-05
2.3064e-05
2.28314e-05
2.26999e-05
2.2631e-05
2.26148e-05
2.26447e-05
2.27063e-05
2.27795e-05
2.28573e-05
2.29369e-05
2.30372e-05
2.31428e-05
2.32456e-05
2.336e-05
2.34452e-05
2.35848e-05
2.35956e-05
2.38236e-05
2.36968e-05
2.40741e-05
2.37771e-05
2.43856e-05
2.40482e-05
2.492e-05
2.5281e-05
2.59591e-05
2.80677e-05
2.73209e-05
2.97379e-05
2.64398e-05
2.72205e-05
2.52206e-05
2.97389e-05
4.65306e-05
5.15639e-05
9.35412e-05
0.000178738
0.000384135
0.000633938
0.000945361
0.00173987
0.00297949
0.00419733
0.0086299
0.0056496
0.00397265
0.00293778
0.00233422
0.0019449
0.00168142
0.00148878
0.00133609
0.00120659
0.00109165
0.000986433
0.000890439
0.000802569
0.000723231
0.000651569
0.000588761
0.000535172
0.000491044
0.000457261
0.000431167
0.000416983
0.000409111
0.000403138
0.000398514
0.000392948
0.000387995
0.000380857
0.000372612
0.000363538
0.000348957
0.000329087
0.000275776
0.000118974
9.78506e-05
0.000108883
0.000116249
8.71949e-05
7.47048e-05
6.42565e-05
4.99039e-05
4.5502e-05
3.72403e-05
3.60386e-05
4.01543e-05
4.6969e-05
5.14064e-05
5.37193e-05
5.38166e-05
5.25195e-05
5.02118e-05
4.92485e-05
4.88273e-05
4.91315e-05
4.95206e-05
4.99814e-05
5.04288e-05
5.08455e-05
5.12387e-05
5.16199e-05
5.19771e-05
5.23095e-05
5.26062e-05
5.28871e-05
5.31631e-05
5.34398e-05
5.37239e-05
5.39658e-05
5.42627e-05
5.43931e-05
5.48163e-05
5.46726e-05
5.53364e-05
5.47268e-05
5.5965e-05
5.46598e-05
5.66803e-05
5.56746e-05
5.74466e-05
5.88753e-05
5.91514e-05
6.21558e-05
6.0935e-05
6.265e-05
5.988e-05
7.17552e-05
9.35993e-05
0.000111881
0.000180303
0.000311135
0.000652155
0.00109495
0.00197558
0.00336288
0.00489326
0.00413505
0.0055404
0.00195936
0.00222496
0.00194855
0.00173785
0.00160447
0.00147087
0.00134498
0.00123509
0.00113513
0.00104005
0.000947349
0.000860485
0.000773634
0.000697023
0.000628056
0.000569839
0.000519046
0.000484963
0.000465382
0.000465685
0.000465617
0.000461909
0.000452718
0.000440503
0.000426373
0.000415575
0.000403207
0.000392877
0.000378671
0.000358803
0.000336318
0.000285074
0.000139199
0.000110769
0.000120194
0.000134744
0.000108115
9.60817e-05
9.00936e-05
7.38052e-05
6.86134e-05
5.30331e-05
4.72964e-05
5.02588e-05
5.59115e-05
6.08771e-05
6.29602e-05
6.17393e-05
5.93716e-05
5.84534e-05
5.8551e-05
5.91342e-05
6.02059e-05
6.12995e-05
6.23983e-05
6.33848e-05
6.42531e-05
6.49991e-05
6.5666e-05
6.62718e-05
6.68253e-05
6.73103e-05
6.77419e-05
6.81599e-05
6.8575e-05
6.89757e-05
6.93422e-05
6.97067e-05
6.99986e-05
7.04392e-05
7.04821e-05
7.09987e-05
7.05821e-05
7.11226e-05
7.00074e-05
7.0776e-05
6.90638e-05
7.0295e-05
7.00035e-05
7.29001e-05
7.66459e-05
8.2384e-05
8.87471e-05
9.32929e-05
0.000110654
0.000114087
0.000149251
0.000241974
0.000401286
0.000719897
0.00128338
0.00192228
0.00327934
0.00373405
0.00268593
0.00426146
0.00127375
0.00140406
0.0013697
0.00133358
0.00126292
0.00116526
0.00108416
0.00102143
0.000960622
0.000894238
0.00082974
0.000766505
0.00069163
0.000621624
0.000559393
0.000507703
0.00049606
0.000525287
0.000536172
0.000521454
0.000502519
0.000485718
0.000457482
0.000418908
0.000390269
0.000369892
0.000365677
0.00037052
0.00036938
0.000359034
0.000334664
0.000279474
0.000136404
0.000129195
0.000139451
0.000158931
0.000121987
0.000106006
0.000101645
8.65159e-05
8.08268e-05
5.61265e-05
5.06289e-05
5.15788e-05
5.64807e-05
6.16803e-05
6.37867e-05
6.28105e-05
6.05854e-05
5.98598e-05
6.00754e-05
6.08055e-05
6.203e-05
6.32699e-05
6.45002e-05
6.55925e-05
6.65508e-05
6.73614e-05
6.80674e-05
6.87069e-05
6.92834e-05
6.97833e-05
7.0225e-05
7.06458e-05
7.10574e-05
7.14531e-05
7.18242e-05
7.21821e-05
7.24913e-05
7.28475e-05
7.295e-05
7.33102e-05
7.30181e-05
7.32853e-05
7.23496e-05
7.27177e-05
7.12424e-05
7.2294e-05
7.2009e-05
7.59544e-05
8.13404e-05
9.02853e-05
0.000101308
0.00011311
0.000126223
0.000124528
0.000171759
0.000319794
0.000568603
0.00104439
0.00176024
0.00235685
0.00365388
0.00253197
0.0018538
0.00369304
0.00105767
0.000872528
0.00107937
0.00115327
0.00105205
0.000974391
0.000905434
0.000836519
0.000770324
0.000703098
0.000639835
0.000581164
0.00059753
0.000638802
0.000650037
0.00065451
0.000646989
0.000644792
0.000610325
0.00057183
0.0005262
0.00047683
0.000422929
0.000371459
0.000340729
0.000336265
0.000344676
0.000354904
0.000359122
0.000355014
0.000326193
0.000246845
0.000128986
0.000143438
0.000149355
0.000191603
0.000136421
0.000110928
0.000106694
9.21309e-05
8.8749e-05
6.20625e-05
5.42941e-05
5.25967e-05
5.69392e-05
6.30779e-05
6.43227e-05
6.30537e-05
6.00406e-05
5.91712e-05
5.91372e-05
6.02863e-05
6.19482e-05
6.3583e-05
6.50625e-05
6.62698e-05
6.72683e-05
6.81084e-05
6.88159e-05
6.94045e-05
6.98976e-05
7.03224e-05
7.07023e-05
7.10595e-05
7.13864e-05
7.16873e-05
7.19778e-05
7.22363e-05
7.24688e-05
7.26664e-05
7.27158e-05
7.28251e-05
7.24908e-05
7.232e-05
7.13337e-05
7.09905e-05
6.9768e-05
6.97355e-05
7.12782e-05
7.42891e-05
8.38607e-05
9.32867e-05
0.000106319
0.000119952
0.000130794
0.000134188
0.00020528
0.000399484
0.000738092
0.00142445
0.00233521
0.00386595
0.00461467
0.00194991
0.00158832
0.00280614
0.000988508
0.000868175
0.000881922
0.000893523
0.000752169
0.000692161
0.00065603
0.000633214
0.000633688
0.000658561
0.000678944
0.000694392
0.0007321
0.000748355
0.00075475
0.000757562
0.00073366
0.000694539
0.000645455
0.000592065
0.000533679
0.000477519
0.000420912
0.000365166
0.000330611
0.000316838
0.000323016
0.000330868
0.000334518
0.000322702
0.0002681
0.000168044
0.000131831
0.000151253
0.000154084
0.000234362
0.000164499
0.000120979
0.000115069
9.46411e-05
9.23604e-05
7.02074e-05
6.0536e-05
5.71328e-05
6.06782e-05
6.71127e-05
6.55114e-05
6.39703e-05
5.99776e-05
5.89968e-05
5.84303e-05
6.00352e-05
6.1989e-05
6.39543e-05
6.56093e-05
6.68732e-05
6.78842e-05
6.87011e-05
6.93583e-05
6.98876e-05
7.03176e-05
7.0676e-05
7.09789e-05
7.12409e-05
7.14529e-05
7.1613e-05
7.17591e-05
7.18647e-05
7.19684e-05
7.20124e-05
7.1935e-05
7.18804e-05
7.13723e-05
7.10452e-05
6.98983e-05
6.92655e-05
6.82291e-05
6.75986e-05
7.02844e-05
7.27962e-05
8.4458e-05
9.46893e-05
0.000108346
0.000121657
0.000130833
0.000144402
0.000216684
0.000360281
0.000638262
0.00156224
0.00312167
0.00459447
0.00479418
0.00193771
0.00176288
0.00238342
0.00110651
0.000997518
0.000904801
0.000840492
0.000748278
0.000736816
0.000735668
0.000751758
0.000775477
0.000815382
0.000851838
0.000879329
0.00089205
0.000897127
0.000899138
0.00087422
0.000845972
0.000806151
0.000768063
0.000724105
0.000675399
0.00061606
0.000547734
0.000469386
0.000383848
0.000313578
0.000276092
0.000255494
0.000242956
0.000220868
0.000180158
0.000149161
0.000141887
0.000157288
0.000152003
0.000263541
0.000237936
0.000153734
0.000139768
9.6739e-05
9.06578e-05
7.43196e-05
6.58302e-05
6.37937e-05
6.60221e-05
7.2216e-05
6.46546e-05
6.31755e-05
5.60905e-05
5.47023e-05
5.29908e-05
5.48158e-05
5.68919e-05
5.94904e-05
6.16501e-05
6.33495e-05
6.46009e-05
6.54751e-05
6.60446e-05
6.63853e-05
6.65769e-05
6.67147e-05
6.68494e-05
6.70055e-05
6.71271e-05
6.7201e-05
6.72402e-05
6.7194e-05
6.71496e-05
6.68684e-05
6.66972e-05
6.60437e-05
6.56955e-05
6.42878e-05
6.37223e-05
6.15674e-05
6.20488e-05
6.0082e-05
6.55085e-05
6.83126e-05
8.30788e-05
9.4907e-05
0.000106279
0.000113668
0.000127286
0.000152297
0.000225763
0.00036531
0.0006261
0.00126922
0.00254547
0.00436252
0.00453023
0.00214683
0.00208198
0.00210511
0.00136584
0.00129175
0.00116682
0.00107741
0.0010267
0.0010232
0.00102819
0.00104839
0.00106161
0.0010717
0.00107789
0.00107879
0.00106511
0.00103882
0.001
0.00095046
0.000907387
0.000862875
0.000826488
0.000790663
0.000758868
0.000729435
0.000693465
0.000652961
0.00059657
0.000525391
0.000445928
0.000361756
0.00029758
0.000268865
0.000241513
0.000229197
0.000203915
0.000176298
0.000153615
0.000318698
0.000353556
0.000224933
0.000190923
9.89399e-05
6.97611e-05
6.865e-05
6.67761e-05
6.59443e-05
6.63249e-05
7.1958e-05
6.3296e-05
6.32275e-05
5.47236e-05
5.30554e-05
4.99722e-05
5.18403e-05
5.37658e-05
5.65837e-05
5.88896e-05
6.07934e-05
6.22492e-05
6.33343e-05
6.41104e-05
6.46744e-05
6.50689e-05
6.53486e-05
6.55391e-05
6.56583e-05
6.5739e-05
6.57746e-05
6.57825e-05
6.57048e-05
6.56431e-05
6.53554e-05
6.52257e-05
6.44543e-05
6.42665e-05
6.26363e-05
6.23457e-05
6.00574e-05
6.06799e-05
5.88513e-05
6.39969e-05
6.75449e-05
8.06884e-05
9.40485e-05
0.000100857
0.000108011
0.000122817
0.000162755
0.000250635
0.000415639
0.000651948
0.00116457
0.00214309
0.004108
0.00424685
0.00227356
0.00223722
0.00210192
0.00170717
0.00171759
0.00163967
0.00152624
0.00144029
0.00139561
0.00136163
0.00134522
0.00132245
0.00130563
0.00126564
0.00121688
0.00115047
0.00106255
0.000963383
0.000861604
0.000775581
0.000710987
0.00068006
0.000672242
0.000671188
0.000680118
0.000690407
0.000696955
0.000689967
0.000660164
0.000624788
0.000588005
0.000545754
0.000500133
0.00046633
0.000422984
0.000370634
0.000322889
0.000291942
0.00035976
0.000437944
0.000323075
0.000294397
0.000125258
5.85716e-05
5.42512e-05
5.41356e-05
5.41454e-05
5.36146e-05
5.77421e-05
5.07411e-05
5.14968e-05
4.2408e-05
3.9586e-05
3.65363e-05
3.82085e-05
3.97827e-05
4.21968e-05
4.4127e-05
4.57995e-05
4.71121e-05
4.81378e-05
4.89772e-05
4.96577e-05
5.01671e-05
5.05247e-05
5.07576e-05
5.09036e-05
5.10127e-05
5.10851e-05
5.11287e-05
5.11134e-05
5.10933e-05
5.08984e-05
5.08442e-05
5.02005e-05
5.02247e-05
4.88483e-05
4.9037e-05
4.72154e-05
4.82642e-05
4.70087e-05
5.15401e-05
5.4813e-05
6.49855e-05
7.55676e-05
7.78762e-05
8.04973e-05
9.51313e-05
0.000138989
0.000227517
0.000363829
0.000573179
0.0011794
0.00251427
0.00374647
0.00508632
0.00223621
0.00215427
0.00213146
0.00163484
0.00163085
0.00157925
0.00148318
0.00140269
0.00136761
0.00132401
0.00129604
0.00124357
0.00119887
0.00112992
0.00103436
0.000919127
0.000799189
0.000676551
0.000564042
0.000480947
0.000430524
0.000409739
0.000396691
0.000382982
0.000361604
0.00033662
0.000325263
0.000333592
0.000352086
0.000358216
0.000354226
0.000348458
0.000343238
0.000334276
0.000316224
0.000293276
0.00026064
0.000225159
0.000381875
0.00045403
0.000373353
0.000373043
0.000207027
5.95575e-05
4.24393e-05
3.50524e-05
3.78108e-05
3.89099e-05
4.06371e-05
3.71789e-05
3.63923e-05
2.87164e-05
2.62085e-05
2.40646e-05
2.53589e-05
2.65817e-05
2.84069e-05
2.98852e-05
3.12193e-05
3.23008e-05
3.319e-05
3.39265e-05
3.45332e-05
3.50093e-05
3.5351e-05
3.56002e-05
3.58146e-05
3.60112e-05
3.61796e-05
3.63136e-05
3.64132e-05
3.64774e-05
3.64624e-05
3.64616e-05
3.61966e-05
3.62134e-05
3.55238e-05
3.56584e-05
3.48592e-05
3.55555e-05
3.52849e-05
3.83172e-05
4.08942e-05
4.73382e-05
5.34583e-05
5.53726e-05
5.61854e-05
7.02306e-05
0.000108465
0.000195114
0.000336534
0.000602941
0.0015393
0.0032949
0.00447562
0.00473571
0.00212919
0.00203213
0.00227609
0.00144758
0.00139679
0.00130758
0.00121082
0.00110045
0.00106782
0.00101689
0.00100066
0.000935987
0.000891768
0.000806182
0.000735408
0.000657175
0.000582554
0.000524567
0.000478269
0.000436897
0.000415229
0.000402746
0.000392398
0.000387635
0.000371678
0.000331458
0.000274984
0.000237502
0.000225773
0.000228852
0.000230431
0.000219864
0.000214139
0.000205024
0.000191771
0.000174478
0.00015234
0.000130751
0.000443704
0.000548891
0.00034856
0.000330168
0.000223941
7.34276e-05
3.90783e-05
2.68192e-05
3.05289e-05
3.30508e-05
3.22218e-05
2.97069e-05
2.5933e-05
1.96483e-05
1.79161e-05
1.64319e-05
1.709e-05
1.77801e-05
1.88786e-05
1.98018e-05
2.06907e-05
2.14488e-05
2.2118e-05
2.27001e-05
2.32008e-05
2.36109e-05
2.39318e-05
2.41989e-05
2.44551e-05
2.47129e-05
2.49627e-05
2.51984e-05
2.54129e-05
2.56008e-05
2.57447e-05
2.58669e-05
2.59356e-05
2.60503e-05
2.59639e-05
2.61517e-05
2.61933e-05
2.66825e-05
2.7292e-05
2.87439e-05
3.10498e-05
3.40588e-05
3.77653e-05
3.92783e-05
4.13441e-05
5.61851e-05
9.73748e-05
0.000181541
0.000330021
0.000629697
0.00132869
0.00239045
0.00470809
0.0049174
0.00191466
0.00171366
0.00296828
0.00116154
0.000992564
0.000918279
0.000897125
0.000682872
0.000590922
0.000530045
0.000515206
0.000498077
0.000493849
0.000483695
0.000478629
0.000475067
0.000476306
0.000481465
0.000488722
0.000497777
0.000503103
0.000507134
0.000506493
0.000505648
0.000506756
0.000496637
0.000441441
0.000307928
0.00021194
0.000190121
0.000191505
0.000194769
0.000191051
0.000180161
0.000157
0.000131598
0.000101834
8.7814e-05
0.000623302
0.000839694
0.000261945
0.000141281
9.52094e-05
4.06337e-05
2.79958e-05
2.29649e-05
2.80016e-05
3.0625e-05
2.88818e-05
2.61878e-05
1.97049e-05
1.52352e-05
1.38526e-05
1.32828e-05
1.35403e-05
1.37901e-05
1.4251e-05
1.46473e-05
1.50686e-05
1.54512e-05
1.58221e-05
1.61663e-05
1.64826e-05
1.6767e-05
1.70308e-05
1.72897e-05
1.75592e-05
1.78416e-05
1.81413e-05
1.84809e-05
1.88074e-05
1.91147e-05
1.93713e-05
1.96235e-05
1.9795e-05
1.99976e-05
2.00519e-05
2.04166e-05
2.05542e-05
2.12291e-05
2.16625e-05
2.2884e-05
2.46037e-05
2.64327e-05
2.92153e-05
3.03348e-05
3.36029e-05
4.7627e-05
8.64948e-05
0.000159971
0.000286156
0.000496259
0.000933898
0.00185591
0.00330601
0.00417135
0.0022319
0.00175137
0.00330077
0.00098177
0.00081176
0.000817272
0.000837343
0.000695707
0.000595511
0.00054112
0.000510196
0.000502141
0.000503707
0.000509334
0.000520921
0.000538831
0.000559013
0.000579938
0.000597134
0.00061066
0.000616504
0.000616897
0.00061367
0.000601644
0.00059591
0.000580028
0.000559414
0.000523124
0.000422963
0.000223603
0.000155272
0.000149545
0.000149187
0.000138648
0.000115625
8.88746e-05
7.20782e-05
6.61786e-05
0.00142162
0.0010542
0.000341949
6.44589e-05
4.68132e-05
2.73051e-05
2.21368e-05
1.97709e-05
2.56971e-05
2.8975e-05
2.80645e-05
2.50468e-05
1.8947e-05
1.46972e-05
1.33875e-05
1.27958e-05
1.29012e-05
1.29874e-05
1.3134e-05
1.32521e-05
1.33725e-05
1.34775e-05
1.35923e-05
1.37239e-05
1.38645e-05
1.40013e-05
1.41432e-05
1.42945e-05
1.44658e-05
1.46604e-05
1.48697e-05
1.50969e-05
1.53298e-05
1.55751e-05
1.57914e-05
1.59916e-05
1.61097e-05
1.62864e-05
1.64155e-05
1.67322e-05
1.70767e-05
1.75634e-05
1.83547e-05
1.88967e-05
2.03224e-05
2.09196e-05
2.30607e-05
2.42806e-05
2.75864e-05
4.09105e-05
8.05643e-05
0.000153273
0.000258868
0.000421965
0.000728287
0.00148379
0.0024247
0.00346317
0.00297279
0.0021181
0.00395715
0.00102277
0.000832819
0.00108534
0.00113125
0.00102742
0.000882135
0.000794814
0.000753148
0.00072691
0.000715897
0.000716006
0.000718892
0.000726033
0.000734052
0.000743672
0.000751338
0.000752089
0.000750113
0.000740581
0.000728123
0.000695993
0.000681778
0.000659246
0.000626547
0.000587372
0.00053373
0.000474912
0.000314956
0.000139379
0.000108129
9.8518e-05
9.40034e-05
9.4348e-05
9.74877e-05
8.79629e-05
0.000916099
0.000439288
0.000205673
6.72681e-05
5.89235e-05
6.54506e-05
3.71861e-05
1.67108e-05
2.15635e-05
2.38941e-05
2.46018e-05
2.00998e-05
1.6235e-05
1.32499e-05
1.24726e-05
1.19096e-05
1.19835e-05
1.19969e-05
1.21179e-05
1.21811e-05
1.22488e-05
1.23e-05
1.23438e-05
1.23668e-05
1.23438e-05
1.23113e-05
1.22978e-05
1.23077e-05
1.23502e-05
1.24122e-05
1.24898e-05
1.25841e-05
1.26998e-05
1.28547e-05
1.30186e-05
1.31873e-05
1.33105e-05
1.34333e-05
1.36118e-05
1.38505e-05
1.42613e-05
1.46129e-05
1.5414e-05
1.57415e-05
1.68297e-05
1.70669e-05
1.869e-05
1.97755e-05
2.29007e-05
3.34033e-05
7.29452e-05
0.000138825
0.0002245
0.000478954
0.000658365
0.00114135
0.00216019
0.00315358
0.00355389
0.00288564
0.00452402
0.00125721
0.00146893
0.0014238
0.00134086
0.00127719
0.00120827
0.00113123
0.00106422
0.0010175
0.000983577
0.000958415
0.000938697
0.000924614
0.000913242
0.000901657
0.000887647
0.000866233
0.000844983
0.000811666
0.00078019
0.000726564
0.000701026
0.000674525
0.000645056
0.000600882
0.000551759
0.000510846
0.0004557
0.000359009
0.000210884
0.000124802
9.67028e-05
0.000113588
0.000133126
0.000107547
0.000867031
0.000435329
0.000204586
0.000103625
0.000141846
0.000178648
0.000126544
2.55219e-05
1.31196e-05
1.39145e-05
1.47625e-05
1.23571e-05
1.08046e-05
9.93587e-06
9.94914e-06
9.60775e-06
9.64161e-06
9.59819e-06
9.66688e-06
9.685e-06
9.71964e-06
9.73705e-06
9.75267e-06
9.76267e-06
9.81356e-06
9.87602e-06
9.95305e-06
1.00542e-05
1.01851e-05
1.03325e-05
1.04963e-05
1.06613e-05
1.0832e-05
1.10181e-05
1.12027e-05
1.1385e-05
1.15513e-05
1.17146e-05
1.19553e-05
1.21946e-05
1.26326e-05
1.29377e-05
1.36869e-05
1.39671e-05
1.49077e-05
1.50146e-05
1.64799e-05
1.73789e-05
1.97957e-05
2.91586e-05
6.41614e-05
0.000106589
0.000152189
0.000346979
0.000654879
0.00102979
0.00220805
0.00342448
0.00462378
0.0039368
0.00569436
0.00222252
0.00221575
0.00185132
0.00167685
0.00158119
0.00149392
0.00140979
0.00132989
0.00125374
0.00118559
0.00112774
0.00107825
0.00103112
0.000991631
0.000956014
0.000923552
0.000888983
0.000853091
0.000809977
0.0007689
0.000716926
0.000679594
0.000637599
0.000598108
0.000558089
0.000516299
0.000481367
0.000446648
0.000407179
0.000351497
0.000281564
0.000232897
0.000200459
0.000175484
0.00011703
0.000730027
0.000588066
0.000497133
0.000297612
0.000259793
0.000243894
0.000218393
0.000117232
1.55475e-05
8.87248e-06
8.58712e-06
7.58695e-06
7.07107e-06
6.7393e-06
6.74584e-06
6.59372e-06
6.62225e-06
6.61398e-06
6.66497e-06
6.69881e-06
6.75108e-06
6.80267e-06
6.86287e-06
6.92916e-06
7.00494e-06
7.08433e-06
7.17049e-06
7.26622e-06
7.37399e-06
7.49262e-06
7.62928e-06
7.76966e-06
7.91082e-06
8.05656e-06
8.19895e-06
8.34126e-06
8.48241e-06
8.61626e-06
8.79606e-06
8.95887e-06
9.30281e-06
9.51058e-06
1.00688e-05
1.02512e-05
1.09379e-05
1.09831e-05
1.215e-05
1.3131e-05
1.54578e-05
2.29518e-05
4.49228e-05
6.53256e-05
0.00010059
0.000201819
0.000397801
0.000618488
0.00121484
0.00175456
0.00280426
0.00423739
0.00871628
0.00606815
0.00445386
0.00332527
0.00260992
0.00214252
0.00182961
0.00161591
0.00146469
0.00135073
0.00125967
0.00118464
0.0011207
0.00106445
0.00101411
0.00096752
0.000924842
0.000882268
0.000842774
0.000798088
0.000756542
0.000705244
0.000661464
0.000607746
0.000556846
0.000507416
0.000464279
0.000433543
0.000399775
0.000367265
0.00033498
0.000297295
0.000262478
0.00022504
0.000188243
0.000117638
0.000142706
8.60794e-05
6.30305e-05
5.3025e-05
4.28541e-05
3.84513e-05
3.37499e-05
3.53114e-05
4.17836e-05
5.89208e-05
7.17023e-05
8.19892e-05
8.22181e-05
8.03283e-05
7.38469e-05
6.98693e-05
6.58324e-05
6.34049e-05
6.16044e-05
6.05751e-05
6.00189e-05
5.98149e-05
5.98655e-05
6.01117e-05
6.04588e-05
6.08506e-05
6.12512e-05
6.16877e-05
6.21366e-05
6.25983e-05
6.30828e-05
6.34968e-05
6.40721e-05
6.42221e-05
6.51511e-05
6.47997e-05
6.64375e-05
6.53952e-05
6.81126e-05
6.68827e-05
7.12602e-05
7.08802e-05
7.67413e-05
7.77129e-05
8.05196e-05
7.79361e-05
6.69791e-05
5.90424e-05
4.8256e-05
6.01261e-05
9.98956e-05
9.27729e-05
0.000158896
0.000211168
0.000512317
0.000891771
0.00173429
0.00283235
0.00388608
0.00516742
0.00642228
0.00476835
0.00362578
0.00290018
0.00244231
0.0021206
0.00187811
0.00167856
0.00151343
0.00136929
0.00123879
0.00112104
0.00101409
0.000916265
0.000827175
0.000748335
0.000678397
0.00062158
0.000574703
0.000541437
0.000526137
0.000522507
0.00052501
0.000527349
0.000524772
0.000516949
0.00050026
0.000480804
0.000460627
0.000442179
0.000416164
0.000387735
0.000348449
0.000249437
0.000155145
0.000143451
0.000282334
0.00019288
0.000152398
0.000136552
0.000127805
0.000126633
0.000128178
0.000138419
0.000145111
0.000162461
0.000166575
0.000171874
0.000167038
0.000160929
0.000153527
0.000149767
0.000146726
0.000145627
0.000145115
0.000145389
0.000146023
0.000146847
0.000147759
0.000148773
0.000149852
0.000150918
0.000151888
0.000152788
0.000153687
0.000154594
0.000155509
0.00015634
0.000157269
0.000157859
0.00015904
0.000159132
0.000160819
0.000160097
0.000162528
0.000161162
0.000165043
0.000163535
0.000169683
0.00016894
0.000177021
0.000173685
0.000173675
0.000160147
0.00016211
0.000186986
0.000244711
0.000269765
0.000411954
0.000617686
0.00147219
0.002717
0.00453449
0.00712619
0.0133339
0.0143542
0.00257566
0.00143933
0.00247837
0.00242389
0.0022009
0.00196459
0.0017397
0.00155295
0.00143505
0.00133819
0.00126142
0.0011945
0.00111097
0.00102523
0.00095003
0.000879545
0.000853553
0.000860685
0.000891866
0.000958534
0.00103823
0.00107575
0.00106422
0.00103188
0.000965003
0.000897807
0.000839139
0.00076155
0.000696262
0.000607309
0.000540524
0.00046301
0.000404258
0.000317185
0.000252216
0.00016953
0.000339057
0.000247
0.000210294
0.000189831
0.000181664
0.000180785
0.00017568
0.00018099
0.000179005
0.000186043
0.000187261
0.000186453
0.000181065
0.000173591
0.000167964
0.000165435
0.000165094
0.000166679
0.000168684
0.000171073
0.000173319
0.000175329
0.000177062
0.000178606
0.000180047
0.000181363
0.000182492
0.000183478
0.000184436
0.000185361
0.000186234
0.000187043
0.000187796
0.000188475
0.000189182
0.000189543
0.000190185
0.000189868
0.000190325
0.000189023
0.000189805
0.000188083
0.000190722
0.00019209
0.000200537
0.000207034
0.000222326
0.000224758
0.000250525
0.000268687
0.000299041
0.000346552
0.000528946
0.000885415
0.00178226
0.00286168
0.00433638
0.00691171
0.0107882
0.00965791
0.00230925
0.00226411
0.00320595
0.00235041
0.00196232
0.00161763
0.00134897
0.00125259
0.00126063
0.00128615
0.00128358
0.00126309
0.00125867
0.00128881
0.00127454
0.00124369
0.00126109
0.00136023
0.00147463
0.00148806
0.00143866
0.00133622
0.0012122
0.00110398
0.00101076
0.000945854
0.000887293
0.000837594
0.000765221
0.000681357
0.000600931
0.000519884
0.000448904
0.000326812
0.000284622
0.000197645
0.000457243
0.000314648
0.000261536
0.000234913
0.000224243
0.000216463
0.00018894
0.000181615
0.00018037
0.000185034
0.000191958
0.000191365
0.000187121
0.000178814
0.000173743
0.000171108
0.000171904
0.000174769
0.000178382
0.00018209
0.00018529
0.00018803
0.000190315
0.000192212
0.000193873
0.000195324
0.000196557
0.000197637
0.000198673
0.000199638
0.000200512
0.000201305
0.000201992
0.000202656
0.000203164
0.00020351
0.000203584
0.000203346
0.000202523
0.000201366
0.000200206
0.000199023
0.000199768
0.000204056
0.000212488
0.000229666
0.000247273
0.00026346
0.000286475
0.000303714
0.000319079
0.000383104
0.000589626
0.00103872
0.00190428
0.00352037
0.00474583
0.00676482
0.00794331
0.00602292
0.00225708
0.00250496
0.00214644
0.0018282
0.00173516
0.00119424
0.00119037
0.00125105
0.00126062
0.00126128
0.00125371
0.00126393
0.00132334
0.00148753
0.00173284
0.0018387
0.00185563
0.00175262
0.00151356
0.00129513
0.00113129
0.00100496
0.000906791
0.000834302
0.000772322
0.00072356
0.00069519
0.000688554
0.00067111
0.000631496
0.00057213
0.000509641
0.000428792
0.000309158
0.0002746
0.000200658
0.000626381
0.000398961
0.000297432
0.000256503
0.00024046
0.000231194
0.000194665
0.000179503
0.000185198
0.000191447
0.000203254
0.000198005
0.000195462
0.000184148
0.000178782
0.000173655
0.000174726
0.00017814
0.000183005
0.000187583
0.000191478
0.000194706
0.000197366
0.000199486
0.000201225
0.000202672
0.000203916
0.000205053
0.00020619
0.000207203
0.000208082
0.000208885
0.000209515
0.000210153
0.000210385
0.000210741
0.000210286
0.000210197
0.000208414
0.000207649
0.000205047
0.000205755
0.000204164
0.000214148
0.000220387
0.000244312
0.000259966
0.000281627
0.000298023
0.000320616
0.000337976
0.000426584
0.000646575
0.00124488
0.00277216
0.0047036
0.00668781
0.00850227
0.0034012
0.0028994
0.00222228
0.00223133
0.0021166
0.00172958
0.00164702
0.00141138
0.00140399
0.00135002
0.00136462
0.00141308
0.00152923
0.00171749
0.00182015
0.00184996
0.00185451
0.00178758
0.00164632
0.00150785
0.00136716
0.00123656
0.00111289
0.000999007
0.000900421
0.00082559
0.000756454
0.000681706
0.000612707
0.000561115
0.000534434
0.000517048
0.000492051
0.00045291
0.000333383
0.000258986
0.000246663
0.000198279
0.000881746
0.000478657
0.000344921
0.000280423
0.000248086
0.000235374
0.000199462
0.000181258
0.000188694
0.000197932
0.000209403
0.00019982
0.000198217
0.000184584
0.000179223
0.000171421
0.000173712
0.000177543
0.000183503
0.000188675
0.000193046
0.000196608
0.000199477
0.000201699
0.000203464
0.000204901
0.000206122
0.000207241
0.000208393
0.000209406
0.000210271
0.000211062
0.00021165
0.000212245
0.000212301
0.000212632
0.000211807
0.000211809
0.000209348
0.000209034
0.000205006
0.000207054
0.000203482
0.000216726
0.000222428
0.00024963
0.00026709
0.000287646
0.000298949
0.000327506
0.000365657
0.000450414
0.000668272
0.0011867
0.00301456
0.00559001
0.00829063
0.00888775
0.00221968
0.00210483
0.0031913
0.00263718
0.00273584
0.00236319
0.00217166
0.00192451
0.00186829
0.0018464
0.00187151
0.00188471
0.0019556
0.00198917
0.00201511
0.00202803
0.00201708
0.00198807
0.00198189
0.00195406
0.00189449
0.00178872
0.00164048
0.00145647
0.00126118
0.00110661
0.000995507
0.000883211
0.000760142
0.000641344
0.00052358
0.000461476
0.000412237
0.000376752
0.000326555
0.000271933
0.00023569
0.00018792
0.000931596
0.000551893
0.000423507
0.000309901
0.000261007
0.000234934
0.000198831
0.00018134
0.000188776
0.000198105
0.000209865
0.000189638
0.000191676
0.000169134
0.000162748
0.000150321
0.000152799
0.000156132
0.000163794
0.000170378
0.000176407
0.000181119
0.000184741
0.000187263
0.000189033
0.000190303
0.000191276
0.000192138
0.00019324
0.000194169
0.000194904
0.000195584
0.000195928
0.000196296
0.000195524
0.000195799
0.000193165
0.000193999
0.000188228
0.000190299
0.000181173
0.000188481
0.000179676
0.000201283
0.000206326
0.000242822
0.000265518
0.000280762
0.000274945
0.00032078
0.000371232
0.000468017
0.000701003
0.00112368
0.00222937
0.00443334
0.00718296
0.00688418
0.00198916
0.00196288
0.00427023
0.00315291
0.00360298
0.0033921
0.00295608
0.00260924
0.00246147
0.00239696
0.00238524
0.00239395
0.00245531
0.00247483
0.00248522
0.00249471
0.0025188
0.00253606
0.00254083
0.002517
0.00246004
0.0023682
0.00224523
0.00208593
0.00187792
0.00167086
0.0014963
0.00137826
0.00128031
0.00120213
0.00112439
0.00103221
0.000939279
0.000861683
0.000757761
0.000539335
0.000302102
0.00019576
0.000983173
0.000717426
0.000586806
0.000373903
0.000268379
0.0002238
0.000188272
0.000176338
0.000176077
0.0001859
0.000196195
0.00017435
0.00017706
0.000147908
0.000141441
0.000125481
0.000129357
0.000131884
0.000139657
0.000145748
0.000151479
0.000155866
0.000159307
0.00016173
0.000163471
0.000164614
0.000165271
0.000165413
0.000165006
0.000164475
0.000163871
0.000163333
0.000162598
0.000162038
0.000160655
0.000160182
0.000156801
0.000157082
0.000150722
0.000152347
0.00014321
0.000147991
0.000139487
0.000154566
0.00016075
0.000188387
0.000217327
0.000220483
0.000218217
0.000245905
0.000324639
0.000473076
0.000742751
0.00113687
0.00195463
0.00366885
0.00652664
0.00605513
0.00227383
0.00225416
0.00492168
0.00368517
0.00432741
0.00437927
0.00401299
0.00379433
0.00350128
0.00336924
0.00324173
0.0031516
0.00307145
0.00301361
0.00296898
0.00294925
0.00292176
0.00287594
0.00281369
0.00274529
0.00266554
0.00255027
0.00243637
0.00234159
0.00217258
0.00197236
0.00177964
0.00164638
0.0015447
0.00146787
0.00141655
0.00135592
0.0012799
0.00121387
0.00108982
0.000936363
0.00078589
0.000746909
0.00101303
0.00116967
0.000942357
0.000635731
0.000340828
0.000222446
0.000172144
0.000157975
0.000165464
0.000179275
0.00018782
0.000156619
0.000151358
0.000109741
9.51819e-05
8.14567e-05
8.29135e-05
8.40768e-05
8.88776e-05
9.26987e-05
9.64691e-05
9.9318e-05
0.000101497
0.000103409
0.00010445
0.000104839
0.00010495
0.000104881
0.000104667
0.000104444
0.000104216
0.000104087
0.000103831
0.000103692
0.000102573
0.000102409
9.98345e-05
0.00010079
9.62975e-05
9.90671e-05
9.2748e-05
9.85189e-05
9.1402e-05
0.000104661
0.000105131
0.000128223
0.000147562
0.000146904
0.000135075
0.00015363
0.000236714
0.000426147
0.000664818
0.0010165
0.00219128
0.00465028
0.00769947
0.00920942
0.00227122
0.00218461
0.00436742
0.00331315
0.00411472
0.00416404
0.0039164
0.00373058
0.00351167
0.00334778
0.00317727
0.0029852
0.00279005
0.002593
0.00238595
0.00215323
0.00193805
0.00175066
0.00159616
0.00145751
0.00132108
0.00117445
0.00109266
0.0010731
0.00107956
0.0010424
0.000956869
0.000799185
0.000660175
0.000606394
0.000568423
0.000522429
0.000482884
0.000445226
0.00039002
0.000349116
0.000312968
0.000150945
0.00102492
0.00160979
0.00139263
0.00112447
0.000697455
0.000298692
0.000152673
0.000124194
0.000134539
0.000149994
0.000150612
0.000133074
0.000117213
8.64495e-05
7.35499e-05
6.37328e-05
6.38116e-05
6.42715e-05
6.67656e-05
6.87315e-05
7.07592e-05
7.22755e-05
7.34355e-05
7.44126e-05
7.52065e-05
7.56682e-05
7.57988e-05
7.57296e-05
7.55747e-05
7.54378e-05
7.53845e-05
7.5282e-05
7.51323e-05
7.50505e-05
7.44376e-05
7.40819e-05
7.25628e-05
7.32379e-05
7.06045e-05
7.31254e-05
6.9198e-05
7.38147e-05
6.8529e-05
7.5116e-05
7.23341e-05
8.4081e-05
9.24899e-05
9.46322e-05
9.17337e-05
0.000113297
0.000185851
0.000366304
0.00062303
0.00113324
0.00299664
0.00690941
0.00932174
0.00917848
0.00214199
0.00209274
0.00349015
0.00255243
0.00313138
0.00296676
0.00285406
0.00259331
0.00253315
0.00239406
0.00233716
0.0022102
0.00208044
0.00191584
0.00174393
0.00156935
0.00141725
0.00131009
0.00120815
0.0011104
0.000997084
0.000889816
0.000828301
0.000820249
0.000828585
0.000808444
0.000717025
0.000550512
0.000390285
0.000333999
0.000294094
0.000266711
0.000248248
0.000231677
0.000209417
0.000173082
0.000137196
9.73585e-05