/*--------------------------------*- C++ -*----------------------------------*\
| =========                 |                                                 |
| \\      /  F ield         | OpenFOAM: The Open Source CFD Toolbox           |
|  \\    /   O peration     | Version:  2.3.0                                 |
|   \\  /    A nd           | Web:      www.OpenFOAM.org                      |
|    \\/     M anipulation  |                                                 |
\*---------------------------------------------------------------------------*/
FoamFile
{
    version     2.0;
    format      ascii;
    class       volScalarField;
    location    "19";
    object      nut.water;
}
// * * * * * * * * * * * * * * * * * * * * * * * * * * * * * * * * * * * * * //

dimensions      [0 2 -1 0 0 0 0];

internalField   nonuniform List<scalar> 
6144
(
1.21768e-05
1.01635e-05
9.28142e-06
8.75927e-06
7.49454e-06
6.86251e-06
6.01857e-06
5.61755e-06
5.56695e-06
5.97392e-06
6.58507e-06
7.06778e-06
7.20914e-06
7.22866e-06
7.03352e-06
6.92187e-06
6.83286e-06
6.79029e-06
6.75868e-06
6.74191e-06
6.73435e-06
6.7346e-06
6.74168e-06
6.75348e-06
6.76698e-06
6.78113e-06
6.79553e-06
6.81297e-06
6.83116e-06
6.84891e-06
6.86836e-06
6.88346e-06
6.9066e-06
6.91073e-06
6.94681e-06
6.93074e-06
6.98868e-06
6.94765e-06
7.03952e-06
6.99238e-06
7.12229e-06
7.17501e-06
7.27525e-06
7.56632e-06
7.46884e-06
7.79311e-06
7.35208e-06
7.46057e-06
7.18633e-06
7.80921e-06
9.77258e-06
1.02881e-05
1.38761e-05
1.91572e-05
2.81266e-05
3.6129e-05
4.41882e-05
5.99029e-05
7.84393e-05
9.33957e-05
0.000149711
0.000114499
9.90907e-05
8.58018e-05
7.73735e-05
7.18342e-05
6.78259e-05
6.46001e-05
6.17581e-05
5.90387e-05
5.63341e-05
5.35973e-05
5.08857e-05
4.82379e-05
4.57344e-05
4.33983e-05
4.12743e-05
3.94439e-05
3.79499e-05
3.68736e-05
3.61143e-05
3.58189e-05
3.58039e-05
3.586e-05
3.59357e-05
3.59088e-05
3.57872e-05
3.54391e-05
3.48986e-05
3.41822e-05
3.2743e-05
3.10888e-05
2.71669e-05
1.66806e-05
1.6019e-05
1.67774e-05
1.51356e-05
1.31358e-05
1.2183e-05
1.13265e-05
1.00025e-05
9.57069e-06
8.67486e-06
8.54748e-06
9.03546e-06
9.78751e-06
1.02551e-05
1.05005e-05
1.05275e-05
1.04175e-05
1.0203e-05
1.01218e-05
1.00949e-05
1.01436e-05
1.02011e-05
1.02661e-05
1.03296e-05
1.039e-05
1.04479e-05
1.05046e-05
1.05588e-05
1.06105e-05
1.06586e-05
1.0705e-05
1.0751e-05
1.0797e-05
1.08439e-05
1.08864e-05
1.09346e-05
1.0966e-05
1.1027e-05
1.10308e-05
1.11165e-05
1.10729e-05
1.12171e-05
1.1103e-05
1.13269e-05
1.12425e-05
1.1442e-05
1.15993e-05
1.1649e-05
1.19554e-05
1.18621e-05
1.20411e-05
1.18002e-05
1.2934e-05
1.47974e-05
1.62129e-05
2.06327e-05
2.70911e-05
3.92789e-05
5.10284e-05
6.87129e-05
8.98203e-05
0.000108511
0.000100266
0.000131498
7.71419e-05
8.227e-05
7.30372e-05
7.08514e-05
6.93778e-05
6.72338e-05
6.5084e-05
6.30346e-05
6.08605e-05
5.85114e-05
5.59339e-05
5.32894e-05
5.04497e-05
4.7881e-05
4.54689e-05
4.331e-05
4.12226e-05
3.96071e-05
3.86359e-05
3.85513e-05
3.8641e-05
3.87444e-05
3.8662e-05
3.85469e-05
3.81363e-05
3.79096e-05
3.7447e-05
3.69063e-05
3.64261e-05
3.52272e-05
3.39625e-05
3.09359e-05
2.10055e-05
1.90916e-05
1.78596e-05
1.63066e-05
1.46471e-05
1.38469e-05
1.34524e-05
1.2224e-05
1.18222e-05
1.04216e-05
9.86969e-06
1.01992e-05
1.07873e-05
1.1286e-05
1.15082e-05
1.1428e-05
1.1239e-05
1.11827e-05
1.1223e-05
1.13098e-05
1.14434e-05
1.15786e-05
1.17141e-05
1.18389e-05
1.19524e-05
1.20545e-05
1.21492e-05
1.22383e-05
1.23226e-05
1.24006e-05
1.24738e-05
1.25458e-05
1.26177e-05
1.26883e-05
1.27558e-05
1.28232e-05
1.28841e-05
1.29587e-05
1.29968e-05
1.30787e-05
1.30744e-05
1.31587e-05
1.30892e-05
1.31952e-05
1.30683e-05
1.32193e-05
1.32245e-05
1.35334e-05
1.39086e-05
1.44636e-05
1.50396e-05
1.54725e-05
1.68746e-05
1.71852e-05
1.97209e-05
2.5208e-05
3.2524e-05
4.35715e-05
5.83583e-05
7.17058e-05
9.3864e-05
0.000100025
8.78572e-05
0.000122016
6.92716e-05
7.02267e-05
6.40761e-05
6.55372e-05
6.46191e-05
6.28435e-05
6.12799e-05
5.98852e-05
5.83149e-05
5.64684e-05
5.44333e-05
5.22262e-05
4.92488e-05
4.62648e-05
4.33182e-05
4.03371e-05
3.89713e-05
4.02377e-05
4.11706e-05
4.09571e-05
4.05176e-05
4.01472e-05
3.93152e-05
3.79522e-05
3.68555e-05
3.60636e-05
3.58808e-05
3.61664e-05
3.63966e-05
3.61369e-05
3.5626e-05
3.30026e-05
2.33814e-05
2.27609e-05
1.94747e-05
1.77267e-05
1.55877e-05
1.45856e-05
1.43366e-05
1.32842e-05
1.28956e-05
1.07913e-05
1.02911e-05
1.04258e-05
1.09506e-05
1.14889e-05
1.1728e-05
1.16836e-05
1.15198e-05
1.14946e-05
1.15588e-05
1.16727e-05
1.18342e-05
1.19968e-05
1.21584e-05
1.23068e-05
1.24426e-05
1.25647e-05
1.26771e-05
1.27834e-05
1.28841e-05
1.29777e-05
1.30662e-05
1.31528e-05
1.32388e-05
1.33234e-05
1.34059e-05
1.34873e-05
1.35642e-05
1.36459e-05
1.37037e-05
1.3786e-05
1.38068e-05
1.38805e-05
1.38397e-05
1.3923e-05
1.38291e-05
1.39786e-05
1.40002e-05
1.44281e-05
1.4983e-05
1.58389e-05
1.68316e-05
1.78458e-05
1.89082e-05
1.88458e-05
2.22281e-05
3.04325e-05
4.07104e-05
5.53189e-05
7.20679e-05
8.37221e-05
0.000104529
8.71396e-05
7.53793e-05
0.000121489
6.535e-05
5.64747e-05
6.21182e-05
6.37304e-05
6.11332e-05
5.98184e-05
5.84849e-05
5.65767e-05
5.42636e-05
5.16264e-05
4.88597e-05
4.61229e-05
4.66446e-05
4.95276e-05
5.07695e-05
5.13238e-05
5.11037e-05
5.08625e-05
4.93212e-05
4.7544e-05
4.53801e-05
4.29624e-05
4.0239e-05
3.75234e-05
3.58026e-05
3.54192e-05
3.57673e-05
3.64848e-05
3.72072e-05
3.76544e-05
3.72084e-05
3.36514e-05
2.46797e-05
2.59114e-05
2.03396e-05
1.94825e-05
1.65218e-05
1.49679e-05
1.47494e-05
1.37727e-05
1.35855e-05
1.14231e-05
1.074e-05
1.06236e-05
1.11067e-05
1.17481e-05
1.19214e-05
1.18623e-05
1.1633e-05
1.16046e-05
1.16568e-05
1.18256e-05
1.20445e-05
1.22603e-05
1.24607e-05
1.26349e-05
1.27892e-05
1.29287e-05
1.30558e-05
1.31719e-05
1.32792e-05
1.33803e-05
1.34773e-05
1.35725e-05
1.36649e-05
1.3755e-05
1.38443e-05
1.39306e-05
1.40147e-05
1.40955e-05
1.4162e-05
1.42344e-05
1.42633e-05
1.4308e-05
1.42713e-05
1.42978e-05
1.42352e-05
1.42919e-05
1.45121e-05
1.48782e-05
1.58751e-05
1.68116e-05
1.80204e-05
1.92155e-05
2.01494e-05
2.04942e-05
2.5455e-05
3.56157e-05
4.85733e-05
6.77331e-05
8.72077e-05
0.000112734
0.000123619
8.05945e-05
7.51545e-05
0.000110651
6.58596e-05
5.8684e-05
5.9327e-05
5.70836e-05
5.34605e-05
5.18365e-05
5.07578e-05
4.98474e-05
5.00719e-05
5.26192e-05
5.5306e-05
5.72825e-05
5.96386e-05
6.0578e-05
6.11128e-05
6.11995e-05
6.02971e-05
5.86348e-05
5.64811e-05
5.39526e-05
5.10052e-05
4.79533e-05
4.46505e-05
4.12038e-05
3.88534e-05
3.77742e-05
3.79809e-05
3.83682e-05
3.88157e-05
3.90334e-05
3.68323e-05
3.03046e-05
2.66877e-05
2.86667e-05
2.09308e-05
2.15619e-05
1.81967e-05
1.56998e-05
1.54018e-05
1.40337e-05
1.39401e-05
1.2229e-05
1.14309e-05
1.11729e-05
1.15825e-05
1.22526e-05
1.21764e-05
1.21053e-05
1.17919e-05
1.1764e-05
1.17745e-05
1.20036e-05
1.22669e-05
1.25308e-05
1.27637e-05
1.29584e-05
1.31289e-05
1.3281e-05
1.34179e-05
1.35429e-05
1.36585e-05
1.37676e-05
1.38715e-05
1.39717e-05
1.40672e-05
1.41578e-05
1.4247e-05
1.43324e-05
1.44176e-05
1.44969e-05
1.45639e-05
1.46332e-05
1.46559e-05
1.46966e-05
1.46514e-05
1.46581e-05
1.46216e-05
1.46263e-05
1.49901e-05
1.53313e-05
1.65956e-05
1.76547e-05
1.89745e-05
2.01965e-05
2.1052e-05
2.22247e-05
2.73384e-05
3.539e-05
4.73189e-05
7.42837e-05
0.000105569
0.00012902
0.000132433
8.44314e-05
8.5372e-05
0.000106114
7.33163e-05
6.88986e-05
6.5926e-05
6.27203e-05
5.93517e-05
5.96514e-05
6.07724e-05
6.29377e-05
6.50609e-05
6.77808e-05
6.99504e-05
7.16817e-05
7.2706e-05
7.33009e-05
7.36227e-05
7.29121e-05
7.19752e-05
7.04251e-05
6.87954e-05
6.66796e-05
6.42094e-05
6.10722e-05
5.72387e-05
5.26648e-05
4.72224e-05
4.23017e-05
3.94203e-05
3.78636e-05
3.71083e-05
3.57644e-05
3.28039e-05
2.98192e-05
2.90195e-05
3.09933e-05
2.07753e-05
2.28856e-05
2.19408e-05
1.77902e-05
1.70888e-05
1.42798e-05
1.38973e-05
1.26695e-05
1.20149e-05
1.1912e-05
1.22023e-05
1.28499e-05
1.22408e-05
1.21852e-05
1.15624e-05
1.14976e-05
1.13923e-05
1.1664e-05
1.19612e-05
1.2312e-05
1.26155e-05
1.28715e-05
1.3082e-05
1.32548e-05
1.3397e-05
1.35164e-05
1.36209e-05
1.37201e-05
1.38192e-05
1.39206e-05
1.40186e-05
1.41118e-05
1.42014e-05
1.42819e-05
1.43626e-05
1.44176e-05
1.44841e-05
1.44974e-05
1.45435e-05
1.44702e-05
1.44898e-05
1.43244e-05
1.44633e-05
1.43136e-05
1.50325e-05
1.5438e-05
1.71196e-05
1.83944e-05
1.95698e-05
2.03404e-05
2.16555e-05
2.38232e-05
2.91336e-05
3.72486e-05
4.90061e-05
7.00566e-05
9.98229e-05
0.000131726
0.000134845
9.32927e-05
0.000101059
0.00010164
8.82331e-05
8.76694e-05
8.44197e-05
8.22456e-05
8.11797e-05
8.2104e-05
8.28366e-05
8.42667e-05
8.51138e-05
8.61104e-05
8.68067e-05
8.71086e-05
8.69804e-05
8.62754e-05
8.5151e-05
8.34088e-05
8.19294e-05
8.02382e-05
7.88757e-05
7.74212e-05
7.60007e-05
7.45245e-05
7.24597e-05
6.9861e-05
6.6221e-05
6.15767e-05
5.60811e-05
4.98496e-05
4.43876e-05
4.18355e-05
3.9271e-05
3.80881e-05
3.63055e-05
3.47513e-05
2.12114e-05
2.51921e-05
2.67854e-05
2.15964e-05
2.00915e-05
1.45594e-05
1.22924e-05
1.22865e-05
1.22145e-05
1.22375e-05
1.23718e-05
1.29899e-05
1.22796e-05
1.23731e-05
1.16048e-05
1.15187e-05
1.12666e-05
1.15647e-05
1.18681e-05
1.22687e-05
1.26116e-05
1.29109e-05
1.31628e-05
1.33762e-05
1.35576e-05
1.37172e-05
1.38594e-05
1.39899e-05
1.41113e-05
1.42253e-05
1.43353e-05
1.44406e-05
1.4543e-05
1.4636e-05
1.47307e-05
1.47997e-05
1.48864e-05
1.48987e-05
1.49778e-05
1.4886e-05
1.49511e-05
1.47719e-05
1.49472e-05
1.48179e-05
1.5555e-05
1.60853e-05
1.76931e-05
1.92201e-05
2.00286e-05
2.08542e-05
2.23876e-05
2.59374e-05
3.23565e-05
4.19223e-05
5.27965e-05
7.10172e-05
9.70316e-05
0.000135327
0.000138349
0.000101887
0.000111235
0.000106979
0.000104794
0.000107659
0.000106837
0.000104502
0.000102597
0.000101869
0.000101316
0.000101241
0.000100602
0.000100377
9.92395e-05
9.7797e-05
9.56613e-05
9.2665e-05
8.90813e-05
8.5077e-05
8.14583e-05
7.86593e-05
7.73901e-05
7.73439e-05
7.76064e-05
7.83319e-05
7.90875e-05
7.95502e-05
7.93112e-05
7.77179e-05
7.57029e-05
7.3383e-05
7.03653e-05
6.68297e-05
6.38383e-05
6.01728e-05
5.57248e-05
5.12373e-05
2.71731e-05
2.6731e-05
2.9692e-05
2.5772e-05
2.4822e-05
1.63415e-05
1.12222e-05
1.08295e-05
1.08846e-05
1.09608e-05
1.09798e-05
1.14723e-05
1.08294e-05
1.09841e-05
1.00363e-05
9.76235e-06
9.44041e-06
9.71737e-06
9.9797e-06
1.03447e-05
1.06465e-05
1.09157e-05
1.11411e-05
1.13326e-05
1.15025e-05
1.1654e-05
1.17858e-05
1.19001e-05
1.20001e-05
1.209e-05
1.21757e-05
1.22572e-05
1.23353e-05
1.24063e-05
1.24768e-05
1.25256e-05
1.25917e-05
1.25838e-05
1.26592e-05
1.25558e-05
1.26518e-05
1.24849e-05
1.26943e-05
1.25987e-05
1.32661e-05
1.37573e-05
1.506e-05
1.63256e-05
1.66607e-05
1.70312e-05
1.86241e-05
2.26346e-05
2.90904e-05
3.69565e-05
4.65913e-05
6.7237e-05
9.8709e-05
0.000120985
0.000142281
9.48489e-05
0.0001014
0.000102315
9.60064e-05
9.77365e-05
9.72257e-05
9.53601e-05
9.33504e-05
9.24443e-05
9.1127e-05
9.013e-05
8.80414e-05
8.62844e-05
8.33614e-05
7.94814e-05
7.44394e-05
6.88104e-05
6.26243e-05
5.64405e-05
5.20095e-05
4.90821e-05
4.82177e-05
4.82366e-05
4.83087e-05
4.8024e-05
4.75257e-05
4.76059e-05
4.86143e-05
5.00478e-05
5.06986e-05
5.06043e-05
5.02309e-05
4.96723e-05
4.86962e-05
4.69509e-05
4.467e-05
4.13417e-05
2.24565e-05
2.74872e-05
3.01339e-05
2.75738e-05
2.77957e-05
2.0903e-05
1.13035e-05
9.53454e-06
8.69448e-06
9.088e-06
9.27453e-06
9.53443e-06
9.17413e-06
9.13023e-06
8.15923e-06
7.84083e-06
7.55643e-06
7.80169e-06
8.03301e-06
8.35158e-06
8.61445e-06
8.85409e-06
9.05636e-06
9.23103e-06
9.38433e-06
9.51972e-06
9.63724e-06
9.73648e-06
9.82323e-06
9.90541e-06
9.98535e-06
1.00616e-05
1.01333e-05
1.02003e-05
1.02625e-05
1.03135e-05
1.03666e-05
1.03817e-05
1.04372e-05
1.039e-05
1.04627e-05
1.03969e-05
1.05533e-05
1.05658e-05
1.10658e-05
1.14882e-05
1.24199e-05
1.32614e-05
1.35606e-05
1.37289e-05
1.54275e-05
1.92648e-05
2.59346e-05
3.4196e-05
4.59603e-05
7.38074e-05
0.000108589
0.000127128
0.000131757
8.9118e-05
9.27598e-05
0.000102758
8.43043e-05
8.28222e-05
8.0872e-05
7.75368e-05
7.41593e-05
7.30753e-05
7.10231e-05
7.03484e-05
6.73953e-05
6.54999e-05
6.14388e-05
5.82298e-05
5.417e-05
5.03379e-05
4.82766e-05
4.69635e-05
4.548e-05
4.466e-05
4.41609e-05
4.35677e-05
4.35317e-05
4.31678e-05
4.16422e-05
3.90519e-05
3.72003e-05
3.67648e-05
3.72558e-05
3.75031e-05
3.68006e-05
3.63461e-05
3.54552e-05
3.41345e-05
3.22685e-05
2.97559e-05
1.77519e-05
2.95888e-05
3.30862e-05
2.65106e-05
2.5976e-05
2.15916e-05
1.25053e-05
9.1222e-06
7.56072e-06
8.10162e-06
8.47162e-06
8.40856e-06
8.11325e-06
7.61942e-06
6.66556e-06
6.39727e-06
6.15662e-06
6.30978e-06
6.46743e-06
6.69696e-06
6.89202e-06
7.07909e-06
7.24219e-06
7.38939e-06
7.52149e-06
7.63982e-06
7.74314e-06
7.8319e-06
7.91199e-06
7.99043e-06
8.06926e-06
8.14693e-06
8.22249e-06
8.2948e-06
8.36295e-06
8.42405e-06
8.48171e-06
8.53063e-06
8.58739e-06
8.61094e-06
8.68018e-06
8.72506e-06
8.84483e-06
8.98389e-06
9.26012e-06
9.66527e-06
1.01658e-05
1.07496e-05
1.10082e-05
1.13403e-05
1.32754e-05
1.75347e-05
2.40308e-05
3.25246e-05
4.51421e-05
6.5839e-05
8.87696e-05
0.000125091
0.000128472
8.08773e-05
7.97336e-05
0.000115151
7.15221e-05
6.42487e-05
6.22639e-05
5.96186e-05
5.15955e-05
4.77812e-05
4.48461e-05
4.43848e-05
4.42348e-05
4.46588e-05
4.50951e-05
4.55848e-05
4.61653e-05
4.68521e-05
4.75436e-05
4.81155e-05
4.86131e-05
4.87146e-05
4.86793e-05
4.82754e-05
4.80981e-05
4.81766e-05
4.77266e-05
4.49565e-05
3.80706e-05
3.27291e-05
3.14978e-05
3.18705e-05
3.2238e-05
3.19805e-05
3.1031e-05
2.90023e-05
2.64071e-05
2.30098e-05
1.44799e-05
3.50694e-05
4.09217e-05
2.28811e-05
1.69168e-05
1.40388e-05
9.22344e-06
7.65989e-06
6.9429e-06
7.69491e-06
8.08019e-06
7.88185e-06
7.53454e-06
6.56446e-06
5.79606e-06
5.54976e-06
5.45662e-06
5.532e-06
5.60536e-06
5.72134e-06
5.82365e-06
5.93046e-06
6.02923e-06
6.12538e-06
6.21612e-06
6.3013e-06
6.38027e-06
6.45526e-06
6.52926e-06
6.60521e-06
6.68351e-06
6.76496e-06
6.85375e-06
6.94025e-06
7.02315e-06
7.09678e-06
7.16957e-06
7.22763e-06
7.29153e-06
7.32836e-06
7.42214e-06
7.47442e-06
7.62423e-06
7.72939e-06
7.97347e-06
8.29643e-06
8.62999e-06
9.10403e-06
9.30985e-06
9.83052e-06
1.1742e-05
1.58606e-05
2.16445e-05
2.90653e-05
3.84326e-05
5.29508e-05
7.48257e-05
0.00010018
0.000113037
8.31526e-05
7.5133e-05
0.000116235
6.39554e-05
5.43135e-05
5.54058e-05
5.30553e-05
4.85021e-05
4.64618e-05
4.56147e-05
4.51759e-05
4.5542e-05
4.61986e-05
4.69879e-05
4.79596e-05
4.9089e-05
5.02428e-05
5.12965e-05
5.20429e-05
5.25418e-05
5.25718e-05
5.23419e-05
5.18779e-05
5.13374e-05
5.12283e-05
5.0684e-05
4.98381e-05
4.80364e-05
4.25671e-05
3.08883e-05
2.67407e-05
2.67983e-05
2.70711e-05
2.61725e-05
2.39162e-05
2.07766e-05
1.81457e-05
1.24942e-05
5.28735e-05
4.58504e-05
2.63377e-05
1.14267e-05
9.77841e-06
7.48166e-06
6.75442e-06
6.39446e-06
7.3114e-06
7.78847e-06
7.69203e-06
7.28961e-06
6.36179e-06
5.62025e-06
5.38178e-06
5.27805e-06
5.317e-06
5.35158e-06
5.39878e-06
5.43997e-06
5.48169e-06
5.52028e-06
5.5609e-06
5.60502e-06
5.65107e-06
5.69638e-06
5.74275e-06
5.79103e-06
5.84336e-06
5.90033e-06
5.96023e-06
6.02365e-06
6.08813e-06
6.15499e-06
6.21608e-06
6.27406e-06
6.316e-06
6.36932e-06
6.41322e-06
6.49395e-06
6.5794e-06
6.69227e-06
6.86112e-06
6.98193e-06
7.26096e-06
7.38811e-06
7.7776e-06
8.00359e-06
8.55212e-06
1.04398e-05
1.46686e-05
2.03039e-05
2.64735e-05
3.39241e-05
4.4722e-05
6.39572e-05
8.19301e-05
9.81942e-05
9.16648e-05
7.76735e-05
0.000122525
6.29352e-05
5.23219e-05
6.04127e-05
6.03008e-05
5.72841e-05
5.46387e-05
5.33927e-05
5.30349e-05
5.29178e-05
5.31257e-05
5.36324e-05
5.41765e-05
5.47567e-05
5.5341e-05
5.58487e-05
5.61885e-05
5.62132e-05
5.60307e-05
5.54783e-05
5.48451e-05
5.35832e-05
5.30643e-05
5.23293e-05
5.11975e-05
4.96557e-05
4.71044e-05
4.43791e-05
3.51087e-05
2.3256e-05
2.13265e-05
2.07884e-05
2.01982e-05
1.9438e-05
1.98225e-05
1.52201e-05
4.2472e-05
2.95658e-05
2.0365e-05
1.1623e-05
1.08833e-05
1.14832e-05
8.67821e-06
5.83917e-06
6.64818e-06
7.01188e-06
7.13054e-06
6.46052e-06
5.81966e-06
5.26852e-06
5.12324e-06
5.01759e-06
5.04491e-06
5.05925e-06
5.09627e-06
5.12098e-06
5.14665e-06
5.1689e-06
5.18968e-06
5.20616e-06
5.21296e-06
5.2176e-06
5.22619e-06
5.23973e-06
5.26018e-06
5.28477e-06
5.3127e-06
5.3442e-06
5.38026e-06
5.42459e-06
5.47083e-06
5.51807e-06
5.55582e-06
5.59337e-06
5.64237e-06
5.70385e-06
5.80004e-06
5.88375e-06
6.05557e-06
6.13239e-06
6.35383e-06
6.41179e-06
6.72228e-06
6.92932e-06
7.46945e-06
9.03396e-06
1.33519e-05
1.84838e-05
2.35695e-05
3.45032e-05
4.05712e-05
5.34896e-05
7.36647e-05
8.91516e-05
9.52842e-05
8.92998e-05
0.000122873
6.67957e-05
6.85923e-05
6.25809e-05
6.32361e-05
6.23509e-05
6.19323e-05
6.12396e-05
6.05384e-05
6.00802e-05
5.97499e-05
5.95486e-05
5.94215e-05
5.93667e-05
5.93157e-05
5.91544e-05
5.88177e-05
5.81715e-05
5.73883e-05
5.60798e-05
5.47831e-05
5.27477e-05
5.17295e-05
5.08217e-05
4.98953e-05
4.83604e-05
4.62187e-05
4.43953e-05
4.15009e-05
3.68226e-05
2.74126e-05
2.0329e-05
1.71481e-05
1.88852e-05
2.11547e-05
1.69035e-05
4.13187e-05
2.9364e-05
2.02028e-05
1.43481e-05
1.67208e-05
1.88045e-05
1.5857e-05
7.17466e-06
5.1448e-06
5.30352e-06
5.46919e-06
5.01038e-06
4.6908e-06
4.50381e-06
4.51255e-06
4.44045e-06
4.45426e-06
4.45016e-06
4.47204e-06
4.48216e-06
4.49609e-06
4.50606e-06
4.51557e-06
4.52367e-06
4.54119e-06
4.56149e-06
4.58513e-06
4.61426e-06
4.65012e-06
4.68961e-06
4.73261e-06
4.77571e-06
4.81991e-06
4.86733e-06
4.91421e-06
4.96038e-06
5.00286e-06
5.04451e-06
5.10258e-06
5.16002e-06
5.25858e-06
5.32857e-06
5.48761e-06
5.55032e-06
5.74109e-06
5.76852e-06
6.04958e-06
6.21996e-06
6.64464e-06
8.06912e-06
1.19692e-05
1.54636e-05
1.8515e-05
2.79883e-05
3.84938e-05
4.82571e-05
7.07644e-05
8.82186e-05
0.00010282
9.6234e-05
0.000130709
7.79563e-05
7.91364e-05
6.92545e-05
6.77513e-05
6.71038e-05
6.63526e-05
6.564e-05
6.48971e-05
6.39946e-05
6.3053e-05
6.21503e-05
6.13124e-05
6.04089e-05
5.95821e-05
5.87323e-05
5.78567e-05
5.67831e-05
5.55569e-05
5.3917e-05
5.22709e-05
5.01974e-05
4.87349e-05
4.72585e-05
4.59832e-05
4.45549e-05
4.28895e-05
4.12568e-05
3.92192e-05
3.73496e-05
3.46082e-05
3.09882e-05
2.79321e-05
2.54934e-05
2.33098e-05
1.7145e-05
3.79159e-05
3.40501e-05
3.12872e-05
2.41765e-05
2.25326e-05
2.18005e-05
2.06128e-05
1.51472e-05
5.51635e-06
4.16858e-06
4.09967e-06
3.8527e-06
3.71812e-06
3.62881e-06
3.62959e-06
3.58739e-06
3.59409e-06
3.59078e-06
3.60354e-06
3.61159e-06
3.62455e-06
3.63726e-06
3.65217e-06
3.66861e-06
3.68747e-06
3.70716e-06
3.72849e-06
3.75215e-06
3.77872e-06
3.80784e-06
3.84123e-06
3.8752e-06
3.90904e-06
3.94367e-06
3.97716e-06
4.01031e-06
4.04287e-06
4.07341e-06
4.1145e-06
4.15123e-06
4.22896e-06
4.2747e-06
4.39716e-06
4.43533e-06
4.57984e-06
4.58761e-06
4.82256e-06
5.01157e-06
5.43439e-06
6.62114e-06
9.26002e-06
1.11608e-05
1.38227e-05
1.95765e-05
2.749e-05
3.43177e-05
4.80317e-05
5.76827e-05
7.28621e-05
9.05635e-05
0.000144829
0.000114694
0.000101291
8.85277e-05
7.93331e-05
7.29719e-05
6.86424e-05
6.56405e-05
6.34856e-05
6.17997e-05
6.03588e-05
5.90767e-05
5.78924e-05
5.67662e-05
5.56608e-05
5.45258e-05
5.33695e-05
5.20541e-05
5.07012e-05
4.90055e-05
4.73258e-05
4.52802e-05
4.36129e-05
4.1785e-05
4.01939e-05
3.84859e-05
3.68027e-05
3.53388e-05
3.33861e-05
3.15917e-05
3.00107e-05
2.83396e-05
2.65666e-05
2.43497e-05
2.15309e-05
1.60615e-05
1.67435e-05
1.30124e-05
1.11475e-05
1.02319e-05
9.20417e-06
8.72138e-06
8.17485e-06
8.36987e-06
9.11038e-06
1.08232e-05
1.19354e-05
1.276e-05
1.27789e-05
1.26337e-05
1.21158e-05
1.17885e-05
1.14457e-05
1.12358e-05
1.1078e-05
1.09881e-05
1.09407e-05
1.09252e-05
1.09329e-05
1.09585e-05
1.09932e-05
1.10319e-05
1.10713e-05
1.11137e-05
1.11572e-05
1.12017e-05
1.1248e-05
1.1288e-05
1.13422e-05
1.13585e-05
1.14437e-05
1.14159e-05
1.15627e-05
1.14747e-05
1.17144e-05
1.16109e-05
1.19894e-05
1.19589e-05
1.24501e-05
1.25278e-05
1.27591e-05
1.25509e-05
1.16413e-05
1.09247e-05
9.89159e-06
1.10509e-05
1.42317e-05
1.3732e-05
1.79967e-05
2.07378e-05
3.23489e-05
4.26394e-05
5.95e-05
7.60212e-05
8.91409e-05
0.000103011
0.000130794
0.000106034
9.56373e-05
8.70636e-05
8.08603e-05
7.64658e-05
7.28917e-05
6.96115e-05
6.65822e-05
6.35815e-05
6.05458e-05
5.75535e-05
5.46224e-05
5.17739e-05
4.90536e-05
4.65645e-05
4.43029e-05
4.2416e-05
4.0932e-05
3.98957e-05
3.95109e-05
3.95633e-05
3.98634e-05
4.02075e-05
4.03354e-05
4.02762e-05
3.97945e-05
3.90781e-05
3.81551e-05
3.7087e-05
3.56018e-05
3.35358e-05
3.15692e-05
2.64188e-05
1.96733e-05
1.89097e-05
6.04645e-05
4.99191e-05
4.29433e-05
4.11992e-05
3.92283e-05
3.86035e-05
3.81366e-05
3.8861e-05
3.94792e-05
4.24806e-05
4.35516e-05
4.38421e-05
4.27701e-05
4.12093e-05
3.99694e-05
3.94204e-05
3.91783e-05
3.92242e-05
3.93362e-05
3.95726e-05
3.98478e-05
4.00819e-05
4.02667e-05
4.04359e-05
4.05974e-05
4.0747e-05
4.08751e-05
4.09852e-05
4.10886e-05
4.11889e-05
4.12876e-05
4.13708e-05
4.14677e-05
4.15103e-05
4.16303e-05
4.15869e-05
4.17475e-05
4.1554e-05
4.1727e-05
4.13841e-05
4.16462e-05
4.13119e-05
4.18864e-05
4.21771e-05
4.35779e-05
4.46623e-05
4.55592e-05
4.42741e-05
4.46134e-05
4.85045e-05
5.66537e-05
5.90437e-05
7.39321e-05
8.05014e-05
0.000146058
0.000197761
0.000293247
0.000397074
0.000774546
0.000737597
3.09261e-05
3.22205e-05
7.95428e-05
8.45747e-05
9.16867e-05
9.18243e-05
8.86599e-05
8.46903e-05
8.25109e-05
7.97867e-05
7.78632e-05
7.63022e-05
7.43729e-05
7.20029e-05
6.9989e-05
6.74703e-05
6.76061e-05
7.00197e-05
7.35816e-05
8.0881e-05
8.90668e-05
9.50976e-05
9.57251e-05
9.6277e-05
9.43096e-05
9.11966e-05
8.87242e-05
8.24521e-05
7.70673e-05
6.79848e-05
6.00596e-05
5.00609e-05
4.29459e-05
3.52274e-05
3.03897e-05
2.06856e-05
6.20792e-05
5.51619e-05
5.17079e-05
5.01885e-05
4.91441e-05
4.82136e-05
4.61363e-05
4.59308e-05
4.56138e-05
4.617e-05
4.6188e-05
4.5589e-05
4.48727e-05
4.27477e-05
4.14469e-05
4.07574e-05
4.07777e-05
4.11671e-05
4.1667e-05
4.22665e-05
4.28601e-05
4.33275e-05
4.36562e-05
4.38929e-05
4.4075e-05
4.42171e-05
4.43322e-05
4.44325e-05
4.45208e-05
4.45958e-05
4.46538e-05
4.46925e-05
4.47196e-05
4.47224e-05
4.47199e-05
4.46498e-05
4.45977e-05
4.44079e-05
4.42243e-05
4.39074e-05
4.36895e-05
4.35467e-05
4.38283e-05
4.47499e-05
4.65432e-05
4.8853e-05
5.20289e-05
5.38442e-05
5.73258e-05
5.89136e-05
6.3842e-05
6.95175e-05
8.64112e-05
0.000110912
0.000169365
0.000204075
0.000313131
0.000388384
0.000655183
0.000555419
2.84625e-05
9.35537e-05
0.00013554
0.000113724
0.000109357
0.000101487
9.65589e-05
9.40651e-05
9.51537e-05
9.77721e-05
9.80232e-05
9.65312e-05
9.49776e-05
9.45389e-05
9.36465e-05
9.21072e-05
9.29629e-05
9.90038e-05
0.000108211
0.00011371
0.000115951
0.000113697
0.0001088
0.000105048
0.000102864
0.000101808
9.96332e-05
9.68288e-05
9.14129e-05
8.39764e-05
7.43038e-05
6.479e-05
5.38589e-05
3.82757e-05
3.80402e-05
2.27764e-05
7.09255e-05
6.05393e-05
5.51862e-05
5.29565e-05
5.18746e-05
5.098e-05
4.61556e-05
4.39828e-05
4.44763e-05
4.43356e-05
4.50586e-05
4.31778e-05
4.21484e-05
3.97491e-05
3.89099e-05
3.8554e-05
3.90813e-05
3.98161e-05
4.06441e-05
4.147e-05
4.22809e-05
4.2907e-05
4.33417e-05
4.36258e-05
4.38295e-05
4.39755e-05
4.40875e-05
4.41806e-05
4.42618e-05
4.43254e-05
4.43657e-05
4.43872e-05
4.43866e-05
4.43777e-05
4.43267e-05
4.42501e-05
4.40661e-05
4.3914e-05
4.34772e-05
4.32116e-05
4.26305e-05
4.25417e-05
4.24034e-05
4.35291e-05
4.5194e-05
4.90471e-05
5.2551e-05
5.58332e-05
5.86598e-05
6.15595e-05
6.5426e-05
7.23861e-05
8.55524e-05
0.000114428
0.000155925
0.000210046
0.000313759
0.000328329
0.000369667
0.000273982
2.77867e-05
0.000109535
0.000138855
0.000122488
0.000108552
0.000102639
0.000104334
0.00010587
0.000102861
9.95737e-05
9.69819e-05
9.41929e-05
9.25297e-05
9.9336e-05
0.000119453
0.000128734
0.000133687
0.000132698
0.000121046
0.000107039
9.66408e-05
8.90546e-05
8.35661e-05
8.08887e-05
8.05934e-05
8.2482e-05
8.49049e-05
8.56278e-05
8.46813e-05
8.12452e-05
7.52598e-05
6.69037e-05
5.41743e-05
3.98499e-05
3.88175e-05
2.34744e-05
8.11282e-05
6.48298e-05
5.59256e-05
5.17318e-05
4.9135e-05
4.78016e-05
4.37855e-05
3.9658e-05
4.08189e-05
4.06246e-05
4.28127e-05
4.09899e-05
4.00233e-05
3.76618e-05
3.64777e-05
3.56433e-05
3.57943e-05
3.64288e-05
3.73024e-05
3.81062e-05
3.87687e-05
3.92812e-05
3.97129e-05
4.00291e-05
4.02444e-05
4.03927e-05
4.05055e-05
4.05975e-05
4.06942e-05
4.07715e-05
4.08219e-05
4.08547e-05
4.08538e-05
4.08484e-05
4.0758e-05
4.07037e-05
4.04458e-05
4.0347e-05
3.97688e-05
3.95914e-05
3.88796e-05
3.90595e-05
3.85769e-05
4.05922e-05
4.18675e-05
4.65304e-05
5.00277e-05
5.40195e-05
5.61743e-05
6.06183e-05
6.39815e-05
7.42873e-05
8.76487e-05
0.000117545
0.000193932
0.000244296
0.000318797
0.000308467
0.000128351
0.000100556
2.246e-05
0.000112175
0.000150155
0.000127557
0.000123552
0.000114441
0.000109475
0.000104442
0.000100407
0.000100142
0.000104256
0.000117068
0.00012602
0.000135405
0.000138859
0.00013678
0.00012754
0.000117322
0.000106908
9.72884e-05
8.82736e-05
8.10774e-05
7.5848e-05
7.31814e-05
7.31757e-05
7.48139e-05
7.60222e-05
7.51351e-05
7.36503e-05
7.2648e-05
7.09874e-05
6.56812e-05
4.9141e-05
3.89236e-05
3.99193e-05
2.37314e-05
9.19246e-05
6.83821e-05
5.62049e-05
5.03289e-05
4.61624e-05
4.37767e-05
4.00628e-05
3.68766e-05
3.88993e-05
4.00019e-05
4.18292e-05
4.02922e-05
3.90371e-05
3.67168e-05
3.54223e-05
3.3909e-05
3.43298e-05
3.50067e-05
3.60255e-05
3.6842e-05
3.73457e-05
3.77395e-05
3.80548e-05
3.82713e-05
3.84225e-05
3.85343e-05
3.86254e-05
3.87048e-05
3.87548e-05
3.87902e-05
3.88085e-05
3.88084e-05
3.87894e-05
3.87441e-05
3.86963e-05
3.85824e-05
3.8489e-05
3.82432e-05
3.80333e-05
3.75964e-05
3.73539e-05
3.70081e-05
3.69612e-05
3.81582e-05
3.95621e-05
4.29953e-05
4.61488e-05
4.95282e-05
5.29116e-05
5.5784e-05
6.22974e-05
7.43915e-05
9.28951e-05
0.000115312
0.00018984
0.000242155
0.000284478
0.000280718
5.84983e-05
5.70163e-05
3.03256e-05
0.000131842
0.00017851
0.000156874
0.000149317
0.00013349
0.000127671
0.00012585
0.000127346
0.000129811
0.000137214
0.000140779
0.000143748
0.000143572
0.000140369
0.000135068
0.000132197
0.000127699
0.000122728
0.000115795
0.000106785
9.62592e-05
8.56638e-05
7.65664e-05
7.175e-05
6.93976e-05
6.80644e-05
6.92146e-05
6.52255e-05
6.26638e-05
5.76149e-05
5.2839e-05
4.69348e-05
4.16422e-05
4.05369e-05
2.33228e-05
9.10367e-05
6.83567e-05
5.72503e-05
4.72095e-05
4.2497e-05
3.92718e-05
3.68079e-05
3.48099e-05
3.77922e-05
3.92104e-05
4.09408e-05
3.66547e-05
3.62715e-05
3.18422e-05
3.00712e-05
2.80766e-05
2.82274e-05
2.86533e-05
2.97061e-05
3.06386e-05
3.15423e-05
3.22297e-05
3.27451e-05
3.30476e-05
3.32132e-05
3.33022e-05
3.33528e-05
3.33984e-05
3.34591e-05
3.34956e-05
3.35056e-05
3.35011e-05
3.34484e-05
3.33569e-05
3.3142e-05
3.3013e-05
3.25464e-05
3.24881e-05
3.15947e-05
3.16906e-05
3.04021e-05
3.11936e-05
3.018e-05
3.30084e-05
3.4389e-05
3.97959e-05
4.40423e-05
4.57118e-05
4.51485e-05
5.18571e-05
6.10321e-05
7.26387e-05
9.33568e-05
0.000112057
0.000154044
0.000192201
0.000214331
0.000176106
3.07498e-05
3.76005e-05
4.88312e-05
0.000157372
0.00019866
0.000200509
0.00019087
0.000172879
0.000165122
0.000162252
0.000161946
0.000162763
0.000162997
0.00016198
0.000158531
0.000154971
0.000152947
0.000151448
0.00015029
0.000146763
0.000142639
0.000136792
0.00012972
0.000121088
0.000110767
9.93389e-05
8.95058e-05
8.31221e-05
7.85606e-05
7.60159e-05
7.51737e-05
7.43054e-05
7.16684e-05
7.01059e-05
6.90674e-05
6.22888e-05
4.39043e-05
2.41899e-05
8.95166e-05
7.24658e-05
6.41735e-05
4.54614e-05
3.67803e-05
3.30074e-05
3.17357e-05
3.18994e-05
3.30229e-05
3.48724e-05
3.60548e-05
3.30472e-05
3.21178e-05
2.75737e-05
2.56189e-05
2.33356e-05
2.35847e-05
2.38742e-05
2.47436e-05
2.5439e-05
2.60654e-05
2.65539e-05
2.69548e-05
2.71922e-05
2.7321e-05
2.73778e-05
2.73765e-05
2.73098e-05
2.71852e-05
2.70462e-05
2.68973e-05
2.67559e-05
2.65909e-05
2.64235e-05
2.61936e-05
2.60169e-05
2.55756e-05
2.54943e-05
2.475e-05
2.48141e-05
2.38431e-05
2.4209e-05
2.34335e-05
2.50527e-05
2.61228e-05
2.94432e-05
3.34373e-05
3.41215e-05
3.46779e-05
3.95676e-05
5.3497e-05
7.21558e-05
9.48213e-05
0.000109986
0.000141011
0.000172939
0.000199435
0.000152447
3.48916e-05
4.32424e-05
6.35201e-05
0.000179697
0.000220846
0.000224717
0.000217488
0.000209627
0.000197646
0.000191959
0.000185051
0.000179053
0.000174225
0.000169819
0.000165627
0.000163288
0.000161247
0.000158905
0.00015574
0.000152347
0.0001478
0.00014197
0.000136612
0.000131271
0.000123183
0.000112754
0.000102383
9.50091e-05
9.1041e-05
8.5449e-05
8.20676e-05
8.33442e-05
8.16893e-05
8.30132e-05
8.25082e-05
8.48764e-05
7.88902e-05
6.74835e-05
8.61994e-05
9.38052e-05
8.37817e-05
6.20347e-05
3.70839e-05
2.8592e-05
2.80656e-05
2.70289e-05
2.90962e-05
3.20113e-05
3.26646e-05
2.85052e-05
2.67805e-05
2.11523e-05
1.90091e-05
1.72562e-05
1.72194e-05
1.73047e-05
1.77647e-05
1.8136e-05
1.84966e-05
1.86936e-05
1.87369e-05
1.88655e-05
1.89053e-05
1.88757e-05
1.88573e-05
1.88291e-05
1.87579e-05
1.86972e-05
1.86488e-05
1.86103e-05
1.85609e-05
1.84859e-05
1.82952e-05
1.81452e-05
1.78632e-05
1.77816e-05
1.75067e-05
1.74951e-05
1.72493e-05
1.73722e-05
1.69459e-05
1.81042e-05
1.85432e-05
2.11049e-05
2.38782e-05
2.42116e-05
2.36197e-05
2.88685e-05
4.49003e-05
6.6159e-05
8.72918e-05
9.61416e-05
0.000139537
0.000210221
0.000262584
0.00024152
3.76338e-05
4.1725e-05
5.61514e-05
0.000158744
0.000202972
0.000206016
0.000203437
0.00019448
0.000185693
0.000179376
0.000172886
0.000165694
0.000159169
0.000152852
0.000147374
0.000140956
0.000136621
0.000129692
0.000122483
0.000115649
0.000109463
0.000100673
9.48015e-05
9.23032e-05
8.96015e-05
8.44166e-05
7.65845e-05
6.59618e-05
5.73899e-05
5.32719e-05
4.98679e-05
4.77018e-05
4.66143e-05
4.5856e-05
4.12745e-05
3.55482e-05
2.88859e-05
1.92198e-05
7.56668e-05
0.000110545
0.000102284
8.74923e-05
6.09573e-05
3.05651e-05
2.45543e-05
2.32047e-05
2.49682e-05
2.73274e-05
2.75112e-05
2.5471e-05
2.25473e-05
1.84682e-05
1.62277e-05
1.49726e-05
1.48942e-05
1.49357e-05
1.51848e-05
1.53472e-05
1.55104e-05
1.56043e-05
1.56516e-05
1.57324e-05
1.58422e-05
1.59137e-05
1.59282e-05
1.59011e-05
1.58645e-05
1.58504e-05
1.58819e-05
1.58664e-05
1.58372e-05
1.5799e-05
1.56861e-05
1.55261e-05
1.52577e-05
1.52269e-05
1.4873e-05
1.51562e-05
1.48313e-05
1.52902e-05
1.49604e-05
1.53607e-05
1.53444e-05
1.62111e-05
1.74575e-05
1.82752e-05
1.91888e-05
2.44256e-05
3.82147e-05