/*--------------------------------*- C++ -*----------------------------------*\
| =========                 |                                                 |
| \\      /  F ield         | OpenFOAM: The Open Source CFD Toolbox           |
|  \\    /   O peration     | Version:  2.3.0                                 |
|   \\  /    A nd           | Web:      www.OpenFOAM.org                      |
|    \\/     M anipulation  |                                                 |
\*---------------------------------------------------------------------------*/
FoamFile
{
    version     2.0;
    format      ascii;
    class       surfaceScalarField;
    location    "19";
    object      phi;
}
// * * * * * * * * * * * * * * * * * * * * * * * * * * * * * * * * * * * * * //

dimensions      [0 3 -1 0 0 0 0];

internalField   nonuniform List<scalar> 
16448
(
-2.55898e-06
-2.32128e-06
8.7165e-07
-1.08575e-06
-2.44952e-06
9.76289e-07
-5.979e-07
-1.69164e-06
1.20379e-06
-2.2671e-08
-1.64377e-06
1.06853e-06
2.0471e-07
-9.28446e-07
7.01059e-07
3.48978e-07
-7.70625e-07
6.2635e-07
2.48447e-07
-4.1696e-07
5.17484e-07
-2.86501e-08
-3.142e-07
5.91291e-07
-3.86394e-07
-2.85589e-07
6.43328e-07
-6.64653e-07
-2.89125e-07
5.6738e-07
-8.09919e-07
-3.30632e-07
4.75896e-07
-7.72782e-07
-4.13326e-07
3.76187e-07
-6.48387e-07
-4.68955e-07
3.44556e-07
-4.70657e-07
-5.07926e-07
3.30192e-07
-3.33887e-07
-5.05688e-07
3.68915e-07
-2.2139e-07
-5.13833e-07
4.01332e-07
-1.46145e-07
-5.1377e-07
4.38526e-07
-9.13068e-08
-5.17685e-07
4.62846e-07
-5.47416e-08
-5.18417e-07
4.81855e-07
-2.99556e-08
-5.18281e-07
4.93497e-07
-1.37841e-08
-5.1667e-07
5.00504e-07
-3.21829e-09
-5.14054e-07
5.03492e-07
3.81863e-09
-5.10914e-07
5.03885e-07
8.70811e-09
-5.07249e-07
5.02365e-07
1.19165e-08
-5.03103e-07
4.99904e-07
1.37371e-08
-4.98528e-07
4.96716e-07
1.43868e-08
-4.93766e-07
4.93129e-07
1.45915e-08
-4.89394e-07
4.892e-07
1.43579e-08
-4.85012e-07
4.8526e-07
1.32937e-08
-4.80226e-07
4.81304e-07
1.25312e-08
-4.76594e-07
4.77373e-07
8.34455e-09
-4.70236e-07
4.74439e-07
9.35249e-09
-4.69945e-07
4.68957e-07
-2.00808e-09
-4.58064e-07
4.69444e-07
5.14198e-09
-4.65871e-07
4.58743e-07
-1.41555e-08
-4.44789e-07
4.64109e-07
2.24581e-09
-4.63063e-07
4.46688e-07
-2.63251e-08
-4.28968e-07
4.57566e-07
2.71627e-09
-4.59328e-07
4.30317e-07
-2.92833e-08
-4.11566e-07
4.43596e-07
1.79826e-08
-4.52561e-07
4.05329e-07
1.33945e-08
-4.07062e-07
4.11685e-07
9.07851e-08
-4.52204e-07
3.74851e-07
1.64263e-07
-4.49913e-07
3.76475e-07
2.41335e-07
-4.49727e-07
3.72696e-07
2.92461e-07
-4.93448e-07
4.42365e-07
2.3728e-07
-4.47614e-07
5.02841e-07
4.10603e-08
-4.24001e-07
6.20269e-07
-1.42064e-07
-4.75293e-07
6.58468e-07
-4.67057e-07
-3.67135e-07
6.92181e-07
-3.9545e-07
-7.77844e-07
7.06293e-07
-6.19005e-07
-3.53713e-07
5.77324e-07
-2.08671e-07
-1.27675e-06
8.6647e-07
-9.59416e-07
-5.30126e-07
1.28093e-06
-4.05096e-07
-2.50627e-06
1.95201e-06
-2.23768e-06
-2.62364e-06
4.45628e-06
-1.99725e-06
1.8687e-06
-2.10909e-06
-4.76498e-06
4.72391e-06
-1.95611e-06
-6.56276e-06
2.96538e-06
-1.1675e-06
-2.66117e-07
-1.83274e-05
1.2031e-05
1.7125e-05
-2.30418e-05
5.6508e-06
2.2113e-05
-7.19222e-06
2.20423e-06
1.94352e-05
4.23923e-06
-1.56146e-06
2.13398e-05
2.67548e-07
-2.17215e-06
2.24301e-05
1.35159e-06
-2.44186e-06
2.32961e-05
2.26378e-06
-3.12978e-06
2.41659e-05
2.54e-06
-3.40987e-06
2.46515e-05
2.72639e-06
-3.21195e-06
2.45482e-05
2.90983e-06
-2.80658e-06
2.39532e-05
2.96661e-06
-2.37161e-06
2.30254e-05
2.86452e-06
-1.93671e-06
2.18724e-05
2.62712e-06
-1.47411e-06
2.06659e-05
2.24924e-06
-1.04277e-06
1.95104e-05
1.82401e-06
-6.68448e-07
1.84575e-05
1.39054e-06
-3.37678e-07
1.74812e-05
1.00928e-06
-3.2953e-08
1.67632e-05
4.48288e-07
2.69674e-07
1.64431e-05
-2.42592e-07
5.6267e-07
1.64707e-05
-8.63575e-07
8.36018e-07
1.67252e-05
-1.30047e-06
1.04598e-06
1.72099e-05
-1.67946e-06
1.19475e-06
1.78687e-05
-1.9181e-06
1.25923e-06
1.85891e-05
-2.00427e-06
1.2839e-06
1.9295e-05
-1.96179e-06
1.25586e-06
1.98219e-05
-1.73321e-06
1.2063e-06
2.0132e-05
-1.52548e-06
1.21547e-06
2.00671e-05
-1.02899e-06
1.09386e-06
1.95616e-05
-5.2715e-07
1.03266e-06
1.86772e-05
-2.61043e-08
9.10505e-07
1.67319e-05
1.25308e-06
6.92168e-07
1.40569e-05
1.90925e-06
7.65785e-07
9.98863e-06
3.41479e-06
6.53489e-07
3.83467e-06
4.02437e-06
2.1296e-06
-1.31776e-06
2.92516e-06
2.22726e-06
-3.02595e-06
2.50223e-06
-7.94043e-07
2.09843e-06
-5.12438e-06
-4.01348e-06
-3.30544e-06
2.79672e-07
-3.1738e-06
-3.54731e-06
2.58101e-07
-2.57532e-06
-2.77672e-06
4.86607e-07
-1.63295e-06
-2.64171e-06
5.5574e-08
-9.55771e-07
-1.61188e-06
6.25036e-09
-3.32051e-07
-1.42186e-06
2.75041e-08
-2.00838e-07
-5.99018e-07
5.08376e-08
-4.52681e-07
-2.91053e-07
2.28689e-07
-7.96368e-07
-1.89322e-07
2.47417e-07
-1.02293e-06
-2.17229e-07
1.54663e-07
-1.10246e-06
-3.25278e-07
7.41734e-08
-9.89916e-07
-5.08951e-07
-1.69197e-08
-8.29147e-07
-5.85853e-07
-4.38733e-08
-6.37824e-07
-6.34068e-07
-6.51845e-08
-4.83295e-07
-6.22825e-07
-3.73949e-08
-3.49352e-07
-6.28899e-07
-1.88741e-08
-2.56672e-07
-6.14929e-07
8.48229e-09
-1.85213e-07
-6.09775e-07
2.06392e-08
-1.3612e-07
-5.9976e-07
3.22575e-08
-1.01859e-07
-5.9122e-07
3.86866e-08
-7.86638e-08
-5.81991e-07
4.21369e-08
-6.28525e-08
-5.72755e-07
4.29025e-08
-5.21407e-08
-5.63672e-07
4.20602e-08
-4.47525e-08
-5.5468e-07
4.00591e-08
-4.00308e-08
-5.45388e-07
3.75801e-08
-3.72148e-08
-5.35917e-07
3.45921e-08
-3.56421e-08
-5.26721e-07
3.14021e-08
-3.50394e-08
-5.18218e-07
2.82439e-08
-3.5356e-08
-5.09765e-07
2.5094e-08
-3.61737e-08
-5.01403e-07
2.20216e-08
-3.69028e-08
-4.94544e-07
1.87077e-08
-4.00107e-08
-4.83666e-07
1.65689e-08
-4.08753e-08
-4.81173e-07
1.21248e-08
-4.9191e-08
-4.62427e-07
1.27145e-08
-4.65772e-08
-4.72877e-07
4.43055e-09
-6.1431e-08
-4.38708e-07
8.81374e-09
-4.97277e-08
-4.67232e-07
-7.49081e-09
-7.27904e-08
-4.10487e-07
4.62782e-09
-4.38827e-08
-4.63763e-07
-2.4424e-08
-7.12159e-08
-3.78983e-07
-5.19688e-09
-2.66954e-09
-4.7266e-07
-4.83915e-08
-2.33651e-08
-3.58845e-07
-2.7462e-08
8.46695e-08
-4.99957e-07
-6.02191e-08
1.2057e-07
-4.26836e-07
-5.89119e-08
2.35443e-07
-5.30127e-07
-3.44028e-08
2.51467e-07
-5.03366e-07
-6.03358e-09
2.40426e-07
-5.1154e-07
7.5043e-08
7.36564e-08
-3.5622e-07
9.90695e-08
-1.0523e-07
-4.57985e-07
1.61663e-07
-3.9144e-07
-2.55944e-07
1.75108e-07
-7.75152e-07
-6.65817e-07
2.71777e-07
-3.45437e-07
-6.6282e-07
-1.20515e-07
-1.93618e-07
-1.70629e-06
2.7782e-07
-1.59435e-06
2.09545e-07
6.61148e-07
1.14101e-07
-3.80175e-06
-4.12881e-07
2.15104e-06
-6.41113e-06
1.75063e-06
-4.30883e-06
1.00184e-05
-1.68974e-06
-1.13823e-05
1.2653e-05
-8.55603e-07
-7.6765e-06
5.93027e-06
-6.67055e-06
-3.93882e-07
-3.11069e-05
5.49702e-06
1.91676e-06
-3.26736e-05
7.32128e-06
2.22411e-06
-7.62563e-06
1.26069e-07
1.29369e-05
5.16877e-07
-6.99049e-06
1.48267e-05
3.10309e-06
-4.72533e-06
1.60106e-05
4.96805e-06
-4.8003e-06
1.84644e-05
4.89905e-06
-5.08906e-06
2.0556e-05
5.07003e-06
-4.62171e-06
2.17012e-05
5.36673e-06
-3.78547e-06
2.20821e-05
5.47465e-06
-2.94578e-06
2.19322e-05
5.42638e-06
-2.30984e-06
2.13573e-05
5.25622e-06
-1.81681e-06
2.03201e-05
4.93799e-06
-1.27372e-06
1.90624e-05
4.13117e-06
-6.24144e-07
1.81057e-05
2.66096e-06
1.19747e-07
1.71734e-05
1.58312e-06
7.39705e-07
1.616e-05
8.96295e-07
1.12635e-06
1.49748e-05
3.04089e-07
1.32941e-06
1.37793e-05
-6.65315e-07
1.61823e-06
1.27848e-05
-1.69557e-06
1.82651e-06
1.21019e-05
-2.49854e-06
1.88094e-06
1.18558e-05
-3.18936e-06
1.75598e-06
1.21331e-05
-3.69186e-06
1.49645e-06
1.27564e-05
-3.88214e-06
1.25463e-06
1.35816e-05
-3.77878e-06
9.9171e-07
1.42902e-05
-3.3656e-06
9.23803e-07
1.47243e-05
-2.85332e-06
8.93796e-07
1.50177e-05
-2.08926e-06
7.66842e-07
1.48911e-05
-1.17808e-06
7.77533e-07
1.4513e-05
-7.10736e-08
4.23027e-07
1.38653e-05
1.69583e-06
2.04934e-07
1.21429e-05
3.52661e-06
1.05114e-07
9.55578e-06
5.88593e-06
1.15946e-07
4.62201e-06
7.38344e-06
1.5747e-06
-5.11722e-07
6.24057e-06
1.81832e-06
-2.42582e-06
5.25499e-06
-8.3866e-07
5.09976e-06
-5.42715e-06
-4.29699e-06
-3.57032e-06
1.6595e-07
-3.7039e-06
-4.01319e-06
-1.27215e-07
-3.34411e-06
-3.2919e-06
1.55392e-07
-2.65363e-06
-3.18206e-06
-1.50136e-07
-1.87663e-06
-2.24901e-06
-1.39879e-07
-9.844e-07
-2.12502e-06
-1.89078e-07
-6.31367e-07
-7.92049e-07
-1.60011e-07
-6.65752e-07
-2.87917e-07
3.1241e-08
-8.89853e-07
-8.89727e-09
4.36724e-08
-1.01287e-06
-7.224e-08
-2.19766e-08
-1.03579e-06
-2.11202e-07
-9.11557e-08
-9.27271e-07
-4.37504e-07
-1.7997e-07
-8.11543e-07
-4.90521e-07
-2.11063e-07
-6.81377e-07
-5.25286e-07
-2.38951e-07
-5.62668e-07
-4.97067e-07
-2.44467e-07
-4.44133e-07
-4.962e-07
-2.51233e-07
-3.54193e-07
-4.65004e-07
-2.3986e-07
-2.80882e-07
-4.49418e-07
-2.33663e-07
-2.28191e-07
-4.2568e-07
-2.26763e-07
-1.89868e-07
-4.06496e-07
-2.23038e-07
-1.63262e-07
-3.87629e-07
-2.20957e-07
-1.44693e-07
-3.70546e-07
-2.20767e-07
-1.32006e-07
-3.54752e-07
-2.21593e-07
-1.23253e-07
-3.40278e-07
-2.23141e-07
-1.17277e-07
-3.26339e-07
-2.25007e-07
-1.1312e-07
-3.12937e-07
-2.2712e-07
-1.10402e-07
-3.00182e-07
-2.29235e-07
-1.09234e-07
-2.88108e-07
-2.31258e-07
-1.09469e-07
-2.76075e-07
-2.33431e-07
-1.10221e-07
-2.64781e-07
-2.35846e-07
-1.12093e-07
-2.54478e-07
-2.38165e-07
-1.14118e-07
-2.41649e-07
-2.39963e-07
-1.17745e-07
-2.35102e-07
-2.42411e-07
-1.21353e-07
-2.15579e-07
-2.43206e-07
-1.22867e-07
-2.22047e-07
-2.49279e-07
-1.28767e-07
-1.85755e-07
-2.47014e-07
-1.22048e-07
-2.169e-07
-2.57009e-07
-1.3179e-07
-1.50643e-07
-2.50057e-07
-1.088e-07
-2.19925e-07
-2.66779e-07
-1.24942e-07
-1.11628e-07
-2.51163e-07
-6.98619e-08
-2.47217e-07
-2.80469e-07
-1.02143e-07
-8.12085e-08
-2.45299e-07
-1.50921e-09
-3.112e-07
-2.8933e-07
-1.01858e-07
-1.09147e-07
-2.17277e-07
3.06482e-08
-4.0126e-07
-2.61307e-07
-1.50999e-07
-1.54603e-07
-1.67045e-07
-4.98253e-08
-4.18755e-07
-1.93884e-07
-1.86865e-07
-7.69751e-08
-1.42128e-07
-2.18458e-07
-3.05946e-07
-1.20364e-07
-2.29878e-07
-7.652e-08
-1.67919e-07
-4.86096e-07
-4.35522e-07
2.60103e-08
-6.21617e-07
-3.49174e-07
-1.78035e-07
-8.16983e-08
-1.99144e-06
-2.5468e-07
1.87791e-06
-5.60282e-07
-1.1897e-06
3.16755e-06
-4.58208e-06
-5.09238e-07
1.58312e-06
-5.94959e-06
1.12297e-06
4.12854e-06
1.10704e-05
-3.59734e-06
1.22398e-06
1.75743e-05
-2.01663e-06
-5.19788e-06
1.54978e-05
-3.1456e-06
-1.69409e-06
-3.83291e-05
3.71831e-06
-4.33874e-06
-3.78432e-05
7.81446e-06
-1.45205e-06
-1.08493e-05
3.36991e-07
1.15273e-05
-8.9411e-06
-3.52141e-06
1.22379e-05
5.02461e-06
-2.63212e-06
1.35755e-05
6.49479e-06
-2.86434e-06
1.59258e-05
6.03069e-06
-3.4819e-06
1.74218e-05
6.77793e-06
-3.20391e-06
1.79675e-05
7.31818e-06
-2.49718e-06
1.78961e-05
7.11371e-06
-1.56763e-06
1.75487e-05
6.44747e-06
-6.73703e-07
1.69768e-05
5.71851e-06
1.09684e-07
1.60226e-05
4.96726e-06
9.24939e-07
1.4801e-05
3.72428e-06
1.62845e-06
1.28738e-05
2.0914e-06
2.49673e-06
1.00853e-05
1.33561e-06
3.036e-06
6.50436e-06
1.07218e-06
3.40508e-06
2.81527e-06
3.8287e-07
3.61031e-06
-2.03647e-07
-7.81443e-07
3.13504e-06
-1.69489e-06
-2.29477e-06
2.09044e-06
-1.64051e-06
-3.67679e-06
1.12387e-06
-4.34567e-07
-4.71328e-06
3.17969e-07
1.37455e-06
-5.21262e-06
-2.88355e-07
3.34689e-06
-5.23273e-06
-6.21747e-07
5.03763e-06
-4.8162e-06
-6.53309e-07
6.22166e-06
-4.11972e-06
-4.29917e-07
6.95159e-06
-3.38249e-06
-2.00762e-07
7.37383e-06
-2.45254e-06
-5.89637e-08
7.55297e-06
-1.29422e-06
-6.2998e-08
7.65479e-06
2.4611e-07
-4.19002e-07
7.70199e-06
2.25219e-06
-6.0356e-07
7.26138e-06
4.68149e-06
-7.1427e-07
5.90332e-06
7.64402e-06
-4.00026e-07
2.41245e-06
9.66302e-06
1.21128e-06
-1.16371e-06
8.55817e-06
1.25857e-06
-2.3905e-06
7.54131e-06
-1.05953e-06
7.99979e-06
-5.29052e-06
-4.2191e-06
-3.61675e-06
3.67338e-07
-3.60885e-06
-4.19772e-06
-4.25717e-07
-3.48728e-06
-3.58322e-06
1.69752e-07
-2.86408e-06
-3.6912e-06
-1.14055e-07
-2.19564e-06
-2.89178e-06
-2.56871e-08
-1.27331e-06
-2.90353e-06
-1.43833e-07
-7.843e-07
-1.22745e-06
-5.36203e-08
-5.78677e-07
-5.50693e-07
5.71462e-08
-6.90012e-07
4.70298e-08
5.54019e-08
-7.84238e-07
1.60192e-08
5.96501e-09
-7.81458e-07
-1.12942e-07
-1.01044e-07
-7.27059e-07
-2.99916e-07
-1.91988e-07
-6.91503e-07
-2.95656e-07
-2.30425e-07
-6.36796e-07
-3.10597e-07
-2.69396e-07
-5.67413e-07
-2.73662e-07
-2.9279e-07
-4.7606e-07
-2.68536e-07
-3.19011e-07
-3.95552e-07
-2.23526e-07
-3.21985e-07
-3.20241e-07
-1.98296e-07
-3.26425e-07
-2.62623e-07
-1.61103e-07
-3.22189e-07
-2.18337e-07
-1.31074e-07
-3.19697e-07
-1.87293e-07
-1.01393e-07
-3.17271e-07
-1.6588e-07
-7.5118e-08
-3.16827e-07
-1.51684e-07
-5.18452e-08
-3.17091e-07
-1.4259e-07
-3.15724e-08
-3.17781e-07
-1.37491e-07
-1.24658e-08
-3.18957e-07
-1.35251e-07
5.0676e-09
-3.20223e-07
-1.33677e-07
1.93932e-08
-3.2113e-07
-1.33231e-07
3.32676e-08
-3.21796e-07
-1.34015e-07
4.70777e-08
-3.22347e-07
-1.35716e-07
6.00522e-08
-3.23103e-07
-1.38536e-07
7.24255e-08
-3.24057e-07
-1.41064e-07
8.55719e-08
-3.2466e-07
-1.44845e-07
9.50087e-08
-3.26299e-07
-1.47353e-07
1.13047e-07
-3.26081e-07
-1.48703e-07
1.10275e-07
-3.30935e-07
-1.52119e-07
1.44945e-07
-3.27242e-07
-1.45404e-07
1.14372e-07
-3.37945e-07
-1.51515e-07
1.83439e-07
-3.27924e-07
-1.30509e-07
1.05097e-07
-3.45981e-07
-1.46833e-07
2.28954e-07
-3.24205e-07
-1.13451e-07
6.91709e-08
-3.49717e-07
-1.59908e-07
2.73729e-07
-3.08422e-07
-1.48628e-07
8.98819e-09
-3.31409e-07
-2.54773e-07
2.74176e-07
-2.77113e-07
-3.02225e-07
-6.80665e-08
-2.85675e-07
-4.29323e-07
2.36519e-07
-2.63952e-07
-4.43357e-07
-1.5413e-07
-2.50518e-07
-4.69636e-07
2.28295e-07
-2.78912e-07
-2.5313e-07
-2.71348e-07
-2.51024e-07
-8.02037e-08
8.62064e-08
-3.35567e-07
-2.19701e-07
-3.12778e-07
1.68402e-08
-6.01284e-07
2.37005e-07
-2.04506e-07
-9.8066e-07
-1.71175e-06
9.97705e-08
1.68899e-06
-2.54539e-06
-6.84448e-07
-2.59362e-06
-1.91274e-06
1.61335e-06
-9.49915e-06
-1.56996e-06
2.52598e-06
3.86838e-06
1.83667e-06
-4.13377e-06
6.89364e-06
2.11904e-05
-6.6413e-06
6.74597e-06
1.72407e-05
-1.5952e-06
2.60487e-06
-3.80103e-05
3.82233e-06
-2.2506e-06
-4.23745e-05
9.38669e-06
-5.17701e-06
-9.6151e-06
1.69219e-06
-2.24643e-06
-1.15074e-05
-3.64241e-07
-3.73036e-07
5.90041e-06
-2.74919e-06
7.86055e-06
3.19132e-06
-4.93011e-06
1.07109e-05
6.96497e-06
-3.78461e-06
1.23318e-05
7.03923e-06
-1.88217e-06
1.32672e-05
6.89509e-06
-5.1238e-07
1.32969e-05
6.31079e-06
7.7326e-07
1.24107e-05
5.40311e-06
1.93054e-06
1.03978e-05
4.86393e-06
2.86746e-06
6.47151e-06
5.01841e-06
3.87515e-06
-2.80913e-07
5.16319e-06
5.31351e-06
-7.65094e-06
3.95832e-06
5.50312e-06
-1.23952e-05
2.43666e-06
3.64324e-06
-1.459e-05
1.03001e-06
2.23694e-06
-1.49289e-05
-5.01955e-07
1.22375e-06
-1.38851e-05
-2.03341e-06
2.08151e-07
-1.20915e-05
-3.40248e-06
-6.85925e-07
-9.92918e-06
-4.40131e-06
-1.43777e-06
-7.58103e-06
-5.08147e-06
-1.97995e-06
-5.11139e-06
-5.43995e-06
-2.24231e-06
-2.74408e-06
-5.41525e-06
-2.18479e-06
-8.08039e-07
-4.93601e-06
-1.81623e-06
4.48265e-07
-4.15349e-06
-1.22253e-06
1.06766e-06
-3.24777e-06
-7.54107e-07
1.4252e-06
-2.21704e-06
-5.93038e-07
1.84132e-06
-9.98617e-07
-7.11721e-07
2.3209e-06
7.33353e-07
-9.66824e-07
2.69461e-06
3.11265e-06
-1.23418e-06
2.98831e-06
5.96856e-06
-1.58076e-06
2.28482e-06
9.15951e-06
-8.11991e-07
-5.15934e-07
1.09823e-05
1.4815e-06
-2.57384e-06
9.69228e-06
9.23794e-07
-2.83506e-06
9.08641e-06
-1.28388e-06
1.04093e-05
-5.24461e-06
-4.18573e-06
-3.57951e-06
5.88285e-07
-3.42507e-06
-4.30892e-06
-6.49465e-07
-3.32553e-06
-3.80743e-06
1.24662e-07
-2.68971e-06
-4.13353e-06
-1.93508e-07
-2.20127e-06
-3.39206e-06
1.18204e-08
-1.48996e-06
-3.45003e-06
-1.64821e-07
-1.08659e-06
-1.69858e-06
6.77536e-08
-6.36257e-07
-1.07885e-06
7.78178e-08
-4.98691e-07
-1.1753e-07
2.69902e-08
-4.68578e-07
-2.39903e-08
9.89032e-09
-4.35665e-07
-4.74992e-08
-9.83574e-08
-4.54546e-07
-1.26383e-07
-1.54658e-07
-4.97203e-07
-6.43693e-08
-1.88628e-07
-5.19703e-07
-6.58832e-08
-2.22218e-07
-5.00193e-07
-3.67576e-08
-2.56411e-07
-4.50576e-07
-2.7681e-08
-2.90473e-07
-3.93805e-07
2.69092e-08
-3.07199e-07
-3.31421e-07
6.24772e-08
-3.23155e-07
-2.7997e-07
1.13601e-07
-3.26145e-07
-2.36697e-07
1.53149e-07
-3.2749e-07
-2.0518e-07
1.92584e-07
-3.25481e-07
-1.83417e-07
2.25814e-07
-3.22686e-07
-1.69105e-07
2.53704e-07
-3.19845e-07
-1.5979e-07
2.76897e-07
-3.17772e-07
-1.54194e-07
2.97391e-07
-3.15432e-07
-1.50658e-07
3.14707e-07
-3.13161e-07
-1.4871e-07
3.29012e-07
-3.11543e-07
-1.47509e-07
3.42223e-07
-3.10137e-07
-1.47537e-07
3.55375e-07
-3.08241e-07
-1.48875e-07
3.67446e-07
-3.06033e-07
-1.51677e-07
3.78881e-07
-3.03622e-07
-1.54573e-07
3.89956e-07
-3.01462e-07
-1.5851e-07
3.98895e-07
-2.99914e-07
-1.61021e-07
4.12637e-07
-2.97048e-07
-1.61784e-07
4.08873e-07
-2.97796e-07
-1.64396e-07
4.38756e-07
-2.91163e-07
-1.58312e-07
4.05559e-07
-2.97227e-07
-1.65305e-07
4.73003e-07
-2.8253e-07
-1.49682e-07
3.84074e-07
-2.94552e-07
-1.69503e-07
5.15345e-07
-2.66522e-07
-1.57941e-07
3.38442e-07
-2.8078e-07
-2.05348e-07
5.60941e-07
-2.39754e-07
-2.56503e-07
2.99461e-07
-2.3926e-07
-3.3715e-07
5.75223e-07
-2.20342e-07
-5.12099e-07
2.94651e-07
-1.87705e-07
-5.83283e-07
5.5954e-07
-2.51775e-07
-7.16018e-07
1.82744e-07
-2.04069e-07
-6.94267e-07
5.28534e-07
-3.21921e-07
-3.17551e-07
-3.15919e-07
-3.32071e-07
6.17422e-09
2.00689e-07
-4.38133e-07
-4.76657e-07
4.56795e-08
1.24454e-07
-5.60051e-07
5.58201e-07
-2.37723e-07
-2.22431e-06
-4.55379e-07
4.0797e-07
-2.67371e-06
-2.68785e-06
5.91938e-07
-2.13574e-06
-1.62071e-06
-8.29925e-07
-5.6244e-06
2.26736e-06
-3.48593e-07
5.89866e-06
-6.00618e-06
-3.68014e-06
1.26736e-05
2.4399e-05
-9.98352e-06
1.88111e-05
2.11589e-06
8.98712e-06
9.97225e-07
-2.56541e-05
5.45788e-06
-9.65363e-06
-4.14595e-05
9.73588e-06
-1.15869e-05
-1.0624e-05
2.94214e-06
-1.24474e-05
-1.14956e-05
8.48693e-07
-5.63095e-06
1.0095e-06
-1.92556e-06
6.92635e-07
-9.98508e-08
-3.03241e-06
3.96806e-06
4.62983e-06
-9.4028e-07
5.21242e-06
4.62165e-06
1.17322e-06
4.29512e-06
5.20651e-06
2.60588e-06
8.28039e-07
5.89427e-06
3.88361e-06
-5.64202e-06
6.92662e-06
4.94656e-06
-1.32201e-05
7.28409e-06
5.15791e-06
-1.97302e-05
6.93001e-06
4.59853e-06
-2.39351e-05
5.66865e-06
3.69943e-06
-2.62328e-05
3.75566e-06
2.50033e-06
-2.71953e-05
2.14821e-06
1.25099e-06
-2.71819e-05
7.37195e-07
2.79452e-07
-2.63493e-05
-7.17796e-07
-6.16816e-07
-2.49763e-05
-2.08407e-06
-1.3223e-06
-2.3183e-05
-3.42108e-06
-1.77471e-06
-2.09354e-05
-4.63108e-06
-2.01781e-06
-1.83494e-05
-5.53025e-06
-2.13719e-06
-1.55774e-05
-6.09778e-06
-2.11421e-06
-1.26634e-05
-6.34429e-06
-1.98497e-06
-9.86109e-06
-6.04202e-06
-1.69626e-06
-7.58724e-06
-5.15435e-06
-1.27299e-06
-6.01504e-06
-3.82323e-06
-9.96746e-07
-5.08032e-06
-2.15445e-06
-9.97303e-07
-4.58972e-06
-2.52403e-07
-1.23681e-06
-3.97565e-06
1.60864e-06
-1.48935e-06
-3.25231e-06
4.01043e-06
-1.62111e-06
-3.11594e-06
7.12055e-06
-1.28836e-06
-3.62261e-06
9.49161e-06
1.74576e-07
-4.27622e-06
1.00771e-05
1.55874e-06
-4.05189e-06
9.2186e-06
2.49354e-07
-3.26164e-06
1.02192e-05
-1.92309e-06
1.24402e-05
-5.29251e-06
-4.43358e-06
-3.18338e-06
5.61993e-07
-3.57378e-06
-4.30024e-06
-8.68487e-07
-3.41257e-06
-3.94018e-06
-2.84686e-08
-2.47332e-06
-4.49607e-06
-5.7671e-07
-1.94983e-06
-3.75732e-06
-1.58249e-07
-1.29279e-06
-3.76057e-06
-3.4651e-07
-1.06232e-06
-1.97753e-06
4.8461e-08
-6.58696e-07
-1.52623e-06
4.37508e-08
-3.94974e-07
-3.40762e-07
-4.04983e-08
-1.86254e-07
-1.76136e-07
-5.65762e-08
-4.77701e-08
-3.74936e-08
-1.48498e-07
-1.22613e-07
8.31784e-08
-1.34719e-07
-2.46137e-07
2.3882e-07
-1.79672e-07
-3.52277e-07
2.49527e-07
-2.09269e-07
-3.82548e-07
2.57375e-07
-2.63866e-07
-3.76409e-07
2.60862e-07
-2.94679e-07
-3.52882e-07
3.23837e-07
-3.20456e-07
-3.16601e-07
3.64946e-07
-3.38742e-07
-2.83134e-07
4.25007e-07
-3.44872e-07
-2.51349e-07
4.69157e-07
-3.47782e-07
-2.27679e-07
5.14063e-07
-3.45145e-07
-2.1074e-07
5.50145e-07
-3.41257e-07
-2.00559e-07
5.80276e-07
-3.36746e-07
-1.95768e-07
6.04335e-07
-3.32212e-07
-1.95457e-07
6.24338e-07
-3.27249e-07
-1.97988e-07
6.40021e-07
-3.22763e-07
-2.01082e-07
6.50956e-07
-3.18837e-07
-2.03594e-07
6.59532e-07
-3.14774e-07
-2.05938e-07
6.67593e-07
-3.09858e-07
-2.08308e-07
6.74493e-07
-3.0465e-07
-2.1102e-07
6.80807e-07
-2.99194e-07
-2.13212e-07
6.86193e-07
-2.94015e-07
-2.16475e-07
6.90973e-07
-2.88791e-07
-2.17277e-07
6.96861e-07
-2.83388e-07
-2.19844e-07
6.91994e-07
-2.80527e-07
-2.20812e-07
7.10638e-07
-2.70877e-07
-2.21952e-07
6.79782e-07
-2.73053e-07
-2.26468e-07
7.31262e-07
-2.53704e-07
-2.29344e-07
6.49776e-07
-2.62792e-07
-2.4396e-07
7.60805e-07
-2.30801e-07
-2.7338e-07
6.07542e-07
-2.39642e-07
-3.00052e-07
7.96712e-07
-2.09053e-07
-4.1712e-07
6.06956e-07
-1.90385e-07
-4.51299e-07
8.18136e-07
-2.08684e-07
-6.86185e-07
6.71611e-07
-1.42029e-07
-7.02866e-07
8.29315e-07
-2.53044e-07
-8.65032e-07
5.46823e-07
-2.01866e-07
-7.86732e-07
7.85846e-07
-3.35559e-07
-5.83373e-07
-1.76084e-07
-3.43142e-07
-3.62331e-07
3.97281e-07
-4.17577e-07
-8.36298e-07
5.30329e-07
-1.06267e-08
-7.81939e-07
6.0968e-07
-1.05777e-07
-2.94254e-07
-3.58725e-07
-5.84283e-07
-7.08428e-07
-2.30076e-06
2.71428e-08
1.63618e-06
-2.71485e-06
-1.25041e-06
4.68409e-06
3.59677e-06
-4.37727e-06
1.02331e-05
-5.23298e-06
-6.32217e-06
2.31802e-05
2.21049e-05
-1.0653e-05
1.70415e-05
-1.01846e-05
1.84389e-05
9.07806e-08
-1.47424e-05
6.03908e-06
-1.77339e-05
-3.58997e-05
1.22651e-05
-2.20734e-05
-1.03104e-05
4.02611e-06
-2.63456e-05
-8.65335e-06
1.43017e-06
-2.18315e-05
-1.98481e-06
-1.51965e-06
-2.03425e-05
8.88804e-08
-1.67757e-06
-1.96707e-05
2.96232e-06
9.95772e-07
-2.20478e-05
4.46272e-06
2.53623e-06
-2.63732e-05
6.22984e-06
3.30225e-06
-3.10254e-05
6.90726e-06
3.6394e-06
-3.50844e-05
7.42353e-06
3.5623e-06
-3.8697e-05
7.65213e-06
3.24482e-06
-4.11953e-05
6.92398e-06
2.50464e-06
-4.30501e-05
5.80998e-06
1.71368e-06
-4.42324e-05
4.17719e-06
7.61084e-07
-4.48461e-05
2.75658e-06
5.66411e-09
-4.48949e-05
1.3471e-06
-5.60758e-07
-4.44451e-05
-3.00576e-07
-8.66632e-07
-4.3346e-05
-2.12906e-06
-1.0538e-06
-4.1704e-05
-3.9322e-06
-1.13053e-06
-3.94763e-05
-5.62787e-06
-1.23076e-06
-3.65553e-05
-7.06784e-06
-1.38322e-06
-3.29894e-05
-8.07325e-06
-1.59028e-06
-2.90309e-05
-8.46998e-06
-1.83279e-06
-2.49477e-05
-8.26545e-06
-1.85971e-06
-2.08683e-05
-7.52964e-06
-1.70412e-06
-1.70683e-05
-6.17902e-06
-1.44416e-06
-1.42915e-05
-3.80378e-06
-1.12747e-06
-1.23116e-05
-1.38126e-06
-8.51021e-07
-1.10674e-05
9.49157e-07
-5.84798e-07
-1.01868e-05
3.33813e-06
-2.08253e-07
-9.06239e-06
5.56495e-06
4.31183e-07
-7.65771e-06
6.99868e-06
1.08825e-06
-5.95053e-06
7.33623e-06
1.03374e-06
-4.70009e-06
8.31803e-06
-3.49864e-07
-3.29114e-06
1.10776e-05
-2.26733e-06
1.41872e-05
-5.03816e-06
-5.03137e-06
-2.51411e-06
6.49047e-07
-3.96312e-06
-3.9518e-06
-1.41669e-06
-3.79772e-06
-3.581e-06
-5.24592e-07
-2.44636e-06
-4.41648e-06
-1.43098e-06
-1.56664e-06
-3.80074e-06
-8.36322e-07
-7.66422e-07
-3.61891e-06
-9.4189e-07
-5.83033e-07
-1.86213e-06
-2.98797e-07
-3.97974e-07
-1.54539e-06
-1.65908e-07
-2.68457e-07
-2.92638e-07
-1.77646e-07
-7.98814e-08
-2.08338e-07
-1.56384e-07
1.33195e-07
4.97511e-09
-2.55548e-07
4.50472e-08
2.74393e-07
-1.03077e-07
-7.8346e-08
5.1576e-07
-1.53549e-07
-2.0262e-07
5.48356e-07
-1.74563e-07
-2.49643e-07
5.70309e-07
-2.65911e-07
-2.76886e-07
5.86176e-07
-2.98077e-07
-2.97087e-07
6.7319e-07
-3.2915e-07
-3.02465e-07
7.13574e-07
-3.43254e-07
-3.01635e-07
7.77339e-07
-3.53157e-07
-2.93326e-07
8.19316e-07
-3.5847e-07
-2.86789e-07
8.64775e-07
-3.57241e-07
-2.81853e-07
8.99222e-07
-3.54011e-07
-2.80318e-07
9.26938e-07
-3.48188e-07
-2.81469e-07
9.46021e-07
-3.40531e-07
-2.85767e-07
9.58876e-07
-3.30227e-07
-2.92676e-07
9.66892e-07
-3.19955e-07
-2.99934e-07
9.70364e-07
-3.12134e-07
-3.05823e-07
9.71205e-07
-3.05775e-07
-3.10341e-07
9.71703e-07
-2.99573e-07
-3.13883e-07
9.71713e-07
-2.93666e-07
-3.17012e-07
9.71559e-07
-2.87602e-07
-3.19026e-07
9.69906e-07
-2.81685e-07
-3.22024e-07
9.68978e-07
-2.74984e-07
-3.21906e-07
9.65639e-07
-2.68879e-07
-3.26232e-07
9.5802e-07
-2.61675e-07
-3.23169e-07
9.61e-07
-2.53406e-07
-3.32628e-07
9.36293e-07
-2.47024e-07
-3.30284e-07
9.63811e-07
-2.34872e-07
-3.55195e-07
9.03928e-07
-2.29213e-07
-3.58113e-07
9.79241e-07
-2.15496e-07
-4.26445e-07
8.77601e-07
-2.01697e-07
-4.33154e-07
1.00902e-06
-2.05578e-07
-5.74915e-07
9.13643e-07
-1.64896e-07
-5.71435e-07
1.03371e-06
-2.19026e-07
-7.55579e-07
1.01112e-06
-1.55333e-07
-7.22853e-07
1.0572e-06
-2.60593e-07
-8.38639e-07
9.00506e-07
-2.37872e-07
-7.66242e-07
1.06361e-06
-3.50141e-07
-9.1491e-07
2.52709e-07
-2.80098e-07
-7.89237e-07
6.80209e-07
-4.08578e-07
-9.62409e-07
9.17256e-07
-2.13728e-07
-7.40088e-07
4.74839e-07
-8.74543e-08
8.97835e-08
-2.13158e-07
-9.75409e-07
-1.10913e-06
-7.19405e-07
-3.82415e-07
-5.22766e-07
-2.93778e-06
-3.6341e-07
6.36039e-06
3.60876e-07
-3.64723e-06
9.53556e-06
1.34668e-06
-9.75482e-06
3.21861e-05
1.26729e-05
-1.32186e-05
7.42038e-06
-8.805e-06
2.3386e-05
-6.27603e-06
-6.57569e-06
5.53e-06
-3.99106e-05
-1.66427e-05
1.43789e-05
-5.05585e-05
-5.44981e-06
5.78903e-06
-5.74485e-05
-2.7639e-06
1.0027e-06
-5.85668e-05
3.76427e-07
-1.24013e-06
-5.88557e-05
1.79439e-06
-1.41355e-06
-6.02279e-05
3.94294e-06
3.946e-07
-6.16844e-05
5.07e-06
8.51974e-07
-6.31455e-05
6.36028e-06
1.33334e-06
-6.48034e-05
7.06487e-06
1.50273e-06
-6.66394e-05
7.76755e-06
1.49451e-06
-6.73069e-05
7.38348e-06
9.38905e-07
-6.78308e-05
6.90933e-06
5.41621e-07
-6.79398e-05
6.00501e-06
-8.27705e-08
-6.82392e-05
4.95176e-06
-4.71813e-07
-6.81311e-05
3.47383e-06
-8.21818e-07
-6.74488e-05
1.69439e-06
-1.02605e-06
-6.64145e-05
-3.30667e-07
-1.00067e-06
-6.53285e-05
-2.27548e-06
-9.36057e-07
-6.41215e-05
-4.33102e-06
-8.04772e-07
-6.26509e-05
-6.37056e-06
-7.24768e-07
-6.07605e-05
-8.23194e-06
-7.23306e-07
-5.83087e-05
-9.7233e-06
-7.99142e-07
-5.50087e-05
-1.05065e-05
-1.26135e-06
-5.07761e-05
-1.07456e-05
-1.75092e-06
-4.58096e-05
-1.0361e-05
-2.1339e-06
-4.04206e-05
-9.29279e-06
-2.27428e-06
-3.38343e-05
-8.05107e-06
-2.33839e-06
-2.69107e-05
-6.11293e-06
-2.1916e-06
-2.09386e-05
-3.36648e-06
-1.65641e-06
-1.61666e-05
-3.9518e-07
-1.03869e-06
-1.23175e-05
2.45752e-06
-7.41619e-07
-9.07256e-06
4.56373e-06
-8.10032e-07
-6.57625e-06
6.3218e-06
-1.48188e-06
-4.85907e-06
9.07443e-06
-2.47357e-06
-2.91965e-06
1.28343e-05
-3.69606e-06
1.65783e-05
-5.31072e-06
-5.40152e-06
-1.14505e-06
6.03483e-07
-4.177e-06
-3.26121e-06
-1.91511e-06
-4.04604e-06
-2.67865e-06
-1.03332e-06
-2.51878e-06
-3.8468e-06
-2.09697e-06
-1.36164e-06
-3.32091e-06
-1.63699e-06
-5.5371e-07
-3.05159e-06
-1.37526e-06
-3.12386e-07
-1.38419e-06
-7.1928e-07
-1.30072e-07
-1.21675e-06
-5.10965e-07
-2.89643e-08
2.36622e-08
-4.17421e-07
6.69678e-08
-5.37172e-09
-2.98904e-07
2.07746e-07
2.63344e-07
-3.99159e-07
9.01153e-08
5.61717e-07
-1.69698e-07
1.82894e-08
8.85938e-07
-2.98363e-07
-4.35371e-08
9.0201e-07
-2.91831e-07
-9.13369e-08
1.02551e-06
-4.07417e-07
-1.54248e-07
1.06027e-06
-4.11183e-07
-2.18095e-07
1.18323e-06
-4.46203e-07
-2.71132e-07
1.22555e-06
-4.58938e-07
-3.11435e-07
1.2975e-06
-4.7987e-07
-3.37708e-07
1.34105e-06
-4.95457e-07
-3.55523e-07
1.38805e-06
-5.05468e-07
-3.68589e-07
1.42463e-06
-5.12341e-07
-3.81679e-07
1.45573e-06
-5.15709e-07
-3.97252e-07
1.47937e-06
-5.17767e-07
-4.11589e-07
1.49376e-06
-5.20549e-07
-4.24213e-07
1.50147e-06
-5.21948e-07
-4.34756e-07
1.50416e-06
-5.2325e-07
-4.43119e-07
1.50435e-06
-5.2477e-07
-4.49429e-07
1.50468e-06
-5.26665e-07
-4.54568e-07
1.50542e-06
-5.28557e-07
-4.5906e-07
1.50623e-06
-5.30177e-07
-4.6208e-07
1.50518e-06
-5.32241e-07
-4.65174e-07
1.50506e-06
-5.32975e-07
-4.64438e-07
1.5005e-06
-5.35581e-07
-4.69463e-07
1.49731e-06
-5.34256e-07
-4.66615e-07
1.49486e-06
-5.36688e-07
-4.85967e-07
1.48643e-06
-5.30778e-07
-4.81255e-07
1.4922e-06
-5.33085e-07
-5.3008e-07
1.47393e-06
-5.21165e-07
-5.27592e-07
1.50431e-06
-5.27544e-07
-6.28955e-07
1.4816e-06
-5.02627e-07
-6.1658e-07
1.52659e-06
-5.29923e-07
-7.57728e-07
1.54004e-06
-4.85245e-07
-7.02164e-07
1.53115e-06
-5.52999e-07
-7.89606e-07
1.61647e-06
-5.17916e-07
-6.93495e-07
1.54584e-06
-5.8475e-07
-6.7973e-07
1.53896e-06
-6.52224e-07
-6.72257e-07
1.69389e-06
-6.37757e-07
-9.46382e-07
1.25822e-06
-7.31395e-07
-1.03658e-06
1.5861e-06
-8.15698e-07
-5.85249e-07
1.41901e-06
-9.53099e-07
-1.68605e-07
8.34e-07
-7.75811e-07
7.38739e-07
1.19775e-06
-2.31826e-06
-7.8695e-08
1.89248e-06
-1.79445e-06
-2.79729e-06
3.15088e-07
-5.34265e-07
4.8587e-06
-2.52039e-06
-4.7747e-06
1.07121e-05
8.07448e-06
-1.25812e-05
3.58505e-05
6.11699e-06
-1.85826e-05
5.34667e-06
-6.13953e-06
2.78383e-05
-1.21986e-05
3.58739e-06
7.38358e-06
-5.70377e-05
7.88552e-06
2.03142e-05
-7.69438e-05
5.05069e-06
9.41091e-06
-8.60921e-05
4.63075e-06
1.76038e-06
-8.86687e-05
4.2225e-06
-1.26205e-06
-8.94287e-05
4.4298e-06
-1.86751e-06
-8.96778e-05
5.10785e-06
-9.08e-07
-9.00788e-05
6.01389e-06
-5.35074e-07
-9.01525e-05
6.61774e-06
-1.75835e-07
-9.02087e-05
7.32012e-06
-1.91193e-07
-8.95797e-05
7.51371e-06
-3.67251e-07
-8.8946e-05
7.6326e-06
-8.74781e-07
-8.81403e-05
7.58745e-06
-1.47566e-06
-8.71895e-05
7.09295e-06
-2.03062e-06
-8.62077e-05
6.36777e-06
-2.38969e-06
-8.50046e-05
4.86945e-06
-2.59072e-06
-8.36773e-05
2.90943e-06
-2.53435e-06
-8.22049e-05
3.66027e-07
-2.16103e-06
-8.10403e-05
-1.91577e-06
-1.51633e-06
-8.03602e-05
-4.27599e-06
-7.26975e-07
-8.01921e-05
-6.5533e-06
2.28188e-08
-8.04483e-05
-8.29501e-06
3.27612e-07
-8.07314e-05
-9.59922e-06
1.67528e-07
-8.08741e-05
-1.01767e-05
-1.78362e-07
-8.06051e-05
-9.87304e-06
-1.13242e-06
-7.98181e-05
-8.76279e-06
-2.376e-06
-7.81644e-05
-7.25556e-06
-3.68155e-06
-7.59254e-05
-6.17224e-06
-4.10862e-06
-7.28241e-05
-5.10509e-06
-4.10014e-06
-6.82352e-05
-3.71959e-06
-4.22702e-06
-6.22151e-05
-2.09699e-06
-4.30993e-06
-5.53617e-05
1.48836e-08
-4.40284e-06
-4.77455e-05
1.61409e-06
-4.65915e-06
-3.95511e-05
3.32998e-06
-5.19583e-06
-2.97719e-05
5.37332e-06
-6.07223e-06
-1.69941e-05
7.21417e-06
-7.1531e-06
7.47999e-06
-7.89385e-06
-5.23628e-06
2.0008e-06
2.18855e-06
-4.05305e-06
-2.96668e-06
-1.47778e-06
-4.12498e-06
-1.53405e-06
-1.0727e-06
-2.55023e-06
-3.15396e-06
-2.2676e-06
-1.20555e-06
-2.68753e-06
-1.97809e-06
-4.84683e-07
-2.62863e-06
-1.14385e-06
-2.80133e-07
-8.77805e-07
-7.10945e-07
-1.84042e-07
-7.79453e-07
-5.33398e-07
-1.77675e-07
2.0378e-07
-1.86495e-07
-4.73143e-08