/*--------------------------------*- C++ -*----------------------------------*\
| =========                 |                                                 |
| \\      /  F ield         | OpenFOAM: The Open Source CFD Toolbox           |
|  \\    /   O peration     | Version:  2.3.0                                 |
|   \\  /    A nd           | Web:      www.OpenFOAM.org                      |
|    \\/     M anipulation  |                                                 |
\*---------------------------------------------------------------------------*/
FoamFile
{
    version     2.0;
    format      ascii;
    class       surfaceScalarField;
    location    "19";
    object      phi;
}
// * * * * * * * * * * * * * * * * * * * * * * * * * * * * * * * * * * * * * //

dimensions      [0 3 -1 0 0 0 0];

internalField   nonuniform List<scalar> 
16448
(
-2.39758e-06
-2.10785e-06
7.96623e-07
-1.16023e-06
-2.18446e-06
9.47109e-07
-6.85457e-07
-1.66441e-06
1.18964e-06
-2.12035e-07
-1.58993e-06
1.1165e-06
-8.18674e-08
-1.02854e-06
8.9836e-07
3.9076e-08
-8.90902e-07
7.69947e-07
1.89879e-08
-5.02489e-07
5.22566e-07
-1.27656e-07
-3.5229e-07
4.98922e-07
-3.50551e-07
-2.76299e-07
4.99185e-07
-5.46641e-07
-2.39247e-07
4.35329e-07
-6.73816e-07
-2.61897e-07
3.89065e-07
-6.42555e-07
-3.37959e-07
3.06689e-07
-5.49221e-07
-3.87975e-07
2.94633e-07
-3.95038e-07
-4.34207e-07
2.80015e-07
-2.82084e-07
-4.39815e-07
3.26851e-07
-1.82021e-07
-4.58119e-07
3.58045e-07
-1.2177e-07
-4.60577e-07
4.00317e-07
-7.65777e-08
-4.70821e-07
4.25618e-07
-4.91778e-08
-4.74944e-07
4.47534e-07
-3.12798e-08
-4.77546e-07
4.59637e-07
-2.15388e-08
-4.76571e-07
4.6682e-07
-1.68754e-08
-4.7387e-07
4.69195e-07
-1.58624e-08
-4.69573e-07
4.68549e-07
-1.71511e-08
-4.64212e-07
4.65489e-07
-1.997e-08
-4.57969e-07
4.60778e-07
-2.41251e-08
-4.50875e-07
4.55019e-07
-2.98827e-08
-4.42919e-07
4.48666e-07
-3.78469e-08
-4.33965e-07
4.41918e-07
-4.84684e-08
-4.23946e-07
4.34556e-07
-6.14629e-08
-4.13145e-07
4.26128e-07
-7.59597e-08
-4.01439e-07
4.15925e-07
-9.08934e-08
-3.88027e-07
4.0295e-07
-1.03934e-07
-3.72607e-07
3.85637e-07
-1.11918e-07
-3.54882e-07
3.62855e-07
-1.09851e-07
-3.34901e-07
3.32824e-07
-9.30195e-08
-3.12875e-07
2.96032e-07
-5.75625e-08
-2.89226e-07
2.53758e-07
-7.90592e-09
-2.63937e-07
2.1427e-07
4.61823e-08
-2.3792e-07
1.83821e-07
8.26232e-08
-2.09187e-07
1.72735e-07
6.92865e-08
-1.76776e-07
1.90103e-07
-4.25761e-08
-1.37305e-07
2.49157e-07
-3.08943e-07
-9.66392e-08
3.62996e-07
-7.93629e-07
-2.65053e-08
5.11182e-07
-1.4669e-06
6.40454e-08
6.09215e-07
-2.08944e-06
7.51698e-08
5.47362e-07
-2.51767e-06
-7.95184e-08
5.0775e-07
-2.7911e-06
-3.98948e-07
6.72371e-07
-2.90277e-06
-8.41816e-07
9.53487e-07
-2.80185e-06
-1.56083e-06
1.45991e-06
-3.5153e-06
-1.92689e-06
2.64033e-06
-5.20913e-06
-1.79247e-06
3.48631e-06
-2.79409e-06
-5.84479e-06
3.42975e-06
4.42075e-06
-9.69216e-06
2.47731e-06
1.03419e-05
-1.00546e-05
4.13338e-06
1.43632e-05
-6.45812e-06
2.43686e-06
9.68777e-06
-7.23155e-07
5.39848e-06
8.42886e-06
9.49114e-07
3.09656e-07
-1.13589e-05
8.90165e-06
1.08857e-05
-3.44702e-07
-4.17522e-06
-6.83911e-06
2.48534e-05
-2.56308e-05
4.32648e-07
3.38668e-05
-1.54318e-05
6.41849e-06
3.56156e-05
-8.70859e-06
6.9598e-06
3.78731e-05
-7.61817e-06
5.36066e-06
3.95217e-05
-5.80276e-06
4.15418e-06
4.02539e-05
-4.26776e-06
3.53555e-06
4.01593e-05
-2.70821e-06
2.80274e-06
3.99443e-05
-1.61753e-06
1.83255e-06
3.94887e-05
-9.22522e-08
5.47818e-07
3.84017e-05
1.64685e-06
-5.5987e-07
3.72752e-05
1.24208e-06
-1.15491e-07
3.58147e-05
9.5558e-07
5.0483e-07
3.38495e-05
1.13039e-06
8.34803e-07
3.05924e-05
8.33977e-07
2.42319e-06
2.58579e-05
-3.36135e-07
5.07061e-06
1.79925e-05
2.74211e-06
5.12332e-06
9.51724e-06
5.21973e-06
3.2555e-06
2.57487e-06
4.67358e-06
2.26879e-06
-6.62987e-07
3.82452e-06
-5.86663e-07
3.28016e-08
3.10871e-06
-3.8045e-06
2.77944e-07
2.39094e-06
-2.63608e-06
-1.00631e-06
8.13498e-07
4.70757e-07
-1.24212e-06
4.86593e-07
-2.50786e-07
-2.42599e-07
4.07551e-07
-1.40707e-06
2.59509e-08
1.34636e-07
-4.03185e-07
-4.039e-07
6.38446e-08
3.66007e-07
-1.40419e-06
2.46843e-07
7.53442e-07
-2.99065e-06
3.56576e-07
1.22989e-06
-4.51521e-06
1.36045e-07
1.38851e-06
-5.69347e-06
-1.61295e-07
1.33955e-06
-6.25792e-06
-5.71274e-07
1.13573e-06
-6.19944e-06
-7.15333e-07
6.56851e-07
-5.49518e-06
-6.14831e-07
-8.94245e-08
-3.89658e-06
-5.82467e-07
-1.01613e-06
-1.65769e-06
-6.65666e-07
-1.57322e-06
-1.06993e-07
-1.5507e-06
-3.02127e-06
-3.01525e-06
1.56639e-07
-2.30373e-06
-3.17816e-06
2.76148e-07
-1.94729e-06
-2.5536e-06
5.32743e-07
-1.37707e-06
-2.42012e-06
2.59956e-07
-9.13453e-07
-1.66282e-06
1.70655e-07
-4.28153e-07
-1.44432e-06
6.8101e-08
-3.68109e-07
-5.71429e-07
8.87952e-09
-5.06416e-07
-2.97346e-07
8.33482e-08
-7.40602e-07
-1.33489e-07
9.1363e-08
-8.72558e-07
-1.513e-07
4.39957e-08
-9.32923e-07
-2.22769e-07
2.12251e-08
-8.4196e-07
-3.74134e-07
-5.48013e-08
-7.28094e-07
-4.35165e-07
-6.66898e-08
-5.71221e-07
-5.03513e-07
-8.75821e-08
-4.41666e-07
-5.08546e-07
-6.08402e-08
-3.1807e-07
-5.35347e-07
-4.63838e-08
-2.36463e-07
-5.28792e-07
-1.34083e-08
-1.7272e-07
-5.37936e-07
3.35396e-09
-1.30434e-07
-5.33197e-07
1.59496e-08
-1.00407e-07
-5.29877e-07
2.22861e-08
-8.1925e-08
-5.213e-07
2.62286e-08
-7.09126e-08
-5.11828e-07
2.69273e-08
-6.54674e-08
-5.00771e-07
2.57341e-08
-6.35058e-08
-4.89043e-07
2.2851e-08
-6.39443e-08
-4.76694e-07
1.91434e-08
-6.61447e-08
-4.63605e-07
1.49111e-08
-7.01428e-08
-4.49425e-07
1.04837e-08
-7.65646e-08
-4.33661e-07
6.09773e-09
-8.59627e-08
-4.16062e-07
1.4938e-09
-9.66696e-08
-3.96682e-07
-5.77621e-09
-1.07039e-07
-3.75907e-07
-1.51832e-08
-1.15447e-07
-3.53162e-07
-2.64783e-08
-1.18646e-07
-3.28422e-07
-4.10062e-08
-1.1274e-07
-3.01351e-07
-5.94587e-08
-9.29313e-08
-2.7258e-07
-8.21518e-08
-5.62844e-08
-2.4235e-07
-1.07194e-07
-3.34445e-09
-2.10708e-07
-1.31479e-07
5.89887e-08
-1.76189e-07
-1.50105e-07
1.14849e-07
-1.37298e-07
-1.56505e-07
1.44982e-07
-9.42862e-08
-1.45057e-07
1.21235e-07
-4.47795e-08
-1.08273e-07
1.05126e-09
1.90881e-08
-3.62325e-08
-2.62521e-07
1.09085e-07
5.7825e-08
-7.1404e-07
2.825e-07
1.42492e-07
-1.24157e-06
4.86274e-07
1.05279e-07
-1.5367e-06
5.23215e-07
-1.52934e-07
-1.69643e-06
4.38992e-07
-3.58797e-07
-2.03113e-06
-3.52503e-08
-2.90191e-08
-2.44374e-06
-8.69375e-07
4.4016e-07
-2.89281e-06
-2.02346e-06
9.11675e-07
-3.03967e-06
-3.44229e-06
1.66226e-06
-9.75335e-07
-5.69349e-06
1.83666e-06
7.19183e-06
-1.41835e-05
1.71581e-07
1.56854e-05
-1.82814e-05
9.56959e-08
1.89472e-05
-1.57177e-05
2.40123e-06
2.38515e-05
-1.16376e-05
2.751e-07
1.94859e-05
2.25872e-06
1.38369e-06
1.79426e-05
4.71196e-06
-2.21967e-06
-9.98515e-06
1.91709e-05
1.7658e-05
1.25736e-07
-9.51927e-06
-4.76716e-06
2.11926e-05
-3.89099e-05
-7.78775e-06
2.56888e-05
-2.34093e-05
3.48134e-06
2.1897e-05
-1.31625e-05
8.24563e-06
2.11356e-05
-1.02555e-05
3.39878e-06
1.7656e-05
-5.62561e-06
3.3024e-06
1.49895e-05
-4.99748e-06
3.39623e-06
1.52444e-05
-4.55218e-06
1.58909e-06
1.68838e-05
-3.07987e-06
-1.771e-07
1.94873e-05
3.525e-08
-2.731e-06
2.33613e-05
3.17233e-06
-5.39951e-06
2.51932e-05
5.11918e-06
-5.70898e-06
2.54501e-05
4.95671e-06
-4.25798e-06
2.22075e-05
5.28669e-06
-9.13773e-07
1.52552e-05
5.2059e-06
2.58041e-06
6.76496e-06
3.13564e-06
5.01845e-06
2.04006e-06
3.44077e-06
4.02624e-06
-9.67212e-07
5.90259e-06
2.32442e-06
-3.02096e-06
5.75349e-06
9.73844e-07
-2.5734e-06
5.88285e-06
-2.50589e-06
-5.1921e-07
6.05986e-06
-5.00533e-06
-1.63982e-06
5.32887e-06
-1.81732e-06
-4.45895e-06
3.86665e-06
-2.34026e-07
-4.7112e-06
2.94538e-06
-2.20654e-06
-3.94064e-06
2.36883e-06
-2.73184e-06
-4.8987e-06
2.32216e-06
-1.22947e-06
-7.35701e-06
2.58581e-06
-6.36517e-08
-9.743e-06
2.28176e-06
3.51079e-07
-1.08589e-05
1.31046e-06
1.61993e-07
-1.08907e-05
2.30479e-07
-6.25833e-08
-1.00991e-05
-8.71688e-07
-8.12648e-08
-8.98148e-06
-1.48196e-06
-2.069e-07
-7.71063e-06
-1.46608e-06
-5.20107e-07
-5.92086e-06
-1.35919e-06
-1.0454e-06
-3.87109e-06
-1.30106e-06
-1.33118e-06
-1.85963e-06
-8.17529e-07
-1.8596e-06
-2.36951e-07
-1.72967e-06
-2.96774e-06
-3.33762e-06
4.8388e-08
-2.45146e-06
-3.60845e-06
-8.59947e-08
-2.34264e-06
-2.94992e-06
2.87498e-07
-1.94935e-06
-2.94667e-06
1.33246e-07
-1.41081e-06
-2.23913e-06
3.77552e-08
-7.80157e-07
-2.00776e-06
-6.72331e-08
-5.8782e-07
-6.24291e-07
-1.39491e-07
-5.95124e-07
-2.07337e-07
-8.27187e-08
-7.66673e-07
1.26223e-07
-8.81754e-08
-8.45036e-07
3.81739e-08
-1.11124e-07
-8.59897e-07
-7.23868e-08
-1.35533e-07
-7.87765e-07
-2.43967e-07
-2.02312e-07
-7.2632e-07
-2.72891e-07
-2.23733e-07
-6.36698e-07
-3.38897e-07
-2.54253e-07
-5.41276e-07
-3.46311e-07
-2.57672e-07
-4.32764e-07
-3.77643e-07
-2.66231e-07
-3.49077e-07
-3.61423e-07
-2.51073e-07
-2.75558e-07
-3.65931e-07
-2.4554e-07
-2.25098e-07
-3.48424e-07
-2.3525e-07
-1.87343e-07
-3.36826e-07
-2.30824e-07
-1.63044e-07
-3.18685e-07
-2.26931e-07
-1.47111e-07
-3.01973e-07
-2.25807e-07
-1.37833e-07
-2.84221e-07
-2.25847e-07
-1.33111e-07
-2.66668e-07
-2.27116e-07
-1.31469e-07
-2.49309e-07
-2.29045e-07
-1.31923e-07
-2.31832e-07
-2.31338e-07
-1.33886e-07
-2.13636e-07
-2.33844e-07
-1.37113e-07
-1.93881e-07
-2.36573e-07
-1.41126e-07
-1.72444e-07
-2.39625e-07
-1.44619e-07
-1.49768e-07
-2.43441e-07
-1.45893e-07
-1.26122e-07
-2.48531e-07
-1.42728e-07
-1.01342e-07
-2.55006e-07
-1.32804e-07
-7.56375e-08
-2.62729e-07
-1.14311e-07
-4.88747e-08
-2.70989e-07
-8.73695e-08
-2.14031e-08
-2.78139e-07
-5.44574e-08
7.59297e-09
-2.82876e-07
-2.59458e-08
4.32576e-08
-2.82499e-07
-1.3962e-08
8.52298e-08
-2.73424e-07
-3.38232e-08
1.35823e-07
-2.53282e-07
-9.91317e-08
1.92151e-07
-2.21151e-07
-2.1828e-07
2.50406e-07
-1.76059e-07
-3.9756e-07
3.15992e-07
-1.17646e-07
-6.55714e-07
4.37082e-07
-6.98637e-08
-9.33889e-07
6.65378e-07
-1.04724e-07
-1.01563e-06
9.04203e-07
-3.36204e-07
-7.76689e-07
9.2678e-07
-6.4253e-07
-4.74527e-07
9.58468e-07
-8.21657e-07
-4.69341e-07
5.03177e-07
-5.43631e-07
-6.37642e-07
-5.01538e-07
-1.9955e-07
-6.81671e-07
-2.02047e-06
4.10331e-08
1.31752e-06
-5.84176e-06
4.00263e-07
7.55822e-06
-1.22131e-05
2.78903e-07
1.46991e-05
-2.13275e-05
3.11744e-09
1.7047e-05
-2.37227e-05
3.09328e-06
1.50915e-05
-1.80688e-05
4.30656e-06
1.59136e-05
-1.27631e-05
3.03415e-07
1.55681e-05
6.32093e-06
-3.71663e-06
2.062e-05
6.05177e-06
-6.39192e-06
-8.12709e-06
3.11316e-05
1.67856e-05
1.09881e-06
-1.58428e-05
-2.90275e-06
1.74958e-05
-4.41588e-05
-1.11482e-05
1.81711e-05
-2.40728e-05
-1.18779e-08
1.29298e-05
-1.40293e-05
6.10804e-06
9.33214e-06
-9.49773e-06
2.83997e-06
5.37653e-06
-5.87332e-06
4.20332e-06
3.98853e-06
-6.74636e-06
3.13689e-06
5.84834e-06
-5.81384e-06
-5.98159e-07
9.37773e-06
-2.41606e-06
-4.1932e-06
1.30736e-05
1.69416e-06
-5.3548e-06
1.33671e-05
6.64267e-06
-3.76377e-06
9.29755e-06
9.77488e-06
-5.86196e-07
3.54928e-06
8.44935e-06
2.25563e-06
-1.3395e-06
6.16865e-06
4.00682e-06
-4.31685e-06
3.5239e-06
4.65936e-06
-5.31117e-06
1.73042e-06
2.39954e-06
-5.41202e-06
3.83018e-06
-2.88556e-07
-5.23035e-06
7.61919e-06
-1.89828e-06
-5.09659e-06
9.35434e-06
-3.73461e-06
-4.39004e-06
1.03971e-05
-5.22076e-06
-3.47191e-06
9.68625e-06
-4.54452e-06
-5.21667e-06
7.61745e-06
-5.43813e-07
-7.04853e-06
5.68723e-06
1.12815e-08
-6.92512e-06
4.47041e-06
-1.64844e-06
-6.73793e-06
4.44053e-06
-2.25888e-06
-8.11775e-06
5.18391e-06
-1.48193e-06
-1.05402e-05
5.63178e-06
-6.2349e-07
-1.23701e-05
4.36818e-06
-2.56602e-07
-1.27792e-05
2.20726e-06
-4.87663e-07
-1.20614e-05
-6.61102e-08
-4.2122e-07
-1.10534e-05
-1.7461e-06
-1.33592e-07
-9.75774e-06
-2.9072e-06
1.29613e-07
-8.16242e-06
-3.41097e-06
3.49578e-07
-6.27712e-06
-4.1459e-06
9.01406e-07
-4.0725e-06
-4.93686e-06
1.43118e-06
-1.42282e-06
-4.22567e-06
7.58473e-07
-1.8758e-06
2.16027e-07
-3.00121e-06
-3.50097e-06
1.25715e-07
-2.33759e-06
-3.99694e-06
-2.75139e-07
-2.29194e-06
-3.36949e-06
3.73915e-07
-1.98022e-06
-3.54344e-06
2.85031e-07
-1.53367e-06
-2.93004e-06
2.44346e-07
-9.56103e-07
-2.71572e-06
1.30379e-07
-6.01375e-07
-1.04698e-06
6.79517e-08
-3.91704e-07
-4.85082e-07
6.80601e-08
-4.93347e-07
2.44106e-07
-1.62524e-08
-5.9725e-07
2.08103e-07
-6.60373e-08
-6.24151e-07
1.07329e-07
-1.52828e-07
-6.25476e-07
-2.2812e-08
-2.19843e-07
-6.37585e-07
-8.73768e-09
-2.5206e-07
-6.19685e-07
-6.79125e-08
-2.88899e-07
-5.65806e-07
-9.00548e-08
-3.10151e-07
-4.83308e-07
-1.26113e-07
-3.34043e-07
-4.03759e-07
-1.06218e-07
-3.3477e-07
-3.23959e-07
-1.05156e-07
-3.40592e-07
-2.63951e-07
-7.45952e-08
-3.33854e-07
-2.16292e-07
-5.34268e-08
-3.31076e-07
-1.84535e-07
-2.38528e-08
-3.26607e-07
-1.64788e-07
3.18515e-09
-3.24922e-07
-1.52749e-07
2.74224e-08
-3.23701e-07
-1.46232e-07
5.04104e-08
-3.23615e-07
-1.43661e-07
7.24175e-08
-3.24317e-07
-1.43747e-07
9.3849e-08
-3.25615e-07
-1.45405e-07
1.15352e-07
-3.27349e-07
-1.47536e-07
1.37587e-07
-3.29357e-07
-1.48794e-07
1.60643e-07
-3.31849e-07
-1.47755e-07
1.84147e-07
-3.34975e-07
-1.42926e-07
2.07845e-07
-3.38816e-07
-1.32907e-07
2.31914e-07
-3.43296e-07
-1.17288e-07
2.56396e-07
-3.47673e-07
-9.71309e-08
2.81652e-07
-3.50705e-07
-7.6878e-08
3.08309e-07
-3.49986e-07
-6.45514e-08
3.38267e-07
-3.43022e-07
-6.71123e-08
3.73862e-07
-3.28065e-07
-9.69231e-08
4.20015e-07
-3.04996e-07
-1.65678e-07
4.78186e-07
-2.7363e-07
-2.79682e-07
5.41945e-07
-2.35811e-07
-4.30486e-07
5.98178e-07
-1.96989e-07
-5.83304e-07
6.43286e-07
-1.74498e-07
-6.85284e-07
7.42029e-07
-2.02988e-07
-6.36898e-07
9.4553e-07
-3.28559e-07
-2.51156e-07
1.0836e-06
-5.65159e-07
4.10162e-07
1.04665e-06
-7.81208e-07
9.82669e-07
1.14077e-06
-7.54825e-07
1.2164e-06
9.40683e-07
-6.71257e-07
1.73799e-06
-1.06136e-07
-9.17005e-07
3.9809e-06
-3.2382e-06
-1.0252e-06
8.05917e-06
-9.72865e-06
-1.91398e-07
1.25002e-05
-1.76578e-05
1.0037e-06
1.21199e-05
-2.41485e-05
3.20123e-06
2.55743e-06
-2.21585e-05
7.99822e-06
-6.50062e-06
-1.83354e-05
9.32472e-06
-6.94275e-06
-9.6776e-06
-2.64329e-06
7.30115e-06
8.29581e-06
-1.62185e-05
2.12008e-05
1.89211e-06
-9.7402e-06
-2.17047e-06
3.65226e-05
1.79791e-05
-8.67861e-08
-1.44719e-05
-3.45482e-06
1.0559e-05
-4.37839e-05
-1.10206e-05
9.62856e-06
-2.0437e-05
-2.70537e-06
7.51863e-06
-1.4774e-05
2.85462e-06
3.54529e-07
-9.47047e-06
7.13684e-06
-2.63773e-06
-7.98156e-06
5.1005e-06
-4.22779e-06
-7.05698e-06
1.90068e-06
-4.24366e-06
-6.12191e-06
3.23944e-07
-3.60089e-06
-2.2437e-06
-8.15127e-07
-3.90182e-06
1.68088e-06
3.1421e-07
-4.96972e-06
5.03153e-06
2.67905e-06
-6.49903e-06
6.60246e-06
4.70173e-06
-7.92873e-06
5.00625e-06
4.8728e-06
-8.93324e-06
4.01785e-06
3.15531e-06
-9.75763e-06
4.60703e-06
-2.58745e-07
-1.06665e-05
5.79174e-06
-3.15245e-06
-1.1078e-05
8.43799e-06
-4.19627e-06
-1.13546e-05
1.1782e-05
-3.88618e-06
-1.12367e-05
1.26523e-05
-3.41591e-06
-1.08852e-05
1.24736e-05
-2.42813e-06
-1.07435e-05
9.50856e-06
3.60747e-08
-1.13113e-05
7.19644e-06
9.88727e-07
-1.19672e-05
6.14452e-06
1.98653e-07
-1.18323e-05
6.61759e-06
-2.28203e-06
-1.1335e-05
7.14209e-06
-3.1989e-06
-1.15292e-05
7.23357e-06
-1.85543e-06
-1.27365e-05
7.2718e-06
-4.32789e-07
-1.41605e-05
5.74912e-06
4.30726e-08
-1.47693e-05
2.44621e-06
3.69874e-07
-1.45719e-05
-1.34832e-06
1.08486e-06
-1.35819e-05
-4.60871e-06
1.87259e-06
-1.23984e-05
-6.65366e-06
2.56293e-06
-1.13267e-05
-7.73329e-06
3.25068e-06
-1.00294e-05
-9.50702e-06
4.06381e-06
-7.39633e-06
-1.14489e-05
3.87892e-06
-3.27446e-06
-1.14296e-05
3.08208e-06
-7.52712e-06
2.37686e-06
-3.42278e-06
-3.65154e-06
3.70955e-07
-2.5999e-06
-4.27845e-06
-5.41363e-07
-2.44885e-06
-3.8034e-06
2.82838e-07
-1.94707e-06
-4.15115e-06
1.0592e-07
-1.59286e-06
-3.58812e-06
3.03853e-07
-1.18088e-06
-3.37725e-06
2.49528e-07
-8.10102e-07
-1.70645e-06
2.88675e-07
-3.6992e-07
-1.09634e-06
1.71061e-07
-2.23881e-07
6.65188e-08
3.15372e-08
-2.78209e-07
2.59662e-07
2.75513e-09
-3.11117e-07
2.49492e-07
-1.09267e-07
-4.0492e-07
2.18323e-07
-1.47345e-07
-4.90059e-07
2.64495e-07
-1.88107e-07
-5.43955e-07
2.08808e-07
-2.22839e-07
-5.26909e-07
1.55297e-07
-2.62411e-07
-4.76816e-07
1.16697e-07
-2.92918e-07
-4.12904e-07
1.42289e-07
-3.12434e-07
-3.43648e-07
1.56179e-07
-3.30607e-07
-2.86167e-07
2.01961e-07
-3.34053e-07
-2.36434e-07
2.33883e-07
-3.37059e-07
-2.00026e-07
2.73927e-07
-3.34204e-07
-1.73211e-07
3.07695e-07
-3.31342e-07
-1.57125e-07
3.39777e-07
-3.28458e-07
-1.47821e-07
3.67439e-07
-3.26349e-07
-1.43296e-07
3.92483e-07
-3.24608e-07
-1.41871e-07
4.15745e-07
-3.2334e-07
-1.42016e-07
4.3799e-07
-3.22511e-07
-1.41869e-07
4.59611e-07
-3.22188e-07
-1.39498e-07
4.80609e-07
-3.22355e-07
-1.33916e-07
5.01073e-07
-3.22525e-07
-1.2522e-07
5.21323e-07
-3.22192e-07
-1.13679e-07
5.41186e-07
-3.20831e-07
-1.01152e-07
5.61127e-07
-3.17277e-07
-9.16285e-08
5.82227e-07
-3.10117e-07
-9.08773e-08
6.05401e-07
-2.97862e-07
-1.05251e-07
6.32655e-07
-2.80033e-07
-1.39759e-07
6.65404e-07
-2.57053e-07
-1.98251e-07
7.0813e-07
-2.29641e-07
-2.80592e-07
7.59431e-07
-1.98922e-07
-3.77235e-07
8.08651e-07
-1.70082e-07
-4.60277e-07
8.40285e-07
-1.59083e-07
-4.80199e-07
8.61901e-07
-1.98711e-07
-3.65101e-07
9.51596e-07
-3.24683e-07
3.37409e-08
1.07792e-06
-5.31252e-07
8.09228e-07
1.0425e-06
-7.34405e-07
1.70645e-06
9.90749e-07
-8.41344e-07
2.41053e-06
1.2285e-06
-7.91829e-07
3.00049e-06
1.45399e-06
-1.10328e-06
4.86731e-06
-3.30258e-07
-1.64271e-06
8.53623e-06
-5.71474e-06
-1.19239e-06
1.09658e-05
-1.29826e-05
8.24436e-07
9.33674e-06
-1.86085e-05
2.57965e-06
-4.22726e-07
-2.08698e-05
6.48077e-06
-1.205e-05
-1.85509e-05
8.0197e-06
-1.91305e-05
-1.42125e-05
2.95773e-06
-1.58058e-05
-8.65904e-07
-1.21363e-05
3.07738e-06
1.34455e-05
-2.40323e-05
1.00125e-05
-5.03965e-06
-3.47028e-09
-1.32291e-06
2.88406e-05
1.90158e-05
5.50558e-07
-1.17744e-05
-4.57071e-06
4.79596e-06
-3.5744e-05
-1.22849e-05
5.04871e-06
-1.9636e-05
-1.05366e-06
4.30736e-06
-1.50592e-05
1.02661e-06
-3.70322e-06
-7.89758e-06
6.43774e-06
-8.08504e-06
-8.46776e-06
4.86806e-06
-1.19023e-05
-6.12273e-06
2.88308e-06
-1.31466e-05
-6.1522e-06
1.27454e-06
-1.25476e-05
-3.25317e-06
4.10486e-07
-1.21511e-05
2.74259e-07
1.01016e-06
-1.33541e-05
4.53106e-06
1.70354e-06
-1.53134e-05
6.56384e-06
1.99795e-06
-1.73212e-05
6.63453e-06
3.79574e-07
-1.95832e-05
7.5812e-06
-1.3014e-06
-2.14079e-05
9.03539e-06
-2.60362e-06
-2.293e-05
9.75118e-06
-2.43724e-06
-2.27789e-05
9.82851e-06
-1.54169e-06
-2.11065e-05
1.04863e-05
-3.76684e-07
-1.89371e-05
1.03839e-05
9.91832e-08
-1.65212e-05
9.31696e-06
7.40753e-07
-1.54748e-05
7.16178e-06
1.30047e-06
-1.58162e-05
6.22462e-06
1.31322e-06
-1.57657e-05
5.8598e-06
2.34277e-07
-1.44213e-05
6.53355e-06
-1.26028e-06
-1.30522e-05
6.99686e-06
-1.22377e-06
-1.28867e-05
7.25905e-06
-1.91003e-07
-1.38264e-05
7.52182e-06
6.89809e-07
-1.54202e-05
6.02662e-06
1.3164e-06
-1.73058e-05
2.428e-06
1.90384e-06
-1.87144e-05
-1.84998e-06
1.91032e-06
-1.95095e-05
-5.86685e-06
2.05328e-06
-1.96135e-05
-8.93904e-06
2.38946e-06
-1.88134e-05
-1.09962e-05
2.46286e-06
-1.75087e-05
-1.35276e-05
2.71584e-06
-1.40805e-05
-1.62659e-05
1.3888e-06
-8.60574e-06
-1.77522e-05
8.47828e-07
-1.57777e-05
-3.55186e-07
-4.06772e-06
-3.52284e-06
2.99292e-07
-3.10707e-06
-4.40534e-06
-8.33765e-07
-2.96875e-06
-3.9162e-06
-2.55138e-08
-2.08029e-06
-4.46946e-06
-5.70161e-07
-1.45269e-06
-4.08267e-06
-1.33057e-07
-8.84816e-07
-3.88946e-06
-5.56768e-08
-5.54702e-07
-2.32108e-06
2.84506e-07
-2.72487e-07
-1.58647e-06
2.07906e-07
-6.52292e-08
-2.27716e-07
8.69665e-08
-3.32121e-08
1.96451e-07
3.11848e-08
3.72805e-08
2.71159e-07
-9.21706e-08
-1.25518e-07
4.52179e-07
-7.10677e-08
-2.92844e-07
5.6549e-07
-1.3368e-07
-4.32625e-07
5.20312e-07
-1.71734e-07
-4.52907e-07
4.18474e-07
-2.42906e-07
-4.27876e-07
3.75724e-07
-2.84069e-07
-3.83783e-07
4.13675e-07
-3.15491e-07
-3.37525e-07
4.46795e-07
-3.36886e-07
-2.96608e-07
5.07382e-07
-3.4635e-07
-2.58969e-07
5.48232e-07
-3.52e-07
-2.30384e-07
5.95327e-07
-3.49998e-07
-2.08661e-07
6.3218e-07
-3.4622e-07
-1.9498e-07
6.65861e-07
-3.39779e-07
-1.87799e-07
6.93008e-07
-3.32762e-07
-1.85232e-07
7.16315e-07
-3.26411e-07
-1.85705e-07
7.37348e-07
-3.21142e-07
-1.87718e-07
7.57124e-07
-3.17134e-07
-1.88895e-07
7.7487e-07
-3.14095e-07
-1.87864e-07
7.91083e-07
-3.11518e-07
-1.84259e-07
8.06468e-07
-3.09012e-07
-1.7914e-07
8.22118e-07
-3.05927e-07
-1.7456e-07
8.38138e-07
-3.01545e-07
-1.74737e-07
8.55474e-07
-2.94181e-07
-1.84762e-07
8.75042e-07
-2.82802e-07
-2.09937e-07
8.97686e-07
-2.67121e-07
-2.52606e-07
9.23166e-07
-2.47853e-07
-3.09637e-07
9.50013e-07
-2.27588e-07
-3.70104e-07
9.77516e-07
-2.08929e-07
-4.16222e-07
1.00367e-06
-1.9813e-07
-4.30467e-07
1.0283e-06
-2.05414e-07
-4.08265e-07
1.0651e-06
-2.47025e-07
-3.16019e-07
1.12419e-06
-3.54549e-07
-3.11652e-08
1.2258e-06
-5.5907e-07
6.15091e-07
1.24583e-06
-8.14171e-07
1.57813e-06
1.05732e-06
-9.77865e-07
2.39416e-06
1.07094e-06
-8.96228e-07
3.27852e-06
1.38479e-06
-1.04066e-06
4.77088e-06
1.60218e-06
-1.64056e-06
7.80711e-06
-1.92477e-06
-1.44172e-06
9.84164e-06
-8.27194e-06
5.22667e-07
3.83975e-06
-9.42454e-06
2.44379e-06
-7.24318e-06
-1.04076e-05
2.88206e-06
-1.44416e-05
-1.68374e-05
3.16614e-06
-1.71373e-05
-1.86537e-05
2.79863e-06
-1.78e-05
-1.50985e-05
1.5488e-06
-1.61409e-05
-3.3052e-06
7.80319e-07
2.20685e-06
3.30985e-06
-8.21139e-06
-8.45817e-06
-1.33373e-06
6.95908e-06
-4.12026e-07
3.11112e-06
1.76812e-05
3.1816e-06
-8.7263e-06
-6.64102e-06
-2.2274e-06
-1.48959e-05
-1.54383e-05
-1.19319e-06
-2.02033e-05
-4.66336e-07
-2.78858e-07
-1.51657e-05
-8.07389e-07
-8.61571e-06
-4.72731e-06
5.16696e-06
-1.70408e-05
-3.96411e-06
3.9218e-06
-2.54678e-05
-2.93595e-07
2.59827e-06
-3.06903e-05
-1.6833e-06
7.53901e-07
-3.1634e-05
-1.4181e-06
-8.90992e-07
-3.01822e-05
2.863e-07
-1.46349e-06
-2.73738e-05
2.45983e-06
-7.36749e-07
-2.55644e-05
4.62036e-06
1.34377e-07
-2.55985e-05
6.05064e-06
6.18358e-07
-2.62523e-05
7.79508e-06
4.40409e-07
-2.62662e-05
8.53934e-06
5.10415e-07
-2.54031e-05
7.67022e-06
1.21836e-06
-2.36512e-05
6.30673e-06
1.77042e-06
-2.14493e-05
6.1556e-06
2.1294e-06
-2.01301e-05
6.88068e-06
2.18467e-06
-1.97504e-05
6.62998e-06
2.30805e-06
-2.10622e-05
6.15996e-06
2.3144e-06
-2.31193e-05
6.11371e-06
2.16893e-06
-2.36798e-05
5.60033e-06
8.20997e-07
-2.25352e-05
5.6617e-06
-2.71656e-07
-2.14259e-05
6.29986e-06
-4.11184e-07
-2.14375e-05
7.3383e-06
-6.64424e-08
-2.29389e-05
8.33947e-06
6.85045e-07
-2.55879e-05
7.50741e-06
1.16961e-06
-2.79595e-05
3.47988e-06
1.32121e-06
-2.82051e-05
-2.5508e-06
9.47732e-07
-2.75277e-05
-7.83828e-06
1.2953e-06
-2.61476e-05
-1.14422e-05
1.12401e-06
-2.36187e-05
-1.34859e-05
-3.8421e-08
-2.06022e-05
-1.55339e-05
-1.0097e-06
-1.66966e-05
-1.79113e-05
-2.26005e-06
-1.0444e-05
-1.99357e-05
-4.06893e-06
-2.00911e-05
-6.13058e-06
-4.5266e-06
-3.06543e-06
2.04258e-07
-3.37598e-06
-4.06226e-06
-1.49371e-06
-3.34509e-06
-3.3688e-06
-5.78298e-07
-2.20995e-06
-4.08285e-06
-1.52176e-06
-1.3403e-06
-3.90526e-06
-1.04706e-06
-5.19276e-07
-3.82862e-06
-8.81877e-07
-3.34476e-08
-2.47779e-06
-3.29122e-07
1.54098e-08
-1.63757e-06
2.24064e-09
7.79952e-08
-3.26169e-07
3.58612e-08
7.89408e-08
1.82958e-07
1.25397e-08
2.00385e-07
2.83966e-07
-1.34259e-07
4.31556e-08
6.21415e-07
-1.20142e-08
-1.18733e-07
8.07661e-07
-8.02891e-08
-2.81506e-07
7.99136e-07
-1.16058e-07
-3.17725e-07
6.8991e-07
-2.35224e-07
-3.24409e-07
6.71127e-07
-2.88725e-07
-3.18794e-07
7.38399e-07
-3.30345e-07
-3.12724e-07
7.85397e-07
-3.44679e-07
-3.05081e-07
8.55823e-07
-3.5609e-07
-2.93236e-07
8.97671e-07
-3.6129e-07
-2.82567e-07
9.46085e-07
-3.61433e-07
-2.729e-07
9.81324e-07
-3.58817e-07
-2.68361e-07
1.01257e-06
-3.51257e-07
-2.67336e-07
1.03549e-06
-3.43509e-07
-2.68706e-07
1.0536e-06
-3.35923e-07
-2.71534e-07
1.0686e-06
-3.28425e-07
-2.75205e-07
1.08136e-06
-3.20571e-07
-2.78408e-07
1.09106e-06
-3.12992e-07
-2.80619e-07
1.09986e-06
-3.06565e-07
-2.82855e-07
1.10932e-06
-3.00618e-07
-2.87537e-07
1.12101e-06
-2.94212e-07
-2.98208e-07
1.1351e-06
-2.86292e-07
-3.19262e-07
1.15278e-06
-2.76257e-07
-3.54585e-07
1.17358e-06
-2.63218e-07
-4.04881e-07
1.19597e-06
-2.47984e-07
-4.6293e-07
1.21436e-06
-2.33147e-07
-5.1177e-07
1.2218e-06
-2.22944e-07
-5.29551e-07
1.21813e-06
-2.22831e-07
-4.93487e-07
1.20779e-06
-2.4018e-07
-3.96772e-07
1.21475e-06
-2.83159e-07
-2.48892e-07
1.27695e-06
-3.59728e-07
-4.46685e-08
1.40858e-06
-4.88609e-07
3.08547e-07
1.57038e-06
-6.97784e-07
9.94081e-07
1.52294e-06
-9.62645e-07
1.94921e-06
1.2028e-06
-1.1006e-06
3.00791e-06
9.7846e-07
-9.66213e-07
4.58726e-06
8.91703e-07
-1.08625e-06
7.51478e-06
4.7585e-07
-1.80118e-06
8.54937e-06
-3.49386e-06
5.34499e-07
-6.584e-07
-3.10697e-06
4.04281e-06
-1.57116e-05
9.52769e-07
4.67596e-06
-2.46814e-05
-3.49446e-06
2.05674e-06
-2.94969e-05
-1.29209e-05
8.99026e-07
-3.41102e-05
-1.55832e-05
1.54293e-06
-3.62623e-05
-1.29293e-05
-1.69398e-08
-2.90235e-05
-8.03928e-06
-2.50454e-06
8.21922e-07
-1.81947e-05
-8.34023e-06
-6.15649e-06
-9.21443e-06
1.4859e-05
4.4939e-06
-9.31704e-06
1.77566e-06
2.1426e-06
1.43626e-07
-6.51809e-06
-9.69443e-06
1.2713e-05
-1.57702e-05
-1.14623e-05
-1.57537e-05
-2.67991e-06
-1.57105e-05
-8.04807e-06
-2.86775e-06
-2.25632e-05
1.02496e-06
1.10231e-06
-3.1166e-05
3.7287e-06
9.12073e-07
-3.78671e-05
5.52677e-06
8.82911e-07
-4.25019e-05
3.48757e-06
-5.3377e-07
-4.45683e-05
1.61677e-06
-9.66103e-07
-4.336e-05
6.04694e-07
-1.52434e-06
-4.05597e-05
1.44643e-06
-1.78447e-06
-3.76736e-05
3.14324e-06
-1.40656e-06
-3.56631e-05
4.76293e-06
-7.20295e-07
-3.38091e-05
6.0987e-06
-1.54959e-07
-3.37902e-05
7.05473e-06
1.4686e-06
-3.67544e-05
8.24843e-06
2.38906e-06
-4.23313e-05
8.95998e-06
2.92696e-06
-4.6407e-05
8.38753e-06
1.84734e-06
-4.81775e-05
7.85695e-06
7.97807e-07
-4.94723e-05
7.15478e-06
7.73822e-07
-5.03447e-05
6.70707e-06
3.29128e-07
-4.95617e-05
5.58039e-06
-2.45658e-07
-4.75035e-05
4.47222e-06
-9.26096e-07
-4.43714e-05
4.17701e-06
-1.64342e-06
-4.11695e-05
4.71378e-06
-1.61186e-06
-3.83975e-05
5.56391e-06
-9.93715e-07
-3.6289e-05
6.63442e-06
-3.99473e-07
-3.52696e-05
6.28125e-06
2.10705e-07
-3.39702e-05
1.18668e-06
9.97736e-07
-3.22084e-05
-6.39408e-06
2.08542e-06
-3.06414e-05
-1.27005e-05
3.29908e-06
-2.88029e-05
-1.65135e-05
3.23661e-06
-2.61204e-05
-1.81736e-05
2.00871e-06
-2.36748e-05
-1.84388e-05
4.62276e-07
-1.97522e-05
-2.02414e-05
-1.59002e-06
-1.0643e-05
-2.33112e-05
-5.73228e-06
-2.36526e-05
-7.0811e-06
-4.71673e-06
-2.04201e-06
8.05249e-08
-3.33858e-06
-3.26322e-06
-2.17719e-06
-3.40217e-06
-2.33446e-06
-9.70745e-07
-2.35631e-06
-3.13261e-06
-1.99611e-06
-1.42073e-06
-3.18741e-06
-1.65344e-06
-4.81313e-07
-3.24661e-06
-1.52142e-06
2.03453e-07
-2.12904e-06
-1.03352e-06
2.4654e-07
-1.23918e-06
-4.41483e-07
1.9113e-07
-7.68241e-08
-1.93939e-07
1.49167e-07
3.25601e-07
-1.00685e-07
2.04593e-07
4.66463e-07
-2.37927e-07
9.31896e-08
8.03796e-07
-7.09813e-08
2.90324e-08
1.05977e-06
-1.87956e-07
-4.05329e-08
1.08198e-06
-2.13282e-07
-8.86283e-08
1.10936e-06
-3.71358e-07
-1.52928e-07
1.14109e-06
-4.05663e-07
-2.09574e-07
1.25642e-06
-4.61371e-07
-2.59133e-07
1.31077e-06
-4.7581e-07
-2.97248e-07
1.38982e-06
-4.9588e-07
-3.24414e-07
1.43466e-06
-5.0982e-07
-3.4328e-07
1.48576e-06
-5.20807e-07
-3.59712e-07
1.52518e-06
-5.2742e-07
-3.73398e-07
1.55764e-06
-5.31376e-07
-3.84096e-07
1.57901e-06
-5.32821e-07
-3.92245e-07
1.59416e-06
-5.324e-07
-3.98202e-07
1.60621e-06
-5.31649e-07
-4.02435e-07
1.61636e-06
-5.30756e-07
-4.05583e-07
1.62445e-06
-5.30231e-07
-4.09072e-07
1.63271e-06
-5.29359e-07
-4.15595e-07
1.64316e-06
-5.27315e-07
-4.29066e-07
1.65793e-06
-5.2344e-07
-4.53907e-07
1.67765e-06
-5.17704e-07
-4.93423e-07
1.7031e-06
-5.10798e-07
-5.45276e-07
1.72978e-06
-5.04334e-07
-6.0152e-07
1.75221e-06
-4.99987e-07
-6.46582e-07
1.76132e-06
-5.0188e-07
-6.6107e-07
1.7488e-06
-5.12499e-07
-6.24348e-07
1.71734e-06
-5.35914e-07
-5.26438e-07
1.6865e-06
-5.76607e-07
-3.75692e-07
1.69902e-06
-6.34998e-07
-2.02604e-07
1.81794e-06
-7.14059e-07
-1.71256e-08
2.04993e-06
-8.26804e-07
2.72889e-07
2.28386e-06
-1.00347e-06
8.44873e-07
2.1912e-06
-1.24021e-06
1.79399e-06
1.63103e-06
-1.37732e-06
3.13843e-06
8.51553e-07
-1.21751e-06
4.97031e-06
3.58619e-07
-1.29877e-06
6.54022e-06
3.45467e-07
-1.43949e-06
-3.79281e-06
2.60339e-06
4.23581e-06
-2.04955e-05
6.84424e-06
6.75154e-06
-2.79818e-05
7.33691e-06
1.1022e-06
-3.0457e-05
9.03804e-07
-1.92292e-06
-3.63184e-05
-5.80636e-06
-1.25307e-06
-4.16887e-05
-1.02416e-05
2.87725e-08
-4.39866e-05
-1.00512e-05
-5.80024e-07
-3.77878e-05
-1.17117e-05
-2.52619e-06
-4.5177e-05
-9.51303e-06
-1.29206e-06
-3.96181e-05
-1.46192e-05
-1.54153e-07
-4.28804e-07
-4.46548e-05
-3.85337e-06
3.14924e-07
8.59545e-06
-9.19507e-06
-6.95056e-06
3.81811e-05
-1.82004e-05
-1.69684e-05
-5.55426e-06
-1.7859e-07
-2.57008e-05
3.8122e-07
3.06079e-07
-3.69055e-05
7.59326e-06
4.63971e-06
-4.8837e-05
1.13202e-05
4.3435e-06
-5.53732e-05
7.79279e-06
4.27388e-06
-5.81844e-05
3.91204e-06
2.39057e-06
-5.89026e-05
4.69263e-07
1.86964e-06
-5.80768e-05
-1.71952e-06
1.50237e-06
-5.61009e-05
-2.1527e-06
1.62721e-06
-5.47753e-05
-1.52611e-07
1.97432e-06
-5.60682e-05
4.28407e-06
1.77578e-06
-5.8866e-05
7.97301e-06
9.27631e-07
-6.19204e-05
1.04791e-05
-3.65828e-07
-6.50929e-05
1.25403e-05
-1.11506e-06
-6.71796e-05
1.27672e-05
-1.71625e-06
-6.68721e-05
1.0646e-05
-2.56163e-06
-6.42021e-05
7.78861e-06
-2.59736e-06
-6.11287e-05
6.14803e-06
-2.06242e-06
-5.81988e-05
6.12337e-06
-2.34203e-06
-5.44278e-05
5.55238e-06
-3.73897e-06
-4.94672e-05
4.53595e-06
-5.02044e-06
-4.37461e-05
4.63906e-06
-6.17946e-06
-3.77962e-05
5.54731e-06
-6.77985e-06
-3.03495e-05
4.7988e-06
-6.67829e-06
-2.209e-05
3.92354e-06
-5.54541e-06
-1.44294e-05
1.20769e-06
-2.584e-06
-9.13619e-06
-5.83777e-06
1.73436e-06
-7.85467e-06
-1.28664e-05
5.1943e-06
-8.68953e-06
-1.72531e-05
5.39145e-06
-1.30362e-05
-2.00437e-05
7.88144e-06
-1.69448e-05
-2.18992e-05
7.63923e-06
-2.04604e-05
-1.91668e-05
4.24934e-06
-2.18451e-05
-1.77166e-05
-1.13435e-06
-1.49369e-05
-2.04272e-05
-9.78697e-06
-2.58466e-05
-1.27407e-05
-4.40966e-06
4.41183e-07
1.97237e-06
-3.39926e-06
-2.64941e-06
-1.62422e-06
-3.63098e-06
-1.23896e-06
-8.63783e-07
-2.55567e-06
-2.24707e-06
-1.96086e-06
-1.56263e-06
-2.36151e-06
-1.81895e-06
-5.34434e-07
-2.62765e-06
-1.64716e-06
2.49441e-07
-1.67031e-06
-1.24261e-06
9.55223e-08
-5.54624e-07
-5.30643e-07
-5.83953e-08
2.51947e-07
-1.74855e-07
-1.89242e-08
3.06962e-07
-2.08327e-08
7.62343e-08
3.78499e-07
-7.19471e-09