/*--------------------------------*- C++ -*----------------------------------*\
| =========                 |                                                 |
| \\      /  F ield         | OpenFOAM: The Open Source CFD Toolbox           |
|  \\    /   O peration     | Version:  2.3.0                                 |
|   \\  /    A nd           | Web:      www.OpenFOAM.org                      |
|    \\/     M anipulation  |                                                 |
\*---------------------------------------------------------------------------*/
FoamFile
{
    version     2.0;
    format      ascii;
    class       surfaceScalarField;
    location    "19";
    object      phi.air;
}
// * * * * * * * * * * * * * * * * * * * * * * * * * * * * * * * * * * * * * //

dimensions      [0 3 -1 0 0 0 0];

internalField   nonuniform List<scalar> 
16448
(
-2.39758e-06
-2.10785e-06
7.96623e-07
-1.16023e-06
-2.18446e-06
9.47109e-07
-6.85458e-07
-1.66441e-06
1.18964e-06
-2.12036e-07
-1.58993e-06
1.1165e-06
-8.18682e-08
-1.02854e-06
8.9836e-07
3.9075e-08
-8.90902e-07
7.69947e-07
1.89868e-08
-5.02489e-07
5.22566e-07
-1.27657e-07
-3.5229e-07
4.98922e-07
-3.50553e-07
-2.76299e-07
4.99185e-07
-5.46642e-07
-2.39247e-07
4.35329e-07
-6.73818e-07
-2.61897e-07
3.89065e-07
-6.42556e-07
-3.37959e-07
3.06689e-07
-5.49222e-07
-3.87975e-07
2.94633e-07
-3.95039e-07
-4.34207e-07
2.80015e-07
-2.82085e-07
-4.39815e-07
3.26851e-07
-1.82022e-07
-4.58119e-07
3.58045e-07
-1.21771e-07
-4.60577e-07
4.00317e-07
-7.65788e-08
-4.70821e-07
4.25618e-07
-4.91789e-08
-4.74944e-07
4.47534e-07
-3.12809e-08
-4.77546e-07
4.59637e-07
-2.15399e-08
-4.76571e-07
4.6682e-07
-1.68765e-08
-4.7387e-07
4.69195e-07
-1.58635e-08
-4.69573e-07
4.68549e-07
-1.71522e-08
-4.64212e-07
4.65489e-07
-1.99711e-08
-4.57969e-07
4.60778e-07
-2.41262e-08
-4.50875e-07
4.55019e-07
-2.98838e-08
-4.42919e-07
4.48666e-07
-3.7848e-08
-4.33965e-07
4.41918e-07
-4.84695e-08
-4.23946e-07
4.34556e-07
-6.1464e-08
-4.13145e-07
4.26128e-07
-7.59608e-08
-4.01439e-07
4.15925e-07
-9.08945e-08
-3.88027e-07
4.0295e-07
-1.03935e-07
-3.72607e-07
3.85637e-07
-1.11919e-07
-3.54882e-07
3.62855e-07
-1.09852e-07
-3.34901e-07
3.32824e-07
-9.30206e-08
-3.12875e-07
2.96032e-07
-5.75636e-08
-2.89226e-07
2.53758e-07
-7.90704e-09
-2.63937e-07
2.1427e-07
4.61811e-08
-2.3792e-07
1.83821e-07
8.26221e-08
-2.09187e-07
1.72735e-07
6.92854e-08
-1.76776e-07
1.90103e-07
-4.25772e-08
-1.37305e-07
2.49157e-07
-3.08944e-07
-9.66392e-08
3.62996e-07
-7.9363e-07
-2.65053e-08
5.11182e-07
-1.4669e-06
6.40454e-08
6.09215e-07
-2.08944e-06
7.51698e-08
5.47362e-07
-2.51767e-06
-7.95184e-08
5.0775e-07
-2.7911e-06
-3.98948e-07
6.72371e-07
-2.90278e-06
-8.41816e-07
9.53487e-07
-2.80186e-06
-1.56083e-06
1.45991e-06
-3.51532e-06
-1.92689e-06
2.64033e-06
-5.20916e-06
-1.79247e-06
3.48631e-06
-2.79414e-06
-5.84478e-06
3.42975e-06
4.42069e-06
-9.69215e-06
2.47731e-06
1.03418e-05
-1.00546e-05
4.13338e-06
1.43631e-05
-6.45812e-06
2.43687e-06
9.68764e-06
-7.23146e-07
5.39849e-06
8.42867e-06
9.49118e-07
3.09643e-07
-1.1701e-05
8.90187e-06
1.08859e-05
-3.21737e-05
-4.26781e-06
-6.79864e-06
-6.3064e-05
-2.06348e-05
6.50071e-06
-1.28374e-05
-6.12847e-06
1.16855e-05
3.43782e-05
-8.65033e-06
6.93994e-06
3.69212e-05
-7.66903e-06
5.3163e-06
3.83767e-05
-5.84593e-06
4.16251e-06
3.89878e-05
-4.30422e-06
3.54944e-06
3.89114e-05
-2.73673e-06
2.81739e-06
3.87661e-05
-1.6405e-06
1.84675e-06
3.83008e-05
-7.88829e-08
5.48059e-07
3.71662e-05
1.62533e-06
-5.56048e-07
3.59827e-05
1.22123e-06
-1.09966e-07
3.45292e-05
9.38373e-07
5.06509e-07
3.2612e-05
1.14303e-06
8.45472e-07
2.92787e-05
8.46058e-07
2.41831e-06
2.44885e-05
-3.32335e-07
5.04873e-06
1.67185e-05
2.71526e-06
5.09087e-06
8.19406e-06
5.18348e-06
3.23373e-06
1.25162e-06
4.64263e-06
2.27995e-06
-1.94047e-06
3.82184e-06
-5.77557e-07
-1.17396e-06
3.12155e-06
-3.82984e-06
-8.48839e-07
2.40644e-06
-2.65955e-06
-2.10035e-06
8.22695e-07
4.6374e-07
-2.34653e-06
4.94479e-07
-2.45581e-07
-1.36354e-06
4.14645e-07
-1.40727e-06
-1.07712e-06
1.40091e-07
-4.05719e-07
-1.48082e-06
6.84859e-08
3.67106e-07
-2.44131e-06
2.53318e-07
7.54206e-07
-3.98591e-06
3.58262e-07
1.2362e-06
-5.44128e-06
1.36075e-07
1.39639e-06
-6.48197e-06
-1.63263e-07
1.34741e-06
-6.8987e-06
-5.75904e-07
1.14159e-06
-6.74879e-06
-7.19818e-07
6.60142e-07
-6.01389e-06
-6.177e-07
-8.75395e-08
-4.41511e-06
-5.85815e-07
-1.00585e-06
-2.18793e-06
-6.68798e-07
-1.56316e-06
-1.06347e-07
-1.54367e-06
-3.02128e-06
-3.01525e-06
1.56639e-07
-2.30373e-06
-3.17816e-06
2.76148e-07
-1.94729e-06
-2.5536e-06
5.32743e-07
-1.37707e-06
-2.42012e-06
2.59956e-07
-9.13454e-07
-1.66282e-06
1.70655e-07
-4.28154e-07
-1.44432e-06
6.8101e-08
-3.6811e-07
-5.71429e-07
8.87952e-09
-5.06417e-07
-2.97346e-07
8.33482e-08
-7.40603e-07
-1.33489e-07
9.1363e-08
-8.72559e-07
-1.513e-07
4.39957e-08
-9.32925e-07
-2.22769e-07
2.12251e-08
-8.41961e-07
-3.74134e-07
-5.48013e-08
-7.28095e-07
-4.35165e-07
-6.66897e-08
-5.71222e-07
-5.03513e-07
-8.75821e-08
-4.41667e-07
-5.08546e-07
-6.08402e-08
-3.18071e-07
-5.35347e-07
-4.63838e-08
-2.36464e-07
-5.28792e-07
-1.34083e-08
-1.72721e-07
-5.37936e-07
3.35396e-09
-1.30435e-07
-5.33197e-07
1.59496e-08
-1.00408e-07
-5.29877e-07
2.22861e-08
-8.19261e-08
-5.213e-07
2.62286e-08
-7.09137e-08
-5.11828e-07
2.69273e-08
-6.54686e-08
-5.00771e-07
2.57341e-08
-6.3507e-08
-4.89043e-07
2.2851e-08
-6.39455e-08
-4.76694e-07
1.91434e-08
-6.61458e-08
-4.63605e-07
1.49111e-08
-7.01439e-08
-4.49425e-07
1.04837e-08
-7.65658e-08
-4.33661e-07
6.09773e-09
-8.59638e-08
-4.16062e-07
1.4938e-09
-9.66707e-08
-3.96682e-07
-5.77621e-09
-1.0704e-07
-3.75907e-07
-1.51832e-08
-1.15448e-07
-3.53162e-07
-2.64783e-08
-1.18647e-07
-3.28422e-07
-4.10062e-08
-1.12741e-07
-3.01351e-07
-5.94587e-08
-9.29325e-08
-2.7258e-07
-8.21518e-08
-5.62855e-08
-2.4235e-07
-1.07194e-07
-3.34562e-09
-2.10708e-07
-1.31479e-07
5.89875e-08
-1.76189e-07
-1.50105e-07
1.14848e-07
-1.37298e-07
-1.56505e-07
1.44981e-07
-9.42862e-08
-1.45057e-07
1.21234e-07
-4.47795e-08
-1.08273e-07
1.05007e-09
1.90881e-08
-3.62325e-08
-2.62522e-07
1.09085e-07
5.7825e-08
-7.14041e-07
2.825e-07
1.42492e-07
-1.24157e-06
4.86274e-07
1.05279e-07
-1.5367e-06
5.23215e-07
-1.52934e-07
-1.69643e-06
4.38992e-07
-3.58797e-07
-2.03113e-06
-3.52504e-08
-2.90192e-08
-2.44375e-06
-8.69375e-07
4.4016e-07
-2.89282e-06
-2.02346e-06
9.11675e-07
-3.0397e-06
-3.44229e-06
1.66226e-06
-9.75375e-07
-5.69348e-06
1.83666e-06
7.19176e-06
-1.41835e-05
1.71582e-07
1.56853e-05
-1.82814e-05
9.56966e-08
1.89471e-05
-1.57177e-05
2.40123e-06
2.38514e-05
-1.16376e-05
2.75098e-07
1.94857e-05
2.25873e-06
1.38369e-06
1.79426e-05
4.71196e-06
-2.21968e-06
-1.01828e-05
1.91711e-05
1.76582e-05
-3.00136e-05
-9.6496e-06
-4.79895e-06
-6.74671e-05
-3.00181e-05
-9.27997e-07
-1.98412e-05
-1.11037e-05
9.89439e-06
2.08422e-05
-1.2996e-05
8.21968e-06
1.9886e-05
-1.01732e-05
3.44054e-06
1.635e-05
-5.58564e-06
3.33913e-06
1.36535e-05
-4.96333e-06
3.38598e-06
1.39249e-05
-4.50767e-06
1.60059e-06
1.557e-05
-3.03882e-06
-1.75835e-07
1.81979e-05
2.70697e-08
-2.69865e-06
2.19783e-05
3.23173e-06
-5.36055e-06
2.38433e-05
5.19554e-06
-5.67239e-06
2.41029e-05
5.01686e-06
-4.23299e-06
2.09093e-05
5.28273e-06
-8.96894e-07
1.37836e-05
5.16361e-06
2.57742e-06
5.31504e-06
3.12915e-06
5.05675e-06
6.55837e-07
3.48928e-06
4.04987e-06
-2.40355e-06
5.93644e-06
2.30702e-06
-4.43568e-06
5.77784e-06
9.669e-07
-3.93496e-06
5.88755e-06
-2.51943e-06
-1.80814e-06
6.06953e-06
-5.0143e-06
-2.86232e-06
5.32833e-06
-1.83529e-06
-5.64469e-06
3.86134e-06
-2.35481e-07
-5.8437e-06
2.93862e-06
-2.18697e-06
-5.00246e-06
2.37003e-06
-2.72483e-06
-5.83279e-06
2.33766e-06
-1.22712e-06
-8.19135e-06
2.60205e-06
-6.18944e-08
-1.0507e-05
2.29142e-06
3.56424e-07
-1.15963e-05
1.32221e-06
1.65521e-07
-1.16124e-05
2.37985e-07
-6.18368e-08
-1.08047e-05
-8.62057e-07
-8.16476e-08
-9.65636e-06
-1.47416e-06
-2.07565e-07
-8.35741e-06
-1.46128e-06
-5.14578e-07
-6.53434e-06
-1.36345e-06
-1.03444e-06
-4.46239e-06
-1.30442e-06
-1.32066e-06
-2.4363e-06
-8.21088e-07
-1.85839e-06
-2.4174e-07
-1.73361e-06
-2.96774e-06
-3.33762e-06
4.8388e-08
-2.45146e-06
-3.60845e-06
-8.59947e-08
-2.34264e-06
-2.94992e-06
2.87498e-07
-1.94935e-06
-2.94667e-06
1.33246e-07
-1.41081e-06
-2.23913e-06
3.77552e-08
-7.80158e-07
-2.00776e-06
-6.72331e-08
-5.87821e-07
-6.24291e-07
-1.39491e-07
-5.95125e-07
-2.07337e-07
-8.27187e-08
-7.66674e-07
1.26223e-07
-8.81754e-08
-8.45037e-07
3.81739e-08
-1.11124e-07
-8.59898e-07
-7.23869e-08
-1.35533e-07
-7.87767e-07
-2.43967e-07
-2.02312e-07
-7.26321e-07
-2.72891e-07
-2.23733e-07
-6.36699e-07
-3.38897e-07
-2.54253e-07
-5.41277e-07
-3.46311e-07
-2.57672e-07
-4.32766e-07
-3.77643e-07
-2.66231e-07
-3.49078e-07
-3.61423e-07
-2.51073e-07
-2.75559e-07
-3.65931e-07
-2.4554e-07
-2.25099e-07
-3.48424e-07
-2.3525e-07
-1.87344e-07
-3.36826e-07
-2.30824e-07
-1.63045e-07
-3.18685e-07
-2.26931e-07
-1.47112e-07
-3.01973e-07
-2.25807e-07
-1.37834e-07
-2.84221e-07
-2.25847e-07
-1.33112e-07
-2.66668e-07
-2.27116e-07
-1.3147e-07
-2.49309e-07
-2.29045e-07
-1.31924e-07
-2.31832e-07
-2.31338e-07
-1.33888e-07
-2.13636e-07
-2.33844e-07
-1.37114e-07
-1.93881e-07
-2.36573e-07
-1.41127e-07
-1.72444e-07
-2.39625e-07
-1.4462e-07
-1.49768e-07
-2.43441e-07
-1.45894e-07
-1.26122e-07
-2.48531e-07
-1.42729e-07
-1.01342e-07
-2.55006e-07
-1.32805e-07
-7.56375e-08
-2.62729e-07
-1.14313e-07
-4.88747e-08
-2.70989e-07
-8.73707e-08
-2.14031e-08
-2.78139e-07
-5.44586e-08
7.59298e-09
-2.82876e-07
-2.5947e-08
4.32576e-08
-2.82499e-07
-1.39632e-08
8.52298e-08
-2.73424e-07
-3.38244e-08
1.35823e-07
-2.53282e-07
-9.91329e-08
1.92151e-07
-2.21151e-07
-2.18281e-07
2.50406e-07
-1.76059e-07
-3.97561e-07
3.15992e-07
-1.17646e-07
-6.55715e-07
4.37082e-07
-6.98637e-08
-9.3389e-07
6.65378e-07
-1.04724e-07
-1.01564e-06
9.04203e-07
-3.36204e-07
-7.76691e-07
9.2678e-07
-6.4253e-07
-4.74529e-07
9.58468e-07
-8.21657e-07
-4.69345e-07
5.03177e-07
-5.43631e-07
-6.37652e-07
-5.01538e-07
-1.9955e-07
-6.81691e-07
-2.02047e-06
4.1033e-08
1.31748e-06
-5.84176e-06
4.00263e-07
7.55815e-06
-1.22131e-05
2.78903e-07
1.4699e-05
-2.13275e-05
3.11868e-09
1.70469e-05
-2.37227e-05
3.09328e-06
1.50914e-05
-1.80687e-05
4.30656e-06
1.59135e-05
-1.27631e-05
3.03411e-07
1.55678e-05
6.32097e-06
-3.71664e-06
2.062e-05
6.05177e-06
-6.39193e-06
-8.37661e-06
3.11317e-05
1.67857e-05
-3.07144e-05
-1.6067e-05
-2.98856e-06
-7.55479e-05
-3.52972e-05
-6.19847e-06
-2.85495e-05
-1.37392e-05
4.16531e-06
1.15221e-05
-1.14019e-05
6.08228e-06
7.75767e-06
-8.1089e-06
2.88709e-06
3.90422e-06
-5.29899e-06
4.20713e-06
2.52105e-06
-5.59609e-06
3.13069e-06
4.47473e-06
-3.71407e-06
-5.8978e-07
7.9804e-06
-2.56472e-06
-4.16345e-06
1.16641e-05
1.60352e-06
-5.35979e-06
1.19557e-05
6.53141e-06
-3.78875e-06
7.80703e-06
8.9085e-06
-5.71429e-07
2.05943e-06
7.14626e-06
2.28231e-06
-2.76867e-06
6.1495e-06
4.05645e-06
-5.76503e-06
3.52977e-06
4.69504e-06
-6.75267e-06
3.15287e-06
2.3923e-06
-6.82517e-06
5.3598e-06
-2.88961e-07
-6.67239e-06
7.63057e-06
-1.92424e-06
-6.56264e-06
9.38602e-06
-3.76025e-06
-5.79433e-06
1.0413e-05
-5.1852e-06
-4.81228e-06
9.6671e-06
-4.50271e-06
-6.50478e-06
7.59547e-06
-5.41798e-07
-8.25318e-06
5.67044e-06
1.45045e-08
-8.04524e-06
4.48184e-06
-1.62367e-06
-7.81822e-06
4.45786e-06
-2.24068e-06
-9.16484e-06
5.15906e-06
-1.47455e-06
-1.1595e-05
5.58668e-06
-6.1778e-07
-1.34897e-05
4.33698e-06
-2.52122e-07
-1.39717e-05
1.53583e-06
-4.84021e-07
-1.32938e-05
-4.66368e-07
-4.1733e-07
-1.22243e-05
-1.73642e-06
-1.28427e-07
-1.08103e-05
-2.88545e-06
1.34227e-07
-9.11711e-06
-3.38863e-06
3.55107e-07
-7.10848e-06
-4.11294e-06
9.08252e-07
-4.81951e-06
-4.90339e-06
1.43533e-06
-2.07039e-06
-4.20985e-06
7.5448e-07
-1.87465e-06
2.11881e-07
-3.00121e-06
-3.50097e-06
1.25715e-07
-2.33759e-06
-3.99694e-06
-2.75139e-07
-2.29195e-06
-3.36949e-06
3.73915e-07
-1.98022e-06
-3.54344e-06
2.85031e-07
-1.53367e-06
-2.93004e-06
2.44346e-07
-9.56104e-07
-2.71572e-06
1.30379e-07
-6.01376e-07
-1.04698e-06
6.79517e-08
-3.91705e-07
-4.85082e-07
6.80601e-08
-4.93348e-07
2.44106e-07
-1.62524e-08
-5.97252e-07
2.08103e-07
-6.60373e-08
-6.24152e-07
1.07329e-07
-1.52828e-07
-6.25478e-07
-2.2812e-08
-2.19843e-07
-6.37586e-07
-8.73768e-09
-2.5206e-07
-6.19686e-07
-6.79125e-08
-2.88899e-07
-5.65807e-07
-9.00548e-08
-3.10151e-07
-4.83309e-07
-1.26113e-07
-3.34043e-07
-4.0376e-07
-1.06218e-07
-3.3477e-07
-3.2396e-07
-1.05156e-07
-3.40592e-07
-2.63952e-07
-7.45952e-08
-3.33854e-07
-2.16293e-07
-5.34268e-08
-3.31076e-07
-1.84536e-07
-2.38528e-08
-3.26607e-07
-1.64789e-07
3.18515e-09
-3.24922e-07
-1.52751e-07
2.74224e-08
-3.23701e-07
-1.46233e-07
5.04104e-08
-3.23615e-07
-1.43662e-07
7.24175e-08
-3.24317e-07
-1.43748e-07
9.3849e-08
-3.25615e-07
-1.45407e-07
1.15352e-07
-3.27349e-07
-1.47537e-07
1.37587e-07
-3.29357e-07
-1.48795e-07
1.60643e-07
-3.31849e-07
-1.47756e-07
1.84147e-07
-3.34975e-07
-1.42928e-07
2.07845e-07
-3.38816e-07
-1.32909e-07
2.31914e-07
-3.43296e-07
-1.17289e-07
2.56396e-07
-3.47673e-07
-9.71321e-08
2.81652e-07
-3.50705e-07
-7.68793e-08
3.08309e-07
-3.49986e-07
-6.45527e-08
3.38267e-07
-3.43022e-07
-6.71136e-08
3.73862e-07
-3.28065e-07
-9.69243e-08
4.20015e-07
-3.04996e-07
-1.65679e-07
4.78186e-07
-2.7363e-07
-2.79683e-07
5.41945e-07
-2.35811e-07
-4.30488e-07
5.98178e-07
-1.96989e-07
-5.83305e-07
6.43286e-07
-1.74498e-07
-6.85285e-07
7.42029e-07
-2.02988e-07
-6.36899e-07
9.4553e-07
-3.28559e-07
-2.51158e-07
1.0836e-06
-5.65159e-07
4.1016e-07
1.04665e-06
-7.81208e-07
9.82665e-07
1.14077e-06
-7.54825e-07
1.21639e-06
9.40682e-07
-6.71257e-07
1.73797e-06
-1.06136e-07
-9.17005e-07
3.98087e-06
-3.2382e-06
-1.0252e-06
8.05911e-06
-9.72865e-06
-1.91397e-07
1.25001e-05
-1.76578e-05
1.0037e-06
1.21198e-05
-2.41485e-05
3.20123e-06
2.5573e-06
-2.21585e-05
7.99822e-06
-6.50075e-06
-1.83354e-05
9.32472e-06
-6.94282e-06
-9.67762e-06
-2.64329e-06
7.30078e-06
8.29585e-06
-1.62185e-05
2.12008e-05
1.89215e-06
-9.74019e-06
-2.71677e-06
3.65226e-05
1.79791e-05
-3.74988e-05
-1.49474e-05
-3.58945e-06
-0.000101144
-3.84563e-05
-5.85935e-06
-9.89183e-05
-1.30638e-05
2.14629e-06
-0.000101387
-1.08499e-05
5.50431e-06
-0.000107541
-8.29613e-06
5.98238e-06
-0.000108398
-7.23283e-06
3.81086e-06
-0.000102481
-6.4043e-06
1.11197e-06
-5.15233e-05
-3.51699e-06
1.20142e-07
-5.64772e-06
-1.78549e-06
-3.87555e-07
-5.70764e-06
1.90419e-06
1.08455e-06
-4.45624e-05
4.86772e-06
3.50112e-06
-8.79021e-05
6.73629e-06
4.40936e-06
-5.17867e-05
5.6552e-06
3.83574e-06
-1.12893e-05
5.52771e-06
1.98951e-06
-5.23429e-05
6.42433e-06
-1.20551e-06
-9.14136e-05
7.45609e-06
-3.17387e-06
-5.17609e-05
9.3234e-06
-3.42366e-06
-1.31709e-05
1.16004e-05
-2.3799e-06
-1.29168e-05
1.17129e-05
-1.48377e-06
-1.2202e-05
1.09959e-05
-3.98338e-07
-1.18873e-05
8.59328e-06
1.04074e-06
-1.24562e-05
7.11781e-06
1.59179e-06
-1.30788e-05
6.52476e-06
3.39303e-07
-1.29914e-05
6.98402e-06
-1.83146e-06
-1.28644e-05
7.29651e-06
-1.99515e-06
-1.39562e-05
7.14587e-06
-7.26297e-07
-1.58259e-05
6.58063e-06
6.57278e-07
-6.66141e-05
4.29934e-06
9.78446e-07
-0.000115927
-4.43313e-08
1.2353e-06
-6.65679e-05
-2.89016e-06
1.9796e-06
-1.60344e-05
-5.96121e-06
2.91002e-06
-1.45925e-05
-7.79813e-06
3.30179e-06
-1.33647e-05
-8.97469e-06
3.25784e-06
-1.16445e-05
-1.06664e-05
4.0698e-06
-8.72783e-06
-1.18998e-05
3.87736e-06
-4.28732e-06
-1.13925e-05
3.09587e-06
-8.15301e-06
2.3813e-06
-3.42278e-06
-3.65154e-06
3.70955e-07
-2.5999e-06
-4.27845e-06
-5.41363e-07
-2.44885e-06
-3.8034e-06
2.82838e-07
-1.94707e-06
-4.15115e-06
1.0592e-07
-1.59287e-06
-3.58812e-06
3.03853e-07
-1.18088e-06
-3.37725e-06
2.49528e-07
-8.10103e-07
-1.70645e-06
2.88675e-07
-3.69921e-07
-1.09634e-06
1.71061e-07
-2.23883e-07
6.65188e-08
3.15372e-08
-2.7821e-07
2.59662e-07
2.75514e-09
-3.11118e-07
2.49492e-07
-1.09267e-07
-4.04921e-07
2.18323e-07
-1.47345e-07
-4.9006e-07
2.64495e-07
-1.88107e-07
-5.43956e-07
2.08808e-07
-2.22839e-07
-5.2691e-07
1.55297e-07
-2.62411e-07
-4.76818e-07
1.16697e-07
-2.92918e-07
-4.12906e-07
1.42289e-07
-3.12434e-07
-3.43649e-07
1.56179e-07
-3.30607e-07
-2.86168e-07
2.01961e-07
-3.34053e-07
-2.36435e-07
2.33883e-07
-3.37059e-07
-2.00027e-07
2.73927e-07
-3.34204e-07
-1.73212e-07
3.07695e-07
-3.31342e-07
-1.57126e-07
3.39777e-07
-3.28458e-07
-1.47823e-07
3.67439e-07
-3.26349e-07
-1.43298e-07
3.92483e-07
-3.24608e-07
-1.41872e-07
4.15745e-07
-3.2334e-07
-1.42017e-07
4.3799e-07
-3.22511e-07
-1.4187e-07
4.59611e-07
-3.22188e-07
-1.39499e-07
4.80609e-07
-3.22355e-07
-1.33917e-07
5.01073e-07
-3.22525e-07
-1.25221e-07
5.21323e-07
-3.22192e-07
-1.1368e-07
5.41186e-07
-3.20831e-07
-1.01153e-07
5.61127e-07
-3.17277e-07
-9.16298e-08
5.82227e-07
-3.10117e-07
-9.08786e-08
6.05401e-07
-2.97862e-07
-1.05252e-07
6.32655e-07
-2.80033e-07
-1.3976e-07
6.65404e-07
-2.57053e-07
-1.98253e-07
7.0813e-07
-2.29641e-07
-2.80594e-07
7.59431e-07
-1.98922e-07
-3.77236e-07
8.08651e-07
-1.70082e-07
-4.60279e-07
8.40285e-07
-1.59083e-07
-4.80201e-07
8.61901e-07
-1.98711e-07
-3.65103e-07
9.51596e-07
-3.24683e-07
3.37394e-08
1.07792e-06
-5.31252e-07
8.09226e-07
1.0425e-06
-7.34405e-07
1.70645e-06
9.90749e-07
-8.41344e-07
2.41053e-06
1.2285e-06
-7.91829e-07
3.00048e-06
1.45399e-06
-1.10328e-06
4.86729e-06
-3.30258e-07
-1.64271e-06
8.53619e-06
-5.71474e-06
-1.19239e-06
1.09657e-05
-1.29826e-05
8.24436e-07
9.33663e-06
-1.86085e-05
2.57965e-06
-4.22855e-07
-2.08698e-05
6.48078e-06
-1.20501e-05
-1.85509e-05
8.01972e-06
-1.91307e-05
-1.42125e-05
2.95774e-06
-1.58058e-05
-8.65919e-07
-1.21362e-05
3.0767e-06
1.34455e-05
-2.40324e-05
1.00122e-05
-5.03982e-06
-3.44753e-09
-2.50475e-06
2.88406e-05
1.90159e-05
-4.22786e-05
-1.26419e-05
-4.9319e-06
-0.000110871
-3.51562e-05
-7.70939e-06
-0.000108692
-1.50067e-05
2.31804e-06
-0.000112245
-1.2195e-05
3.76678e-06
-0.000120015
-7.4892e-06
5.94148e-06
-0.000123865
-7.32477e-06
3.96665e-06
-0.000126629
-5.70366e-06
2.28249e-06
-0.000127518
-4.42281e-06
1.05502e-06
-0.000127325
-5.11798e-07
8.37135e-07
-0.00012717
2.73188e-06
1.33287e-06
-0.000129576
5.63424e-06
1.62517e-06
-0.000133146
6.75212e-06
1.14912e-06
-0.000135458
7.34453e-06
-4.2894e-07
-0.000136795
8.29069e-06
-1.42243e-06
-0.000138983
8.92945e-06
-1.79055e-06
-0.000140194
8.93096e-06
-9.66961e-07
-0.000137119
8.97181e-06
-1.43061e-07
-0.000133433
9.3433e-06
5.52979e-07
-0.000132393
8.95742e-06
9.67635e-07
-0.000132481
8.09144e-06
1.51902e-06
-0.000133049
7.04008e-06
1.63159e-06
-0.000133348
6.7673e-06
1.5321e-06
-0.000133341
6.70468e-06
4.23003e-07
-0.000132881
7.21127e-06
-4.72615e-07
-0.000132712
7.32968e-06
-2.95519e-07
-0.000134715
7.11103e-06
6.99909e-07
-0.000137344
6.09521e-06
1.58223e-06
-0.000140119
3.22676e-06
2.1992e-06
-0.000143037
-5.96317e-07
2.65849e-06
-0.00014472
-4.41126e-06
2.60211e-06
-0.000145596
-7.86834e-06
2.69444e-06
-0.000145625
-1.0317e-05
2.79961e-06
-0.000144581
-1.22024e-05
2.71726e-06
-0.000142894
-1.40356e-05
2.59688e-06
-0.000139166
-1.5125e-05
1.54447e-06
-0.000132412
-1.49534e-05
1.22857e-06
-1.34104e-05
-1.07498e-07
-4.06772e-06
-3.52284e-06
2.99292e-07
-3.10707e-06
-4.40534e-06
-8.33765e-07
-2.96875e-06
-3.9162e-06
-2.55138e-08
-2.08029e-06
-4.46946e-06
-5.70161e-07
-1.45269e-06
-4.08267e-06
-1.33057e-07
-8.84817e-07
-3.88946e-06
-5.56768e-08
-5.54703e-07
-2.32108e-06
2.84506e-07
-2.72488e-07
-1.58647e-06
2.07906e-07
-6.52302e-08
-2.27716e-07
8.69665e-08
-3.32132e-08
1.96451e-07
3.11848e-08
3.72793e-08
2.71159e-07
-9.21706e-08
-1.2552e-07
4.52179e-07
-7.10677e-08
-2.92845e-07
5.6549e-07
-1.3368e-07
-4.32626e-07
5.20312e-07
-1.71734e-07
-4.52909e-07
4.18474e-07
-2.42906e-07
-4.27878e-07
3.75724e-07
-2.84069e-07
-3.83784e-07
4.13675e-07
-3.15491e-07
-3.37526e-07
4.46795e-07
-3.36886e-07
-2.96609e-07
5.07382e-07
-3.4635e-07
-2.58971e-07
5.48232e-07
-3.52e-07
-2.30386e-07
5.95327e-07
-3.49998e-07
-2.08662e-07
6.3218e-07
-3.4622e-07
-1.94981e-07
6.65861e-07
-3.39779e-07
-1.878e-07
6.93008e-07
-3.32762e-07
-1.85233e-07
7.16315e-07
-3.26411e-07
-1.85707e-07
7.37348e-07
-3.21142e-07
-1.8772e-07
7.57124e-07
-3.17134e-07
-1.88897e-07
7.7487e-07
-3.14095e-07
-1.87866e-07
7.91083e-07
-3.11518e-07
-1.84261e-07
8.06468e-07
-3.09012e-07
-1.79141e-07
8.22118e-07
-3.05927e-07
-1.74561e-07
8.38138e-07
-3.01545e-07
-1.74739e-07
8.55474e-07
-2.94181e-07
-1.84763e-07
8.75042e-07
-2.82802e-07
-2.09939e-07
8.97686e-07
-2.67121e-07
-2.52608e-07
9.23166e-07
-2.47853e-07
-3.09638e-07
9.50013e-07
-2.27588e-07
-3.70105e-07
9.77516e-07
-2.08929e-07
-4.16224e-07
1.00367e-06
-1.9813e-07
-4.30469e-07
1.0283e-06
-2.05414e-07
-4.08267e-07
1.0651e-06
-2.47025e-07
-3.16021e-07
1.12419e-06
-3.54549e-07
-3.11667e-08
1.2258e-06
-5.5907e-07
6.15089e-07
1.24583e-06
-8.14171e-07
1.57812e-06
1.05732e-06
-9.77865e-07
2.39415e-06
1.07094e-06
-8.96228e-07
3.27851e-06
1.38479e-06
-1.04066e-06
4.77087e-06
1.60218e-06
-1.64056e-06
7.80708e-06
-1.92477e-06
-1.44172e-06
9.84158e-06
-8.27194e-06
5.22668e-07
3.83964e-06
-9.42455e-06
2.44379e-06
-7.2433e-06
-1.04076e-05
2.88206e-06
-1.44417e-05
-1.68374e-05
3.16615e-06
-1.71375e-05
-1.86537e-05
2.79864e-06
-1.78002e-05
-1.50985e-05
1.54881e-06
-1.61409e-05
-3.3052e-06
7.80337e-07
2.20489e-06
3.30988e-06
-8.21147e-06
-8.4595e-06
-1.33374e-06
6.95907e-06
-3.37693e-06
3.11099e-06
1.76812e-05
-4.82419e-05
-9.30475e-06
-8.14497e-06
-0.000121849
-1.71845e-05
-1.18816e-05
-0.000118185
-1.50646e-05
1.18925e-06
-0.000123166
-1.07829e-05
1.8174e-06
-0.000132595
-3.65372e-06
5.79484e-06
-0.000141111
-2.74479e-06
3.88649e-06
-0.000148642
-6.75202e-07
2.45324e-06
-0.000151948
-1.71355e-06
3.82362e-07
-0.000152345
-3.06064e-07
-8.4175e-07
-0.000151226
1.3497e-06
-8.79577e-07
-0.000150166
3.86151e-06
2.19577e-07
-0.000150068
5.38382e-06
9.684e-07
-0.000150551
6.54037e-06
1.30628e-06
-0.000150749
7.33332e-06
1.29694e-06
-0.000150803
7.30033e-06
1.63792e-06
-0.000150166
6.37583e-06
2.15659e-06
-0.000148997
5.95095e-06
2.64499e-06
-0.000148016
6.30893e-06
3.00217e-06
-0.000147401
6.74127e-06
3.07871e-06
-0.000147956
6.65352e-06
3.22304e-06
-0.000149966
6.29242e-06
3.24416e-06
-0.000152044
6.25821e-06
2.79138e-06
-0.000152738
6.00497e-06
1.34007e-06
-0.000152428
6.38679e-06
5.42222e-07
-0.00015212
7.00863e-06
4.46853e-07
-0.000152599
7.5119e-06
9.01783e-07
-0.000155295
7.22931e-06
1.52179e-06
-0.000158606
4.76658e-06
1.7294e-06
-0.000160577
-1.61681e-08
1.52758e-06
-0.000160807
-5.61721e-06
9.73996e-07
-0.000160353
-1.00884e-05
8.30481e-07
-0.000159358
-1.31385e-05
9.5509e-08
-0.000157117
-1.50466e-05
-1.13131e-06
-0.000154604
-1.67219e-05
-2.27629e-06
-0.000150572
-1.79022e-05
-3.32778e-06
-0.000143353
-1.82941e-05
-4.96842e-06
-1.6759e-05
-6.08777e-06
-4.5266e-06
-3.06543e-06
2.04258e-07
-3.37598e-06
-4.06226e-06
-1.49371e-06
-3.34509e-06
-3.3688e-06
-5.78298e-07
-2.20995e-06
-4.08285e-06
-1.52176e-06
-1.3403e-06
-3.90526e-06
-1.04706e-06
-5.19276e-07
-3.82862e-06
-8.81877e-07
-3.34485e-08
-2.47779e-06
-3.29122e-07
1.54088e-08
-1.63757e-06
2.24065e-09
7.79942e-08
-3.26169e-07
3.58612e-08
7.89397e-08
1.82958e-07
1.25397e-08
2.00384e-07
2.83966e-07
-1.34259e-07
4.31544e-08
6.21415e-07
-1.20142e-08
-1.18734e-07
8.07661e-07
-8.02891e-08
-2.81508e-07
7.99136e-07
-1.16058e-07
-3.17726e-07
6.8991e-07
-2.35224e-07
-3.2441e-07
6.71127e-07
-2.88725e-07
-3.18796e-07
7.38399e-07
-3.30345e-07
-3.12725e-07
7.85397e-07
-3.44679e-07
-3.05082e-07
8.55823e-07
-3.5609e-07
-2.93237e-07
8.97671e-07
-3.6129e-07
-2.82568e-07
9.46085e-07
-3.61433e-07
-2.72901e-07
9.81324e-07
-3.58817e-07
-2.68362e-07
1.01257e-06
-3.51257e-07
-2.67337e-07
1.03549e-06
-3.43509e-07
-2.68708e-07
1.0536e-06
-3.35923e-07
-2.71535e-07
1.0686e-06
-3.28425e-07
-2.75206e-07
1.08136e-06
-3.20571e-07
-2.7841e-07
1.09106e-06
-3.12992e-07
-2.8062e-07
1.09986e-06
-3.06565e-07
-2.82856e-07
1.10932e-06
-3.00618e-07
-2.87538e-07
1.12101e-06
-2.94212e-07
-2.9821e-07
1.1351e-06
-2.86292e-07
-3.19263e-07
1.15278e-06
-2.76257e-07
-3.54586e-07
1.17358e-06
-2.63218e-07
-4.04883e-07
1.19597e-06
-2.47984e-07
-4.62931e-07
1.21436e-06
-2.33147e-07
-5.11771e-07
1.2218e-06
-2.22944e-07
-5.29552e-07
1.21813e-06
-2.22831e-07
-4.93489e-07
1.20779e-06
-2.4018e-07
-3.96773e-07
1.21475e-06
-2.83159e-07
-2.48894e-07
1.27695e-06
-3.59728e-07
-4.467e-08
1.40858e-06
-4.88609e-07
3.08545e-07
1.57038e-06
-6.97784e-07
9.9408e-07
1.52294e-06
-9.62645e-07
1.94921e-06
1.2028e-06
-1.1006e-06
3.00791e-06
9.7846e-07
-9.66213e-07
4.58725e-06
8.91703e-07
-1.08625e-06
7.51476e-06
4.7585e-07
-1.80118e-06
8.54933e-06
-3.49387e-06
5.34499e-07
-6.58498e-07
-3.10698e-06
4.04281e-06
-1.57118e-05
9.52771e-07
4.67596e-06
-2.46816e-05
-3.49445e-06
2.05674e-06
-2.9497e-05
-1.29209e-05
8.99022e-07
-3.41104e-05
-1.55832e-05
1.54293e-06
-3.62625e-05
-1.29293e-05
-1.69419e-08
-2.90235e-05
-8.03926e-06
-2.50454e-06
8.20646e-07
-1.81948e-05
-8.34033e-06
-6.15774e-06
-9.21446e-06
1.4859e-05
1.35411e-07
-9.31676e-06
1.77568e-06
-5.69e-05
3.73072e-07
-7.85373e-06
-0.000135312
6.42258e-06
-1.33697e-05
-0.00013513
-1.13772e-05
-2.1243e-06
-0.000141776
-4.70377e-06
-1.73812e-06
-0.000151653
3.0575e-06
1.69387e-06
-0.000160232
4.40273e-06
1.38797e-06
-0.000166778
4.57575e-06
1.04993e-06
-0.000169789
2.05721e-06
-2.25218e-07
-0.000170451
9.1607e-07
-5.96928e-07
-0.000169517
8.20576e-07
-1.09267e-06
-0.000167616
2.12484e-06
-1.00116e-06
-0.000165601
3.62785e-06
-4.1872e-07
-0.000164778
5.34618e-06
2.51017e-07
-0.000164605
6.49001e-06
1.19189e-06
-0.000166384
7.34512e-06
2.64159e-06
-0.000171273
8.26616e-06
3.12342e-06
-0.000177631
8.31417e-06
3.01742e-06
-0.000181554
7.83576e-06
1.88439e-06
-0.000182461
7.20677e-06
1.55146e-06
-0.000183523
6.88361e-06
1.42587e-06
-0.00018453
6.20692e-06
9.51418e-07
-0.000183111
5.34623e-06
5.84815e-07
-0.000180812
4.49893e-06
-8.09679e-08
-0.000178487
4.3918e-06
-5.98411e-07
-0.000176162
4.76683e-06
-3.38995e-07
-0.000174348
5.00813e-06
2.87677e-07
-0.000172956
4.63108e-06
8.09131e-07
-0.000172673
2.17735e-06
1.2912e-06
-0.000171975
-3.61831e-06
1.69197e-06
-0.000170849
-1.1026e-05
2.27114e-06
-0.000170191
-1.52396e-05
2.84321e-06
-0.00016898
-1.77831e-05
1.96109e-06
-0.000166913
-1.88222e-05
3.28655e-07
-0.00016472
-1.99338e-05
-1.56158e-06
-0.000159834
-2.10788e-05
-4.27836e-06
-0.000150306
-2.32205e-05
-6.97215e-06
-2.19471e-05
-7.85099e-06
-4.71673e-06
-2.04201e-06
8.05249e-08
-3.33858e-06
-3.26322e-06
-2.17719e-06
-3.40217e-06
-2.33446e-06
-9.70745e-07
-2.35631e-06
-3.13261e-06
-1.99611e-06
-1.42073e-06
-3.18741e-06
-1.65344e-06
-4.81314e-07
-3.24661e-06
-1.52142e-06
2.03452e-07
-2.12904e-06
-1.03352e-06
2.46539e-07
-1.23918e-06
-4.41483e-07
1.91129e-07
-7.68241e-08
-1.93939e-07
1.49166e-07
3.25601e-07
-1.00685e-07
2.04592e-07
4.66463e-07
-2.37927e-07
9.31883e-08
8.03796e-07
-7.09813e-08
2.90312e-08
1.05977e-06
-1.87956e-07
-4.05342e-08
1.08198e-06
-2.13282e-07
-8.86296e-08
1.10936e-06
-3.71358e-07
-1.52929e-07
1.14109e-06
-4.05663e-07
-2.09575e-07
1.25642e-06
-4.61371e-07
-2.59135e-07
1.31077e-06
-4.7581e-07
-2.9725e-07
1.38982e-06
-4.9588e-07
-3.24415e-07
1.43466e-06
-5.0982e-07
-3.43281e-07
1.48576e-06
-5.20807e-07
-3.59713e-07
1.52518e-06
-5.2742e-07
-3.73399e-07
1.55764e-06
-5.31376e-07
-3.84097e-07
1.57901e-06
-5.32821e-07
-3.92246e-07
1.59416e-06
-5.324e-07
-3.98203e-07
1.60621e-06
-5.31649e-07
-4.02437e-07
1.61636e-06
-5.30756e-07
-4.05584e-07
1.62445e-06
-5.30231e-07
-4.09073e-07
1.63271e-06
-5.29359e-07
-4.15597e-07
1.64316e-06
-5.27315e-07
-4.29067e-07
1.65793e-06
-5.2344e-07
-4.53909e-07
1.67765e-06
-5.17704e-07
-4.93424e-07
1.7031e-06
-5.10798e-07
-5.45277e-07
1.72978e-06
-5.04334e-07
-6.01521e-07
1.75221e-06
-4.99987e-07
-6.46584e-07
1.76132e-06
-5.0188e-07
-6.61071e-07
1.7488e-06
-5.12499e-07
-6.2435e-07
1.71734e-06
-5.35914e-07
-5.26439e-07
1.6865e-06
-5.76607e-07
-3.75694e-07
1.69902e-06
-6.34998e-07
-2.02605e-07
1.81794e-06
-7.14059e-07
-1.71272e-08
2.04993e-06
-8.26804e-07
2.72887e-07
2.28386e-06
-1.00347e-06
8.44871e-07
2.1912e-06
-1.24021e-06
1.79399e-06
1.63103e-06
-1.37732e-06
3.13843e-06
8.51553e-07
-1.21751e-06
4.97031e-06
3.58619e-07
-1.29877e-06
6.54018e-06
3.45467e-07
-1.43949e-06
-3.79289e-06
2.60339e-06
4.23581e-06
-2.04956e-05
6.84424e-06
6.75154e-06
-2.79819e-05
7.33691e-06
1.10221e-06
-3.04572e-05
9.03809e-07
-1.92293e-06
-3.63186e-05
-5.80635e-06
-1.25307e-06
-4.16889e-05
-1.02416e-05
2.87651e-08
-4.39868e-05
-1.00512e-05
-5.80035e-07
-3.7788e-05
-1.17117e-05
-2.5262e-06
-4.51782e-05
-9.51298e-06
-1.29207e-06
-3.96186e-05
-1.46191e-05
-1.54161e-07
-3.11093e-06
-4.46547e-05
-3.8534e-06
-6.1521e-05
9.35142e-06
-9.36827e-06
-0.000159908
2.80594e-05
-1.2655e-05
-0.000163347
-3.38798e-06
1.02053e-06
-0.000173094
3.57882e-06
2.20013e-06
-0.000187596
9.64049e-06
5.42169e-06
-0.000197259
1.09251e-05
4.45733e-06
-0.000203101
6.26003e-06
4.19204e-06
-0.000205974
2.39268e-06
2.81025e-06
-0.00020738
-1.48226e-07
2.66439e-06
-0.000207348
-1.57811e-06
2.3359e-06
-0.000207109
-8.80901e-07
2.58222e-06
-0.00020783
2.18402e-06
2.4368e-06
-0.000210975
6.05606e-06
1.73558e-06
-0.00021515
9.01728e-06
7.22268e-07
-0.000219222
1.10557e-05
-3.30665e-07
-0.00022292
1.23069e-05
-9.60079e-07
-0.000225201
1.13914e-05
-1.48911e-06
-0.000224889
9.01704e-06
-1.96444e-06
-0.000222741
6.90748e-06
-1.6793e-06
-0.000220642
6.11199e-06
-1.41951e-06
-0.000218258
5.80548e-06
-2.21471e-06
-0.000214707
5.02805e-06
-3.33001e-06
-0.000210315
4.53536e-06
-4.19135e-06
-0.000205297
4.58866e-06
-4.86668e-06
-0.000199209
4.27298e-06
-5.01558e-06
-0.000191981
2.26238e-06
-3.83577e-06
-0.000184571
-1.7217e-07
-1.82067e-06
-0.000178112
-4.8254e-06
1.23059e-06
-0.00017583
-7.77301e-06
4.63037e-06
-0.000179228
-1.46744e-05
6.78022e-06
-0.000182644
-1.8655e-05
6.90571e-06
-0.000185713
-2.06516e-05
7.67133e-06
-0.000188526
-2.08949e-05
4.9053e-06
-0.000192817
-1.89876e-05
3.55126e-07
-0.000192411
-1.96428e-05
-5.45504e-06
-0.000182693
-2.21935e-05
-1.13107e-05
-2.69088e-05
-1.17603e-05
-4.40966e-06
4.41183e-07
1.97237e-06
-3.39926e-06
-2.64941e-06
-1.62422e-06
-3.63098e-06
-1.23896e-06
-8.63783e-07
-2.55567e-06
-2.24707e-06
-1.96086e-06
-1.56263e-06
-2.36151e-06
-1.81895e-06
-5.34435e-07
-2.62765e-06
-1.64716e-06
2.4944e-07
-1.67031e-06
-1.24261e-06
9.55214e-08
-5.54624e-07
-5.30643e-07
-5.83963e-08
2.51947e-07
-1.74855e-07
-1.89253e-08
3.06962e-07
-2.08327e-08