/*--------------------------------*- C++ -*----------------------------------*\
| =========                 |                                                 |
| \\      /  F ield         | OpenFOAM: The Open Source CFD Toolbox           |
|  \\    /   O peration     | Version:  2.3.0                                 |
|   \\  /    A nd           | Web:      www.OpenFOAM.org                      |
|    \\/     M anipulation  |                                                 |
\*---------------------------------------------------------------------------*/
FoamFile
{
    version     2.0;
    format      ascii;
    class       surfaceScalarField;
    location    "19";
    object      phi.water;
}
// * * * * * * * * * * * * * * * * * * * * * * * * * * * * * * * * * * * * * //

dimensions      [0 3 -1 0 0 0 0];

internalField   nonuniform List<scalar> 
16448
(
-2.31008e-06
-2.10837e-06
7.96632e-07
-1.06932e-06
-2.18504e-06
9.46893e-07
-5.91929e-07
-1.66485e-06
1.18933e-06
-1.15917e-07
-1.59028e-06
1.11613e-06
1.79937e-08
-1.02865e-06
8.9816e-07
1.43175e-07
-8.90793e-07
7.6985e-07
1.27164e-07
-5.02194e-07
5.22733e-07
-1.73059e-08
-3.51978e-07
4.99096e-07
-2.39344e-07
-2.76011e-07
4.99334e-07
-4.35589e-07
-2.39005e-07
4.35488e-07
-5.62711e-07
-2.61683e-07
3.89229e-07
-5.31714e-07
-3.37759e-07
3.06879e-07
-4.38401e-07
-3.87796e-07
2.94824e-07
-2.84437e-07
-4.34043e-07
2.80206e-07
-1.71486e-07
-4.39666e-07
3.27039e-07
-7.15408e-08
-4.57983e-07
3.5823e-07
-1.12699e-08
-4.60453e-07
4.00492e-07
3.38798e-08
-4.70708e-07
4.25786e-07
6.13017e-08
-4.74838e-07
4.47694e-07
7.92095e-08
-4.77448e-07
4.59792e-07
8.8987e-08
-4.76477e-07
4.66971e-07
9.36866e-08
-4.73781e-07
4.69343e-07
9.47528e-08
-4.69486e-07
4.68697e-07
9.35175e-08
-4.64129e-07
4.65635e-07
9.07671e-08
-4.57886e-07
4.60924e-07
8.66791e-08
-4.50795e-07
4.55164e-07
8.10044e-08
-4.42837e-07
4.48812e-07
7.31207e-08
-4.33886e-07
4.42062e-07
6.25988e-08
-4.23864e-07
4.34701e-07
4.97013e-08
-4.13065e-07
4.2627e-07
3.5324e-08
-4.01355e-07
4.16067e-07
2.05088e-08
-3.87944e-07
4.03089e-07
7.61415e-09
-3.72519e-07
3.85777e-07
-2.22102e-10
-3.54797e-07
3.62992e-07
2.02931e-09
-3.34811e-07
3.32958e-07
1.90514e-08
-3.12788e-07
2.96159e-07
5.47412e-08
-2.89132e-07
2.53875e-07
1.0464e-07
-2.6385e-07
2.14368e-07
1.59011e-07
-2.37827e-07
1.83901e-07
1.95744e-07
-2.09101e-07
1.72793e-07
1.82774e-07
-1.76685e-07
1.90142e-07
7.13011e-08
-1.37214e-07
2.49176e-07
-1.94637e-07
-9.65609e-08
3.62986e-07
-6.78919e-07
-2.64459e-08
5.11094e-07
-1.35162e-06
6.40842e-08
6.09071e-07
-1.97281e-06
7.52112e-08
5.47227e-07
-2.39561e-06
-7.93947e-08
5.07625e-07
-2.65188e-06
-3.99079e-07
6.72408e-07
-2.70903e-06
-8.42876e-07
9.53364e-07
-2.50174e-06
-1.56337e-06
1.45895e-06
-3.11129e-06
-1.92807e-06
2.63741e-06
-4.75129e-06
-1.79723e-06
3.48603e-06
-2.22907e-06
-5.86804e-06
3.42284e-06
4.99407e-06
-9.75201e-06
2.45985e-06
1.10853e-05
-1.00955e-05
4.12101e-06
1.49845e-05
-6.50462e-06
2.43412e-06
1.063e-05
-7.89547e-07
5.36485e-06
8.68896e-06
9.23824e-07
3.9693e-07
-6.2046e-07
8.6885e-06
1.07036e-05
3.00955e-05
-2.41837e-06
-7.66136e-06
2.65685e-05
-2.58275e-05
1.33346e-07
3.38724e-05
-1.54339e-05
6.41703e-06
3.56156e-05
-8.70859e-06
6.9598e-06
3.78731e-05
-7.61817e-06
5.36066e-06
3.95217e-05
-5.80276e-06
4.15418e-06
4.02539e-05
-4.26776e-06
3.53555e-06
4.01593e-05
-2.70821e-06
2.80274e-06
3.99443e-05
-1.61753e-06
1.83255e-06
3.94887e-05
-9.22522e-08
5.47818e-07
3.84017e-05
1.64685e-06
-5.5987e-07
3.72752e-05
1.24208e-06
-1.15491e-07
3.58147e-05
9.5558e-07
5.0483e-07
3.38495e-05
1.13039e-06
8.34803e-07
3.05924e-05
8.33977e-07
2.42319e-06
2.58579e-05
-3.36135e-07
5.07061e-06
1.79925e-05
2.74211e-06
5.12332e-06
9.51724e-06
5.21973e-06
3.2555e-06
2.57487e-06
4.67358e-06
2.26879e-06
-6.62987e-07
3.82452e-06
-5.86663e-07
3.28023e-08
3.10871e-06
-3.8045e-06
2.77945e-07
2.39094e-06
-2.63608e-06
-1.00631e-06
8.13498e-07
4.70757e-07
-1.24212e-06
4.86593e-07
-2.50786e-07
-2.42598e-07
4.07551e-07
-1.40707e-06
2.59515e-08
1.34636e-07
-4.03185e-07
-4.039e-07
6.38446e-08
3.66007e-07
-1.40419e-06
2.46843e-07
7.53442e-07
-2.99065e-06
3.56576e-07
1.22989e-06
-4.51521e-06
1.36045e-07
1.38851e-06
-5.69347e-06
-1.61295e-07
1.33955e-06
-6.25792e-06
-5.71274e-07
1.13573e-06
-6.19944e-06
-7.15333e-07
6.56851e-07
-5.49518e-06
-6.14831e-07
-8.94245e-08
-3.89658e-06
-5.82467e-07
-1.01613e-06
-1.65769e-06
-6.65666e-07
-1.57322e-06
-1.06993e-07
-1.5507e-06
-2.9316e-06
-3.01518e-06
1.56597e-07
-2.20996e-06
-3.17787e-06
2.76177e-07
-1.8504e-06
-2.5532e-06
5.3278e-07
-1.27716e-06
-2.41967e-06
2.59975e-07
-8.09503e-07
-1.66234e-06
1.70702e-07
-3.20745e-07
-1.44387e-06
6.80224e-08
-2.57454e-07
-5.71178e-07
8.60978e-09
-3.94882e-07
-2.97102e-07
8.30178e-08
-6.28462e-07
-1.3328e-07
9.10759e-08
-7.60332e-07
-1.51127e-07
4.37216e-08
-8.20429e-07
-2.22623e-07
2.10268e-08
-7.29618e-07
-3.74031e-07
-5.48869e-08
-6.15626e-07
-4.35057e-07
-6.67283e-08
-4.58853e-07
-5.03424e-07
-8.75897e-08
-3.29172e-07
-5.08466e-07
-6.0874e-08
-2.05578e-07
-5.3528e-07
-4.64304e-08
-1.23829e-07
-5.28736e-07
-1.34993e-08
-6.00034e-08
-5.37889e-07
3.24263e-09
-1.75716e-08
-5.33163e-07
1.58577e-08
1.25872e-08
-5.29852e-07
2.22021e-08
3.12271e-08
-5.21284e-07
2.61458e-08
4.24016e-08
-5.11817e-07
2.68462e-08
4.80207e-08
-5.00766e-07
2.56494e-08
5.01627e-08
-4.89042e-07
2.27647e-08
4.99126e-08
-4.76695e-07
1.90505e-08
4.79072e-08
-4.63607e-07
1.48143e-08
4.41114e-08
-4.49427e-07
1.03769e-08
3.78991e-08
-4.33662e-07
5.98385e-09
2.87216e-08
-4.16062e-07
1.36613e-09
1.82418e-08
-3.96679e-07
-5.89588e-09
8.11019e-09
-3.75901e-07
-1.529e-08
-4.64653e-11
-3.5315e-07
-2.65693e-08
-2.98169e-09
-3.28405e-07
-4.10886e-08
3.21041e-09
-3.01325e-07
-5.9524e-08
2.33231e-08
-2.72546e-07
-8.2208e-08
6.02965e-08
-2.42307e-07
-1.07234e-07
1.1359e-07
-2.1066e-07
-1.31516e-07
1.76294e-07
-1.76126e-07
-1.50134e-07
2.32562e-07
-1.37222e-07
-1.56547e-07
2.63136e-07
-9.4179e-08
-1.45118e-07
2.39883e-07
-4.46329e-08
-1.08389e-07
1.20254e-07
1.92997e-08
-3.6435e-08
-1.42775e-07
1.09346e-07
5.75926e-08
-5.93733e-07
2.82759e-07
1.42215e-07
-1.12002e-06
4.86551e-07
1.04987e-07
-1.41131e-06
5.23568e-07
-1.5308e-07
-1.56079e-06
4.39736e-07
-3.58798e-07
-1.86816e-06
-3.41477e-08
-2.8944e-08
-2.21184e-06
-8.68875e-07
4.40636e-07
-2.56677e-06
-2.02336e-06
9.11804e-07
-2.62045e-06
-3.4482e-06
1.66132e-06
-4.52406e-07
-5.71598e-06
1.83709e-06
7.88663e-06
-1.42268e-05
1.57466e-07
1.63659e-05
-1.83225e-05
8.89746e-08
1.9781e-05
-1.57433e-05
2.40387e-06
2.45303e-05
-1.16756e-05
2.93535e-07
2.07574e-05
2.15775e-06
1.36054e-06
1.79674e-05
4.71974e-06
-2.12529e-06
-3.35955e-07
1.88909e-05
1.73108e-05
3.01771e-05
-6.45684e-06
-4.09493e-06
2.2907e-05
-3.92442e-05
-8.01044e-06
2.56933e-05
-2.34114e-05
3.48068e-06
2.1897e-05
-1.31625e-05
8.24563e-06
2.11356e-05
-1.02555e-05
3.39878e-06
1.7656e-05
-5.62561e-06
3.3024e-06
1.49895e-05
-4.99748e-06
3.39623e-06
1.52444e-05
-4.55218e-06
1.58909e-06
1.68838e-05
-3.07987e-06
-1.771e-07
1.94873e-05
3.525e-08
-2.731e-06
2.33613e-05
3.17233e-06
-5.39951e-06
2.51932e-05
5.11918e-06
-5.70898e-06
2.54501e-05
4.95671e-06
-4.25798e-06
2.22075e-05
5.28669e-06
-9.13773e-07
1.52552e-05
5.2059e-06
2.58041e-06
6.76496e-06
3.13564e-06
5.01845e-06
2.04006e-06
3.44077e-06
4.02624e-06
-9.67211e-07
5.90259e-06
2.32442e-06
-3.02096e-06
5.75349e-06
9.73844e-07
-2.5734e-06
5.88285e-06
-2.50589e-06
-5.19209e-07
6.05986e-06
-5.00533e-06
-1.63982e-06
5.32887e-06
-1.81732e-06
-4.45895e-06
3.86665e-06
-2.34026e-07
-4.7112e-06
2.94538e-06
-2.20654e-06
-3.94064e-06
2.36883e-06
-2.73184e-06
-4.8987e-06
2.32216e-06
-1.22947e-06
-7.35701e-06
2.58581e-06
-6.36517e-08
-9.743e-06
2.28176e-06
3.51079e-07
-1.08589e-05
1.31046e-06
1.61993e-07
-1.08907e-05
2.30479e-07
-6.25833e-08
-1.00991e-05
-8.71688e-07
-8.12648e-08
-8.98148e-06
-1.48196e-06
-2.069e-07
-7.71063e-06
-1.46608e-06
-5.20107e-07
-5.92086e-06
-1.35919e-06
-1.0454e-06
-3.87109e-06
-1.30106e-06
-1.33118e-06
-1.85963e-06
-8.17529e-07
-1.8596e-06
-2.36951e-07
-1.72967e-06
-2.87834e-06
-3.33751e-06
4.80955e-08
-2.35834e-06
-3.60821e-06
-8.61652e-08
-2.24636e-06
-2.94971e-06
2.87359e-07
-1.85056e-06
-2.94629e-06
1.33133e-07
-1.30825e-06
-2.23853e-06
3.75867e-08
-6.735e-07
-2.00717e-06
-6.7469e-08
-4.76827e-07
-6.23933e-07
-1.39911e-07
-4.83035e-07
-2.07e-07
-8.32796e-08
-6.53838e-07
1.26533e-07
-8.8701e-08
-7.31939e-07
3.84379e-08
-1.11556e-07
-7.4634e-07
-7.22088e-08
-1.35827e-07
-6.74053e-07
-2.43886e-07
-2.02448e-07
-6.12323e-07
-2.72878e-07
-2.23813e-07
-5.22617e-07
-3.38946e-07
-2.54292e-07
-4.26956e-07
-3.46399e-07
-2.57711e-07
-3.18314e-07
-3.77765e-07
-2.66267e-07
-2.34357e-07
-3.61563e-07
-2.51119e-07
-1.6064e-07
-3.6609e-07
-2.45589e-07
-1.099e-07
-3.48594e-07
-2.35306e-07
-7.18933e-08
-3.3701e-07
-2.30881e-07
-4.73084e-08
-3.18879e-07
-2.26991e-07
-3.10913e-08
-3.02178e-07
-2.25867e-07
-2.15133e-08
-2.8443e-07
-2.25906e-07
-1.6488e-08
-2.66884e-07
-2.27175e-07
-1.45319e-08
-2.49526e-07
-2.29103e-07
-1.46683e-08
-2.32053e-07
-2.31395e-07
-1.63031e-08
-2.13854e-07
-2.339e-07
-1.91973e-08
-1.94099e-07
-2.36629e-07
-2.28644e-08
-1.72652e-07
-2.3968e-07
-2.60069e-08
-1.49972e-07
-2.43497e-07
-2.69132e-08
-1.2631e-07
-2.48586e-07
-2.33733e-08
-1.01519e-07
-2.55061e-07
-1.3052e-08
-7.5792e-08
-2.62784e-07
5.84757e-09
-4.9009e-08
-2.71046e-07
3.32268e-08
-2.14989e-08
-2.78197e-07
6.65897e-08
7.53725e-09
-2.82938e-07
9.55936e-08
4.3228e-08
-2.8257e-07
1.0809e-07
8.52314e-08
-2.73511e-07
8.87855e-08
1.35881e-07
-2.53393e-07
2.40561e-08
1.92266e-07
-2.21297e-07
-9.44648e-08
2.50603e-07
-1.76252e-07
-2.73087e-07
3.16274e-07
-1.17908e-07
-5.30519e-07
4.37454e-07
-7.02017e-08
-8.07546e-07
6.65807e-07
-1.05091e-07
-8.84464e-07
9.04644e-07
-3.36754e-07
-6.32589e-07
9.27286e-07
-6.43515e-07
-3.09415e-07
9.59109e-07
-8.2262e-07
-2.63747e-07
5.04386e-07
-5.43319e-07
-3.47104e-07
-4.98824e-07
-1.98187e-07
-2.87409e-07
-2.022e-06
4.17302e-08
1.84476e-06
-5.85408e-06
3.99128e-07
8.21779e-06
-1.22371e-05
2.75891e-07
1.54682e-05
-2.13198e-05
-9.08034e-09
1.78116e-05
-2.36981e-05
3.09551e-06
1.59667e-05
-1.8096e-05
4.32763e-06
1.65481e-05
-1.28064e-05
3.29467e-07
1.73482e-05
6.10872e-06
-3.65702e-06
2.06959e-05
6.07731e-06
-6.31349e-06
3.3054e-06
3.08135e-05
1.65004e-05
3.24621e-05
-1.16759e-05
-1.5945e-06
1.9145e-05
-4.44082e-05
-1.12496e-05
1.81742e-05
-2.40737e-05
-1.21165e-08
1.29298e-05
-1.40293e-05
6.10804e-06
9.33214e-06
-9.49773e-06
2.83997e-06
5.37654e-06
-5.87332e-06
4.20332e-06
3.98853e-06
-6.74636e-06
3.13689e-06
5.84834e-06
-5.81384e-06
-5.98159e-07
9.37773e-06
-2.41606e-06
-4.1932e-06
1.30736e-05
1.69416e-06
-5.3548e-06
1.33671e-05
6.64267e-06
-3.76377e-06
9.29755e-06
9.77489e-06
-5.86196e-07
3.54928e-06
8.44935e-06
2.25563e-06
-1.3395e-06
6.16865e-06
4.00682e-06
-4.31685e-06
3.5239e-06
4.65936e-06
-5.31116e-06
1.73042e-06
2.39954e-06
-5.41202e-06
3.83018e-06
-2.88556e-07
-5.23035e-06
7.61919e-06
-1.89828e-06
-5.09659e-06
9.35434e-06
-3.73461e-06
-4.39004e-06
1.03971e-05
-5.22076e-06
-3.47191e-06
9.68625e-06
-4.54452e-06
-5.21667e-06
7.61745e-06
-5.43813e-07
-7.04853e-06
5.68723e-06
1.12815e-08
-6.92512e-06
4.47041e-06
-1.64844e-06
-6.73793e-06
4.44053e-06
-2.25888e-06
-8.11775e-06
5.18391e-06
-1.48193e-06
-1.05402e-05
5.63178e-06
-6.2349e-07
-1.23701e-05
4.36818e-06
-2.56602e-07
-1.27792e-05
2.20726e-06
-4.87663e-07
-1.20614e-05
-6.61097e-08
-4.2122e-07
-1.10534e-05
-1.7461e-06
-1.33592e-07
-9.75774e-06
-2.9072e-06
1.29613e-07
-8.16242e-06
-3.41097e-06
3.49578e-07
-6.27712e-06
-4.1459e-06
9.01406e-07
-4.0725e-06
-4.93686e-06
1.43118e-06
-1.42282e-06
-4.22567e-06
7.58473e-07
-1.8758e-06
2.16027e-07
-2.91582e-06
-3.50092e-06
1.25409e-07
-2.24791e-06
-3.99646e-06
-2.75319e-07
-2.19774e-06
-3.36909e-06
3.73588e-07
-1.8833e-06
-3.54293e-06
2.84765e-07
-1.4335e-06
-2.92955e-06
2.44028e-07
-8.52185e-07
-2.71513e-06
1.30076e-07
-4.91673e-07
-1.04617e-06
6.7524e-08
-2.79024e-07
-4.84475e-07
6.74044e-08
-3.79427e-07
2.44526e-07
-1.69624e-08
-4.83162e-07
2.08478e-07
-6.66174e-08
-5.09511e-07
1.0759e-07
-1.53227e-07
-5.1041e-07
-2.26428e-08
-2.20092e-07
-5.22091e-07
-8.64381e-09
-2.52261e-07
-5.0391e-07
-6.78719e-08
-2.89054e-07
-4.49701e-07
-9.0067e-08
-3.10307e-07
-3.6693e-07
-1.26168e-07
-3.3419e-07
-2.86993e-07
-1.06309e-07
-3.34925e-07
-2.06871e-07
-1.05273e-07
-3.40744e-07
-1.46458e-07
-7.47397e-08
-3.34012e-07
-9.84246e-08
-5.35904e-08
-3.31231e-07
-6.62605e-08
-2.40423e-08
-3.26766e-07
-4.61003e-08
2.97327e-09
-3.25077e-07
-3.36436e-08
2.72093e-08
-3.23858e-07
-2.66951e-08
5.01987e-08
-3.23768e-07
-2.36916e-08
7.22003e-08
-3.24472e-07
-2.33307e-08
9.36353e-08
-3.25767e-07
-2.45421e-08
1.15136e-07
-3.27505e-07
-2.62091e-08
1.37379e-07
-3.2951e-07
-2.7002e-08
1.60437e-07
-3.32007e-07
-2.54795e-08
1.83954e-07
-3.3513e-07
-2.01641e-08
2.07657e-07
-3.38978e-07
-9.63505e-09
2.31746e-07
-3.43455e-07
6.50126e-09
2.56238e-07
-3.47841e-07
2.72062e-08
2.81525e-07
-3.50874e-07
4.80193e-08
3.08207e-07
-3.5017e-07
6.09505e-08
3.38215e-07
-3.43214e-07
5.90089e-08
3.73852e-07
-3.28285e-07
2.98675e-08
4.20076e-07
-3.05236e-07
-3.81943e-08
4.78319e-07
-2.7391e-07
-1.51448e-07
5.4218e-07
-2.36125e-07
-3.01466e-07
5.98503e-07
-1.97356e-07
-4.5342e-07
6.43742e-07
-1.74906e-07
-5.54423e-07
7.42612e-07
-2.03455e-07
-5.03913e-07
9.46191e-07
-3.29177e-07
-1.08368e-07
1.08432e-06
-5.66148e-07
5.74374e-07
1.04729e-06
-7.82719e-07
1.18172e-06
1.14136e-06
-7.56448e-07
1.47555e-06
9.42482e-07
-6.7196e-07
2.09996e-06
-1.04842e-07
-9.15537e-07
4.46681e-06
-3.23725e-06
-1.02345e-06
8.7083e-06
-9.72855e-06
-1.959e-07
1.32487e-05
-1.76456e-05
9.93542e-07
1.29483e-05
-2.412e-05
3.17114e-06
3.37421e-06
-2.21377e-05
7.96216e-06
-5.61418e-06
-1.82501e-05
9.29696e-06
-6.44274e-06
-9.49699e-06
-2.67105e-06
9.88375e-06
8.02264e-06
-1.61765e-05
2.16001e-05
1.6702e-06
-9.77167e-06
1.53857e-05
3.65183e-05
1.77592e-05
3.44715e-05
-8.93873e-06
-1.84358e-06
1.16855e-05
-4.3919e-05
-1.10896e-05
9.63135e-06
-2.04388e-05
-2.70557e-06
7.51921e-06
-1.47746e-05
2.85456e-06
3.54913e-07
-9.47061e-06
7.13686e-06
-2.63746e-06
-7.98164e-06
5.10051e-06
-4.2276e-06
-7.05704e-06
1.90069e-06
-4.24361e-06
-6.12211e-06
3.23946e-07
-3.60089e-06
-2.24373e-06
-8.15132e-07
-3.90182e-06
1.68086e-06
3.14202e-07
-4.96966e-06
5.03154e-06
2.67904e-06
-6.49887e-06
6.60245e-06
4.70174e-06
-7.92868e-06
5.0062e-06
4.87282e-06
-8.93324e-06
4.01773e-06
3.15532e-06
-9.75757e-06
4.60688e-06
-2.58732e-07
-1.06664e-05
5.79161e-06
-3.15245e-06
-1.1078e-05
8.43792e-06
-4.19628e-06
-1.13546e-05
1.1782e-05
-3.88621e-06
-1.12367e-05
1.26524e-05
-3.41594e-06
-1.08852e-05
1.24738e-05
-2.42817e-06
-1.07435e-05
9.50867e-06
3.60581e-08
-1.13113e-05
7.19645e-06
9.88719e-07
-1.19672e-05
6.14446e-06
1.98651e-07
-1.18323e-05
6.61753e-06
-2.28204e-06
-1.1335e-05
7.14206e-06
-3.19891e-06
-1.15292e-05
7.23359e-06
-1.85544e-06
-1.27365e-05
7.27195e-06
-4.32799e-07
-1.41604e-05
5.74946e-06
4.30657e-08
-1.47691e-05
2.44677e-06
3.69869e-07
-1.45719e-05
-1.34802e-06
1.08486e-06
-1.35819e-05
-4.60851e-06
1.87258e-06
-1.23984e-05
-6.65356e-06
2.56293e-06
-1.13267e-05
-7.73323e-06
3.25068e-06
-1.00294e-05
-9.507e-06
4.06381e-06
-7.39633e-06
-1.14489e-05
3.87892e-06
-3.27446e-06
-1.14296e-05
3.08208e-06
-7.52712e-06
2.37686e-06
-3.34347e-06
-3.65146e-06
3.70656e-07
-2.51692e-06
-4.27817e-06
-5.41947e-07
-2.35979e-06
-3.80271e-06
2.82534e-07
-1.85345e-06
-4.15025e-06
1.05526e-07
-1.49442e-06
-3.58746e-06
3.03523e-07
-1.07964e-06
-3.37648e-06
2.49122e-07
-7.03876e-07
-1.70567e-06
2.88293e-07
-2.58175e-07
-1.09554e-06
1.70538e-07
-1.08911e-07
6.7054e-08
3.07757e-08
-1.63073e-07
2.60013e-07
2.01654e-09
-1.95422e-07
2.49742e-07
-1.0978e-07
-2.88475e-07
2.18436e-07
-1.47747e-07
-3.73023e-07
2.64502e-07
-1.88465e-07
-4.26465e-07
2.08729e-07
-2.23158e-07
-4.08992e-07
1.55163e-07
-2.62734e-07
-3.5846e-07
1.16513e-07
-2.93237e-07
-2.94046e-07
1.42054e-07
-3.12754e-07
-2.24334e-07
1.55894e-07
-3.30926e-07
-1.66318e-07
2.01636e-07
-3.34373e-07
-1.16088e-07
2.3352e-07
-3.3738e-07
-7.91371e-08
2.73538e-07
-3.34525e-07
-5.17962e-08
3.07279e-07
-3.31666e-07
-3.51546e-08
3.39347e-07
-3.28779e-07
-2.53015e-08
3.66991e-07
-3.26675e-07
-2.02092e-08
3.92031e-07
-3.24931e-07
-1.82184e-08
4.1528e-07
-3.23668e-07
-1.77806e-08
4.37527e-07
-3.22837e-07
-1.7053e-08
4.59142e-07
-3.22519e-07
-1.40801e-08
4.8015e-07
-3.22683e-07
-7.89893e-09
5.00615e-07
-3.22861e-07
1.42338e-09
5.20886e-07
-3.22527e-07
1.35909e-08
5.40761e-07
-3.21177e-07
2.67782e-08
5.60738e-07
-3.17626e-07
3.69681e-08
5.81867e-07
-3.10483e-07
3.84306e-08
6.05096e-07
-2.98236e-07
2.47825e-08
6.32402e-07
-2.80433e-07
-8.94808e-09
6.65237e-07
-2.57469e-07
-6.66417e-08
7.08049e-07
-2.30091e-07
-1.48118e-07
7.59474e-07
-1.99397e-07
-2.43865e-07
8.08818e-07
-1.70597e-07
-3.25939e-07
8.40606e-07
-1.59624e-07
-3.44825e-07
8.62352e-07
-1.9928e-07
-2.28484e-07
9.52172e-07
-3.25275e-07
1.74286e-07
1.07863e-06
-5.31971e-07
9.64916e-07
1.04329e-06
-7.35387e-07
1.89107e-06
9.91756e-07
-8.42655e-07
2.64475e-06
1.2305e-06
-7.93986e-07
3.3117e-06
1.4576e-06
-1.10613e-06
5.29634e-06
-3.26554e-07
-1.64533e-06
9.10966e-06
-5.71831e-06
-1.19595e-06
1.16999e-05
-1.29554e-05
8.16647e-07
1.01499e-05
-1.85266e-05
2.56088e-06
4.2266e-07
-2.08358e-05
6.42408e-06
-1.12045e-05
-1.85442e-05
7.93027e-06
-1.80862e-05
-1.41834e-05
2.90366e-06
-1.56188e-05
-7.74533e-07
-1.22602e-05
7.20204e-06
1.35781e-05
-2.36574e-05
1.13199e-05
-4.4959e-06
-1.38873e-07
2.14204e-05
2.8669e-05
1.85953e-05
3.79018e-05
-6.49773e-06
-2.47255e-06
6.56359e-06
-3.57644e-05
-1.23875e-05
5.09196e-06
-1.96449e-05
-1.05891e-06
4.33967e-06
-1.50637e-05
1.02315e-06
-3.67683e-06
-7.89809e-06
6.43825e-06
-8.06259e-06
-8.4691e-06
4.86892e-06
-1.18831e-05
-6.12318e-06
2.88361e-06
-1.31292e-05
-6.15407e-06
1.27473e-06
-1.25309e-05
-3.25592e-06
4.10131e-07
-1.21339e-05
2.71885e-07
1.00988e-06
-1.33359e-05
4.53001e-06
1.70361e-06
-1.52945e-05
6.56365e-06
1.99874e-06
-1.73023e-05
6.63375e-06
3.80363e-07
-1.95641e-05
7.58035e-06
-1.30127e-06
-2.13892e-05
9.03553e-06
-2.60451e-06
-2.29126e-05
9.75233e-06
-2.43896e-06
-2.27621e-05
9.82979e-06
-1.54345e-06
-2.10879e-05
1.04882e-05
-3.77962e-07
-1.8915e-05
1.03866e-05
9.787e-08
-1.64952e-05
9.31953e-06
7.39477e-07
-1.54446e-05
7.16206e-06
1.2999e-06
-1.57815e-05
6.22325e-06
1.31282e-06
-1.57263e-05
5.85748e-06
2.33924e-07
-1.43777e-05
6.53155e-06
-1.26178e-06
-1.30046e-05
6.9958e-06
-1.2255e-06
-1.28338e-05
7.25955e-06
-1.92616e-07
-1.37693e-05
7.52704e-06
6.88304e-07
-1.53629e-05
6.03735e-06
1.31504e-06
-1.72534e-05
2.43976e-06
1.90285e-06
-1.86716e-05
-1.8405e-06
1.9096e-06
-1.94798e-05
-5.86029e-06
2.05281e-06
-1.95966e-05
-8.93544e-06
2.38928e-06
-1.88053e-05
-1.09939e-05
2.4628e-06
-1.75055e-05
-1.3527e-05
2.71585e-06
-1.40795e-05
-1.62667e-05
1.3888e-06
-8.60549e-06
-1.77529e-05
8.47823e-07
-1.57779e-05
-3.55187e-07
-3.99376e-06
-3.52258e-06
2.99122e-07
-3.03154e-06
-4.40469e-06
-8.34835e-07
-2.88684e-06
-3.91554e-06
-2.59686e-08
-1.99232e-06
-4.46842e-06
-5.71254e-07
-1.35733e-06
-4.0814e-06
-1.33558e-07
-7.84616e-07
-3.88819e-06
-5.61276e-08
-4.50272e-07
-2.31996e-06
2.83829e-07
-1.63199e-07
-1.58549e-06
2.07313e-07
4.85672e-08
-2.26979e-07
8.62887e-08
8.2351e-08
1.96962e-07
3.04082e-08
1.53798e-07
2.71518e-07
-9.27923e-08
-7.82865e-09
4.52424e-07
-7.16368e-08
-1.74391e-07
5.6568e-07
-1.34197e-07
-3.1351e-07
5.20424e-07
-1.72202e-07
-3.33257e-07
4.18521e-07
-2.43367e-07
-3.07649e-07
3.75702e-07
-2.84514e-07
-2.62943e-07
4.13606e-07
-3.15943e-07
-2.16086e-07
4.46688e-07
-3.3733e-07
-1.74514e-07
5.07245e-07
-3.46803e-07
-1.36245e-07
5.48078e-07
-3.52451e-07
-1.06995e-07
5.95154e-07
-3.50458e-07
-8.46093e-08
6.32e-07
-3.46682e-07
-7.02575e-08
6.65668e-07
-3.40251e-07
-6.23907e-08
6.92813e-07
-3.33238e-07
-5.91411e-08
7.1611e-07
-3.26897e-07
-5.89127e-08
7.37147e-07
-3.2163e-07
-6.02268e-08
7.56918e-07
-3.17632e-07
-6.06834e-08
7.74675e-07
-3.14594e-07
-5.89353e-08
7.90891e-07
-3.12027e-07
-5.45869e-08
8.06297e-07
-3.09521e-07
-4.87249e-08
8.21961e-07
-3.06447e-07
-4.33709e-08
8.38017e-07
-3.02066e-07
-4.27707e-08
8.55381e-07
-2.94718e-07
-5.19744e-08
8.75006e-07
-2.83347e-07
-7.63162e-08
8.97699e-07
-2.67689e-07
-1.18096e-07
9.2326e-07
-2.48434e-07
-1.74213e-07
9.50179e-07
-2.28198e-07
-2.33701e-07
9.77789e-07
-2.09556e-07
-2.78813e-07
1.00405e-06
-1.98785e-07
-2.91988e-07
1.02882e-06
-2.0608e-07
-2.68678e-07
1.06574e-06
-2.47706e-07
-1.75251e-07
1.12498e-06
-3.55216e-07
1.11455e-07
1.22675e-06
-5.59726e-07
7.65163e-07
1.24701e-06
-8.14806e-07
1.74881e-06
1.05875e-06
-9.78537e-07
2.6021e-06
1.07238e-06
-8.97077e-07
3.54508e-06
1.38561e-06
-1.04323e-06
5.11485e-06
1.60216e-06
-1.64508e-06
8.30836e-06
-1.94435e-06
-1.44673e-06
1.05095e-05
-8.28218e-06
5.18283e-07
4.6721e-06
-9.35736e-06
2.44674e-06
-6.38699e-06
-1.03885e-05
2.88857e-06
-1.35468e-05
-1.68118e-05
3.14064e-06
-1.62298e-05
-1.86261e-05
2.73885e-06
-1.65702e-05
-1.50642e-05
1.49184e-06
-1.56208e-05
-3.357e-06
6.67476e-07
8.91545e-06
3.04986e-06
-7.70368e-06
-5.1394e-06
-1.31029e-06
6.97408e-06
2.87223e-05
3.64651e-06
1.76105e-05
4.14685e-05
-6.57089e-06
-4.07387e-06
2.70357e-07
-1.48101e-05
-1.55372e-05
-8.26173e-07
-2.02391e-05
-4.86378e-07
3.5892e-08
-1.51945e-05
-8.37088e-07
-8.34307e-06
-4.73383e-06
5.16025e-06
-1.67826e-05
-3.97168e-06
3.92217e-06
-2.52182e-05
-2.91182e-07
2.59981e-06
-3.04533e-05
-1.6831e-06
7.57756e-07
-3.14116e-05
-1.4253e-06
-8.91486e-07
-2.99663e-05
2.7939e-07
-1.46926e-06
-2.71519e-05
2.45069e-06
-7.46193e-07
-2.53219e-05
4.61524e-06
1.26041e-07
-2.53299e-05
6.04717e-06
6.11249e-07
-2.59581e-05
7.79857e-06
4.3113e-07
-2.59464e-05
8.54939e-06
4.97654e-07
-2.50571e-05
7.68139e-06
1.20722e-06
-2.32687e-05
6.30995e-06
1.75939e-06
-2.10159e-05
6.15416e-06
2.11762e-06
-1.96424e-05
6.88205e-06
2.17172e-06
-1.92061e-05
6.62974e-06
2.2939e-06
-2.04629e-05
6.15854e-06
2.29916e-06
-2.24699e-05
6.1121e-06
2.1582e-06
-2.29799e-05
5.59566e-06
8.11732e-07
-2.17789e-05
5.65312e-06
-2.86423e-07
-2.06086e-05
6.29128e-06
-4.26944e-07
-2.05566e-05
7.33615e-06
-8.44047e-08
-2.19963e-05
8.3536e-06
6.69521e-07
-2.46092e-05
7.5431e-06
1.15927e-06
-2.69956e-05
3.52593e-06
1.3175e-06
-2.73128e-05
-2.51085e-06
9.47285e-07
-2.67658e-05
-7.81038e-06
1.30248e-06
-2.55614e-05
-1.14226e-05
1.13767e-06
-2.32142e-05
-1.34698e-05
-2.6843e-08
-2.03572e-05
-1.55235e-05
-1.00032e-06
-1.65749e-05
-1.79113e-05
-2.25515e-06
-1.03924e-05
-1.99431e-05
-4.06682e-06
-2.00995e-05
-6.13063e-06
-4.4564e-06
-3.06594e-06
2.03718e-07
-3.30624e-06
-4.06139e-06
-1.49482e-06
-3.26879e-06
-3.36828e-06
-5.78922e-07
-2.12769e-06
-4.08203e-06
-1.52343e-06
-1.24952e-06
-3.90438e-06
-1.04817e-06
-4.20292e-07
-3.82777e-06
-8.82387e-07
7.09402e-08
-2.47683e-06
-3.29852e-07
1.23093e-07
-1.63687e-06
1.40302e-09
1.89156e-07
-3.25562e-07
3.50921e-08
1.93714e-07
1.83407e-07
1.17561e-08
3.17549e-07
2.84207e-07
-1.35003e-07
1.62076e-07
6.21575e-07
-1.27641e-08
1.27662e-09
8.0768e-07
-8.10021e-08
-1.60696e-07
7.99045e-07
-1.16711e-07
-1.9624e-07
6.89652e-07
-2.35827e-07
-2.02222e-07
6.70768e-07
-2.89293e-07
-1.95854e-07
7.37953e-07
-3.30917e-07
-1.89061e-07
7.84886e-07
-3.45251e-07
-1.80625e-07
8.55261e-07
-3.56676e-07
-1.6803e-07
8.97065e-07
-3.61892e-07
-1.5656e-07
9.45452e-07
-3.62053e-07
-1.46118e-07
9.80665e-07
-3.5946e-07
-1.40771e-07
1.01191e-06
-3.5192e-07
-1.38946e-07
1.03482e-06
-3.44197e-07
-1.39498e-07
1.05295e-06
-3.36629e-07
-1.41509e-07
1.06796e-06
-3.29155e-07
-1.44344e-07
1.08074e-06
-3.21322e-07
-1.46713e-07
1.09046e-06
-3.13771e-07
-1.48064e-07
1.09929e-06
-3.07354e-07
-1.49442e-07
1.10877e-06
-3.01417e-07
-1.53236e-07
1.1205e-06
-2.95012e-07
-1.63014e-07
1.13462e-06
-2.871e-07
-1.83134e-07
1.15236e-06
-2.77063e-07
-2.17514e-07
1.17322e-06
-2.64035e-07
-2.66813e-07
1.19571e-06
-2.48808e-07
-3.23844e-07
1.21422e-06
-2.33992e-07
-3.71604e-07
1.22181e-06
-2.23797e-07
-3.88265e-07
1.21827e-06
-2.23696e-07
-3.51014e-07
1.20806e-06
-2.41036e-07
-2.53083e-07
1.21511e-06
-2.83995e-07
-1.03922e-07
1.27744e-06
-3.60536e-07
1.01591e-07
1.40924e-06
-4.89382e-07
4.58004e-07
1.57126e-06
-6.98492e-07
1.15495e-06
1.52407e-06
-9.6337e-07
2.13353e-06
1.20421e-06
-1.10145e-06
3.23262e-06
9.80293e-07
-9.67257e-07
4.85186e-06
8.9366e-07
-1.08856e-06
7.934e-06
4.76487e-07
-1.80547e-06
9.1184e-06
-3.46127e-06
5.33178e-07
1.28492e-07
-3.02238e-06
4.03215e-06
-1.47705e-05
9.42654e-07
4.67662e-06
-2.37677e-05
-3.51974e-06
2.07231e-06
-2.85981e-05
-1.2948e-05
9.19926e-07
-3.31836e-05
-1.56094e-05
1.56141e-06
-3.51027e-05
-1.2982e-05
-4.47388e-09
-2.88476e-05
-8.14014e-06
-2.50019e-06
6.93799e-06
-1.75015e-05
-7.81424e-06
4.58749e-07
-9.1015e-06
1.47935e-05
3.66081e-05
-1.05027e-05
1.55208e-06
4.12012e-05
-7.87557e-07
-5.46609e-06
-6.78648e-06
1.29606e-05
-1.58461e-05
-1.01648e-05
-1.58067e-05
-2.69298e-06
-1.44269e-05
-8.08942e-06
-2.89429e-06
-2.12487e-05
1.00022e-06
1.08841e-06
-2.98033e-05
3.72038e-06
9.00825e-07
-3.6466e-05
5.53883e-06
8.7896e-07
-4.10896e-05
3.50604e-06
-5.41032e-07
-4.31516e-05
1.62594e-06
-9.74791e-07
-4.19258e-05
6.01847e-07
-1.53452e-06
-3.90916e-05
1.43743e-06
-1.80301e-06
-3.61408e-05
3.13672e-06
-1.43027e-06
-3.40306e-05
4.75488e-06
-7.4414e-07
-3.20479e-05
6.09314e-06
-1.88884e-07
-3.18889e-05
7.05046e-06
1.43834e-06
-3.4728e-05
8.24816e-06
2.36959e-06
-4.02279e-05
8.96999e-06
2.92449e-06
-4.42532e-05
8.3962e-06
1.84631e-06
-4.59696e-05
7.86728e-06
7.76502e-07
-4.71951e-05
7.15915e-06
7.55037e-07
-4.80045e-05
6.71524e-06
3.10825e-07
-4.71793e-05
5.58424e-06
-2.70517e-07
-4.50835e-05
4.47178e-06
-9.51891e-07
-4.19136e-05
4.17344e-06
-1.67619e-06
-3.868e-05
4.7129e-06
-1.65317e-06
-3.58695e-05
5.57307e-06
-1.03679e-06
-3.3718e-05
6.66755e-06
-4.41374e-07
-3.2656e-05
6.34963e-06
1.72059e-07
-3.13314e-05
1.26886e-06
9.72096e-07
-2.95886e-05
-6.31242e-06
2.07831e-06
-2.80661e-05
-1.26542e-05
3.317e-06
-2.63168e-05
-1.64893e-05
3.28854e-06
-2.38242e-05
-1.81609e-05
2.07976e-06
-2.17087e-05
-1.84095e-05
5.50536e-07
-1.8281e-05
-2.02261e-05
-1.47141e-06
-9.7086e-06
-2.33127e-05
-5.67685e-06
-2.3673e-05
-7.05009e-06
-4.64848e-06
-2.04143e-06
7.98234e-08
-3.27274e-06
-3.26281e-06
-2.17677e-06
-3.33007e-06
-2.33372e-06
-9.71042e-07
-2.27872e-06
-3.1321e-06
-1.99723e-06
-1.33344e-06
-3.18695e-06
-1.6544e-06
-3.83062e-07
-3.24618e-06
-1.52126e-06
3.09282e-07
-2.12858e-06
-1.03385e-06
3.56274e-07
-1.23886e-06
-4.42479e-07
3.03433e-07
-7.64685e-08
-1.94802e-07
2.65338e-07
3.2575e-07
-1.01463e-07
3.24555e-07
4.66374e-07
-2.38698e-07
2.15576e-07
8.03553e-07
-7.17838e-08
1.53028e-07
1.05931e-06
-1.88684e-07
8.45485e-08
1.08141e-06
-2.13951e-07
3.75887e-08
1.10866e-06
-3.71947e-07
-2.57081e-08
1.14031e-06
-4.06223e-07
-8.11825e-08
1.25554e-06
-4.61916e-07
-1.29681e-07
1.30984e-06
-4.76348e-07
-1.66623e-07
1.38883e-06
-4.96421e-07
-1.92667e-07
1.43364e-06
-5.10361e-07
-2.10365e-07
1.4847e-06
-5.21356e-07
-2.25624e-07
1.5241e-06
-5.27974e-07
-2.38128e-07
1.55653e-06
-5.31948e-07
-2.47633e-07
1.57788e-06
-5.33406e-07
-2.54582e-07
1.59302e-06
-5.33002e-07
-2.59316e-07
1.60507e-06
-5.3226e-07
-2.62323e-07
1.61521e-06
-5.31381e-07
-2.64218e-07
1.62331e-06
-5.30864e-07
-2.6645e-07
1.63159e-06
-5.30005e-07
-2.71683e-07
1.64207e-06
-5.27969e-07
-2.8385e-07
1.65686e-06
-5.24108e-07
-3.07351e-07
1.67663e-06
-5.18381e-07
-3.45502e-07
1.70213e-06
-5.11489e-07
-3.95933e-07
1.72887e-06
-5.05034e-07
-4.50726e-07
1.75137e-06
-5.00706e-07
-4.94282e-07
1.76057e-06
-5.02612e-07
-5.0722e-07
1.74815e-06
-5.13252e-07
-4.68884e-07
1.71681e-06
-5.36677e-07
-3.69313e-07
1.68613e-06
-5.77379e-07
-2.16837e-07
1.69883e-06
-6.35767e-07
-4.19607e-08
1.81797e-06
-7.14813e-07
1.45413e-07
2.05021e-06
-8.27513e-07
4.40059e-07
2.28446e-06
-1.00414e-06
1.02503e-06
2.19219e-06
-1.24106e-06
1.99904e-06
1.63246e-06
-1.37848e-06
3.38703e-06
8.53566e-07
-1.21866e-06
5.25931e-06
3.61604e-07
-1.30115e-06
7.11673e-06
3.46271e-07
-1.44294e-06
-3.06921e-06
2.56056e-06
4.22877e-06
-1.95043e-05
6.83698e-06
6.71531e-06
-2.69187e-05
7.31256e-06
1.07617e-06
-2.94092e-05
8.67895e-07
-1.90764e-06
-3.52644e-05
-5.85727e-06
-1.24037e-06
-4.06163e-05
-1.02625e-05
7.4177e-08
-4.27655e-05
-1.00524e-05
-5.10567e-07
-3.68085e-05
-1.16593e-05
-2.43819e-06
-4.05476e-05
-9.80013e-06
-1.19885e-06
-3.82816e-05
-1.50144e-05
-1.17496e-07
3.25003e-05
-4.4766e-05
-3.68711e-06
5.00962e-05
2.93607e-06
-8.71228e-06
-2.61298e-06
3.86237e-05
-1.83633e-05
-1.48821e-05
-5.58022e-06
-1.96295e-07
-2.35376e-05
3.41062e-07
2.77365e-07
-3.46974e-05
7.56804e-06
4.62791e-06
-4.66444e-05
1.13249e-05
4.34182e-06
-5.31522e-05
7.8107e-06
4.2751e-06
-5.59375e-05
3.92961e-06
2.3843e-06
-5.66268e-05
4.76408e-07
1.85768e-06
-5.57772e-05
-1.72117e-06
1.48979e-06
-5.37635e-05
-2.16774e-06
1.61274e-06
-5.23931e-05
-1.80458e-07
1.96729e-06
-5.36477e-05
4.26289e-06
1.77639e-06
-5.64212e-05
7.9609e-06
9.30748e-07
-5.94585e-05
1.04727e-05
-3.6636e-07
-6.26221e-05
1.25428e-05
-1.1174e-06
-6.47052e-05
1.27812e-05
-1.71968e-06
-6.44047e-05
1.06616e-05
-2.57097e-06
-6.17447e-05
7.79659e-06
-2.61233e-06
-5.86811e-05
6.14835e-06
-2.07328e-06
-5.57701e-05
6.12599e-06
-2.34424e-06
-5.20243e-05
5.55653e-06
-3.74628e-06
-4.70905e-05
4.53595e-06
-5.03571e-06
-4.14035e-05
4.63942e-06
-6.2044e-06
-3.55007e-05
5.5561e-06
-6.81439e-06
-2.80833e-05
4.81544e-06
-6.7355e-06
-1.98253e-05
3.94942e-06
-5.62312e-06
-1.20875e-05
1.24497e-06
-2.66808e-06
-6.59447e-06
-5.82525e-06
1.66444e-06
-4.98199e-06
-1.28539e-05
5.15162e-06
-5.40442e-06
-1.72422e-05
5.344e-06
-9.35286e-06
-2.00384e-05
7.88928e-06
-1.28904e-05
-2.19091e-05
7.76206e-06
-1.613e-05
-1.91687e-05
4.46614e-06
-1.74588e-05
-1.76951e-05
-8.14499e-07
-1.10122e-05
-2.04073e-05
-9.60436e-06
-2.58369e-05
-1.30984e-05
-4.33726e-06
4.41248e-07
1.97149e-06
-3.33613e-06
-2.64838e-06
-1.6229e-06
-3.5628e-06
-1.23803e-06
-8.63405e-07
-2.48386e-06
-2.24617e-06
-1.96085e-06
-1.48096e-06
-2.36076e-06
-1.81909e-06
-4.39968e-07
-2.62678e-06
-1.64544e-06
3.52506e-07
-1.66942e-06
-1.24181e-06
2.03102e-07
-5.53866e-07
-5.31427e-07
5.09849e-08
2.52528e-07
-1.75792e-07
9.36674e-08
3.07337e-07
-2.16964e-08
1.91892e-07
3.78832e-07
-8.02784e-09
2.03627e-07
5.61986e-07
2.31252e-07
2.42454e-07
8.81963e-07