/*--------------------------------*- C++ -*----------------------------------*\
| =========                 |                                                 |
| \\      /  F ield         | OpenFOAM: The Open Source CFD Toolbox           |
|  \\    /   O peration     | Version:  2.3.0                                 |
|   \\  /    A nd           | Web:      www.OpenFOAM.org                      |
|    \\/     M anipulation  |                                                 |
\*---------------------------------------------------------------------------*/
FoamFile
{
    version     2.0;
    format      ascii;
    class       volScalarField;
    location    "19";
    object      rho;
}
// * * * * * * * * * * * * * * * * * * * * * * * * * * * * * * * * * * * * * //

dimensions      [1 -3 0 0 0 0 0];

internalField   nonuniform List<scalar> 
6144
(
1.16496
1.1655
1.16583
1.16627
1.16673
1.1673
1.16811
1.16876
1.16889
1.1689
1.1689
1.1689
1.1689
1.1689
1.16891
1.16891
1.16891
1.16891
1.16891
1.16892
1.16892
1.16892
1.16892
1.16892
1.16892
1.16892
1.16892
1.16892
1.16893
1.16893
1.16893
1.16893
1.16893
1.16893
1.16894
1.16894
1.16894
1.16894
1.16894
1.16894
1.16894
1.16894
1.16894
1.16895
1.16894
1.16896
1.16894
1.16896
1.16895
1.16928
1.16997
1.17307
1.17504
1.20094
1.21154
1.31427
1.51682
2.24463
2.63944
49.0495
966.972
1026.66
1027.09
1027.09
1027.1
1027.1
1027.1
1027.1
1027.1
1027.1
1027.1
1027.1
1027.1
1027.1
1027.1
1027.1
1027.1
1027.1
1027.1
1027.1
1027.1
1027.1
1027.1
1027.1
1027.1
1027.1
1027.1
1027.1
1027.1
1027.1
1027.1
1027.1
1027.1
1027.1
1027.1
1027.1
1.1652
1.16567
1.16603
1.16654
1.16705
1.16762
1.16845
1.16887
1.1689
1.1689
1.1689
1.1689
1.16891
1.16891
1.16891
1.16891
1.16891
1.16891
1.16892
1.16892
1.16892
1.16892
1.16892
1.16892
1.16892
1.16892
1.16893
1.16893
1.16893
1.16893
1.16893
1.16893
1.16894
1.16894
1.16894
1.16894
1.16894
1.16895
1.16894
1.16894
1.16894
1.16895
1.16894
1.16896
1.16894
1.16896
1.16894
1.16897
1.16895
1.16909
1.16981
1.17156
1.17421
1.20888
1.21619
1.27352
1.57447
2.30424
2.69469
48.3749
975.861
1027.03
1027.09
1027.09
1027.1
1027.1
1027.1
1027.1
1027.1
1027.1
1027.1
1027.1
1027.1
1027.1
1027.1
1027.1
1027.1
1027.1
1027.1
1027.1
1027.1
1027.1
1027.1
1027.1
1027.1
1027.1
1027.1
1027.1
1027.1
1027.1
1027.1
1027.1
1027.1
1027.1
1027.1
1027.1
1.1653
1.16573
1.16604
1.16649
1.167
1.16767
1.1684
1.16886
1.1689
1.1689
1.1689
1.1689
1.1689
1.16891
1.16891
1.16891
1.16891
1.16891
1.16892
1.16892
1.16892
1.16892
1.16892
1.16892
1.16893
1.16893
1.16893
1.16893
1.16893
1.16893
1.16893
1.16894
1.16894
1.16894
1.16894
1.16894
1.16894
1.16895
1.16894
1.16895
1.16894
1.16895
1.16894
1.16896
1.16894
1.16897
1.16894
1.16898
1.16895
1.16925
1.17006
1.17314
1.17653
1.18956
1.22236
1.31342
1.45464
2.15109
2.26258
41.7949
974.215
1027.09
1027.09
1027.09
1027.1
1027.1
1027.1
1027.1
1027.1
1027.1
1027.1
1027.1
1027.1
1027.1
1027.1
1027.1
1027.1
1027.1
1027.1
1027.1
1027.1
1027.1
1027.1
1027.1
1027.1
1027.1
1027.1
1027.1
1027.1
1027.1
1027.1
1027.1
1027.1
1027.1
1027.1
1027.1
1.16531
1.16575
1.16605
1.1664
1.16676
1.16727
1.16812
1.16877
1.1689
1.1689
1.16889
1.1689
1.1689
1.16891
1.16891
1.16891
1.16891
1.16891
1.16891
1.16892
1.16892
1.16892
1.16892
1.16892
1.16892
1.16892
1.16893
1.16893
1.16893
1.16893
1.16893
1.16893
1.16893
1.16894
1.16894
1.16894
1.16894
1.16895
1.16894
1.16895
1.16894
1.16895
1.16894
1.16896
1.16894
1.16897
1.16894
1.16898
1.16895
1.16941
1.17024
1.17471
1.18277
1.19288
1.25986
1.35041
1.3515
2.00183
1.81155
42.0402
972.433
1027.09
1027.09
1027.09
1027.09
1027.1
1027.1
1027.1
1027.1
1027.1
1027.1
1027.1
1027.1
1027.1
1027.1
1027.1
1027.1
1027.1
1027.1
1027.1
1027.1
1027.1
1027.1
1027.1
1027.1
1027.1
1027.1
1027.1
1027.1
1027.1
1027.1
1027.1
1027.1
1027.1
1027.1
1027.1
1.16511
1.1656
1.16601
1.16634
1.16665
1.16695
1.1675
1.16835
1.16886
1.1689
1.16888
1.1689
1.1689
1.16891
1.16891
1.16891
1.16891
1.16891
1.16892
1.16892
1.16892
1.16892
1.16892
1.16893
1.16893
1.16893
1.16893
1.16893
1.16893
1.16893
1.16894
1.16894
1.16894
1.16894
1.16894
1.16894
1.16894
1.16895
1.16894
1.16895
1.16894
1.16896
1.16894
1.16897
1.16894
1.16897
1.16894
1.16899
1.16896
1.16949
1.17052
1.17617
1.18772
1.20833
1.23968
1.34158
1.35592
1.84748
1.52899
110.04
1011.65
1027.07
1027.08
1027.09
1027.09
1027.09
1027.09
1027.09
1027.09
1027.08
1027.08
1027.08
1027.08
1027.08
1027.08
1027.08
1027.08
1027.08
1027.08
1027.09
1027.09
1027.1
1027.1
1027.1
1027.1
1027.1
1027.1
1027.1
1027.1
1027.1
1027.1
1027.1
1027.1
1027.1
1027.1
1027.1
1.16468
1.16506
1.16564
1.16605
1.16658
1.16682
1.16715
1.16778
1.16848
1.16875
1.16883
1.16889
1.1689
1.1689
1.16891
1.16891
1.16891
1.16891
1.16891
1.16891
1.16892
1.16892
1.16892
1.16892
1.16892
1.16892
1.16892
1.16893
1.16893
1.16893
1.16893
1.16893
1.16893
1.16894
1.16894
1.16894
1.16894
1.16894
1.16894
1.16895
1.16894
1.16896
1.16894
1.16896
1.16894
1.16897
1.16895
1.16899
1.16898
1.16954
1.17072
1.1759
1.18704
1.20875
1.21008
1.33365
1.38756
1.66079
1.34361
248.377
1020.95
1025.91
1026.08
1026.27
1026.35
1026.36
1026.16
1025.94
1025.85
1025.87
1025.84
1025.74
1025.72
1025.75
1025.59
1025.37
1025.24
1025.22
1025.58
1025.97
1026.22
1026.45
1026.73
1026.93
1027.03
1027.07
1027.09
1027.1
1027.1
1027.1
1027.1
1027.1
1027.1
1027.1
1027.1
1027.1
1.16429
1.16439
1.16491
1.1653
1.16615
1.1667
1.16711
1.16756
1.16798
1.16842
1.16875
1.16889
1.1689
1.16891
1.16891
1.16891
1.16891
1.16892
1.16892
1.16892
1.16892
1.16892
1.16892
1.16893
1.16893
1.16893
1.16893
1.16893
1.16893
1.16893
1.16894
1.16894
1.16894
1.16894
1.16894
1.16894
1.16894
1.16895
1.16894
1.16895
1.16894
1.16896
1.16895
1.16897
1.16895
1.16897
1.16895
1.169
1.16904
1.1697
1.17088
1.17553
1.18604
1.21101
1.22247
1.32189
1.40973
1.51896
1.16898
497.744
1013.01
1016.82
1015.8
1013.01
1012.15
1013.07
1014.91
1015.69
1015.98
1015.82
1014.09
1013.47
1013.28
1012.59
1012.14
1011.87
1011.96
1011.91
1012.1
1013.31
1014.29
1015.84
1017.55
1019.47
1021
1021.87
1023.54
1025.55
1026.53
1027.04
1027.1
1027.1
1027.1
1027.1
1027.07
1027.06
1.16398
1.16388
1.16424
1.16441
1.16548
1.16659
1.16721
1.16757
1.16779
1.16832
1.16875
1.16889
1.1689
1.16891
1.16891
1.16891
1.16891
1.16892
1.16892
1.16892
1.16892
1.16892
1.16892
1.16893
1.16893
1.16893
1.16893
1.16893
1.16893
1.16894
1.16894
1.16894
1.16894
1.16894
1.16895
1.16895
1.16895
1.16895
1.16895
1.16896
1.16895
1.16896
1.16896
1.16897
1.16896
1.16897
1.16895
1.16901
1.16909
1.1699
1.17114
1.1755
1.18317
1.20992
1.24205
1.29494
1.39885
1.50603
1.16898
606.849
998.094
999.621
998.569
998.203
998.206
998.558
998.712
998.663
998.597
998.357
998.155
998.094
998.149
998.277
998.381
998.429
998.421
998.368
998.163
998.007
997.71
997.228
996.469
995.577
994.905
994.495
994.363
994.901
995.329
996.141
996.825
997.781
999.62
1001.77
1005.79
1010.48
1.16367
1.16361
1.16374
1.16366
1.16472
1.16661
1.16736
1.16781
1.16782
1.16843
1.1688
1.1689
1.1689
1.1689
1.16891
1.16891
1.16891
1.16891
1.16891
1.16891
1.16892
1.16892
1.16892
1.16892
1.16892
1.16892
1.16893
1.16893
1.16893
1.16893
1.16893
1.16894
1.16894
1.16894
1.16894
1.16894
1.16894
1.16895
1.16895
1.16895
1.16895
1.16896
1.16896
1.16896
1.16895
1.16897
1.16895
1.16901
1.16904
1.16987
1.17107
1.17498
1.18099
1.20627
1.23102
1.3221
1.35535
1.48068
1.16898
483.199
1005.68
1008.14
1007.13
1007.52
1012.91
1015.04
1014.98
1014.67
1015.38
1016.05
1016.44
1018.7
1020.39
1021.67
1022.71
1023.4
1023.8
1023.93
1023.56
1022.85
1022.52
1022.31
1022.1
1021.79
1021.64
1021.68
1021.61
1021.54
1021.7
1021.86
1022.33
1022.81
1023.71
1024.7
1025.76
1026.59
1.16342
1.16351
1.16346
1.16331
1.16398
1.16659
1.16758
1.16821
1.1682
1.16878
1.16888
1.16891
1.16891
1.16891
1.16891
1.16891
1.16891
1.16892
1.16892
1.16892
1.16892
1.16892
1.16892
1.16893
1.16893
1.16893
1.16893
1.16893
1.16893
1.16894
1.16894
1.16894
1.16894
1.16894
1.16894
1.16895
1.16895
1.16895
1.16895
1.16895
1.16895
1.16896
1.16896
1.16897
1.16896
1.16897
1.16895
1.16901
1.16902
1.16984
1.17114
1.17526
1.18158
1.2087
1.2389
1.33512
1.35473
1.47898
1.18408
336.144
1012.21
1022.84
1023.06
1023.92
1025.07
1025.72
1026.09
1026.31
1026.46
1026.6
1026.74
1026.9
1026.99
1027.03
1027.06
1027.06
1027.07
1027.07
1027.06
1027.06
1027.05
1027.04
1027.03
1027.02
1027.02
1027.03
1027.04
1027.04
1027.05
1027.06
1027.07
1027.08
1027.09
1027.09
1027.1
1027.1
1.16292
1.16302
1.16342
1.16331
1.16368
1.16626
1.16778
1.1687
1.16877
1.16889
1.1689
1.16891
1.1689
1.16891
1.16891
1.16891
1.16891
1.16891
1.16891
1.16892
1.16892
1.16892
1.16892
1.16892
1.16893
1.16893
1.16893
1.16893
1.16893
1.16894
1.16894
1.16894
1.16894
1.16894
1.16894
1.16895
1.16895
1.16895
1.16895
1.16895
1.16895
1.16896
1.16896
1.16897
1.16896
1.16897
1.16895
1.16901
1.169
1.16979
1.17158
1.17785
1.18721
1.2164
1.23307
1.30242
1.34354
1.64364
1.42567
165.315
1015.36
1026.96
1027
1027.06
1027.07
1027.09
1027.09
1027.09
1027.09
1027.1
1027.1
1027.1
1027.1
1027.1
1027.1
1027.1
1027.1
1027.1
1027.1
1027.1
1027.1
1027.1
1027.1
1027.1
1027.1
1027.1
1027.1
1027.1
1027.1
1027.1
1027.1
1027.1
1027.1
1027.1
1027.1
1027.1
1.16235
1.16194
1.16348
1.16387
1.16443
1.16668
1.16817
1.16885
1.16887
1.1689
1.1689
1.16891
1.16891
1.16891
1.16891
1.16892
1.16891
1.16892
1.16892
1.16892
1.16892
1.16892
1.16892
1.16893
1.16893
1.16893
1.16893
1.16893
1.16894
1.16894
1.16894
1.16894
1.16894
1.16894
1.16895
1.16895
1.16895
1.16895
1.16895
1.16896
1.16896
1.16896
1.16896
1.16897
1.16897
1.16897
1.16895
1.169
1.16896
1.16961
1.17186
1.17894
1.18615
1.20716
1.24352
1.3416
1.34161
1.78883
1.58148
69.1796
989.557
1027.09
1027.09
1027.1
1027.1
1027.1
1027.1
1027.1
1027.1
1027.1
1027.1
1027.1
1027.1
1027.1
1027.1
1027.1
1027.1
1027.1
1027.1
1027.1
1027.1
1027.1
1027.1
1027.1
1027.1
1027.1
1027.1
1027.1
1027.1
1027.1
1027.1
1027.1
1027.1
1027.1
1027.1
1027.1
1.1606
1.16102
1.16279
1.16501
1.16468
1.16704
1.16811
1.16884
1.16885
1.16889
1.16891
1.16891
1.16891
1.16891
1.16892
1.16892
1.16892
1.16892
1.16892
1.16892
1.16893
1.16893
1.16893
1.16893
1.16893
1.16893
1.16894
1.16894
1.16894
1.16894
1.16894
1.16894
1.16894
1.16895
1.16895
1.16895
1.16895
1.16895
1.16896
1.16896
1.16896
1.16896
1.16896
1.16897
1.16897
1.16897
1.16895
1.169
1.16896
1.16937
1.17216
1.18129
1.18882
1.19656
1.22987
1.33689
1.35233
1.96353
1.79101
34.0037
981.635
1027.1
1027.1
1027.1
1027.1
1027.1
1027.1
1027.1
1027.1
1027.1
1027.1
1027.1
1027.1
1027.1
1027.1
1027.1
1027.1
1027.1
1027.1
1027.1
1027.1
1027.1
1027.1
1027.1
1027.1
1027.1
1027.1
1027.1
1027.1
1027.1
1027.1
1027.1
1027.1
1027.1
1027.1
1027.1
1.16066
1.16278
1.16315
1.16469
1.16401
1.16334
1.16531
1.1687
1.16883
1.1689
1.1689
1.16891
1.16891
1.16891
1.16892
1.16892
1.16892
1.16892
1.16892
1.16892
1.16892
1.16893
1.16893
1.16893
1.16893
1.16893
1.16894
1.16894
1.16894
1.16894
1.16894
1.16894
1.16894
1.16895
1.16895
1.16895
1.16895
1.16895
1.16896
1.16896
1.16896
1.16896
1.16896
1.16897
1.16896
1.16897
1.16895
1.169
1.16896
1.16917
1.17205
1.18121
1.19021
1.20281
1.21337
1.28826
1.44067
2.12496
2.12296
43.918
981.839
1027.09
1027.1
1027.1
1027.1
1027.1
1027.1
1027.1
1027.1
1027.1
1027.1
1027.1
1027.1
1027.1
1027.1
1027.1
1027.1
1027.1
1027.1
1027.1
1027.1
1027.1
1027.1
1027.1
1027.1
1027.1
1027.1
1027.1
1027.1
1027.1
1027.1
1027.1
1027.1
1027.1
1027.1
1027.1
1.16062
1.16284
1.16321
1.16415
1.16188
1.16123
1.16238
1.167
1.16882
1.1689
1.1689
1.16891
1.16891
1.16891
1.16891
1.16891
1.16891
1.16892
1.16892
1.16892
1.16892
1.16892
1.16892
1.16893
1.16893
1.16893
1.16893
1.16894
1.16894
1.16894
1.16894
1.16894
1.16894
1.16894
1.16895
1.16895
1.16895
1.16895
1.16895
1.16896
1.16896
1.16896
1.16896
1.16897
1.16896
1.16897
1.16895
1.16899
1.16896
1.16908
1.17174
1.17853
1.19335
1.21148
1.21556
1.27271
1.54642
2.25517
2.7534
39.3467
975.221
1027
1027.1
1027.1
1027.1
1027.1
1027.1
1027.1
1027.1
1027.1
1027.1
1027.1
1027.1
1027.1
1027.1
1027.1
1027.1
1027.1
1027.1
1027.1
1027.1
1027.1
1027.1
1027.1
1027.1
1027.1
1027.1
1027.1
1027.1
1027.1
1027.1
1027.1
1027.1
1027.1
1027.1
1027.1
1.15992
1.16051
1.16073
1.16145
1.16175
1.16177
1.16162
1.16198
1.16758
1.16889
1.16891
1.16891
1.16891
1.16891
1.16892
1.16892
1.16892
1.16892
1.16892
1.16892
1.16892
1.16893
1.16893
1.16893
1.16893
1.16894
1.16894
1.16894
1.16894
1.16894
1.16894
1.16895
1.16895
1.16895
1.16895
1.16895
1.16895
1.16896
1.16896
1.16896
1.16896
1.16897
1.16897
1.16897
1.16897
1.16897
1.16896
1.16899
1.16896
1.16912
1.1709
1.17622
1.19302
1.21131
1.22537
1.34638
1.44117
2.08372
2.77239
44.4432
963.521
1026.58
1027.09
1027.1
1027.1
1027.1
1027.1
1027.1
1027.1
1027.1
1027.1
1027.1
1027.1
1027.1
1027.1
1027.1
1027.1
1027.1
1027.1
1027.1
1027.1
1027.1
1027.1
1027.1
1027.1
1027.1
1027.1
1027.1
1027.1
1027.1
1027.1
1027.1
1027.1
1027.1
1027.1
1027.1
1.16529
1.16573
1.16595
1.16635
1.16684
1.16748
1.16835
1.16876
1.16888
1.1689
1.16891
1.16891
1.16891
1.16892
1.16892
1.16892
1.16892
1.16892
1.16892
1.16893
1.16893
1.16893
1.16893
1.16893
1.16893
1.16893
1.16894
1.16894
1.16894
1.16894
1.16894
1.16894
1.16895
1.16895
1.16895
1.16895
1.16895
1.16895
1.16895
1.16896
1.16895
1.16896
1.16896
1.16897
1.16896
1.16897
1.16895
1.16898
1.16895
1.16943
1.17024
1.17367
1.17517
1.19697
1.20756
1.29467
1.49844
2.50549
4.6137
56.6895
956.52
1026.42
1027.09
1027.09
1027.1
1027.1
1027.1
1027.1
1027.1
1027.1
1027.1
1027.1
1027.1
1027.1
1027.1
1027.1
1027.1
1027.1
1027.1
1027.1
1027.1
1027.1
1027.1
1027.1
1027.1
1027.1
1027.1
1027.1
1027.1
1027.1
1027.1
1027.1
1027.1
1027.1
1027.1
1027.1
1.16564
1.16606
1.16632
1.16677
1.16724
1.16778
1.16823
1.1685
1.16866
1.16875
1.16885
1.1689
1.16891
1.16892
1.16892
1.16892
1.16892
1.16892
1.16892
1.16893
1.16893
1.16893
1.16893
1.16893
1.16893
1.16894
1.16894
1.16894
1.16894
1.16894
1.16895
1.16895
1.16895
1.16895
1.16895
1.16895
1.16896
1.16896
1.16896
1.16896
1.16897
1.16897
1.16897
1.16897
1.16897
1.16897
1.16895
1.16901
1.16897
1.16933
1.17014
1.17275
1.17518
1.19907
1.21198
1.27409
1.55622
2.35803
3.0372
52.5334
969.514
1026.99
1027.09
1027.09
1027.1
1027.1
1027.1
1027.1
1027.1
1027.1
1027.1
1027.1
1027.1
1027.1
1027.1
1027.1
1027.1
1027.1
1027.1
1027.1
1027.1
1027.1
1027.1
1027.1
1027.1
1027.1
1027.1
1027.1
1027.1
1027.1
1027.1
1027.1
1027.1
1027.1
1027.1
1027.1
1.16563
1.16611
1.16635
1.16669
1.16699
1.16733
1.16768
1.168
1.16822
1.16843
1.16868
1.16886
1.1689
1.16892
1.16892
1.16892
1.16892
1.16892
1.16892
1.16893
1.16893
1.16893
1.16893
1.16893
1.16893
1.16894
1.16894
1.16894
1.16894
1.16894
1.16894
1.16895
1.16895
1.16895
1.16895
1.16895
1.16896
1.16896
1.16896
1.16896
1.16896
1.16897
1.16896
1.16897
1.16896
1.16897
1.16895
1.16903
1.16908
1.16971
1.17063
1.17463
1.18028
1.19535
1.21246
1.29981
1.46308
2.1686
2.32398
41.7724
969.017
1027.09
1027.09
1027.09
1027.1
1027.1
1027.1
1027.1
1027.1
1027.1
1027.1
1027.1
1027.1
1027.1
1027.1
1027.1
1027.1
1027.1
1027.1
1027.1
1027.1
1027.1
1027.1
1027.1
1027.1
1027.1
1027.1
1027.1
1027.1
1027.1
1027.1
1027.1
1027.1
1027.1
1027.1
1027.1
1.16527
1.16595
1.16631
1.1667
1.16691
1.16719
1.16753
1.16786
1.16802
1.16826
1.16856
1.16883
1.16889
1.16891
1.16891
1.16892
1.16892
1.16892
1.16892
1.16892
1.16892
1.16892
1.16893
1.16893
1.16893
1.16893
1.16893
1.16894
1.16894
1.16894
1.16894
1.16894
1.16894
1.16894
1.16895
1.16895
1.16895
1.16895
1.16895
1.16896
1.16895
1.16897
1.16896
1.16897
1.16896
1.16897
1.16895
1.16903
1.16912
1.16983
1.17093
1.17586
1.18341
1.19441
1.22812
1.34103
1.38494
2.0978
1.56953
39.1085
977.991
1027.09
1027.09
1027.09
1027.09
1027.1
1027.09
1027.09
1027.09
1027.1
1027.1
1027.09
1027.09
1027.1
1027.1
1027.09
1027.09
1027.1
1027.1
1027.1
1027.1
1027.1
1027.1
1027.1
1027.1
1027.1
1027.1
1027.1
1027.1
1027.1
1027.1
1027.1
1027.1
1027.1
1027.1
1027.1
1.16475
1.16525
1.16561
1.16643
1.16676
1.1671
1.16753
1.16786
1.16798
1.16821
1.16852
1.16881
1.16888
1.16891
1.16891
1.16892
1.16891
1.16892
1.16892
1.16892
1.16892
1.16892
1.16893
1.16893
1.16893
1.16893
1.16893
1.16893
1.16894
1.16894
1.16894
1.16894
1.16894
1.16894
1.16894
1.16895
1.16895
1.16895
1.16895
1.16896
1.16895
1.16896
1.16895
1.16897
1.16895
1.16897
1.16894
1.16902
1.16912
1.16986
1.17101
1.17611
1.18437
1.19407
1.20781
1.32845
1.48481
1.87698
1.37016
93.7526
1009.7
1026.87
1026.87
1026.96
1026.99
1027
1027
1026.98
1026.96
1026.94
1026.92
1026.91
1026.91
1026.9
1026.89
1026.85
1026.81
1026.81
1026.92
1026.97
1027.02
1027.06
1027.08
1027.09
1027.1
1027.1
1027.1
1027.1
1027.1
1027.1
1027.1
1027.1
1027.1
1027.1
1027.1
1027.1
1.16416
1.16464
1.16472
1.16571
1.166
1.16666
1.16744
1.16786
1.16797
1.16821
1.16852
1.16881
1.16888
1.16891
1.16891
1.16891
1.16891
1.16892
1.16892
1.16892
1.16892
1.16892
1.16892
1.16893
1.16893
1.16893
1.16893
1.16893
1.16893
1.16894
1.16894
1.16894
1.16894
1.16894
1.16894
1.16895
1.16895
1.16895
1.16895
1.16896
1.16895
1.16896
1.16895
1.16897
1.16895
1.16897
1.16894
1.16902
1.16912
1.16988
1.17103
1.17561
1.18366
1.19743
1.21084
1.41034
1.51507
1.53503
1.21993
204.465
1012.8
1023.01
1022.99
1023.73
1024.04
1024.14
1023.87
1023.58
1023.43
1023.13
1022.49
1021.81
1021.54
1021.49
1021.1
1019.89
1019.5
1020.04
1020.92
1021.64
1023.03
1024.3
1025.14
1025.87
1026.46
1026.79
1026.98
1027.07
1027.09
1027.1
1027.1
1027.1
1027.1
1027.1
1027.1
1027.1
1.16357
1.16409
1.16413
1.16511
1.16524
1.16609
1.16718
1.16783
1.16797
1.16825
1.16853
1.16881
1.16887
1.16891
1.16891
1.16891
1.16891
1.16892
1.16892
1.16892
1.16892
1.16892
1.16892
1.16893
1.16893
1.16893
1.16893
1.16893
1.16893
1.16894
1.16894
1.16894
1.16894
1.16894
1.16894
1.16895
1.16895
1.16895
1.16895
1.16895
1.16895
1.16896
1.16895
1.16897
1.16895
1.16897
1.16895
1.16902
1.16909
1.16985
1.17104
1.17598
1.18485
1.20469
1.22372
1.39678
1.54599
1.43706
1.16898
407.484
1004.1
1009.53
1009
1008.82
1007.77
1007.14
1006.86
1006.25
1005.42
1004.32
1003.17
1002.46
1002.06
1001.83
1001.65
999.61
997.762
996.878
996.56
997.322
999.777
1001.8
1003.78
1006.35
1009.55
1011.57
1013.71
1017.52
1020.95
1023.71
1025.73
1026.36
1026.17
1026.11
1026
1025.74
1.16292
1.1633
1.16346
1.16419
1.16444
1.16526
1.16686
1.16777
1.16796
1.16827
1.16854
1.1688
1.16887
1.16891
1.16891
1.16891
1.16891
1.16892
1.16892
1.16892
1.16892
1.16892
1.16892
1.16893
1.16893
1.16893
1.16893
1.16893
1.16893
1.16894
1.16894
1.16894
1.16894
1.16894
1.16894
1.16895
1.16895
1.16895
1.16895
1.16895
1.16895
1.16896
1.16895
1.16897
1.16895
1.16897
1.16895
1.16901
1.16907
1.16975
1.17099
1.17641
1.18556
1.20715
1.2393
1.30295
1.52643
1.5314
1.16898
493.25
994.232
999.272
999.019
999.107
998.189
997.467
997.049
996.339
996.108
996.068
995.818
995.66
995.522
994.666
993.053
990.75
988.429
986.43
984.801
983.063
980.914
978.374
975.694
973.173
969.945
956.531
943.84
941.919
941.324
931.608
922.617
913.076
899.21
876.021
825.239
625.518
1.16267
1.16238
1.16262
1.16302
1.16324
1.16414
1.16642
1.16774
1.16797
1.16831
1.16856
1.16881
1.16887
1.16891
1.16891
1.16892
1.16892
1.16892
1.16892
1.16892
1.16892
1.16892
1.16892
1.16893
1.16893
1.16893
1.16893
1.16893
1.16893
1.16894
1.16894
1.16894
1.16894
1.16894
1.16894
1.16895
1.16895
1.16895
1.16895
1.16895
1.16895
1.16896
1.16896
1.16897
1.16895
1.16897
1.16895
1.16901
1.16904
1.16966
1.1707
1.17618
1.18571
1.19909
1.2382
1.34987
1.45014
1.54774
1.16898
389.697
1008.3
1016.25
1017.48
1018.79
1019.53
1019.97
1020.59
1021.24
1021.91
1022.64
1023.38
1024.11
1024.77
1025.24
1025.46
1025.46
1025.33
1025.03
1024.82
1024.7
1024.31
1023.81
1023.29
1022.84
1022.33
1021.95
1021.85
1021.26
1020.69
1020.08
1019.75
1019.71
1020.55
1021.98
1023.64
1024.36
1.16275
1.16208
1.162
1.16209
1.16225
1.16335
1.1658
1.16777
1.16807
1.16838
1.16862
1.16883
1.16889
1.16891
1.16891
1.16892
1.16892
1.16892
1.16892
1.16892
1.16892
1.16892
1.16893
1.16893
1.16893
1.16893
1.16893
1.16893
1.16894
1.16894
1.16894
1.16894
1.16894
1.16894
1.16895
1.16895
1.16895
1.16895
1.16895
1.16896
1.16895
1.16896
1.16896
1.16897
1.16896
1.16897
1.16895
1.169
1.16902
1.1696
1.17045
1.17531
1.18734
1.20088
1.26135
1.40381
1.43023
1.36213
1.16906
240.787
1018.79
1026.06
1026.37
1026.65
1026.77
1026.88
1026.95
1026.99
1027.02
1027.04
1027.05
1027.06
1027.07
1027.07
1027.07
1027.07
1027.07
1027.07
1027.07
1027.07
1027.07
1027.07
1027.06
1027.07
1027.07
1027.08
1027.09
1027.09
1027.1
1027.1
1027.1
1027.1
1027.1
1027.1
1027.1
1027.1
1.16266
1.16204
1.16192
1.16196
1.162
1.16299
1.16534
1.16778
1.16814
1.16847
1.16868
1.16885
1.1689
1.16891
1.16891
1.16892
1.16892
1.16892
1.16892
1.16892
1.16892
1.16892
1.16893
1.16893
1.16893
1.16893
1.16893
1.16893
1.16894
1.16894
1.16894
1.16894
1.16894
1.16894
1.16895
1.16895
1.16895
1.16895
1.16895
1.16896
1.16895
1.16896
1.16896
1.16897
1.16896
1.16897
1.16895
1.169
1.16901
1.16956
1.17027
1.17479
1.18843
1.20619
1.23882
1.30284
1.52153
1.58501
1.30398
105.048
972.576
1027.1
1027.08
1027.09
1027.09
1027.09
1027.1
1027.1
1027.1
1027.1
1027.1
1027.1
1027.1
1027.1
1027.1
1027.1
1027.1
1027.1
1027.1
1027.1
1027.1
1027.1
1027.1
1027.1
1027.1
1027.1
1027.1
1027.1
1027.1
1027.1
1027.1
1027.1
1027.1
1027.1
1027.1
1027.1
1.1609
1.16161
1.16192
1.16187
1.16187
1.16321
1.16568
1.16793
1.16821
1.16854
1.16873
1.16888
1.1689
1.16891
1.16891
1.16892
1.16891
1.16892
1.16892
1.16892
1.16892
1.16892
1.16893
1.16893
1.16893
1.16893
1.16893
1.16893
1.16894
1.16894
1.16894
1.16894
1.16894
1.16894
1.16895
1.16895
1.16895
1.16895
1.16895
1.16896
1.16895
1.16896
1.16896
1.16897
1.16896
1.16897
1.16895
1.169
1.16899
1.16948
1.17014
1.17474
1.19021
1.20667
1.22759
1.30173
1.37877
1.88056
1.57738
57.8034
980.063
1027.1
1027.09
1027.1
1027.09
1027.1
1027.1
1027.1
1027.1
1027.1
1027.1
1027.1
1027.1
1027.1
1027.1
1027.1
1027.1
1027.1
1027.1
1027.1
1027.1
1027.1
1027.1
1027.1
1027.1
1027.1
1027.1
1027.1
1027.1
1027.1
1027.1
1027.1
1027.1
1027.1
1027.1
1027.1
1.16147
1.16193
1.16199
1.1619
1.16187
1.16239
1.16435
1.16762
1.16833
1.16868
1.16882
1.1689
1.16891
1.16891
1.16891
1.16891
1.16891
1.16892
1.16892
1.16892
1.16892
1.16892
1.16893
1.16893
1.16893
1.16893
1.16893
1.16893
1.16894
1.16894
1.16894
1.16894
1.16894
1.16894
1.16895
1.16895
1.16895
1.16895
1.16895
1.16895
1.16895
1.16896
1.16896
1.16896
1.16896
1.16897
1.16895
1.169
1.16897
1.16931
1.1701
1.17621
1.19246
1.20995
1.21961
1.30574
1.37127
1.99394
2.12264
41.5338
977.016
1027.1
1027.09
1027.1
1027.1
1027.1
1027.1
1027.1
1027.1
1027.1
1027.1
1027.1
1027.1
1027.1
1027.1
1027.1
1027.1
1027.1
1027.1
1027.1
1027.1
1027.1
1027.1
1027.1
1027.1
1027.1
1027.1
1027.1
1027.1
1027.1
1027.1
1027.1
1027.1
1027.1
1027.1
1027.1
1.16162
1.1621
1.16184
1.1624
1.16143
1.16135
1.16235
1.16635
1.16841
1.1688
1.16887
1.16891
1.16891
1.16891
1.16891
1.16891
1.16891
1.16891
1.16892
1.16892
1.16892
1.16892
1.16892
1.16892
1.16893
1.16893
1.16893
1.16893
1.16893
1.16893
1.16894
1.16894
1.16894
1.16894
1.16894
1.16894
1.16894
1.16895
1.16895
1.16895
1.16895
1.16896
1.16895
1.16896
1.16896
1.16896
1.16895
1.16899
1.16896
1.16915
1.17046
1.17711
1.19511
1.21167
1.21831
1.27487
1.43736
2.03328
2.36118
40.5437
969.445
1027.1
1027.09
1027.1
1027.1
1027.1
1027.1
1027.1
1027.1
1027.1
1027.1
1027.1
1027.1
1027.1
1027.1
1027.1
1027.1
1027.1
1027.1
1027.1
1027.1
1027.1
1027.1
1027.1
1027.1
1027.1
1027.1
1027.1
1027.1
1027.1
1027.1
1027.1
1027.1
1027.1
1027.1
1027.1
1.16174
1.1624
1.16142
1.16304
1.16181
1.16122
1.1613
1.16379
1.16822
1.16887
1.16889
1.16891
1.1689
1.16891
1.16891
1.16891
1.16891
1.16891
1.16891
1.16891
1.16892
1.16892
1.16892
1.16892
1.16892
1.16893
1.16893
1.16893
1.16893
1.16893
1.16893
1.16893
1.16894
1.16894
1.16894
1.16894
1.16894
1.16894
1.16895
1.16895
1.16895
1.16895
1.16895
1.16896
1.16896
1.16896
1.16895
1.16898
1.16896
1.16908
1.1709
1.17694
1.19541
1.21234
1.22513
1.27859
1.51395
2.2184
3.32551
47.1389
960.804
1026.91
1027.09
1027.1
1027.1
1027.1
1027.1
1027.1
1027.1
1027.1
1027.1
1027.1
1027.1
1027.1
1027.1
1027.1
1027.1
1027.1
1027.1
1027.1
1027.1
1027.1
1027.1
1027.1
1027.1
1027.1
1027.1
1027.1
1027.1
1027.1
1027.1
1027.1
1027.1
1027.1
1027.1
1027.1
1.16108
1.16107
1.16105
1.16115
1.16127
1.16133
1.16131
1.16192
1.16756
1.16888
1.1689
1.16891
1.1689
1.16891
1.16891
1.16891
1.16891
1.16892
1.16891
1.16892
1.16892
1.16892
1.16892
1.16893
1.16893
1.16893
1.16893
1.16893
1.16894
1.16894
1.16894
1.16894
1.16894
1.16894
1.16895
1.16895
1.16895
1.16895
1.16896
1.16896
1.16896
1.16896
1.16896
1.16897
1.16896
1.16897
1.16895
1.16899
1.16896
1.1691
1.17044
1.1772
1.19842
1.21333
1.22163
1.30552
1.42409
2.32951
4.79463
56.672
946.412
1026.15
1027.09
1027.1
1027.1
1027.1
1027.1
1027.1
1027.1
1027.1
1027.1
1027.1
1027.1
1027.1
1027.1
1027.1
1027.1
1027.1
1027.1
1027.1
1027.1
1027.1
1027.1
1027.1
1027.1
1027.1
1027.1
1027.1
1027.1
1027.1
1027.1
1027.1
1027.1
1027.1
1027.1
1027.1
1.16497
1.1656
1.16587
1.16638
1.167
1.16766
1.16837
1.1687
1.16884
1.1689
1.1689
1.16891
1.16891
1.16891
1.16891
1.16891
1.16891
1.16892
1.16892
1.16892
1.16892
1.16892
1.16892
1.16893
1.16893
1.16893
1.16893
1.16893
1.16893
1.16893
1.16893
1.16894
1.16894
1.16894
1.16894
1.16894
1.16894
1.16895
1.16894
1.16895
1.16894
1.16895
1.16894
1.16896
1.16894
1.16897
1.16894
1.16897
1.16895
1.1695
1.17082
1.17504
1.17644
1.197
1.20588
1.29021
1.53101
2.44443
4.33233
57.9098
941.173
1026.17
1027.09
1027.09
1027.1
1027.1
1027.1
1027.1
1027.1
1027.1
1027.1
1027.1
1027.1
1027.1
1027.1
1027.1
1027.1
1027.1
1027.1
1027.1
1027.1
1027.1
1027.1
1027.1
1027.1
1027.1
1027.1
1027.1
1027.1
1027.1
1027.1
1027.1
1027.1
1027.1
1027.1
1027.1
1.16534
1.16612
1.16629
1.16686
1.1674
1.16792
1.16841
1.16868
1.16881
1.16886
1.16889
1.1689
1.16891
1.16891
1.16891
1.16891
1.16891
1.16892
1.16892
1.16892
1.16892
1.16892
1.16893
1.16893
1.16893
1.16893
1.16893
1.16893
1.16893
1.16894
1.16894
1.16894
1.16894
1.16894
1.16894
1.16895
1.16895
1.16895
1.16894
1.16895
1.16895
1.16896
1.16895
1.16896
1.16895
1.16897
1.16894
1.16898
1.16896
1.16951
1.17069
1.17434
1.17559
1.19493
1.20835
1.27187
1.62648
2.39746
3.19057
40.8046
950.173
1026.61
1027.09
1027.09
1027.1
1027.1
1027.1
1027.1
1027.1
1027.1
1027.1
1027.1
1027.1
1027.1
1027.1
1027.1
1027.1
1027.1
1027.1
1027.1
1027.1
1027.1
1027.1
1027.1
1027.1
1027.1
1027.1
1027.1
1027.1
1027.1
1027.1
1027.1
1027.1
1027.1
1027.1
1027.1
1.16536
1.1663
1.16663
1.16708
1.16743
1.16789
1.16828
1.1685
1.16865
1.16876
1.16884
1.16889
1.1689
1.16891
1.16891
1.16891
1.16891
1.16891
1.16891
1.16892
1.16892
1.16892
1.16892
1.16892
1.16892
1.16893
1.16893
1.16893
1.16893
1.16893
1.16893
1.16894
1.16894
1.16894
1.16894
1.16894
1.16894
1.16895
1.16894
1.16895
1.16894
1.16896
1.16895
1.16897
1.16895
1.16897
1.16894
1.16899
1.16897
1.16955
1.17057
1.17433
1.1779
1.19829
1.21614
1.25931
1.47907
2.30803
2.0688
37.3918
978.259
1027.05
1027.09
1027.09
1027.1
1027.1
1027.1
1027.1
1027.1
1027.1
1027.1
1027.1
1027.1
1027.1
1027.1
1027.1
1027.1
1027.1
1027.1
1027.1
1027.1
1027.1
1027.1
1027.1
1027.1
1027.1
1027.1
1027.1
1027.1
1027.1
1027.1
1027.1
1027.1
1027.1
1027.1
1027.1
1.16497
1.16628
1.16674
1.16704
1.16731
1.1677
1.16806
1.1683
1.1685
1.16866
1.1688
1.16888
1.1689
1.16891
1.16891
1.16891
1.16891
1.16891
1.16891
1.16891
1.16892
1.16892
1.16892
1.16892
1.16892
1.16892
1.16893
1.16893
1.16893
1.16893
1.16893
1.16893
1.16893
1.16894
1.16894
1.16894
1.16894
1.16894
1.16894
1.16895
1.16894
1.16896
1.16895
1.16897
1.16895
1.16897
1.16894
1.16899
1.16898
1.16951
1.17049
1.17526
1.18192
1.19746
1.20644
1.31228
1.42347
2.22156
1.56934
36.3412
994.109
1027.08
1027.09
1027.09
1027.09
1027.09
1027.1
1027.1
1027.1
1027.1
1027.1
1027.1
1027.1
1027.1
1027.1
1027.1
1027.1
1027.1
1027.1
1027.1
1027.1
1027.1
1027.1
1027.1
1027.1
1027.1
1027.1
1027.1
1027.1
1027.1
1027.1
1027.1
1027.1
1027.1
1027.1
1027.1
1.16398
1.16611
1.16663
1.16695
1.16718
1.16758
1.16791
1.1682
1.16843
1.16861
1.16877
1.16887
1.1689
1.16891
1.16891
1.16891
1.16891
1.16891
1.16891
1.16892
1.16892
1.16892
1.16892
1.16892
1.16892
1.16892
1.16893
1.16893
1.16893
1.16893
1.16893
1.16893
1.16893
1.16894
1.16894
1.16894
1.16894
1.16895
1.16894
1.16895
1.16895
1.16896
1.16895
1.16897
1.16895
1.16897
1.16894
1.16899
1.16897
1.16952
1.17047
1.17624
1.1862
1.19208
1.24519
1.34136
1.35808
2.08308
1.71454
62.957
1002.15
1026.94
1026.96
1027
1027.02
1027.04
1027.05
1027.05
1027.05
1027.05
1027.05
1027.06
1027.07
1027.08
1027.09
1027.09
1027.09
1027.09
1027.09
1027.09
1027.09
1027.1
1027.1
1027.1
1027.1
1027.1
1027.1
1027.1
1027.1
1027.1
1027.1
1027.1
1027.1
1027.1
1027.1
1027.1
1.16354
1.16595
1.16666
1.16703
1.16706
1.16745
1.16783
1.16815
1.16832
1.16841
1.16866
1.1688
1.16889
1.16891
1.16891
1.16891
1.16892
1.16892
1.16892
1.16892
1.16892
1.16892
1.16892
1.16892
1.16892
1.16893
1.16893
1.16893
1.16893
1.16893
1.16893
1.16894
1.16894
1.16894
1.16894
1.16895
1.16895
1.16895
1.16895
1.16896
1.16896
1.16896
1.16896
1.16897
1.16896
1.16897
1.16895
1.169
1.16899
1.1698
1.17042
1.1765
1.18802
1.19479
1.21965
1.33974
1.43428
1.90227
1.73301
115.174
997.435
1025.84
1025.9
1026.05
1026.13
1026.14
1026.09
1026.12
1026.24
1026.41
1026.56
1026.71
1026.86
1026.97
1027.02
1027.03
1027.02
1027.03
1027.04
1027.05
1027.05
1027.06
1027.06
1027.07
1027.07
1027.09
1027.09
1027.1
1027.1
1027.1
1027.1
1027.1
1027.1
1027.1
1027.1
1027.1
1.16323
1.1656
1.16671
1.16725
1.16722
1.16748
1.16753
1.16765
1.16797
1.16792
1.16828
1.16862
1.16886
1.16891
1.16891
1.16891
1.16892
1.16892
1.16892
1.16892
1.16893
1.16893
1.16893
1.16893
1.16893
1.16893
1.16894
1.16894
1.16894
1.16894
1.16894
1.16894
1.16895
1.16895
1.16895
1.16895
1.16895
1.16895
1.16896
1.16896
1.16896
1.16896
1.16896
1.16897
1.16896
1.16897
1.16896
1.16904
1.16907
1.17009
1.17082
1.17356
1.18635
1.20802
1.21786
1.29122
1.61767
1.74798
1.6822
214.524
1010.09
1024.01
1024.5
1024.57
1024.64
1024.71
1024.68
1024.58
1025.14
1025.65
1026.07
1026.39
1026.53
1026.49
1026.44
1026.42
1026.41
1026.51
1026.69
1026.8
1026.88
1026.93
1026.97
1026.97
1026.94
1026.98
1027.01
1027.04
1027.07
1027.09
1027.1
1027.1
1027.1
1027.1
1027.1
1027.09
1.16313
1.16511
1.16635
1.167
1.16746
1.1674
1.16734
1.16733
1.16733
1.16756
1.16797
1.16845
1.16877
1.16889
1.1689
1.16891
1.16891
1.16891
1.16891
1.16892
1.16892
1.16892
1.16892
1.16892
1.16892
1.16893
1.16893
1.16893
1.16893
1.16893
1.16893
1.16893
1.16893