/*--------------------------------*- C++ -*----------------------------------*\
| =========                 |                                                 |
| \\      /  F ield         | OpenFOAM: The Open Source CFD Toolbox           |
|  \\    /   O peration     | Version:  2.3.0                                 |
|   \\  /    A nd           | Web:      www.OpenFOAM.org                      |
|    \\/     M anipulation  |                                                 |
\*---------------------------------------------------------------------------*/
FoamFile
{
    version     2.0;
    format      ascii;
    class       volVectorField;
    location    "19";
    object      U;
}
// * * * * * * * * * * * * * * * * * * * * * * * * * * * * * * * * * * * * * //

dimensions      [0 1 -1 0 0 0 0];

internalField   nonuniform List<vector> 
6144
(
(0.0100894 0.0236091 -0.0027022)
(0.0104091 0.00857214 -0.00316674)
(0.00736934 0.00601533 -0.00381541)
(0.00712941 0.00246428 -0.00355367)
(0.00424649 0.000459295 -0.00256028)
(0.00350747 0.000420284 -0.00189812)
(0.0022223 -0.000827985 -0.000640893)
(0.00176641 0.000527296 -0.000173283)
(0.00158432 0.00122516 -1.53501e-05)
(0.00130596 0.00306862 0.000739105)
(0.00126626 0.00402514 0.00104458)
(0.00148443 0.00439351 0.001562)
(0.00171443 0.00383305 0.00156382)
(0.00189665 0.00302084 0.0016847)
(0.00194487 0.00206381 0.0012938)
(0.00203159 0.00144824 0.00106341)
(0.00206317 0.000899754 0.000747252)
(0.00211155 0.000613688 0.000559452)
(0.00213465 0.000369811 0.000397764)
(0.0021493 0.000243624 0.000314163)
(0.00214903 0.000155304 0.000267615)
(0.00214085 0.000115345 0.00025295)
(0.00212604 9.84205e-05 0.000258466)
(0.00210697 0.000101653 0.000280399)
(0.00208421 0.000114886 0.000315229)
(0.00205793 0.000136969 0.00036113)
(0.00202832 0.000167376 0.000413705)
(0.00199525 0.000209565 0.000470505)
(0.00195886 0.000267764 0.000533)
(0.00192039 0.000342392 0.000604997)
(0.00187733 0.000430529 0.000691398)
(0.00182528 0.000523926 0.000799994)
(0.00176153 0.000616656 0.000942604)
(0.00168372 0.000686588 0.00112901)
(0.00158903 0.00071522 0.00137358)
(0.00147698 0.000659902 0.001675)
(0.00134948 0.000504012 0.0020255)
(0.00121501 0.000217572 0.00238399)
(0.00108379 -0.000113478 0.00269246)
(0.000961778 -0.000434393 0.00284847)
(0.000859313 -0.000540535 0.00276566)
(0.000764767 -0.00026773 0.00233315)
(0.000615674 0.000829528 0.00152962)
(0.000465463 0.00307388 0.000516029)
(0.000383107 0.00693966 -0.000288512)
(0.000548093 0.0114435 -0.000236614)
(0.00145881 0.0147358 -0.000559908)
(0.00290019 0.0163175 -0.0016754)
(0.00437019 0.018162 -0.00273838)
(0.00692638 0.0173045 -0.00576183)
(0.00762554 0.0177946 -0.0108776)
(0.00617758 0.0267981 -0.014717)
(0.0155632 0.0410525 -0.0120502)
(0.0315412 -0.0124721 -0.00461997)
(0.0491792 -0.0358706 -0.0133375)
(0.0307441 -0.100344 -0.00620602)
(0.00223371 -0.0529224 -0.0175223)
(-0.00981519 -0.0999617 0.0260681)
(-0.0415873 0.0264721 -0.0567942)
(0.0223701 0.11441 0.0448129)
(0.135653 -0.274234 0.0710841)
(0.0911669 -0.139848 0.0299741)
(0.0626233 -0.196419 0.00883825)
(0.0521167 -0.24287 0.00400607)
(0.0486717 -0.244477 0.00576019)
(0.0431629 -0.243384 0.0083701)
(0.0340302 -0.240926 0.0112493)
(0.0302309 -0.24479 0.0156546)
(0.019587 -0.247377 0.023576)
(0.0112373 -0.240119 0.0248087)
(0.0125577 -0.230282 0.0225729)
(0.00757853 -0.220366 0.0226176)
(0.0040436 -0.212511 0.0151185)
(0.016022 -0.201917 0.00353292)
(0.0310674 -0.165684 -0.0113514)
(0.00601346 -0.139345 -0.00835259)
(-0.0170344 -0.0825004 0.015763)
(-0.020849 -0.0323471 0.021412)
(-0.021046 0.00195137 0.0180784)
(-0.0149561 0.00476683 0.022412)
(-0.00974014 -0.00512613 0.0157989)
(0.0048839 0.00269275 0.00327526)
(0.00772 0.00943971 0.00840475)
(0.00423124 0.0044694 0.00771163)
(0.00546974 -0.00117207 0.00684627)
(0.00496126 0.000952317 0.00390027)
(0.00409382 0.00415532 0.000630332)
(0.00146966 0.0123631 -0.00281263)
(3.86523e-05 0.0230533 -0.00343898)
(-0.00107901 0.03115 -0.00382259)
(0.000714489 0.0369347 -0.00279751)
(0.00213835 0.0380835 -0.000252839)
(0.00145464 0.0357266 0.00437949)
(0.0019787 0.0287465 0.010863)
(0.00473702 0.0165606 0.0131379)
(0.00134345 0.00319341 0.0138704)
(0.0176093 0.024061 0.00142407)
(0.0183489 0.0157885 0.00123653)
(0.0144858 0.0134731 0.000118501)
(0.0136968 0.0108928 0.00215471)
(0.00909208 0.00692454 0.00251739)
(0.00774789 0.00411998 0.00352716)
(0.00391469 0.00157384 0.00389698)
(0.00248342 0.00283619 0.00355137)
(0.00171859 0.00375735 0.0031894)
(0.00156818 0.00536754 0.0035513)
(0.00190287 0.00575549 0.00361614)
(0.0026333 0.00578069 0.00420441)
(0.00302776 0.00484873 0.00427606)
(0.00341896 0.00413069 0.00442241)
(0.00343454 0.00306998 0.00427553)
(0.00357067 0.0023601 0.0042178)
(0.00356599 0.00164597 0.0040877)
(0.00364226 0.00125605 0.00401245)
(0.00366453 0.000902757 0.00391197)
(0.00367709 0.000699014 0.00387859)
(0.00366009 0.000545674 0.0038671)
(0.00362996 0.000461535 0.0038867)
(0.00358656 0.000411346 0.00392411)
(0.00353444 0.000391232 0.00397829)
(0.0034755 0.000386795 0.00404241)
(0.00340997 0.0003952 0.00411298)
(0.0033376 0.000413194 0.00418648)
(0.00325675 0.000443411 0.00426096)
(0.00316617 0.000491195 0.00433685)
(0.00306758 0.000553346 0.00440885)
(0.00296328 0.000620552 0.00447581)
(0.00284808 0.000677779 0.0045511)
(0.00272138 0.0007194 0.0046398)
(0.00258252 0.000713453 0.00474762)
(0.00243574 0.000645843 0.00487714)
(0.00228419 0.000471741 0.00502888)
(0.00213129 0.000205528 0.00519371)
(0.00197198 -0.000162189 0.00535636)
(0.00180024 -0.000518798 0.00548776)
(0.00159004 -0.000812434 0.00555081)
(0.0013107 -0.000855479 0.00550476)
(0.000927037 -0.00052982 0.00523271)
(0.000583415 0.000550424 0.00442941)
(-0.000131444 0.00261905 0.00336602)
(-0.00116262 0.00599684 0.00283754)
(-0.00147302 0.00875356 0.00350944)
(-0.000589116 0.00952097 0.00385055)
(0.00204076 0.0104668 0.00127427)
(0.00630864 0.0140943 -0.000685724)
(0.0122933 0.0155859 -0.00269432)
(0.0157028 0.0196414 -0.0042201)
(0.0174455 0.0151419 -0.00384783)
(0.0589496 -0.00527593 0.0130445)
(0.0907641 -0.084416 0.00763085)
(0.0748269 -0.0910105 -0.00903345)
(0.0499161 -0.137596 -0.00136847)
(0.00760741 -0.110468 -0.00181642)
(-0.000655717 -0.156212 0.0353873)
(-0.0722389 0.0278891 -0.0577185)
(0.0317548 0.0834656 0.0340675)
(0.197969 -0.256999 0.125626)
(0.119319 -0.0828762 0.0759668)
(0.0598757 -0.145356 0.0151037)
(0.049304 -0.128006 0.0224752)
(0.0279389 -0.115843 0.0175226)
(0.0146866 -0.0819679 0.0219732)
(0.00503165 -0.0830198 0.0375728)
(-0.00479907 -0.0880938 0.0507079)
(-0.0153658 -0.105006 0.0486808)
(-0.0246257 -0.123768 0.0496941)
(-0.0221419 -0.13914 0.0518875)
(-0.0145999 -0.146971 0.0410173)
(-0.018509 -0.142777 0.0115646)
(-0.0294429 -0.117105 0.00597919)
(-0.028515 -0.0449539 0.00249365)
(-0.0329041 -0.0235236 0.0021973)
(-0.0373834 -0.00283043 0.00804395)
(-0.0285022 0.0145524 0.0121574)
(-0.0220905 0.0181025 0.0216169)
(-0.0214561 0.00816118 0.0289948)
(-0.0192681 -0.00238157 0.011832)
(-0.0152819 0.0222097 0.00790185)
(-0.0136463 0.0274527 0.0143713)
(-0.00887111 0.0233452 0.0171237)
(-0.00683089 0.0213445 0.0134265)
(-0.00569236 0.0329857 0.00733102)
(-0.00732679 0.0489316 0.00216543)
(-0.00554752 0.0584341 0.00310462)
(-0.00139599 0.0608184 0.00378988)
(0.00338792 0.0579972 0.00474277)
(0.00664603 0.0519645 0.00484425)
(0.00698684 0.04544 0.00630995)
(0.00661488 0.0380233 0.00909839)
(0.00600692 0.025373 0.00977146)
(0.00426186 0.0160713 0.0112663)
(0.00095348 0.00333164 0.013722)
(0.0206933 0.0207181 0.00214725)
(0.0217061 0.0171833 0.00246612)
(0.0174623 0.0146705 0.00119412)
(0.0165908 0.0145987 0.00271165)
(0.0116586 0.0103535 0.00352288)
(0.0103111 0.00676786 0.00444038)
(0.00342623 0.00338932 0.00480258)
(0.00138326 0.00364726 0.00468977)
(8.31844e-05 0.00404187 0.00422722)
(0.000457528 0.00531861 0.00431246)
(0.000991972 0.00528999 0.00418977)
(0.00214929 0.00524354 0.0045829)
(0.00243501 0.0045394 0.0046658)
(0.00286095 0.00431517 0.00486497)
(0.00287043 0.00354841 0.00478347)
(0.00304086 0.00301688 0.00479365)
(0.00294289 0.00231733 0.00472911)
(0.00296246 0.00189682 0.00475211)
(0.00287175 0.00147777 0.00475571)
(0.00280949 0.00123397 0.004798)
(0.00271338 0.0010369 0.00483669)
(0.00262075 0.000922319 0.00488793)
(0.00252479 0.000844706 0.00493846)
(0.00243068 0.000804024 0.00499111)
(0.00233685 0.000784057 0.00504453)
(0.00224174 0.000779814 0.00509715)
(0.00214132 0.000785431 0.00514797)
(0.00203159 0.000798927 0.00519665)
(0.00191152 0.000819648 0.0052439)
(0.00178111 0.000841237 0.00529239)
(0.0016412 0.000857177 0.00534569)
(0.00149075 0.000850983 0.00540616)
(0.00133086 0.000816134 0.00547564)
(0.00115896 0.000729779 0.00555531)
(0.000979643 0.000599044 0.00564139)
(0.000795455 0.000412064 0.00572827)
(0.00060763 0.000223658 0.00580784)
(0.000393738 7.84265e-05 0.0058584)
(0.000144423 8.78491e-05 0.00585347)
(-0.00012569 0.000307445 0.0057638)
(-0.000417527 0.000845174 0.00555052)
(-0.00081079 0.00167787 0.00518934)
(-0.00152688 0.00289496 0.00473846)
(-0.0028098 0.00461554 0.00419583)
(-0.00411919 0.00607504 0.00389493)
(-0.00411846 0.00525181 0.0044709)
(-0.00406754 0.00345096 0.00539399)
(-0.00152154 0.00155453 0.0032382)
(0.00424118 0.00401558 0.00312816)
(0.0112235 0.00364832 0.00321172)
(0.025335 0.00448778 0.00205967)
(0.0511249 -0.0213034 0.00521249)
(0.108868 -0.0644265 0.0170314)
(0.122437 -0.100447 -0.00826801)
(0.103877 -0.079807 -0.0259815)
(0.0883015 -0.0992484 -0.001012)
(-0.0357148 -0.0430469 0.0153464)
(-0.043752 -0.168282 0.0471525)
(-0.162555 0.0632211 -0.0600945)
(0.076432 0.0404629 0.00150381)
(0.245873 -0.240758 0.139176)
(0.148988 -0.030807 0.0888935)
(0.0842491 -0.111946 0.0203616)
(0.0618792 -0.050017 0.0112102)
(0.0328467 -0.0424 -0.010282)
(0.0399926 -0.0141086 0.00227631)
(0.0444568 -0.0257307 0.0219218)
(0.0376849 -0.0385487 0.0315155)
(0.0174295 -0.0603385 0.0349268)
(-0.0143773 -0.0798638 0.0180962)
(-0.0412549 -0.0674726 -0.00725972)
(-0.0466706 -0.0309455 -0.0122508)
(-0.0398532 -0.00484127 -0.0146741)
(-0.0213016 0.0177786 -0.0135792)
(-0.00320163 0.0305181 -0.00883752)
(-0.00846218 0.0276469 0.00546338)
(-0.0282088 0.0269168 0.0139035)
(-0.0339151 0.0249955 0.0290002)
(-0.0391551 0.0254045 0.036843)
(-0.0420809 0.0173288 0.0285213)
(-0.0370591 0.0200708 0.00875893)
(-0.0247053 0.0360895 0.00991336)
(-0.015558 0.0354767 0.0124489)
(-0.0146291 0.0340295 0.0128986)
(-0.018075 0.0359085 0.00669956)
(-0.0225725 0.047801 0.00205482)
(-0.0174958 0.0604317 0.00381655)
(-0.00852064 0.0654155 0.00731001)
(-0.000634862 0.0627525 0.00755536)
(0.00606433 0.0585982 0.00572044)
(0.00909545 0.0521427 0.00209367)
(0.00882843 0.0449371 0.000744812)
(0.00898639 0.0368696 -0.000461322)
(0.00874744 0.0244262 -0.00322878)
(0.00552649 0.0170552 -0.00252925)
(0.00310859 -0.00380372 -0.000771245)
(0.02176 0.0194652 0.00149575)
(0.02419 0.0174082 0.00145175)
(0.0200525 0.0134552 -0.000411837)
(0.0206664 0.0147733 -0.000171954)
(0.016317 0.010459 0.00117875)
(0.0148424 0.00816663 0.0020311)
(0.00465208 0.00406969 0.00303539)
(0.00139033 0.00301468 0.00357301)
(-0.00150042 0.00208232 0.00365964)
(-0.000794298 0.00383114 0.00392015)
(6.95952e-05 0.00361337 0.00380441)
(0.00108709 0.00393642 0.0043974)
(0.0011732 0.00372499 0.00451309)
(0.00157595 0.00396328 0.00478722)
(0.00164964 0.00352737 0.00468166)
(0.00185507 0.00323402 0.00471031)
(0.00173739 0.00260196 0.00461323)
(0.00175977 0.00218562 0.00462893)
(0.0016268 0.00170395 0.00461578)
(0.0015439 0.00141187 0.0046609)
(0.0014205 0.00115857 0.00470451)
(0.00131363 0.00101471 0.0047698)
(0.00119675 0.000918559 0.00482939)
(0.00108331 0.000865026 0.00488788)
(0.00097419 0.000836752 0.00494494)
(0.000866748 0.000828286 0.0050002)
(0.000757529 0.000831319 0.00505284)
(0.000640241 0.00084058 0.00510151)
(0.000514303 0.000849203 0.00514756)
(0.000385004 0.000847936 0.00519419)
(0.000255427 0.000831264 0.00524469)
(0.000124986 0.000786636 0.0053016)
(-5.27503e-06 0.000714374 0.00536504)
(-0.000135794 0.000605878 0.0054327)
(-0.000271827 0.00048703 0.00549386)
(-0.000424944 0.000378767 0.00553169)
(-0.000600123 0.000342877 0.00551479)
(-0.000833288 0.000408953 0.00541746)
(-0.00113706 0.000673708 0.00520732)
(-0.00149355 0.00116746 0.00486957)
(-0.00186123 0.00192525 0.00442852)
(-0.00222032 0.00279902 0.00396663)
(-0.00284824 0.00352463 0.00361523)
(-0.00407138 0.0038394 0.00352339)
(-0.00526843 0.00313331 0.00387313)
(-0.00542095 -0.000652007 0.00455193)
(-0.00578668 -0.00409664 0.00465366)
(-0.00365207 -0.00714075 0.00393121)
(0.00133916 -0.00544384 0.00653122)
(0.0129789 -0.0137782 0.00880927)
(0.0427973 -0.030275 0.00577476)
(0.0862396 -0.0586055 0.00639929)
(0.12405 -0.0752413 0.000701788)
(0.129111 -0.0562271 -0.0321424)
(0.0945664 0.0397801 -0.0497873)
(0.0628686 0.00837922 0.0487414)
(-0.0159063 0.0983937 0.103691)
(-0.0183791 -0.201351 0.0942948)
(-0.156646 0.1581 2.12976e-05)
(0.0925429 -0.048654 0.0214412)
(0.242871 -0.201962 0.146159)
(0.112964 0.0328999 0.0704116)
(0.06937 -0.0939076 0.00989759)
(0.0405634 -0.00131995 -0.0253335)
(0.0293401 -0.000492654 -0.0126192)
(0.0279876 0.0251266 0.00327907)
(0.017667 0.0197868 0.00640538)
(-0.00770469 0.0235152 0.00116255)
(-0.0281111 0.0160626 -0.00856563)
(-0.0447264 0.0202756 -0.0204766)
(-0.0505391 0.0249503 -0.0257533)
(-0.0329198 0.0366623 -0.0161555)
(-0.0176895 0.0451882 0.000610773)
(-0.0112634 0.0452926 0.013965)
(-0.0119897 0.0516893 0.0245971)
(-0.0267046 0.0532151 0.027292)
(-0.0499381 0.0547293 0.02505)
(-0.0599584 0.0523905 0.0251224)
(-0.0631498 0.0522 0.0197399)
(-0.050482 0.051005 0.00869719)
(-0.0353617 0.0551854 0.0105518)
(-0.0281352 0.0559333 0.0154533)
(-0.0271242 0.0557229 0.0186118)
(-0.0277776 0.0560505 0.0205187)
(-0.0293799 0.0543457 0.0166406)
(-0.029571 0.055745 0.0121577)
(-0.02259 0.0629509 0.0111193)
(-0.0103478 0.0701696 0.00904506)
(0.00261541 0.0686139 0.00433174)
(0.012336 0.0658177 -0.00108383)
(0.0187236 0.0593406 -0.00741756)
(0.0224269 0.056155 -0.0123651)
(0.028418 0.0484563 -0.012965)
(0.0363401 0.0429002 -0.0117151)
(0.0344948 0.0278657 -0.00697376)
(0.0139081 -0.000410998 -0.0121003)
(0.0230282 0.0205837 0.00112507)
(0.0263455 0.02049 0.00141002)
(0.022655 0.0142681 -0.00104935)
(0.0240765 0.0152974 -0.00134854)
(0.0206091 0.00970146 -0.00163423)
(0.0190937 0.00955766 -0.00139024)
(0.00817611 0.00536652 0.000170345)
(0.00468832 0.00418827 0.00196153)
(-0.00138756 0.000516369 0.00275129)
(-0.00168237 0.00210193 0.00338305)
(-0.00127421 0.00139084 0.00324444)
(-0.000668337 0.0023192 0.00411236)
(-0.000912732 0.00255454 0.00409393)
(-0.00059751 0.00327593 0.00438229)
(-0.00040429 0.00316341 0.00418216)
(-0.000171985 0.00306151 0.00424979)
(-0.000295434 0.00257112 0.00415404)
(-0.000326895 0.00224492 0.0041808)
(-0.000548858 0.00179764 0.00412799)
(-0.000702186 0.00151398 0.0041385)
(-0.000903099 0.00123769 0.00413434)
(-0.00107812 0.00106218 0.00415384)
(-0.00124898 0.000933164 0.00418136)
(-0.00139464 0.000861312 0.00422071)
(-0.00152734 0.000819041 0.00425898)
(-0.00165124 0.000800209 0.00429512)
(-0.00177126 0.000794874 0.00432919)
(-0.00188883 0.000793619 0.00436273)
(-0.00200411 0.000785213 0.00439527)
(-0.00211758 0.000759512 0.00442604)
(-0.00222873 0.000717816 0.00445617)
(-0.00233881 0.000657224 0.00448934)
(-0.00244974 0.000588109 0.00452648)
(-0.00256657 0.000517011 0.00456093)
(-0.0026938 0.000482567 0.00457505)
(-0.00284392 0.000504697 0.00454139)
(-0.00303269 0.000633318 0.00442471)
(-0.00328887 0.000869385 0.00419201)
(-0.0036195 0.00125148 0.00382524)
(-0.00396956 0.00172484 0.00335766)
(-0.00421306 0.00224275 0.0029073)
(-0.00434631 0.00255242 0.00269262)
(-0.00475835 0.00236588 0.00287721)
(-0.00552381 0.00130918 0.00367783)
(-0.00558784 -0.00171096 0.00475537)
(-0.00483726 -0.00717196 0.00512765)
(-0.00542427 -0.0112575 0.00423592)
(-0.00575324 -0.0139696 0.00618134)
(0.00109344 -0.0163724 0.0100265)
(0.0228501 -0.0365683 0.00993304)
(0.0605647 -0.0531332 0.00441484)
(0.0994677 -0.0607808 0.00387215)
(0.124555 -0.0334318 -0.00657216)
(0.093617 0.0378326 -0.0301436)
(0.0788862 0.101485 -0.0189039)
(0.0257989 0.0433827 0.0641355)
(-0.047704 0.173427 0.161361)
(0.0241082 -0.205998 0.112742)
(-0.224659 0.302888 -0.0689146)
(0.0584907 -0.100701 0.015367)
(0.228747 -0.138758 0.173253)
(0.105263 0.0522564 0.0608343)
(0.0765952 -0.0772367 0.0314821)
(0.0455855 0.0218477 -0.0247727)
(0.0471938 0.0200158 -0.0159774)
(0.0444334 0.0537132 -0.00448095)
(0.0428783 0.0620367 0.00263678)
(0.0281487 0.063825 0.00490287)
(0.00704505 0.0542332 0.00264893)
(-0.0137491 0.0573045 -0.00269644)
(-0.022907 0.0635258 -0.00259934)
(-0.0204809 0.0770063 0.00688554)
(-0.0227717 0.0857932 0.0203465)
(-0.034033 0.0970001 0.0243469)
(-0.042531 0.104044 0.0218946)
(-0.0477616 0.107118 0.0190403)
(-0.0558684 0.0994585 0.0155931)
(-0.0553481 0.0887803 0.016637)
(-0.0491877 0.0791416 0.0207093)
(-0.0343068 0.0705892 0.0199358)
(-0.027673 0.0707459 0.0190831)
(-0.0262894 0.0700909 0.0183265)
(-0.0283682 0.0695699 0.0217528)
(-0.0313948 0.0611816 0.0214359)
(-0.0320917 0.055959 0.0179373)
(-0.0339461 0.0575274 0.0135067)
(-0.028699 0.0646342 0.00888491)
(-0.012353 0.0706079 0.00476019)
(0.00883339 0.078305 0.00296589)
(0.0268963 0.0840361 0.00213729)
(0.0383465 0.0850257 -0.00458428)
(0.0450968 0.085445 -0.00424369)
(0.0567239 0.076404 0.000613591)
(0.0671916 0.0733246 0.0097705)
(0.0696956 0.0511911 0.00713232)
(0.0507514 0.0163387 -2.60002e-05)
(0.0235236 0.0234662 0.00453107)
(0.0284494 0.0246919 0.00297228)
(0.0250995 0.0171553 0.000156497)
(0.0278525 0.0181735 0.00100732)
(0.0244692 0.0084473 -0.00125427)
(0.0227533 0.0088039 -0.00177738)
(0.0128227 0.00237763 -0.00185075)
(0.0086512 0.00409876 0.000251716)
(0.000701753 -0.000631163 0.00161824)
(-0.00126384 0.00133166 0.0028675)
(-0.00156242 -0.000886423 0.00277037)
(-0.00168459 0.000454252 0.00384791)
(-0.00193891 0.00102147 0.0037234)
(-0.0015394 0.00242158 0.00419775)
(-0.00109468 0.00258809 0.00407137)
(-0.00085711 0.00267476 0.00425979)
(-0.00100713 0.00229512 0.00417646)
(-0.0011043 0.00211507 0.00422877)
(-0.00137859 0.00177927 0.00411726)
(-0.0015566 0.00158733 0.00406562)
(-0.00177824 0.0013644 0.00397118)
(-0.00195131 0.00122839 0.00391064)
(-0.0021077 0.00111799 0.00386051)
(-0.00223612 0.00105764 0.00382325)
(-0.00234614 0.00102564 0.00379321)
(-0.00244273 0.00101635 0.00377201)
(-0.00252942 0.0010198 0.00376023)
(-0.00260952 0.00102515 0.00375856)
(-0.00268293 0.00102159 0.00376716)
(-0.00275068 0.0010027 0.00378519)
(-0.00281729 0.000972786 0.00381052)
(-0.00287972 0.000937617 0.00384213)
(-0.00294105 0.000918143 0.00387635)
(-0.00300884 0.000931595 0.00390399)
(-0.003091 0.00101564 0.00390631)
(-0.00320025 0.00118236 0.0038544)
(-0.00334256 0.00144524 0.00371783)
(-0.00353966 0.00174815 0.0034824)
(-0.00376795 0.00204001 0.00318486)
(-0.00396317 0.00218223 0.00293037)
(-0.0040632 0.00215305 0.0028558)
(-0.00410362 0.00190588 0.00312987)
(-0.00445048 0.0011833 0.0039257)
(-0.00474598 -0.000941332 0.00533491)
(-0.00406655 -0.00556222 0.00634882)
(-0.0045058 -0.0106899 0.00505693)
(-0.00697195 -0.0137961 0.0042116)
(-0.00912347 -0.019127 0.00701164)
(0.00274817 -0.0302349 0.0070935)
(0.0358216 -0.0500964 -0.00125804)
(0.0651527 -0.0444062 -0.00588504)
(0.0766478 0.00250834 0.00969194)
(0.0839123 0.0679972 0.0374183)
(0.0916099 0.0756831 0.0357318)
(0.0635535 0.104756 0.00782017)
(-0.011741 0.0219727 -0.0156201)
(-0.078792 0.192541 0.124328)
(0.0167398 -0.196355 -0.0248514)
(-0.0539643 0.558612 -0.121771)
(0.0593472 -0.170313 0.0525102)
(0.118337 -0.0526063 0.17949)
(0.0970462 0.0556371 0.0520117)
(0.0798034 -0.037198 0.0607429)
(0.0256827 0.0358592 -0.017639)
(0.0250638 0.0498248 -0.00815716)
(0.00596375 0.0996914 -0.018106)
(0.0118514 0.132845 -0.00494346)
(0.00648762 0.144169 0.0126527)
(-0.00528041 0.139436 0.0237963)
(-0.019469 0.123875 0.0230025)
(-0.0297616 0.113983 0.0193667)
(-0.0337074 0.111398 0.0158894)
(-0.0390297 0.113449 0.018499)
(-0.0396556 0.116269 0.0203926)
(-0.037487 0.113581 0.0197835)
(-0.033185 0.106412 0.0155403)
(-0.0311719 0.0955577 0.00814177)
(-0.0310537 0.0865525 0.00571661)
(-0.0282465 0.0831695 0.00236332)
(-0.0264631 0.0853384 -0.0035913)
(-0.0269888 0.0934036 -0.00715266)
(-0.0235712 0.100195 -0.00271016)
(-0.0241428 0.0990965 0.00855635)
(-0.02588 0.0905761 0.0128662)
(-0.028312 0.087833 0.0126514)
(-0.0302007 0.0896712 0.0110585)
(-0.0245466 0.0997264 0.00525588)
(-0.0096755 0.110622 0.00126873)
(0.00700554 0.118491 5.58633e-05)
(0.0255426 0.111259 -0.00298566)
(0.039218 0.109088 -0.00438477)
(0.0500534 0.101827 0.000244165)
(0.0608905 0.089453 0.0121742)
(0.0740849 0.0794046 0.0287464)
(0.0800823 0.0570063 0.0332085)
(0.0798347 0.0188888 0.0347068)
(0.0208614 0.0250168 0.00664905)
(0.0269124 0.0276937 0.0070468)
(0.0238846 0.0183782 0.00341157)
(0.0273836 0.0207236 0.00713991)
(0.0253884 0.00749983 0.00374332)
(0.0244975 0.00817446 0.00198067)
(0.0150556 -0.00176289 -0.000535228)
(0.0101813 0.00210978 3.31128e-05)
(0.00190842 -0.00225367 0.000667848)
(-0.00108736 0.00121277 0.00201035)
(-0.00165802 -0.00208314 0.00229871)
(-0.00359513 -0.000340631 0.00328591)
(-0.00470602 -0.000145424 0.0032912)
(-0.00448764 0.00151624 0.00420583)
(-0.00371111 0.0016823 0.00452064)
(-0.00337487 0.00195595 0.00498886)
(-0.0036411 0.00176048 0.00494101)
(-0.00387912 0.00183996 0.00499658)
(-0.00427221 0.00170475 0.00484415)
(-0.00452045 0.00168931 0.0047605)
(-0.00479736 0.00158182 0.0046245)
(-0.00499607 0.00152862 0.0045348)
(-0.00516669 0.00147221 0.00445522)
(-0.00528656 0.00145142 0.00439376)
(-0.0053775 0.00144374 0.00434713)
(-0.00545252 0.00144702 0.0043167)
(-0.00552047 0.00145664 0.00429715)
(-0.00556998 0.00146722 0.00429404)
(-0.00560712 0.00147172 0.00431149)
(-0.00563876 0.00147209 0.00434718)
(-0.00567238 0.00147854 0.00439542)
(-0.00571228 0.00150446 0.00444905)
(-0.0057668 0.00157136 0.00450094)
(-0.00583837 0.00169996 0.00454243)
(-0.00592877 0.00191109 0.00456045)
(-0.00602564 0.00217909 0.00454068)
(-0.00610536 0.00246452 0.00446712)
(-0.00614377 0.00263501 0.00436907)
(-0.00614518 0.00259372 0.00428668)
(-0.00614416 0.0022316 0.00430767)
(-0.00632206 0.00160422 0.00453071)
(-0.00671074 0.000759818 0.00503119)
(-0.00714683 -0.000384012 0.00590559)
(-0.00674484 -0.0027592 0.00716108)
(-0.00539897 -0.00728501 0.0074888)
(-0.00522595 -0.0117432 0.00539635)
(-0.00541711 -0.0182308 0.00465729)
(-0.00372762 -0.0270761 0.00837529)
(0.0193586 -0.0492557 -0.00178934)
(0.0425139 -0.0264804 -0.0186801)
(0.0165786 0.034443 -0.0228062)
(0.0258495 0.105171 0.0243644)
(0.0799554 0.122219 0.0479838)
(0.0864336 0.153922 0.048004)
(0.0738208 0.163873 0.052224)
(0.0416406 0.121634 0.0541072)
(0.0707002 0.211976 0.0951785)
(-0.00673944 -0.205914 -0.0462428)
(-0.00440159 0.5497 0.0325063)
(0.0348533 -0.172184 0.0589934)
(0.0352299 -0.0275837 0.170031)
(0.0839007 0.0845424 0.0520678)
(0.0585465 0.0354899 0.0553833)
(0.0190777 0.0846874 0.0143348)
(0.0132582 0.116276 0.0153062)
(-0.00513132 0.147614 0.00375183)
(0.00274129 0.177303 0.0155756)
(0.00754353 0.186394 0.0214906)
(0.00718286 0.186949 0.0256215)
(0.000479635 0.177463 0.0293947)
(-0.00799956 0.163197 0.024274)
(-0.0158601 0.150292 0.0175787)
(-0.0229375 0.145598 0.0130449)
(-0.0277526 0.136895 0.00417661)
(-0.0288783 0.140846 -0.0122314)
(-0.0269125 0.156886 -0.0277193)
(-0.027573 0.183788 -0.021493)
(-0.030757 0.192501 -0.00501589)
(-0.0297598 0.19651 -0.00106262)
(-0.0267098 0.201378 -0.00147925)
(-0.0234676 0.199884 2.57754e-05)
(-0.0206244 0.191939 0.00500171)
(-0.0197055 0.182029 0.00786407)
(-0.0238749 0.167033 0.00664347)
(-0.0297082 0.155774 0.00304569)
(-0.0358668 0.144458 -0.00172198)
(-0.035174 0.139308 -0.00676354)
(-0.0171599 0.137221 -0.00929924)
(0.0140859 0.12597 -0.0112262)
(0.0381402 0.116663 -0.0101146)
(0.0540009 0.111931 -0.00582796)
(0.0620736 0.106145 0.00564315)
(0.0702699 0.0942853 0.0146233)
(0.0792966 0.0888485 0.0284456)
(0.0923937 0.0592199 0.0508264)
(0.0889195 0.0132683 0.0469097)
(0.0201367 0.023625 0.00824764)
(0.0238696 0.0295974 0.00997269)
(0.0187189 0.0166603 0.00538549)
(0.0235047 0.0222508 0.00969716)
(0.0229024 0.00784204 0.00672667)
(0.0226435 0.00848217 0.00458569)
(0.0150082 -0.00301399 0.00196948)
(0.00972599 0.000544475 0.00217765)
(0.00208208 -0.00325034 0.00203444)
(-0.000939776 0.00081037 0.00223745)
(-0.00145191 -0.00238819 0.00283963)
(-0.00343223 -0.000136061 0.00362423)
(-0.00436248 -0.000826845 0.00426238)
(-0.00430458 0.000455616 0.00542264)
(-0.00358782 4.29248e-05 0.0064561)
(-0.00355403 0.000883714 0.00716749)
(-0.0039245 0.000840584 0.00741367)
(-0.00410391 0.00138313 0.00756808)
(-0.00439888 0.00144178 0.00749648)
(-0.0045171 0.00169384 0.00743682)
(-0.00468217 0.00174455 0.00730713)
(-0.00477917 0.00183668 0.00720481)
(-0.00487303 0.00188671 0.00708693)
(-0.00492786 0.00193728 0.00697946)
(-0.00496008 0.00196842 0.00688499)
(-0.00497403 0.00198666 0.00681398)
(-0.0049685 0.00199372 0.00677136)
(-0.00494511 0.00199441 0.00675708)
(-0.00491846 0.00199215 0.0067617)
(-0.00489643 0.00199662 0.00678011)
(-0.0048906 0.00202263 0.00680539)
(-0.00490312 0.00209048 0.00682967)
(-0.00493926 0.00222576 0.00684497)
(-0.00499756 0.00242285 0.0068476)
(-0.00506762 0.00266361 0.00683356)
(-0.00511292 0.00289469 0.00680892)
(-0.00507974 0.00302904 0.00679415)
(-0.00493144 0.0029668 0.00683021)
(-0.00470492 0.00264088 0.00695443)
(-0.00457704 0.0020356 0.00719268)
(-0.00479025 0.00125504 0.00757782)
(-0.00544256 0.000475965 0.00818201)
(-0.00629298 -0.000372446 0.00910466)
(-0.00593623 -0.00209099 0.00991335)
(-0.00420567 -0.00555407 0.00932217)
(-0.00288521 -0.0102639 0.00599822)
(-0.00212671 -0.0178885 0.00386504)
(0.000547912 -0.0270187 0.00108321)
(0.00622208 -0.0309211 -0.0211566)
(-0.0229711 0.0683382 -0.00989835)
(-0.0260693 0.107174 0.0222386)
(0.0158245 0.116798 0.0470744)
(0.0463981 0.131049 0.0384098)
(0.0661327 0.16216 0.0516781)
(0.059912 0.172066 0.0588443)
(0.0542578 0.159262 0.058654)
(0.0806261 0.177083 0.0663014)
(0.076243 0.111285 0.0587523)
(0.114889 0.41172 -0.0074881)
(-0.0318744 -0.139074 0.058484)
(-0.0941697 -0.0827242 0.147338)
(0.0724948 0.113727 0.0169146)
(0.0273701 0.0420379 0.0353102)
(-0.0301393 0.129009 0.00509318)
(-0.0485493 0.157723 0.00119941)
(-0.0436329 0.196916 0.000380123)
(-0.0286011 0.209163 0.0074339)
(-0.0161183 0.213194 0.00779578)
(-0.00725565 0.209704 -0.000411399)
(-0.00726689 0.203113 -0.00886727)
(-0.0157202 0.193554 -0.0187344)
(-0.0259416 0.192189 -0.026181)
(-0.0326464 0.200547 -0.0263882)
(-0.0354921 0.209676 -0.0166168)
(-0.0421529 0.218737 -0.00519777)
(-0.0449125 0.226428 0.0049429)
(-0.0352975 0.230537 0.01771)
(-0.0248592 0.221392 0.0219303)
(-0.0214482 0.208782 0.0181702)
(-0.0228076 0.19927 0.0180495)
(-0.0180698 0.186682 0.0209927)
(-0.011645 0.169049 0.0206463)
(-0.00987995 0.151069 0.0165736)
(-0.008543 0.132557 0.0134677)
(-0.00819224 0.109448 0.00789029)
(-0.00921909 0.0854404 -0.00302023)
(-0.00704447 0.0608728 -0.0138895)
(0.00925762 0.0349431 -0.0231123)
(0.0375562 0.021436 -0.0206136)
(0.0616607 0.0248095 -0.0142934)
(0.0698792 0.0262824 -0.0201888)
(0.0721547 0.0518704 -0.00466773)
(0.0710977 0.0545908 0.0205235)
(0.0769736 0.073163 0.0276239)
(0.101227 0.0562171 0.0602148)
(0.116278 0.0271788 0.068479)
(0.00701917 0.0214473 -0.00581145)
(0.0186441 0.0298076 0.00563799)
(0.0107552 0.0177757 0.00261209)
(0.0167745 0.0240473 0.00753414)
(0.0175337 0.00903799 0.00535905)
(0.018156 0.00921349 0.00250929)
(0.0114829 -0.003168 0.00102865)
(0.00585471 0.000308713 0.000592667)
(-0.000941959 -0.0013457 -0.000563397)
(-0.00264713 0.00191049 -0.00133417)
(-0.00360495 -0.00160746 -0.000854193)
(-0.00537126 0.000547859 -0.000381193)
(-0.00701807 -0.00142635 0.00100282)
(-0.00698815 -0.000161914 0.00204025)
(-0.00758902 -0.000722526 0.00327558)
(-0.00768428 0.000500279 0.00385564)
(-0.00833475 0.000468137 0.0043271)
(-0.00853186 0.00120275 0.0045771)
(-0.00891535 0.0013133 0.00469828)
(-0.00909787 0.00168514 0.00477836)
(-0.00932043 0.00181805 0.0047759)
(-0.00947797 0.00196971 0.00477083)
(-0.00956027 0.00204898 0.0047519)
(-0.00956152 0.00212782 0.00474132)
(-0.00952506 0.00218399 0.00473551)
(-0.00947384 0.00222561 0.00473955)
(-0.00941362 0.00225855 0.00475365)
(-0.0093457 0.00228671 0.00477266)
(-0.00928359 0.00231246 0.00479136)
(-0.00923664 0.00234584 0.00480859)
(-0.00922042 0.00239097 0.00482195)
(-0.00924151 0.00246283 0.00482678)
(-0.0092965 0.00258518 0.0048186)
(-0.0093404 0.00273523 0.00480814)
(-0.00932611 0.00288943 0.00480271)
(-0.00920895 0.00298104 0.00481397)
(-0.00894464 0.00296279 0.00486115)
(-0.00858706 0.00277565 0.00495125)
(-0.00829081 0.00244024 0.00510707)
(-0.00826415 0.00198613 0.00537548)
(-0.00883429 0.00150025 0.00580004)
(-0.00993884 0.000942061 0.00639724)
(-0.0107827 0.000139009 0.00709917)
(-0.00990812 -0.00159804 0.00750586)
(-0.00680618 -0.00473779 0.00658238)
(-0.00261538 -0.00941965 0.00384019)
(0.000182804 -0.0177907 0.00337879)
(-0.0019714 -0.0243966 0.00329269)
(-0.0351558 -0.0475125 -0.0153625)
(-0.0406812 0.0371588 -0.00049537)
(-0.0237436 0.063707 0.0351487)
(0.00392259 0.0606748 0.043807)
(0.0322443 0.0902225 0.0311638)
(0.057732 0.0891118 0.0434125)
(0.0630237 0.107245 0.0490758)
(0.0803895 0.0608724 0.0509584)
(0.0800498 0.147737 0.103433)
(0.106781 -0.125937 0.0701039)
(0.208712 0.263436 -0.0658961)
(-0.0225966 -0.0683426 0.0149248)
(-0.144819 -0.170552 0.142756)
(-0.00973342 0.0675839 0.0324458)
(-0.0288894 0.0682331 -0.0326678)
(-0.0444191 0.163864 -0.0250419)
(-0.0580376 0.182611 -0.0183559)
(-0.0324978 0.211528 -0.0144496)
(-0.00750398 0.209923 -0.00634158)
(0.0101778 0.211354 -0.0105356)
(0.016309 0.209518 -0.0132661)
(0.0167788 0.208684 -0.0159026)
(0.0032132 0.205248 -0.0218161)
(-0.0218448 0.203017 -0.0243842)
(-0.0412276 0.202562 -0.0234954)
(-0.0515608 0.20859 -0.0157521)
(-0.0549683 0.211983 -0.00323128)
(-0.046852 0.208806 0.0144066)
(-0.0290354 0.19237 0.0331377)
(-0.0138618 0.162903 0.0354449)
(-0.0077007 0.137325 0.0297882)
(-0.00521714 0.119221 0.0308475)
(-0.000439314 0.0998944 0.0374902)