/*--------------------------------*- C++ -*----------------------------------*\
| =========                 |                                                 |
| \\      /  F ield         | OpenFOAM: The Open Source CFD Toolbox           |
|  \\    /   O peration     | Version:  2.3.0                                 |
|   \\  /    A nd           | Web:      www.OpenFOAM.org                      |
|    \\/     M anipulation  |                                                 |
\*---------------------------------------------------------------------------*/
FoamFile
{
    version     2.0;
    format      ascii;
    class       volVectorField;
    location    "19";
    object      U.airMean;
}
// * * * * * * * * * * * * * * * * * * * * * * * * * * * * * * * * * * * * * //

dimensions      [0 1 -1 0 0 0 0];

internalField   nonuniform List<vector> 
6144
(
(0.00810697 0.0212505 -0.00102713)
(0.00823354 0.00540376 -0.00112978)
(0.00451701 0.00291564 -0.00181903)
(0.00453428 0.00050632 -0.0018205)
(0.00294318 -0.00118015 -0.00142001)
(0.00296419 -0.000671945 -0.00126008)
(0.00252487 -0.00107359 -0.00122903)
(0.00269716 -0.000228808 -0.00128175)
(0.00266358 0.000185933 -0.00158807)
(0.00278741 0.00116976 -0.00157935)
(0.00280022 0.00173364 -0.00150492)
(0.00295142 0.00219166 -0.00131124)
(0.00305865 0.00206528 -0.00126832)
(0.00317297 0.00182957 -0.00123409)
(0.00320445 0.0014287 -0.00133449)
(0.0032391 0.00114917 -0.00140851)
(0.00324744 0.000872261 -0.0015068)
(0.00325892 0.000706108 -0.00156743)
(0.00326178 0.00055531 -0.00162266)
(0.00326466 0.00047009 -0.00165418)
(0.003263 0.000396112 -0.00167848)
(0.00326131 0.000354856 -0.00169011)
(0.00325697 0.000320515 -0.00169658)
(0.00325244 0.000300786 -0.00169642)
(0.00324669 0.000285049 -0.00169291)
(0.00324054 0.000274307 -0.00168617)
(0.00323379 0.000267099 -0.00167733)
(0.0032265 0.000257979 -0.00166617)
(0.00321953 0.000258552 -0.00165292)
(0.00320999 0.000235194 -0.00163629)
(0.00320351 0.000257554 -0.00161621)
(0.00319048 0.000182033 -0.00159017)
(0.00318591 0.000253976 -0.00155653)
(0.00316744 5.61211e-05 -0.00151275)
(0.00316645 0.000207587 -0.00145257)
(0.00314226 -0.000224645 -0.00137919)
(0.00314878 2.20441e-05 -0.00128642)
(0.00312573 -0.000786205 -0.00119547)
(0.00314673 -0.000430331 -0.00111264)
(0.00314388 -0.00169332 -0.00109217)
(0.00316915 -0.00109452 -0.00115533)
(0.0031888 -0.0026371 -0.00135416)
(0.00321583 -0.0013536 -0.00168414)
(0.003294 -0.00280637 -0.00206295)
(0.00336601 -0.000405591 -0.00238144)
(0.00352257 -0.0021608 -0.00255909)
(0.00389088 0.000673828 -0.00307808)
(0.00344033 -0.00113049 -0.00409721)
(0.0016483 0.00835765 -0.00511017)
(0.00343621 0.00996554 -0.00633691)
(0.00775336 0.0172606 -0.00740684)
(0.0128164 0.00595307 -0.00751662)
(0.0193446 0.00899489 -0.00823349)
(0.0240523 -0.026501 -0.0070373)
(0.0276487 -0.019552 -0.0105521)
(0.0271977 -0.0692113 -0.00746799)
(0.0174351 -0.0273336 -0.0213485)
(0.0194652 -0.0902256 0.0108403)
(-0.0257131 0.0382497 -0.0573893)
(0.0281094 0.098814 0.03643)
(0.0996298 0.327612 0.0429408)
(0.0434782 0.396586 -0.000621817)
(0.0454755 -0.0845773 0.0078669)
(0.0441891 -0.145469 0.0080608)
(0.0351789 -0.153542 0.00755888)
(0.0287142 -0.14184 0.00691224)
(0.0227856 -0.143464 0.00550328)
(0.0181045 -0.134243 0.00400613)
(0.0151083 -0.133693 0.00331293)
(0.0134447 -0.124668 0.00314597)
(0.0126517 -0.123178 0.00350308)
(0.0118177 -0.116071 0.00346493)
(0.0102165 -0.111546 0.0038481)
(0.00725488 -0.102684 0.00371958)
(0.00262045 -0.0933447 0.00377635)
(-0.000383135 -0.0800232 0.00316308)
(-0.00123036 -0.0679454 0.00154373)
(-0.00240983 -0.0557919 -0.000126918)
(-0.00409386 -0.0413917 -0.00048803)
(-0.00216456 -0.0262583 -0.000709515)
(0.00237209 -0.0149929 -0.000765328)
(0.00547635 -0.00677935 7.42454e-05)
(0.00721805 -0.00391447 0.00225818)
(0.00723116 -0.0053821 0.0029133)
(0.00693492 -0.0065234 0.00213115)
(0.00682705 -0.00767316 0.000514857)
(0.0060872 -0.00691987 -0.000740583)
(0.00484511 -0.00460967 -0.00171997)
(0.00254727 -0.000896505 -0.00228384)
(0.000241393 0.00675675 -0.00332278)
(0.00153836 0.0148931 -0.00354531)
(0.00326883 0.0218373 -0.00353699)
(0.00368153 0.0274618 -0.000710908)
(0.00433379 0.0287604 0.00367722)
(0.00683324 0.0262532 0.00610424)
(0.00829368 0.0167727 0.00772124)
(0.0163437 0.0239937 0.00252236)
(0.0172642 0.0121049 0.00254959)
(0.0101649 0.00876437 0.000860616)
(0.0107378 0.00608766 0.00128895)
(0.00643037 0.00261577 0.00146672)
(0.00652138 0.00254158 0.0015454)
(0.00504916 0.00098509 0.00165255)
(0.00530516 0.00190702 0.00141388)
(0.00504376 0.00192821 0.00119617)
(0.00533205 0.00281622 0.00115927)
(0.00538882 0.00305117 0.00113624)
(0.00583742 0.00333038 0.00138222)
(0.00606109 0.00295094 0.00147036)
(0.00632707 0.00261497 0.00155206)
(0.00635999 0.00208591 0.00146873)
(0.00643325 0.00173473 0.00141788)
(0.00642099 0.00137708 0.00132228)
(0.00643646 0.00116539 0.00127141)
(0.00642279 0.000968237 0.00121681)
(0.00641807 0.000855472 0.00119367)
(0.00640305 0.000756664 0.00117623)
(0.0063906 0.000700872 0.00117559)
(0.00637433 0.000653902 0.00118029)
(0.00635829 0.000626774 0.00119353)
(0.00634084 0.000604776 0.00121056)
(0.00632279 0.000589926 0.00123149)
(0.00630403 0.000578893 0.00125449)
(0.00628421 0.0005667 0.00127988)
(0.00626505 0.000563148 0.00130752)
(0.0062412 0.000536173 0.00133794)
(0.00622441 0.00055442 0.00137159)
(0.00619271 0.000465994 0.00140852)
(0.00618523 0.00053744 0.0014522)
(0.00614398 0.000302792 0.00149944)
(0.00615757 0.000464996 0.00156228)
(0.00611275 -4.55794e-05 0.00162694)
(0.00616568 0.000241788 0.00170919)
(0.0061359 -0.000699294 0.00177686)
(0.00624336 -0.000225588 0.00183754)
(0.00624583 -0.00168842 0.00182722)
(0.00636269 -0.000858706 0.00173397)
(0.00637117 -0.00271508 0.001456)
(0.00642339 -0.00111092 0.000977411)
(0.00636908 -0.00296539 0.000420261)
(0.0064338 -7.8618e-05 -6.6347e-05)
(0.00671672 -0.0022699 -0.000379351)
(0.00640489 0.00146498 -0.00143256)
(0.0038668 0.00197279 -0.00283489)
(0.00242958 0.0111278 -0.00270291)
(0.00759005 0.00642113 -0.00240807)
(0.0177724 0.00884164 -0.00138453)
(0.0255381 -0.0121966 -0.000345084)
(0.0401812 -0.0125136 0.0040527)
(0.0510812 -0.0538673 0.0100921)
(0.0511545 -0.0473501 0.00897699)
(0.0550567 -0.105548 0.0140398)
(0.0278485 -0.0673989 0.00637297)
(0.0198931 -0.167261 0.0333148)
(-0.0604959 0.046495 -0.0891769)
(0.0244102 0.0419013 0.0210494)
(0.106623 0.354031 0.082543)
(0.020507 0.430866 0.00149567)
(0.0169904 -0.0527261 0.0075121)
(0.0175661 -0.00469811 0.0121203)
(0.00659023 -0.0256902 0.0121237)
(0.00159324 -0.00711069 0.00893772)
(0.000707823 -0.0112309 0.00603793)
(0.00346127 -0.00331387 0.00588173)
(0.0069249 -0.00551661 0.00646107)
(0.00785657 -0.000708135 0.00457796)
(0.00705952 -0.00306116 0.00520887)
(0.00519174 -0.00139791 0.00599115)
(0.00277696 -0.00565529 0.00632963)
(-0.000586584 -0.00683444 0.00449945)
(-0.00309758 -0.00948654 0.00239681)
(-0.00286361 -0.00891393 0.00208561)
(-0.00159794 -0.00804406 0.00101047)
(-0.00374561 -0.00430893 0.00223599)
(-0.00563243 0.00015304 0.00220525)
(-0.0029452 0.00500549 0.00276393)
(0.000187047 0.00912758 0.00327485)
(0.00349372 0.0135998 0.00558651)
(0.00649749 0.0120791 0.00876748)
(0.00639623 0.00794429 0.0102734)
(0.0049508 0.00422911 0.00996771)
(0.00380689 0.00152865 0.00960938)
(0.00283474 0.000354554 0.00890973)
(0.00167241 -0.00015711 0.00764463)
(0.0010245 2.79407e-05 0.00616323)
(-7.87227e-05 0.000964052 0.00373615)
(4.12132e-05 0.00289771 0.00123548)
(0.00137657 0.0073528 -0.00243042)
(0.00205411 0.015945 -0.00118194)
(0.00394105 0.0197379 0.00527273)
(0.00677739 0.0190855 0.0103106)
(0.00831089 0.013283 0.0121636)
(0.019515 0.0233102 0.00366468)
(0.021621 0.0147094 0.00374415)
(0.0129888 0.0107471 0.00163024)
(0.0143373 0.00964802 0.00219023)
(0.00811685 0.00512205 0.00227805)
(0.00810403 0.00479912 0.00257021)
(0.00525152 0.00226574 0.00295729)
(0.00548122 0.00307387 0.0028562)
(0.00496465 0.0027709 0.00275629)
(0.00542372 0.00355091 0.00281673)
(0.00543187 0.00339482 0.00278603)
(0.00613297 0.00360425 0.00298872)
(0.00639999 0.003095 0.00306511)
(0.00673963 0.00282267 0.00316275)
(0.00671602 0.00228975 0.00313605)
(0.00676602 0.00197234 0.00314696)
(0.00667602 0.00160125 0.00311714)
(0.00664938 0.00139165 0.00312166)
(0.00658015 0.00118241 0.00311687)
(0.00653909 0.00106618 0.00313184)
(0.00648729 0.000960353 0.00314528)
(0.0064468 0.000900737 0.00316805)
(0.00640483 0.000850185 0.00319058)
(0.00636769 0.000820418 0.00321702)
(0.00633151 0.000796307 0.00324413)
(0.00629752 0.000779959 0.00327273)
(0.0062646 0.000766918 0.00330135)
(0.00623214 0.000753201 0.00333019)
(0.00620147 0.000746586 0.00335916)
(0.00616856 0.000719017 0.00338849)
(0.00614489 0.00072938 0.00341885)
(0.00610599 0.00064167 0.00344993)
(0.0061001 0.000698182 0.00348446)
(0.00605471 0.000469146 0.00351888)
(0.00608788 0.000617356 0.00356127)
(0.00604797 0.00013649 0.00359904)
(0.00614696 0.00044424 0.00364607)
(0.00613236 -0.000395974 0.00367525)
(0.0063137 0.000198144 0.00369862)
(0.00633723 -0.00104571 0.00367049)
(0.00655377 2.17837e-05 0.00358933)
(0.00654081 -0.00162031 0.00341136)
(0.00655378 0.000147307 0.00314588)
(0.00636434 -0.00173885 0.00281583)
(0.00647143 0.00116591 0.00243773)
(0.00680843 -0.000929035 0.00198229)
(0.00612583 0.00323701 0.000828517)
(0.00421928 0.00177299 -0.00045739)
(0.00497347 0.0075055 -0.000403847)
(0.0130916 -0.00235748 0.000189393)
(0.028204 -0.00136805 0.00247468)
(0.0420751 -0.0237849 0.00404253)
(0.0570429 -0.0222828 0.0121836)
(0.0695234 -0.0597537 0.0167515)
(0.0703669 -0.0446088 0.0199522)
(0.078942 -0.104716 0.026559)
(0.0373589 -0.049981 0.0317445)
(0.049929 -0.192842 0.0737026)
(-0.0692662 0.0858237 -0.0666503)
(0.0432174 0.0178128 0.00286306)
(0.14908 0.381459 0.104543)
(0.0628684 0.464196 0.0267756)
(0.0534208 0.0459219 0.0237788)
(0.0353622 0.123238 0.00933109)
(0.0226315 0.0885776 0.0085851)
(0.0160047 0.111152 0.00940885)
(0.0155091 0.0969766 0.0108941)
(0.0134373 0.0993511 0.00898762)
(0.0153334 0.0914049 0.00722197)
(0.0155731 0.081725 0.00688378)
(0.0143371 0.060293 0.00729523)
(0.011705 0.0458979 0.00850456)
(0.00899486 0.034559 0.00811014)
(0.0054328 0.0321503 0.00648623)
(0.00169029 0.0286364 0.00405153)
(-0.00180611 0.0290967 0.00240392)
(-0.00460196 0.0293741 0.00316412)
(-0.00650808 0.0289486 0.00441643)
(-0.00679341 0.026951 0.00484746)
(-0.00481407 0.025619 0.00588362)
(-0.00154498 0.025609 0.00692933)
(0.00179672 0.0246925 0.00980832)
(0.00440352 0.020515 0.0140037)
(0.00295079 0.0147351 0.0157908)
(-0.000375012 0.00944797 0.0154973)
(-0.00308998 0.00573666 0.0147461)
(-0.00364059 0.00518475 0.0127104)
(-0.00387482 0.00456762 0.0105261)
(-0.00350909 0.00496991 0.00849574)
(-0.00283894 0.00537029 0.00638066)
(-0.00168711 0.00685017 0.00442091)
(-0.00249544 0.00822712 0.00293293)
(-0.00172222 0.0120843 0.00361171)
(0.00142877 0.0140973 0.00766721)
(0.00404778 0.0135447 0.0125593)
(0.00329075 0.00932772 0.0140997)
(0.0204916 0.0225543 0.00400229)
(0.0246938 0.0162827 0.00436586)
(0.0142312 0.0110229 0.00130243)
(0.0173533 0.0120076 0.0016555)
(0.0102281 0.0065024 0.00142091)
(0.0106219 0.00692146 0.00186988)
(0.00576452 0.00272701 0.00247574)
(0.00551104 0.00353246 0.00255608)
(0.00430899 0.00260534 0.0026979)
(0.0049988 0.00372361 0.00290584)
(0.0049308 0.0032881 0.00295791)
(0.00569521 0.00357162 0.00331022)
(0.00585242 0.00303485 0.00348854)
(0.00618192 0.00292383 0.0036581)
(0.00609249 0.00242432 0.00366849)
(0.00612807 0.00218913 0.00370319)
(0.00599469 0.00181143 0.00369194)
(0.00594987 0.00161587 0.00371335)
(0.00584799 0.00138888 0.00372425)
(0.00578778 0.00126888 0.00375294)
(0.00571409 0.00115151 0.00377829)
(0.00565922 0.0010877 0.00381155)
(0.00560377 0.00103222 0.00384269)
(0.00555614 0.00100054 0.00387547)
(0.00551049 0.000975159 0.0039068)
(0.00546742 0.000959069 0.0039379)
(0.00542601 0.000945581 0.00396807)
(0.00538583 0.000932154 0.00399708)
(0.00534783 0.00092261 0.00402478)
(0.00531063 0.000895475 0.00405178)
(0.00528452 0.000898236 0.00407867)
(0.00524781 0.000814959 0.00410587)
(0.00524971 0.000860151 0.00413422)
(0.0052139 0.000646359 0.00416107)
(0.00526804 0.000791477 0.00418934)
(0.00523572 0.000357205 0.00420871)
(0.00536226 0.000705519 0.00422474)
(0.00533348 -1.77649e-05 0.00421398)
(0.00553345 0.000714392 0.00418354)
(0.00552393 -0.00031787 0.00411316)
(0.00579759 0.000991323 0.00401989)
(0.00579593 -0.000461866 0.00391395)
(0.00591834 0.00142602 0.00379921)
(0.00552309 -0.000678708 0.00372214)
(0.00525646 0.00208373 0.00369981)
(0.00540414 -0.000184656 0.00361119)
(0.00559825 0.00371417 0.00294946)
(0.00485358 0.000682869 0.00203512)
(0.00849949 0.00399704 0.00220265)
(0.0180717 -0.00858633 0.00212223)
(0.0349459 -0.00853594 0.00547555)
(0.051189 -0.0262572 0.0109101)
(0.0642961 -0.0181894 0.0238555)
(0.0759396 -0.0476207 0.0298996)
(0.0744896 -0.0117616 0.0410606)
(0.084162 -0.0795429 0.0490064)
(0.043987 0.025428 0.0900084)
(0.0706274 -0.20525 0.127327)
(-0.087979 0.214189 -0.0330114)
(0.0415666 -0.0420148 0.0261886)
(0.127032 0.45366 0.110247)
(0.0374922 0.576799 0.0182102)
(0.019202 0.420581 0.0134128)
(-5.59972e-05 0.472794 -0.00179009)
(0.00171258 0.422974 0.00687309)
(-0.00167575 0.411781 0.0053415)
(0.00173655 0.380675 0.00604673)
(0.00280015 0.360043 0.00604414)
(0.00625373 0.340009 0.00556181)
(0.0073361 0.325642 0.00558528)
(0.00745592 0.295232 0.00599103)
(0.00579909 0.269111 0.00495208)
(0.00342177 0.233937 0.00320748)
(0.000377639 0.201533 0.00212995)
(-0.000786892 0.171812 0.00241863)
(-0.00222978 0.152272 0.00278641)
(-0.00347986 0.139683 0.00405649)
(-0.00437517 0.121585 0.00599954)
(-0.00428128 0.0972526 0.00774226)
(-0.00331104 0.0731867 0.00886842)
(-0.00235469 0.0594073 0.0105839)
(-0.00168363 0.0520208 0.0132012)
(-0.000983472 0.043379 0.0167763)
(-0.0030058 0.0330269 0.0171859)
(-0.00771058 0.0260643 0.015941)
(-0.0119653 0.0221283 0.0154446)
(-0.0129568 0.0208488 0.0133207)
(-0.0117331 0.0203557 0.0105699)
(-0.00991398 0.0190502 0.00802483)
(-0.00772204 0.0182639 0.00512506)
(-0.00659096 0.0179452 0.00469323)
(-0.00648465 0.0163641 0.00484986)
(-0.00603722 0.0165631 0.00602108)
(-0.00333899 0.0147401 0.0102192)
(-0.00331593 0.0128413 0.0134954)
(-0.00584025 0.00868576 0.0135572)
(0.0199397 0.0219504 0.00461335)
(0.0266828 0.0180834 0.00540771)
(0.0146099 0.0104768 0.00105697)
(0.0195316 0.0134717 0.00169173)
(0.0119288 0.00632882 0.000412848)
(0.0133026 0.00827378 0.000765972)
(0.00714149 0.00310706 0.00108379)
(0.00616138 0.00417332 0.00161786)
(0.00353508 0.00187087 0.00199483)
(0.00397732 0.0031476 0.00242362)
(0.00376427 0.00242778 0.00258842)
(0.00447394 0.00299494 0.00320498)
(0.00438326 0.0025631 0.0034952)
(0.0046311 0.00270489 0.00376571)
(0.004424 0.00230225 0.00380246)
(0.00440416 0.00220388 0.00387376)
(0.00418458 0.00186465 0.00386594)
(0.00408495 0.00171968 0.00389158)
(0.00392364 0.00149654 0.00389565)
(0.00382076 0.00139085 0.00391746)
(0.00370829 0.00127032 0.00393276)
(0.00362325 0.00120804 0.00395574)
(0.00354272 0.00115013 0.003975)
(0.00347643 0.00111793 0.00399691)
(0.00341689 0.00109062 0.00401681)
(0.00336439 0.00107243 0.00403663)
(0.00331674 0.00105801 0.00405465)
(0.00327414 0.0010453 0.00407151)
(0.00323652 0.00103472 0.00408727)
(0.00320301 0.00101122 0.00410109)
(0.00318158 0.00101185 0.0041134)
(0.00315416 0.000940941 0.00412426)
(0.00316413 0.000984462 0.00413515)
(0.00313996 0.000801957 0.00414105)
(0.00320969 0.00095836 0.00414693)
(0.00319072 0.000593844 0.004136)
(0.00334026 0.00098823 0.00411533)
(0.0033086 0.000385347 0.00405304)
(0.00353225 0.00119485 0.00397607)
(0.00350121 0.00030589 0.0038679)
(0.00384117 0.00170119 0.00378912)
(0.00387902 0.000377559 0.00376425)
(0.0041758 0.00231975 0.00377898)
(0.00378523 0.000122528 0.00381132)
(0.00350603 0.00263278 0.00386516)
(0.00357263 -0.000220288 0.00397753)
(0.00391928 0.00312509 0.00399934)
(0.00448746 -0.000712837 0.0040256)
(0.0106083 0.000701659 0.00424198)
(0.0222773 -0.0117077 0.00505817)
(0.0387066 -0.0088426 0.00952692)
(0.0521682 -0.0179901 0.0177719)
(0.0610929 -0.00201592 0.0298581)
(0.0665777 -0.0229474 0.0361516)
(0.0626843 0.0238447 0.0570355)
(0.0673782 -0.0419013 0.0638389)
(0.0434947 0.0990803 0.10859)
(0.0671843 -0.150297 0.124396)
(-0.0585517 0.334633 -0.00923821)
(0.0331413 -0.0754333 0.0337609)
(0.109589 0.493105 0.118128)
(0.0281225 0.612961 0.0153819)
(0.0162934 0.541028 0.011981)
(0.00158337 0.606858 -0.00373466)
(0.00627927 0.595881 0.00574276)
(0.00219048 0.613396 0.00761528)
(0.00595867 0.60809 0.0088572)
(0.0066942 0.612078 0.0072502)
(0.00972549 0.604147 0.00600973)
(0.011002 0.599065 0.0044054)
(0.0117888 0.586261 0.00381235)
(0.0110278 0.577459 0.00339357)
(0.0100689 0.566775 0.00362901)
(0.00791504 0.553502 0.00420324)
(0.00630108 0.535141 0.00510575)
(0.00393501 0.508203 0.0064811)
(0.00292434 0.484087 0.00832338)
(0.00155023 0.460738 0.00993006)
(0.00104909 0.435604 0.0118642)
(0.000333179 0.411925 0.0134841)
(-0.00163928 0.394331 0.0154075)
(-0.00415517 0.361993 0.0175886)
(-0.00621397 0.3066 0.0184164)
(-0.00976934 0.258082 0.0163091)
(-0.0126979 0.217913 0.0127454)
(-0.015326 0.197407 0.00872759)
(-0.0143413 0.173297 0.00653174)
(-0.0129526 0.147776 0.004148)
(-0.0112012 0.119526 0.00165734)
(-0.0103244 0.0949405 0.00189497)
(-0.0100307 0.0748177 0.00449464)
(-0.0097135 0.0512045 0.00579664)
(-0.00911962 0.0435868 0.00800158)
(-0.00741979 0.0308396 0.0117696)
(-0.00890433 0.0239782 0.0144175)
(-0.0149393 0.0128666 0.0118047)
(0.0178205 0.0213075 0.00578873)
(0.0278789 0.0207787 0.00670638)
(0.0138947 0.00973425 0.00154931)
(0.0204755 0.0148178 0.00297845)
(0.0127728 0.00482782 0.000855257)
(0.014908 0.0086103 0.000682535)
(0.00863719 0.00256221 0.00015707)
(0.00734186 0.00476108 0.000724478)
(0.00364151 0.00126842 0.00124523)
(0.00328693 0.00260052 0.00190633)
(0.00256962 0.00116356 0.00216871)
(0.00305171 0.00191909 0.00299237)
(0.00288089 0.00158405 0.00342703)
(0.00316941 0.00214341 0.00385627)
(0.00293765 0.00188597 0.00397045)
(0.00290582 0.00200333 0.00410738)
(0.00265917 0.00175047 0.00412412)
(0.00254762 0.00171712 0.00415524)
(0.00237218 0.00153949 0.00414206)
(0.0022665 0.00148511 0.00413986)
(0.00215608 0.00138778 0.00412554)
(0.00207932 0.00134933 0.00411931)
(0.00201118 0.00130499 0.00410977)
(0.00195946 0.00128536 0.00410368)
(0.00191713 0.00126835 0.00409709)
(0.00188253 0.00125964 0.00409156)
(0.00185365 0.00125391 0.00408562)
(0.00183037 0.00124937 0.00407986)
(0.00181126 0.00124636 0.00407337)
(0.00179837 0.00123356 0.0040679)
(0.00179858 0.00124066 0.00406455)
(0.00180034 0.00119251 0.00406116)
(0.00183913 0.00124847 0.00406266)
(0.00185282 0.00111868 0.00405861)
(0.00195219 0.00130952 0.00405448)
(0.0019715 0.00104312 0.00403149)
(0.00214481 0.00149137 0.00399638)
(0.00213712 0.00101373 0.00391926)
(0.00235884 0.00185313 0.00382125)
(0.00230107 0.00104931 0.00368794)
(0.00257463 0.00240679 0.00357028)
(0.00250878 0.00113979 0.00349533)
(0.00279577 0.00307387 0.00348311)
(0.00236131 0.000829201 0.00347675)
(0.00216312 0.00311085 0.00339932)
(0.0020402 -2.90856e-05 0.00337914)
(0.00267249 0.00326089 0.00387005)
(0.00396565 -0.00204047 0.00544447)
(0.0114546 -0.00219108 0.00605448)
(0.0230079 -0.0118439 0.00812998)
(0.0360343 -0.00345011 0.0145905)
(0.0428587 -0.00460612 0.023287)
(0.0490554 0.0167973 0.0361862)
(0.0499852 0.00214169 0.0455143)
(0.0429654 0.0467823 0.0678914)
(0.0372074 -0.0290858 0.0693754)
(0.0282048 0.0989252 0.0889318)
(0.041059 -0.149211 0.0818081)
(0.0161005 0.359434 0.0333346)
(0.024158 -0.0800318 0.0381112)
(0.0530557 0.529844 0.111008)
(0.0030089 0.64096 0.00484129)
(-0.00320367 0.593182 0.00815137)
(-0.0145036 0.652406 -0.00194313)
(-0.00900077 0.646864 0.00889222)
(-0.00719 0.663114 0.00945976)
(-0.000613311 0.65949 0.0109152)
(0.00455939 0.665674 0.00976997)
(0.0101939 0.662276 0.00994512)
(0.0145686 0.662303 0.00904702)
(0.0179373 0.651517 0.0090316)
(0.0190025 0.644114 0.00900004)
(0.0194392 0.638851 0.00911821)
(0.0176966 0.634512 0.00965454)
(0.015978 0.626576 0.0106539)
(0.0133433 0.622375 0.0112984)
(0.0109914 0.614315 0.0118046)
(0.0079179 0.606282 0.0118873)
(0.00458252 0.596817 0.0125219)
(0.000881405 0.584312 0.0132964)
(-0.00333669 0.57377 0.0135484)
(-0.00757464 0.558475 0.0136939)
(-0.0107376 0.539131 0.0119904)
(-0.0132779 0.514947 0.00709311)
(-0.0152512 0.483858 0.00288472)
(-0.0150083 0.448696 0.000308782)
(-0.0131844 0.405048 -0.000373762)
(-0.0112606 0.354506 -0.000115406)
(-0.0104724 0.31431 0.00170427)
(-0.0107247 0.286257 0.00426919)
(-0.0111627 0.256697 0.00649741)
(-0.0117493 0.232616 0.00902887)
(-0.0128831 0.211191 0.0122212)
(-0.0139343 0.172419 0.013791)
(-0.0177328 0.108734 0.0131003)
(-0.0207802 0.0687358 0.00672005)
(0.0130869 0.0197587 0.00545318)
(0.0276107 0.0244921 0.00821971)
(0.0108626 0.00842881 0.00278689)
(0.0193897 0.0167237 0.00549378)
(0.0111361 0.00323984 0.0029081)
(0.0140461 0.00844842 0.00260172)
(0.00808165 0.00108121 0.00130134)
(0.00749099 0.00468577 0.00106534)
(0.00321984 0.00060846 0.0013181)
(0.00230148 0.00233503 0.00205659)
(0.000931481 0.000205588 0.00226536)
(0.000704195 0.0010891 0.00299991)
(-4.11579e-05 0.00064776 0.00338533)
(0.000111571 0.00151182 0.00391281)
(-0.000195218 0.00132346 0.00411991)
(-0.000231223 0.00166337 0.00432078)
(-0.00055502 0.00151966 0.00434568)
(-0.00070942 0.00164866 0.00437351)
(-0.000948508 0.00155711 0.00433951)
(-0.0010893 0.00159455 0.00432133)
(-0.00123063 0.00154649 0.00428417)
(-0.00132448 0.00155298 0.00425796)
(-0.00140133 0.00153538 0.00422931)
(-0.00145267 0.00153663 0.00420772)
(-0.00148916 0.00153336 0.00418685)
(-0.00151249 0.0015352 0.00416955)
(-0.0015255 0.00153758 0.0041539)
(-0.00152749 0.00154068 0.00414149)
(-0.00152074 0.00154494 0.00413193)
(-0.00150436 0.00154273 0.00412639)
(-0.00147871 0.00156065 0.00412577)
(-0.00144864 0.00153967 0.00412752)
(-0.00139264 0.0016156 0.00413588)
(-0.00135896 0.00154103 0.00414201)
(-0.00125043 0.00176144 0.00415796)
(-0.00121499 0.00157358 0.00416279)
(-0.00102445 0.00203907 0.00417552)
(-0.000993371 0.00162035 0.00415316)
(-0.000717217 0.00240062 0.00412074)
(-0.0007283 0.00156563 0.00401071)
(-0.00039773 0.00274978 0.00387763)
(-0.000461681 0.0013575 0.00364909)
(-2.43138e-05 0.00317581 0.00347693)
(-0.000227784 0.000982434 0.00325197)
(-0.000146876 0.0033128 0.00303483)
(-0.000375277 0.000331583 0.00289173)
(0.000894077 0.00313677 0.00359385)
(0.00322014 -0.00399484 0.00568124)
(0.0101037 -0.00561628 0.00688107)
(0.0206865 -0.00953578 0.0102703)
(0.0261941 0.00861768 0.0181448)
(0.0256155 0.0177632 0.0263356)
(0.0268302 0.0457761 0.0390326)
(0.0241905 0.0405553 0.0497334)
(0.0290908 0.0775336 0.0668653)
(0.0237512 -0.00166205 0.0676638)
(0.0392137 0.113246 0.0840495)
(0.0199555 -0.155325 0.0659581)
(-0.00560114 0.338564 0.0551845)
(0.00760991 -0.067582 0.0396825)
(0.00245633 0.541423 0.100643)
(-0.0193951 0.646429 0.00390641)
(-0.0219492 0.608833 0.00574845)
(-0.0231354 0.664757 0.000195102)
(-0.0150209 0.651004 0.0117119)
(-0.00743579 0.664001 0.0109019)
(-0.000443887 0.65822 0.0118364)
(0.00663017 0.662334 0.0107417)
(0.0114289 0.658649 0.011808)
(0.0160114 0.657567 0.0117546)
(0.0195458 0.654353 0.0121741)
(0.022078 0.64612 0.012445)
(0.0232336 0.64522 0.013086)
(0.0225034 0.641931 0.0130329)
(0.0209712 0.637257 0.01358)
(0.0182382 0.627774 0.0129047)
(0.0151772 0.616137 0.0128068)
(0.0111325 0.605348 0.0124139)
(0.00728834 0.601709 0.013039)
(0.00334785 0.599121 0.0139625)
(0.000418913 0.594828 0.0139369)
(-0.00265356 0.592883 0.0117907)
(-0.00474732 0.600186 0.00723132)
(-0.00721128 0.596569 0.00118433)
(-0.00880702 0.585128 -0.00378989)
(-0.00975669 0.564547 -0.00711257)
(-0.0101799 0.547006 -0.0079599)
(-0.0103774 0.526992 -0.00718511)
(-0.0100938 0.490009 -0.00493993)
(-0.010358 0.473917 -0.00232235)
(-0.011514 0.462084 -0.00103381)
(-0.0131101 0.441272 0.000884016)
(-0.0149154 0.406009 0.00281723)
(-0.0177132 0.3475 0.00419523)
(-0.0217546 0.258461 0.00418942)
(-0.0263222 0.187 -0.00178958)
(0.00750851 0.0141218 0.00353468)
(0.0261055 0.0282739 0.0086216)
(0.00611374 0.00659937 0.00359595)
(0.0161649 0.0192192 0.00738605)
(0.00817379 0.00230808 0.00499885)
(0.0115245 0.00913335 0.00482592)
(0.00571229 -8.09135e-05 0.00334853)
(0.0060023 0.00459786 0.00259893)
(0.00202599 -0.000143569 0.00243523)
(0.000969946 0.00217721 0.00299319)
(-0.000738024 -0.000475681 0.00325973)
(-0.00101597 0.000674837 0.00389629)
(-0.00179656 -7.10337e-05 0.00434244)
(-0.00153328 0.000858862 0.00493676)
(-0.00182946 0.000609583 0.00528955)
(-0.00185417 0.0011964 0.00554698)
(-0.00218037 0.00115401 0.00563459)
(-0.00225861 0.00149366 0.00570708)
(-0.00243361 0.00151059 0.00570387)
(-0.00249428 0.00166976 0.00571046)
(-0.00256658 0.00169306 0.00569604)
(-0.00258981 0.00176121 0.00569618)
(-0.00260234 0.00178394 0.00569354)
(-0.00259034 0.00181787 0.00570178)
(-0.00256672 0.00184033 0.00571213)
(-0.0025331 0.00186389 0.00572732)
(-0.00249337 0.0018846 0.00574459)
(-0.0024484 0.00190358 0.00576402)
(-0.00240132 0.00192138 0.00578419)
(-0.00234837 0.00193298 0.00580754)
(-0.00229044 0.0019615 0.00583398)
(-0.00222841 0.00196263 0.0058638)
(-0.00214124 0.0020525 0.00590133)
(-0.00207328 0.00202197 0.00593963)
(-0.00193013 0.00225789 0.00599194)
(-0.00185465 0.00213775 0.0060374)
(-0.00161523 0.00261844 0.00609403)
(-0.00153077 0.00228581 0.00611162)
(-0.00117586 0.00306155 0.00610838)
(-0.00112861 0.00230704 0.0059873)
(-0.000767406 0.00344128 0.00576871)
(-0.000963471 0.00207368 0.00533507)
(-0.000768228 0.00372353 0.0048769)
(-0.00126303 0.0014492 0.00439711)
(-0.00147662 0.0034173 0.00410136)
(-0.00175013 -0.00032152 0.00399252)
(0.00059381 0.000568962 0.00448131)
(0.00413868 -0.00747953 0.0054754)
(0.00765597 -0.00420028 0.00744842)
(0.004671 0.00616414 0.0165663)
(-0.000702339 0.0356047 0.0256113)
(-0.00405062 0.0535462 0.0321705)
(0.000959143 0.0830188 0.040113)
(0.00830883 0.0920476 0.0493248)
(0.0228947 0.120021 0.0676428)
(0.0334861 0.0815996 0.0771263)
(0.0678217 0.154216 0.102236)
(0.0354357 -0.0776573 0.094343)
(0.00777557 0.350766 0.0375461)
(-0.0154028 -0.0692584 0.0306482)
(-0.0648684 0.569247 0.0644962)
(-0.0464814 0.670965 -0.00933559)
(-0.0436363 0.618762 0.00339638)
(-0.0317906 0.663914 -0.000163471)
(-0.0209811 0.643322 0.00956671)
(-0.00648819 0.652278 0.00717482)
(-0.000627669 0.644574 0.007697)
(0.00716139 0.645389 0.00648918)
(0.0122979 0.647703 0.00810191)
(0.017883 0.648661 0.00980966)
(0.0215761 0.647715 0.0110585)
(0.0246198 0.65019 0.0121768)
(0.0269313 0.649682 0.0135869)
(0.027892 0.644596 0.0147964)
(0.0277625 0.635477 0.0168047)
(0.0261816 0.629741 0.018096)
(0.0237574 0.619751 0.0191947)
(0.0204902 0.607514 0.0198185)
(0.0166472 0.5928 0.0198558)
(0.0129461 0.579162 0.0190565)
(0.00973312 0.57291 0.017057)
(0.00724978 0.566904 0.0136468)
(0.00522036 0.56207 0.00985667)
(0.00417817 0.557079 0.00642684)
(0.00313554 0.546478 0.00438213)
(0.00107884 0.524942 0.00181843)
(-0.000248686 0.503163 0.000143068)
(-0.00120626 0.481761 -0.00011552)
(-0.00219832 0.46604 0.00143778)
(-0.00231071 0.448386 0.00345736)
(-0.00387193 0.427298 0.00486566)
(-0.00669044 0.414274 0.00628231)
(-0.0110451 0.407279 0.00402934)
(-0.0171544 0.407241 -0.0019927)
(-0.0223965 0.408082 -0.0140185)
(-0.0278948 0.413193 -0.0347271)
(-0.00380465 0.0102979 -0.00716645)
(0.0237869 0.0315701 0.00601724)
(-0.000571781 0.00531748 0.000571379)
(0.0115033 0.0223126 0.00514015)
(0.00320671 0.00240087 0.00341665)
(0.00691293 0.0109521 0.00322422)
(0.00189424 0.000444392 0.00199404)
(0.00305661 0.00577412 0.000922635)
(-0.000298142 0.000354111 0.000262558)
(-0.0013865 0.00270998 0.000232984)
(-0.00352792 -0.000425604 0.000355447)
(-0.00430052 0.000852346 0.00073429)
(-0.0055045 -0.000387605 0.0011596)
(-0.00540744 0.000550357 0.00168701)
(-0.00595245 0.000257328 0.00211135)
(-0.00599509 0.00101896 0.00238799)
(-0.00639188 0.00101841 0.00256084)
(-0.0064995 0.00147033 0.00268975)
(-0.00672074 0.00153375 0.00275801)
(-0.00681578 0.00175408 0.00281993)
(-0.00692312 0.00181304 0.00285468)
(-0.00698223 0.00191186 0.00289335)
(-0.00702749 0.00195437 0.00292412)
(-0.00704841 0.00200066 0.00296131)
(-0.00705284 0.00203167 0.00299916)
(-0.00704124 0.00206143 0.00304041)
(-0.00701584 0.00208722 0.00308309)
(-0.00697613 0.00211172 0.00312748)
(-0.00692377 0.00213576 0.00317229)
(-0.0068635 0.00215546 0.00321736)
(-0.00680417 0.0021886 0.00326145)
(-0.00674298 0.00219987 0.0033065)
(-0.00666971 0.0022869 0.00335296)
(-0.0066157 0.00227343 0.00340337)
(-0.00650661 0.00250032 0.00345988)
(-0.00646399 0.00241958 0.00352191)
(-0.00626068 0.00290905 0.00357603)
(-0.00618889 0.00268164 0.00360479)
(-0.00587666 0.00354616 0.00355887)
(-0.0058556 0.00302587 0.00339678)
(-0.00551299 0.00429986 0.00306211)
(-0.00558435 0.0030937 0.00255653)
(-0.00500193 0.00443872 0.00203427)
(-0.00496019 0.00176386 0.00173045)
(-0.00434466 0.00272674 0.00147439)
(-0.00307913 -0.00186006 0.00131478)
(0.000508529 -0.00109866 0.00238242)
(0.000988794 -0.00592518 0.00138771)
(-0.00769484 0.00562475 0.00318954)
(-0.0201607 0.0165073 0.0137776)
(-0.0294747 0.0372475 0.0238853)
(-0.0305849 0.0460561 0.031856)
(-0.0262724 0.0706421 0.0334759)
(-0.0157184 0.0755578 0.0357613)
(-0.00236932 0.114836 0.0519583)
(0.0207086 0.0624148 0.055775)
(0.0782771 0.146814 0.076489)
(0.0648815 -0.0370987 0.0880318)
(0.0860707 0.364763 0.0233248)
(-0.0395689 -0.0910197 0.0240933)
(-0.115471 0.536838 0.0511591)
(-0.0574543 0.659444 -0.00522072)
(-0.0504988 0.589012 0.00647647)
(-0.0262721 0.63634 0.00504107)
(-0.0193922 0.59939 0.0123296)
(-0.00626544 0.608918 0.00828684)
(-0.00309818 0.596788 0.00743347)
(0.00245308 0.601598 0.00515228)
(0.0058837 0.600119 0.00440447)
(0.0103227 0.601473 0.00412625)
(0.0122148 0.598618 0.00309491)
(0.0141608 0.602003 0.00284861)
(0.0151431 0.605015 0.0031318)
(0.0175896 0.614214 0.00484959)
(0.0200836 0.620073 0.00675439)
(0.0217615 0.623437 0.00914415)
(0.0212331 0.621343 0.00953571)
(0.0198592 0.620488 0.009232)
(0.0176204 0.61502 0.00842589)
(0.0150511 0.60938 0.00665089)