/*--------------------------------*- C++ -*----------------------------------*\
| =========                 |                                                 |
| \\      /  F ield         | OpenFOAM: The Open Source CFD Toolbox           |
|  \\    /   O peration     | Version:  2.3.0                                 |
|   \\  /    A nd           | Web:      www.OpenFOAM.org                      |
|    \\/     M anipulation  |                                                 |
\*---------------------------------------------------------------------------*/
FoamFile
{
    version     2.0;
    format      ascii;
    class       volVectorField;
    location    "19";
    object      U.air;
}
// * * * * * * * * * * * * * * * * * * * * * * * * * * * * * * * * * * * * * //

dimensions      [0 1 -1 0 0 0 0];

internalField   nonuniform List<vector> 
6144
(
(0.011314 0.0255209 -0.00317554)
(0.0113512 0.00858426 -0.003404)
(0.00666802 0.00549794 -0.00407931)
(0.00643421 0.0017142 -0.00363763)
(0.0034346 -0.00137108 -0.00209972)
(0.00270709 -0.00153822 -0.00165798)
(0.00161786 -0.002622 -0.00107403)
(0.00153443 -0.000731751 -0.00112986)
(0.00153576 0.00114839 -0.00100765)
(0.00154592 0.00362293 -4.38338e-05)
(0.00155619 0.00493116 0.000606179)
(0.00176679 0.00525378 0.00119186)
(0.00202682 0.00458077 0.00128989)
(0.00220579 0.00356227 0.00134555)
(0.00222138 0.00247049 0.00101979)
(0.00226242 0.00172473 0.000779516)
(0.00227223 0.00111016 0.000504125)
(0.00229342 0.00072766 0.000337405)
(0.00230232 0.000435343 0.000212949)
(0.00230605 0.000254408 0.000137222)
(0.00230247 0.000126379 9.20149e-05)
(0.00229409 4.68974e-05 7.32332e-05)
(0.00228322 -5.77218e-06 7.2058e-05)
(0.00226986 -4.27383e-05 8.37159e-05)
(0.00225419 -6.65394e-05 0.000102367)
(0.00223658 -8.32238e-05 0.000125997)
(0.00221818 -8.85542e-05 0.000152312)
(0.00220216 -9.19569e-05 0.000180893)
(0.00218658 -8.92591e-05 0.000210047)
(0.00216914 -9.45055e-05 0.00023845)
(0.00215524 -6.32674e-05 0.000270692)
(0.00213385 -0.000106726 0.000290285)
(0.002131 1.86774e-05 0.000339132)
(0.00209182 -0.000157421 0.000330536)
(0.00211488 0.000194384 0.00042747)
(0.00204736 -0.000285497 0.000373025)
(0.00210226 0.000514785 0.000538476)
(0.00199679 -0.000577214 0.000428291)
(0.00207985 0.00101907 0.000685913)
(0.00194186 -0.00112046 0.000551163)
(0.00202906 0.00166923 0.000902593)
(0.00194159 -0.00206451 0.00083943)
(0.00196979 0.00209512 0.00114098)
(0.00207547 -0.00374552 0.00115848)
(0.00190112 0.00251027 0.0011233)
(0.00220744 -0.00656753 0.000910251)
(0.00186739 0.00426845 0.000106787)
(0.00199191 -0.00849335 5.08477e-05)
(0.00223019 0.00865013 -0.000592805)
(0.00206525 -0.00802573 -0.00101072)
(0.00418569 0.0162059 -0.000562846)
(0.00107962 -0.013907 -0.000830743)
(0.00724179 0.0259795 -0.00125906)
(0.0039982 -0.0270646 -0.00337341)
(0.0090678 0.0477173 -0.00605489)
(0.00472098 -0.0499779 -0.0163157)
(0.0104978 0.0957584 -0.0002903)
(-0.0181105 -0.0642618 -0.0179816)
(-0.0515153 0.165592 -0.0544252)
(0.0414153 0.0149514 -0.122534)
(0.0867872 0.323209 0.00134201)
(0.0343387 0.400839 0.00735237)
(-0.000578827 0.0520831 0.0185741)
(0.0280062 -0.0960942 0.0113895)
(0.0211286 -0.121054 0.0114488)
(0.00999724 -0.130024 0.0136712)
(0.00308872 -0.137072 0.0154913)
(-0.00126009 -0.140953 0.0151352)
(-0.00465941 -0.141976 0.0133645)
(-0.00715623 -0.13987 0.0112673)
(-0.00863914 -0.135177 0.00916943)
(-0.00911307 -0.12859 0.00697348)
(-0.00885983 -0.121001 0.00489394)
(-0.00748431 -0.113226 0.003137)
(-0.00571615 -0.106101 0.00169197)
(-0.00410592 -0.100078 0.000278545)
(-0.00282638 -0.0950128 -0.000834555)
(-0.00108492 -0.0916992 -0.0018746)
(0.00128195 -0.0902342 -0.00288055)
(0.00343085 -0.0908583 -0.00357595)
(0.00530781 -0.0929812 -0.00412729)
(0.00611243 -0.0963131 -0.00411505)
(0.00676137 -0.100473 -0.00435301)
(0.00682874 -0.104793 -0.00416133)
(0.00599994 -0.108697 -0.00417754)
(0.00565078 -0.111429 -0.00437263)
(0.00334365 -0.112343 -0.00397993)
(0.00160443 -0.110705 -0.00450788)
(9.19076e-05 -0.106736 -0.00293363)
(-0.00480773 -0.100088 -0.00422908)
(-0.00581974 -0.0851919 -0.00261471)
(-0.0148474 -0.0691887 -0.00411932)
(-0.0151829 -0.0374128 -0.0149046)
(-0.0105142 0.00522429 -0.0038235)
(-0.00810465 0.0239244 0.0176567)
(-0.00587825 0.0183515 0.032317)
(0.0192267 0.0301231 0.000500695)
(0.0207645 0.0223378 0.00129652)
(0.015384 0.0183319 3.18734e-05)
(0.0149582 0.0135553 0.00264966)
(0.00850313 0.00735907 0.00250002)
(0.00723512 0.00414464 0.0029185)
(0.00349684 0.000232134 0.00291112)
(0.00225786 0.00216035 0.00200727)
(0.00189938 0.00371959 0.00193248)
(0.0019457 0.00611782 0.00278554)
(0.00246694 0.00687722 0.00325892)
(0.0032904 0.00681025 0.00405634)
(0.00372573 0.00564054 0.00425151)
(0.00402889 0.00462651 0.00438)
(0.003983 0.00340257 0.00422434)
(0.00403922 0.0025662 0.00413121)
(0.00402641 0.0018199 0.0039577)
(0.00404758 0.00134581 0.00384946)
(0.00404089 0.000961144 0.00376033)
(0.00402906 0.000719177 0.00371782)
(0.00400668 0.000540843 0.00370354)
(0.003977 0.000426404 0.00371578)
(0.00394354 0.000346878 0.00374446)
(0.00390634 0.000291326 0.00378575)
(0.00386577 0.000256331 0.00383345)
(0.00382215 0.00023177 0.00388657)
(0.00377691 0.000221588 0.00394125)
(0.00373407 0.000211921 0.00399595)
(0.00369065 0.000214285 0.00405078)
(0.00364465 0.000210899 0.00410442)
(0.00360871 0.00023515 0.004161)
(0.00354898 0.000195671 0.00420635)
(0.00354145 0.000312209 0.00427594)
(0.00343457 0.000143946 0.00429171)
(0.00349734 0.000500816 0.00440707)
(0.00330898 -1.0007e-05 0.00437578)
(0.00346326 0.000845816 0.00454414)
(0.00316294 -0.000366767 0.00446312)
(0.00342922 0.00141118 0.00468454)
(0.00300427 -0.00106139 0.00458426)
(0.00340137 0.0021771 0.00487481)
(0.00294686 -0.00227486 0.00473685)
(0.00344025 0.00277494 0.00501158)
(0.00333617 -0.00425979 0.00491281)
(0.00349118 0.00349631 0.00486224)
(0.00374419 -0.00729311 0.00462972)
(0.00347918 0.00552203 0.00386023)
(0.00303865 -0.00962285 0.00359125)
(0.00341059 0.00954527 0.00290778)
(0.00223246 -0.00927093 0.00283439)
(0.00494367 0.015992 0.0025726)
(0.003301 -0.010395 0.00253131)
(0.00867612 0.0175409 0.00130256)
(0.00209804 -0.0185557 0.00292312)
(0.0197899 0.0471743 0.00549095)
(0.0287088 -0.0571503 -0.00381225)
(-0.0359724 0.0461357 -0.00487637)
(-0.0430203 -0.00575408 -0.0106505)
(0.0101018 0.203611 0.0101881)
(0.168318 -0.0109832 -0.06944)
(0.0816257 0.348009 -0.00199107)
(-0.029898 0.442389 0.0188789)
(-0.0593936 -0.109032 0.0252661)
(-0.032792 -0.0485851 0.0187637)
(-0.0344142 -0.0778489 0.0187869)
(-0.0326812 -0.0952677 0.0210932)
(-0.0300836 -0.10343 0.0204045)
(-0.0285679 -0.110996 0.0173616)
(-0.0274227 -0.116159 0.0137406)
(-0.0258031 -0.117148 0.0105306)
(-0.0235305 -0.115026 0.00814247)
(-0.0208657 -0.11004 0.00585938)
(-0.0182007 -0.103359 0.00361503)
(-0.0152971 -0.0955347 0.00108307)
(-0.0118103 -0.0895738 -0.00130673)
(-0.00776943 -0.0843556 -0.00312858)
(-0.00201522 -0.0794112 -0.00402479)
(0.00400426 -0.0727188 -0.00514095)
(0.00775066 -0.0649607 -0.00574645)
(0.0103126 -0.0596074 -0.00585068)
(0.012921 -0.0566904 -0.0051676)
(0.0153266 -0.056768 -0.00387987)
(0.0166412 -0.0595562 -0.00305605)
(0.0168288 -0.0631465 -0.00185037)
(0.0151215 -0.0686557 -0.00233704)
(0.0130953 -0.0705625 -0.00233958)
(0.00944154 -0.0735759 -0.00227618)
(0.00496826 -0.0736146 -0.00339593)
(0.00016805 -0.0709797 -0.0011779)
(-0.00869857 -0.0713591 -0.00270494)
(-0.0149573 -0.0635312 -0.000961319)
(-0.0237025 -0.0552378 -0.00292651)
(-0.0318404 -0.0356844 -0.0137958)
(-0.0242984 -0.00145369 -0.00563588)
(-0.0189838 0.0197735 0.0192064)
(-0.0163426 0.01338 0.0368869)
(0.0225857 0.0281227 0.00147738)
(0.0243444 0.0261389 0.00278281)
(0.0194772 0.0216785 0.00185792)
(0.0182644 0.0198046 0.00388898)
(0.0116477 0.0138044 0.0034443)
(0.010456 0.00892885 0.00442301)
(0.00402216 0.00378969 0.00447523)
(0.00153456 0.00380254 0.00376344)
(0.000526023 0.00467989 0.0030841)
(0.000880875 0.0062786 0.00365858)
(0.00171392 0.00642217 0.00403449)
(0.00316625 0.00627651 0.00453747)
(0.00362616 0.00523179 0.00466897)
(0.00388062 0.00467947 0.00480802)
(0.00373438 0.00374129 0.00475968)
(0.00371966 0.00309223 0.00479313)
(0.00353421 0.00237711 0.00476623)
(0.00343581 0.0019167 0.00479426)
(0.00330714 0.00151125 0.00481155)
(0.00320327 0.00124845 0.00484914)
(0.00310197 0.00104786 0.00489022)
(0.00300891 0.000915585 0.00493852)
(0.00292242 0.000821491 0.00498792)
(0.00284177 0.000756345 0.00503848)
(0.00276169 0.000712704 0.00509033)
(0.00268404 0.000679818 0.00514181)
(0.00261363 0.000660649 0.00518994)
(0.00255027 0.000644253 0.00523572)
(0.0024889 0.000643046 0.0052812)
(0.00243191 0.000642135 0.00532776)
(0.00238278 0.000655278 0.00537376)
(0.0023113 0.000640402 0.00541322)
(0.00228723 0.000719646 0.00546013)
(0.00216984 0.000603164 0.00548903)
(0.00223069 0.00087463 0.00556187)
(0.00201203 0.000450016 0.00556798)
(0.0022027 0.00116753 0.0056587)
(0.00182241 7.09766e-05 0.00563927)
(0.00220139 0.00166189 0.0057626)
(0.00161586 -0.000667642 0.00569936)
(0.00232515 0.00242464 0.00588951)
(0.00147875 -0.00193038 0.00571735)
(0.00264363 0.00351762 0.00600121)
(0.00184163 -0.00372438 0.00561252)
(0.00300503 0.00544475 0.00602638)
(0.00224504 -0.0061679 0.0052813)
(0.00279006 0.00873762 0.0059477)
(0.00138443 -0.00874403 0.00527155)
(0.0020859 0.0120139 0.00544382)
(0.000981108 -0.0109901 0.00578241)
(0.00291242 0.015244 0.00380285)
(0.00400126 -0.0127027 0.00305542)
(0.0105962 0.023536 0.00465125)
(-0.0034187 -0.0263526 0.00867843)
(0.0272457 0.0153356 0.00463377)
(0.0476532 -0.0633902 -0.00151932)
(-0.0723148 0.0627881 0.0104904)
(-0.0944878 -0.0936329 -0.00727954)
(-0.0733116 0.138178 -0.00838489)
(0.181395 -0.00468915 -0.0603532)
(0.160234 0.312419 -0.0171728)
(0.0569205 0.354231 0.00352091)
(0.050143 -0.09878 0.0245276)
(-0.000306976 -0.0283488 0.0208735)
(-0.0249488 -0.0634352 0.0178079)
(-0.0244659 -0.0733969 0.019031)
(-0.0271916 -0.0803826 0.0177903)
(-0.0302592 -0.0856909 0.014927)
(-0.0317831 -0.0873621 0.0108196)
(-0.0330484 -0.0858776 0.00683437)
(-0.0333 -0.0836692 0.00299532)
(-0.0318955 -0.0790529 -0.000734229)
(-0.0245696 -0.0740174 -0.00386861)
(-0.0115435 -0.0643351 -0.00811366)
(-0.00513964 -0.0519483 -0.0118635)
(-0.00432038 -0.03652 -0.0156953)
(-0.00351113 -0.016144 -0.0149502)
(0.000687737 0.00384168 -0.0113976)
(0.00868486 0.0156959 -0.00611779)
(0.0169906 0.0189049 -0.000269082)
(0.0228292 0.0148073 0.00406149)
(0.0259649 0.00662524 0.00680029)
(0.0264532 -0.00338629 0.00784001)
(0.0246671 -0.0130849 0.00698476)
(0.0214492 -0.0205477 0.00499717)
(0.0177951 -0.0248173 0.00340633)
(0.0132175 -0.0279905 0.00176073)
(0.0078752 -0.028551 0.00160435)
(0.000648829 -0.0290063 0.0028369)
(-0.00913983 -0.0313638 0.00148909)
(-0.0216476 -0.0288018 0.00228595)
(-0.0368838 -0.0290104 -0.00290558)
(-0.0454515 -0.0167318 -0.013858)
(-0.0400568 0.005204 -0.00507114)
(-0.0325487 0.0194853 0.0195792)
(-0.0313961 0.0114855 0.0363606)
(0.0231907 0.0250389 0.000189583)
(0.0263214 0.0262398 0.00261008)
(0.0220919 0.021449 0.00136053)
(0.021944 0.0212432 0.00294308)
(0.0164142 0.0154239 0.00272339)
(0.0160771 0.0110885 0.00377909)
(0.00603618 0.00516204 0.00337169)
(0.00207982 0.00411257 0.0029852)
(-0.000334183 0.00334397 0.00251287)
(0.000157178 0.00499425 0.00291445)
(0.00107717 0.00474361 0.00333989)
(0.00247486 0.00472672 0.00411002)
(0.00267926 0.00417754 0.004362)
(0.0028562 0.00415308 0.00465017)
(0.0026445 0.00358157 0.00460858)
(0.00263069 0.0031918 0.0046642)
(0.00241246 0.00256309 0.00461613)
(0.0023001 0.00213517 0.00465463)
(0.0021271 0.00170103 0.00467254)
(0.00199171 0.00140984 0.00472395)
(0.00186314 0.00117819 0.00477811)
(0.0017519 0.00102679 0.00484459)
(0.00165202 0.000920152 0.00490654)
(0.00156383 0.000850635 0.00496425)
(0.00148274 0.000808112 0.00502384)
(0.0014046 0.000785171 0.00508173)
(0.00132602 0.000772783 0.00513066)
(0.00124957 0.000762382 0.0051726)
(0.00117266 0.000762589 0.0052123)
(0.00110099 0.000765114 0.00525309)
(0.00103436 0.000780661 0.00529428)
(0.00095983 0.000777053 0.00533212)
(0.000914091 0.000839599 0.00537676)
(0.000808657 0.00074651 0.00540101)
(0.000833678 0.000972876 0.00546628)
(0.000634229 0.000591814 0.00546691)
(0.000817283 0.0012323 0.0055599)
(0.000434539 0.000212494 0.00553088)
(0.000871315 0.00168014 0.00565624)
(0.000209543 -0.000496354 0.00557597)
(0.00108398 0.00243924 0.00575367)
(9.76758e-06 -0.0015502 0.00555667)
(0.00148099 0.00378498 0.00580483)
(-9.54919e-06 -0.0027203 0.00541711)
(0.00204572 0.00630398 0.00579693)
(0.000111334 -0.00406862 0.00531972)
(0.00236792 0.0100657 0.00599733)
(5.22139e-05 -0.0069106 0.00574241)
(0.00197219 0.013783 0.00635493)
(0.000481812 -0.0126581 0.00651862)
(0.0026611 0.0147969 0.0028767)
(0.000344054 -0.0145223 0.00277039)
(0.0120088 0.0248019 0.00371091)
(0.0112588 -0.0208693 0.00443316)
(0.0175891 0.0115729 0.000166916)
(0.0103109 0.00497081 -0.00208337)
(-0.0455691 0.135867 0.0164868)
(-0.0976597 -0.145112 0.0138541)
(-0.108016 0.180763 -0.0347708)
(0.222091 -0.0906935 -0.0445751)
(0.206499 0.290448 -0.0222321)
(0.0525334 0.163339 0.00972116)
(0.0570375 -0.0353345 0.022852)
(-0.0438297 0.0621342 0.0159175)
(-0.033122 -0.0353827 0.0241339)
(-0.0352455 -0.034634 0.0211746)
(-0.0392756 -0.0487696 0.0144231)
(-0.0422045 -0.057631 0.00640009)
(-0.0394841 -0.0597878 5.86342e-05)
(-0.0311945 -0.0568313 -0.00546204)
(-0.0238394 -0.049475 -0.0102908)
(-0.0219917 -0.0357236 -0.0166795)
(-0.0202385 -0.0151509 -0.0257817)
(-0.0163749 0.0334016 -0.0211745)
(-0.0129564 0.0619128 -0.0147169)
(-0.00765655 0.0764237 -0.00492141)
(-0.000375776 0.0812631 0.00131501)
(0.0085442 0.0788919 0.00682709)
(0.0166809 0.071771 0.0109799)
(0.0219542 0.0621721 0.0134383)
(0.0251832 0.0513646 0.0148357)
(0.0267118 0.0395289 0.0152385)
(0.02631 0.0274745 0.0141789)
(0.0238847 0.0165188 0.0115254)
(0.0198362 0.00846013 0.00776116)
(0.0156222 0.0046111 0.00509362)
(0.0106743 0.00290586 0.00432774)
(0.00475645 0.00178105 0.00488691)
(-0.00279613 -0.000856253 0.00468633)
(-0.0120961 -0.0030347 0.00503534)
(-0.0223922 -0.00380968 0.00688429)
(-0.0382403 -0.00864828 -0.00287428)
(-0.0512198 0.00126726 -0.0162559)
(-0.0436072 0.0154984 -0.00180862)
(-0.0361054 0.021549 0.0211953)
(-0.0389709 0.0117218 0.0358529)
(0.0234083 0.0229979 -7.03457e-05)
(0.0273188 0.0264724 0.00275956)
(0.0236078 0.0196166 0.000914842)
(0.024799 0.0204102 0.00135667)
(0.020105 0.0143416 0.00157048)
(0.0202288 0.0120524 0.00249936)
(0.00905353 0.00694969 0.00152417)
(0.00481828 0.00580437 0.00221669)
(-0.000163337 0.00235055 0.00199452)
(-0.000286932 0.00350124 0.00237362)
(0.000347392 0.00237609 0.00251741)
(0.00122644 0.00279244 0.00359682)
(0.000960912 0.00270984 0.00376976)
(0.000973769 0.00319198 0.00412615)
(0.000740063 0.00299996 0.00403125)
(0.000705509 0.00289104 0.00415947)
(0.000393332 0.00245281 0.00409959)
(0.000213637 0.00214044 0.00414221)
(-4.78066e-05 0.00175446 0.00412898)
(-0.000256708 0.00149111 0.00415275)
(-0.000463652 0.00125839 0.00416984)
(-0.000642833 0.00110674 0.004195)
(-0.000794561 0.000999616 0.00422062)
(-0.000919242 0.000929691 0.0042524)
(-0.00103119 0.000884296 0.00428324)
(-0.00112891 0.00085706 0.00431231)
(-0.00121207 0.000838127 0.00433893)
(-0.00128543 0.000824273 0.00435883)
(-0.00135427 0.000818097 0.00437271)
(-0.00141587 0.000816993 0.00438276)
(-0.00147327 0.000828082 0.00439189)
(-0.00152965 0.000830534 0.00440339)
(-0.00156984 0.000878622 0.00442072)
(-0.00164748 0.000811262 0.00442222)
(-0.00161649 0.000995661 0.00446466)
(-0.00178417 0.000661569 0.00444014)
(-0.00159716 0.00122985 0.00452084)
(-0.00195819 0.000302915 0.004454)
(-0.00149465 0.00167031 0.00458155)
(-0.00217061 -0.000335287 0.00444662)
(-0.00125603 0.00245758 0.00463244)
(-0.00240197 -0.00118166 0.00437321)
(-0.000963002 0.00385352 0.0045855)
(-0.00241152 -0.00185584 0.00423806)
(-0.000656834 0.00625226 0.00443032)
(-0.0021275 -0.00221808 0.00433142)
(-2.25889e-05 0.00976367 0.00468645)
(-0.00190263 -0.00437863 0.00477238)
(0.00168694 0.0136767 0.00547675)
(-0.000582123 -0.0121817 0.00484511)
(0.000573401 0.0134242 0.000677443)
(-0.0025055 -0.0115874 0.00322976)
(0.00460494 0.0211184 0.000587043)
(0.0139962 -0.006933 0.00250725)
(0.00462993 0.045791 0.00972709)
(0.00555556 -0.0348971 0.0115212)
(0.0299396 0.123993 0.0469936)
(-0.113585 -0.147041 0.0518508)
(-0.0535559 0.198102 -0.132191)
(0.162166 -0.128117 -0.0247619)
(0.165557 0.479566 -0.0158518)
(0.0374354 0.593548 0.00825476)
(0.0299519 0.523199 0.014559)
(-0.0165134 0.532177 0.011983)
(-0.0123808 0.479791 0.00795643)
(-0.0305347 0.465613 -0.00352812)
(-0.0262441 0.457186 -0.0102005)
(-0.0260855 0.457002 -0.0154879)
(-0.0271994 0.477319 -0.0203474)
(-0.0297075 0.511313 -0.0222884)
(-0.0311051 0.548456 -0.0211666)
(-0.0301422 0.579281 -0.015868)
(-0.0237973 0.599381 -0.00803605)
(-0.0145182 0.613656 -0.00189358)
(-0.00406714 0.619615 0.00447873)
(0.00187794 0.626793 0.00789998)
(0.00710099 0.613268 0.0103409)
(0.0125511 0.613191 0.0123303)
(0.0178611 0.599946 0.0136063)
(0.0213656 0.588277 0.0138857)
(0.0239401 0.555933 0.0138164)
(0.0253457 0.493707 0.0130172)
(0.0257384 0.32256 0.0119491)
(0.0249331 0.0803277 0.0102423)
(0.021325 0.0464654 0.00764094)
(0.0168829 0.0378339 0.00650548)
(0.0121317 0.0323276 0.00647886)
(0.00671377 0.0298876 0.00735027)
(-0.00184963 0.0274168 0.00771179)
(-0.0144789 0.0238688 0.00656373)
(-0.0313784 0.0215577 0.000792985)
(-0.0466584 0.0193616 -0.00904901)
(-0.0509683 0.0240888 -0.0118682)
(-0.041578 0.0247748 0.00690944)
(-0.0402079 0.0228916 0.0235117)
(-0.0469278 0.0125197 0.0345309)
(0.0220482 0.0225708 0.00391609)
(0.027828 0.0288715 0.0041069)
(0.0247249 0.0197075 0.000975019)
(0.0273147 0.0205702 0.00181696)
(0.0226122 0.0117627 0.000891041)
(0.0224315 0.0110984 0.00163669)
(0.0117153 0.00567448 0.000698267)
(0.00825971 0.00655243 0.00181191)
(0.00167231 0.00190624 0.00195368)
(0.000705315 0.00254357 0.00272941)
(0.000386422 -0.000126968 0.00262652)
(0.000541345 0.000641958 0.00364027)
(6.23444e-05 0.000860582 0.0035392)
(0.00010341 0.00199274 0.00398374)
(-2.12156e-05 0.00212455 0.00387844)
(-8.09505e-05 0.00231083 0.00409317)
(-0.000405069 0.00207777 0.00404342)
(-0.000598457 0.00196297 0.00407198)
(-0.00089157 0.0016935 0.00398084)
(-0.00110295 0.00152073 0.00393188)
(-0.00131316 0.00134072 0.00386313)
(-0.00147784 0.00122549 0.00381885)
(-0.00160731 0.00114141 0.00378658)
(-0.00170857 0.00109621 0.00376343)
(-0.00179067 0.00107617 0.00374422)
(-0.00185252 0.0010797 0.00372628)
(-0.00189554 0.00108956 0.00370479)
(-0.00193599 0.00110013 0.00367597)
(-0.00197989 0.00110661 0.00364381)
(-0.00201882 0.00111281 0.00361206)
(-0.00205411 0.00112158 0.00358375)
(-0.00208546 0.00112329 0.00356109)
(-0.00210897 0.00115442 0.00354384)
(-0.00214715 0.00109614 0.00352328)
(-0.00210117 0.00124784 0.00354613)
(-0.00222166 0.000954638 0.00349837)
(-0.00201553 0.00147378 0.00359173)
(-0.00234341 0.000643183 0.00346568)
(-0.00182767 0.00191863 0.00366769)
(-0.00251565 0.000135592 0.00341853)
(-0.00153921 0.00272024 0.00374184)
(-0.00271289 -0.00042372 0.00334061)
(-0.00141075 0.00403518 0.00362697)
(-0.00280198 -0.000655836 0.00324739)
(-0.00168246 0.00612774 0.00315443)
(-0.00280684 -0.000682675 0.00330817)
(-0.00112402 0.00922655 0.00305677)
(-0.0025417 -0.00276737 0.00369613)
(0.00253096 0.0127267 0.00459826)
(-0.000654585 -0.00929767 0.00325872)
(-0.000913899 0.0149276 -0.000325843)
(-0.00289551 -0.010696 0.00139011)
(0.000730993 0.0228397 0.00374484)
(0.0125705 -0.0231879 -0.008015)
(0.0137704 0.0362965 0.0241306)
(-0.018834 -0.0597815 0.0369806)
(0.041144 0.0379362 0.0771561)
(-0.108409 -0.119342 0.0719928)
(0.014087 0.07471 -0.188191)
(0.0908887 -0.0435911 -0.0168219)
(0.18898 0.515703 -0.0316603)
(0.0534776 0.620727 -0.00216682)
(0.0438076 0.595494 0.0044392)
(0.00765656 0.606306 0.00390615)
(-0.00261785 0.583329 -0.00254456)
(-0.018842 0.581093 -0.0111123)
(-0.0241007 0.586519 -0.0153393)
(-0.0292438 0.575192 -0.0154176)
(-0.0338784 0.653341 -0.0146391)
(-0.0356375 0.662731 -0.0127051)
(-0.033657 0.656862 -0.00852295)
(-0.0297056 0.643718 -0.00500764)
(-0.0240681 0.69179 -0.000865392)
(-0.0173602 0.684531 0.00291373)
(-0.00850949 0.685828 0.00724051)
(-0.00390623 0.689335 0.00873956)
(0.00298483 0.68817 0.0103459)
(0.00956878 0.68739 0.0118595)
(0.0156617 0.672727 0.0128438)
(0.0213038 0.646499 0.0136046)
(0.0258686 0.615306 0.0139564)
(0.0272515 0.60607 0.0138157)
(0.0271939 0.650647 0.0128258)
(0.0251565 0.585267 0.0109898)
(0.0181918 0.560142 0.00770949)
(0.0128055 0.464374 0.00621967)
(0.00230619 0.485386 0.0030458)
(-0.00461344 0.269622 0.00108501)
(-0.0126665 0.0741819 -0.00107962)
(-0.0209966 0.0494025 -0.00408145)
(-0.0315969 0.0441622 -0.00850636)
(-0.0372461 0.0396283 -0.00988648)
(-0.0355177 0.032303 -0.00277944)
(-0.0329665 0.02667 0.0122668)
(-0.0390673 0.0217369 0.0239866)
(-0.0472256 0.0115586 0.0331663)
(0.0179728 0.0242467 0.00523252)
(0.0265617 0.0332446 0.00667187)
(0.0244189 0.0211009 0.00251901)
(0.028256 0.0229858 0.0054293)
(0.0235781 0.00911091 0.0031475)
(0.0232899 0.00875428 0.00401419)
(0.0121403 0.00148416 0.0021531)
(0.00988211 0.00490134 0.00201188)
(0.00228194 0.00037218 0.00197887)
(0.00141338 0.00250579 0.00313344)
(0.000122927 -0.00143274 0.00312301)
(-0.00139388 -0.00023643 0.00379011)
(-0.00282876 -0.00025176 0.00347866)
(-0.00292897 0.00112117 0.00413438)
(-0.00288796 0.00123163 0.00429913)
(-0.00280723 0.00160779 0.00470543)
(-0.00319423 0.00158694 0.00467389)
(-0.00343695 0.00175191 0.00468357)
(-0.00381188 0.0016787 0.00454172)
(-0.00407313 0.0016728 0.00446086)
(-0.0043414 0.00159776 0.00435501)
(-0.00454583 0.00156298 0.00428428)
(-0.00471138 0.00153242 0.00422663)
(-0.00483066 0.00152384 0.00417412)
(-0.00492059 0.0015272 0.00411428)
(-0.00497938 0.00154779 0.00406177)
(-0.00500099 0.00157977 0.00400738)
(-0.00499926 0.00160721 0.00396403)
(-0.00499165 0.00162182 0.00393317)
(-0.00497708 0.00163275 0.00390843)
(-0.00495989 0.00164025 0.00388775)
(-0.00493611 0.00164182 0.00387118)
(-0.00491456 0.00165545 0.00385691)
(-0.00488972 0.00161346 0.00384458)
(-0.00483149 0.00172208 0.00385384)
(-0.00485966 0.00148414 0.0038292)
(-0.00468281 0.0019063 0.00390866)
(-0.00484991 0.00122926 0.00382074)
(-0.00444887 0.00230479 0.00401994)
(-0.00487295 0.000879983 0.00383834)
(-0.00419345 0.0030463 0.00414694)
(-0.00492175 0.000585677 0.00388809)
(-0.00423525 0.00426823 0.00406604)
(-0.00492891 0.000413249 0.00388678)
(-0.00460066 0.00609637 0.00349156)
(-0.00494039 -0.000237622 0.00369708)
(-0.00390524 0.0086475 0.0030042)
(-0.00466622 -0.00262809 0.00369484)
(-0.000249841 0.011937 0.00440002)
(-0.00282197 -0.00601863 0.00330027)
(-0.00457794 0.0162792 0.000867926)
(-0.00302073 -0.0113392 0.000787234)
(0.00296833 0.0225373 0.00346083)
(0.00679988 -0.026847 -0.00545691)
(0.0170568 0.0450194 0.0158299)
(-0.00978033 -0.045737 0.041026)
(0.0198888 0.00409578 0.0824913)
(-0.073225 -0.0938648 0.0969356)
(0.0316292 -0.122709 -0.204963)
(0.0577277 0.0992926 -0.0110844)
(0.125291 0.61575 -0.043014)
(0.0339454 0.693204 -0.00605758)
(0.0280474 0.716123 0.0013566)
(0.00508415 0.722833 0.00516637)
(-0.00333828 0.723725 0.0033821)
(-0.0193528 0.749187 -0.00111478)
(-0.0217835 0.778564 -0.00129564)
(-0.0276598 0.764145 -0.00221716)
(-0.0306639 0.759357 -0.00213185)
(-0.0323344 0.738164 -0.000917954)
(-0.0314892 0.741913 0.000813549)
(-0.028968 0.7826 0.00288194)
(-0.024354 0.769877 0.0054226)
(-0.019129 0.76935 0.00740815)
(-0.0141896 0.757908 0.00929423)
(-0.00465018 0.761312 0.0117322)
(-0.000500404 0.781388 0.0124161)
(0.00837638 0.744323 0.0138921)
(0.0197829 0.740344 0.0154309)
(0.0288459 0.740997 0.0167546)
(0.0338989 0.732645 0.0178203)
(0.039326 0.73831 0.0194814)
(0.0431148 0.697875 0.0213533)
(0.0423609 0.6789 0.0218054)
(0.0388724 0.630471 0.0204167)
(0.0345177 0.593141 0.0189765)
(0.0267046 0.603235 0.0161089)
(0.0144746 0.563476 0.0112099)
(0.00483229 0.469794 0.00679333)
(-0.00459661 0.473842 0.00310804)
(-0.0122271 0.23935 0.00301521)
(-0.0191359 0.0650277 0.00508314)
(-0.0222011 0.0341157 0.0103221)
(-0.0299327 0.0468922 0.0171061)
(-0.0495174 0.414227 0.0267634)
(-0.0571136 0.466852 0.0307012)
(0.0159488 0.0227345 0.00566868)
(0.0232987 0.0371531 0.00838737)
(0.0205485 0.020784 0.004014)
(0.026732 0.025272 0.00823969)
(0.02307 0.00737084 0.00544381)
(0.0217134 0.0078188 0.00549408)
(0.0108496 -0.000412678 0.00397572)
(0.00918877 0.00358083 0.00408775)
(0.00155447 -0.00171183 0.00386147)
(0.00138904 0.00190848 0.00414023)
(4.73592e-05 -0.0025054 0.00424455)
(-0.00147397 -0.000149822 0.00455219)
(-0.00274756 -0.000735283 0.00489245)
(-0.00291416 0.000477813 0.00564471)
(-0.00304719 6.88298e-05 0.00631333)
(-0.00319034 0.000874403 0.00676984)
(-0.00368049 0.000880976 0.00692276)
(-0.00379486 0.00142776 0.00703251)
(-0.00404227 0.00152878 0.00695783)
(-0.0041562 0.00175633 0.00688238)
(-0.00430287 0.00181848 0.00676166)
(-0.00438982 0.0018888 0.00666277)
(-0.00444365 0.00193033 0.00657191)
(-0.00445832 0.00198917 0.00650407)
(-0.00444402 0.00204816 0.00644669)
(-0.00441036 0.00210002 0.00639502)
(-0.00436553 0.00214151 0.00635035)
(-0.00431432 0.00216995 0.00631634)
(-0.00426418 0.0021855 0.00629194)
(-0.00421582 0.00219432 0.00627088)
(-0.00416969 0.0021991 0.00625057)
(-0.00411821 0.00219726 0.00623046)
(-0.00407605 0.00220009 0.00620758)
(-0.00401994 0.00216237 0.00618791)
(-0.00395814 0.00223023 0.00617964)
(-0.00393574 0.00203434 0.00615517)
(-0.00380037 0.00239766 0.00619568)
(-0.00389191 0.00183789 0.00610822)
(-0.00359383 0.00278195 0.00624251)
(-0.0039244 0.00162487 0.00606062)
(-0.00348247 0.00351297 0.00625581)
(-0.00407158 0.00145852 0.00598164)
(-0.0037266 0.00464634 0.00604729)
(-0.00420751 0.00101329 0.0057839)
(-0.00430897 0.0061051 0.00546349)
(-0.00431701 -0.000667868 0.00544509)
(-0.00390491 0.00799377 0.00516391)
(-0.00434993 -0.00388629 0.00572933)
(-0.000883299 0.0113688 0.007182)
(-0.00255224 -0.00604039 0.00688006)
(-0.00252468 0.0177629 0.00679284)
(-0.000657891 -0.0159163 0.00505499)
(0.000400295 0.0200186 0.0101364)
(-0.000101813 -0.0305855 0.00742313)
(0.00972551 0.0366343 0.0189341)
(0.0161021 -0.0247608 0.0318567)
(-0.0129477 -0.00150237 0.0854097)
(-0.0165847 -0.0904221 0.105618)
(-7.54054e-05 -0.15774 -0.191098)
(0.00423072 0.170469 -0.0251562)
(0.0151654 0.636172 -0.0645797)
(-0.00224648 0.75161 -0.00674955)
(-0.00310661 0.790384 0.000242634)
(-0.00632378 0.802202 0.00946194)
(-0.0116215 0.800975 0.00962566)
(-0.017705 0.808372 0.00804233)
(-0.0206339 0.807119 0.00762371)
(-0.0248553 0.781704 0.00692496)
(-0.028843 0.697597 0.00642415)
(-0.0305789 0.819529 0.00674766)
(-0.0302919 0.792851 0.00792167)
(-0.0287823 0.794339 0.00897183)
(-0.0257434 0.788224 0.0102666)
(-0.020612 0.779596 0.0113685)
(-0.0132422 0.776228 0.0122152)
(-0.00526837 0.770021 0.0122016)
(0.00403495 0.76297 0.0118063)
(0.0128211 0.754619 0.0113688)
(0.0222548 0.752041 0.0110862)
(0.0303301 0.750239 0.0115033)
(0.0369684 0.749804 0.0132067)
(0.0418868 0.746409 0.0158561)
(0.0438115 0.74691 0.0192803)
(0.044419 0.744422 0.0238632)
(0.0427171 0.73858 0.0283723)
(0.0389716 0.731962 0.0314859)
(0.0345829 0.720815 0.0294841)
(0.0266771 0.711348 0.028739)
(0.0185399 0.691466 0.0298271)
(0.0065539 0.683216 0.0294232)
(-0.00162488 0.64874 0.0288154)
(-0.012121 0.63294 0.0281657)
(-0.0209645 0.594128 0.0270405)
(-0.0321728 0.566819 0.0234313)
(-0.0431855 0.544959 0.013976)
(-0.0497482 0.482711 -5.64426e-06)
(-0.000396813 0.0217156 -0.00679678)
(0.0189022 0.0380252 0.00490627)
(0.01307 0.0195009 0.00241895)
(0.0224605 0.0272961 0.00804606)
(0.0190422 0.00612985 0.00450546)
(0.0168139 0.00736707 0.00108782)
(0.00660051 -0.000679076 0.00160996)
(0.00630729 0.00353146 0.00280562)
(-0.00141885 -0.000849456 0.00139917)
(-0.000940915 0.00257356 0.000614089)
(-0.00255384 -0.00182238 0.000316389)
(-0.00434437 0.00068149 0.000239321)
(-0.00650409 -0.00118175 0.00124998)
(-0.00627192 0.000122655 0.00196178)
(-0.00721769 -0.000529903 0.00284326)
(-0.0072453 0.000578313 0.00325015)
(-0.00790795 0.000501539 0.00360501)
(-0.00805932 0.00122448 0.00381954)
(-0.00842641 0.00137362 0.00393566)
(-0.008615 0.00173711 0.00400915)
(-0.00882447 0.00188977 0.00401096)
(-0.00897626 0.00203621 0.00401015)
(-0.0091012 0.00212036 0.00399899)
(-0.00917755 0.00218715 0.00400371)
(-0.00917501 0.00225389 0.00401847)
(-0.009118 0.00232761 0.00403795)
(-0.0090264 0.00238673 0.00405832)
(-0.00891731 0.00242647 0.00408194)
(-0.00880957 0.00244867 0.00410868)
(-0.00870686 0.00246074 0.00413265)
(-0.00860583 0.00246725 0.00415145)
(-0.00849474 0.00246729 0.00416468)
(-0.00838861 0.00246796 0.00416993)
(-0.0082552 0.00244188 0.0041727)
(-0.00814209 0.00248935 0.00417014)
(-0.00800677 0.00234342 0.00416656)
(-0.00790537 0.0026318 0.00418418)
(-0.0077614 0.00217954 0.00417165)
(-0.00769721 0.00297231 0.00421874)
(-0.00758683 0.00202073 0.00418796)
(-0.00760114 0.00364674 0.00423267)
(-0.00741395 0.00184437 0.0041872)
(-0.00771455 0.00475946 0.00409986)
(-0.00718791 0.0011923 0.00399499)
(-0.00781627 0.00620988 0.00367294)
(-0.00719232 -0.00100166 0.00357377)
(-0.007348 0.00792144 0.00345993)
(-0.00817303 -0.00483669 0.00358178)
(-0.00652727 0.0107404 0.00505116)
(-0.00781473 -0.00665028 0.00520346)
(-0.00610662 0.0186278 0.00566904)
(-0.00395172 -0.0142162 0.00418002)
(-0.00499716 0.0240163 0.00738286)
(-0.0129647 -0.0341185 0.00158866)
(-0.00158286 0.0403204 0.0116437)
(0.024408 -0.050146 0.0267152)
(-0.0118826 0.026261 0.0649249)
(0.0165256 -0.118219 0.0906596)
(-0.0545116 -0.146297 -0.193462)
(-0.057886 0.0524709 -0.0241786)
(-0.122859 0.396823 -0.0788582)
(-0.0461448 0.478795 -0.0158273)
(-0.0319358 0.528068 0.000291051)
(-0.0204325 0.673453 0.00702473)
(-0.0183022 0.764872 0.00835184)
(-0.0190992 0.637034 0.00791248)
(-0.0220711 0.723129 0.00847812)
(-0.0242795 0.688198 0.00911403)
(-0.0258917 0.674416 0.00988759)
(-0.0270054 0.674137 0.0108949)
(-0.0264368 0.630499 0.0118077)
(-0.0251245 0.6774 0.0125171)
(-0.0225203 0.638553 0.0127915)
(-0.0181608 0.63438 0.0122679)
(-0.0123088 0.609744 0.0105736)