/*--------------------------------*- C++ -*----------------------------------*\
| =========                 |                                                 |
| \\      /  F ield         | OpenFOAM: The Open Source CFD Toolbox           |
|  \\    /   O peration     | Version:  2.3.0                                 |
|   \\  /    A nd           | Web:      www.OpenFOAM.org                      |
|    \\/     M anipulation  |                                                 |
\*---------------------------------------------------------------------------*/
FoamFile
{
    version     2.0;
    format      ascii;
    class       volVectorField;
    location    "19";
    object      U.water;
}
// * * * * * * * * * * * * * * * * * * * * * * * * * * * * * * * * * * * * * //

dimensions      [0 1 -1 0 0 0 0];

internalField   nonuniform List<vector> 
6144
(
(0.0100898 0.0230543 -0.00270212)
(0.0104095 0.00800159 -0.00316658)
(0.00736932 0.00542751 -0.00381524)
(0.00712926 0.0018595 -0.00355349)
(0.00424602 -0.000165252 -0.00256021)
(0.00350691 -0.00022894 -0.0018981)
(0.00222166 -0.00150395 -0.000640927)
(0.00176578 -0.000168596 -0.000173377)
(0.00158375 0.000520542 -1.54493e-05)
(0.00130548 0.00236258 0.00073903)
(0.00126584 0.00331993 0.00104453)
(0.0014841 0.00368964 0.00156195)
(0.00171417 0.00313059 0.00156378)
(0.00189645 0.00231966 0.00168467)
(0.00194472 0.00136378 0.00129378)
(0.00203149 0.00074919 0.0010634)
(0.0020631 0.000201503 0.00074725)
(0.00211151 -8.39014e-05 0.000559456)
(0.00213464 -0.000327229 0.000397775)
(0.00214931 -0.000452962 0.000314181)
(0.00214905 -0.000540908 0.000267636)
(0.00214089 -0.000580559 0.000252977)
(0.00212609 -0.000597238 0.000258495)
(0.00210703 -0.000593811 0.000280434)
(0.00208427 -0.000580434 0.000315265)
(0.002058 -0.00055825 0.000361172)
(0.00202839 -0.000527787 0.000413749)
(0.00199533 -0.000485587 0.000470558)
(0.00195892 -0.000427427 0.000533058)
(0.00192046 -0.000352891 0.000605067)
(0.00187739 -0.000264907 0.000691475)
(0.00182534 -0.000171731 0.000800087)
(0.00176157 -7.9304e-05 0.000942706)
(0.00168378 -9.76989e-06 0.00112913)
(0.00158907 1.83507e-05 0.00137371)
(0.00147702 -3.76044e-05 0.00167517)
(0.00134949 -0.000194282 0.00202569)
(0.00121502 -0.000481672 0.00238422)
(0.00108376 -0.000813859 0.00269273)
(0.000961739 -0.00113611 0.0028488)
(0.000859222 -0.00124381 0.00276605)
(0.000764647 -0.000972791 0.00233362)
(0.000615536 0.000122415 0.00153017)
(0.000465324 0.00236444 0.000516672)
(0.000383006 0.00622748 -0.000287874)
(0.000548085 0.0107256 -0.000235981)
(0.00145891 0.0139979 -0.000559375)
(0.0029006 0.0155109 -0.00167514)
(0.00437095 0.0171416 -0.00273851)
(0.00692796 0.0157909 -0.00576266)
(0.00762989 0.0155967 -0.0108779)
(0.00618683 0.0240773 -0.0147201)
(0.0155666 0.0380016 -0.0120458)
(0.0315589 -0.0158601 -0.00459437)
(0.0492207 -0.0397071 -0.013326)
(0.0308282 -0.104563 -0.00621503)
(0.00240314 -0.057732 -0.0174526)
(-0.00976416 -0.106609 0.0259588)
(-0.0410687 0.00601049 -0.0562786)
(0.0136719 -0.018328 0.0441462)
(0.136633 -0.297572 0.0726026)
(0.0911785 -0.139973 0.0299854)
(0.0626233 -0.196419 0.00883825)
(0.0521167 -0.24287 0.00400607)
(0.0486717 -0.244477 0.00576019)
(0.0431629 -0.243384 0.0083701)
(0.0340302 -0.240926 0.0112493)
(0.0302309 -0.24479 0.0156546)
(0.019587 -0.247377 0.023576)
(0.0112373 -0.240119 0.0248087)
(0.0125577 -0.230282 0.0225729)
(0.00757853 -0.220366 0.0226176)
(0.0040436 -0.212511 0.0151185)
(0.016022 -0.201917 0.00353292)
(0.0310674 -0.165684 -0.0113514)
(0.00601346 -0.139345 -0.00835259)
(-0.0170344 -0.0825004 0.015763)
(-0.020849 -0.0323471 0.021412)
(-0.021046 0.00195136 0.0180784)
(-0.0149561 0.00476682 0.022412)
(-0.00974014 -0.00512613 0.0157989)
(0.0048839 0.00269275 0.00327526)
(0.00772 0.00943971 0.00840475)
(0.00423124 0.0044694 0.00771163)
(0.00546974 -0.00117207 0.00684627)
(0.00496126 0.000952314 0.00390027)
(0.00409382 0.00415531 0.000630332)
(0.00146966 0.0123631 -0.00281263)
(3.86523e-05 0.0230533 -0.00343898)
(-0.00107901 0.03115 -0.00382259)
(0.000714489 0.0369347 -0.00279751)
(0.00213835 0.0380835 -0.000252839)
(0.00145464 0.0357266 0.00437949)
(0.0019787 0.0287465 0.010863)
(0.00473702 0.0165606 0.0131379)
(0.00134345 0.00319341 0.0138704)
(0.0176096 0.0234934 0.00142412)
(0.0183488 0.0152026 0.00123665)
(0.0144852 0.012867 0.00011868)
(0.0136958 0.0102679 0.00215495)
(0.00909059 0.00627874 0.00251744)
(0.0077463 0.00345162 0.00352717)
(0.00391295 0.000884618 0.00389689)
(0.00248173 0.00213513 0.00355125)
(0.00171705 0.00305294 0.00318929)
(0.00156684 0.00466236 0.00355121)
(0.00190174 0.00505047 0.00361608)
(0.00263241 0.00507676 0.00420435)
(0.00302706 0.00414611 0.004276)
(0.00341844 0.00342931 0.00442235)
(0.00343414 0.00236974 0.00427548)
(0.00357039 0.00166081 0.00421776)
(0.0035658 0.000947469 0.00408767)
(0.00364215 0.000558201 0.00401243)
(0.00366448 0.000205456 0.00391196)
(0.0036771 2.16217e-06 0.00387858)
(0.00366013 -0.000150809 0.0038671)
(0.00363004 -0.000234647 0.0038867)
(0.00358666 -0.000284598 0.00392411)
(0.00353457 -0.000304527 0.00397829)
(0.00347564 -0.000308827 0.00404243)
(0.00341012 -0.000300329 0.00411299)
(0.00333774 -0.000282288 0.0041865)
(0.00325689 -0.000252069 0.00426098)
(0.0031663 -0.000204332 0.00433688)
(0.0030677 -0.000142282 0.00440888)
(0.00296337 -7.52358e-05 0.00447586)
(0.00284815 -1.82386e-05 0.00455115)
(0.0027214 2.30741e-05 0.00463987)
(0.0025825 1.67221e-05 0.00474769)
(0.00243567 -5.1404e-05 0.00487723)
(0.00228406 -0.000226151 0.00502898)
(0.00213108 -0.000493153 0.00519384)
(0.00197168 -0.000861825 0.00535651)
(0.00179981 -0.00121957 0.00548796)
(0.00158947 -0.00151455 0.00555104)
(0.00130995 -0.00155916 0.00550508)
(0.000926092 -0.00123524 0.00523312)
(0.000582276 -0.000157021 0.00442991)
(-0.000132684 0.00190924 0.00336662)
(-0.00116388 0.00528283 0.00283823)
(-0.00147426 0.00802592 0.00351018)
(-0.000590333 0.00875331 0.00385121)
(0.00203977 0.00958683 0.00127412)
(0.00630836 0.012931 -0.00068717)
(0.0122948 0.0139357 -0.00269783)
(0.015705 0.0174604 -0.0042244)
(0.0174391 0.0124686 -0.00385767)
(0.0589362 -0.0085114 0.0130474)
(0.0908067 -0.0882265 0.00764223)
(0.0748788 -0.0952934 -0.00905302)
(0.0500542 -0.14209 -0.00141629)
(0.00810631 -0.115915 -0.00174118)
(-0.000581717 -0.163221 0.0352027)
(-0.0713639 0.0114269 -0.0574935)
(0.0183776 -0.0265252 0.0256834)
(0.19995 -0.279341 0.126591)
(0.119335 -0.0829677 0.0759776)
(0.0598757 -0.145356 0.0151037)
(0.049304 -0.128006 0.0224752)
(0.0279389 -0.115843 0.0175226)
(0.0146866 -0.0819679 0.0219732)
(0.00503165 -0.0830198 0.0375728)
(-0.00479907 -0.0880938 0.0507079)
(-0.0153658 -0.105006 0.0486808)
(-0.0246257 -0.123768 0.0496941)
(-0.0221419 -0.13914 0.0518875)
(-0.0145999 -0.146971 0.0410173)
(-0.018509 -0.142777 0.0115646)
(-0.0294429 -0.117105 0.00597919)
(-0.028515 -0.0449539 0.00249365)
(-0.0329041 -0.0235236 0.0021973)
(-0.0373834 -0.00283044 0.00804395)
(-0.0285022 0.0145524 0.0121574)
(-0.0220905 0.0181025 0.0216169)
(-0.0214561 0.00816117 0.0289948)
(-0.0192681 -0.00238157 0.011832)
(-0.0152819 0.0222097 0.00790185)
(-0.0136463 0.0274527 0.0143713)
(-0.00887111 0.0233452 0.0171237)
(-0.00683089 0.0213445 0.0134265)
(-0.00569236 0.0329857 0.00733102)
(-0.00732679 0.0489316 0.00216543)
(-0.00554752 0.0584341 0.00310462)
(-0.00139599 0.0608184 0.00378988)
(0.00338792 0.0579972 0.00474277)
(0.00664603 0.0519645 0.00484425)
(0.00698684 0.0454399 0.00630995)
(0.00661488 0.0380233 0.00909839)
(0.00600692 0.025373 0.00977146)
(0.00426186 0.0160713 0.0112663)
(0.00095348 0.00333164 0.013722)
(0.0206934 0.0201567 0.00214723)
(0.0217052 0.0166014 0.0024661)
(0.0174611 0.0140688 0.00119421)
(0.0165889 0.0139816 0.00271171)
(0.0116562 0.00971915 0.00352285)
(0.0103087 0.00611071 0.00444031)
(0.00342359 0.00270666 0.00480241)
(0.00138075 0.00294932 0.00468958)
(8.09355e-05 0.00334008 0.00422705)
(0.000455601 0.00461603 0.00431232)
(0.000990407 0.00458711 0.00418967)
(0.00214812 0.00454093 0.0045828)
(0.00243416 0.00383742 0.00466569)
(0.00286037 0.00361413 0.00486487)
(0.00287005 0.00284837 0.00478337)
(0.00304066 0.00231773 0.00479356)
(0.00294281 0.00161893 0.00472903)
(0.0029625 0.00119905 0.00475204)
(0.00287188 0.000780526 0.00475564)
(0.0028097 0.000537159 0.00479794)
(0.00271364 0.000340434 0.00483664)
(0.00262107 0.000226141 0.00488788)
(0.00252514 0.000148755 0.00493841)
(0.00243106 0.000108247 0.00499106)
(0.00233724 8.84065e-05 0.00504449)
(0.00224215 8.42463e-05 0.00509711)
(0.00214172 8.99015e-05 0.00514792)
(0.00203198 0.000103391 0.00519662)
(0.00191187 0.000124057 0.00524387)
(0.00178144 0.000145539 0.00529236)
(0.00164147 0.000161308 0.00534568)
(0.00149097 0.000154873 0.00540615)
(0.001331 0.000119701 0.00547564)
(0.00115902 3.29259e-05 0.00555533)
(0.000979575 -9.83392e-05 0.00564143)
(0.000795251 -0.000285983 0.00572832)
(0.000607241 -0.000475203 0.00580791)
(0.000393142 -0.000621416 0.0058585)
(0.000143548 -0.000613161 0.00585362)
(-0.000126873 -0.000394939 0.00576399)
(-0.00041909 0.000141196 0.00555078)
(-0.000812747 0.000972076 0.00518969)
(-0.00152933 0.00218708 0.00473892)
(-0.00281254 0.0039041 0.00419646)
(-0.00412223 0.00534938 0.00389573)
(-0.00412152 0.00447946 0.00447193)
(-0.00407049 0.00258693 0.00539503)
(-0.00152487 0.000517957 0.00323796)
(0.00423745 0.00263083 0.00312512)
(0.0112193 0.00173908 0.00320394)
(0.025323 0.00199873 0.00205231)
(0.0510758 -0.0243827 0.0051986)
(0.108808 -0.0681278 0.0170477)
(0.122402 -0.104656 -0.0082872)
(0.103916 -0.0842943 -0.0260397)
(0.0883512 -0.103536 -0.00111363)
(-0.0348788 -0.0489712 0.0152239)
(-0.0437804 -0.176623 0.0470614)
(-0.161169 0.0470658 -0.0599728)
(0.0544313 -0.0701654 -0.0138223)
(0.247548 -0.261379 0.139845)
(0.148996 -0.0308645 0.0888991)
(0.0842491 -0.111946 0.0203616)
(0.0618792 -0.050017 0.0112102)
(0.0328467 -0.0424 -0.010282)
(0.0399926 -0.0141086 0.00227631)
(0.0444568 -0.0257307 0.0219218)
(0.0376849 -0.0385487 0.0315155)
(0.0174295 -0.0603385 0.0349268)
(-0.0143773 -0.0798638 0.0180962)
(-0.0412549 -0.0674726 -0.00725972)
(-0.0466706 -0.0309455 -0.0122508)
(-0.0398532 -0.00484128 -0.0146741)
(-0.0213016 0.0177786 -0.0135792)
(-0.00320163 0.0305181 -0.00883752)
(-0.00846218 0.0276469 0.00546338)
(-0.0282088 0.0269168 0.0139035)
(-0.0339151 0.0249955 0.0290002)
(-0.0391551 0.0254045 0.036843)
(-0.0420809 0.0173288 0.0285213)
(-0.0370591 0.0200708 0.00875893)
(-0.0247053 0.0360895 0.00991336)
(-0.015558 0.0354767 0.0124489)
(-0.0146291 0.0340295 0.0128986)
(-0.018075 0.0359085 0.00669956)
(-0.0225725 0.047801 0.00205482)
(-0.0174958 0.0604317 0.00381655)
(-0.00852064 0.0654155 0.00731001)
(-0.000634862 0.0627525 0.00755536)
(0.00606433 0.0585982 0.00572044)
(0.00909545 0.0521427 0.00209367)
(0.00882843 0.0449371 0.000744812)
(0.00898639 0.0368696 -0.000461322)
(0.00874744 0.0244262 -0.00322878)
(0.00552649 0.0170552 -0.00252925)
(0.00310859 -0.00380372 -0.000771245)
(0.0217598 0.0189354 0.00149564)
(0.0241886 0.0168523 0.00145164)
(0.0200507 0.0128726 -0.000411861)
(0.0206638 0.0141714 -0.000172052)
(0.0163139 0.00984088 0.00117868)
(0.0148391 0.00752947 0.00203099)
(0.00464851 0.00340504 0.0030352)
(0.00138704 0.00232489 0.00357281)
(-0.00150336 0.00138182 0.00365942)
(-0.000796773 0.00312942 0.00391995)
(6.7657e-05 0.0029121 0.00380426)
(0.00108567 0.00323506 0.00439725)
(0.00117222 0.00302374 0.00451295)
(0.00157534 0.00326273 0.00478709)
(0.00164931 0.00282774 0.00468155)
(0.00185498 0.00253524 0.0047102)
(0.00173749 0.0019039 0.00461313)
(0.00176003 0.00148815 0.00462883)
(0.00162718 0.00100698 0.0046157)
(0.00154438 0.000715309 0.00466082)
(0.00142107 0.000462351 0.00470444)
(0.00131426 0.000318768 0.00476973)
(0.00119744 0.000222842 0.00482933)
(0.00108404 0.000169478 0.00488781)
(0.00097494 0.000141326 0.00494488)
(0.000867506 0.000132936 0.00500014)
(0.00075829 0.000136003 0.0050528)
(0.000640982 0.00014525 0.00510146)
(0.000515018 0.000153809 0.00514752)
(0.000385669 0.00015242 0.00519415)
(0.000256036 0.000135565 0.00524468)
(0.000125507 9.06757e-05 0.00530158)
(-4.85029e-06 1.80682e-05 0.00536505)
(-0.000135507 -9.08799e-05 0.0054327)
(-0.000271699 -0.000210301 0.0054939)
(-0.000425035 -0.000319278 0.00553174)
(-0.000600466 -0.000356044 0.0055149)
(-0.000833959 -0.000291032 0.00541758)
(-0.00113811 -2.75376e-05 0.00520751)
(-0.00149506 0.000464736 0.00486978)
(-0.00186325 0.00122082 0.00442882)
(-0.00222292 0.00209269 0.00396698)
(-0.00285146 0.00281597 0.0036157)
(-0.00407522 0.00312477 0.00352399)
(-0.00527274 0.00239094 0.00387397)
(-0.00542542 -0.0014728 0.00455304)
(-0.00579124 -0.0050621 0.00465506)
(-0.00365702 -0.00836141 0.00393167)
(0.0013321 -0.00707732 0.00652939)
(0.0129611 -0.0159497 0.00880388)
(0.0427515 -0.033101 0.00577601)
(0.0861422 -0.0621254 0.00640582)
(0.123934 -0.0793339 0.000750349)
(0.129024 -0.0605951 -0.0320917)
(0.0944175 0.0354033 -0.0498137)
(0.0624966 0.004603 0.0487653)
(-0.0146916 0.0921675 0.103524)
(-0.0180658 -0.211239 0.094528)
(-0.156062 0.143137 -0.000219954)
(0.0685071 -0.183381 0.00935555)
(0.24393 -0.214727 0.14699)
(0.112967 0.0328762 0.0704139)
(0.0693702 -0.0939113 0.00989774)
(0.0405635 -0.00132223 -0.0253335)
(0.0293402 -0.000494252 -0.0126192)
(0.0279876 0.0251255 0.00327907)
(0.017667 0.0197861 0.00640538)
(-0.00770469 0.0235151 0.00116255)
(-0.0281111 0.0160626 -0.00856563)
(-0.0447264 0.0202756 -0.0204766)
(-0.0505391 0.0249496 -0.0257533)
(-0.0329198 0.0366615 -0.0161555)
(-0.0176895 0.0451881 0.000610773)
(-0.0112634 0.0452926 0.013965)
(-0.0119897 0.0516885 0.0245972)
(-0.0267045 0.0532146 0.027292)
(-0.0499381 0.0547293 0.02505)
(-0.0599584 0.0523905 0.0251224)
(-0.0631498 0.0522 0.0197399)
(-0.050482 0.051005 0.00869719)
(-0.0353617 0.0551854 0.0105518)
(-0.0281352 0.0559333 0.0154533)
(-0.0271242 0.0557229 0.0186118)
(-0.0277776 0.0560505 0.0205187)
(-0.0293799 0.0543457 0.0166406)
(-0.029571 0.0557449 0.0121577)
(-0.02259 0.0629509 0.0111193)
(-0.0103478 0.0701684 0.00904507)
(0.0026154 0.068613 0.00433174)
(0.012336 0.0658177 -0.00108383)
(0.0187236 0.0593406 -0.00741756)
(0.0224269 0.056155 -0.0123651)
(0.028418 0.0484563 -0.012965)
(0.0363401 0.0429002 -0.0117151)
(0.0344948 0.0278657 -0.00697376)
(0.0139081 -0.000411 -0.0121003)
(0.0230277 0.0200939 0.00112513)
(0.0263433 0.0199763 0.00140994)
(0.0226522 0.0137248 -0.00104951)
(0.0240728 0.0147251 -0.00134869)
(0.0206051 0.00910187 -0.00163439)
(0.0190894 0.00893764 -0.00139031)
(0.00817163 0.00472565 0.000170246)
(0.00468433 0.00351854 0.00196142)
(-0.0013911 -0.000177687 0.00275108)
(-0.00168529 0.00140086 0.00338285)
(-0.00127648 0.000691 0.00324424)
(-0.000669966 0.00161909 0.00411221)
(-0.000913856 0.00185386 0.00409378)
(-0.000598175 0.00257567 0.00438216)
(-0.000404601 0.00246396 0.00418204)
(-0.000171982 0.00236284 0.00424969)
(-0.000295189 0.0018731 0.00415394)
(-0.000326437 0.00154744 0.00418072)
(-0.000548239 0.00110062 0.00412791)
(-0.000701431 0.000817328 0.00413843)
(-0.000902243 0.000541345 0.00413428)
(-0.00107718 0.000366079 0.00415379)
(-0.00124799 0.000237259 0.0041813)
(-0.00139359 0.000165555 0.00422066)
(-0.00152627 0.000123386 0.00425893)
(-0.00165015 0.000104613 0.00429509)
(-0.00177018 9.92898e-05 0.00432915)
(-0.00188776 9.80035e-05 0.00436271)
(-0.00200308 8.95147e-05 0.00439524)
(-0.0021166 6.36765e-05 0.00442603)
(-0.00222784 2.17753e-05 0.00445616)
(-0.00233802 -3.90978e-05 0.00448935)
(-0.00244909 -0.000108587 0.0045265)
(-0.00256609 -0.000180164 0.00456098)
(-0.00269353 -0.000215219 0.00457511)
(-0.00284392 -0.000193849 0.0045415)
(-0.00303303 -6.61599e-05 0.00442483)
(-0.00328961 0.000168786 0.00419219)
(-0.00362073 0.000549551 0.00382543)
(-0.00397134 0.00102137 0.00335792)
(-0.00421544 0.00153752 0.0029076)
(-0.00434935 0.00184516 0.002693)
(-0.00476212 0.00165592 0.00287767)
(-0.00552836 0.000589233 0.00367842)
(-0.0055931 -0.00247369 0.00475609)
(-0.00484276 -0.00804043 0.00512868)
(-0.0054303 -0.0123211 0.00423716)
(-0.00576041 -0.0153526 0.00618274)
(0.00108221 -0.0181913 0.0100277)
(0.0228189 -0.0389674 0.00993764)
(0.0604761 -0.0563075 0.00442425)
(0.0992975 -0.064664 0.00390062)
(0.124428 -0.0377158 -0.00648072)
(0.0935452 0.0333558 -0.0299962)
(0.0786473 0.0969925 -0.0188113)
(0.0252913 0.0400085 0.064282)
(-0.0472818 0.166738 0.160273)
(0.0234113 -0.219231 0.112752)
(-0.224661 0.286489 -0.0683358)
(0.0240283 -0.264667 -0.00470527)
(0.229089 -0.157379 0.174179)
(0.105277 0.0520236 0.0608525)
(0.0765999 -0.0774154 0.0314921)
(0.0455853 0.0217141 -0.024773)
(0.0471938 0.0198985 -0.0159794)
(0.0444337 0.0536157 -0.00448126)
(0.0428802 0.0619518 0.00263645)
(0.0281513 0.0637462 0.00490298)
(0.0070471 0.0541551 0.00264896)
(-0.0137481 0.0572213 -0.0026969)
(-0.0229066 0.0634381 -0.00260053)
(-0.0204799 0.0769182 0.00688429)
(-0.0227701 0.0857062 0.0203465)
(-0.034032 0.0969113 0.0243475)
(-0.0425304 0.103961 0.021895)
(-0.0477613 0.107041 0.0190404)
(-0.0558688 0.0993821 0.0155928)
(-0.0553495 0.0886876 0.0166363)
(-0.0491896 0.0790337 0.0207089)
(-0.0343075 0.0704629 0.0199357)
(-0.0276724 0.0706001 0.0190832)
(-0.0262883 0.0699252 0.0183264)
(-0.028367 0.0693839 0.0217533)
(-0.0313944 0.06098 0.0214369)
(-0.0320923 0.0557389 0.0179386)
(-0.0339497 0.0572811 0.0135087)
(-0.0287066 0.0643783 0.00888657)
(-0.0123608 0.0703616 0.00476157)
(0.00882846 0.0780932 0.00296695)
(0.0268942 0.0838759 0.00213843)
(0.0383457 0.0849291 -0.00458424)
(0.0450964 0.0853959 -0.00424397)
(0.0567239 0.0763832 0.000613564)
(0.0671917 0.073318 0.00977057)
(0.0696956 0.0511894 0.00713234)
(0.0507514 0.0163382 -2.59986e-05)
(0.0235227 0.0230095 0.00453129)
(0.0284463 0.02422 0.00297227)
(0.0250958 0.0166596 0.00015638)
(0.0278476 0.0176455 0.0010074)
(0.0244639 0.00787915 -0.00125428)
(0.0227478 0.00820082 -0.00177723)
(0.0128173 0.00174963 -0.0018506)
(0.00864651 0.00344721 0.000251812)
(0.000697666 -0.00130781 0.00161814)
(-0.00126715 0.000639857 0.0028674)
(-0.00156493 -0.00158223 0.00277023)
(-0.00168641 -0.000243651 0.00384779)
(-0.00194013 0.000322062 0.00372328)
(-0.0015401 0.00172223 0.00419763)
(-0.00109495 0.00188935 0.00407127)
(-0.000857014 0.00197675 0.00425969)
(-0.00100674 0.00159771 0.00417637)
(-0.00110366 0.00141817 0.00422868)
(-0.00137774 0.00108278 0.00411718)
(-0.0015556 0.000891179 0.00406554)
(-0.00177712 0.000668519 0.00397112)
(-0.0019501 0.00053273 0.00391058)
(-0.00210642 0.000422492 0.00386046)
(-0.0022348 0.00036227 0.0038232)
(-0.00234479 0.000330351 0.00379319)
(-0.00244138 0.000321093 0.00377198)
(-0.00252807 0.000324544 0.00376022)
(-0.0026082 0.000329832 0.00375855)
(-0.00268165 0.000326166 0.00376717)
(-0.00274947 0.000307102 0.00378519)
(-0.00281618 0.000276947 0.00381055)
(-0.00287874 0.000241455 0.00384215)
(-0.00294024 0.000221566 0.00387641)
(-0.00300824 0.000234485 0.00390406)
(-0.00309066 0.000317865 0.00390643)
(-0.00320024 0.000483754 0.00385453)
(-0.00334295 0.000745618 0.00371802)
(-0.00354052 0.00104732 0.00348261)
(-0.00376935 0.00133774 0.00318513)
(-0.00396519 0.00147832 0.00293066)
(-0.00406589 0.00144726 0.00285616)
(-0.00410705 0.00119799 0.00313027)
(-0.00445471 0.000471434 0.00392617)
(-0.00475111 -0.00167119 0.00533541)
(-0.00407256 -0.00635409 0.00634937)
(-0.00451223 -0.0116177 0.00505766)
(-0.0069789 -0.0149492 0.00421278)
(-0.00912941 -0.0205856 0.00701429)
(0.00274188 -0.032165 0.00709733)
(0.0357918 -0.052859 -0.00125571)
(0.0650536 -0.0481078 -0.00589358)
(0.0765098 -0.00168568 0.00967052)
(0.0838117 0.0637194 0.0374724)
(0.0915487 0.0711504 0.0358576)
(0.063471 0.0999674 0.00797747)
(-0.0117557 0.0178279 -0.0153874)
(-0.0789294 0.185113 0.123264)
(0.0149018 -0.211327 -0.0256504)
(-0.0548252 0.540186 -0.121694)
(0.0385829 -0.361023 0.0217868)
(0.117545 -0.075545 0.180042)
(0.097119 0.05389 0.0520794)
(0.0798672 -0.0388133 0.0608593)
(0.0256939 0.0346078 -0.0176279)
(0.0250758 0.04862 -0.00815556)
(0.00595902 0.0985583 -0.0181162)
(0.0118519 0.13174 -0.00496717)
(0.00650327 0.143158 0.0126411)
(-0.00526688 0.138472 0.0237944)
(-0.0194577 0.12292 0.0230062)
(-0.0297581 0.11297 0.0193691)
(-0.0337047 0.11028 0.0158892)
(-0.0390349 0.112217 0.0185016)
(-0.0396681 0.114936 0.0203997)
(-0.0375102 0.112148 0.0197983)
(-0.0332052 0.104861 0.015557)
(-0.0311877 0.0938211 0.00815387)
(-0.0310663 0.0845739 0.00572835)
(-0.0282497 0.0809687 0.0023787)
(-0.026458 0.0829234 -0.00358192)
(-0.0269865 0.0907704 -0.00716154)
(-0.0235601 0.0973551 -0.00273029)
(-0.024129 0.0960735 0.0085616)
(-0.0258732 0.0872937 0.0128856)
(-0.0283186 0.084305 0.0126763)
(-0.0302405 0.0859097 0.0110999)
(-0.0246204 0.0957336 0.00529628)
(-0.00974941 0.106582 0.00128649)
(0.00693644 0.114653 6.36099e-05)
(0.0254901 0.107834 -0.00299517)
(0.039184 0.106322 -0.00441501)
(0.0500313 0.0998559 0.000211955)
(0.0608817 0.0881737 0.0121561)
(0.0740877 0.0787251 0.0287461)
(0.0800861 0.0567152 0.0332109)
(0.0798367 0.0187674 0.0347077)
(0.0208601 0.0245836 0.00664905)
(0.0269078 0.0272532 0.00704667)
(0.0238798 0.0179198 0.0034117)
(0.0273777 0.0202343 0.00714023)
(0.0253823 0.00696714 0.00374359)
(0.0244913 0.00759445 0.00198081)
(0.0150495 -0.00238194 -0.000534908)
(0.0101761 0.00146754 3.34915e-05)
(0.00190394 -0.00291172 0.000667924)
(-0.00109096 0.000538072 0.00201035)
(-0.00166067 -0.00277073 0.00229865)
(-0.00359714 -0.00103572 0.00328587)
(-0.00470738 -0.000844019 0.00329112)
(-0.00448845 0.000817124 0.00420573)
(-0.00371138 0.00098368 0.00452051)
(-0.00337471 0.00125799 0.00498873)
(-0.00364059 0.00106307 0.00494087)
(-0.00387834 0.00114302 0.00499645)
(-0.00427121 0.00100819 0.00484402)
(-0.00451929 0.00099305 0.0047604)
(-0.00479608 0.000885801 0.00462441)
(-0.00499469 0.000832796 0.00453472)
(-0.00516525 0.000776534 0.00445515)
(-0.00528509 0.000755853 0.00439372)
(-0.00537601 0.000748243 0.00434709)
(-0.00545104 0.000751547 0.00431668)
(-0.005519 0.000761138 0.00429713)
(-0.00556857 0.000771646 0.00429404)
(-0.00560577 0.000776015 0.00431149)
(-0.0056375 0.00077619 0.0043472)
(-0.00567125 0.000782365 0.00439544)
(-0.00571132 0.000807924 0.0044491)
(-0.00576605 0.000874361 0.00450099)
(-0.00583787 0.00100238 0.00454252)
(-0.0059286 0.00121279 0.00456057)
(-0.00602586 0.00147988 0.00454084)
(-0.00610603 0.00176422 0.00446732)
(-0.00614499 0.00193339 0.00436932)
(-0.00614701 0.00189054 0.00428696)
(-0.00614668 0.00152665 0.004308)
(-0.00632536 0.000897259 0.00453106)
(-0.00671492 5.06436e-05 0.00503157)
(-0.007152 -0.00109956 0.00590594)
(-0.00675107 -0.00350341 0.00716139)
(-0.0054063 -0.00810549 0.007489)
(-0.005234 -0.012704 0.00539685)
(-0.00542508 -0.0193684 0.00465848)
(-0.00373149 -0.0285537 0.00837702)
(0.0193593 -0.0515993 -0.00179559)
(0.0424917 -0.0299565 -0.0186776)
(0.0165537 0.03027 -0.0228421)
(0.0258323 0.100923 0.0243252)
(0.0799709 0.117981 0.0479869)
(0.0864573 0.149603 0.0480151)
(0.0739021 0.159502 0.052248)
(0.0419192 0.118191 0.054123)
(0.0694192 0.203712 0.0937682)
(-0.00727877 -0.225259 -0.0466114)
(-0.00403211 0.534942 0.0330479)
(0.0290668 -0.358668 0.037429)
(0.0348757 -0.0490837 0.170243)
(0.0840781 0.0790274 0.0520481)
(0.0587 0.0297872 0.0555409)
(0.01915 0.079162 0.0144027)
(0.0133243 0.110542 0.0153276)
(-0.0051653 0.141624 0.00371325)
(0.00269528 0.171312 0.015544)
(0.00752722 0.180407 0.0214756)
(0.00719765 0.180946 0.0256195)
(0.000518094 0.171398 0.0294483)
(-0.0079729 0.156985 0.0243614)
(-0.015844 0.143734 0.0176803)
(-0.0229469 0.138625 0.0132036)
(-0.0277889 0.129378 0.00438236)
(-0.0289203 0.132771 -0.0120876)
(-0.0269187 0.148407 -0.0278026)
(-0.0275574 0.175132 -0.0216547)
(-0.0307799 0.183681 -0.00502521)
(-0.0297839 0.187513 -0.00103765)
(-0.0267389 0.192194 -0.00146298)
(-0.0234595 0.190435 5.44868e-05)
(-0.0205992 0.182414 0.00506558)
(-0.0196396 0.172413 0.00796359)
(-0.0237977 0.157344 0.00675741)
(-0.0296618 0.145981 0.00316558)
(-0.035915 0.134549 -0.00162524)
(-0.0353834 0.129306 -0.00670477)
(-0.0174903 0.127113 -0.00930431)
(0.0138048 0.115828 -0.0112901)
(0.0379605 0.106704 -0.0102444)
(0.0538698 0.102202 -0.00600738)
(0.0619675 0.0970166 0.00549399)
(0.0701988 0.086122 0.0145231)
(0.0792965 0.0822854 0.0283842)
(0.092486 0.0547512 0.0508994)
(0.0890173 0.0107388 0.046997)
(0.0201345 0.0232076 0.00824699)
(0.0238639 0.0291783 0.0099716)
(0.0187126 0.01623 0.00538544)
(0.0234978 0.0217938 0.00969713)
(0.0228954 0.00734081 0.00672673)
(0.0226367 0.00792498 0.00458536)
(0.0150018 -0.00362338 0.00196943)
(0.00972063 -9.64606e-05 0.00217789)
(0.00207743 -0.00390361 0.00203459)
(-0.000943537 0.000144981 0.00223752)
(-0.00145466 -0.00306934 0.00283963)
(-0.00343429 -0.000828626 0.00362423)
(-0.00436379 -0.00152441 0.00426233)
(-0.00430532 -0.000242876 0.00542253)
(-0.00358795 -0.000655195 0.00645594)
(-0.00355373 0.000186144 0.00716729)
(-0.00392384 0.000143478 0.00741347)
(-0.00410297 0.000686415 0.00756786)
(-0.00439772 0.000745377 0.00749626)
(-0.00451577 0.000997683 0.0074366)
(-0.00468071 0.0010486 0.00730692)
(-0.00477761 0.00114087 0.0072046)
(-0.00487141 0.00119101 0.00708674)
(-0.0049262 0.00124165 0.00697927)
(-0.00495841 0.00127281 0.00688483)
(-0.00497237 0.00129104 0.00681382)
(-0.00496688 0.00129803 0.00677122)
(-0.00494354 0.00129861 0.00675695)
(-0.00491699 0.00129616 0.00676158)
(-0.00489507 0.00130039 0.00678001)
(-0.0048894 0.00132608 0.00680531)
(-0.00490212 0.0013935 0.0068296)
(-0.00493852 0.00152824 0.00684494)
(-0.00499712 0.00172465 0.0068476)
(-0.00506756 0.00196456 0.00683361)
(-0.0051133 0.00219462 0.00680901)
(-0.00508066 0.00232777 0.00679431)
(-0.00493297 0.00226412 0.00683041)
(-0.00470717 0.00193658 0.00695469)
(-0.0045801 0.00132945 0.00719298)
(-0.00479426 0.000546835 0.00757814)
(-0.00544765 -0.000234683 0.00818234)
(-0.00629937 -0.00109132 0.00910496)
(-0.00594405 -0.00284051 0.00991356)
(-0.00421504 -0.00637582 0.00932237)
(-0.00289584 -0.0112164 0.00599879)
(-0.00213798 -0.0189997 0.00386624)
(0.0005377 -0.0287389 0.0010813)
(0.00622088 -0.0339953 -0.0211663)
(-0.0229741 0.0643274 -0.00988496)
(-0.0260159 0.10295 0.0222435)
(0.0159171 0.11253 0.047038)
(0.0464911 0.126762 0.0383635)
(0.0661611 0.157863 0.0516191)
(0.0599343 0.167691 0.0587279)
(0.0542484 0.154708 0.0584129)
(0.0794481 0.16838 0.0655167)
(0.0765563 0.0994144 0.0574249)
(0.11664 0.394487 -0.00769183)
(-0.0192661 -0.324845 0.0462984)
(-0.0955475 -0.109921 0.148672)
(0.0728973 0.106408 0.0168936)
(0.0276899 0.0338187 0.0354975)
(-0.0299884 0.120891 0.00522006)
(-0.0485989 0.149655 0.00121052)
(-0.0437359 0.188794 0.0003899)
(-0.0287135 0.201083 0.00747483)
(-0.0161703 0.205 0.00793321)
(-0.00724023 0.201504 -0.000272542)
(-0.00720162 0.19485 -0.00873697)
(-0.0156667 0.185202 -0.0186638)
(-0.0259012 0.183747 -0.0261981)
(-0.0326311 0.192059 -0.0265206)
(-0.0354606 0.201191 -0.0167836)
(-0.0421323 0.210249 -0.00533215)
(-0.0449857 0.217964 0.00483307)
(-0.0353743 0.22215 0.017672)
(-0.0248864 0.213104 0.0219584)
(-0.0214431 0.200568 0.0181815)
(-0.0228523 0.191169 0.0180382)
(-0.0181335 0.178703 0.0210274)
(-0.0116859 0.161191 0.0207298)
(-0.00992407 0.143362 0.0166767)
(-0.00859507 0.125057 0.0135951)
(-0.00826223 0.102131 0.00805261)
(-0.00935301 0.0782517 -0.00287732)
(-0.00727963 0.0537152 -0.0138132)
(0.00897382 0.0273526 -0.0231324)
(0.0372584 0.0130499 -0.0206789)
(0.0615268 0.0152213 -0.0143604)
(0.0697919 0.0154786 -0.0204777)
(0.072027 0.0400342 -0.00516523)
(0.0708241 0.0416798 0.0202037)
(0.0766733 0.0597217 0.0273093)
(0.100995 0.0430704 0.060013)
(0.116322 0.0167203 0.0686241)
(0.00701705 0.021209 -0.00581153)
(0.0186365 0.0293819 0.00563578)
(0.0107474 0.0173626 0.00261152)
(0.0167665 0.0236154 0.00753376)
(0.0175262 0.00856471 0.00535884)
(0.0181489 0.00867658 0.00250869)
(0.0114763 -0.00376962 0.00102824)
(0.00584918 -0.000333241 0.000592698)
(-0.000946811 -0.00200134 -0.000563255)
(-0.00265109 0.00124448 -0.00133401)
(-0.00360805 -0.00228797 -0.000854063)
(-0.00537362 -0.000143375 -0.000381028)
(-0.00701975 -0.00212264 0.00100298)
(-0.00698927 -0.000859408 0.00204038)
(-0.00758966 -0.00141982 0.00327569)
(-0.00768453 -0.000196582 0.00385575)
(-0.00833467 -0.000228366 0.00432721)
(-0.00853153 0.00050657 0.00457722)
(-0.00891482 0.000617374 0.00469841)
(-0.00909719 0.000989418 0.00477849)
(-0.00931962 0.00112247 0.00477603)
(-0.00947708 0.00127424 0.00477097)
(-0.00955931 0.00135359 0.00475204)
(-0.00956053 0.00143247 0.00474147)
(-0.00952405 0.00148863 0.00473566)
(-0.00947284 0.00153021 0.00473971)
(-0.00941265 0.00156305 0.00475382)
(-0.0093448 0.00159105 0.00477285)
(-0.00928278 0.00161658 0.00479156)
(-0.00923598 0.00164967 0.0048088)
(-0.00921992 0.00169442 0.00482218)
(-0.00924125 0.00176579 0.00482703)
(-0.00929652 0.00188753 0.00481888)
(-0.00934078 0.00203682 0.00480845)
(-0.00932691 0.00219009 0.00480305)
(-0.00921025 0.00228059 0.00481433)
(-0.00894655 0.00226103 0.00486152)
(-0.00858969 0.00207236 0.00495164)
(-0.00829427 0.00173519 0.00510746)
(-0.00826859 0.00127909 0.00537587)
(-0.00883987 0.000791023 0.00580041)
(-0.00994579 0.000229942 0.00639759)
(-0.0107912 -0.000582623 0.00709944)
(-0.00991833 -0.00235041 0.00750602)
(-0.00681818 -0.00555064 0.00658258)
(-0.00262909 -0.0103282 0.00384072)
(0.000167904 -0.0188057 0.00338022)
(-0.00199028 -0.0258906 0.00329106)
(-0.0351765 -0.0503085 -0.0153778)
(-0.0406189 0.0332417 -0.000482656)
(-0.0236706 0.0594728 0.0351197)
(0.00400767 0.0563899 0.0437671)
(0.0322974 0.0858892 0.0311082)
(0.0576913 0.0847493 0.0433793)
(0.0629805 0.10293 0.0490911)
(0.0802114 0.0570447 0.0510101)
(0.0801309 0.141234 0.102773)
(0.108005 -0.136325 0.0692817)
(0.207781 0.2432 -0.0651748)
(0.00409785 -0.225296 -0.00216676)
(-0.146332 -0.199033 0.144909)
(-0.00975249 0.0616343 0.0328681)
(-0.0288055 0.0621691 -0.0326955)
(-0.044386 0.158228 -0.025073)
(-0.0581081 0.177456 -0.018381)
(-0.0326083 0.206684 -0.014464)
(-0.0075706 0.205256 -0.00631695)
(0.0101754 0.206705 -0.0105143)
(0.0163238 0.204867 -0.0132478)
(0.0168511 0.203943 -0.0158687)
(0.00333807 0.2004 -0.0218089)
(-0.0217611 0.198187 -0.0244143)
(-0.0412013 0.198064 -0.0235609)
(-0.0515781 0.204487 -0.0158312)
(-0.0550224 0.20841 -0.00330176)
(-0.0469234 0.205824 0.014347)