/*--------------------------------*- C++ -*----------------------------------*\
| =========                 |                                                 |
| \\      /  F ield         | OpenFOAM: The Open Source CFD Toolbox           |
|  \\    /   O peration     | Version:  2.3.0                                 |
|   \\  /    A nd           | Web:      www.OpenFOAM.org                      |
|    \\/     M anipulation  |                                                 |
\*---------------------------------------------------------------------------*/
FoamFile
{
    version     2.0;
    format      ascii;
    class       volVectorField;
    location    "19";
    object      Ur;
}
// * * * * * * * * * * * * * * * * * * * * * * * * * * * * * * * * * * * * * //

dimensions      [0 1 -1 0 0 0 0];

internalField   nonuniform List<vector> 
6144
(
(-4.30484e-07 0.000554867 -8.21888e-08)
(-3.02145e-07 0.000570554 -1.6043e-07)
(1.45728e-08 0.000587826 -1.68774e-07)
(1.51727e-07 0.000604778 -1.75059e-07)
(4.6714e-07 0.000624552 -6.47587e-08)
(5.62453e-07 0.000649229 -2.58675e-08)
(6.35048e-07 0.000675975 3.37961e-08)
(6.28297e-07 0.000695899 9.3758e-08)
(5.67526e-07 0.000704622 9.92218e-08)
(4.8802e-07 0.000706048 7.49877e-08)
(4.14259e-07 0.00070522 4.67304e-08)
(3.36606e-07 0.000703871 5.15342e-08)
(2.59654e-07 0.000702472 3.78232e-08)
(1.94247e-07 0.000701188 3.25254e-08)
(1.46331e-07 0.000700038 2.16217e-08)
(1.00815e-07 0.000699059 1.26015e-08)
(6.99821e-08 0.000698258 2.90223e-09)
(3.6974e-08 0.000697596 -4.7609e-09)
(1.67664e-08 0.000697047 -1.12902e-08)
(-6.75013e-09 0.000696592 -1.87361e-08)
(-1.91548e-08 0.000696218 -2.14088e-08)
(-3.71453e-08 0.000695911 -2.68695e-08)
(-4.27859e-08 0.000695666 -2.85131e-08)
(-5.64352e-08 0.000695471 -3.49364e-08)
(-5.66935e-08 0.000695327 -3.589e-08)
(-6.75639e-08 0.000695226 -4.25502e-08)
(-6.34338e-08 0.000695171 -4.44629e-08)
(-7.23114e-08 0.000695159 -5.37822e-08)
(-6.39455e-08 0.000695198 -5.78367e-08)
(-7.10853e-08 0.000695289 -7.06262e-08)
(-5.89975e-08 0.000695443 -7.69145e-08)
(-6.54829e-08 0.000695663 -9.31659e-08)
(-4.86073e-08 0.000695967 -1.02022e-07)
(-5.4465e-08 0.000696364 -1.22342e-07)
(-3.40478e-08 0.000696876 -1.36061e-07)
(-3.68359e-08 0.000697513 -1.64224e-07)
(-7.94705e-09 0.000698301 -1.86339e-07)
(-6.20989e-09 0.000699251 -2.29184e-07)
(3.03693e-08 0.000700388 -2.67492e-07)
(3.96285e-08 0.000701724 -3.29709e-07)
(9.11795e-08 0.000703283 -3.85678e-07)
(1.19986e-07 0.000705068 -4.70311e-07)
(1.38354e-07 0.00070712 -5.53619e-07)
(1.38905e-07 0.000709447 -6.42677e-07)
(1.01008e-07 0.000712192 -6.37691e-07)
(8.46385e-09 0.000717915 -6.32875e-07)
(-1.04347e-07 0.000737915 -5.32425e-07)
(-4.06751e-07 0.000806559 -2.54267e-07)
(-7.68124e-07 0.00102036 1.34698e-07)
(-1.57931e-06 0.00151373 8.30663e-07)
(-4.35927e-06 0.00219793 3.68951e-07)
(-9.25288e-06 0.00272097 3.08376e-06)
(-3.42957e-06 0.0030512 -4.44874e-06)
(-1.77276e-05 0.00338828 -2.55946e-05)
(-4.14696e-05 0.00383693 -1.14888e-05)
(-8.40907e-05 0.00422005 9.01277e-06)
(-0.000169446 0.00481015 -6.96369e-05)
(-5.10406e-05 0.0066487 0.000109236)
(-0.000519241 0.0204887 -0.000516267)
(0.0092577 0.141277 0.000709594)
(-0.0257811 0.613774 -0.0399374)
(-0.0481493 0.515442 -0.046656)
(-0.000697116 0.0231807 -0.000535661)
(-0.000139469 0.00749874 -7.49229e-05)
(-7.08148e-05 0.0072572 -1.22445e-05)
(-7.70264e-05 0.00735213 8.52946e-07)
(-8.85063e-05 0.00740811 5.94288e-06)
(-6.50647e-05 0.00747522 3.04366e-05)
(-0.000104816 0.00757209 5.62326e-05)
(-8.62347e-05 0.00769376 2.57056e-05)
(-3.08657e-05 0.00774 -1.21806e-05)
(-3.25029e-05 0.00773619 -5.41342e-06)
(-1.27829e-05 0.00772929 7.64064e-06)
(7.38145e-05 0.00775192 -3.98334e-05)
(4.05959e-05 0.00784184 -0.000116685)
(-0.000113058 0.0079022 -8.89546e-05)
(-0.000103414 0.00797477 -4.51879e-05)
(-4.53195e-05 0.00796839 -2.78579e-06)
(-8.88013e-06 0.0078675 2.17984e-05)
(3.21367e-06 0.00752737 -3.57382e-06)
(7.87358e-06 0.0069985 6.51491e-07)
(4.59085e-06 0.00665084 5.45688e-06)
(-1.25163e-07 0.00663891 5.46955e-06)
(-3.11348e-06 0.00670856 3.78215e-06)
(-3.25268e-06 0.00667008 5.48882e-06)
(-2.46892e-06 0.00653414 1.19493e-06)
(-3.54053e-06 0.00634219 2.86232e-07)
(-5.31908e-06 0.00611472 4.12008e-07)
(-5.90537e-06 0.00576688 8.43414e-07)
(-5.08442e-06 0.00513348 6.29162e-07)
(-3.7096e-06 0.00426493 -5.60879e-07)
(-2.54912e-06 0.00354839 -6.5716e-07)
(-2.71371e-06 0.00322535 8.05522e-07)
(-3.15136e-06 0.00316363 2.71974e-06)
(-3.89756e-06 0.00316373 3.53655e-06)
(-4.11896e-06 0.00315776 4.73461e-06)
(-3.85614e-07 0.000567633 -5.46075e-08)
(1.43523e-07 0.000585972 -1.18798e-07)
(5.9774e-07 0.000606057 -1.79284e-07)
(9.8822e-07 0.000624914 -2.399e-07)
(1.48538e-06 0.000645808 -5.36605e-08)
(1.59706e-06 0.00066837 -9.71861e-09)
(1.7374e-06 0.000689231 9.4847e-08)
(1.69629e-06 0.000701072 1.2093e-07)
(1.53461e-06 0.000704425 1.1044e-07)
(1.33858e-06 0.000705185 8.50847e-08)
(1.12282e-06 0.000705022 5.98222e-08)
(8.97561e-07 0.000703937 6.06729e-08)
(7.0018e-07 0.00070263 5.80458e-08)
(5.23598e-07 0.000701381 6.03978e-08)
(3.93832e-07 0.000700249 4.65317e-08)
(2.78813e-07 0.000699299 3.9848e-08)
(1.92566e-07 0.000698507 2.3699e-08)
(1.13384e-07 0.000697853 2.19136e-08)
(5.04766e-08 0.000697308 1.03906e-08)
(-4.49916e-09 0.000696858 9.819e-09)
(-4.5415e-08 0.000696489 6.03681e-10)
(-8.20688e-08 0.00069619 2.12065e-09)
(-1.05585e-07 0.000695951 -6.36195e-09)
(-1.27961e-07 0.000695766 -3.10413e-09)
(-1.36978e-07 0.000695629 -1.24888e-08)
(-1.47159e-07 0.000695537 -9.15384e-09)
(-1.43649e-07 0.000695489 -2.08777e-08)
(-1.43126e-07 0.000695487 -1.81405e-08)
(-1.27568e-07 0.000695534 -3.33776e-08)
(-1.16453e-07 0.000695635 -3.2177e-08)
(-8.88399e-08 0.000695795 -5.03321e-08)
(-6.65825e-08 0.000696025 -4.85131e-08)
(-2.47401e-08 0.000696333 -7.04585e-08)
(1.19229e-08 0.000696738 -6.84409e-08)
(7.08694e-08 0.000697254 -9.44636e-08)
(1.24405e-07 0.000697899 -9.64312e-08)
(2.11285e-07 0.000698688 -1.3204e-07)
(2.99464e-07 0.000699643 -1.43329e-07)
(4.2891e-07 0.000700783 -1.95687e-07)
(5.65993e-07 0.000702124 -2.29889e-07)
(7.53072e-07 0.000703692 -3.1973e-07)
(9.45091e-07 0.000705425 -4.1245e-07)
(1.13952e-06 0.000707452 -5.06372e-07)
(1.24065e-06 0.000709816 -6.05674e-07)
(1.25862e-06 0.000714016 -6.92496e-07)
(1.23862e-06 0.000727649 -7.45785e-07)
(1.21662e-06 0.00076767 -6.53786e-07)
(9.91962e-07 0.000879944 1.47826e-07)
(2.85766e-07 0.0011633 1.44589e-06)
(-1.46249e-06 0.00165026 3.51402e-06)
(-2.22323e-06 0.00218108 4.29512e-06)
(6.33783e-06 0.00267352 9.83814e-06)
(1.34687e-05 0.00323575 -2.89261e-06)
(-4.26607e-05 0.00381095 -1.1386e-05)
(-5.19831e-05 0.00428355 1.95691e-05)
(-0.000138195 0.00449526 4.78351e-05)
(-0.00049897 0.00544758 -7.52504e-05)
(-7.40122e-05 0.00700987 0.000184661)
(-0.000875529 0.0164737 -0.000225172)
(0.0139267 0.114509 0.00872849)
(-0.0524748 0.592084 -0.0255549)
(-0.0781281 0.466557 -0.0547499)
(-0.000990107 0.0225123 -0.000794714)
(-0.000205151 0.00702712 3.83912e-05)
(-0.000104301 0.00725038 -2.42507e-06)
(-0.000109389 0.00728402 -3.0901e-05)
(-8.61305e-05 0.00732734 1.52139e-05)
(-3.36156e-05 0.00746093 7.39724e-05)
(-9.13854e-07 0.00765258 9.47793e-05)
(-1.02793e-05 0.00776193 5.79103e-05)
(2.49588e-05 0.00773847 3.45772e-05)
(4.62878e-05 0.00775178 -4.07119e-06)
(1.56339e-05 0.00781356 -8.55579e-05)
(-5.14619e-05 0.00781951 -0.000112624)
(-8.18993e-05 0.0077537 -2.78357e-05)
(-9.6366e-05 0.00781285 9.46383e-06)
(-9.02542e-05 0.00795907 -1.79682e-05)
(-4.64572e-05 0.00795608 -1.1813e-05)
(-7.91913e-06 0.0078257 5.41328e-07)
(1.3802e-06 0.0074368 1.53254e-06)
(-6.99874e-06 0.00691703 8.65347e-06)
(-9.31878e-06 0.00661036 3.98518e-06)
(-1.13038e-05 0.00644426 3.67444e-06)
(-1.26638e-05 0.0060663 7.3934e-06)
(-1.39065e-05 0.00545696 9.12906e-06)
(-1.29416e-05 0.00481708 4.15e-06)
(-1.26861e-05 0.00434204 2.65199e-06)
(-1.308e-05 0.00409611 1.86568e-06)
(-1.25398e-05 0.00399981 4.96425e-07)
(-9.50087e-06 0.00392677 -4.58518e-07)
(-6.42784e-06 0.00379816 -1.62464e-06)
(-6.0267e-06 0.00363501 -1.32572e-06)
(-6.90838e-06 0.00347467 -9.43267e-07)
(-8.00729e-06 0.00331809 -2.1385e-06)
(-1.00153e-05 0.00320785 -1.46086e-06)
(-1.18008e-05 0.00315976 1.57292e-06)
(-2.00013e-08 0.000561429 2.02441e-08)
(8.22424e-07 0.000581866 1.67805e-08)
(1.26157e-06 0.000601649 -9.44092e-08)
(1.86397e-06 0.00061712 -5.63497e-08)
(2.39059e-06 0.000634386 3.26891e-08)
(2.4641e-06 0.000657151 7.26742e-08)
(2.6398e-06 0.000682676 1.72954e-07)
(2.50899e-06 0.000697945 1.86064e-07)
(2.24893e-06 0.000701794 1.70151e-07)
(1.92654e-06 0.000702589 1.35946e-07)
(1.56447e-06 0.000702882 1.0072e-07)
(1.16847e-06 0.000702624 1.05209e-07)
(8.56956e-07 0.000701982 1.03924e-07)
(5.7681e-07 0.000701048 1.04534e-07)
(3.76487e-07 0.000700048 9.82588e-08)
(1.99846e-07 0.000699157 8.98077e-08)
(7.36926e-08 0.000698404 8.03525e-08)
(-3.95171e-08 0.000697775 7.24655e-08)
(-1.27884e-07 0.000697253 6.58224e-08)
(-2.06406e-07 0.000696823 6.05971e-08)
(-2.64595e-07 0.000696471 5.70089e-08)
(-3.16464e-07 0.000696185 5.34832e-08)
(-3.49609e-07 0.000695958 5.1962e-08)
(-3.80624e-07 0.000695784 4.90608e-08)
(-3.92227e-07 0.000695658 4.74936e-08)
(-4.03771e-07 0.000695575 4.36105e-08)
(-3.94823e-07 0.000695536 4.09099e-08)
(-3.8708e-07 0.000695542 3.5778e-08)
(-3.56866e-07 0.000695598 3.17294e-08)
(-3.287e-07 0.000695706 2.44266e-08)
(-2.74698e-07 0.000695876 1.78136e-08)
(-2.22102e-07 0.000696117 7.30978e-09)
(-1.40025e-07 0.00069644 -2.95145e-09)
(-5.46681e-08 0.00069686 -1.77638e-08)
(6.87716e-08 0.00069739 -3.29632e-08)
(2.03855e-07 0.000698053 -5.22104e-08)
(3.88883e-07 0.000698868 -7.62125e-08)
(5.96531e-07 0.000699849 -1.09331e-07)
(8.74585e-07 0.000701018 -1.4765e-07)
(1.18267e-06 0.000702391 -1.98399e-07)
(1.56256e-06 0.000703985 -2.58044e-07)
(1.95741e-06 0.000705799 -3.44576e-07)
(2.44442e-06 0.000707889 -4.60578e-07)
(2.74945e-06 0.000711452 -6.30068e-07)
(3.03667e-06 0.000725663 -8.06424e-07)
(3.0599e-06 0.000772362 -1.03141e-06)
(2.94527e-06 0.000864041 -1.04688e-06)
(3.32944e-06 0.00103659 2.40406e-07)
(3.72767e-06 0.00138479 3.04241e-06)
(4.13942e-06 0.00190932 7.77757e-06)
(1.20452e-05 0.0024892 7.36015e-06)
(4.91154e-05 0.00307956 1.38887e-05)
(6.06287e-05 0.00370176 -1.63559e-05)
(3.47613e-05 0.00420928 1.91963e-05)
(-3.83851e-05 0.00448805 5.82039e-05)
(-4.97388e-05 0.00428864 0.000101643)
(-0.000836097 0.00592526 0.000122515)
(2.83728e-05 0.00834301 9.11389e-05)
(-0.00138632 0.0161639 -0.00012174)
(0.0229703 0.115504 0.0160015)
(-0.048287 0.594481 -0.019269)
(-0.0623073 0.441329 -0.042806)
(-0.00108012 0.0240414 -0.000559093)
(-0.000334429 0.00803286 7.91529e-05)
(-0.000147896 0.00781065 1.31796e-06)
(6.38281e-05 0.00782862 -5.18366e-06)
(0.000198729 0.00755388 4.07052e-05)
(9.44799e-05 0.00729588 8.20316e-05)
(5.47183e-05 0.00748094 4.5778e-05)
(-1.72914e-05 0.00769124 -3.00023e-05)
(-0.00037181 0.00782971 -0.000123338)
(-0.000314005 0.00778399 -8.77615e-05)
(-5.42596e-05 0.00766229 -2.27267e-05)
(-0.00012233 0.00748676 -7.66074e-06)
(-0.000288434 0.0073587 -3.10675e-05)
(-6.696e-05 0.0073839 -3.40507e-05)
(-1.65997e-05 0.00753372 -3.63136e-05)
(-6.77372e-06 0.00767552 -1.07123e-05)
(-2.4485e-07 0.00756626 8.17846e-06)
(-1.48009e-05 0.00710093 2.18445e-05)
(-2.45299e-05 0.00663515 1.85894e-05)
(-2.32584e-05 0.00633998 3.1598e-06)
(-2.09416e-05 0.00600915 6.26334e-06)
(-2.69903e-05 0.00561716 1.17919e-05)
(-3.9533e-05 0.00534254 1.16066e-05)
(-5.62882e-05 0.00526929 1.25162e-05)
(-3.31836e-05 0.0054513 5.57178e-06)
(-0.000153996 0.00584595 -2.08605e-06)
(-0.000130872 0.00617828 -3.57906e-06)
(-2.13619e-05 0.00607013 -1.5752e-06)
(-1.21853e-05 0.00561644 -3.44107e-06)
(-1.26798e-05 0.00504743 -4.31934e-06)
(-1.09787e-05 0.00450206 -6.41311e-06)
(-1.29904e-05 0.00394841 -1.01529e-05)
(-1.50452e-05 0.0034622 -9.26022e-06)
(-8.46e-06 0.00321021 -7.3624e-06)
(2.78757e-07 0.000529865 1.0947e-07)
(1.4429e-06 0.000555927 1.04664e-07)
(1.87118e-06 0.00058268 2.44918e-08)
(2.59728e-06 0.000601869 9.83582e-08)
(3.12144e-06 0.000618166 7.26956e-08)
(3.27685e-06 0.000637165 1.05925e-07)
(3.56984e-06 0.000664659 1.92922e-07)
(3.29334e-06 0.000689794 2.027e-07)
(2.93764e-06 0.000700506 2.18155e-07)
(2.47443e-06 0.000701727 1.94234e-07)
(1.9382e-06 0.000701281 1.56491e-07)
(1.41174e-06 0.000701373 1.52484e-07)
(9.8746e-07 0.000701257 1.3627e-07)
(6.15536e-07 0.000700558 1.33509e-07)
(3.32036e-07 0.000699643 1.15627e-07)
(8.83762e-08 0.000698787 1.1044e-07)
(-9.96547e-08 0.000698073 9.45246e-08)
(-2.5499e-07 0.000697471 9.29676e-08)
(-3.82545e-07 0.000696974 7.93889e-08)
(-4.81901e-07 0.000696564 8.15874e-08)
(-5.68115e-07 0.000696223 6.97796e-08)
(-6.3205e-07 0.000695946 7.37386e-08)
(-6.87269e-07 0.000695724 6.25148e-08)
(-7.21318e-07 0.000695555 6.86414e-08)
(-7.49963e-07 0.000695433 5.59097e-08)
(-7.57505e-07 0.000695357 6.23101e-08)
(-7.60516e-07 0.000695323 4.71592e-08)
(-7.40558e-07 0.000695337 5.38681e-08)
(-7.15809e-07 0.000695401 3.56263e-08)
(-6.65289e-07 0.000695523 4.15239e-08)
(-6.0896e-07 0.000695707 1.84498e-08)
(-5.21871e-07 0.000695968 2.25271e-08)
(-4.24748e-07 0.000696313 -6.43902e-09)
(-2.86788e-07 0.000696765 -5.7589e-09)
(-1.2786e-07 0.000697338 -4.38871e-08)
(9.10455e-08 0.000698053 -5.27565e-08)
(3.43138e-07 0.000698928 -1.03846e-07)
(6.70392e-07 0.000699992 -1.20894e-07)
(1.0478e-06 0.000701253 -1.8578e-07)
(1.50875e-06 0.000702731 -2.13902e-07)
(2.02061e-06 0.000704434 -2.9287e-07)
(2.60038e-06 0.000706338 -3.4664e-07)
(3.21254e-06 0.000708669 -4.71989e-07)
(3.84177e-06 0.000714636 -6.01851e-07)
(4.3097e-06 0.000742375 -8.35849e-07)
(4.47131e-06 0.000820802 -1.11591e-06)
(4.56373e-06 0.00096547 -1.40288e-06)
(4.95397e-06 0.00122068 -4.65635e-07)
(7.06247e-06 0.00163353 1.83196e-06)
(1.77855e-05 0.00217156 5.38962e-06)
(4.58177e-05 0.00282615 -1.25556e-06)
(9.73942e-05 0.00352023 -6.53361e-06)
(0.000115707 0.0040931 -4.85668e-05)
(8.78165e-05 0.00436869 -5.06563e-05)
(0.000148947 0.0043775 2.64417e-05)
(0.000372041 0.00377676 -2.39186e-05)
(-0.00121488 0.00622698 0.000167157)
(-0.000313318 0.00988897 -0.000233197)
(-0.000583965 0.0149674 0.000241326)
(0.0255722 0.14334 0.0128582)
(-0.0531724 0.641055 -0.0417257)
(-0.0509327 0.527759 -0.0522288)
(-0.0234385 0.566982 -0.0235575)
(-0.00767276 0.545947 0.00772541)
(-0.00451493 0.54407 0.00896953)
(-0.00582747 0.52506 0.000147587)
(-0.0123274 0.438259 -0.00258442)
(-0.000194513 0.0340131 -2.28161e-05)
(0.000471562 0.00728401 0.000326574)
(0.000445398 0.028637 0.000157772)
(0.00834775 0.363256 0.00458653)
(0.00508694 0.406586 0.0055397)
(-4.12647e-05 0.027592 -0.000245392)
(-0.00012965 0.0303914 -0.000173146)
(-0.010094 0.383722 -0.00159097)
(-0.00854636 0.367357 -0.00369929)
(-1.23785e-05 0.0277327 -0.000335362)
(-1.89295e-05 0.00837505 -0.000253303)
(-4.68441e-05 0.00738708 0.000107947)
(-0.000108284 0.00582714 0.000208308)
(-0.00014256 0.00528328 3.39206e-05)
(-0.000138917 0.00533311 -8.8874e-05)
(-0.000188648 0.00554647 -3.86869e-05)
(-0.000231659 0.0058913 5.89153e-05)
(-0.000218023 0.00759137 6.62886e-05)
(-0.000126098 0.0160759 4.74657e-05)
(-4.07984e-05 0.0299865 5.73021e-06)
(0.00689455 0.46032 -0.00313934)
(0.00275441 0.451734 -0.00219607)
(6.40299e-05 0.0326555 -0.000201488)
(-0.000142466 0.00948166 -0.000132421)
(-0.000152955 0.00946969 1.10176e-06)
(-0.000164215 0.00850557 -2.28781e-05)
(-0.000166039 0.00678951 -3.33793e-05)
(-0.000117303 0.00545973 -3.70733e-05)
(5.31752e-05 0.00442388 -6.21273e-06)
(5.50207e-07 0.000489803 -5.89537e-08)
(2.22534e-06 0.000513732 7.72682e-08)
(2.76978e-06 0.000543322 1.62396e-07)
(3.67146e-06 0.000572243 1.53421e-07)
(4.05378e-06 0.000599598 1.61219e-07)
(4.29118e-06 0.000620023 6.83134e-08)
(4.4843e-06 0.000640876 9.8739e-08)
(3.98827e-06 0.000669736 1.10814e-07)
(3.53302e-06 0.000694062 2.08252e-07)
(2.92057e-06 0.000701078 1.97096e-07)
(2.26662e-06 0.000699848 1.93828e-07)
(1.62985e-06 0.000700117 1.58425e-07)
(1.12393e-06 0.000700692 1.51815e-07)
(6.65261e-07 0.000700261 1.33801e-07)
(3.1048e-07 0.00069946 1.21917e-07)
(-2.91625e-09 0.000698681 1.0005e-07)
(-2.45477e-07 0.000698029 9.46875e-08)
(-4.58576e-07 0.000697487 7.94176e-08)
(-6.19233e-07 0.000697036 7.83394e-08)
(-7.54975e-07 0.000696663 6.44586e-08)
(-8.55576e-07 0.000696356 6.63358e-08)
(-9.40387e-07 0.000696107 5.36514e-08)
(-9.98339e-07 0.000695912 5.86661e-08)
(-1.04633e-06 0.000695763 4.3935e-08)
(-1.07117e-06 0.000695662 4.9449e-08)
(-1.08848e-06 0.000695603 3.3347e-08)
(-1.08225e-06 0.000695591 4.00331e-08)
(-1.06805e-06 0.000695622 2.20159e-08)
(-1.02744e-06 0.000695705 2.92447e-08)
(-9.7651e-07 0.000695843 7.49836e-09)
(-8.93766e-07 0.000696048 1.28617e-08)
(-7.94664e-07 0.000696329 -1.55727e-08)
(-6.53855e-07 0.000696702 -1.48655e-08)
(-4.86156e-07 0.000697182 -5.19829e-08)
(-2.62341e-07 0.000697793 -5.79177e-08)
(2.17744e-09 0.000698553 -1.06577e-07)
(3.42818e-07 0.000699485 -1.19981e-07)
(7.42432e-07 0.000700605 -1.77072e-07)
(1.22804e-06 0.000701931 -1.9576e-07)
(1.77772e-06 0.000703471 -2.59786e-07)
(2.38027e-06 0.000705238 -2.91786e-07)
(3.04568e-06 0.000707266 -3.79028e-07)
(3.76782e-06 0.00070997 -4.51765e-07)
(4.54984e-06 0.000719955 -5.8222e-07)
(5.25825e-06 0.000762739 -7.17196e-07)
(5.49675e-06 0.000868477 -1.02305e-06)
(6.03265e-06 0.00106361 -1.24339e-06)
(7.17617e-06 0.0013831 -1.39883e-06)
(1.12291e-05 0.00181894 -1.16518e-06)
(3.1262e-05 0.00239928 -4.60315e-06)
(8.85864e-05 0.00317452 -9.41388e-06)
(0.000170185 0.0038837 -2.84755e-05)
(0.000127201 0.00428462 -9.14486e-05)
(7.18724e-05 0.00447745 -0.000147411)
(0.000239007 0.00449283 -9.26421e-05)
(0.000507728 0.0033746 -0.000146556)
(-0.000422288 0.00668997 0.00108834)
(0.000697014 0.0132361 -9.48684e-06)
(1.62039e-06 0.0164042 -0.000578958)
(0.0382298 0.18189 0.0222666)
(-0.0115416 0.628338 -0.0312587)
(-0.0318463 0.518123 -0.0405136)
(-0.0151861 0.575408 -0.0323553)
(0.000723793 0.548642 0.00113543)
(-8.28512e-05 0.558177 0.00953098)
(-0.00177493 0.548629 0.00176682)
(-0.0120231 0.537118 0.00209788)
(-0.017727 0.540717 -0.000758343)
(-0.0141912 0.539939 -0.00021617)
(-0.00676476 0.540219 0.00299328)
(-0.00208425 0.547984 0.00743746)
(-0.00616881 0.549857 0.0077787)
(-0.0099766 0.541727 0.000503753)
(-0.00627396 0.5386 -0.00321281)
(-0.0036666 0.541124 -0.00244351)
(-0.00163122 0.531684 -0.00108676)
(0.00329334 0.513214 0.00229785)
(0.00751859 0.511482 0.00412504)
(0.00880533 0.516766 0.00181519)
(0.00266123 0.528858 0.000437422)
(-0.00202901 0.529802 -0.000110368)
(-0.003453 0.524787 0.000321078)
(-0.00341016 0.524306 -0.00139479)
(-0.000982816 0.528667 -0.00265181)
(0.00136054 0.530307 -0.00333719)
(0.00802931 0.543881 -0.00421685)
(0.0160588 0.542311 -0.00352421)
(0.0173974 0.550717 -0.00309172)
(0.012773 0.549106 -0.00273619)
(0.00739147 0.547603 -0.00390498)
(0.00438399 0.545623 -0.000205778)
(0.0044034 0.542019 0.00315412)
(0.000866902 0.540424 0.000716903)
(-0.00695485 0.535301 -0.00549591)
(-0.0139836 0.532105 -0.00773758)
(-0.00658363 0.525779 -0.00160636)
(9.47443e-07 0.000456641 -2.18098e-07)
(3.16505e-06 0.000471937 1.35823e-08)
(3.72096e-06 0.000495715 1.16882e-07)
(4.82338e-06 0.000527989 -7.89647e-08)
(5.24263e-06 0.00056816 7.85052e-09)
(5.43325e-06 0.000603083 -1.51223e-07)
(5.36797e-06 0.000628006 -1.48554e-07)
(4.68391e-06 0.000651557 -9.63025e-08)
(4.08737e-06 0.000676658 9.95119e-08)
(3.30506e-06 0.000691809 1.07519e-07)
(2.50811e-06 0.000695816 1.37594e-07)
(1.8154e-06 0.000697909 1.14008e-07)
(1.21898e-06 0.000699416 1.16733e-07)
(7.01616e-07 0.000699364 1.19771e-07)
(2.69245e-07 0.000698744 1.0868e-07)
(-9.51298e-08 0.000698023 1.07331e-07)
(-3.94953e-07 0.000697418 8.76918e-08)
(-6.43897e-07 0.000696906 9.10369e-08)
(-8.42213e-07 0.000696492 7.41486e-08)
(-9.9741e-07 0.000696156 7.71063e-08)
(-1.11861e-06 0.000695884 5.9039e-08)
(-1.20733e-06 0.00069567 6.20233e-08)
(-1.27538e-06 0.0006955 4.26284e-08)
(-1.31943e-06 0.000695377 4.4775e-08)
(-1.34888e-06 0.000695296 2.43868e-08)
(-1.35736e-06 0.00069526 2.84455e-08)
(-1.35195e-06 0.000695268 7.55465e-09)
(-1.3242e-06 0.000695326 1.35678e-08)
(-1.27945e-06 0.000695436 -8.67845e-09)
(-1.20736e-06 0.000695607 -2.78452e-09)
(-1.11144e-06 0.000695846 -2.93026e-08)
(-9.7939e-07 0.000696169 -2.65566e-08)
(-8.13062e-07 0.000696584 -6.20619e-08)
(-5.97595e-07 0.000697117 -6.78919e-08)
(-3.33366e-07 0.000697782 -1.15558e-07)
(-5.12506e-09 0.000698611 -1.31367e-07)
(3.89019e-07 0.000699625 -1.88828e-07)
(8.61467e-07 0.000700843 -2.10066e-07)
(1.40788e-06 0.000702272 -2.7035e-07)
(2.02332e-06 0.00070392 -2.95189e-07)
(2.69546e-06 0.000705796 -3.64665e-07)
(3.43231e-06 0.000707899 -4.03216e-07)
(4.23735e-06 0.000711868 -4.69828e-07)
(5.13121e-06 0.000729864 -4.97405e-07)
(6.01333e-06 0.000791883 -5.50425e-07)
(6.4262e-06 0.000927769 -7.27028e-07)
(6.94592e-06 0.00115309 -1.18326e-06)
(5.93879e-06 0.00145869 -2.64994e-06)
(6.29072e-06 0.0019301 -3.82784e-06)
(2.97566e-05 0.00276282 -2.33779e-06)
(9.90872e-05 0.00370212 8.54074e-06)
(0.000138018 0.0041946 2.14225e-05)
(0.000100595 0.00427849 -5.41296e-05)
(6.12178e-05 0.00453341 -0.000125793)
(8.24962e-05 0.00478948 -0.000157325)
(1.46459e-05 0.0041455 -0.000232718)
(0.000137335 0.00742885 0.00106434)
(0.00183882 0.0149785 0.000799372)
(0.000861171 0.0184326 -7.68432e-05)
(0.0254628 0.233864 0.0376754)
(0.0211215 0.612026 -0.0147299)
(-0.0213872 0.513803 -0.0199257)
(-0.0223525 0.566018 -0.040791)
(-0.00498922 0.554908 -0.00492961)
(-0.00561176 0.564751 -0.000747164)
(0.00234129 0.561069 0.0050581)
(-0.000251498 0.545786 0.0117121)
(-0.00834013 0.538636 0.00617726)
(-0.00751745 0.535236 0.00106023)
(-0.00643076 0.543046 -0.00206541)
(-0.00189305 0.547873 -0.00130071)
(-0.00135649 0.547763 9.97032e-05)
(0.00230208 0.54763 -0.00119314)
(0.00507526 0.540952 -0.00288533)
(0.00873311 0.539278 -0.00559211)
(0.00704408 0.539553 -0.00581543)
(0.00491531 0.540786 -0.00376661)
(0.00348861 0.547512 -0.0032487)
(0.000797283 0.547264 -0.00382464)
(-0.00112882 0.544719 -0.00211458)
(-0.000472951 0.546199 0.00184219)
(-0.00213551 0.545829 0.00386905)
(-0.00247298 0.54124 -0.000939898)
(-0.00112236 0.54769 -0.00324428)
(0.00102626 0.548119 -0.00386247)
(0.0057654 0.544668 -0.00600011)
(0.0101953 0.551792 -0.00558346)
(0.010027 0.54803 -0.00240855)
(0.00978775 0.543646 -0.00109725)
(0.00832828 0.543073 0.00150739)
(0.00668083 0.542416 0.0059301)
(0.00602833 0.53829 0.0087963)
(0.00371402 0.537643 0.00757894)
(-0.00220485 0.534795 0.000198132)
(-0.00693473 0.533384 -0.00441968)
(-0.00891241 0.527905 -0.00384041)
(1.31034e-06 0.000433178 -1.09024e-10)
(4.54382e-06 0.000440542 1.30026e-07)
(4.85348e-06 0.000458477 -1.3291e-07)
(5.94631e-06 0.000489224 -3.19016e-07)
(6.16813e-06 0.000532689 -2.72726e-07)
(6.23716e-06 0.00058002 -1.40289e-07)
(6.12618e-06 0.000619055 -3.19937e-07)
(5.21699e-06 0.000642249 -3.78716e-07)
(4.47522e-06 0.000658058 -7.58857e-08)
(3.59806e-06 0.000674709 -4.45741e-09)
(2.64821e-06 0.000687602 6.01231e-08)
(2.00719e-06 0.000695093 3.66054e-08)
(1.36486e-06 0.000698602 8.33999e-08)
(8.1708e-07 0.000699119 9.57908e-08)
(2.68851e-07 0.000698629 1.32375e-07)
(-1.61973e-07 0.00069797 1.36367e-07)
(-5.10617e-07 0.000697419 1.40285e-07)
(-7.81118e-07 0.000696948 1.28713e-07)
(-9.95725e-07 0.000696571 1.24948e-07)
(-1.16232e-06 0.000696267 1.0404e-07)
(-1.28784e-06 0.000696024 9.73717e-08)
(-1.37845e-06 0.000695829 7.46396e-08)
(-1.43871e-06 0.00069568 6.65836e-08)
(-1.47431e-06 0.00069557 4.25667e-08)
(-1.49149e-06 0.000695504 3.91047e-08)
(-1.48605e-06 0.000695481 1.79997e-08)
(-1.46327e-06 0.000695506 1.92403e-08)
(-1.41664e-06 0.00069558 1.69466e-11)
(-1.35095e-06 0.000695712 1.56486e-09)
(-1.25425e-06 0.000695907 -2.05708e-08)
(-1.13099e-06 0.000696181 -2.04176e-08)
(-9.64289e-07 0.000696541 -4.77978e-08)
(-7.59444e-07 0.000697005 -5.49536e-08)
(-4.94687e-07 0.000697588 -9.40844e-08)
(-1.77771e-07 0.000698314 -1.1322e-07)
(2.1562e-07 0.000699212 -1.65401e-07)
(6.70476e-07 0.000700309 -1.94166e-07)
(1.21553e-06 0.000701628 -2.50928e-07)
(1.82718e-06 0.00070318 -2.81183e-07)
(2.5269e-06 0.000704963 -3.28873e-07)
(3.29829e-06 0.000706968 -3.48138e-07)
(4.18671e-06 0.000709182 -3.7113e-07)
(5.17758e-06 0.000715553 -3.44374e-07)
(6.23279e-06 0.000744223 -3.0057e-07)
(7.3279e-06 0.000820494 -1.9684e-07)
(8.05296e-06 0.000960798 -4.92285e-07)
(7.96952e-06 0.00113762 -1.19566e-06)
(3.86443e-06 0.00147772 -1.72662e-06)
(-6.52353e-07 0.00234369 6.24908e-06)
(2.21462e-05 0.00347652 -2.52329e-06)
(2.49888e-05 0.00417357 3.58751e-05)
(1.72052e-05 0.00424928 3.92201e-05)
(-1.557e-05 0.00423867 -3.12656e-06)
(-2.37812e-05 0.00431997 -1.11745e-05)
(-8.1344e-05 0.00437133 -2.40446e-05)
(-0.000278639 0.00344349 -1.5781e-05)
(0.00128125 0.00826478 0.00141057)
(0.000539459 0.0193494 0.000368711)
(-0.000369531 0.0147604 -0.000541684)
(0.00760467 0.245079 0.02834)
(0.0101963 0.618911 -0.00609603)
(-0.0169116 0.525676 0.00188519)
(-0.0149445 0.554986 -0.0153322)
(-0.00731286 0.559069 -0.00687493)
(-0.0064308 0.557994 -0.00208509)
(0.00319936 0.564058 0.00363271)
(0.0042269 0.550427 0.00290899)
(0.00147377 0.541079 0.00134964)
(-0.00132117 0.536265 0.000176221)
(-0.00340709 0.537364 -0.00475111)
(-0.00230577 0.537452 -0.00756014)
(-0.00133269 0.540992 -0.00837742)
(0.000726502 0.542603 -0.0123505)
(0.00264678 0.54776 -0.0149935)
(0.00289225 0.554915 -0.009889)
(0.000414491 0.560388 0.00550009)
(-0.00100367 0.558955 0.0104367)
(0.00144037 0.555106 0.000586679)
(0.00146612 0.546479 -0.00151632)
(0.0017175 0.541995 -0.000959968)
(-0.000467879 0.545 -0.00165609)
(-0.00142102 0.537659 -0.00360515)
(-0.00367308 0.535918 -0.00554651)
(-0.00427311 0.536796 -0.00631266)
(-0.00255376 0.539048 -0.00659933)
(0.00262733 0.540135 -0.00527342)
(0.011269 0.53815 -0.00316242)
(0.0176239 0.539146 0.000270551)
(0.0149745 0.540153 0.00340217)
(0.00980952 0.543776 0.00709217)
(0.00731064 0.542738 0.0100095)
(0.00626654 0.53928 0.00881153)
(0.00468935 0.538278 0.00660476)
(6.23965e-06 0.53239 0.00498043)
(-0.0109151 0.528491 -0.00863852)
(-0.020241 0.523344 -0.0180662)
(2.15024e-06 0.000417339 6.53152e-07)
(5.75507e-06 0.000419115 1.08386e-06)
(6.31109e-06 0.000430397 5.32522e-08)
(6.91161e-06 0.000456964 3.0777e-08)
(6.92758e-06 0.000501233 -6.13668e-08)
(6.75647e-06 0.000557194 3.35705e-07)
(6.40245e-06 0.000609392 5.67804e-08)
(5.35667e-06 0.000640941 -2.46327e-07)
(4.65072e-06 0.000653272 -1.47845e-07)
(3.76153e-06 0.000665396 -7.40708e-08)
(2.75305e-06 0.000681156 -1.57139e-09)
(2.06733e-06 0.000692572 -8.23428e-09)
(1.30728e-06 0.000697574 5.85663e-08)
(7.38947e-07 0.000698499 1.11743e-07)
(1.28081e-07 0.000698127 1.61561e-07)
(-2.96768e-07 0.000697577 1.94937e-07)
(-6.6367e-07 0.000697113 2.0924e-07)
(-9.41008e-07 0.000696722 2.17978e-07)
(-1.16312e-06 0.000696413 2.1503e-07)
(-1.33864e-06 0.000696161 2.19391e-07)
(-1.4648e-06 0.000695963 2.10135e-07)
(-1.56129e-06 0.000695812 2.08973e-07)
(-1.6213e-06 0.000695705 1.90239e-07)
(-1.66118e-06 0.000695637 1.83475e-07)
(-1.66949e-06 0.00069561 1.66359e-07)
(-1.66188e-06 0.00069563 1.61894e-07)
(-1.62361e-06 0.000695696 1.43744e-07)
(-1.56817e-06 0.000695814 1.37066e-07)
(-1.47598e-06 0.000695991 1.15996e-07)
(-1.35956e-06 0.000696237 1.06148e-07)
(-1.19606e-06 0.000696563 8.02029e-08)
(-9.99473e-07 0.000696987 6.42858e-08)
(-7.43289e-07 0.000697526 2.91096e-08)
(-4.40373e-07 0.000698207 1.06704e-09)
(-5.99173e-08 0.000699054 -4.87772e-08)
(3.78721e-07 0.000700076 -9.1872e-08)
(9.14938e-07 0.000701281 -1.52851e-07)
(1.52931e-06 0.000702686 -1.98696e-07)
(2.24742e-06 0.000704312 -2.53667e-07)
(3.05429e-06 0.000706156 -2.93356e-07)
(4.00276e-06 0.000708216 -3.26472e-07)
(5.09418e-06 0.000710655 -3.27933e-07)
(6.3912e-06 0.000718884 -2.92542e-07)
(7.81876e-06 0.000749532 -2.10747e-07)
(9.36605e-06 0.000821754 -2.01845e-07)
(1.06301e-05 0.000952471 -5.69754e-07)
(1.12669e-05 0.00111125 -1.20278e-06)
(1.02119e-05 0.00172016 1.91073e-06)
(1.20626e-06 0.00307445 9.78121e-06)
(3.04917e-06 0.0040113 -1.33864e-05)
(-5.33916e-05 0.00422368 -4.91542e-06)
(-9.26813e-05 0.0042692 3.63966e-05)
(-9.30146e-05 0.00428807 4.63459e-05)
(-2.83942e-05 0.00429797 5.89496e-05)
(-2.23425e-05 0.00437585 0.000116486)
(9.42115e-06 0.00455452 0.000241147)
(0.00117827 0.00870534 0.000784897)
(-0.000313406 0.0118744 0.00132779)
(-0.00175126 0.01724 0.000203809)
(-0.0148412 0.218672 0.0143438)
(0.0332447 0.656199 -0.0321694)
(-0.0294411 0.535381 0.00153795)
(-0.022154 0.569402 -0.0129732)
(-0.0104092 0.560185 -0.00875491)
(0.00344917 0.560679 -0.000772077)
(0.00699332 0.551515 -0.000663918)
(0.00754353 0.542419 -0.00274794)
(0.00345135 0.544263 -0.00912874)
(-0.00101898 0.54166 -0.00917264)
(-0.00429281 0.543464 -0.00856945)
(-0.00350264 0.546613 -0.00461617)
(-0.00262598 0.549176 0.00111295)
(-0.000994811 0.551241 0.00859921)
(-0.00204571 0.550737 0.0108239)
(-0.00133835 0.550729 0.00871943)
(0.00474603 0.549031 0.00712493)
(0.00497846 0.54397 0.00246335)
(0.00177589 0.540612 -0.00183357)
(-0.00033182 0.540558 -0.000747197)
(0.0029755 0.539109 0.00075093)
(0.00428492 0.536681 -0.00233871)
(0.00278202 0.535242 -0.00568725)
(0.00305522 0.533717 -0.0071403)
(0.00368146 0.530199 -0.00900989)
(0.00503622 0.526409 -0.0116783)
(0.00973574 0.522607 -0.0103894)
(0.0171172 0.521005 -0.00555516)
(0.0196065 0.524384 0.00138474)
(0.0191382 0.538819 0.00419444)
(0.00768812 0.550704 0.00384417)
(0.00444168 0.549495 0.0146891)
(0.00577265 0.535285 0.022499)
(0.0113702 0.536656 0.0132936)
(0.0120288 0.538495 0.0126052)
(0.00924084 0.522058 0.00801582)
(-0.00211188 0.509338 -0.00706621)
(2.12485e-06 0.000238383 7.44785e-08)
(7.65025e-06 0.000425738 2.21002e-06)
(7.73751e-06 0.000413141 5.76213e-07)
(7.96414e-06 0.000431922 3.83153e-07)
(7.55925e-06 0.000473275 2.08037e-07)
(7.11319e-06 0.000536904 5.9828e-07)
(6.58228e-06 0.000601625 4.13239e-07)
(5.5237e-06 0.00064196 -3.05835e-08)
(4.85217e-06 0.000655649 -1.41762e-07)
(3.95641e-06 0.00066602 -1.63947e-07)
(3.10211e-06 0.000680521 -1.3012e-07)
(2.36685e-06 0.000691241 -1.65042e-07)
(1.68494e-06 0.000696303 -1.52322e-07)
(1.12474e-06 0.0006975 -1.3348e-07)
(6.424e-07 0.000697297 -1.13209e-07)