/*--------------------------------*- C++ -*----------------------------------*\
| =========                 |                                                 |
| \\      /  F ield         | OpenFOAM: The Open Source CFD Toolbox           |
|  \\    /   O peration     | Version:  2.3.0                                 |
|   \\  /    A nd           | Web:      www.OpenFOAM.org                      |
|    \\/     M anipulation  |                                                 |
\*---------------------------------------------------------------------------*/
FoamFile
{
    version     2.0;
    format      ascii;
    class       volScalarField;
    location    "3";
    object      alpha.air;
}
// * * * * * * * * * * * * * * * * * * * * * * * * * * * * * * * * * * * * * //

dimensions      [0 0 0 0 0 0 0];

internalField   nonuniform List<scalar> 
6144
(
0.99999
0.99999
0.99999
0.99999
0.99999
0.99999
0.99999
0.99999
0.99999
0.99999
0.99999
0.99999
0.99999
0.99999
0.99999
0.99999
0.99999
0.99999
0.99999
0.99999
0.99999
0.99999
0.99999
0.99999
0.99999
0.99999
0.99999
0.99999
0.99999
0.99999
0.99999
0.99999
0.99999
0.99999
0.99999
0.99999
0.99999
0.99999
0.99999
0.99999
0.99999
0.99999
0.99999
0.99999
0.99999
0.99999
0.99999
0.99999
0.99999
0.99999
0.99999
0.99999
0.99999
0.99999
0.999989
0.999986
0.999978
0.999952
0.998402
0.928904
0.0333701
0.000213817
9.79238e-07
8.21563e-07
8.34027e-07
8.38144e-07
8.36307e-07
8.31567e-07
8.26991e-07
8.26926e-07
8.28274e-07
8.35512e-07
8.52377e-07
8.65817e-07
8.6973e-07
8.70297e-07
8.70297e-07
8.70303e-07
8.7032e-07
8.70316e-07
8.70315e-07
8.70312e-07
8.70312e-07
8.7031e-07
8.70308e-07
8.70309e-07
8.70304e-07
8.70302e-07
8.69917e-07
8.61558e-07
8.2802e-07
7.40248e-07
6.02508e-07
5.23655e-07
5.23837e-07
5.24033e-07
0.99999
0.99999
0.99999
0.99999
0.99999
0.99999
0.99999
0.99999
0.99999
0.99999
0.99999
0.99999
0.99999
0.99999
0.99999
0.99999
0.99999
0.99999
0.99999
0.99999
0.99999
0.99999
0.99999
0.99999
0.99999
0.99999
0.99999
0.99999
0.99999
0.99999
0.99999
0.99999
0.99999
0.99999
0.99999
0.99999
0.99999
0.99999
0.99999
0.99999
0.99999
0.99999
0.99999
0.99999
0.99999
0.99999
0.99999
0.99999
0.99999
0.99999
0.99999
0.99999
0.99999
0.99999
0.999987
0.99998
0.999976
0.999952
0.999242
0.962291
0.0339157
0.000135293
8.14801e-07
8.3259e-07
8.24145e-07
8.31118e-07
8.28373e-07
8.25008e-07
8.21281e-07
8.22361e-07
8.30521e-07
8.46813e-07
8.60864e-07
8.64736e-07
8.65886e-07
8.66165e-07
8.66077e-07
8.66325e-07
8.67005e-07
8.66909e-07
8.67003e-07
8.67055e-07
8.66912e-07
8.67015e-07
8.67436e-07
8.67863e-07
8.68079e-07
8.68062e-07
8.67093e-07
8.60048e-07
8.29263e-07
7.4276e-07
6.0231e-07
5.23424e-07
5.2366e-07
5.23841e-07
0.99999
0.99999
0.99999
0.99999
0.99999
0.99999
0.99999
0.99999
0.99999
0.99999
0.99999
0.99999
0.99999
0.99999
0.99999
0.99999
0.99999
0.99999
0.99999
0.99999
0.99999
0.99999
0.99999
0.99999
0.99999
0.99999
0.99999
0.99999
0.99999
0.99999
0.99999
0.99999
0.99999
0.99999
0.99999
0.99999
0.99999
0.99999
0.99999
0.99999
0.99999
0.99999
0.99999
0.99999
0.99999
0.99999
0.99999
0.99999
0.99999
0.99999
0.99999
0.99999
0.99999
0.999989
0.999986
0.999969
0.999958
0.999947
0.999557
0.959275
0.0257321
5.66421e-05
8.14522e-07
8.54951e-07
8.58727e-07
8.61307e-07
8.51212e-07
8.59245e-07
8.57071e-07
8.56699e-07
8.59613e-07
8.64202e-07
8.65876e-07
8.6657e-07
8.66402e-07
8.65747e-07
8.65351e-07
8.65176e-07
8.66291e-07
8.67608e-07
8.68876e-07
8.68882e-07
8.68382e-07
8.68286e-07
8.68575e-07
8.68693e-07
8.68693e-07
8.68693e-07
8.68693e-07
8.63124e-07
8.34995e-07
7.52475e-07
6.10693e-07
5.23181e-07
5.23425e-07
5.23661e-07
0.99999
0.99999
0.99999
0.99999
0.99999
0.99999
0.99999
0.99999
0.99999
0.99999
0.99999
0.99999
0.99999
0.99999
0.99999
0.99999
0.99999
0.99999
0.99999
0.99999
0.99999
0.99999
0.99999
0.99999
0.99999
0.99999
0.99999
0.99999
0.99999
0.99999
0.99999
0.99999
0.99999
0.99999
0.99999
0.99999
0.99999
0.99999
0.99999
0.99999
0.99999
0.99999
0.99999
0.99999
0.99999
0.99999
0.99999
0.99999
0.99999
0.99999
0.99999
0.99999
0.99999
0.999989
0.999979
0.999945
0.999938
0.999934
0.999712
0.926473
0.0172597
2.1445e-05
1.9521e-06
9.45113e-07
8.44641e-07
8.19474e-07
8.16331e-07
7.94323e-07
7.9436e-07
7.94439e-07
7.94578e-07
7.94737e-07
7.94886e-07
7.98132e-07
8.06133e-07
8.09116e-07
8.09481e-07
8.09733e-07
8.233e-07
8.3767e-07
8.56916e-07
8.60055e-07
8.61798e-07
8.60152e-07
8.59701e-07
8.60529e-07
8.62408e-07
8.63332e-07
8.6296e-07
8.58984e-07
8.36072e-07
7.58848e-07
6.18561e-07
5.22984e-07
5.23183e-07
5.23426e-07
0.99999
0.99999
0.99999
0.99999
0.99999
0.99999
0.99999
0.99999
0.99999
0.99999
0.99999
0.99999
0.99999
0.99999
0.99999
0.99999
0.99999
0.99999
0.99999
0.99999
0.99999
0.99999
0.99999
0.99999
0.99999
0.99999
0.99999
0.99999
0.99999
0.99999
0.99999
0.99999
0.99999
0.99999
0.99999
0.99999
0.99999
0.99999
0.99999
0.99999
0.99999
0.99999
0.99999
0.99999
0.99999
0.99999
0.99999
0.99999
0.99999
0.99999
0.99999
0.99999
0.99999
0.999987
0.99995
0.999927
0.99993
0.999932
0.999788
0.891288
0.0259729
0.00026462
0.000212191
0.000143504
0.000114024
8.2789e-05
7.41876e-05
5.99508e-05
5.36581e-05
5.11124e-05
3.94338e-05
2.77929e-05
1.75323e-05
1.12069e-05
7.44376e-06
4.10191e-06
1.99155e-06
1.0459e-06
1.0919e-06
1.08726e-06
1.06211e-06
1.00652e-06
8.61799e-07
8.67493e-07
8.52952e-07
8.55308e-07
8.56726e-07
8.51668e-07
8.4967e-07
8.44468e-07
8.21444e-07
7.49369e-07
6.14811e-07
5.22777e-07
5.22942e-07
5.23182e-07
0.99999
0.99999
0.99999
0.99999
0.99999
0.99999
0.99999
0.99999
0.99999
0.99999
0.99999
0.99999
0.99999
0.99999
0.99999
0.99999
0.99999
0.99999
0.99999
0.99999
0.99999
0.99999
0.99999
0.99999
0.99999
0.99999
0.99999
0.99999
0.99999
0.99999
0.99999
0.99999
0.99999
0.99999
0.99999
0.99999
0.99999
0.99999
0.99999
0.99999
0.99999
0.99999
0.99999
0.99999
0.99999
0.99999
0.99999
0.99999
0.99999
0.99999
0.99999
0.99999
0.999986
0.999972
0.99994
0.999946
0.999964
0.99997
0.999966
0.869368
0.0306248
0.00228077
0.00243182
0.00232919
0.00228327
0.00220627
0.00220753
0.00221925
0.00199014
0.00175994
0.00145397
0.00117293
0.000933619
0.00073184
0.000568309
0.000444727
0.000354562
0.000281572
0.000215248
0.000155828
0.000108406
7.07452e-05
4.20603e-05
2.1988e-05
1.0864e-05
5.41288e-06
2.78152e-06
1.48333e-06
1.07173e-06
1.05536e-06
8.29672e-07
5.22494e-07
5.22307e-07
5.22511e-07
5.22721e-07
5.22942e-07
0.99999
0.99999
0.99999
0.99999
0.99999
0.99999
0.99999
0.99999
0.99999
0.99999
0.99999
0.99999
0.99999
0.99999
0.99999
0.99999
0.99999
0.99999
0.99999
0.99999
0.99999
0.99999
0.99999
0.99999
0.99999
0.99999
0.99999
0.99999
0.99999
0.99999
0.99999
0.99999
0.99999
0.99999
0.99999
0.99999
0.99999
0.99999
0.99999
0.99999
0.99999
0.99999
0.99999
0.99999
0.99999
0.99999
0.99999
0.99999
0.99999
0.99999
0.99999
0.999985
0.999972
0.999969
0.999967
0.999941
0.999944
0.999943
0.999974
0.787275
0.0226663
0.00588105
0.0061753
0.00580294
0.005562
0.00540782
0.00530719
0.00484551
0.00416324
0.00346709
0.00276481
0.00218376
0.00169147
0.00128629
0.00101784
0.000914603
0.000940347
0.000815766
0.000779959
0.000840375
0.00087488
0.000883618
0.000812889
0.000697409
0.000622392
0.000541328
0.000536401
0.00054851
0.000434224
0.000353557
0.000217507
0.000105448
3.68812e-05
1.04359e-05
5.22344e-06
5.35544e-06
0.99999
0.99999
0.99999
0.99999
0.99999
0.99999
0.99999
0.99999
0.99999
0.99999
0.99999
0.99999
0.99999
0.99999
0.99999
0.99999
0.99999
0.99999
0.99999
0.99999
0.99999
0.99999
0.99999
0.99999
0.99999
0.99999
0.99999
0.99999
0.99999
0.99999
0.99999
0.99999
0.99999
0.99999
0.99999
0.99999
0.99999
0.99999
0.99999
0.99999
0.99999
0.99999
0.99999
0.99999
0.99999
0.99999
0.99999
0.99999
0.99999
0.99999
0.99998
0.999966
0.999957
0.999962
0.999968
0.999954
0.999949
0.999918
0.999974
0.492792
0.0151345
0.0125028
0.01235
0.0122372
0.0120612
0.0119281
0.0118524
0.0117028
0.0114093
0.0111622
0.0109328
0.0105946
0.0101312
0.00953319
0.00907167
0.00862975
0.00806586
0.00751577
0.00706944
0.00676976
0.00662712
0.00666194
0.00664836
0.00651724
0.00634558
0.00650026
0.00680597
0.0071193
0.00737533
0.00754625
0.00717031
0.00613733
0.00548888
0.0048365
0.00395465
0.00289963
0.999991
0.99999
0.99999
0.99999
0.99999
0.99999
0.99999
0.99999
0.99999
0.99999
0.99999
0.99999
0.99999
0.99999
0.99999
0.99999
0.99999
0.99999
0.99999
0.99999
0.99999
0.99999
0.99999
0.99999
0.99999
0.99999
0.99999
0.99999
0.99999
0.99999
0.99999
0.99999
0.99999
0.99999
0.99999
0.99999
0.99999
0.99999
0.99999
0.99999
0.99999
0.99999
0.99999
0.99999
0.99999
0.99999
0.99999
0.99999
0.99999
0.999981
0.999961
0.999951
0.999948
0.999948
0.999953
0.999959
0.999963
0.999964
0.999974
0.707834
0.00690829
0.00338267
0.00288224
0.00252183
0.00225486
0.00209183
0.00196261
0.00188128
0.00181423
0.00169657
0.00154208
0.001344
0.00109585
0.000868714
0.000717664
0.00066559
0.00067112
0.000688738
0.00070149
0.00069909
0.000629173
0.000542201
0.000438128
0.000349765
0.000295726
0.000276817
0.000276749
0.000281135
0.000256365
0.00017553
0.000103215
5.90921e-05
3.90525e-05
2.72352e-05
1.53655e-05
4.99017e-06
0.999991
0.99999
0.99999
0.99999
0.99999
0.99999
0.99999
0.99999
0.99999
0.99999
0.99999
0.99999
0.99999
0.99999
0.99999
0.99999
0.99999
0.99999
0.99999
0.99999
0.99999
0.99999
0.99999
0.99999
0.99999
0.99999
0.99999
0.99999
0.99999
0.99999
0.99999
0.99999
0.99999
0.99999
0.99999
0.99999
0.99999
0.99999
0.99999
0.99999
0.99999
0.99999
0.99999
0.99999
0.99999
0.99999
0.99999
0.99999
0.999983
0.99997
0.999968
0.999968
0.999967
0.999967
0.999969
0.999969
0.999969
0.999968
0.999974
0.854993
0.0175206
0.00012171
7.31599e-05
4.27037e-05
3.16686e-05
2.33274e-05
1.99249e-05
1.72849e-05
1.39072e-05
1.00133e-05
6.59184e-06
3.54818e-06
1.70902e-06
9.26386e-07
7.83159e-07
7.11898e-07
5.25648e-07
5.25449e-07
5.25249e-07
5.25048e-07
5.24852e-07
5.24645e-07
5.24464e-07
5.24266e-07
5.24074e-07
5.23879e-07
5.23695e-07
5.23502e-07
5.2331e-07
5.23114e-07
5.22946e-07
5.22772e-07
5.22619e-07
5.22484e-07
5.227e-07
5.22888e-07
0.999991
0.99999
0.99999
0.99999
0.99999
0.99999
0.99999
0.99999
0.99999
0.99999
0.99999
0.99999
0.99999
0.99999
0.99999
0.99999
0.99999
0.99999
0.99999
0.99999
0.99999
0.99999
0.99999
0.99999
0.99999
0.99999
0.99999
0.99999
0.99999
0.99999
0.99999
0.99999
0.99999
0.99999
0.99999
0.99999
0.99999
0.99999
0.99999
0.99999
0.99999
0.99999
0.99999
0.99999
0.99999
0.99999
0.99999
0.99999
0.999988
0.999978
0.999971
0.999969
0.999968
0.999967
0.999965
0.99996
0.999958
0.99995
0.999952
0.93485
0.0149144
7.96899e-07
1.05518e-06
8.30715e-07
9.31279e-07
9.23128e-07
9.34822e-07
9.3468e-07
9.43241e-07
9.21955e-07
8.9113e-07
8.55848e-07
8.16231e-07
8.16358e-07
8.17176e-07
8.1774e-07
8.19702e-07
8.20242e-07
8.21293e-07
8.22402e-07
8.23022e-07
8.23621e-07
8.24986e-07
8.26223e-07
8.2523e-07
8.14679e-07
7.98914e-07
7.87737e-07
7.78671e-07
7.64288e-07
7.24873e-07
6.519e-07
5.60698e-07
5.22595e-07
5.22782e-07
5.22985e-07
0.999992
0.999991
0.99999
0.999991
0.99999
0.99999
0.99999
0.99999
0.99999
0.99999
0.99999
0.99999
0.99999
0.99999
0.99999
0.99999
0.99999
0.99999
0.99999
0.99999
0.99999
0.99999
0.99999
0.99999
0.99999
0.99999
0.99999
0.99999
0.99999
0.99999
0.99999
0.99999
0.99999
0.99999
0.99999
0.99999
0.99999
0.99999
0.99999
0.99999
0.99999
0.99999
0.99999
0.99999
0.99999
0.99999
0.99999
0.99999
0.99999
0.999988
0.99998
0.999975
0.999972
0.999971
0.999967
0.999966
0.999964
0.999947
0.999798
0.959565
0.0308822
7.65337e-07
8.32351e-07
8.11041e-07
7.94532e-07
8.3354e-07
8.45467e-07
8.84618e-07
9.08722e-07
9.30999e-07
9.43251e-07
9.38338e-07
9.15845e-07
8.84046e-07
8.68886e-07
8.65952e-07
8.61046e-07
8.60486e-07
8.57324e-07
8.53657e-07
8.53141e-07
8.51924e-07
8.48562e-07
8.4641e-07
8.47329e-07
8.48153e-07
8.47499e-07
8.45012e-07
8.4045e-07
8.27574e-07
7.84938e-07
6.87532e-07
5.63778e-07
5.2278e-07
5.22983e-07
5.23172e-07
0.999993
0.999993
0.999992
0.999991
0.99999
0.99999
0.99999
0.99999
0.99999
0.99999
0.99999
0.99999
0.99999
0.99999
0.99999
0.99999
0.99999
0.99999
0.99999
0.99999
0.99999
0.99999
0.99999
0.99999
0.99999
0.99999
0.99999
0.99999
0.99999
0.99999
0.99999
0.99999
0.99999
0.99999
0.99999
0.99999
0.99999
0.99999
0.99999
0.99999
0.99999
0.99999
0.99999
0.99999
0.99999
0.99999
0.99999
0.99999
0.99999
0.99999
0.999989
0.999986
0.999984
0.999983
0.999976
0.999971
0.999971
0.999941
0.999605
0.967633
0.0687237
7.65336e-07
8.2692e-07
8.02756e-07
7.69196e-07
7.85044e-07
7.87005e-07
8.02214e-07
8.33949e-07
8.60104e-07
8.79395e-07
9.13888e-07
9.21174e-07
9.12453e-07
9.02578e-07
8.96584e-07
8.91047e-07
8.87534e-07
8.82629e-07
8.76215e-07
8.71744e-07
8.67654e-07
8.6208e-07
8.58335e-07
8.58902e-07
8.61007e-07
8.63987e-07
8.6605e-07
8.66552e-07
8.60652e-07
8.23692e-07
7.16763e-07
5.73752e-07
5.22977e-07
5.23166e-07
5.23373e-07
0.999995
0.999995
0.999993
0.999992
0.99999
0.99999
0.99999
0.99999
0.99999
0.99999
0.99999
0.99999
0.99999
0.99999
0.99999
0.99999
0.99999
0.99999
0.99999
0.99999
0.99999
0.99999
0.99999
0.99999
0.99999
0.99999
0.99999
0.99999
0.99999
0.99999
0.99999
0.99999
0.99999
0.99999
0.99999
0.99999
0.99999
0.99999
0.99999
0.99999
0.99999
0.99999
0.99999
0.99999
0.99999
0.99999
0.99999
0.99999
0.99999
0.99999
0.99999
0.99999
0.999987
0.999985
0.999981
0.999974
0.99997
0.999918
0.999565
0.965074
0.0629257
8.95764e-07
7.81524e-07
7.81496e-07
7.69179e-07
7.88686e-07
7.88609e-07
7.91802e-07
8.08874e-07
8.386e-07
8.56014e-07
8.64444e-07
8.71144e-07
8.80383e-07
8.84944e-07
8.86514e-07
8.85861e-07
8.84975e-07
8.82659e-07
8.78566e-07
8.75108e-07
8.72034e-07
8.68659e-07
8.66626e-07
8.66873e-07
8.68256e-07
8.70813e-07
8.74208e-07
8.76772e-07
8.72928e-07
8.36729e-07
7.29593e-07
5.836e-07
5.23152e-07
5.23359e-07
5.23554e-07
0.999996
0.999996
0.999996
0.999994
0.999991
0.99999
0.99999
0.99999
0.99999
0.99999
0.99999
0.99999
0.99999
0.99999
0.99999
0.99999
0.99999
0.99999
0.99999
0.99999
0.99999
0.99999
0.99999
0.99999
0.99999
0.99999
0.99999
0.99999
0.99999
0.99999
0.99999
0.99999
0.99999
0.99999
0.99999
0.99999
0.99999
0.99999
0.99999
0.99999
0.99999
0.99999
0.99999
0.99999
0.99999
0.99999
0.99999
0.99999
0.99999
0.99999
0.99999
0.99999
0.999987
0.999985
0.99998
0.999974
0.999972
0.999958
0.999795
0.971655
0.0631876
7.57286e-05
9.43805e-07
7.6427e-07
7.64281e-07
7.71375e-07
7.68154e-07
7.68436e-07
7.7777e-07
7.95829e-07
8.18578e-07
8.40878e-07
8.53384e-07
8.57494e-07
8.60541e-07
8.63678e-07
8.65952e-07
8.67815e-07
8.69171e-07
8.69357e-07
8.69482e-07
8.69023e-07
8.68198e-07
8.68297e-07
8.69282e-07
8.7076e-07
8.73111e-07
8.77139e-07
8.80374e-07
8.75621e-07
8.36562e-07
7.28637e-07
5.83449e-07
5.23349e-07
5.23544e-07
5.23743e-07
0.999997
0.999997
0.999996
0.999994
0.999991
0.99999
0.99999
0.99999
0.99999
0.99999
0.99999
0.99999
0.99999
0.99999
0.99999
0.99999
0.99999
0.99999
0.99999
0.99999
0.99999
0.99999
0.99999
0.99999
0.99999
0.99999
0.99999
0.99999
0.99999
0.99999
0.99999
0.99999
0.99999
0.99999
0.99999
0.99999
0.99999
0.99999
0.99999
0.99999
0.99999
0.99999
0.99999
0.99999
0.99999
0.99999
0.99999
0.99999
0.99999
0.99999
0.99999
0.99999
0.999989
0.999982
0.999942
0.999919
0.999935
0.999952
0.999501
0.963347
0.0930419
0.00125582
3.75873e-06
7.64281e-07
7.64281e-07
7.64628e-07
7.65057e-07
7.6517e-07
7.6778e-07
7.72461e-07
7.80193e-07
8.00494e-07
8.35787e-07
8.57127e-07
8.61062e-07
8.62124e-07
8.62456e-07
8.63208e-07
8.64482e-07
8.65869e-07
8.67737e-07
8.69115e-07
8.69907e-07
8.71145e-07
8.72653e-07
8.74233e-07
8.77109e-07
8.8237e-07
8.85901e-07
8.78269e-07
8.33002e-07
7.22824e-07
5.8283e-07
5.23532e-07
5.23732e-07
5.23922e-07
0.99999
0.99999
0.99999
0.99999
0.99999
0.99999
0.99999
0.99999
0.99999
0.99999
0.99999
0.99999
0.99999
0.99999
0.99999
0.99999
0.99999
0.99999
0.99999
0.99999
0.99999
0.99999
0.99999
0.99999
0.99999
0.99999
0.99999
0.99999
0.99999
0.99999
0.99999
0.99999
0.99999
0.99999
0.99999
0.99999
0.99999
0.99999
0.99999
0.99999
0.99999
0.99999
0.99999
0.99999
0.99999
0.99999
0.99999
0.99999
0.99999
0.99999
0.99999
0.99999
0.99999
0.99999
0.999988
0.999972
0.999966
0.999894
0.999334
0.958373
0.0317181
0.000114499
8.14801e-07
8.21339e-07
8.28615e-07
8.31921e-07
8.31467e-07
8.30908e-07
8.31319e-07
8.32301e-07
8.3385e-07
8.42025e-07
8.59036e-07
8.66047e-07
8.66537e-07
8.66589e-07
8.66482e-07
8.66699e-07
8.67262e-07
8.67163e-07
8.67315e-07
8.67468e-07
8.67337e-07
8.67309e-07
8.67387e-07
8.67439e-07
8.67456e-07
8.67376e-07
8.66292e-07
8.58211e-07
8.25022e-07
7.36977e-07
5.98786e-07
5.23538e-07
5.2372e-07
5.23904e-07
0.99999
0.99999
0.99999
0.99999
0.99999
0.99999
0.99999
0.99999
0.99999
0.99999
0.99999
0.99999
0.99999
0.99999
0.99999
0.99999
0.99999
0.99999
0.99999
0.99999
0.99999
0.99999
0.99999
0.99999
0.99999
0.99999
0.99999
0.99999
0.99999
0.99999
0.99999
0.99999
0.99999
0.99999
0.99999
0.99999
0.99999
0.99999
0.99999
0.99999
0.99999
0.99999
0.99999
0.99999
0.99999
0.99999
0.99999
0.99999
0.99999
0.99999
0.99999
0.99999
0.99999
0.99999
0.999989
0.99998
0.999977
0.999896
0.999598
0.941429
0.0182814
1.41291e-05
8.14521e-07
8.32365e-07
8.2356e-07
8.19878e-07
8.21858e-07
8.21742e-07
8.20316e-07
8.21607e-07
8.32085e-07
8.53261e-07
8.64654e-07
8.66175e-07
8.66031e-07
8.65866e-07
8.65557e-07
8.6546e-07
8.65454e-07
8.65187e-07
8.65091e-07
8.65084e-07
8.65076e-07
8.65069e-07
8.65061e-07
8.65053e-07
8.65038e-07
8.64938e-07
8.63909e-07
8.57122e-07
8.26877e-07
7.40302e-07
5.99161e-07
5.23346e-07
5.23543e-07
5.23725e-07
0.99999
0.99999
0.99999
0.99999
0.99999
0.99999
0.99999
0.99999
0.99999
0.99999
0.99999
0.99999
0.99999
0.99999
0.99999
0.99999
0.99999
0.99999
0.99999
0.99999
0.99999
0.99999
0.99999
0.99999
0.99999
0.99999
0.99999
0.99999
0.99999
0.99999
0.99999
0.99999
0.99999
0.99999
0.99999
0.99999
0.99999
0.99999
0.99999
0.99999
0.99999
0.99999
0.99999
0.99999
0.99999
0.99999
0.99999
0.99999
0.99999
0.99999
0.99999
0.99999
0.99999
0.999989
0.999986
0.999979
0.999959
0.999918
0.999734
0.915467
0.0132195
1.14753e-06
8.14802e-07
8.14244e-07
8.15068e-07
8.14388e-07
8.15359e-07
8.15124e-07
8.33024e-07
8.68297e-07
8.82148e-07
8.87551e-07
8.87992e-07
8.79722e-07
8.75467e-07
8.73925e-07
8.72802e-07
8.71747e-07
8.71433e-07
8.70698e-07
8.69642e-07
8.68092e-07
8.66774e-07
8.66409e-07
8.66508e-07
8.6676e-07
8.66932e-07
8.67007e-07
8.66184e-07
8.60742e-07
8.33403e-07
7.48819e-07
6.04878e-07
5.23137e-07
5.23346e-07
5.23543e-07
0.99999
0.99999
0.99999
0.99999
0.99999
0.99999
0.99999
0.99999
0.99999
0.99999
0.99999
0.99999
0.99999
0.99999
0.99999
0.99999
0.99999
0.99999
0.99999
0.99999
0.99999
0.99999
0.99999
0.99999
0.99999
0.99999
0.99999
0.99999
0.99999
0.99999
0.99999
0.99999
0.99999
0.99999
0.99999
0.99999
0.99999
0.99999
0.99999
0.99999
0.99999
0.99999
0.99999
0.99999
0.99999
0.99999
0.99999
0.99999
0.99999
0.99999
0.99999
0.99999
0.99999
0.99999
0.999937
0.999919
0.999879
0.999844
0.999776
0.859179
0.00911563
0.000171135
9.42138e-05
3.35744e-05
1.88078e-05
6.12175e-06
2.02254e-06
1.25555e-06
1.0122e-06
9.49677e-07
1.20658e-06
1.0818e-06
9.83333e-07
9.16653e-07
9.08932e-07
9.30859e-07
9.43259e-07
9.06643e-07
9.04751e-07
9.19645e-07
8.88087e-07
8.60157e-07
8.60156e-07
8.60154e-07
8.6046e-07
8.65736e-07
8.69052e-07
8.6744e-07
8.62285e-07
8.54252e-07
8.32504e-07
7.60115e-07
6.20294e-07
5.22957e-07
5.2314e-07
5.23348e-07
0.99999
0.99999
0.99999
0.99999
0.99999
0.99999
0.99999
0.99999
0.99999
0.99999
0.99999
0.99999
0.99999
0.99999
0.99999
0.99999
0.99999
0.99999
0.99999
0.99999
0.99999
0.99999
0.99999
0.99999
0.99999
0.99999
0.99999
0.99999
0.99999
0.99999
0.99999
0.99999
0.99999
0.99999
0.99999
0.99999
0.99999
0.99999
0.99999
0.99999
0.99999
0.99999
0.99999
0.99999
0.99999
0.99999
0.99999
0.99999
0.99999
0.99999
0.99999
0.99999
0.99999
0.999986
0.999838
0.999814
0.99983
0.999847
0.999864
0.676588
0.0139031
0.00632885
0.00527453
0.00402633
0.00320403
0.00235444
0.0017768
0.00142378
0.0011913
0.0010196
0.000872641
0.000715449
0.000559014
0.000417965
0.000307045
0.000219315
0.000151733
0.000101223
6.5538e-05
3.88663e-05
2.15241e-05
1.12799e-05
5.41729e-06
2.25365e-06
1.02053e-06
8.55212e-07
1.04109e-06
9.74741e-07
8.69296e-07
7.26475e-07
6.66619e-07
6.35918e-07
6.07165e-07
5.22764e-07
5.22961e-07
5.23144e-07
0.99999
0.99999
0.99999
0.99999
0.99999
0.99999
0.99999
0.99999
0.99999
0.99999
0.99999
0.99999
0.99999
0.99999
0.99999
0.99999
0.99999
0.99999
0.99999
0.99999
0.99999
0.99999
0.99999
0.99999
0.99999
0.99999
0.99999
0.99999
0.99999
0.99999
0.99999
0.99999
0.99999
0.99999
0.99999
0.99999
0.99999
0.99999
0.99999
0.99999
0.99999
0.99999
0.99999
0.99999
0.99999
0.99999
0.99999
0.99999
0.99999
0.99999
0.99999
0.99999
0.999989
0.999968
0.99984
0.999813
0.99983
0.999869
0.999963
0.50601
0.0344847
0.0288198
0.0294033
0.0285441
0.0278496
0.0261969
0.0248181
0.0235043
0.0223261
0.0210513
0.0197475
0.018271
0.016567
0.0147891
0.0131215
0.0116313
0.0102224
0.00888378
0.00759458
0.0062372
0.0049091
0.00371771
0.00268668
0.00186118
0.00124412
0.000804902
0.000505797
0.000304268
0.000162063
7.19825e-05
2.35376e-05
4.97647e-06
5.22512e-07
5.22579e-07
5.2278e-07
5.37033e-07
0.99999
0.99999
0.99999
0.99999
0.99999
0.99999
0.99999
0.99999
0.99999
0.99999
0.99999
0.99999
0.99999
0.99999
0.99999
0.99999
0.99999
0.99999
0.99999
0.99999
0.99999
0.99999
0.99999
0.99999
0.99999
0.99999
0.99999
0.99999
0.99999
0.99999
0.99999
0.99999
0.99999
0.99999
0.99999
0.99999
0.99999
0.99999
0.99999
0.99999
0.99999
0.99999
0.99999
0.99999
0.99999
0.99999
0.99999
0.99999
0.99999
0.99999
0.99999
0.999988
0.999982
0.999977
0.999931
0.999832
0.999839
0.999864
0.999973
0.628644
0.049664
0.0391932
0.0441646
0.0465968
0.0477771
0.0484396
0.0490549
0.0496053
0.0499659
0.0501155
0.0501124
0.0499936
0.0499711
0.0497442
0.0498125
0.0502508
0.050677
0.0510605
0.0513298
0.050441
0.0476885
0.0444524
0.0410378
0.0377473
0.03479
0.0322185
0.0297776
0.027047
0.0237064
0.0196221
0.0149912
0.0102696
0.00592883
0.00259689
0.000935883
0.000942267
0.999991
0.99999
0.99999
0.99999
0.99999
0.99999
0.99999
0.99999
0.99999
0.99999
0.99999
0.99999
0.99999
0.99999
0.99999
0.99999
0.99999
0.99999
0.99999
0.99999
0.99999
0.99999
0.99999
0.99999
0.99999
0.99999
0.99999
0.99999
0.99999
0.99999
0.99999
0.99999
0.99999
0.99999
0.99999
0.99999
0.99999
0.99999
0.99999
0.99999
0.99999
0.99999
0.99999
0.99999
0.99999
0.99999
0.99999
0.99999
0.99999
0.99999
0.999985
0.999976
0.999969
0.999968
0.999976
0.99991
0.999862
0.999819
0.999974
0.69553
0.0280952
0.0186981
0.0206093
0.0216351
0.0230554
0.0260862
0.0296729
0.0336022
0.0378033
0.0420226
0.0456385
0.0484906
0.0507428
0.0529112
0.0555241
0.0590287
0.0635537
0.0686291
0.0737981
0.0781181
0.0810769
0.0830175
0.0849544
0.0878119
0.0923809
0.0993834
0.107321
0.114853
0.121919
0.128885
0.136911
0.146818
0.157579
0.171689
0.211917
0.403756
0.999991
0.99999
0.99999
0.99999
0.99999
0.99999
0.99999
0.99999
0.99999
0.99999
0.99999
0.99999
0.99999
0.99999
0.99999
0.99999
0.99999
0.99999
0.99999
0.99999
0.99999
0.99999
0.99999
0.99999
0.99999
0.99999
0.99999
0.99999
0.99999
0.99999
0.99999
0.99999
0.99999
0.99999
0.99999
0.99999
0.99999
0.99999
0.99999
0.99999
0.99999
0.99999
0.99999
0.99999
0.99999
0.99999
0.99999
0.99999
0.99999
0.999986
0.999972
0.999961
0.999959
0.999956
0.999933
0.999895
0.999865
0.999856
0.999903
0.811916
0.00541744
0.00114852
0.000989243
0.000861438
0.000844782
0.000974513
0.00114064
0.00131128
0.00152624
0.0017506
0.0019949
0.0021246
0.00206901
0.00168623
0.0015889
0.0018864
0.00219231
0.00241243
0.00253918
0.00254412
0.00251902
0.00245275
0.00240003
0.00239973
0.00261627
0.00306833
0.00364972
0.00392912
0.00397264
0.00368939
0.00285777
0.00237671
0.00206826
0.00174741
0.00148436
0.000455505
0.999992
0.999991
0.99999
0.999991
0.99999
0.99999
0.99999
0.99999
0.99999
0.99999
0.99999
0.99999
0.99999
0.99999
0.99999
0.99999
0.99999
0.99999
0.99999
0.99999
0.99999
0.99999
0.99999
0.99999
0.99999
0.99999
0.99999
0.99999
0.99999
0.99999
0.99999
0.99999
0.99999
0.99999
0.99999
0.99999
0.99999
0.99999
0.99999
0.99999
0.99999
0.99999
0.99999
0.99999
0.99999
0.99999
0.99999
0.99999
0.999989
0.999979
0.999971
0.999966
0.999956
0.99994
0.999918
0.999909
0.999907
0.999934
0.999949
0.888339
0.00394636
1.09942e-05
9.52726e-06
4.88428e-06
3.88214e-06
4.73366e-06
5.63615e-06
6.64122e-06
7.94247e-06
8.45361e-06
9.17569e-06
9.27797e-06
8.48304e-06
7.21227e-06
6.56271e-06
6.43871e-06
6.37232e-06
6.18663e-06
5.77214e-06
5.01924e-06
4.04461e-06
2.94714e-06
1.94889e-06
1.1645e-06
5.83416e-07
5.8809e-07
7.8965e-07
8.69048e-07
8.65802e-07
8.46608e-07
7.87413e-07
6.79896e-07
5.26776e-07
5.22283e-07
5.22485e-07
5.22701e-07
0.999992
0.999992
0.999991
0.999992
0.99999
0.99999
0.99999
0.99999
0.99999
0.99999
0.99999
0.99999
0.99999
0.99999
0.99999
0.99999
0.99999
0.99999
0.99999
0.99999
0.99999
0.99999
0.99999
0.99999
0.99999
0.99999
0.99999
0.99999
0.99999
0.99999
0.99999
0.99999
0.99999
0.99999
0.99999
0.99999
0.99999
0.99999
0.99999
0.99999
0.99999
0.99999
0.99999
0.99999
0.99999
0.99999
0.99999
0.99999
0.99999
0.999988
0.999981
0.999978
0.999982
0.999979
0.999972
0.999953
0.999949
0.999941
0.999926
0.946339
0.010191
7.65337e-07
8.00903e-07
8.19227e-07
8.01494e-07
8.41861e-07
8.51099e-07
8.52521e-07
8.58707e-07
8.29972e-07
8.29241e-07
8.29192e-07
8.30893e-07
8.36347e-07
8.38443e-07
8.41416e-07
8.43945e-07
8.46681e-07
8.48898e-07
8.50021e-07
8.51362e-07
8.52501e-07
8.52698e-07
8.52925e-07
8.55385e-07
8.62638e-07
8.68024e-07
8.7242e-07
8.75251e-07
8.68285e-07
8.23407e-07
7.15571e-07
5.77565e-07
5.22399e-07
5.22618e-07
5.22806e-07
0.999993
0.999994
0.999993
0.999993
0.999991
0.99999
0.99999
0.99999
0.99999
0.99999
0.99999
0.99999
0.99999
0.99999
0.99999
0.99999
0.99999
0.99999
0.99999
0.99999
0.99999
0.99999
0.99999
0.99999
0.99999
0.99999
0.99999
0.99999
0.99999
0.99999
0.99999
0.99999
0.99999
0.99999
0.99999
0.99999
0.99999
0.99999
0.99999
0.99999
0.99999
0.99999
0.99999
0.99999
0.99999
0.99999
0.99999
0.99999
0.99999
0.99999
0.999989
0.999986
0.999985
0.999974
0.999963
0.999957
0.999942
0.999928
0.999865
0.96781
0.0344509
7.65336e-07
7.98816e-07
7.97852e-07
8.01421e-07
8.10725e-07
8.15707e-07
8.46692e-07
8.64272e-07
8.6223e-07
8.4929e-07
8.50221e-07
8.4932e-07
8.50389e-07
8.51221e-07
8.52224e-07
8.52868e-07
8.53949e-07
8.55043e-07
8.5578e-07
8.56928e-07
8.57873e-07
8.58421e-07
8.59353e-07
8.60634e-07
8.62321e-07
8.65828e-07
8.72004e-07
8.75426e-07
8.67755e-07
8.21106e-07
7.10045e-07
5.70948e-07
5.22614e-07
5.22802e-07
5.23005e-07
0.999994
0.999994
0.999995
0.999994
0.999992
0.99999
0.99999
0.99999
0.99999
0.99999
0.99999
0.99999
0.99999
0.99999
0.99999
0.99999
0.99999
0.99999
0.99999
0.99999
0.99999
0.99999
0.99999
0.99999
0.99999
0.99999
0.99999
0.99999
0.99999
0.99999
0.99999
0.99999
0.99999
0.99999
0.99999
0.99999
0.99999
0.99999
0.99999
0.99999
0.99999
0.99999
0.99999
0.99999
0.99999
0.99999
0.99999
0.99999
0.99999
0.99999
0.99999
0.999989
0.999983
0.999966
0.999956
0.999954
0.999946
0.999931
0.999775
0.976867
0.0706191
7.65337e-07
8.33021e-07
7.73538e-07
7.7172e-07
7.79208e-07
7.7752e-07
7.86126e-07
8.11114e-07
8.42373e-07
8.51459e-07
8.53532e-07
8.51499e-07
8.51347e-07
8.52113e-07
8.53151e-07
8.53486e-07
8.53901e-07
8.54688e-07
8.55237e-07
8.56284e-07
8.57239e-07
8.57757e-07
8.58643e-07
8.59915e-07
8.61598e-07
8.65004e-07
8.70632e-07
8.73806e-07
8.66309e-07
8.19175e-07
7.06648e-07
5.68354e-07
5.22801e-07
5.23003e-07
5.23193e-07
0.999995
0.999995
0.999996
0.999996
0.999993
0.99999
0.99999
0.99999
0.99999
0.99999
0.99999
0.99999
0.99999
0.99999
0.99999
0.99999
0.99999
0.99999
0.99999
0.99999
0.99999
0.99999
0.99999
0.99999
0.99999
0.99999
0.99999
0.99999
0.99999
0.99999
0.99999
0.99999
0.99999
0.99999
0.99999
0.99999
0.99999
0.99999
0.99999
0.99999
0.99999
0.99999
0.99999
0.99999
0.99999
0.99999
0.99999
0.99999
0.99999
0.99999
0.99999
0.999989
0.999976
0.99996
0.999944
0.999948
0.999964
0.999931
0.99968
0.975313
0.06795
7.65337e-07
9.45083e-07
7.87921e-07
7.64299e-07
7.721e-07
7.70791e-07
7.73147e-07
7.85449e-07
8.12891e-07
8.4023e-07
8.52414e-07
8.53347e-07
8.53732e-07
8.54532e-07
8.56066e-07
8.56987e-07
8.57566e-07
8.57888e-07
8.5786e-07
8.5839e-07
8.59057e-07
8.59453e-07
8.60197e-07
8.61314e-07
8.62722e-07
8.65379e-07
8.69827e-07
8.72749e-07
8.66013e-07
8.24193e-07
7.16285e-07
5.75604e-07
5.22998e-07
5.23187e-07
5.23393e-07
0.999996
0.999996
0.999997
0.999996
0.999993
0.99999
0.99999
0.99999
0.99999
0.99999
0.99999
0.99999
0.99999
0.99999
0.99999
0.99999
0.99999
0.99999
0.99999
0.99999
0.99999
0.99999
0.99999
0.99999
0.99999
0.99999
0.99999
0.99999
0.99999
0.99999
0.99999
0.99999
0.99999
0.99999
0.99999
0.99999
0.99999
0.99999
0.99999
0.99999
0.99999
0.99999
0.99999
0.99999
0.99999
0.99999
0.99999
0.99999
0.99999
0.99999
0.99999
0.999988
0.999981
0.999966
0.999911
0.999903
0.999943
0.99993
0.999686
0.970174
0.0785323
0.000201263
9.9091e-07
7.64281e-07
7.6427e-07
7.64299e-07
7.643e-07
7.65582e-07
7.74256e-07
7.90508e-07
8.11215e-07
8.36756e-07
8.50683e-07
8.5238e-07
8.52272e-07
8.52185e-07
8.52179e-07
8.52344e-07
8.52965e-07
8.53893e-07
8.55568e-07
8.57049e-07
8.57949e-07
8.59089e-07
8.605e-07
8.62218e-07
8.65347e-07
8.70874e-07
8.7463e-07
8.67469e-07
8.22742e-07
7.12218e-07
5.72049e-07
5.23173e-07
5.23379e-07
5.23576e-07
0.999998
0.999998
0.999998
0.999996
0.999992
0.99999
0.99999
0.99999
0.99999
0.99999
0.99999
0.99999
0.99999
0.99999
0.99999
0.99999
0.99999
0.99999
0.99999
0.99999
0.99999
0.99999
0.99999
0.99999
0.99999
0.99999
0.99999
0.99999
0.99999
0.99999
0.99999
0.99999
0.99999
0.99999
0.99999
0.99999
0.99999
0.99999
0.99999
0.99999
0.99999
0.99999
0.99999
0.99999
0.99999
0.99999
0.99999
0.99999
0.99999
0.99999
0.99999
0.99999
0.999988
0.999956
0.99987
0.999855
0.999883
0.99991
0.999519
0.95164
0.0842038
0.000805644
1.68825e-06
7.6427e-07
7.66289e-07
7.65383e-07
7.65428e-07
7.67374e-07
7.7265e-07
7.7902e-07
7.87958e-07
8.11497e-07
8.43494e-07
8.55238e-07
8.56125e-07
8.56332e-07
8.56541e-07
8.5727e-07
8.58582e-07
8.60014e-07
8.61842e-07
8.63323e-07
8.64408e-07
8.65671e-07
8.67014e-07
8.68584e-07
8.71861e-07
8.77605e-07
8.81041e-07
8.72267e-07
8.25134e-07
7.14522e-07
5.76244e-07
5.23376e-07
5.23573e-07
5.23773e-07
0.99999
0.99999
0.99999
0.99999
0.99999
0.99999
0.99999
0.99999
0.99999
0.99999
0.99999
0.99999
0.99999
0.99999
0.99999
0.99999
0.99999
0.99999