/*--------------------------------*- C++ -*----------------------------------*\
| =========                 |                                                 |
| \\      /  F ield         | OpenFOAM: The Open Source CFD Toolbox           |
|  \\    /   O peration     | Version:  2.3.0                                 |
|   \\  /    A nd           | Web:      www.OpenFOAM.org                      |
|    \\/     M anipulation  |                                                 |
\*---------------------------------------------------------------------------*/
FoamFile
{
    version     2.0;
    format      ascii;
    class       volScalarField;
    location    "3";
    object      alpha.water;
}
// * * * * * * * * * * * * * * * * * * * * * * * * * * * * * * * * * * * * * //

dimensions      [0 0 0 0 0 0 0];

internalField   nonuniform List<scalar> 
6144
(
1.00004e-05
9.99768e-06
1.00013e-05
1.00018e-05
1.00005e-05
1.00021e-05
1.00003e-05
1.00027e-05
1.00015e-05
1.00018e-05
1.00018e-05
1.00018e-05
1.00018e-05
1.00018e-05
1.00018e-05
1.00018e-05
1.00018e-05
1.00018e-05
1.00018e-05
1.00018e-05
1.00019e-05
1.00019e-05
1.00019e-05
1.00019e-05
1.00019e-05
1.00019e-05
1.00019e-05
1.0002e-05
1.0002e-05
1.0002e-05
1.0002e-05
1.0002e-05
1.0002e-05
1.00023e-05
1.00003e-05
1.0005e-05
9.99962e-06
1.00061e-05
9.99884e-06
1.00075e-05
9.99976e-06
1.00083e-05
1.00009e-05
1.00087e-05
1.00025e-05
1.00085e-05
1.00036e-05
1.00074e-05
1.00003e-05
1.0012e-05
1.00068e-05
1.00209e-05
1.00121e-05
1.00829e-05
1.09735e-05
1.41722e-05
2.15585e-05
4.78086e-05
0.0015981
0.0710958
0.96663
0.999786
0.999999
0.999999
0.999999
0.999999
0.999999
0.999999
0.999999
0.999999
0.999999
0.999999
0.999999
0.999999
0.999999
0.999999
0.999999
0.999999
0.999999
0.999999
0.999999
0.999999
0.999999
0.999999
0.999999
0.999999
0.999999
0.999999
0.999999
0.999999
0.999999
0.999999
0.999999
0.999999
0.999999
0.999999
1.0001e-05
9.99765e-06
9.9982e-06
1.00017e-05
9.99754e-06
1.00021e-05
9.99734e-06
1.00027e-05
9.99836e-06
1.00018e-05
9.99929e-06
1.00009e-05
9.99993e-06
1.00006e-05
1.00003e-05
1.00004e-05
1.00004e-05
1.00004e-05
1.00004e-05
1.00005e-05
1.00005e-05
1.00005e-05
1.00005e-05
1.00006e-05
1.00006e-05
1.00006e-05
1.00006e-05
1.00006e-05
1.00006e-05
1.00006e-05
1.00006e-05
1.00011e-05
1.00002e-05
1.00023e-05
9.99876e-06
1.0005e-05
9.99821e-06
1.00061e-05
9.99752e-06
1.00072e-05
9.99791e-06
1.00076e-05
9.99857e-06
1.00087e-05
9.99952e-06
1.00085e-05
1.00005e-05
1.00074e-05
9.9994e-06
1.00118e-05
1.00065e-05
1.00195e-05
1.00277e-05
1.03724e-05
1.2735e-05
2.02237e-05
2.44066e-05
4.79511e-05
0.000758299
0.0377091
0.966084
0.999865
0.999999
0.999999
0.999999
0.999999
0.999999
0.999999
0.999999
0.999999
0.999999
0.999999
0.999999
0.999999
0.999999
0.999999
0.999999
0.999999
0.999999
0.999999
0.999999
0.999999
0.999999
0.999999
0.999999
0.999999
0.999999
0.999999
0.999999
0.999999
0.999999
0.999999
0.999999
0.999999
0.999999
0.999999
1.00016e-05
9.99848e-06
9.99566e-06
1.00015e-05
9.99501e-06
1.00019e-05
9.99499e-06
1.00027e-05
9.99613e-06
1.00017e-05
9.99744e-06
1.00006e-05
9.99853e-06
9.99975e-06
9.99913e-06
9.99947e-06
9.99937e-06
9.99942e-06
9.99943e-06
9.99945e-06
9.99946e-06
9.99948e-06
9.99949e-06
9.99951e-06
9.99953e-06
9.99954e-06
9.99956e-06
9.99958e-06
9.99959e-06
9.99962e-06
9.99956e-06
9.99996e-06
9.99913e-06
1.00012e-05
9.99863e-06
1.0003e-05
9.99821e-06
1.00043e-05
9.99752e-06
1.00056e-05
9.99791e-06
1.00058e-05
9.99833e-06
1.00066e-05
9.99864e-06
1.00073e-05
9.99954e-06
1.00073e-05
9.99943e-06
1.00118e-05
1.00065e-05
1.00173e-05
1.00472e-05
1.07528e-05
1.37676e-05
3.07682e-05
4.23699e-05
5.28709e-05
0.000442525
0.0407249
0.974268
0.999943
0.999999
0.999999
0.999999
0.999999
0.999999
0.999999
0.999999
0.999999
0.999999
0.999999
0.999999
0.999999
0.999999
0.999999
0.999999
0.999999
0.999999
0.999999
0.999999
0.999999
0.999999
0.999999
0.999999
0.999999
0.999999
0.999999
0.999999
0.999999
0.999999
0.999999
0.999999
0.999999
0.999999
0.999999
9.99923e-06
1e-05
9.99457e-06
1.00016e-05
9.99367e-06
1.00018e-05
9.99378e-06
1.00024e-05
9.99463e-06
1.0002e-05
9.99615e-06
1.00008e-05
9.99811e-06
9.99915e-06
9.99841e-06
9.99917e-06
9.99889e-06
9.99903e-06
9.99903e-06
9.99905e-06
9.99908e-06
9.9991e-06
9.99913e-06
9.99915e-06
9.99919e-06
9.99921e-06
9.99923e-06
9.99925e-06
9.99927e-06
9.9993e-06
9.9993e-06
9.99959e-06
9.99913e-06
1.00005e-05
9.99863e-06
1.00022e-05
9.99821e-06
1.0004e-05
9.99752e-06
1.00054e-05
9.99791e-06
1.00057e-05
9.99833e-06
1.00058e-05
9.99864e-06
1.00062e-05
9.99953e-06
1.00062e-05
9.99929e-06
1.00096e-05
1.00065e-05
1.001e-05
1.00417e-05
1.05252e-05
2.12074e-05
5.46415e-05
6.1802e-05
6.63841e-05
0.000288426
0.0735268
0.98274
0.999979
0.999998
0.999999
0.999999
0.999999
0.999999
0.999999
0.999999
0.999999
0.999999
0.999999
0.999999
0.999999
0.999999
0.999999
0.999999
0.999999
0.999999
0.999999
0.999999
0.999999
0.999999
0.999999
0.999999
0.999999
0.999999
0.999999
0.999999
0.999999
0.999999
0.999999
0.999999
0.999999
0.999999
0.999999
9.98522e-06
1.00002e-05
9.99439e-06
1.00018e-05
9.99347e-06
1.00015e-05
9.99372e-06
1.00016e-05
9.99444e-06
1.00017e-05
9.99595e-06
1.00007e-05
9.99811e-06
9.99892e-06
9.99819e-06
9.9992e-06
9.99875e-06
9.99909e-06
9.99905e-06
9.99914e-06
9.99919e-06
9.99925e-06
9.99929e-06
9.99936e-06
9.99943e-06
9.99948e-06
9.99952e-06
9.99957e-06
9.9996e-06
9.99966e-06
9.99965e-06
9.99997e-06
9.99912e-06
1.00013e-05
9.99863e-06
1.00031e-05
9.99822e-06
1.00051e-05
9.99752e-06
1.00069e-05
9.99791e-06
1.00075e-05
9.99833e-06
1.0007e-05
9.99864e-06
1.00059e-05
9.99954e-06
1.00066e-05
9.9993e-06
1.00117e-05
1.00065e-05
1.00187e-05
1.02375e-05
1.34066e-05
5.00997e-05
7.2536e-05
6.96158e-05
6.7823e-05
0.000211688
0.108712
0.974027
0.999735
0.999788
0.999856
0.999886
0.999917
0.999926
0.99994
0.999946
0.999949
0.999961
0.999972
0.999982
0.999989
0.999993
0.999996
0.999998
0.999999
0.999999
0.999999
0.999999
0.999999
0.999999
0.999999
0.999999
0.999999
0.999999
0.999999
0.999999
0.999999
0.999999
0.999999
0.999999
0.999999
0.999999
0.999999
9.95218e-06
9.99604e-06
9.99447e-06
1.00018e-05
9.99352e-06
1.00017e-05
9.99373e-06
1.00021e-05
9.99445e-06
1.00022e-05
9.99595e-06
1.00012e-05
9.99811e-06
9.99928e-06
9.99819e-06
9.99918e-06
9.99859e-06
9.99905e-06
9.99889e-06
9.99896e-06
9.99898e-06
9.99899e-06
9.99901e-06
9.99903e-06
9.99909e-06
9.99911e-06
9.99913e-06
9.99915e-06
9.99918e-06
9.9992e-06
9.9992e-06
9.99944e-06
9.9988e-06
1.00006e-05
9.99863e-06
1.00022e-05
9.99824e-06
1.0004e-05
9.99752e-06
1.00062e-05
9.99791e-06
1.00068e-05
9.99833e-06
1.00067e-05
9.99864e-06
1.00053e-05
9.99953e-06
1.00048e-05
9.99929e-06
1.00109e-05
1.00077e-05
1.01483e-05
1.431e-05
2.76833e-05
5.96526e-05
5.40196e-05
3.60078e-05
2.95863e-05
3.37023e-05
0.130632
0.969375
0.997719
0.997568
0.997671
0.997717
0.997794
0.997792
0.997781
0.99801
0.99824
0.998546
0.998827
0.999066
0.999268
0.999432
0.999555
0.999645
0.999718
0.999785
0.999844
0.999892
0.999929
0.999958
0.999978
0.999989
0.999995
0.999997
0.999999
0.999999
0.999999
0.999999
0.999999
0.999999
0.999999
0.999999
0.999999
9.88521e-06
9.97691e-06
9.99878e-06
1.00021e-05
9.99676e-06
1.00021e-05
9.99644e-06
1.00031e-05
9.99727e-06
1.00036e-05
9.99769e-06
1.00042e-05
9.99879e-06
1.0004e-05
1.00002e-05
1.00031e-05
1.00014e-05
1.00025e-05
1.00021e-05
1.00023e-05
1.00023e-05
1.00024e-05
1.00024e-05
1.00024e-05
1.00025e-05
1.00025e-05
1.00025e-05
1.00026e-05
1.00026e-05
1.00026e-05
1.00026e-05
1.00028e-05
1.00022e-05
1.0004e-05
1.00014e-05
1.00061e-05
9.99988e-06
1.00089e-05
1.00012e-05
1.0009e-05
1.00022e-05
1.00091e-05
1.0002e-05
1.00091e-05
1.00017e-05
1.00087e-05
1.00017e-05
1.00074e-05
1.00003e-05
1.00171e-05
1.04007e-05
1.47046e-05
2.77542e-05
3.0515e-05
3.30468e-05
5.94625e-05
5.6157e-05
5.71771e-05
2.6118e-05
0.212725
0.977334
0.994119
0.993825
0.994197
0.994438
0.994592
0.994693
0.995154
0.995837
0.996533
0.997235
0.997816
0.998309
0.998714
0.998982
0.999085
0.99906
0.999184
0.99922
0.99916
0.999125
0.999116
0.999187
0.999303
0.999378
0.999459
0.999464
0.999451
0.999566
0.999646
0.999782
0.999895
0.999963
0.99999
0.999995
0.999995
9.7651e-06
9.93222e-06
9.99379e-06
1.00013e-05
9.98983e-06
1.00014e-05
9.99061e-06
1.00018e-05
9.99226e-06
1.00032e-05
9.99364e-06
1.0003e-05
9.99566e-06
1.00022e-05
9.99752e-06
1.00018e-05
9.99919e-06
1.0001e-05
1.00002e-05
1.00006e-05
1.00005e-05
1.00005e-05
1.00006e-05
1.00006e-05
1.00006e-05
1.00006e-05
1.00006e-05
1.00006e-05
1.00006e-05
1.00006e-05
1.00005e-05
1.00007e-05
1.00001e-05
1.00015e-05
9.99885e-06
1.00036e-05
9.997e-06
1.00061e-05
9.99751e-06
1.00069e-05
9.99783e-06
1.00078e-05
9.99807e-06
1.00082e-05
9.99842e-06
1.00075e-05
9.99956e-06
1.00051e-05
1.00008e-05
1.04448e-05
2.03588e-05
3.42504e-05
4.29551e-05
3.75977e-05
3.17758e-05
4.64329e-05
5.12834e-05
8.22185e-05
2.6118e-05
0.507208
0.984866
0.987497
0.98765
0.987763
0.987939
0.988072
0.988148
0.988297
0.988591
0.988838
0.989067
0.989405
0.989869
0.990467
0.990928
0.99137
0.991934
0.992484
0.992931
0.99323
0.993373
0.993338
0.993352
0.993483
0.993654
0.9935
0.993194
0.992881
0.992625
0.992454
0.99283
0.993863
0.994511
0.995164
0.996045
0.9971
9.41187e-06
9.88004e-06
9.98823e-06
9.99889e-06
9.98337e-06
1.00013e-05
9.98702e-06
9.99661e-06
9.98892e-06
9.99858e-06
9.99363e-06
9.99561e-06
9.9956e-06
9.99565e-06
9.99565e-06
9.99585e-06
9.99566e-06
9.99757e-06
9.99668e-06
9.99722e-06
9.9971e-06
9.99717e-06
9.9972e-06
9.99729e-06
9.99742e-06
9.99747e-06
9.99751e-06
9.99755e-06
9.99759e-06
9.99762e-06
9.99766e-06
9.99781e-06
9.99732e-06
9.99879e-06
9.99662e-06
1.00002e-05
9.99699e-06
1.00015e-05
9.99751e-06
1.00026e-05
9.99783e-06
1.00043e-05
9.99807e-06
1.00057e-05
9.9984e-06
1.00049e-05
9.99932e-06
1.00013e-05
1.02708e-05
1.90012e-05
3.86089e-05
4.91267e-05
5.22634e-05
5.19945e-05
4.73544e-05
4.07133e-05
3.66017e-05
3.56893e-05
2.6118e-05
0.292166
0.993092
0.996617
0.997118
0.997478
0.997745
0.997908
0.998037
0.998119
0.998186
0.998303
0.998458
0.998656
0.998904
0.999131
0.999282
0.999334
0.999329
0.999311
0.999299
0.999301
0.999371
0.999458
0.999562
0.99965
0.999704
0.999723
0.999723
0.999719
0.999744
0.999824
0.999897
0.999941
0.999961
0.999973
0.999985
0.999995
9.08515e-06
9.85003e-06
9.98577e-06
9.98633e-06
9.98589e-06
1.0002e-05
9.98797e-06
1.00011e-05
9.98894e-06
1.00016e-05
9.99363e-06
9.99702e-06
9.99561e-06
9.99575e-06
9.99565e-06
9.9963e-06
9.99566e-06
9.99698e-06
9.99629e-06
9.99693e-06
9.99666e-06
9.99666e-06
9.99664e-06
9.99663e-06
9.99663e-06
9.99663e-06
9.99662e-06
9.99662e-06
9.99662e-06
9.99662e-06
9.99661e-06
9.99661e-06
9.99661e-06
9.99662e-06
9.99662e-06
9.99714e-06
9.99699e-06
9.99811e-06
9.99751e-06
9.99891e-06
9.99783e-06
1.00004e-05
9.99807e-06
1.00022e-05
9.9984e-06
1.00028e-05
1.00013e-05
1.02479e-05
1.70439e-05
2.99235e-05
3.23389e-05
3.24656e-05
3.2649e-05
3.25269e-05
3.11358e-05
3.12467e-05
3.13898e-05
3.17545e-05
2.6118e-05
0.145007
0.982479
0.999878
0.999927
0.999957
0.999968
0.999977
0.99998
0.999983
0.999986
0.99999
0.999993
0.999996
0.999998
0.999999
0.999999
0.999999
0.999999
0.999999
0.999999
0.999999
0.999999
0.999999
0.999999
0.999999
0.999999
0.999999
0.999999
0.999999
0.999999
0.999999
0.999999
0.999999
0.999999
0.999999
0.999999
0.999999
8.75534e-06
9.7249e-06
9.93611e-06
9.84173e-06
9.98439e-06
1.0002e-05
9.98972e-06
1.00011e-05
9.9901e-06
1.00032e-05
9.99364e-06
1.00016e-05
9.99565e-06
9.99913e-06
9.99567e-06
9.99965e-06
9.99646e-06
9.99921e-06
9.99767e-06
9.99848e-06
9.99812e-06
9.99817e-06
9.99814e-06
9.99812e-06
9.99811e-06
9.9981e-06
9.9981e-06
9.99809e-06
9.99809e-06
9.99808e-06
9.99807e-06
9.9981e-06
9.99793e-06
9.99842e-06
9.99748e-06
9.99955e-06
9.99723e-06
1.00009e-05
9.99752e-06
1.0002e-05
9.99785e-06
1.00038e-05
9.99839e-06
1.00054e-05
9.99926e-06
1.0005e-05
1.00005e-05
1.00323e-05
1.20053e-05
2.24864e-05
2.93476e-05
3.09233e-05
3.18143e-05
3.25692e-05
3.51687e-05
4.00983e-05
4.24534e-05
5.01205e-05
4.81165e-05
0.06515
0.985086
0.999999
0.999999
0.999999
0.999999
0.999999
0.999999
0.999999
0.999999
0.999999
0.999999
0.999999
0.999999
0.999999
0.999999
0.999999
0.999999
0.999999
0.999999
0.999999
0.999999
0.999999
0.999999
0.999999
0.999999
0.999999
0.999999
0.999999
0.999999
0.999999
0.999999
0.999999
0.999999
0.999999
0.999999
0.999999
7.96877e-06
8.83799e-06
9.58346e-06
9.47693e-06
9.95485e-06
1.0002e-05
9.98842e-06
1.00011e-05
9.99131e-06
1.00032e-05
9.99405e-06
1.00038e-05
9.99565e-06
1.00036e-05
9.99584e-06
1.00037e-05
9.99818e-06
1.00021e-05
9.99973e-06
1.00009e-05
1.00004e-05
1.00005e-05
1.00005e-05
1.00005e-05
1.00005e-05
1.00005e-05
1.00005e-05
1.00005e-05
1.00005e-05
1.00005e-05
1.00005e-05
1.00005e-05
1.00003e-05
1.0001e-05
9.99936e-06
1.00025e-05
9.99814e-06
1.00048e-05
9.99802e-06
1.00069e-05
9.99875e-06
1.0008e-05
1e-05
1.00083e-05
1.0001e-05
1.00078e-05
1.00016e-05
1.00071e-05
1.00754e-05
1.22821e-05
1.98738e-05
2.48285e-05
2.76192e-05
2.89432e-05
3.26985e-05
3.35426e-05
3.63738e-05
5.30048e-05
0.000201842
0.0404353
0.969118
0.999999
0.999999
0.999999
0.999999
0.999999
0.999999
0.999999
0.999999
0.999999
0.999999
0.999999
0.999999
0.999999
0.999999
0.999999
0.999999
0.999999
0.999999
0.999999
0.999999
0.999999
0.999999
0.999999
0.999999
0.999999
0.999999
0.999999
0.999999
0.999999
0.999999
0.999999
0.999999
0.999999
0.999999
0.999999
6.66574e-06
7.02728e-06
8.38523e-06
8.76364e-06
9.8591e-06
1.0002e-05
9.98759e-06
1.00011e-05
9.99537e-06
1.00032e-05
9.99747e-06
1.00039e-05
9.99782e-06
1.00041e-05
9.99716e-06
1.00047e-05
9.99928e-06
1.00043e-05
1.00014e-05
1.00029e-05
1.00022e-05
1.00025e-05
1.00024e-05
1.00024e-05
1.00024e-05
1.00024e-05
1.00024e-05
1.00024e-05
1.00025e-05
1.00025e-05
1.00025e-05
1.00025e-05
1.00023e-05
1.0003e-05
1.00014e-05
1.00044e-05
9.99971e-06
1.00071e-05
9.99959e-06
1.00086e-05
1.00013e-05
1.00087e-05
1.00032e-05
1.00087e-05
1.00037e-05
1.00086e-05
1.00028e-05
1.00081e-05
1.00021e-05
1.00681e-05
1.12866e-05
1.43746e-05
1.60619e-05
1.72618e-05
2.43092e-05
2.8882e-05
2.90726e-05
5.93253e-05
0.000394832
0.032367
0.931276
0.999999
0.999999
0.999999
0.999999
0.999999
0.999999
0.999999
0.999999
0.999999
0.999999
0.999999
0.999999
0.999999
0.999999
0.999999
0.999999
0.999999
0.999999
0.999999
0.999999
0.999999
0.999999
0.999999
0.999999
0.999999
0.999999
0.999999
0.999999
0.999999
0.999999
0.999999
0.999999
0.999999
0.999999
0.999999
5.25253e-06
5.1117e-06
6.51529e-06
7.5451e-06
9.62652e-06
9.99993e-06
9.98848e-06
1.00011e-05
9.99673e-06
1.00032e-05
9.99936e-06
1.00041e-05
1.00002e-05
1.00041e-05
9.9992e-06
1.00047e-05
9.9992e-06
1.00054e-05
1.00019e-05
1.00039e-05
1.0003e-05
1.00033e-05
1.00032e-05
1.00033e-05
1.00033e-05
1.00033e-05
1.00033e-05
1.00033e-05
1.00033e-05
1.00033e-05
1.00034e-05
1.00034e-05
1.00033e-05
1.00038e-05
1.00024e-05
1.00053e-05
1.00011e-05
1.00075e-05
1.00014e-05
1.00087e-05
1.00034e-05
1.00087e-05
1.00056e-05
1.00087e-05
1.00052e-05
1.00087e-05
1.00031e-05
1.00094e-05
1.00022e-05
1.00187e-05
1.00236e-05
1.02132e-05
1.25693e-05
1.54457e-05
1.90695e-05
2.60823e-05
3.00025e-05
8.23577e-05
0.000434796
0.0349256
0.937074
0.999999
0.999999
0.999999
0.999999
0.999999
0.999999
0.999999
0.999999
0.999999
0.999999
0.999999
0.999999
0.999999
0.999999
0.999999
0.999999
0.999999
0.999999
0.999999
0.999999
0.999999
0.999999
0.999999
0.999999
0.999999
0.999999
0.999999
0.999999
0.999999
0.999999
0.999999
0.999999
0.999999
0.999999
0.999999
4.17142e-06
3.84696e-06
4.1767e-06
6.19722e-06
9.10964e-06
9.96986e-06
9.98738e-06
1e-05
9.99722e-06
1.00032e-05
1.00012e-05
1.00041e-05
1.00022e-05
1.00041e-05
1.00015e-05
1.00048e-05
9.99977e-06
1.00057e-05
1.00024e-05
1.00047e-05
1.00037e-05
1.00041e-05
1.0004e-05
1.0004e-05
1.0004e-05
1.0004e-05
1.00041e-05
1.00041e-05
1.00041e-05
1.00041e-05
1.00041e-05
1.00041e-05
1.0004e-05
1.00045e-05
1.00037e-05
1.00056e-05
1.00023e-05
1.00079e-05
1.00033e-05
1.00087e-05
1.00058e-05
1.00087e-05
1.0007e-05
1.00087e-05
1.00062e-05
1.00087e-05
1.00041e-05
1.00096e-05
1.00039e-05
1.00181e-05
1.00093e-05
1.00684e-05
1.30221e-05
1.53923e-05
2.04973e-05
2.59961e-05
2.81953e-05
4.1724e-05
0.000205377
0.0283454
0.936812
0.999924
0.999999
0.999999
0.999999
0.999999
0.999999
0.999999
0.999999
0.999999
0.999999
0.999999
0.999999
0.999999
0.999999
0.999999
0.999999
0.999999
0.999999
0.999999
0.999999
0.999999
0.999999
0.999999
0.999999
0.999999
0.999999
0.999999
0.999999
0.999999
0.999999
0.999999
0.999999
0.999999
0.999999
0.999999
2.8461e-06
3.41279e-06
3.54524e-06
5.6173e-06
8.71209e-06
9.93006e-06
9.98843e-06
1.00001e-05
9.99909e-06
1.00037e-05
1.00039e-05
1.00041e-05
1.00041e-05
1.00041e-05
1.00041e-05
1.00048e-05
1.00054e-05
1.00057e-05
1.00057e-05
1.00057e-05
1.00057e-05
1.00057e-05
1.00057e-05
1.00057e-05
1.00057e-05
1.00057e-05
1.00057e-05
1.00057e-05
1.00057e-05
1.00057e-05
1.00056e-05
1.00056e-05
1.00056e-05
1.00056e-05
1.00055e-05
1.0006e-05
1.0006e-05
1.00087e-05
1.00087e-05
1.00087e-05
1.00087e-05
1.00087e-05
1.00087e-05
1.00087e-05
1.00087e-05
1.00087e-05
1.00076e-05
1.00096e-05
1.00093e-05
1.0018e-05
1.00097e-05
1.00668e-05
1.06993e-05
1.75653e-05
5.75116e-05
8.08494e-05
6.48554e-05
4.7653e-05
0.000498958
0.0366528
0.906958
0.998744
0.999996
0.999999
0.999999
0.999999
0.999999
0.999999
0.999999
0.999999
0.999999
0.999999
0.999999
0.999999
0.999999
0.999999
0.999999
0.999999
0.999999
0.999999
0.999999
0.999999
0.999999
0.999999
0.999999
0.999999
0.999999
0.999999
0.999999
0.999999
0.999999
0.999999
0.999999
0.999999
0.999999
0.999999
1e-05
9.99963e-06
9.99921e-06
1.00018e-05
9.99841e-06
1.00017e-05
9.99855e-06
1.00015e-05
9.99937e-06
1.00007e-05
9.99997e-06
1.00002e-05
1.00001e-05
1.00002e-05
1.00001e-05
1.00002e-05
1.00002e-05
1.00002e-05
1.00002e-05
1.00002e-05
1.00002e-05
1.00002e-05
1.00002e-05
1.00002e-05
1.00002e-05
1.00002e-05
1.00002e-05
1.00002e-05
1.00003e-05
1.00003e-05
1.00002e-05
1.00006e-05
9.99942e-06
1.00022e-05
9.99825e-06
1.00043e-05
9.99821e-06
1.00048e-05
9.99752e-06
1.00056e-05
9.99798e-06
1.00065e-05
9.9984e-06
1.00075e-05
9.99974e-06
1.00068e-05
1.00002e-05
1.0006e-05
9.9993e-06
1.00091e-05
1.00066e-05
1.0017e-05
1.0012e-05
1.01068e-05
1.15816e-05
2.81952e-05
3.43037e-05
0.000106478
0.000665961
0.0416269
0.968282
0.999886
0.999999
0.999999
0.999999
0.999999
0.999999
0.999999
0.999999
0.999999
0.999999
0.999999
0.999999
0.999999
0.999999
0.999999
0.999999
0.999999
0.999999
0.999999
0.999999
0.999999
0.999999
0.999999
0.999999
0.999999
0.999999
0.999999
0.999999
0.999999
0.999999
0.999999
0.999999
0.999999
0.999999
0.999999
1.00014e-05
1.00015e-05
9.99951e-06
1.00018e-05
9.99847e-06
1.00021e-05
9.99836e-06
1.00026e-05
9.99903e-06
1.00021e-05
9.99981e-06
1.00013e-05
1.00004e-05
1.00008e-05
1.00006e-05
1.00006e-05
1.00006e-05
1.00006e-05
1.00006e-05
1.00006e-05
1.00006e-05
1.00006e-05
1.00006e-05
1.00007e-05
1.00007e-05
1.00007e-05
1.00007e-05
1.00007e-05
1.00007e-05
1.00007e-05
1.00006e-05
1.00011e-05
1e-05
1.00023e-05
9.99825e-06
1.0005e-05
9.9982e-06
1.00066e-05
9.99752e-06
1.00075e-05
9.99783e-06
1.00076e-05
9.99836e-06
1.00087e-05
9.99975e-06
1.00084e-05
9.99991e-06
1.00066e-05
9.99924e-06
1.00091e-05
1.00065e-05
1.00144e-05
1.00466e-05
1.01387e-05
1.11946e-05
2.01541e-05
2.28807e-05
0.000103879
0.000401989
0.0585711
0.981719
0.999986
0.999999
0.999999
0.999999
0.999999
0.999999
0.999999
0.999999
0.999999
0.999999
0.999999
0.999999
0.999999
0.999999
0.999999
0.999999
0.999999
0.999999
0.999999
0.999999
0.999999
0.999999
0.999999
0.999999
0.999999
0.999999
0.999999
0.999999
0.999999
0.999999
0.999999
0.999999
0.999999
0.999999
0.999999
1.00016e-05
1.00016e-05
1.00007e-05
1.00021e-05
1.00004e-05
1.00021e-05
9.9999e-06
1.00033e-05
1.00001e-05
1.00036e-05
1.00006e-05
1.00035e-05
1.00015e-05
1.00028e-05
1.0002e-05
1.00023e-05
1.00022e-05
1.00022e-05
1.00022e-05
1.00022e-05
1.00022e-05
1.00023e-05
1.00023e-05
1.00023e-05
1.00023e-05
1.00023e-05
1.00023e-05
1.00023e-05
1.00023e-05
1.00024e-05
1.00023e-05
1.00027e-05
1.00016e-05
1.0004e-05
9.99973e-06
1.00068e-05
9.99891e-06
1.00091e-05
1e-05
1.00091e-05
1.00004e-05
1.00091e-05
1.00015e-05
1.00091e-05
1.0003e-05
1.00087e-05
1.00019e-05
1.00073e-05
9.99927e-06
1.00117e-05
1.00065e-05
1.0014e-05
1.01169e-05
1.05622e-05
1.41612e-05
2.11133e-05
4.10333e-05
8.2383e-05
0.000265505
0.0845328
0.986781
0.999999
0.999999
0.999999
0.999999
0.999999
0.999999
0.999999
0.999999
0.999999
0.999999
0.999999
0.999999
0.999999
0.999999
0.999999
0.999999
0.999999
0.999999
0.999999
0.999999
0.999999
0.999999
0.999999
0.999999
0.999999
0.999999
0.999999
0.999999
0.999999
0.999999
0.999999
0.999999
0.999999
0.999999
0.999999
9.98466e-06
1.00016e-05
1.00016e-05
1.00021e-05
1.00017e-05
1.00021e-05
1.00014e-05
1.00033e-05
1.00018e-05
1.00036e-05
1.00018e-05
1.00043e-05
1.00022e-05
1.00045e-05
1.0003e-05
1.0004e-05
1.00035e-05
1.00037e-05
1.00037e-05
1.00037e-05
1.00037e-05
1.00037e-05
1.00037e-05
1.00037e-05
1.00038e-05
1.00038e-05
1.00038e-05
1.00038e-05
1.00038e-05
1.00039e-05
1.00039e-05
1.00042e-05
1.00032e-05
1.00054e-05
1.00017e-05
1.00082e-05
1.00022e-05
1.00091e-05
1.00042e-05
1.00091e-05
1.00048e-05
1.00091e-05
1.00051e-05
1.00091e-05
1.00048e-05
1.00087e-05
1.00053e-05
1.00073e-05
1.00001e-05
1.00127e-05
1.00065e-05
1.00096e-05
1.00731e-05
1.03295e-05
6.26051e-05
8.06052e-05
0.000121266
0.000155553
0.000223835
0.140821
0.990884
0.999829
0.999906
0.999966
0.999981
0.999994
0.999998
0.999999
0.999999
0.999999
0.999999
0.999999
0.999999
0.999999
0.999999
0.999999
0.999999
0.999999
0.999999
0.999999
0.999999
0.999999
0.999999
0.999999
0.999999
0.999999
0.999999
0.999999
0.999999
0.999999
0.999999
0.999999
0.999999
0.999999
0.999999
0.999999
9.88413e-06
1.00011e-05
1.00017e-05
1.00021e-05
1.00021e-05
1.00021e-05
1.00022e-05
1.00033e-05
1.0003e-05
1.00036e-05
1.00033e-05
1.00043e-05
1.00038e-05
1.00049e-05
1.00042e-05
1.00053e-05
1.00048e-05
1.00052e-05
1.00052e-05
1.00052e-05
1.00053e-05
1.00053e-05
1.00054e-05
1.00055e-05
1.00055e-05
1.00055e-05
1.00055e-05
1.00056e-05
1.00056e-05
1.00056e-05
1.00056e-05
1.00058e-05
1.00054e-05
1.0007e-05
1.00052e-05
1.0009e-05
1.0007e-05
1.00091e-05
1.0008e-05
1.00091e-05
1.00084e-05
1.00091e-05
1.00082e-05
1.00091e-05
1.00062e-05
1.00087e-05
1.00073e-05
1.00073e-05
1.0004e-05
1.00127e-05
1.00065e-05
1.00176e-05
1.00712e-05
1.42221e-05
0.000161534
0.000185509
0.000169922
0.000153207
0.000136445
0.323412
0.986097
0.993671
0.994725
0.995974
0.996796
0.997646
0.998223
0.998576
0.998809
0.99898
0.999127
0.999285
0.999441
0.999582
0.999693
0.999781
0.999848
0.999899
0.999934
0.999961
0.999978
0.999989
0.999995
0.999998
0.999999
0.999999
0.999999
0.999999
0.999999
0.999999
0.999999
0.999999
0.999999
0.999999
0.999999
0.999999
9.73011e-06
9.98404e-06
1.0002e-05
1.00021e-05
1.0002e-05
1.00021e-05
1.0002e-05
1.00033e-05
1.00033e-05
1.00036e-05
1.00036e-05
1.00043e-05
1.00043e-05
1.00049e-05
1.00049e-05
1.00054e-05
1.00054e-05
1.00058e-05
1.00058e-05
1.0006e-05
1.0006e-05
1.00061e-05
1.00061e-05
1.00063e-05
1.00064e-05
1.00064e-05
1.00064e-05
1.00064e-05
1.00064e-05
1.00064e-05
1.00064e-05
1.00067e-05
1.0007e-05
1.00072e-05
1.00072e-05
1.0009e-05
1.00089e-05
1.00091e-05
1.00091e-05
1.00091e-05
1.00091e-05
1.00091e-05
1.00091e-05
1.00091e-05
1.00087e-05
1.00087e-05
1.00071e-05
1.00073e-05
1.00026e-05
1.00126e-05
1.00066e-05
1.00756e-05
1.12997e-05
3.23746e-05
0.000159586
0.000186832
0.000169787
0.000131419
3.66391e-05
0.49399
0.965515
0.97118
0.970597
0.971456
0.97215
0.973803
0.975182
0.976496
0.977674
0.978949
0.980252
0.981729
0.983433
0.985211
0.986879
0.988369
0.989778
0.991116
0.992405
0.993763
0.995091
0.996282
0.997313
0.998139
0.998756
0.999195
0.999494
0.999696
0.999838
0.999928
0.999976
0.999995
0.999999
0.999999
0.999999
0.999999
9.51307e-06
9.93522e-06
9.99907e-06
1.00021e-05
9.99352e-06
1.00021e-05
9.9944e-06
1.00031e-05
9.99705e-06
1.00036e-05
9.9978e-06
1.00042e-05
9.99953e-06
1.00038e-05
1.00004e-05
1.00047e-05
1.0002e-05
1.0004e-05
1.00032e-05
1.00035e-05
1.00035e-05
1.00035e-05
1.00035e-05
1.00035e-05
1.00035e-05
1.00036e-05
1.00036e-05
1.00036e-05
1.00036e-05
1.00036e-05
1.00035e-05
1.00036e-05
1.0003e-05
1.00046e-05
1.00022e-05
1.00058e-05
1.00008e-05
1.00081e-05
1.00015e-05
1.00086e-05
1.00024e-05
1.0009e-05
1.00029e-05
1.00091e-05
1.00029e-05
1.00086e-05
1.00016e-05
1.0006e-05
1.00003e-05
1.00081e-05
1.01278e-05
1.21035e-05
1.8414e-05
2.34986e-05
6.86765e-05
0.000168256
0.000160755
0.000135512
2.7254e-05
0.371356
0.950336
0.960807
0.955835
0.953403
0.952223
0.95156
0.950945
0.950395
0.950034
0.949885
0.949888
0.950006
0.950029
0.950256
0.950187
0.949749
0.949323
0.94894
0.94867
0.949559
0.952312
0.955548
0.958962
0.962253
0.96521
0.967782
0.970222
0.972953
0.976294
0.980378
0.985009
0.98973
0.994071
0.997403
0.999064
0.999058
9.10284e-06
9.82044e-06
9.98626e-06
9.99061e-06
9.97994e-06
1.0001e-05
9.98779e-06
9.9991e-06
9.99045e-06
1.00022e-05
9.99364e-06
1.00003e-05
9.99566e-06
9.99814e-06
9.99588e-06
9.99895e-06
9.99661e-06
9.99947e-06
9.99798e-06
9.99861e-06
9.99837e-06
9.99838e-06
9.99834e-06
9.99832e-06
9.99829e-06
9.99826e-06
9.99823e-06
9.9982e-06
9.99818e-06
9.99815e-06
9.99811e-06
9.99817e-06
9.99801e-06
9.99858e-06
9.99754e-06
9.99936e-06
9.997e-06
1.00006e-05
9.99752e-06
1.00014e-05
9.99783e-06
1.00027e-05
9.99807e-06
1.00041e-05
9.99842e-06
1.00041e-05
9.99933e-06
1.00004e-05
1.00013e-05
1.02405e-05
1.47009e-05
2.44692e-05
3.08931e-05
3.21121e-05
2.37744e-05
9.04499e-05
0.000137684
0.000181492
2.6118e-05
0.30447
0.971905
0.981302
0.979391
0.978365
0.976945
0.973914
0.970327
0.966398
0.962197
0.957977
0.954362
0.951509
0.949257
0.947089
0.944476
0.940971
0.936446
0.931371
0.926202
0.921882
0.918923
0.916982
0.915046
0.912188
0.907619
0.900617
0.892679
0.885147
0.878081
0.871115
0.863089
0.853182
0.842421
0.828311
0.788083
0.596244
8.72356e-06
9.52154e-06
9.94308e-06
9.88123e-06
9.97446e-06
1.0002e-05
9.98699e-06
9.99844e-06
9.99066e-06
1.00022e-05
9.99439e-06
1.00007e-05
9.99589e-06
9.99815e-06
9.99588e-06
9.99851e-06
9.99647e-06
9.99948e-06
9.99788e-06
9.9989e-06
9.99852e-06
9.99855e-06
9.9985e-06
9.99845e-06
9.99842e-06
9.99838e-06
9.99835e-06
9.99832e-06
9.9983e-06
9.99828e-06
9.99825e-06
9.99827e-06
9.99801e-06
9.99872e-06
9.99754e-06
9.99938e-06
9.99724e-06
1.00003e-05
9.99753e-06
1.00012e-05
9.99784e-06
1.00023e-05
9.99819e-06
1.00038e-05
9.99881e-06
1.00036e-05
9.99933e-06
1.00015e-05
1.01808e-05
1.38703e-05
2.81021e-05
3.93568e-05
4.1218e-05
4.4125e-05
6.67306e-05
0.000105132
0.000134754
0.000143708
9.7294e-05
0.188084
0.994583
0.998851
0.999011
0.999139
0.999155
0.999025
0.998859
0.998689
0.998474
0.998249
0.998005
0.997875
0.997931
0.998314
0.998411
0.998114
0.997808
0.997588
0.997461
0.997456
0.997481
0.997547
0.9976
0.9976
0.997384
0.996932
0.99635
0.996071
0.996027
0.996311
0.997142
0.997623
0.997932
0.998253
0.998516
0.999544
8.48207e-06
8.91715e-06
9.68222e-06
9.34593e-06
9.94986e-06
1.0002e-05
9.98638e-06
9.99587e-06
9.98894e-06
1.00012e-05
9.99364e-06
1.00007e-05
9.99562e-06
9.99732e-06
9.99566e-06
9.99621e-06
9.99567e-06
9.99706e-06
9.99621e-06
9.99762e-06
9.99709e-06
9.99718e-06
9.99713e-06
9.99709e-06
9.99705e-06
9.99701e-06
9.99697e-06
9.99695e-06
9.99694e-06
9.99694e-06
9.99693e-06
9.99694e-06
9.99684e-06
9.99711e-06
9.99663e-06
9.99757e-06
9.99699e-06
9.99828e-06
9.99751e-06
9.99899e-06
9.99783e-06
1.00002e-05
9.99807e-06
1.00017e-05
9.99839e-06
1.00019e-05
9.99937e-06
1.00092e-05
1.1277e-05
2.0947e-05
2.92036e-05
3.35421e-05
4.40665e-05
5.98146e-05
8.15529e-05
9.14117e-05
9.29429e-05
6.62527e-05
5.09665e-05
0.111661
0.996054
0.999989
0.99999
0.999995
0.999996
0.999995
0.999994
0.999993
0.999992
0.999992
0.999991
0.999991
0.999992
0.999993
0.999993
0.999994
0.999994
0.999994
0.999994
0.999995
0.999996
0.999997
0.999998
0.999999
0.999999
0.999999
0.999999
0.999999
0.999999
0.999999
0.999999
0.999999
0.999999
0.999999
0.999999
0.999999
8.13491e-06
7.80439e-06
8.71043e-06
8.32586e-06
9.76449e-06
9.99973e-06
9.98623e-06
9.99406e-06
9.98902e-06
9.99883e-06
9.99369e-06
1.00006e-05
9.99568e-06
9.99833e-06
9.99566e-06
9.99573e-06
9.99567e-06
9.99634e-06
9.99577e-06
9.99732e-06
9.99673e-06
9.9969e-06
9.99685e-06
9.99683e-06
9.9968e-06
9.99677e-06
9.99673e-06
9.99671e-06
9.9967e-06
9.9967e-06
9.99669e-06
9.99669e-06
9.99669e-06
9.99669e-06
9.99663e-06
9.99717e-06
9.99699e-06
9.99792e-06
9.99751e-06
9.99859e-06
9.99782e-06
9.99979e-06
9.99807e-06
1.00014e-05
9.99837e-06
1.00014e-05
9.9993e-06
9.99934e-06
1.00902e-05
1.20111e-05
1.91385e-05
2.21115e-05
1.83221e-05
2.07223e-05
2.76461e-05
4.6506e-05
5.13409e-05
5.91602e-05
7.42504e-05
0.0536614
0.989809
0.999999
0.999999
0.999999
0.999999
0.999999
0.999999
0.999999
0.999999
0.999999
0.999999
0.999999
0.999999
0.999999
0.999999
0.999999
0.999999
0.999999
0.999999
0.999999
0.999999
0.999999
0.999999
0.999999
0.999999
0.999999
0.999999
0.999999
0.999999
0.999999
0.999999
0.999999
0.999999
0.999999
0.999999
0.999999
7.33079e-06
6.46438e-06
6.77993e-06
7.06511e-06
9.14688e-06
9.96584e-06
9.98368e-06
9.99302e-06
9.98894e-06
9.99545e-06
9.99293e-06
9.9995e-06
9.99577e-06
9.9987e-06
9.99566e-06
9.99625e-06
9.99566e-06
9.99641e-06
9.9957e-06
9.99729e-06
9.99667e-06
9.99691e-06
9.99688e-06
9.99688e-06
9.99687e-06
9.99685e-06
9.99683e-06
9.99681e-06
9.99678e-06
9.99675e-06
9.99673e-06
9.99672e-06
9.99669e-06
9.99698e-06
9.99663e-06
9.99795e-06
9.99699e-06
9.9985e-06
9.99751e-06
9.99916e-06
9.99782e-06
1.00004e-05
9.99807e-06
1.00021e-05
9.99837e-06
1.00022e-05
9.9993e-06
1.0001e-05
1.00005e-05
1.01269e-05
1.14684e-05
1.41929e-05
1.53955e-05
2.62572e-05
3.66823e-05
4.26383e-05
5.77683e-05
7.15152e-05
0.000134817
0.0321901
0.965549
0.999999
0.999999
0.999999
0.999999
0.999999
0.999999
0.999999
0.999999
0.999999
0.999999
0.999999
0.999999
0.999999
0.999999
0.999999
0.999999
0.999999
0.999999
0.999999
0.999999
0.999999
0.999999
0.999999
0.999999
0.999999
0.999999
0.999999
0.999999
0.999999
0.999999
0.999999
0.999999
0.999999
0.999999
0.999999
6.35733e-06
5.58685e-06
5.40178e-06
5.69869e-06
8.18858e-06
9.864e-06
9.98108e-06
9.993e-06
9.98893e-06
9.99348e-06
9.99263e-06
9.99818e-06
9.99577e-06
9.9979e-06
9.99566e-06
9.99671e-06
9.99567e-06