/*--------------------------------*- C++ -*----------------------------------*\
| =========                 |                                                 |
| \\      /  F ield         | OpenFOAM: The Open Source CFD Toolbox           |
|  \\    /   O peration     | Version:  2.3.0                                 |
|   \\  /    A nd           | Web:      www.OpenFOAM.org                      |
|    \\/     M anipulation  |                                                 |
\*---------------------------------------------------------------------------*/
FoamFile
{
    version     2.0;
    format      ascii;
    class       volScalarField;
    location    "3";
    object      nut.water;
}
// * * * * * * * * * * * * * * * * * * * * * * * * * * * * * * * * * * * * * //

dimensions      [0 2 -1 0 0 0 0];

internalField   nonuniform List<scalar> 
6144
(
3.16259e-06
3.09915e-06
3.09685e-06
3.05377e-06
3.0327e-06
3.02347e-06
3.00339e-06
2.99971e-06
2.98761e-06
2.98462e-06
2.97851e-06
2.97596e-06
2.97317e-06
2.97156e-06
2.97039e-06
2.96975e-06
2.96949e-06
2.96955e-06
2.96986e-06
2.97036e-06
2.97103e-06
2.97182e-06
2.97272e-06
2.9737e-06
2.97475e-06
2.97585e-06
2.97698e-06
2.97816e-06
2.97936e-06
2.98059e-06
2.98183e-06
2.98308e-06
2.98434e-06
2.98561e-06
2.98689e-06
2.98814e-06
2.98969e-06
2.99052e-06
2.99369e-06
2.99338e-06
3.00151e-06
2.9996e-06
3.01823e-06
3.01544e-06
3.05015e-06
3.04771e-06
3.10168e-06
3.09932e-06
3.17443e-06
3.16988e-06
3.37629e-06
4.53545e-06
1.05011e-05
2.21864e-05
3.52825e-05
4.58041e-05
5.56817e-05
6.51404e-05
6.75659e-05
7.95701e-05
0.000139025
0.000109868
9.96742e-05
8.70885e-05
7.73402e-05
7.0187e-05
6.64077e-05
6.34616e-05
5.72566e-05
4.50513e-05
3.10322e-05
1.97005e-05
1.25907e-05
8.95588e-06
7.42859e-06
6.86305e-06
6.5789e-06
6.39989e-06
6.23763e-06
6.08492e-06
5.95244e-06
5.81535e-06
5.67491e-06
5.53172e-06
5.37924e-06
5.21847e-06
5.05325e-06
4.88417e-06
4.71175e-06
4.53468e-06
4.35374e-06
4.1694e-06
3.98456e-06
3.80337e-06
3.64274e-06
3.39782e-06
2.83454e-06
2.97551e-06
3.10077e-06
3.08368e-06
3.07604e-06
3.07917e-06
3.05808e-06
3.06542e-06
3.05255e-06
3.05757e-06
3.05265e-06
3.05562e-06
3.05583e-06
3.05851e-06
3.06112e-06
3.06447e-06
3.06821e-06
3.07232e-06
3.07673e-06
3.0814e-06
3.08629e-06
3.09135e-06
3.09656e-06
3.10188e-06
3.10731e-06
3.11282e-06
3.11839e-06
3.12401e-06
3.12968e-06
3.13537e-06
3.1411e-06
3.14684e-06
3.15259e-06
3.15834e-06
3.1641e-06
3.16981e-06
3.1758e-06
3.18108e-06
3.18834e-06
3.19265e-06
3.20377e-06
3.2069e-06
3.22665e-06
3.22942e-06
3.26399e-06
3.26824e-06
3.32227e-06
3.32893e-06
3.40565e-06
3.42355e-06
3.80117e-06
6.73006e-06
1.7437e-05
3.3732e-05
5.02801e-05
6.69386e-05
8.67375e-05
8.66189e-05
8.62337e-05
8.34872e-05
0.000121033
7.16335e-05
6.43303e-05
5.38041e-05
5.20826e-05
5.10468e-05
5.11841e-05
5.22212e-05
5.0578e-05
4.18953e-05
2.87438e-05
1.85647e-05
1.2212e-05
8.99627e-06
7.64484e-06
7.14609e-06
6.8981e-06
6.73742e-06
6.58991e-06
6.44121e-06
6.30487e-06
6.16435e-06
6.02468e-06
5.88419e-06
5.7346e-06
5.57936e-06
5.42244e-06
5.2598e-06
5.09329e-06
4.92051e-06
4.74286e-06
4.55972e-06
4.37514e-06
4.18908e-06
4.02003e-06
3.33383e-06
2.40426e-06
2.54904e-06
2.96502e-06
2.98276e-06
3.05719e-06
3.06799e-06
3.06084e-06
3.07538e-06
3.06706e-06
3.07774e-06
3.07593e-06
3.08324e-06
3.08647e-06
3.09279e-06
3.09861e-06
3.10528e-06
3.11223e-06
3.11956e-06
3.12718e-06
3.13504e-06
3.14312e-06
3.15137e-06
3.15977e-06
3.1683e-06
3.17693e-06
3.18564e-06
3.19442e-06
3.20327e-06
3.21216e-06
3.22108e-06
3.23004e-06
3.23902e-06
3.24801e-06
3.25702e-06
3.26602e-06
3.27503e-06
3.28414e-06
3.29299e-06
3.30305e-06
3.31134e-06
3.3249e-06
3.33244e-06
3.35443e-06
3.36189e-06
3.39874e-06
3.40769e-06
3.46397e-06
3.47619e-06
3.55535e-06
3.58614e-06
4.15606e-06
1.12616e-05
3.81983e-05
6.58624e-05
8.55747e-05
9.04901e-05
9.75717e-05
9.36495e-05
7.08523e-05
6.32312e-05
0.000111707
5.69487e-05
5.64079e-05
4.89772e-05
4.73668e-05
4.52212e-05
4.55699e-05
4.58206e-05
4.2527e-05
3.152e-05
2.09725e-05
1.42305e-05
1.08128e-05
9.27064e-06
8.55151e-06
8.04408e-06
7.64281e-06
7.28822e-06
7.01104e-06
6.77413e-06
6.59888e-06
6.43222e-06
6.27645e-06
6.12488e-06
5.96341e-06
5.80137e-06
5.64008e-06
5.48233e-06
5.32113e-06
5.15104e-06
4.9734e-06
4.78411e-06
4.58943e-06
4.38536e-06
4.18411e-06
3.15487e-06
2.24498e-06
2.4087e-06
2.71402e-06
2.70262e-06
2.89514e-06
2.88801e-06
2.94242e-06
2.9454e-06
2.96249e-06
2.97037e-06
2.98012e-06
2.98929e-06
2.99857e-06
3.00806e-06
3.01789e-06
3.02777e-06
3.03801e-06
3.04832e-06
3.05879e-06
3.06937e-06
3.08006e-06
3.09085e-06
3.10171e-06
3.11265e-06
3.12366e-06
3.13472e-06
3.14583e-06
3.15699e-06
3.16817e-06
3.17939e-06
3.19064e-06
3.20191e-06
3.21319e-06
3.22447e-06
3.23575e-06
3.24721e-06
3.25814e-06
3.27031e-06
3.28116e-06
3.29382e-06
3.30744e-06
3.31982e-06
3.34197e-06
3.35442e-06
3.39089e-06
3.40525e-06
3.45811e-06
3.48013e-06
3.53277e-06
3.70651e-06
7.21301e-06
3.30803e-05
9.26843e-05
0.00011289
0.000109972
0.000112886
0.000106937
8.85834e-05
5.46081e-05
5.33263e-05
0.000103815
5.07761e-05
4.14438e-05
4.64176e-05
4.12676e-05
4.17032e-05
3.85497e-05
3.27999e-05
2.54536e-05
1.94184e-05
1.76765e-05
1.69904e-05
1.65182e-05
1.56552e-05
1.45995e-05
1.33156e-05
1.22521e-05
1.0958e-05
1.00157e-05
9.04036e-06
8.40219e-06
7.76876e-06
7.19271e-06
6.72727e-06
6.33216e-06
6.04478e-06
5.80434e-06
5.60992e-06
5.42564e-06
5.24352e-06
5.06156e-06
4.87208e-06
4.68484e-06
4.48838e-06
4.27238e-06
3.04688e-06
2.2212e-06
2.42603e-06
2.53451e-06
2.46466e-06
2.69109e-06
2.62574e-06
2.73161e-06
2.70233e-06
2.75547e-06
2.74791e-06
2.77992e-06
2.78508e-06
2.80685e-06
2.81809e-06
2.83503e-06
2.8488e-06
2.86406e-06
2.87867e-06
2.89339e-06
2.908e-06
2.92259e-06
2.93714e-06
2.95168e-06
2.96621e-06
2.98075e-06
2.99529e-06
3.00984e-06
3.0244e-06
3.03897e-06
3.05357e-06
3.06819e-06
3.08283e-06
3.09749e-06
3.11217e-06
3.12685e-06
3.14174e-06
3.15626e-06
3.17163e-06
3.18673e-06
3.20207e-06
3.22114e-06
3.23572e-06
3.26497e-06
3.2791e-06
3.32476e-06
3.34017e-06
3.40537e-06
3.42547e-06
3.53587e-06
5.42972e-06
2.52375e-05
8.27914e-05
0.000129139
0.000134905
0.000122045
0.000107746
0.000106687
9.38944e-05
5.04162e-05
5.14595e-05
8.96264e-05
5.10717e-05
4.32718e-05
4.2266e-05
4.03445e-05
3.9771e-05
3.81566e-05
3.75448e-05
3.74296e-05
3.75233e-05
3.75615e-05
3.73704e-05
3.72688e-05
3.62991e-05
3.47468e-05
3.23041e-05
2.97981e-05
2.64443e-05
2.39446e-05
2.15954e-05
2.00831e-05
1.80753e-05
1.59604e-05
1.39178e-05
1.18511e-05
1.01359e-05
8.45226e-06
7.32552e-06
6.37518e-06
5.80541e-06
5.36666e-06
5.06118e-06
4.81788e-06
4.57703e-06
4.43901e-06
3.19014e-06
2.36829e-06
2.62622e-06
2.33857e-06
2.32156e-06
2.43967e-06
2.3472e-06
2.47226e-06
2.40167e-06
2.50063e-06
2.4657e-06
2.53189e-06
2.52501e-06
2.56747e-06
2.57727e-06
2.60496e-06
2.622e-06
2.64314e-06
2.6621e-06
2.68131e-06
2.70008e-06
2.71861e-06
2.73695e-06
2.75514e-06
2.77323e-06
2.79123e-06
2.80916e-06
2.82703e-06
2.84487e-06
2.8627e-06
2.88051e-06
2.89833e-06
2.91616e-06
2.93401e-06
2.95192e-06
2.96988e-06
2.98807e-06
3.00599e-06
3.02464e-06
3.04337e-06
3.06195e-06
3.08503e-06
3.10275e-06
3.13654e-06
3.15339e-06
3.20383e-06
3.22116e-06
3.29013e-06
3.31093e-06
3.55379e-06
9.27047e-06
4.37761e-05
0.000106238
0.000130094
0.000123109
0.000116817
0.000115873
0.000114304
0.000103942
5.5756e-05
5.95715e-05
7.70718e-05
5.70843e-05
5.8244e-05
5.84239e-05
5.97426e-05
6.0497e-05
6.20065e-05
6.40831e-05
6.61007e-05
6.65209e-05
6.67041e-05
6.64882e-05
6.53883e-05
6.17531e-05
5.70969e-05
5.35708e-05
5.02564e-05
4.74528e-05
4.63301e-05
4.46854e-05
4.30837e-05
4.03925e-05
3.70713e-05
3.33402e-05
2.9964e-05
2.70265e-05
2.31567e-05
1.99104e-05
1.57921e-05
1.31475e-05
9.43781e-06
7.24499e-06
5.94866e-06
5.20827e-06
4.78638e-06
3.17497e-06
2.69006e-06
2.96176e-06
2.24886e-06
2.29551e-06
2.23879e-06
2.24347e-06
2.22811e-06
2.22308e-06
2.24877e-06
2.24513e-06
2.28366e-06
2.28717e-06
2.32398e-06
2.33647e-06
2.3662e-06
2.38527e-06
2.40962e-06
2.43135e-06
2.45406e-06
2.47636e-06
2.49865e-06
2.52088e-06
2.54309e-06
2.5653e-06
2.58754e-06
2.6098e-06
2.63213e-06
2.65458e-06
2.67709e-06
2.69961e-06
2.72219e-06
2.74485e-06
2.7676e-06
2.79043e-06
2.81334e-06
2.83647e-06
2.85943e-06
2.88326e-06
2.90696e-06
2.93114e-06
2.95871e-06
2.98225e-06
3.01968e-06
3.04196e-06
3.09541e-06
3.11762e-06
3.18777e-06
3.21472e-06
3.29493e-06
3.93613e-06
1.69006e-05
6.47638e-05
0.000117754
0.000130629
0.000137796
0.000141643
0.000132352
0.000124838
6.45792e-05
7.27312e-05
7.27207e-05
6.92769e-05
7.65466e-05
7.99174e-05
8.35974e-05
8.51759e-05
8.5414e-05
8.50385e-05
8.44177e-05
8.21644e-05
7.97266e-05
7.73841e-05
7.45588e-05
7.09172e-05
6.80637e-05
6.54261e-05
6.35881e-05
6.17511e-05
5.9444e-05
5.57876e-05
5.18359e-05
4.80145e-05
4.58205e-05
4.41479e-05
4.26865e-05
4.1994e-05
3.90894e-05
3.66289e-05
3.25131e-05
2.8796e-05
2.45015e-05
2.10218e-05
1.52596e-05
1.10824e-05
7.26736e-06
4.09234e-06
3.13453e-06
3.46533e-06
2.33445e-06
2.44617e-06
2.21876e-06
2.2706e-06
2.16293e-06
2.20407e-06
2.16958e-06
2.19911e-06
2.20397e-06
2.22313e-06
2.24369e-06
2.25978e-06
2.28545e-06
2.30365e-06
2.32812e-06
2.34924e-06
2.37204e-06
2.39444e-06
2.41717e-06
2.43996e-06
2.4628e-06
2.48566e-06
2.50859e-06
2.53163e-06
2.55477e-06
2.57804e-06
2.60144e-06
2.625e-06
2.6487e-06
2.67255e-06
2.69656e-06
2.72073e-06
2.74506e-06
2.76967e-06
2.79414e-06
2.81956e-06
2.84444e-06
2.87045e-06
2.89783e-06
2.92344e-06
2.9574e-06
2.98225e-06
3.02815e-06
3.05302e-06
3.11519e-06
3.14292e-06
3.22128e-06
3.29708e-06
5.44295e-06
2.58778e-05
7.51472e-05
0.000112281
0.000123492
0.000132983
0.000136104
0.000129636
7.13965e-05
8.12854e-05
7.74808e-05
7.72502e-05
8.22058e-05
8.44055e-05
8.59162e-05
8.85531e-05
8.98542e-05
9.12515e-05
9.21521e-05
9.26366e-05
9.30711e-05
9.35362e-05
9.33923e-05
9.19134e-05
9.06255e-05
8.75484e-05
8.25859e-05
7.48348e-05
6.71707e-05
6.01194e-05
5.40908e-05
5.10938e-05
4.90397e-05
4.67459e-05
4.62684e-05
4.55582e-05
4.24125e-05
3.95611e-05
3.64884e-05
3.38675e-05
2.95554e-05
2.53233e-05
2.1957e-05
1.73371e-05
1.31046e-05
7.04717e-06
3.39096e-06
4.22352e-06
2.62894e-06
2.79078e-06
2.41288e-06
2.58731e-06
2.31478e-06
2.44588e-06
2.29994e-06
2.36697e-06
2.31924e-06
2.35513e-06
2.34816e-06
2.37108e-06
2.38108e-06
2.39971e-06
2.41571e-06
2.43351e-06
2.45147e-06
2.46972e-06
2.48839e-06
2.50724e-06
2.52621e-06
2.54531e-06
2.56456e-06
2.58395e-06
2.60347e-06
2.62311e-06
2.64289e-06
2.6628e-06
2.68283e-06
2.70297e-06
2.72322e-06
2.74358e-06
2.76404e-06
2.78467e-06
2.80529e-06
2.82628e-06
2.84738e-06
2.86849e-06
2.89174e-06
2.91241e-06
2.94096e-06
2.96139e-06
2.99944e-06
3.02094e-06
3.07195e-06
3.09781e-06
3.16022e-06
3.21543e-06
3.86138e-06
1.56974e-05
5.11567e-05
8.62471e-05
0.00010377
0.000100971
0.000103462
0.000104106
6.4245e-05
7.10655e-05
7.53206e-05
5.40047e-05
4.92724e-05
4.87875e-05
4.94407e-05
5.24918e-05
5.72519e-05
6.11866e-05
6.53037e-05
6.7602e-05
6.82349e-05
6.77054e-05
6.4822e-05
5.92804e-05
5.36055e-05
4.7429e-05
4.08414e-05
3.39128e-05
3.00957e-05
2.76484e-05
2.57151e-05
2.40126e-05
2.24316e-05
2.07646e-05
1.93835e-05
1.82228e-05
1.70621e-05
1.60376e-05
1.49532e-05
1.38544e-05
1.27329e-05
1.15989e-05
1.05313e-05
9.64734e-06
8.92293e-06
5.15935e-06
4.04473e-06
4.98191e-06
2.93586e-06
3.06419e-06
2.7522e-06
2.88146e-06
2.64774e-06
2.78944e-06
2.63062e-06
2.73497e-06
2.63745e-06
2.70392e-06
2.65433e-06
2.69204e-06
2.67578e-06
2.69623e-06
2.69882e-06
2.71205e-06
2.72259e-06
2.73492e-06
2.74777e-06
2.76111e-06
2.77494e-06
2.78934e-06
2.80418e-06
2.81939e-06
2.83488e-06
2.85061e-06
2.86655e-06
2.88266e-06
2.89893e-06
2.91531e-06
2.9318e-06
2.94837e-06
2.965e-06
2.98164e-06
2.99868e-06
3.01483e-06
3.0332e-06
3.0481e-06
3.06919e-06
3.08283e-06
3.10856e-06
3.12218e-06
3.15536e-06
3.17145e-06
3.21516e-06
3.23905e-06
3.2915e-06
3.3502e-06
3.72842e-06
1.23996e-05
3.93465e-05
6.87557e-05
8.77135e-05
9.0449e-05
0.000103061
0.000103426
5.71084e-05
5.93183e-05
7.93341e-05
4.2943e-05
3.69005e-05
3.65416e-05
3.34818e-05
3.14662e-05
2.85682e-05
2.70879e-05
2.69169e-05
3.03454e-05
3.86996e-05
4.13215e-05
4.11352e-05
3.65711e-05
3.08242e-05
2.52132e-05
2.12725e-05
1.81023e-05
1.5659e-05
1.40031e-05
1.26441e-05
1.13831e-05
1.04506e-05
9.65531e-06
8.99408e-06
8.37503e-06
7.87744e-06
7.46448e-06
7.11057e-06
6.81275e-06
6.56385e-06
6.40535e-06
6.3193e-06
6.26625e-06
6.15911e-06
4.0215e-06
5.44883e-06
6.55732e-06
3.20451e-06
3.42265e-06
2.95289e-06
3.10123e-06
2.93723e-06
3.03333e-06
2.98849e-06
3.03618e-06
3.03169e-06
3.06079e-06
3.06523e-06
3.08606e-06
3.09627e-06
3.11232e-06
3.1267e-06
3.14101e-06
3.15664e-06
3.17148e-06
3.18691e-06
3.20233e-06
3.21788e-06
3.23335e-06
3.24878e-06
3.26417e-06
3.27951e-06
3.29479e-06
3.31001e-06
3.32518e-06
3.34028e-06
3.35531e-06
3.37025e-06
3.38509e-06
3.3998e-06
3.41433e-06
3.42919e-06
3.44247e-06
3.4589e-06
3.46965e-06
3.48929e-06
3.49739e-06
3.52184e-06
3.52878e-06
3.56024e-06
3.569e-06
3.61118e-06
3.62857e-06
3.68142e-06
3.73956e-06
3.99962e-06
1.02284e-05
2.80967e-05
5.2041e-05
6.90123e-05
7.0478e-05
8.1604e-05
9.21657e-05
5.56497e-05
5.37062e-05
8.85386e-05
4.42181e-05
3.77877e-05
4.36733e-05
3.78467e-05
3.92135e-05
3.66344e-05
3.54329e-05
3.25653e-05
2.78427e-05
1.99402e-05
1.78397e-05
1.86385e-05
1.96405e-05
1.87875e-05
1.65078e-05
1.43312e-05
1.26484e-05
1.1184e-05
1.006e-05
9.27228e-06
8.54779e-06
7.92867e-06
7.3751e-06
6.93506e-06
6.55346e-06
6.22625e-06
5.94644e-06
5.7217e-06
5.5366e-06
5.38846e-06
5.2945e-06
5.21328e-06
5.1607e-06
5.10224e-06
3.40142e-06
7.98719e-06
1.02061e-05
4.4169e-06
4.04852e-06
3.00745e-06
3.23776e-06
3.08336e-06
3.14343e-06
3.17693e-06
3.1528e-06
3.20538e-06
3.19902e-06
3.23744e-06
3.24491e-06
3.27148e-06
3.28521e-06
3.30533e-06
3.3214e-06
3.33862e-06
3.35501e-06
3.37121e-06
3.3872e-06
3.40301e-06
3.41867e-06
3.43419e-06
3.44959e-06
3.46488e-06
3.48007e-06
3.49517e-06
3.51019e-06
3.52514e-06
3.54001e-06
3.55481e-06
3.56955e-06
3.5842e-06
3.59881e-06
3.6134e-06
3.62769e-06
3.6429e-06
3.65633e-06
3.67369e-06
3.68593e-06
3.708e-06
3.71955e-06
3.74978e-06
3.76243e-06
3.8052e-06
3.82328e-06
3.8811e-06
3.92201e-06
4.21381e-06
9.14969e-06
2.36478e-05
4.14897e-05
5.31922e-05
6.24343e-05
7.90889e-05
8.37101e-05
6.07475e-05
5.34526e-05
9.0101e-05
4.75071e-05
4.05597e-05
5.05829e-05
4.37694e-05
4.2573e-05
4.16285e-05
4.00852e-05
3.88295e-05
3.81637e-05
3.71078e-05
3.26503e-05
2.23736e-05
1.4854e-05
1.12469e-05
1.02303e-05
9.77536e-06
9.32812e-06
8.80093e-06
8.25912e-06
7.81747e-06
7.42296e-06
7.06392e-06
6.7379e-06
6.45291e-06
6.20287e-06
5.99133e-06
5.81011e-06
5.66033e-06
5.51733e-06
5.39827e-06
5.33128e-06
5.28711e-06
5.24198e-06
5.24994e-06
3.81294e-06
1.1802e-05
1.52423e-05
6.78162e-06
4.71302e-06
3.17206e-06
3.24904e-06
3.24735e-06
3.1537e-06
3.20821e-06
3.15541e-06
3.21526e-06
3.19848e-06
3.246e-06
3.24472e-06
3.27777e-06
3.28662e-06
3.30899e-06
3.32286e-06
3.33982e-06
3.3549e-06
3.36989e-06
3.3845e-06
3.39882e-06
3.41291e-06
3.42679e-06
3.44052e-06
3.45411e-06
3.46758e-06
3.48096e-06
3.49425e-06
3.50748e-06
3.52064e-06
3.53376e-06
3.54683e-06
3.55987e-06
3.57292e-06
3.58587e-06
3.59891e-06
3.61219e-06
3.62499e-06
3.64022e-06
3.65246e-06
3.67242e-06
3.68446e-06
3.7133e-06
3.72653e-06
3.76927e-06
3.78684e-06
3.84703e-06
3.88075e-06
4.12162e-06
7.83231e-06
2.04224e-05
3.5176e-05
4.3181e-05
6.18342e-05
8.19236e-05
8.67761e-05
7.85188e-05
6.2908e-05
9.57158e-05
5.38722e-05
5.28444e-05
5.04981e-05
5.00988e-05
4.67726e-05
4.60967e-05
4.43694e-05
4.17043e-05
3.9669e-05
3.91368e-05
3.82358e-05
3.4357e-05
2.43261e-05
1.54463e-05
1.0471e-05
8.47144e-06
7.91171e-06
7.62861e-06
7.36933e-06
7.12015e-06
6.88895e-06
6.66422e-06
6.45042e-06
6.24923e-06
6.06109e-06
5.90582e-06
5.76679e-06
5.6451e-06
5.53663e-06
5.45063e-06
5.3982e-06
5.36504e-06
5.33682e-06
5.34427e-06
4.27795e-06
1.43701e-05
1.8411e-05
1.02919e-05
5.68912e-06
3.7102e-06
3.2892e-06
3.30211e-06
3.15187e-06
3.1847e-06
3.12736e-06
3.17756e-06
3.15903e-06
3.20119e-06
3.19682e-06
3.22698e-06
3.23211e-06
3.25185e-06
3.2624e-06
3.27653e-06
3.28852e-06
3.30053e-06
3.31212e-06
3.32341e-06
3.33446e-06
3.34532e-06
3.35601e-06
3.36656e-06
3.377e-06
3.38735e-06
3.39763e-06
3.40783e-06
3.41799e-06
3.42811e-06
3.43819e-06
3.44825e-06
3.45833e-06
3.46834e-06
3.47839e-06
3.48877e-06
3.4986e-06
3.511e-06
3.52038e-06
3.53751e-06
3.54684e-06
3.57314e-06
3.58385e-06
3.62425e-06
3.6396e-06
3.69681e-06
3.72997e-06
3.98784e-06
7.16689e-06
1.74168e-05
2.93141e-05
3.86263e-05
6.04706e-05
8.32914e-05
9.30362e-05
9.09587e-05
7.39584e-05
9.70038e-05
5.9259e-05
7.04173e-05
5.83648e-05
5.39539e-05
5.1509e-05
5.04322e-05
4.78698e-05
4.33318e-05
3.89346e-05
3.70366e-05
3.61393e-05
3.33106e-05
2.55986e-05
1.75437e-05
1.16069e-05
8.57668e-06
7.43583e-06
7.05404e-06
6.83988e-06
6.66509e-06
6.49517e-06
6.32472e-06
6.15907e-06
5.99539e-06
5.83852e-06
5.6844e-06
5.55627e-06
5.43549e-06
5.33226e-06
5.24741e-06
5.1869e-06
5.14304e-06
5.1073e-06
5.09354e-06
4.30442e-06
1.44371e-05
1.81913e-05
1.5481e-05
7.18089e-06
4.59493e-06
3.5036e-06
3.35877e-06
3.1322e-06
3.1507e-06
3.08165e-06
3.11153e-06
3.08991e-06
3.11763e-06
3.1115e-06
3.13282e-06
3.13423e-06
3.14841e-06
3.15482e-06
3.16463e-06
3.17255e-06
3.18058e-06
3.18826e-06
3.19569e-06
3.20293e-06
3.21002e-06
3.21698e-06
3.22384e-06
3.23062e-06
3.23734e-06
3.24401e-06
3.25064e-06
3.25724e-06
3.26383e-06
3.27041e-06
3.27699e-06
3.28356e-06
3.29027e-06
3.29655e-06
3.30419e-06
3.30977e-06
3.32019e-06
3.32483e-06
3.34147e-06
3.34573e-06
3.37362e-06
3.37944e-06
3.42277e-06
3.43398e-06
3.49136e-06
3.52989e-06
3.89809e-06
7.0808e-06
1.45477e-05
2.33233e-05
3.69194e-05
6.03821e-05
8.0567e-05
9.30313e-05
0.00010459
8.81568e-05
0.000107995
6.65877e-05
7.2712e-05
5.82929e-05
5.8142e-05
5.8296e-05
5.67892e-05
5.20631e-05
4.45518e-05
3.66531e-05
3.07226e-05
2.7982e-05
2.54809e-05
2.04414e-05
1.47356e-05
1.03763e-05
7.99059e-06
7.04672e-06
6.69478e-06
6.49109e-06
6.32392e-06
6.15511e-06
5.98655e-06
5.82059e-06
5.65505e-06
5.49312e-06
5.34053e-06
5.19857e-06
5.06717e-06
4.9515e-06
4.85358e-06
4.7783e-06
4.72409e-06
4.68538e-06
4.66643e-06
4.1829e-06
1.15541e-05
9.3964e-06
9.47595e-06
6.67754e-06
4.80782e-06
3.6242e-06
3.37394e-06
3.10082e-06
3.0988e-06
3.01112e-06
3.02214e-06
2.98773e-06
2.99733e-06
2.98517e-06
2.99013e-06
2.98675e-06
2.98838e-06
2.98879e-06
2.98948e-06
2.99037e-06
2.99092e-06
2.99151e-06
2.99194e-06
2.99229e-06
2.99257e-06
2.99279e-06
2.99296e-06
2.99308e-06
2.99318e-06
2.99324e-06
2.99329e-06
2.99331e-06
2.99333e-06
2.99333e-06
2.99333e-06
2.99329e-06
2.99349e-06
2.99294e-06
2.9945e-06
2.99267e-06
2.99836e-06
2.99494e-06
3.00915e-06
3.00551e-06
3.03256e-06
3.03219e-06
3.0724e-06
3.07896e-06
3.12677e-06
3.16031e-06
3.59789e-06
7.18296e-06
1.53674e-05
2.46616e-05
3.83789e-05
5.16194e-05
5.74871e-05
6.22375e-05
6.88758e-05
7.84871e-05
0.000125614
9.72583e-05
8.45065e-05
7.27577e-05
6.64508e-05
6.26556e-05
5.77182e-05
5.04481e-05
4.15868e-05
3.16509e-05
2.29018e-05
1.74321e-05
1.43045e-05
1.15583e-05
9.17964e-06
7.59707e-06
6.75735e-06
6.36358e-06
6.11779e-06
5.92179e-06
5.74331e-06
5.56338e-06
5.38975e-06
5.21937e-06
5.049e-06
4.88157e-06
4.72391e-06
4.57467e-06
4.43702e-06
4.3122e-06
4.20206e-06
4.11021e-06
4.03796e-06
3.98392e-06
3.94942e-06
3.89688e-06
2.62851e-06
2.61944e-06
2.79036e-06
2.76124e-06
2.83412e-06
2.80583e-06
2.83891e-06
2.82085e-06
2.83707e-06
2.82907e-06
2.83653e-06
2.83508e-06
2.83889e-06
2.84047e-06
2.84314e-06
2.84551e-06
2.84794e-06
2.85029e-06
2.85256e-06
2.85472e-06
2.85678e-06
2.85874e-06
2.8606e-06
2.86239e-06
2.8641e-06
2.86576e-06
2.86736e-06
2.86893e-06
2.87046e-06
2.87196e-06
2.87344e-06
2.87493e-06
2.87643e-06
2.87795e-06
2.87949e-06
2.88115e-06
2.88281e-06
2.8844e-06
2.88788e-06
2.88783e-06
2.89793e-06
2.89396e-06
2.91883e-06
2.90921e-06
2.95674e-06
2.94207e-06
3.01609e-06
2.99674e-06
3.09877e-06
3.07659e-06
3.47161e-06
6.13762e-06
1.5795e-05
2.88835e-05
4.27765e-05
5.29489e-05
6.30325e-05
7.07599e-05
7.35472e-05
8.49463e-05
0.000113386
9.69638e-05
9.34911e-05
8.7218e-05
8.09095e-05
7.49875e-05
7.04205e-05
6.56368e-05
5.6635e-05
4.35528e-05
3.02169e-05
1.97698e-05
1.30478e-05
9.39421e-06
7.72496e-06
7.0392e-06
6.66621e-06
6.42967e-06
6.24249e-06
6.08979e-06
5.95967e-06
5.82425e-06
5.68827e-06
5.55126e-06
5.4045e-06
5.24916e-06
5.09002e-06
4.92891e-06
4.76549e-06
4.59898e-06
4.43159e-06
4.26506e-06
4.10287e-06
3.95228e-06
3.82687e-06
3.6596e-06
1.39104e-07
2.0947e-07
4.30555e-07
4.65845e-07
6.20467e-07
6.06086e-07
6.78175e-07
6.59693e-07
6.90528e-07
6.80968e-07
6.94706e-07
6.9272e-07
6.98695e-07
7.00209e-07
7.0328e-07
7.05596e-07
7.07948e-07
7.10116e-07
7.12167e-07
7.14098e-07
7.1592e-07
7.17649e-07
7.19296e-07
7.20878e-07
7.22398e-07
7.23856e-07
7.25229e-07
7.26531e-07
7.27815e-07
7.29108e-07
7.304e-07
7.31683e-07
7.32971e-07
7.34201e-07
7.35406e-07
7.36913e-07
7.37269e-07
7.40079e-07
7.3947e-07
7.42872e-07
7.43373e-07
7.4522e-07
7.50937e-07
7.49164e-07
7.65174e-07
7.57961e-07
7.85904e-07
7.73063e-07
8.05481e-07
7.58554e-07
1.12032e-06
8.25094e-06
4.27676e-05
9.59083e-05
0.000168348
0.000242593
0.000340403
0.000425742
0.000714036
0.000722181
2.02752e-05
3.43494e-05
6.92247e-05
6.32592e-05
6.29376e-05
6.49255e-05
6.58922e-05
6.47925e-05
6.22141e-05
4.2976e-05
2.35561e-05
1.18401e-05
6.68079e-06
4.81458e-06
4.19979e-06
3.96901e-06
3.80806e-06
3.72417e-06
3.65342e-06
3.59783e-06
3.54805e-06
3.47939e-06
3.40533e-06
3.32719e-06
3.23008e-06
3.11646e-06
2.99054e-06
2.8592e-06
2.73501e-06
2.61665e-06
2.50141e-06
2.38917e-06
2.27277e-06
2.15412e-06
2.06772e-06
3.06151e-06
1.10869e-07
1.1852e-07
9.87253e-08
1.10449e-07
1.6444e-07
1.55658e-07
1.92542e-07
1.8074e-07
1.98772e-07
1.92063e-07
2.01224e-07
1.98744e-07
2.0332e-07
2.03431e-07
2.05548e-07
2.06531e-07
2.07679e-07
2.08574e-07
2.09354e-07
2.10005e-07
2.10549e-07
2.11001e-07
2.11373e-07
2.11678e-07
2.1192e-07
2.12111e-07
2.12267e-07
2.12393e-07
2.12492e-07
2.12569e-07
2.12618e-07
2.12641e-07
2.12651e-07
2.12647e-07
2.12642e-07
2.12847e-07
2.1215e-07
2.13357e-07
2.11607e-07
2.13641e-07
2.11525e-07
2.13584e-07
2.12153e-07
2.13775e-07
2.13857e-07
2.1537e-07
2.1474e-07
2.19546e-07
2.02994e-07
1.90233e-07
6.12044e-07
1.69655e-05
0.000112201
0.000186393
0.000247075
0.000252754
0.000319659
0.000373726
0.000428296
0.000383025
1.72634e-05
7.67404e-05
0.000106166
7.88712e-05
5.83839e-05
5.20606e-05
5.26854e-05
5.49564e-05
5.5971e-05
2.99735e-05
1.36202e-05
6.99565e-06
4.59314e-06
3.65087e-06
3.25211e-06
3.03322e-06
2.8523e-06
2.6888e-06
2.55821e-06
2.42654e-06
2.32331e-06
2.22074e-06
2.12337e-06
2.03923e-06
1.95609e-06
1.85515e-06
1.74345e-06
1.61942e-06
1.49973e-06
1.37084e-06
1.23945e-06
1.10624e-06
9.71527e-07
8.5439e-07
7.96773e-07
2.77765e-06
1.39283e-07
2.03503e-07
9.3225e-08
9.41691e-08
9.27489e-08
9.40701e-08
9.30391e-08
9.40255e-08
9.30966e-08
9.38536e-08
9.3307e-08
9.3745e-08
9.35775e-08
9.38169e-08
9.38548e-08
9.40331e-08
9.41601e-08
9.43187e-08
9.44762e-08
9.46394e-08
9.4806e-08
9.49757e-08
9.51478e-08
9.53218e-08
9.54974e-08
9.56742e-08
9.5852e-08
9.60306e-08
9.62102e-08
9.63911e-08
9.65735e-08
9.6757e-08
9.69413e-08
9.71255e-08
9.73132e-08
9.74897e-08
9.77009e-08
9.78476e-08
9.81227e-08
9.82021e-08
9.86348e-08
9.86121e-08
9.93956e-08
9.92758e-08
1.00654e-07
1.00527e-07
1.02602e-07
1.02484e-07
8.58933e-08
2.02308e-07
8.27863e-06
0.000110227
0.000223992
0.0002666
0.000289873
0.000302893
0.00030731
0.000289848
0.000133308
7.59567e-05
1.64021e-05
6.72586e-05
8.8373e-05
6.6394e-05
5.82621e-05
5.79626e-05
5.83982e-05
5.36871e-05
3.71964e-05
2.59067e-05
1.99039e-05
1.62487e-05
1.40368e-05
1.21464e-05
1.08191e-05
9.35797e-06
8.38254e-06
6.7947e-06
5.92252e-06
4.73226e-06
4.01171e-06
3.3049e-06
2.71699e-06
2.25679e-06
1.92962e-06
1.72009e-06
1.56527e-06
1.44383e-06
1.34374e-06
1.2333e-06
1.10471e-06
9.66062e-07
8.40095e-07
7.0802e-07
5.62814e-07
2.58275e-06
1.55509e-07
3.98256e-07
9.40369e-08
1.04398e-07
8.94119e-08
9.28096e-08
8.93408e-08
9.11887e-08
8.93766e-08
9.06601e-08
8.95383e-08
9.04709e-08
8.99257e-08
9.04503e-08
9.03567e-08
9.06588e-08
9.07927e-08
9.10188e-08
9.12293e-08
9.14513e-08
9.16786e-08
9.19103e-08
9.21455e-08
9.2384e-08
9.26249e-08
9.2868e-08
9.3113e-08
9.33588e-08
9.36053e-08
9.3853e-08
9.41016e-08
9.43511e-08
9.46008e-08
9.48501e-08
9.51021e-08
9.53421e-08
9.56202e-08
9.58222e-08
9.61724e-08
9.62942e-08
9.68092e-08
9.68238e-08
9.76747e-08
9.76021e-08
9.89968e-08
9.89479e-08
1.00912e-07
9.59121e-08
8.35665e-08
3.21557e-06
6.57871e-05
0.000203224
0.000276365
0.000290482
0.000254856
0.000219533
0.000174474
0.000148083
3.25632e-05
1.97534e-05
1.58734e-05
6.16316e-05
8.12724e-05
7.29853e-05
7.84135e-05
7.85421e-05
8.12171e-05
8.13974e-05
8.02737e-05
7.6766e-05
7.38834e-05
7.08271e-05
6.88917e-05
6.59813e-05
6.25286e-05
5.81486e-05
5.28795e-05
4.57002e-05
4.0588e-05
3.41515e-05
2.98398e-05
2.42232e-05
1.73918e-05
1.16959e-05
7.62202e-06
5.0108e-06
3.21723e-06
2.16126e-06
1.51465e-06
1.26047e-06
1.07528e-06
9.14058e-07
7.71132e-07
6.12182e-07
5.75973e-07
2.9518e-06
4.08233e-07
7.5989e-07
1.10912e-07
1.55984e-07
9.23429e-08
1.10527e-07
8.99645e-08
9.96745e-08
8.94822e-08
9.48341e-08
8.95313e-08
9.25645e-08
8.99418e-08
9.16471e-08
9.06315e-08
9.14364e-08
9.13579e-08
9.17633e-08
9.20643e-08
9.24338e-08
9.28277e-08
9.32436e-08
9.36785e-08
9.41305e-08
9.45982e-08
9.50797e-08
9.55742e-08
9.60816e-08
9.66e-08
9.71246e-08
9.76553e-08
9.81909e-08
9.87307e-08
9.92714e-08
9.98165e-08
1.00343e-07
1.00931e-07
1.01384e-07
1.02076e-07
1.02395e-07
1.03258e-07
1.03438e-07
1.04547e-07
1.04687e-07
1.06052e-07
1.06424e-07
1.07713e-07
9.62477e-08
1.63357e-07
8.38922e-06
0.000105358
0.000224985
0.000269062
0.00022231
0.000196573
0.000178991
0.000136365
9.69101e-05
1.18373e-05
1.7747e-05
1.79786e-05
8.34474e-05
0.00010831
0.000106172
0.000117907
0.000121896
0.000127315
0.000128481
0.000127803
0.000127049
0.00012554
0.000123279
0.00012113
0.000119513
0.000115292
0.000111735
0.000108055
0.000103358
9.95983e-05
9.44806e-05
8.96462e-05
8.36145e-05
7.40679e-05
6.28958e-05
5.08395e-05
4.0394e-05
3.06598e-05
2.24297e-05
1.30632e-05
8.60177e-06
4.02931e-06
1.94473e-06
1.39355e-06
1.11876e-06
8.62768e-07
2.83988e-06
8.81812e-07
1.13014e-06
1.82368e-07
2.92957e-07
1.24798e-07
1.68978e-07
1.14687e-07
1.40937e-07
1.12345e-07
1.27624e-07
1.11548e-07
1.20467e-07
1.12056e-07
1.16909e-07
1.13331e-07
1.1568e-07
1.14945e-07
1.15995e-07
1.16576e-07
1.17457e-07
1.18419e-07
1.19459e-07
1.20561e-07
1.21718e-07
1.22923e-07
1.2417e-07
1.25449e-07
1.2676e-07
1.281e-07
1.29466e-07
1.30851e-07
1.32253e-07
1.33668e-07
1.35087e-07
1.36518e-07
1.37901e-07
1.39426e-07
1.40625e-07
1.42371e-07
1.43218e-07
1.4532e-07
1.45697e-07
1.48281e-07
1.483e-07
1.5135e-07
1.51461e-07
1.54729e-07
1.56539e-07
1.43263e-07
2.69031e-07
1.606e-05
0.000148375
0.000240358
0.000261061
0.000245516
0.000209287
0.000145109
0.000104319
1.31429e-05
2.11407e-05
2.69631e-05
9.25414e-05
0.000114793
0.000122612
0.000127188
0.000133027
0.000134538
0.000134388
0.000133279
0.000129648
0.000127167
0.000124545
0.000124099
0.000122295
0.000121632
0.00012114
0.000120526
0.000118851
0.000116617
0.000109123
0.000102551
9.69048e-05
9.15253e-05
8.66202e-05
8.11996e-05
7.45354e-05
6.55303e-05
5.66629e-05
4.71761e-05
3.82492e-05
2.89953e-05
2.03454e-05
1.1639e-05
5.8466e-06
2.32352e-06
5.09284e-06
1.96183e-06
1.50232e-06
3.74423e-07
6.20257e-07
2.15883e-07
2.88905e-07
1.82469e-07
2.1906e-07
1.7764e-07
1.97861e-07
1.75872e-07
1.88136e-07
1.76606e-07
1.84086e-07
1.7939e-07
1.83687e-07
1.83219e-07
1.85774e-07
1.87454e-07
1.8973e-07
1.92136e-07
1.94665e-07
1.97288e-07
2e-07
2.02789e-07
2.05635e-07
2.08533e-07
2.11479e-07
2.14475e-07
2.17518e-07
2.20596e-07
2.23697e-07
2.26814e-07
2.29939e-07
2.33075e-07
2.36175e-07
2.39385e-07
2.42287e-07
2.4579e-07
2.47986e-07
2.5249e-07
2.5322e-07
2.59671e-07
2.58554e-07
2.67748e-07
2.64973e-07
2.78483e-07
2.75095e-07
2.95746e-07
2.87349e-07
7.04621e-07
2.71382e-05
0.000141917
0.000199163
0.000210519
0.000196959
0.000176043
0.000103847
1.64236e-05
2.44448e-05
3.24282e-05
9.68818e-05
0.000112328
0.000109737
0.000102535
9.39359e-05
8.96846e-05
8.79979e-05
8.58282e-05
8.45117e-05
8.4149e-05
8.99312e-05
9.70732e-05
0.000100685
0.000106576
0.000112305
0.000116161
0.000117902
0.000118008
0.000108733
9.84083e-05
9.19487e-05
8.47993e-05
7.81768e-05
7.32985e-05
6.8956e-05
6.23974e-05
5.67642e-05
5.03453e-05
4.38374e-05
3.67884e-05
3.07492e-05
2.39592e-05
1.79877e-05
1.20717e-05
3.08541e-06
2.32424e-06
2.54889e-06
6.90421e-07
1.01858e-06
4.43436e-07
4.45251e-07
3.49298e-07
3.53289e-07
3.00894e-07
3.21669e-07
2.93822e-07
3.07604e-07
2.92153e-07
3.02638e-07
2.96547e-07
3.036e-07
3.03991e-07
3.09082e-07
3.12983e-07
3.1793e-07
3.23258e-07
3.2889e-07
3.34757e-07
3.40865e-07
3.47181e-07
3.53674e-07
3.6035e-07
3.67181e-07
3.74172e-07
3.81333e-07
3.88631e-07
3.96029e-07
4.03511e-07
4.11052e-07
4.1865e-07
4.26296e-07
4.33885e-07
4.41369e-07
4.49292e-07
4.55459e-07
4.65475e-07
4.68422e-07
4.82668e-07
4.80832e-07
5.02162e-07
4.9417e-07
5.28868e-07
5.12849e-07
5.77167e-07
5.52788e-07
8.01318e-07
2.05933e-05
0.000111561
0.000162967
0.000192929
0.000184303
0.000184164
0.000174199
3.25653e-05
3.65448e-05
2.27431e-05
5.90596e-05
6.87093e-05
5.94388e-05
5.92569e-05
5.6774e-05
5.53654e-05
5.12384e-05
4.81872e-05
4.13047e-05
3.15654e-05
2.2795e-05
1.78189e-05
1.27371e-05
1.1175e-05
1.10864e-05
1.16697e-05
1.27675e-05
1.38957e-05
1.4578e-05
1.46266e-05
1.42655e-05
1.3784e-05
1.28095e-05
1.14435e-05
1.01281e-05
9.00954e-06
7.98443e-06
6.99801e-06
6.2211e-06
5.4844e-06
4.87123e-06
4.387e-06
4.1417e-06
4.40615e-06
7.32417e-06
3.7338e-06
4.1278e-06
1.21976e-06
1.4017e-06
7.24825e-07
5.20785e-07
4.82452e-07
4.33733e-07
4.33401e-07
4.14091e-07
4.15378e-07
4.1086e-07
4.13495e-07
4.1723e-07
4.1995e-07
4.26984e-07
4.31628e-07
4.39228e-07
4.46267e-07
4.54205e-07
4.62492e-07
4.7111e-07
4.80005e-07
4.89148e-07
4.98531e-07
5.08159e-07
5.18039e-07
5.28105e-07
5.38343e-07
5.48742e-07
5.59245e-07
5.69795e-07
5.80371e-07
5.90966e-07
6.01577e-07
6.12276e-07
6.23036e-07
6.33332e-07
6.45432e-07
6.52916e-07
6.69549e-07
6.71987e-07
6.95035e-07
6.90591e-07
7.24756e-07
7.11249e-07
7.68007e-07
7.40452e-07
8.59117e-07
8.22334e-07
9.18876e-07