/*--------------------------------*- C++ -*----------------------------------*\
| =========                 |                                                 |
| \\      /  F ield         | OpenFOAM: The Open Source CFD Toolbox           |
|  \\    /   O peration     | Version:  2.3.0                                 |
|   \\  /    A nd           | Web:      www.OpenFOAM.org                      |
|    \\/     M anipulation  |                                                 |
\*---------------------------------------------------------------------------*/
FoamFile
{
    version     2.0;
    format      ascii;
    class       surfaceScalarField;
    location    "3";
    object      phi;
}
// * * * * * * * * * * * * * * * * * * * * * * * * * * * * * * * * * * * * * //

dimensions      [0 3 -1 0 0 0 0];

internalField   nonuniform List<scalar> 
16448
(
-2.92e-06
-1.51107e-06
4.86235e-07
-1.97414e-06
-1.57116e-06
6.2531e-07
-1.62892e-06
-1.23512e-06
8.89905e-07
-1.21282e-06
-1.33476e-06
9.18654e-07
-1.10974e-06
-1.05044e-06
9.47355e-07
-8.95439e-07
-1.178e-06
9.63695e-07
-8.501e-07
-1.00102e-06
9.55676e-07
-7.10926e-07
-1.10277e-06
9.63596e-07
-6.68213e-07
-9.97209e-07
9.54499e-07
-5.70139e-07
-1.05463e-06
9.56563e-07
-5.24876e-07
-9.95478e-07
9.50225e-07
-4.57329e-07
-1.01653e-06
9.48991e-07
-4.13165e-07
-9.89366e-07
9.45211e-07
-3.66241e-07
-9.90162e-07
9.43247e-07
-3.28892e-07
-9.78162e-07
9.40825e-07
-2.95403e-07
-9.72448e-07
9.38971e-07
-2.67106e-07
-9.65512e-07
9.37231e-07
-2.42925e-07
-9.59884e-07
9.35718e-07
-2.22443e-07
-9.54848e-07
9.34385e-07
-2.05126e-07
-9.50519e-07
9.33218e-07
-1.90497e-07
-9.46808e-07
9.32199e-07
-1.78124e-07
-9.43662e-07
9.31308e-07
-1.67613e-07
-9.41019e-07
9.30526e-07
-1.58615e-07
-9.38821e-07
9.29842e-07
-1.50818e-07
-9.37022e-07
9.29245e-07
-1.43944e-07
-9.35579e-07
9.28724e-07
-1.37741e-07
-9.34457e-07
9.28274e-07
-1.31976e-07
-9.33635e-07
9.2789e-07
-1.26406e-07
-9.3306e-07
9.27508e-07
-1.20798e-07
-9.32811e-07
9.27223e-07
-1.1419e-07
-9.33385e-07
9.26795e-07
-1.10413e-07
-9.31201e-07
9.27444e-07
-9.84737e-08
-9.37859e-07
9.25937e-07
-9.68804e-08
-9.29091e-07
9.27518e-07
-7.73136e-08
-9.45723e-07
9.26173e-07
-7.66872e-08
-9.27902e-07
9.27295e-07
-4.61091e-08
-9.58298e-07
9.27736e-07
-4.37335e-08
-9.29653e-07
9.27297e-07
7.24494e-10
-9.75512e-07
9.31069e-07
1.96638e-08
-9.45073e-07
9.26153e-07
6.22351e-08
-9.83339e-07
9.40782e-07
1.30328e-07
-9.94133e-07
9.26058e-07
1.83288e-07
-1.0009e-06
9.47948e-07
2.93946e-07
-1.04522e-06
9.3458e-07
3.87076e-07
-1.04985e-06
9.56732e-07
5.54164e-07
-1.11762e-06
9.5055e-07
7.2343e-07
-1.13772e-06
9.68457e-07
9.71771e-07
-1.22076e-06
9.72437e-07
1.26082e-06
-1.27619e-06
9.87142e-07
1.66154e-06
-1.38806e-06
9.87354e-07
2.1025e-06
-1.46057e-06
1.01961e-06
2.90169e-06
-1.73195e-06
9.32761e-07
3.65411e-06
-1.80682e-06
1.05439e-06
5.47165e-06
-2.48554e-06
6.67991e-07
5.92824e-06
-1.9284e-06
1.47179e-06
8.08948e-06
-3.00183e-06
8.40563e-07
5.99784e-06
-3.42892e-07
2.43449e-06
1.07929e-05
1.26598e-06
-6.0611e-06
-1.06954e-05
1.22226e-05
9.26549e-06
-5.44521e-07
-3.11321e-06
-7.03773e-06
2.77004e-05
-3.11529e-05
2.90797e-06
3.73384e-05
-1.82274e-05
8.58941e-06
3.66725e-05
-9.18167e-06
9.84754e-06
3.72193e-05
-7.54944e-06
7.00269e-06
3.72832e-05
-4.9393e-06
4.87534e-06
3.70637e-05
-3.35706e-06
3.57661e-06
3.61825e-05
-1.93826e-06
2.81943e-06
3.46258e-05
-7.00129e-07
2.25687e-06
3.18198e-05
3.14707e-07
2.49121e-06
2.90304e-05
8.56446e-07
1.93298e-06
2.66178e-05
1.95315e-06
4.59474e-07
2.19664e-05
4.06321e-06
5.88146e-07
1.51058e-05
4.61027e-06
2.25032e-06
1.00228e-05
2.6304e-06
2.45264e-06
7.68937e-06
6.34796e-07
1.69863e-06
6.67878e-06
-3.37271e-07
1.34786e-06
6.12968e-06
-7.59404e-07
1.3085e-06
5.72742e-06
-9.53964e-07
1.35623e-06
5.34936e-06
-1.02509e-06
1.40315e-06
4.98342e-06
-1.07626e-06
1.4422e-06
4.6315e-06
-1.11674e-06
1.46866e-06
4.29233e-06
-1.14628e-06
1.48545e-06
3.96746e-06
-1.17254e-06
1.49741e-06
3.65682e-06
-1.19489e-06
1.50553e-06
3.3606e-06
-1.21455e-06
1.51078e-06
3.07862e-06
-1.23261e-06
1.51458e-06
2.80864e-06
-1.24718e-06
1.51716e-06
2.5451e-06
-1.25372e-06
1.51726e-06
2.27929e-06
-1.24851e-06
1.51433e-06
2.00431e-06
-1.23394e-06
1.50891e-06
1.71605e-06
-1.21288e-06
1.50115e-06
1.41034e-06
-1.18571e-06
1.49142e-06
1.08696e-06
-1.1566e-06
1.47998e-06
7.42026e-07
-1.1227e-06
1.46764e-06
3.80052e-07
-1.09459e-06
1.45657e-06
-1.06314e-06
1.44319e-06
-3.24895e-06
-2.45893e-06
-2.45197e-07
-2.1418e-06
-2.61529e-06
-6.30229e-08
-1.81727e-06
-1.87708e-06
3.17426e-07
-1.39337e-06
-2.11822e-06
3.59547e-07
-1.30556e-06
-1.58335e-06
4.45091e-07
-1.07545e-06
-1.85891e-06
4.50796e-07
-1.02833e-06
-1.51631e-06
4.68171e-07
-8.67984e-07
-1.73299e-06
4.69879e-07
-8.21157e-07
-1.51658e-06
4.72551e-07
-7.0258e-07
-1.64799e-06
4.74788e-07
-6.51197e-07
-1.52095e-06
4.74102e-07
-5.64416e-07
-1.57954e-06
4.76246e-07
-5.15766e-07
-1.51346e-06
4.75457e-07
-4.57304e-07
-1.52501e-06
4.76403e-07
-4.15387e-07
-1.49601e-06
4.75946e-07
-3.75784e-07
-1.48819e-06
4.76155e-07
-3.43395e-07
-1.47385e-06
4.75969e-07
-3.15607e-07
-1.46356e-06
4.75911e-07
-2.92246e-07
-1.45399e-06
4.75808e-07
-2.72581e-07
-1.44587e-06
4.75719e-07
-2.56043e-07
-1.43896e-06
4.75638e-07
-2.42112e-07
-1.43313e-06
4.75569e-07
-2.30332e-07
-1.42828e-06
4.75513e-07
-2.20309e-07
-1.42429e-06
4.75474e-07
-2.1169e-07
-1.42106e-06
4.7545e-07
-2.04153e-07
-1.41852e-06
4.75436e-07
-1.97402e-07
-1.41661e-06
4.75433e-07
-1.91174e-07
-1.41528e-06
4.75446e-07
-1.8516e-07
-1.41449e-06
4.75448e-07
-1.79099e-07
-1.4143e-06
4.75459e-07
-1.7301e-07
-1.4148e-06
4.75355e-07
-1.66527e-07
-1.41377e-06
4.76119e-07
-1.57265e-07
-1.42166e-06
4.74571e-07
-1.51504e-07
-1.41192e-06
4.771e-07
-1.35115e-07
-1.43636e-06
4.74272e-07
-1.30181e-07
-1.41045e-06
4.77645e-07
-1.02447e-07
-1.46073e-06
4.74722e-07
-9.64566e-08
-1.41325e-06
4.77629e-07
-5.21091e-08
-1.49593e-06
4.76098e-07
-4.1101e-08
-1.43296e-06
4.76904e-07
2.5701e-08
-1.53176e-06
4.81646e-07
6.32879e-08
-1.50387e-06
4.72172e-07
1.47297e-07
-1.57312e-06
4.88234e-07
2.33565e-07
-1.60691e-06
4.75441e-07
3.57142e-07
-1.66781e-06
4.94402e-07
5.0197e-07
-1.74888e-06
4.86445e-07
6.99901e-07
-1.84203e-06
5.06398e-07
9.03143e-07
-1.94079e-06
5.16787e-07
1.22379e-06
-2.12625e-06
5.29415e-07
1.45052e-06
-2.195e-06
5.80213e-07
1.9318e-06
-2.51232e-06
5.7047e-07
2.04103e-06
-2.47856e-06
6.3737e-07
2.65975e-06
-3.08601e-06
6.60454e-07
2.77821e-06
-2.8695e-06
2.65465e-07
3.73247e-06
-4.05051e-06
1.16782e-06
6.24965e-06
-5.30289e-06
-2.16173e-07
6.27145e-06
-2.47482e-06
2.11009e-06
1.4457e-05
4.68189e-07
-7.38791e-06
-5.83166e-06
2.25869e-05
9.92398e-06
-1.0719e-07
-4.52967e-06
-4.30823e-06
1.61942e-05
-4.30836e-05
-4.37082e-06
1.6106e-05
-2.45505e-05
6.41137e-06
1.22708e-05
-1.0462e-05
5.11546e-06
1.16006e-05
-6.8137e-06
-6.55375e-08
1.16717e-05
-2.92736e-06
-2.08303e-06
1.33251e-05
-2.19931e-06
-2.81115e-06
1.40453e-05
-1.41389e-07
-2.51708e-06
1.44868e-05
1.12163e-06
-2.26322e-06
1.4861e-05
2.85235e-06
-2.91187e-06
1.52202e-05
4.4302e-06
-3.93297e-06
1.49619e-05
5.78024e-06
-3.56881e-06
1.28062e-05
7.01815e-06
-7.99193e-07
9.81315e-06
6.01543e-06
1.5879e-06
8.15667e-06
3.26432e-06
1.02255e-06
7.39851e-06
1.17294e-06
2.20017e-07
6.93012e-06
6.23802e-08
6.87391e-08
6.53964e-06
-5.26645e-07
1.57722e-07
6.16264e-06
-8.4551e-07
2.68543e-07
5.79006e-06
-1.02148e-06
3.68973e-07
5.41125e-06
-1.14589e-06
4.48442e-07
5.04032e-06
-1.2464e-06
5.00591e-07
4.67772e-06
-1.3202e-06
5.36526e-07
4.32733e-06
-1.38593e-06
5.63773e-07
3.98888e-06
-1.43931e-06
5.82869e-07
3.66674e-06
-1.48922e-06
5.9681e-07
3.36417e-06
-1.53752e-06
6.0747e-07
3.08192e-06
-1.5796e-06
6.14676e-07
2.81141e-06
-1.60143e-06
6.1822e-07
2.53721e-06
-1.59505e-06
6.20729e-07
2.25051e-06
-1.56968e-06
6.22441e-07
1.94474e-06
-1.53097e-06
6.23863e-07
1.61302e-06
-1.48029e-06
6.26291e-07
1.25201e-06
-1.42453e-06
6.28942e-07
8.53876e-07
-1.36003e-06
6.35466e-07
4.36339e-07
-1.3169e-06
6.39845e-07
-1.27254e-06
6.45735e-07
-3.13226e-06
-2.94366e-06
-7.81491e-07
-1.89068e-06
-3.20141e-06
-6.55458e-07
-1.66335e-06
-2.0477e-06
-5.6715e-08
-1.28395e-06
-2.4546e-06
-4.30324e-08
-1.25352e-06
-1.71027e-06
9.64848e-08
-1.03583e-06
-2.1573e-06
8.06847e-08
-1.01434e-06
-1.66095e-06
1.2314e-07
-8.49112e-07
-2.00726e-06
1.09028e-07
-8.1403e-07
-1.67769e-06
1.26032e-07
-6.87017e-07
-1.89385e-06
1.18865e-07
-6.45415e-07
-1.68893e-06
1.26389e-07
-5.53392e-07
-1.79493e-06
1.23373e-07
-5.11401e-07
-1.68183e-06
1.26397e-07
-4.48049e-07
-1.7135e-06
1.25155e-07
-4.10683e-07
-1.65984e-06
1.26485e-07
-3.70475e-07
-1.6545e-06
1.2613e-07
-3.40158e-07
-1.63046e-06
1.2632e-07
-3.13557e-07
-1.61619e-06
1.26055e-07
-2.91542e-07
-1.60175e-06
1.25774e-07
-2.73102e-07
-1.58966e-06
1.25373e-07
-2.57704e-07
-1.57923e-06
1.24909e-07
-2.44821e-07
-1.57038e-06
1.24388e-07
-2.34004e-07
-1.56289e-06
1.23823e-07
-2.24864e-07
-1.55662e-06
1.23218e-07
-2.17049e-07
-1.55142e-06
1.22578e-07
-2.10251e-07
-1.5472e-06
1.21911e-07
-2.04197e-07
-1.54386e-06
1.21224e-07
-1.98636e-07
-1.54133e-06
1.20523e-07
-1.93318e-07
-1.53957e-06
1.19793e-07
-1.88004e-07
-1.53865e-06
1.19059e-07
-1.82559e-07
-1.53848e-06
1.18268e-07
-1.76853e-07
-1.53758e-06
1.18125e-07
-1.6862e-07
-1.54583e-06
1.15963e-07
-1.63371e-07
-1.53471e-06
1.1757e-07
-1.48971e-07
-1.56477e-06
1.14046e-07
-1.44529e-07
-1.53171e-06
1.16842e-07
-1.20124e-07
-1.59806e-06
1.12954e-07
-1.15277e-07
-1.5338e-06
1.15729e-07
-7.50475e-08
-1.64878e-06
1.12646e-07
-6.79791e-08
-1.5545e-06
1.14499e-07
2.22719e-09
-1.71552e-06
1.13572e-07
1.14419e-08
-1.62635e-06
1.13284e-07
1.06513e-07
-1.78721e-06
1.19043e-07
1.72702e-07
-1.78453e-06
1.11453e-07
2.96531e-07
-1.91759e-06
1.2596e-07
4.24698e-07
-1.99881e-06
1.21777e-07
6.19333e-07
-2.17379e-06
1.3714e-07
8.02606e-07
-2.28309e-06
1.59045e-07
1.12067e-06
-2.60304e-06
1.58732e-07
1.28408e-06
-2.61648e-06
2.58076e-07
1.79369e-06
-3.23038e-06
2.08444e-07
1.82604e-06
-3.04118e-06
5.30262e-07
2.50062e-06
-4.18476e-06
4.24158e-07
2.1998e-06
-3.90322e-06
1.33452e-06
4.70331e-06
-7.37612e-06
8.22071e-07
8.6335e-06
-1.06958e-05
1.46274e-06
1.02868e-05
-5.50898e-06
1.38082e-06
1.71907e-05
-3.27643e-06
-3.15939e-06
-7.10609e-06
2.72476e-05
1.96355e-05
1.84548e-07
-1.20895e-05
2.68989e-07
1.03098e-05
-4.57971e-05
-7.41181e-06
2.58495e-06
-2.18635e-05
5.03784e-06
-1.54558e-07
-1.31129e-05
5.39039e-06
-1.47945e-06
-5.32922e-06
-1.59597e-07
3.21326e-06
-3.57846e-06
-4.0416e-06
2.90538e-06
-6.69919e-07
-1.22151e-06
3.77158e-06
-8.80801e-07
-1.26792e-07
3.46964e-06
1.02296e-06
4.0061e-07
2.6439e-06
3.39144e-06
2.86654e-07
2.26452e-06
4.88028e-06
-7.07023e-08
2.32778e-06
5.63886e-06
7.81271e-08
3.32679e-06
5.42155e-06
5.97584e-07
4.93313e-06
4.20778e-06
2.01315e-07
6.17254e-06
2.6589e-06
-6.33994e-07
6.72171e-06
1.44985e-06
-8.26081e-07
6.7853e-06
6.77961e-07
-6.79175e-07
6.63657e-06
1.04557e-07
-4.82465e-07
6.36924e-06
-2.58921e-07
-3.19268e-07
6.04856e-06
-5.11535e-07
-1.8927e-07
5.68839e-06
-6.87403e-07
-9.83114e-08
5.33627e-06
-8.55236e-07
-3.90472e-08
4.98928e-06
-9.76112e-07
2.89874e-09
4.63437e-06
-1.07302e-06
4.20056e-08
4.28332e-06
-1.15167e-06
6.34115e-08
3.9485e-06
-1.23322e-06
7.8821e-08
3.63968e-06
-1.31852e-06
8.98323e-08
3.34966e-06
-1.38705e-06
9.74658e-08
3.06904e-06
-1.42457e-06
1.03751e-07
2.77405e-06
-1.41081e-06
1.10752e-07
2.46057e-06
-1.37156e-06
1.1536e-07
2.12346e-06
-1.31758e-06
1.23724e-07
1.75717e-06
-1.2514e-06
1.37406e-07
1.35879e-06
-1.18356e-06
1.57418e-07
9.23905e-07
-1.11412e-06
1.88969e-07
4.71233e-07
-1.09129e-06
2.27061e-07
-1.07558e-06
2.7427e-07
-2.92142e-06
-3.13954e-06
-1.09212e-06
-1.60739e-06
-3.49098e-06
-1.02447e-06
-1.51412e-06
-1.88234e-06
-2.58639e-07
-1.18766e-06
-2.51431e-06
-2.66766e-07
-1.21983e-06
-1.58989e-06
-8.82334e-08
-1.01721e-06
-2.23088e-06
-1.29057e-07
-1.01539e-06
-1.59885e-06
-6.39296e-08
-8.41864e-07
-2.08578e-06
-9.49994e-08
-8.13508e-07
-1.64269e-06
-6.33492e-08
-6.74887e-07
-1.95251e-06
-7.99503e-08
-6.38719e-07
-1.65985e-06
-6.52286e-08
-5.38259e-07
-1.82383e-06
-7.15314e-08
-5.03469e-07
-1.65042e-06
-6.61832e-08
-4.35744e-07
-1.71299e-06
-6.82181e-08
-4.04179e-07
-1.62422e-06
-6.71571e-08
-3.61871e-07
-1.62862e-06
-6.81676e-08
-3.35054e-07
-1.58895e-06
-6.8297e-08
-3.09662e-07
-1.57236e-06
-6.9193e-08
-2.89547e-07
-1.55177e-06
-7.00734e-08
-2.72781e-07
-1.53522e-06
-7.11807e-08
-2.58944e-07
-1.52066e-06
-7.23849e-08
-2.47472e-07
-1.50813e-06
-7.36878e-08
-2.37928e-07
-1.49734e-06
-7.50669e-08
-2.29944e-07
-1.48806e-06
-7.65084e-08
-2.23191e-07
-1.48014e-06
-7.80012e-08
-2.17381e-07
-1.47344e-06
-7.9536e-08
-2.12263e-07
-1.46784e-06
-8.11067e-08
-2.0761e-07
-1.46325e-06
-8.27047e-08
-2.03183e-07
-1.45964e-06
-8.43309e-08
-1.988e-07
-1.45701e-06
-8.59894e-08
-1.9432e-07
-1.45521e-06
-8.77212e-08
-1.89632e-07
-1.45325e-06
-8.89838e-08
-1.83088e-07
-1.46053e-06
-9.18108e-08
-1.78876e-07
-1.44738e-06
-9.15199e-08
-1.67456e-07
-1.48048e-06
-9.56816e-08
-1.63981e-07
-1.44087e-06
-9.42831e-08
-1.44516e-07
-1.51854e-06
-9.89521e-08
-1.41396e-07
-1.43959e-06
-9.72996e-08
-1.09306e-07
-1.57941e-06
-1.01432e-07
-1.05591e-07
-1.45783e-06
-1.00363e-07
-5.14551e-08
-1.66677e-06
-1.02854e-07
-4.80231e-08
-1.52747e-06
-1.02294e-07
4.40865e-08
-1.778e-06
-1.01299e-07
7.12358e-08
-1.70864e-06
-1.03023e-07
1.9528e-07
-1.94675e-06
-9.48571e-08
2.9573e-07
-2.00667e-06
-9.25818e-08
4.81386e-07
-2.27909e-06
-8.03358e-08
6.87618e-07
-2.44198e-06
-4.73365e-08
9.95131e-07
-2.86683e-06
-4.37064e-08
1.35593e-06
-3.06405e-06
8.67665e-08
1.85428e-06
-3.79707e-06
6.83354e-08
2.44699e-06
-4.09831e-06
4.64395e-07
3.2252e-06
-5.56257e-06
5.99577e-07
4.83519e-06
-7.06286e-06
1.5496e-06
8.21023e-06
-1.12806e-05
5.29436e-07
1.37389e-05
-1.78221e-05
1.59749e-06
2.02946e-05
-7.80709e-06
-4.2575e-06
2.28268e-05
-5.1349e-06
-6.73921e-07
-2.58026e-06
2.87687e-05
2.38852e-05
-7.93266e-08
-1.12329e-05
-3.35763e-06
5.10543e-06
-4.28235e-05
-8.15822e-06
-5.95915e-06
-1.6435e-05
5.63616e-06
-8.16627e-06
-1.43861e-05
3.48038e-06
-9.10723e-06
-6.96485e-06
2.57659e-06
-7.58953e-06
-5.12962e-06
3.34611e-08
-8.06199e-06
-9.42741e-07
7.45282e-07
-8.68669e-06
-1.7803e-06
1.52419e-06
-8.83275e-06
-7.67929e-08
1.24581e-06
-7.19778e-06
8.30987e-07
9.25477e-07
-4.70369e-06
2.12373e-06
2.62467e-07
-1.71842e-06
2.90507e-06
-2.51479e-07
1.06841e-06
3.45532e-06
-8.20595e-07
3.57006e-06
3.0886e-06
-1.38248e-06
5.15765e-06
2.66258e-06
-1.59126e-06
6.02862e-06
2.07425e-06
-1.49537e-06
6.36868e-06
1.60874e-06
-1.27084e-06
6.41373e-06
1.12504e-06
-1.06553e-06
6.27879e-06
7.59451e-07
-8.8343e-07
6.06208e-06
4.58323e-07
-7.53156e-07
5.78243e-06
2.59585e-07
-6.67338e-07
5.4683e-06
7.82528e-08
-6.19362e-07
5.09998e-06
-3.10867e-08
-5.76701e-07
4.73167e-06
-1.75413e-07
-5.29306e-07
4.3464e-06
-2.85563e-07
-4.80833e-07
3.99185e-06
-4.57917e-07
-4.20756e-07
3.68279e-06
-6.50646e-07
-3.58825e-07
3.45566e-06
-8.6637e-07
-2.93547e-07
3.25336e-06
-9.7787e-07
-2.44397e-07
3.01725e-06
-9.57982e-07
-2.16712e-07
2.75042e-06
-8.94653e-07
-2.10083e-07
2.43861e-06
-7.8487e-07
-2.2091e-07
2.08855e-06
-6.74031e-07
-2.27307e-07
1.69059e-06
-5.59971e-07
-2.25636e-07
1.21651e-06
-4.38625e-07
-2.01418e-07
6.72243e-07
-3.82221e-07
-1.64802e-07
-2.8333e-07
-1.20003e-07
-2.63352e-06
-2.98164e-06
-1.25998e-06
-1.42197e-06
-3.52311e-06
-1.17942e-06
-1.45389e-06
-1.44172e-06
-4.08712e-07
-1.18046e-06
-2.31108e-06
-4.76688e-07
-1.2572e-06
-1.2606e-06
-2.5257e-07
-1.04931e-06
-2.08751e-06
-3.51279e-07
-1.04856e-06
-1.35992e-06
-2.39693e-07
-8.54092e-07
-1.96773e-06
-3.12512e-07
-8.21349e-07
-1.43175e-06
-2.43669e-07
-6.6684e-07
-1.82048e-06
-2.86522e-07
-6.31015e-07
-1.44747e-06
-2.48189e-07
-5.21348e-07
-1.66453e-06
-2.68951e-07
-4.9147e-07
-1.42934e-06
-2.50929e-07
-4.19652e-07
-1.52551e-06
-2.5928e-07
-3.94705e-07
-1.39634e-06
-2.52806e-07
-3.5075e-07
-1.41644e-06
-2.5611e-07
-3.29136e-07
-1.35552e-06
-2.55014e-07
-3.04621e-07
-1.3401e-06
-2.56747e-07
-2.87201e-07
-1.31143e-06
-2.57723e-07
-2.72535e-07
-1.29042e-06
-2.59434e-07
-2.60662e-07
-1.27118e-06
-2.61318e-07
-2.50918e-07
-1.25438e-06
-2.63463e-07
-2.42914e-07
-1.23954e-06
-2.65767e-07
-2.36319e-07
-1.22643e-06
-2.68197e-07
-2.30829e-07
-1.21485e-06
-2.70747e-07
-2.26186e-07
-1.20465e-06
-2.73404e-07
-2.22174e-07
-1.19566e-06
-2.76154e-07
-2.18591e-07
-1.18782e-06
-2.78978e-07
-2.15265e-07
-1.18106e-06
-2.81867e-07
-2.12045e-07
-1.17538e-06
-2.84814e-07
-2.08743e-07
-1.17066e-06
-2.8782e-07
-2.05276e-07
-1.1662e-06
-2.90484e-07
-2.00626e-07
-1.17056e-06
-2.94593e-07
-1.97687e-07
-1.15447e-06
-2.95814e-07
-1.89647e-07
-1.18691e-06
-3.01582e-07
-1.87623e-07
-1.14161e-06
-3.01248e-07
-1.74276e-07
-1.22339e-06
-3.08471e-07
-1.73332e-07
-1.13368e-06
-3.06815e-07
-1.51986e-07
-1.2858e-06
-3.1493e-07
-1.52014e-07
-1.14536e-06
-3.12408e-07
-1.16765e-07
-1.38169e-06
-3.20311e-07
-1.20246e-07
-1.20675e-06
-3.17199e-07
-5.05205e-08
-1.52355e-06
-3.24158e-07
-6.54892e-08
-1.37501e-06
-3.18634e-07
5.72382e-08
-1.74696e-06
-3.22511e-07
8.6154e-08
-1.72496e-06
-3.10592e-07
2.4989e-07
-2.1366e-06
-3.06231e-07
4.06929e-07
-2.33042e-06
-2.68584e-07
6.32647e-07
-2.83664e-06
-2.55911e-07
8.901e-07
-3.19148e-06
-1.30008e-07
1.07949e-06
-3.85711e-06
-1.29371e-07
9.56439e-07
-4.21278e-06
2.37517e-07
8.87876e-07
-5.83015e-06
3.36104e-07
1.09325e-06
-7.87704e-06
6.08776e-07
3.08346e-06
-9.28713e-06
-3.98377e-06
-2.81913e-06
-9.87913e-06
-2.04037e-06
9.13217e-06
-1.02416e-05
-9.51672e-06
1.0331e-05
-5.06646e-06
-1.26742e-06
-1.18943e-06
1.9512e-05
2.07762e-05
1.0596e-06
-9.37088e-06
-4.1111e-06
2.30919e-06
-3.44236e-05
-9.64932e-06
-9.46665e-06
-8.98018e-06
4.32104e-06
-1.33246e-05
-1.14538e-05
9.25653e-07
-1.49714e-05
-6.40231e-06
1.0842e-06
-1.46999e-05
-5.05544e-06
-3.45631e-07
-1.34364e-05
-2.93547e-06
7.29281e-07
-1.36085e-05
-2.96725e-06
1.35901e-06
-1.27067e-05
-1.8188e-06
8.40271e-07
-1.13844e-05
-4.73918e-07
-1.74466e-08
-9.60214e-06
1.61203e-06
-1.27053e-06
-7.00813e-06
2.44783e-06
-2.13676e-06
-4.5165e-06
3.41631e-06
-2.45262e-06
-2.28814e-06
3.27335e-06
-2.41311e-06
-6.59401e-07
3.18258e-06
-2.14874e-06
4.77845e-07
2.75777e-06
-1.82077e-06
1.20272e-06
2.35103e-06
-1.46716e-06
1.75669e-06
1.75209e-06
-1.18102e-06
2.11141e-06
1.30032e-06
-8.95582e-07
2.48628e-06
8.87315e-07
-8.03865e-07
2.84626e-06
6.21913e-07
-7.22308e-07
3.21537e-06
3.96596e-07
-6.87456e-07
3.44972e-06
4.23732e-07
-6.89173e-07
3.59972e-06
3.63895e-07
-6.89305e-07
3.61499e-06
3.5942e-07
-6.60253e-07
3.58149e-06
1.85636e-07
-6.10059e-07
3.51627e-06
-4.85563e-08
-5.36871e-07
3.45166e-06
-3.62719e-07
-4.39043e-07
3.36455e-06
-5.11906e-07
-3.78851e-07
3.19232e-06
-4.43937e-07
-3.41814e-07
2.95389e-06
-3.35542e-07
-3.20682e-07
2.60764e-06
-1.20221e-07
-3.18406e-07
2.18237e-06
8.30468e-08
-3.31801e-07
1.64804e-06
3.13442e-07
-3.39089e-07
1.00621e-06
5.1831e-07
-3.15103e-07
4.90092e-07
4.25084e-07
-2.91188e-07
3.94708e-07
-1.87947e-07
-2.42992e-06
-2.34997e-06
-1.3168e-06
-1.41119e-06
-3.2971e-06
-1.24474e-06
-1.57719e-06
-6.58476e-07
-6.17272e-07
-1.3328e-06
-1.84658e-06
-7.08905e-07
-1.39785e-06
-6.83869e-07
-5.11709e-07
-1.14804e-06
-1.67665e-06
-6.60683e-07
-1.11423e-06
-8.75667e-07
-5.18072e-07
-8.8226e-07
-1.56489e-06
-6.34798e-07
-8.28722e-07
-9.55745e-07
-5.29534e-07
-6.54482e-07
-1.38911e-06
-6.05592e-07
-6.11938e-07
-9.50349e-07
-5.39644e-07
-4.94623e-07
-1.19997e-06
-5.81855e-07
-4.67044e-07
-9.10251e-07
-5.4665e-07
-3.93448e-07
-1.03222e-06
-5.6685e-07
-3.74403e-07
-8.6278e-07
-5.52577e-07
-3.30931e-07
-8.98653e-07
-5.61224e-07
-3.15627e-07
-8.1224e-07
-5.58557e-07
-2.92225e-07
-8.00607e-07
-5.62859e-07
-2.79045e-07
-7.60089e-07
-5.64493e-07
-2.67074e-07
-7.34486e-07
-5.67868e-07
-2.57815e-07
-7.09012e-07
-5.71391e-07
-2.50312e-07
-6.86359e-07
-5.75487e-07
-2.44316e-07
-6.65889e-07
-5.79614e-07
-2.39563e-07
-6.47394e-07
-5.83751e-07
-2.35744e-07
-6.306e-07
-5.88039e-07
-2.32609e-07
-6.15239e-07
-5.9251e-07
-2.30004e-07
-6.01154e-07
-5.97079e-07
-2.27762e-07
-5.8833e-07
-6.017e-07
-2.25739e-07
-5.76668e-07
-6.06381e-07
-2.23821e-07
-5.66153e-07
-6.11113e-07
-2.21873e-07
-5.56733e-07
-6.15835e-07
-2.19988e-07
-5.47832e-07
-6.2022e-07
-2.1732e-07
-5.47144e-07
-6.26041e-07
-2.16283e-07
-5.26645e-07
-6.28829e-07
-2.11541e-07
-5.5494e-07
-6.36668e-07
-2.12165e-07
-5.03724e-07
-6.37236e-07
-2.0514e-07
-5.83198e-07
-6.47175e-07
-2.0781e-07
-4.8538e-07
-6.45608e-07
-1.98431e-07
-6.37688e-07
-6.57452e-07
-2.03946e-07
-4.86046e-07
-6.53779e-07
-1.91419e-07
-7.27628e-07
-6.66553e-07
-2.03184e-07
-5.34185e-07
-6.60789e-07
-1.80325e-07
-8.74445e-07
-6.71932e-07
-2.05161e-07
-6.86311e-07
-6.6386e-07
-1.50979e-07
-1.13394e-06
-6.67173e-07
-1.81545e-07
-1.04157e-06
-6.52819e-07
-4.91432e-08
-1.64011e-06
-6.28861e-07
-2.82507e-08
-1.7641e-06
-5.87209e-07
2.18193e-07
-2.5747e-06
-5.08362e-07
3.31317e-07
-2.96213e-06
-3.42482e-07
5.13192e-07
-3.8257e-06
-2.13274e-07
-1.95363e-07
-3.77929e-06
2.75041e-07
-2.05399e-06
-4.66069e-06
6.89158e-07
-6.87198e-06
-4.26078e-06
1.20168e-06
-1.84082e-05
5.61276e-06
-3.36373e-06
-2.81542e-05
4.34984e-06
-4.48301e-06
-4.29076e-05
1.08901e-05
-6.37821e-06
-4.1619e-05
-2.26644e-06
-4.08885e-06
-5.26633e-07
-2.60908e-05
4.50986e-06
1.5701e-06
-9.81562e-06
-1.65179e-06
9.05884e-07
-2.69848e-05
-6.77412e-06
-1.40295e-05
9.78988e-07
4.97667e-06
-2.24229e-05
-4.77313e-06
1.71308e-06
-2.67849e-05
-3.52088e-06
1.48109e-06
-2.76182e-05
-3.96829e-06
-2.53438e-07
-2.78027e-05
-2.36166e-06
-3.8893e-07
-2.82886e-05
-2.08903e-06
-3.91933e-07
-2.78946e-05
-1.17608e-06
-1.03628e-06
-2.66978e-05
3.67589e-08
-1.70707e-06
-2.4778e-05
1.97097e-06
-2.2784e-06
-2.2879e-05
2.99872e-06
-2.44971e-06
-2.07697e-05
3.57306e-06
-2.26581e-06
-1.88213e-05
3.38224e-06
-2.0571e-06
-1.70848e-05
3.31372e-06
-1.86748e-06
-1.54413e-05
2.74783e-06
-1.63344e-06
-1.40195e-05
2.32723e-06
-1.39796e-06
-1.27852e-05
1.80495e-06
-1.28713e-06
-1.17483e-05
1.56397e-06
-1.30041e-06
-1.07896e-05
1.25511e-06
-1.32651e-06
-9.83299e-06
9.18118e-07
-1.25279e-06
-8.7028e-06
4.67164e-07
-1.20074e-06
-7.37539e-06
2.70561e-07
-1.17423e-06
-6.03262e-06
1.97001e-07
-1.17586e-06
-4.73668e-06
1.94701e-07
-1.13122e-06
-3.5097e-06
4.61577e-08
-1.0875e-06
-2.3605e-06
-1.91866e-07
-1.00589e-06
-1.34238e-06
-4.29906e-07
-9.50933e-07
-4.05988e-07
-5.03444e-07
-9.44859e-07
4.39775e-07
-2.75509e-07
-1.01419e-06
1.145e-06
-5.92065e-09
-1.03485e-06
1.67136e-06
4.13413e-07
-1.05999e-06
1.99271e-06
7.77107e-07
-1.01541e-06
1.98937e-06
1.2289e-06
-9.1212e-07
1.65084e-06
1.63467e-06
-7.77838e-07
1.14341e-06
1.49585e-06
-5.63339e-07
1.74889e-06
-2.10771e-07
-2.52968e-06
-1.16213e-06
-1.2119e-06
-1.67725e-06
-2.8026e-06
-1.34695e-06
-1.92404e-06
3.76718e-07
-7.88421e-07
-1.63741e-06
-1.22925e-06
-9.04001e-07
-1.61066e-06
1.09905e-07
-8.2054e-07
-1.30928e-06
-1.05886e-06
-9.19181e-07
-1.18715e-06
-1.37828e-07
-8.59955e-07
-9.35158e-07
-8.95517e-07
-9.2136e-07
-8.26311e-07
-1.83841e-07
-8.80728e-07
-6.51791e-07
-6.48961e-07
-9.14651e-07
-5.86755e-07
-1.30924e-07
-8.84434e-07
-4.74908e-07
-4.03025e-07
-9.08766e-07
-4.41102e-07
-5.70188e-08
-8.87009e-07
-3.72942e-07
-1.96751e-07
-9.03608e-07
-3.54734e-07
1.06583e-08
-8.91616e-07
-3.12924e-07
-3.87005e-08
-9.01735e-07
-3.02798e-07
7.69109e-08
-8.99244e-07
-2.81068e-07
8.32101e-08
-9.05518e-07
-2.72575e-07
1.38817e-07
-9.07366e-07
-2.62988e-07
1.67636e-07
-9.11678e-07
-2.56248e-07
1.99168e-07
-9.14887e-07
-2.50971e-07
2.26877e-07
-9.1848e-07
-2.46917e-07
2.52124e-07
-9.22032e-07
-2.43785e-07
2.75026e-07
-9.25518e-07
-2.41355e-07
2.95878e-07
-9.28875e-07
-2.39523e-07
3.15018e-07
-9.32053e-07
-2.38242e-07
3.32665e-07
-9.35067e-07
-2.37286e-07
3.48988e-07
-9.38239e-07
-2.36641e-07
3.6411e-07
-9.41391e-07
-2.36218e-07
3.77942e-07
-9.44479e-07
-2.35733e-07
3.90331e-07
-9.47517e-07
-2.35312e-07
4.02002e-07
-9.50218e-07
-2.3455e-07
4.0616e-07
-9.54035e-07
-2.35605e-07
4.29144e-07
-9.54694e-07
-2.33941e-07
4.03287e-07
-9.59862e-07
-2.37425e-07
4.5836e-07
-9.5856e-07
-2.36006e-07
3.79528e-07
-9.64119e-07
-2.42337e-07
4.83013e-07
-9.62023e-07
-2.44782e-07
3.30395e-07
-9.65615e-07
-2.56336e-07
4.89855e-07
-9.64308e-07
-2.68216e-07
2.46817e-07
-9.62551e-07
-2.90758e-07
4.51772e-07
-9.63385e-07
-3.18493e-07
1.03527e-07
-9.50233e-07
-3.63194e-07
3.10166e-07
-9.5175e-07
-4.18173e-07
-1.63592e-07
-9.15366e-07
-4.83894e-07
-7.16099e-08
-9.04218e-07
-5.58323e-07
-7.62698e-07
-8.02983e-07
-5.72967e-07
-1.00145e-06
-7.47984e-07
-4.86449e-07
-2.23047e-06
-4.30757e-07
-1.26118e-07
-3.07877e-06
-2.43674e-07
9.79355e-07
-5.28159e-06
3.50394e-07
1.14479e-06
-4.88668e-06
9.41945e-07
5.73832e-07
-5.3046e-06
1.21483e-06
-4.48155e-06
-1.55095e-06
2.34552e-06
1.55312e-06
2.11321e-06
-2.5352e-06
8.20369e-07
7.08751e-06
-2.005e-06
1.18955e-05
2.78944e-06
-2.97454e-06
1.2903e-05
-1.21542e-06
-2.05874e-06
7.01775e-06
-2.23138e-05
2.10729e-06
1.36012e-06
-6.26613e-06
2.10849e-06
-1.06544e-05
-1.82558e-05
3.28638e-06
-1.97679e-05
3.84312e-06
6.25048e-06
-3.1481e-05
1.4776e-06
5.46347e-06
-3.83494e-05
8.08194e-07
2.54058e-06
-4.14019e-05
-1.27939e-06
3.6477e-07
-4.30551e-05
-8.33831e-07
1.26518e-07
-4.37341e-05
-7.4145e-07
-6.67485e-07
-4.25111e-05
-9.0096e-07
-1.4971e-06
-4.01131e-05
-5.71653e-07
-1.78862e-06
-3.66511e-05
4.46946e-07
-1.93731e-06
-3.34828e-05
1.45344e-06
-1.62244e-06
-3.07586e-05
2.18419e-06
-1.33481e-06
-2.84604e-05
2.23431e-06
-1.14992e-06
-2.63775e-05
2.1186e-06
-8.87525e-07
-2.45813e-05
1.47686e-06
-5.24965e-07
-2.30205e-05
9.54961e-07
-1.88439e-07
-2.1363e-05
3.28936e-07
-1.8124e-07
-1.98103e-05
1.07811e-07
-9.64389e-08
-1.84236e-05
-1.06241e-07
-2.51896e-08
-1.71715e-05
-3.96987e-07
6.32051e-08
-1.61338e-05
-6.79851e-07
1.09486e-07
-1.49861e-05
-1.06312e-06
1.86129e-07
-1.38484e-05
-1.13648e-06
1.95939e-07
-1.29042e-05
-1.02746e-06
2.78129e-07
-1.23988e-05
-8.01331e-07
3.42156e-07
-1.20564e-05
-8.84031e-07
3.4991e-07
-1.16016e-05
-9.82147e-07
9.7471e-08
-1.08131e-05
-1.14615e-06
-1.45661e-07
-9.62135e-06
-1.06094e-06
-4.0622e-07
-7.96912e-06
-9.72404e-07
-6.85683e-07
-5.99841e-06
-6.03253e-07
-9.54007e-07
-3.93218e-06
-9.48439e-08
-1.19425e-06
-1.93349e-06
6.40403e-07
-1.41019e-06
-3.20111e-07
1.59808e-06
-1.57679e-06
4.37437e-07
2.29649e-06
-1.55819e-06
2.80784e-06
-6.21512e-07
-2.70669e-06
4.85409e-07
-7.55688e-07
-2.06594e-06
-2.05955e-06
-1.38382e-06
-2.44092e-06
1.50051e-06
-7.48843e-07
-2.00349e-06
-7.53497e-07
-9.13199e-07
-1.87115e-06
8.82036e-07
-9.04491e-07
-1.46414e-06
-5.38201e-07
-9.27669e-07
-1.24615e-06
6.63876e-07
-1.01969e-06
-9.49926e-07
-1.9137e-07
-1.00035e-06
-7.90787e-07
7.30935e-07
-1.0739e-06
-6.14303e-07
2.21671e-07
-1.04709e-06
-5.30707e-07
8.74476e-07
-1.08898e-06
-4.30079e-07
5.83256e-07
-1.08688e-06
-3.93962e-07
1.0138e-06
-1.10691e-06
-3.34204e-07
8.64213e-07
-1.12069e-06
-3.23014e-07
1.12987e-06
-1.13038e-06
-2.90646e-07
1.07847e-06
-1.1495e-06
-2.86661e-07
1.22817e-06
-1.15522e-06
-2.69649e-07
1.2394e-06
-1.17316e-06
-2.66807e-07
1.31788e-06
-1.18187e-06
-2.60703e-07
1.35793e-06
-1.19637e-06
-2.57898e-07
1.40417e-06
-1.20778e-06
-2.56187e-07
1.44502e-06
-1.21982e-06
-2.5565e-07
1.48286e-06
-1.23124e-06
-2.55987e-07
1.51795e-06
-1.24255e-06
-2.56787e-07
1.55076e-06
-1.25404e-06
-2.57917e-07
1.58158e-06
-1.2654e-06
-2.59279e-07
1.61061e-06
-1.27654e-06
-2.60889e-07
1.63799e-06
-1.28736e-06
-2.62669e-07
1.66376e-06
-1.29783e-06
-2.64633e-07
1.68799e-06
-1.30805e-06
-2.66853e-07
1.71064e-06
-1.31806e-06
-2.69354e-07
1.73212e-06
-1.32759e-06
-2.72002e-07
1.74688e-06
-1.33803e-06
-2.76804e-07
1.77911e-06
-1.34513e-06
-2.8001e-07
1.76378e-06
-1.35725e-06
-2.88077e-07
1.82868e-06
-1.36223e-06
-2.94426e-07
1.76037e-06
-1.37445e-06
-3.06833e-07
1.87443e-06
-1.37898e-06
-3.22971e-07
1.73503e-06
-1.38846e-06
-3.44558e-07
1.90588e-06
-1.39442e-06
-3.83003e-07
1.68263e-06
-1.39734e-06
-4.26416e-07
1.90072e-06
-1.40553e-06
-5.14592e-07
1.58559e-06
-1.39388e-06
-6.12658e-07
1.80748e-06
-1.39926e-06
-8.06299e-07
1.37761e-06
-1.34754e-06
-1.02795e-06
1.4699e-06
-1.31985e-06
-1.43219e-06
7.74105e-07
-1.13254e-06
-1.77903e-06
2.14014e-07
-8.6862e-07
-1.99543e-06
-1.87714e-06
-1.36913e-07
-6.42146e-07
-5.30726e-06
8.75201e-07
1.34254e-06
-1.0077e-05
2.81077e-06
4.55293e-07
-7.11597e-06
3.11652e-06
-4.04559e-06
-2.02129e-06
1.21757e-06
-8.29553e-06
2.54203e-06
1.56928e-07
-3.30099e-06
1.622e-07
-3.04356e-06
8.16177e-06
1.08684e-06
-5.46214e-06
2.51256e-05
-9.90938e-06
-4.26504e-06
5.07014e-05
-8.11481e-06
-1.86767e-05
5.30363e-06
1.63696e-05
6.71328e-06
-7.8004e-06
2.48312e-06
4.35542e-06
-5.59017e-05
1.41096e-05
1.57382e-05
-7.07894e-05
9.05206e-06
9.68187e-06
-7.99802e-05
4.08179e-06
6.58995e-06
-8.18501e-05
2.06487e-06
6.16667e-07
-8.24588e-05
1.17793e-06
-1.84516e-06
-8.28548e-05
7.70691e-07
-1.20515e-06
-8.30644e-05
3.85015e-07
-9.13344e-07
-8.18109e-05
-1.07402e-06
-1.07708e-06
-8.00067e-05
-1.5374e-06
-8.35127e-07
-7.77491e-05
-1.49312e-06
-3.14263e-07
-7.61645e-05
3.21405e-07
-4.49422e-07
-7.48942e-05
1.70127e-06
-7.84333e-07
-7.37725e-05
2.62033e-06
-1.50473e-06
-7.23609e-05
2.3489e-06
-1.63916e-06
-7.04054e-05
1.20657e-06
-1.68264e-06
-6.67805e-05
-4.39425e-07
-2.2281e-06
-6.23693e-05
-1.74066e-06
-2.33941e-06
-5.73498e-05
-3.04521e-06
-1.86438e-06
-5.24694e-05
-3.80279e-06
-1.182e-06
-4.80248e-05
-4.29176e-06
-5.4797e-07
-4.45347e-05
-4.14731e-06
-2.09572e-08
-4.1891e-05
-3.9887e-06
2.83564e-07
-4.00949e-05
-3.65482e-06
7.23916e-07
-3.89126e-05
-3.25642e-06
1.04834e-06
-3.83148e-05
-2.638e-06
1.24048e-06
-3.78731e-05
-2.44411e-06
1.12013e-06
-3.70862e-05
-2.46715e-06
6.99808e-07
-3.58012e-05
-2.74332e-06
3.14057e-07
-3.40243e-05
-2.90292e-06
6.69019e-08
-3.16812e-05
-3.06698e-06
-2.46619e-07
-2.86826e-05
-3.11276e-06
-4.87369e-07
-2.49598e-05
-3.07875e-06
-7.37294e-07
-2.03165e-05
-3.08079e-06
-9.20809e-07
-1.46223e-05
-3.02207e-06
-1.07292e-06
-8.41484e-06
-2.59466e-06
-1.31537e-06
-3.63305e-06
-1.97358e-06
-2.83213e-06
2.03418e-06
1.38066e-06
-2.34329e-06
-1.47242e-06
-1.07598e-06
-2.8134e-06
1.68881e-06
2.81796e-07
-2.20247e-06
-9.73765e-07
-3.90685e-07
-1.93937e-06
1.0069e-06
-3.87977e-07
-1.40795e-06
-5.20725e-07
-5.48899e-07
-1.15441e-06
1.02073e-06
-6.1038e-07
-8.48341e-07
1.84951e-07
-6.82371e-07
-6.92736e-07