/*--------------------------------*- C++ -*----------------------------------*\
| =========                 |                                                 |
| \\      /  F ield         | OpenFOAM: The Open Source CFD Toolbox           |
|  \\    /   O peration     | Version:  2.3.0                                 |
|   \\  /    A nd           | Web:      www.OpenFOAM.org                      |
|    \\/     M anipulation  |                                                 |
\*---------------------------------------------------------------------------*/
FoamFile
{
    version     2.0;
    format      ascii;
    class       surfaceScalarField;
    location    "3";
    object      phi.air;
}
// * * * * * * * * * * * * * * * * * * * * * * * * * * * * * * * * * * * * * //

dimensions      [0 3 -1 0 0 0 0];

internalField   nonuniform List<scalar> 
16448
(
-2.92e-06
-1.51107e-06
4.86235e-07
-1.97414e-06
-1.57116e-06
6.2531e-07
-1.62892e-06
-1.23512e-06
8.89905e-07
-1.21282e-06
-1.33476e-06
9.18654e-07
-1.10974e-06
-1.05044e-06
9.47355e-07
-8.9544e-07
-1.178e-06
9.63695e-07
-8.50101e-07
-1.00102e-06
9.55676e-07
-7.10927e-07
-1.10277e-06
9.63596e-07
-6.68214e-07
-9.97209e-07
9.54499e-07
-5.7014e-07
-1.05463e-06
9.56563e-07
-5.24877e-07
-9.95478e-07
9.50225e-07
-4.5733e-07
-1.01653e-06
9.48991e-07
-4.13166e-07
-9.89366e-07
9.45211e-07
-3.66242e-07
-9.90162e-07
9.43247e-07
-3.28893e-07
-9.78162e-07
9.40825e-07
-2.95404e-07
-9.72448e-07
9.38971e-07
-2.67107e-07
-9.65512e-07
9.37231e-07
-2.42926e-07
-9.59884e-07
9.35718e-07
-2.22444e-07
-9.54848e-07
9.34385e-07
-2.05127e-07
-9.50519e-07
9.33218e-07
-1.90498e-07
-9.46808e-07
9.32199e-07
-1.78125e-07
-9.43662e-07
9.31308e-07
-1.67614e-07
-9.41019e-07
9.30526e-07
-1.58616e-07
-9.38821e-07
9.29842e-07
-1.50819e-07
-9.37022e-07
9.29245e-07
-1.43945e-07
-9.35579e-07
9.28724e-07
-1.37743e-07
-9.34457e-07
9.28274e-07
-1.31977e-07
-9.33635e-07
9.2789e-07
-1.26407e-07
-9.3306e-07
9.27508e-07
-1.20799e-07
-9.32811e-07
9.27223e-07
-1.14191e-07
-9.33385e-07
9.26795e-07
-1.10414e-07
-9.31201e-07
9.27444e-07
-9.84748e-08
-9.37859e-07
9.25937e-07
-9.68816e-08
-9.29091e-07
9.27518e-07
-7.73148e-08
-9.45723e-07
9.26173e-07
-7.66883e-08
-9.27902e-07
9.27295e-07
-4.61103e-08
-9.58298e-07
9.27736e-07
-4.37346e-08
-9.29653e-07
9.27297e-07
7.23357e-10
-9.75512e-07
9.31069e-07
1.96626e-08
-9.45073e-07
9.26153e-07
6.22339e-08
-9.83339e-07
9.40782e-07
1.30327e-07
-9.94133e-07
9.26058e-07
1.83287e-07
-1.0009e-06
9.47948e-07
2.93945e-07
-1.04522e-06
9.3458e-07
3.87074e-07
-1.04985e-06
9.56732e-07
5.54163e-07
-1.11762e-06
9.5055e-07
7.23428e-07
-1.13772e-06
9.68457e-07
9.71769e-07
-1.22076e-06
9.72437e-07
1.26082e-06
-1.27619e-06
9.87142e-07
1.66154e-06
-1.38806e-06
9.87354e-07
2.10249e-06
-1.46057e-06
1.01961e-06
2.90169e-06
-1.73195e-06
9.32761e-07
3.65411e-06
-1.80682e-06
1.05439e-06
5.47165e-06
-2.48554e-06
6.67992e-07
5.92824e-06
-1.9284e-06
1.47179e-06
8.08948e-06
-3.00183e-06
8.40563e-07
5.99783e-06
-3.42892e-07
2.43449e-06
1.07921e-05
1.26598e-06
-6.0611e-06
-1.11195e-05
1.22232e-05
9.26606e-06
-3.33975e-05
-3.24673e-06
-6.97195e-06
-5.93021e-05
-2.47756e-05
9.95379e-06
-9.71411e-06
-7.33305e-06
1.48459e-05
3.52579e-05
-9.10206e-06
9.83072e-06
3.58172e-05
-7.6119e-06
6.93647e-06
3.5713e-05
-4.98122e-06
4.85164e-06
3.54022e-05
-3.3977e-06
3.59128e-06
3.4552e-05
-1.95964e-06
2.83903e-06
3.30447e-05
-7.0355e-07
2.2767e-06
3.0245e-05
3.22173e-07
2.51243e-06
2.74288e-05
8.5124e-07
1.94219e-06
2.50088e-05
1.93769e-06
4.49649e-07
2.03045e-05
4.04756e-06
5.76954e-07
1.33989e-05
4.60542e-06
2.2433e-06
8.32644e-06
2.6252e-06
2.44717e-06
6.00974e-06
6.33393e-07
1.69285e-06
4.99643e-06
-3.39504e-07
1.34276e-06
4.44388e-06
-7.62821e-07
1.30402e-06
4.0399e-06
-9.57725e-07
1.35206e-06
3.65922e-06
-1.02905e-06
1.39939e-06
3.29262e-06
-1.08052e-06
1.43857e-06
2.93956e-06
-1.12122e-06
1.46501e-06
2.59837e-06
-1.15079e-06
1.48178e-06
2.27249e-06
-1.17692e-06
1.49376e-06
1.96098e-06
-1.19907e-06
1.5019e-06
1.66345e-06
-1.2185e-06
1.5072e-06
1.38014e-06
-1.23627e-06
1.51108e-06
1.10885e-06
-1.25052e-06
1.51373e-06
8.4426e-07
-1.25674e-06
1.51389e-06
5.84359e-07
-1.25131e-06
1.51101e-06
3.43314e-07
-1.23662e-06
1.5056e-06
1.57638e-07
-1.21555e-06
1.49776e-06
4.91131e-08
-1.18847e-06
1.48779e-06
-8.04862e-08
-1.1595e-06
1.47596e-06
-3.54147e-07
-1.12569e-06
1.46339e-06
-7.17419e-07
-1.09757e-06
1.45234e-06
-1.06611e-06
1.43903e-06
-3.24895e-06
-2.45893e-06
-2.45197e-07
-2.1418e-06
-2.61529e-06
-6.30229e-08
-1.81727e-06
-1.87708e-06
3.17426e-07
-1.39337e-06
-2.11822e-06
3.59547e-07
-1.30556e-06
-1.58335e-06
4.45091e-07
-1.07545e-06
-1.85891e-06
4.50796e-07
-1.02833e-06
-1.51631e-06
4.68171e-07
-8.67985e-07
-1.73299e-06
4.69879e-07
-8.21158e-07
-1.51658e-06
4.72551e-07
-7.02581e-07
-1.64799e-06
4.74788e-07
-6.51198e-07
-1.52095e-06
4.74102e-07
-5.64417e-07
-1.57954e-06
4.76246e-07
-5.15767e-07
-1.51346e-06
4.75457e-07
-4.57305e-07
-1.52501e-06
4.76403e-07
-4.15388e-07
-1.49601e-06
4.75946e-07
-3.75785e-07
-1.48819e-06
4.76155e-07
-3.43396e-07
-1.47385e-06
4.75969e-07
-3.15608e-07
-1.46356e-06
4.75911e-07
-2.92247e-07
-1.45399e-06
4.75808e-07
-2.72582e-07
-1.44587e-06
4.75719e-07
-2.56044e-07
-1.43896e-06
4.75638e-07
-2.42113e-07
-1.43313e-06
4.75569e-07
-2.30333e-07
-1.42828e-06
4.75513e-07
-2.2031e-07
-1.42429e-06
4.75474e-07
-2.11691e-07
-1.42106e-06
4.7545e-07
-2.04154e-07
-1.41852e-06
4.75436e-07
-1.97403e-07
-1.41661e-06
4.75433e-07
-1.91175e-07
-1.41528e-06
4.75446e-07
-1.85161e-07
-1.41449e-06
4.75448e-07
-1.791e-07
-1.4143e-06
4.75459e-07
-1.73011e-07
-1.4148e-06
4.75355e-07
-1.66528e-07
-1.41377e-06
4.76119e-07
-1.57267e-07
-1.42166e-06
4.74571e-07
-1.51505e-07
-1.41192e-06
4.771e-07
-1.35116e-07
-1.43636e-06
4.74272e-07
-1.30182e-07
-1.41045e-06
4.77645e-07
-1.02448e-07
-1.46073e-06
4.74722e-07
-9.64578e-08
-1.41325e-06
4.77629e-07
-5.21102e-08
-1.49593e-06
4.76098e-07
-4.11022e-08
-1.43296e-06
4.76904e-07
2.56998e-08
-1.53176e-06
4.81646e-07
6.32867e-08
-1.50387e-06
4.72172e-07
1.47296e-07
-1.57312e-06
4.88234e-07
2.33564e-07
-1.60691e-06
4.75441e-07
3.57141e-07
-1.66781e-06
4.94402e-07
5.01969e-07
-1.74888e-06
4.86445e-07
6.999e-07
-1.84203e-06
5.06398e-07
9.03142e-07
-1.94079e-06
5.16787e-07
1.22379e-06
-2.12625e-06
5.29415e-07
1.45052e-06
-2.195e-06
5.80213e-07
1.9318e-06
-2.51232e-06
5.7047e-07
2.04103e-06
-2.47856e-06
6.3737e-07
2.65974e-06
-3.08601e-06
6.60454e-07
2.77821e-06
-2.8695e-06
2.65465e-07
3.73246e-06
-4.05051e-06
1.16782e-06
6.24965e-06
-5.30289e-06
-2.16173e-07
6.27143e-06
-2.47482e-06
2.11009e-06
1.44571e-05
4.68189e-07
-7.38792e-06
-6.01165e-06
2.25869e-05
9.92404e-06
-3.07112e-05
-4.69294e-06
-4.31843e-06
-7.14802e-05
-3.29083e-05
1.8855e-06
-2.73742e-05
-1.1629e-05
1.0719e-05
1.07744e-05
-1.03124e-05
5.1097e-06
9.82248e-06
-6.74441e-06
-7.37679e-08
1.00396e-05
-2.88536e-06
-2.08273e-06
1.15648e-05
-2.16949e-06
-2.82822e-06
1.23117e-05
-1.53698e-07
-2.49623e-06
1.2754e-05
1.13615e-06
-2.23643e-06
1.31425e-05
2.89189e-06
-2.88792e-06
1.34946e-05
4.48235e-06
-3.91799e-06
1.32124e-05
5.82871e-06
-3.56182e-06
1.0992e-05
7.0192e-06
-7.98956e-07
7.96363e-06
6.00135e-06
1.60149e-06
6.33048e-06
3.25943e-06
1.02876e-06
5.58543e-06
1.17527e-06
2.22649e-07
5.11484e-06
6.50198e-08
7.10585e-08
4.72067e-06
-5.21656e-07
1.59548e-07
4.34091e-06
-8.39577e-07
2.6966e-07
3.96309e-06
-1.01494e-06
3.69521e-07
3.58221e-06
-1.13886e-06
4.48544e-07
3.20834e-06
-1.23918e-06
5.00406e-07
2.84196e-06
-1.3132e-06
5.36166e-07
2.4888e-06
-1.3794e-06
5.63341e-07
2.1474e-06
-1.43331e-06
5.82411e-07
1.82146e-06
-1.48385e-06
5.96347e-07
1.51517e-06
-1.53281e-06
6.0701e-07
1.22952e-06
-1.57564e-06
6.14211e-07
9.56661e-07
-1.59803e-06
6.17747e-07
6.86637e-07
-1.59196e-06
6.20255e-07
4.31602e-07
-1.5667e-06
6.21958e-07
2.32753e-07
-1.52797e-06
6.23292e-07
1.17222e-07
-1.47726e-06
6.25408e-07
-2.97148e-08
-1.42148e-06
6.27502e-07
-3.50414e-07
-1.35695e-06
6.33703e-07
-7.70458e-07
-1.31384e-06
6.38063e-07
-1.2695e-06
6.43965e-07
-3.13226e-06
-2.94366e-06
-7.81491e-07
-1.89068e-06
-3.20141e-06
-6.55458e-07
-1.66335e-06
-2.0477e-06
-5.6715e-08
-1.28395e-06
-2.4546e-06
-4.30324e-08
-1.25352e-06
-1.71027e-06
9.64848e-08
-1.03583e-06
-2.1573e-06
8.06848e-08
-1.01434e-06
-1.66095e-06
1.2314e-07
-8.49113e-07
-2.00726e-06
1.09028e-07
-8.14032e-07
-1.67769e-06
1.26032e-07
-6.87018e-07
-1.89385e-06
1.18865e-07
-6.45416e-07
-1.68893e-06
1.26389e-07
-5.53393e-07
-1.79493e-06
1.23373e-07
-5.11403e-07
-1.68183e-06
1.26397e-07
-4.4805e-07
-1.7135e-06
1.25155e-07
-4.10684e-07
-1.65984e-06
1.26485e-07
-3.70476e-07
-1.6545e-06
1.2613e-07
-3.40159e-07
-1.63046e-06
1.2632e-07
-3.13558e-07
-1.61619e-06
1.26055e-07
-2.91544e-07
-1.60175e-06
1.25774e-07
-2.73103e-07
-1.58966e-06
1.25373e-07
-2.57705e-07
-1.57923e-06
1.24909e-07
-2.44822e-07
-1.57038e-06
1.24388e-07
-2.34005e-07
-1.56289e-06
1.23823e-07
-2.24865e-07
-1.55662e-06
1.23218e-07
-2.1705e-07
-1.55142e-06
1.22578e-07
-2.10252e-07
-1.5472e-06
1.21911e-07
-2.04199e-07
-1.54386e-06
1.21224e-07
-1.98637e-07
-1.54133e-06
1.20523e-07
-1.93319e-07
-1.53957e-06
1.19793e-07
-1.88006e-07
-1.53865e-06
1.19059e-07
-1.82561e-07
-1.53848e-06
1.18268e-07
-1.76854e-07
-1.53758e-06
1.18125e-07
-1.68621e-07
-1.54583e-06
1.15963e-07
-1.63372e-07
-1.53471e-06
1.1757e-07
-1.48973e-07
-1.56477e-06
1.14046e-07
-1.44531e-07
-1.53171e-06
1.16842e-07
-1.20125e-07
-1.59806e-06
1.12954e-07
-1.15278e-07
-1.5338e-06
1.15729e-07
-7.50487e-08
-1.64878e-06
1.12646e-07
-6.79803e-08
-1.5545e-06
1.14499e-07
2.22595e-09
-1.71552e-06
1.13572e-07
1.14406e-08
-1.62635e-06
1.13284e-07
1.06512e-07
-1.78721e-06
1.19043e-07
1.72701e-07
-1.78453e-06
1.11453e-07
2.96529e-07
-1.91759e-06
1.2596e-07
4.24697e-07
-1.99881e-06
1.21777e-07
6.19331e-07
-2.17379e-06
1.3714e-07
8.02605e-07
-2.28309e-06
1.59045e-07
1.12067e-06
-2.60304e-06
1.58732e-07
1.28408e-06
-2.61648e-06
2.58076e-07
1.79369e-06
-3.23038e-06
2.08444e-07
1.82604e-06
-3.04118e-06
5.30262e-07
2.50062e-06
-4.18476e-06
4.24158e-07
2.1998e-06
-3.90322e-06
1.33452e-06
4.7033e-06
-7.37612e-06
8.22071e-07
8.63349e-06
-1.06958e-05
1.46274e-06
1.02868e-05
-5.50897e-06
1.38082e-06
1.71909e-05
-3.27643e-06
-3.15939e-06
-7.34634e-06
2.72477e-05
1.96356e-05
-3.2e-05
-1.23859e-05
1.52956e-07
-8.20982e-05
-3.73317e-05
-2.2254e-06
-4.0479e-05
-1.52288e-05
9.02466e-06
-2.13723e-06
-1.15533e-05
5.37462e-06
-3.37928e-06
-5.3849e-06
-1.58024e-07
1.37396e-06
-3.61531e-06
-4.02441e-06
9.83547e-07
-6.73479e-07
-1.21316e-06
1.90826e-06
-8.99518e-07
-1.07257e-07
1.56746e-06
9.98288e-07
4.1456e-07
7.38462e-07
3.33645e-06
3.02495e-07
3.39902e-07
4.82652e-06
-7.01285e-08
4.0193e-07
5.63081e-06
7.86912e-08
1.37575e-06
5.44546e-06
6.09354e-07
2.96721e-06
4.23418e-06
2.0871e-07
4.21126e-06
2.67728e-06
-6.2383e-07
4.7652e-06
1.45925e-06
-8.17291e-07
4.83051e-06
6.79619e-07
-6.71288e-07
4.67891e-06
1.05331e-07
-4.75149e-07
4.40852e-06
-2.61205e-07
-3.13231e-07
4.07929e-06
-5.16299e-07
-1.84911e-07
3.7134e-06
-6.93767e-07
-9.44617e-08
3.35537e-06
-8.62014e-07
-3.48173e-08
3.0027e-06
-9.82677e-07
7.87303e-09
2.644e-06
-1.0789e-06
4.61724e-08
2.28867e-06
-1.1569e-06
6.73392e-08
1.94877e-06
-1.23787e-06
8.26172e-08
1.63469e-06
-1.32261e-06
9.35679e-08
1.33968e-06
-1.39029e-06
1.01168e-07
1.0539e-06
-1.42668e-06
1.07416e-07
7.59642e-07
-1.41167e-06
1.14363e-07
4.74929e-07
-1.37111e-06
1.18912e-07
2.45561e-07
-1.31571e-06
1.27094e-07
1.09891e-07
-1.24885e-06
1.40288e-07
-4.6136e-08
-1.18113e-06
1.59463e-07
-3.88401e-07
-1.11239e-06
1.90438e-07
-8.44683e-07
-1.09135e-06
2.28455e-07
-1.07679e-06
2.75528e-07
-2.92142e-06
-3.13954e-06
-1.09212e-06
-1.60739e-06
-3.49098e-06
-1.02447e-06
-1.51412e-06
-1.88234e-06
-2.58639e-07
-1.18766e-06
-2.51431e-06
-2.66766e-07
-1.21983e-06
-1.58989e-06
-8.82333e-08
-1.01721e-06
-2.23088e-06
-1.29057e-07
-1.01539e-06
-1.59885e-06
-6.39296e-08
-8.41866e-07
-2.08578e-06
-9.49994e-08
-8.13509e-07
-1.64269e-06
-6.33492e-08
-6.74889e-07
-1.95251e-06
-7.99503e-08
-6.3872e-07
-1.65985e-06
-6.52286e-08
-5.3826e-07
-1.82383e-06
-7.15314e-08
-5.0347e-07
-1.65042e-06
-6.61832e-08
-4.35745e-07
-1.71299e-06
-6.82181e-08
-4.04181e-07
-1.62422e-06
-6.71571e-08
-3.61872e-07
-1.62862e-06
-6.81676e-08
-3.35055e-07
-1.58895e-06
-6.8297e-08
-3.09663e-07
-1.57236e-06
-6.9193e-08
-2.89548e-07
-1.55177e-06
-7.00734e-08
-2.72782e-07
-1.53522e-06
-7.11807e-08
-2.58945e-07
-1.52066e-06
-7.23849e-08
-2.47473e-07
-1.50813e-06
-7.36878e-08
-2.3793e-07
-1.49734e-06
-7.50669e-08
-2.29946e-07
-1.48806e-06
-7.65084e-08
-2.23193e-07
-1.48014e-06
-7.80012e-08
-2.17383e-07
-1.47344e-06
-7.9536e-08
-2.12264e-07
-1.46784e-06
-8.11067e-08
-2.07611e-07
-1.46325e-06
-8.27047e-08
-2.03185e-07
-1.45964e-06
-8.43309e-08
-1.98801e-07
-1.45701e-06
-8.59894e-08
-1.94322e-07
-1.45521e-06
-8.77212e-08
-1.89633e-07
-1.45325e-06
-8.89838e-08
-1.83089e-07
-1.46053e-06
-9.18108e-08
-1.78877e-07
-1.44738e-06
-9.15199e-08
-1.67457e-07
-1.48048e-06
-9.56816e-08
-1.63983e-07
-1.44087e-06
-9.42831e-08
-1.44518e-07
-1.51854e-06
-9.89521e-08
-1.41397e-07
-1.43959e-06
-9.72996e-08
-1.09308e-07
-1.57941e-06
-1.01432e-07
-1.05592e-07
-1.45783e-06
-1.00363e-07
-5.14564e-08
-1.66677e-06
-1.02854e-07
-4.80244e-08
-1.52747e-06
-1.02294e-07
4.40852e-08
-1.778e-06
-1.01299e-07
7.12344e-08
-1.70864e-06
-1.03023e-07
1.95279e-07
-1.94675e-06
-9.48571e-08
2.95728e-07
-2.00667e-06
-9.25818e-08
4.81384e-07
-2.27909e-06
-8.03358e-08
6.87617e-07
-2.44198e-06
-4.73365e-08
9.9513e-07
-2.86683e-06
-4.37064e-08
1.35592e-06
-3.06405e-06
8.67665e-08
1.85428e-06
-3.79707e-06
6.83354e-08
2.44699e-06
-4.09831e-06
4.64395e-07
3.2252e-06
-5.56257e-06
5.99577e-07
4.83519e-06
-7.06286e-06
1.5496e-06
8.21021e-06
-1.12806e-05
5.29436e-07
1.37389e-05
-1.78221e-05
1.59749e-06
2.02945e-05
-7.80708e-06
-4.25752e-06
2.2827e-05
-5.1349e-06
-6.74039e-07
-3.32726e-06
2.87688e-05
2.38853e-05
-4.03204e-05
-1.17482e-05
-3.61635e-06
-0.00011006
-3.61526e-05
-2.87375e-06
-9.79724e-05
-1.32559e-05
6.84817e-06
-4.72951e-05
-1.11743e-05
3.72057e-06
-1.12119e-05
-6.54264e-06
4.06066e-06
-9.55103e-06
-4.78267e-06
1.92563e-06
-1.00269e-05
-1.77178e-06
2.62846e-06
-1.06411e-05
-2.16449e-06
2.66206e-06
-1.06989e-05
-3.79613e-07
2.19574e-06
-9.08338e-06
7.82619e-07
1.51019e-06
-6.61554e-06
2.32655e-06
2.56966e-07
-3.64177e-06
2.93053e-06
2.46254e-07
-8.70331e-07
3.55473e-06
-3.98686e-07
1.62112e-06
3.16189e-06
-1.06854e-06
3.20047e-06
2.88039e-06
-1.58015e-06
4.05934e-06
2.32723e-06
-1.4808e-06
4.39491e-06
1.92838e-06
-1.25738e-06
4.43493e-06
1.45748e-06
-1.05361e-06
4.28184e-06
1.16513e-06
-8.74143e-07
4.02738e-06
9.45205e-07
-7.47088e-07
3.70665e-06
7.60528e-07
-6.63915e-07
3.36261e-06
5.6216e-07
-6.16927e-07
2.98328e-06
4.48506e-07
-5.74348e-07
2.60732e-06
-1.83843e-07
-5.26577e-07
2.21937e-06
-2.81942e-07
-4.77968e-07
1.85792e-06
-4.5488e-07
-4.17435e-07
1.53965e-06
-6.47529e-07
-3.54834e-07
1.30133e-06
-8.63091e-07
-2.89017e-07
1.09113e-06
-9.74462e-07
-2.39653e-07
8.53718e-07
-9.55176e-07
-2.11901e-07
6.09009e-07
-8.9371e-07
-2.05285e-07
4.00737e-07
-7.8569e-07
-2.16299e-07
2.90799e-07
-6.75516e-07
-2.2322e-07
1.61276e-07
-5.61288e-07
-2.22595e-07
-2.03537e-07
-4.39592e-07
-1.99116e-07
-7.5338e-07
-3.83059e-07
-1.62373e-07
-2.83052e-07
-1.17281e-07
-2.63352e-06
-2.98164e-06
-1.25998e-06
-1.42197e-06
-3.52311e-06
-1.17942e-06
-1.45389e-06
-1.44172e-06
-4.08712e-07
-1.18046e-06
-2.31108e-06
-4.76688e-07
-1.2572e-06
-1.2606e-06
-2.5257e-07
-1.04932e-06
-2.08751e-06
-3.51279e-07
-1.04856e-06
-1.35992e-06
-2.39693e-07
-8.54093e-07
-1.96773e-06
-3.12512e-07
-8.2135e-07
-1.43175e-06
-2.43669e-07
-6.66841e-07
-1.82048e-06
-2.86522e-07
-6.31016e-07
-1.44747e-06
-2.48189e-07
-5.21349e-07
-1.66453e-06
-2.68951e-07
-4.91471e-07
-1.42934e-06
-2.50929e-07
-4.19653e-07
-1.52551e-06
-2.5928e-07
-3.94706e-07
-1.39634e-06
-2.52806e-07
-3.50751e-07
-1.41644e-06
-2.5611e-07
-3.29137e-07
-1.35552e-06
-2.55014e-07
-3.04622e-07
-1.3401e-06
-2.56747e-07
-2.87202e-07
-1.31143e-06
-2.57723e-07
-2.72536e-07
-1.29042e-06
-2.59434e-07
-2.60663e-07
-1.27118e-06
-2.61318e-07
-2.50919e-07
-1.25438e-06
-2.63463e-07
-2.42916e-07
-1.23954e-06
-2.65767e-07
-2.3632e-07
-1.22643e-06
-2.68197e-07
-2.3083e-07
-1.21485e-06
-2.70747e-07
-2.26187e-07
-1.20465e-06
-2.73404e-07
-2.22176e-07
-1.19566e-06
-2.76154e-07
-2.18593e-07
-1.18782e-06
-2.78978e-07
-2.15266e-07
-1.18106e-06
-2.81867e-07
-2.12046e-07
-1.17538e-06
-2.84814e-07
-2.08745e-07
-1.17066e-06
-2.8782e-07
-2.05277e-07
-1.1662e-06
-2.90484e-07
-2.00627e-07
-1.17056e-06
-2.94593e-07
-1.97688e-07
-1.15447e-06
-2.95814e-07
-1.89649e-07
-1.18691e-06
-3.01582e-07
-1.87624e-07
-1.14161e-06
-3.01248e-07
-1.74277e-07
-1.22339e-06
-3.08471e-07
-1.73333e-07
-1.13368e-06
-3.06815e-07
-1.51987e-07
-1.2858e-06
-3.1493e-07
-1.52015e-07
-1.14536e-06
-3.12408e-07
-1.16767e-07
-1.38169e-06
-3.20311e-07
-1.20247e-07
-1.20675e-06
-3.17199e-07
-5.05219e-08
-1.52355e-06
-3.24158e-07
-6.54906e-08
-1.37501e-06
-3.18634e-07
5.72368e-08
-1.74696e-06
-3.22511e-07
8.61526e-08
-1.72496e-06
-3.10592e-07
2.49889e-07
-2.1366e-06
-3.06231e-07
4.06928e-07
-2.33042e-06
-2.68584e-07
6.32645e-07
-2.83664e-06
-2.55911e-07
8.90099e-07
-3.19148e-06
-1.30008e-07
1.07949e-06
-3.85711e-06
-1.29371e-07
9.56438e-07
-4.21278e-06
2.37517e-07
8.87874e-07
-5.83015e-06
3.36104e-07
1.09324e-06
-7.87704e-06
6.08776e-07
3.08342e-06
-9.28714e-06
-3.98378e-06
-2.81916e-06
-9.87913e-06
-2.04041e-06
9.13207e-06
-1.02416e-05
-9.51681e-06
1.03311e-05
-5.06646e-06
-1.2676e-06
-2.59137e-06
1.95119e-05
2.07763e-05
-4.58875e-05
-9.87697e-06
-4.92028e-06
-0.000121061
-3.0671e-05
-6.3682e-06
-0.000123915
-9.26994e-06
5.14862e-06
-0.000126304
-1.02485e-05
1.75579e-06
-0.000128725
-5.8167e-06
2.07708e-06
-0.000128199
-4.08303e-06
7.12115e-07
-0.000128262
-2.88768e-06
2.03535e-06
-0.000128138
-2.37998e-06
1.72466e-06
-0.000127224
-4.42996e-07
7.75179e-07
-0.000125667
1.091e-06
-4.45608e-07
-0.000123632
2.81762e-06
-1.46241e-06
-0.000121248
3.30574e-06
-1.92132e-06
-0.000119439
3.7919e-06
-1.9488e-06
-0.000118046
3.3117e-06
-1.72588e-06
-0.000117076
3.11648e-06
-1.41321e-06
-0.000115933
2.43502e-06
-1.07892e-06
-0.000112115
1.97894e-06
-7.69787e-07
-9.62098e-05
1.36258e-06
-5.71832e-07
-5.70531e-05
1.08479e-06
-4.68132e-07
-3.1565e-05
7.96568e-07
-5.83258e-07
-3.17126e-05
6.83792e-07
-4.72398e-07
-4.0473e-05
5.59099e-07
-4.68866e-07
-2.44333e-05
6.1351e-07
-3.82443e-07
1.3371e-06
2.30673e-07
-6.40861e-07
1.32524e-06
2.67134e-07
-6.0116e-07
1.30445e-06
5.51415e-08
-5.89947e-07
1.22687e-06
-1.82099e-07
-5.29118e-07
1.15595e-06
-4.09173e-07
-5.97052e-07
1.0701e-06
-4.4718e-07
-3.73397e-07
9.01399e-07
-3.69406e-07
-3.37313e-07
6.87347e-07
-1.85612e-07
-3.17415e-07
4.45943e-07
-1.16361e-07
-3.15745e-07
2.64971e-07
8.67267e-08
-3.29449e-07
6.73629e-09
3.1766e-07
-3.37119e-07
-5.21349e-07
5.21189e-07
-3.13635e-07
-1.04373e-06
4.23752e-07
-2.89224e-07
3.91307e-07
-1.85121e-07
-2.42992e-06
-2.34997e-06
-1.3168e-06
-1.4112e-06
-3.2971e-06
-1.24474e-06
-1.57719e-06
-6.58476e-07
-6.17272e-07
-1.3328e-06
-1.84658e-06
-7.08905e-07
-1.39785e-06
-6.83869e-07
-5.11709e-07
-1.14804e-06
-1.67665e-06
-6.60683e-07
-1.11423e-06
-8.75667e-07
-5.18072e-07
-8.82261e-07
-1.56489e-06
-6.34798e-07
-8.28723e-07
-9.55745e-07
-5.29534e-07
-6.54483e-07
-1.38911e-06
-6.05592e-07
-6.1194e-07
-9.50349e-07
-5.39643e-07
-4.94624e-07
-1.19997e-06
-5.81855e-07
-4.67046e-07
-9.10251e-07
-5.4665e-07
-3.93449e-07
-1.03222e-06
-5.6685e-07
-3.74404e-07
-8.6278e-07
-5.52577e-07
-3.30932e-07
-8.98653e-07
-5.61224e-07
-3.15628e-07
-8.1224e-07
-5.58557e-07
-2.92226e-07
-8.00607e-07
-5.62859e-07
-2.79046e-07
-7.60089e-07
-5.64493e-07
-2.67075e-07
-7.34486e-07
-5.67868e-07
-2.57816e-07
-7.09012e-07
-5.71391e-07
-2.50313e-07
-6.86359e-07
-5.75487e-07
-2.44317e-07
-6.65889e-07
-5.79614e-07
-2.39565e-07
-6.47394e-07
-5.83751e-07
-2.35745e-07
-6.306e-07
-5.88039e-07
-2.32611e-07
-6.15239e-07
-5.9251e-07
-2.30005e-07
-6.01154e-07
-5.97079e-07
-2.27763e-07
-5.8833e-07
-6.017e-07
-2.2574e-07
-5.76668e-07
-6.06381e-07
-2.23822e-07
-5.66153e-07
-6.11113e-07
-2.21875e-07
-5.56733e-07
-6.15835e-07
-2.19989e-07
-5.47832e-07
-6.2022e-07
-2.17321e-07
-5.47144e-07
-6.26041e-07
-2.16284e-07
-5.26645e-07
-6.28829e-07
-2.11542e-07
-5.5494e-07
-6.36668e-07
-2.12166e-07
-5.03724e-07
-6.37236e-07
-2.05141e-07
-5.83198e-07
-6.47175e-07
-2.07812e-07
-4.8538e-07
-6.45608e-07
-1.98433e-07
-6.37688e-07
-6.57452e-07
-2.03948e-07
-4.86046e-07
-6.53779e-07
-1.9142e-07
-7.27628e-07
-6.66553e-07
-2.03185e-07
-5.34185e-07
-6.60789e-07
-1.80326e-07
-8.74445e-07
-6.71932e-07
-2.05162e-07
-6.86311e-07
-6.6386e-07
-1.5098e-07
-1.13394e-06
-6.67173e-07
-1.81547e-07
-1.04157e-06
-6.52819e-07
-4.91447e-08
-1.64011e-06
-6.28861e-07
-2.82522e-08
-1.7641e-06
-5.87209e-07
2.18192e-07
-2.5747e-06
-5.08362e-07
3.31315e-07
-2.96213e-06
-3.42482e-07
5.1319e-07
-3.8257e-06
-2.13274e-07
-1.95365e-07
-3.77929e-06
2.75041e-07
-2.054e-06
-4.66069e-06
6.89158e-07
-6.87199e-06
-4.26078e-06
1.20168e-06
-1.84082e-05
5.61276e-06
-3.36373e-06
-2.81542e-05
4.34984e-06
-4.48307e-06
-4.29076e-05
1.08901e-05
-6.37829e-06
-4.1619e-05
-2.26646e-06
-4.08894e-06
-2.62239e-06
-2.60908e-05
4.50986e-06
-5.03008e-05
-9.96467e-06
-2.2438e-06
-0.000130201
-2.35902e-05
-5.01761e-06
-0.000135438
-1.33096e-06
6.48829e-06
-0.000141161
-4.88208e-06
2.35256e-06
-0.000146851
-3.18422e-06
2.21753e-06
-0.000148097
-2.74444e-06
1.85638e-07
-0.000148552
-1.7506e-06
3.7007e-08
-0.000148921
-1.15158e-06
-1.13134e-07
-0.000149331
2.97456e-07
-1.10567e-06
-0.000148551
1.69461e-06
-1.65501e-06
-0.000147188
3.03143e-06
-2.08359e-06
-0.000145812
3.64016e-06
-2.10831e-06
-0.000144416
3.83064e-06
-1.85369e-06
-0.000143142
3.5971e-06
-1.61858e-06
-0.000141818
3.40496e-06
-1.38124e-06
-0.000140934
2.76159e-06
-1.12021e-06
-0.0001402
2.35035e-06
-9.72152e-07
-0.000139368
1.80719e-06
-9.28619e-07
-0.000138906
1.51759e-06
-9.68721e-07
-0.000138514
1.01778e-06
-9.50403e-07
-0.000137895
6.95702e-07
-8.7961e-07
-0.000137206
3.17526e-07
-8.20854e-07
-0.000136413
2.60131e-07
-7.95018e-07
-0.000135613
1.83212e-07
-7.59532e-07
-0.000134771
1.28926e-07
-6.55851e-07
-0.000133394
-9.30707e-08
-5.74666e-07
-0.000129258
-2.99747e-07
-4.90747e-07
-0.000114637
-3.72007e-07
-4.84812e-07
-7.45293e-05
-2.37378e-07
-5.54723e-07
-3.84168e-05
-2.49961e-08
-7.05109e-07
-1.61654e-05
3.03383e-07
-7.30769e-07
-3.66415e-07
7.5248e-07
-9.43365e-07
3.60906e-07
1.1781e-06
-9.11959e-07
3.5822e-07
1.69834e-06
-9.09133e-07
1.8063e-08
2.09449e-06
-7.7984e-07
-5.01205e-07
2.00604e-06
-5.63515e-07
2.3539e-06
-2.07721e-07
-2.52969e-06
-1.16213e-06
-1.2119e-06
-1.67725e-06
-2.8026e-06
-1.34695e-06
-1.92404e-06
3.76718e-07
-7.88421e-07
-1.63741e-06
-1.22925e-06
-9.04001e-07
-1.61066e-06
1.09905e-07
-8.2054e-07
-1.30928e-06
-1.05886e-06
-9.19181e-07
-1.18715e-06
-1.37828e-07
-8.59955e-07
-9.35159e-07
-8.95517e-07
-9.2136e-07
-8.26312e-07
-1.83841e-07
-8.80728e-07
-6.51792e-07
-6.48961e-07
-9.14651e-07
-5.86756e-07
-1.30924e-07
-8.84434e-07
-4.74909e-07
-4.03025e-07
-9.08766e-07
-4.41103e-07
-5.70188e-08
-8.87009e-07
-3.72944e-07
-1.96751e-07
-9.03608e-07
-3.54735e-07
1.06583e-08
-8.91616e-07
-3.12925e-07
-3.87004e-08
-9.01735e-07
-3.028e-07
7.69109e-08
-8.99244e-07
-2.8107e-07
8.32101e-08
-9.05518e-07
-2.72576e-07
1.38817e-07
-9.07366e-07
-2.62989e-07
1.67636e-07
-9.11678e-07
-2.56249e-07
1.99168e-07
-9.14887e-07
-2.50972e-07
2.26877e-07
-9.1848e-07
-2.46919e-07
2.52124e-07
-9.22032e-07
-2.43787e-07
2.75026e-07
-9.25518e-07
-2.41356e-07
2.95878e-07
-9.28875e-07
-2.39524e-07
3.15018e-07
-9.32053e-07
-2.38244e-07
3.32665e-07
-9.35067e-07
-2.37287e-07
3.48988e-07
-9.38239e-07
-2.36642e-07
3.6411e-07
-9.41391e-07
-2.3622e-07
3.77942e-07
-9.44479e-07
-2.35735e-07
3.90331e-07
-9.47517e-07
-2.35313e-07
4.02002e-07
-9.50218e-07
-2.34551e-07
4.0616e-07
-9.54035e-07
-2.35606e-07
4.29144e-07
-9.54694e-07
-2.33943e-07
4.03287e-07
-9.59862e-07
-2.37426e-07
4.5836e-07
-9.5856e-07
-2.36007e-07
3.79528e-07
-9.64119e-07
-2.42339e-07
4.83013e-07
-9.62023e-07
-2.44783e-07
3.30395e-07
-9.65615e-07
-2.56338e-07
4.89855e-07
-9.64308e-07
-2.68217e-07
2.46817e-07
-9.62551e-07
-2.9076e-07
4.51772e-07
-9.63385e-07
-3.18494e-07
1.03527e-07
-9.50233e-07
-3.63196e-07
3.10166e-07
-9.5175e-07
-4.18175e-07
-1.63592e-07
-9.15366e-07
-4.83895e-07
-7.161e-08
-9.04218e-07
-5.58324e-07
-7.62698e-07
-8.02983e-07
-5.72968e-07
-1.00145e-06
-7.47984e-07
-4.86451e-07
-2.23047e-06
-4.30757e-07
-1.26119e-07
-3.07877e-06
-2.43674e-07
9.79352e-07
-5.28159e-06
3.50394e-07
1.14479e-06
-4.88668e-06
9.41945e-07
5.73821e-07
-5.3046e-06
1.21483e-06
-4.48156e-06
-1.55095e-06
2.34552e-06
1.55308e-06
2.11321e-06
-2.5352e-06
8.20347e-07
7.08751e-06
-2.00501e-06
1.18955e-05
2.78943e-06
-2.97456e-06
1.29029e-05
-1.2154e-06
-2.05877e-06
2.95316e-06
-2.23138e-05
2.10729e-06
-5.8235e-05
-5.79119e-06
2.4711e-06
-0.000143254
-1.40627e-05
4.35272e-06
-0.000148091
3.93574e-06
7.60503e-06
-0.00015715
8.34223e-07
5.48417e-06
-0.000165053
1.24918e-06
3.0193e-06
-0.000167727
-6.11424e-07
5.59262e-07
-0.000169499
-1.10334e-07
5.19818e-07
-0.000170053
-1.92954e-07
-4.09359e-07
-0.000169235
-1.65219e-07
-9.8014e-07
-0.00016725
2.61424e-07
-1.2579e-06
-0.000164956
1.12207e-06
-1.28901e-06
-0.000162668
1.91731e-06
-1.01927e-06
-0.000160711
2.44844e-06
-7.49747e-07
-0.000159175
2.50248e-06
-5.08859e-07
-0.000158095
2.14103e-06
-1.47525e-07
-0.000157128
1.41643e-06
2.81063e-07
-0.000155876
9.15274e-07
4.71875e-07
-0.000155
4.27669e-07
4.75836e-07
-0.000154256
1.7309e-07
5.44226e-07
-0.000153298
-2.34995e-07
6.01086e-07
-0.00015296
-5.35768e-07
6.73365e-07
-0.000152745
-8.19407e-07
7.09948e-07
-0.00015193
-9.8363e-07
7.60745e-07
-0.000151739
-8.89249e-07
7.42111e-07
-0.000152022
-8.77431e-07
8.28328e-07
-0.000151937
-7.83998e-07
8.41012e-07
-0.000151924
-8.26116e-07
7.56034e-07
-0.000152025
-8.75937e-07
4.75739e-07
-0.000151539
-8.63106e-07
1.77856e-07
-0.000150574
-5.94946e-07
-1.37767e-07
-0.000148958
-3.26733e-07
-4.2862e-07
-0.000146225
2.22819e-07
-6.77927e-07
-0.000140479
8.34108e-07
-8.45879e-07
-0.000127296
1.63344e-06
-9.07868e-07
-0.000110003
2.38137e-06
-8.19326e-07
-0.000106288
2.75694e-06
-4.99987e-07
3.06732e-06
-2.36866e-08
-2.70669e-06
4.85409e-07
-7.55688e-07
-2.06594e-06
-2.05955e-06
-1.38382e-06
-2.44092e-06
1.50051e-06
-7.48843e-07
-2.00349e-06
-7.53497e-07
-9.13199e-07
-1.87115e-06
8.82036e-07
-9.04491e-07
-1.46414e-06
-5.38201e-07
-9.27669e-07
-1.24615e-06
6.63876e-07
-1.01969e-06
-9.49927e-07
-1.9137e-07
-1.00035e-06
-7.90788e-07
7.30935e-07
-1.0739e-06
-6.14305e-07
2.21671e-07
-1.04709e-06
-5.30708e-07
8.74476e-07
-1.08898e-06
-4.3008e-07
5.83256e-07
-1.08688e-06
-3.93963e-07
1.0138e-06
-1.10691e-06
-3.34206e-07
8.64213e-07
-1.12069e-06
-3.23016e-07
1.12987e-06
-1.13038e-06
-2.90647e-07
1.07847e-06
-1.1495e-06
-2.86662e-07
1.22817e-06
-1.15522e-06
-2.6965e-07
1.2394e-06
-1.17316e-06
-2.66809e-07
1.31788e-06
-1.18187e-06
-2.60705e-07
1.35793e-06
-1.19637e-06
-2.579e-07
1.40417e-06
-1.20778e-06
-2.56188e-07
1.44502e-06
-1.21982e-06
-2.55652e-07
1.48286e-06
-1.23124e-06
-2.55988e-07
1.51795e-06
-1.24255e-06
-2.56789e-07
1.55076e-06
-1.25404e-06
-2.57918e-07
1.58158e-06
-1.2654e-06
-2.5928e-07
1.61061e-06
-1.27654e-06
-2.6089e-07
1.63799e-06
-1.28736e-06
-2.6267e-07
1.66376e-06
-1.29783e-06
-2.64635e-07
1.68799e-06
-1.30805e-06
-2.66854e-07
1.71064e-06
-1.31806e-06
-2.69355e-07
1.73212e-06
-1.32759e-06
-2.72004e-07
1.74688e-06
-1.33803e-06
-2.76806e-07
1.77911e-06
-1.34513e-06
-2.80012e-07
1.76378e-06
-1.35725e-06
-2.88079e-07
1.82868e-06
-1.36223e-06
-2.94428e-07
1.76037e-06
-1.37445e-06
-3.06834e-07
1.87443e-06
-1.37898e-06
-3.22973e-07
1.73503e-06
-1.38846e-06
-3.44559e-07
1.90588e-06
-1.39442e-06
-3.83005e-07
1.68263e-06
-1.39734e-06
-4.26418e-07
1.90072e-06
-1.40553e-06
-5.14594e-07
1.58559e-06
-1.39388e-06
-6.12659e-07
1.80748e-06
-1.39926e-06
-8.063e-07
1.37761e-06
-1.34754e-06
-1.02795e-06
1.4699e-06
-1.31985e-06
-1.43219e-06
7.74105e-07
-1.13254e-06
-1.77903e-06
2.14014e-07
-8.6862e-07
-1.99543e-06
-1.87714e-06
-1.36913e-07
-6.4215e-07
-5.30726e-06
8.75201e-07
1.34253e-06
-1.0077e-05
2.81077e-06
4.55275e-07
-7.11597e-06
3.11652e-06
-4.04561e-06
-2.0213e-06
1.21757e-06
-8.29554e-06
2.54203e-06
1.56928e-07
-3.30101e-06
1.62197e-07
-3.04356e-06
8.16175e-06
1.08684e-06
-5.46214e-06
2.51255e-05
-9.90938e-06
-4.26503e-06
5.07013e-05
-8.11482e-06
-1.86768e-05
-9.16888e-06
1.63696e-05
6.71328e-06
-0.000110582
2.96376e-06
5.68785e-06
-0.000201317
1.58962e-05
1.97244e-05
-0.000214063
8.53273e-06
8.78976e-06
-0.000222722
4.37947e-06
6.68521e-06
-0.000227162
3.09072e-06
1.34395e-06
-0.000229444
1.39984e-06
-8.98273e-09
-0.000230338
9.51896e-07
2.61615e-07
-0.000230431
3.46985e-07
2.90814e-07
-0.000230561
-6.61831e-07
2.33287e-07
-0.00023008
-6.37456e-07
3.62977e-07
-0.000229293
-1.96559e-07
4.45158e-07
-0.00022896
1.36809e-06
7.89129e-08
-0.000228493
2.25395e-06
-3.60916e-07
-0.000228075
2.56776e-06
-9.59187e-07
-0.000227525
1.73356e-06
-8.03748e-07
-0.000225857
4.7944e-07
-8.08235e-07
-0.000222868
-1.02451e-06
-1.01443e-06
-0.000219333
-2.19602e-06
-7.71019e-07
-0.000215568
-3.00832e-06
-2.28158e-07
-0.00021202
-3.46709e-06
3.4895e-07
-0.000209406
-3.55818e-06
8.62177e-07
-0.000207639
-3.32261e-06
1.42655e-06
-0.000206462
-3.13971e-06
1.78236e-06
-0.000206123
-2.77241e-06
2.20351e-06
-0.000206592
-2.42072e-06
2.43588e-06
-0.00020706
-2.0878e-06
2.52587e-06
-0.000207052
-2.02589e-06
2.32751e-06
-0.000207048
-2.13594e-06
1.84789e-06
-0.000206647
-2.39875e-06
1.32913e-06
-0.000205675
-2.49041e-06
1.04687e-06
-0.000204244
-2.64272e-06
7.17238e-07
-0.00020198
-2.60749e-06
4.70115e-07
-0.000199145
-2.62134e-06
2.42517e-07
-0.000195238
-2.63173e-06
2.05436e-07
-0.000190358
-2.73759e-06
7.05169e-08
-0.000184734
-2.81385e-06
1.82084e-08
-3.85803e-06
3.32092e-07
-2.83213e-06
2.03418e-06
1.38066e-06
-2.34329e-06
-1.47242e-06
-1.07598e-06
-2.8134e-06
1.68881e-06
2.81796e-07
-2.20247e-06
-9.73765e-07
-3.90685e-07
-1.93937e-06
1.0069e-06
-3.87977e-07
-1.40795e-06
-5.20725e-07
-5.48899e-07
-1.15441e-06
1.02073e-06
-6.1038e-07
-8.48342e-07
1.84951e-07
-6.82371e-07
-6.92737e-07
1.25382e-06