/*--------------------------------*- C++ -*----------------------------------*\
| =========                 |                                                 |
| \\      /  F ield         | OpenFOAM: The Open Source CFD Toolbox           |
|  \\    /   O peration     | Version:  2.3.0                                 |
|   \\  /    A nd           | Web:      www.OpenFOAM.org                      |
|    \\/     M anipulation  |                                                 |
\*---------------------------------------------------------------------------*/
FoamFile
{
    version     2.0;
    format      ascii;
    class       surfaceScalarField;
    location    "3";
    object      phi.water;
}
// * * * * * * * * * * * * * * * * * * * * * * * * * * * * * * * * * * * * * //

dimensions      [0 3 -1 0 0 0 0];

internalField   nonuniform List<scalar> 
16448
(
-2.72045e-06
-1.36784e-06
4.2357e-07
-1.80016e-06
-1.48127e-06
5.61329e-07
-1.48692e-06
-1.14034e-06
8.27363e-07
-1.06433e-06
-1.28156e-06
8.58151e-07
-9.76551e-07
-9.78176e-07
8.906e-07
-7.56826e-07
-1.12886e-06
9.08342e-07
-7.18901e-07
-9.39589e-07
9.01763e-07
-5.81895e-07
-1.04774e-06
9.10158e-07
-5.43519e-07
-9.40073e-07
9.01738e-07
-4.51938e-07
-9.95679e-07
9.03743e-07
-4.09192e-07
-9.40933e-07
8.98156e-07
-3.48522e-07
-9.57748e-07
8.96857e-07
-3.06886e-07
-9.35396e-07
8.93648e-07
-2.64933e-07
-9.33941e-07
8.9182e-07
-2.306e-07
-9.24239e-07
8.8976e-07
-2.0044e-07
-9.18411e-07
8.88097e-07
-1.74877e-07
-9.12289e-07
8.86575e-07
-1.53197e-07
-9.07064e-07
8.85233e-07
-1.34963e-07
-9.02433e-07
8.84043e-07
-1.19709e-07
-8.98393e-07
8.82986e-07
-1.07032e-07
-8.9488e-07
8.82041e-07
-9.65517e-08
-8.91834e-07
8.81199e-07
-8.79592e-08
-8.89201e-07
8.80444e-07
-8.09708e-08
-8.86911e-07
8.79766e-07
-7.53751e-08
-8.84916e-07
8.79153e-07
-7.0981e-08
-8.83155e-07
8.78602e-07
-6.76313e-08
-8.81628e-07
8.7811e-07
-6.51636e-08
-8.80277e-07
8.7765e-07
-6.35434e-08
-8.78932e-07
8.77143e-07
-6.27518e-08
-8.77522e-07
8.76569e-07
-6.27359e-08
-8.76321e-07
8.76135e-07
-6.34636e-08
-8.75208e-07
8.75773e-07
-6.50282e-08
-8.73906e-07
8.75302e-07
-6.74893e-08
-8.72479e-07
8.7476e-07
-7.05225e-08
-8.71247e-07
8.74163e-07
-7.55082e-08
-8.69313e-07
8.74032e-07
-8.06312e-08
-8.67714e-07
8.72826e-07
-8.73066e-08
-8.66785e-07
8.7308e-07
-9.73049e-08
-8.61508e-07
8.71606e-07
-1.039e-07
-8.65494e-07
8.71605e-07
-1.22019e-07
-8.52105e-07
8.70417e-07
-1.26675e-07
-8.65841e-07
8.69934e-07
-1.55648e-07
-8.39627e-07
8.68859e-07
-1.5677e-07
-8.68281e-07
8.6878e-07
-1.97465e-07
-8.24758e-07
8.65764e-07
-1.92792e-07
-8.75227e-07
8.69843e-07
-2.36475e-07
-8.15182e-07
8.59284e-07
-2.20787e-07
-8.92578e-07
8.75967e-07
-2.41051e-07
-8.26571e-07
8.47583e-07
-2.16529e-07
-9.21017e-07
8.9505e-07
-2.45377e-07
-8.02771e-07
8.3285e-07
-2.79308e-07
-9.14989e-07
9.46629e-07
-7.3188e-07
-4.48204e-07
9.02971e-07
-1.52669e-06
-5.16209e-07
1.30654e-06
-3.85676e-06
5.25152e-07
1.84509e-06
-5.3723e-06
-1.22994e-06
2.72468e-06
-7.71702e-07
-2.28195e-06
-1.03655e-06
1.38901e-06
-3.50307e-06
7.18326e-07
1.81116e-06
-6.34314e-08
9.68484e-06
2.86645e-05
-1.84605e-05
1.22867e-05
2.4264e-05
-2.88988e-05
5.44125e-06
3.03994e-05
-1.36076e-05
5.76403e-06
2.73e-05
-1.75468e-06
4.84812e-06
2.69619e-05
-3.62434e-06
3.96245e-06
2.6243e-05
-2.48853e-06
3.20742e-06
2.5109e-05
-1.57174e-06
2.70574e-06
2.32704e-05
-6.84243e-07
2.5228e-06
2.01121e-05
1.11132e-06
2.04705e-06
1.5874e-05
2.71965e-06
1.51842e-06
1.19831e-05
2.41156e-06
1.47931e-06
9.43149e-06
1.10461e-06
1.44704e-06
8.11838e-06
1.45239e-08
1.29858e-06
7.47509e-06
-5.47931e-07
1.19122e-06
7.12591e-06
-8.52449e-07
1.20162e-06
6.8825e-06
-1.02456e-06
1.26798e-06
6.67756e-06
-1.1274e-06
1.33234e-06
6.47497e-06
-1.17873e-06
1.38132e-06
6.26822e-06
-1.20359e-06
1.41033e-06
6.05027e-06
-1.21076e-06
1.42871e-06
5.81784e-06
-1.21036e-06
1.44279e-06
5.57037e-06
-1.20504e-06
1.45251e-06
5.30548e-06
-1.19213e-06
1.45701e-06
5.01957e-06
-1.17319e-06
1.4591e-06
4.7131e-06
-1.15253e-06
1.45899e-06
4.38742e-06
-1.13048e-06
1.45617e-06
4.04619e-06
-1.11007e-06
1.4513e-06
3.6917e-06
-1.09062e-06
1.44511e-06
3.32662e-06
-1.07291e-06
1.43799e-06
2.94981e-06
-1.05334e-06
1.43015e-06
2.56166e-06
-1.03353e-06
1.42167e-06
2.16341e-06
-1.01493e-06
1.41318e-06
1.75441e-06
-9.95326e-07
1.40433e-06
1.33487e-06
-9.75218e-07
1.39476e-06
9.0148e-07
-9.51326e-07
1.38472e-06
4.5796e-07
-9.34315e-07
1.37783e-06
-9.1028e-07
1.36824e-06
-3.0668e-06
-2.24355e-06
-2.52383e-07
-1.95513e-06
-2.50242e-06
-9.01261e-08
-1.66895e-06
-1.72536e-06
2.99075e-07
-1.22208e-06
-2.06126e-06
3.31896e-07
-1.15092e-06
-1.46681e-06
4.17772e-07
-9.10008e-07
-1.79575e-06
4.25081e-07
-8.76202e-07
-1.41363e-06
4.40485e-07
-7.16411e-07
-1.65239e-06
4.44245e-07
-6.78643e-07
-1.42257e-06
4.44964e-07
-5.66044e-07
-1.55705e-06
4.48448e-07
-5.21015e-07
-1.43249e-06
4.46693e-07
-4.42304e-07
-1.48588e-06
4.49251e-07
-3.97757e-07
-1.42784e-06
4.47943e-07
-3.46162e-07
-1.43443e-06
4.48807e-07
-3.07751e-07
-1.4109e-06
4.48229e-07
-2.72657e-07
-1.40186e-06
4.48301e-07
-2.43548e-07
-1.38952e-06
4.48081e-07
-2.1886e-07
-1.37974e-06
4.47935e-07
-1.98195e-07
-1.37092e-06
4.47773e-07
-1.80977e-07
-1.36328e-06
4.47615e-07
-1.66707e-07
-1.35667e-06
4.47464e-07
-1.54947e-07
-1.35097e-06
4.47317e-07
-1.45323e-07
-1.34607e-06
4.47182e-07
-1.37527e-07
-1.34183e-06
4.4706e-07
-1.31299e-07
-1.33816e-06
4.46952e-07
-1.26408e-07
-1.33496e-06
4.46844e-07
-1.22716e-07
-1.33209e-06
4.46699e-07
-1.20115e-07
-1.32947e-06
4.46518e-07
-1.18453e-07
-1.32703e-06
4.46362e-07
-1.17575e-07
-1.32471e-06
4.46233e-07
-1.17549e-07
-1.32251e-06
4.46092e-07
-1.18431e-07
-1.32035e-06
4.45952e-07
-1.20164e-07
-1.31807e-06
4.45823e-07
-1.22913e-07
-1.31539e-06
4.45571e-07
-1.26693e-07
-1.31266e-06
4.45178e-07
-1.31783e-07
-1.30978e-06
4.45363e-07
-1.38103e-07
-1.30522e-06
4.43922e-07
-1.45617e-07
-1.3046e-06
4.45019e-07
-1.56251e-07
-1.29327e-06
4.4262e-07
-1.65789e-07
-1.30072e-06
4.44336e-07
-1.83615e-07
-1.27494e-06
4.4099e-07
-1.9448e-07
-1.29885e-06
4.43356e-07
-2.23266e-07
-1.24906e-06
4.38623e-07
-2.34296e-07
-1.30038e-06
4.42542e-07
-2.76656e-07
-1.21755e-06
4.35619e-07
-2.85999e-07
-1.3099e-06
4.4336e-07
-3.3658e-07
-1.19508e-06
4.31044e-07
-3.3851e-07
-1.34191e-06
4.50452e-07
-3.59379e-07
-1.22366e-06
4.18891e-07
-3.41065e-07
-1.41422e-06
4.73696e-07
-2.00857e-07
-1.32667e-06
3.85618e-07
-1.80496e-07
-1.46752e-06
5.30429e-07
4.04954e-07
-1.2611e-06
2.31032e-07
8.09685e-08
-9.70732e-07
7.757e-07
1.06262e-06
-5.66216e-07
1.30211e-07
5.07356e-07
-1.80591e-06
1.0924e-06
-2.90265e-07
2.58093e-06
-2.8444e-06
-7.5783e-06
4.85233e-06
-2.06809e-06
6.02584e-07
5.26477e-06
-3.52541e-06
2.99721e-05
-3.04537e-05
1.41216e-06
1.1179e-05
-4.02008e-05
2.1739e-06
7.80644e-06
-1.47524e-05
2.7624e-06
1.09883e-05
-3.04539e-06
-1.89353e-06
1.209e-05
-2.36997e-06
-2.35614e-06
1.22037e-05
1.92468e-07
-2.79467e-06
1.23596e-05
4.94478e-07
-2.22214e-06
1.20501e-05
1.42198e-06
-1.7967e-06
1.14443e-05
2.86787e-06
-1.15078e-06
1.05604e-05
3.82686e-06
-2.23254e-07
9.24071e-06
3.21819e-06
5.13048e-07
8.11942e-06
1.48575e-06
7.4016e-07
7.4722e-06
1.22627e-07
5.39115e-07
7.25246e-06
-6.93622e-07
3.65425e-07
7.1789e-06
-1.09105e-06
3.12162e-07
7.12754e-06
-1.29799e-06
3.24778e-07
7.04578e-06
-1.39552e-06
3.49875e-07
6.93598e-06
-1.44414e-06
3.75214e-07
6.79325e-06
-1.47888e-06
4.1802e-07
6.62022e-06
-1.49764e-06
4.59903e-07
6.40714e-06
-1.49433e-06
4.97037e-07
6.16008e-06
-1.48532e-06
5.27343e-07
5.8824e-06
-1.46283e-06
5.48377e-07
5.5736e-06
-1.43012e-06
5.65729e-07
5.23758e-06
-1.39559e-06
5.79077e-07
4.87822e-06
-1.35794e-06
5.86823e-07
4.50317e-06
-1.32385e-06
5.88814e-07
4.1151e-06
-1.29193e-06
5.89379e-07
3.7181e-06
-1.26241e-06
5.86502e-07
3.30655e-06
-1.22734e-06
5.85546e-07
2.88258e-06
-1.1949e-06
5.85344e-07
2.44739e-06
-1.16536e-06
5.85625e-07
1.99995e-06
-1.13546e-06
5.87573e-07
1.53651e-06
-1.10171e-06
5.89929e-07
1.04573e-06
-1.05358e-06
5.93037e-07
5.35806e-07
-1.02089e-06
5.96496e-07
-9.87704e-07
6.13229e-07
-3.02302e-06
-2.71416e-06
-7.35687e-07
-1.73999e-06
-3.13075e-06
-6.54545e-07
-1.53916e-06
-1.87565e-06
-4.98128e-08
-1.1096e-06
-2.44384e-06
-4.80567e-08
-1.10201e-06
-1.56651e-06
9.25915e-08
-8.66349e-07
-2.10999e-06
7.75897e-08
-8.62393e-07
-1.53401e-06
1.16868e-07
-6.94591e-07
-1.92693e-06
1.0611e-07
-6.72294e-07
-1.56379e-06
1.19377e-07
-5.49138e-07
-1.79533e-06
1.14789e-07
-5.16192e-07
-1.58467e-06
1.19568e-07
-4.29947e-07
-1.69009e-06
1.17804e-07
-3.93361e-07
-1.58366e-06
1.19426e-07
-3.36613e-07
-1.60989e-06
1.18653e-07
-3.02257e-07
-1.56446e-06
1.1928e-07
-2.66974e-07
-1.55608e-06
1.18952e-07
-2.39398e-07
-1.53591e-06
1.18845e-07
-2.15762e-07
-1.52185e-06
1.18496e-07
-1.96163e-07
-1.5086e-06
1.18096e-07
-1.79916e-07
-1.49713e-06
1.17615e-07
-1.66537e-07
-1.48712e-06
1.17077e-07
-1.55581e-07
-1.47841e-06
1.16492e-07
-1.46677e-07
-1.47084e-06
1.15872e-07
-1.39515e-07
-1.46422e-06
1.15225e-07
-1.33848e-07
-1.45838e-06
1.14549e-07
-1.29464e-07
-1.4532e-06
1.13851e-07
-1.26184e-07
-1.44852e-06
1.13142e-07
-1.2387e-07
-1.44422e-06
1.12427e-07
-1.22434e-07
-1.44018e-06
1.11701e-07
-1.21808e-07
-1.4363e-06
1.10958e-07
-1.21998e-07
-1.43252e-06
1.10183e-07
-1.23025e-07
-1.42872e-06
1.09385e-07
-1.24917e-07
-1.42477e-06
1.08578e-07
-1.27735e-07
-1.42036e-06
1.07756e-07
-1.31498e-07
-1.41573e-06
1.06878e-07
-1.36751e-07
-1.41131e-06
1.06655e-07
-1.42766e-07
-1.4037e-06
1.04671e-07
-1.50759e-07
-1.40237e-06
1.05498e-07
-1.6078e-07
-1.38554e-06
1.02588e-07
-1.71654e-07
-1.39428e-06
1.04044e-07
-1.88327e-07
-1.35839e-06
1.00528e-07
-2.02135e-07
-1.38785e-06
1.02316e-07
-2.28994e-07
-1.32006e-06
9.83421e-08
-2.46602e-07
-1.38418e-06
1.0085e-07
-2.87204e-07
-1.27249e-06
9.60678e-08
-3.12565e-07
-1.38636e-06
1.01197e-07
-3.64767e-07
-1.23532e-06
9.30344e-08
-4.10363e-07
-1.40427e-06
1.07143e-07
-4.43676e-07
-1.27402e-06
8.45457e-08
-5.3645e-07
-1.44627e-06
1.23358e-07
-4.20386e-07
-1.49601e-06
5.45976e-08
-6.61265e-07
-1.42972e-06
1.9967e-07
5.06826e-07
-2.1396e-06
-2.87971e-07
6.47369e-07
-1.69334e-06
5.65259e-07
2.74228e-06
-1.50975e-06
-1.11281e-06
1.28275e-06
-5.26906e-07
1.36595e-07
6.23556e-06
4.04058e-06
-4.46516e-06
-3.28414e-07
1.21299e-05
-2.81328e-06
7.02135e-06
1.34481e-05
-2.90981e-06
3.02553e-05
-3.16808e-05
-2.72768e-06
3.42334e-06
-4.3202e-05
2.11807e-06
-4.45325e-07
-1.54203e-05
2.43345e-06
9.7561e-06
-1.07963e-05
-2.4512e-06
8.14606e-06
1.6586e-06
-2.41854e-06
8.14655e-06
2.87046e-06
-2.67848e-06
7.51177e-06
2.96221e-06
-1.83296e-06
6.54833e-06
3.65176e-06
-1.26634e-06
6.00796e-06
4.1141e-06
-7.05855e-07
5.92899e-06
3.83304e-06
7.27844e-08
6.26591e-06
2.49014e-06
3.91129e-07
6.62933e-06
9.32591e-07
1.89736e-07
6.96056e-06
1.48672e-08
-2.2347e-07
7.22954e-06
-5.48784e-07
-4.13823e-07
7.40296e-06
-8.27841e-07
-4.36626e-07
7.4491e-06
-9.40852e-07
-4.03276e-07
7.41574e-06
-1.00999e-06
-3.52172e-07
7.33861e-06
-1.07057e-06
-2.96436e-07
7.22132e-06
-1.12835e-06
-2.33246e-07
7.07097e-06
-1.17698e-06
-1.70304e-07
6.87336e-06
-1.18574e-06
-1.1097e-07
6.63822e-06
-1.18916e-06
-6.10287e-08
6.36379e-06
-1.16515e-06
-2.32537e-08
6.04611e-06
-1.12297e-06
1.05329e-08
5.69186e-06
-1.08618e-06
4.48305e-08
5.31409e-06
-1.05198e-06
7.1819e-08
4.91823e-06
-1.01229e-06
8.4298e-08
4.50278e-06
-9.61459e-07
8.49695e-08
4.07395e-06
-9.12291e-07
7.87101e-08
3.61929e-06
-8.53371e-07
8.06989e-08
3.14992e-06
-8.13602e-07
8.80703e-08
2.66472e-06
-7.7975e-07
9.9588e-08
2.16391e-06
-7.51235e-07
1.1658e-07
1.6488e-06
-7.22201e-07
1.35606e-07
1.10933e-06
-6.71442e-07
1.57326e-07
5.66501e-07
-6.66189e-07
1.88132e-07
-6.6668e-07
2.45477e-07
-2.89582e-06
-2.92715e-06
-1.02123e-06
-1.46703e-06
-3.53646e-06
-1.02351e-06
-1.39361e-06
-1.71481e-06
-2.33228e-07
-1.00109e-06
-2.56766e-06
-2.69951e-07
-1.06127e-06
-1.42785e-06
-7.78084e-08
-8.36072e-07
-2.21483e-06
-1.21394e-07
-8.56539e-07
-1.45483e-06
-5.80536e-08
-6.79688e-07
-2.0194e-06
-8.50068e-08
-6.67964e-07
-1.51588e-06
-5.89537e-08
-5.32702e-07
-1.85946e-06
-7.14602e-08
-5.08069e-07
-1.54735e-06
-6.13998e-08
-4.12719e-07
-1.72018e-06
-6.54177e-08
-3.84825e-07
-1.54842e-06
-6.27664e-08
-3.22525e-07
-1.60825e-06
-6.39743e-08
-2.94489e-07
-1.52828e-06
-6.39864e-08
-2.57386e-07
-1.52828e-06
-6.48504e-08
-2.32587e-07
-1.49516e-06
-6.54087e-08
-2.10235e-07
-1.4777e-06
-6.63968e-08
-1.92164e-07
-1.45912e-06
-6.74338e-08
-1.77307e-07
-1.44326e-06
-6.86235e-08
-1.6519e-07
-1.42923e-06
-6.98966e-08
-1.55362e-07
-1.41689e-06
-7.12497e-08
-1.47436e-07
-1.406e-06
-7.26549e-08
-1.4112e-07
-1.39633e-06
-7.41068e-08
-1.36151e-07
-1.38765e-06
-7.55865e-08
-1.32348e-07
-1.3798e-06
-7.71003e-08
-1.29546e-07
-1.37258e-06
-7.86346e-08
-1.27642e-07
-1.36582e-06
-8.01961e-08
-1.26543e-07
-1.35939e-06
-8.17742e-08
-1.26203e-07
-1.35316e-06
-8.33802e-08
-1.26596e-07
-1.347e-06
-8.50078e-08
-1.27749e-07
-1.3408e-06
-8.66645e-08
-1.29674e-07
-1.33438e-06
-8.83398e-08
-1.3242e-07
-1.32746e-06
-9.00684e-08
-1.36025e-07
-1.32007e-06
-9.1872e-08
-1.41304e-07
-1.31306e-06
-9.299e-08
-1.46611e-07
-1.30208e-06
-9.5994e-08
-1.55125e-07
-1.29813e-06
-9.58804e-08
-1.63591e-07
-1.27657e-06
-1.00055e-07
-1.75899e-07
-1.28325e-06
-9.90016e-08
-1.90012e-07
-1.23953e-06
-1.04158e-07
-2.06898e-07
-1.26896e-06
-1.02376e-07
-2.30628e-07
-1.18736e-06
-1.08303e-07
-2.54312e-07
-1.25539e-06
-1.05541e-07
-2.93693e-07
-1.12022e-06
-1.12181e-07
-3.30247e-07
-1.24325e-06
-1.07023e-07
-3.90145e-07
-1.05843e-06
-1.16251e-07
-4.49383e-07
-1.24205e-06
-1.03446e-07
-5.00855e-07
-1.09042e-06
-1.31144e-07
-5.57196e-07
-1.30028e-06
-9.01553e-08
-2.7041e-07
-1.57321e-06
-2.07783e-07
1.72462e-07
-1.84889e-06
-1.83949e-08
2.42953e-06
-3.74833e-06
-5.93684e-07
6.01491e-06
-5.13719e-06
-1.18346e-07
6.83524e-06
-2.53829e-06
2.70783e-07
4.0595e-06
3.67358e-07
1.81045e-06
2.46148e-06
6.41018e-06
4.80407e-07
-7.291e-06
2.33925e-05
-2.27287e-06
1.58945e-05
4.55943e-06
1.02088e-06
3.32383e-05
-2.9892e-05
-2.29004e-06
1.46829e-06
-4.32048e-05
2.38645e-06
-7.93722e-06
-1.31333e-05
4.67796e-06
-8.04663e-06
-1.31741e-05
2.48708e-06
-5.70139e-06
1.60518e-06
-2.29182e-06
-3.26912e-06
1.05199e-06
-6.13793e-07
-3.04877e-06
2.70423e-06
3.76292e-08
-1.99881e-06
2.57385e-06
2.79556e-08
-6.20758e-07
2.51301e-06
2.23033e-07
1.36924e-06
1.77711e-06
6.59401e-08
2.8357e-06
1.2612e-06
-2.37519e-07
3.84176e-06
5.30439e-07
-6.03907e-07
4.59762e-06
1.29715e-07
-8.70709e-07
5.20912e-06
-1.34344e-07
-1.02595e-06
5.66527e-06
-2.05118e-07
-1.07887e-06
6.04016e-06
-2.14305e-07
-1.10144e-06
6.3658e-06
-2.69541e-07
-1.06609e-06
6.61225e-06
-3.177e-07
-9.99312e-07
6.77813e-06
-4.01963e-07
-8.92273e-07
6.88554e-06
-5.24594e-07
-7.59796e-07
6.89946e-06
-5.55506e-07
-6.44156e-07
6.82663e-06
-5.60523e-07
-5.55805e-07
6.62664e-06
-4.62493e-07
-5.02672e-07
6.34777e-06
-3.96166e-07
-4.47939e-07
6.01747e-06
-3.68985e-07
-3.86884e-07
5.64156e-06
-3.52452e-07
-3.23626e-07
5.24385e-06
-3.35859e-07
-2.78715e-07
4.83642e-06
-3.01883e-07
-2.5215e-07
4.40922e-06
-2.40367e-07
-2.44723e-07
3.93637e-06
-1.42338e-07
-2.38189e-07
3.45862e-06
-9.93333e-08
-2.36518e-07
2.96617e-06
-6.0342e-08
-2.26955e-07
2.489e-06
-4.87822e-08
-2.25285e-07
1.99031e-06
-4.32736e-09
-2.19178e-07
1.41089e-06
9.99647e-08
-1.91989e-07
7.7055e-07
1.58839e-07
-1.8469e-07
2.3706e-07
-1.3319e-07
-2.63091e-06
-2.85792e-06
-1.22969e-06
-1.22887e-06
-3.70932e-06
-1.22985e-06
-1.31025e-06
-1.26555e-06
-3.66796e-07
-9.6458e-07
-2.4372e-06
-4.77664e-07
-1.07831e-06
-1.08852e-06
-2.24804e-07
-8.49698e-07
-2.11309e-06
-3.31523e-07
-8.76886e-07
-1.20761e-06
-2.19077e-07
-6.81563e-07
-1.92725e-06
-2.88132e-07
-6.69716e-07
-1.30023e-06
-2.26555e-07
-5.19639e-07
-1.74582e-06
-2.64095e-07
-4.98221e-07
-1.33497e-06
-2.33068e-07
-3.93591e-07
-1.57506e-06
-2.49976e-07
-3.72311e-07
-1.33209e-06
-2.37113e-07
-3.05058e-07
-1.43208e-06
-2.43531e-07
-2.8451e-07
-1.30866e-06
-2.3986e-07
-2.45038e-07
-1.32509e-06
-2.42656e-07
-2.24956e-07
-1.27246e-06
-2.42623e-07
-2.03711e-07
-1.25452e-06
-2.44349e-07
-1.87719e-07
-1.22927e-06
-2.45757e-07
-1.74623e-07
-1.20869e-06
-2.47579e-07
-1.64102e-07
-1.19011e-06
-2.49572e-07
-1.5566e-07
-1.17352e-06
-2.51737e-07
-1.48937e-07
-1.15863e-06
-2.54048e-07
-1.43623e-07
-1.14513e-06
-2.56456e-07
-1.39505e-07
-1.13278e-06
-2.58953e-07
-1.36393e-07
-1.12135e-06
-2.61511e-07
-1.34158e-07
-1.11065e-06
-2.64132e-07
-1.32689e-07
-1.10045e-06
-2.66797e-07
-1.31935e-07
-1.09062e-06
-2.69503e-07
-1.31823e-07
-1.081e-06
-2.72235e-07
-1.32353e-07
-1.07145e-06
-2.75e-07
-1.33528e-07
-1.06181e-06
-2.77783e-07
-1.35395e-07
-1.05191e-06
-2.80592e-07
-1.37887e-07
-1.04156e-06
-2.83405e-07
-1.41086e-07
-1.03047e-06
-2.86328e-07
-1.4619e-07
-1.01959e-06
-2.88483e-07
-1.50411e-07
-1.00497e-06
-2.92673e-07
-1.59166e-07
-9.96259e-07
-2.93385e-07
-1.65507e-07
-9.70937e-07
-2.98935e-07
-1.78992e-07
-9.71877e-07
-2.98311e-07
-1.89633e-07
-9.23396e-07
-3.05025e-07
-2.0945e-07
-9.46354e-07
-3.03326e-07
-2.29174e-07
-8.5649e-07
-3.10605e-07
-2.59592e-07
-9.176e-07
-3.07981e-07
-2.99724e-07
-7.6474e-07
-3.14791e-07
-3.54198e-07
-8.78562e-07
-3.10855e-07
-4.399e-07
-6.55053e-07
-3.1711e-07
-5.57367e-07
-8.14783e-07
-3.10415e-07
-7.30888e-07
-5.79584e-07
-3.36601e-07
-9.86716e-07
-7.18273e-07
-3.26569e-07
-1.21634e-06
-7.9868e-07
-5.40888e-07
-1.42917e-06
-8.08542e-07
-7.86678e-07
-2.52919e-07
-1.81037e-06
-2.92565e-06
-7.0472e-07
-8.64207e-07
-3.77296e-06
2.08011e-06
-1.65721e-06
-3.45105e-06
2.74082e-06
2.92787e-07
-6.27988e-07
9.03036e-06
4.67919e-06
-3.53943e-06
1.0355e-05
2.63777e-05
-3.6426e-06
2.87368e-05
-9.68675e-06
1.41203e-05
3.52439e-05
-2.12705e-05
-2.70676e-07
-3.31211e-06
-4.066e-05
3.36084e-06
-1.40515e-05
-9.78049e-06
6.20549e-06
-1.74756e-05
-1.31046e-05
3.34607e-06
-1.47376e-05
-2.81674e-06
1.68106e-06
-1.33015e-05
-1.65372e-06
1.26845e-06
-1.15974e-05
-3.68553e-08
1.03635e-06
-9.8838e-06
2.3809e-07
6.21852e-07
-8.42112e-06
7.13253e-07
3.36911e-07
-6.91426e-06
4.82586e-07
-2.12686e-07
-5.82737e-06
9.22588e-07
-7.48518e-07
-4.92884e-06
7.85462e-07
-1.15386e-06
-3.95567e-06
7.09175e-07
-1.553e-06
-2.88346e-06
6.28141e-07
-1.83509e-06
-1.84695e-06
7.87851e-07
-2.02975e-06
-9.19392e-07
8.45639e-07
-1.98768e-06
-5.56248e-08
5.71783e-07
-1.70525e-06
8.10212e-07
2.28017e-07
-1.41168e-06
1.65955e-06
-1.6458e-07
-1.08676e-06
2.40967e-06
-4.6015e-07
-8.14556e-07
3.0872e-06
-5.11178e-07
-7.21851e-07
3.65039e-06
-4.11838e-07
-7.11877e-07
4.07021e-06
-1.63139e-07
-7.19182e-07
4.38715e-06
-6.31921e-08
-6.49912e-07
4.65333e-06
-8.13855e-08
-5.53777e-07
4.86097e-06
-9.72366e-08
-4.62851e-07
4.8832e-06
8.4473e-08
-4.42564e-07
4.76223e-06
2.62312e-07
-4.43231e-07
4.48919e-06
4.97543e-07
-4.64862e-07
4.07531e-06
7.32527e-07
-4.60992e-07
3.62915e-06
8.02012e-07
-4.55179e-07
3.11323e-06
8.89025e-07
-4.33446e-07
2.53077e-06
9.1954e-07
-3.8586e-07
1.86071e-06
1.01757e-06
-3.51847e-07
1.15992e-06
1.14139e-06
-3.40636e-07
6.12295e-07
1.01954e-06
-3.1307e-07
1.04364e-06
-1.94282e-07
-2.37864e-06
-2.31912e-06
-1.34025e-06
-1.16258e-06
-3.6441e-06
-1.28219e-06
-1.39294e-06
-4.7998e-07
-5.53877e-07
-1.07252e-06
-2.04587e-06
-7.13345e-07
-1.18884e-06
-5.09724e-07
-4.6134e-07
-9.23015e-07
-1.74492e-06
-6.35114e-07
-9.26013e-07
-7.27187e-07
-4.7607e-07
-6.97647e-07
-1.5563e-06
-5.99927e-07
-6.70757e-07
-8.32323e-07
-4.93506e-07
-5.03067e-07
-1.3444e-06
-5.69425e-07
-4.78084e-07
-8.51407e-07
-5.07482e-07
-3.66014e-07
-1.13999e-06
-5.4726e-07
-3.48402e-07
-8.3197e-07
-5.16906e-07
-2.78798e-07
-9.66836e-07
-5.34817e-07
-2.64988e-07
-7.97597e-07
-5.24229e-07
-2.24546e-07
-8.33925e-07
-5.31416e-07
-2.11045e-07
-7.54554e-07
-5.30919e-07
-1.90694e-07
-7.39435e-07
-5.35119e-07
-1.78003e-07
-7.03985e-07
-5.3758e-07
-1.67281e-07
-6.78158e-07
-5.40899e-07
-1.58876e-07
-6.53801e-07
-5.44335e-07
-1.52278e-07
-6.31711e-07
-5.48055e-07
-1.47129e-07
-6.11431e-07
-5.51972e-07
-1.43167e-07
-5.92695e-07
-5.56044e-07
-1.4016e-07
-5.75207e-07
-5.60211e-07
-1.37968e-07
-5.58726e-07
-5.64471e-07
-1.3645e-07
-5.42986e-07
-5.68815e-07
-1.35547e-07
-5.27784e-07
-5.73229e-07
-1.3519e-07
-5.1297e-07
-5.77642e-07
-1.35349e-07
-4.98433e-07
-5.82066e-07
-1.35981e-07
-4.83968e-07
-5.86494e-07
-1.37106e-07
-4.69418e-07
-5.90927e-07
-1.38719e-07
-4.54587e-07
-5.95349e-07
-1.40864e-07
-4.39401e-07
-5.99701e-07
-1.4348e-07
-4.23294e-07
-6.0413e-07
-1.4823e-07
-4.06935e-07
-6.07722e-07
-1.50915e-07
-3.882e-07
-6.13506e-07
-1.5972e-07
-3.72021e-07
-6.15401e-07
-1.63185e-07
-3.43925e-07
-6.22819e-07
-1.77497e-07
-3.34758e-07
-6.22929e-07
-1.83381e-07
-2.84795e-07
-6.31854e-07
-2.04984e-07
-2.94583e-07
-6.30411e-07
-2.17583e-07
-2.02791e-07
-6.40153e-07
-2.50705e-07
-2.47205e-07
-6.37588e-07
-2.83453e-07
-8.40404e-08
-6.47001e-07
-3.40071e-07
-1.78683e-07
-6.43579e-07
-4.30632e-07
8.63293e-08
-6.49941e-07
-5.57813e-07
-3.77226e-08
-6.50121e-07
-8.30727e-07
3.566e-07
-6.6249e-07
-1.17647e-06
3.1508e-07
-6.87721e-07
-1.97378e-06
9.08434e-07
-8.90425e-07
-2.66021e-06
1.60008e-06
-1.65018e-06
-3.85819e-06
2.94599e-06
-3.44017e-06
-6.17299e-06
4.45412e-06
-2.91663e-06
-4.56818e-06
4.63495e-07
-3.54303e-06
-7.12595e-07
1.97725e-06
-5.54079e-06
1.62651e-05
-2.99046e-06
-8.70528e-06
3.12015e-05
9.81792e-06
1.51604e-06
3.48997e-05
-1.1983e-05
2.42823e-05
2.87574e-05
-1.17305e-05
2.42732e-06
-1.84646e-05
-2.92279e-05
4.96986e-06
-2.54671e-05
-7.53971e-06
4.47033e-06
-3.21858e-05
-8.90925e-06
2.47371e-06
-3.24796e-05
-4.1736e-06
1.61315e-06
-3.22928e-05
-3.13538e-06
1.27827e-06
-3.11319e-05
-1.9079e-06
7.03269e-07
-2.97856e-05
-1.058e-06
-5.80403e-08
-2.81121e-05
-2.231e-07
-7.51734e-07
-2.62729e-05
1.32801e-07
-1.53885e-06
-2.43522e-05
1.05441e-06
-2.10129e-06
-2.25141e-05
1.40681e-06
-2.4789e-06
-2.08463e-05
1.74466e-06
-2.70285e-06
-1.91543e-05
1.65103e-06
-2.72451e-06
-1.74791e-05
1.46824e-06
-2.37964e-06
-1.59724e-05
1.23992e-06
-1.92147e-06
-1.453e-05
6.44478e-07
-1.53035e-06
-1.32704e-05
1.54481e-07
-1.19823e-06
-1.22244e-05
-3.3472e-07
-8.85387e-07
-1.11462e-05
-7.49438e-07
-7.95875e-07
-9.97398e-06
-9.60921e-07
-7.28063e-07
-8.70092e-06
-1.01742e-06
-6.71772e-07
-7.41415e-06
-8.98402e-07
-5.54665e-07
-6.13595e-06
-9.08149e-07
-4.35131e-07
-4.81374e-06
-1.04924e-06
-3.55486e-07
-3.46262e-06
-1.07583e-06
-3.73396e-07
-2.11392e-06
-7.22948e-07
-5.42013e-07
-9.2555e-07
-2.09595e-07
-7.16917e-07
1.27848e-07
3.12026e-07
-8.68204e-07
9.41354e-07
8.57698e-07
-9.38733e-07
1.5505e-06
1.15457e-06
-9.61716e-07
1.93619e-06
1.48285e-06
-9.79534e-07
2.11572e-06
1.64115e-06
-9.01162e-07
2.01107e-06
1.93939e-06
-8.17168e-07
1.63796e-06
2.23512e-06
-7.20623e-07
1.11686e-06
2.11826e-06
-5.7762e-07
2.4693e-06
-3.08805e-07
-2.38884e-06
-1.23103e-06
-1.28933e-06
-1.38304e-06
-3.31715e-06
-1.33397e-06
-1.69647e-06
5.76365e-07
-7.41516e-07
-1.33733e-06
-1.48579e-06
-9.21542e-07
-1.37817e-06
3.14677e-07
-7.82495e-07
-1.05927e-06
-1.14262e-06
-9.2289e-07
-9.87731e-07
3.34844e-08
-8.31084e-07
-7.37926e-07
-8.89959e-07
-9.17257e-07
-6.66086e-07
-4.81274e-08
-8.55061e-07
-4.95193e-07
-6.1027e-07
-9.05848e-07
-4.52656e-07
-2.87699e-08
-8.6447e-07
-3.43942e-07
-3.53033e-07
-8.96334e-07
-3.23148e-07
1.92375e-08
-8.7156e-07
-2.56429e-07
-1.4376e-07
-8.90292e-07
-2.46812e-07
7.24751e-08
-8.79453e-07
-2.06056e-07
1.37996e-08
-8.88812e-07
-1.98651e-07
1.25462e-07
-8.87357e-07
-1.794e-07
1.34573e-07
-8.93459e-07
-1.70698e-07
1.82698e-07
-8.95464e-07
-1.62196e-07
2.12632e-07
-8.99412e-07
-1.55823e-07
2.42593e-07
-9.02898e-07
-1.50908e-07
2.69862e-07
-9.06607e-07
-1.47169e-07
2.95089e-07
-9.10405e-07
-1.44317e-07
3.18511e-07
-9.14189e-07
-1.42209e-07
3.40398e-07
-9.17871e-07
-1.40694e-07
3.61107e-07
-9.21491e-07
-1.39745e-07
3.80902e-07
-9.25005e-07
-1.39377e-07
4.00044e-07
-9.28348e-07
-1.39486e-07
4.18644e-07
-9.31682e-07
-1.39934e-07
4.36909e-07
-9.35053e-07
-1.40735e-07
4.55016e-07
-9.38366e-07
-1.41879e-07
4.73163e-07
-9.41603e-07
-1.434e-07
4.91526e-07
-9.44777e-07
-1.45383e-07
5.10299e-07
-9.47913e-07
-1.47403e-07
5.29729e-07
-9.51118e-07
-1.51641e-07
5.50262e-07
-9.53292e-07
-1.52913e-07
5.70731e-07
-9.57615e-07
-1.6155e-07
5.93887e-07
-9.57775e-07
-1.62183e-07
6.20801e-07
-9.63879e-07
-1.76579e-07
6.40821e-07
-9.61847e-07
-1.77868e-07
6.86677e-07
-9.69824e-07
-2.00195e-07
6.92449e-07
-9.65502e-07
-2.04623e-07
7.77708e-07
-9.75606e-07
-2.38876e-07
7.54825e-07
-9.68661e-07
-2.48455e-07
9.07845e-07
-9.81759e-07
-3.00673e-07
8.44125e-07
-9.71493e-07
-3.27283e-07
1.10546e-06
-9.91963e-07
-3.94218e-07
1.00601e-06
-9.77556e-07
-4.7873e-07
1.45012e-06
-1.00837e-06
-5.3657e-07
1.3772e-06
-1.00426e-06
-6.9521e-07
2.10406e-06
-1.03484e-06
-5.21848e-07
2.38397e-06
-9.34758e-07
2.91018e-07
3.81909e-06
-1.57786e-06
2.05506e-06
4.73133e-06
-1.96015e-06
5.19256e-06
1.90452e-06
-4.45113e-06
1.33617e-05
3.14281e-06
-9.32187e-06
2.39706e-05
-8.28766e-07
-1.27126e-05
4.10247e-05
-2.74005e-07
-6.92632e-06
3.49615e-05
-6.01198e-06
2.70853e-05
2.22866e-05
-4.10608e-06
4.53117e-06
-3.82922e-05
-5.71151e-06
9.66741e-06
-5.15078e-05
-1.2143e-07
5.55516e-06
-5.91237e-05
-3.55192e-06
2.206e-06
-6.05135e-05
-3.39427e-06
5.69443e-07
-5.96972e-05
-3.70039e-06
-5.01066e-07
-5.76556e-05
-2.80185e-06
-1.32601e-06
-5.40976e-05
-2.51885e-06
-2.04423e-06
-5.01847e-05
-1.44796e-06
-2.63549e-06
-4.67683e-05
-4.13734e-07
-2.90865e-06
-4.38109e-05
1.13493e-06
-3.07729e-06
-4.15035e-05
1.99937e-06
-3.04403e-06
-3.94829e-05
2.49315e-06
-2.97037e-06
-3.81039e-05
2.54251e-06
-2.46492e-06
-3.70571e-05
2.15706e-06
-1.87277e-06
-3.57062e-05
1.28904e-06
-1.39669e-06
-3.46475e-05
5.25639e-07
-9.21062e-07
-3.36504e-05
-2.87026e-07
-6.03334e-07
-3.2486e-05
-1.07094e-06
-4.73381e-07
-3.1249e-05
-1.57602e-06
-4.55298e-07
-2.99001e-05
-1.97195e-06
-3.63106e-07
-2.84627e-05
-2.3274e-06
-1.60436e-07
-2.71449e-05
-2.39888e-06
1.17143e-07
-2.59543e-05
-2.34772e-06
1.96344e-07
-2.47805e-05
-2.42154e-06
1.7497e-07
-2.33837e-05
-2.45693e-06
-4.14849e-08
-2.12089e-05
-2.53561e-06
-4.03105e-07
-1.86764e-05
-2.22074e-06
-5.66466e-07
-1.57236e-05
-1.90654e-06
-7.8182e-07
-1.26442e-05
-1.40973e-06
-8.56108e-07
-9.57877e-06
-9.76813e-07
-9.65483e-07
-6.71793e-06
-3.42893e-07
-1.05804e-06
-4.14592e-06
2.56198e-07
-1.20316e-06
-1.93877e-06
1.09325e-06
-1.37095e-06
-3.00502e-07
2.04682e-06
-1.45389e-06
3.49476e-07
2.74867e-06
-1.28167e-06
3.52019e-06
-7.02232e-07
-2.64442e-06
2.72865e-07
-7.71125e-07
-1.85661e-06
-2.74238e-06
-1.36494e-06
-2.25107e-06
1.71942e-06
-7.45759e-07
-1.71793e-06
-1.08354e-06
-9.3778e-07
-1.63786e-06
1.14707e-06
-9.1083e-07
-1.20941e-06
-6.23492e-07
-9.48779e-07
-1.04509e-06
8.97785e-07
-1.02721e-06
-7.50739e-07
-1.71766e-07
-1.01309e-06
-6.3092e-07
9.15284e-07
-1.08207e-06
-4.58494e-07
2.77866e-07
-1.06094e-06
-4.00528e-07
1.01125e-06
-1.0971e-06
-2.9981e-07
6.48957e-07
-1.10308e-06
-2.78171e-07
1.11463e-06
-1.11637e-06
-2.18848e-07
9.31796e-07
-1.13521e-06
-2.12321e-07
1.2067e-06
-1.14026e-06
-1.81203e-07
1.14453e-06
-1.16208e-06
-1.78708e-07
1.29005e-06
-1.16677e-06
-1.62351e-07
1.30268e-06
-1.18454e-06
-1.59124e-07
1.37377e-06
-1.19413e-06
-1.53799e-07
1.41543e-06
-1.20808e-06
-1.50731e-07
1.45938e-06
-1.21977e-06
-1.4878e-07
1.49971e-06
-1.23174e-06
-1.4783e-07
1.53743e-06
-1.24322e-06
-1.47626e-07
1.57294e-06
-1.25458e-06
-1.47828e-07
1.60674e-06
-1.26607e-06
-1.48406e-07
1.63912e-06
-1.27738e-06
-1.49248e-07
1.67034e-06
-1.28853e-06
-1.50244e-07
1.70058e-06
-1.2995e-06
-1.5138e-07
1.7301e-06
-1.31026e-06
-1.52713e-07
1.7591e-06
-1.32082e-06
-1.54221e-07
1.78774e-06
-1.33117e-06
-1.55915e-07
1.81621e-06
-1.34132e-06
-1.5776e-07
1.84472e-06
-1.3513e-06
-1.5986e-07
1.87352e-06
-1.36111e-06
-1.61651e-07
1.90247e-06
-1.37081e-06
-1.66116e-07
1.93429e-06
-1.3797e-06
-1.65969e-07
1.96123e-06
-1.39032e-06
-1.75105e-07
2.00023e-06
-1.39753e-06
-1.71996e-07
2.02756e-06
-1.40933e-06
-1.87181e-07
2.07055e-06
-1.41506e-06
-1.81453e-07
2.10946e-06
-1.42779e-06
-2.05007e-07
2.14739e-06
-1.43207e-06
-1.97441e-07
2.21716e-06
-1.44617e-06
-2.31726e-07
2.23696e-06
-1.44863e-06
-2.23278e-07
2.36469e-06
-1.46435e-06
-2.69247e-07
2.35387e-06
-1.46458e-06
-2.59375e-07
2.57494e-06
-1.47841e-06
-3.03537e-07
2.52838e-06
-1.4789e-06
-2.97505e-07
2.91702e-06
-1.47214e-06
-2.68657e-07
2.81427e-06
-1.46626e-06
-2.55674e-07
3.56071e-06
-1.46941e-06
-1.45504e-07
3.52275e-06
-1.24934e-06
3.2707e-07
4.83872e-06
-1.46799e-06
2.93195e-06
4.14117e-06
-1.974e-06
7.08002e-06
3.17208e-06
-5.26804e-06
1.78008e-05
8.60553e-07
-8.46377e-06
2.7661e-05
3.322e-06
-1.39262e-05
4.33661e-05
-9.65379e-06
-5.92211e-06
3.99096e-05
-5.3958e-06
3.34404e-05
2.11891e-05
4.15365e-06
5.83871e-06
-5.21569e-05
2.33825e-05
1.65784e-05
-6.92437e-05
8.31155e-06
8.49709e-06
-7.81911e-05
3.14408e-06
2.21229e-06
-7.98331e-05
-1.09379e-06
-6.5758e-07
-8.06108e-05
-2.13621e-06
-7.53432e-07
-7.99662e-05
-2.40029e-06
-9.90137e-07
-7.85268e-05
-2.68593e-06
-1.24335e-06
-7.62596e-05
-2.27529e-06
-1.44028e-06
-7.41333e-05
-6.49989e-07
-1.97578e-06
-7.22853e-05
1.7935e-06
-2.63052e-06
-7.12739e-05
3.91396e-06
-3.01664e-06
-7.05864e-05
5.22855e-06
-3.4904e-06
-7.01433e-05
5.73292e-06
-3.68257e-06
-6.92989e-05
4.95876e-06
-3.69206e-06
-6.80258e-05
3.56903e-06
-3.63936e-06
-6.61851e-05
2.0461e-06
-3.51364e-06
-6.37159e-05
3.9035e-07
-3.34942e-06
-6.07771e-05
-1.21911e-06
-3.00298e-06
-5.79065e-05
-2.38942e-06
-2.24672e-06
-5.56219e-05
-3.00621e-06
-1.38824e-06
-5.40493e-05
-3.28107e-06
-7.02135e-07
-5.29957e-05
-3.22612e-06
-2.65376e-07
-5.22465e-05
-3.05867e-06
-4.82151e-08
-5.16703e-05
-2.96656e-06
-2.9889e-08
-5.08656e-05
-2.88636e-06
-3.78121e-07
-4.96286e-05
-3.01214e-06
-7.96828e-07
-4.78553e-05
-3.085e-06
-1.01846e-06
-4.55753e-05
-3.16373e-06
-1.18122e-06
-4.27196e-05
-3.10237e-06
-1.27684e-06
-3.92756e-05
-3.1069e-06
-1.50307e-06
-3.51048e-05
-3.13748e-06
-1.61223e-06
-3.00856e-05
-3.15771e-06
-1.81609e-06
-2.415e-05
-3.15144e-06
-2.0452e-06
-1.69999e-05
-3.18424e-06
-2.32862e-06
-9.28842e-06
-3.04741e-06
-2.45504e-06
-4.04551e-06
-3.54613e-06
-2.86303e-06
1.7821e-06
1.52064e-06
-2.22441e-06
-2.24977e-06
-1.13992e-06
-2.6627e-06
1.92636e-06
2.36801e-07
-1.93365e-06
-1.36333e-06
-4.52667e-07
-1.71458e-06
1.32857e-06
-3.97632e-07
-1.17508e-06
-6.0231e-07
-5.62196e-07
-9.63063e-07
1.30193e-06
-6.13871e-07