/*--------------------------------*- C++ -*----------------------------------*\
| =========                 |                                                 |
| \\      /  F ield         | OpenFOAM: The Open Source CFD Toolbox           |
|  \\    /   O peration     | Version:  2.3.0                                 |
|   \\  /    A nd           | Web:      www.OpenFOAM.org                      |
|    \\/     M anipulation  |                                                 |
\*---------------------------------------------------------------------------*/
FoamFile
{
    version     2.0;
    format      ascii;
    class       volScalarField;
    location    "3";
    object      rho;
}
// * * * * * * * * * * * * * * * * * * * * * * * * * * * * * * * * * * * * * //

dimensions      [1 -3 0 0 0 0 0];

internalField   nonuniform List<scalar> 
6144
(
1.16888
1.16888
1.16889
1.16889
1.16889
1.16889
1.16889
1.1689
1.1689
1.1689
1.1689
1.1689
1.1689
1.16891
1.16891
1.16891
1.16891
1.16891
1.16891
1.16892
1.16892
1.16892
1.16892
1.16892
1.16892
1.16893
1.16893
1.16893
1.16893
1.16893
1.16893
1.16894
1.16894
1.16894
1.16894
1.16895
1.16894
1.16895
1.16894
1.16896
1.16895
1.16896
1.16895
1.16896
1.16896
1.16897
1.16896
1.16897
1.16896
1.16898
1.16897
1.16899
1.16898
1.16906
1.16997
1.17325
1.18083
1.20777
2.79827
74.0985
992.86
1026.88
1027.09
1027.09
1027.09
1027.1
1027.1
1027.1
1027.1
1027.1
1027.1
1027.1
1027.1
1027.1
1027.1
1027.1
1027.1
1027.1
1027.1
1027.1
1027.1
1027.1
1027.1
1027.1
1027.1
1027.1
1027.1
1027.1
1027.1
1027.1
1027.1
1027.1
1027.1
1027.1
1027.1
1027.1
1.16888
1.16888
1.16888
1.16889
1.16889
1.16889
1.16889
1.1689
1.16889
1.1689
1.1689
1.1689
1.1689
1.16891
1.16891
1.16891
1.16891
1.16891
1.16891
1.16891
1.16892
1.16892
1.16892
1.16892
1.16892
1.16892
1.16893
1.16893
1.16893
1.16893
1.16893
1.16894
1.16894
1.16894
1.16894
1.16895
1.16894
1.16895
1.16894
1.16895
1.16895
1.16896
1.16895
1.16896
1.16896
1.16897
1.16896
1.16897
1.16896
1.16898
1.16897
1.16899
1.169
1.16935
1.17178
1.17946
1.18376
1.20791
1.93669
39.8458
992.3
1026.96
1027.09
1027.09
1027.09
1027.1
1027.1
1027.1
1027.1
1027.1
1027.1
1027.1
1027.1
1027.1
1027.1
1027.1
1027.1
1027.1
1027.1
1027.1
1027.1
1027.1
1027.1
1027.1
1027.1
1027.1
1027.1
1027.1
1027.1
1027.1
1027.1
1027.1
1027.1
1027.1
1027.1
1027.1
1.16888
1.16888
1.16888
1.16889
1.16888
1.16889
1.16889
1.1689
1.16889
1.1689
1.1689
1.1689
1.1689
1.1689
1.16891
1.16891
1.16891
1.16891
1.16891
1.16891
1.16892
1.16892
1.16892
1.16892
1.16892
1.16892
1.16893
1.16893
1.16893
1.16893
1.16893
1.16893
1.16894
1.16894
1.16894
1.16894
1.16894
1.16895
1.16894
1.16895
1.16895
1.16896
1.16895
1.16896
1.16895
1.16897
1.16896
1.16897
1.16896
1.16898
1.16897
1.16899
1.16902
1.16974
1.17284
1.19028
1.20219
1.21296
1.61272
42.9398
1000.7
1027.04
1027.09
1027.09
1027.09
1027.1
1027.1
1027.1
1027.1
1027.1
1027.1
1027.1
1027.1
1027.1
1027.1
1027.1
1027.1
1027.1
1027.1
1027.1
1027.1
1027.1
1027.1
1027.1
1027.1
1027.1
1027.1
1027.1
1027.1
1027.1
1027.1
1027.1
1027.1
1027.1
1027.1
1027.1
1.16888
1.16888
1.16888
1.16889
1.16888
1.16889
1.16889
1.1689
1.16889
1.1689
1.1689
1.1689
1.1689
1.1689
1.1689
1.16891
1.16891
1.16891
1.16891
1.16891
1.16892
1.16892
1.16892
1.16892
1.16892
1.16892
1.16893
1.16893
1.16893
1.16893
1.16893
1.16893
1.16894
1.16894
1.16894
1.16894
1.16894
1.16895
1.16894
1.16895
1.16895
1.16896
1.16895
1.16896
1.16895
1.16896
1.16896
1.16897
1.16896
1.16897
1.16897
1.16898
1.16901
1.16951
1.18047
1.21477
1.22212
1.22682
1.45463
76.5925
1009.39
1027.07
1027.09
1027.09
1027.09
1027.1
1027.1
1027.1
1027.1
1027.1
1027.1
1027.1
1027.1
1027.1
1027.1
1027.1
1027.1
1027.1
1027.1
1027.1
1027.1
1027.1
1027.1
1027.1
1027.1
1027.1
1027.1
1027.1
1027.1
1027.1
1027.1
1027.1
1027.1
1027.1
1027.1
1027.1
1.16887
1.16888
1.16888
1.16889
1.16888
1.16889
1.16889
1.1689
1.16889
1.1689
1.1689
1.1689
1.1689
1.1689
1.1689
1.16891
1.16891
1.16891
1.16891
1.16891
1.16892
1.16892
1.16892
1.16892
1.16892
1.16892
1.16893
1.16893
1.16893
1.16893
1.16893
1.16893
1.16894
1.16894
1.16894
1.16894
1.16894
1.16895
1.16894
1.16895
1.16895
1.16896
1.16895
1.16896
1.16895
1.16896
1.16896
1.16897
1.16896
1.16898
1.16897
1.16899
1.16921
1.17247
1.21011
1.23313
1.23014
1.2283
1.3759
112.69
1000.45
1026.82
1026.88
1026.95
1026.98
1027.01
1027.02
1027.03
1027.04
1027.04
1027.06
1027.07
1027.08
1027.09
1027.09
1027.09
1027.1
1027.1
1027.1
1027.1
1027.1
1027.1
1027.1
1027.1
1027.1
1027.1
1027.1
1027.1
1027.1
1027.1
1027.1
1027.1
1027.1
1027.1
1027.1
1027.1
1.16883
1.16888
1.16888
1.16889
1.16888
1.16889
1.16889
1.1689
1.16889
1.1689
1.1689
1.1689
1.1689
1.1689
1.1689
1.16891
1.16891
1.16891
1.16891
1.16891
1.16892
1.16892
1.16892
1.16892
1.16892
1.16892
1.16893
1.16893
1.16893
1.16893
1.16893
1.16893
1.16893
1.16894
1.16894
1.16894
1.16894
1.16895
1.16894
1.16895
1.16895
1.16896
1.16895
1.16896
1.16895
1.16896
1.16896
1.16897
1.16896
1.16898
1.16897
1.16912
1.17339
1.18711
1.21991
1.21414
1.19566
1.18907
1.19329
135.178
995.676
1024.76
1024.6
1024.71
1024.75
1024.83
1024.83
1024.82
1025.05
1025.29
1025.6
1025.89
1026.14
1026.35
1026.51
1026.64
1026.73
1026.81
1026.88
1026.94
1026.99
1027.03
1027.05
1027.08
1027.09
1027.09
1027.1
1027.1
1027.1
1027.1
1027.1
1027.1
1027.1
1027.1
1027.1
1027.1
1.16877
1.16886
1.16888
1.16889
1.16889
1.16889
1.16889
1.1689
1.16889
1.1689
1.1689
1.16891
1.1689
1.16891
1.16891
1.16891
1.16891
1.16891
1.16891
1.16892
1.16892
1.16892
1.16892
1.16892
1.16893
1.16893
1.16893
1.16893
1.16893
1.16893
1.16894
1.16894
1.16894
1.16894
1.16894
1.16895
1.16894
1.16895
1.16895
1.16896
1.16895
1.16896
1.16895
1.16896
1.16896
1.16897
1.16896
1.16897
1.16896
1.16898
1.16938
1.17379
1.18718
1.19002
1.19262
1.21972
1.21633
1.21738
1.18551
219.401
1003.84
1021.06
1020.76
1021.14
1021.39
1021.55
1021.65
1022.12
1022.83
1023.54
1024.26
1024.86
1025.36
1025.78
1026.05
1026.16
1026.13
1026.26
1026.3
1026.24
1026.2
1026.19
1026.26
1026.38
1026.46
1026.54
1026.55
1026.54
1026.65
1026.74
1026.88
1026.99
1027.06
1027.09
1027.09
1027.09
1.16864
1.16881
1.16888
1.16889
1.16888
1.16889
1.16888
1.1689
1.16889
1.1689
1.16889
1.1689
1.1689
1.16891
1.1689
1.16891
1.16891
1.16891
1.16891
1.16891
1.16892
1.16892
1.16892
1.16892
1.16892
1.16892
1.16893
1.16893
1.16893
1.16893
1.16893
1.16894
1.16894
1.16894
1.16894
1.16894
1.16894
1.16895
1.16894
1.16895
1.16895
1.16896
1.16895
1.16896
1.16895
1.16897
1.16896
1.16897
1.16896
1.16942
1.17959
1.19385
1.20278
1.19728
1.19131
1.20635
1.21133
1.24307
1.18551
521.522
1011.57
1014.27
1014.43
1014.54
1014.72
1014.86
1014.94
1015.09
1015.39
1015.64
1015.88
1016.23
1016.7
1017.32
1017.79
1018.24
1018.82
1019.39
1019.84
1020.15
1020.3
1020.26
1020.28
1020.41
1020.59
1020.43
1020.12
1019.79
1019.53
1019.36
1019.74
1020.8
1021.47
1022.14
1023.04
1024.12
1.16828
1.16876
1.16887
1.16889
1.16887
1.16889
1.16888
1.16889
1.16888
1.1689
1.16889
1.1689
1.1689
1.1689
1.1689
1.1689
1.1689
1.16891
1.16891
1.16891
1.16891
1.16891
1.16892
1.16892
1.16892
1.16892
1.16892
1.16893
1.16893
1.16893
1.16893
1.16893
1.16893
1.16894
1.16894
1.16894
1.16894
1.16895
1.16894
1.16895
1.16895
1.16896
1.16895
1.16896
1.16895
1.16896
1.16896
1.16896
1.16924
1.1782
1.19832
1.20911
1.21233
1.21205
1.2073
1.20048
1.19627
1.19533
1.18551
300.903
1020.01
1023.63
1024.14
1024.51
1024.78
1024.95
1025.08
1025.17
1025.23
1025.36
1025.51
1025.72
1025.97
1026.21
1026.36
1026.41
1026.41
1026.39
1026.38
1026.38
1026.45
1026.54
1026.65
1026.74
1026.79
1026.81
1026.81
1026.81
1026.84
1026.92
1026.99
1027.04
1027.06
1027.07
1027.08
1027.09
1.16794
1.16873
1.16887
1.16887
1.16888
1.16889
1.16888
1.1689
1.16888
1.1689
1.16889
1.1689
1.1689
1.1689
1.1689
1.1689
1.1689
1.16891
1.16891
1.16891
1.16891
1.16891
1.16892
1.16892
1.16892
1.16892
1.16892
1.16892
1.16893
1.16893
1.16893
1.16893
1.16893
1.16893
1.16894
1.16894
1.16894
1.16894
1.16894
1.16895
1.16895
1.16895
1.16895
1.16896
1.16895
1.16896
1.16896
1.16922
1.17619
1.1894
1.19188
1.19202
1.19221
1.19208
1.19066
1.19077
1.19092
1.1913
1.18551
149.927
1009.12
1026.97
1027.02
1027.05
1027.06
1027.07
1027.08
1027.08
1027.08
1027.09
1027.09
1027.09
1027.09
1027.1
1027.1
1027.1
1027.1
1027.1
1027.1
1027.1
1027.1
1027.1
1027.1
1027.1
1027.1
1027.1
1027.1
1027.1
1027.1
1027.1
1027.1
1027.1
1027.1
1027.1
1027.1
1027.1
1.16761
1.1686
1.16882
1.16873
1.16887
1.16889
1.16888
1.1689
1.16889
1.1689
1.16889
1.1689
1.1689
1.1689
1.1689
1.16891
1.16891
1.16891
1.16891
1.16891
1.16891
1.16892
1.16892
1.16892
1.16892
1.16892
1.16892
1.16893
1.16893
1.16893
1.16893
1.16893
1.16893
1.16894
1.16894
1.16894
1.16894
1.16895
1.16894
1.16895
1.16895
1.16895
1.16895
1.16896
1.16896
1.16896
1.16896
1.16899
1.17102
1.18177
1.18882
1.19043
1.19135
1.19213
1.19479
1.19985
1.20227
1.21014
1.20808
67.9985
1011.79
1027.09
1027.09
1027.09
1027.09
1027.09
1027.1
1027.1
1027.1
1027.1
1027.1
1027.1
1027.1
1027.1
1027.1
1027.1
1027.1
1027.1
1027.1
1027.1
1027.1
1027.1
1027.1
1027.1
1027.1
1027.1
1027.1
1027.1
1027.1
1027.1
1027.1
1027.1
1027.1
1027.1
1027.1
1027.1
1.1668
1.16769
1.16846
1.16835
1.16884
1.16889
1.16888
1.1689
1.16889
1.1689
1.16889
1.16891
1.1689
1.16891
1.1689
1.16891
1.16891
1.16891
1.16891
1.16892
1.16892
1.16892
1.16892
1.16892
1.16892
1.16892
1.16893
1.16893
1.16893
1.16893
1.16893
1.16893
1.16894
1.16894
1.16894
1.16894
1.16894
1.16895
1.16894
1.16895
1.16895
1.16896
1.16895
1.16896
1.16896
1.16897
1.16896
1.16897
1.16904
1.17131
1.1791
1.18418
1.18705
1.18841
1.19226
1.19313
1.19603
1.2131
1.3658
42.6428
995.412
1027.09
1027.09
1027.09
1027.09
1027.1
1027.1
1027.1
1027.1
1027.1
1027.1
1027.1
1027.1
1027.1
1027.1
1027.1
1027.1
1027.1
1027.1
1027.1
1027.1
1027.1
1027.1
1027.1
1027.1
1027.1
1027.1
1027.1
1027.1
1027.1
1027.1
1027.1
1027.1
1027.1
1027.1
1027.1
1.16546
1.16583
1.16723
1.16762
1.16874
1.16889
1.16888
1.1689
1.16889
1.1689
1.1689
1.16891
1.1689
1.16891
1.1689
1.16891
1.16891
1.16892
1.16891
1.16892
1.16892
1.16892
1.16892
1.16892
1.16893
1.16893
1.16893
1.16893
1.16893
1.16893
1.16894
1.16894
1.16894
1.16894
1.16894
1.16895
1.16894
1.16895
1.16895
1.16896
1.16895
1.16896
1.16896
1.16896
1.16896
1.16897
1.16896
1.16897
1.16896
1.16903
1.17029
1.17346
1.17519
1.17642
1.18365
1.18835
1.18854
1.21958
1.56379
34.3652
956.589
1027.09
1027.09
1027.09
1027.09
1027.1
1027.1
1027.1
1027.1
1027.1
1027.1
1027.1
1027.1
1027.1
1027.1
1027.1
1027.1
1027.1
1027.1
1027.1
1027.1
1027.1
1027.1
1027.1
1027.1
1027.1
1027.1
1027.1
1027.1
1027.1
1027.1
1027.1
1027.1
1027.1
1027.1
1027.1
1.16401
1.16387
1.16531
1.16637
1.16851
1.16889
1.16888
1.1689
1.16889
1.1689
1.1689
1.16891
1.1689
1.16891
1.16891
1.16891
1.16891
1.16892
1.16891
1.16892
1.16892
1.16892
1.16892
1.16892
1.16893
1.16893
1.16893
1.16893
1.16893
1.16893
1.16894
1.16894
1.16894
1.16894
1.16894
1.16895
1.16894
1.16895
1.16895
1.16896
1.16895
1.16896
1.16896
1.16896
1.16896
1.16897
1.16896
1.16897
1.16896
1.16898
1.16899
1.16919
1.17161
1.17456
1.17828
1.18547
1.1895
1.24321
1.60479
36.9901
962.537
1027.09
1027.09
1027.09
1027.09
1027.1
1027.1
1027.1
1027.1
1027.1
1027.1
1027.1
1027.1
1027.1
1027.1
1027.1
1027.1
1027.1
1027.1
1027.1
1027.1
1027.1
1027.1
1027.1
1027.1
1027.1
1027.1
1027.1
1027.1
1027.1
1027.1
1027.1
1027.1
1027.1
1027.1
1027.1
1.1629
1.16257
1.16291
1.16499
1.16798
1.16886
1.16888
1.16889
1.16889
1.1689
1.1689
1.16891
1.16891
1.16891
1.16891
1.16891
1.16891
1.16892
1.16892
1.16892
1.16892
1.16892
1.16892
1.16893
1.16893
1.16893
1.16893
1.16893
1.16893
1.16894
1.16894
1.16894
1.16894
1.16894
1.16894
1.16895
1.16894
1.16895
1.16895
1.16896
1.16896
1.16896
1.16896
1.16896
1.16896
1.16897
1.16896
1.16897
1.16897
1.16898
1.16898
1.16904
1.17207
1.1745
1.17974
1.18539
1.18764
1.20152
1.36942
30.2393
962.269
1027.02
1027.09
1027.09
1027.09
1027.1
1027.1
1027.1
1027.1
1027.1
1027.1
1027.1
1027.1
1027.1
1027.1
1027.1
1027.1
1027.1
1027.1
1027.1
1027.1
1027.1
1027.1
1027.1
1027.1
1027.1
1027.1
1027.1
1027.1
1027.1
1027.1
1027.1
1027.1
1027.1
1027.1
1027.1
1.16154
1.16213
1.16226
1.16439
1.16757
1.16882
1.16888
1.16889
1.1689
1.1689
1.1689
1.16891
1.16891
1.16891
1.16891
1.16891
1.16891
1.16892
1.16892
1.16892
1.16892
1.16892
1.16893
1.16893
1.16893
1.16893
1.16893
1.16893
1.16894
1.16894
1.16894
1.16894
1.16894
1.16894
1.16894
1.16895
1.16895
1.16895
1.16895
1.16896
1.16896
1.16896
1.16896
1.16896
1.16896
1.16897
1.16897
1.16897
1.16897
1.16898
1.16898
1.16904
1.16969
1.17673
1.21772
1.24166
1.22525
1.20761
1.67062
38.7621
931.64
1025.81
1027.09
1027.09
1027.09
1027.1
1027.1
1027.1
1027.1
1027.1
1027.1
1027.1
1027.1
1027.1
1027.1
1027.1
1027.1
1027.1
1027.1
1027.1
1027.1
1027.1
1027.1
1027.1
1027.1
1027.1
1027.1
1027.1
1027.1
1027.1
1027.1
1027.1
1027.1
1027.1
1027.1
1027.1
1.16888
1.16888
1.16889
1.16889
1.16889
1.16889
1.16889
1.1689
1.1689
1.1689
1.1689
1.1689
1.1689
1.1689
1.16891
1.16891
1.16891
1.16891
1.16891
1.16891
1.16892
1.16892
1.16892
1.16892
1.16892
1.16892
1.16893
1.16893
1.16893
1.16893
1.16893
1.16894
1.16894
1.16894
1.16894
1.16895
1.16894
1.16895
1.16894
1.16895
1.16895
1.16896
1.16895
1.16896
1.16896
1.16896
1.16896
1.16897
1.16896
1.16897
1.16897
1.16898
1.16898
1.16908
1.1706
1.18764
1.19391
1.26796
1.84195
43.8653
994.555
1026.98
1027.09
1027.09
1027.09
1027.1
1027.1
1027.1
1027.1
1027.1
1027.1
1027.1
1027.1
1027.1
1027.1
1027.1
1027.1
1027.1
1027.1
1027.1
1027.1
1027.1
1027.1
1027.1
1027.1
1027.1
1027.1
1027.1
1027.1
1027.1
1027.1
1027.1
1027.1
1027.1
1027.1
1027.1
1.16888
1.16889
1.16889
1.16889
1.16889
1.16889
1.16889
1.1689
1.1689
1.1689
1.1689
1.1689
1.1689
1.16891
1.16891
1.16891
1.16891
1.16891
1.16891
1.16892
1.16892
1.16892
1.16892
1.16892
1.16892
1.16893
1.16893
1.16893
1.16893
1.16893
1.16893
1.16894
1.16894
1.16894
1.16894
1.16895
1.16894
1.16895
1.16894
1.16896
1.16895
1.16896
1.16895
1.16896
1.16896
1.16897
1.16896
1.16897
1.16896
1.16897
1.16897
1.16898
1.16902
1.16911
1.1702
1.17939
1.18219
1.26529
1.57113
61.2489
1008.34
1027.08
1027.09
1027.09
1027.09
1027.1
1027.1
1027.1
1027.1
1027.1
1027.1
1027.1
1027.1
1027.1
1027.1
1027.1
1027.1
1027.1
1027.1
1027.1
1027.1
1027.1
1027.1
1027.1
1027.1
1027.1
1027.1
1027.1
1027.1
1027.1
1027.1
1027.1
1027.1
1027.1
1027.1
1027.1
1.16888
1.16889
1.16889
1.16889
1.16889
1.16889
1.16889
1.1689
1.1689
1.1689
1.1689
1.1689
1.1689
1.16891
1.16891
1.16891
1.16891
1.16891
1.16892
1.16892
1.16892
1.16892
1.16892
1.16892
1.16893
1.16893
1.16893
1.16893
1.16893
1.16893
1.16894
1.16894
1.16894
1.16894
1.16894
1.16895
1.16894
1.16895
1.16895
1.16896
1.16895
1.16896
1.16895
1.16896
1.16896
1.16897
1.16896
1.16897
1.16896
1.16898
1.16897
1.16898
1.16909
1.16955
1.17324
1.18038
1.20081
1.24324
1.43111
87.8841
1013.53
1027.09
1027.09
1027.09
1027.09
1027.1
1027.1
1027.1
1027.1
1027.1
1027.1
1027.1
1027.1
1027.1
1027.1
1027.1
1027.1
1027.1
1027.1
1027.1
1027.1
1027.1
1027.1
1027.1
1027.1
1027.1
1027.1
1027.1
1027.1
1027.1
1027.1
1027.1
1027.1
1027.1
1027.1
1027.1
1.16887
1.16889
1.16889
1.16889
1.16889
1.16889
1.16889
1.1689
1.1689
1.1689
1.1689
1.16891
1.16891
1.16891
1.16891
1.16891
1.16891
1.16891
1.16892
1.16892
1.16892
1.16892
1.16892
1.16892
1.16893
1.16893
1.16893
1.16893
1.16893
1.16894
1.16894
1.16894
1.16894
1.16894
1.16894
1.16895
1.16894
1.16895
1.16895
1.16896
1.16895
1.16896
1.16896
1.16896
1.16896
1.16897
1.16896
1.16897
1.16896
1.16898
1.16897
1.16898
1.16904
1.16931
1.22294
1.24141
1.28313
1.31831
1.38836
145.633
1017.74
1026.92
1027
1027.06
1027.08
1027.09
1027.09
1027.09
1027.1
1027.1
1027.1
1027.1
1027.1
1027.1
1027.1
1027.1
1027.1
1027.1
1027.1
1027.1
1027.1
1027.1
1027.1
1027.1
1027.1
1027.1
1027.1
1027.1
1027.1
1027.1
1027.1
1027.1
1027.1
1027.1
1027.1
1027.1
1.16876
1.16889
1.16889
1.16889
1.16889
1.16889
1.1689
1.1689
1.1689
1.1689
1.1689
1.16891
1.16891
1.16891
1.16891
1.16891
1.16891
1.16892
1.16892
1.16892
1.16892
1.16892
1.16892
1.16893
1.16893
1.16893
1.16893
1.16893
1.16894
1.16894
1.16894
1.16894
1.16894
1.16894
1.16894
1.16895
1.16895
1.16895
1.16895
1.16896
1.16896
1.16896
1.16896
1.16896
1.16896
1.16897
1.16897
1.16897
1.16897
1.16898
1.16897
1.16899
1.16904
1.1733
1.32444
1.34904
1.33305
1.3159
1.2987
332.959
1012.83
1020.6
1021.68
1022.96
1023.81
1024.68
1025.27
1025.64
1025.87
1026.05
1026.2
1026.36
1026.52
1026.67
1026.78
1026.87
1026.94
1026.99
1027.03
1027.06
1027.08
1027.09
1027.09
1027.1
1027.1
1027.1
1027.1
1027.1
1027.1
1027.1
1027.1
1027.1
1027.1
1027.1
1027.1
1027.1
1.16861
1.16887
1.16889
1.16889
1.16889
1.16889
1.16889
1.1689
1.1689
1.1689
1.1689
1.16891
1.16891
1.16891
1.16891
1.16891
1.16891
1.16892
1.16892
1.16892
1.16892
1.16892
1.16893
1.16893
1.16893
1.16893
1.16893
1.16893
1.16894
1.16894
1.16894
1.16894
1.16894
1.16895
1.16895
1.16895
1.16895
1.16895
1.16896
1.16896
1.16896
1.16896
1.16896
1.16896
1.16896
1.16897
1.16897
1.16897
1.16897
1.16898
1.16897
1.16905
1.1703
1.19193
1.32244
1.35039
1.33291
1.29355
1.19631
507.961
991.716
997.528
996.93
997.811
998.524
1000.22
1001.63
1002.98
1004.19
1005.5
1006.84
1008.35
1010.1
1011.92
1013.64
1015.16
1016.61
1017.98
1019.31
1020.7
1022.06
1023.28
1024.34
1025.19
1025.82
1026.27
1026.58
1026.79
1026.93
1027.02
1027.07
1027.09
1027.1
1027.1
1027.1
1027.1
1.16838
1.16882
1.16889
1.16889
1.16888
1.16889
1.16889
1.1689
1.16889
1.1689
1.1689
1.16891
1.1689
1.16891
1.16891
1.16891
1.16891
1.16892
1.16892
1.16892
1.16892
1.16892
1.16892
1.16892
1.16893
1.16893
1.16893
1.16893
1.16893
1.16893
1.16894
1.16894
1.16894
1.16894
1.16894
1.16895
1.16894
1.16895
1.16895
1.16896
1.16895
1.16896
1.16896
1.16896
1.16896
1.16897
1.16896
1.16897
1.16896
1.16897
1.1691
1.17113
1.1776
1.18282
1.22917
1.33134
1.32364
1.29775
1.18668
382.146
976.143
986.886
981.786
979.291
978.08
977.4
976.769
976.205
975.835
975.682
975.685
975.807
975.83
976.063
975.993
975.544
975.107
974.714
974.438
975.35
978.174
981.494
984.997
988.373
991.407
994.045
996.55
999.351
1002.78
1006.97
1011.72
1016.56
1021.02
1024.44
1026.14
1026.13
1.16796
1.1687
1.16887
1.16888
1.16887
1.16889
1.16888
1.16889
1.16889
1.1689
1.16889
1.1689
1.1689
1.1689
1.1689
1.16891
1.16891
1.16891
1.16891
1.16891
1.16891
1.16892
1.16892
1.16892
1.16892
1.16892
1.16892
1.16893
1.16893
1.16893
1.16893
1.16893
1.16893
1.16894
1.16894
1.16894
1.16894
1.16894
1.16894
1.16895
1.16895
1.16895
1.16895
1.16896
1.16895
1.16896
1.16896
1.16896
1.16896
1.16921
1.17379
1.18381
1.1904
1.19166
1.1831
1.25151
1.29997
1.34492
1.18551
313.526
998.271
1007.91
1005.95
1004.9
1003.44
1000.33
996.654
992.623
988.313
983.984
980.275
977.349
975.039
972.814
970.134
966.539
961.897
956.69
951.387
946.955
943.92
941.93
939.943
937.011
932.324
925.141
916.998
909.271
902.022
894.876
886.643
876.479
865.44
850.965
809.695
612.89
1.16757
1.16839
1.16883
1.16877
1.16886
1.16889
1.16888
1.16889
1.16889
1.1689
1.16889
1.1689
1.1689
1.1689
1.1689
1.16891
1.16891
1.16891
1.16891
1.16891
1.16891
1.16892
1.16892
1.16892
1.16892
1.16892
1.16892
1.16893
1.16893
1.16893
1.16893
1.16893
1.16893
1.16894
1.16894
1.16894
1.16894
1.16894
1.16894
1.16895
1.16895
1.16895
1.16895
1.16896
1.16895
1.16896
1.16896
1.16896
1.16915
1.17293
1.18754
1.19909
1.201
1.20398
1.22717
1.26657
1.29697
1.30615
1.25853
194.121
1021.54
1025.92
1026.08
1026.21
1026.23
1026.1
1025.93
1025.75
1025.53
1025.3
1025.05
1024.92
1024.97
1025.37
1025.47
1025.16
1024.85
1024.62
1024.49
1024.49
1024.51
1024.58
1024.64
1024.64
1024.41
1023.95
1023.35
1023.07
1023.02
1023.31
1024.17
1024.66
1024.98
1025.31
1025.58
1026.63
1.16733
1.16777
1.16856
1.16822
1.16884
1.16889
1.16888
1.16889
1.16888
1.1689
1.16889
1.1689
1.1689
1.1689
1.1689
1.1689
1.1689
1.16891
1.16891
1.16891
1.16891
1.16891
1.16892
1.16892
1.16892
1.16892
1.16892
1.16892
1.16893
1.16893
1.16893
1.16893
1.16893
1.16893
1.16894
1.16894
1.16894
1.16894
1.16894
1.16895
1.16895
1.16895
1.16895
1.16896
1.16895
1.16896
1.16896
1.16897
1.17027
1.1802
1.18867
1.19312
1.20392
1.22008
1.24238
1.2525
1.25407
1.22669
1.21101
115.716
1023.05
1027.08
1027.09
1027.09
1027.09
1027.09
1027.09
1027.09
1027.09
1027.09
1027.09
1027.09
1027.09
1027.09
1027.09
1027.09
1027.09
1027.09
1027.09
1027.09
1027.09
1027.09
1027.1
1027.1
1027.1
1027.1
1027.1
1027.1
1027.1
1027.1
1027.1
1027.1
1027.1
1027.1
1027.1
1027.1
1.16697
1.16663
1.16756
1.16717
1.16865
1.16889
1.16888
1.16889
1.16888
1.1689
1.16889
1.1689
1.1689
1.1689
1.1689
1.1689
1.1689
1.16891
1.16891
1.16891
1.16891
1.16891
1.16892
1.16892
1.16892
1.16892
1.16892
1.16892
1.16893
1.16893
1.16893
1.16893
1.16893
1.16893
1.16894
1.16894
1.16894
1.16894
1.16894
1.16895
1.16895
1.16895
1.16895
1.16896
1.16895
1.16896
1.16896
1.16896
1.16906
1.17103
1.17834
1.18139
1.17751
1.17997
1.18708
1.20643
1.21139
1.21941
1.23489
56.2119
1016.64
1027.09
1027.09
1027.09
1027.09
1027.1
1027.1
1027.1
1027.1
1027.1
1027.1
1027.1
1027.1
1027.1
1027.1
1027.1
1027.1
1027.1
1027.1
1027.1
1027.1
1027.1
1027.1
1027.1
1027.1
1027.1
1027.1
1027.1
1027.1
1027.1
1027.1
1027.1
1027.1
1027.1
1027.1
1027.1
1.16614
1.16526
1.16558
1.16588
1.16801
1.16886
1.16888
1.16889
1.16888
1.16889
1.16889
1.1689
1.1689
1.1689
1.1689
1.1689
1.1689
1.16891
1.16891
1.16891
1.16891
1.16891
1.16892
1.16892
1.16892
1.16892
1.16892
1.16892
1.16893
1.16893
1.16893
1.16893
1.16893
1.16893
1.16894
1.16894
1.16894
1.16894
1.16894
1.16895
1.16895
1.16895
1.16895
1.16896
1.16895
1.16896
1.16896
1.16896
1.16896
1.16909
1.17047
1.17327
1.1745
1.18565
1.19635
1.20246
1.21798
1.23209
1.29703
34.1837
991.751
1027.09
1027.09
1027.09
1027.09
1027.1
1027.1
1027.1
1027.1
1027.1
1027.1
1027.1
1027.1
1027.1
1027.1
1027.1
1027.1
1027.1
1027.1
1027.1
1027.1
1027.1
1027.1
1027.1
1027.1
1027.1
1027.1
1027.1
1027.1
1027.1
1027.1
1027.1
1027.1
1027.1
1027.1
1027.1
1.16515
1.16436
1.16417
1.16447
1.16703
1.16875
1.16887
1.16889
1.16888
1.16889
1.16889
1.1689
1.1689
1.1689
1.1689
1.1689
1.1689
1.16891
1.16891
1.16891
1.16891
1.16891
1.16892
1.16892
1.16892
1.16892
1.16892
1.16892
1.16893
1.16893
1.16893
1.16893
1.16893
1.16894
1.16894
1.16894
1.16894
1.16894
1.16894
1.16895
1.16895
1.16895
1.16895
1.16896
1.16895
1.16896
1.16896
1.16896
1.16896
1.16898
1.16904
1.16986
1.17609
1.19328
1.20422
1.20579
1.21454
1.22933
1.38993
24.8914
954.645
1027.09
1027.09
1027.09
1027.09
1027.1
1027.1
1027.1
1027.1
1027.1
1027.1
1027.1
1027.1
1027.1
1027.1
1027.1
1027.1
1027.1
1027.1
1027.1
1027.1
1027.1
1027.1
1027.1
1027.1
1027.1
1027.1
1027.1
1027.1
1027.1
1027.1
1027.1
1027.1
1027.1
1027.1
1027.1
1.16402
1.16362
1.16303
1.1632
1.16607
1.16863
1.16887
1.16889
1.16888
1.16889
1.16889
1.1689
1.1689
1.1689
1.1689
1.1689
1.1689
1.16891
1.16891
1.16891
1.16891
1.16891
1.16891
1.16892
1.16892
1.16892
1.16892
1.16892
1.16893
1.16893
1.16893
1.16893
1.16893
1.16893
1.16894
1.16894
1.16894
1.16894
1.16894
1.16895
1.16895
1.16895
1.16895
1.16896
1.16895
1.16896
1.16896
1.16896
1.16896
1.16897
1.16902
1.17048
1.183
1.19956
1.21603
1.21172
1.19569
1.23
1.4873
26.4862
957.383
1027.09
1027.09
1027.09
1027.09
1027.1
1027.1
1027.1
1027.1
1027.1
1027.1
1027.1
1027.1
1027.1
1027.1
1027.1
1027.1
1027.1
1027.1
1027.1
1027.1
1027.1
1027.1
1027.1
1027.1
1027.1
1027.1
1027.1
1027.1
1027.1
1027.1
1027.1
1027.1
1027.1
1027.1
1027.1
1.16289
1.16234
1.16156
1.16229
1.16572
1.16858
1.16887
1.16889
1.16888
1.16889
1.16889
1.1689
1.1689
1.1689
1.1689
1.16891
1.1689
1.16891
1.16891
1.16891
1.16891
1.16892
1.16892
1.16892
1.16892
1.16892
1.16892
1.16892
1.16893
1.16893
1.16893
1.16893
1.16893
1.16894
1.16894
1.16894
1.16894
1.16894
1.16894
1.16895
1.16895
1.16895
1.16895
1.16896
1.16895
1.16896
1.16896
1.16896
1.16896
1.16898
1.1691
1.17123
1.17806
1.19349
1.25003
1.25776
1.2175
1.2306
1.48132
31.758
946.526
1026.89
1027.09
1027.09
1027.09
1027.1
1027.1
1027.1
1027.1
1027.1
1027.1
1027.1
1027.1
1027.1
1027.1
1027.1
1027.1
1027.1
1027.1
1027.1
1027.1
1027.1
1027.1
1027.1
1027.1
1027.1
1027.1
1027.1
1027.1
1027.1
1027.1
1027.1
1027.1
1027.1
1027.1
1027.1
1.16081
1.16056
1.16051
1.16249
1.16712
1.16882
1.16888
1.16889
1.16889
1.16889
1.16889
1.1689
1.1689
1.1689
1.1689
1.16891
1.16891
1.16891
1.16891
1.16891
1.16891
1.16892
1.16892
1.16892
1.16892
1.16892
1.16892
1.16893
1.16893
1.16893
1.16893
1.16893
1.16893
1.16894
1.16894
1.16894
1.16894
1.16895
1.16894
1.16895
1.16895
1.16896
1.16895
1.16896
1.16896
1.16896
1.16896
1.16897
1.16896
1.16898
1.16897
1.16906
1.17063
1.20409
1.29188
1.30765
1.27845
1.25066
1.65177
50.7726
940.708
1026.27
1027.09
1027.09
1027.09
1027.1
1027.1
1027.1
1027.1
1027.1
1027.1
1027.1
1027.1
1027.1
1027.1
1027.1
1027.1
1027.1
1027.1
1027.1
1027.1
1027.1
1027.1
1027.1
1027.1
1027.1
1027.1
1027.1
1027.1
1027.1
1027.1
1027.1
1027.1
1027.1
1027.1
1027.1
1.16888
1.16889
1.16888
1.16889
1.16889
1.16889
1.16889
1.1689
1.1689
1.1689
1.1689
1.1689
1.1689
1.1689
1.16891
1.16891
1.16891
1.16891
1.16891
1.16892
1.16892
1.16892
1.16892
1.16892
1.16892
1.16893
1.16893
1.16893
1.16893
1.16893
1.16893
1.16894
1.16894
1.16894
1.16894
1.16895
1.16894
1.16895
1.16894
1.16895
1.16895
1.16896
1.16895
1.16896
1.16896
1.16897
1.16896
1.16897
1.16896
1.16898
1.16897
1.16899
1.16898
1.16901
1.16992
1.17917
1.18538
1.30583
2.11465
44.7205
968.58
1026.68
1027.09
1027.09
1027.09
1027.1
1027.1
1027.1
1027.1
1027.1
1027.1
1027.1
1027.1
1027.1
1027.1
1027.1
1027.1
1027.1
1027.1
1027.1
1027.1
1027.1
1027.1
1027.1
1027.1
1027.1
1027.1
1027.1
1027.1
1027.1
1027.1
1027.1
1027.1
1027.1
1027.1
1027.1
1.16888
1.16889
1.16888
1.16889
1.16889
1.16889
1.16889
1.1689
1.16889
1.1689
1.1689
1.1689
1.1689
1.1689
1.16891
1.16891
1.16891
1.16891
1.16891
1.16891
1.16892
1.16892
1.16892
1.16892
1.16892
1.16892
1.16893
1.16893
1.16893
1.16893
1.16893
1.16893
1.16894
1.16894
1.16894
1.16894
1.16894
1.16895
1.16894
1.16895
1.16895
1.16896
1.16895
1.16896
1.16895
1.16897
1.16896
1.16897
1.16896
1.16897
1.16897
1.16899
1.16898
1.16902
1.16931
1.18444
1.20118
1.26875
1.65909
30.3392
984.369
1027
1027.09
1027.09
1027.09
1027.1
1027.1
1027.1
1027.1
1027.1
1027.1
1027.1
1027.1
1027.1
1027.1
1027.1
1027.1
1027.1
1027.1
1027.1
1027.1
1027.1
1027.1
1027.1
1027.1
1027.1
1027.1
1027.1
1027.1
1027.1
1027.1
1027.1
1027.1
1027.1
1027.1
1027.1
1.16888
1.16889
1.16888
1.16889
1.16889
1.16889
1.16889
1.1689
1.16889
1.1689
1.1689
1.1689
1.1689
1.1689
1.16891
1.16891
1.16891
1.16891
1.16891
1.16891
1.16892
1.16892
1.16892
1.16892
1.16892
1.16892
1.16893
1.16893
1.16893
1.16893
1.16893
1.16894
1.16894
1.16894
1.16894
1.16895
1.16894
1.16895
1.16894
1.16896
1.16895
1.16896
1.16895
1.16896
1.16896
1.16897
1.16896
1.16897
1.16896
1.16898
1.16897
1.16899
1.169
1.16916
1.17574
1.19281
1.24803
1.30028
1.46905
66.7505
1011.41
1027.09
1027.09
1027.09
1027.09
1027.1
1027.1
1027.1
1027.1
1027.1
1027.1
1027.1
1027.1
1027.1
1027.1
1027.1
1027.1
1027.1
1027.1
1027.1
1027.1
1027.1
1027.1
1027.1
1027.1
1027.1
1027.1
1027.1
1027.1
1027.1
1027.1
1027.1
1027.1
1027.1
1027.1
1027.1
1.16887
1.16889
1.16888
1.16889
1.16889
1.16889
1.16889
1.1689
1.16889
1.1689
1.1689
1.1689
1.1689
1.1689
1.16891
1.16891
1.16891
1.16891
1.16891
1.16891
1.16892
1.16892
1.16892
1.16892
1.16892
1.16892
1.16893
1.16893
1.16893
1.16893
1.16893
1.16893
1.16894
1.16894
1.16894
1.16894
1.16894
1.16895
1.16894
1.16896
1.16895
1.16896
1.16895
1.16896
1.16895
1.16897
1.16896
1.16897
1.16896
1.16897
1.16897
1.16898
1.169
1.16979
1.23435
1.26014
1.3319
1.35482
1.41041
119.293
1020.89
1027.08
1027.09
1027.09
1027.09
1027.1
1027.1
1027.1
1027.1
1027.1
1027.1
1027.1
1027.1
1027.1
1027.1
1027.1
1027.1
1027.1
1027.1
1027.1
1027.1
1027.1
1027.1
1027.1
1027.1
1027.1
1027.1
1027.1
1027.1
1027.1
1027.1
1027.1
1027.1
1027.1
1027.1
1027.1
1.16865
1.16889
1.16888
1.16889
1.16888
1.16889
1.16889
1.1689
1.16889
1.1689
1.1689
1.1689
1.1689
1.1689
1.16891
1.16891
1.16891
1.16891
1.16891
1.16891
1.16892
1.16892
1.16892
1.16892
1.16892
1.16892
1.16893
1.16893
1.16893
1.16893
1.16893
1.16893
1.16894
1.16894
1.16894
1.16894
1.16894
1.16895
1.16894
1.16896
1.16895
1.16896
1.16895
1.16896
1.16895
1.16896
1.16896
1.16897
1.16896
1.16898
1.16897
1.16899
1.16899
1.18556
1.37427
1.38864
1.38929
1.40687
1.42572
230.492
1023.44
1026.32
1026.65
1026.88
1026.99
1027.04
1027.07
1027.08
1027.09
1027.1
1027.1
1027.1
1027.1
1027.1
1027.1
1027.1
1027.1
1027.1
1027.1
1027.1
1027.1
1027.1
1027.1
1027.1
1027.1
1027.1
1027.1
1027.1
1027.1
1027.1
1027.1
1027.1
1027.1
1027.1
1027.1
1027.1
1.16834
1.16889
1.16888
1.16889
1.16888
1.16889
1.16889
1.16889
1.16889
1.1689
1.1689
1.1689
1.1689
1.1689
1.1689
1.16891
1.16891
1.16891
1.16891
1.16891
1.16891
1.16892
1.16892
1.16892
1.16892
1.16892
1.16892
1.16893
1.16893
1.16893
1.16893
1.16893
1.16893
1.16894
1.16894
1.16894
1.16894
1.16895
1.16894
1.16895
1.16895
1.16896
1.16895
1.16896
1.16895
1.16896
1.16896
1.16896
1.16896
1.16898
1.16897
1.16899
1.16906
1.21787
1.38897
1.43122
1.44626
1.49087
1.56188
323.351
1016.26
1022.94
1024.66
1025.83
1026.42
1026.65
1026.85
1026.97
1027.02
1027.05
1027.04
1027.04
1027.04
1027.05
1027.05
1027.05
1027.04
1027.04
1027.04
1027.05
1027.06
1027.07
1027.07
1027.08
1027.09
1027.09
1027.1
1027.1
1027.1
1027.1
1027.1
1027.1
1027.1
1027.1
1027.1
1027.1
1.1682
1.16889
1.16888
1.16889
1.16889
1.16889
1.16889
1.1689
1.16889
1.1689
1.1689
1.16891
1.1689
1.16891
1.16891
1.16891
1.16891
1.16891
1.16891
1.16892
1.16892
1.16892
1.16892
1.16892
1.16893
1.16893
1.16893
1.16893
1.16893
1.16893
1.16894
1.16894
1.16894
1.16894
1.16894
1.16895
1.16894
1.16895
1.16894
1.16896
1.16895
1.16896
1.16895
1.16896
1.16896
1.16897
1.16896
1.16897
1.16897
1.16898
1.16897
1.16906
1.16981
1.17161
1.27662
1.39234
1.40356
1.44251
1.49699
261.537
998
1014.29
1015.95
1017.95
1018.93
1019.35
1020.57
1021.48
1022.28
1022.89
1023.34
1023.66
1023.91
1024.16
1024.39
1024.6
1024.75
1024.91
1025.08
1025.3
1025.54
1025.82
1026.16
1026.46
1026.7
1026.83
1026.9
1026.94
1026.97
1027.01
1027.03
1027.03
1027.03
1027.05
1027.09
1027.09
1.16808
1.16887
1.16888
1.16889
1.16888
1.16889
1.16888
1.16889
1.16889
1.1689
1.16889
1.1689
1.1689
1.1689
1.1689
1.16891
1.16891
1.16891
1.16891
1.16891
1.16891
1.16892
1.16892
1.16892
1.16892
1.16892
1.16892
1.16893
1.16893
1.16893
1.16893
1.16893
1.16893
1.16894
1.16894
1.16894
1.16894
1.16895
1.16894
1.16895
1.16895
1.16895
1.16895
1.16896
1.16895
1.16896