/*--------------------------------*- C++ -*----------------------------------*\
| =========                 |                                                 |
| \\      /  F ield         | OpenFOAM: The Open Source CFD Toolbox           |
|  \\    /   O peration     | Version:  2.3.0                                 |
|   \\  /    A nd           | Web:      www.OpenFOAM.org                      |
|    \\/     M anipulation  |                                                 |
\*---------------------------------------------------------------------------*/
FoamFile
{
    version     2.0;
    format      ascii;
    class       volVectorField;
    location    "3";
    object      U;
}
// * * * * * * * * * * * * * * * * * * * * * * * * * * * * * * * * * * * * * //

dimensions      [0 1 -1 0 0 0 0];

internalField   nonuniform List<vector> 
6144
(
(0.00540791 0.0251471 -0.00168593)
(0.00559232 0.0136863 -0.00219352)
(0.00471627 0.0117372 -0.00317421)
(0.00505601 0.00864626 -0.0031879)
(0.00409351 0.00733062 -0.00332776)
(0.00451103 0.00637255 -0.00338879)
(0.00394351 0.00543079 -0.00337469)
(0.0042383 0.00504505 -0.00340501)
(0.00392771 0.00427859 -0.00337843)
(0.00407314 0.00398857 -0.00339932)
(0.0039149 0.00341954 -0.0033998)
(0.00394761 0.00312967 -0.00341756)
(0.00387744 0.00273988 -0.00341803)
(0.00386138 0.00246492 -0.0034243)
(0.00382539 0.00219192 -0.00342394)
(0.00380051 0.00196887 -0.00342474)
(0.00377568 0.00177222 -0.00342373)
(0.00375438 0.00160603 -0.00342246)
(0.0037354 0.00146449 -0.00342081)
(0.00371878 0.00134481 -0.00341902)
(0.00370422 0.00124369 -0.00341718)
(0.0036915 0.00115823 -0.00341536)
(0.00368042 0.0010858 -0.00341362)
(0.00367077 0.00102403 -0.003412)
(0.00366239 0.000970842 -0.0034105)
(0.00365513 0.000924368 -0.00340911)
(0.00364884 0.000882924 -0.00340786)
(0.00364348 0.000844897 -0.00340676)
(0.00363898 0.000809263 -0.00340591)
(0.00363544 0.000770341 -0.00340497)
(0.00363344 0.000770084 -0.00340398)
(0.00362361 0.000582108 -0.00340529)
(0.00364242 0.000921961 -0.00340247)
(0.00360946 0.00014147 -0.00340475)
(0.00366267 0.00127387 -0.00340471)
(0.00359841 -0.000533129 -0.00340308)
(0.00369847 0.00173877 -0.003408)
(0.00359815 -0.00137901 -0.00339933)
(0.00375178 0.00214127 -0.00340959)
(0.00364971 -0.00223897 -0.00337906)
(0.00376509 0.00213162 -0.00342036)
(0.00385599 -0.00313552 -0.00335328)
(0.00379836 0.00182592 -0.00343116)
(0.00403966 -0.00442518 -0.0033382)
(0.00394397 0.00115229 -0.00346967)
(0.00429776 -0.00631898 -0.0033418)
(0.00420789 -0.000140923 -0.00352619)
(0.00466889 -0.00920699 -0.00344674)
(0.0045967 -0.00236071 -0.00358853)
(0.00531861 -0.0136873 -0.00367852)
(0.00503871 -0.00609579 -0.00371401)
(0.00708731 -0.020705 -0.00356763)
(0.00621486 -0.0132181 -0.00412853)
(0.0112445 -0.0346188 -0.00347626)
(0.00878764 -0.0262648 -0.00634705)
(0.0130301 -0.0572486 0.000935553)
(0.00148147 -0.0242248 -0.0125253)
(0.0112161 -0.0799629 0.0307978)
(-0.0335424 -0.0343367 -0.0329097)
(0.0346068 0.145764 0.060423)
(0.17573 -0.289717 0.0736377)
(0.122138 -0.160839 0.028094)
(0.089852 -0.215254 0.00182864)
(0.0686808 -0.240617 -0.00240138)
(0.0592592 -0.233075 2.56837e-05)
(0.0482552 -0.225033 0.000945746)
(0.0416308 -0.220359 0.00256262)
(0.0319201 -0.217701 0.00814173)
(0.0223839 -0.207513 0.00487478)
(0.0208568 -0.185243 0.00450854)
(0.0133621 -0.170923 0.016466)
(-0.00558004 -0.15521 0.0159298)
(-0.0177275 -0.110407 -0.00260154)
(-0.0111985 -0.0687971 -0.0111179)
(-0.00142132 -0.0506942 -0.00772864)
(0.00318906 -0.0427649 -0.00487557)
(0.00502603 -0.0383523 -0.00388355)
(0.00572818 -0.0358703 -0.00387863)
(0.0057217 -0.0334199 -0.00450508)
(0.00573229 -0.0311214 -0.00493547)
(0.0057736 -0.0290317 -0.00519376)
(0.00581461 -0.0268516 -0.00535267)
(0.0058748 -0.0248171 -0.00545382)
(0.00593682 -0.0229258 -0.00552173)
(0.00599349 -0.0210837 -0.00557458)
(0.00604025 -0.0193223 -0.00562467)
(0.00607039 -0.0176524 -0.00567293)
(0.00607089 -0.0160457 -0.0057066)
(0.0060323 -0.0144597 -0.00571532)
(0.00595755 -0.0128393 -0.00569848)
(0.00585549 -0.0111577 -0.00565564)
(0.00573147 -0.00937913 -0.00558628)
(0.00560262 -0.00750518 -0.00549635)
(0.00546364 -0.00550349 -0.00539694)
(0.0053615 -0.00338788 -0.00530391)
(0.00524817 -0.00115096 -0.00521782)
(0.0137416 0.0283226 0.00221316)
(0.0143612 0.0148012 0.00145593)
(0.0107997 0.0128102 -0.000491352)
(0.0118054 0.00986824 -0.000537894)
(0.00914275 0.00837453 -0.0010842)
(0.0103509 0.00766391 -0.00101783)
(0.00867621 0.00640758 -0.00120352)
(0.009643 0.00616177 -0.00114136)
(0.00861111 0.00512937 -0.00121929)
(0.00917457 0.00491275 -0.00119079)
(0.00858306 0.00413688 -0.00122026)
(0.00881479 0.00385404 -0.00121364)
(0.0085176 0.00332809 -0.00122127)
(0.00853279 0.00304313 -0.00122056)
(0.00839783 0.00270142 -0.00121997)
(0.00833629 0.00245464 -0.00121995)
(0.00825685 0.00222421 -0.00121791)
(0.00819198 0.00203579 -0.00121619)
(0.00813221 0.00187446 -0.00121384)
(0.00807933 0.00173906 -0.00121121)
(0.00803245 0.00162503 -0.00120831)
(0.00799104 0.00152897 -0.00120517)
(0.00795449 0.00144778 -0.00120185)
(0.00792225 0.00137879 -0.00119838)
(0.00789384 0.00131967 -0.00119478)
(0.00786889 0.00126832 -0.00119104)
(0.00784708 0.00122281 -0.00118718)
(0.00782816 0.00118136 -0.00118324)
(0.00781199 0.00114255 -0.00117929)
(0.00779865 0.00110226 -0.001175)
(0.00779041 0.00108854 -0.00117051)
(0.00776714 0.000920425 -0.00116759)
(0.00780499 0.0012334 -0.00115854)
(0.00772888 0.000461063 -0.00116058)
(0.00785543 0.00160918 -0.00114749)
(0.00769587 -0.000267146 -0.00114952)
(0.00794996 0.00213941 -0.00113722)
(0.00768584 -0.00122066 -0.00113437)
(0.00808963 0.00268595 -0.0011269)
(0.0077717 -0.00230522 -0.00111304)
(0.00818966 0.00300331 -0.0011323)
(0.00814027 -0.00345958 -0.0010629)
(0.00832797 0.00292488 -0.00115186)
(0.00858811 -0.00496324 -0.00103097)
(0.00874585 0.00252773 -0.0011514)
(0.00920327 -0.00709172 -0.00105606)
(0.00953564 0.00154142 -0.00113791)
(0.0100788 -0.0101447 -0.00122105)
(0.010831 -5.13575e-05 -0.00107243)
(0.0114436 -0.0147305 -0.001649)
(0.0126007 -0.00159506 -0.000859226)
(0.0137083 -0.0218617 -0.00216301)
(0.0159353 -0.000308244 -0.00109639)
(0.0182897 -0.0339203 -0.00268682)
(0.0158547 0.00815687 -0.00576497)
(0.0226809 -0.062388 -0.000945598)
(0.00401627 0.0083096 -0.011858)
(-0.0189768 -0.118023 0.0671545)
(-0.128548 0.00993331 -0.0771919)
(0.00419625 0.0610653 0.0444114)
(0.232173 -0.258189 0.130526)
(0.127614 -0.012226 0.053287)
(0.0401694 -0.115636 -0.00320475)
(0.0310493 -0.0490453 0.0215271)
(0.00849108 -0.0729079 0.0251264)
(-0.00029588 -0.068596 0.0206309)
(-0.013366 -0.0780768 0.0183432)
(-0.0203495 -0.0797102 0.0218906)
(-0.0235892 -0.0837216 0.0291237)
(-0.027133 -0.0864411 0.0358777)
(-0.0310768 -0.0884163 0.0361152)
(-0.0382062 -0.0841498 0.0221529)
(-0.0353567 -0.0593258 -0.00395548)
(-0.0191058 -0.046995 -0.0056471)
(-0.005863 -0.0426993 -0.00104652)
(0.00111483 -0.0400468 0.000939301)
(0.0043449 -0.0374768 0.00104018)
(0.0059133 -0.0355273 0.000473828)
(0.00670998 -0.0332827 -0.000202844)
(0.00728513 -0.031097 -0.00069626)
(0.00770841 -0.0290669 -0.00101953)
(0.00798873 -0.02691 -0.0012428)
(0.008195 -0.0248717 -0.00140821)
(0.00834844 -0.0229682 -0.00151452)
(0.00847183 -0.0211095 -0.00157762)
(0.00858353 -0.0193419 -0.00160498)
(0.00866816 -0.0176973 -0.00159972)
(0.00869293 -0.0161577 -0.00158227)
(0.00863003 -0.0146567 -0.00158824)
(0.00850548 -0.0131084 -0.00162112)
(0.00834137 -0.0114852 -0.00168183)
(0.00813294 -0.00973357 -0.00176691)
(0.0079084 -0.0078572 -0.00184863)
(0.007636 -0.00577465 -0.0019478)
(0.00739317 -0.00354514 -0.00198867)
(0.00712308 -0.0012059 -0.00204298)
(0.017641 0.0280426 0.00481427)
(0.0187457 0.0134056 0.00409465)
(0.0129859 0.0113086 0.00126257)
(0.0149225 0.00917737 0.00143603)
(0.0107997 0.00767325 0.000494241)
(0.0130128 0.00751975 0.000787374)
(0.0103199 0.00603793 0.000369305)
(0.012037 0.0061719 0.000611713)
(0.0103008 0.00486247 0.000377151)
(0.0113406 0.00490752 0.000531977)
(0.0102885 0.0039251 0.000399535)
(0.0107537 0.00383 0.000484145)
(0.0101805 0.00318298 0.000418026)
(0.0102796 0.00298542 0.000456263)
(0.0100033 0.00259859 0.000431469)
(0.00993279 0.0023887 0.000443993)
(0.00979186 0.00215609 0.000442004)
(0.00969076 0.00198197 0.000447845)
(0.00959305 0.00182874 0.000453071)
(0.00950727 0.00170223 0.00045979)
(0.00943075 0.00159602 0.000467251)
(0.00936278 0.00150707 0.000475434)
(0.00930229 0.00143225 0.000484217)
(0.00924841 0.00136898 0.000493505)
(0.00920039 0.00131498 0.000503247)
(0.00915766 0.00126819 0.000513373)
(0.00911971 0.00122686 0.000523796)
(0.00908613 0.00118924 0.000534467)
(0.00905667 0.00115442 0.000545344)
(0.0090316 0.00111883 0.00055652)
(0.00901128 0.00110348 0.000568028)
(0.00898495 0.000956781 0.000577779)
(0.00901009 0.00124602 0.000595231)
(0.00892911 0.000519435 0.000596779)
(0.00906478 0.00162377 0.0006201)
(0.00887363 -0.000182209 0.000616508)
(0.00918877 0.00216765 0.000641569)
(0.0088458 -0.00110634 0.000638522)
(0.00939443 0.00276397 0.000663665)
(0.00892157 -0.00218796 0.000665061)
(0.0096511 0.0032313 0.000682924)
(0.00928677 -0.00334313 0.000702794)
(0.00992378 0.00330465 0.000675819)
(0.0100156 -0.00477007 0.000755896)
(0.0105142 0.0031047 0.000679252)
(0.0109665 -0.00677494 0.000717868)
(0.011697 0.00234075 0.000707728)
(0.0122246 -0.00965705 0.000462406)
(0.0136646 0.00108733 0.000786495)
(0.0136646 -0.0140669 -0.000319299)
(0.0164987 0.000335023 0.00110215)
(0.0147501 -0.0211569 -0.00192181)
(0.0201062 0.0021653 0.000128356)
(0.0147966 -0.0328626 -0.0055557)
(0.0323014 0.0146601 0.00147111)
(0.0411613 -0.0810304 -0.00249023)
(0.0208067 0.00840847 -0.00127775)
(0.0141673 -0.159379 0.0380793)
(-0.155311 0.0832873 -0.102303)
(0.0469277 0.0267452 -0.0305832)
(0.258679 -0.24028 0.132756)
(0.140881 0.0631171 0.0414442)
(0.0705396 -0.068031 0.014233)
(0.0389059 0.0622992 0.0449279)
(0.0225078 -0.0393577 0.0503329)
(0.0203944 -0.0030442 0.0342753)
(0.0166241 -0.022424 0.0429845)
(0.00671131 -0.0203036 0.0425562)
(-0.0117689 -0.017097 0.0329044)
(-0.0265576 -0.0121899 0.0196701)
(-0.0365084 -0.0120049 0.00718243)
(-0.0373772 -0.0142675 -0.00229053)
(-0.0282567 -0.020609 -0.00301135)
(-0.0154386 -0.029233 0.00142925)
(-0.00663527 -0.0338559 0.00397137)
(-0.00161047 -0.035456 0.0045916)
(0.00122079 -0.0348333 0.00429693)
(0.00288703 -0.033852 0.00358785)
(0.00381286 -0.0321434 0.00285216)
(0.00443036 -0.0302418 0.00221465)
(0.00499692 -0.0284282 0.00170431)
(0.00547784 -0.0264903 0.00129648)
(0.00598815 -0.0246005 0.00104325)
(0.00643154 -0.0227743 0.000891528)
(0.00688116 -0.0209695 0.000785326)
(0.00733466 -0.0192676 0.000727597)
(0.00776265 -0.0176972 0.000706746)
(0.00801634 -0.0162205 0.000683826)
(0.00802135 -0.0147553 0.000644438)
(0.0078595 -0.0132 0.000640232)
(0.00757697 -0.0115558 0.000643043)
(0.00720464 -0.00976236 0.000612365)
(0.0067911 -0.00785927 0.00053154)
(0.00632874 -0.00573939 0.00035351)
(0.00607302 -0.0035188 0.000127627)
(0.00582414 -0.00120603 -0.000175819)
(0.0198676 0.026835 0.00651706)
(0.0216539 0.0117473 0.00611089)
(0.0128667 0.00953328 0.00217102)
(0.0159635 0.00880108 0.00239236)
(0.0106815 0.00686701 0.00145473)
(0.0140033 0.00770295 0.00189446)
(0.0104215 0.00562721 0.00137783)
(0.0129545 0.00639634 0.00174223)
(0.0105218 0.00454399 0.00140255)
(0.0120907 0.00502755 0.00163771)
(0.0105364 0.00364535 0.00143827)
(0.011307 0.00384898 0.00156426)
(0.0104156 0.00296428 0.00146689)
(0.0106487 0.00295437 0.00152431)
(0.0101939 0.00245457 0.00148987)
(0.010146 0.00232407 0.00151277)
(0.00992667 0.0020681 0.00150757)
(0.00979795 0.0019204 0.00151751)
(0.00966161 0.00177482 0.0015244)
(0.00954416 0.00166043 0.00153386)
(0.00943859 0.00156429 0.00154397)
(0.00934447 0.00148451 0.00155489)
(0.00926022 0.0014178 0.00156646)
(0.00918463 0.00136168 0.00157862)
(0.00911678 0.00131401 0.00159131)
(0.00905585 0.00127301 0.00160447)
(0.00900118 0.00123707 0.001618)
(0.00895229 0.00120452 0.00163183)
(0.00890882 0.00117461 0.00164597)
(0.00887106 0.00114418 0.00166049)
(0.00883867 0.00112893 0.00167547)
(0.00880409 0.00100666 0.00168928)
(0.0088219 0.00126653 0.00170949)
(0.00872597 0.000603595 0.00171638)
(0.00888028 0.00164515 0.00174405)
(0.00864693 -5.78809e-05 0.00174561)
(0.00903032 0.0022046 0.00177888)
(0.00859809 -0.000935886 0.00177668)
(0.00929172 0.0028523 0.00181662)
(0.00865561 -0.00197477 0.0018125)
(0.00967004 0.00345537 0.001856)
(0.00899333 -0.00311878 0.00185399)
(0.0101196 0.00384676 0.00188268)
(0.00989005 -0.00450208 0.00191124)
(0.0108521 0.00392614 0.00190756)
(0.0112559 -0.0063179 0.00187958)
(0.0123897 0.00343739 0.00196299)
(0.0130591 -0.00895003 0.00158074)
(0.0150902 0.00200507 0.00205176)
(0.0153717 -0.0130583 0.000674986)
(0.0191565 -0.000743782 0.0020483)
(0.0189569 -0.0195254 -0.00128898)
(0.026084 -0.00513473 0.000228944)
(0.0299676 -0.0323365 -0.00343803)
(0.0542408 -0.0111942 0.00837916)
(0.0899988 -0.092447 0.0220718)
(0.0437735 -0.0230912 0.0617951)
(0.0369407 -0.227474 0.133585)
(-0.115995 0.185444 -0.0622396)
(0.0774202 -0.0562217 0.0315034)
(0.234344 -0.196534 0.151693)
(0.092279 0.0998678 0.0208067)
(0.0648296 -0.00887809 0.0101451)
(0.0278041 0.070433 0.0186197)
(0.0234047 0.0334505 0.0382863)
(-0.00527598 0.0389985 0.0374581)
(0.00010245 0.0429325 0.0210608)
(-0.00951903 0.0468392 0.0156339)
(-0.0142703 0.0379542 0.0091412)
(-0.0163536 0.0309559 0.00872564)
(-0.0198593 0.0146619 0.00765013)
(-0.0199693 0.00183064 0.00822844)
(-0.0163839 -0.0119147 0.00989617)
(-0.0120876 -0.0219485 0.0107981)
(-0.00761395 -0.0275466 0.0101597)
(-0.00419332 -0.0305476 0.00869842)
(-0.00130892 -0.0310604 0.00716949)
(0.000805761 -0.030903 0.00565606)
(0.0025314 -0.0298106 0.0045952)
(0.00369319 -0.0284636 0.00380374)
(0.00476356 -0.0270393 0.00324321)
(0.00533869 -0.0253254 0.00268269)
(0.00563239 -0.0234183 0.00230266)
(0.00582245 -0.0215769 0.00205709)
(0.00604364 -0.0197559 0.00177524)
(0.00631294 -0.0180866 0.00153212)
(0.00641963 -0.0167303 0.00125942)
(0.00638006 -0.0156898 0.00101562)
(0.00608012 -0.0146735 0.000842845)
(0.00571303 -0.0134718 0.000860379)
(0.00531246 -0.0121146 0.000975844)
(0.00495013 -0.0105224 0.00113869)
(0.00468187 -0.0088347 0.00127015)
(0.00447217 -0.00678731 0.00114682)
(0.00458972 -0.00448866 0.000886992)
(0.0046996 -0.00167891 0.00052054)
(0.0200305 0.0238131 0.00777248)
(0.0225843 0.0107864 0.00701813)
(0.0107832 0.00821917 0.00289836)
(0.0155035 0.00914068 0.00338586)
(0.00910039 0.00647615 0.00217081)
(0.013696 0.00836748 0.00291612)
(0.00934367 0.00537659 0.00216886)
(0.0127428 0.0068546 0.00278014)
(0.00962411 0.00423608 0.00223099)
(0.0117633 0.00524329 0.00264426)
(0.00964579 0.00332072 0.00229496)
(0.0107799 0.0039109 0.00253232)
(0.00947855 0.00268388 0.00234246)
(0.00991499 0.00293857 0.00246034)
(0.00921575 0.00226061 0.00238053)
(0.00923861 0.00227512 0.00243192)
(0.00889982 0.00195691 0.00241237)
(0.00875962 0.0018606 0.00243205)
(0.00857639 0.00171725 0.00243875)
(0.00842735 0.00161977 0.00245214)
(0.00829151 0.00153548 0.00246577)
(0.0081702 0.00146664 0.0024806)
(0.00806101 0.00140935 0.00249619)
(0.00796247 0.00136151 0.00251262)
(0.00787347 0.00132116 0.0025299)
(0.00779296 0.00128667 0.00254799)
(0.00771999 0.00125661 0.00256676)
(0.00765399 0.00122978 0.00258599)
(0.00759455 0.00120513 0.00260568)
(0.00754161 0.00118079 0.00262587)
(0.00749476 0.00116755 0.00264636)
(0.00744883 0.00106999 0.00266638)
(0.00745317 0.00129812 0.00269195)
(0.00734407 0.000706295 0.0027059)
(0.00749835 0.00167404 0.00274108)
(0.0072364 9.29032e-05 0.00274702)
(0.00764915 0.0022461 0.00279448)
(0.0071583 -0.000725149 0.00278932)
(0.007932 0.00294109 0.00285452)
(0.00718718 -0.00169113 0.00283601)
(0.00837541 0.00366481 0.00291999)
(0.00748436 -0.00276038 0.00288885)
(0.00900739 0.00433444 0.00298882)
(0.00835394 -0.00401053 0.00294959)
(0.00997694 0.00489959 0.00305378)
(0.0100238 -0.00567026 0.00295292)
(0.0117708 0.00497172 0.0031332)
(0.012656 -0.00784874 0.00271265)
(0.0150167 0.00407376 0.0031819)
(0.0163274 -0.0109894 0.0018441)
(0.0200253 0.00270054 0.00306815)
(0.0219357 -0.014184 -0.000234705)
(0.0303314 0.00615541 0.00132937)
(0.0422118 -0.0187253 0.000594869)
(0.0713885 0.0135252 0.0331748)
(0.0869797 -0.0596484 0.0740058)
(0.0721398 0.105373 0.143514)
(0.0327025 -0.225176 0.214155)
(-0.194452 0.330396 0.0153234)
(0.0430869 -0.104489 0.0279553)
(0.200438 -0.158386 0.153071)
(0.0679979 0.104313 0.0268954)
(0.0725381 0.0197848 0.0272968)
(0.0394057 0.0858665 0.0212361)
(0.0292687 0.0695227 0.0229445)
(0.0161076 0.0661765 0.00832058)
(0.0160237 0.0621096 -0.00145924)
(0.0105565 0.0642565 -0.00497347)
(0.00446111 0.0541223 -0.00270301)
(-0.00587541 0.0505404 0.00523319)
(-0.00860582 0.0379693 0.0102201)
(-0.0128907 0.0263061 0.0136273)
(-0.012606 0.0158163 0.0137003)
(-0.0126674 0.00566881 0.0124042)
(-0.0115698 0.000511937 0.0107448)
(-0.0107821 -0.00462913 0.00916637)
(-0.00926622 -0.00653401 0.00737608)
(-0.0080876 -0.00918305 0.00547951)
(-0.00703797 -0.0101842 0.00380529)
(-0.00628274 -0.0122261 0.00253298)
(-0.00547382 -0.0134861 0.00150335)
(-0.00499927 -0.0150026 0.000709523)
(-0.0041375 -0.0157765 0.000506242)
(-0.00334567 -0.0160689 0.000159517)
(-0.00200693 -0.0160563 -0.000168772)
(-0.000574145 -0.0157331 -0.000563936)
(0.00122784 -0.0153563 -0.00103671)
(0.00225093 -0.0148282 -0.00134281)
(0.00237863 -0.0143332 -0.00172173)
(0.002309 -0.013398 -0.001771)
(0.00186159 -0.0121368 -0.00175441)
(0.00126494 -0.0103541 -0.00169097)
(0.000447 -0.00842813 -0.00172513)
(-0.000532264 -0.00567282 -0.00176963)
(-0.00116079 -0.00305923 -0.00108968)
(-0.0023103 -0.00119796 -0.000909271)
(0.0177527 0.0198802 0.00854903)
(0.0221862 0.0111193 0.00753923)
(0.0071849 0.00787609 0.00407325)
(0.0133381 0.0108286 0.00463134)
(0.00652984 0.00672613 0.00339423)
(0.0119823 0.00966227 0.0044566)
(0.00736562 0.0053104 0.00346433)
(0.0112006 0.00753011 0.00436503)
(0.00779534 0.00389407 0.00356892)
(0.0101818 0.00550073 0.00420088)
(0.00779163 0.00289383 0.00367717)
(0.00912085 0.00395702 0.00405455)
(0.00758615 0.00229795 0.00375762)
(0.00818557 0.00289819 0.00396141)
(0.0073142 0.00197243 0.00382557)
(0.00745227 0.00220315 0.00392435)
(0.00700873 0.00177631 0.00388891)
(0.00690595 0.00177578 0.00393379)
(0.00669174 0.00161937 0.00394481)
(0.00653982 0.00154986 0.00397225)
(0.00639613 0.00147968 0.00399807)
(0.00626835 0.00142491 0.00402566)
(0.00615335 0.00137952 0.00405304)
(0.00604961 0.00134224 0.004081)
(0.00595553 0.00131131 0.00411026)
(0.00586984 0.00128515 0.00414114)
(0.0057916 0.00126254 0.00417299)
(0.00572043 0.00124261 0.00420518)
(0.00565592 0.00122451 0.00423799)
(0.00559807 0.00120678 0.0042714)
(0.00554653 0.00119663 0.00430519)
(0.00549803 0.00112349 0.00433857)
(0.00549495 0.00132099 0.00437786)
(0.00538545 0.000804394 0.0044043)
(0.0055318 0.00169221 0.00445762)
(0.00526846 0.000245854 0.00447079)
(0.00567288 0.00227542 0.00454482)
(0.00517831 -0.000500341 0.00453775)
(0.00594638 0.00301387 0.00464133)
(0.00518854 -0.00136853 0.00460806)
(0.00639385 0.0038442 0.00474577)
(0.00544127 -0.00229188 0.00468455)
(0.00710424 0.00472726 0.00485605)
(0.00620748 -0.00327252 0.00476913)
(0.008305 0.00567491 0.00495741)
(0.00790793 -0.00448191 0.00482022)
(0.0104634 0.00659803 0.00499199)
(0.0111017 -0.00632549 0.00458876)
(0.0143663 0.00676632 0.00481471)
(0.0159642 -0.00924529 0.00334207)
(0.0190631 0.00649005 0.00391954)
(0.018666 -0.0116532 -0.000871082)
(0.0232761 0.0144675 -0.00199136)
(0.0311465 0.00273198 -0.00362148)
(0.00832294 0.0714143 0.0308711)
(0.0221958 0.0881822 0.0913978)
(0.0222661 0.164194 0.113116)
(0.0585687 0.16283 0.127021)
(0.0470958 0.431386 0.0838632)
(0.0524582 -0.132459 0.0220763)
(0.162335 -0.137269 0.110937)
(0.0132623 0.103898 0.00919201)
(0.0451411 0.0593107 0.00540744)
(0.0281546 0.123445 0.000916996)
(0.0235675 0.126694 0.00713704)
(0.0136676 0.124379 0.00263079)
(0.01234 0.124845 -0.00281662)
(0.00739311 0.124834 -0.000766329)
(0.000983791 0.121844 0.00538092)
(-0.00705151 0.112091 0.012236)
(-0.0106237 0.106829 0.0173007)
(-0.0136348 0.0947113 0.0189647)
(-0.0118253 0.0876624 0.018695)
(-0.0109376 0.0771104 0.0169027)
(-0.0082939 0.0716673 0.0156339)
(-0.00572305 0.0621305 0.0123399)
(-0.00235224 0.0577441 0.0103125)
(-7.77939e-05 0.0515898 0.00899552)
(0.00210675 0.0487376 0.00860965)
(0.00322082 0.0430711 0.00786005)
(0.00378971 0.0402285 0.00653426)
(0.00269692 0.0331621 0.00552827)
(0.00205307 0.0283935 0.00515812)
(0.000878937 0.0220568 0.00442506)
(0.000596494 0.0169755 0.0034369)
(0.00134451 0.0120663 0.00355097)
(0.00241192 0.00723181 0.00379124)
(0.00257802 0.00401151 0.00299306)
(0.0016448 -0.000630928 0.00255876)
(0.000416001 -0.0030408 0.00241676)
(-0.00103525 -0.00610714 0.00189889)
(-0.00214426 -0.00743961 0.00174496)
(-0.00333392 -0.00847973 0.00165684)
(-0.00408928 -0.00734931 0.00102414)
(-0.00254668 -0.00610914 -0.000901085)
(-0.00149277 -0.00290696 -0.00504865)
(0.0116242 0.016392 0.00863637)
(0.0197484 0.0140425 0.00802)
(0.000787847 0.00872582 0.00532279)
(0.0094649 0.0139358 0.00596686)
(0.00167132 0.00743258 0.00517728)
(0.00843871 0.0114831 0.00624652)
(0.00308717 0.00533009 0.00539358)
(0.00762224 0.00835552 0.00625525)
(0.00350245 0.00356153 0.00555785)
(0.00629561 0.00576351 0.0061328)
(0.00332818 0.00248387 0.00562707)
(0.00491421 0.00400734 0.00601308)
(0.00295533 0.00193848 0.00567866)
(0.0037375 0.00287625 0.00592039)
(0.00257676 0.00170437 0.00574062)
(0.00281841 0.00215494 0.00587154)
(0.00223486 0.00158791 0.00581401)
(0.00217033 0.00172071 0.0058815)
(0.0018961 0.00152251 0.00588642)
(0.00173543 0.0014943 0.00592356)
(0.0015713 0.00143343 0.00595242)
(0.00142699 0.00139229 0.00598566)
(0.00129716 0.00135798 0.00602013)
(0.00118054 0.00133004 0.00605521)
(0.00107556 0.00130659 0.00609037)
(0.000980394 0.00128697 0.00612588)
(0.000894011 0.00127077 0.00616192)
(0.000816229 0.00125697 0.00619888)
(0.000746252 0.00124505 0.00623666)
(0.000683463 0.00123446 0.00627503)
(0.000627676 0.00122846 0.00631422)
(0.000575953 0.00117654 0.00635298)
(0.00056544 0.00134538 0.00639724)
(0.000457181 0.000900751 0.00642489)
(0.000594599 0.00171107 0.00648817)
(0.000330838 0.000394273 0.00649486)
(0.000725277 0.00230328 0.00658544)
(0.000229379 -0.000286885 0.00656404)
(0.000979597 0.00307407 0.00668852)
(0.00021975 -0.00105273 0.0066349)
(0.00139863 0.00398935 0.00679275)
(0.000431691 -0.00179428 0.0067105)
(0.00209121 0.00504988 0.00688608)
(0.00113065 -0.00240658 0.00678582)
(0.00337782 0.00632817 0.00693441)
(0.0028497 -0.00278482 0.00679279)
(0.00605833 0.00782705 0.00676604)
(0.00674524 -0.00314036 0.00642872)
(0.0116038 0.00911776 0.00564985)
(0.0136965 -0.00540506 0.00401141)
(0.0188919 0.0071186 0.00175933)
(0.0149153 -0.0177856 -0.00475411)
(0.0196443 0.0106717 -0.00812138)
(0.003821 -0.0193728 -0.0104628)
(-0.0434304 0.0734622 0.0143573)
(-0.0455776 -0.100402 0.0334077)
(-0.0795295 0.110494 0.0732993)
(-0.0301166 -0.266204 0.0522547)
(0.164496 0.403499 0.0669408)
(0.0383101 -0.160675 -0.000646403)
(0.112163 -0.0458883 0.00322991)
(-0.0171295 0.10304 0.0061306)
(-0.0102186 0.0958289 -0.0148425)
(-0.00257176 0.163101 -0.00310302)
(0.0113135 0.174264 0.0186477)
(0.00965814 0.181784 0.025185)
(0.00904198 0.184488 0.0264346)
(0.00745306 0.18319 0.0280843)
(0.00342018 0.174539 0.0307109)
(-0.00286546 0.160969 0.027666)
(-0.00771005 0.147181 0.0247294)
(-0.010504 0.131562 0.0206616)
(-0.01153 0.123761 0.0193517)
(-0.0131839 0.111568 0.0161911)
(-0.0130726 0.105435 0.0116581)
(-0.0135538 0.0950071 0.00777335)
(-0.0130269 0.0908339 0.00574798)
(-0.0133396 0.0821193 0.00417624)
(-0.0128353 0.0774639 0.00292771)
(-0.0109503 0.0698911 0.00155959)
(-0.00729442 0.0668969 0.00143819)
(-0.00428086 0.0616432 0.00102024)
(-0.00272475 0.0572255 -0.000776489)
(-0.00172416 0.0522774 -0.0028581)
(-0.00101423 0.0492379 -0.00609924)
(-0.000300819 0.0463931 -0.00956136)
(8.96574e-05 0.0462768 -0.0110994)
(0.000208617 0.0438495 -0.0104975)
(-0.000403055 0.0397756 -0.00950259)
(-0.00116161 0.0343692 -0.00854511)
(-0.00261411 0.0265014 -0.00781126)
(-0.00415656 0.0190852 -0.00699401)
(-0.00658658 0.0105035 -0.00622688)
(-0.00961481 0.00425897 -0.00519246)
(-0.0097793 -0.00204972 -0.000886744)
(-0.0142351 -0.00134467 -0.00473013)
(0.00344831 0.011918 0.00845456)
(0.0158818 0.0185653 0.00781794)
(-0.00517122 0.0100946 0.00640849)
(0.00642611 0.017929 0.00607346)
(-0.00270247 0.00816482 0.00665588)
(0.00521715 0.0134347 0.00693916)
(-0.00105799 0.00506225 0.007354)
(0.00382327 0.00904353 0.00761091)
(-0.000885671 0.0028213 0.00772538)
(0.00201958 0.00586508 0.00788484)
(-0.00133388 0.00174584 0.00785384)
(0.000404712 0.00391431 0.00806726)
(-0.00181995 0.00135134 0.00799802)
(-0.000872548 0.002753 0.00820682)
(-0.0022016 0.00126511 0.00816518)
(-0.00181116 0.00205693 0.00834219)
(-0.00248159 0.00132786 0.00833768)
(-0.00243951 0.00163117 0.00846655)
(-0.00272489 0.00137385 0.0085127)
(-0.00282886 0.00141115 0.00860409)
(-0.00295694 0.00135727 0.00867408)
(-0.00305954 0.00133593 0.00874901)
(-0.0031468 0.00131826 0.00882251)
(-0.0032191 0.00130638 0.00889614)
(-0.00327868 0.00129795 0.00896914)
(-0.00332769 0.00129158 0.00904156)
(-0.00336779 0.00128657 0.00911266)
(-0.00340077 0.00128278 0.00918158)
(-0.0034275 0.00128008 0.00924845)
(-0.00344641 0.00127831 0.00931419)
(-0.00345742 0.00127925 0.00937879)
(-0.00346337 0.00125004 0.00944152)
(-0.00343184 0.00139591 0.00950744)
(-0.00349424 0.00102679 0.00955651)
(-0.00330965 0.00176423 0.00963819)
(-0.0035341 0.000580009 0.00966922)
(-0.00308758 0.00237354 0.0097651)
(-0.00354991 -2.99433e-05 0.00977941)
(-0.00275433 0.00318769 0.00988488)
(-0.00348401 -0.000697088 0.00988718)
(-0.0022793 0.00419797 0.00999191)
(-0.00321821 -0.00126433 0.0099894)
(-0.00156677 0.00546014 0.0100655)
(-0.00249752 -0.00144689 0.0100539)
(-0.000289179 0.00718282 0.010001)
(-0.000695734 -0.000712564 0.00988648)
(0.0025138 0.00986072 0.00931418)
(0.00379244 0.00168413 0.00842795)
(0.00938252 0.0132613 0.00530169)
(0.0163076 0.000760535 -9.57957e-05)
(0.0358823 0.00535938 -0.0103204)
(0.036864 -0.0155164 -0.0154663)
(0.0335968 0.0137921 -0.00635567)
(0.0121487 0.0114083 0.00672341)
(0.0305556 0.0679645 0.0244566)
(-0.00104896 -0.0543836 0.0270893)
(0.0635315 0.0107326 0.035173)
(0.07261 -0.234093 0.102836)
(0.0360382 0.0973393 0.0761182)
(0.0138202 -0.129905 -0.021463)
(-0.000403037 0.123295 -0.0295529)
(-0.0225245 0.256594 -0.00178352)
(-0.000588613 0.286697 0.0100608)
(0.00142351 0.299478 0.0266072)
(0.00806876 0.299971 0.0332547)
(0.00556897 0.304348 0.0393386)
(0.00491018 0.302898 0.0392225)
(0.00776727 0.296355 0.0368668)
(0.00953707 0.289623 0.0344399)
(0.00763185 0.281767 0.0350936)
(0.00411291 0.271768 0.0379531)
(0.00115108 0.265117 0.0415643)
(0.00181764 0.259145 0.0427415)
(0.00360303 0.253227 0.0388809)
(0.00805108 0.246676 0.0322392)
(0.0138497 0.234715 0.0306044)
(0.0188182 0.219489 0.0289281)
(0.0195691 0.201686 0.0224566)
(0.0199838 0.184121 0.018278)
(0.0199016 0.165711 0.0155256)
(0.0172591 0.15187 0.0122762)
(0.0155138 0.140305 0.00871286)
(0.0128631 0.133613 0.00553078)
(0.00951108 0.126602 0.00182385)
(0.00576775 0.12389 -0.00130824)
(0.00509257 0.12111 -0.0022351)
(0.00561754 0.119732 -0.0019187)
(0.0076327 0.11519 -0.000576442)
(0.00735538 0.109871 -0.00224826)
(0.00710113 0.102254 -0.00370616)
(0.00551406 0.0944088 -0.00617674)
(0.00303076 0.0816546 -0.00980969)
(-0.000113133 0.0715747 -0.0146022)
(-0.0050165 0.053384 -0.0233283)
(-0.0129072 0.0330071 -0.0392165)
(-0.0147294 0.0153519 -0.0475831)
(-0.00804516 0.00921323 -0.00365493)
(0.0111418 0.0234698 0.0051881)
(-0.0126042 0.0102417 2.05575e-05)
(0.00384088 0.0217043 0.000379528)
(-0.00713603 0.00780983 0.00277647)
(0.00233579 0.0145906 0.00334574)
(-0.00583379 0.0038315 0.00451822)
(-0.000476692 0.00929781 0.00482235)
(-0.00644639 0.00176535 0.00518956)
(-0.00337802 0.00591189 0.00531362)
(-0.00734135 0.00102512 0.00542768)
(-0.00558452 0.00387626 0.00555316)
(-0.00809785 0.000889212 0.00561573)
(-0.00715037 0.00271586 0.0057648)
(-0.00865136 0.000990808 0.00579705)
(-0.0082417 0.00204162 0.00594715)
(-0.00905382 0.00116875 0.00597682)
(-0.00899837 0.0016414 0.00610486)
(-0.00936985 0.00132294 0.00615401)
(-0.00948494 0.00143865 0.00624963)
(-0.00964565 0.00139041 0.00631809)
(-0.00976694 0.00139148 0.00639312)
(-0.00986818 0.00138949 0.00646549)
(-0.00995161 0.00139016 0.00653664)
(-0.0100204 0.00139238 0.00660622)
(-0.0100761 0.00139601 0.00667492)
(-0.0101197 0.00140073 0.00674264)
(-0.0101518 0.00140621 0.00680909)
(-0.0101724 0.00141219 0.00687462)
(-0.0101839 0.00141883 0.0069387)
(-0.0101865 0.00142664 0.00700125)
(-0.010183 0.00141742 0.00706287)
(-0.0101471 0.00153783 0.00712367)
(-0.0101965 0.00124049 0.00717645)
(-0.0100071 0.00189418 0.00724067)
(-0.0102208 0.000849759 0.00729083)
(-0.00977283 0.0024902 0.00734457)
(-0.0102275 0.000313876 0.00740292)
(-0.00944911 0.00329953 0.00743072)
(-0.0101762 -0.000249978 0.00750614)
(-0.00903029 0.00432976 0.00748866)
(-0.00998278 -0.000640603 0.0075837)
(-0.00847069 0.00569655 0.0074816)
(-0.00945498 -0.000413784 0.00756815)
(-0.00752285 0.00783913 0.00726157)
(-0.00786007 0.00153879 0.00714273)
(-0.00461038 0.0119874 0.006156)
(-0.00125223 0.00776589 0.00475051)
(0.0120794 0.0236822 -0.000434587)
(0.0339559 0.0318198 -0.0136678)
(0.0462888 0.0792267 -0.0286348)
(0.0204558 0.143145 0.00905242)
(-0.00149714 0.156347 0.0390897)
(-0.0155546 0.146856 0.0417853)
(-0.0146014 0.156325 0.0340361)
(0.00357033 0.161976 0.0376915)
(0.0292223 0.188761 0.0262435)
(-0.000523858 0.05285 0.00358315)
(-0.114073 0.441105 -0.00145177)
(-0.0429313 -0.220839 -0.0114498)
(-0.108714 0.0573794 -0.0354293)
(-0.042191 0.17401 0.000357221)
(-0.0284995 0.175824 -0.015086)
(-0.0148888 0.199706 -0.0213767)
(-0.0128341 0.205117 -0.0234316)
(4.12604e-05 0.213441 -0.00829312)
(0.00983355 0.204424 0.0114965)
(0.0203829 0.189282 0.0188906)
(0.0210718 0.181228 0.021711)
(0.0211725 0.175618 0.0220846)
(0.0144601 0.171635 0.0280478)
(0.00897123 0.168051 0.0330447)
(0.00545502 0.155355 0.0368595)