/*--------------------------------*- C++ -*----------------------------------*\
| =========                 |                                                 |
| \\      /  F ield         | OpenFOAM: The Open Source CFD Toolbox           |
|  \\    /   O peration     | Version:  2.3.0                                 |
|   \\  /    A nd           | Web:      www.OpenFOAM.org                      |
|    \\/     M anipulation  |                                                 |
\*---------------------------------------------------------------------------*/
FoamFile
{
    version     2.0;
    format      ascii;
    class       volVectorField;
    location    "3";
    object      U.air;
}
// * * * * * * * * * * * * * * * * * * * * * * * * * * * * * * * * * * * * * //

dimensions      [0 1 -1 0 0 0 0];

internalField   nonuniform List<vector> 
6144
(
(0.00483895 0.0239229 -0.00149469)
(0.00519671 0.0132499 -0.00204266)
(0.00429076 0.0112685 -0.0030715)
(0.00479131 0.00830225 -0.0030569)
(0.00380496 0.00696565 -0.00320138)
(0.00427052 0.00608073 -0.00326722)
(0.00369084 0.00511015 -0.00325321)
(0.0039876 0.00477456 -0.00328638)
(0.00368692 0.00403069 -0.00325739)
(0.00381868 0.00376419 -0.00327815)
(0.00367964 0.003246 -0.00327357)
(0.00370151 0.00296892 -0.00328755)
(0.00364421 0.0026234 -0.00328554)
(0.0036254 0.00236696 -0.00328931)
(0.00359494 0.00212306 -0.00328799)
(0.00357187 0.00192015 -0.0032874)
(0.00354987 0.00174399 -0.00328568)
(0.00353061 0.00159511 -0.0032837)
(0.00351345 0.00146938 -0.0032815)
(0.00349828 0.00136401 -0.00327919)
(0.00348482 0.00127618 -0.00327687)
(0.0034729 0.00120342 -0.00327456)
(0.00346231 0.00114351 -0.00327228)
(0.00345285 0.00109457 -0.00327008)
(0.00344433 0.00105504 -0.00326795)
(0.00343653 0.00102363 -0.00326588)
(0.00342921 0.000999253 -0.00326392)
(0.00342232 0.000980771 -0.00326203)
(0.00341592 0.000967576 -0.00326019)
(0.00340996 0.000960482 -0.00325832)
(0.00340412 0.000957816 -0.00325609)
(0.00339819 0.000959573 -0.00325347)
(0.00339228 0.000965151 -0.00325072)
(0.00338605 0.000973939 -0.00324761)
(0.0033794 0.00102917 -0.00324515)
(0.00337275 0.00091125 -0.00324157)
(0.00336396 0.00127191 -0.00323865)
(0.00336206 0.000710619 -0.0032347)
(0.00334097 0.00169604 -0.0032293)
(0.00335654 0.00041634 -0.00322714)
(0.00331154 0.00226345 -0.00321125)
(0.00335878 8.58714e-05 -0.00321805)
(0.00328069 0.0029325 -0.00317582)
(0.00337005 -0.000228117 -0.003209)
(0.00324153 0.00366686 -0.00314094)
(0.00340003 -0.000506297 -0.00320218)
(0.00321447 0.00445237 -0.00311697)
(0.00345972 -0.000919776 -0.00321643)
(0.00324848 0.0053711 -0.0030906)
(0.00353439 -0.00201683 -0.00330485)
(0.00317277 0.00668858 -0.00311116)
(0.00330311 -0.00359779 -0.00358334)
(0.00139631 0.00946151 -0.00378276)
(-0.000821806 -0.00151005 -0.00581856)
(-0.00653619 0.0259263 -0.00964974)
(-0.0019279 0.0130609 -0.0117439)
(0.0152131 0.0797525 0.00368684)
(0.0396244 -0.0699233 -0.0012677)
(-0.0102944 0.0815715 -0.0920646)
(0.0558548 0.083184 -0.092992)
(0.115599 0.306755 0.00068771)
(0.056427 0.345615 -0.0201687)
(0.0525387 -0.157935 -0.0127537)
(0.0447505 -0.167229 -0.0140605)
(0.0336102 -0.154165 -0.0104535)
(0.0262611 -0.144854 -0.00858483)
(0.0193265 -0.139673 -0.00896637)
(0.00578261 -0.127574 -0.00745023)
(-0.00781455 -0.0994537 -0.00531776)
(-0.00864144 -0.0708603 -0.00423065)
(-0.00308524 -0.0516026 -0.00428117)
(0.000993671 -0.0413293 -0.00413768)
(0.0032618 -0.0362666 -0.00381296)
(0.00448705 -0.0336378 -0.00376773)
(0.00521552 -0.0318582 -0.00388803)
(0.00578633 -0.030675 -0.00396101)
(0.00615544 -0.0292848 -0.00417341)
(0.00627312 -0.0281189 -0.00454713)
(0.0061854 -0.0267681 -0.00494602)
(0.00614817 -0.0253187 -0.00511806)
(0.0061098 -0.023912 -0.00521519)
(0.00602306 -0.0223029 -0.00530124)
(0.00592261 -0.0205977 -0.00535842)
(0.00582426 -0.0188282 -0.00539771)
(0.00571829 -0.0169108 -0.00543312)
(0.00561234 -0.0148778 -0.0054663)
(0.00551129 -0.0127751 -0.00548957)
(0.00542735 -0.0106065 -0.00548468)
(0.00534814 -0.00839868 -0.00545861)
(0.00526349 -0.00622014 -0.00542228)
(0.00517604 -0.00426632 -0.0053796)
(0.00507873 -0.00275167 -0.00532486)
(0.00496854 -0.00149986 -0.00525827)
(0.00484285 0.000175827 -0.00517394)
(0.00474809 0.00260408 -0.00509417)
(0.00463205 0.00523376 -0.00503053)
(0.0124563 0.0273083 0.00210771)
(0.0135718 0.0143571 0.00140474)
(0.00998265 0.0122518 -0.000505718)
(0.0113522 0.0094624 -0.000530399)
(0.00849469 0.00784281 -0.00105219)
(0.00993555 0.0072315 -0.000990905)
(0.00811794 0.00593059 -0.0011604)
(0.00916467 0.00576902 -0.00111045)
(0.00809674 0.00475567 -0.00117295)
(0.0086561 0.00458555 -0.00115503)
(0.00809613 0.00386848 -0.00117312)
(0.0082897 0.00361261 -0.00117284)
(0.00803976 0.0031488 -0.00117306)
(0.0080317 0.00288379 -0.00117441)
(0.00792137 0.0025862 -0.00117132)
(0.00785786 0.00236117 -0.00117067)
(0.00778756 0.0021584 -0.00116809)
(0.00772695 0.00199061 -0.00116568)
(0.00767176 0.00184882 -0.00116286)
(0.00762228 0.00173059 -0.00115981)
(0.0075779 0.00163234 -0.00115653)
(0.00753806 0.00155112 -0.00115307)
(0.00750218 0.00148432 -0.00114948)
(0.00746966 0.0014298 -0.0011458)
(0.00743993 0.00138578 -0.00114206)
(0.00741249 0.00135055 -0.00113823)
(0.00738681 0.00132323 -0.00113432)
(0.00736264 0.00130316 -0.00113039)
(0.00733952 0.00128914 -0.00112653)
(0.00731713 0.00128036 -0.00112273)
(0.00729515 0.00127641 -0.00111857)
(0.00727321 0.00127777 -0.00111402)
(0.00725083 0.00128278 -0.00110932)
(0.00722707 0.00129296 -0.00110417)
(0.00720443 0.00134538 -0.00109944)
(0.00717709 0.00122997 -0.00109339)
(0.00715028 0.00160577 -0.00108887)
(0.00713075 0.00100344 -0.00107987)
(0.0070727 0.0020829 -0.00108168)
(0.00709394 0.000650385 -0.00106356)
(0.00696283 0.002748 -0.00107573)
(0.00706965 0.00022929 -0.00104504)
(0.00681665 0.00356661 -0.0010683)
(0.00706307 -0.00019044 -0.00102661)
(0.00664732 0.00450082 -0.00106217)
(0.00709692 -0.000561679 -0.00101388)
(0.00652772 0.00553136 -0.00104618)
(0.00724444 -0.00100017 -0.00102389)
(0.00661458 0.00674093 -0.000985612)
(0.00760011 -0.00221411 -0.00109265)
(0.00665647 0.00831246 -0.000844782)
(0.00796891 -0.00584079 -0.00141283)
(0.00449791 0.0102625 -0.000321481)
(0.00723286 -0.0154332 -0.00353033)
(0.0013992 0.0171842 -0.0014852)
(0.01539 -0.0339965 -0.00790212)
(0.00878131 0.0417887 0.00641547)
(0.00400997 -0.0331925 -0.00465421)
(0.00651609 0.169002 0.00132935)
(0.176185 0.0307102 -0.0273116)
(0.118951 0.321085 0.0222251)
(0.00528125 0.421183 -0.00595335)
(-0.023762 -0.0872392 -0.0112949)
(0.00237181 -0.0388392 -0.0016094)
(0.000626169 -0.0604585 0.00451507)
(-0.00379175 -0.0629383 0.00918063)
(-0.00924823 -0.0597675 0.0109608)
(-0.0164702 -0.0591863 0.00882567)
(-0.0218439 -0.0529723 0.00482283)
(-0.0186078 -0.0442909 0.0015783)
(-0.00948874 -0.0370632 0.00059721)
(-0.00125275 -0.0326526 0.000850489)
(0.00364862 -0.0307119 0.000862766)
(0.00605075 -0.0301419 0.000620048)
(0.00732405 -0.0297868 0.000361091)
(0.00792183 -0.0294627 0.000155874)
(0.00810734 -0.0287086 -8.18042e-05)
(0.00822064 -0.0279919 -0.0004168)
(0.00833441 -0.0269964 -0.000662937)
(0.00833217 -0.0257972 -0.000868495)
(0.00828257 -0.0245116 -0.00103715)
(0.00819275 -0.0229553 -0.00115751)
(0.00804127 -0.0212557 -0.00127611)
(0.00786048 -0.0194536 -0.00137521)
(0.00766573 -0.0174833 -0.00143926)
(0.00749079 -0.0153977 -0.00146295)
(0.00732444 -0.0132572 -0.00148972)
(0.0071674 -0.0110773 -0.00149285)
(0.00698991 -0.00887916 -0.00150259)
(0.00681997 -0.00671276 -0.0015154)
(0.00666998 -0.00477948 -0.00153219)
(0.00652061 -0.00326181 -0.00156738)
(0.00638342 -0.00196887 -0.00161417)
(0.00622143 -0.000192223 -0.00168555)
(0.00611134 0.00235541 -0.00174755)
(0.0059336 0.00512384 -0.00188966)
(0.0161602 0.0275302 0.00444695)
(0.0180982 0.0132588 0.00398317)
(0.0118997 0.010938 0.00111645)
(0.014653 0.00881873 0.00135123)
(0.00995864 0.00711463 0.000414919)
(0.0126214 0.00712457 0.000699538)
(0.00957869 0.00551796 0.00030579)
(0.0114958 0.00580566 0.00052147)
(0.00962918 0.0044684 0.000318737)
(0.0107172 0.00460231 0.000449411)
(0.00966547 0.00365899 0.00034435)
(0.0101116 0.00359792 0.000413494)
(0.00958879 0.00301254 0.000365129)
(0.00965546 0.00283043 0.000393881)
(0.00942433 0.00249622 0.000379561)
(0.00934278 0.0023003 0.000388817)
(0.00922076 0.0020989 0.00039059)
(0.00912382 0.00194199 0.00039639)
(0.00903344 0.00180773 0.000402435)
(0.00895251 0.0016969 0.000409435)
(0.00887963 0.00160524 0.000417075)
(0.00881391 0.00152988 0.00042528)
(0.00875439 0.00146822 0.000433936)
(0.00870009 0.00141808 0.000442933)
(0.00865011 0.00137786 0.00045223)
(0.00860381 0.00134619 0.00046173)
(0.00856042 0.00132158 0.000471339)
(0.00851922 0.00130314 0.000481046)
(0.0084795 0.00129019 0.000490843)
(0.00844073 0.00128222 0.000500736)
(0.00840267 0.00127901 0.000510792)
(0.00836478 0.00128066 0.000520933)
(0.00832618 0.00128594 0.000530958)
(0.00828576 0.00129541 0.000541115)
(0.00824454 0.00134792 0.000550119)
(0.00820358 0.00122606 0.000558699)
(0.00814688 0.00161243 0.000567631)
(0.00812378 0.000984208 0.000577783)
(0.00801927 0.00209878 0.000580791)
(0.00805107 0.000608424 0.000599229)
(0.0078487 0.00278232 0.000590622)
(0.0079898 0.000155039 0.000622719)
(0.00762612 0.00363492 0.00059792)
(0.00794755 -0.000308091 0.000645944)
(0.00736122 0.00463701 0.000601088)
(0.0079466 -0.000717202 0.00066226)
(0.00715066 0.00582153 0.000604846)
(0.00805982 -0.00112551 0.000669679)
(0.00730492 0.00744671 0.000667663)
(0.00836862 -0.00213379 0.000716854)
(0.0081952 0.0102583 0.00105321)
(0.008088 -0.00564331 0.000521827)
(0.00924391 0.0159086 0.00366501)
(0.00172286 -0.022332 -0.00372054)
(0.00363729 0.0197876 0.00768877)
(0.00293574 -0.0574674 0.00310786)
(-0.0302126 0.0624655 0.0333003)
(-0.0540286 -0.128008 0.00184999)
(-0.0827828 0.198816 -0.0116818)
(0.171399 -0.0251733 -0.00743043)
(0.170855 0.342018 0.0234081)
(0.0593163 0.458294 0.002902)
(0.0489466 -0.0954096 0.0056393)
(0.018084 -0.00797807 0.00888411)
(-0.00366608 -0.0413834 0.012007)
(-0.00302632 -0.0322953 0.0101133)
(-0.00911684 -0.0264133 0.0114638)
(-0.018738 -0.0235125 0.0124128)
(-0.0230001 -0.020632 0.00811689)
(-0.0178938 -0.0206112 0.00434113)
(-0.0070038 -0.0231328 0.00295892)
(4.76582e-05 -0.0252846 0.00365222)
(0.00381343 -0.026924 0.00381921)
(0.00565571 -0.0280213 0.00343707)
(0.00660668 -0.0285651 0.00313898)
(0.00704719 -0.028589 0.00296734)
(0.00731281 -0.0280476 0.00281833)
(0.00748964 -0.0274453 0.00259618)
(0.00751893 -0.0266078 0.00238871)
(0.00740998 -0.0255364 0.00212138)
(0.00729234 -0.0243682 0.00185662)
(0.00708952 -0.022938 0.00163196)
(0.00686791 -0.021329 0.00142254)
(0.0066708 -0.0195637 0.00124472)
(0.00645639 -0.0176128 0.00107934)
(0.00626368 -0.0155587 0.00097347)
(0.00608685 -0.0134479 0.000936487)
(0.0059292 -0.01127 0.000950547)
(0.00572736 -0.00904419 0.000915221)
(0.00554556 -0.00681659 0.000864925)
(0.00536837 -0.00481754 0.000800895)
(0.00518446 -0.00320477 0.000715243)
(0.00493374 -0.00184802 0.000621291)
(0.00454401 -3.1975e-05 0.000493197)
(0.00426539 0.00247866 0.000346944)
(0.00403692 0.00516273 -1.27307e-05)
(0.0183769 0.0269004 0.00602473)
(0.021372 0.0117192 0.00602257)
(0.011789 0.00919684 0.00196456)
(0.0160854 0.00843601 0.00236159)
(0.00970666 0.00618912 0.00128597)
(0.0137872 0.00731298 0.00175739)
(0.00956366 0.00499762 0.00123075)
(0.0124798 0.00603797 0.00157517)
(0.00976419 0.00408781 0.0012683)
(0.0114806 0.00473139 0.00147661)
(0.00985702 0.00335554 0.00131124)
(0.0106497 0.00362482 0.00141678)
(0.00978965 0.00279559 0.00134441)
(0.00999817 0.0027976 0.00138993)
(0.00959818 0.00236141 0.00136897)
(0.00953048 0.00223284 0.00138606)
(0.00934399 0.00201807 0.00138679)
(0.00921647 0.00188054 0.00139574)
(0.00909123 0.00175486 0.00140378)
(0.00897978 0.00165406 0.00141327)
(0.00887895 0.00157111 0.00142348)
(0.00878775 0.00150349 0.0014344)
(0.00870485 0.00144852 0.00144587)
(0.00862893 0.00140409 0.00145775)
(0.00855884 0.00136851 0.00146995)
(0.00849357 0.00134044 0.00148242)
(0.0084321 0.00131877 0.0014951)
(0.00837355 0.00130261 0.00150793)
(0.00831717 0.0012914 0.00152088)
(0.00826232 0.0012847 0.00153393)
(0.00820846 0.00128221 0.00154708)
(0.00815487 0.00128395 0.0015603)
(0.00810069 0.00128907 0.00157349)
(0.0080447 0.00129696 0.00158705)
(0.00798755 0.0013498 0.00159988)
(0.00793213 0.00121958 0.00161276)
(0.00785657 0.00161694 0.00162581)
(0.0078195 0.000958917 0.00163984)
(0.00768916 0.00211269 0.00164735)
(0.00771129 0.000551231 0.0016683)
(0.00746708 0.00281548 0.0016659)
(0.00761165 5.15395e-05 0.00169849)
(0.00717608 0.0037026 0.00168116)
(0.00752508 -0.000466188 0.00172905)
(0.00682806 0.0047628 0.0016905)
(0.00746635 -0.000903852 0.00175577)
(0.00654359 0.00602787 0.00170489)
(0.00751242 -0.00119843 0.00178908)
(0.00675487 0.00763753 0.00186622)
(0.00784403 -0.00182225 0.00195148)
(0.00874359 0.00962119 0.00286505)
(0.00879693 -0.00646136 0.00203678)
(0.016686 0.00607137 0.00733611)
(0.0211713 -0.0344144 0.00139603)
(0.0161958 -0.0169027 -0.0103977)
(0.00200358 -0.0652089 -0.0256601)
(-0.0158889 0.0496917 -0.012919)
(-0.085788 -0.0700735 -0.0239234)
(-0.0632555 0.321029 -0.084355)
(0.182581 -0.0695214 -0.00036362)
(0.17863 0.382927 0.016271)
(0.0690061 0.459883 -0.0137484)
(0.0662672 0.0149075 0.00674177)
(-0.0286483 0.0760072 0.0157148)
(-0.0190353 0.0129505 0.0102235)
(-0.022583 0.0347083 0.0139375)
(-0.022461 0.0191607 0.0174055)
(-0.01897 0.0194589 0.0119998)
(-0.0138769 0.00715528 0.00855186)
(-0.00727026 -0.00024074 0.00622123)
(-0.00231337 -0.00655142 0.0056706)
(0.000413876 -0.0109569 0.00563025)
(0.00232213 -0.0139129 0.00536765)
(0.0032978 -0.0166787 0.00513463)
(0.00354318 -0.0187078 0.0052077)
(0.00409024 -0.0203503 0.0051186)
(0.0045437 -0.0215296 0.00491677)
(0.004961 -0.0224811 0.00467398)
(0.00534576 -0.0228294 0.00432458)
(0.00542283 -0.0229251 0.00379668)
(0.00544778 -0.0225793 0.00328401)
(0.00527996 -0.0218492 0.00281398)
(0.00497539 -0.0205732 0.00237607)
(0.00471027 -0.0190206 0.0019861)
(0.00448387 -0.0172684 0.00167104)
(0.00416908 -0.0153158 0.0014704)
(0.00373824 -0.0133222 0.0013805)
(0.00332179 -0.0113105 0.00140333)
(0.00285919 -0.00920972 0.00141883)
(0.00254145 -0.00701387 0.00147932)
(0.00232477 -0.00507795 0.00146763)
(0.00219646 -0.00362152 0.00149782)
(0.0021704 -0.00260733 0.00149786)
(0.0021366 -0.00101535 0.00136068)
(0.00242999 0.00152752 0.00123062)
(0.00262354 0.00469333 0.000879792)
(0.0189269 0.0247416 0.00749435)
(0.0233555 0.0102193 0.00734571)
(0.00968669 0.0076767 0.00260124)
(0.0160482 0.00869737 0.00335966)
(0.00804401 0.00553036 0.00193729)
(0.0137163 0.00796577 0.00274823)
(0.00841307 0.0045702 0.00196443)
(0.0123978 0.00650159 0.00256884)
(0.00881843 0.00368687 0.00204687)
(0.0112311 0.00496246 0.00243361)
(0.00895024 0.00299145 0.00212333)
(0.0101763 0.00370258 0.00233581)
(0.00886904 0.00250717 0.0021795)
(0.00930529 0.0027907 0.00227922)
(0.00865838 0.00217475 0.00222192)
(0.00865779 0.00218124 0.00226245)
(0.00836699 0.00191767 0.00225313)
(0.00822041 0.00181877 0.00226818)
(0.0080551 0.00169929 0.00227692)
(0.00791221 0.00161154 0.00228913)
(0.00778228 0.00153897 0.00230228)
(0.00766461 0.00148053 0.00231665)
(0.00755739 0.00143337 0.00233199)
(0.00745894 0.00139545 0.00234803)
(0.00736779 0.00136518 0.0023646)
(0.00728262 0.00134133 0.00238163)
(0.00720225 0.00132294 0.00239909)
(0.00712558 0.00130925 0.00241685)
(0.00705159 0.00129975 0.00243474)
(0.00697949 0.00129406 0.00245275)
(0.00690849 0.00129192 0.00247084)
(0.00683772 0.00129331 0.00248895)
(0.00676624 0.00129783 0.00250702)
(0.00669264 0.00130299 0.00252531)
(0.00661681 0.00135559 0.00254282)
(0.00654338 0.00121514 0.00256052)
(0.00644869 0.00162366 0.00257841)
(0.00639091 0.000931873 0.00259637)
(0.00623919 0.00212659 0.00261028)
(0.00623855 0.000487005 0.00263247)
(0.00596534 0.00284649 0.00263903)
(0.00608745 -6.69908e-05 0.00266928)
(0.0056037 0.00376651 0.00266294)
(0.0059327 -0.000646852 0.00270542)
(0.00514292 0.00489148 0.00267724)
(0.00576069 -0.00109656 0.0027377)
(0.004675 0.00631183 0.00269997)
(0.00557763 -0.00111737 0.00280487)
(0.00470155 0.0083843 0.00303264)
(0.00573368 -0.000270497 0.0034543)
(0.00754549 0.0119647 0.00619593)
(0.0100978 -0.000240983 0.0107937)
(0.0241259 0.0186596 0.0301465)
(0.0282605 -0.015889 0.045423)
(0.0113331 0.0306689 0.0665659)
(-0.00542239 -0.0539177 0.0484554)
(-0.0544009 0.0447961 0.040293)
(-0.14278 -0.11597 -0.000610688)
(0.0226933 0.2604 -0.221082)
(0.14905 -0.0747201 0.0278284)
(0.184201 0.456169 0.0173997)
(0.0468627 0.610482 -0.00947521)
(0.047591 0.549777 0.00167898)
(0.00895112 0.579676 0.00709535)
(0.00381738 0.554628 0.0094743)
(-0.0048177 0.550318 0.00883752)
(-0.00353828 0.540039 0.00595578)
(-0.00536604 0.534504 0.00269515)
(-0.00354139 0.52959 0.00200816)
(-0.00361109 0.527717 0.00306548)
(-0.00147437 0.528401 0.00547366)
(-0.000805991 0.516739 0.00743045)
(-0.000358416 0.512785 0.00931131)
(-0.000465017 0.505278 0.0104841)
(-0.000321537 0.498013 0.0104218)
(-0.000576921 0.479864 0.00936163)
(-0.000652849 0.370604 0.00828078)
(-0.000492406 0.0238829 0.00797445)
(0.000130813 0.00145381 0.0064845)
(0.00025282 -0.00136651 0.00503499)
(0.000196051 -0.00377507 0.00407173)
(-0.000610639 -0.00644401 0.00320057)
(-0.00100561 -0.00844413 0.00231254)
(-0.00109481 -0.00995223 0.00138878)
(-0.0010986 -0.0112031 0.000741669)
(-0.000970558 -0.0115962 0.000299734)
(-0.000827606 -0.0112969 0.000180922)
(-0.000937558 -0.0102886 0.000344823)
(-0.00136555 -0.00862488 0.000199621)
(-0.00144801 -0.00658669 0.000113814)
(-0.00165568 -0.00480838 -0.000158033)
(-0.00169996 -0.00301938 -0.000660363)
(-0.00213576 -0.00162114 -0.000906972)
(-0.00311305 0.000608084 -0.000720023)
(-0.00392448 0.00295328 -0.000179975)
(-0.00491883 0.0050996 -0.000323633)
(0.0173122 0.020848 0.00862078)
(0.023745 0.0101564 0.00775826)
(0.00613101 0.00691931 0.00367008)
(0.0143659 0.010279 0.00463718)
(0.00546484 0.00538833 0.00305477)
(0.0122831 0.00923726 0.00427095)
(0.00643906 0.00427185 0.00317352)
(0.011059 0.00718796 0.00411505)
(0.0070154 0.0032325 0.00331122)
(0.00982367 0.00525082 0.00393821)
(0.00714547 0.00252107 0.00343945)
(0.0086656 0.00378185 0.00379903)
(0.00704252 0.0021115 0.0035342)
(0.0076976 0.00277299 0.00371871)
(0.00683785 0.00189577 0.00360944)
(0.00696623 0.00211823 0.00369221)
(0.00657023 0.00175165 0.00367283)
(0.00645129 0.00173308 0.00370786)
(0.00626369 0.00160981 0.00372119)
(0.0061147 0.00154237 0.00374282)
(0.00597759 0.00148288 0.00376498)
(0.00585365 0.00143618 0.00378924)
(0.00574069 0.00139894 0.00381506)
(0.00563683 0.00136934 0.00384188)
(0.00554035 0.00134591 0.0038694)
(0.00544991 0.00132754 0.00389763)
(0.00536425 0.00131338 0.00392667)
(0.00528218 0.00130285 0.00395635)
(0.00520296 0.00129552 0.00398604)
(0.00512602 0.00129108 0.00401568)
(0.00505047 0.00128932 0.00404543)
(0.00497541 0.00129012 0.00407521)
(0.00489996 0.00129336 0.00410491)
(0.00482289 0.00129521 0.00413455)
(0.00474344 0.00134745 0.00416334)
(0.0046655 0.0011966 0.00419197)
(0.00457214 0.00161419 0.00422201)
(0.00450118 0.000888663 0.00424911)
(0.00435979 0.00212111 0.00427839)
(0.00433236 0.000402588 0.00430524)
(0.00408361 0.00285324 0.00433204)
(0.00415807 -0.000214768 0.00436108)
(0.00371324 0.00379398 0.00437989)
(0.0039634 -0.00088572 0.00441564)
(0.00320421 0.00494392 0.00441775)
(0.00369557 -0.00143405 0.00446801)
(0.00246005 0.00636111 0.00444682)
(0.003171 -0.00141714 0.0045796)
(0.00150815 0.00839217 0.00482078)
(0.00184067 0.000551082 0.00575143)
(0.0010913 0.0124274 0.00997019)
(-0.000548479 0.00601839 0.0221655)
(-0.00194452 0.0214087 0.0407727)
(-0.00939519 0.0186281 0.0515274)
(0.0161371 0.049985 0.0769194)
(0.0146736 -0.0130761 0.0957854)
(0.0261163 0.0288371 0.147894)
(-0.0857511 -0.155084 0.107478)
(0.0351072 0.0865111 -0.137333)
(0.0950586 0.0123546 0.0221301)
(0.16927 0.509401 0.0108294)
(0.0463522 0.602051 -0.00136119)
(0.0482133 0.61843 0.00153912)
(0.0145392 0.642323 0.00147802)
(0.00753727 0.635492 0.000409854)
(0.00303042 0.63518 0.00222166)
(-2.89703e-05 0.620676 0.00396166)
(-0.00156928 0.589879 0.00739145)
(-0.00253369 0.588763 0.0121424)
(-0.00369277 0.451814 0.0149274)
(-0.00386479 0.402505 0.0173642)
(-0.00390844 0.402319 0.0191236)
(-0.00312148 0.553805 0.0199318)
(-0.00249186 0.579348 0.0180018)
(-0.000741967 0.562329 0.0147004)
(0.00113804 0.550022 0.0132606)
(0.00442957 0.552236 0.00972883)
(0.00547473 0.554713 0.00790832)
(0.00586181 0.542219 0.00662012)
(0.00476339 0.535425 0.00507009)
(0.00361231 0.537998 0.00456286)
(0.00259647 0.530553 0.00364418)
(0.00231749 0.522397 0.00228743)
(0.00215202 0.514878 0.00115941)
(0.00117665 0.505166 0.000623879)
(-0.00106332 0.496937 0.0010304)
(-0.00256271 0.463262 0.00147891)
(-0.00433796 0.338007 0.00131617)
(-0.00508605 0.0263646 0.00156076)
(-0.00563136 0.0026127 0.00149262)
(-0.0060612 -0.000509953 0.00102791)
(-0.00587747 -0.0016888 0.00182037)
(-0.00605272 -0.00184972 0.00175577)
(-0.00595475 -0.000820685 0.00109348)
(-0.00413924 0.000794336 -0.000309921)
(-0.00361815 0.00377841 -0.00334438)
(0.0116384 0.0171382 0.00912018)
(0.0226131 0.0128391 0.00792325)
(-0.000386619 0.00728679 0.00494816)
(0.0109118 0.0133671 0.00603488)
(0.000595768 0.00570215 0.00483672)
(0.00892633 0.0110812 0.00616858)
(0.00217714 0.00407035 0.00510765)
(0.00760177 0.00804749 0.00611016)
(0.00277359 0.00279374 0.0053043)
(0.00606994 0.0055637 0.0059621)
(0.00277363 0.00205699 0.0054183)
(0.00462697 0.00387244 0.00583324)
(0.00255909 0.00172707 0.00550427)
(0.00344048 0.00278156 0.00574518)
(0.00229235 0.00161839 0.00558612)
(0.00254044 0.00209234 0.00570594)
(0.00200227 0.00157463 0.00566167)
(0.00192035 0.00168135 0.00571952)
(0.00168135 0.00152904 0.00572967)
(0.00151848 0.00149015 0.00576133)
(0.0013632 0.00144141 0.00579032)
(0.00122364 0.00140542 0.0058223)
(0.00109648 0.00137672 0.00585581)
(0.000980077 0.00135395 0.00588969)
(0.000872927 0.00133583 0.00592349)
(0.00077334 0.0013214 0.00595761)
(0.000679705 0.00131009 0.00599185)
(0.000590748 0.00130211 0.00602601)
(0.000505538 0.00129701 0.00606027)
(0.000423078 0.00129396 0.00609483)
(0.000342224 0.00129273 0.00612944)
(0.000262024 0.00129328 0.00616389)
(0.00018152 0.00129581 0.00619805)
(9.99094e-05 0.00129575 0.00623203)
(1.5184e-05 0.00134687 0.00626537)
(-7.08425e-05 0.00118879 0.00629723)
(-0.000162954 0.00160952 0.00633234)
(-0.000252782 0.000859639 0.00635799)
(-0.00038192 0.00211765 0.00639616)
(-0.000444751 0.00033537 0.00641483)
(-0.000668876 0.00285451 0.00645442)
(-0.000650539 -0.000340031 0.00646771)
(-0.00106207 0.00380532 0.00650329)
(-0.000894968 -0.0011068 0.0065147)
(-0.00162109 0.00496694 0.00653943)
(-0.00124963 -0.00190405 0.00655471)
(-0.00249737 0.00634608 0.00659133)
(-0.00194246 -0.00257277 0.00662119)
(-0.00408986 0.00782886 0.00684538)
(-0.00380935 -0.00261342 0.00718393)
(-0.00737212 0.00886272 0.00866196)
(-0.00959329 -0.00157803 0.0115405)
(-0.0169624 0.00767855 0.0196661)
(-0.0248859 -0.00861973 0.020548)
(-0.0103061 -0.00631616 0.0254453)
(-0.0181963 -0.0455836 0.0497043)
(0.0188305 -0.0587132 0.0774881)
(0.00482752 -0.145763 0.0836008)
(0.0285757 -0.0934507 -0.1695)
(0.0473105 0.0967013 0.00951505)
(0.0794265 0.626008 -0.0180468)
(0.0215807 0.695708 -0.00319596)
(0.0230289 0.659687 0.00621247)
(0.0178468 0.744741 0.0161798)
(0.0156845 0.73241 0.022556)
(0.0110247 0.65573 0.0264301)
(0.00862937 0.610648 0.0264405)
(0.00289793 0.676857 0.0279638)
(0.000108843 0.679447 0.0277783)
(-0.00282496 0.67054 0.0279533)
(-0.00548803 0.6566 0.0262198)
(-0.00682526 0.658256 0.0239297)
(-0.00678755 0.640927 0.0199518)
(-0.00569741 0.5682 0.0166478)
(-0.00421206 0.497448 0.013872)
(-0.00226113 0.640848 0.0100369)
(-0.000909483 0.618408 0.00823218)
(0.000109912 0.589981 0.00814401)
(0.00187291 0.615192 0.00833213)
(0.00440032 0.605304 0.00800454)
(0.00552683 0.609052 0.00697627)
(0.00609727 0.619461 0.0056412)
(0.00631945 0.59287 0.00381036)
(0.00623231 0.589766 0.00254422)
(0.00534325 0.584507 0.00204451)
(0.00385134 0.576031 0.0018114)
(0.00171553 0.575792 0.000907773)
(-0.000868519 0.562808 -0.000220976)
(-0.00301585 0.529425 -0.00219384)
(-0.00461607 0.498168 -0.00336949)
(-0.00738322 0.519346 -0.00479101)
(-0.0103513 0.509172 -0.00533742)
(-0.0123365 0.458393 -0.00450813)
(-0.0140498 0.329207 -0.00372272)
(-0.013826 0.123297 -0.00230335)
(-0.0179474 0.106613 -0.00501709)
(0.00433602 0.0130102 0.00897205)
(0.0196838 0.0181565 0.0073367)
(-0.00653733 0.0087996 0.0061969)
(0.00817659 0.0177622 0.00606089)
(-0.00415181 0.00625594 0.00651312)
(0.00572667 0.0132042 0.00694469)
(-0.00232505 0.00368591 0.00719609)
(0.00372497 0.00883058 0.00753373)
(-0.001898 0.00201247 0.00756447)
(0.00172485 0.0057423 0.00780116)
(-0.00208566 0.00131372 0.00771876)
(4.14e-05 0.00385751 0.00797428)
(-0.00236646 0.0011372 0.00787715)
(-0.00125177 0.00271495 0.00810497)
(-0.00260641 0.00118677 0.00805092)
(-0.00218045 0.0020102 0.00823039)
(-0.00281478 0.00131731 0.00823046)
(-0.00278631 0.00159162 0.00835183)
(-0.00303264 0.00138339 0.00840496)
(-0.00314689 0.00139732 0.00848937)
(-0.00326618 0.0013608 0.00856031)
(-0.00336775 0.0013418 0.00863293)
(-0.00345592 0.00132779 0.00870471)
(-0.00353196 0.00131843 0.00877612)
(-0.00359837 0.001312 0.00884656)
(-0.0036573 0.00130758 0.00891588)
(-0.00371041 0.00130483 0.00898408)
(-0.00375929 0.00130306 0.00905092)
(-0.00380432 0.00130192 0.00911629)
(-0.00384638 0.00130161 0.0091803)
(-0.00388638 0.00130219 0.0092432)
(-0.00392528 0.00130358 0.00930501)
(-0.00396412 0.00130591 0.00936572)
(-0.00400399 0.00130434 0.00942535)
(-0.00404564 0.00135288 0.00948267)
(-0.00409665 0.00118969 0.00953791)
(-0.00413368 0.00161372 0.00959735)
(-0.00420637 0.000836524 0.00964749)
(-0.00425931 0.00212527 0.00970936)
(-0.00433089 0.000261579 0.00975339)
(-0.00445807 0.00286915 0.00981661)
(-0.0044783 -0.000498999 0.0098553)
(-0.00477499 0.00382833 0.00992034)
(-0.00467831 -0.00140079 0.00995377)
(-0.00527457 0.0049802 0.0100184)
(-0.00500496 -0.00239122 0.0100474)
(-0.00607073 0.00627715 0.0101031)
(-0.00563964 -0.00341181 0.0101414)
(-0.00750766 0.00751467 0.0101801)
(-0.00704021 -0.00429517 0.0102623)
(-0.0102513 0.00791293 0.0107836)
(-0.0107919 -0.00462784 0.0111782)
(-0.0161261 0.0073439 0.0138188)
(-0.017134 -0.00930892 0.012976)
(-0.00104084 -0.0110584 0.0267348)
(-0.00382956 -0.0527987 0.0343057)
(0.00593037 -0.0736759 0.0822724)
(0.0188952 -0.132681 0.0761458)
(-0.0142043 -0.12448 -0.167582)
(-0.0158639 0.125259 -0.00316668)
(-0.0534364 0.654863 -0.0438591)
(-0.00398483 0.744497 -0.00326874)
(0.00747531 0.774992 0.00637089)
(0.0175946 0.786885 0.0175137)
(0.0174155 0.78996 0.0246377)
(0.0163334 0.789853 0.0299338)
(0.0144332 0.781819 0.0317617)
(0.00980717 0.771339 0.0325765)
(0.00384246 0.767277 0.03393)
(-0.00144094 0.758057 0.0346839)
(-0.00643763 0.745894 0.0335871)
(-0.00828555 0.748958 0.0328744)
(-0.00814331 0.743059 0.0310001)
(-0.00391807 0.734559 0.0291507)
(0.00131331 0.72938 0.0277922)
(0.0055769 0.721669 0.0252813)
(0.0116816 0.712443 0.0230818)
(0.0162912 0.702355 0.0210922)
(0.0180805 0.690463 0.0189699)
(0.0182695 0.684323 0.0172632)
(0.0180931 0.676341 0.0161551)
(0.0170383 0.669536 0.015794)
(0.0163786 0.670166 0.0154507)
(0.0162906 0.664492 0.0151604)
(0.0166069 0.657498 0.0153702)
(0.016999 0.654548 0.0153385)
(0.0159581 0.646168 0.014046)
(0.0143192 0.641422 0.0114157)
(0.0127125 0.623359 0.00923978)
(0.00979533 0.621661 0.00471384)
(0.00646976 0.598809 -0.000562374)
(0.00339561 0.584842 -0.00602342)
(-0.00302776 0.585511 -0.0182718)
(-0.00679837 0.541995 -0.0269846)
(-0.0140526 0.531734 -0.0462476)
(-0.0165032 0.487093 -0.0579468)
(-0.00663074 0.0105417 -0.00370197)
(0.0158813 0.0242861 0.00491366)
(-0.0139711 0.00884989 -7.01267e-05)
(0.00619351 0.0220556 0.000645461)
(-0.00889482 0.00560208 0.00288678)
(0.00287268 0.0146783 0.00339939)
(-0.00737802 0.00235015 0.00448859)
(-0.00066158 0.00927155 0.00467966)
(-0.00762717 0.000934919 0.00505687)
(-0.00375113 0.00588783 0.00514068)
(-0.0082064 0.000573676 0.00525811)
(-0.005994 0.00388692 0.00538327)
(-0.00873614 0.000662595 0.00542964)
(-0.00755856 0.00272779 0.00558459)
(-0.00913216 0.000900685 0.00560063)
(-0.00864245 0.00203079 0.00575091)
(-0.00943354 0.00115858 0.00577243)
(-0.00937732 0.00161633 0.0058922)
(-0.00970381 0.00134252 0.00594009)
(-0.00982618 0.00142433 0.00602566)
(-0.00996918 0.00139646 0.00609233)
(-0.010085 0.00139433 0.00616197)
(-0.0101829 0.00139304 0.00623027)
(-0.010266 0.0013936 0.00629735)
(-0.0103373 0.00139531 0.00636337)
(-0.0103982 0.00139784 0.00642878)
(-0.0104503 0.0014008 0.00649361)
(-0.0104943 0.0014038 0.006558)
(-0.0105325 0.00140666 0.00662146)
(-0.0105667 0.00140946 0.00668391)
(-0.0105977 0.0014122 0.0067456)
(-0.0106263 0.00141481 0.00680667)
(-0.0106537 0.00141733 0.00686719)
(-0.0106813 0.00141569 0.00692726)
(-0.0107093 0.00145734 0.00698679)
(-0.0107551 0.00130073 0.00704472)
(-0.0107613 0.00170561 0.007104)
(-0.0108515 0.000936258 0.00716269)
(-0.0108395 0.00219656 0.00722189)
(-0.0109679 0.000341512 0.00727996)
(-0.0109838 0.00290829 0.00734165)
(-0.0111154 -0.000454308 0.00739509)
(-0.0112402 0.00381626 0.00746865)
(-0.0113209 -0.00142047 0.00750898)
(-0.0116665 0.00488467 0.00760635)
(-0.0116438 -0.00252931 0.00762324)
(-0.0123433 0.00603963 0.00775687)
(-0.0121738 -0.00376127 0.00774332)
(-0.0135188 0.00708398 0.00791162)
(-0.0129086 -0.00518634 0.00781699)
(-0.0157543 0.00738766 0.00822092)
(-0.0148011 -0.00746291 0.00730696)
(-0.019235 0.0063579 0.00937814)
(-0.0108431 -0.0202842 0.0148498)
(-0.00634565 -0.0193971 0.0411595)
(0.0202256 -0.0589985 0.0450875)
(0.0166096 -0.0671803 0.08315)
(0.104596 -0.158782 0.0844791)
(-0.0479814 0.0209754 -0.194512)
(-0.0724109 0.0442448 -0.00653738)
(-0.167976 0.568798 -0.0422213)
(-0.0444577 0.539317 -0.0109178)
(-0.0290003 0.617757 -0.0117731)
(-0.00240175 0.528295 -0.0101715)
(0.00512605 0.6742 -0.00314065)
(0.0130835 0.691657 0.00741467)
(0.0169541 0.648403 0.0163057)
(0.0152188 0.676439 0.0195498)
(0.00857011 0.653491 0.0232975)
(0.000426593 0.695841 0.0263971)
(-0.00890572 0.616212 0.0307926)