/*--------------------------------*- C++ -*----------------------------------*\
| =========                 |                                                 |
| \\      /  F ield         | OpenFOAM: The Open Source CFD Toolbox           |
|  \\    /   O peration     | Version:  2.3.0                                 |
|   \\  /    A nd           | Web:      www.OpenFOAM.org                      |
|    \\/     M anipulation  |                                                 |
\*---------------------------------------------------------------------------*/
FoamFile
{
    version     2.0;
    format      ascii;
    class       volVectorField;
    location    "3";
    object      Ur;
}
// * * * * * * * * * * * * * * * * * * * * * * * * * * * * * * * * * * * * * //

dimensions      [0 1 -1 0 0 0 0];

internalField   nonuniform List<vector> 
6144
(
(1.14902e-07 0.000679266 -1.37006e-07)
(-9.27057e-08 0.000678379 -7.53825e-08)
(-3.12803e-07 0.000678908 -1.12317e-07)
(-5.94163e-07 0.000680031 -1.8302e-07)
(-7.19099e-07 0.000681915 -2.07834e-07)
(-8.2935e-07 0.000684426 -2.25039e-07)
(-8.18321e-07 0.000687325 -2.27307e-07)
(-7.76677e-07 0.000690363 -2.22944e-07)
(-6.87942e-07 0.000693281 -2.14183e-07)
(-5.79634e-07 0.000695937 -1.98948e-07)
(-4.81888e-07 0.000698253 -1.9234e-07)
(-3.78116e-07 0.000700206 -1.83618e-07)
(-3.02375e-07 0.00070178 -1.79054e-07)
(-2.2753e-07 0.000703033 -1.72928e-07)
(-1.73715e-07 0.000703987 -1.68906e-07)
(-1.26529e-07 0.000704694 -1.64665e-07)
(-9.01391e-08 0.000705188 -1.61044e-07)
(-6.19442e-08 0.000705506 -1.58374e-07)
(-3.83427e-08 0.000705678 -1.55562e-07)
(-2.2681e-08 0.00070573 -1.54454e-07)
(-7.60587e-09 0.000705688 -1.5259e-07)
(-2.62124e-10 0.00070557 -1.53224e-07)
(9.72423e-09 0.000705398 -1.52474e-07)
(1.1602e-08 0.000705185 -1.55094e-07)
(1.9162e-08 0.00070495 -1.55646e-07)
(1.76949e-08 0.000704701 -1.60574e-07)
(2.48424e-08 0.000704456 -1.62783e-07)
(2.16061e-08 0.000704218 -1.70627e-07)
(3.06046e-08 0.000704005 -1.75537e-07)
(2.68701e-08 0.000703818 -1.86961e-07)
(3.91697e-08 0.000703698 -1.93592e-07)
(3.42115e-08 0.000703576 -2.10203e-07)
(5.11018e-08 0.00070361 -2.23741e-07)
(5.21955e-08 0.000703599 -2.39257e-07)
(7.28597e-08 0.000703789 -2.59841e-07)
(7.94085e-08 0.00070407 -2.83155e-07)
(1.06108e-07 0.000704379 -3.10881e-07)
(1.24821e-07 0.000704979 -3.42982e-07)
(1.57616e-07 0.000705421 -3.77661e-07)
(1.96475e-07 0.000706481 -4.17745e-07)
(2.29969e-07 0.000707129 -4.6426e-07)
(2.80069e-07 0.000708632 -5.26285e-07)
(3.46003e-07 0.000709616 -5.70845e-07)
(3.77398e-07 0.000711642 -6.69033e-07)
(4.5106e-07 0.000713233 -7.2639e-07)
(4.29564e-07 0.00071614 -8.75246e-07)
(4.34779e-07 0.000719025 -9.84628e-07)
(2.60259e-07 0.000723974 -1.22257e-06)
(2.88834e-08 0.000730179 -1.48968e-06)
(-4.68974e-07 0.000740516 -1.91814e-06)
(-1.03082e-06 0.000754719 -2.46798e-06)
(-1.8589e-06 0.000775602 -3.18886e-06)
(-2.49374e-06 0.000804823 -3.99468e-06)
(-3.14693e-06 0.000853857 -4.93193e-06)
(-5.56517e-06 0.00098559 -8.21885e-06)
(-4.77008e-06 0.00125711 -1.76776e-05)
(-3.36742e-05 0.00176817 -8.30125e-05)
(1.42102e-05 0.00469905 4.74249e-05)
(-0.000900497 0.0210104 -0.00145513)
(0.0108208 0.153953 -0.00104253)
(-0.0297327 0.601438 -0.0461624)
(-0.0585944 0.519816 -0.0484109)
(-0.000879527 0.0233687 -0.000685655)
(-0.000109885 0.00925454 -7.18585e-05)
(-0.000175038 0.00972659 1.93094e-05)
(-0.000103091 0.00979005 1.87813e-05)
(-7.80557e-05 0.00980044 2.13762e-05)
(-9.1063e-05 0.00980899 3.73345e-05)
(-0.000109397 0.00986479 4.15584e-07)
(-7.23131e-05 0.00992641 -3.83146e-06)
(-6.14897e-05 0.00992022 3.30534e-05)
(-6.59231e-05 0.00996432 1.87706e-05)
(-5.96028e-05 0.0101045 -3.73029e-05)
(-2.51033e-05 0.0101668 -3.72738e-05)
(-6.54729e-06 0.0101731 -1.04739e-05)
(-4.40302e-06 0.0101844 -4.6652e-06)
(-2.97001e-06 0.01019 -3.97377e-06)
(-2.30419e-06 0.0101924 -4.1811e-06)
(-1.62219e-06 0.0101941 -3.83665e-06)
(-1.22795e-06 0.0101946 -3.61803e-06)
(-1.03039e-06 0.0101948 -3.60828e-06)
(-8.61428e-07 0.0101949 -3.60963e-06)
(-6.91515e-07 0.0101946 -3.59914e-06)
(-5.30523e-07 0.0101943 -3.58478e-06)
(-3.76405e-07 0.010194 -3.55476e-06)
(-2.53305e-07 0.0101937 -3.50245e-06)
(-1.83626e-07 0.0101934 -3.42691e-06)
(-1.77688e-07 0.0101929 -3.33469e-06)
(-2.13831e-07 0.0101726 -3.2471e-06)
(-2.51332e-07 0.0100504 -3.16579e-06)
(-2.65633e-07 0.00964003 -3.03924e-06)
(-2.28104e-07 0.00873298 -2.73598e-06)
(-1.20287e-07 0.00754326 -2.17555e-06)
(-3.16438e-08 0.00674134 -1.90243e-06)
(7.90321e-09 0.00653796 -1.9694e-06)
(8.10334e-08 0.00654155 -1.98134e-06)
(3.78123e-07 0.000679284 4.51817e-08)
(-1.14225e-07 0.000678073 9.51844e-08)
(-7.77314e-07 0.000678413 4.01242e-09)
(-1.59194e-06 0.000679578 -1.04223e-07)
(-1.94023e-06 0.000681641 -1.32956e-07)
(-2.24519e-06 0.000684294 -1.62643e-07)
(-2.1777e-06 0.000687352 -1.56072e-07)
(-2.06363e-06 0.00069048 -1.52283e-07)
(-1.78204e-06 0.000693461 -1.40701e-07)
(-1.50042e-06 0.000696143 -1.3182e-07)
(-1.21574e-06 0.000698443 -1.25893e-07)
(-9.44003e-07 0.000700363 -1.18283e-07)
(-7.25702e-07 0.000701908 -1.15716e-07)
(-5.23157e-07 0.000703127 -1.09625e-07)
(-3.75385e-07 0.000704052 -1.07577e-07)
(-2.45963e-07 0.000704733 -1.02716e-07)
(-1.49482e-07 0.000705204 -1.0097e-07)
(-7.22315e-08 0.000705504 -9.69112e-08)
(-1.2425e-08 0.000705661 -9.65092e-08)
(3.19511e-08 0.000705701 -9.28124e-08)
(6.74746e-08 0.000705649 -9.42293e-08)
(9.1844e-08 0.000705524 -9.08828e-08)
(1.13134e-07 0.000705346 -9.44506e-08)
(1.26329e-07 0.000705131 -9.15255e-08)
(1.41168e-07 0.000704891 -9.74879e-08)
(1.49998e-07 0.00070464 -9.51029e-08)
(1.64565e-07 0.000704391 -1.0392e-07)
(1.74575e-07 0.000704154 -1.02385e-07)
(1.95112e-07 0.000703942 -1.14868e-07)
(2.11285e-07 0.000703757 -1.14481e-07)
(2.44274e-07 0.000703641 -1.30549e-07)
(2.67535e-07 0.000703522 -1.32912e-07)
(3.20062e-07 0.000703572 -1.5455e-07)
(3.60717e-07 0.000703576 -1.57205e-07)
(4.35297e-07 0.00070378 -1.87281e-07)
(5.0348e-07 0.000704063 -1.90626e-07)
(6.0498e-07 0.000704387 -2.31403e-07)
(7.18572e-07 0.000704998 -2.36202e-07)
(8.48536e-07 0.000705448 -2.8612e-07)
(1.03365e-06 0.000706509 -2.96558e-07)
(1.18352e-06 0.000707148 -3.60387e-07)
(1.44225e-06 0.000708653 -3.72298e-07)
(1.65929e-06 0.000709631 -4.41276e-07)
(1.93487e-06 0.000711646 -4.87e-07)
(2.19271e-06 0.000713148 -5.65037e-07)
(2.40339e-06 0.000715966 -6.48195e-07)
(2.52497e-06 0.000718608 -7.85456e-07)
(2.43063e-06 0.000723305 -9.58262e-07)
(2.03301e-06 0.000729033 -1.2691e-06)
(1.24113e-06 0.00073893 -1.65499e-06)
(6.09407e-08 0.000752469 -2.36696e-06)
(-1.26606e-06 0.000773009 -3.07331e-06)
(-2.34317e-06 0.000803238 -4.16773e-06)
(-2.71526e-06 0.000867744 -4.24955e-06)
(-8.85591e-07 0.00106924 -3.80811e-06)
(-8.23578e-06 0.00138311 -1.35882e-05)
(-8.57549e-05 0.00201972 -0.000131546)
(0.000112509 0.00418802 0.00012084)
(-0.000771794 0.0159292 -0.000240256)
(0.019911 0.11358 0.00855567)
(-0.0705507 0.607662 -0.0394591)
(-0.089689 0.42938 -0.0557793)
(-0.000988591 0.0237579 -0.000568491)
(-2.0867e-05 0.00932899 6.091e-05)
(-0.00011006 0.0096532 4.3316e-05)
(3.17378e-05 0.00976018 -3.29962e-05)
(6.46993e-06 0.00974672 -2.23332e-05)
(2.15133e-05 0.00976464 1.01397e-05)
(1.00542e-05 0.00980322 2.52971e-05)
(-1.45513e-05 0.00986359 3.29442e-05)
(-4.71317e-05 0.00999267 4.51743e-05)
(-7.48534e-05 0.0101241 1.03963e-05)
(-7.31298e-05 0.0101981 -3.69898e-05)
(-4.38988e-05 0.0101603 -1.72836e-05)
(-1.94252e-05 0.0101435 -1.22754e-06)
(-8.76269e-06 0.0101484 3.73563e-07)
(-3.73351e-06 0.0101516 -6.05877e-07)
(-9.34195e-07 0.0101551 -1.49908e-06)
(7.33131e-07 0.0101597 -2.03039e-06)
(1.86376e-06 0.0101612 -2.34199e-06)
(2.33535e-06 0.0101616 -2.5156e-06)
(2.45318e-06 0.0101619 -2.59567e-06)
(2.4017e-06 0.0101612 -2.62559e-06)
(2.32193e-06 0.0101621 -2.64057e-06)
(2.21228e-06 0.0101653 -2.65098e-06)
(2.01002e-06 0.0101687 -2.6707e-06)
(1.6383e-06 0.0101705 -2.70098e-06)
(1.17025e-06 0.0101689 -2.7301e-06)
(7.58849e-07 0.0101484 -2.72802e-06)
(5.19573e-07 0.0100385 -2.70151e-06)
(4.27001e-07 0.00964946 -2.62218e-06)
(4.57345e-07 0.00874917 -2.3186e-06)
(6.0034e-07 0.00754796 -1.60434e-06)
(7.46682e-07 0.00673893 -1.31646e-06)
(8.66627e-07 0.00653594 -1.4789e-06)
(1.11455e-06 0.00653955 -1.43737e-06)
(5.54162e-07 0.000678975 3.81821e-07)
(-2.94217e-07 0.000677259 3.91018e-07)
(-1.49368e-06 0.000677328 1.77707e-07)
(-2.74713e-06 0.000678723 -1.81852e-08)
(-3.23801e-06 0.000681098 -6.47072e-08)
(-3.65041e-06 0.000684082 -1.07597e-07)
(-3.47428e-06 0.000687428 -9.30381e-08)
(-3.25651e-06 0.000690736 -8.62172e-08)
(-2.77555e-06 0.000693832 -7.1527e-08)
(-2.32451e-06 0.000696538 -6.10518e-08)
(-1.85602e-06 0.000698828 -5.48567e-08)
(-1.43539e-06 0.000700705 -4.76944e-08)
(-1.09816e-06 0.000702186 -4.51519e-08)
(-7.90359e-07 0.000703347 -3.86913e-08)
(-5.66694e-07 0.000704216 -3.70333e-08)
(-3.68485e-07 0.000704854 -3.16731e-08)
(-2.2717e-07 0.000705286 -2.97938e-08)
(-1.11313e-07 0.000705555 -2.62327e-08)
(-2.52122e-08 0.000705685 -2.42914e-08)
(3.94097e-08 0.000705705 -2.21749e-08)
(8.9349e-08 0.000705637 -2.09185e-08)
(1.24414e-07 0.000705501 -2.00919e-08)
(1.54247e-07 0.000705314 -1.98985e-08)
(1.7428e-07 0.000705092 -2.05628e-08)
(1.96533e-07 0.00070485 -2.15643e-08)
(2.12741e-07 0.000704599 -2.38283e-08)
(2.37807e-07 0.000704353 -2.62622e-08)
(2.59795e-07 0.00070412 -3.04814e-08)
(2.98037e-07 0.000703915 -3.46046e-08)
(3.35202e-07 0.000703741 -4.11725e-08)
(3.96139e-07 0.000703633 -4.74798e-08)
(4.54425e-07 0.000703529 -5.76723e-08)
(5.54028e-07 0.000703591 -6.72568e-08)
(6.39951e-07 0.000703628 -8.01774e-08)
(7.89532e-07 0.00070386 -9.53429e-08)
(9.23703e-07 0.000704153 -1.11386e-07)
(1.13234e-06 0.000704521 -1.34038e-07)
(1.34193e-06 0.000705158 -1.51417e-07)
(1.61775e-06 0.000705664 -1.81642e-07)
(1.93964e-06 0.000706754 -2.03337e-07)
(2.27912e-06 0.000707453 -2.4183e-07)
(2.74598e-06 0.000708975 -2.67727e-07)
(3.16738e-06 0.000709996 -3.14626e-07)
(3.7412e-06 0.000711998 -3.65165e-07)
(4.2625e-06 0.000713493 -4.12213e-07)
(4.81983e-06 0.000716192 -5.0543e-07)
(5.23967e-06 0.000718662 -6.12599e-07)
(5.48815e-06 0.000722964 -8.08357e-07)
(5.32106e-06 0.000728191 -1.12386e-06)
(4.80879e-06 0.000737341 -1.60246e-06)
(3.71606e-06 0.000750049 -2.54131e-06)
(3.16995e-06 0.000770054 -3.71295e-06)
(3.61898e-06 0.000804172 -5.74194e-06)
(7.75181e-06 0.000876661 -7.89549e-06)
(2.25957e-05 0.00114159 -6.64989e-06)
(-6.2318e-06 0.00165222 -1.87303e-05)
(-0.00014901 0.00262185 -0.000108097)
(4.68945e-05 0.00450072 -6.73356e-05)
(-0.000553424 0.0143053 -0.000153194)
(0.0282028 0.113699 0.0204489)
(-0.0455077 0.610034 -0.0277192)
(-0.0504596 0.395964 -0.0298213)
(-2.48921e-06 0.0249348 -7.04405e-05)
(5.13988e-05 0.00967903 7.33979e-05)
(6.80701e-05 0.0100281 5.01846e-05)
(2.59147e-05 0.0101259 -9.49312e-05)
(3.45515e-05 0.00998564 -3.95714e-05)
(3.05632e-05 0.010091 -3.34259e-05)
(4.2575e-05 0.0101379 2.23886e-06)
(4.32457e-05 0.0101635 3.3999e-05)
(2.89931e-05 0.0102026 3.28413e-05)
(-2.18585e-05 0.0102419 7.29628e-06)
(-4.08319e-05 0.0102231 -5.48972e-06)
(-3.45449e-05 0.0101848 1.65591e-06)
(-1.85545e-05 0.0101655 3.41094e-06)
(-8.99502e-06 0.0101544 2.70894e-06)
(-4.49207e-06 0.0101482 1.47194e-06)
(-2.44081e-06 0.0101482 -2.60318e-07)
(-1.29578e-06 0.0101562 -1.23218e-06)
(-4.72997e-07 0.0101686 -1.8748e-06)
(4.57924e-07 0.0101779 -2.31149e-06)
(1.56517e-06 0.0101794 -2.40045e-06)
(2.49608e-06 0.010176 -2.06077e-06)
(3.19551e-06 0.0101746 -1.92535e-06)
(3.69719e-06 0.0101758 -1.77994e-06)
(3.85777e-06 0.0101766 -1.60191e-06)
(3.57923e-06 0.0101764 -1.45186e-06)
(2.89718e-06 0.0101767 -1.33436e-06)
(2.17558e-06 0.0101652 -1.26089e-06)
(1.70787e-06 0.010072 -1.26602e-06)
(1.51884e-06 0.00971165 -1.35095e-06)
(1.52417e-06 0.00883813 -1.27878e-06)
(1.61831e-06 0.00761884 -6.60691e-07)
(1.7668e-06 0.00675912 -4.91229e-07)
(1.99517e-06 0.00653311 -9.00708e-07)
(2.33411e-06 0.00653749 -8.11476e-07)
(4.55605e-07 0.000678379 1.08395e-06)
(-1.18429e-06 0.000675961 8.596e-07)
(-2.68978e-06 0.0006758 4.05309e-07)
(-4.21861e-06 0.000677586 4.91234e-08)
(-4.70974e-06 0.000680483 -3.75636e-08)
(-5.13278e-06 0.00068391 -8.07267e-08)
(-4.78248e-06 0.000687668 -6.01654e-08)
(-4.4274e-06 0.000691188 -4.04272e-08)
(-3.72845e-06 0.000694438 -2.40358e-08)
(-3.11839e-06 0.000697161 -6.18415e-09)
(-2.47361e-06 0.000699423 -1.98327e-09)
(-1.92234e-06 0.000701229 9.33052e-09)
(-1.46568e-06 0.000702631 9.04777e-09)
(-1.06587e-06 0.000703695 1.66658e-08)
(-7.81858e-07 0.000704479 1.64877e-08)
(-5.26537e-07 0.000705066 2.24764e-08)
(-3.51662e-07 0.000705438 2.32667e-08)
(-2.03309e-07 0.000705666 2.81662e-08)
(-9.92633e-08 0.000705759 2.90757e-08)
(-1.92163e-08 0.000705753 3.35111e-08)
(3.72807e-08 0.000705663 3.2854e-08)
(8.01524e-08 0.000705512 3.75397e-08)
(1.09454e-07 0.000705313 3.42164e-08)
(1.34838e-07 0.000705086 3.88401e-08)
(1.52971e-07 0.000704841 3.24793e-08)
(1.75779e-07 0.000704593 3.72985e-08)
(1.9676e-07 0.00070435 2.77952e-08)
(2.30146e-07 0.000704126 3.26738e-08)
(2.66775e-07 0.00070393 1.96301e-08)
(3.23165e-07 0.000703773 2.41125e-08)
(3.88764e-07 0.000703679 6.67907e-09)
(4.78417e-07 0.000703605 1.01562e-08)
(5.94524e-07 0.000703686 -1.27845e-08)
(7.24191e-07 0.000703752 -1.0649e-08)
(9.08332e-07 0.000704016 -4.14095e-08)
(1.10274e-06 0.000704346 -4.01393e-08)
(1.37007e-06 0.000704771 -7.92667e-08)
(1.66445e-06 0.000705461 -7.76148e-08)
(2.02901e-06 0.000706032 -1.25658e-07)
(2.46685e-06 0.000707187 -1.25471e-07)
(2.92966e-06 0.000707941 -1.81582e-07)
(3.55602e-06 0.000709554 -1.85831e-07)
(4.12508e-06 0.000710595 -2.48411e-07)
(4.95156e-06 0.000712652 -2.68312e-07)
(5.64941e-06 0.000714124 -3.38145e-07)
(6.5543e-06 0.000716734 -3.98154e-07)
(7.21436e-06 0.000718983 -5.34334e-07)
(7.86911e-06 0.000722853 -7.05583e-07)
(7.93878e-06 0.000727499 -1.09714e-06)
(7.84656e-06 0.000735886 -1.65138e-06)
(7.1271e-06 0.000748309 -2.88544e-06)
(7.44401e-06 0.000769204 -4.81808e-06)
(1.085e-05 0.000799636 -8.91967e-06)
(2.68824e-05 0.000937486 -1.65429e-05)
(5.48115e-05 0.00142974 -3.49073e-05)
(0.000101437 0.00209584 -2.78959e-05)
(-0.00021127 0.00329006 0.000203313)
(0.000114168 0.00523514 0.000314459)
(-0.000662954 0.0140841 -0.000206828)
(0.0286577 0.159966 0.0177202)
(-0.0421602 0.670913 -0.0438919)
(-0.0213548 0.516657 -0.015773)
(-0.011111 0.396372 0.00325536)
(8.91154e-05 0.0314395 -0.000538921)
(0.000260511 0.00995907 -0.000226659)
(0.000148067 0.0098573 -0.000380826)
(0.000248594 0.0097866 -0.000331641)
(0.000353606 0.00950795 -0.000152092)
(0.000299812 0.00949219 -5.92373e-05)
(0.000180317 0.00951917 2.10352e-05)
(5.68189e-05 0.00952357 3.27368e-05)
(-3.60894e-05 0.00952291 -7.47651e-06)
(-9.37611e-05 0.00952424 -4.01358e-05)
(-9.37561e-05 0.00950354 7.8256e-06)
(-7.06749e-05 0.00954111 6.03204e-06)
(-4.02972e-05 0.00957175 4.24492e-06)
(-1.06947e-05 0.00957704 2.0062e-06)
(1.06898e-05 0.00961157 8.36317e-07)
(2.50859e-05 0.00971969 4.67291e-07)
(2.9862e-05 0.00987788 -6.31781e-07)
(2.2411e-05 0.0100225 -1.2776e-06)
(1.37706e-05 0.0100909 -1.0702e-06)
(3.37702e-06 0.0101026 -1.42448e-06)
(3.55814e-06 0.0100959 -1.59265e-06)
(4.14139e-06 0.0100905 -1.39854e-06)
(4.69758e-06 0.0100974 -1.12899e-06)
(4.58231e-06 0.0101106 -9.53139e-07)
(3.60719e-06 0.0101188 -7.70956e-07)
(2.35013e-06 0.0101109 -5.48109e-07)
(1.13504e-06 0.0100385 -6.81467e-07)
(6.17754e-07 0.00972313 -8.2953e-07)
(6.5615e-07 0.00889635 -9.91253e-07)
(1.10531e-06 0.00767854 -5.32646e-07)
(1.6709e-06 0.00677846 -3.37314e-07)
(2.33124e-06 0.00653042 -1.09839e-06)
(2.94073e-06 0.00653503 -1.03011e-06)
(-9.07167e-07 0.000676759 2.74252e-06)
(-3.23198e-06 0.000673774 1.73724e-06)
(-4.60551e-06 0.000674003 6.21622e-07)
(-6.16287e-06 0.000676411 1.8062e-08)
(-6.35745e-06 0.00067999 -4.47164e-08)
(-6.68492e-06 0.000683904 -1.06908e-07)
(-6.05228e-06 0.000688148 -5.69226e-08)
(-5.53815e-06 0.000691878 -3.20293e-08)
(-4.60572e-06 0.000695291 -7.39224e-09)
(-3.85308e-06 0.000697989 1.71408e-08)
(-3.0435e-06 0.000700209 1.9414e-08)
(-2.39015e-06 0.0007019 3.66857e-08)
(-1.83458e-06 0.000703199 3.11533e-08)
(-1.36403e-06 0.000704141 4.43286e-08)
(-1.0256e-06 0.000704832 3.92672e-08)
(-7.25196e-07 0.000705343 4.83051e-08)
(-5.32662e-07 0.000705639 4.60246e-08)
(-3.60054e-07 0.000705819 5.10966e-08)
(-2.47314e-07 0.000705868 5.3258e-08)
(-1.60023e-07 0.000705828 5.43843e-08)
(-1.00102e-07 0.000705715 5.89552e-08)
(-5.90509e-08 0.000705544 5.7689e-08)
(-2.93323e-08 0.000705336 6.29213e-08)
(-1.07688e-08 0.000705101 5.74512e-08)
(6.91354e-09 0.000704856 6.21716e-08)
(2.10542e-08 0.000704609 5.33499e-08)
(4.38952e-08 0.000704374 5.83731e-08)
(6.96629e-08 0.00070416 4.59218e-08)
(1.13241e-07 0.000703981 5.09137e-08)
(1.66054e-07 0.000703841 3.41383e-08)
(2.47553e-07 0.000703771 3.90923e-08)
(3.40737e-07 0.000703721 1.70285e-08)
(4.84742e-07 0.000703833 2.01068e-08)
(6.26342e-07 0.000703945 -8.53765e-09)
(8.55703e-07 0.000704252 -9.21313e-09)
(1.07436e-06 0.000704634 -4.33217e-08)
(1.41091e-06 0.000705126 -4.81927e-08)
(1.74537e-06 0.00070588 -8.57006e-08)
(2.20795e-06 0.000706535 -9.51686e-08)
(2.70164e-06 0.000707769 -1.38592e-07)
(3.29852e-06 0.000708599 -1.51506e-07)
(4.00267e-06 0.000710338 -2.01389e-07)
(4.755e-06 0.000711408 -2.19254e-07)
(5.71852e-06 0.000713596 -2.85996e-07)
(6.65709e-06 0.000715018 -3.09272e-07)
(7.8607e-06 0.000717613 -4.19777e-07)
(8.84616e-06 0.000719681 -5.10283e-07)
(9.99224e-06 0.000723184 -7.66984e-07)
(1.03522e-05 0.00072732 -1.12394e-06)
(1.0539e-05 0.000735133 -1.84715e-06)
(9.79489e-06 0.000747541 -3.2957e-06)
(9.92444e-06 0.00077158 -5.96742e-06)
(1.70037e-05 0.000832062 -1.20134e-05)
(4.43643e-05 0.00125144 -1.55486e-05)
(0.000144732 0.00215747 5.32978e-06)
(0.000230899 0.00251015 0.000106269)
(0.000621592 0.00354695 0.000649675)
(0.000259973 0.00534234 0.000835723)
(-0.000674426 0.0124038 -0.00026636)
(0.0318014 0.191626 0.0145363)
(-0.0158416 0.67965 -0.0140201)
(-0.00507811 0.531888 -0.00865101)
(-0.0137756 0.560092 -0.00498556)
(-0.0067631 0.538639 -0.0076183)
(-0.00575255 0.539541 -0.0141424)
(-0.000545939 0.544968 -0.0112518)
(-0.00195736 0.544217 -0.00458901)
(-0.00510658 0.538538 0.00249042)
(-0.00547842 0.539041 0.00808412)
(-0.00424748 0.533822 0.00649784)
(-0.00299517 0.531891 0.00422321)
(-0.00239256 0.531501 0.00148186)
(-0.00108646 0.533132 -0.000644268)
(-0.00100791 0.535313 -0.00106839)
(-0.000231978 0.535159 -0.00144868)
(3.60748e-05 0.531212 -0.00175034)
(0.000334855 0.503793 -0.0020833)
(1.43415e-05 0.387751 -0.00183637)
(-0.000151494 0.147391 -0.000153478)
(-0.000256212 0.158021 -0.000426897)
(-6.63014e-05 0.152272 -0.000188132)
(-0.000158117 0.21829 -0.000618993)
(-1.47936e-05 0.0310583 -0.000101998)
(-2.18554e-05 0.00971435 -0.000166948)
(-1.05378e-05 0.0101111 -0.000169723)
(1.8581e-06 0.0100566 5.43882e-07)
(-1.54717e-05 0.0100741 -0.000171235)
(-1.05329e-05 0.0100283 -6.96751e-06)
(-1.58148e-05 0.0099811 -5.2719e-06)
(-1.31938e-05 0.0098956 -1.72147e-06)
(4.57713e-07 0.00958608 -2.10135e-07)
(7.67559e-07 0.00879958 -8.17512e-07)
(6.28669e-07 0.0076343 -2.04965e-06)
(1.13116e-06 0.00676813 -1.39588e-06)
(2.15757e-06 0.00652891 -1.86239e-06)
(3.5734e-06 0.00653265 -1.91957e-06)
(-2.51526e-06 0.000671845 1.15613e-06)
(-5.72436e-06 0.000671083 1.05182e-06)
(-7.01942e-06 0.000672467 3.89012e-07)
(-8.4163e-06 0.000675536 -1.02121e-07)
(-8.20313e-06 0.000679799 -8.64952e-08)
(-8.33591e-06 0.000684185 -1.60543e-07)
(-7.32709e-06 0.000688931 -6.17697e-08)
(-6.67725e-06 0.00069284 -5.34977e-08)
(-5.46773e-06 0.000696395 8.72817e-09)
(-4.6309e-06 0.000699016 1.64035e-08)
(-3.6356e-06 0.000701165 4.39597e-08)
(-2.93004e-06 0.000702697 4.87057e-08)
(-2.26141e-06 0.000703869 5.70967e-08)
(-1.75703e-06 0.000704669 6.31638e-08)
(-1.35674e-06 0.00070524 6.33658e-08)
(-1.0339e-06 0.000705649 7.22653e-08)
(-8.17291e-07 0.000705858 6.98297e-08)
(-6.26128e-07 0.000705981 7.66733e-08)
(-5.09825e-07 0.000705968 7.55748e-08)
(-4.15218e-07 0.000705892 8.11708e-08)
(-3.54939e-07 0.000705744 8.08171e-08)
(-3.13881e-07 0.000705553 8.9652e-08)
(-2.88804e-07 0.000705325 8.84704e-08)
(-2.71907e-07 0.000705081 9.32254e-08)
(-2.60735e-07 0.00070483 8.52123e-08)
(-2.47188e-07 0.000704586 9.05247e-08)
(-2.30659e-07 0.000704355 7.93278e-08)
(-2.01982e-07 0.000704154 8.44879e-08)
(-1.61894e-07 0.000703988 6.86876e-08)
(-1.00082e-07 0.000703872 7.33413e-08)
(-1.70461e-08 0.000703823 5.30645e-08)
(9.46715e-08 0.000703815 5.61517e-08)
(2.48796e-07 0.000703957 2.9059e-08)
(4.2072e-07 0.000704126 2.89104e-08)
(6.73139e-07 0.000704482 -7.37027e-09)
(9.38125e-07 0.000704927 -9.35453e-09)
(1.31489e-06 0.000705486 -5.51468e-08)
(1.71502e-06 0.000706314 -5.59796e-08)
(2.23957e-06 0.000707063 -1.1117e-07)
(2.81386e-06 0.000708386 -1.11322e-07)
(3.50132e-06 0.00070932 -1.78681e-07)
(4.2994e-06 0.000711166 -1.82508e-07)
(5.19435e-06 0.00071233 -2.62839e-07)
(6.30484e-06 0.000714714 -2.78465e-07)
(7.50553e-06 0.000716126 -3.73102e-07)
(9.00741e-06 0.000718937 -4.43737e-07)
(1.05115e-05 0.000720741 -6.31578e-07)
(1.21954e-05 0.000724048 -9.06048e-07)
(1.3147e-05 0.000727415 -1.35066e-06)
(1.33526e-05 0.000734767 -2.11936e-06)
(1.08606e-05 0.000745333 -3.57262e-06)
(9.6273e-06 0.00081285 -5.99455e-06)
(1.7503e-05 0.00107883 -1.15391e-05)
(5.04831e-05 0.00171055 -2.45025e-05)
(5.35562e-05 0.00248306 1.24744e-05)
(0.000219997 0.00252885 0.000106986)
(0.000477786 0.00269584 0.000297447)
(0.000317589 0.00154616 0.000560211)
(0.000659106 0.0080172 0.000284827)
(0.0115435 0.196257 0.00615749)
(-0.0289986 0.68766 -0.00483799)
(0.0125984 0.542334 -0.0063338)
(-0.00197409 0.557304 -0.000757053)
(-0.00259938 0.541153 -0.00117214)
(-0.00645481 0.542059 -0.00365967)
(-0.00161807 0.548478 -0.00323406)
(-0.00400018 0.541404 0.00205516)
(-0.00712385 0.541208 0.00783413)
(-0.00714146 0.543148 0.00772291)
(-0.00479149 0.541333 0.00524849)
(-0.00334984 0.540875 0.00285741)
(-0.000704841 0.541851 0.00011431)
(0.000178273 0.540444 -0.00115944)
(0.000832388 0.542048 -0.00138586)
(0.00217055 0.54033 -0.0025748)
(0.0023166 0.541679 -0.0020229)
(0.00224822 0.544253 -0.0013471)
(0.00135484 0.543814 -0.000574157)
(0.00106228 0.540336 -0.000814759)
(-5.57588e-05 0.54206 -0.00133282)
(-0.000897523 0.540395 -0.0012791)
(-0.00115317 0.541179 -0.000737785)
(-0.000881542 0.540673 -0.00116967)
(-0.000402594 0.540826 -0.00119331)
(0.00071605 0.54033 -0.000395009)
(0.000991819 0.535077 -0.000209371)
(0.000380746 0.511606 -0.000753934)
(-0.000367612 0.419953 -0.000752078)
(-4.09311e-05 0.185883 -0.000188525)
(-7.19867e-05 0.106305 -0.000217225)
(-3.57356e-05 0.0312103 -0.000151711)
(-5.69313e-05 0.00737069 -0.00022951)
(-2.34761e-05 0.00650737 3.78863e-08)
(-1.07555e-05 0.00652798 -4.11662e-06)
(5.4641e-06 0.00653191 -5.48127e-06)
(1.37383e-05 0.00652752 -5.63753e-06)
(-3.37687e-06 0.000664036 6.17429e-07)
(-7.69473e-06 0.000666471 6.63436e-07)
(-9.76867e-06 0.000670551 3.86955e-08)
(-1.08815e-05 0.000675009 -2.65918e-07)
(-1.02556e-05 0.000680016 -2.01405e-07)
(-1.00453e-05 0.00068489 -2.44813e-07)
(-8.66903e-06 0.000690083 -1.12208e-07)
(-7.86971e-06 0.000694122 -1.01957e-07)
(-6.44168e-06 0.000697791 -1.34402e-08)
(-5.53161e-06 0.000700267 -1.62666e-08)
(-4.40994e-06 0.000702343 2.65896e-08)
(-3.67165e-06 0.000703676 2.51992e-08)
(-2.92949e-06 0.000704723 4.04954e-08)
(-2.40855e-06 0.000705399 4.26211e-08)
(-1.98368e-06 0.000705854 4.03365e-08)
(-1.63249e-06 0.00070614 5.32429e-08)
(-1.40538e-06 0.000706275 5.12004e-08)
(-1.19773e-06 0.000706323 5.86087e-08)
(-1.07902e-06 0.000706251 5.92592e-08)
(-9.73357e-07 0.000706137 6.36184e-08)
(-9.10281e-07 0.000705957 6.59705e-08)
(-8.66169e-07 0.000705741 6.55888e-08)
(-8.40368e-07 0.000705501 6.98645e-08)
(-8.21263e-07 0.000705247 6.53891e-08)
(-8.08119e-07 0.000704994 6.82016e-08)
(-7.91194e-07 0.000704751 5.93679e-08)
(-7.70443e-07 0.000704532 6.15951e-08)
(-7.35153e-07 0.000704344 4.90058e-08)
(-6.86303e-07 0.000704201 5.06121e-08)
(-6.12063e-07 0.000704109 3.36315e-08)
(-5.14224e-07 0.000704093 3.38817e-08)
(-3.81033e-07 0.000704124 1.04698e-08)
(-2.01064e-07 0.00070431 7.30322e-09)
(5.92367e-09 0.000704526 -2.45831e-08)
(2.98069e-07 0.000704945 -3.44372e-08)
(6.15935e-07 0.000705456 -7.24269e-08)
(1.05059e-06 0.000706093 -8.98907e-08)
(1.52487e-06 0.000707056 -1.28235e-07)
(2.12713e-06 0.000707906 -1.54319e-07)
(2.7956e-06 0.0007093 -1.9167e-07)
(3.58065e-06 0.000710366 -2.35163e-07)
(4.49645e-06 0.000712307 -2.76747e-07)
(5.53911e-06 0.000713641 -3.42755e-07)
(6.83186e-06 0.000716178 -3.97532e-07)
(8.36223e-06 0.000717807 -4.9536e-07)
(1.02538e-05 0.000720802 -6.29882e-07)
(1.26441e-05 0.000722674 -8.87713e-07)
(1.53359e-05 0.000725794 -1.26885e-06)
(1.79058e-05 0.000728195 -2.12654e-06)
(1.7814e-05 0.000735145 -3.29082e-06)
(9.55046e-06 0.000795604 -3.30531e-06)
(-4.3776e-06 0.00105904 -6.74761e-07)
(-4.23429e-06 0.00147769 -6.01732e-06)
(2.22693e-05 0.0016922 -1.43097e-05)
(-2.34161e-05 0.00199236 2.13931e-05)
(-7.87262e-06 0.00216474 2.14572e-05)
(-6.61853e-05 0.00350753 -0.00019519)
(0.000228167 0.00390006 0.000315537)
(0.000289516 0.00987017 0.000348006)
(-0.00475351 0.249238 -0.00590003)
(-0.0125221 0.646556 0.0165574)
(0.00680446 0.552244 -0.00703155)
(0.00872595 0.557991 0.00843721)
(0.00464666 0.548505 0.0103173)
(-0.000987467 0.545789 0.00458337)
(-0.0023821 0.543979 0.00156817)
(-0.00298388 0.541496 0.00151057)
(-0.0046038 0.539932 0.00164386)
(-0.00544144 0.537739 -0.000951819)
(-0.00456224 0.53737 -0.00223237)
(-0.00288692 0.53879 -0.00220677)
(-0.00217985 0.539042 -0.00193649)
(-0.00244696 0.539892 -0.00316468)
(-0.00145291 0.54147 -0.00385354)
(-0.00125006 0.539594 -0.00420078)
(-0.000789571 0.543422 -0.00249757)
(-0.000502093 0.540466 -0.00220837)
(0.000736303 0.539627 -0.00167663)
(0.00260338 0.542417 -0.00173184)
(0.00335701 0.543413 -0.00143062)
(0.00304631 0.539922 -0.00196424)
(0.00189716 0.543396 -0.0028488)
(0.00120033 0.542455 -0.00304956)
(0.00102652 0.540446 -0.00345254)
(0.000847307 0.547102 -0.00293368)
(0.000407059 0.54551 -0.00121262)
(-0.000126678 0.540743 -1.71367e-06)
(-0.000855133 0.541841 0.000545628)
(-0.00139365 0.539975 0.000187138)
(-0.00189046 0.538568 6.59958e-05)
(-0.00229004 0.535647 0.000166932)
(-0.00265757 0.528085 0.000121581)
(-0.00266561 0.502135 0.000219928)
(-0.00120041 0.438838 0.00107388)
(-0.000822336 0.384952 -0.00139467)
(0.000811254 0.411085 -0.000339212)
(-4.02935e-06 0.000652235 9.81893e-07)
(-1.0319e-05 0.000658894 9.0663e-08)
(-1.3114e-05 0.000667537 -4.24111e-07)
(-1.32409e-05 0.000674597 -4.16155e-07)
(-1.21224e-05 0.000680309 -3.40095e-07)
(-1.13931e-05 0.000685732 -2.61669e-07)
(-9.7987e-06 0.000691216 -1.33391e-07)
(-8.80554e-06 0.00069532 -5.66448e-08)
(-7.32613e-06 0.000699058 1.12598e-08)
(-6.33569e-06 0.000701414 3.60027e-08)
(-5.19001e-06 0.00070336 6.17824e-08)
(-4.41957e-06 0.000704485 6.54538e-08)
(-3.66218e-06 0.000705383 7.60015e-08)
(-3.13293e-06 0.000705861 7.83673e-08)
(-2.69449e-06 0.000706219 8.75869e-08)
(-2.34453e-06 0.000706402 8.69047e-08)
(-2.10798e-06 0.000706436 8.87042e-08)
(-1.89972e-06 0.000706422 9.61529e-08)
(-1.77827e-06 0.000706287 9.28338e-08)
(-1.66801e-06 0.000706133 9.86615e-08)
(-1.60169e-06 0.000705912 9.58414e-08)
(-1.55436e-06 0.000705674 9.84993e-08)
(-1.52107e-06 0.000705414 9.57354e-08)
(-1.49789e-06 0.000705152 9.69549e-08)
(-1.47407e-06 0.000704894 9.09589e-08)
(-1.45044e-06 0.000704657 9.03072e-08)
(-1.41451e-06 0.000704445 8.06632e-08)
(-1.36927e-06 0.000704276 7.84604e-08)
(-1.29948e-06 0.000704154 6.5133e-08)
(-1.21032e-06 0.000704095 6.01622e-08)
(-1.08307e-06 0.000704112 4.15548e-08)
(-9.26042e-07 0.000704196 3.15313e-08)
(-7.044e-07 0.000704429 6.67401e-09)
(-4.61018e-07 0.000704707 -1.26911e-08)
(-1.10502e-07 0.000705191 -4.69959e-08)
(2.60775e-07 0.00070579 -7.45812e-08)
(7.76251e-07 0.000706522 -1.16474e-07)
(1.32253e-06 0.000707581 -1.45583e-07)
(2.02786e-06 0.000708552 -1.93987e-07)
(2.78156e-06 0.000710068 -2.29245e-07)
(3.69774e-06 0.000711281 -2.95521e-07)
(4.71822e-06 0.0007134 -3.46963e-07)
(5.94757e-06 0.000714959 -4.37935e-07)
(7.37888e-06 0.000717793 -5.36149e-07)
(9.18494e-06 0.000719789 -7.38737e-07)
(1.14661e-05 0.000723279 -1.05302e-06)
(1.46219e-05 0.000725803 -1.76437e-06)
(1.87127e-05 0.000729348 -3.14497e-06)
(2.53264e-05 0.00072887 -5.93826e-06)
(3.08884e-05 0.000836588 -8.08853e-06)
(1.80902e-05 0.00119319 2.50467e-06)
(-1.05432e-05 0.00166412 9.11506e-06)
(-1.99472e-05 0.00198358 2.64827e-06)
(5.88263e-06 0.00190846 -8.72874e-06)
(3.54961e-05 0.00186071 -1.40088e-05)
(4.06118e-05 0.00203923 -2.35943e-05)
(0.000472087 0.00359056 -0.000408245)
(0.000763452 0.00502506 0.000443729)
(1.45053e-06 0.0123054 0.000647271)
(-0.0103702 0.456487 -0.020349)
(-0.00448273 0.609279 0.00180398)
(-0.00432487 0.540249 0.00490244)
(-0.00286249 0.540618 0.00107518)
(-0.00702666 0.544072 0.00270275)
(-0.00437484 0.55164 0.000322409)
(-0.00281057 0.546372 -0.00169835)
(0.000139773 0.54191 -0.0013265)
(0.000692585 0.543114 -0.000504691)
(0.000377724 0.541501 0.00100869)
(0.000611606 0.54374 0.00202599)
(0.00101033 0.541655 0.002218)
(0.00180742 0.545742 0.00137766)
(0.00193564 0.544262 0.000219936)
(0.00289955 0.538824 -0.00123654)
(0.00311044 0.539173 -0.000659677)
(0.00182276 0.536637 -0.00072789)
(-0.000333597 0.534954 -0.00373499)
(-0.00106745 0.534348 -0.00321164)
(-0.00127889 0.534977 -0.0021342)
(-0.00259642 0.536986 -0.00334796)
(-0.00265213 0.538657 -0.00416439)
(-0.00268249 0.539727 -0.00391282)
(-0.0029912 0.542301 -0.00382204)
(-0.00181949 0.546147 -0.00224389)
(-0.000116777 0.543905 -0.000761258)
(0.00039744 0.542261 -7.77822e-05)
(0.000570962 0.541509 -6.723e-05)
(-0.000583553 0.539636 -0.0018388)
(-0.00161569 0.539486 -0.00331161)
(-0.0024765 0.539215 -0.00464479)
(-0.0038331 0.537652 -0.00718276)
(-0.00490688 0.536766 -0.0101552)
(-0.00659064 0.53444 -0.015318)
(-0.00761438 0.532756 -0.0203315)
(-0.00541575 0.536603 -0.0196785)
(-0.0046429 0.526402 -0.0199172)
(-9.43816e-06 0.000326531 -4.03819e-06)
(-1.38163e-05 0.000674958 -5.63308e-07)
(-1.59722e-05 0.000663094 -1.29273e-06)
(-1.46937e-05 0.000675365 -9.77991e-07)
(-1.27e-05 0.000681242 -7.74824e-07)