/*--------------------------------*- C++ -*----------------------------------*\
| =========                 |                                                 |
| \\      /  F ield         | OpenFOAM: The Open Source CFD Toolbox           |
|  \\    /   O peration     | Version:  2.3.0                                 |
|   \\  /    A nd           | Web:      www.OpenFOAM.org                      |
|    \\/     M anipulation  |                                                 |
\*---------------------------------------------------------------------------*/
FoamFile
{
    version     2.0;
    format      ascii;
    class       volScalarField;
    location    "39";
    object      alpha.air;
}
// * * * * * * * * * * * * * * * * * * * * * * * * * * * * * * * * * * * * * //

dimensions      [0 0 0 0 0 0 0];

internalField   nonuniform List<scalar> 
6144
(
0.999995
0.999995
0.999994
0.999994
0.999993
0.999993
0.999992
0.999991
0.99999
0.99999
0.99999
0.99999
0.99999
0.99999
0.99999
0.99999
0.99999
0.99999
0.99999
0.99999
0.99999
0.99999
0.99999
0.99999
0.99999
0.99999
0.99999
0.99999
0.99999
0.99999
0.99999
0.99999
0.99999
0.99999
0.99999
0.99999
0.99999
0.99999
0.99999
0.99999
0.99999
0.99999
0.99999
0.99999
0.99999
0.99999
0.99999
0.99999
0.99999
0.999989
0.999986
0.999979
0.999961
0.999923
0.999899
0.999874
0.999847
0.999554
0.999598
0.952281
0.0328587
9.60455e-05
5.30137e-07
5.42039e-07
5.44964e-07
5.4386e-07
5.45307e-07
5.5203e-07
5.681e-07
6.12242e-07
7.20941e-07
7.8777e-07
8.20174e-07
8.36965e-07
8.44415e-07
8.45313e-07
8.42453e-07
8.29303e-07
8.1369e-07
8.0163e-07
7.92215e-07
7.84281e-07
7.77902e-07
7.73386e-07
7.71082e-07
7.69931e-07
7.69307e-07
7.6711e-07
7.6159e-07
7.50127e-07
7.35666e-07
7.24777e-07
7.15056e-07
6.83735e-07
5.60735e-07
3.52583e-07
0.999996
0.999995
0.999994
0.999993
0.999993
0.999992
0.999992
0.999991
0.99999
0.99999
0.99999
0.99999
0.99999
0.99999
0.99999
0.99999
0.99999
0.99999
0.99999
0.99999
0.99999
0.99999
0.99999
0.99999
0.99999
0.99999
0.99999
0.99999
0.99999
0.99999
0.99999
0.99999
0.99999
0.99999
0.99999
0.99999
0.99999
0.99999
0.99999
0.99999
0.99999
0.99999
0.99999
0.99999
0.99999
0.99999
0.99999
0.99999
0.99999
0.999988
0.999985
0.999978
0.999962
0.999937
0.999928
0.999903
0.99984
0.999345
0.998462
0.953092
0.0488631
0.000203477
5.30081e-07
5.42587e-07
5.41003e-07
5.41601e-07
5.43871e-07
5.55178e-07
5.98798e-07
7.27434e-07
8.11428e-07
8.3098e-07
8.35197e-07
8.36366e-07
8.36386e-07
8.30023e-07
8.16368e-07
8.03877e-07
7.93878e-07
7.87078e-07
7.81862e-07
7.76382e-07
7.71556e-07
7.67554e-07
7.6525e-07
7.64568e-07
7.64388e-07
7.62234e-07
7.56489e-07
7.47562e-07
7.31909e-07
7.12712e-07
6.95067e-07
6.50776e-07
4.94919e-07
3.50654e-07
0.999996
0.999995
0.999994
0.999993
0.999993
0.999992
0.999992
0.999991
0.99999
0.99999
0.99999
0.99999
0.99999
0.99999
0.99999
0.99999
0.99999
0.99999
0.99999
0.99999
0.99999
0.99999
0.99999
0.99999
0.99999
0.99999
0.99999
0.99999
0.99999
0.99999
0.99999
0.99999
0.99999
0.99999
0.99999
0.99999
0.99999
0.99999
0.99999
0.99999
0.99999
0.99999
0.99999
0.99999
0.99999
0.99999
0.99999
0.99999
0.999989
0.999987
0.999984
0.999975
0.999967
0.999951
0.999938
0.999902
0.999893
0.999568
0.999257
0.955599
0.0453982
0.000163857
5.30013e-07
5.2996e-07
5.30027e-07
5.30094e-07
5.30146e-07
5.53184e-07
6.98562e-07
7.8596e-07
7.88799e-07
7.88018e-07
7.87672e-07
7.86541e-07
7.85688e-07
7.84256e-07
7.90512e-07
8.05298e-07
8.28316e-07
8.4447e-07
8.50637e-07
8.54195e-07
8.44325e-07
8.16041e-07
7.97366e-07
7.89192e-07
7.81282e-07
7.60245e-07
7.51558e-07
7.52733e-07
7.56029e-07
7.46732e-07
7.20611e-07
6.68303e-07
5.20878e-07
3.50568e-07
0.999996
0.999996
0.999994
0.999994
0.999993
0.999992
0.999992
0.999991
0.99999
0.99999
0.99999
0.99999
0.99999
0.99999
0.99999
0.99999
0.99999
0.99999
0.99999
0.99999
0.99999
0.99999
0.99999
0.99999
0.99999
0.99999
0.99999
0.99999
0.99999
0.99999
0.99999
0.99999
0.99999
0.99999
0.99999
0.99999
0.99999
0.99999
0.99999
0.99999
0.99999
0.99999
0.99999
0.99999
0.99999
0.99999
0.99999
0.99999
0.999989
0.999987
0.999983
0.999975
0.999966
0.99994
0.999922
0.999891
0.999891
0.999706
0.999476
0.943242
0.0424852
0.000116192
2.56092e-06
1.83223e-06
2.00301e-06
2.29427e-06
2.5939e-06
3.04135e-06
3.26644e-06
3.33784e-06
3.25526e-06
3.21137e-06
2.93707e-06
2.48958e-06
1.40568e-06
8.15666e-07
8.23573e-07
1.13964e-06
2.13536e-06
2.66162e-06
1.88285e-06
9.82643e-07
1.01666e-06
1.59363e-06
1.49635e-06
8.64889e-07
7.69936e-07
7.28621e-07
7.14489e-07
7.00084e-07
7.11835e-07
7.32213e-07
7.24999e-07
6.91214e-07
5.63969e-07
3.5358e-07
0.999997
0.999996
0.999995
0.999994
0.999993
0.999993
0.999992
0.999991
0.999991
0.99999
0.99999
0.99999
0.99999
0.99999
0.99999
0.99999
0.99999
0.99999
0.99999
0.99999
0.99999
0.99999
0.99999
0.99999
0.99999
0.99999
0.99999
0.99999
0.99999
0.99999
0.99999
0.99999
0.99999
0.99999
0.99999
0.99999
0.99999
0.99999
0.99999
0.99999
0.99999
0.99999
0.99999
0.99999
0.99999
0.99999
0.99999
0.99999
0.999989
0.999986
0.999982
0.999975
0.999952
0.999913
0.9999
0.999879
0.999877
0.99979
0.999745
0.924598
0.0363025
0.000229225
0.00013063
0.000108287
0.000125916
0.000147293
0.000173823
0.000196405
0.000211489
0.000221443
0.000236029
0.000264071
0.000279253
0.00026285
0.000179162
0.000134089
0.000109316
8.73401e-05
6.00298e-05
3.36745e-05
1.68786e-05
1.15139e-05
1.04155e-05
1.06342e-05
8.85961e-06
5.61641e-06
2.96885e-06
1.21183e-06
7.79291e-07
7.81391e-07
4.94823e-07
5.83395e-07
6.82462e-07
6.83011e-07
6.01694e-07
3.82194e-07
0.999997
0.999997
0.999996
0.999995
0.999994
0.999993
0.999992
0.999991
0.999991
0.99999
0.99999
0.99999
0.99999
0.99999
0.99999
0.99999
0.99999
0.99999
0.99999
0.99999
0.99999
0.99999
0.99999
0.99999
0.99999
0.99999
0.99999
0.99999
0.99999
0.99999
0.99999
0.99999
0.99999
0.99999
0.99999
0.99999
0.99999
0.99999
0.99999
0.99999
0.99999
0.99999
0.99999
0.99999
0.99999
0.99999
0.99999
0.99999
0.999989
0.999986
0.999982
0.999971
0.999939
0.999899
0.999895
0.999892
0.999878
0.999822
0.999958
0.896642
0.0472494
0.0014667
0.0011758
0.000990295
0.00123211
0.00172898
0.00194419
0.0019859
0.00198587
0.00215738
0.00221129
0.00225355
0.00228506
0.00199361
0.00172212
0.00141413
0.00113417
0.000858876
0.000548777
0.000284971
0.000117352
3.39138e-05
1.25974e-05
2.16653e-05
2.19462e-05
1.99427e-05
1.62956e-05
1.4842e-05
1.22943e-05
8.10607e-06
3.31766e-06
2.92518e-07
2.92517e-07
2.92517e-07
2.94214e-07
3.27559e-07
0.999997
0.999997
0.999996
0.999996
0.999995
0.999994
0.999993
0.999992
0.999991
0.99999
0.99999
0.99999
0.99999
0.99999
0.99999
0.99999
0.99999
0.99999
0.99999
0.99999
0.99999
0.99999
0.99999
0.99999
0.99999
0.99999
0.99999
0.99999
0.99999
0.99999
0.99999
0.99999
0.99999
0.99999
0.99999
0.99999
0.99999
0.99999
0.99999
0.99999
0.99999
0.99999
0.99999
0.99999
0.99999
0.99999
0.99999
0.99999
0.999989
0.999986
0.999981
0.999971
0.999946
0.999918
0.999916
0.999917
0.99992
0.999866
0.99999
0.816018
0.0136915
0.00361124
0.00404485
0.00425899
0.00418535
0.00410051
0.00437772
0.00493765
0.0050668
0.00502537
0.00491108
0.00487458
0.00486538
0.0049422
0.00465982
0.00298557
0.00240591
0.00190248
0.00104746
0.000440252
7.53338e-05
1.03963e-05
1.03963e-05
1.03963e-05
1.13076e-05
1.82269e-05
2.24169e-05
3.17275e-05
4.62776e-05
6.44262e-05
7.72169e-05
8.65403e-05
8.55032e-05
5.28467e-05
2.26623e-05
6.01365e-07
0.999997
0.999997
0.999997
0.999997
0.999996
0.999995
0.999993
0.999992
0.999991
0.99999
0.99999
0.99999
0.99999
0.99999
0.99999
0.99999
0.99999
0.99999
0.99999
0.99999
0.99999
0.99999
0.99999
0.99999
0.99999
0.99999
0.99999
0.99999
0.99999
0.99999
0.99999
0.99999
0.99999
0.99999
0.99999
0.99999
0.99999
0.99999
0.99999
0.99999
0.99999
0.99999
0.99999
0.99999
0.99999
0.99999
0.99999
0.99999
0.999989
0.999986
0.999981
0.999973
0.999961
0.999935
0.99991
0.999881
0.999911
0.999908
0.99999
0.742105
0.013869
0.00726654
0.00852666
0.00869687
0.00817046
0.00774529
0.00768378
0.00787688
0.00849445
0.00891821
0.00907625
0.00916413
0.00894577
0.00839588
0.00801685
0.0074472
0.00650776
0.00520499
0.00387878
0.00247524
0.00124467
0.000540266
0.000247152
0.000313018
0.000207234
3.2667e-07
3.2667e-07
3.26669e-07
3.26669e-07
3.26668e-07
3.26668e-07
3.26668e-07
3.26667e-07
3.26667e-07
1.17195e-05
3.26667e-07
0.999997
0.999997
0.999997
0.999997
0.999996
0.999996
0.999994
0.999992
0.999991
0.99999
0.99999
0.99999
0.99999
0.99999
0.99999
0.99999
0.99999
0.99999
0.99999
0.99999
0.99999
0.99999
0.99999
0.99999
0.99999
0.99999
0.99999
0.99999
0.99999
0.99999
0.99999
0.99999
0.99999
0.99999
0.99999
0.99999
0.99999
0.99999
0.99999
0.99999
0.99999
0.99999
0.99999
0.99999
0.99999
0.99999
0.99999
0.99999
0.999989
0.999986
0.999979
0.999962
0.999948
0.999928
0.999898
0.999867
0.999881
0.999887
0.99999
0.776548
0.0132684
0.00585981
0.00685382
0.00699587
0.00689925
0.00750725
0.00794982
0.00771839
0.0068801
0.00605144
0.00626228
0.00736222
0.0078497
0.00780223
0.00670409
0.00514751
0.00439485
0.00445579
0.00473635
0.00396503
0.00311483
0.00262707
0.00213308
0.00183883
0.00179243
0.00146578
0.00141404
0.00116256
0.000634761
0.000685772
0.00025167
3.26668e-07
0.000106414
5.77329e-05
0.000117899
2.79298e-05
0.999997
0.999997
0.999997
0.999997
0.999997
0.999996
0.999995
0.999993
0.999991
0.999991
0.99999
0.99999
0.99999
0.99999
0.99999
0.99999
0.99999
0.99999
0.99999
0.99999
0.99999
0.99999
0.99999
0.99999
0.99999
0.99999
0.99999
0.99999
0.99999
0.99999
0.99999
0.99999
0.99999
0.99999
0.99999
0.99999
0.99999
0.99999
0.99999
0.99999
0.99999
0.99999
0.99999
0.99999
0.99999
0.99999
0.99999
0.99999
0.999989
0.999985
0.999972
0.999942
0.999912
0.999896
0.999895
0.999874
0.999877
0.999861
0.999952
0.846688
0.0203035
0.00281902
0.00262504
0.00243543
0.00306875
0.00312409
0.00263384
0.00252631
0.00242481
0.00195272
0.00165101
0.00165546
0.00185255
0.00184278
0.00132046
0.000984717
0.000817643
0.000747555
0.000727755
0.000733464
0.000742189
0.0007239
0.000735202
0.000827335
0.000937612
0.00103287
0.00103621
0.00108743
0.000675891
0.000438207
0.000230158
8.68909e-06
4.01875e-05
2.29222e-05
2.70586e-05
1.85852e-06
0.999997
0.999997
0.999997
0.999997
0.999997
0.999997
0.999995
0.999993
0.999991
0.999991
0.99999
0.99999
0.99999
0.99999
0.99999
0.99999
0.99999
0.99999
0.99999
0.99999
0.99999
0.99999
0.99999
0.99999
0.99999
0.99999
0.99999
0.99999
0.99999
0.99999
0.99999
0.99999
0.99999
0.99999
0.99999
0.99999
0.99999
0.99999
0.99999
0.99999
0.99999
0.99999
0.99999
0.99999
0.99999
0.99999
0.99999
0.99999
0.999989
0.999985
0.999977
0.999966
0.999952
0.999946
0.999921
0.999883
0.99984
0.99984
0.999695
0.89241
0.0196686
0.000423375
0.000293243
0.000176802
0.000163046
0.000129986
0.000126724
0.000121317
0.000118861
0.000106741
9.19719e-05
8.08607e-05
7.42497e-05
6.71061e-05
5.95028e-05
5.52899e-05
5.40258e-05
5.44549e-05
5.48894e-05
5.59136e-05
5.88182e-05
6.41967e-05
7.44933e-05
9.20932e-05
0.000114196
0.000131681
0.000142197
0.000151841
0.000116544
8.70615e-05
4.31192e-05
1.21576e-05
8.14044e-06
8.18402e-06
5.73325e-06
9.37895e-07
0.999998
0.999997
0.999996
0.999996
0.999995
0.999995
0.999995
0.999992
0.999991
0.999991
0.99999
0.99999
0.99999
0.99999
0.99999
0.99999
0.99999
0.99999
0.99999
0.99999
0.99999
0.99999
0.99999
0.99999
0.99999
0.99999
0.99999
0.99999
0.99999
0.99999
0.99999
0.99999
0.99999
0.99999
0.99999
0.99999
0.99999
0.99999
0.99999
0.99999
0.99999
0.99999
0.99999
0.99999
0.99999
0.99999
0.99999
0.99999
0.999989
0.999985
0.999977
0.999965
0.999958
0.999949
0.999942
0.999919
0.999886
0.999851
0.999592
0.918576
0.0206835
4.07572e-05
4.67268e-06
1.91533e-06
1.35061e-06
1.43656e-06
2.04194e-06
1.87024e-06
1.77012e-06
1.87727e-06
1.63579e-06
9.40241e-07
6.91482e-07
7.21533e-07
8.091e-07
7.35822e-07
8.54096e-07
1.32881e-06
7.99073e-07
5.52697e-07
1.3376e-06
1.67096e-06
1.32981e-06
1.5302e-06
2.28413e-06
3.08048e-06
3.71955e-06
4.06741e-06
4.23604e-06
3.39398e-06
2.39694e-06
1.70772e-06
1.449e-06
1.30144e-06
9.78218e-07
9.35761e-07
0.999999
0.999997
0.999996
0.999995
0.999994
0.999993
0.999993
0.999992
0.999991
0.99999
0.99999
0.99999
0.99999
0.99999
0.99999
0.99999
0.99999
0.99999
0.99999
0.99999
0.99999
0.99999
0.99999
0.99999
0.99999
0.99999
0.99999
0.99999
0.99999
0.99999
0.99999
0.99999
0.99999
0.99999
0.99999
0.99999
0.99999
0.99999
0.99999
0.99999
0.99999
0.99999
0.99999
0.99999
0.99999
0.99999
0.99999
0.99999
0.999989
0.999986
0.999979
0.999967
0.999957
0.999943
0.999941
0.999915
0.999895
0.999793
0.999306
0.938179
0.0241401
4.73262e-05
3.20109e-07
6.55856e-07
7.24709e-07
7.00802e-07
7.0348e-07
7.24183e-07
7.40219e-07
7.39854e-07
7.30674e-07
7.13273e-07
6.91637e-07
6.69322e-07
6.48825e-07
6.29221e-07
6.09293e-07
5.83936e-07
5.52328e-07
5.1673e-07
4.73935e-07
4.26165e-07
3.84173e-07
3.4756e-07
3.07933e-07
2.83656e-07
2.80663e-07
3.80293e-07
8.11016e-07
7.51542e-07
7.95911e-07
8.4417e-07
8.63335e-07
7.87957e-07
7.99641e-07
8.24869e-07
0.999997
0.999996
0.999996
0.999995
0.999994
0.999993
0.999992
0.999992
0.999991
0.99999
0.99999
0.99999
0.99999
0.99999
0.99999
0.99999
0.99999
0.99999
0.99999
0.99999
0.99999
0.99999
0.99999
0.99999
0.99999
0.99999
0.99999
0.99999
0.99999
0.99999
0.99999
0.99999
0.99999
0.99999
0.99999
0.99999
0.99999
0.99999
0.99999
0.99999
0.99999
0.99999
0.99999
0.99999
0.99999
0.99999
0.99999
0.99999
0.999989
0.999987
0.99998
0.999968
0.999955
0.999941
0.999941
0.999911
0.999911
0.999716
0.999366
0.943011
0.0243574
5.4036e-05
3.20109e-07
3.74227e-07
4.28621e-07
4.82603e-07
5.3376e-07
5.65073e-07
5.61405e-07
5.48934e-07
5.29189e-07
5.07589e-07
4.91175e-07
4.80317e-07
4.76569e-07
4.74232e-07
4.69739e-07
4.61056e-07
4.4761e-07
4.30328e-07
4.09476e-07
3.91616e-07
3.77794e-07
3.64604e-07
3.50378e-07
3.47349e-07
3.4316e-07
3.03111e-07
3.85626e-07
7.29736e-07
8.05684e-07
8.02321e-07
7.71562e-07
7.52174e-07
7.4821e-07
6.87487e-07
0.999997
0.999996
0.999995
0.999994
0.999994
0.999993
0.999992
0.999991
0.999991
0.99999
0.99999
0.99999
0.99999
0.99999
0.99999
0.99999
0.99999
0.99999
0.99999
0.99999
0.99999
0.99999
0.99999
0.99999
0.99999
0.99999
0.99999
0.99999
0.99999
0.99999
0.99999
0.99999
0.99999
0.99999
0.99999
0.99999
0.99999
0.99999
0.99999
0.99999
0.99999
0.99999
0.99999
0.99999
0.99999
0.99999
0.99999
0.99999
0.999989
0.999987
0.999981
0.999971
0.999955
0.99994
0.999938
0.999913
0.999882
0.99953
0.998619
0.937793
0.02681
6.58668e-05
3.20109e-07
3.28208e-07
3.33355e-07
3.44237e-07
3.67154e-07
3.8598e-07
3.84495e-07
3.77635e-07
3.67308e-07
3.57447e-07
3.50554e-07
3.4544e-07
3.43578e-07
3.44019e-07
3.45311e-07
3.46582e-07
3.46005e-07
3.4447e-07
3.41944e-07
3.39933e-07
3.39352e-07
3.36865e-07
3.34833e-07
3.3752e-07
3.33708e-07
2.95393e-07
3.87079e-07
6.70933e-07
7.52018e-07
7.61136e-07
7.35206e-07
6.93554e-07
6.35188e-07
5.3112e-07
0.999998
0.999998
0.999998
0.999995
0.999994
0.999993
0.999992
0.999991
0.999991
0.99999
0.99999
0.99999
0.99999
0.99999
0.99999
0.99999
0.99999
0.99999
0.99999
0.99999
0.99999
0.99999
0.99999
0.99999
0.99999
0.99999
0.99999
0.99999
0.99999
0.99999
0.99999
0.99999
0.99999
0.99999
0.99999
0.99999
0.99999
0.99999
0.99999
0.99999
0.99999
0.99999
0.99999
0.99999
0.99999
0.99999
0.99999
0.99999
0.999989
0.999986
0.999981
0.999972
0.999958
0.999943
0.999923
0.999902
0.999902
0.999701
0.999705
0.939181
0.0236002
4.72648e-05
3.20109e-07
3.26235e-07
3.26063e-07
3.25191e-07
3.26064e-07
3.27483e-07
3.28464e-07
3.2834e-07
3.27948e-07
3.27537e-07
3.27202e-07
3.27103e-07
3.27126e-07
3.27133e-07
3.272e-07
3.2723e-07
3.27205e-07
3.27366e-07
3.27489e-07
3.27966e-07
3.28835e-07
3.28844e-07
3.29049e-07
3.3413e-07
3.27607e-07
2.73632e-07
4.06947e-07
5.82517e-07
6.21983e-07
6.34266e-07
6.1303e-07
5.37453e-07
4.57948e-07
3.87645e-07
0.999996
0.999995
0.999994
0.999994
0.999993
0.999993
0.999992
0.999991
0.99999
0.99999
0.99999
0.99999
0.99999
0.99999
0.99999
0.99999
0.99999
0.99999
0.99999
0.99999
0.99999
0.99999
0.99999
0.99999
0.99999
0.99999
0.99999
0.99999
0.99999
0.99999
0.99999
0.99999
0.99999
0.99999
0.99999
0.99999
0.99999
0.99999
0.99999
0.99999
0.99999
0.99999
0.99999
0.99999
0.99999
0.99999
0.99999
0.99999
0.99999
0.999989
0.999986
0.999979
0.999963
0.999926
0.999903
0.999883
0.999809
0.999358
0.998575
0.950497
0.0521766
0.000176867
5.3019e-07
5.47335e-07
5.46996e-07
5.4693e-07
5.48433e-07
5.53763e-07
5.68012e-07
5.96847e-07
6.91221e-07
7.66102e-07
8.03944e-07
8.266e-07
8.39378e-07
8.43877e-07
8.44072e-07
8.40761e-07
8.34278e-07
8.2762e-07
8.20973e-07
8.1445e-07
8.07565e-07
8.00569e-07
7.92461e-07
7.85029e-07
7.84117e-07
7.84045e-07
7.82334e-07
7.75431e-07
7.63322e-07
7.47999e-07
7.29082e-07
6.87393e-07
5.58201e-07
3.50986e-07
0.999997
0.999995
0.999994
0.999993
0.999993
0.999992
0.999991
0.999991
0.99999
0.99999
0.99999
0.99999
0.99999
0.99999
0.99999
0.99999
0.99999
0.99999
0.99999
0.99999
0.99999
0.99999
0.99999
0.99999
0.99999
0.99999
0.99999
0.99999
0.99999
0.99999
0.99999
0.99999
0.99999
0.99999
0.99999
0.99999
0.99999
0.99999
0.99999
0.99999
0.99999
0.99999
0.99999
0.99999
0.99999
0.99999
0.99999
0.99999
0.999989
0.999987
0.999985
0.999978
0.999965
0.999933
0.999916
0.999903
0.999809
0.999378
0.99801
0.943418
0.0682516
5.44585e-07
5.69998e-07
5.86334e-07
5.68878e-07
5.52445e-07
5.46037e-07
5.4823e-07
5.70679e-07
6.49701e-07
7.51618e-07
8.08666e-07
8.31119e-07
8.3722e-07
8.37197e-07
8.34841e-07
8.32681e-07
8.31092e-07
8.27715e-07
8.23015e-07
8.12241e-07
7.95263e-07
7.85984e-07
7.81573e-07
7.73484e-07
7.63319e-07
7.71958e-07
7.85357e-07
7.96203e-07
7.96311e-07
7.95931e-07
7.76995e-07
7.38172e-07
6.69546e-07
5.10238e-07
3.50568e-07
0.999997
0.999996
0.999994
0.999993
0.999993
0.999992
0.999992
0.999991
0.999991
0.999991
0.99999
0.99999
0.99999
0.99999
0.99999
0.99999
0.99999
0.99999
0.99999
0.99999
0.99999
0.99999
0.99999
0.99999
0.99999
0.99999
0.99999
0.99999
0.99999
0.99999
0.99999
0.99999
0.99999
0.99999
0.99999
0.99999
0.99999
0.99999
0.99999
0.99999
0.99999
0.99999
0.99999
0.99999
0.99999
0.99999
0.99999
0.999989
0.999989
0.999987
0.999985
0.999978
0.999963
0.99994
0.999929
0.999911
0.999867
0.999558
0.999129
0.938746
0.0224967
5.44586e-07
1.1499e-06
1.11865e-06
8.39536e-07
5.65363e-07
5.33795e-07
5.42553e-07
6.09318e-07
1.07187e-06
1.75808e-06
1.31634e-06
6.63434e-07
6.73412e-07
7.32602e-07
7.78558e-07
8.60587e-07
9.51217e-07
9.90118e-07
9.40525e-07
8.13519e-07
7.70427e-07
7.55153e-07
7.53935e-07
7.52364e-07
7.41633e-07
7.43355e-07
7.62362e-07
7.71969e-07
7.71639e-07
7.70796e-07
7.67913e-07
7.5153e-07
6.90256e-07
5.24618e-07
3.50482e-07
0.999998
0.999997
0.999995
0.999994
0.999994
0.999993
0.999992
0.999992
0.999991
0.999991
0.99999
0.99999
0.99999
0.99999
0.99999
0.99999
0.99999
0.99999
0.99999
0.99999
0.99999
0.99999
0.99999
0.99999
0.99999
0.99999
0.99999
0.99999
0.99999
0.99999
0.99999
0.99999
0.99999
0.99999
0.99999
0.99999
0.99999
0.99999
0.99999
0.99999
0.99999
0.99999
0.99999
0.99999
0.99999
0.99999
0.99999
0.99999
0.999989
0.999987
0.999984
0.999974
0.999937
0.999906
0.999902
0.999888
0.999887
0.999699
0.999623
0.923914
0.00697071
2.34879e-05
2.46293e-05
1.80029e-05
1.79126e-05
2.2255e-05
2.98895e-05
3.61297e-05
3.90341e-05
4.0976e-05
4.3024e-05
4.56519e-05
4.72955e-05
4.3276e-05
2.96164e-05
2.34899e-05
2.12326e-05
1.82325e-05
1.4503e-05
8.59628e-06
3.99274e-06
1.94769e-06
1.07793e-06
8.7902e-07
1.03301e-06
7.4677e-07
7.25735e-07
7.52081e-07
7.62401e-07
7.66887e-07
7.71018e-07
7.70484e-07
7.51546e-07
7.00355e-07
5.52614e-07
3.50397e-07
0.999998
0.999997
0.999995
0.999995
0.999994
0.999993
0.999993
0.999992
0.999991
0.999991
0.99999
0.99999
0.99999
0.99999
0.99999
0.99999
0.99999
0.99999
0.99999
0.99999
0.99999
0.99999
0.99999
0.99999
0.99999
0.99999
0.99999
0.99999
0.99999
0.99999
0.99999
0.99999
0.99999
0.99999
0.99999
0.99999
0.99999
0.99999
0.99999
0.99999
0.99999
0.99999
0.99999
0.99999
0.99999
0.99999
0.99999
0.99999
0.999989
0.999987
0.999982
0.999955
0.99991
0.999885
0.999875
0.999863
0.999858
0.999743
0.999829
0.894192
0.00912207
0.000655404
0.000626156
0.000504144
0.000501033
0.000587246
0.000999522
0.00123665
0.00126578
0.00131095
0.00147668
0.00201919
0.00242766
0.00237462
0.00191843
0.00181562
0.00174403
0.00154168
0.00137765
0.00096973
0.000597362
0.000391441
0.000251269
0.000114516
3.12797e-05
7.49203e-06
1.64819e-06
6.86278e-07
6.86102e-07
6.44658e-07
7.03898e-07
7.52948e-07
7.50241e-07
7.17005e-07
5.90705e-07
3.58512e-07
0.999998
0.999998
0.999996
0.999995
0.999994
0.999994
0.999993
0.999992
0.999991
0.999991
0.99999
0.99999
0.99999
0.99999
0.99999
0.99999
0.99999
0.99999
0.99999
0.99999
0.99999
0.99999
0.99999
0.99999
0.99999
0.99999
0.99999
0.99999
0.99999
0.99999
0.99999
0.99999
0.99999
0.99999
0.99999
0.99999
0.99999
0.99999
0.99999
0.99999
0.99999
0.99999
0.99999
0.99999
0.99999
0.99999
0.99999
0.99999
0.999989
0.999986
0.999981
0.999945
0.999908
0.99989
0.99987
0.999855
0.999855
0.999853
0.999921
0.827762
0.0201075
0.00590495
0.00594953
0.00545815
0.00614197
0.00725622
0.0100789
0.0120042
0.0127825
0.0137152
0.0151603
0.0162986
0.0171004
0.0174772
0.0177405
0.0181246
0.0184168
0.0184265
0.0166911
0.0137624
0.0120669
0.0105173
0.00886235
0.00581519
0.00284491
0.0012896
0.000437102
9.79566e-05
1.53579e-05
1.91289e-06
4.638e-07
4.63858e-07
5.48454e-07
6.17839e-07
5.41944e-07
3.26689e-07
0.999998
0.999998
0.999997
0.999996
0.999995
0.999994
0.999993
0.999993
0.999992
0.999991
0.99999
0.99999
0.99999
0.99999
0.99999
0.99999
0.99999
0.99999
0.99999
0.99999
0.99999
0.99999
0.99999
0.99999
0.99999
0.99999
0.99999
0.99999
0.99999
0.99999
0.99999
0.99999
0.99999
0.99999
0.99999
0.99999
0.99999
0.99999
0.99999
0.99999
0.99999
0.99999
0.99999
0.99999
0.99999
0.99999
0.99999
0.99999
0.999989
0.999986
0.999982
0.999967
0.999939
0.999926
0.999923
0.999921
0.999926
0.999957
0.99999
0.692311
0.0342797
0.0214409
0.0231371
0.0239223
0.0257964
0.0280984
0.0308503
0.03349
0.0352151
0.036355
0.0375753
0.0385401
0.0393059
0.0404849
0.0420033
0.0438033
0.0447605
0.0456142
0.046448
0.0466052
0.0457978
0.0442052
0.0408932
0.0362331
0.030925
0.0243261
0.0172066
0.0103605
0.00519856
0.00257465
0.00218744
0.00255072
0.002531
0.00282808
0.00313983
0.00358405
0.999998
0.999998
0.999998
0.999997
0.999996
0.999995
0.999993
0.999993
0.999992
0.999991
0.99999
0.99999
0.99999
0.99999
0.99999
0.99999
0.99999
0.99999
0.99999
0.99999
0.99999
0.99999
0.99999
0.99999
0.99999
0.99999
0.99999
0.99999
0.99999
0.99999
0.99999
0.99999
0.99999
0.99999
0.99999
0.99999
0.99999
0.99999
0.99999
0.99999
0.99999
0.99999
0.99999
0.99999
0.99999
0.99999
0.99999
0.99999
0.999989
0.999986
0.999973
0.999936
0.999902
0.999901
0.999869
0.999883
0.999934
0.999973
0.99999
0.570258
0.0456252
0.0371395
0.0393258
0.0398998
0.0398526
0.0402301
0.0406794
0.0418395
0.0438909
0.0457421
0.0460564
0.0461005
0.0462911
0.046234
0.0475952
0.0497769
0.0516821
0.0535137
0.0556369
0.0586722
0.0629115
0.0670356
0.0698224
0.0711953
0.0730991
0.075438
0.078799
0.0822352
0.0853716
0.0905085
0.0987095
0.110235
0.124651
0.148373
0.196507
0.395507
0.999998
0.999998
0.999998
0.999998
0.999997
0.999996
0.999994
0.999993
0.999992
0.999991
0.99999
0.99999
0.99999
0.99999
0.99999
0.99999
0.99999
0.99999
0.99999
0.99999
0.99999
0.99999
0.99999
0.99999
0.99999
0.99999
0.99999
0.99999
0.99999
0.99999
0.99999
0.99999
0.99999
0.99999
0.99999
0.99999
0.99999
0.99999
0.99999
0.99999
0.99999
0.99999
0.99999
0.99999
0.99999
0.99999
0.99999
0.99999
0.999989
0.999985
0.999955
0.999897
0.999871
0.999864
0.999845
0.999871
0.999915
0.99996
0.99999
0.636142
0.0366085
0.0263843
0.0270984
0.0273284
0.0259004
0.0245651
0.0230014
0.0223504
0.0221135
0.0220944
0.0247161
0.0277976
0.0270963
0.023091
0.021535
0.0205622
0.0205172
0.0227916
0.0255273
0.0286091
0.0332203
0.040111
0.0486734
0.0573209
0.0652364
0.0724596
0.0788054
0.0847967
0.0905361
0.0951624
0.0980512
0.0997509
0.100776
0.0946501
0.0847048
0.072291
0.999998
0.999998
0.999998
0.999998
0.999998
0.999997
0.999995
0.999993
0.999992
0.999991
0.99999
0.99999
0.99999
0.99999
0.99999
0.99999
0.99999
0.99999
0.99999
0.99999
0.99999
0.99999
0.99999
0.99999
0.99999
0.99999
0.99999
0.99999
0.99999
0.99999
0.99999
0.99999
0.99999
0.99999
0.99999
0.99999
0.99999
0.99999
0.99999
0.99999
0.99999
0.99999
0.99999
0.99999
0.99999
0.99999
0.99999
0.99999
0.999989
0.999984
0.999941
0.999889
0.999874
0.999873
0.999871
0.999898
0.999912
0.99995
0.99999
0.740881
0.017718
0.00832666
0.00808903
0.00663665
0.00596509
0.00539297
0.00520004
0.00529198
0.00544978
0.00528021
0.00519817
0.00524769
0.00523975
0.00517172
0.00498843
0.00409805
0.00388482
0.00431243
0.00457347
0.00511892
0.00593846
0.00725883
0.0096561
0.013252
0.017918
0.0234812
0.0297258
0.0353371
0.0396023
0.0417448
0.0420755
0.0338033
0.0245606
0.0144699
0.00681707
0.00263347
0.999998
0.999998
0.999998
0.999998
0.999998
0.999998
0.999997
0.999994
0.999992
0.999991
0.99999
0.99999
0.99999
0.99999
0.99999
0.99999
0.99999
0.99999
0.99999
0.99999
0.99999
0.99999
0.99999
0.99999
0.99999
0.99999
0.99999
0.99999
0.99999
0.99999
0.99999
0.99999
0.99999
0.99999
0.99999
0.99999
0.99999
0.99999
0.99999
0.99999
0.99999
0.99999
0.99999
0.99999
0.99999
0.99999
0.99999
0.99999
0.999989
0.999986
0.999981
0.999972
0.999962
0.999946
0.999899
0.999798
0.999793
0.999809
0.999832
0.843931
0.00576718
0.00081569
0.000751993
0.00058146
0.000526946
0.000464362
0.000460769
0.000464643
0.000461494
0.0004627
0.000470355
0.000457809
0.00043446
0.000415893
0.000399621
0.000389648
0.000398121
0.000419686
0.000434113
0.000467414
0.000517028
0.000608177
0.000835975
0.00127024
0.00186182
0.00241003
0.00275762
0.00347631
0.00402318
0.00347304
0.00252327
0.00179982
0.00083603
0.000292382
7.41442e-05
2.18814e-05
0.999998
0.999998
0.999998
0.999998
0.999998
0.999997
0.999997
0.999994
0.999992
0.999991
0.99999
0.99999
0.99999
0.99999
0.99999
0.99999
0.99999
0.99999
0.99999
0.99999
0.99999
0.99999
0.99999
0.99999
0.99999
0.99999
0.99999
0.99999
0.99999
0.99999
0.99999
0.99999
0.99999
0.99999
0.99999
0.99999
0.99999
0.99999
0.99999
0.99999
0.99999
0.99999
0.99999
0.99999
0.99999
0.99999
0.99999
0.99999
0.999989
0.999986
0.999981
0.999971
0.999959
0.999943
0.99994
0.999882
0.999822
0.999773
0.999716
0.876308
0.00354161
3.12873e-05
3.17011e-05
2.00312e-05
1.90562e-05
1.82665e-05
1.87384e-05
1.70805e-05
1.70703e-05
1.80554e-05
1.76526e-05
1.72948e-05
1.66598e-05
1.62281e-05
1.60263e-05
1.59634e-05
1.68101e-05
1.80429e-05
1.93207e-05
2.14531e-05
2.46196e-05
2.8144e-05
3.24055e-05
3.91944e-05
4.96277e-05
5.6212e-05
5.94611e-05
5.94245e-05
4.61e-05
3.02105e-05
1.62648e-05
9.72087e-06
3.78242e-06
1.41613e-06
8.60588e-07
9.98154e-07
0.999998
0.999998
0.999998
0.999998
0.999997
0.999995
0.999994
0.999992
0.999991
0.999991
0.99999
0.99999
0.99999
0.99999
0.99999
0.99999
0.99999
0.99999
0.99999
0.99999
0.99999
0.99999
0.99999
0.99999
0.99999
0.99999
0.99999
0.99999
0.99999
0.99999
0.99999
0.99999
0.99999
0.99999
0.99999
0.99999
0.99999
0.99999
0.99999
0.99999
0.99999
0.99999
0.99999
0.99999
0.99999
0.99999
0.99999
0.99999
0.999989
0.999986
0.999982
0.999972
0.999957
0.999941
0.999941
0.999915
0.999869
0.999798
0.999478
0.923185
0.0123314
3.19472e-07
1.17479e-06
6.57444e-07
1.03508e-06
1.52616e-06
2.02617e-06
1.12965e-06
6.2086e-07
6.20602e-07
6.28819e-07
6.44688e-07
6.61574e-07
6.70565e-07
6.66359e-07
6.4558e-07
6.11661e-07
5.92178e-07
5.84659e-07
5.74409e-07
5.54826e-07
5.33607e-07
5.36896e-07
5.92693e-07
6.0331e-07
7.64474e-07
7.58214e-07
5.79159e-07
7.274e-07
8.80127e-07
8.63924e-07
8.84575e-07
8.93437e-07
8.49412e-07
7.54947e-07
7.25554e-07
0.999998
0.999998
0.999998
0.999998
0.999996
0.999994
0.999992
0.999991
0.999991
0.99999
0.99999
0.99999
0.99999
0.99999
0.99999
0.99999
0.99999
0.99999
0.99999
0.99999
0.99999
0.99999
0.99999
0.99999
0.99999
0.99999
0.99999
0.99999
0.99999
0.99999
0.99999
0.99999
0.99999
0.99999
0.99999
0.99999
0.99999
0.99999
0.99999
0.99999
0.99999
0.99999
0.99999
0.99999
0.99999
0.99999
0.99999
0.99999
0.999989
0.999986
0.999982
0.999972
0.999957
0.999941
0.999936
0.999913
0.999895
0.999686
0.998783
0.933023
0.0141063
3.19472e-07
6.40329e-07
7.77087e-07
7.46788e-07
7.17865e-07
6.75736e-07
6.39106e-07
6.20211e-07
6.20939e-07
6.27854e-07
6.38543e-07
6.51134e-07
6.63695e-07
6.84486e-07
7.02954e-07
6.99737e-07
6.87909e-07
6.70293e-07
6.42341e-07
6.00512e-07
5.59277e-07
5.09908e-07
4.68e-07
4.36528e-07
4.11521e-07
3.69029e-07
3.51402e-07
6.04487e-07
7.41807e-07
7.28421e-07
6.97294e-07
6.938e-07
6.86035e-07
6.65464e-07
6.123e-07
0.999998
0.999997
0.999997
0.999997
0.999997
0.999994
0.999992
0.999991
0.999991
0.99999
0.99999
0.99999
0.99999
0.99999
0.99999
0.99999
0.99999
0.99999
0.99999
0.99999
0.99999
0.99999
0.99999
0.99999
0.99999
0.99999
0.99999
0.99999
0.99999
0.99999
0.99999
0.99999
0.99999
0.99999
0.99999
0.99999
0.99999
0.99999
0.99999
0.99999
0.99999
0.99999
0.99999
0.99999
0.99999
0.99999
0.99999
0.99999
0.999989
0.999986
0.999982
0.999972
0.999957
0.99994
0.999932
0.999911
0.999858
0.999547
0.997843
0.926426
0.0325046
3.19472e-07
3.41991e-07
4.19176e-07
4.11465e-07
4.01553e-07
3.92775e-07
3.84204e-07
3.762e-07
3.69469e-07
3.64726e-07
3.6688e-07
3.74415e-07
3.90294e-07
4.17474e-07
4.53544e-07
4.88328e-07
5.02095e-07
4.96874e-07
4.81312e-07
4.56141e-07
4.4361e-07
4.47032e-07
4.444e-07
4.30696e-07
4.13463e-07
3.71282e-07
3.38521e-07
5.23025e-07
6.72494e-07
6.99202e-07
6.77875e-07
6.48805e-07
6.18129e-07
5.74981e-07
5.05867e-07
0.999998
0.999998
0.999997
0.999997
0.999997
0.999994
0.999991
0.999991
0.99999
0.99999
0.99999
0.99999
0.99999
0.99999
0.99999
0.99999
0.99999
0.99999
0.99999
0.99999
0.99999
0.99999
0.99999
0.99999
0.99999
0.99999
0.99999
0.99999
0.99999
0.99999
0.99999
0.99999
0.99999
0.99999
0.99999
0.99999
0.99999
0.99999
0.99999
0.99999
0.99999
0.99999
0.99999
0.99999
0.99999
0.99999
0.99999
0.99999
0.999989
0.999986
0.999981
0.999972
0.999958
0.999941
0.999927
0.999905
0.999892
0.999579
0.998729
0.935787
0.028021
3.77598e-05
3.2011e-07
3.29983e-07
3.27539e-07
3.24889e-07
3.25153e-07
3.25778e-07
3.25757e-07
3.25625e-07
3.25653e-07
3.25938e-07
3.26655e-07
3.28048e-07
3.30885e-07
3.3588e-07
3.43164e-07
3.51189e-07
3.58743e-07
3.65474e-07
3.7141e-07
3.85513e-07
4.11562e-07
4.22509e-07
4.11976e-07
3.97193e-07
3.50185e-07
3.34515e-07