/*--------------------------------*- C++ -*----------------------------------*\
| =========                 |                                                 |
| \\      /  F ield         | OpenFOAM: The Open Source CFD Toolbox           |
|  \\    /   O peration     | Version:  2.3.0                                 |
|   \\  /    A nd           | Web:      www.OpenFOAM.org                      |
|    \\/     M anipulation  |                                                 |
\*---------------------------------------------------------------------------*/
FoamFile
{
    version     2.0;
    format      ascii;
    class       volScalarField;
    location    "39";
    object      alpha.air;
}
// * * * * * * * * * * * * * * * * * * * * * * * * * * * * * * * * * * * * * //

dimensions      [0 0 0 0 0 0 0];

internalField   nonuniform List<scalar> 
6144
(
0.999996
0.999996
0.999995
0.999994
0.999994
0.999993
0.999992
0.999991
0.99999
0.99999
0.99999
0.99999
0.99999
0.99999
0.99999
0.99999
0.99999
0.99999
0.99999
0.99999
0.99999
0.99999
0.99999
0.99999
0.99999
0.99999
0.99999
0.99999
0.99999
0.99999
0.99999
0.99999
0.99999
0.99999
0.99999
0.99999
0.99999
0.99999
0.99999
0.99999
0.99999
0.99999
0.99999
0.99999
0.999989
0.999986
0.999979
0.999967
0.999949
0.99993
0.999911
0.999892
0.999882
0.999877
0.999877
0.999878
0.999881
0.999875
0.999315
0.950766
0.0447783
0.000271222
7.68188e-07
5.01949e-07
5.0151e-07
5.00922e-07
5.00563e-07
5.00614e-07
5.0276e-07
5.07833e-07
5.13579e-07
5.19612e-07
5.3065e-07
5.39882e-07
5.36921e-07
5.28706e-07
5.19283e-07
5.16753e-07
5.132e-07
5.09953e-07
5.11593e-07
5.15732e-07
5.33628e-07
5.3529e-07
5.38853e-07
5.51551e-07
5.6832e-07
5.73201e-07
5.71515e-07
5.67472e-07
5.64299e-07
5.62627e-07
5.59123e-07
5.32284e-07
3.50149e-07
3.1577e-07
0.999996
0.999996
0.999995
0.999994
0.999993
0.999992
0.999992
0.999991
0.99999
0.99999
0.99999
0.99999
0.99999
0.99999
0.99999
0.99999
0.99999
0.99999
0.99999
0.99999
0.99999
0.99999
0.99999
0.99999
0.99999
0.99999
0.99999
0.99999
0.99999
0.99999
0.99999
0.99999
0.99999
0.99999
0.99999
0.99999
0.99999
0.99999
0.99999
0.99999
0.99999
0.99999
0.99999
0.99999
0.999989
0.999987
0.999982
0.999974
0.999964
0.999945
0.999906
0.999875
0.999867
0.999867
0.999868
0.999869
0.999874
0.999871
0.999515
0.960663
0.0543349
0.000381502
1.06865e-06
4.97501e-07
4.97504e-07
4.97507e-07
4.9751e-07
5.0029e-07
5.12955e-07
5.47607e-07
5.78595e-07
5.95578e-07
6.11571e-07
5.95679e-07
5.77789e-07
5.513e-07
5.1387e-07
4.99957e-07
5.01268e-07
5.05281e-07
5.11462e-07
5.23995e-07
5.44087e-07
5.43385e-07
5.4542e-07
5.55166e-07
5.64249e-07
5.70178e-07
5.70133e-07
5.7156e-07
5.73851e-07
5.71926e-07
5.62306e-07
5.43337e-07
4.51664e-07
4.09222e-07
0.999997
0.999996
0.999995
0.999994
0.999993
0.999992
0.999992
0.999991
0.999991
0.99999
0.99999
0.99999
0.99999
0.99999
0.99999
0.99999
0.99999
0.99999
0.99999
0.99999
0.99999
0.99999
0.99999
0.99999
0.99999
0.99999
0.99999
0.99999
0.99999
0.99999
0.99999
0.99999
0.99999
0.99999
0.99999
0.99999
0.99999
0.99999
0.99999
0.99999
0.99999
0.99999
0.99999
0.99999
0.999989
0.999988
0.999985
0.999981
0.999972
0.99993
0.99988
0.999863
0.999863
0.999864
0.999866
0.999866
0.999869
0.999866
0.999471
0.958505
0.0545545
0.000362686
9.93167e-07
4.97504e-07
4.97507e-07
5.78722e-07
6.05795e-07
5.56201e-07
6.2584e-07
6.88902e-07
7.08974e-07
7.00931e-07
6.30313e-07
6.00036e-07
6.01405e-07
6.09282e-07
5.85445e-07
5.41684e-07
5.21916e-07
5.24779e-07
5.31398e-07
5.43161e-07
5.58119e-07
5.56851e-07
5.61525e-07
5.72166e-07
5.7945e-07
5.88515e-07
5.86024e-07
5.8505e-07
5.82809e-07
5.78997e-07
5.71555e-07
5.60805e-07
5.20031e-07
4.6652e-07
0.999997
0.999996
0.999995
0.999994
0.999993
0.999992
0.999992
0.999991
0.999991
0.99999
0.99999
0.99999
0.99999
0.99999
0.99999
0.99999
0.99999
0.99999
0.99999
0.99999
0.99999
0.99999
0.99999
0.99999
0.99999
0.99999
0.99999
0.99999
0.99999
0.99999
0.99999
0.99999
0.99999
0.99999
0.99999
0.99999
0.99999
0.99999
0.99999
0.99999
0.99999
0.99999
0.99999
0.99999
0.999989
0.999988
0.999986
0.999983
0.999971
0.9999
0.999864
0.999861
0.999862
0.999866
0.99987
0.999868
0.999871
0.999864
0.999713
0.926857
0.0175612
4.2854e-05
6.83534e-06
5.74803e-06
5.20208e-06
5.04952e-06
4.57075e-06
2.73363e-06
1.68245e-06
1.10094e-06
9.7259e-07
9.63129e-07
6.04913e-07
5.24919e-07
5.21217e-07
5.21236e-07
5.21277e-07
5.21315e-07
5.21351e-07
5.21389e-07
5.21428e-07
5.21473e-07
5.21519e-07
5.21565e-07
5.21613e-07
5.85012e-07
7.14675e-07
8.64114e-07
8.19279e-07
7.61741e-07
7.08857e-07
6.7357e-07
6.60515e-07
6.44845e-07
6.16296e-07
5.34893e-07
0.999997
0.999997
0.999996
0.999995
0.999994
0.999993
0.999992
0.999991
0.999991
0.99999
0.99999
0.99999
0.99999
0.99999
0.99999
0.99999
0.99999
0.99999
0.99999
0.99999
0.99999
0.99999
0.99999
0.99999
0.99999
0.99999
0.99999
0.99999
0.99999
0.99999
0.99999
0.99999
0.99999
0.99999
0.99999
0.99999
0.99999
0.99999
0.99999
0.99999
0.99999
0.99999
0.99999
0.99999
0.999989
0.999988
0.999986
0.999983
0.999963
0.999877
0.99986
0.999861
0.999867
0.999873
0.999877
0.999875
0.999874
0.999862
0.999886
0.888056
0.00583572
0.000323914
0.00030763
0.0003045
0.000309227
0.000302288
0.000285663
0.000236442
0.000174827
0.000115694
6.93449e-05
3.90111e-05
2.20285e-05
1.29347e-05
8.43878e-06
6.68617e-06
6.30593e-06
6.27635e-06
6.55816e-06
7.62977e-06
9.53008e-06
1.29181e-05
1.60722e-05
1.74986e-05
1.43094e-05
9.03216e-06
5.11899e-06
2.05393e-06
8.11427e-07
5.82455e-07
4.85945e-07
4.85912e-07
4.7656e-07
5.50288e-07
6.05715e-07
5.35948e-07
0.999997
0.999997
0.999996
0.999995
0.999994
0.999993
0.999992
0.999991
0.999991
0.99999
0.99999
0.99999
0.99999
0.99999
0.99999
0.99999
0.99999
0.99999
0.99999
0.99999
0.99999
0.99999
0.99999
0.99999
0.99999
0.99999
0.99999
0.99999
0.99999
0.99999
0.99999
0.99999
0.99999
0.99999
0.99999
0.99999
0.99999
0.99999
0.99999
0.99999
0.99999
0.99999
0.99999
0.99999
0.999989
0.999988
0.999986
0.999982
0.999957
0.999872
0.99986
0.999865
0.999871
0.999875
0.999877
0.99988
0.999883
0.99987
0.999886
0.821159
0.0105086
0.0031047
0.00328071
0.00332583
0.00336172
0.00332422
0.00324341
0.00299106
0.00259916
0.00207122
0.00156757
0.00113132
0.000805164
0.000589601
0.0004648
0.000402993
0.000379544
0.000379261
0.00043015
0.000494344
0.000587705
0.000697598
0.000807886
0.000886261
0.000898801
0.000729281
0.000573099
0.000353076
0.000155812
4.50848e-05
6.73873e-06
1.00397e-06
2.56268e-07
2.56268e-07
3.74104e-07
4.89511e-07
0.999997
0.999997
0.999996
0.999996
0.999994
0.999994
0.999993
0.999991
0.999991
0.999991
0.99999
0.99999
0.99999
0.99999
0.99999
0.99999
0.99999
0.99999
0.99999
0.99999
0.99999
0.99999
0.99999
0.99999
0.99999
0.99999
0.99999
0.99999
0.99999
0.99999
0.99999
0.99999
0.99999
0.99999
0.99999
0.99999
0.99999
0.99999
0.99999
0.99999
0.99999
0.99999
0.99999
0.99999
0.999989
0.999988
0.999985
0.99998
0.999974
0.999893
0.999864
0.999869
0.999875
0.99988
0.999882
0.999882
0.999883
0.999882
0.999886
0.747026
0.0191508
0.0105623
0.0116045
0.0118488
0.0119515
0.0117763
0.0114568
0.0110577
0.0103296
0.00948328
0.00846064
0.00736069
0.00627479
0.00530659
0.00459473
0.00422491
0.00402731
0.00398057
0.00426416
0.00473121
0.00549717
0.0064034
0.00732897
0.00806829
0.00842402
0.00837031
0.0077902
0.00680861
0.00507902
0.00324698
0.00160947
0.000637118
0.000183042
8.92216e-05
1.60821e-05
8.84998e-07
0.999996
0.999996
0.999996
0.999996
0.999995
0.999994
0.999993
0.999992
0.999991
0.999991
0.99999
0.99999
0.99999
0.99999
0.99999
0.99999
0.99999
0.99999
0.99999
0.99999
0.99999
0.99999
0.99999
0.99999
0.99999
0.99999
0.99999
0.99999
0.99999
0.99999
0.99999
0.99999
0.99999
0.99999
0.99999
0.99999
0.99999
0.99999
0.99999
0.99999
0.99999
0.99999
0.99999
0.99999
0.999989
0.999987
0.999984
0.999976
0.99997
0.999926
0.999876
0.999867
0.999869
0.999879
0.999882
0.999883
0.999883
0.999882
0.999886
0.770896
0.030208
0.016401
0.0174988
0.0177316
0.0177079
0.0176204
0.0175256
0.0174885
0.017469
0.0175284
0.0175435
0.0175836
0.0175934
0.0173179
0.016855
0.0163332
0.0159241
0.0158033
0.0165081
0.0173415
0.0182099
0.0189867
0.0196998
0.0203693
0.0209333
0.0213037
0.0206797
0.0202026
0.019641
0.0187466
0.0170873
0.0139768
0.00934041
0.0042113
0.00102051
0.000704031
0.999997
0.999996
0.999996
0.999996
0.999995
0.999994
0.999993
0.999992
0.999991
0.999991
0.99999
0.99999
0.99999
0.99999
0.99999
0.99999
0.99999
0.99999
0.99999
0.99999
0.99999
0.99999
0.99999
0.99999
0.99999
0.99999
0.99999
0.99999
0.99999
0.99999
0.99999
0.99999
0.99999
0.99999
0.99999
0.99999
0.99999
0.99999
0.99999
0.99999
0.99999
0.99999
0.99999
0.99999
0.999989
0.999987
0.999984
0.999976
0.999967
0.999943
0.999889
0.999865
0.999869
0.999879
0.99988
0.999878
0.999873
0.999872
0.999886
0.805068
0.024601
0.0106485
0.0102682
0.00946383
0.00907572
0.00897456
0.00946574
0.00993256
0.0105757
0.0112061
0.0118471
0.0124341
0.0130057
0.0134823
0.0137706
0.0138052
0.013204
0.0127091
0.0120695
0.0112925
0.0103394
0.00913287
0.00777503
0.00640153
0.00537945
0.00493764
0.00500584
0.00516475
0.00535553
0.00564816
0.00572876
0.00486546
0.0037077
0.00239342
0.00128352
0.000654748
0.999997
0.999997
0.999996
0.999996
0.999995
0.999994
0.999993
0.999992
0.999991
0.999991
0.99999
0.99999
0.99999
0.99999
0.99999
0.99999
0.99999
0.99999
0.99999
0.99999
0.99999
0.99999
0.99999
0.99999
0.99999
0.99999
0.99999
0.99999
0.99999
0.99999
0.99999
0.99999
0.99999
0.99999
0.99999
0.99999
0.99999
0.99999
0.99999
0.99999
0.99999
0.99999
0.99999
0.99999
0.999989
0.999986
0.999982
0.999973
0.999962
0.999947
0.9999
0.999866
0.99987
0.999878
0.999879
0.999876
0.999867
0.999859
0.999886
0.876657
0.0147454
0.00258751
0.00217197
0.00158493
0.00138708
0.00128717
0.00141017
0.00154856
0.00174065
0.0019344
0.00219532
0.00249688
0.00284436
0.00311661
0.00326371
0.00329195
0.00309471
0.00268902
0.00214421
0.00158751
0.00111202
0.000723991
0.000443548
0.00028783
0.000244526
0.00026258
0.000284192
0.00031575
0.000351144
0.000377871
0.000390024
0.00039479
0.0003624
0.000295461
0.000159675
7.96392e-05
0.999997
0.999997
0.999997
0.999996
0.999995
0.999994
0.999992
0.999992
0.999991
0.999991
0.99999
0.99999
0.99999
0.99999
0.99999
0.99999
0.99999
0.99999
0.99999
0.99999
0.99999
0.99999
0.99999
0.99999
0.99999
0.99999
0.99999
0.99999
0.99999
0.99999
0.99999
0.99999
0.99999
0.99999
0.99999
0.99999
0.99999
0.99999
0.99999
0.99999
0.99999
0.99999
0.99999
0.999989
0.999988
0.999984
0.999978
0.999966
0.999955
0.999944
0.999913
0.999871
0.999868
0.999877
0.999879
0.999872
0.999878
0.999877
0.999886
0.94774
0.0137234
0.000143637
0.000101008
5.34932e-05
4.0984e-05
3.05154e-05
2.91857e-05
3.57692e-05
4.24342e-05
4.74609e-05
5.43395e-05
6.22142e-05
7.13874e-05
7.85433e-05
7.99063e-05
6.84156e-05
6.01723e-05
4.17644e-05
2.32319e-05
9.35763e-06
3.46447e-06
1.9598e-06
2.9775e-06
6.25641e-06
5.31137e-06
3.56259e-06
3.35879e-06
3.73987e-06
4.52525e-06
4.80979e-06
4.80668e-06
4.69559e-06
4.33937e-06
3.38422e-06
1.86538e-06
9.70851e-07
0.999998
0.999997
0.999997
0.999997
0.999996
0.999994
0.999993
0.999992
0.999991
0.999991
0.99999
0.99999
0.99999
0.99999
0.99999
0.99999
0.99999
0.99999
0.99999
0.99999
0.99999
0.99999
0.99999
0.99999
0.99999
0.99999
0.99999
0.99999
0.99999
0.99999
0.99999
0.99999
0.99999
0.99999
0.99999
0.99999
0.99999
0.99999
0.99999
0.99999
0.99999
0.99999
0.99999
0.999989
0.999986
0.999982
0.999973
0.999961
0.999948
0.999935
0.999919
0.999885
0.999868
0.999871
0.999874
0.99987
0.999872
0.999868
0.999886
0.971071
0.0262391
1.16472e-06
8.91691e-07
1.00384e-06
8.6963e-07
7.27217e-07
6.53297e-07
5.90657e-07
5.90656e-07
5.90656e-07
5.90655e-07
5.90655e-07
5.90655e-07
5.90654e-07
5.90654e-07
6.338e-07
8.07986e-07
7.02641e-07
6.15587e-07
6.15587e-07
6.32836e-07
6.6177e-07
6.27784e-07
6.11301e-07
5.95999e-07
5.82421e-07
5.73618e-07
5.64921e-07
5.43095e-07
5.28896e-07
5.41909e-07
5.22138e-07
4.06218e-07
3.00842e-07
2.72816e-07
2.73001e-07
0.999998
0.999997
0.999997
0.999997
0.999996
0.999995
0.999993
0.999991
0.999991
0.99999
0.99999
0.99999
0.99999
0.99999
0.99999
0.99999
0.99999
0.99999
0.99999
0.99999
0.99999
0.99999
0.99999
0.99999
0.99999
0.99999
0.99999
0.99999
0.99999
0.99999
0.99999
0.99999
0.99999
0.99999
0.99999
0.99999
0.99999
0.99999
0.99999
0.99999
0.99999
0.99999
0.99999
0.999989
0.999986
0.999979
0.99997
0.999957
0.999943
0.999929
0.999919
0.999901
0.999875
0.999869
0.99987
0.999865
0.999868
0.999866
0.999883
0.980468
0.0330626
6.26973e-07
7.31481e-07
7.44344e-07
6.75956e-07
6.57613e-07
6.17647e-07
5.95835e-07
5.98289e-07
6.00657e-07
5.99039e-07
5.99574e-07
6.08648e-07
6.27192e-07
6.43089e-07
6.46662e-07
6.52656e-07
6.52653e-07
6.61113e-07
6.93298e-07
6.77899e-07
6.54336e-07
6.36989e-07
6.21508e-07
5.96019e-07
5.75375e-07
5.77616e-07
5.81095e-07
5.5818e-07
5.30381e-07
5.38201e-07
5.49724e-07
5.04271e-07
3.79626e-07
3.07506e-07
3.27245e-07
0.999998
0.999997
0.999997
0.999997
0.999997
0.999996
0.999994
0.999992
0.999991
0.99999
0.99999
0.99999
0.99999
0.99999
0.99999
0.99999
0.99999
0.99999
0.99999
0.99999
0.99999
0.99999
0.99999
0.99999
0.99999
0.99999
0.99999
0.99999
0.99999
0.99999
0.99999
0.99999
0.99999
0.99999
0.99999
0.99999
0.99999
0.99999
0.99999
0.99999
0.99999
0.99999
0.99999
0.999989
0.999985
0.999978
0.999969
0.999958
0.999944
0.99993
0.999919
0.999911
0.999888
0.999873
0.999871
0.999867
0.999869
0.999865
0.999808
0.970532
0.0405854
4.52487e-06
6.99177e-07
7.73006e-07
6.93504e-07
6.8924e-07
6.7433e-07
6.66664e-07
6.50945e-07
6.49339e-07
6.54959e-07
6.48913e-07
6.59832e-07
6.71621e-07
6.71955e-07
6.70555e-07
6.61644e-07
6.56878e-07
6.56218e-07
6.50082e-07
6.4541e-07
6.48552e-07
6.4703e-07
6.45427e-07
6.37798e-07
6.13412e-07
6.07217e-07
6.15643e-07
5.98563e-07
5.7841e-07
5.72298e-07
5.76027e-07
5.7095e-07
5.3516e-07
4.66554e-07
4.18338e-07
0.999998
0.999997
0.999997
0.999997
0.999997
0.999996
0.999994
0.999992
0.999991
0.99999
0.99999
0.99999
0.99999
0.99999
0.99999
0.99999
0.99999
0.99999
0.99999
0.99999
0.99999
0.99999
0.99999
0.99999
0.99999
0.99999
0.99999
0.99999
0.99999
0.99999
0.99999
0.99999
0.99999
0.99999
0.99999
0.99999
0.99999
0.99999
0.99999
0.99999
0.99999
0.99999
0.99999
0.999989
0.999985
0.999978
0.999969
0.99996
0.999949
0.999936
0.999918
0.999908
0.999897
0.999881
0.999877
0.999872
0.999874
0.999869
0.999477
0.962124
0.0474924
0.000165193
7.88158e-07
6.61392e-07
6.43053e-07
6.49409e-07
6.48969e-07
6.46689e-07
6.45732e-07
6.54706e-07
6.9252e-07
7.02706e-07
6.8416e-07
6.74904e-07
6.70952e-07
6.634e-07
6.54399e-07
6.47663e-07
6.41435e-07
6.34793e-07
6.35085e-07
6.36017e-07
6.34833e-07
6.31155e-07
6.31354e-07
6.39443e-07
6.37268e-07
6.24189e-07
6.22525e-07
6.19607e-07
6.12445e-07
6.1156e-07
6.13358e-07
6.11173e-07
5.85132e-07
4.93582e-07
0.999998
0.999998
0.999998
0.999996
0.999996
0.999996
0.999995
0.999992
0.999991
0.99999
0.99999
0.99999
0.99999
0.99999
0.99999
0.99999
0.99999
0.99999
0.99999
0.99999
0.99999
0.99999
0.99999
0.99999
0.99999
0.99999
0.99999
0.99999
0.99999
0.99999
0.99999
0.99999
0.99999
0.99999
0.99999
0.99999
0.99999
0.99999
0.99999
0.99999
0.99999
0.99999
0.99999
0.999989
0.999984
0.999976
0.999968
0.999962
0.999955
0.999946
0.999919
0.999904
0.9999
0.99989
0.999886
0.999881
0.999883
0.999873
0.998921
0.941459
0.0608286
0.000611563
2.08593e-06
6.27071e-07
6.29319e-07
6.30607e-07
6.30846e-07
6.3126e-07
6.3198e-07
6.33157e-07
6.346e-07
6.39696e-07
6.48851e-07
6.57616e-07
6.7229e-07
6.81704e-07
6.78336e-07
6.6835e-07
6.59139e-07
6.50664e-07
6.45632e-07
6.45767e-07
6.45787e-07
6.43201e-07
6.37828e-07
6.37358e-07
6.36913e-07
6.34438e-07
6.3527e-07
6.38185e-07
6.38313e-07
6.37693e-07
6.36655e-07
6.37149e-07
6.29318e-07
5.44431e-07
0.999997
0.999996
0.999995
0.999994
0.999994
0.999992
0.999992
0.999991
0.99999
0.99999
0.99999
0.99999
0.99999
0.99999
0.99999
0.99999
0.99999
0.99999
0.99999
0.99999
0.99999
0.99999
0.99999
0.99999
0.99999
0.99999
0.99999
0.99999
0.99999
0.99999
0.99999
0.99999
0.99999
0.99999
0.99999
0.99999
0.99999
0.99999
0.99999
0.99999
0.99999
0.99999
0.99999
0.99999
0.999989
0.999986
0.999979
0.999967
0.99995
0.999931
0.999913
0.999892
0.999884
0.999881
0.999881
0.99988
0.999883
0.999853
0.999501
0.955296
0.0543563
0.000125269
4.97655e-07
5.08451e-07
5.06126e-07
5.01713e-07
5.0216e-07
5.01637e-07
5.0157e-07
5.01955e-07
5.02467e-07
5.04011e-07
5.07068e-07
5.1068e-07
5.11379e-07
5.10384e-07
5.07443e-07
5.04224e-07
5.00388e-07
5.00576e-07
5.08494e-07
5.35098e-07
5.57325e-07
5.41526e-07
5.33221e-07
5.3506e-07
5.37529e-07
5.37761e-07
5.38393e-07
5.44939e-07
5.47677e-07
5.41737e-07
5.33837e-07
4.56957e-07
2.89901e-07
3.11197e-07
0.999997
0.999996
0.999994
0.999994
0.999993
0.999992
0.999991
0.999991
0.999991
0.99999
0.99999
0.99999
0.99999
0.99999
0.99999
0.99999
0.99999
0.99999
0.99999
0.99999
0.99999
0.99999
0.99999
0.99999
0.99999
0.99999
0.99999
0.99999
0.99999
0.99999
0.99999
0.99999
0.99999
0.99999
0.99999
0.99999
0.99999
0.99999
0.99999
0.99999
0.99999
0.99999
0.99999
0.99999
0.999989
0.999987
0.999983
0.999976
0.999964
0.999949
0.999904
0.999878
0.999877
0.999877
0.999879
0.99988
0.999878
0.999834
0.999679
0.931554
0.0265344
2.47031e-05
4.97653e-07
5.04996e-07
5.02907e-07
4.99388e-07
4.99524e-07
5.09417e-07
5.31974e-07
5.30804e-07
5.31344e-07
5.28736e-07
5.31323e-07
5.31366e-07
5.25694e-07
5.26287e-07
5.22268e-07
5.04974e-07
5.00357e-07
5.02151e-07
5.15812e-07
5.50035e-07
5.64383e-07
5.3867e-07
5.29579e-07
5.29617e-07
5.41752e-07
5.66154e-07
5.8989e-07
6.08367e-07
6.11519e-07
5.82558e-07
5.14741e-07
4.67087e-07
3.8048e-07
4.1248e-07
0.999998
0.999996
0.999994
0.999993
0.999993
0.999992
0.999992
0.999991
0.999991
0.999991
0.99999
0.99999
0.99999
0.99999
0.99999
0.99999
0.99999
0.99999
0.99999
0.99999
0.99999
0.99999
0.99999
0.99999
0.99999
0.99999
0.99999
0.99999
0.99999
0.99999
0.99999
0.99999
0.99999
0.99999
0.99999
0.99999
0.99999
0.99999
0.99999
0.99999
0.99999
0.99999
0.99999
0.99999
0.999989
0.999988
0.999986
0.999981
0.999973
0.999929
0.999874
0.99987
0.999872
0.999871
0.999873
0.999876
0.999879
0.999827
0.999632
0.933759
0.0280471
3.18021e-06
1.06629e-06
6.72608e-07
6.4216e-07
6.50782e-07
1.23406e-06
1.34121e-06
8.12756e-07
6.83619e-07
7.55643e-07
6.38674e-07
6.41667e-07
6.58376e-07
6.58154e-07
6.54294e-07
6.42749e-07
6.08715e-07
5.43484e-07
5.19966e-07
5.34583e-07
5.67838e-07
5.67867e-07
5.52299e-07
5.8654e-07
6.17889e-07
6.57296e-07
6.8201e-07
7.09482e-07
6.95937e-07
6.5508e-07
6.12467e-07
5.90444e-07
5.58953e-07
5.10022e-07
4.72969e-07
0.999998
0.999997
0.999995
0.999994
0.999994
0.999993
0.999992
0.999991
0.999991
0.999991
0.99999
0.99999
0.99999
0.99999
0.99999
0.99999
0.99999
0.99999
0.99999
0.99999
0.99999
0.99999
0.99999
0.99999
0.99999
0.99999
0.99999
0.99999
0.99999
0.99999
0.99999
0.99999
0.99999
0.99999
0.99999
0.99999
0.99999
0.99999
0.99999
0.99999
0.99999
0.99999
0.99999
0.99999
0.999989
0.999987
0.999984
0.99998
0.999972
0.999888
0.999863
0.999867
0.999869
0.999868
0.999869
0.99987
0.999878
0.999815
0.999708
0.835416
0.00455794
0.000100802
9.22775e-05
8.5358e-05
8.97782e-05
7.40113e-05
6.21551e-05
4.27052e-05
2.62845e-05
1.26601e-05
5.61997e-06
2.21094e-06
1.04516e-06
7.86702e-07
8.53756e-07
5.61209e-07
6.15675e-07
5.9145e-07
6.98159e-07
1.15768e-06
8.99691e-07
5.62172e-07
6.73244e-07
9.51889e-07
9.31056e-07
9.48392e-07
9.70114e-07
9.92159e-07
9.27742e-07
8.19619e-07
7.62873e-07
7.34877e-07
7.10407e-07
6.87341e-07
6.5365e-07
5.6087e-07
0.999998
0.999998
0.999996
0.999995
0.999994
0.999993
0.999992
0.999992
0.999991
0.999991
0.99999
0.99999
0.99999
0.99999
0.99999
0.99999
0.99999
0.99999
0.99999
0.99999
0.99999
0.99999
0.99999
0.99999
0.99999
0.99999
0.99999
0.99999
0.99999
0.99999
0.99999
0.99999
0.99999
0.99999
0.99999
0.99999
0.99999
0.99999
0.99999
0.99999
0.99999
0.99999
0.99999
0.99999
0.999988
0.999986
0.999981
0.999974
0.999951
0.999866
0.999861
0.999862
0.999864
0.999872
0.999876
0.999867
0.999857
0.999825
0.999858
0.693435
0.00417073
0.00234212
0.00235095
0.00236827
0.00239305
0.00213437
0.00189229
0.00154794
0.00118
0.000824878
0.000548437
0.00034692
0.000221705
0.000148935
0.000108705
8.85559e-05
8.06809e-05
7.66272e-05
7.15552e-05
6.85555e-05
6.71117e-05
7.72221e-05
9.26259e-05
9.13519e-05
4.92238e-05
2.68991e-05
1.26838e-05
4.70686e-06
1.22142e-06
4.85985e-07
4.85977e-07
4.99023e-07
5.58494e-07
6.36729e-07
6.42004e-07
5.61982e-07
0.999998
0.999998
0.999997
0.999995
0.999994
0.999994
0.999993
0.999992
0.999991
0.999991
0.99999
0.99999
0.99999
0.99999
0.99999
0.99999
0.99999
0.99999
0.99999
0.99999
0.99999
0.99999
0.99999
0.99999
0.99999
0.99999
0.99999
0.99999
0.99999
0.99999
0.99999
0.99999
0.99999
0.99999
0.99999
0.99999
0.99999
0.99999
0.99999
0.99999
0.99999
0.99999
0.99999
0.99999
0.999988
0.999984
0.999978
0.999969
0.999942
0.999864
0.999859
0.999855
0.999851
0.99985
0.999851
0.99985
0.999849
0.999855
0.999886
0.64699
0.015048
0.010787
0.011761
0.0121026
0.0122612
0.0119848
0.0113748
0.0105543
0.00931231
0.00793109
0.00654284
0.00529742
0.0043442
0.00364266
0.0031194
0.00272404
0.00246271
0.00232711
0.00227451
0.00226763
0.00250594
0.00291338
0.00330044
0.00347705
0.00323787
0.00265971
0.00176139
0.00097548
0.000393403
8.381e-05
2.45448e-06
3.12159e-07
3.12609e-07
4.1204e-07
4.9946e-07
4.59515e-07
0.999998
0.999998
0.999997
0.999996
0.999995
0.999994
0.999993
0.999992
0.999991
0.999991
0.99999
0.99999
0.99999
0.99999
0.99999
0.99999
0.99999
0.99999
0.99999
0.99999
0.99999
0.99999
0.99999
0.99999
0.99999
0.99999
0.99999
0.99999
0.99999
0.99999
0.99999
0.99999
0.99999
0.99999
0.99999
0.99999
0.99999
0.99999
0.99999
0.99999
0.99999
0.99999
0.99999
0.999989
0.999987
0.999983
0.999976
0.999966
0.999959
0.999892
0.999871
0.999871
0.999869
0.999869
0.999871
0.999872
0.999872
0.999871
0.999886
0.535116
0.0230241
0.0197599
0.0206344
0.0210539
0.0212378
0.0217301
0.022137
0.0223776
0.0224312
0.02206
0.0212785
0.0202463
0.0191225
0.0180729
0.0173062
0.016862
0.0167273
0.017091
0.0177333
0.0186921
0.0196719
0.0212782
0.0235539
0.0261682
0.0289184
0.0307007
0.0275173
0.0219075
0.0158762
0.00957183
0.00428146
0.00208794
0.00260917
0.0036558
0.00484819
0.00590399
0.999998
0.999998
0.999998
0.999997
0.999995
0.999994
0.999993
0.999992
0.999991
0.999991
0.99999
0.99999
0.99999
0.99999
0.99999
0.99999
0.99999
0.99999
0.99999
0.99999
0.99999
0.99999
0.99999
0.99999
0.99999
0.99999
0.99999
0.99999
0.99999
0.99999
0.99999
0.99999
0.99999
0.99999
0.99999
0.99999
0.99999
0.99999
0.99999
0.99999
0.99999
0.99999
0.99999
0.999989
0.999987
0.999982
0.999975
0.999965
0.999952
0.999933
0.99988
0.999877
0.99988
0.999882
0.999882
0.999882
0.999882
0.99988
0.999886
0.706233
0.0304021
0.0199445
0.0201131
0.0201964
0.020928
0.0224143
0.0236689
0.0246963
0.025466
0.0268719
0.0285081
0.0303879
0.0326232
0.0349938
0.0372488
0.0392902
0.0413235
0.0430229
0.0443854
0.0454608
0.0478977
0.0508407
0.0537264
0.0568906
0.0596364
0.0624684
0.0665376
0.0726121
0.0796075
0.0872354
0.0976396
0.111264
0.126959
0.149751
0.204403
0.396876
0.999998
0.999998
0.999998
0.999998
0.999996
0.999994
0.999993
0.999992
0.999991
0.999991
0.99999
0.99999
0.99999
0.99999
0.99999
0.99999
0.99999
0.99999
0.99999
0.99999
0.99999
0.99999
0.99999
0.99999
0.99999
0.99999
0.99999
0.99999
0.99999
0.99999
0.99999
0.99999
0.99999
0.99999
0.99999
0.99999
0.99999
0.99999
0.99999
0.99999
0.99999
0.99999
0.99999
0.999989
0.999986
0.999981
0.999974
0.999964
0.99995
0.999941
0.999901
0.999876
0.999875
0.99988
0.999882
0.999879
0.999881
0.99988
0.999886
0.828142
0.0271919
0.0103256
0.00951616
0.00783127
0.00693955
0.0058577
0.00473596
0.00418442
0.00443321
0.00464615
0.00501602
0.00543063
0.00603817
0.00662013
0.00685846
0.0069919
0.00702496
0.00693856
0.0067402
0.00654498
0.00622045
0.00609087
0.00680686
0.00776828
0.00972313
0.0126037
0.0165113
0.0213692
0.0264006
0.0304704
0.0349128
0.0377602
0.0406528
0.0425478
0.0422268
0.0342068
0.999998
0.999998
0.999998
0.999998
0.999997
0.999995
0.999993
0.999992
0.999991
0.999991
0.99999
0.99999
0.99999
0.99999
0.99999
0.99999
0.99999
0.99999
0.99999
0.99999
0.99999
0.99999
0.99999
0.99999
0.99999
0.99999
0.99999
0.99999
0.99999
0.99999
0.99999
0.99999
0.99999
0.99999
0.99999
0.99999
0.99999
0.99999
0.99999
0.99999
0.99999
0.99999
0.99999
0.999989
0.999986
0.99998
0.999973
0.999965
0.999951
0.999937
0.999916
0.99988
0.99987
0.999878
0.999882
0.999875
0.999878
0.999874
0.999886
0.884415
0.0169293
0.00209132
0.00171733
0.0010869
0.00087319
0.00063098
0.000545299
0.000520853
0.000576425
0.000653498
0.000750656
0.000846964
0.000922624
0.00095645
0.000851851
0.000739791
0.000626463
0.000515597
0.000416171
0.000335491
0.000291977
0.000276037
0.000282129
0.000355215
0.000442127
0.000515781
0.000560906
0.000586617
0.000581198
0.000547542
0.000515605
0.000548374
0.00046665
0.000278027
0.000169908
5.2875e-05
0.999998
0.999998
0.999999
0.999998
0.999997
0.999996
0.999993
0.999992
0.999991
0.999991
0.99999
0.99999
0.99999
0.99999
0.99999
0.99999
0.99999
0.99999
0.99999
0.99999
0.99999
0.99999
0.99999
0.99999
0.99999
0.99999
0.99999
0.99999
0.99999
0.99999
0.99999
0.99999
0.99999
0.99999
0.99999
0.99999
0.99999
0.99999
0.99999
0.99999
0.99999
0.99999
0.99999
0.999989
0.999985
0.999979
0.99997
0.999961
0.99995
0.999935
0.999925
0.999889
0.99987
0.999873
0.999876
0.999872
0.999872
0.999866
0.999859
0.950002
0.0141004
9.99268e-05
9.94965e-05
4.39626e-05
3.41681e-05
1.62087e-05
1.04791e-05
8.05596e-06
9.18452e-06
1.03564e-05
1.18866e-05
1.36303e-05
1.52635e-05
1.58005e-05
1.3355e-05
1.02878e-05
6.12787e-06
3.05843e-06
1.57176e-06
9.95076e-07
2.26789e-06
2.60202e-06
1.59392e-06
1.36892e-06
1.73651e-06
2.13393e-06
1.77006e-06
1.13675e-06
8.59795e-07
1.2934e-06
1.82355e-06
1.05205e-06
7.34346e-07
6.70374e-07
6.72401e-07
4.24539e-07
0.999998
0.999998
0.999999
0.999998
0.999998
0.999996
0.999994
0.999992
0.999991
0.999991
0.99999
0.99999
0.99999
0.99999
0.99999
0.99999
0.99999
0.99999
0.99999
0.99999
0.99999
0.99999
0.99999
0.99999
0.99999
0.99999
0.99999
0.99999
0.99999
0.99999
0.99999
0.99999
0.99999
0.99999
0.99999
0.99999
0.99999
0.99999
0.99999
0.99999
0.99999
0.99999
0.99999
0.999989
0.999985
0.999978
0.999969
0.99996
0.99995
0.999935
0.999921
0.999909
0.999877
0.999871
0.999872
0.999862
0.999855
0.999853
0.999769
0.977549
0.0248689
6.26979e-07
3.33428e-06
7.89384e-07
1.19741e-06
6.82256e-07
6.81198e-07
6.75416e-07
6.77215e-07
6.67247e-07
6.42213e-07
6.05235e-07
5.90656e-07
6.03386e-07
6.37047e-07
6.67386e-07
7.21996e-07
7.02361e-07
7.13745e-07
7.00371e-07
6.59982e-07
6.31548e-07
6.27719e-07
6.32912e-07
6.41332e-07
6.45742e-07
6.39546e-07
6.33916e-07
6.03964e-07
5.40714e-07
5.40473e-07
5.44532e-07
5.00031e-07
3.93107e-07
3.0523e-07
3.20882e-07
0.999998
0.999998
0.999999
0.999999
0.999998
0.999997
0.999995
0.999992
0.999991
0.99999
0.99999
0.99999
0.99999
0.99999
0.99999
0.99999
0.99999
0.99999
0.99999
0.99999
0.99999
0.99999
0.99999
0.99999
0.99999
0.99999
0.99999
0.99999
0.99999
0.99999
0.99999
0.99999
0.99999
0.99999
0.99999
0.99999
0.99999
0.99999
0.99999
0.99999
0.99999
0.99999
0.99999
0.999989
0.999984
0.999976
0.999968
0.999958
0.999949
0.999937
0.999925
0.999912
0.999892
0.999881
0.999872
0.999835
0.99984
0.999842
0.999657
0.981045
0.0336513
2.78319e-06
9.31127e-07
7.96713e-07
8.41193e-07
7.32107e-07
6.77368e-07
6.53866e-07
6.53477e-07
6.60553e-07
6.67684e-07
6.72769e-07
6.78462e-07
6.76642e-07
6.7439e-07
6.67229e-07
6.58185e-07
6.4754e-07
6.49684e-07
6.59088e-07
6.55006e-07
6.47591e-07
6.41222e-07
6.40325e-07
6.39499e-07
6.35442e-07
6.30215e-07
6.30371e-07
6.25743e-07
5.96834e-07
5.50231e-07
5.48991e-07
5.4858e-07
5.17456e-07
4.48365e-07
4.22379e-07
0.999998
0.999998
0.999998
0.999998
0.999999
0.999998
0.999997
0.999993
0.999991
0.99999
0.99999
0.99999
0.99999
0.99999
0.99999
0.99999
0.99999
0.99999
0.99999
0.99999
0.99999
0.99999
0.99999
0.99999
0.99999
0.99999
0.99999
0.99999
0.99999
0.99999
0.99999
0.99999
0.99999
0.99999
0.99999
0.99999
0.99999
0.99999
0.99999
0.99999
0.99999
0.99999
0.99999
0.999988
0.999984
0.999976
0.999967
0.999959
0.999949
0.999939
0.999927
0.999917
0.999903
0.999873
0.99985
0.999824
0.999847
0.999852
0.999528
0.9715
0.0415676
7.38212e-07
7.38667e-07
7.34879e-07
6.91768e-07
6.88886e-07
6.86371e-07
6.87777e-07
6.87622e-07
6.7646e-07
6.7698e-07
6.82318e-07
6.8752e-07
6.85514e-07
6.78318e-07
6.72942e-07
6.65774e-07
6.55934e-07
6.49646e-07
6.4482e-07
6.38539e-07
6.37891e-07
6.38529e-07
6.36083e-07
6.35199e-07
6.33106e-07
6.2855e-07
6.27974e-07
6.26265e-07
6.205e-07
5.98083e-07
5.77548e-07
5.76697e-07
5.82036e-07
5.77643e-07
4.97721e-07
0.999998
0.999997
0.999998
0.999998
0.999998
0.999998
0.999998
0.999995
0.999991
0.99999
0.99999
0.99999
0.99999
0.99999
0.99999
0.99999
0.99999
0.99999
0.99999
0.99999
0.99999
0.99999
0.99999
0.99999
0.99999
0.99999
0.99999
0.99999
0.99999
0.99999
0.99999
0.99999
0.99999
0.99999
0.99999
0.99999
0.99999
0.99999
0.99999
0.99999
0.99999
0.99999
0.99999
0.999988
0.999984
0.999976
0.999968
0.999961
0.999953
0.999944
0.999926
0.999911
0.999894
0.999857
0.999861
0.99984
0.999873
0.999843
0.999534
0.95918
0.0431201
3.19115e-05
6.60226e-07
6.60781e-07
6.49818e-07
6.43952e-07
6.42842e-07
6.42597e-07
6.39964e-07
6.39304e-07
6.45342e-07
6.70185e-07
6.87732e-07
6.83361e-07
6.70601e-07
6.65286e-07
6.62957e-07
6.60319e-07
6.55569e-07
6.48624e-07
6.37844e-07
6.35018e-07
6.34811e-07
6.33015e-07
6.26706e-07
6.30886e-07
6.35123e-07
6.33279e-07
6.29738e-07
6.22204e-07
6.07771e-07
6.02487e-07
6.04639e-07
6.14602e-07
6.12619e-07
5.36837e-07
0.999998
0.999998
0.999998
0.999997
0.999998
0.999998
0.999998
0.999996
0.999991
0.99999
0.99999
0.99999
0.99999
0.99999
0.99999
0.99999
0.99999
0.99999
0.99999
0.99999
0.99999
0.99999
0.99999
0.99999
0.99999
0.99999
0.99999
0.99999
0.99999
0.99999
0.99999
0.99999
0.99999
0.99999
0.99999
0.99999
0.99999
0.99999
0.99999
0.99999
0.99999
0.99999
0.99999
0.999989
0.999984
0.999976
0.999968
0.999962
0.999956
0.999949
0.999924
0.999904
0.999899
0.99989
0.999871
0.999815
0.999809
0.999814
0.999186
0.947978
0.0459411
0.000271439
9.14296e-07
6.60999e-07
6.29012e-07
6.29012e-07
6.29012e-07
6.29154e-07
6.29164e-07
6.29165e-07
6.29175e-07
6.29765e-07
6.3154e-07
6.34797e-07
6.44596e-07
6.59659e-07
6.66575e-07
6.65844e-07