/*--------------------------------*- C++ -*----------------------------------*\
| =========                 |                                                 |
| \\      /  F ield         | OpenFOAM: The Open Source CFD Toolbox           |
|  \\    /   O peration     | Version:  2.3.0                                 |
|   \\  /    A nd           | Web:      www.OpenFOAM.org                      |
|    \\/     M anipulation  |                                                 |
\*---------------------------------------------------------------------------*/
FoamFile
{
    version     2.0;
    format      ascii;
    class       volScalarField;
    location    "39";
    object      alpha.airMean;
}
// * * * * * * * * * * * * * * * * * * * * * * * * * * * * * * * * * * * * * //

dimensions      [0 0 0 0 0 0 0];

internalField   nonuniform List<scalar> 
6144
(
0.999993
0.999992
0.999992
0.999992
0.999991
0.999991
0.999991
0.99999
0.99999
0.99999
0.99999
0.99999
0.99999
0.99999
0.99999
0.99999
0.99999
0.99999
0.99999
0.99999
0.99999
0.99999
0.99999
0.99999
0.99999
0.99999
0.99999
0.99999
0.99999
0.99999
0.99999
0.99999
0.99999
0.99999
0.99999
0.99999
0.99999
0.99999
0.99999
0.99999
0.99999
0.99999
0.99999
0.99999
0.99999
0.99999
0.99999
0.99999
0.99999
0.999989
0.999987
0.999981
0.999968
0.999947
0.999932
0.999888
0.999812
0.999448
0.998646
0.936678
0.0366866
0.000203267
1.02231e-06
8.78869e-07
8.7864e-07
8.70246e-07
8.78291e-07
8.74264e-07
8.74232e-07
8.68906e-07
8.66748e-07
8.61798e-07
8.58029e-07
8.52925e-07
8.48875e-07
8.43833e-07
8.39629e-07
8.35549e-07
8.31162e-07
8.27055e-07
8.22929e-07
8.18635e-07
8.14821e-07
8.11298e-07
8.07685e-07
8.04019e-07
7.99781e-07
7.9179e-07
7.68884e-07
7.11539e-07
6.47494e-07
6.04346e-07
5.57305e-07
5.12856e-07
4.73426e-07
4.23566e-07
0.999993
0.999993
0.999992
0.999992
0.999991
0.999991
0.999991
0.99999
0.99999
0.99999
0.99999
0.99999
0.99999
0.99999
0.99999
0.99999
0.99999
0.99999
0.99999
0.99999
0.99999
0.99999
0.99999
0.99999
0.99999
0.99999
0.99999
0.99999
0.99999
0.99999
0.99999
0.99999
0.99999
0.99999
0.99999
0.99999
0.99999
0.99999
0.99999
0.99999
0.99999
0.99999
0.99999
0.99999
0.99999
0.99999
0.99999
0.99999
0.99999
0.999989
0.999987
0.99998
0.999969
0.99995
0.999937
0.9999
0.999798
0.999318
0.998392
0.940557
0.0382767
8.05403e-05
8.86889e-07
9.05224e-07
8.95627e-07
8.89707e-07
8.97199e-07
8.94107e-07
8.9358e-07
8.86272e-07
8.80232e-07
8.70401e-07
8.63311e-07
8.56282e-07
8.50473e-07
8.44437e-07
8.38859e-07
8.3403e-07
8.29337e-07
8.24614e-07
8.19208e-07
8.14586e-07
8.11009e-07
8.06596e-07
8.01939e-07
7.96759e-07
7.9143e-07
7.80327e-07
7.55495e-07
7.03812e-07
6.46944e-07
6.05979e-07
5.59782e-07
5.16685e-07
4.80921e-07
4.31672e-07
0.999994
0.999993
0.999992
0.999992
0.999991
0.999991
0.999991
0.99999
0.99999
0.99999
0.99999
0.99999
0.99999
0.99999
0.99999
0.99999
0.99999
0.99999
0.99999
0.99999
0.99999
0.99999
0.99999
0.99999
0.99999
0.99999
0.99999
0.99999
0.99999
0.99999
0.99999
0.99999
0.99999
0.99999
0.99999
0.99999
0.99999
0.99999
0.99999
0.99999
0.99999
0.99999
0.99999
0.99999
0.99999
0.99999
0.99999
0.99999
0.99999
0.999989
0.999987
0.99998
0.999971
0.999956
0.999933
0.999884
0.999849
0.99948
0.999145
0.938675
0.0397767
4.14837e-05
3.36356e-06
3.00898e-06
3.06965e-06
2.98778e-06
2.86551e-06
2.67603e-06
2.47058e-06
2.18916e-06
1.88438e-06
1.59565e-06
1.3371e-06
1.13501e-06
1.00378e-06
9.21148e-07
8.75672e-07
8.51922e-07
8.36557e-07
8.25511e-07
8.14952e-07
8.0746e-07
8.00704e-07
7.944e-07
7.88943e-07
7.84689e-07
7.81777e-07
7.68923e-07
7.41884e-07
6.9711e-07
6.5223e-07
6.15655e-07
5.69592e-07
5.23264e-07
4.88327e-07
4.35802e-07
0.999994
0.999993
0.999993
0.999993
0.999992
0.999991
0.999991
0.99999
0.99999
0.99999
0.99999
0.99999
0.99999
0.99999
0.99999
0.99999
0.99999
0.99999
0.99999
0.99999
0.99999
0.99999
0.99999
0.99999
0.99999
0.99999
0.99999
0.99999
0.99999
0.99999
0.99999
0.99999
0.99999
0.99999
0.99999
0.99999
0.99999
0.99999
0.99999
0.99999
0.99999
0.99999
0.99999
0.99999
0.99999
0.99999
0.99999
0.99999
0.99999
0.999989
0.999986
0.99998
0.999973
0.999953
0.999918
0.999869
0.999868
0.999589
0.99958
0.922267
0.0410351
0.000122133
9.56943e-05
8.86586e-05
8.72498e-05
8.35679e-05
7.78859e-05
6.97994e-05
6.27744e-05
5.55693e-05
4.62491e-05
3.78797e-05
3.00814e-05
2.21553e-05
1.55739e-05
1.05181e-05
6.55331e-06
3.9582e-06
2.38588e-06
1.52972e-06
1.09029e-06
9.01699e-07
8.29187e-07
8.0364e-07
7.89819e-07
7.77064e-07
7.70075e-07
7.51022e-07
7.20863e-07
6.849e-07
6.54411e-07
6.20105e-07
5.73797e-07
5.26051e-07
4.93351e-07
4.36254e-07
0.999994
0.999994
0.999993
0.999993
0.999992
0.999992
0.999991
0.999991
0.99999
0.99999
0.99999
0.99999
0.99999
0.99999
0.99999
0.99999
0.99999
0.99999
0.99999
0.99999
0.99999
0.99999
0.99999
0.99999
0.99999
0.99999
0.99999
0.99999
0.99999
0.99999
0.99999
0.99999
0.99999
0.99999
0.99999
0.99999
0.99999
0.99999
0.99999
0.99999
0.99999
0.99999
0.99999
0.99999
0.99999
0.99999
0.99999
0.99999
0.99999
0.999989
0.999986
0.999981
0.999971
0.999946
0.999911
0.999857
0.999848
0.999686
0.999832
0.867341
0.0199015
0.00069312
0.000666685
0.000635641
0.000611213
0.000586124
0.0005557
0.00051561
0.000469969
0.000426106
0.000383575
0.000340585
0.000301502
0.000252395
0.00020195
0.000160369
0.000119655
8.46457e-05
5.51068e-05
3.46797e-05
2.02989e-05
1.0864e-05
5.31776e-06
2.46624e-06
1.31632e-06
9.10697e-07
7.77761e-07
7.32006e-07
7.00005e-07
6.7119e-07
6.42012e-07
6.11271e-07
5.69001e-07
5.25669e-07
4.93758e-07
4.35344e-07
0.999994
0.999994
0.999993
0.999993
0.999993
0.999992
0.999991
0.999991
0.99999
0.99999
0.99999
0.99999
0.99999
0.99999
0.99999
0.99999
0.99999
0.99999
0.99999
0.99999
0.99999
0.99999
0.99999
0.99999
0.99999
0.99999
0.99999
0.99999
0.99999
0.99999
0.99999
0.99999
0.99999
0.99999
0.99999
0.99999
0.99999
0.99999
0.99999
0.99999
0.99999
0.99999
0.99999
0.99999
0.99999
0.99999
0.99999
0.99999
0.99999
0.999989
0.999986
0.999981
0.999966
0.999943
0.999904
0.999852
0.999852
0.999771
0.999943
0.773042
0.0138506
0.00258693
0.00245462
0.00220262
0.0020789
0.00200703
0.00194889
0.00192043
0.00186005
0.00176158
0.00165733
0.00155928
0.00146502
0.00133802
0.00121163
0.00107522
0.000924699
0.000771852
0.000610102
0.00046202
0.000341719
0.000234571
0.00014969
8.71154e-05
4.46969e-05
1.97122e-05
7.17245e-06
2.96693e-06
1.68669e-06
1.10979e-06
6.85065e-07
4.84872e-07
4.43735e-07
4.31811e-07
4.20854e-07
3.99054e-07
0.999994
0.999994
0.999994
0.999993
0.999993
0.999992
0.999992
0.999991
0.999991
0.99999
0.99999
0.99999
0.99999
0.99999
0.99999
0.99999
0.99999
0.99999
0.99999
0.99999
0.99999
0.99999
0.99999
0.99999
0.99999
0.99999
0.99999
0.99999
0.99999
0.99999
0.99999
0.99999
0.99999
0.99999
0.99999
0.99999
0.99999
0.99999
0.99999
0.99999
0.99999
0.99999
0.99999
0.99999
0.99999
0.99999
0.99999
0.99999
0.99999
0.999989
0.999986
0.999981
0.999967
0.999944
0.999911
0.999856
0.999831
0.999799
0.999988
0.646296
0.0143104
0.00870532
0.00903455
0.00846119
0.0080159
0.00796897
0.00780127
0.00786125
0.00775132
0.00766726
0.00756527
0.00730687
0.00715769
0.00707992
0.00700387
0.00661043
0.00612523
0.0057824
0.00523254
0.00462158
0.00414224
0.00350763
0.00286507
0.00231325
0.00180253
0.00136932
0.000961655
0.000613078
0.000382416
0.000221751
0.000116516
5.46551e-05
2.61676e-05
2.21737e-05
2.02709e-05
1.48914e-05
0.999994
0.999994
0.999994
0.999994
0.999993
0.999993
0.999992
0.999991
0.999991
0.99999
0.99999
0.99999
0.99999
0.99999
0.99999
0.99999
0.99999
0.99999
0.99999
0.99999
0.99999
0.99999
0.99999
0.99999
0.99999
0.99999
0.99999
0.99999
0.99999
0.99999
0.99999
0.99999
0.99999
0.99999
0.99999
0.99999
0.99999
0.99999
0.99999
0.99999
0.99999
0.99999
0.99999
0.99999
0.99999
0.99999
0.99999
0.99999
0.99999
0.999989
0.999986
0.999981
0.99997
0.999947
0.999918
0.999862
0.999831
0.999802
0.999983
0.587272
0.0226657
0.0174419
0.0179621
0.0179482
0.0177969
0.0178535
0.0177603
0.0176113
0.017685
0.0177145
0.0176503
0.0176153
0.0175692
0.0175907
0.0176424
0.0176816
0.0176667
0.0175675
0.0174998
0.017476
0.0174573
0.0174503
0.0174366
0.0174214
0.0173943
0.0173484
0.0171662
0.0168733
0.0165754
0.0161437
0.0157378
0.0151582
0.0141852
0.01305
0.011078
0.00855118
0.999994
0.999994
0.999994
0.999994
0.999994
0.999993
0.999992
0.999991
0.999991
0.99999
0.99999
0.99999
0.99999
0.99999
0.99999
0.99999
0.99999
0.99999
0.99999
0.99999
0.99999
0.99999
0.99999
0.99999
0.99999
0.99999
0.99999
0.99999
0.99999
0.99999
0.99999
0.99999
0.99999
0.99999
0.99999
0.99999
0.99999
0.99999
0.99999
0.99999
0.99999
0.99999
0.99999
0.99999
0.99999
0.99999
0.99999
0.99999
0.99999
0.999989
0.999986
0.999981
0.99997
0.999947
0.999925
0.999879
0.999855
0.999792
0.999961
0.682292
0.018045
0.00961574
0.0095567
0.008968
0.00851176
0.00839061
0.00809511
0.00775037
0.00759144
0.00743458
0.00733897
0.00705994
0.00681965
0.00663126
0.00650522
0.00647494
0.00645665
0.00660375
0.00697389
0.00735208
0.00743215
0.00751236
0.00762651
0.00760486
0.00753697
0.00739421
0.00716381
0.00679208
0.00632417
0.00586078
0.00528726
0.00469111
0.00395542
0.00301107
0.00187968
0.000924962
0.999995
0.999994
0.999994
0.999994
0.999994
0.999993
0.999992
0.999991
0.999991
0.99999
0.99999
0.99999
0.99999
0.99999
0.99999
0.99999
0.99999
0.99999
0.99999
0.99999
0.99999
0.99999
0.99999
0.99999
0.99999
0.99999
0.99999
0.99999
0.99999
0.99999
0.99999
0.99999
0.99999
0.99999
0.99999
0.99999
0.99999
0.99999
0.99999
0.99999
0.99999
0.99999
0.99999
0.99999
0.99999
0.99999
0.99999
0.99999
0.99999
0.999989
0.999986
0.999981
0.999969
0.999946
0.999926
0.999886
0.999871
0.999752
0.999897
0.786274
0.0139649
0.00315219
0.00307229
0.00275229
0.00258242
0.00248811
0.00235873
0.00225407
0.00216909
0.00210511
0.00203484
0.00195718
0.00189133
0.00180488
0.00170719
0.00163983
0.00159357
0.00156807
0.0015757
0.0016269
0.00166112
0.00167948
0.00175789
0.00183465
0.00185541
0.00190308
0.00191112
0.0018388
0.0016704
0.00140622
0.00112368
0.000847991
0.000561975
0.00031422
0.00013562
5.71597e-05
0.999995
0.999995
0.999994
0.999994
0.999994
0.999993
0.999992
0.999991
0.999991
0.99999
0.99999
0.99999
0.99999
0.99999
0.99999
0.99999
0.99999
0.99999
0.99999
0.99999
0.99999
0.99999
0.99999
0.99999
0.99999
0.99999
0.99999
0.99999
0.99999
0.99999
0.99999
0.99999
0.99999
0.99999
0.99999
0.99999
0.99999
0.99999
0.99999
0.99999
0.99999
0.99999
0.99999
0.99999
0.99999
0.99999
0.99999
0.99999
0.99999
0.999989
0.999986
0.999981
0.99997
0.999948
0.999924
0.999891
0.99988
0.99966
0.999793
0.879412
0.0223675
0.000984556
0.000995611
0.000990569
0.00101394
0.000978366
0.000934486
0.000909622
0.000868915
0.000810651
0.000736703
0.000652794
0.000578161
0.000494838
0.000413321
0.000342634
0.000276453
0.000219711
0.000174565
0.000145627
0.00013353
0.000133827
0.000146556
0.000168657
0.000189872
0.0002036
0.000211781
0.000211888
0.000189635
0.000148793
0.000100834
5.78973e-05
2.85455e-05
1.31921e-05
5.27304e-06
2.42567e-06
0.999996
0.999995
0.999994
0.999994
0.999993
0.999992
0.999992
0.999991
0.999991
0.99999
0.99999
0.99999
0.99999
0.99999
0.99999
0.99999
0.99999
0.99999
0.99999
0.99999
0.99999
0.99999
0.99999
0.99999
0.99999
0.99999
0.99999
0.99999
0.99999
0.99999
0.99999
0.99999
0.99999
0.99999
0.99999
0.99999
0.99999
0.99999
0.99999
0.99999
0.99999
0.99999
0.99999
0.99999
0.99999
0.99999
0.99999
0.99999
0.99999
0.999989
0.999986
0.99998
0.999971
0.999952
0.999919
0.999887
0.999879
0.999565
0.999688
0.931354
0.0385544
0.000244876
0.000237075
0.00023259
0.000245326
0.000248331
0.00023898
0.000223468
0.000203343
0.000170701
0.000135567
0.000106725
8.19102e-05
5.68334e-05
3.78943e-05
2.40497e-05
1.40894e-05
7.72886e-06
4.22009e-06
2.69855e-06
2.37967e-06
2.7433e-06
3.47766e-06
4.23851e-06
4.83285e-06
5.21507e-06
5.44001e-06
5.42404e-06
4.93192e-06
4.17003e-06
3.29795e-06
2.16219e-06
1.38747e-06
9.4004e-07
5.6556e-07
4.5899e-07
0.999997
0.999996
0.999995
0.999995
0.999994
0.999993
0.999992
0.999991
0.999991
0.99999
0.99999
0.99999
0.99999
0.99999
0.99999
0.99999
0.99999
0.99999
0.99999
0.99999
0.99999
0.99999
0.99999
0.99999
0.99999
0.99999
0.99999
0.99999
0.99999
0.99999
0.99999
0.99999
0.99999
0.99999
0.99999
0.99999
0.99999
0.99999
0.99999
0.99999
0.99999
0.99999
0.99999
0.99999
0.99999
0.99999
0.99999
0.99999
0.99999
0.999989
0.999986
0.99998
0.999971
0.999958
0.999932
0.999893
0.999857
0.999462
0.999522
0.953514
0.0444664
5.11238e-05
2.0247e-05
1.85708e-05
2.00591e-05
2.00158e-05
1.92831e-05
1.68798e-05
1.39646e-05
1.0356e-05
7.37771e-06
4.95866e-06
3.1873e-06
1.95358e-06
1.27314e-06
9.18801e-07
7.5254e-07
6.84844e-07
6.52796e-07
6.29097e-07
6.09762e-07
5.93267e-07
5.81262e-07
5.7281e-07
5.66276e-07
5.60841e-07
5.5686e-07
5.50771e-07
5.46726e-07
5.3408e-07
5.16629e-07
4.9293e-07
4.57344e-07
4.17489e-07
3.92852e-07
3.75839e-07
0.999997
0.999996
0.999996
0.999996
0.999995
0.999994
0.999992
0.999991
0.999991
0.99999
0.99999
0.99999
0.99999
0.99999
0.99999
0.99999
0.99999
0.99999
0.99999
0.99999
0.99999
0.99999
0.99999
0.99999
0.99999
0.99999
0.99999
0.99999
0.99999
0.99999
0.99999
0.99999
0.99999
0.99999
0.99999
0.99999
0.99999
0.99999
0.99999
0.99999
0.99999
0.99999
0.99999
0.99999
0.99999
0.99999
0.99999
0.99999
0.99999
0.999989
0.999986
0.999979
0.99997
0.999957
0.999943
0.999913
0.999809
0.999357
0.999359
0.953755
0.0417463
2.95605e-05
8.97463e-07
8.76698e-07
9.17753e-07
9.14776e-07
9.04091e-07
8.52667e-07
8.14483e-07
7.61221e-07
7.31575e-07
7.06941e-07
6.91417e-07
6.71972e-07
6.56527e-07
6.43438e-07
6.33972e-07
6.24848e-07
6.14977e-07
6.05637e-07
5.95637e-07
5.8469e-07
5.7619e-07
5.68995e-07
5.61729e-07
5.54283e-07
5.44543e-07
5.25625e-07
4.96363e-07
4.79015e-07
4.64518e-07
4.44959e-07
4.20344e-07
4.00946e-07
3.80031e-07
3.53829e-07
0.999997
0.999997
0.999997
0.999996
0.999996
0.999995
0.999994
0.999991
0.999991
0.99999
0.99999
0.99999
0.99999
0.99999
0.99999
0.99999
0.99999
0.99999
0.99999
0.99999
0.99999
0.99999
0.99999
0.99999
0.99999
0.99999
0.99999
0.99999
0.99999
0.99999
0.99999
0.99999
0.99999
0.99999
0.99999
0.99999
0.99999
0.99999
0.99999
0.99999
0.99999
0.99999
0.99999
0.99999
0.99999
0.99999
0.99999
0.99999
0.99999
0.999989
0.999987
0.999979
0.999968
0.999954
0.999944
0.999919
0.999721
0.999238
0.998801
0.953905
0.0429168
0.00010318
6.50786e-07
6.40653e-07
6.38519e-07
6.27358e-07
6.34096e-07
6.31981e-07
6.31419e-07
6.28461e-07
6.25842e-07
6.2021e-07
6.15968e-07
6.09803e-07
6.05517e-07
6.00584e-07
5.95705e-07
5.91506e-07
5.8664e-07
5.80826e-07
5.74809e-07
5.67599e-07
5.6063e-07
5.56145e-07
5.52177e-07
5.47693e-07
5.39805e-07
5.23153e-07
4.95554e-07
4.6823e-07
4.51259e-07
4.32289e-07
4.08234e-07
3.91277e-07
3.76303e-07
3.45543e-07
0.999998
0.999997
0.999997
0.999997
0.999996
0.999996
0.999995
0.999992
0.999991
0.99999
0.99999
0.99999
0.99999
0.99999
0.99999
0.99999
0.99999
0.99999
0.99999
0.99999
0.99999
0.99999
0.99999
0.99999
0.99999
0.99999
0.99999
0.99999
0.99999
0.99999
0.99999
0.99999
0.99999
0.99999
0.99999
0.99999
0.99999
0.99999
0.99999
0.99999
0.99999
0.99999
0.99999
0.99999
0.99999
0.99999
0.99999
0.99999
0.99999
0.999989
0.999987
0.99998
0.999968
0.999953
0.999942
0.999872
0.999807
0.999331
0.999089
0.952024
0.0475032
0.000299214
1.02985e-06
5.80564e-07
5.80015e-07
5.72222e-07
5.74028e-07
5.71202e-07
5.75453e-07
5.79142e-07
5.82946e-07
5.81867e-07
5.80878e-07
5.78263e-07
5.76872e-07
5.74531e-07
5.72626e-07
5.71114e-07
5.69151e-07
5.66368e-07
5.62813e-07
5.58048e-07
5.52731e-07
5.48969e-07
5.46621e-07
5.44193e-07
5.3804e-07
5.22327e-07
4.95633e-07
4.69233e-07
4.41163e-07
4.22081e-07
3.99736e-07
3.81543e-07
3.645e-07
3.29441e-07
0.999993
0.999992
0.999992
0.999992
0.999991
0.999991
0.999991
0.99999
0.99999
0.99999
0.99999
0.99999
0.99999
0.99999
0.99999
0.99999
0.99999
0.99999
0.99999
0.99999
0.99999
0.99999
0.99999
0.99999
0.99999
0.99999
0.99999
0.99999
0.99999
0.99999
0.99999
0.99999
0.99999
0.99999
0.99999
0.99999
0.99999
0.99999
0.99999
0.99999
0.99999
0.99999
0.99999
0.99999
0.99999
0.99999
0.99999
0.99999
0.99999
0.999989
0.999987
0.999981
0.999969
0.999947
0.999934
0.999893
0.999817
0.999249
0.997022
0.932019
0.0520953
0.000371505
1.29745e-06
8.76085e-07
8.75155e-07
8.64211e-07
8.65825e-07
8.63238e-07
8.70877e-07
8.65068e-07
8.64119e-07
8.59376e-07
8.56402e-07
8.51139e-07
8.46415e-07
8.40983e-07
8.35844e-07
8.30849e-07
8.264e-07
8.22072e-07
8.17455e-07
8.12951e-07
8.0811e-07
8.02819e-07
7.96633e-07
7.90103e-07
7.84003e-07
7.77313e-07
7.67168e-07
7.44027e-07
6.91276e-07
6.19544e-07
5.70734e-07
5.5016e-07
5.31323e-07
4.56698e-07
0.999994
0.999993
0.999992
0.999992
0.999991
0.999991
0.999991
0.99999
0.99999
0.99999
0.99999
0.99999
0.99999
0.99999
0.99999
0.99999
0.99999
0.99999
0.99999
0.99999
0.99999
0.99999
0.99999
0.99999
0.99999
0.99999
0.99999
0.99999
0.99999
0.99999
0.99999
0.99999
0.99999
0.99999
0.99999
0.99999
0.99999
0.99999
0.99999
0.99999
0.99999
0.99999
0.99999
0.99999
0.99999
0.99999
0.99999
0.99999
0.99999
0.999989
0.999987
0.999981
0.999969
0.99995
0.999938
0.999903
0.99978
0.9993
0.998109
0.932195
0.0424557
8.24963e-05
9.08485e-07
9.12378e-07
9.05426e-07
8.9043e-07
8.93798e-07
8.92798e-07
8.96869e-07
8.91356e-07
8.89955e-07
8.83757e-07
8.79512e-07
8.71757e-07
8.63686e-07
8.54757e-07
8.47791e-07
8.39705e-07
8.30239e-07
8.19759e-07
8.08594e-07
8.01084e-07
7.95783e-07
7.92056e-07
7.87447e-07
7.81502e-07
7.76515e-07
7.72036e-07
7.65152e-07
7.49727e-07
7.11094e-07
6.45854e-07
5.8646e-07
5.56193e-07
5.45153e-07
4.71162e-07
0.999994
0.999993
0.999992
0.999992
0.999992
0.999992
0.999991
0.999991
0.999991
0.99999
0.99999
0.99999
0.99999
0.99999
0.99999
0.99999
0.99999
0.99999
0.99999
0.99999
0.99999
0.99999
0.99999
0.99999
0.99999
0.99999
0.99999
0.99999
0.99999
0.99999
0.99999
0.99999
0.99999
0.99999
0.99999
0.99999
0.99999
0.99999
0.99999
0.99999
0.99999
0.99999
0.99999
0.99999
0.99999
0.99999
0.99999
0.99999
0.99999
0.999989
0.999987
0.99998
0.99997
0.999953
0.999938
0.99989
0.999826
0.999477
0.999137
0.929769
0.0333992
6.16639e-06
3.10109e-06
2.74705e-06
2.88923e-06
2.9588e-06
3.02258e-06
3.0209e-06
3.00502e-06
2.93313e-06
2.83407e-06
2.68714e-06
2.50444e-06
2.22752e-06
1.87525e-06
1.51733e-06
1.23527e-06
1.03927e-06
9.23213e-07
8.636e-07
8.34104e-07
8.18682e-07
8.05909e-07
7.9874e-07
7.90975e-07
7.84524e-07
7.7976e-07
7.73623e-07
7.66966e-07
7.54608e-07
7.22617e-07
6.66823e-07
6.06737e-07
5.70886e-07
5.56903e-07
4.79762e-07
0.999994
0.999994
0.999993
0.999992
0.999992
0.999992
0.999992
0.999991
0.999991
0.99999
0.99999
0.99999
0.99999
0.99999
0.99999
0.99999
0.99999
0.99999
0.99999
0.99999
0.99999
0.99999
0.99999
0.99999
0.99999
0.99999
0.99999
0.99999
0.99999
0.99999
0.99999
0.99999
0.99999
0.99999
0.99999
0.99999
0.99999
0.99999
0.99999
0.99999
0.99999
0.99999
0.99999
0.99999
0.99999
0.99999
0.99999
0.99999
0.99999
0.999989
0.999986
0.999981
0.999972
0.999951
0.999921
0.999861
0.999834
0.999565
0.999632
0.921539
0.030531
8.95845e-05
9.51802e-05
8.7007e-05
9.24658e-05
9.71161e-05
0.000101985
0.00010418
0.000105467
0.000105537
0.000104428
0.00010245
9.85437e-05
8.98811e-05
7.3462e-05
5.46966e-05
3.86771e-05
2.53416e-05
1.51287e-05
8.3915e-06
4.35734e-06
2.29429e-06
1.33539e-06
9.5194e-07
8.40023e-07
7.99922e-07
7.8841e-07
7.75389e-07
7.63078e-07
7.47803e-07
7.18494e-07
6.70879e-07
6.19853e-07
5.86659e-07
5.65506e-07
4.81295e-07
0.999994
0.999994
0.999993
0.999993
0.999992
0.999992
0.999992
0.999991
0.999991
0.99999
0.99999
0.99999
0.99999
0.99999
0.99999
0.99999
0.99999
0.99999
0.99999
0.99999
0.99999
0.99999
0.99999
0.99999
0.99999
0.99999
0.99999
0.99999
0.99999
0.99999
0.99999
0.99999
0.99999
0.99999
0.99999
0.99999
0.99999
0.99999
0.99999
0.99999
0.99999
0.99999
0.99999
0.99999
0.99999
0.99999
0.99999
0.99999
0.99999
0.999989
0.999985
0.999979
0.999965
0.999938
0.999889
0.999829
0.999787
0.999727
0.999855
0.868743
0.0152937
0.00112905
0.00114397
0.00106117
0.00107608
0.00110283
0.00112508
0.00116501
0.00122566
0.00122436
0.00117785
0.00114286
0.001103
0.00104374
0.000954879
0.000828739
0.000676531
0.00051929
0.000380301
0.00025482
0.000156649
9.07749e-05
4.74797e-05
2.08934e-05
8.01281e-06
2.94293e-06
1.27604e-06
8.64739e-07
7.75107e-07
7.3631e-07
7.01992e-07
6.59246e-07
6.26941e-07
6.00177e-07
5.70953e-07
4.79648e-07
0.999995
0.999995
0.999994
0.999993
0.999992
0.999992
0.999992
0.999992
0.999991
0.99999
0.99999
0.99999
0.99999
0.99999
0.99999
0.99999
0.99999
0.99999
0.99999
0.99999
0.99999
0.99999
0.99999
0.99999
0.99999
0.99999
0.99999
0.99999
0.99999
0.99999
0.99999
0.99999
0.99999
0.99999
0.99999
0.99999
0.99999
0.99999
0.99999
0.99999
0.99999
0.99999
0.99999
0.99999
0.99999
0.99999
0.99999
0.99999
0.99999
0.999988
0.999985
0.999977
0.999957
0.999929
0.999864
0.999825
0.999829
0.999846
0.999954
0.759646
0.017774
0.00788291
0.00792947
0.00724053
0.0071163
0.00691639
0.00676344
0.00677461
0.00675598
0.00678516
0.00679822
0.00678737
0.00664518
0.00641583
0.00616471
0.00585932
0.0055298
0.00486505
0.00415731
0.00347075
0.00272963
0.00207286
0.00148529
0.000973833
0.000590622
0.000326872
0.000165315
8.12725e-05
3.98196e-05
1.89977e-05
7.4423e-06
2.62203e-06
9.75712e-07
6.60514e-07
5.6327e-07
4.44012e-07
0.999995
0.999995
0.999994
0.999994
0.999993
0.999992
0.999992
0.999992
0.999991
0.99999
0.99999
0.99999
0.99999
0.99999
0.99999
0.99999
0.99999
0.99999
0.99999
0.99999
0.99999
0.99999
0.99999
0.99999
0.99999
0.99999
0.99999
0.99999
0.99999
0.99999
0.99999
0.99999
0.99999
0.99999
0.99999
0.99999
0.99999
0.99999
0.99999
0.99999
0.99999
0.99999
0.99999
0.99999
0.99999
0.99999
0.99999
0.99999
0.99999
0.999989
0.999986
0.999979
0.999962
0.999938
0.999886
0.999818
0.999787
0.999828
0.999966
0.617013
0.0331223
0.0254284
0.02647
0.0261487
0.0260105
0.0260446
0.0261495
0.0264934
0.0267541
0.0270491
0.0275671
0.0280278
0.0283133
0.0285777
0.0286274
0.0286725
0.0285388
0.0280847
0.0274164
0.0264863
0.0251448
0.0234163
0.0214734
0.0191201
0.0163067
0.0136578
0.0111632
0.00879888
0.006823
0.0051739
0.00355811
0.00238197
0.00162173
0.00129496
0.0015024
0.00185235
0.999995
0.999995
0.999995
0.999994
0.999994
0.999993
0.999992
0.999992
0.999991
0.99999
0.99999
0.99999
0.99999
0.99999
0.99999
0.99999
0.99999
0.99999
0.99999
0.99999
0.99999
0.99999
0.99999
0.99999
0.99999
0.99999
0.99999
0.99999
0.99999
0.99999
0.99999
0.99999
0.99999
0.99999
0.99999
0.99999
0.99999
0.99999
0.99999
0.99999
0.99999
0.99999
0.99999
0.99999
0.99999
0.99999
0.99999
0.99999
0.99999
0.999989
0.999986
0.99998
0.999966
0.999944
0.9999
0.999829
0.999789
0.999811
0.999884
0.58712
0.0411968
0.0334356
0.0346049
0.0349718
0.0356558
0.0364993
0.0372362
0.0381645
0.0390503
0.0399802
0.0410788
0.0423425
0.0437777
0.0453968
0.047263
0.0493689
0.0516929
0.0542505
0.0569799
0.0599286
0.0631079
0.0663953
0.0697512
0.0733625
0.0771438
0.0810626
0.0852424
0.0896018
0.0943813
0.100128
0.107169
0.116355
0.129569
0.151509
0.200173
0.394158
0.999995
0.999995
0.999995
0.999995
0.999994
0.999993
0.999992
0.999992
0.999991
0.99999
0.99999
0.99999
0.99999
0.99999
0.99999
0.99999
0.99999
0.99999
0.99999
0.99999
0.99999
0.99999
0.99999
0.99999
0.99999
0.99999
0.99999
0.99999
0.99999
0.99999
0.99999
0.99999
0.99999
0.99999
0.99999
0.99999
0.99999
0.99999
0.99999
0.99999
0.99999
0.99999
0.99999
0.99999
0.99999
0.99999
0.99999
0.99999
0.99999
0.999989
0.999986
0.999979
0.999966
0.999942
0.999911
0.999862
0.999818
0.999784
0.999954
0.729248
0.0230246
0.00954278
0.00882366
0.00796273
0.00758536
0.00733744
0.00721959
0.00713834
0.00707757
0.00699452
0.00695857
0.00696087
0.0069862
0.00711002
0.00741904
0.00791074
0.00868966
0.00960499
0.010542
0.0116524
0.0130055
0.0144717
0.0159869
0.017501
0.0190308
0.020508
0.0218425
0.0231951
0.0245616
0.0258483
0.0270329
0.0281385
0.0288684
0.0290662
0.0279948
0.02491
0.999995
0.999996
0.999995
0.999995
0.999995
0.999994
0.999993
0.999992
0.999991
0.999991
0.99999
0.99999
0.99999
0.99999
0.99999
0.99999
0.99999
0.99999
0.99999
0.99999
0.99999
0.99999
0.99999
0.99999
0.99999
0.99999
0.99999
0.99999
0.99999
0.99999
0.99999
0.99999
0.99999
0.99999
0.99999
0.99999
0.99999
0.99999
0.99999
0.99999
0.99999
0.99999
0.99999
0.99999
0.99999
0.99999
0.99999
0.99999
0.99999
0.999989
0.999986
0.999978
0.999966
0.999947
0.999916
0.99987
0.999833
0.999767
0.999929
0.835901
0.012244
0.00181418
0.00174724
0.00156438
0.00155194
0.00151977
0.00149822
0.00147577
0.0014899
0.00149337
0.00148112
0.00146313
0.00141918
0.00139803
0.00138885
0.00138516
0.00139885
0.0014167
0.00146406
0.00159506
0.00182549
0.00215012
0.00260228
0.0031572
0.00387004
0.00472974
0.00562928
0.00643884
0.00707461
0.00747931
0.00761329
0.00704054
0.0059411
0.00422543
0.00231854
0.000993269
0.999996
0.999996
0.999995
0.999995
0.999995
0.999994
0.999993
0.999992
0.999991
0.999991
0.99999
0.99999
0.99999
0.99999
0.99999
0.99999
0.99999
0.99999
0.99999
0.99999
0.99999
0.99999
0.99999
0.99999
0.99999
0.99999
0.99999
0.99999
0.99999
0.99999
0.99999
0.99999
0.99999
0.99999
0.99999
0.99999
0.99999
0.99999
0.99999
0.99999
0.99999
0.99999
0.99999
0.99999
0.99999
0.99999
0.99999
0.99999
0.99999
0.999989
0.999986
0.999979
0.999968
0.999953
0.999929
0.999887
0.999826
0.999652
0.999833
0.909572
0.0320309
0.000311094
0.000309885
0.000281274
0.000295574
0.000292843
0.000298012
0.000300478
0.000290151
0.000270393
0.000242662
0.000213633
0.000183616
0.00015514
0.000132902
0.000114743
0.000102781
9.8233e-05
0.000103809
0.000119495
0.000145507
0.000184394
0.00023875
0.000308067
0.000393723
0.000505405
0.000632948
0.000743059
0.000830329
0.000860237
0.000796275
0.000620503
0.000374667
0.000168621
5.21796e-05
1.74943e-05
0.999996
0.999996
0.999995
0.999995
0.999995
0.999994
0.999993
0.999992
0.999991
0.999991
0.99999
0.99999
0.99999
0.99999
0.99999
0.99999
0.99999
0.99999
0.99999
0.99999
0.99999
0.99999
0.99999
0.99999
0.99999
0.99999
0.99999
0.99999
0.99999
0.99999
0.99999
0.99999
0.99999
0.99999
0.99999
0.99999
0.99999
0.99999
0.99999
0.99999
0.99999
0.99999
0.99999
0.99999
0.99999
0.99999
0.99999
0.99999
0.99999
0.999989
0.999987
0.99998
0.999969
0.999954
0.999933
0.999893
0.999852
0.999533
0.999631
0.938779
0.0369165
4.43369e-05
4.16694e-05
3.43876e-05
3.56061e-05
3.46819e-05
3.28102e-05
3.04099e-05
2.65589e-05
2.10711e-05
1.6645e-05
1.2746e-05
9.50322e-06
7.03755e-06
5.43212e-06
4.47911e-06
4.09483e-06
4.16747e-06
4.60141e-06
5.37534e-06
6.52413e-06
8.08701e-06
1.0016e-05
1.24504e-05
1.53714e-05
1.83262e-05
2.08938e-05
2.25516e-05
2.31948e-05
2.0962e-05
1.55219e-05
1.08743e-05
5.12346e-06
1.98209e-06
8.05289e-07
5.33867e-07
0.999997
0.999996
0.999996
0.999996
0.999995
0.999994
0.999993
0.999991
0.999991
0.999991
0.99999
0.99999
0.99999
0.99999
0.99999
0.99999
0.99999
0.99999
0.99999
0.99999
0.99999
0.99999
0.99999
0.99999
0.99999
0.99999
0.99999
0.99999
0.99999
0.99999
0.99999
0.99999
0.99999
0.99999
0.99999
0.99999
0.99999
0.99999
0.99999
0.99999
0.99999
0.99999
0.99999
0.99999
0.99999
0.99999
0.99999
0.99999
0.99999
0.999989
0.999987
0.99998
0.99997
0.999954
0.999943
0.999905
0.999834
0.999443
0.999198
0.953104
0.049723
9.89869e-06
4.23871e-06
3.32792e-06
3.36688e-06
3.02183e-06
2.46225e-06
1.8628e-06
1.50484e-06
1.26118e-06
1.09881e-06
9.69027e-07
8.83985e-07
8.29318e-07
7.96582e-07
7.70613e-07
7.48162e-07
7.28027e-07
7.11152e-07
6.99195e-07
6.89332e-07
6.80034e-07
6.76907e-07
6.80422e-07
6.84034e-07
6.79747e-07
6.65566e-07
6.46948e-07
6.1512e-07
5.6825e-07
5.15553e-07
4.66563e-07
4.16336e-07
3.82516e-07
3.65157e-07
3.44999e-07
0.999997
0.999996
0.999996
0.999996
0.999996
0.999995
0.999993
0.999992
0.999991
0.999991
0.99999
0.99999
0.99999
0.99999
0.99999
0.99999
0.99999
0.99999
0.99999
0.99999
0.99999
0.99999
0.99999
0.99999
0.99999
0.99999
0.99999
0.99999
0.99999
0.99999
0.99999
0.99999
0.99999
0.99999
0.99999
0.99999
0.99999
0.99999
0.99999
0.99999
0.99999
0.99999
0.99999
0.99999
0.99999
0.99999
0.99999
0.99999
0.99999
0.999989
0.999987
0.99998
0.999969
0.999953
0.999944
0.99992
0.999792
0.999357
0.998886
0.952215
0.0516045
8.37282e-06
8.89694e-07
8.09204e-07
8.14633e-07
8.02512e-07
8.12318e-07
8.07635e-07
8.07203e-07
7.97797e-07
7.94503e-07
7.82928e-07
7.70692e-07
7.51021e-07
7.33558e-07
7.15808e-07
6.99058e-07
6.83717e-07
6.70085e-07
6.57599e-07
6.4263e-07
6.2664e-07
6.10966e-07
5.97047e-07
5.83905e-07
5.70611e-07
5.55922e-07
5.37212e-07
5.10385e-07
4.86266e-07
4.60121e-07
4.30876e-07
3.97201e-07
3.73447e-07
3.57034e-07
3.32345e-07
0.999997
0.999997
0.999997
0.999996
0.999996
0.999995
0.999994
0.999992
0.999991
0.99999
0.99999
0.99999
0.99999
0.99999
0.99999
0.99999
0.99999
0.99999
0.99999
0.99999
0.99999
0.99999
0.99999
0.99999
0.99999
0.99999
0.99999
0.99999
0.99999
0.99999
0.99999
0.99999
0.99999
0.99999
0.99999
0.99999
0.99999
0.99999
0.99999
0.99999
0.99999
0.99999
0.99999
0.99999
0.99999
0.99999
0.99999
0.99999
0.99999
0.999989
0.999987
0.99998
0.999968
0.999953
0.999943
0.999917
0.99973
0.999212
0.998009
0.946561
0.0623425
0.00014582
7.26468e-07
6.49114e-07
6.3227e-07
6.20868e-07
6.27272e-07
6.34952e-07
6.51345e-07
6.58944e-07
6.67029e-07
6.66878e-07
6.67635e-07
6.63704e-07
6.59111e-07
6.5224e-07
6.44131e-07
6.35833e-07
6.27897e-07
6.19111e-07
6.0892e-07
5.98362e-07
5.89639e-07
5.81894e-07
5.73216e-07
5.62611e-07
5.50155e-07
5.33881e-07
5.0781e-07
4.75769e-07
4.49636e-07
4.2688e-07
4.02501e-07
3.87167e-07
3.71102e-07
3.36808e-07
0.999998
0.999997
0.999997
0.999997
0.999997
0.999996
0.999995
0.999992
0.999991
0.99999
0.99999
0.99999
0.99999
0.99999
0.99999
0.99999
0.99999
0.99999
0.99999
0.99999
0.99999
0.99999
0.99999
0.99999
0.99999
0.99999
0.99999
0.99999
0.99999
0.99999
0.99999
0.99999
0.99999
0.99999
0.99999
0.99999
0.99999
0.99999
0.99999
0.99999
0.99999
0.99999
0.99999
0.99999
0.99999
0.99999
0.99999
0.99999
0.99999
0.999989
0.999987
0.99998
0.999968
0.999954
0.999946
0.999899
0.999789
0.999151
0.997438
0.943926
0.0664587
0.000580665
1.65422e-06
5.80456e-07
5.80177e-07
5.71524e-07
5.74132e-07
5.69481e-07
5.72819e-07
5.7598e-07
5.82802e-07
5.84237e-07
5.86691e-07
5.86572e-07
5.86676e-07
5.86296e-07
5.86136e-07
5.85294e-07
5.85334e-07
5.85355e-07
5.82549e-07
5.7895e-07
5.75933e-07
5.71905e-07
5.66541e-07
5.58594e-07
5.48167e-07
5.33761e-07
5.08303e-07
4.75693e-07
4.4448e-07
4.22514e-07
3.99517e-07
3.82894e-07
3.64605e-07