/*--------------------------------*- C++ -*----------------------------------*\
| =========                 |                                                 |
| \\      /  F ield         | OpenFOAM: The Open Source CFD Toolbox           |
|  \\    /   O peration     | Version:  2.3.0                                 |
|   \\  /    A nd           | Web:      www.OpenFOAM.org                      |
|    \\/     M anipulation  |                                                 |
\*---------------------------------------------------------------------------*/
FoamFile
{
    version     2.0;
    format      ascii;
    class       volScalarField;
    location    "39";
    object      alpha.water;
}
// * * * * * * * * * * * * * * * * * * * * * * * * * * * * * * * * * * * * * //

dimensions      [0 0 0 0 0 0 0];

internalField   nonuniform List<scalar> 
6144
(
4.726e-06
5.47026e-06
5.92101e-06
6.33801e-06
6.72001e-06
7.31437e-06
8.04712e-06
9.13409e-06
9.88042e-06
9.98422e-06
9.98854e-06
9.9914e-06
9.99366e-06
9.99577e-06
9.99633e-06
9.99705e-06
9.99613e-06
9.99678e-06
9.99638e-06
9.99652e-06
9.99626e-06
9.99622e-06
9.99608e-06
9.99591e-06
9.99568e-06
9.99532e-06
9.99493e-06
9.9948e-06
9.99464e-06
9.99457e-06
9.99422e-06
9.99435e-06
9.9938e-06
9.99438e-06
9.99349e-06
9.99464e-06
9.99302e-06
9.99503e-06
9.99194e-06
9.99485e-06
9.99025e-06
9.9949e-06
9.98864e-06
9.99662e-06
9.98775e-06
9.99835e-06
9.98848e-06
1.00035e-05
1.01418e-05
1.12627e-05
1.396e-05
2.13617e-05
3.94176e-05
7.70143e-05
0.000101064
0.000125872
0.000152979
0.000446327
0.000402117
0.0477192
0.967141
0.999904
0.999999
0.999999
0.999999
0.999999
0.999999
0.999999
0.999999
0.999999
0.999999
0.999999
0.999999
0.999999
0.999999
0.999999
0.999999
0.999999
0.999999
0.999999
0.999999
0.999999
0.999999
0.999999
0.999999
0.999999
0.999999
0.999999
0.999999
0.999999
0.999999
0.999999
0.999999
0.999999
0.999999
1
4.17264e-06
5.29604e-06
6.2077e-06
6.7317e-06
7.28461e-06
7.78406e-06
8.32314e-06
9.15594e-06
9.90599e-06
9.98561e-06
9.98333e-06
9.9823e-06
9.99341e-06
1.00007e-05
1.00033e-05
1.00039e-05
1.00032e-05
1.00034e-05
1.00029e-05
1.00028e-05
1.00023e-05
1.00021e-05
1.00018e-05
1.00016e-05
1.00014e-05
1.00012e-05
1.00012e-05
1.00014e-05
1.00014e-05
1.00014e-05
1.00014e-05
1.00016e-05
1.00015e-05
1.00021e-05
1.00018e-05
1.00027e-05
1.00017e-05
1.00035e-05
1.00011e-05
1.00041e-05
1.00004e-05
1.00054e-05
9.99964e-06
1.00078e-05
9.99762e-06
1.00114e-05
9.99286e-06
1.00383e-05
1.03679e-05
1.22226e-05
1.51325e-05
2.22207e-05
3.7711e-05
6.31196e-05
7.18715e-05
9.67034e-05
0.000160485
0.000654967
0.00153758
0.0469077
0.951137
0.999797
0.999999
0.999999
0.999999
0.999999
0.999999
0.999999
0.999999
0.999999
0.999999
0.999999
0.999999
0.999999
0.999999
0.999999
0.999999
0.999999
0.999999
0.999999
0.999999
0.999999
0.999999
0.999999
0.999999
0.999999
0.999999
0.999999
0.999999
0.999999
0.999999
0.999999
0.999999
0.999999
1
1
3.79445e-06
4.87724e-06
6.12069e-06
6.75093e-06
7.45076e-06
7.89944e-06
8.44428e-06
9.11903e-06
9.74879e-06
9.90523e-06
9.92118e-06
9.95277e-06
9.97977e-06
9.99576e-06
1.0002e-05
1.00037e-05
1.00036e-05
1.00038e-05
1.00035e-05
1.00035e-05
1.00032e-05
1.0003e-05
1.00027e-05
1.00025e-05
1.00022e-05
1.0002e-05
1.00019e-05
1.00019e-05
1.00019e-05
1.00019e-05
1.00019e-05
1.00021e-05
1.00021e-05
1.00025e-05
1.00022e-05
1.00028e-05
1.0002e-05
1.00028e-05
1.00011e-05
1.00034e-05
9.99999e-06
1.00052e-05
9.9987e-06
1.00079e-05
9.99643e-06
1.00123e-05
9.99982e-06
1.01562e-05
1.07908e-05
1.30286e-05
1.64731e-05
2.45001e-05
3.34479e-05
4.8566e-05
6.16733e-05
9.7831e-05
0.000107366
0.000431871
0.000743364
0.0444015
0.954602
0.999836
0.999999
0.999999
0.999999
0.999999
0.999999
0.999999
0.999999
0.999999
0.999999
0.999999
0.999999
0.999999
0.999999
0.999999
0.999999
0.999999
0.999999
0.999999
0.999999
0.999999
0.999999
0.999999
0.999999
0.999999
0.999999
0.999999
0.999999
0.999999
0.999999
0.999999
0.999999
0.999999
0.999999
1
3.50989e-06
4.36764e-06
5.51978e-06
6.26751e-06
7.22779e-06
7.73452e-06
8.28004e-06
8.9374e-06
9.61192e-06
9.83995e-06
9.8831e-06
9.93584e-06
9.97303e-06
9.9921e-06
9.99894e-06
1.00007e-05
1.00006e-05
1.00007e-05
1.00005e-05
1.00006e-05
1.00003e-05
1.00001e-05
9.99968e-06
9.9993e-06
9.99886e-06
9.9985e-06
9.99823e-06
9.99809e-06
9.99799e-06
9.99799e-06
9.99805e-06
9.99827e-06
9.99846e-06
9.9989e-06
9.99892e-06
9.99948e-06
9.99908e-06
1e-05
9.99847e-06
1.00012e-05
9.99734e-06
1.0003e-05
9.99643e-06
1.00047e-05
9.99614e-06
1.00112e-05
1.0004e-05
1.02091e-05
1.08567e-05
1.31303e-05
1.71384e-05
2.52077e-05
3.40595e-05
6.00364e-05
7.7805e-05
0.000108918
0.000108552
0.000293791
0.000524261
0.0567581
0.957515
0.999884
0.999997
0.999998
0.999998
0.999998
0.999997
0.999997
0.999997
0.999997
0.999997
0.999997
0.999997
0.999998
0.999999
0.999999
0.999999
0.999999
0.999998
0.999997
0.999998
0.999999
0.999999
0.999998
0.999999
0.999999
0.999999
0.999999
0.999999
0.999999
0.999999
0.999999
0.999999
0.999999
0.999999
1
3.22815e-06
3.81907e-06
4.92996e-06
5.61777e-06
6.643e-06
7.37559e-06
8.14065e-06
8.73053e-06
9.4533e-06
9.78623e-06
9.86649e-06
9.93607e-06
9.9761e-06
9.99485e-06
1.00014e-05
1.0003e-05
1.00032e-05
1.00035e-05
1.00035e-05
1.00037e-05
1.00036e-05
1.00036e-05
1.00033e-05
1.0003e-05
1.00025e-05
1.00021e-05
1.00017e-05
1.00014e-05
1.00011e-05
1.00008e-05
1.00006e-05
1.00004e-05
1.00002e-05
1.00003e-05
1.00001e-05
1.00004e-05
9.99977e-06
1.00006e-05
9.99893e-06
1.00011e-05
9.99809e-06
1.00027e-05
9.99778e-06
1.00052e-05
9.99856e-06
1.00106e-05
1.00027e-05
1.02205e-05
1.09365e-05
1.3632e-05
1.75905e-05
2.4959e-05
4.80917e-05
8.68648e-05
0.000100081
0.000120905
0.000123414
0.000210047
0.000254667
0.0754019
0.963697
0.999771
0.999869
0.999892
0.999874
0.999853
0.999826
0.999804
0.999789
0.999779
0.999764
0.999736
0.999721
0.999737
0.999821
0.999866
0.999891
0.999913
0.99994
0.999966
0.999983
0.999988
0.99999
0.999989
0.999991
0.999994
0.999997
0.999999
0.999999
0.999999
1
0.999999
0.999999
0.999999
0.999999
1
3.0125e-06
3.26975e-06
4.27447e-06
4.88198e-06
5.87626e-06
6.74242e-06
7.98101e-06
8.56404e-06
9.28006e-06
9.7385e-06
9.85469e-06
9.93395e-06
9.9735e-06
9.99059e-06
9.9962e-06
9.99755e-06
9.99764e-06
9.99787e-06
9.99792e-06
9.99824e-06
9.99842e-06
9.99856e-06
9.99854e-06
9.99846e-06
9.9982e-06
9.99798e-06
9.99775e-06
9.99761e-06
9.99744e-06
9.99728e-06
9.99706e-06
9.99701e-06
9.99681e-06
9.99699e-06
9.99675e-06
9.9972e-06
9.99661e-06
9.9974e-06
9.99594e-06
9.99799e-06
9.99536e-06
9.99943e-06
9.99554e-06
1.00025e-05
9.99647e-06
1.00077e-05
1.00006e-05
1.02275e-05
1.09679e-05
1.39696e-05
1.78602e-05
2.92461e-05
6.105e-05
0.000100696
0.000105463
0.000107934
0.000121934
0.000178188
4.18723e-05
0.103358
0.952751
0.998533
0.998824
0.99901
0.998768
0.998271
0.998056
0.998014
0.998014
0.997843
0.997789
0.997746
0.997715
0.998006
0.998278
0.998586
0.998866
0.999141
0.999451
0.999715
0.999883
0.999966
0.999987
0.999978
0.999978
0.99998
0.999984
0.999985
0.999988
0.999992
0.999997
1
1
1
1
1
2.89722e-06
2.88818e-06
3.62966e-06
4.13419e-06
5.12107e-06
5.95417e-06
7.39605e-06
8.29459e-06
9.06193e-06
9.6563e-06
9.83719e-06
9.93151e-06
9.97562e-06
9.99401e-06
1e-05
1.00015e-05
1.00017e-05
1.00018e-05
1.00016e-05
1.00015e-05
1.0001e-05
1.00008e-05
1.00005e-05
1.00002e-05
9.99984e-06
9.9994e-06
9.99902e-06
9.99879e-06
9.99859e-06
9.99845e-06
9.99826e-06
9.99821e-06
9.99801e-06
9.99811e-06
9.99786e-06
9.99818e-06
9.99757e-06
9.99817e-06
9.99681e-06
9.99852e-06
9.99618e-06
9.99988e-06
9.9964e-06
1.00032e-05
9.9975e-06
1.00088e-05
1.0001e-05
1.02052e-05
1.08878e-05
1.37696e-05
1.85654e-05
2.87063e-05
5.35475e-05
8.17183e-05
8.35972e-05
8.26998e-05
7.99875e-05
0.000133687
9.99194e-06
0.183982
0.986308
0.996389
0.995955
0.995741
0.995815
0.995899
0.995622
0.995062
0.994933
0.994975
0.995089
0.995125
0.995135
0.995058
0.99534
0.997014
0.997594
0.998098
0.998953
0.99956
0.999925
0.99999
0.99999
0.99999
0.999989
0.999982
0.999978
0.999968
0.999954
0.999936
0.999923
0.999913
0.999914
0.999947
0.999977
0.999999
2.82427e-06
2.76412e-06
3.09742e-06
3.39328e-06
4.39721e-06
5.16819e-06
6.62983e-06
8.1673e-06
8.92889e-06
9.5878e-06
9.82101e-06
9.92589e-06
9.97221e-06
9.99282e-06
9.99922e-06
1.00015e-05
1.00015e-05
1.00016e-05
1.00014e-05
1.00014e-05
1.00017e-05
1.00019e-05
1.00021e-05
1.00022e-05
1.00022e-05
1.00022e-05
1.00022e-05
1.00022e-05
1.00022e-05
1.00021e-05
1.0002e-05
1.0002e-05
1.0002e-05
1.00021e-05
1.0002e-05
1.00022e-05
1.00019e-05
1.00023e-05
1.00017e-05
1.00029e-05
1.00014e-05
1.00045e-05
1.00016e-05
1.00085e-05
1.0003e-05
1.00172e-05
1.00122e-05
1.02564e-05
1.11259e-05
1.42382e-05
1.94928e-05
2.69158e-05
3.90747e-05
6.49494e-05
8.99883e-05
0.000118735
8.92162e-05
9.18021e-05
9.99194e-06
0.257895
0.986131
0.992733
0.991473
0.991303
0.99183
0.992255
0.992316
0.992123
0.991506
0.991082
0.990924
0.990836
0.991054
0.991604
0.991983
0.992553
0.993492
0.994795
0.996121
0.997525
0.998755
0.99946
0.999753
0.999687
0.999793
1
1
1
1
1
1
1
1
1
0.999988
1
2.78399e-06
2.75458e-06
2.79463e-06
2.79719e-06
3.64388e-06
4.38794e-06
5.90098e-06
7.81501e-06
8.86385e-06
9.55592e-06
9.80171e-06
9.91201e-06
9.9621e-06
9.98787e-06
9.99376e-06
9.99703e-06
9.99657e-06
9.99663e-06
9.99638e-06
9.99668e-06
9.99728e-06
9.99773e-06
9.99802e-06
9.99826e-06
9.99843e-06
9.99854e-06
9.99859e-06
9.99865e-06
9.99868e-06
9.99869e-06
9.99872e-06
9.99879e-06
9.99882e-06
9.99899e-06
9.99904e-06
9.99927e-06
9.99914e-06
9.99947e-06
9.99913e-06
1.00005e-05
9.99954e-06
1.00031e-05
1.00005e-05
1.00075e-05
1.0001e-05
1.00157e-05
1.0008e-05
1.02471e-05
1.12022e-05
1.42541e-05
2.06384e-05
3.8023e-05
5.22751e-05
7.22512e-05
0.000101743
0.00013325
0.000119104
0.000113118
9.99194e-06
0.223452
0.986732
0.99414
0.993146
0.993004
0.993101
0.992493
0.99205
0.992282
0.99312
0.993949
0.993738
0.992638
0.99215
0.992198
0.993296
0.994852
0.995605
0.995544
0.995264
0.996035
0.996885
0.997373
0.997867
0.998161
0.998208
0.998534
0.998586
0.998837
0.999365
0.999314
0.999748
1
0.999894
0.999942
0.999882
0.999972
2.7271e-06
2.79395e-06
2.68173e-06
2.59195e-06
3.04223e-06
3.64814e-06
5.19479e-06
7.27668e-06
8.74877e-06
9.49773e-06
9.74824e-06
9.87365e-06
9.94011e-06
9.9796e-06
9.99312e-06
1.00001e-05
1.00011e-05
1.00012e-05
1.00008e-05
1.00011e-05
1.00012e-05
1.00013e-05
1.00012e-05
1.00011e-05
1.00009e-05
1.00008e-05
1.00006e-05
1.00005e-05
1.00004e-05
1.00003e-05
1.00002e-05
1.00001e-05
9.99999e-06
9.99999e-06
9.99989e-06
9.99993e-06
9.99969e-06
9.9998e-06
9.99942e-06
1.00005e-05
9.99958e-06
1.00033e-05
1.00003e-05
1.00079e-05
1.00012e-05
1.00151e-05
1.00043e-05
1.02374e-05
1.13473e-05
1.52635e-05
2.8369e-05
5.76784e-05
8.80411e-05
0.000103783
0.000104802
0.000126285
0.000122903
0.000138697
4.8156e-05
0.153312
0.979697
0.997181
0.997375
0.997565
0.996931
0.996876
0.997366
0.997474
0.997575
0.998047
0.998349
0.998345
0.998147
0.998157
0.99868
0.999015
0.999182
0.999252
0.999272
0.999267
0.999258
0.999276
0.999265
0.999173
0.999062
0.998967
0.998964
0.998913
0.999324
0.999562
0.99977
0.999991
0.99996
0.999977
0.999973
0.999998
2.61423e-06
2.92843e-06
3.27546e-06
3.15795e-06
2.8904e-06
3.3093e-06
4.67704e-06
6.95533e-06
8.72522e-06
9.43684e-06
9.6748e-06
9.80604e-06
9.88609e-06
9.9436e-06
9.9758e-06
9.99222e-06
9.9959e-06
9.99725e-06
9.99766e-06
9.99852e-06
9.99907e-06
9.99955e-06
9.99981e-06
1e-05
1.00002e-05
1.00003e-05
1.00003e-05
1.00003e-05
1.00002e-05
1.00002e-05
1.00002e-05
1.00001e-05
1.00001e-05
1.00002e-05
1.00001e-05
1.00001e-05
9.99992e-06
9.99997e-06
9.99952e-06
1.00006e-05
9.99952e-06
1.00034e-05
9.99996e-06
1.00082e-05
1.00012e-05
1.00159e-05
1.0004e-05
1.02217e-05
1.1308e-05
1.51251e-05
2.2821e-05
3.40122e-05
4.83272e-05
5.40202e-05
7.93931e-05
0.0001167
0.000159762
0.000160366
0.000305186
0.10759
0.980331
0.999577
0.999707
0.999823
0.999837
0.99987
0.999873
0.999879
0.999881
0.999893
0.999908
0.999919
0.999926
0.999933
0.99994
0.999945
0.999946
0.999946
0.999945
0.999944
0.999941
0.999936
0.999926
0.999908
0.999886
0.999868
0.999858
0.999848
0.999883
0.999913
0.999957
0.999988
0.999992
0.999992
0.999994
0.999999
1.87561e-06
2.55139e-06
3.99117e-06
4.47519e-06
4.53616e-06
4.72787e-06
5.43886e-06
7.64581e-06
8.93315e-06
9.49771e-06
9.71533e-06
9.83176e-06
9.89226e-06
9.93935e-06
9.97135e-06
9.99288e-06
9.99676e-06
9.99783e-06
9.99819e-06
9.999e-06
9.99953e-06
9.99995e-06
1.00002e-05
1.00004e-05
1.00006e-05
1.00008e-05
1.00009e-05
1.00009e-05
1.00008e-05
1.00012e-05
1.00014e-05
1.00017e-05
1.0002e-05
1.00023e-05
1.00025e-05
1.00026e-05
1.00025e-05
1.00026e-05
1.00021e-05
1.00032e-05
1.00019e-05
1.0006e-05
1.0002e-05
1.00119e-05
1.00042e-05
1.00228e-05
1.0012e-05
1.02325e-05
1.11427e-05
1.49333e-05
2.2803e-05
3.52343e-05
4.18955e-05
5.14774e-05
5.82343e-05
8.1195e-05
0.00011378
0.000149434
0.000407873
0.081424
0.979316
0.999959
0.999995
0.999998
0.999999
0.999999
0.999998
0.999998
0.999998
0.999998
0.999998
0.999999
0.999999
0.999999
0.999999
0.999999
0.999999
0.999999
0.999999
0.999999
0.999999
0.999998
0.999999
0.999998
0.999998
0.999997
0.999996
0.999996
0.999996
0.999997
0.999998
0.999998
0.999999
0.999999
0.999999
0.999999
9.3537e-07
3.22901e-06
4.40875e-06
4.85602e-06
5.62487e-06
6.54495e-06
7.15756e-06
8.20325e-06
9.16162e-06
9.61421e-06
9.79403e-06
9.89e-06
9.92722e-06
9.9604e-06
9.98515e-06
1.00041e-05
1.00031e-05
1.00023e-05
1.00019e-05
1.00025e-05
1.00028e-05
1.0003e-05
1.00031e-05
1.00032e-05
1.00032e-05
1.00032e-05
1.00032e-05
1.0003e-05
1.00029e-05
1.00031e-05
1.00034e-05
1.00036e-05
1.00037e-05
1.00039e-05
1.0004e-05
1.0004e-05
1.00038e-05
1.00039e-05
1.00034e-05
1.00047e-05
1.00032e-05
1.00081e-05
1.00042e-05
1.00134e-05
1.00068e-05
1.00309e-05
1.0025e-05
1.02925e-05
1.09864e-05
1.42354e-05
2.14394e-05
3.34978e-05
4.26584e-05
5.65444e-05
5.92676e-05
8.54788e-05
0.000105482
0.000207442
0.000694077
0.061821
0.97586
0.999953
1
0.999999
0.999999
0.999999
0.999999
0.999999
0.999999
0.999999
0.999999
0.999999
0.999999
0.999999
0.999999
0.999999
0.999999
0.999999
0.999999
0.999999
1
1
1
1
1
1
1
1
0.999999
0.999999
0.999999
0.999999
0.999999
0.999999
0.999999
0.999999
2.8213e-06
3.99473e-06
4.33455e-06
4.88236e-06
5.92069e-06
7.05301e-06
7.70531e-06
8.45316e-06
9.34211e-06
9.71563e-06
9.84598e-06
9.91789e-06
9.94266e-06
9.97699e-06
1.00041e-05
1.00069e-05
1.00069e-05
1.00069e-05
1.00066e-05
1.00066e-05
1.00066e-05
1.00066e-05
1.00066e-05
1.00064e-05
1.00063e-05
1.00061e-05
1.00058e-05
1.00055e-05
1.00053e-05
1.00053e-05
1.00053e-05
1.00053e-05
1.00053e-05
1.00052e-05
1.00051e-05
1.0005e-05
1.00047e-05
1.00047e-05
1.00048e-05
1.00052e-05
1.00051e-05
1.00082e-05
1.0006e-05
1.00134e-05
1.00064e-05
1.00344e-05
1.00317e-05
1.02931e-05
1.09519e-05
1.3472e-05
1.9903e-05
3.15367e-05
4.50759e-05
5.8535e-05
5.92446e-05
8.92853e-05
8.93082e-05
0.000283615
0.000633507
0.0569893
0.975643
0.999946
1
1
1
1
0.999999
0.999999
0.999999
0.999999
0.999999
0.999999
1
1
1
1
1
1
1
1
1
1
1
1
1
1
1
1
1
0.999999
0.999999
0.999999
0.999999
0.999999
0.999999
0.999999
2.71347e-06
4.23002e-06
4.99299e-06
5.64328e-06
6.43513e-06
7.48764e-06
8.27082e-06
8.73961e-06
9.4211e-06
9.71888e-06
9.83812e-06
9.90577e-06
9.93358e-06
9.97448e-06
1.00025e-05
1.00063e-05
1.0006e-05
1.00062e-05
1.00055e-05
1.00055e-05
1.00055e-05
1.00054e-05
1.00053e-05
1.00051e-05
1.00049e-05
1.00048e-05
1.00045e-05
1.00042e-05
1.00041e-05
1.00041e-05
1.00042e-05
1.00042e-05
1.00043e-05
1.00043e-05
1.00042e-05
1.00041e-05
1.00039e-05
1.0004e-05
1.00037e-05
1.0005e-05
1.00042e-05
1.00082e-05
1.00052e-05
1.00134e-05
1.00042e-05
1.00338e-05
1.00332e-05
1.02784e-05
1.09786e-05
1.32574e-05
1.88783e-05
2.91837e-05
4.45003e-05
6.00392e-05
6.21278e-05
8.6543e-05
0.000118465
0.000469647
0.00138126
0.0622071
0.97319
0.999934
1
1
1
1
1
1
1
1
1
1
1
1
1
1
1
1
1
1
1
1
1
1
1
1
1
1
1
0.999999
0.999999
0.999999
0.999999
0.999999
0.999999
0.999999
1.94817e-06
1.76022e-06
2.20818e-06
4.58203e-06
6.33238e-06
7.25198e-06
8.32235e-06
8.91623e-06
9.3978e-06
9.67084e-06
9.79701e-06
9.88359e-06
9.93005e-06
9.98104e-06
1.00115e-05
1.00118e-05
1.00118e-05
1.00118e-05
1.00116e-05
1.00114e-05
1.00112e-05
1.00111e-05
1.00109e-05
1.00107e-05
1.00106e-05
1.00105e-05
1.00103e-05
1.00101e-05
1.001e-05
1.001e-05
1.001e-05
1.001e-05
1.001e-05
1.001e-05
1.001e-05
1.00099e-05
1.00097e-05
1.00097e-05
1.00094e-05
1.00114e-05
1.00134e-05
1.00134e-05
1.00134e-05
1.00134e-05
1.00099e-05
1.00351e-05
1.00391e-05
1.02809e-05
1.11434e-05
1.36173e-05
1.85808e-05
2.75297e-05
4.15415e-05
5.74182e-05
7.74491e-05
9.80529e-05
9.80625e-05
0.000299379
0.0002955
0.0608192
0.9764
0.999953
1
1
1
1
1
1
1
1
1
1
1
1
1
1
1
1
1
1
1
1
1
1
1
1
1
1
1
0.999999
0.999999
0.999999
0.999999
0.999999
1
1
4.00298e-06
5.24309e-06
5.89942e-06
6.32303e-06
6.64086e-06
7.24776e-06
8.29511e-06
9.43203e-06
9.84687e-06
9.88352e-06
9.91085e-06
9.94913e-06
9.98572e-06
1.00082e-05
1.00145e-05
1.00145e-05
1.00145e-05
1.00145e-05
1.00142e-05
1.00136e-05
1.00126e-05
1.00122e-05
1.00119e-05
1.00117e-05
1.00116e-05
1.00115e-05
1.00116e-05
1.00118e-05
1.00121e-05
1.00125e-05
1.00127e-05
1.00131e-05
1.00134e-05
1.00135e-05
1.00135e-05
1.00136e-05
1.00137e-05
1.0014e-05
1.0014e-05
1.00161e-05
1.00161e-05
1.00161e-05
1.00161e-05
1.00161e-05
1.00123e-05
1.00286e-05
1.00237e-05
1.01401e-05
1.02674e-05
1.12609e-05
1.37866e-05
2.12723e-05
3.70266e-05
7.40081e-05
9.70081e-05
0.000116565
0.000191325
0.000641945
0.00142523
0.0495031
0.947823
0.999823
0.999999
0.999999
0.999999
0.999999
0.999999
0.999999
0.999999
0.999999
0.999999
0.999999
0.999999
0.999999
0.999999
0.999999
0.999999
0.999999
0.999999
0.999999
0.999999
0.999999
0.999999
0.999999
0.999999
0.999999
0.999999
0.999999
0.999999
0.999999
0.999999
0.999999
0.999999
0.999999
0.999999
1
3.107e-06
4.80523e-06
6.25371e-06
6.7763e-06
7.2913e-06
8.06006e-06
8.96925e-06
9.30863e-06
9.51393e-06
9.61403e-06
9.74424e-06
9.85821e-06
9.94054e-06
9.98874e-06
1.00074e-05
1.00125e-05
1.00125e-05
1.00128e-05
1.00126e-05
1.00131e-05
1.00131e-05
1.00131e-05
1.00129e-05
1.00126e-05
1.00124e-05
1.00122e-05
1.0012e-05
1.00119e-05
1.00117e-05
1.00114e-05
1.00114e-05
1.00114e-05
1.00114e-05
1.00114e-05
1.00115e-05
1.00116e-05
1.00115e-05
1.00119e-05
1.00113e-05
1.00125e-05
1.00111e-05
1.00147e-05
1.00128e-05
1.00161e-05
1.00118e-05
1.00378e-05
1.00748e-05
1.04661e-05
1.10889e-05
1.26343e-05
1.46406e-05
2.19544e-05
3.53114e-05
6.6901e-05
8.36519e-05
9.72034e-05
0.000190698
0.000622497
0.00198963
0.0565818
0.931748
0.999999
0.999999
0.999999
0.999999
0.999999
0.999999
0.999999
0.999999
0.999999
0.999999
0.999999
0.999999
0.999999
0.999999
0.999999
0.999999
0.999999
0.999999
0.999999
0.999999
0.999999
0.999999
0.999999
0.999999
0.999999
0.999999
0.999999
0.999999
0.999999
0.999999
0.999999
0.999999
0.999999
0.999999
1
2.67012e-06
4.07802e-06
5.79945e-06
6.54962e-06
7.31845e-06
7.86557e-06
8.37489e-06
8.75756e-06
9.13557e-06
9.39707e-06
9.63603e-06
9.81228e-06
9.9192e-06
9.98037e-06
1.00044e-05
1.001e-05
1.00101e-05
1.00103e-05
1.00102e-05
1.00103e-05
1.00102e-05
1.00102e-05
1.00099e-05
1.00097e-05
1.00094e-05
1.00092e-05
1.0009e-05
1.00088e-05
1.00086e-05
1.00085e-05
1.00086e-05
1.00086e-05
1.00086e-05
1.00086e-05
1.00086e-05
1.00086e-05
1.00085e-05
1.00087e-05
1.00085e-05
1.00096e-05
1.00088e-05
1.00113e-05
1.0009e-05
1.00148e-05
1.00096e-05
1.00376e-05
1.00763e-05
1.05007e-05
1.12403e-05
1.2809e-05
1.50267e-05
2.2138e-05
3.65319e-05
5.95442e-05
7.13994e-05
8.8997e-05
0.000132817
0.000441629
0.000870933
0.0612539
0.977503
0.999999
0.999999
0.999999
0.999999
0.999999
0.999999
0.999999
0.999999
0.999999
0.999998
0.999999
0.999999
0.999999
0.999999
0.999999
0.999999
0.999999
0.999999
0.999999
0.999999
0.999999
0.999999
0.999999
0.999999
0.999999
0.999999
0.999999
0.999999
0.999999
0.999999
0.999999
0.999999
0.999999
0.999999
1
2.40091e-06
3.36134e-06
5.15088e-06
5.87337e-06
6.49334e-06
7.0695e-06
7.67958e-06
8.24369e-06
8.86491e-06
9.28284e-06
9.58994e-06
9.79673e-06
9.91207e-06
9.97677e-06
1.00032e-05
1.0008e-05
1.00079e-05
1.00079e-05
1.00076e-05
1.00076e-05
1.00074e-05
1.00073e-05
1.00071e-05
1.00069e-05
1.00066e-05
1.00064e-05
1.00062e-05
1.00061e-05
1.0006e-05
1.00059e-05
1.00059e-05
1.00059e-05
1.00059e-05
1.00059e-05
1.0006e-05
1.0006e-05
1.00059e-05
1.00061e-05
1.0006e-05
1.00071e-05
1.00065e-05
1.0009e-05
1.00067e-05
1.00121e-05
1.00058e-05
1.00312e-05
1.00591e-05
1.04704e-05
1.12376e-05
1.29466e-05
1.59658e-05
2.60834e-05
6.28611e-05
9.38766e-05
9.84552e-05
0.000111546
0.000113454
0.000301027
0.000377276
0.0760856
0.993029
0.999977
0.999975
0.999982
0.999982
0.999978
0.99997
0.999964
0.999961
0.999959
0.999957
0.999954
0.999953
0.999957
0.99997
0.999977
0.999979
0.999982
0.999985
0.999991
0.999996
0.999998
0.999999
0.999999
0.999999
0.999999
0.999999
0.999999
0.999999
0.999999
0.999999
0.999999
0.999999
0.999999
0.999999
1
2.21312e-06
2.73271e-06
4.52364e-06
5.41588e-06
6.02496e-06
6.58336e-06
7.21999e-06
7.87188e-06
8.68703e-06
9.2181e-06
9.5718e-06
9.79288e-06
9.91053e-06
9.97575e-06
1.0003e-05
1.0007e-05
1.00068e-05
1.00067e-05
1.00064e-05
1.00063e-05
1.0006e-05
1.00059e-05
1.00058e-05
1.00056e-05
1.00053e-05
1.00051e-05
1.00049e-05
1.00048e-05
1.00047e-05
1.00047e-05
1.00047e-05
1.00047e-05
1.00047e-05
1.00047e-05
1.00047e-05
1.00048e-05
1.00047e-05
1.00049e-05
1.00049e-05
1.00059e-05
1.00054e-05
1.00078e-05
1.00057e-05
1.00108e-05
1.00044e-05
1.00298e-05
1.00687e-05
1.04898e-05
1.12429e-05
1.33278e-05
1.77732e-05
4.5168e-05
8.95052e-05
0.000114683
0.000125103
0.000136988
0.000141847
0.000256874
0.000171022
0.105808
0.990878
0.999345
0.999374
0.999496
0.999499
0.999413
0.999
0.998763
0.998734
0.998689
0.998523
0.997981
0.997572
0.997625
0.998082
0.998184
0.998256
0.998458
0.998622
0.99903
0.999403
0.999609
0.999749
0.999885
0.999969
0.999993
0.999998
0.999999
0.999999
0.999999
0.999999
0.999999
0.999999
0.999999
0.999999
1
2.09328e-06
2.23005e-06
3.7512e-06
4.93401e-06
5.63048e-06
6.25526e-06
6.94824e-06
7.60022e-06
8.5661e-06
9.18316e-06
9.56723e-06
9.80001e-06
9.91447e-06
9.97617e-06
1.00028e-05
1.00062e-05
1.00059e-05
1.00058e-05
1.00054e-05
1.00052e-05
1.00049e-05
1.00047e-05
1.00046e-05
1.00044e-05
1.00041e-05
1.00039e-05
1.00038e-05
1.00037e-05
1.00037e-05
1.00037e-05
1.00037e-05
1.00038e-05
1.00038e-05
1.00039e-05
1.00039e-05
1.0004e-05
1.0004e-05
1.00042e-05
1.00042e-05
1.00053e-05
1.00048e-05
1.00072e-05
1.00049e-05
1.00101e-05
1.00039e-05
1.00293e-05
1.00707e-05
1.049e-05
1.11758e-05
1.35354e-05
1.91506e-05
5.50545e-05
9.20923e-05
0.000110366
0.000130079
0.000144505
0.000144937
0.000146791
7.90989e-05
0.172238
0.979893
0.994095
0.99405
0.994542
0.993858
0.992744
0.989921
0.987996
0.987217
0.986285
0.98484
0.983701
0.9829
0.982523
0.98226
0.981875
0.981583
0.981574
0.983309
0.986238
0.987933
0.989483
0.991138
0.994185
0.997155
0.99871
0.999563
0.999902
0.999985
0.999998
1
1
0.999999
0.999999
0.999999
1
2.04416e-06
1.94482e-06
2.97715e-06
4.22611e-06
5.21968e-06
5.96249e-06
6.76136e-06
7.40975e-06
8.49284e-06
9.16941e-06
9.57582e-06
9.80939e-06
9.91878e-06
9.97844e-06
1.00024e-05
1.00058e-05
1.00055e-05
1.00053e-05
1.00049e-05
1.00048e-05
1.00045e-05
1.00043e-05
1.00042e-05
1.0004e-05
1.00038e-05
1.00036e-05
1.00035e-05
1.00034e-05
1.00034e-05
1.00034e-05
1.00035e-05
1.00036e-05
1.00036e-05
1.00037e-05
1.00037e-05
1.00038e-05
1.00038e-05
1.0004e-05
1.0004e-05
1.00051e-05
1.00045e-05
1.00071e-05
1.00046e-05
1.001e-05
1.00037e-05
1.00284e-05
1.00617e-05
1.04595e-05
1.11586e-05
1.3668e-05
1.75021e-05
3.30606e-05
6.11722e-05
7.44272e-05
7.65395e-05
7.8745e-05
7.37312e-05
4.25138e-05
9.99194e-06
0.307689
0.96572
0.978559
0.976863
0.976078
0.974204
0.971902
0.96915
0.96651
0.964785
0.963645
0.962425
0.96146
0.960694
0.959515
0.957997
0.956197
0.95524
0.954386
0.953552
0.953395
0.954202
0.955795
0.959107
0.963767
0.969075
0.975674
0.982793
0.989639
0.994801
0.997425
0.997813
0.997449
0.997469
0.997172
0.99686
0.996416
2.04362e-06
1.83598e-06
2.38882e-06
3.25799e-06
4.47739e-06
5.44482e-06
6.52162e-06
7.24875e-06
8.44861e-06
9.16743e-06
9.58973e-06
9.82028e-06
9.92441e-06
9.98064e-06
1.00022e-05
1.00053e-05
1.00051e-05
1.00051e-05
1.00048e-05
1.00047e-05
1.00046e-05
1.00046e-05
1.00046e-05
1.00045e-05
1.00044e-05
1.00042e-05
1.00041e-05
1.0004e-05
1.00039e-05
1.00039e-05
1.00039e-05
1.00039e-05
1.00039e-05
1.00038e-05
1.00038e-05
1.00038e-05
1.00038e-05
1.00041e-05
1.0004e-05
1.0005e-05
1.00044e-05
1.00071e-05
1.00044e-05
1.00101e-05
1.00034e-05
1.00274e-05
1.00502e-05
1.04415e-05
1.13009e-05
1.4331e-05
2.68383e-05
6.40725e-05
9.79194e-05
9.86129e-05
0.000130928
0.000116669
6.57229e-05
2.69246e-05
9.99194e-06
0.429742
0.954375
0.96286
0.960674
0.9601
0.960147
0.95977
0.959321
0.958161
0.956109
0.954258
0.953944
0.9539
0.953709
0.953766
0.952405
0.950223
0.948318
0.946486
0.944363
0.941328
0.937088
0.932964
0.930178
0.928805
0.926901
0.924562
0.921201
0.917765
0.914628
0.909492
0.90129
0.889765
0.875349
0.851627
0.803493
0.604493
2.14021e-06
1.8101e-06
2.00299e-06
2.3369e-06
3.30726e-06
4.33304e-06
5.87727e-06
7.03284e-06
8.4009e-06
9.1819e-06
9.609e-06
9.83353e-06
9.93218e-06
9.98484e-06
1.00042e-05
1.00066e-05
1.00064e-05
1.00063e-05
1.00059e-05
1.00058e-05
1.00058e-05
1.00057e-05
1.00057e-05
1.00055e-05
1.00053e-05
1.00052e-05
1.00051e-05
1.0005e-05
1.0005e-05
1.0005e-05
1.0005e-05
1.00051e-05
1.00051e-05
1.00052e-05
1.00052e-05
1.00053e-05
1.00053e-05
1.00056e-05
1.00055e-05
1.00061e-05
1.00056e-05
1.00086e-05
1.00054e-05
1.00119e-05
1.00041e-05
1.0028e-05
1.00417e-05
1.04097e-05
1.13728e-05
1.5267e-05
4.52429e-05
0.00010323
0.000128518
0.000136498
0.000155474
0.000129378
8.5151e-05
3.98393e-05
9.99194e-06
0.363858
0.963392
0.973616
0.972902
0.972672
0.9741
0.975435
0.976999
0.97765
0.977886
0.977906
0.975284
0.972202
0.972904
0.976909
0.978465
0.979438
0.979483
0.977208
0.974473
0.971391
0.96678
0.959889
0.951327
0.942679
0.934764
0.92754
0.921195
0.915203
0.909464
0.904838
0.901949
0.900249
0.899224
0.90535
0.915295
0.927709
2.11966e-06
1.88373e-06
1.85345e-06
1.75721e-06
2.0972e-06
2.86557e-06
4.6704e-06
6.644e-06
8.32974e-06
9.18342e-06
9.62463e-06
9.84479e-06
9.94003e-06
9.98831e-06
1.00053e-05
1.00076e-05
1.00075e-05
1.00075e-05
1.00073e-05
1.00072e-05
1.00072e-05
1.00071e-05
1.00071e-05
1.0007e-05
1.00068e-05
1.00066e-05
1.00065e-05
1.00063e-05
1.00062e-05
1.00062e-05
1.00061e-05
1.00061e-05
1.00062e-05
1.00061e-05
1.00061e-05
1.00061e-05
1.0006e-05
1.00063e-05
1.00062e-05
1.00063e-05
1.0006e-05
1.0009e-05
1.00057e-05
1.00125e-05
1.00041e-05
1.0028e-05
1.00345e-05
1.03643e-05
1.13496e-05
1.57826e-05
5.91944e-05
0.000111456
0.000125981
0.000127497
0.000128917
0.000102465
8.77882e-05
5.0311e-05
9.99194e-06
0.259119
0.982282
0.991673
0.991911
0.993363
0.994035
0.994607
0.9948
0.994708
0.99455
0.99472
0.994802
0.994752
0.99476
0.994828
0.995012
0.995902
0.996115
0.995688
0.995427
0.994881
0.994062
0.992741
0.990344
0.986748
0.982082
0.976519
0.970274
0.964663
0.960398
0.958255
0.957925
0.966197
0.975439
0.98553
0.993183
0.997367
2.15119e-06
2.05118e-06
1.85876e-06
1.63994e-06
1.67239e-06
1.80888e-06
3.18644e-06
6.02655e-06
8.24565e-06
9.17362e-06
9.6445e-06
9.85888e-06
9.9484e-06
9.99048e-06
1.00054e-05
1.00076e-05
1.00076e-05
1.00076e-05
1.00076e-05
1.00076e-05
1.00076e-05
1.00076e-05
1.00076e-05
1.00074e-05
1.00073e-05
1.00071e-05
1.00069e-05
1.00068e-05
1.00067e-05
1.00067e-05
1.00066e-05
1.00067e-05
1.00067e-05
1.00067e-05
1.00067e-05
1.00067e-05
1.00067e-05
1.00071e-05
1.00072e-05
1.00072e-05
1.0007e-05
1.00098e-05
1.00067e-05
1.00131e-05
1.00043e-05
1.0028e-05
1.003e-05
1.03138e-05
1.1159e-05
1.39248e-05
1.85143e-05
2.83554e-05
3.75127e-05
5.36818e-05
0.00010106
0.000201629
0.000206999
0.000191017
0.000167821
0.156069
0.994233
0.999184
0.999248
0.999419
0.999473
0.999536
0.999539
0.999535
0.999539
0.999537
0.99953
0.999542
0.999566
0.999584
0.9996
0.99961
0.999602
0.99958
0.999566
0.999533
0.999483
0.999392
0.999164
0.99873
0.998138
0.99759
0.997242
0.996524
0.995977
0.996527
0.997477
0.9982
0.999164
0.999708
0.999926
0.999978
1.68661e-06
2.18119e-06
2.0525e-06
2.10619e-06
2.44813e-06
2.68312e-06
3.18181e-06
5.91069e-06
8.25868e-06
9.2219e-06
9.68342e-06
9.88297e-06
9.96026e-06
9.9932e-06
1.00052e-05
1.00075e-05
1.00075e-05
1.00076e-05
1.00076e-05
1.00076e-05
1.00075e-05
1.00075e-05
1.00074e-05
1.00073e-05
1.00072e-05
1.0007e-05
1.00069e-05
1.00068e-05
1.00067e-05
1.00066e-05
1.00065e-05
1.00064e-05
1.00063e-05
1.00063e-05
1.00063e-05
1.00062e-05
1.00059e-05
1.00061e-05
1.00061e-05
1.00072e-05
1.0006e-05
1.00098e-05
1.00062e-05
1.00131e-05
1.0004e-05
1.00264e-05
1.00289e-05
1.02858e-05
1.1089e-05
1.37726e-05
1.85051e-05
2.88968e-05
4.05124e-05
5.7485e-05
5.99603e-05
0.000118285
0.000178313
0.000227115
0.000283756
0.123692
0.996458
0.999969
0.999968
0.99998
0.999981
0.999982
0.999981
0.999983
0.999983
0.999982
0.999982
0.999983
0.999983
0.999984
0.999984
0.999984
0.999983
0.999982
0.999981
0.999979
0.999975
0.999972
0.999968
0.999961
0.99995
0.999944
0.999941
0.999941
0.999954
0.99997
0.999984
0.99999
0.999996
0.999999
0.999999
0.999999
1.95418e-06
2.23281e-06
1.81131e-06
2.36202e-06
3.29147e-06
4.8261e-06
6.3629e-06
8.30082e-06
9.05263e-06
9.42536e-06
9.74315e-06
9.90636e-06
9.96522e-06
9.99205e-06
1.00055e-05
1.00076e-05
1.00076e-05
1.00076e-05
1.00076e-05
1.00076e-05
1.00076e-05
1.00076e-05
1.00075e-05
1.00074e-05
1.00072e-05
1.00071e-05
1.0007e-05
1.00068e-05
1.00066e-05
1.00063e-05
1.00062e-05
1.0006e-05
1.00059e-05
1.00057e-05
1.00054e-05
1.00052e-05
1.0005e-05
1.0005e-05
1.00044e-05
1.00059e-05
1.00043e-05
1.00085e-05
1.00056e-05
1.00109e-05
1.0004e-05
1.00235e-05
1.00281e-05
1.02757e-05
1.10411e-05
1.35973e-05
1.79415e-05
2.81612e-05
4.27035e-05
5.89801e-05
5.91058e-05
8.54216e-05
0.000131425
0.000202386
0.000522386
0.0768146
0.987669
1
0.999999
0.999999
0.999999
0.999998
0.999998
0.999999
0.999999
0.999999
0.999999
0.999999
0.999999
0.999999
0.999999
0.999999
0.999999
0.999999
0.999999
0.999999
0.999999
0.999999
0.999999
0.999999
0.999999
0.999999
0.999999
0.999999
0.999999
0.999999
0.999999
0.999999
0.999999
0.999999
0.999999
0.999999
2.12228e-06
2.25558e-06
1.87174e-06
2.33949e-06
3.63416e-06
5.7769e-06