/*--------------------------------*- C++ -*----------------------------------*\
| =========                 |                                                 |
| \\      /  F ield         | OpenFOAM: The Open Source CFD Toolbox           |
|  \\    /   O peration     | Version:  2.3.0                                 |
|   \\  /    A nd           | Web:      www.OpenFOAM.org                      |
|    \\/     M anipulation  |                                                 |
\*---------------------------------------------------------------------------*/
FoamFile
{
    version     2.0;
    format      ascii;
    class       volScalarField;
    location    "39";
    object      alpha.airMean;
}
// * * * * * * * * * * * * * * * * * * * * * * * * * * * * * * * * * * * * * //

dimensions      [0 0 0 0 0 0 0];

internalField   nonuniform List<scalar> 
6144
(
0.999993
0.999993
0.999992
0.999992
0.999992
0.999991
0.999991
0.99999
0.99999
0.99999
0.99999
0.99999
0.99999
0.99999
0.99999
0.99999
0.99999
0.99999
0.99999
0.99999
0.99999
0.99999
0.99999
0.99999
0.99999
0.99999
0.99999
0.99999
0.99999
0.99999
0.99999
0.99999
0.99999
0.99999
0.99999
0.99999
0.99999
0.99999
0.99999
0.99999
0.99999
0.99999
0.99999
0.99999
0.99999
0.999989
0.999986
0.999979
0.999968
0.999952
0.999939
0.999926
0.99992
0.999914
0.99991
0.999904
0.999901
0.999895
0.99872
0.935765
0.0369576
0.000242567
1.11188e-06
7.92388e-07
7.90725e-07
7.84172e-07
7.8466e-07
7.79328e-07
7.80317e-07
7.76833e-07
7.76483e-07
7.73508e-07
7.708e-07
7.67539e-07
7.64542e-07
7.61427e-07
7.60173e-07
7.58787e-07
7.56179e-07
7.50588e-07
7.42397e-07
7.34009e-07
7.26669e-07
7.1842e-07
7.06107e-07
6.86563e-07
6.6807e-07
6.52679e-07
6.327e-07
6.03278e-07
5.71561e-07
5.44526e-07
5.077e-07
4.67057e-07
4.2794e-07
4.1115e-07
0.999993
0.999993
0.999992
0.999992
0.999991
0.999991
0.999991
0.99999
0.99999
0.99999
0.99999
0.99999
0.99999
0.99999
0.99999
0.99999
0.99999
0.99999
0.99999
0.99999
0.99999
0.99999
0.99999
0.99999
0.99999
0.99999
0.99999
0.99999
0.99999
0.99999
0.99999
0.99999
0.99999
0.99999
0.99999
0.99999
0.99999
0.99999
0.99999
0.99999
0.99999
0.99999
0.99999
0.99999
0.99999
0.999989
0.999986
0.999979
0.99997
0.999959
0.999941
0.999924
0.999916
0.999908
0.999903
0.999896
0.999896
0.999886
0.999385
0.950327
0.0313453
0.000130427
8.59491e-07
8.27649e-07
8.20203e-07
8.17246e-07
8.16653e-07
8.14001e-07
8.13429e-07
8.04011e-07
8.00548e-07
7.93257e-07
7.90274e-07
7.86407e-07
7.83406e-07
7.80398e-07
7.79608e-07
7.77912e-07
7.72384e-07
7.6354e-07
7.52739e-07
7.41589e-07
7.29163e-07
7.17101e-07
7.02246e-07
6.85007e-07
6.70386e-07
6.59948e-07
6.48634e-07
6.30063e-07
6.06253e-07
5.73049e-07
5.3494e-07
5.01937e-07
4.64491e-07
4.25966e-07
0.999994
0.999993
0.999992
0.999992
0.999992
0.999991
0.999991
0.99999
0.99999
0.99999
0.99999
0.99999
0.99999
0.99999
0.99999
0.99999
0.99999
0.99999
0.99999
0.99999
0.99999
0.99999
0.99999
0.99999
0.99999
0.99999
0.99999
0.99999
0.99999
0.99999
0.99999
0.99999
0.99999
0.99999
0.99999
0.99999
0.99999
0.99999
0.99999
0.99999
0.99999
0.99999
0.99999
0.99999
0.99999
0.999989
0.999985
0.99998
0.999972
0.999959
0.999935
0.999917
0.999908
0.999899
0.999895
0.999889
0.999891
0.99988
0.999582
0.941582
0.0272033
8.492e-05
1.62604e-06
1.64654e-06
1.61715e-06
1.57132e-06
1.4029e-06
1.21434e-06
1.03753e-06
9.14521e-07
8.61698e-07
8.37447e-07
8.25426e-07
8.14555e-07
8.1186e-07
8.07335e-07
8.03308e-07
7.96618e-07
7.86632e-07
7.75493e-07
7.64186e-07
7.49919e-07
7.33904e-07
7.16277e-07
7.0047e-07
6.87157e-07
6.78038e-07
6.74143e-07
6.66897e-07
6.5178e-07
6.32735e-07
6.0009e-07
5.55273e-07
5.17933e-07
4.85108e-07
4.37409e-07
0.999994
0.999994
0.999993
0.999992
0.999992
0.999991
0.999991
0.99999
0.99999
0.99999
0.99999
0.99999
0.99999
0.99999
0.99999
0.99999
0.99999
0.99999
0.99999
0.99999
0.99999
0.99999
0.99999
0.99999
0.99999
0.99999
0.99999
0.99999
0.99999
0.99999
0.99999
0.99999
0.99999
0.99999
0.99999
0.99999
0.99999
0.99999
0.99999
0.99999
0.99999
0.99999
0.99999
0.99999
0.99999
0.999988
0.999985
0.99998
0.999971
0.999955
0.999928
0.99991
0.9999
0.999892
0.999888
0.999883
0.999886
0.999872
0.999685
0.917765
0.0222672
7.24828e-05
2.96662e-05
2.68575e-05
2.59374e-05
2.44023e-05
2.16852e-05
1.76499e-05
1.30649e-05
8.69387e-06
5.33351e-06
3.08933e-06
1.87523e-06
1.3473e-06
1.15423e-06
1.04861e-06
9.53183e-07
8.746e-07
8.20738e-07
7.90068e-07
7.79988e-07
7.701e-07
7.5825e-07
7.4336e-07
7.37189e-07
7.39286e-07
7.35164e-07
7.31051e-07
7.18875e-07
6.90142e-07
6.65525e-07
6.3246e-07
5.8075e-07
5.35778e-07
5.00347e-07
4.47316e-07
0.999994
0.999994
0.999993
0.999993
0.999992
0.999992
0.999991
0.999991
0.99999
0.99999
0.99999
0.99999
0.99999
0.99999
0.99999
0.99999
0.99999
0.99999
0.99999
0.99999
0.99999
0.99999
0.99999
0.99999
0.99999
0.99999
0.99999
0.99999
0.99999
0.99999
0.99999
0.99999
0.99999
0.99999
0.99999
0.99999
0.99999
0.99999
0.99999
0.99999
0.99999
0.99999
0.99999
0.99999
0.999989
0.999988
0.999985
0.999979
0.999969
0.999949
0.999922
0.999903
0.999894
0.999887
0.999884
0.99988
0.999881
0.999866
0.999724
0.887059
0.023499
0.00049188
0.000442079
0.000389031
0.000372861
0.0003475
0.000315659
0.000274922
0.000233928
0.000192048
0.000152008
0.000117106
8.85066e-05
6.74675e-05
5.37384e-05
4.47017e-05
3.81736e-05
3.30883e-05
2.90623e-05
2.59465e-05
2.38445e-05
2.2487e-05
2.15343e-05
1.99639e-05
1.90796e-05
1.80599e-05
1.64968e-05
1.42495e-05
1.17222e-05
8.53968e-06
5.1343e-06
2.75669e-06
1.40226e-06
7.74459e-07
5.66027e-07
4.8557e-07
0.999994
0.999994
0.999993
0.999993
0.999992
0.999992
0.999991
0.999991
0.99999
0.99999
0.99999
0.99999
0.99999
0.99999
0.99999
0.99999
0.99999
0.99999
0.99999
0.99999
0.99999
0.99999
0.99999
0.99999
0.99999
0.99999
0.99999
0.99999
0.99999
0.99999
0.99999
0.99999
0.99999
0.99999
0.99999
0.99999
0.99999
0.99999
0.99999
0.99999
0.99999
0.99999
0.99999
0.99999
0.999989
0.999987
0.999984
0.999978
0.999967
0.999946
0.999918
0.999898
0.99989
0.999884
0.999883
0.999881
0.999884
0.999866
0.999762
0.844647
0.0235826
0.00261208
0.00267194
0.00253412
0.0025109
0.00240789
0.00229691
0.00216169
0.00202661
0.0018859
0.00173719
0.0015884
0.00144056
0.00129952
0.00117246
0.00106257
0.000971607
0.000895855
0.000830534
0.000770373
0.000707884
0.000645796
0.000583194
0.000528534
0.000491968
0.000471389
0.000452606
0.000425237
0.000380751
0.00031462
0.000236971
0.000160826
9.58949e-05
4.73242e-05
1.80051e-05
7.0006e-06
0.999994
0.999994
0.999994
0.999993
0.999993
0.999992
0.999992
0.999991
0.999991
0.99999
0.99999
0.99999
0.99999
0.99999
0.99999
0.99999
0.99999
0.99999
0.99999
0.99999
0.99999
0.99999
0.99999
0.99999
0.99999
0.99999
0.99999
0.99999
0.99999
0.99999
0.99999
0.99999
0.99999
0.99999
0.99999
0.99999
0.99999
0.99999
0.99999
0.99999
0.99999
0.99999
0.99999
0.99999
0.999989
0.999987
0.999984
0.999977
0.999966
0.999943
0.999914
0.999896
0.999888
0.999885
0.999885
0.999883
0.999886
0.999877
0.999829
0.795834
0.0257474
0.006933
0.00728736
0.00718784
0.00713443
0.00701417
0.00688421
0.00675934
0.00663237
0.00648877
0.0063446
0.00616806
0.00599319
0.00579699
0.00559347
0.0053745
0.0051668
0.00494831
0.0047326
0.00449984
0.00425986
0.00401375
0.00377725
0.0035589
0.00335883
0.00316875
0.00299133
0.00279451
0.00255839
0.00230278
0.00201402
0.00170237
0.00137015
0.00100866
0.000621182
0.000326923
0.999994
0.999994
0.999994
0.999994
0.999993
0.999992
0.999992
0.999991
0.999991
0.99999
0.99999
0.99999
0.99999
0.99999
0.99999
0.99999
0.99999
0.99999
0.99999
0.99999
0.99999
0.99999
0.99999
0.99999
0.99999
0.99999
0.99999
0.99999
0.99999
0.99999
0.99999
0.99999
0.99999
0.99999
0.99999
0.99999
0.99999
0.99999
0.99999
0.99999
0.99999
0.99999
0.99999
0.99999
0.999989
0.999988
0.999984
0.999976
0.999961
0.99994
0.999912
0.999896
0.999889
0.999888
0.999889
0.99989
0.999892
0.99988
0.999811
0.779385
0.0281988
0.0106944
0.0113164
0.0113355
0.0112673
0.0112165
0.0111736
0.0111843
0.0112036
0.011234
0.0112834
0.0113213
0.0113454
0.0113501
0.0113433
0.0113212
0.0112814
0.0112124
0.0111205
0.0110439
0.0110074
0.0110398
0.0111608
0.0113791
0.0116592
0.0119793
0.0123106
0.0126284
0.0129332
0.0132266
0.0134335
0.0135135
0.0133601
0.0127876
0.0114229
0.00936312
0.999995
0.999994
0.999994
0.999994
0.999993
0.999992
0.999992
0.999991
0.999991
0.999991
0.99999
0.99999
0.99999
0.99999
0.99999
0.99999
0.99999
0.99999
0.99999
0.99999
0.99999
0.99999
0.99999
0.99999
0.99999
0.99999
0.99999
0.99999
0.99999
0.99999
0.99999
0.99999
0.99999
0.99999
0.99999
0.99999
0.99999
0.99999
0.99999
0.99999
0.99999
0.99999
0.99999
0.99999
0.999989
0.999988
0.999983
0.999975
0.999961
0.999941
0.999916
0.999899
0.999892
0.99989
0.999891
0.999891
0.999895
0.999884
0.999801
0.842175
0.0265029
0.00616555
0.00601397
0.00541362
0.00508417
0.00484433
0.00471783
0.00463331
0.00459569
0.0045818
0.00459964
0.0046205
0.00464746
0.00467292
0.00470141
0.00472976
0.004756
0.00477097
0.00476834
0.00475182
0.00473379
0.00470286
0.00466367
0.00460626
0.00453082
0.0044571
0.00439099
0.00433042
0.00425298
0.00414369
0.00399242
0.00371179
0.00325143
0.00258648
0.0016553
0.000857798
0.999995
0.999994
0.999994
0.999994
0.999993
0.999993
0.999992
0.999991
0.999991
0.999991
0.99999
0.99999
0.99999
0.99999
0.99999
0.99999
0.99999
0.99999
0.99999
0.99999
0.99999
0.99999
0.99999
0.99999
0.99999
0.99999
0.99999
0.99999
0.99999
0.99999
0.99999
0.99999
0.99999
0.99999
0.99999
0.99999
0.99999
0.99999
0.99999
0.99999
0.99999
0.99999
0.99999
0.99999
0.999989
0.999987
0.999983
0.999976
0.999964
0.999948
0.999923
0.999905
0.999896
0.999892
0.999892
0.999891
0.999896
0.999888
0.999862
0.904012
0.0218517
0.00165823
0.00142974
0.00110543
0.000983747
0.000905974
0.000878994
0.00085656
0.000850292
0.000844842
0.000843199
0.000838405
0.000835252
0.000832127
0.00083073
0.000830955
0.000836774
0.0008484
0.000878675
0.000920938
0.000971767
0.00102888
0.00107775
0.00110773
0.00112178
0.00112962
0.00112916
0.00111699
0.0010866
0.0010178
0.000900924
0.000730126
0.000524026
0.000306863
0.00013651
5.93259e-05
0.999995
0.999995
0.999994
0.999994
0.999993
0.999993
0.999992
0.999991
0.999991
0.99999
0.99999
0.99999
0.99999
0.99999
0.99999
0.99999
0.99999
0.99999
0.99999
0.99999
0.99999
0.99999
0.99999
0.99999
0.99999
0.99999
0.99999
0.99999
0.99999
0.99999
0.99999
0.99999
0.99999
0.99999
0.99999
0.99999
0.99999
0.99999
0.99999
0.99999
0.99999
0.99999
0.99999
0.99999
0.999989
0.999987
0.999983
0.999977
0.999967
0.999953
0.999933
0.999914
0.999904
0.999896
0.999895
0.999892
0.999897
0.999887
0.999869
0.943907
0.0235496
0.00021059
0.000124111
8.2346e-05
7.43984e-05
7.05864e-05
7.18144e-05
7.2105e-05
7.18702e-05
7.12469e-05
7.05072e-05
6.90415e-05
6.71759e-05
6.48569e-05
6.25082e-05
5.99471e-05
5.8212e-05
5.80416e-05
6.0918e-05
6.62152e-05
7.33502e-05
8.08892e-05
8.75708e-05
9.29089e-05
9.75604e-05
0.000101939
0.000106072
0.000107003
0.000101868
9.06559e-05
7.25273e-05
4.96372e-05
2.8202e-05
1.22887e-05
4.59074e-06
2.1759e-06
0.999996
0.999995
0.999995
0.999994
0.999994
0.999993
0.999992
0.999991
0.999991
0.99999
0.99999
0.99999
0.99999
0.99999
0.99999
0.99999
0.99999
0.99999
0.99999
0.99999
0.99999
0.99999
0.99999
0.99999
0.99999
0.99999
0.99999
0.99999
0.99999
0.99999
0.99999
0.99999
0.99999
0.99999
0.99999
0.99999
0.99999
0.99999
0.99999
0.99999
0.99999
0.99999
0.99999
0.99999
0.999989
0.999987
0.999984
0.999977
0.999968
0.999955
0.99994
0.999924
0.999912
0.999902
0.999899
0.999895
0.999899
0.999885
0.99982
0.966873
0.0356276
9.38386e-05
3.19319e-06
2.05747e-06
2.08463e-06
2.20779e-06
2.39591e-06
2.49122e-06
2.44592e-06
2.47937e-06
2.50003e-06
2.43229e-06
2.29594e-06
2.12638e-06
1.94221e-06
1.76865e-06
1.65335e-06
1.58774e-06
1.62983e-06
1.73865e-06
1.91681e-06
2.16029e-06
2.44461e-06
2.73077e-06
3.00512e-06
3.2641e-06
3.46453e-06
3.43444e-06
3.1104e-06
2.6441e-06
2.07961e-06
1.47026e-06
9.81983e-07
6.95406e-07
5.70778e-07
4.79945e-07
0.999996
0.999996
0.999995
0.999995
0.999994
0.999993
0.999992
0.999991
0.999991
0.99999
0.99999
0.99999
0.99999
0.99999
0.99999
0.99999
0.99999
0.99999
0.99999
0.99999
0.99999
0.99999
0.99999
0.99999
0.99999
0.99999
0.99999
0.99999
0.99999
0.99999
0.99999
0.99999
0.99999
0.99999
0.99999
0.99999
0.99999
0.99999
0.99999
0.99999
0.99999
0.99999
0.99999
0.99999
0.999989
0.999988
0.999985
0.999978
0.999969
0.999956
0.999942
0.999929
0.99992
0.999909
0.999904
0.999899
0.999902
0.999883
0.999734
0.974289
0.0495917
0.000176885
9.86029e-07
9.04656e-07
8.96221e-07
8.95571e-07
8.91222e-07
8.86168e-07
8.78658e-07
8.71252e-07
8.66609e-07
8.60468e-07
8.56424e-07
8.5009e-07
8.39779e-07
8.29155e-07
8.25044e-07
8.22301e-07
8.16392e-07
8.10915e-07
8.08499e-07
8.0805e-07
8.02495e-07
7.92729e-07
7.79904e-07
7.64077e-07
7.48517e-07
7.32044e-07
7.08522e-07
6.83069e-07
6.61208e-07
6.3205e-07
5.92914e-07
5.64083e-07
5.19017e-07
4.4566e-07
0.999997
0.999996
0.999996
0.999995
0.999995
0.999994
0.999993
0.999991
0.999991
0.99999
0.99999
0.99999
0.99999
0.99999
0.99999
0.99999
0.99999
0.99999
0.99999
0.99999
0.99999
0.99999
0.99999
0.99999
0.99999
0.99999
0.99999
0.99999
0.99999
0.99999
0.99999
0.99999
0.99999
0.99999
0.99999
0.99999
0.99999
0.99999
0.99999
0.99999
0.99999
0.99999
0.99999
0.99999
0.999989
0.999988
0.999985
0.999979
0.999969
0.999956
0.999942
0.99993
0.999922
0.999912
0.999908
0.999902
0.999901
0.999872
0.999657
0.97104
0.0592795
0.000326213
1.23396e-06
8.83127e-07
8.73862e-07
8.73326e-07
8.75434e-07
8.70804e-07
8.66692e-07
8.60985e-07
8.56272e-07
8.48785e-07
8.429e-07
8.35969e-07
8.29272e-07
8.22672e-07
8.168e-07
8.12886e-07
8.0834e-07
8.03874e-07
8.00152e-07
7.98596e-07
7.96708e-07
7.91966e-07
7.83308e-07
7.69796e-07
7.49849e-07
7.26897e-07
6.95477e-07
6.59302e-07
6.31352e-07
6.11686e-07
5.85031e-07
5.61646e-07
5.20256e-07
4.4455e-07
0.999997
0.999996
0.999996
0.999996
0.999996
0.999995
0.999994
0.999992
0.999991
0.99999
0.99999
0.99999
0.99999
0.99999
0.99999
0.99999
0.99999
0.99999
0.99999
0.99999
0.99999
0.99999
0.99999
0.99999
0.99999
0.99999
0.99999
0.99999
0.99999
0.99999
0.99999
0.99999
0.99999
0.99999
0.99999
0.99999
0.99999
0.99999
0.99999
0.99999
0.99999
0.99999
0.99999
0.99999
0.99999
0.999988
0.999985
0.99998
0.99997
0.999957
0.999943
0.999931
0.999923
0.999915
0.99991
0.999903
0.999897
0.999872
0.999598
0.965043
0.058824
0.00030584
1.15979e-06
8.72521e-07
8.64452e-07
8.57627e-07
8.55746e-07
8.51686e-07
8.50032e-07
8.44513e-07
8.4228e-07
8.37069e-07
8.31918e-07
8.26618e-07
8.21139e-07
8.15131e-07
8.09512e-07
8.06814e-07
8.04099e-07
8.00805e-07
7.96855e-07
7.92509e-07
7.89154e-07
7.8605e-07
7.81488e-07
7.73111e-07
7.58438e-07
7.36194e-07
7.03211e-07
6.61985e-07
6.28158e-07
6.02228e-07
5.78308e-07
5.49214e-07
5.0387e-07
4.40195e-07
0.999998
0.999997
0.999997
0.999996
0.999996
0.999995
0.999995
0.999993
0.999991
0.99999
0.99999
0.99999
0.99999
0.99999
0.99999
0.99999
0.99999
0.99999
0.99999
0.99999
0.99999
0.99999
0.99999
0.99999
0.99999
0.99999
0.99999
0.99999
0.99999
0.99999
0.99999
0.99999
0.99999
0.99999
0.99999
0.99999
0.99999
0.99999
0.99999
0.99999
0.99999
0.99999
0.99999
0.99999
0.99999
0.999988
0.999986
0.99998
0.99997
0.999956
0.999941
0.99993
0.999924
0.999917
0.999913
0.999903
0.9999
0.999878
0.999279
0.956061
0.0638335
0.00056874
1.8604e-06
8.69397e-07
8.65553e-07
8.57657e-07
8.53206e-07
8.46887e-07
8.45641e-07
8.40507e-07
8.37541e-07
8.33153e-07
8.29138e-07
8.25239e-07
8.21308e-07
8.17141e-07
8.12866e-07
8.08823e-07
8.05104e-07
8.02265e-07
7.98292e-07
7.92717e-07
7.88477e-07
7.84749e-07
7.80462e-07
7.75727e-07
7.66871e-07
7.49645e-07
7.2104e-07
6.81956e-07
6.37376e-07
5.95902e-07
5.62457e-07
5.19238e-07
4.7693e-07
4.26326e-07
0.999993
0.999993
0.999992
0.999992
0.999992
0.999991
0.999991
0.99999
0.99999
0.99999
0.99999
0.99999
0.99999
0.99999
0.99999
0.99999
0.99999
0.99999
0.99999
0.99999
0.99999
0.99999
0.99999
0.99999
0.99999
0.99999
0.99999
0.99999
0.99999
0.99999
0.99999
0.99999
0.99999
0.99999
0.99999
0.99999
0.99999
0.99999
0.99999
0.99999
0.99999
0.99999
0.99999
0.99999
0.99999
0.999989
0.999986
0.99998
0.999968
0.999952
0.999939
0.999928
0.999921
0.999916
0.999913
0.999907
0.999906
0.999882
0.999215
0.946795
0.0359275
0.000136207
8.54205e-07
7.94033e-07
7.89778e-07
7.81206e-07
7.80815e-07
7.74789e-07
7.7476e-07
7.70788e-07
7.70414e-07
7.66937e-07
7.64922e-07
7.61516e-07
7.58636e-07
7.56121e-07
7.54386e-07
7.53104e-07
7.51154e-07
7.46408e-07
7.40775e-07
7.33327e-07
7.22551e-07
7.07874e-07
6.95213e-07
6.84331e-07
6.74151e-07
6.64041e-07
6.51069e-07
6.31302e-07
6.07162e-07
5.79686e-07
5.43246e-07
5.02138e-07
4.60627e-07
4.24727e-07
0.999994
0.999993
0.999992
0.999992
0.999991
0.999991
0.999991
0.999991
0.99999
0.99999
0.99999
0.99999
0.99999
0.99999
0.99999
0.99999
0.99999
0.99999
0.99999
0.99999
0.99999
0.99999
0.99999
0.99999
0.99999
0.99999
0.99999
0.99999
0.99999
0.99999
0.99999
0.99999
0.99999
0.99999
0.99999
0.99999
0.99999
0.99999
0.99999
0.99999
0.99999
0.99999
0.99999
0.99999
0.99999
0.999989
0.999986
0.999979
0.99997
0.999958
0.999943
0.999928
0.999918
0.999911
0.999907
0.999903
0.999901
0.999875
0.999578
0.920104
0.0166896
1.36479e-05
8.04233e-07
8.57376e-07
8.36491e-07
8.32958e-07
8.30577e-07
8.19369e-07
8.17445e-07
8.08483e-07
8.03644e-07
7.92478e-07
7.85938e-07
7.79547e-07
7.75088e-07
7.71166e-07
7.68452e-07
7.65492e-07
7.6097e-07
7.55601e-07
7.48986e-07
7.4087e-07
7.27078e-07
7.10487e-07
6.94523e-07
6.79724e-07
6.67718e-07
6.58739e-07
6.49554e-07
6.36388e-07
6.20717e-07
5.98088e-07
5.64022e-07
5.33948e-07
5.05047e-07
4.53215e-07
0.999994
0.999993
0.999992
0.999992
0.999992
0.999991
0.999991
0.999991
0.999991
0.99999
0.99999
0.99999
0.99999
0.99999
0.99999
0.99999
0.99999
0.99999
0.99999
0.99999
0.99999
0.99999
0.99999
0.99999
0.99999
0.99999
0.99999
0.99999
0.99999
0.99999
0.99999
0.99999
0.99999
0.99999
0.99999
0.99999
0.99999
0.99999
0.99999
0.99999
0.99999
0.99999
0.99999
0.99999
0.999989
0.999989
0.999986
0.99998
0.999971
0.999959
0.99994
0.99992
0.999908
0.999901
0.9999
0.999897
0.999898
0.999869
0.999699
0.898557
0.0157803
4.82793e-06
4.31508e-06
3.87096e-06
3.7181e-06
3.06479e-06
2.50033e-06
1.86281e-06
1.43929e-06
1.13944e-06
9.89034e-07
8.97607e-07
8.53658e-07
8.35234e-07
8.26204e-07
8.18009e-07
8.10087e-07
8.01391e-07
7.9352e-07
7.84247e-07
7.72664e-07
7.60156e-07
7.44823e-07
7.24357e-07
7.05429e-07
6.90593e-07
6.78373e-07
6.6795e-07
6.58937e-07
6.4778e-07
6.36559e-07
6.1539e-07
5.78351e-07
5.46291e-07
5.2139e-07
4.70499e-07
0.999994
0.999994
0.999993
0.999992
0.999992
0.999992
0.999991
0.999991
0.999991
0.999991
0.99999
0.99999
0.99999
0.99999
0.99999
0.99999
0.99999
0.99999
0.99999
0.99999
0.99999
0.99999
0.99999
0.99999
0.99999
0.99999
0.99999
0.99999
0.99999
0.99999
0.99999
0.99999
0.99999
0.99999
0.99999
0.99999
0.99999
0.99999
0.99999
0.99999
0.99999
0.99999
0.99999
0.99999
0.999989
0.999988
0.999985
0.99998
0.999971
0.999957
0.999931
0.999909
0.999896
0.999892
0.999891
0.999884
0.999877
0.99985
0.999767
0.845731
0.00820237
0.000191296
0.000170806
0.000143663
0.000132881
0.000109807
8.69143e-05
6.41025e-05
4.50112e-05
2.99532e-05
1.94878e-05
1.25688e-05
8.44263e-06
6.14643e-06
5.02381e-06
4.43852e-06
4.13404e-06
3.95067e-06
3.79554e-06
3.62387e-06
3.45959e-06
3.30164e-06
3.12227e-06
2.90068e-06
2.66889e-06
2.40226e-06
2.09675e-06
1.79327e-06
1.35369e-06
1.00152e-06
7.98436e-07
7.05125e-07
6.52251e-07
5.99394e-07
5.51262e-07
4.89379e-07
0.999995
0.999994
0.999993
0.999993
0.999992
0.999992
0.999992
0.999991
0.999991
0.999991
0.99999
0.99999
0.99999
0.99999
0.99999
0.99999
0.99999
0.99999
0.99999
0.99999
0.99999
0.99999
0.99999
0.99999
0.99999
0.99999
0.99999
0.99999
0.99999
0.99999
0.99999
0.99999
0.99999
0.99999
0.99999
0.99999
0.99999
0.99999
0.99999
0.99999
0.99999
0.99999
0.99999
0.99999
0.999989
0.999988
0.999985
0.999979
0.999969
0.99995
0.99992
0.999899
0.999888
0.999882
0.999876
0.999865
0.999856
0.999841
0.999836
0.766561
0.00952686
0.00274712
0.00260775
0.0023535
0.00219485
0.00194782
0.00170339
0.00145056
0.00120867
0.000984347
0.000792857
0.000633842
0.000510722
0.000421396
0.000358294
0.000316638
0.000291131
0.00027651
0.000270307
0.000269029
0.000270526
0.000268373
0.000262905
0.000254781
0.000241572
0.000226053
0.00020765
0.000175759
0.000133356
8.88214e-05
5.05895e-05
2.40727e-05
9.76725e-06
3.60339e-06
1.3712e-06
7.39062e-07
0.999995
0.999995
0.999994
0.999993
0.999993
0.999992
0.999992
0.999991
0.999991
0.999991
0.99999
0.99999
0.99999
0.99999
0.99999
0.99999
0.99999
0.99999
0.99999
0.99999
0.99999
0.99999
0.99999
0.99999
0.99999
0.99999
0.99999
0.99999
0.99999
0.99999
0.99999
0.99999
0.99999
0.99999
0.99999
0.99999
0.99999
0.99999
0.99999
0.99999
0.99999
0.99999
0.99999
0.99999
0.999989
0.999988
0.999984
0.999977
0.999967
0.999945
0.999911
0.999893
0.999882
0.999874
0.999866
0.999859
0.999857
0.999854
0.999829
0.644954
0.0191125
0.0122123
0.0124698
0.0122998
0.0121502
0.0118627
0.0115251
0.0111175
0.0106014
0.0100166
0.00935927
0.00866825
0.00797642
0.00730825
0.00669198
0.00615836
0.00570827
0.00534104
0.00505701
0.00484052
0.00465934
0.00449539
0.00431719
0.00416638
0.0039887
0.00376555
0.00353012
0.00324383
0.00289578
0.00245343
0.00196534
0.0014449
0.000942408
0.000518138
0.000220024
7.80195e-05
0.999995
0.999995
0.999994
0.999994
0.999993
0.999992
0.999992
0.999991
0.999991
0.999991
0.99999
0.99999
0.99999
0.99999
0.99999
0.99999
0.99999
0.99999
0.99999
0.99999
0.99999
0.99999
0.99999
0.99999
0.99999
0.99999
0.99999
0.99999
0.99999
0.99999
0.99999
0.99999
0.99999
0.99999
0.99999
0.99999
0.99999
0.99999
0.99999
0.99999
0.99999
0.99999
0.99999
0.99999
0.999989
0.999988
0.999984
0.999976
0.999966
0.999942
0.999907
0.999889
0.99988
0.999874
0.99987
0.999866
0.999867
0.999862
0.999558
0.570978
0.0291691
0.0233627
0.0243779
0.0248611
0.0252692
0.0257065
0.0260985
0.0264993
0.0268376
0.0271764
0.0274693
0.0277387
0.0279158
0.0279974
0.0279427
0.0277891
0.027548
0.0272699
0.0269453
0.0265658
0.0261046
0.0255527
0.0249649
0.0243423
0.0236477
0.0229331
0.0221594
0.0213015
0.0204803
0.0196567
0.0186903
0.017437
0.0158042
0.0136614
0.0110561
0.00876982
0.999995
0.999995
0.999995
0.999994
0.999993
0.999993
0.999992
0.999991
0.999991
0.999991
0.99999
0.99999
0.99999
0.99999
0.99999
0.99999
0.99999
0.99999
0.99999
0.99999
0.99999
0.99999
0.99999
0.99999
0.99999
0.99999
0.99999
0.99999
0.99999
0.99999
0.99999
0.99999
0.99999
0.99999
0.99999
0.99999
0.99999
0.99999
0.99999
0.99999
0.99999
0.99999
0.99999
0.99999
0.999989
0.999988
0.999984
0.999975
0.999962
0.999939
0.999907
0.99989
0.999883
0.999881
0.999881
0.99988
0.999883
0.99988
0.999246
0.67352
0.0319397
0.0211444
0.0219825
0.022252
0.0226639
0.0233769
0.0243119
0.0254215
0.0266381
0.0279685
0.0294004
0.0309829
0.032681
0.0344346
0.0362532
0.0381325
0.0401224
0.042235
0.0444572
0.0467981
0.0492723
0.0519283
0.0548296
0.058004
0.0615824
0.0654856
0.069654
0.0742475
0.0795631
0.085729
0.0932114
0.102653
0.115524
0.136527
0.185162
0.380571
0.999995
0.999996
0.999995
0.999995
0.999994
0.999993
0.999992
0.999991
0.999991
0.999991
0.99999
0.99999
0.99999
0.99999
0.99999
0.99999
0.99999
0.99999
0.99999
0.99999
0.99999
0.99999
0.99999
0.99999
0.99999
0.99999
0.99999
0.99999
0.99999
0.99999
0.99999
0.99999
0.99999
0.99999
0.99999
0.99999
0.99999
0.99999
0.99999
0.99999
0.99999
0.99999
0.99999
0.99999
0.999989
0.999988
0.999984
0.999977
0.999964
0.999943
0.999916
0.999899
0.999889
0.999886
0.999885
0.999883
0.999885
0.999881
0.999835
0.824034
0.0216789
0.00625273
0.00578379
0.00483603
0.00444122
0.0040907
0.00388991
0.00378237
0.00378293
0.00383139
0.00394047
0.0040529
0.00420382
0.00440578
0.00467146
0.0049775
0.00532801
0.00572036
0.00614816
0.00662559
0.00714108
0.0077094
0.00828819
0.00884175
0.00933414
0.00979931
0.0102361
0.0106929
0.0112461
0.0118963
0.0126389
0.0134697
0.0144243
0.0152609
0.0155802
0.014252
0.999996
0.999996
0.999996
0.999995
0.999995
0.999993
0.999992
0.999991
0.999991
0.999991
0.99999
0.99999
0.99999
0.99999
0.99999
0.99999
0.99999
0.99999
0.99999
0.99999
0.99999
0.99999
0.99999
0.99999
0.99999
0.99999
0.99999
0.99999
0.99999
0.99999
0.99999
0.99999
0.99999
0.99999
0.99999
0.99999
0.99999
0.99999
0.99999
0.99999
0.99999
0.99999
0.99999
0.99999
0.999989
0.999988
0.999984
0.999978
0.999968
0.999952
0.999927
0.999908
0.999898
0.999891
0.999888
0.999885
0.999887
0.999878
0.999892
0.888897
0.012608
0.000922169
0.000767961
0.000548966
0.000478349
0.00041665
0.000389147
0.00037226
0.000368397
0.000367779
0.000373854
0.000383549
0.000396367
0.000412032
0.000428435
0.000446185
0.000469842
0.000501353
0.000542649
0.000589722
0.000641654
0.000705334
0.000779615
0.000860141
0.000943266
0.00101782
0.00109868
0.0011795
0.00127556
0.00138827
0.00151462
0.00161159
0.00162351
0.00136078
0.000837104
0.000374421
0.999996
0.999996
0.999996
0.999996
0.999995
0.999994
0.999992
0.999992
0.999991
0.999991
0.99999
0.99999
0.99999
0.99999
0.99999
0.99999
0.99999
0.99999
0.99999
0.99999
0.99999
0.99999
0.99999
0.99999
0.99999
0.99999
0.99999
0.99999
0.99999
0.99999
0.99999
0.99999
0.99999
0.99999
0.99999
0.99999
0.99999
0.99999
0.99999
0.99999
0.99999
0.99999
0.99999
0.99999
0.999989
0.999988
0.999985
0.999979
0.999969
0.999957
0.999938
0.999919
0.999907
0.9999
0.999896
0.999892
0.99989
0.999872
0.999879
0.930086
0.0144999
7.21196e-05
6.52275e-05
4.59998e-05
4.36636e-05
4.07199e-05
3.88825e-05
3.55124e-05
3.20342e-05
2.87353e-05
2.63494e-05
2.48374e-05
2.44238e-05
2.48836e-05
2.48783e-05
2.47126e-05
2.43161e-05
2.4716e-05
2.73542e-05
3.11391e-05
3.50607e-05
3.89189e-05
4.19417e-05
4.50045e-05
4.71061e-05
4.62539e-05
4.35736e-05
3.95113e-05
3.59594e-05
3.39455e-05
3.27181e-05
3.03322e-05
2.38225e-05
1.53494e-05
7.39417e-06
3.20195e-06
0.999996
0.999996
0.999996
0.999996
0.999995
0.999994
0.999993
0.999992
0.999991
0.999991
0.99999
0.99999
0.99999
0.99999
0.99999
0.99999
0.99999
0.99999
0.99999
0.99999
0.99999
0.99999
0.99999
0.99999
0.99999
0.99999
0.99999
0.99999
0.99999
0.99999
0.99999
0.99999
0.99999
0.99999
0.99999
0.99999
0.99999
0.99999
0.99999
0.99999
0.99999
0.99999
0.99999
0.99999
0.999989
0.999988
0.999985
0.99998
0.99997
0.999958
0.999943
0.999927
0.999915
0.999906
0.999903
0.999898
0.999892
0.999867
0.99983
0.955695
0.0229316
2.84735e-06
4.35273e-06
2.52299e-06
2.64973e-06
2.57143e-06
2.44936e-06
2.23925e-06
2.04617e-06
1.87454e-06
1.73781e-06
1.58679e-06
1.43995e-06
1.32343e-06
1.25412e-06
1.22802e-06
1.21759e-06
1.2476e-06
1.32167e-06
1.41735e-06
1.52553e-06
1.61408e-06
1.66575e-06
1.66519e-06
1.59816e-06
1.45939e-06
1.27307e-06
1.07983e-06
9.23754e-07
8.06079e-07
7.39527e-07
6.90168e-07
6.38172e-07
5.93269e-07
5.45738e-07
4.69477e-07
0.999997
0.999996
0.999996
0.999996
0.999996
0.999995
0.999993
0.999992
0.999991
0.999991
0.99999
0.99999
0.99999
0.99999
0.99999
0.99999
0.99999
0.99999
0.99999
0.99999
0.99999
0.99999
0.99999
0.99999
0.99999
0.99999
0.99999
0.99999
0.99999
0.99999
0.99999
0.99999
0.99999
0.99999
0.99999
0.99999
0.99999
0.99999
0.99999
0.99999
0.99999
0.99999
0.99999
0.99999
0.99999
0.999988
0.999986
0.99998
0.999971
0.999959
0.999944
0.999929
0.99992
0.999908
0.999903
0.999895
0.999886
0.999859
0.999748
0.963057
0.0332496
1.10284e-05
1.00774e-06
9.14483e-07
9.36499e-07
9.27541e-07
9.17299e-07
9.04459e-07
8.98199e-07
8.85186e-07
8.76655e-07
8.66547e-07
8.59362e-07
8.50923e-07
8.41625e-07
8.32695e-07
8.26804e-07
8.20171e-07
8.13534e-07
8.11402e-07
8.11271e-07
8.10861e-07
8.09249e-07
8.01425e-07
7.87206e-07
7.69796e-07
7.4985e-07
7.27261e-07
7.00886e-07
6.69794e-07
6.36717e-07
6.16698e-07
5.89575e-07
5.58865e-07
5.08009e-07
4.29049e-07
0.999997
0.999996
0.999997
0.999996
0.999996
0.999996
0.999994
0.999992
0.999991
0.999991
0.99999
0.99999
0.99999
0.99999
0.99999
0.99999
0.99999
0.99999
0.99999
0.99999
0.99999
0.99999
0.99999
0.99999
0.99999
0.99999
0.99999
0.99999
0.99999
0.99999
0.99999
0.99999
0.99999
0.99999
0.99999
0.99999
0.99999
0.99999
0.99999
0.99999
0.99999
0.99999
0.99999
0.99999
0.99999
0.999988
0.999986
0.99998
0.999971
0.999958
0.999943
0.99993
0.99992
0.999908
0.999898
0.999889
0.999877
0.999836
0.99963
0.956918
0.0375749
2.74903e-05
9.2512e-07
8.98535e-07
8.79948e-07
8.78223e-07
8.80257e-07
8.74275e-07
8.70362e-07
8.61944e-07
8.56462e-07
8.48311e-07
8.4276e-07
8.35627e-07
8.28746e-07
8.22003e-07
8.16464e-07
8.11392e-07
8.06518e-07
8.02624e-07
7.99013e-07
7.96459e-07
7.94181e-07
7.89884e-07
7.81699e-07
7.68864e-07
7.50427e-07
7.27594e-07
6.98326e-07
6.58941e-07
6.21947e-07
5.98511e-07
5.82173e-07
5.63832e-07
5.23248e-07
4.36194e-07
0.999997
0.999997
0.999997
0.999996
0.999996
0.999996
0.999995
0.999993
0.999991
0.999991
0.99999
0.99999
0.99999
0.99999
0.99999
0.99999
0.99999
0.99999
0.99999
0.99999
0.99999
0.99999
0.99999
0.99999
0.99999
0.99999
0.99999
0.99999
0.99999
0.99999
0.99999
0.99999
0.99999
0.99999
0.99999
0.99999
0.99999
0.99999
0.99999
0.99999
0.99999
0.99999
0.99999
0.99999
0.99999
0.999988
0.999986
0.99998
0.999971
0.999957
0.999943
0.999931
0.99992
0.999908
0.999895
0.99988
0.999865
0.999825
0.999606
0.937727
0.034352
5.75646e-05
9.44617e-07
8.75259e-07
8.63902e-07
8.54071e-07
8.537e-07
8.48953e-07
8.48198e-07
8.43561e-07
8.41089e-07
8.34926e-07
8.30044e-07
8.23922e-07
8.19166e-07
8.14206e-07
8.09882e-07
8.06819e-07
8.03569e-07
8.00428e-07
7.97094e-07
7.93751e-07
7.90734e-07
7.86698e-07
7.80248e-07
7.70303e-07
7.54116e-07
7.31251e-07
6.98617e-07
6.54375e-07
6.12641e-07
5.85082e-07
5.70689e-07
5.49454e-07
5.07583e-07
4.34431e-07
0.999998
0.999997
0.999997
0.999997
0.999996
0.999996
0.999996
0.999994
0.999991
0.99999
0.99999
0.99999
0.99999
0.99999
0.99999
0.99999
0.99999
0.99999
0.99999
0.99999
0.99999
0.99999
0.99999
0.99999
0.99999
0.99999
0.99999
0.99999
0.99999
0.99999
0.99999
0.99999
0.99999
0.99999
0.99999
0.99999
0.99999
0.99999
0.99999
0.99999
0.99999
0.99999
0.99999
0.99999
0.99999
0.999988
0.999986
0.99998
0.99997
0.999956
0.999942
0.99993
0.999923
0.999915
0.999905
0.999889
0.999879
0.99983
0.999415
0.954905
0.0552716
0.000394984
1.43622e-06
8.69131e-07
8.63163e-07
8.52357e-07
8.50372e-07
8.43784e-07
8.41583e-07
8.35668e-07
8.32739e-07
8.27694e-07
8.24681e-07
8.20554e-07
8.17254e-07
8.13791e-07
8.11026e-07
8.07963e-07
8.0511e-07
8.0323e-07
8.00648e-07