/*--------------------------------*- C++ -*----------------------------------*\
| =========                 |                                                 |
| \\      /  F ield         | OpenFOAM: The Open Source CFD Toolbox           |
|  \\    /   O peration     | Version:  2.3.0                                 |
|   \\  /    A nd           | Web:      www.OpenFOAM.org                      |
|    \\/     M anipulation  |                                                 |
\*---------------------------------------------------------------------------*/
FoamFile
{
    version     2.0;
    format      ascii;
    class       volScalarField;
    location    "39";
    object      epsilon.water;
}
// * * * * * * * * * * * * * * * * * * * * * * * * * * * * * * * * * * * * * //

dimensions      [0 2 -3 0 0 0 0];

internalField   nonuniform List<scalar> 
6144
(
5.37412e-05
4.16047e-05
2.48142e-05
1.89344e-05
1.21635e-05
8.19656e-06
6.11946e-06
5.30124e-06
4.88018e-06
6.18314e-06
8.0585e-06
9.77327e-06
1.05109e-05
1.06026e-05
9.928e-06
9.41884e-06
8.85565e-06
8.49395e-06
8.09742e-06
7.81619e-06
7.72849e-06
7.69913e-06
7.71556e-06
7.75265e-06
7.80607e-06
7.87546e-06
7.95965e-06
8.08314e-06
8.30696e-06
8.5082e-06
8.64495e-06
8.73091e-06
8.79657e-06
8.84747e-06
8.89267e-06
8.94068e-06
9.05055e-06
9.17908e-06
9.42121e-06
9.59851e-06
9.95261e-06
1.01594e-05
1.07029e-05
1.08761e-05
1.10135e-05
1.04526e-05
9.73853e-06
9.71647e-06
1.0215e-05
1.17815e-05
1.44078e-05
2.6144e-05
7.06305e-05
0.000183595
0.000475077
0.000994451
0.00198014
0.00450285
0.0324746
0.0443814
0.112522
0.0526684
0.0243254
0.0125878
0.00750349
0.00461036
0.00280026
0.00164451
0.00057522
0.000186381
0.000231504
0.000290953
0.000322287
0.000335862
0.000340436
0.000340966
0.00034866
0.000358336
0.000369144
0.000376073
0.000383236
0.000387973
0.000394105
0.000400237
0.00040402
0.000399926
0.000389261
0.000366551
0.000339313
0.000310982
0.000284872
0.000253323
0.000215629
0.000174647
0.000119453
6.42411e-05
0.000105254
6.54542e-05
3.92746e-05
3.35286e-05
2.41052e-05
2.06225e-05
1.85966e-05
1.73013e-05
1.62023e-05
1.96839e-05
2.31878e-05
2.62607e-05
2.75165e-05
2.66865e-05
2.46466e-05
2.32526e-05
2.22455e-05
2.19435e-05
2.19748e-05
2.22125e-05
2.27286e-05
2.32117e-05
2.36508e-05
2.40211e-05
2.43347e-05
2.46091e-05
2.48628e-05
2.51938e-05
2.56953e-05
2.60725e-05
2.63185e-05
2.65e-05
2.66719e-05
2.68351e-05
2.70168e-05
2.72069e-05
2.75085e-05
2.77541e-05
2.83081e-05
2.85279e-05
2.94308e-05
2.94207e-05
3.05929e-05
3.01937e-05
3.03198e-05
2.81083e-05
2.66312e-05
2.73722e-05
3.41516e-05
3.62907e-05
4.24209e-05
6.3308e-05
0.000190073
0.000452781
0.000893391
0.00125674
0.00322727
0.00965339
0.0218367
0.0342943
0.0832125
0.0413772
0.0186205
0.00888833
0.00532087
0.00331905
0.00205648
0.00117912
0.000365243
0.000228383
0.000365203
0.000461976
0.000525665
0.000557678
0.000570376
0.000559544
0.000556438
0.00057458
0.000596936
0.000615996
0.000625758
0.000627777
0.000616198
0.000593491
0.000570265
0.000556465
0.00054113
0.000523112
0.000489227
0.00043897
0.000389014
0.000335506
0.000280059
0.00020881
0.000120292
6.52982e-05
0.000131029
7.45602e-05
4.84044e-05
4.33801e-05
3.65634e-05
3.59119e-05
3.59172e-05
3.23163e-05
2.77009e-05
2.78459e-05
3.05307e-05
3.1558e-05
3.06494e-05
2.85893e-05
2.66546e-05
2.58774e-05
2.58932e-05
2.68141e-05
2.85596e-05
3.02783e-05
3.16288e-05
3.27721e-05
3.36808e-05
3.43737e-05
3.48939e-05
3.52851e-05
3.55922e-05
3.58223e-05
3.59596e-05
3.59826e-05
3.59497e-05
3.59004e-05
3.58546e-05
3.58188e-05
3.58205e-05
3.58388e-05
3.58443e-05
3.57511e-05
3.57154e-05
3.54054e-05
3.54259e-05
3.48448e-05
3.51786e-05
3.47529e-05
3.51992e-05
3.41905e-05
3.56786e-05
4.094e-05
5.54669e-05
6.1741e-05
7.53113e-05
0.000133312
0.00061361
0.00155132
0.00212264
0.00233367
0.00296331
0.00776527
0.0210091
0.029308
0.0735907
0.0337165
0.0126183
0.00589686
0.003958
0.00251102
0.00162092
0.000735392
0.000298864
0.000355469
0.000507089
0.000624183
0.0007087
0.000751096
0.000762483
0.000689071
0.000667549
0.000677764
0.000704783
0.000723339
0.000730555
0.000724779
0.000690821
0.000637102
0.000592068
0.000578115
0.00057169
0.000568696
0.000549747
0.000512499
0.000452972
0.000396464
0.000352178
0.0002861
0.000160788
7.60694e-05
0.000159136
9.04497e-05
5.93583e-05
5.18188e-05
4.34747e-05
4.45192e-05
4.64066e-05
4.24804e-05
3.57804e-05
3.20593e-05
3.31301e-05
3.31047e-05
3.11718e-05
2.85463e-05
2.6663e-05
2.6126e-05
2.66453e-05
2.80374e-05
2.97514e-05
3.14147e-05
3.27781e-05
3.39685e-05
3.4897e-05
3.55853e-05
3.6079e-05
3.64376e-05
3.67129e-05
3.69148e-05
3.70151e-05
3.69943e-05
3.68998e-05
3.67763e-05
3.66405e-05
3.65033e-05
3.63835e-05
3.62954e-05
3.6206e-05
3.60533e-05
3.59072e-05
3.55393e-05
3.53336e-05
3.4782e-05
3.48233e-05
3.48872e-05
3.54814e-05
3.56029e-05
3.7294e-05
4.10169e-05
5.31649e-05
6.95875e-05
0.000110526
0.000394114
0.00241686
0.00478215
0.00457581
0.00431113
0.00348258
0.00720342
0.017579
0.0215834
0.0661171
0.0224999
0.00434212
0.00199496
0.00197145
0.00158013
0.000891291
0.000409524
0.000329784
0.000522488
0.000665896
0.000807468
0.000877629
0.000900412
0.000854239
0.000729872
0.000687438
0.000677383
0.000676798
0.000669901
0.000632185
0.000556977
0.000465074
0.000414312
0.000403978
0.000459097
0.000517647
0.000551321
0.000556201
0.000538101
0.000498284
0.000417506
0.000374032
0.000333101
0.000230719
9.94986e-05
0.000181483
0.00010237
7.65506e-05
6.95222e-05
5.15909e-05
4.82333e-05
4.51982e-05
4.30075e-05
4.05418e-05
3.54338e-05
3.49909e-05
3.32367e-05
3.04004e-05
2.70938e-05
2.51905e-05
2.47044e-05
2.54709e-05
2.70435e-05
2.89116e-05
3.07427e-05
3.2433e-05
3.38941e-05
3.49357e-05
3.56414e-05
3.60785e-05
3.63368e-05
3.64814e-05
3.65413e-05
3.64952e-05
3.6323e-05
3.60613e-05
3.57553e-05
3.54426e-05
3.51481e-05
3.48925e-05
3.46543e-05
3.44106e-05
3.41106e-05
3.37586e-05
3.32179e-05
3.27102e-05
3.22578e-05
3.22567e-05
3.292e-05
3.38225e-05
3.40076e-05
3.52718e-05
3.79041e-05
4.70347e-05
6.78365e-05
0.00021762
0.00133176
0.0047452
0.00644591
0.00636005
0.00641916
0.00593038
0.0107629
0.0122029
0.0132348
0.0495894
0.0084969
0.00095458
0.000787516
0.000884752
0.000688135
0.000471631
0.00040039
0.000470925
0.000724106
0.000903714
0.0010132
0.0010496
0.000994967
0.000816715
0.000653523
0.000585584
0.000556423
0.000524492
0.0004819
0.000408722
0.000331683
0.000294982
0.000284916
0.000318364
0.000368358
0.000463123
0.000549594
0.000572238
0.000524292
0.000494681
0.000459991
0.000398615
0.000368988
0.000285933
0.000149209
0.000195907
0.000114764
9.76558e-05
9.94778e-05
6.99842e-05
6.26789e-05
4.38735e-05
4.12592e-05
4.20029e-05
3.64899e-05
3.50832e-05
3.23661e-05
2.94006e-05
2.54681e-05
2.23974e-05
2.14665e-05
2.23728e-05
2.43887e-05
2.69325e-05
2.93977e-05
3.14996e-05
3.30405e-05
3.40681e-05
3.47228e-05
3.50817e-05
3.52428e-05
3.52808e-05
3.52321e-05
3.50796e-05
3.47838e-05
3.44069e-05
3.39988e-05
3.35892e-05
3.32046e-05
3.28607e-05
3.2532e-05
3.21847e-05
3.17713e-05
3.12671e-05
3.06062e-05
2.99346e-05
2.95727e-05
2.96465e-05
3.05412e-05
3.158e-05
3.16379e-05
3.21307e-05
3.49168e-05
4.45451e-05
7.17368e-05
0.000380417
0.00232145
0.0055771
0.00672954
0.00764147
0.00683909
0.00783854
0.0111086
0.00812147
0.00808602
0.036873
0.0035095
0.000610017
0.000537541
0.000538483
0.00052085
0.00050548
0.000616523
0.000936065
0.00111408
0.00119422
0.0012101
0.00107104
0.000904365
0.000684713
0.000567272
0.000507032
0.000467702
0.000419064
0.000373776
0.000310454
0.000265749
0.000254018
0.000264061
0.000284048
0.000310504
0.000374443
0.00053572
0.000595006
0.000584991
0.000515099
0.000430001
0.000394193
0.000372706
0.000317051
0.000203901
0.000184294
0.000122807
0.000108396
0.000119146
8.90831e-05
8.14384e-05
5.34261e-05
4.30796e-05
4.41404e-05
3.78064e-05
3.52308e-05
3.14944e-05
2.68117e-05
2.17438e-05
1.89891e-05
1.81921e-05
1.90881e-05
2.0804e-05
2.28723e-05
2.50633e-05
2.70796e-05
2.86592e-05
2.97802e-05
3.04657e-05
3.07733e-05
3.08532e-05
3.07937e-05
3.06611e-05
3.04248e-05
3.00436e-05
2.95389e-05
2.89789e-05
2.84087e-05
2.78612e-05
2.73727e-05
2.69317e-05
2.64356e-05
2.59009e-05
2.52776e-05
2.46501e-05
2.40068e-05
2.40109e-05
2.43575e-05
2.58995e-05
2.68597e-05
2.68039e-05
2.74576e-05
3.09173e-05
4.17036e-05
6.15166e-05
0.00020965
0.00113145
0.00372676
0.0073693
0.00931344
0.00904883
0.00872912
0.00897911
0.00550212
0.00540507
0.0243925
0.00162211
0.000711239
0.000676346
0.000724993
0.000783806
0.000962158
0.00111718
0.00118885
0.00121076
0.00118074
0.00104601
0.000877612
0.000718294
0.000597681
0.000518961
0.000482693
0.000455502
0.000429999
0.000393346
0.000331371
0.000295242
0.000289037
0.000286685
0.000290644
0.00030813
0.000310064
0.000483037
0.000592285
0.000613846
0.000555456
0.000411025
0.000367294
0.000360892
0.000328461
0.000255275
0.000147672
0.000123694
0.000111087
0.000123303
9.56722e-05
8.69788e-05
6.24562e-05
4.16127e-05
4.37042e-05
3.68577e-05
3.38869e-05
2.90992e-05
2.55719e-05
2.02749e-05
1.66406e-05
1.53379e-05
1.64039e-05
1.85428e-05
2.10128e-05
2.3365e-05
2.53905e-05
2.69364e-05
2.80265e-05
2.8711e-05
2.90561e-05
2.91897e-05
2.91893e-05
2.90722e-05
2.87936e-05
2.8337e-05
2.77653e-05
2.71678e-05
2.65883e-05
2.60308e-05
2.55082e-05
2.4999e-05
2.4448e-05
2.38989e-05
2.32924e-05
2.2732e-05
2.21986e-05
2.22571e-05
2.26803e-05
2.42028e-05
2.53466e-05
2.55166e-05
2.58205e-05
2.8734e-05
4.24577e-05
9.58864e-05
0.000515013
0.0019265
0.00333106
0.00466953
0.00956677
0.00991258
0.00735121
0.00641648
0.00522168
0.00518904
0.0176328
0.00141833
0.000921709
0.000965074
0.00101917
0.00108056
0.00112973
0.00114904
0.00115093
0.00111705
0.00105225
0.000948667
0.000843916
0.000729851
0.000647841
0.000616413
0.000616844
0.000630006
0.000618869
0.000580629
0.000518083
0.000438469
0.000379069
0.000324782
0.000294557
0.000288303
0.000272527
0.000386765
0.000498939
0.000601804
0.000527064
0.00033319
0.000318503
0.000335542
0.000330622
0.000347145
0.000122778
0.000113747
0.000110425
0.000123399
9.22896e-05
7.93543e-05
6.35604e-05
3.95747e-05
3.88991e-05
3.40419e-05
3.12493e-05
2.6437e-05
2.20084e-05
1.5974e-05
1.16365e-05
9.99268e-06
1.08425e-05
1.28553e-05
1.50721e-05
1.70231e-05
1.86357e-05
1.99438e-05
2.09431e-05
2.16515e-05
2.2092e-05
2.23407e-05
2.24496e-05
2.24409e-05
2.22611e-05
2.18945e-05
2.14364e-05
2.09652e-05
2.05226e-05
2.01142e-05
1.97328e-05
1.93564e-05
1.89543e-05
1.85863e-05
1.82107e-05
1.79411e-05
1.76864e-05
1.788e-05
1.83365e-05
1.94944e-05
2.03386e-05
2.03866e-05
1.9904e-05
2.16112e-05
3.90942e-05
0.000202328
0.00168019
0.00451237
0.00561935
0.0068815
0.0109186
0.00987237
0.00694391
0.00560293
0.00596296
0.00594891
0.024667
0.00182297
0.00102465
0.00105965
0.00109004
0.0011057
0.00111285
0.00110337
0.00109562
0.00107192
0.00104741
0.00102557
0.000964157
0.000896677
0.000816488
0.000728384
0.000653548
0.000618372
0.000618523
0.000607306
0.000587104
0.000537683
0.000459725
0.000378243
0.000312995
0.000288402
0.00023004
0.000282051
0.000381105
0.000582945
0.000567599
0.000365625
0.000323436
0.000361494
0.000363964
0.000365556
0.000112179
9.54054e-05
0.000110548
0.000120123
8.76909e-05
7.74211e-05
6.35475e-05
4.31094e-05
3.26557e-05
2.93349e-05
2.71852e-05
2.26648e-05
1.77956e-05
1.21927e-05
8.19929e-06
6.56618e-06
6.89434e-06
8.25642e-06
9.81958e-06
1.11657e-05
1.22969e-05
1.31891e-05
1.38686e-05
1.43796e-05
1.47282e-05
1.49478e-05
1.50725e-05
1.51139e-05
1.50552e-05
1.48892e-05
1.46735e-05
1.44558e-05
1.42667e-05
1.41043e-05
1.39424e-05
1.37701e-05
1.3593e-05
1.34496e-05
1.33206e-05
1.32544e-05
1.32195e-05
1.3428e-05
1.3735e-05
1.42005e-05
1.44939e-05
1.4308e-05
1.3879e-05
1.66211e-05
4.78724e-05
0.000444735
0.00307615
0.00589157
0.00676741
0.00757159
0.00945215
0.00906475
0.00814547
0.00831566
0.0077913
0.00780713
0.0414771
0.00319334
0.00108437
0.00104835
0.00105686
0.00101291
0.000993303
0.000937113
0.000924593
0.000910008
0.000905753
0.000896321
0.000892097
0.000932746
0.000930131
0.000875157
0.000768673
0.000652889
0.000586411
0.000539812
0.000525035
0.000499962
0.000448725
0.000390638
0.000328405
0.000285854
0.000194615
0.000184094
0.000273484
0.000567591
0.000626016
0.000401867
0.000344875
0.000381567
0.000382906
0.000376139
9.36909e-05
6.47045e-05
6.19912e-05
7.41e-05
7.7584e-05
6.19579e-05
5.16691e-05
3.71113e-05
2.56273e-05
2.28406e-05
2.12251e-05
1.7449e-05
1.32608e-05
8.83213e-06
5.95471e-06
4.5599e-06
4.56172e-06
5.33056e-06
6.33358e-06
7.19985e-06
7.92487e-06
8.51195e-06
8.97326e-06
9.33612e-06
9.60352e-06
9.80203e-06
9.94706e-06
1.00231e-05
1.0034e-05
9.97388e-06
9.88728e-06
9.80198e-06
9.74652e-06
9.71588e-06
9.68819e-06
9.653e-06
9.60145e-06
9.572e-06
9.58923e-06
9.66594e-06
9.78714e-06
9.95054e-06
1.0171e-05
1.01937e-05
1.02061e-05
9.97006e-06
1.00542e-05
1.21258e-05
2.78484e-05
0.000124973
0.000638339
0.00129696
0.00316223
0.00383173
0.00714787
0.0123647
0.0152304
0.0123463
0.0115892
0.0124249
0.053794
0.0101997
0.00154207
0.00103359
0.00120594
0.000968888
0.000943903
0.00084248
0.000775944
0.000731463
0.000704323
0.000692461
0.000699254
0.000717828
0.000770022
0.000768102
0.000733295
0.000667325
0.00061923
0.000570418
0.000537169
0.000503641
0.000466381
0.000424478
0.000363594
0.000312827
0.000211863
0.000102161
0.00011
0.000325617
0.0006182
0.000427607
0.000361863
0.000395609
0.000392047
0.000371079
9.77881e-05
6.02611e-05
2.57952e-05
2.87431e-05
3.23176e-05
3.4784e-05
3.33737e-05
2.48964e-05
1.98241e-05
1.97269e-05
1.8806e-05
1.42263e-05
9.67795e-06
6.04735e-06
4.0604e-06
3.20385e-06
3.28448e-06
3.82343e-06
4.49195e-06
5.05464e-06
5.53858e-06
5.94441e-06
6.2955e-06
6.58851e-06
6.82828e-06
7.03476e-06
7.2167e-06
7.35355e-06
7.42418e-06
7.4474e-06
7.43698e-06
7.43464e-06
7.46661e-06
7.52134e-06
7.55817e-06
7.57616e-06
7.58946e-06
7.60704e-06
7.6203e-06
7.6503e-06
7.6616e-06
7.70115e-06
7.75945e-06
7.71692e-06
7.67928e-06
7.58827e-06
7.76894e-06
9.10282e-06
1.62017e-05
3.33592e-05
7.79403e-05
0.000126816
0.000485105
0.000539168
0.00237086
0.00800811
0.0106227
0.0122257
0.0162872
0.0183851
0.0668095
0.0212099
0.00382452
0.00134882
0.00132828
0.00114602
0.00103297
0.000954898
0.000875986
0.000806059
0.00075137
0.000712378
0.000699633
0.000705977
0.000728854
0.000740342
0.000724807
0.00069055
0.000654704
0.000615047
0.00058342
0.000544832
0.000508602
0.00046179
0.000390502
0.000332442
0.000224916
8.92111e-05
6.94603e-05
0.000204421
0.00038864
0.000400793
0.000361973
0.000398494
0.000398332
0.000361782
6.48999e-05
2.81752e-05
1.88324e-05
2.04141e-05
1.96611e-05
1.91742e-05
1.7448e-05
1.45685e-05
1.43351e-05
1.62641e-05
1.61934e-05
1.1815e-05
7.37179e-06
4.21442e-06
3.07656e-06
2.64214e-06
2.69094e-06
3.0364e-06
3.43082e-06
3.79371e-06
4.09678e-06
4.34413e-06
4.55898e-06
4.76899e-06
4.96898e-06
5.15791e-06
5.3417e-06
5.50781e-06
5.62717e-06
5.68124e-06
5.70182e-06
5.73144e-06
5.79747e-06
5.88874e-06
5.96409e-06
6.01857e-06
6.06301e-06
6.10104e-06
6.13317e-06
6.16873e-06
6.24976e-06
6.39023e-06
6.46735e-06
6.33889e-06
6.24753e-06
6.05578e-06
6.27179e-06
7.22515e-06
1.15527e-05
1.97414e-05
3.24354e-05
5.20997e-05
8.98413e-05
0.000194176
0.00104782
0.00360048
0.00649316
0.00729543
0.0199492
0.0255267
0.0736882
0.0299814
0.00911504
0.00272855
0.00174807
0.00145417
0.00125188
0.00112601
0.00103467
0.000964399
0.000909743
0.000865531
0.000838355
0.000819234
0.000819221
0.000817501
0.000803926
0.000770543
0.000726665
0.000680152
0.000634461
0.00058456
0.00053731
0.000483593
0.000411524
0.000350417
0.000233292
8.27259e-05
5.79146e-05
0.000156608
0.000298886
0.000342638
0.000361224
0.000399016
0.000392566
0.000345846
1.98814e-05
1.85382e-05
1.60467e-05
1.7366e-05
1.59741e-05
1.55874e-05
1.2357e-05
1.05661e-05
1.20665e-05
1.37454e-05
1.30055e-05
8.58338e-06
4.86289e-06
3.23495e-06
2.57928e-06
2.20549e-06
2.24916e-06
2.52127e-06
2.8216e-06
3.07764e-06
3.30107e-06
3.49252e-06
3.6597e-06
3.79926e-06
3.92478e-06
4.05075e-06
4.18614e-06
4.32271e-06
4.43124e-06
4.47543e-06
4.48356e-06
4.50099e-06
4.56336e-06
4.67081e-06
4.77878e-06
4.85929e-06
4.93016e-06
4.98754e-06
5.04256e-06
5.09527e-06
5.17743e-06
5.22874e-06
5.30694e-06
5.18816e-06
5.09993e-06
4.9239e-06
5.06822e-06
5.87686e-06
8.82508e-06
1.48489e-05
2.40371e-05
4.23343e-05
5.66787e-05
0.00016573
0.00064665
0.00176815
0.00315056
0.00674159
0.0223591
0.0288144
0.0760169
0.0354704
0.014766
0.00605424
0.00320308
0.00221091
0.00178327
0.00153984
0.00136397
0.00122283
0.00111799
0.00103299
0.000972809
0.000924373
0.000894162
0.000876447
0.000854532
0.000818443
0.000772578
0.000720914
0.000664273
0.000606501
0.000552061
0.000495085
0.000426746
0.000361346
0.000231673
7.46244e-05
5.5584e-05
0.0001449
0.000257861
0.00031144
0.000357438
0.00038151
0.000356011
0.000313848
1.68676e-05
1.16039e-05
9.68897e-06
9.7467e-06
9.76924e-06
8.23205e-06
7.38046e-06
7.77588e-06
8.84626e-06
9.02025e-06
7.73359e-06
4.70009e-06
3.10531e-06
2.30636e-06
1.90686e-06
1.69698e-06
1.75107e-06
1.95166e-06
2.16222e-06
2.34255e-06
2.49922e-06
2.63802e-06
2.7697e-06
2.89341e-06
3.01662e-06
3.14902e-06
3.29657e-06
3.44921e-06
3.58036e-06
3.65649e-06
3.69786e-06
3.7469e-06
3.83325e-06
3.95425e-06
4.06732e-06
4.15579e-06
4.23601e-06
4.30118e-06
4.36466e-06
4.42338e-06
4.51546e-06
4.56868e-06
4.65701e-06
4.56649e-06
4.48895e-06
4.33242e-06
4.40237e-06
5.05882e-06
7.24343e-06
1.20617e-05
2.06236e-05
3.11496e-05
4.871e-05
0.000144573
0.000385944
0.000813561
0.00269095
0.00873475
0.0207601
0.030538
0.0820333
0.0395936
0.01869
0.00920068
0.0053346
0.00349489
0.00256452
0.00204843
0.0017183
0.00148523
0.00130956
0.00117511
0.00106664
0.000980448
0.000915726
0.000866692
0.000823605
0.000783292
0.000740459
0.000695947
0.000650587
0.000600003
0.000550846
0.000498573
0.000434186
0.000362535
0.000219321
6.62606e-05
5.51501e-05
0.000147598
0.000251386
0.000302439
0.000331646
0.000340452
0.000301879
0.000266793
1.97696e-05
1.8073e-05
1.20282e-05
6.18499e-06
4.58508e-06
4.46068e-06
3.4137e-06
3.98166e-06
4.20566e-06
3.82196e-06
3.12576e-06
2.24952e-06
1.7307e-06
1.37324e-06
1.14838e-06
1.04392e-06
1.08058e-06
1.19187e-06
1.30556e-06
1.40359e-06
1.48965e-06
1.56941e-06
1.64889e-06
1.72927e-06
1.81288e-06
1.90336e-06
2.00454e-06
2.11128e-06
2.20873e-06
2.27779e-06
2.3222e-06
2.36689e-06
2.43318e-06
2.52412e-06
2.62122e-06
2.70271e-06
2.77971e-06
2.84248e-06
2.9011e-06
2.95282e-06
3.03767e-06
3.09189e-06
3.18958e-06
3.15587e-06
3.11149e-06
3.02305e-06
3.07452e-06
3.68675e-06
5.26625e-06
8.36963e-06
1.33879e-05
2.02219e-05
3.07536e-05
6.99494e-05
0.000165744
0.000500123
0.00138465
0.00386789
0.0358266
0.0434243
0.108551
0.0480618
0.0225812
0.0120146
0.00743456
0.00509731
0.00373273
0.00287743
0.00231068
0.00192058
0.00164222
0.00143571
0.00127815
0.00115122
0.0010512
0.000969458
0.000902651
0.000847449
0.000798093
0.000750005
0.000705336
0.000651241
0.000600233
0.00053817
0.000472825
0.000378634
0.000178231
4.73922e-05
6.48474e-05
0.000164435
0.000218725
0.000238638
0.000242536
0.000224894
0.000185962
0.000171502
0.000138891
0.00010469
5.25798e-05
3.53526e-05
1.91644e-05
1.27336e-05
1.18589e-05
1.3616e-05
1.77603e-05
2.91191e-05
4.0316e-05
4.96249e-05
5.26581e-05
5.23236e-05
4.803e-05
4.44302e-05
4.10656e-05
3.86735e-05
3.60734e-05
3.3515e-05
3.14612e-05
3.03236e-05
3.00595e-05
3.03501e-05
3.11215e-05
3.22834e-05
3.37473e-05
3.53339e-05
3.67619e-05
3.78635e-05
3.85834e-05
3.91104e-05
3.95835e-05
4.00138e-05
4.04339e-05
4.09462e-05
4.17601e-05
4.2734e-05
4.42387e-05
4.54815e-05
4.76055e-05
4.86352e-05
5.14181e-05
5.11707e-05
5.16343e-05
4.8475e-05
4.50011e-05
4.20888e-05
3.47827e-05
2.92318e-05
2.78738e-05
3.83887e-05
7.21127e-05
0.000158701
0.000445842
0.000902034
0.00275917
0.00814159
0.0173724
0.0244868
0.0508316
0.029575
0.0165547
0.00933229
0.00579328
0.00370469
0.00233303
0.00154695
0.000678437
0.0002277
0.000234227
0.000303988
0.000359956
0.000410743
0.000459436
0.000484
0.000496588
0.000526391
0.000565335
0.000591198
0.000603685
0.000606165
0.000596497
0.000584674
0.000567119
0.000528873
0.000473728
0.000428462
0.000389716
0.000351819
0.000316762
0.000274859
0.000230302
0.000186286
0.000127114
6.81758e-05
0.000141994
8.3385e-05
5.39663e-05
4.46863e-05
3.21108e-05
2.78999e-05
2.85555e-05
3.1655e-05
3.49969e-05
4.48198e-05
5.11922e-05
5.68282e-05
5.87309e-05
5.76067e-05
5.44235e-05
5.17981e-05
5.02374e-05
4.97388e-05
4.94639e-05
4.90156e-05
4.84945e-05
4.83776e-05
4.86924e-05
4.93605e-05
5.03339e-05
5.15534e-05
5.294e-05
5.43104e-05
5.54144e-05
5.61788e-05
5.67042e-05
5.7175e-05
5.76467e-05
5.81089e-05
5.85786e-05
5.91021e-05
5.97209e-05
6.0364e-05
6.12345e-05
6.19147e-05
6.28529e-05
6.29722e-05
6.36328e-05
6.28028e-05
6.24057e-05
6.18414e-05
6.27408e-05
6.38872e-05
6.55781e-05
5.71647e-05
6.54935e-05
0.000114798
0.000306232
0.000465766
0.000871981
0.0016837
0.00432109
0.00832977
0.0126213
0.0166572
0.0286734
0.013809
0.0186431
0.011529
0.00613075
0.00355847
0.00220639
0.00144119
0.000768479
0.000379283
0.000383446
0.000416364
0.000462626
0.000512981
0.000577229
0.000617044
0.000639873
0.000679382
0.0007419
0.000787667
0.000809858
0.000814216
0.00080405
0.000781913
0.000757566
0.000698157
0.000596004
0.00049316
0.000407592
0.000340699
0.000292798
0.000262463
0.000238556
0.000200496
0.000134902
7.37513e-05
0.00022641
0.000109829
7.15499e-05
6.22215e-05
5.87035e-05
5.57162e-05
5.3603e-05
5.46485e-05
5.42142e-05
6.02881e-05
6.31529e-05
6.53114e-05
6.57367e-05
6.32862e-05
5.95635e-05
5.75775e-05
5.72445e-05
5.84114e-05
6.01488e-05
6.18112e-05
6.31374e-05
6.43854e-05
6.54896e-05
6.65854e-05
6.76938e-05
6.88224e-05
6.99528e-05
7.09949e-05
7.18098e-05
7.23512e-05
7.27677e-05
7.31486e-05
7.35067e-05
7.38636e-05
7.42539e-05
7.4658e-05
7.50403e-05
7.5349e-05
7.56433e-05
7.57413e-05
7.5837e-05
7.55501e-05
7.56689e-05
7.56438e-05
7.59618e-05
7.73972e-05
8.11609e-05
8.61852e-05
9.56844e-05
9.98648e-05
0.000170885
0.00049111
0.0016016
0.00226776
0.00225875
0.00263139
0.00387831
0.00732863
0.00720091
0.00679226
0.0247104
0.0105337
0.0159189
0.00974395
0.00535988
0.0031589
0.00198667
0.0013665
0.000776298
0.000507828
0.000593831
0.000648667
0.000731147
0.000816882
0.000911557
0.000939577
0.000925388
0.000939742
0.00099295
0.00103396
0.00106935
0.0010844
0.00107959
0.00105108
0.001011
0.000956948
0.000871549
0.000716343
0.000575121
0.000452708
0.000347236
0.00029861
0.000300087
0.000283792
0.000192092
9.86678e-05
0.000390106
0.000167106
9.74872e-05
7.98372e-05
7.87183e-05
8.16438e-05
8.03301e-05
7.97599e-05
7.5273e-05
7.47974e-05
7.64341e-05
7.7579e-05
7.64566e-05
7.23818e-05
6.72745e-05
6.4631e-05
6.45668e-05
6.62265e-05
6.864e-05
7.11279e-05
7.36127e-05
7.57725e-05
7.73537e-05
7.87387e-05
8.00406e-05
8.12914e-05
8.24669e-05
8.35021e-05
8.42603e-05
8.47179e-05
8.50094e-05
8.52156e-05
8.53797e-05
8.55401e-05
8.57561e-05
8.59789e-05
8.61786e-05
8.63039e-05
8.63684e-05
8.62503e-05
8.63222e-05
8.66137e-05
8.75453e-05
8.92402e-05
9.05854e-05
9.16412e-05
9.42965e-05
9.72613e-05
0.000109188
0.000157523
0.000487486
0.0017266
0.0042606
0.00575827
0.00589527
0.00555155
0.0046067
0.00951747
0.0082171
0.00662574
0.027074
0.00644194
0.00454394
0.00332769
0.0028314
0.00222448
0.00157361
0.0010726
0.000656955
0.000639273
0.000831229
0.00100303
0.001168
0.00130284
0.00136771
0.00127287
0.00113032
0.00109577
0.00109847
0.00112704
0.00117225
0.00121788
0.00122735
0.00118109
0.00108495
0.00103891
0.00105334
0.00102199
0.000900897
0.00071709
0.000548269
0.000376981
0.000345447
0.000356804
0.000297598
0.000159695
0.000645181
0.000234124
0.000134578
0.000100737
9.19934e-05
9.34348e-05
9.38058e-05
9.49119e-05
9.32047e-05
9.01809e-05
9.12597e-05
9.05956e-05
8.69352e-05
7.92088e-05
7.16512e-05
6.75974e-05
6.81079e-05
7.12488e-05
7.55295e-05
7.98853e-05
8.37248e-05
8.69118e-05
8.94614e-05
9.15703e-05
9.3275e-05
9.47306e-05
9.60803e-05
9.72762e-05
9.81597e-05
9.86046e-05
9.88132e-05
9.89353e-05
9.9029e-05
9.91262e-05
9.92549e-05
9.94545e-05
9.958e-05
9.96573e-05
9.96292e-05
9.96257e-05
9.95155e-05
0.000100716
0.000101724
0.000104334
0.000105471
0.000106318
0.000109953
0.000115979
0.000132301
0.000240521
0.00116436
0.00356185
0.00803686
0.0109532
0.012458
0.0120807
0.00975907
0.0279425
0.00865469
0.00740722
0.0256207
0.00326601
0.00154462
0.00127739
0.00151169
0.00114895
0.000897028
0.000777898
0.000736889
0.00100884
0.00137541
0.00173686
0.00194641
0.00201403
0.0019358
0.00149978
0.00127681
0.00121261
0.00120161
0.00121612
0.00126763
0.00132121
0.00133954
0.0013148
0.00119691
0.00111948
0.00112687
0.00114847
0.0011134
0.00102249
0.000884865
0.00061638
0.000414964
0.000430286
0.000407929
0.000265896
0.00092411
0.000270814
0.000167312
0.000129535
0.000119158
0.000115752
0.00010792
0.000108858
0.000108746
0.00010348
0.000102836
9.75141e-05
9.1223e-05
8.10129e-05
7.19535e-05
6.67679e-05
6.75535e-05
7.14927e-05
7.67014e-05
8.2086e-05
8.68322e-05
9.07056e-05
9.41479e-05
9.69159e-05
9.91093e-05
0.000100929
0.000102487
0.000103787
0.000104639
0.000104902
0.000104845
0.000104681
0.000104491
0.000104297
0.000104175
0.000104256
0.000104196
0.000104101
0.000103792
0.000103742
0.000103245
0.000105152
0.000106161
0.000110731
0.000112922
0.000116151
0.000124638
0.0001359
0.000156701
0.000273716
0.00153628
0.00512693
0.011016
0.0142311
0.0159549
0.0195503
0.0261194
0.0324906
0.00912606
0.00875514
0.0258968
0.00205065
0.0010202
0.000863384
0.00104592
0.000941251
0.00101098
0.00112314
0.00154413
0.00231963
0.00282967
0.00303348
0.00293849
0.00256619
0.00207826
0.00158732
0.00135926
0.00128593
0.00127091
0.00129096
0.00133385
0.00138891
0.0014581
0.00158472
0.00172219
0.00176629
0.00172942
0.00174217
0.00159804
0.00130466
0.00111476
0.000837446
0.000521847
0.000444114
0.00044537
0.000355565
0.000922065
0.00028633
0.000195581
0.00014912
0.00014275
0.00014017
0.000131712
0.000129576
0.00012714
0.000112157
0.000108056
9.93231e-05
9.13745e-05
7.69617e-05
6.49086e-05
5.84645e-05
5.97783e-05
6.47474e-05
7.12173e-05
7.78175e-05
8.37614e-05
8.89027e-05
9.29704e-05
9.61925e-05
9.86594e-05
0.000100612
0.000102188
0.000103436
0.000104126
0.000104111
0.000103711
0.000103188
0.000102647
0.000102089
0.000101603
0.000101439
0.000101061
0.000100662
9.99227e-05
9.97154e-05
9.86048e-05
0.000101188
0.000102077
0.000108105
0.00011128
0.000116201
0.000129267
0.0001416
0.000168291
0.000270356
0.000992528
0.00302419
0.00819321
0.0182803
0.019904
0.0200524
0.0257572
0.0280383
0.00609736
0.0061058
0.0253998
0.00170645
0.00128316
0.00119353
0.00147414
0.00158689
0.00206769
0.0025064
0.00303373
0.00327397
0.00334024
0.00315721
0.00283937
0.00239667
0.00191282
0.00144789
0.00124374
0.00117846
0.00116511
0.00118873
0.00123229
0.00125564
0.00133003
0.0015372
0.00186618
0.0023154
0.0026033
0.00284072
0.00292797
0.00274516
0.00232516
0.00125138
0.000816408
0.000571668
0.000551561
0.000477418
0.000735852
0.000302132
0.000213978
0.000159133
0.00014804
0.000145935
0.000140618
0.000138974
0.00013578
0.000115285
0.000108899
9.60993e-05
8.54347e-05
6.74953e-05
5.26824e-05
4.47499e-05
4.7101e-05
5.39206e-05
6.2127e-05
6.97542e-05
7.60963e-05
8.13426e-05
8.54983e-05
8.87044e-05
9.10836e-05
9.2888e-05
9.42077e-05
9.494e-05
9.48922e-05
9.40461e-05
9.28388e-05
9.15937e-05
9.03962e-05
8.91853e-05
8.79527e-05
8.65887e-05
8.51165e-05
8.37714e-05
8.22886e-05
8.14356e-05
8.00159e-05
8.17213e-05
8.25746e-05
8.854e-05
9.35798e-05
9.95619e-05
0.000110002
0.000117718
0.000169963
0.00054617
0.00209365
0.00426495
0.00492974
0.00700471
0.0167945
0.0163912
0.01244
0.0113361
0.00701434
0.00718126
0.0250996
0.00212629
0.00177365
0.00174211
0.00200417
0.0022164
0.00257879
0.0028048
0.00305101
0.00316613
0.00320698
0.00313437
0.00292115
0.0025179
0.00199508
0.00152965
0.00132318
0.00125202
0.00123249
0.00122809
0.00124174
0.00123686
0.00128015
0.00145727
0.00186618
0.00245711
0.00290909
0.00308317
0.00314149
0.00324661
0.00249113
0.00126287
0.000845578
0.00079176
0.000984345
0.00178889
0.000583852
0.000344272
0.000261576
0.000177853
0.000145373
0.000123893
0.000133358
0.000142736
0.000138783
0.000117316
0.000109557
9.19317e-05
7.75547e-05
5.35016e-05
3.61561e-05
2.83809e-05
2.8633e-05
3.19173e-05
3.65654e-05
4.15268e-05
4.71661e-05
5.21446e-05
5.61505e-05
5.93064e-05
6.15768e-05
6.31679e-05
6.41981e-05
6.48785e-05
6.49056e-05
6.40238e-05
6.27714e-05
6.14729e-05
6.02991e-05
5.92905e-05
5.84811e-05
5.78701e-05
5.72415e-05
5.67528e-05
5.60344e-05
5.61059e-05
5.49165e-05
5.66097e-05
5.67237e-05
6.13409e-05
6.45964e-05
6.91523e-05
7.56406e-05
7.67227e-05
0.000154264
0.00117416
0.00434881
0.00768167
0.00874863
0.0111889
0.018479
0.0167814
0.00832875
0.00660479
0.00715817
0.00733559
0.0277017
0.00277322
0.00247077
0.00243714
0.0027348
0.00286837
0.00313336
0.00331161
0.00352364
0.00372322
0.00380252
0.00365149
0.00330269
0.0028531
0.00220509
0.00169253
0.00142497
0.0013294
0.00131013
0.00124917
0.00116701
0.00108505
0.00105605
0.00101502
0.00127777
0.00224051
0.00337731
0.00395045
0.00378137
0.0029128
0.00250257
0.00187738
0.00132354
0.00153013
0.0018906
0.00166523
0.000583771
0.000362161
0.000327716
0.000306228
0.000171058
0.00011337
0.00010403
0.000115502
0.000119893
0.000109516
0.000100286
8.13296e-05
6.16938e-05
3.99008e-05
2.68461e-05
2.18846e-05
2.14479e-05
2.27751e-05
2.50013e-05
2.75131e-05
3.02276e-05
3.26859e-05
3.47217e-05
3.63639e-05
3.7557e-05
3.8428e-05
3.9226e-05
3.9854e-05
3.99588e-05
3.94747e-05
3.88514e-05
3.82668e-05
3.78308e-05
3.75105e-05
3.72027e-05
3.6801e-05
3.64176e-05
3.62251e-05
3.59406e-05
3.61977e-05
3.55447e-05
3.61983e-05
3.60795e-05
3.84877e-05
4.1051e-05
4.41791e-05
4.81741e-05
4.69216e-05
0.000112354
0.00141106
0.00607035
0.00963331
0.0107427
0.014674
0.0211847
0.023511
0.0238486
0.0241411
0.00831027
0.00837438
0.0344468
0.00354166
0.00315554
0.00292299
0.00330022
0.00325243
0.00338751
0.00333619
0.00334836
0.00338335
0.00344464
0.00347761
0.00337675
0.00303259
0.00251618
0.00190874
0.0014525
0.00119444
0.00114096
0.00104588
0.000967532
0.000878668
0.000766273
0.000644536
0.000555312
0.000669484
0.00102589
0.00274548
0.00449022
0.00466807
0.00294432
0.0022437
0.00186669
0.00181369
0.0017144
0.000876162
0.000502575
0.00025768
0.000330059
0.000364835
0.000260398
0.000179977
9.78002e-05
8.16733e-05
8.06716e-05
8.69855e-05
8.41046e-05
6.88102e-05
5.09741e-05