/*--------------------------------*- C++ -*----------------------------------*\
| =========                 |                                                 |
| \\      /  F ield         | OpenFOAM: The Open Source CFD Toolbox           |
|  \\    /   O peration     | Version:  2.3.0                                 |
|   \\  /    A nd           | Web:      www.OpenFOAM.org                      |
|    \\/     M anipulation  |                                                 |
\*---------------------------------------------------------------------------*/
FoamFile
{
    version     2.0;
    format      ascii;
    class       volScalarField;
    location    "39";
    object      k.water;
}
// * * * * * * * * * * * * * * * * * * * * * * * * * * * * * * * * * * * * * //

dimensions      [0 2 -2 0 0 0 0];

internalField   nonuniform List<scalar> 
6144
(
8.89091e-05
7.4976e-05
5.31335e-05
4.43765e-05
3.30501e-05
2.54124e-05
2.09206e-05
1.90157e-05
1.79981e-05
2.10791e-05
2.51583e-05
2.86195e-05
3.00503e-05
3.0233e-05
2.89443e-05
2.7953e-05
2.68342e-05
2.61053e-05
2.5293e-05
2.47101e-05
2.45313e-05
2.44754e-05
2.45166e-05
2.46015e-05
2.47208e-05
2.48735e-05
2.50569e-05
2.53221e-05
2.57941e-05
2.62155e-05
2.65022e-05
2.66843e-05
2.68248e-05
2.6935e-05
2.70336e-05
2.71376e-05
2.73665e-05
2.76318e-05
2.8123e-05
2.84812e-05
2.91858e-05
2.95941e-05
3.06491e-05
3.09825e-05
3.12504e-05
3.01826e-05
2.87974e-05
2.87591e-05
2.97478e-05
3.27332e-05
3.74873e-05
5.58013e-05
0.000108196
0.000204153
0.000384381
0.000629384
0.000996921
0.00172646
0.00646895
0.00797411
0.0147671
0.00891377
0.00532968
0.00343608
0.00243465
0.00176087
0.00126298
0.000886445
0.000441588
0.000207475
0.000239052
0.000278579
0.000298302
0.000306688
0.000309545
0.000309958
0.000314692
0.000320613
0.000327103
0.000331281
0.000335554
0.000338402
0.000342068
0.000345741
0.000348048
0.000345812
0.000339747
0.000326548
0.000310227
0.000292748
0.000276187
0.000255493
0.000229543
0.000199528
0.000154974
0.000100007
0.000139266
0.000101559
7.23205e-05
6.51539e-05
5.23511e-05
4.72385e-05
4.41467e-05
4.21215e-05
4.03622e-05
4.6008e-05
5.1378e-05
5.58876e-05
5.7724e-05
5.66246e-05
5.37634e-05
5.1776e-05
5.03275e-05
4.99282e-05
5.00328e-05
5.04504e-05
5.12874e-05
5.20707e-05
5.27854e-05
5.33955e-05
5.39202e-05
5.43861e-05
5.48211e-05
5.53689e-05
5.61641e-05
5.67756e-05
5.71958e-05
5.75225e-05
5.78354e-05
5.81356e-05
5.84627e-05
5.88018e-05
5.93011e-05
5.97191e-05
6.05781e-05
6.09572e-05
6.23059e-05
6.23578e-05
6.40734e-05
6.35803e-05
6.38239e-05
6.07443e-05
5.86575e-05
5.98194e-05
6.9405e-05
7.23382e-05
8.03995e-05
0.000105344
0.000220064
0.000391499
0.000615676
0.000773253
0.00145374
0.00301919
0.00520946
0.00705573
0.0127178
0.00799297
0.00470464
0.00287716
0.00204619
0.00149627
0.00108847
0.000752949
0.000345787
0.000251349
0.000344103
0.000403111
0.000439843
0.000458019
0.000465448
0.000460115
0.00045893
0.000469474
0.00048218
0.000492954
0.000498659
0.00050024
0.000494477
0.000482594
0.00047026
0.000463046
0.000454994
0.000445435
0.000426462
0.000397204
0.00036682
0.00033271
0.000295271
0.000243079
0.000168513
0.000101075
0.000161226
0.000110893
8.32948e-05
7.75658e-05
6.93382e-05
6.86413e-05
6.87896e-05
6.42413e-05
5.8076e-05
5.83854e-05
6.21978e-05
6.37059e-05
6.25967e-05
5.98724e-05
5.72465e-05
5.62324e-05
5.63592e-05
5.77942e-05
6.03866e-05
6.29012e-05
6.48767e-05
6.65522e-05
6.79004e-05
6.89535e-05
6.97734e-05
7.04208e-05
7.09562e-05
7.13894e-05
7.16995e-05
7.18578e-05
7.19417e-05
7.20035e-05
7.20695e-05
7.21487e-05
7.2278e-05
7.24294e-05
7.25637e-05
7.25641e-05
7.26423e-05
7.2346e-05
7.24999e-05
7.18291e-05
7.24128e-05
7.19512e-05
7.26885e-05
7.14175e-05
7.36055e-05
8.08232e-05
9.91173e-05
0.00010662
0.000122006
0.000179794
0.000500356
0.000925189
0.00113948
0.00121393
0.00142533
0.00271155
0.00528177
0.00660637
0.012196
0.00725669
0.003779
0.00227998
0.00175142
0.00129602
0.000970009
0.000575475
0.000315057
0.000352706
0.000448524
0.00051604
0.000562529
0.000585696
0.000592564
0.000555026
0.000544396
0.000551004
0.000566498
0.000577353
0.000582129
0.00057992
0.000562285
0.00053317
0.000508229
0.000500872
0.00049811
0.000497215
0.000486963
0.000465595
0.000429476
0.000393558
0.000364282
0.000317682
0.000216729
0.000111882
0.000183584
0.000126284
9.56272e-05
8.75704e-05
7.80872e-05
7.9535e-05
8.19887e-05
7.75123e-05
6.93152e-05
6.45844e-05
6.61845e-05
6.63226e-05
6.38805e-05
6.03964e-05
5.78571e-05
5.72225e-05
5.81249e-05
6.02838e-05
6.28739e-05
6.53593e-05
6.74046e-05
6.91985e-05
7.0628e-05
7.17301e-05
7.25697e-05
7.32283e-05
7.37759e-05
7.42257e-05
7.45397e-05
7.4691e-05
7.47426e-05
7.4754e-05
7.47476e-05
7.47379e-05
7.47506e-05
7.48058e-05
7.48583e-05
7.48223e-05
7.47941e-05
7.44546e-05
7.43394e-05
7.37344e-05
7.39646e-05
7.42264e-05
7.52379e-05
7.55797e-05
7.81288e-05
8.34369e-05
9.9408e-05
0.000119274
0.000163203
0.00038364
0.0012837
0.00201768
0.00196476
0.00189242
0.00164398
0.00267294
0.00486209
0.00558905
0.0117926
0.00575788
0.00192679
0.0011507
0.00114447
0.000991278
0.000679444
0.000404634
0.00035016
0.000476203
0.000561437
0.000639803
0.000677743
0.000690859
0.000668495
0.000603473
0.000581268
0.000576992
0.000578006
0.00057531
0.000554639
0.00051053
0.000453058
0.000419846
0.000413545
0.000451225
0.000490032
0.000512355
0.00051638
0.000506311
0.000482136
0.000429351
0.000399716
0.000370755
0.000290897
0.000133804
0.000200452
0.000137304
0.000113528
0.000106825
8.78382e-05
8.42541e-05
8.09389e-05
7.85754e-05
7.58e-05
6.95181e-05
6.91625e-05
6.70498e-05
6.33857e-05
5.88924e-05
5.6281e-05
5.57323e-05
5.70602e-05
5.95737e-05
6.24832e-05
6.52989e-05
6.78828e-05
7.01243e-05
7.17754e-05
7.2963e-05
7.3784e-05
7.43621e-05
7.4786e-05
7.50942e-05
7.52568e-05
7.52445e-05
7.51061e-05
7.49024e-05
7.46854e-05
7.44899e-05
7.4346e-05
7.42234e-05
7.40897e-05
7.38718e-05
7.35743e-05
7.29959e-05
7.24577e-05
7.19945e-05
7.21988e-05
7.33921e-05
7.49323e-05
7.5409e-05
7.74759e-05
8.15164e-05
9.4389e-05
0.000120945
0.000264934
0.00088723
0.00206754
0.00254259
0.00252916
0.00254962
0.00242126
0.00361869
0.00394384
0.00417851
0.0100861
0.0031268
0.000729737
0.000642775
0.00069745
0.000592025
0.000460788
0.000413664
0.000460892
0.000616415
0.000716501
0.000775306
0.000795796
0.00076991
0.000676882
0.000585461
0.000545924
0.000529295
0.000510427
0.00048368
0.000434528
0.000378825
0.000350795
0.000343313
0.00037029
0.000408651
0.000476767
0.000536156
0.000552492
0.000522357
0.000503235
0.00048071
0.000437906
0.000416895
0.000352585
0.00017531
0.000211032
0.000148341
0.000133771
0.000136001
0.000108016
0.000100763
7.97393e-05
7.68453e-05
7.80841e-05
7.13768e-05
6.98046e-05
6.6413e-05
6.2537e-05
5.70504e-05
5.25692e-05
5.12978e-05
5.29326e-05
5.6279e-05
6.03545e-05
6.4224e-05
6.75013e-05
6.99442e-05
7.16509e-05
7.28326e-05
7.36014e-05
7.40948e-05
7.4416e-05
7.46146e-05
7.46649e-05
7.45082e-05
7.42306e-05
7.39015e-05
7.35633e-05
7.3255e-05
7.30005e-05
7.27627e-05
7.24917e-05
7.2115e-05
7.15926e-05
7.08195e-05
7.00154e-05
6.96843e-05
7.00329e-05
7.16691e-05
7.35168e-05
7.38412e-05
7.48504e-05
7.93914e-05
9.3703e-05
0.000129356
0.000395336
0.00131906
0.00237194
0.00270234
0.00295153
0.00274666
0.00301984
0.00382599
0.00310425
0.00310491
0.0085593
0.00179112
0.000560229
0.000516148
0.0005184
0.000508394
0.000499527
0.000570737
0.000757225
0.000853563
0.000896726
0.000907261
0.00083861
0.000751605
0.000626635
0.000554803
0.000516474
0.00049094
0.000457801
0.000425491
0.000376995
0.000340759
0.000331361
0.000341132
0.000359296
0.000382179
0.000432797
0.00055081
0.000592675
0.000587895
0.000541857
0.000481263
0.000455111
0.00043947
0.000395513
0.000215753
0.000202684
0.000155339
0.000143638
0.000153728
0.000127267
0.000120462
9.13914e-05
7.95287e-05
8.12079e-05
7.35787e-05
7.05205e-05
6.57439e-05
5.93243e-05
5.18257e-05
4.75624e-05
4.64274e-05
4.81512e-05
5.12197e-05
5.47994e-05
5.84988e-05
6.18618e-05
6.45208e-05
6.6475e-05
6.77774e-05
6.85202e-05
6.89262e-05
6.91239e-05
6.92102e-05
6.91366e-05
6.88376e-05
6.83404e-05
6.77459e-05
6.71225e-05
6.65215e-05
6.60022e-05
6.55487e-05
6.49948e-05
6.43651e-05
6.35736e-05
6.27583e-05
6.18983e-05
6.21428e-05
6.29765e-05
6.58502e-05
6.7713e-05
6.78725e-05
6.92446e-05
7.52517e-05
9.22306e-05
0.00012017
0.000274916
0.000847879
0.00187539
0.0029602
0.00346861
0.00341529
0.00335888
0.00342906
0.00247244
0.00245134
0.0067219
0.00110776
0.000640974
0.000621733
0.000652985
0.000690059
0.000793621
0.000880215
0.000920901
0.000935379
0.000922708
0.000853468
0.000761641
0.000668923
0.000594351
0.000542832
0.000518925
0.000500893
0.000483373
0.000457016
0.000408919
0.000379815
0.000375819
0.00037509
0.000379811
0.000396245
0.000398833
0.000535683
0.000615793
0.000633039
0.000594119
0.000487671
0.000453265
0.000449116
0.000422875
0.000250534
0.000174946
0.00015626
0.00014629
0.000157709
0.000133947
0.000126422
0.000101965
7.82042e-05
8.12378e-05
7.29002e-05
6.92998e-05
6.29435e-05
5.80551e-05
4.99959e-05
4.4056e-05
4.19413e-05
4.40884e-05
4.80872e-05
5.25344e-05
5.66708e-05
6.02019e-05
6.29344e-05
6.4942e-05
6.63208e-05
6.71786e-05
6.77125e-05
6.80393e-05
6.81831e-05
6.80701e-05
6.76675e-05
6.70686e-05
6.64125e-05
6.57696e-05
6.51471e-05
6.45678e-05
6.39969e-05
6.33394e-05
6.26692e-05
6.1881e-05
6.11565e-05
6.0464e-05
6.08389e-05
6.18777e-05
6.48957e-05
6.72092e-05
6.78039e-05
6.86555e-05
7.40879e-05
9.665e-05
0.00016804
0.000518267
0.00124772
0.00179745
0.00226437
0.00367226
0.00375424
0.00309835
0.00284794
0.00247528
0.0024746
0.00563221
0.00105397
0.00079439
0.000822332
0.000856087
0.000893472
0.000923665
0.000937748
0.000942417
0.000927118
0.000894099
0.00083696
0.000777409
0.000708501
0.000657392
0.00063853
0.000641216
0.000652731
0.000647571
0.000622833
0.000579337
0.000520417
0.000473898
0.000429125
0.000403418
0.000399247
0.000386044
0.000487768
0.000579058
0.000659211
0.000605684
0.000447864
0.000435869
0.00045253
0.000449435
0.000307502
0.000154615
0.000147574
0.000145345
0.000157248
0.000130191
0.000118284
0.000102522
7.51136e-05
7.45915e-05
6.8549e-05
6.50379e-05
5.84367e-05
5.19449e-05
4.21397e-05
3.42674e-05
3.10939e-05
3.29746e-05
3.70982e-05
4.14264e-05
4.51204e-05
4.813e-05
5.0569e-05
5.24633e-05
5.38631e-05
5.48171e-05
5.54548e-05
5.58621e-05
5.60743e-05
5.59991e-05
5.56044e-05
5.50443e-05
5.44496e-05
5.38919e-05
5.33828e-05
5.29111e-05
5.24381e-05
5.19082e-05
5.14301e-05
5.09277e-05
5.06151e-05
5.03238e-05
5.08813e-05
5.19365e-05
5.43009e-05
5.60621e-05
5.63615e-05
5.56924e-05
5.90882e-05
8.83437e-05
0.000266842
0.00109124
0.00210294
0.00243936
0.00280524
0.00383707
0.00359374
0.00285246
0.00248119
0.00260605
0.00261094
0.0067286
0.00118962
0.000814476
0.000835888
0.000854623
0.000865541
0.000872188
0.00087047
0.000869027
0.000859085
0.000848642
0.000838603
0.000807071
0.000771317
0.000727206
0.000675964
0.000631126
0.000610522
0.000612645
0.000607172
0.000595529
0.00056351
0.000509353
0.000448531
0.000396398
0.000376673
0.000325725
0.000372819
0.000455823
0.000607713
0.000599013
0.000448149
0.000414226
0.000447124
0.000450262
0.000318376
0.000145528
0.000131113
0.000145139
0.000153991
0.000125441
0.000115933
0.000102063
7.91412e-05
6.60306e-05
6.17109e-05
5.88878e-05
5.23665e-05
4.47422e-05
3.49087e-05
2.68987e-05
2.32849e-05
2.41453e-05
2.7332e-05
3.07971e-05
3.36771e-05
3.60488e-05
3.7912e-05
3.93479e-05
4.04564e-05
4.12576e-05
4.18179e-05
4.22016e-05
4.24305e-05
4.24713e-05
4.23079e-05
4.20461e-05
4.17753e-05
4.15548e-05
4.13821e-05
4.12067e-05
4.10071e-05
4.07937e-05
4.06443e-05
4.05208e-05
4.05229e-05
4.05873e-05
4.11504e-05
4.19147e-05
4.29997e-05
4.37354e-05
4.35065e-05
4.27863e-05
4.8467e-05
9.89025e-05
0.000438543
0.00158536
0.00244534
0.00269045
0.0029184
0.00339861
0.00331118
0.00309186
0.00314558
0.00301934
0.00303271
0.00925478
0.00167645
0.000821402
0.000805747
0.000812501
0.000792258
0.000784463
0.000757155
0.000752829
0.000747259
0.000746923
0.000743549
0.000743251
0.000767643
0.000768265
0.00073949
0.000679967
0.000611682
0.00057108
0.000541894
0.000533458
0.00051804
0.000483518
0.000442238
0.000394983
0.000361232
0.000281083
0.000270624
0.000352625
0.0005753
0.000616379
0.000459658
0.000416351
0.000446326
0.000448394
0.000324554
0.000128994
0.000101097
9.84674e-05
0.000111315
0.000115228
9.95395e-05
8.8534e-05
7.12658e-05
5.58656e-05
5.19153e-05
4.96038e-05
4.36752e-05
3.64929e-05
2.79245e-05
2.15424e-05
1.80899e-05
1.8153e-05
2.02041e-05
2.27385e-05
2.4847e-05
2.65728e-05
2.79582e-05
2.90511e-05
2.99231e-05
3.05874e-05
3.11042e-05
3.15078e-05
3.17659e-05
3.18867e-05
3.18564e-05
3.17683e-05
3.16812e-05
3.1657e-05
3.16857e-05
3.17201e-05
3.17376e-05
3.17185e-05
3.17474e-05
3.18794e-05
3.21433e-05
3.25065e-05
3.29631e-05
3.35454e-05
3.36925e-05
3.3819e-05
3.33929e-05
3.36841e-05
3.83022e-05
6.71501e-05
0.000183976
0.000545579
0.000873899
0.00158195
0.00180649
0.00274435
0.00395951
0.00456852
0.00398204
0.00382303
0.00401193
0.0106982
0.00353531
0.00100664
0.000773815
0.000859384
0.000744602
0.00073352
0.000681738
0.000647284
0.000624084
0.000610296
0.000605082
0.000610668
0.000623034
0.000654645
0.000655195
0.000636773
0.000599351
0.000571566
0.000542515
0.000522472
0.000501841
0.000477991
0.000450202
0.000407139
0.000369385
0.000286492
0.0001765
0.00018489
0.000381555
0.000587626
0.000460679
0.000413045
0.00043924
0.0004375
0.000321679
0.000132691
9.64127e-05
5.48474e-05
5.90778e-05
6.40858e-05
6.74868e-05
6.58674e-05
5.43285e-05
4.68121e-05
4.67938e-05
4.54525e-05
3.7842e-05
2.93517e-05
2.15128e-05
1.65409e-05
1.41618e-05
1.44366e-05
1.60179e-05
1.78822e-05
1.93975e-05
2.06711e-05
2.17259e-05
2.26324e-05
2.33903e-05
2.40167e-05
2.4562e-05
2.50482e-05
2.5429e-05
2.5657e-05
2.5776e-05
2.58173e-05
2.58774e-05
2.60171e-05
2.62098e-05
2.63612e-05
2.64689e-05
2.65659e-05
2.66731e-05
2.67704e-05
2.69071e-05
2.70001e-05
2.71594e-05
2.73633e-05
2.73294e-05
2.73092e-05
2.71602e-05
2.76622e-05
3.08263e-05
4.54312e-05
7.3864e-05
0.000130643
0.000180795
0.000442869
0.00047534
0.00127829
0.00288072
0.00348386
0.00383915
0.00465253
0.00505563
0.0119899
0.00558963
0.00178602
0.000894562
0.000887508
0.000806077
0.000753823
0.000716863
0.000678223
0.000642961
0.000614873
0.000594674
0.000588855
0.000593725
0.00060788
0.00061579
0.000608503
0.000590499
0.000571179
0.000549078
0.000531257
0.000508765
0.000487004
0.000457875
0.000410426
0.00036962
0.000286346
0.000155071
0.000130769
0.000268462
0.000413235
0.000422883
0.000395918
0.000422919
0.000423592
0.000316311
0.000101506
5.81439e-05
4.44065e-05
4.69508e-05
4.58999e-05
4.52285e-05
4.25819e-05
3.78255e-05
3.75085e-05
4.08892e-05
4.08636e-05
3.31919e-05
2.42896e-05
1.67679e-05
1.36235e-05
1.23343e-05
1.25114e-05
1.35889e-05
1.47724e-05
1.58294e-05
1.66961e-05
1.73973e-05
1.80033e-05
1.85901e-05
1.91454e-05
1.96677e-05
2.01731e-05
2.06308e-05
2.097e-05
2.11465e-05
2.124e-05
2.13563e-05
2.15631e-05
2.18323e-05
2.20618e-05
2.22399e-05
2.23935e-05
2.25316e-05
2.26553e-05
2.27877e-05
2.30324e-05
2.34218e-05
2.36554e-05
2.33854e-05
2.32063e-05
2.27737e-05
2.33611e-05
2.57231e-05
3.52451e-05
5.04633e-05
7.03859e-05
9.66443e-05
0.000139457
0.00023319
0.000719691
0.00163963
0.00243368
0.00263865
0.00516118
0.00609341
0.0123934
0.00681436
0.00308291
0.00138292
0.00103048
0.000912793
0.000827463
0.000772403
0.00073133
0.000699022
0.000673525
0.000652619
0.000640001
0.000631281
0.000632409
0.000632716
0.000626891
0.000610642
0.000588353
0.000564073
0.000539523
0.000511827
0.000484714
0.000452829
0.000407441
0.000366883
0.000281185
0.000141329
0.00011099
0.000215289
0.000331719
0.000364029
0.000377865
0.000404417
0.000400697
0.000306993
4.58589e-05
4.38205e-05
3.98539e-05
4.20752e-05
3.98615e-05
3.92719e-05
3.37015e-05
3.03955e-05
3.32577e-05
3.63293e-05
3.50723e-05
2.66306e-05
1.82618e-05
1.39373e-05
1.20018e-05
1.08282e-05
1.09867e-05
1.18736e-05
1.28178e-05
1.36021e-05
1.42737e-05
1.48423e-05
1.53348e-05
1.57453e-05
1.61138e-05
1.64808e-05
1.68706e-05
1.72606e-05
1.75736e-05
1.77157e-05
1.77628e-05
1.78345e-05
1.8025e-05
1.83332e-05
1.86413e-05
1.88771e-05
1.90875e-05
1.92628e-05
1.94321e-05
1.95952e-05
1.98337e-05
1.99927e-05
2.02203e-05
1.99446e-05
1.97463e-05
1.93169e-05
1.97223e-05
2.17985e-05
2.86206e-05
4.0523e-05
5.58806e-05
8.16084e-05
9.92625e-05
0.000203441
0.000505387
0.000989145
0.00145762
0.00242317
0.00538872
0.00638957
0.0122318
0.00736361
0.00410857
0.00227277
0.00148997
0.0011646
0.00100984
0.000916687
0.000846537
0.000788077
0.000743325
0.000706063
0.000679202
0.000657332
0.000643757
0.000636095
0.000626424
0.000609585
0.000587468
0.00056185
0.000532777
0.000502158
0.000472268
0.000439879
0.000399012
0.000357842
0.00026743
0.000126073
0.000103048
0.000195235
0.000286715
0.000325524
0.00035743
0.000373766
0.000357414
0.000287822
4.10634e-05
3.20173e-05
2.84134e-05
2.85543e-05
2.86301e-05
2.55606e-05
2.37965e-05
2.46567e-05
2.68953e-05
2.72713e-05
2.46366e-05
1.76941e-05
1.34337e-05
1.10267e-05
9.72186e-06
9.00235e-06
9.20041e-06
9.89883e-06
1.06078e-05
1.11994e-05
1.17034e-05
1.21433e-05
1.25549e-05
1.29371e-05
1.33132e-05
1.37117e-05
1.41489e-05
1.45947e-05
1.4975e-05
1.51993e-05
1.53267e-05
1.54751e-05
1.57255e-05
1.60684e-05
1.63871e-05
1.6638e-05
1.68657e-05
1.70527e-05
1.72349e-05
1.74039e-05
1.76597e-05
1.78131e-05
1.80573e-05
1.78368e-05
1.76494e-05
1.72515e-05
1.74522e-05
1.91618e-05
2.4356e-05
3.42282e-05
4.89399e-05
6.4481e-05
8.69128e-05
0.000179788
0.000346431
0.000570025
0.00126752
0.00278076
0.0049513
0.00640822
0.0124156
0.00764195
0.00463552
0.00289351
0.00201456
0.00152072
0.00123759
0.00106587
0.000948585
0.000861339
0.000792601
0.000737946
0.000692389
0.0006551
0.00062646
0.000604442
0.00058478
0.000566057
0.000545739
0.000524114
0.000501549
0.000475651
0.000449681
0.000421213
0.000384578
0.000341551
0.000245386
0.00011075
9.7504e-05
0.000187995
0.000267876
0.000303174
0.000322698
0.000328669
0.000303604
0.000258315
4.5615e-05
4.2967e-05
3.2801e-05
2.10077e-05
1.72025e-05
1.68903e-05
1.41298e-05
1.56553e-05
1.62353e-05
1.52305e-05
1.33172e-05
1.0692e-05
8.97519e-06
7.6908e-06
6.82525e-06
6.40346e-06
6.55109e-06
6.99209e-06
7.42846e-06
7.79423e-06
8.108e-06
8.39321e-06
8.67246e-06
8.95019e-06
9.23452e-06
9.53733e-06
9.87039e-06
1.02156e-05
1.05253e-05
1.07413e-05
1.08781e-05
1.1015e-05
1.12175e-05
1.1493e-05
1.17834e-05
1.20239e-05
1.22486e-05
1.24298e-05
1.25977e-05
1.27445e-05
1.2985e-05
1.31362e-05
1.34086e-05
1.33109e-05
1.31829e-05
1.29293e-05
1.30724e-05
1.47479e-05
1.86942e-05
2.54475e-05
3.47838e-05
4.57812e-05
6.05079e-05
0.000104652
0.000185974
0.000388628
0.000766623
0.00152055
0.00668179
0.00758668
0.0140368
0.00814641
0.00492198
0.00323174
0.00234666
0.00182421
0.00148159
0.00124522
0.00107545
0.000950382
0.000855912
0.000782368
0.000723911
0.000675068
0.000635293
0.000601832
0.000573763
0.000550023
0.000528387
0.000506856
0.000486486
0.000461259
0.000436794
0.000406188
0.000372654
0.000321677
0.000195644
8.07164e-05
9.91479e-05
0.00018417
0.000222278
0.000235417
0.000237906
0.000226202
0.00019925
0.000188746
0.000167421
0.000138673
8.76274e-05
6.7263e-05
4.47334e-05
3.4072e-05
3.24993e-05
3.56376e-05
4.25483e-05
5.91745e-05
7.35285e-05
8.44727e-05
8.79004e-05
8.75477e-05
8.27069e-05
7.8535e-05
7.45319e-05
7.16221e-05
6.83881e-05
6.51277e-05
6.24504e-05
6.09467e-05
6.06035e-05
6.10048e-05
6.20458e-05
6.35925e-05
6.5513e-05
6.75631e-05
6.93837e-05
7.07751e-05
7.16818e-05
7.23459e-05
7.29413e-05
7.34822e-05
7.40089e-05
7.46461e-05
7.56455e-05
7.68302e-05
7.86373e-05
8.0116e-05
8.26058e-05
8.38028e-05
8.69825e-05
8.67087e-05
8.72396e-05
8.36527e-05
7.96192e-05
7.61674e-05
6.70826e-05
5.97588e-05
5.79712e-05
7.18718e-05
0.000109555
0.000184623
0.000366896
0.000587348
0.00123943
0.00255273
0.00423657
0.00532981
0.0086515
0.00603782
0.00410435
0.00280243
0.00204027
0.00151529
0.00111325
0.000846434
0.000489955
0.000236117
0.000239747
0.000285431
0.000319545
0.000348963
0.000376041
0.000389413
0.000396237
0.000412157
0.000432384
0.000445557
0.00045187
0.000453167
0.000448485
0.00044277
0.00043421
0.000414685
0.000385286
0.000360249
0.000338179
0.000315888
0.00029457
0.00026804
0.000238263
0.000206905
0.000160426
0.000104044
0.000328261
0.000232912
0.000164433
0.000139026
0.00010774
9.96913e-05
0.000104849
0.000113065
0.000120587
0.000142746
0.000156188
0.000165321
0.000166648
0.000161135
0.000152848
0.000147399
0.000145277
0.000145785
0.000146472
0.000146786
0.000146594
0.000147046
0.00014827
0.000149981
0.000152076
0.000154473
0.000157067
0.00015952
0.000161387
0.000162617
0.000163397
0.000164007
0.000164569
0.000165103
0.000165653
0.000166329
0.000167179
0.000168056
0.000169293
0.000170197
0.000171752
0.000172148
0.000174087
0.00017362
0.000173795
0.000172485
0.000174117
0.000177478
0.000181281
0.000166762
0.000171961
0.000207122
0.000365446
0.000542448
0.000948926
0.00155968
0.00313824
0.00496807
0.00831311
0.00920438
0.00171162
0.00401241
0.00533464
0.00398066
0.00262801
0.0018097
0.00129982
0.000971377
0.00060514
0.000386207
0.000422931
0.000485602
0.000572936
0.000662874
0.000735913
0.000773343
0.000788403
0.000809403
0.000843464
0.000864603
0.000873616
0.000875
0.000869249
0.000859114
0.000844179
0.000801441
0.000724682
0.000633964
0.000554806
0.000490373
0.000438962
0.000399769
0.000360366
0.000288319
0.000201258
0.000109636
0.000403129
0.000265459
0.000204941
0.000188087
0.000180199
0.000174066
0.000169551
0.000170842
0.000169659
0.000179996
0.000183097
0.000184153
0.000180348
0.000170762
0.000160164
0.000154829
0.000154942
0.000158886
0.00016377
0.000168521
0.000172347
0.000175887
0.000178996
0.00018167
0.000183978
0.00018604
0.000187942
0.000189582
0.000190724
0.000191321
0.000191613
0.000191755
0.000191836
0.000191929
0.000192085
0.000192325
0.000192556
0.000192669
0.000192742
0.000192557
0.00019274
0.000192916
0.0001944
0.000196046
0.000197332
0.000198745
0.000203574
0.000211493
0.000231114
0.000239905
0.000301752
0.000545899
0.00128748
0.00167602
0.00175823
0.00205401
0.00306806
0.00454107
0.0055718
0.00509069
0.00135993
0.00396902
0.00528938
0.00382764
0.00253679
0.00178213
0.00129997
0.000992338
0.000683071
0.00054811
0.000663556
0.000763851
0.000869944
0.000933343
0.000995409
0.0010187
0.000989492
0.000979807
0.000988893
0.000994998
0.00100184
0.00101075
0.00101001
0.000995764
0.000971038
0.000934061
0.000880973
0.000765169
0.000649247
0.000556427
0.000479551
0.000446996
0.000456905
0.000441615
0.000326216
0.000133118
0.000586198
0.000346718
0.000248105
0.000220868
0.000218744
0.00022439
0.000222509
0.000220833
0.000210055
0.000205422
0.000203003
0.000197748
0.000188578
0.000175137
0.00016242
0.000156435
0.000157356
0.000162722
0.000169837
0.000176892
0.000183011
0.000188478
0.000192795
0.000196168
0.000198795
0.000200924
0.000202719
0.000204167
0.000205069
0.000205358
0.000205283
0.000205031
0.000204724
0.000204451
0.000204282
0.000204163
0.000204001
0.000203687
0.000203182
0.000202439
0.000202068
0.000202616
0.000204484
0.000208275
0.000211195
0.000212617
0.000216803
0.000223743
0.000248707
0.000306503
0.000567732
0.00141229
0.00271459
0.00336629
0.00344481
0.00319513
0.00325645
0.0051452
0.00454261
0.00388111
0.0012604
0.0026686
0.00234842
0.00199613
0.00177811
0.00153969
0.00119659
0.000881797
0.000648456
0.000694843
0.00090295
0.0010963
0.00121389
0.00126803
0.00129052
0.00122145
0.00109133
0.00104235
0.00102744
0.00102512
0.00104542
0.00108306
0.00109593
0.00107347
0.00100711
0.000971931
0.000979938
0.000960213
0.000873429
0.00073904
0.000601363
0.000478217
0.000473339
0.00050496
0.000453589
0.000183633
0.000802086
0.000413774
0.000298295
0.000254009
0.000238443
0.000244293
0.000245629
0.000245118
0.00023875
0.000225246
0.000219468
0.000209345
0.000197116
0.000178928
0.000164206
0.000156973
0.000157935
0.000163793
0.000171693
0.000179586
0.000187039
0.0001937
0.000198755
0.000202618
0.000205547
0.00020787
0.00020978
0.000211295
0.000212214
0.000212376
0.000212078
0.000211602
0.000211088
0.000210624
0.000210301
0.000210071
0.000209787
0.000209406
0.000208874
0.000208338
0.000207865
0.000209626
0.000211771
0.000216948
0.00021981
0.000221047
0.00022575
0.000236132
0.000264876
0.00036986
0.00103463
0.00239165
0.00417891
0.00509932
0.00554508
0.00536106
0.00482671
0.0090864
0.0028205
0.00214861
0.00127446
0.00185264
0.00123366
0.0010623
0.00120256
0.000994302
0.000852287
0.00076426
0.000756243
0.00103313
0.0013492
0.00159122
0.0016827
0.00169582
0.00158526
0.00131096
0.00114207
0.00107869
0.00106093
0.00106352
0.0010936
0.00112174
0.00112878
0.00110623
0.00102761
0.000985407
0.000999267
0.00102219
0.0010066
0.000952949
0.000848532
0.000631794
0.000504197
0.000538416
0.000535989
0.00025788
0.00101793
0.000440649
0.000325587
0.000285256
0.000275399
0.000275619
0.000261943
0.00026006
0.000255371
0.000237064
0.000228965
0.000214189
0.000199884
0.000178505
0.000156976
0.000145086
0.000146231
0.000154251
0.000165385
0.000176821
0.000186785
0.000194173
0.000199696
0.000203911
0.000207061
0.000209526
0.000211533
0.000213102
0.000214027
0.000214109
0.000213673
0.000213055
0.000212406
0.000211802
0.00021134
0.000211008
0.000210547
0.000209992
0.000209275
0.000208678
0.000207943
0.000210154
0.000212315
0.000218367
0.000221393
0.000223819
0.000231931
0.000246438
0.000280505
0.000391713
0.00124658
0.00301527
0.005073
0.00591561
0.00626988
0.0069951
0.00807515
0.00899357
0.00185305
0.00154638
0.00126089
0.00140652
0.000985777
0.000870578
0.000992582
0.000918249
0.000961332
0.00106771
0.00142919
0.00194398
0.00221987
0.00231074
0.00217185
0.00192075
0.00159905
0.00131418
0.00117275
0.00112166
0.00110789
0.00111148
0.00113026
0.00114969
0.00116575
0.00122335
0.00128512
0.00129609
0.00127762
0.00129196
0.00123066
0.00109325
0.000985599
0.000832062
0.000574415
0.000536908
0.000559538
0.000312949
0.00100413
0.000446955
0.000336393
0.00029459
0.000297612
0.000300663
0.000287711
0.000276884
0.000269116
0.000242158
0.000232217
0.000214259
0.000193631
0.000163374
0.000139746
0.000127143
0.000128548
0.000136524
0.000146812
0.000157338
0.000167138
0.000175784
0.000182808
0.000188194
0.000192081
0.00019495
0.000197106
0.000198683
0.000199345
0.000198839
0.000197598
0.000196121
0.000194609
0.000193114
0.000191784
0.000190799
0.000189542
0.00018827
0.000186719
0.000185951
0.000184328
0.000187952
0.000189986
0.00019954
0.000204825
0.000211433
0.000229029
0.000245571
0.00028576
0.000381235
0.000919477
0.00211407
0.00409039
0.00659205
0.0067779
0.00648152
0.00725542
0.00739662
0.000736095
0.0006915
0.00157902
0.0012848
0.00122437
0.00115467
0.00133454
0.00140848
0.00173693
0.00203655
0.00231825
0.00243286
0.00244538
0.00226358
0.00201768
0.0017468
0.00147198
0.00122951
0.00111684
0.00108228
0.00107747
0.00109429
0.00111478
0.00112359
0.0011309
0.00120881
0.00139285
0.00160642
0.00170584
0.00182062
0.00185136
0.00175162
0.00155453
0.00104111
0.000731951
0.000626493
0.000633731
0.000381045
0.000846125
0.000447954
0.00033593
0.000287632
0.000286355
0.00029915
0.000294712
0.000280381
0.000271971
0.000239017
0.000224574
0.000199321
0.000177402
0.00014315
0.000113367
9.7751e-05
0.000100415
0.00011165
0.00012525
0.000137493
0.000147726
0.000155835
0.000161939
0.00016651
0.00016973
0.000172027
0.000173601
0.000174285
0.000173789
0.000172036
0.000169698
0.000167352
0.000165256
0.00016324
0.000161238
0.000159089
0.000156799
0.000154726
0.000152557
0.000151179
0.000149231
0.000151434
0.000153052
0.000160985
0.000167753
0.000174927
0.000186205
0.000197552
0.000263613
0.000554871
0.00152062
0.00259199
0.00303851
0.0038276
0.00626078
0.00507884
0.00355652
0.00318799
0.000791662
0.000781262
0.00195099
0.00160511
0.00156859
0.00155227
0.00170755
0.00184181
0.0020449
0.00216906
0.0022703
0.00230782
0.002304
0.00218147
0.00204843
0.00182244
0.00157042
0.00132929
0.00121492
0.00118166
0.00118208
0.00118779
0.00120156
0.00120197
0.00120163
0.00124212
0.00144024
0.00176135
0.0019772
0.00204564
0.0020526
0.00205272
0.00167338
0.00112665
0.000919814
0.000912461
0.00100316
0.00124401
0.000688136
0.000479625
0.000356747
0.000282277
0.000256705
0.000229471
0.000258519
0.000274179
0.000265732
0.00023028
0.000214668
0.000185049
0.000156687
0.000114661
8.47521e-05
7.05053e-05
7.04342e-05
7.58337e-05
8.33442e-05
9.09661e-05
9.83189e-05
0.000105411
0.000111353
0.000115911
0.000119012
0.000121065
0.000122376
0.000123251
0.000123202
0.000121795
0.000119768
0.000117632
0.000115716
0.000114066
0.00011272
0.000111586
0.000110437
0.000109468
0.000108385
0.000108331
0.000106807
0.000109085
0.00010968
0.000115825
0.000120299
0.000126215
0.000135452
0.000139019
0.000220766
0.000903649
0.00255275
0.00389572
0.00428799
0.00498663
0.00653465
0.00516612
0.00248713
0.00159713
0.000837188
0.000819778
0.00207145
0.00189017
0.00197363
0.00195163
0.00209987
0.00216442
0.00228147
0.00235969
0.00244696
0.00252276
0.00254651
0.00243149
0.00224026
0.00199684
0.00173074
0.00145109
0.00129253
0.00125101
0.00125841
0.00123868
0.00120237
0.0011734
0.00116764
0.00109156
0.00108588
0.00153413
0.00211639
0.00241268
0.00237388
0.00188475
0.00164893
0.00135765
0.00112077
0.00109819
0.0011248
0.000877115
0.000681609
0.000492359
0.00040338
0.000371507
0.000251628
0.000197314
0.00019006
0.000218552
0.000227826
0.000212235
0.000197554
0.000166728
0.000131979
9.34941e-05
6.79953e-05
5.85495e-05
5.7676e-05
6.03533e-05
6.44989e-05
6.89717e-05
7.4355e-05
7.86544e-05
8.17593e-05
8.41735e-05
8.58243e-05
8.69949e-05
8.79324e-05
8.86924e-05
8.87147e-05
8.77449e-05
8.64891e-05
8.53612e-05
8.45955e-05
8.40351e-05
8.35128e-05
8.29037e-05
8.22886e-05
8.19094e-05
8.15098e-05
8.18471e-05
8.10379e-05
8.19647e-05
8.2143e-05
8.50226e-05
8.85245e-05
9.25592e-05
9.80161e-05
9.83667e-05
0.000159306
0.0009924
0.00313844
0.00440412
0.00469865
0.00559063
0.00683011
0.00710297
0.00679795
0.00592185
0.000959945
0.000882887
0.00208451
0.00213304
0.00237074
0.00218661
0.00237633
0.00233571
0.00238224
0.00233827
0.00233629
0.00234955
0.00237555
0.00238375
0.00232124
0.00212723
0.00186852
0.0015505
0.00129887
0.00116006
0.00113594
0.0010827
0.00103084
0.000966811
0.000880958
0.000759467
0.000641126
0.000693696
0.000846119
0.00167055
0.00256741
0.00266072
0.00184522