/*--------------------------------*- C++ -*----------------------------------*\
| =========                 |                                                 |
| \\      /  F ield         | OpenFOAM: The Open Source CFD Toolbox           |
|  \\    /   O peration     | Version:  2.3.0                                 |
|   \\  /    A nd           | Web:      www.OpenFOAM.org                      |
|    \\/     M anipulation  |                                                 |
\*---------------------------------------------------------------------------*/
FoamFile
{
    version     2.0;
    format      ascii;
    class       surfaceScalarField;
    location    "39";
    object      phi;
}
// * * * * * * * * * * * * * * * * * * * * * * * * * * * * * * * * * * * * * //

dimensions      [0 3 -1 0 0 0 0];

internalField   nonuniform List<scalar> 
16448
(
-1.32852e-06
-2.6501e-06
5.25922e-07
7.73639e-07
-2.81705e-06
7.14893e-07
7.22815e-07
-1.1626e-06
1.21342e-06
5.29623e-07
-9.32088e-07
1.12527e-06
5.41149e-08
-4.75939e-07
9.51436e-07
-1.29343e-07
-6.9351e-07
8.76957e-07
-2.00734e-07
-6.7941e-07
7.5079e-07
-2.04163e-07
-6.4559e-07
6.49009e-07
-2.77232e-07
-4.84653e-07
5.57712e-07
-4.43177e-07
-3.46733e-07
5.1267e-07
-6.33193e-07
-2.64453e-07
4.5446e-07
-7.14294e-07
-2.77923e-07
3.59015e-07
-6.83963e-07
-3.216e-07
2.9126e-07
-5.58798e-07
-3.68359e-07
2.43184e-07
-4.15352e-07
-3.87674e-07
2.44219e-07
-2.66814e-07
-4.08857e-07
2.60308e-07
-1.40911e-07
-4.19762e-07
2.93849e-07
-3.79869e-08
-4.32005e-07
3.29069e-07
3.45788e-08
-4.41013e-07
3.68437e-07
7.6133e-08
-4.45906e-07
4.0434e-07
8.95613e-08
-4.48728e-07
4.35288e-07
8.5123e-08
-4.51396e-07
4.55822e-07
7.00125e-08
-4.49284e-07
4.64384e-07
4.92377e-08
-4.42519e-07
4.63282e-07
2.63188e-08
-4.3131e-07
4.54218e-07
4.01073e-09
-4.16708e-07
4.39004e-07
-1.46284e-08
-4.01746e-07
4.20374e-07
-2.75551e-08
-3.87889e-07
4.00804e-07
-3.47927e-08
-3.73838e-07
3.81065e-07
-3.99945e-08
-3.58259e-07
3.63449e-07
-4.73296e-08
-3.4067e-07
3.47994e-07
-5.82849e-08
-3.2167e-07
3.32613e-07
-7.11882e-08
-3.02285e-07
3.15176e-07
-8.26322e-08
-2.83145e-07
2.94576e-07
-8.90316e-08
-2.64836e-07
2.71223e-07
-8.87504e-08
-2.47583e-07
2.47289e-07
-8.48711e-08
-2.30612e-07
2.26721e-07
-8.62691e-08
-2.12754e-07
2.14139e-07
-1.06993e-07
-1.93721e-07
2.14432e-07
-1.70336e-07
-1.70541e-07
2.33871e-07
-3.20288e-07
-1.32336e-07
2.82275e-07
-6.22217e-07
-7.25037e-08
3.7442e-07
-1.11824e-06
6.00159e-09
4.90008e-07
-1.69791e-06
1.17342e-08
5.6792e-07
-2.0789e-06
-2.28019e-07
6.09006e-07
-2.00416e-06
-7.77391e-07
7.02636e-07
-1.26277e-06
-1.4557e-06
7.14297e-07
-5.27231e-07
-1.60546e-06
8.69915e-07
-1.33495e-06
-6.82131e-07
1.48984e-06
-1.87414e-06
-1.76296e-06
2.30214e-06
2.97698e-06
-7.90958e-06
3.05845e-06
9.89746e-06
-1.00105e-05
3.09001e-06
1.56192e-05
-9.08387e-06
3.36212e-06
2.05838e-05
-7.47677e-06
2.51211e-06
2.21095e-05
-5.15025e-06
3.62454e-06
1.97188e-05
-2.40084e-07
2.6307e-06
1.45957e-05
2.68223e-06
2.44077e-06
1.10415e-05
5.38667e-06
-1.8326e-06
-8.08395e-06
9.84578e-06
9.27935e-06
-3.28554e-07
-6.89718e-07
-7.06583e-06
2.13026e-05
-1.87591e-05
-2.87195e-06
2.73989e-05
-1.16059e-05
5.5095e-06
2.65274e-05
-7.34273e-06
8.21424e-06
2.84533e-05
-6.76404e-06
4.83812e-06
2.88229e-05
-4.99696e-06
4.62738e-06
2.83406e-05
-4.73357e-06
5.21593e-06
2.74602e-05
-4.60184e-06
5.48215e-06
2.54012e-05
-3.67761e-06
5.73661e-06
2.31367e-05
-3.83701e-06
6.10159e-06
2.15234e-05
-4.45254e-06
6.06577e-06
1.99144e-05
-4.46954e-06
6.07861e-06
1.79881e-05
-4.01685e-06
5.94308e-06
1.60782e-05
-3.9421e-06
5.852e-06
1.47839e-05
-4.24715e-06
5.54148e-06
1.42704e-05
-4.1717e-06
4.68514e-06
1.43621e-05
-3.49022e-06
3.39858e-06
1.38473e-05
-1.87128e-06
2.38603e-06
1.15301e-05
3.0892e-07
2.00831e-06
8.17745e-06
1.94054e-06
1.41211e-06
7.07967e-06
2.45165e-06
-1.35388e-06
1.076e-05
3.0259e-06
-6.7062e-06
1.3843e-05
4.78401e-06
-7.867e-06
1.56434e-05
5.22764e-06
-7.02805e-06
1.60169e-05
4.63429e-06
-5.00781e-06
1.58572e-05
3.41722e-06
-3.25752e-06
1.55197e-05
2.35937e-06
-2.02192e-06
1.49724e-05
1.26638e-06
-7.19031e-07
1.45074e-05
6.46301e-07
-1.81291e-07
1.36859e-05
1.01308e-06
-1.91601e-07
1.29508e-05
1.49866e-06
-7.63572e-07
1.25742e-05
1.76788e-06
-1.39125e-06
1.27664e-05
1.34415e-06
-1.53641e-06
1.13855e-05
1.36646e-06
1.4495e-08
5.03981e-06
3.05546e-06
3.2902e-06
-9.56346e-07
3.12197e-06
2.87419e-06
-3.66261e-06
2.70626e-06
-2.00722e-06
-3.755e-06
-2.14498e-07
-4.59999e-07
-4.1106e-06
-2.53687e-07
-1.0614e-07
-2.23769e-06
7.21214e-07
2.27353e-07
-1.79217e-06
5.26575e-07
1.87447e-07
-7.66989e-07
3.3094e-07
-4.74554e-09
-7.99085e-07
2.9775e-07
-1.89953e-07
-6.57496e-07
1.63277e-07
-3.10242e-07
-6.22318e-07
9.70018e-08
-4.47619e-07
-4.23376e-07
7.60866e-08
-6.45192e-07
-2.59732e-07
1.10558e-07
-8.27703e-07
-1.73348e-07
9.13933e-08
-8.84265e-07
-2.35296e-07
1.39213e-08
-8.43633e-07
-3.09397e-07
-5.28496e-08
-7.20278e-07
-3.88124e-07
-1.03606e-07
-5.71063e-07
-4.21056e-07
-1.1585e-07
-4.11123e-07
-4.54674e-07
-1.14139e-07
-2.68766e-07
-4.68318e-07
-9.38191e-08
-1.47698e-07
-4.82296e-07
-7.07942e-08
-5.4526e-08
-4.90355e-07
-4.38489e-08
9.07162e-09
-4.90623e-07
-1.88997e-08
4.21748e-08
-4.85381e-07
3.53077e-09
5.39288e-08
-4.76778e-07
1.36088e-08
5.14918e-08
-4.64383e-07
1.75157e-08
4.01047e-08
-4.47402e-07
1.62491e-08
2.37952e-08
-4.26026e-07
1.10046e-08
5.47024e-09
-4.01679e-07
3.27401e-09
-9.92978e-09
-3.76429e-07
-9.93889e-09
-2.08321e-08
-3.52419e-07
-2.45892e-08
-2.77652e-08
-3.28037e-07
-3.88907e-08
-3.3946e-08
-3.00334e-07
-5.17671e-08
-4.17899e-08
-2.69076e-07
-6.37739e-08
-5.07507e-08
-2.36625e-07
-7.61086e-08
-5.91673e-08
-2.04597e-07
-8.92965e-08
-6.51964e-08
-1.73771e-07
-1.0337e-07
-6.75657e-08
-1.44809e-07
-1.17683e-07
-6.68921e-08
-1.17912e-07
-1.30371e-07
-6.69843e-08
-9.17581e-08
-1.38789e-07
-7.56789e-08
-6.44197e-08
-1.39667e-07
-1.04817e-07
-3.63613e-08
-1.28249e-07
-1.74915e-07
-2.51063e-09
-9.79612e-08
-3.25789e-07
5.79566e-08
-3.94471e-08
-6.06771e-07
1.62504e-07
4.59446e-08
-1.05119e-06
3.09257e-07
1.4113e-07
-1.59104e-06
3.52223e-07
1.99335e-07
-2.05497e-06
8.45612e-08
1.51328e-07
-2.23597e-06
-7.06616e-07
1.10191e-07
-2.07815e-06
-1.65959e-06
4.60491e-08
-1.54574e-06
-2.12703e-06
-1.08565e-08
3.72894e-08
-2.0381e-06
-2.27092e-07
3.47859e-06
-5.6096e-06
4.05315e-07
9.06819e-06
-1.37635e-05
2.64298e-07
1.51901e-05
-1.64498e-05
3.17295e-07
2.05192e-05
-1.38127e-05
-6.00254e-07
2.57867e-05
-1.07169e-05
-2.02739e-06
2.73091e-05
-6.45004e-06
-2.2272e-07
2.64328e-05
8.01705e-07
-1.65573e-07
2.08223e-05
7.92298e-06
3.69714e-07
1.64955e-05
1.07973e-05
-1.08395e-06
-8.11181e-06
1.71643e-05
1.72884e-05
-3.33231e-07
-4.79728e-06
-3.67123e-06
2.02836e-05
-3.14236e-05
-7.95234e-06
2.51083e-05
-2.049e-05
4.05946e-06
2.07477e-05
-1.14336e-05
8.45138e-06
1.95827e-05
-8.83319e-06
3.23415e-06
1.50775e-05
-4.01702e-06
3.52528e-06
6.69555e-06
-1.80221e-06
5.45057e-06
-6.5752e-07
-3.45746e-06
6.20869e-06
-3.29273e-06
-5.93304e-06
4.89063e-06
-2.58276e-06
-8.34381e-06
3.79683e-06
-4.99168e-07
-1.01725e-05
3.63636e-06
1.1418e-06
-1.07884e-05
4.67787e-06
2.65588e-06
-1.02661e-05
4.73513e-06
3.7513e-06
-9.03918e-06
4.00167e-06
4.2235e-06
-7.10813e-06
2.38878e-06
5.01684e-06
-4.8318e-06
-1.33236e-07
5.71843e-06
-2.37946e-06
-1.81234e-06
5.3433e-06
6.71899e-07
-2.16805e-06
3.98098e-06
3.13408e-06
-1.46284e-06
3.69001e-06
3.85041e-06
-1.6189e-06
5.69307e-06
4.46231e-06
-4.01371e-06
1.04624e-05
6.69066e-06
-8.43412e-06
1.39806e-05
9.62072e-06
-8.35492e-06
1.53527e-05
1.07998e-05
-6.94431e-06
1.50014e-05
1.01807e-05
-5.19512e-06
1.44364e-05
8.26145e-06
-4.27923e-06
1.35935e-05
6.5293e-06
-3.327e-06
1.26701e-05
5.16491e-06
-2.97517e-06
1.28404e-05
3.2796e-06
-2.80362e-06
1.25987e-05
3.1139e-06
-1.85906e-06
1.22545e-05
3.21694e-06
-1.37407e-06
1.1765e-05
4.03364e-06
-1.77626e-06
1.15646e-05
4.53669e-06
-2.99214e-06
1.0835e-05
4.62649e-06
-2.53044e-06
8.0681e-06
5.22797e-06
5.94374e-07
3.53839e-06
4.79279e-06
2.85889e-06
-3.91656e-06
3.79235e-06
-2.56952e-06
-4.10317e-06
-4.07568e-07
-1.43882e-06
-4.65175e-06
-5.8955e-07
-9.90666e-07
-2.87549e-06
1.89631e-07
-2.86142e-07
-2.46315e-06
-3.35574e-08
-8.86726e-09
-9.58476e-07
-8.58045e-08
-1.23419e-07
-6.79362e-07
-5.18783e-09
-3.15323e-07
-3.54252e-07
-1.11357e-07
-4.42271e-07
-3.52825e-07
-1.42559e-07
-5.39613e-07
-1.6022e-07
-1.65828e-07
-6.20128e-07
-4.52167e-08
-1.34013e-07
-7.13867e-07
4.14517e-08
-1.21074e-07
-7.52947e-07
-3.18007e-08
-1.64429e-07
-7.51397e-07
-9.5064e-08
-2.15898e-07
-7.01219e-07
-1.77995e-07
-2.60323e-07
-6.20295e-07
-2.18426e-07
-2.83569e-07
-5.14679e-07
-2.58598e-07
-3.01708e-07
-4.08286e-07
-2.72324e-07
-3.02403e-07
-3.10232e-07
-2.82978e-07
-2.97389e-07
-2.25623e-07
-2.86275e-07
-2.88706e-07
-1.54645e-07
-2.8211e-07
-2.7951e-07
-1.00735e-07
-2.67738e-07
-2.71571e-07
-6.41677e-08
-2.47746e-07
-2.65618e-07
-4.1989e-08
-2.24723e-07
-2.61858e-07
-3.06056e-08
-1.98504e-07
-2.60301e-07
-2.63103e-08
-1.6997e-07
-2.60371e-07
-2.58353e-08
-1.40519e-07
-2.61655e-07
-2.73524e-08
-1.10989e-07
-2.63943e-07
-3.09752e-08
-8.17841e-08
-2.67034e-07
-3.65152e-08
-5.19662e-08
-2.70552e-07
-4.32085e-08
-1.90824e-08
-2.7458e-07
-5.00767e-08
1.74862e-08
-2.79716e-07
-5.69125e-08
5.57782e-08
-2.8559e-07
-6.39253e-08
9.31012e-08
-2.90708e-07
-7.29164e-08
1.29195e-07
-2.93999e-07
-8.63416e-08
1.63616e-07
-2.95024e-07
-1.06788e-07
1.96111e-07
-2.93601e-07
-1.37649e-07
2.27575e-07
-2.88497e-07
-1.85847e-07
2.60375e-07
-2.76622e-07
-2.60243e-07
2.92631e-07
-2.54623e-07
-3.66657e-07
3.2304e-07
-2.19164e-07
-4.95158e-07
3.56392e-07
-1.69962e-07
-6.38691e-07
4.1408e-07
-1.08071e-07
-8.09689e-07
5.16583e-07
-3.63565e-08
-1.02542e-06
5.55182e-07
1.27402e-08
-1.29391e-06
3.43723e-07
9.30345e-09
-1.7465e-06
-2.83469e-07
2.94175e-08
-2.211e-06
-1.13037e-06
-6.47558e-08
-1.66072e-06
-1.94559e-06
-7.31751e-07
1.48947e-06
-3.61863e-06
-1.56967e-06
6.15391e-06
-9.46951e-06
-8.04558e-07
1.01944e-05
-1.70344e-05
-7.6963e-07
1.43107e-05
-1.73268e-05
-3.23934e-06
2.00057e-05
-1.48799e-05
-4.62789e-06
2.52075e-05
-1.25185e-05
-3.40023e-06
2.68131e-05
-7.50757e-06
-5.48169e-07
2.82202e-05
-5.20491e-07
-8.49891e-08
2.2049e-05
1.30651e-05
1.02901e-06
2.09981e-05
1.24915e-05
-6.4341e-07
-1.01472e-05
3.03775e-05
1.79316e-05
1.10353e-06
-1.55057e-05
-5.42632e-07
2.03152e-05
-4.05335e-05
-1.01017e-05
2.12441e-05
-2.34706e-05
2.05166e-06
1.33279e-05
-9.38706e-06
5.86973e-06
7.20139e-06
-4.63279e-06
1.92612e-06
-1.6249e-06
-1.56978e-06
6.37904e-06
-9.42695e-06
4.6248e-07
5.53737e-06
-1.30743e-05
-2.32304e-06
2.51293e-06
-1.30577e-05
-7.3206e-06
1.37095e-06
-1.09173e-05
-1.08438e-05
3.59611e-07
-8.74483e-06
-1.23671e-05
2.21164e-08
-7.47308e-06
-1.2763e-05
7.02878e-07
-5.68139e-06
-1.20835e-05
2.57597e-08
-3.06325e-06
-1.01944e-05
-1.4629e-06
1.82939e-07
-7.08175e-06
-3.27257e-06
3.72074e-06
-3.01199e-06
-5.35761e-06
6.00547e-06
8.32653e-07
-5.49684e-06
6.5142e-06
4.50953e-06
-4.34636e-06
5.66765e-06
6.76344e-06
-2.78281e-06
5.65399e-06
7.45728e-06
-3.59322e-06
7.39348e-06
9.84219e-06
-7.11937e-06
1.09979e-05
1.30134e-05
-9.92721e-06
1.43071e-05
1.47458e-05
-8.43421e-06
1.58704e-05
1.60916e-05
-6.85516e-06
1.55524e-05
1.56549e-05
-5.15607e-06
1.49994e-05
1.36761e-05
-4.86167e-06
1.47503e-05
1.0657e-05
-3.87857e-06
1.48435e-05
7.86041e-06
-2.7887e-06
1.63992e-05
3.76529e-06
-2.04145e-06
1.8411e-05
1.67727e-06
-5.75155e-07
1.96795e-05
1.25236e-09
1.94716e-06
1.97372e-05
7.58444e-07
3.2175e-06
1.92227e-05
2.78203e-06
2.26916e-06
1.72621e-05
5.8868e-06
7.00318e-07
1.42918e-05
9.34022e-06
-1.14194e-06
8.90378e-06
9.70414e-06
4.76622e-07
1.61045e-06
3.37677e-06
-3.08714e-06
-4.17563e-06
-2.03022e-07
-1.96482e-06
-4.98027e-06
-7.93803e-07
-1.60915e-06
-3.2688e-06
3.76302e-08
-8.01569e-07
-3.15068e-06
-1.20065e-07
-3.38965e-07
-1.36713e-06
-5.3966e-08
-2.391e-07
-7.61584e-07
-1.76587e-08
-3.47921e-07
-1.15099e-07
-1.30347e-07
-4.26029e-07
-1.2744e-07
-1.47291e-07
-4.59009e-07
6.07835e-08
-1.88037e-07
-4.69838e-07
1.48957e-07
-1.83358e-07
-5.08961e-07
2.79547e-07
-1.98986e-07
-5.60485e-07
2.46739e-07
-2.2703e-07
-6.17488e-07
2.17829e-07
-2.55904e-07
-6.29528e-07
1.27896e-07
-2.93867e-07
-6.03159e-07
7.44828e-08
-3.19294e-07
-5.39576e-07
2.71794e-08
-3.49376e-07
-4.59419e-07
1.52888e-08
-3.67788e-07
-3.79689e-07
1.75983e-08
-3.80323e-07
-3.06381e-07
2.74031e-08
-3.87003e-07
-2.39867e-07
4.16873e-08
-3.9033e-07
-1.81005e-07
6.33387e-08
-3.89957e-07
-1.31623e-07
8.93908e-08
-3.86538e-07
-9.33187e-08
1.18031e-07
-3.81078e-07
-6.61591e-08
1.49648e-07
-3.75331e-07
-4.95274e-08
1.83493e-07
-3.70116e-07
-4.13246e-08
2.16746e-07
-3.65488e-07
-3.91768e-08
2.48441e-07
-3.616e-07
-4.0867e-08
2.78787e-07
-3.58902e-07
-4.49066e-08
3.09865e-07
-3.57814e-07
-5.05472e-08
3.44661e-07
-3.58124e-07
-5.72104e-08
3.83129e-07
-3.59003e-07
-6.48879e-08
4.22602e-07
-3.59169e-07
-7.53526e-08
4.61526e-07
-3.57984e-07
-9.07359e-08
4.99388e-07
-3.54834e-07
-1.1385e-07
5.36092e-07
-3.49386e-07
-1.49001e-07
5.72298e-07
-3.4106e-07
-2.02861e-07
6.0982e-07
-3.28411e-07
-2.83291e-07
6.5042e-07
-3.09641e-07
-3.955e-07
6.88836e-07
-2.84023e-07
-5.3696e-07
7.16656e-07
-2.52183e-07
-6.86477e-07
7.23439e-07
-2.17556e-07
-7.87774e-07
7.04064e-07
-1.88715e-07
-7.81394e-07
6.7639e-07
-1.66215e-07
-7.15336e-07
6.25837e-07
-1.36742e-07
-6.23575e-07
3.61837e-07
-1.09904e-07
-8.88616e-07
-4.54072e-08
2.69521e-08
-1.32894e-06
-6.7494e-07
-1.51369e-08
-7.33213e-07
-1.72041e-06
-8.20925e-07
1.93169e-06
-4.81531e-06
-1.46825e-06
4.7757e-06
-1.02917e-05
-2.02189e-06
6.11494e-06
-1.44106e-05
-3.96303e-06
9.64279e-06
-1.58678e-05
-4.98686e-06
1.4511e-05
-1.89586e-05
-7.89526e-07
1.51452e-05
-1.91545e-05
6.00168e-06
1.71883e-05
-1.45887e-05
5.03804e-06
2.42123e-05
-8.54459e-06
1.00006e-06
2.17168e-05
1.64382e-05
-8.7764e-07
2.18001e-05
1.46931e-05
-2.2851e-06
-3.03441e-07
3.44222e-05
1.80578e-05
9.33341e-07
-1.30565e-05
-3.68619e-06
7.48085e-06
-3.7586e-05
-9.49503e-06
-3.53795e-06
-1.66756e-05
4.22381e-06
-1.23378e-05
-6.76289e-06
6.1757e-06
-2.34086e-05
8.49765e-07
5.58822e-06
-2.67522e-05
-3.56838e-07
2.13069e-06
-2.68065e-05
-9.48714e-08
6.11655e-07
-2.58786e-05
-2.82854e-06
-4.2241e-07
-2.61792e-05
-6.24997e-06
-7.70006e-07
-2.65675e-05
-1.05681e-05
1.12565e-07
-2.69572e-05
-1.34239e-05
1.44657e-06
-2.63038e-05
-1.48457e-05
1.42936e-06
-2.47301e-05
-1.48e-05
1.14274e-06
-2.14905e-05
-1.33034e-05
-1.30606e-07
-1.71713e-05
-9.84181e-06
-1.55917e-06
-1.1065e-05
-4.97834e-06
-4.13994e-06
-5.556e-06
3.91246e-07
-5.06761e-06
-2.51986e-06
4.93186e-06
-3.45846e-06
-1.07496e-06
8.47174e-06
-3.15321e-06
9.16198e-07
1.1068e-05
-5.60186e-06
4.80467e-06
1.48265e-05
-8.8728e-06
9.51283e-06
1.70688e-05
-8.76353e-06
1.32366e-05
1.90262e-05
-8.00417e-06
1.53247e-05
2.08021e-05
-6.79856e-06
1.63674e-05
1.90117e-05
-4.39953e-06
1.74393e-05
1.4991e-05
-2.38686e-06
1.81782e-05
9.29682e-06
6.21273e-07
1.96517e-05
2.49982e-06
3.88716e-06
2.20737e-05
-5.25562e-06
6.59887e-06
2.33946e-05
-7.79927e-06
8.15567e-06
2.45366e-05
-8.52878e-06
7.38804e-06
2.48922e-05
-6.19411e-06
6.59692e-06
2.59442e-05
-3.95371e-06
5.68374e-06
2.59545e-05
6.0897e-07
5.26749e-06
2.27599e-05
9.18358e-06
3.35126e-06
1.39881e-05
1.63082e-05
2.16781e-06
1.28797e-05
2.71882e-06
-3.44847e-06
-4.07075e-06
-1.75504e-08
-2.28166e-06
-5.25442e-06
-8.92671e-07
-2.04493e-06
-3.47641e-06
-2.91325e-08
-1.22082e-06
-3.68995e-06
-2.84852e-07
-7.48672e-07
-1.93478e-06
9.54773e-08
-3.66299e-07
-1.18739e-06
4.34197e-08
-2.78683e-07
-6.39937e-08
-1.38735e-07
-3.56252e-07
9.45831e-08
-1.44468e-07
-3.37433e-07
2.49451e-07
-2.07499e-07
-3.22241e-07
3.4249e-07
-2.08738e-07
-3.38421e-07
5.14262e-07
-2.18549e-07
-4.02133e-07
5.29236e-07
-2.18799e-07
-4.97858e-07
5.36632e-07
-2.23092e-07
-5.51709e-07
4.26371e-07
-2.44638e-07
-5.56009e-07
3.44239e-07
-2.65471e-07
-5.15996e-07
2.84821e-07
-2.97672e-07
-4.54408e-07
2.77333e-07
-3.23647e-07
-3.9279e-07
3.01045e-07
-3.45081e-07
-3.3279e-07
3.29581e-07
-3.62194e-07
-2.74851e-07
3.58599e-07
-3.74869e-07
-2.16958e-07
3.89252e-07
-3.83823e-07
-1.62515e-07
4.22493e-07
-3.87563e-07
-1.15855e-07
4.57926e-07
-3.86571e-07
-7.91623e-08
4.94563e-07
-3.81628e-07
-5.33414e-08
5.3145e-07
-3.73796e-07
-3.69834e-08
5.6512e-07
-3.64752e-07
-2.7608e-08
5.94613e-07
-3.55566e-07
-2.3694e-08
6.21911e-07
-3.47058e-07
-2.45042e-08
6.50122e-07
-3.39466e-07
-2.86657e-08
6.81475e-07
-3.32673e-07
-3.5733e-08
7.16151e-07
-3.25975e-07
-4.65471e-08
7.52274e-07
-3.18879e-07
-6.28198e-08
7.88696e-07
-3.10918e-07
-8.65801e-08
8.24612e-07
-3.01485e-07
-1.21505e-07
8.6122e-07
-2.90225e-07
-1.74418e-07
9.01387e-07
-2.76198e-07
-2.54447e-07
9.49169e-07
-2.59342e-07
-3.68896e-07
1.00575e-06
-2.40901e-07
-5.17252e-07
1.06028e-06
-2.23106e-07
-6.83422e-07
1.09367e-06
-2.10871e-07
-8.19452e-07
1.07391e-06
-2.14466e-07
-8.39051e-07
9.73095e-07
-2.49454e-07
-6.58438e-07
8.04629e-07
-3.08874e-07
-3.17206e-07
6.17293e-07
-3.32712e-07
5.54972e-08
3.05126e-07
-3.16016e-07
-4.17159e-08
1.59155e-07
-1.07372e-07
-5.22227e-07
-1.0474e-07
-8.97112e-08
5.126e-08
-1.36128e-06
-9.32634e-07
-3.02049e-09
-2.98317e-06
-1.77788e-06
-1.82374e-06
-4.35337e-06
-4.11757e-06
-1.91605e-06
-9.28258e-06
-5.03575e-06
-2.21925e-06
-1.48446e-05
-7.20004e-07
-8.42494e-06
-1.79768e-05
5.22389e-06
-1.40475e-05
-1.77082e-05
4.17632e-06
-9.50133e-06
-1.81418e-05
-9.92972e-07
-2.96115e-06
-1.20207e-05
-3.064e-06
1.0857e-05
9.42665e-06
-6.80639e-06
2.0426e-05
7.6149e-06
-2.49109e-06
1.90517e-06
3.4347e-05
1.85949e-05
1.82418e-07
-8.3931e-06
-2.94073e-06
3.95669e-06
-3.02955e-05
-1.10647e-05
-1.38081e-05
-4.72592e-06
5.81516e-06
-2.27669e-05
-1.78103e-06
3.977e-06
-2.95455e-05
3.03942e-06
4.58899e-06
-3.33907e-05
7.09914e-07
2.77851e-06
-3.57893e-05
5.51833e-07
1.75194e-06
-3.80652e-05
-2.7966e-06
2.24399e-06
-3.9588e-05
-6.3622e-06
1.63511e-06
-3.9048e-05
-1.07361e-05
-3.7192e-07
-3.72375e-05
-1.28079e-05
-2.42655e-06
-3.4696e-05
-1.37009e-05
-3.68625e-06
-3.18294e-05
-1.28088e-05
-4.8578e-06
-2.79796e-05
-1.11986e-05
-5.95457e-06
-2.32369e-05
-7.97818e-06
-6.60633e-06
-1.85166e-05
-3.93849e-06
-5.76014e-06
-1.38152e-05
5.29511e-07
-4.8397e-06
-1.03071e-05
6.95423e-06
-5.53045e-06
-7.41658e-06
1.33119e-05
-7.73065e-06
-4.37497e-06
1.80282e-05
-1.00018e-05
6.21227e-07
2.04484e-05
-1.0618e-05
5.51252e-06
2.1926e-05
-9.74852e-06
9.42201e-06
2.256e-05
-7.44327e-06
1.22601e-05
2.24083e-05
-4.44431e-06
1.41479e-05
1.86442e-05
-1.52035e-06
1.50515e-05
1.19079e-05
2.17956e-06
1.61605e-05
2.24494e-06
5.9428e-06
1.51856e-05
-5.36598e-06
8.84072e-06
1.30233e-05
-1.36004e-05
1.05071e-05
9.46376e-06
-1.37138e-05
9.47411e-06
7.42212e-06
-1.24644e-05
5.97729e-06
7.23652e-06
-9.65511e-06
3.6466e-06
9.48401e-06
-7.77503e-06
1.57382e-06
1.29265e-05
-3.83822e-06
1.00466e-06
1.6309e-05
4.94654e-06
8.54606e-07
1.13392e-05
2.00564e-05
1.22158e-06
2.27501e-05
1.46871e-06
-3.80838e-06
-3.68331e-06
1.70016e-07
-2.56479e-06
-5.43025e-06
-1.06776e-06
-2.33761e-06
-3.49599e-06
-2.07615e-07
-1.41566e-06
-3.93191e-06
-6.79997e-07
-9.93742e-07
-2.42339e-06
6.66827e-08
-4.32861e-07
-1.7335e-06
-1.47818e-08
-1.59975e-07
-1.71155e-07
-1.65738e-07
-2.38216e-07
2.91734e-07
-1.18921e-07
-1.84029e-07
4.21615e-07
-2.26363e-07
-1.78518e-07
5.28982e-07
-1.92014e-07
-1.87934e-07
7.30451e-07
-2.06785e-07
-2.79713e-07
8.14328e-07
-1.93325e-07
-4.08969e-07
8.54463e-07
-1.88589e-07
-4.81302e-07
7.04099e-07
-2.05406e-07
-4.84487e-07
5.83192e-07
-2.35781e-07
-4.40175e-07
5.13449e-07
-2.72951e-07
-3.83084e-07
5.22311e-07
-3.02083e-07
-3.39833e-07
5.7956e-07
-3.21779e-07
-3.05754e-07
6.34076e-07
-3.38588e-07
-2.74256e-07
6.78798e-07
-3.51708e-07
-2.38708e-07
7.1481e-07
-3.6112e-07
-1.99557e-07
7.48101e-07
-3.64773e-07
-1.6171e-07
7.82649e-07
-3.62584e-07
-1.29342e-07
8.17875e-07
-3.55693e-07
-1.06901e-07
8.54548e-07
-3.45553e-07
-9.1593e-08
8.82995e-07
-3.33196e-07
-8.1432e-08
9.0454e-07
-3.20103e-07
-7.41341e-08
9.21619e-07
-3.07019e-07
-6.96312e-08
9.40115e-07
-2.9451e-07
-6.9455e-08
9.64189e-07
-2.82904e-07
-7.53109e-08
9.93866e-07
-2.71873e-07
-8.81969e-08
1.02617e-06
-2.61025e-07
-1.09108e-07
1.05965e-06
-2.50056e-07
-1.37994e-07
1.09207e-06
-2.38589e-07
-1.77701e-07
1.12691e-06
-2.26001e-07
-2.32931e-07
1.16827e-06
-2.11666e-07
-3.10157e-07
1.22135e-06
-1.94969e-07
-4.12382e-07
1.28648e-06
-1.78522e-07
-5.28065e-07
1.34454e-06
-1.68591e-07
-6.29746e-07
1.36744e-06
-1.72098e-07
-6.75277e-07
1.31637e-06
-1.96937e-07
-5.75566e-07
1.14254e-06
-2.69171e-07
-2.54637e-07
8.58591e-07
-3.74902e-07
2.55495e-07
5.54127e-07
-4.46977e-07
5.59462e-07
4.12235e-07
-4.11085e-07
3.97225e-07
5.98469e-07
-2.77086e-07
-2.28186e-07
6.78743e-07
-1.58078e-07
1.3007e-07
-7.80699e-07
-9.38845e-07
-9.81049e-07
1.51503e-08
-1.8872e-06
-6.8812e-06
5.13461e-06
-3.58782e-06
-1.2743e-05
1.8694e-06
-5.29012e-06
-1.87628e-05
-4.35737e-06
-4.46745e-06
-2.66993e-05
-6.75824e-06
-3.28206e-06
-3.26219e-05
-8.24304e-06
-3.54254e-06
-3.73526e-05
-9.52543e-06
-3.88563e-06
-3.43281e-05
-9.95409e-06
-5.09102e-06
1.3617e-06
-1.81265e-05
-8.13645e-06
2.20061e-05
-9.69347e-06
-3.33634e-06
2.8919e-07
4.02241e-05
1.58385e-05
-4.32416e-07
-5.68485e-06
-1.98617e-06
-5.43842e-06
-1.83018e-05
-6.98721e-06
-2.53357e-05
6.91052e-06
8.26143e-06
-3.61505e-05
4.4226e-06
4.61184e-06
-4.25926e-05
5.06744e-06
4.41471e-06
-4.58952e-05
2.0623e-06
1.95089e-06
-4.80269e-05
9.9202e-07
1.69231e-06
-4.96456e-05
-2.26614e-06
1.08885e-06
-5.05594e-05
-5.28375e-06
-1.63996e-07
-5.02131e-05
-9.64192e-06
-1.43995e-06
-4.9353e-05
-1.12793e-05
-2.38815e-06
-4.76638e-05
-1.21044e-05
-3.28532e-06
-4.48222e-05
-1.07367e-05
-4.91353e-06
-4.08001e-05
-8.16335e-06
-7.0572e-06
-3.56544e-05
-4.87758e-06
-8.24612e-06
-3.01815e-05
-7.37111e-07
-8.67423e-06
-2.52576e-05
4.04088e-06
-8.4352e-06
-1.9575e-05
1.00838e-05
-8.81209e-06
-1.38186e-05
1.65786e-05
-9.02303e-06
-8.58453e-06
2.15032e-05
-8.70893e-06
-3.77684e-06
2.28462e-05
-7.20547e-06
7.44481e-07
2.25556e-05
-5.15079e-06
4.2784e-06
2.16235e-05
-2.59729e-06
7.27171e-06
1.92951e-05
1.2005e-07
8.55389e-06
1.37362e-05
3.626e-06
5.66956e-06
8.56161e-06
6.23077e-06
-1.37287e-06
9.04608e-07
8.38289e-06
-1.12707e-05
-4.25097e-06
8.78289e-06
-1.72888e-05
-1.20868e-05
4.50456e-06
-1.51992e-05
-1.53637e-05
-4.3958e-07
-9.00447e-06
-1.45689e-05
-4.09027e-06
-3.77499e-06
-9.12796e-06
-5.75664e-06
6.15744e-07
-5.7082e-06
-6.45756e-06
5.05925e-06
-2.85951e-06
-5.42221e-06
8.14621e-06
5.11638e-06
-3.2568e-06
7.17528e-06
2.10873e-05
-6.00039e-08
2.87212e-05
1.20424e-06
-3.98053e-06
-2.86273e-06
3.30732e-07
-2.71491e-06
-5.2613e-06
-1.43457e-06
-2.52289e-06
-3.17402e-06
-5.13988e-07
-1.43354e-06
-3.8983e-06
-1.12298e-06
-8.56491e-07
-2.6779e-06
-3.22548e-07
-3.05314e-07
-1.97671e-06
-3.07978e-07
-3.58597e-08
-1.62046e-07
-2.78571e-07
-1.82377e-07
5.94985e-07
-1.56742e-07
-1.03941e-07
6.426e-07
-2.9943e-07
-1.07137e-07
7.53809e-07
-2.2164e-07
-1.07273e-07
9.52001e-07
-2.21422e-07
-1.91563e-07
1.07188e-06
-1.73269e-07
-3.0482e-07
1.12971e-06
-1.61995e-07
-3.63843e-07
9.50635e-07
-1.87522e-07
-3.67758e-07
8.23577e-07
-2.36477e-07
-3.36256e-07
7.59486e-07
-2.77548e-07
-3.00096e-07
7.89955e-07
-3.0381e-07
-2.80017e-07
8.71919e-07
-3.12446e-07
-2.73684e-07
9.45788e-07
-3.18052e-07
-2.73859e-07
1.00141e-06
-3.22448e-07
-2.72954e-07
1.04011e-06
-3.26211e-07
-2.66862e-07
1.06912e-06
-3.27115e-07
-2.56775e-07
1.09498e-06
-3.22425e-07
-2.46336e-07
1.12063e-06
-3.13199e-07
-2.41822e-07
1.14838e-06
-2.9835e-07
-2.39257e-07
1.16576e-06
-2.85338e-07
-2.35476e-07
1.17383e-06
-2.73074e-07
-2.29196e-07
1.17786e-06
-2.62529e-07
-2.21511e-07
1.18484e-06
-2.52415e-07
-2.17789e-07
1.20251e-06
-2.42044e-07
-2.22659e-07
1.23034e-06
-2.3161e-07
-2.37804e-07
1.2625e-06
-2.2119e-07
-2.63056e-07
1.29567e-06
-2.1077e-07
-2.93334e-07
1.32327e-06
-2.00918e-07
-3.27535e-07
1.3518e-06
-1.90681e-07
-3.65053e-07
1.38559e-06
-1.79805e-07
-4.05325e-07
1.42982e-06
-1.6819e-07
-4.42982e-07
1.48335e-06
-1.59211e-07
-4.59842e-07
1.52271e-06
-1.61309e-07
-4.29335e-07
1.51756e-06
-1.80626e-07
-3.26423e-07
1.43784e-06
-2.24382e-07
-9.80128e-08
1.21851e-06
-3.04373e-07
2.63095e-07
8.86682e-07
-3.8919e-07
7.0137e-07
5.60372e-07
-4.44509e-07
7.98957e-07
6.83765e-07
-3.69105e-07
2.95301e-07
1.29559e-06
-1.93449e-07
-6.00274e-07
1.6693e-06
-9.4967e-08
-1.18519e-06
3.99397e-07
-5.95163e-07
3.74767e-07
1.56763e-07
-1.70155e-06
-7.17247e-07
7.49251e-06
-1.26586e-06
-1.01855e-05
1.27035e-05
-1.36578e-06
-2.00722e-05
9.90901e-06
-4.37964e-06
-2.80485e-05
4.48203e-06
-3.26392e-06
-3.46365e-05
9.75865e-07
-2.6308e-06
-3.85937e-05
-3.36126e-06
-2.20689e-06
-3.42781e-05
-1.37384e-05
-5.31137e-07
-3.20892e-05
-2.0706e-05
3.90738e-07
-2.59985e-05
-1.60168e-05
2.32416e-07
4.93451e-06
1.12247e-05
-1.9345e-06
-7.43432e-07
-1.59533e-07
1.53232e-07
-2.2751e-05
2.76175e-06
9.45518e-07
-3.59204e-05
1.20669e-05
8.01535e-06
-4.65876e-05
9.53552e-06
5.55669e-06
-5.14777e-05
6.57829e-06
3.3818e-06
-5.39878e-05
3.11172e-06
1.46329e-06
-5.5204e-05
7.66305e-07
1.44465e-06
-5.70261e-05
-1.83143e-06
1.39e-06
-5.76397e-05
-5.37828e-06
7.10742e-07
-5.89086e-05
-8.95977e-06
5.89122e-07
-5.87925e-05
-1.14645e-05
7.13961e-08
-5.76046e-05
-1.28581e-05
-4.32201e-07
-5.49788e-05
-1.1912e-05
-1.44876e-06
-5.07086e-05
-9.48769e-06
-2.94435e-06
-4.52688e-05
-5.945e-06
-4.37119e-06
-3.88129e-05
-5.66981e-07
-6.6251e-06
-3.23558e-05
5.04034e-06
-7.45566e-06
-2.5916e-05
1.11041e-05
-7.45932e-06
-1.95212e-05
1.67057e-05
-6.52108e-06
-1.35848e-05
2.02461e-05
-4.67864e-06
-8.77116e-06
1.96522e-05
-1.61867e-06
-5.55051e-06
1.80783e-05
1.25767e-06
-4.3826e-06
1.65734e-05
3.88341e-06
-7.58459e-06
1.65313e-05
5.96718e-06
-1.80408e-05
1.4823e-05
9.37105e-06
-3.02779e-05
1.1476e-05
9.32449e-06
-3.44977e-05
2.63044e-06
2.49569e-06
-3.43347e-05
-3.985e-06
-4.27294e-07
-3.44941e-05
-1.12083e-05
-7.17735e-07
-3.27651e-05
-1.48405e-05
-2.25123e-06
-2.72056e-05
-1.65729e-05
-3.55487e-06
-1.78266e-05
-1.18449e-05
-6.66177e-06
-7.38612e-06
-7.36374e-06
-8.78479e-06
7.71867e-07
-1.2725e-06
-9.74496e-06
4.45365e-06
7.99814e-06
-6.56354e-06
3.71687e-06
2.31356e-05
-1.31145e-06
3.19501e-05
4.87942e-07
-3.77945e-06
-1.62887e-06
8.25222e-07
-2.80421e-06
-5.08363e-06
-1.15291e-06
-2.76965e-06
-2.73495e-06
-4.73645e-07
-1.62577e-06
-3.85297e-06
-1.18921e-06
-7.5709e-07
-2.93664e-06
-6.09948e-07
-1.50337e-07
-2.09575e-06
-4.87719e-07
4.86315e-08
2.41264e-08
-3.85148e-07
-1.00612e-07
8.50762e-07
-1.0654e-07
-5.41303e-08
1.01258e-06
-4.16471e-07
-1.36408e-07
1.10504e-06
-2.68958e-07
-1.12949e-07
1.22608e-06
-2.97542e-07
-1.18743e-07
1.33247e-06
-2.54801e-07
-1.05931e-07
1.38474e-06
-2.67853e-07
-9.63743e-08
1.25159e-06
-3.10518e-07
-1.0284e-07
1.1887e-06
-3.58663e-07
-1.40786e-07
1.19188e-06
-3.9445e-07
-1.90157e-07
1.26288e-06
-4.23561e-07
-2.3869e-07
1.36014e-06
-4.39693e-07
-2.85757e-07
1.44627e-06
-4.53419e-07
-3.33042e-07
1.51321e-06
-4.64509e-07
-3.72073e-07
1.55122e-06
-4.72081e-07
-3.96518e-07
1.57066e-06
-4.77095e-07
-4.10195e-07
1.58731e-06
-4.78654e-07
-4.15981e-07
1.60372e-06
-4.77304e-07
-4.14911e-07
1.62083e-06
-4.73517e-07
-4.11585e-07
1.6312e-06
-4.68763e-07
-4.05691e-07
1.63356e-06
-4.65624e-07
-3.96006e-07
1.6314e-06
-4.6322e-07
-3.85192e-07
1.63356e-06
-4.5953e-07
-3.81234e-07
1.65258e-06
-4.54023e-07
-3.8948e-07
1.68554e-06
-4.46942e-07
-4.09628e-07
1.72198e-06
-4.39317e-07
-4.38695e-07
1.75683e-06
-4.32085e-07
-4.68677e-07
1.78052e-06
-4.27261e-07
-4.96269e-07
1.80209e-06
-4.22687e-07
-5.16765e-07
1.82529e-06
-4.19188e-07
-5.21697e-07
1.85173e-06
-4.16968e-07
-4.96543e-07
1.87774e-06
-4.19521e-07
-4.25611e-07
1.88512e-06
-4.33317e-07
-2.80669e-07
1.84376e-06
-4.71118e-07
-3.1711e-08
1.72904e-06
-5.40128e-07
3.45952e-07
1.48516e-06
-6.44287e-07
8.00616e-07
1.18092e-06
-7.48871e-07
1.19128e-06
9.39731e-07
-7.69991e-07
1.28427e-06
1.22699e-06
-6.3618e-07
8.92592e-07
2.10002e-06
-4.12706e-07
6.1939e-08
2.79372e-06
-2.93724e-07
-7.84806e-07
2.0716e-06
-8.25419e-07
6.74159e-07
5.12871e-07
-1.81503e-06
3.87672e-06
6.13143e-06
-1.84144e-06
3.11339e-06
1.41885e-05
-7.21644e-07
-8.08929e-07
1.46047e-05
-7.73342e-07
-1.05504e-05
1.15322e-05
2.69138e-06
-2.77526e-05
1.07931e-05
7.38508e-06
-4.44259e-05
2.1799e-06
1.11322e-05
-5.43994e-05
-1.2706e-05
8.94133e-06
-6.30682e-05
-2.12137e-05
9.17658e-06
-5.18037e-05
-2.7346e-05
6.47145e-08
1.00978e-05
-2.71041e-05
-2.35738e-05
5.67264e-07
8.22137e-06
1.15047e-06
-2.67955e-05
2.38738e-05
6.25347e-06
-4.53888e-05
1.85975e-05
1.20667e-05
-5.71311e-05
1.58572e-05
5.42475e-06
-5.83402e-05
9.54897e-06
-1.75723e-06
-5.77327e-05
6.78934e-06
-4.28061e-06
-5.64817e-05
1.99218e-06
-2.47245e-06
-5.93327e-05
-3.88971e-07
1.41308e-06
-6.32247e-05
-5.27031e-06
3.78868e-06
-6.73497e-05
-8.13668e-06
3.30671e-06
-7.03978e-05
-1.12308e-05
2.81929e-06
-7.23255e-05
-1.40555e-05
3.13002e-06
-7.21666e-05
-1.47349e-05
2.66906e-06
-7.02279e-05
-1.22253e-05
8.03781e-07
-6.53975e-05
-8.65844e-06
-2.11216e-06
-5.87314e-05
-3.85159e-06
-3.37698e-06
-5.1156e-05
1.96127e-06
-4.49206e-06
-4.30289e-05
6.97914e-06
-3.99803e-06
-3.68663e-05
1.16677e-05
-1.12069e-06
-3.4687e-05
1.57705e-05
2.30052e-06
-3.79529e-05
1.72733e-05
5.64934e-06
-4.63649e-05
1.89432e-05
7.55186e-06
-5.38913e-05
1.83145e-05
5.79052e-06
-6.01564e-05
1.82795e-05
4.52244e-06
-6.29494e-05
1.5258e-05
2.36377e-06
-6.00481e-05
8.36738e-06
2.13243e-07
-5.53115e-05
-1.30544e-07
-1.96985e-06
-5.1987e-05
-4.25219e-06
-3.05162e-06
-5.16879e-05
-8.56184e-06
-2.9401e-06
-5.32461e-05
-1.05505e-05
-2.72633e-06
-5.35025e-05
-1.20171e-05
-4.29439e-06
-4.74071e-05
-1.04514e-05
-7.48422e-06
-3.77515e-05
-7.49703e-06
-9.5188e-06
-2.57565e-05
-3.22632e-06
-1.00389e-05
-1.4179e-05
3.38427e-06
-6.96268e-06
-5.84371e-06
1.58466e-05
-1.046e-06
2.36951e-05
2.4114e-06
-3.16616e-06
-1.49816e-08
1.69435e-06
-2.80407e-06
-4.89377e-06
-5.5196e-07
-2.98439e-06
-2.45196e-06
-1.02678e-07
-2.00656e-06
-3.93622e-06
-8.94589e-07
-9.39046e-07
-3.38406e-06
-6.20096e-07
-6.96506e-08
-2.39109e-06
-5.74067e-07
1.08634e-07
-2.79556e-07
1.25393e-07
-6.40836e-08
6.03684e-07
4.19791e-07
-5.36497e-08
1.04068e-06
-3.85364e-08
-1.71295e-07
1.114e-06
1.08683e-07
-9.4034e-08
1.17181e-06
-2.29985e-08
-3.96964e-08
1.23246e-06
4.56683e-08