/*--------------------------------*- C++ -*----------------------------------*\
| =========                 |                                                 |
| \\      /  F ield         | OpenFOAM: The Open Source CFD Toolbox           |
|  \\    /   O peration     | Version:  2.3.0                                 |
|   \\  /    A nd           | Web:      www.OpenFOAM.org                      |
|    \\/     M anipulation  |                                                 |
\*---------------------------------------------------------------------------*/
FoamFile
{
    version     2.0;
    format      ascii;
    class       surfaceScalarField;
    location    "39";
    object      phi.water;
}
// * * * * * * * * * * * * * * * * * * * * * * * * * * * * * * * * * * * * * //

dimensions      [0 3 -1 0 0 0 0];

internalField   nonuniform List<scalar> 
16448
(
-7.98914e-07
-2.51213e-06
3.82307e-07
1.20895e-06
-2.57923e-06
5.75183e-07
1.27413e-06
-1.08143e-06
1.01893e-06
1.1546e-06
-9.65436e-07
1.08707e-06
6.97248e-07
-5.87006e-07
1.04763e-06
3.70162e-07
-6.44864e-07
9.76277e-07
1.467e-07
-5.67583e-07
7.97858e-07
3.64116e-08
-4.93485e-07
6.10557e-07
-1.76571e-07
-3.02732e-07
5.18809e-07
-4.55607e-07
-1.95349e-07
4.7466e-07
-6.63031e-07
-1.80486e-07
3.88191e-07
-7.10892e-07
-2.36199e-07
2.84296e-07
-6.27111e-07
-3.08121e-07
2.24629e-07
-4.62602e-07
-3.59656e-07
1.95409e-07
-2.92461e-07
-3.89796e-07
2.19978e-07
-1.30595e-07
-4.15666e-07
2.54083e-07
-4.51939e-09
-4.29521e-07
3.0377e-07
9.12589e-08
-4.45312e-07
3.49836e-07
1.51642e-07
-4.56911e-07
3.96821e-07
1.80076e-07
-4.65845e-07
4.37697e-07
1.86786e-07
-4.74519e-07
4.68086e-07
1.79679e-07
-4.77769e-07
4.8515e-07
1.65133e-07
-4.76007e-07
4.90817e-07
1.46932e-07
-4.6957e-07
4.88038e-07
1.28451e-07
-4.59391e-07
4.78134e-07
1.12483e-07
-4.46618e-07
4.62856e-07
1.00606e-07
-4.31805e-07
4.43949e-07
9.40555e-08
-4.16935e-07
4.23762e-07
9.35501e-08
-4.04702e-07
4.05479e-07
9.67854e-08
-3.92647e-07
3.89689e-07
1.00173e-07
-3.8039e-07
3.77275e-07
1.01585e-07
-3.68423e-07
3.67289e-07
1.00695e-07
-3.57275e-07
3.5844e-07
9.70024e-08
-3.46323e-07
3.50293e-07
9.08278e-08
-3.35284e-07
3.41737e-07
8.09593e-08
-3.23022e-07
3.33163e-07
7.41911e-08
-3.13012e-07
3.20072e-07
6.48907e-08
-2.98809e-07
3.08356e-07
6.96832e-08
-2.92636e-07
2.88153e-07
6.43572e-08
-2.71216e-07
2.7676e-07
8.94642e-08
-2.73692e-07
2.48891e-07
8.76592e-08
-2.37929e-07
2.3997e-07
1.34284e-07
-2.58666e-07
2.1237e-07
1.34916e-07
-2.08901e-07
2.08378e-07
1.36137e-07
-2.25786e-07
2.24946e-07
2.28567e-08
-1.43497e-07
2.56785e-07
-1.91599e-07
-1.26811e-07
3.41876e-07
-4.38951e-07
-1.26197e-07
3.73494e-07
-7.71584e-07
-8.9394e-08
4.27624e-07
-9.38951e-07
-4.05311e-07
5.81418e-07
-9.11582e-07
-7.78368e-07
7.89594e-07
-1.10555e-07
-1.91075e-06
1.15558e-06
5.83002e-07
-2.64835e-06
2.10925e-06
1.95461e-07
-1.6937e-06
2.14231e-06
-1.4161e-06
-1.58518e-06
3.33748e-06
-4.28202e-06
-1.89224e-06
4.63698e-06
2.68588e-06
-3.6841e-06
-1.99429e-06
4.50198e-06
-1.58534e-07
-2.2243e-06
1.09664e-05
-1.82248e-06
4.35676e-06
2.66548e-05
-6.36082e-06
1.05556e-05
1.33573e-05
-1.38527e-05
1.07175e-06
1.66528e-05
-8.21709e-06
3.59157e-06
1.60424e-05
-4.04975e-06
4.65819e-06
1.70699e-05
-3.27858e-06
2.2511e-06
1.61363e-05
-5.29157e-07
1.46275e-06
1.35093e-05
1.38508e-06
1.24192e-06
1.05126e-05
1.89189e-06
1.10479e-06
6.88352e-06
2.24008e-06
1.38903e-06
2.29613e-06
2.62242e-06
1.96497e-06
-1.73013e-06
2.12283e-06
1.90343e-06
-4.63537e-06
9.90201e-07
1.91504e-06
-6.71518e-06
-1.48741e-07
2.22855e-06
-7.94712e-06
-8.33485e-07
2.06542e-06
-8.35125e-06
-1.30636e-06
1.7105e-06
-7.90621e-06
-1.69122e-06
1.24618e-06
-7.46309e-06
-1.77046e-06
1.32734e-06
-7.1991e-06
-1.80423e-06
1.54024e-06
-6.86185e-06
-1.93513e-06
1.59789e-06
-6.4762e-06
-2.04336e-06
1.6577e-06
-5.96155e-06
-2.1751e-06
1.66045e-06
-5.24096e-06
-2.38438e-06
1.66379e-06
-4.31089e-06
-2.63697e-06
1.7069e-06
-3.09054e-06
-3.04234e-06
1.82198e-06
-1.51811e-06
-3.60831e-06
2.03589e-06
4.57295e-07
-4.22754e-06
2.25212e-06
2.52362e-06
-4.49249e-06
2.42616e-06
4.39751e-06
-4.44678e-06
2.57289e-06
5.80284e-06
-3.99334e-06
2.58801e-06
6.80346e-06
-3.46023e-06
2.45962e-06
7.30498e-06
-2.7865e-06
2.28498e-06
7.3407e-06
-2.17005e-06
2.13433e-06
6.80335e-06
-1.44904e-06
1.9864e-06
5.76087e-06
-7.04731e-07
1.74721e-06
4.29109e-06
-7.58862e-08
1.54567e-06
2.26447e-06
8.74884e-07
1.15173e-06
1.77929e-06
4.85186e-07
-1.35625e-06
-3.66512e-06
-2.29004e-07
1.40037e-07
-3.86206e-06
-2.0538e-07
5.01287e-07
-2.06099e-06
6.23966e-07
7.54476e-07
-1.81603e-06
6.01344e-07
6.67959e-07
-1.00816e-06
5.11777e-07
4.93668e-07
-8.54789e-07
3.87922e-07
2.5728e-07
-4.82957e-07
1.56886e-07
3.56244e-08
-3.31211e-07
6.4974e-08
-3.1517e-07
-4.87816e-08
9.96046e-08
-6.89112e-07
4.59966e-08
1.32462e-07
-9.07382e-07
-2.42409e-08
6.20345e-08
-9.36229e-07
-1.71827e-07
-3.55433e-08
-8.41915e-07
-2.94328e-07
-1.0797e-07
-6.70425e-07
-3.83883e-07
-1.47156e-07
-4.7745e-07
-4.37135e-07
-1.45488e-07
-2.92686e-07
-4.74255e-07
-1.26057e-07
-1.4235e-07
-4.89574e-07
-9.01313e-08
-2.09353e-08
-5.08944e-07
-5.76696e-08
6.46902e-08
-5.18822e-07
-2.36081e-08
1.15831e-07
-5.22016e-07
5.10662e-09
1.41675e-07
-5.21833e-07
2.15644e-08
1.49402e-07
-5.16231e-07
3.0829e-08
1.45774e-07
-5.05762e-07
3.34752e-08
1.35535e-07
-4.9068e-07
3.14338e-08
1.22684e-07
-4.71968e-07
2.5503e-08
1.1028e-07
-4.50915e-07
1.67637e-08
1.00196e-07
-4.28392e-07
6.71737e-09
9.42789e-08
-4.05753e-07
-5.22919e-09
9.32793e-08
-3.84818e-07
-1.88341e-08
9.41749e-08
-3.63505e-07
-2.99828e-08
9.38285e-08
-3.41038e-07
-3.8944e-08
9.15925e-08
-3.19271e-07
-4.68546e-08
8.83207e-08
-2.99414e-07
-5.45226e-08
8.37534e-08
-2.79927e-07
-6.17666e-08
7.83711e-08
-2.60664e-07
-6.91652e-08
7.14533e-08
-2.39841e-07
-7.62106e-08
6.75169e-08
-2.22898e-07
-8.60907e-08
6.0483e-08
-1.9896e-07
-9.27871e-08
6.86788e-08
-1.9176e-07
-1.0896e-07
6.61591e-08
-1.55748e-07
-1.12945e-07
9.97819e-08
-1.68968e-07
-1.38224e-07
1.02252e-07
-1.07413e-07
-1.32977e-07
1.5497e-07
-1.55615e-07
-1.55597e-07
1.36663e-07
-5.86467e-08
-1.32056e-07
1.38885e-07
-1.05985e-07
-1.21772e-07
-1.3897e-08
7.28774e-08
-6.39831e-08
-2.20203e-07
8.34844e-08
-3.30388e-09
-4.4622e-07
1.0351e-07
-3.36436e-09
-4.33473e-07
2.72403e-08
-1.19054e-07
-4.47575e-07
-3.44013e-07
-3.58901e-08
2.08813e-07
-1.40401e-06
1.02989e-08
2.5828e-07
-2.55129e-06
6.29154e-07
-1.06651e-06
-3.053e-06
1.85769e-06
-1.48715e-06
-1.95325e-06
7.07856e-07
1.55965e-06
-4.36058e-06
-1.34267e-07
3.99835e-06
-4.57246e-06
1.89541e-07
-1.05508e-06
1.16564e-06
1.0654e-06
-1.04392e-05
4.88526e-06
3.93132e-06
2.80523e-06
-4.69746e-06
2.46726e-07
2.83529e-05
-2.1078e-05
5.17791e-06
1.37039e-05
-2.17655e-05
-4.09173e-06
1.5475e-05
-1.35602e-05
1.49566e-06
1.25222e-05
-7.26623e-06
6.16513e-06
1.31682e-05
-3.97745e-06
5.28497e-08
1.22943e-05
1.29613e-06
-9.51355e-07
1.05074e-05
3.6234e-06
-4.51462e-07
7.80839e-06
4.51548e-06
7.54442e-08
4.04473e-06
5.26282e-06
7.40916e-07
-9.21192e-07
5.8448e-06
1.74354e-06
-4.83812e-06
4.34647e-06
1.69329e-06
-7.40021e-06
2.1788e-06
1.37349e-06
-9.47559e-06
4.90988e-07
1.43565e-06
-1.08115e-05
-5.70577e-07
1.07306e-06
-1.12706e-05
-1.22813e-06
3.80827e-07
-1.08733e-05
-1.73588e-06
-3.52606e-07
-1.04297e-05
-1.96996e-06
-2.44096e-07
-1.02659e-05
-2.01208e-06
4.40581e-08
-1.00014e-05
-2.22374e-06
2.40664e-08
-9.55597e-06
-2.36963e-06
-1.19103e-07
-8.89907e-06
-2.48803e-06
-3.43959e-07
-8.04999e-06
-2.67832e-06
-5.55141e-07
-7.01288e-06
-3.00199e-06
-6.72084e-07
-5.69486e-06
-3.68735e-06
-6.73016e-07
-3.89947e-06
-4.84337e-06
-5.60336e-07
-1.50008e-06
-6.2513e-06
-3.75628e-07
1.02108e-06
-6.8073e-06
-2.06353e-07
3.39251e-06
-6.76274e-06
-5.54681e-08
5.29943e-06
-5.75236e-06
-1.47906e-07
6.65738e-06
-4.60797e-06
-2.10215e-07
7.47378e-06
-3.4054e-06
-1.97503e-07
7.58781e-06
-2.22654e-06
-5.75335e-08
6.91432e-06
-1.03684e-06
2.61283e-07
5.53926e-06
1.4412e-07
5.26215e-07
3.53877e-06
1.10242e-06
8.2218e-07
1.5086e-06
2.2353e-06
6.69766e-07
3.49686e-06
-2.08975e-07
-1.90347e-06
-4.09255e-06
-5.18257e-07
-7.86761e-07
-4.33116e-06
-6.37722e-07
-3.8016e-07
-2.64569e-06
1.84933e-07
5.82223e-09
-2.27694e-06
7.9637e-08
1.68059e-07
-1.1892e-06
2.29253e-08
1.67612e-07
-8.2336e-07
-2.77314e-08
1.22278e-07
-2.63106e-07
-1.70123e-07
-1.16771e-08
-1.9118e-08
-1.7358e-07
-2.79906e-07
3.37074e-07
-1.14739e-07
-6.00439e-07
4.11366e-07
-4.44522e-08
-7.97915e-07
2.66322e-07
-9.27277e-08
-8.49076e-07
5.37598e-08
-1.74076e-07
-8.17774e-07
-8.68821e-08
-2.38356e-07
-7.26719e-07
-1.91341e-07
-2.83304e-07
-5.94085e-07
-2.56038e-07
-3.13494e-07
-4.49447e-07
-2.96937e-07
-3.2179e-07
-3.1893e-07
-3.08021e-07
-3.11904e-07
-2.05523e-07
-3.22774e-07
-2.99442e-07
-1.11177e-07
-3.27211e-07
-2.85826e-07
-3.68222e-08
-3.22229e-07
-2.74026e-07
1.52215e-08
-3.09127e-07
-2.64631e-07
4.90526e-08
-2.91702e-07
-2.58239e-07
6.88824e-08
-2.71026e-07
-2.54448e-07
7.87628e-08
-2.47397e-07
-2.53041e-07
8.23217e-08
-2.21984e-07
-2.53425e-07
8.24865e-08
-1.9615e-07
-2.54808e-07
8.17605e-08
-1.70813e-07
-2.56733e-07
8.10144e-08
-1.46042e-07
-2.58839e-07
7.84305e-08
-1.21027e-07
-2.61079e-07
7.27538e-08
-9.43863e-08
-2.63304e-07
6.47594e-08
-6.68594e-08
-2.66043e-07
5.64932e-08
-4.13429e-08
-2.69512e-07
4.96214e-08
-1.8835e-08
-2.7355e-07
4.46544e-08
2.72935e-09
-2.77524e-07
3.97003e-08
2.63316e-08
-2.81875e-07
3.54662e-08
5.0116e-08
-2.85572e-07
3.24758e-08
6.99535e-08
-2.8968e-07
2.9165e-08
9.59819e-08
-2.91508e-07
3.34186e-08
1.03682e-07
-2.99464e-07
3.17805e-08
1.4188e-07
-2.95913e-07
4.67521e-08
1.25572e-07
-3.09223e-07
3.16973e-08
1.97744e-07
-2.90067e-07
2.7608e-08
1.48329e-07
-2.9946e-07
-4.82448e-08
2.73449e-07
-2.56372e-07
-1.41907e-07
2.39959e-07
-2.51709e-07
-2.81865e-07
4.21001e-07
-2.08511e-07
-4.24113e-07
4.33002e-07
-2.05969e-07
-4.32003e-07
3.73604e-07
-2.60442e-07
-6.95379e-08
1.26887e-07
-4.48193e-07
2.41608e-07
-1.93101e-07
-4.47205e-07
6.50495e-07
-1.50985e-06
-2.57362e-07
-4.51088e-07
-1.93149e-06
5.04822e-07
-1.24781e-06
-3.43768e-06
1.28112e-06
1.21961e-06
-3.7135e-06
-6.89965e-07
4.30561e-06
-5.93107e-06
-1.31592e-06
5.89493e-06
-4.9615e-06
-1.27525e-06
5.75941e-06
3.62317e-06
-1.19075e-06
-3.07965e-06
1.08592e-05
2.39651e-06
5.70117e-06
-3.6786e-06
1.89339e-06
2.9649e-05
-2.56953e-05
-9.40404e-08
1.26123e-05
-2.74863e-05
-5.1544e-06
1.28741e-05
-1.58566e-05
2.28711e-08
1.01136e-05
-8.52602e-06
4.01678e-06
1.04659e-05
-3.19935e-06
-1.13032e-06
8.91111e-06
4.312e-06
-1.46112e-06
7.66362e-06
5.84737e-06
-9.76479e-07
4.79814e-06
7.90573e-06
-5.24772e-07
2.39478e-07
8.97267e-06
8.48809e-07
-4.3702e-06
8.32966e-06
2.12483e-06
-7.2375e-06
5.41029e-06
1.80347e-06
-9.45469e-06
3.13896e-06
1.25703e-06
-1.13983e-05
1.54709e-06
8.87468e-07
-1.2743e-05
5.79979e-07
1.94157e-07
-1.32422e-05
1.03209e-07
-8.32118e-07
-1.29446e-05
-2.16549e-07
-1.81686e-06
-1.27241e-05
-4.98161e-07
-1.69236e-06
-1.27442e-05
-5.95756e-07
-1.3962e-06
-1.25605e-05
-7.91937e-07
-1.61549e-06
-1.20978e-05
-8.73598e-07
-1.9587e-06
-1.13921e-05
-8.54565e-07
-2.33921e-06
-1.05016e-05
-9.20177e-07
-2.64866e-06
-9.46783e-06
-1.29028e-06
-2.74546e-06
-8.21194e-06
-2.34814e-06
-2.5951e-06
-6.5582e-06
-4.37696e-06
-2.12015e-06
-4.197e-06
-7.17098e-06
-1.44153e-06
-1.28455e-06
-8.68599e-06
-1.03375e-06
1.74451e-06
-8.80612e-06
-9.85684e-07
4.60759e-06
-7.15249e-06
-1.46296e-06
6.8279e-06
-4.96314e-06
-1.86514e-06
8.28645e-06
-2.67762e-06
-2.18633e-06
9.13125e-06
-5.65708e-07
-2.50563e-06
8.95322e-06
1.42396e-06
-2.28277e-06
7.60237e-06
2.98382e-06
-1.48884e-06
5.15276e-06
3.91733e-06
-3.65301e-07
2.15803e-06
4.78648e-06
4.43546e-07
6.02976e-06
-3.74859e-07
-2.6114e-06
-4.30229e-06
-3.76775e-07
-1.52744e-06
-4.60175e-06
-8.04897e-07
-1.24965e-06
-3.07384e-06
1.58079e-07
-7.24652e-07
-2.8423e-06
4.69085e-08
-3.98779e-07
-1.53434e-06
2.46467e-08
-1.33845e-07
-1.0328e-06
-5.22033e-08
2.65105e-09
-1.98147e-07
-1.97174e-07
2.35913e-08
1.40213e-07
-1.75707e-07
-9.96526e-08
6.143e-07
-1.5093e-07
-3.53964e-07
7.46858e-07
-8.05286e-08
-5.45503e-07
5.95172e-07
-1.36898e-07
-6.62781e-07
3.73448e-07
-2.01959e-07
-7.2031e-07
2.23763e-07
-2.52619e-07
-7.0378e-07
9.26318e-08
-3.00104e-07
-6.30029e-07
7.77064e-09
-3.37159e-07
-5.19194e-07
-3.91908e-08
-3.68241e-07
-4.04034e-07
-3.90627e-08
-3.83764e-07
-3.00177e-07
-3.48063e-08
-3.91493e-07
-2.09707e-07
-2.2446e-08
-3.94891e-07
-1.30831e-07
-5.06065e-09
-3.9573e-07
-6.55657e-08
1.77604e-08
-3.9183e-07
-1.44449e-08
4.31432e-08
-3.85659e-07
2.32502e-08
7.05233e-08
-3.7893e-07
4.90935e-08
9.99033e-08
-3.72842e-07
6.46814e-08
1.30532e-07
-3.67793e-07
7.21407e-08
1.60165e-07
-3.63474e-07
7.36535e-08
1.87713e-07
-3.59731e-07
7.10923e-08
2.13253e-07
-3.56441e-07
6.56325e-08
2.38667e-07
-3.53938e-07
5.80291e-08
2.66158e-07
-3.52664e-07
4.95529e-08
2.94559e-07
-3.52666e-07
4.07332e-08
3.21382e-07
-3.53652e-07
3.18673e-08
3.4526e-07
-3.54979e-07
2.25466e-08
3.68315e-07
-3.56038e-07
1.49925e-08
3.90568e-07
-3.5644e-07
9.29901e-09
4.12676e-07
-3.5665e-07
5.90704e-09
4.30963e-07
-3.57358e-07
4.51425e-09
4.54064e-07
-3.56534e-07
6.84734e-09
4.60939e-07
-3.59244e-07
1.16876e-09
4.98068e-07
-3.50496e-07
-7.31866e-09
4.87577e-07
-3.52988e-07
-4.64616e-08
5.66562e-07
-3.29774e-07
-1.13545e-07
5.42948e-07
-3.27022e-07
-2.09693e-07
6.72598e-07
-3.03191e-07
-3.33081e-07
6.62477e-07
-2.98434e-07
-4.10887e-07
7.82139e-07
-2.83842e-07
-4.19269e-07
7.14328e-07
-2.71227e-07
-3.29368e-07
5.79236e-07
-2.93581e-07
8.47398e-08
1.77246e-07
-4.50869e-07
7.08427e-07
-2.08876e-07
-5.89637e-07
8.52757e-07
-1.29766e-06
-3.09189e-07
-7.96086e-09
-1.42295e-06
3.81096e-07
1.50684e-06
-4.92612e-06
1.33761e-07
5.58096e-06
-6.41437e-06
-1.33947e-06
8.21557e-06
-6.7183e-06
-1.65825e-06
8.46231e-06
-3.19387e-06
-2.16682e-06
8.83212e-06
5.7928e-06
-1.55438e-06
1.11476e-06
1.90583e-05
-1.49004e-06
1.02559e-05
-7.37911e-06
8.09173e-06
3.43281e-05
-2.62647e-05
-2.92373e-06
1.08482e-05
-3.1154e-05
-4.27381e-06
8.18676e-06
-1.61194e-05
6.99307e-07
6.46913e-06
-1.02767e-05
3.46231e-06
4.1446e-06
9.6229e-08
-9.71278e-07
3.49611e-06
5.92701e-06
-9.66611e-07
1.60435e-06
8.51676e-06
-7.77689e-07
-1.60106e-06
1.07851e-05
3.26049e-07
-5.62418e-06
1.09575e-05
2.03853e-06
-8.13166e-06
8.31677e-06
2.52057e-06
-1.01206e-05
5.73923e-06
1.66014e-06
-1.21219e-05
4.17427e-06
9.66067e-07
-1.38998e-05
3.09764e-06
2.27357e-07
-1.52273e-05
2.49127e-06
-5.83836e-07
-1.57528e-05
2.33951e-06
-1.71089e-06
-1.55672e-05
2.19707e-06
-2.59939e-06
-1.53933e-05
1.84408e-06
-2.5162e-06
-1.53626e-05
1.64965e-06
-2.2762e-06
-1.49578e-05
1.36657e-06
-2.56317e-06
-1.42595e-05
1.22507e-06
-2.79689e-06
-1.32302e-05
1.14083e-06
-3.02467e-06
-1.20637e-05
8.87366e-07
-2.97415e-06
-1.08178e-05
-1.75872e-08
-2.51872e-06
-9.50911e-06
-1.95221e-06
-1.70457e-06
-8.18212e-06
-5.18453e-06
-5.19346e-07
-6.78354e-06
-9.45376e-06
8.84136e-07
-4.59886e-06
-1.26152e-05
1.74446e-06
-1.49289e-06
-1.34056e-05
1.49357e-06
2.02866e-06
-1.12714e-05
5.97384e-07
5.46829e-06
-7.79668e-06
-6.06092e-07
8.19759e-06
-3.51381e-06
-1.89311e-06
1.00422e-05
4.37444e-07
-2.84773e-06
1.0507e-05
4.58564e-06
-3.62654e-06
9.56543e-06
7.41293e-06
-3.48751e-06
7.0335e-06
8.50997e-06
-2.0607e-06
3.161e-06
9.0675e-06
-4.08515e-07
9.45752e-06
-2.6676e-07
-3.34741e-06
-4.44164e-06
-1.45127e-07
-2.31985e-06
-4.83267e-06
-7.89399e-07
-2.1437e-06
-3.45199e-06
2.0964e-07
-1.40174e-06
-3.5852e-06
7.42855e-09
-8.27262e-07
-2.30929e-06
2.07554e-07
-2.5279e-07
-1.69708e-06
9.51997e-08
-3.74792e-10
-3.36107e-07
-1.09564e-07
7.90859e-08
1.94566e-07
-1.2918e-07
8.29112e-08
7.81122e-07
-1.66852e-07
-1.42219e-07
1.05977e-06
-8.63928e-08
-3.46701e-07
9.27086e-07
-1.26675e-07
-5.15748e-07
7.09779e-07
-1.6676e-07
-6.27065e-07
5.32749e-07
-1.97208e-07
-6.5714e-07
3.63848e-07
-2.40859e-07
-6.16495e-07
2.4523e-07
-2.77839e-07
-5.27674e-07
1.87751e-07
-3.15548e-07
-4.27343e-07
2.04014e-07
-3.43208e-07
-3.35969e-07
2.36278e-07
-3.62275e-07
-2.53785e-07
2.72447e-07
-3.76908e-07
-1.76802e-07
3.06003e-07
-3.87887e-07
-1.06852e-07
3.41841e-07
-3.93899e-07
-4.66365e-08
3.77844e-07
-3.94792e-07
1.5255e-09
4.14107e-07
-3.91646e-07
3.76119e-08
4.49529e-07
-3.85611e-07
6.17434e-08
4.83912e-07
-3.77434e-07
7.55646e-08
5.14579e-07
-3.6815e-07
8.12926e-08
5.40985e-07
-3.58933e-07
8.1345e-08
5.63701e-07
-3.50422e-07
7.69984e-08
5.86184e-07
-3.43105e-07
6.9142e-08
6.11152e-07
-3.37057e-07
5.96709e-08
6.36231e-07
-3.32129e-07
4.97679e-08
6.59141e-07
-3.27765e-07
3.94636e-08
6.7937e-07
-3.2372e-07
2.86224e-08
6.99061e-07
-3.19806e-07
1.86744e-08
7.17181e-07
-3.16567e-07
1.02638e-08
7.34483e-07
-3.13291e-07
3.608e-09
7.47703e-07
-3.09955e-07
-3.47395e-09
7.66153e-07
-3.04949e-07
-1.39173e-08
7.7194e-07
-3.00334e-07
-3.7372e-08
8.08775e-07
-2.87238e-07
-8.23807e-08
8.12677e-07
-2.79807e-07
-1.52652e-07
8.97046e-07
-2.60294e-07
-2.71205e-07
9.13889e-07
-2.51969e-07
-3.67944e-07
1.00607e-06
-2.36984e-07
-4.61965e-07
9.8436e-07
-2.27184e-07
-4.71562e-07
9.71981e-07
-1.80732e-07
-3.61676e-07
7.47717e-07
-1.41373e-07
-1.27182e-07
5.18857e-07
-1.71479e-07
2.44986e-07
5.43584e-08
-2.33197e-07
8.35954e-07
-3.87442e-07
-3.90831e-07
1.11721e-06
-1.35649e-06
-1.79432e-07
1.81259e-06
-2.08367e-06
4.62875e-08
3.94157e-06
-5.94566e-06
-8.32323e-07
7.5854e-06
-7.67808e-06
-2.31756e-06
1.09222e-05
-8.5587e-06
-1.35324e-06
1.41057e-05
-3.29037e-06
-3.24285e-06
1.58402e-05
7.89367e-06
-3.06827e-06
1.40258e-05
2.73993e-05
-6.82306e-06
1.44195e-05
-6.43781e-06
1.40371e-05
3.59963e-05
-2.34229e-05
-3.94569e-06
6.35835e-06
-3.04417e-05
-4.2358e-06
5.88729e-07
-1.54554e-05
3.11942e-06
1.01283e-06
-1.18062e-05
1.09511e-06
-4.41361e-06
4.24063e-06
1.28099e-06
-3.25925e-06
5.18135e-06
-4.08131e-07
-6.13948e-06
1.01338e-05
1.26552e-06
-8.1928e-06
1.05797e-05
2.26147e-06
-9.76382e-06
9.73937e-06
2.79247e-06
-1.12517e-05
7.60894e-06
2.19807e-06
-1.32534e-05
6.52139e-06
1.22146e-06
-1.51084e-05
5.64639e-06
3.85219e-07
-1.69315e-05
5.26542e-06
-3.42665e-07
-1.81528e-05
4.9336e-06
-1.22205e-06
-1.85427e-05
4.99572e-06
-2.27472e-06
-1.81819e-05
4.84587e-06
-3.01866e-06
-1.76146e-05
4.26199e-06
-2.98918e-06
-1.70043e-05
3.7639e-06
-2.72536e-06
-1.58601e-05
3.12525e-06
-2.90406e-06
-1.43689e-05
2.62009e-06
-2.88928e-06
-1.26262e-05
2.17567e-06
-2.78025e-06
-1.08881e-05
1.44742e-06
-2.29956e-06
-9.26336e-06
-6.21276e-08
-1.58075e-06
-7.74876e-06
-2.74724e-06
-7.19726e-07
-6.63989e-06
-6.68605e-06
3.92535e-07
-6.21556e-06
-1.15384e-05
1.66001e-06
-5.14747e-06
-1.63623e-05
2.67872e-06
-3.01908e-06
-1.84705e-05
2.93618e-06
1.68924e-07
-1.72899e-05
2.83023e-06
3.76882e-06
-1.36669e-05
2.27027e-06
7.27041e-06
-8.18152e-06
1.16611e-06
1.0286e-05
-2.16588e-06
-4.12265e-07
1.12054e-05
5.77364e-06
-2.10739e-06
1.03691e-05
1.20431e-05
-3.79388e-06
8.10987e-06
1.40611e-05
-3.29195e-06
4.25674e-06
1.38701e-05
-9.49438e-07
1.4063e-05
-3.48694e-07
-3.94776e-06
-4.27597e-06
-1.6004e-07
-3.0123e-06
-4.96532e-06
-7.97695e-07
-3.00945e-06
-3.61847e-06
1.71071e-07
-2.11395e-06
-4.05715e-06
-4.17529e-07
-1.46061e-06
-3.14882e-06
1.93823e-07
-5.10179e-07
-2.68474e-06
4.58325e-08
1.25903e-08
-8.71915e-07
2.00499e-08
1.71527e-07
7.33839e-08
-3.29009e-08
2.97992e-07
7.72041e-07
-1.129e-07
1.26909e-07
1.26802e-06
-3.51608e-08
-9.07775e-08
1.2231e-06
-7.75054e-08
-3.21571e-07
1.05539e-06
-1.14246e-07
-4.93168e-07
8.61333e-07
-1.564e-07
-5.59548e-07
6.34977e-07
-2.04303e-07
-5.34651e-07
4.72428e-07
-2.51629e-07
-4.53535e-07
4.03391e-07
-2.96333e-07
-3.62622e-07
4.39399e-07
-3.25849e-07
-2.92868e-07
5.11079e-07
-3.441e-07
-2.37859e-07
5.77561e-07
-3.59633e-07
-1.88563e-07
6.28828e-07
-3.71642e-07
-1.38433e-07
6.71302e-07
-3.79105e-07
-9.09045e-08
7.10453e-07
-3.79676e-07
-4.85577e-08
7.47151e-07
-3.74922e-07
-1.44848e-08
7.82056e-07
-3.66159e-07
8.06925e-09
8.16453e-07
-3.54638e-07
2.11191e-08
8.43657e-07
-3.41697e-07
2.69902e-08
8.64057e-07
-3.285e-07
2.89062e-08
8.78075e-07
-3.15873e-07
2.87243e-08
8.91395e-07
-3.04599e-07
2.56969e-08
9.09026e-07
-2.94433e-07
1.9598e-08
9.28358e-07
-2.85596e-07
1.09082e-08
9.46131e-07
-2.77885e-07
-2.79295e-10
9.61954e-07
-2.70962e-07
-1.38796e-08
9.77797e-07
-2.64726e-07
-2.79774e-08
9.91032e-07
-2.59323e-07
-4.10123e-08
1.00198e-06
-2.54068e-07
-5.48926e-08
1.01047e-06
-2.48459e-07
-7.05777e-08
1.02381e-06
-2.41614e-07
-9.68036e-08
1.03234e-06
-2.33717e-07
-1.35973e-07
1.06884e-06
-2.20622e-07
-2.10518e-07
1.09584e-06
-2.08068e-07
-2.923e-07
1.17072e-06
-1.91756e-07
-4.13688e-07
1.2128e-06
-1.76813e-07
-4.75703e-07
1.22959e-06
-1.61568e-07
-5.29579e-07
1.1844e-06
-1.45222e-07
-5.32762e-07
1.08198e-06
-1.07216e-07
-4.87291e-07
7.77762e-07
-7.37137e-08
-3.42565e-07
5.25608e-07
-1.48978e-07
-9.18629e-08
3.71041e-08
-2.15171e-07
-5.67014e-08
-2.16783e-07
-1.85749e-07
3.53408e-07
-1.38533e-06
-3.17601e-07
6.5039e-07
-1.71994e-06
-5.44664e-07
-1.91401e-08
-3.20224e-06
-1.81492e-06
-1.32166e-06
-3.7327e-06
-2.63748e-06
8.37135e-07
-7.51277e-06
-3.13841e-06
1.67487e-06
-3.67119e-06
-4.74898e-07
8.72858e-06
5.09024e-06
-3.48879e-06
1.51988e-05
3.11167e-05
-9.86771e-06
2.29501e-05
-8.86039e-06
1.27921e-05
3.94963e-05
-1.80669e-05
-3.53797e-06
4.30622e-06
-2.54694e-05
-4.10955e-06
-9.03339e-06
-1.08076e-05
6.04955e-06
-1.3684e-05
-9.19507e-06
2.00787e-06
-1.29871e-05
1.58164e-06
1.96269e-06
-1.37815e-05
4.14073e-06
1.86248e-06
-1.42568e-05
8.0666e-06
2.5811e-06
-1.54508e-05
9.00358e-06
2.79269e-06
-1.67209e-05
8.80836e-06
2.20023e-06
-1.84086e-05
7.98356e-06
1.31592e-06
-2.0137e-05
7.80451e-06
4.65405e-07
-2.18584e-05
7.61453e-06
-2.3908e-07
-2.30936e-05
7.49112e-06
-9.84155e-07
-2.36881e-05
7.26407e-06
-1.74671e-06
-2.29551e-05
6.74573e-06
-2.526e-06
-2.16721e-05
6.56803e-06
-3.04751e-06
-2.00835e-05
5.57136e-06
-2.93866e-06
-1.81343e-05
4.46903e-06
-2.69368e-06
-1.55645e-05
3.19844e-06
-2.68535e-06
-1.25522e-05
1.9494e-06
-2.38285e-06
-9.40164e-06
1.00875e-06
-2.01495e-06
-6.73428e-06
1.23622e-07
-1.36112e-06
-4.74915e-06
-1.43911e-06
-6.1842e-07
-3.14399e-06
-4.51163e-06
1.549e-07
-2.50716e-06
-8.44962e-06
1.12492e-06
-2.93824e-06
-1.31203e-05
2.01169e-06
-3.65819e-06
-1.8436e-05
2.79294e-06
-3.11513e-06
-2.20013e-05
2.98734e-06
-9.51451e-07
-2.2439e-05
2.98516e-06
2.25993e-06
-1.98722e-05
2.99331e-06
6.15395e-06
-1.46994e-05
2.62302e-06
1.0433e-05
-7.66376e-06
1.21794e-06
1.21394e-05
3.00018e-06
1.0668e-06
1.1383e-05
1.48429e-05
-2.04357e-06
8.77673e-06
2.00801e-05
-3.41266e-06
4.41679e-06
2.02755e-05
-2.04545e-06
1.85291e-05
-4.93059e-08
-4.45476e-06
-3.74632e-06
-1.75233e-07
-3.51562e-06
-4.64579e-06
-1.2566e-06
-3.5924e-06
-3.34903e-06
-1.86372e-07
-2.4366e-06
-3.98574e-06
-1.222e-06
-1.8308e-06
-3.33967e-06
-4.07758e-07
-7.5859e-07
-3.23555e-06
-5.12253e-07
2.55878e-08
-1.4966e-06
-1.50799e-07
2.2844e-07
-2.69625e-08
-9.60437e-08
4.04317e-07
7.73759e-07
-1.72428e-07
3.38879e-07
1.3992e-06
-6.3095e-08
1.25303e-07
1.51051e-06
-7.28198e-08
-1.69651e-07
1.42818e-06
-7.73066e-08
-3.49303e-07
1.15501e-06
-1.1369e-07
-4.13263e-07
8.70066e-07
-1.71004e-07
-4.00121e-07
6.95764e-07
-2.36438e-07
-3.43608e-07
6.39189e-07
-2.92268e-07
-2.74514e-07
6.9249e-07
-3.2218e-07
-2.28362e-07
7.94691e-07
-3.29777e-07
-2.03187e-07
8.86222e-07
-3.33887e-07
-1.88514e-07
9.51648e-07
-3.37558e-07
-1.7454e-07
9.97652e-07
-3.40414e-07
-1.6e-07
1.03435e-06
-3.38514e-07
-1.45016e-07
1.06398e-06
-3.31904e-07
-1.3276e-07
1.0909e-06
-3.21186e-07
-1.26958e-07
1.11687e-06
-3.06325e-07
-1.2354e-07
1.1322e-06
-2.92033e-07
-1.21869e-07
1.14133e-06
-2.79013e-07
-1.19433e-07
1.1438e-06
-2.68213e-07
-1.16526e-07
1.14709e-06
-2.58664e-07
-1.1534e-07
1.15744e-06
-2.49653e-07
-1.17693e-07
1.17184e-06
-2.41206e-07
-1.23588e-07
1.1854e-06
-2.33437e-07
-1.33526e-07
1.19817e-06
-2.26357e-07
-1.48226e-07
1.21217e-06
-2.19739e-07
-1.66287e-07
1.22292e-06
-2.13902e-07
-1.85167e-07
1.22938e-06
-2.08588e-07
-2.08835e-07
1.23599e-06
-2.01897e-07
-2.361e-07
1.24523e-06
-1.94223e-07
-2.76961e-07
1.25697e-06
-1.8376e-07
-3.26008e-07
1.29058e-06
-1.72818e-07
-4.08129e-07
1.33486e-06
-1.56743e-07
-4.68319e-07
1.38027e-06
-1.49631e-07
-5.45852e-07
1.42651e-06
-1.35843e-07
-5.5456e-07
1.36706e-06
-1.2925e-07
-5.70749e-07
1.31372e-06
-1.12667e-07
-5.93716e-07
1.19333e-06
-8.9066e-08
-6.35974e-07
9.13239e-07
-9.18783e-08
-6.31218e-07
7.38006e-07
-2.14864e-07
-6.16632e-07
3.75136e-07
-3.3533e-07
-8.16366e-07
2.2065e-07
-2.12895e-07
-1.64684e-06
-4.22775e-07
-7.36632e-08
-2.65841e-06
-5.80354e-07
-4.73757e-08
-4.49542e-06
-1.60331e-07
-9.91058e-07
-5.82527e-06
1.21256e-06
-3.58505e-06
-5.46047e-06
-1.56747e-06
-6.23869e-06
7.42522e-08
-3.77195e-06
-5.47799e-06
1.59415e-05
-2.09218e-06
-8.15506e-06
3.04283e-05
1.94893e-05
-2.9805e-06
3.06991e-05
-9.58235e-06
2.40111e-05
3.90596e-05
-9.28107e-06
-2.36723e-06
-4.10028e-06
-1.53672e-05
-4.48826e-06
-1.6617e-05
-5.34392e-06
6.38719e-06
-2.24127e-05
-5.4474e-06
2.06231e-06
-2.36261e-05
7.21775e-07
2.11543e-06
-2.57511e-05
4.36381e-06
1.88138e-06
-2.63411e-05
6.74362e-06
1.90276e-06
-2.70263e-05
8.05608e-06
1.60948e-06
-2.73528e-05
8.34379e-06
8.3514e-07
-2.80346e-05
8.38715e-06
3.3412e-07
-2.86313e-05
8.58188e-06
-2.15909e-07
-2.88563e-05
8.50739e-06
-6.90998e-07
-2.861e-05
8.36177e-06
-1.11918e-06
-2.78678e-05
8.11642e-06
-1.59993e-06
-2.67771e-05
7.77708e-06
-2.1424e-06
-2.41373e-05
6.54319e-06
-2.75699e-06
-2.13977e-05
5.25534e-06
-2.58991e-06
-1.84452e-05
3.81809e-06
-2.36728e-06
-1.49239e-05
1.88559e-06
-2.30354e-06
-1.10094e-05
-1.1244e-07
-1.96936e-06
-7.12659e-06
-1.46222e-06
-1.50242e-06
-3.85683e-06
-2.59235e-06
-6.14772e-07
-1.78501e-06
-3.86479e-06
3.23238e-07
-7.97631e-07
-6.67635e-06
1.15345e-06
-6.39416e-07
-1.07644e-05
2.13471e-06
-1.20507e-06
-1.53614e-05
2.79516e-06
-2.32962e-06
-2.04599e-05
3.1446e-06
-2.72994e-06
-2.46972e-05
3.09272e-06
-1.94956e-06
-2.60117e-05
2.79117e-06
2.55561e-07
-2.48514e-05
2.77565e-06
3.83782e-06
-2.02769e-05
1.99739e-06
8.82515e-06
-1.32349e-05
5.83809e-07
1.13597e-05
-2.0642e-06
2.53089e-06
1.02314e-05
1.50071e-05
9.63848e-07
9.14968e-06
2.29783e-05
-1.82162e-06
5.67067e-06
2.55344e-05
-1.78682e-06
2.45091e-05
-3.12755e-07
-4.9062e-06
-2.68583e-06
-2.93317e-08
-4.0551e-06
-4.16581e-06
-1.3317e-06
-4.2436e-06
-2.76708e-06
-3.89363e-07
-2.84533e-06
-3.66427e-06
-1.71449e-06
-2.1398e-06
-3.0838e-06
-9.53957e-07
-1.01477e-06
-3.20472e-06
-1.14631e-06
2.97834e-08
-2.02199e-06
-5.07889e-07
3.42028e-07
-2.29613e-07
-9.99575e-08
4.43768e-07
8.63042e-07
-1.85402e-07
4.23909e-07
1.42531e-06
-2.90421e-09
3.3621e-07
1.62225e-06
-2.25372e-08
1.82524e-07
1.6197e-06
-3.72681e-08
1.0129e-07
1.39209e-06
-1.55473e-07
4.82096e-08
1.16441e-06
-2.41006e-07
5.07387e-09
1.05713e-06
-3.17901e-07
-5.12157e-08
1.07161e-06
-3.75872e-07
-1.06956e-07
1.17132e-06
-4.22806e-07
-1.57877e-07
1.29365e-06
-4.47787e-07
-2.0695e-07
1.40076e-06
-4.65192e-07
-2.53359e-07
1.47441e-06
-4.76102e-07
-2.80008e-07
1.50765e-06
-4.83133e-07
-2.93018e-07
1.53272e-06
-4.85206e-07
-2.98281e-07
1.55313e-06
-4.83776e-07
-2.98894e-07
1.57127e-06
-4.79709e-07
-2.96362e-07
1.58784e-06
-4.73508e-07
-2.9321e-07
1.59693e-06
-4.67968e-07
-2.87943e-07
1.59962e-06
-4.63681e-07
-2.77728e-07
1.59439e-06
-4.60978e-07
-2.66747e-07
1.59334e-06
-4.57417e-07
-2.61903e-07
1.60569e-06
-4.53308e-07
-2.64079e-07
1.62286e-06
-4.49047e-07
-2.71957e-07
1.63866e-06
-4.45612e-07
-2.85317e-07
1.65381e-06
-4.42507e-07
-3.04468e-07
1.67014e-06
-4.39078e-07
-3.2727e-07
1.68147e-06
-4.36002e-07
-3.51553e-07
1.687e-06
-4.3363e-07
-3.8185e-07
1.69536e-06
-4.29352e-07
-4.16379e-07
1.70428e-06
-4.24873e-07
-4.62356e-07
1.71955e-06
-4.16861e-07
-5.05697e-07
1.74504e-06
-4.11606e-07
-5.72184e-07
1.79924e-06
-3.98032e-07
-5.97724e-07
1.80458e-06
-3.99446e-07
-6.32234e-07
1.85161e-06
-3.9053e-07
-6.07205e-07
1.74141e-06
-4.00227e-07
-5.99496e-07
1.70746e-06
-4.01269e-07
-6.41453e-07
1.63048e-06
-3.96249e-07
-8.32051e-07
1.51972e-06
-4.14922e-07
-1.09375e-06
1.57411e-06
-5.71301e-07
-1.55091e-06
1.50901e-06
-6.57217e-07
-2.23616e-06
1.33883e-06
-4.04716e-07
-3.43877e-06
8.62693e-07
-2.32874e-08
-3.37613e-06
-1.17956e-06
5.79724e-07
-1.67307e-06
-1.31382e-06
-3.75223e-07
2.08264e-06
2.05641e-07
-2.61057e-06
5.07585e-06
4.94429e-06
-9.24032e-06
1.03065e-05
7.00419e-06
-1.61244e-05
2.04327e-05
6.27188e-06
-1.83704e-05
3.74697e-05
9.64154e-06
-7.39349e-06
3.59431e-05
-8.41079e-06
2.82509e-05
4.01837e-05
3.4178e-06
-3.70038e-06
-1.44461e-05
5.37282e-06
-6.87976e-06
-2.48985e-05
-9.42985e-07
5.6224e-06
-3.41492e-05
2.52551e-06
1.33244e-06
-3.74249e-05
2.47114e-06
1.50123e-06
-3.96955e-05
4.88242e-06
1.64646e-06
-4.00158e-05
5.54618e-06
1.46934e-06
-3.94636e-05
6.2858e-06
1.26224e-06
-3.86019e-05
6.72561e-06
8.02778e-07
-3.79631e-05
7.25117e-06
5.37992e-07
-3.70459e-05
7.64678e-06
4.41851e-08
-3.60349e-05
7.95385e-06
-4.69741e-07
-3.46185e-05
7.70939e-06
-7.91732e-07
-3.24814e-05
7.48582e-06
-1.58214e-06
-2.96917e-05
7.17018e-06
-2.27082e-06
-2.67432e-05
6.36313e-06
-2.85146e-06
-2.39307e-05
5.43966e-06
-3.11517e-06
-2.09553e-05
4.22924e-06
-3.5392e-06
-1.75896e-05
2.3145e-06
-4.01663e-06
-1.36931e-05
-8.8171e-08
-4.17546e-06
-9.28846e-06
-2.15966e-06
-3.96485e-06
-4.27886e-06
-4.89081e-06
-2.93073e-06
4.36224e-07
-7.32771e-06
-1.37654e-06
3.30277e-06
-9.62063e-06
2.33703e-09
3.96453e-06
-1.28853e-05
1.39917e-06
2.87196e-06
-1.63785e-05
2.04262e-06
8.98616e-07
-2.04132e-05
1.85807e-06
-1.08864e-06
-2.41688e-05
1.39178e-06
-2.19001e-06
-2.59269e-05
9.43731e-07
-2.4902e-06
-2.5415e-05
7.92585e-07
-8.34527e-07
-2.21517e-05
1.39796e-07
1.87032e-06
-1.61955e-05
1.58387e-07
5.29676e-06
-7.15714e-06
1.58859e-06
6.0152e-06
1.18573e-05
2.4032e-06
5.18703e-06
2.31289e-05
6.12789e-07
3.43907e-06
2.74549e-05
-2.57519e-07
2.607e-05
1.9016e-06
-4.80893e-06
4.82806e-07
1.71216e-06
-4.32503e-06
-3.89099e-06
-7.62475e-07
-5.03219e-06
-1.97982e-06
-7.87278e-08
-3.53223e-06
-3.42269e-06
-1.73787e-06
-2.65058e-06
-2.68191e-06
-1.27615e-06
-1.34861e-06
-2.91491e-06
-1.58164e-06
-2.03124e-07
-2.2566e-06
-8.98036e-07
2.67202e-07
-6.69852e-07
-1.77079e-08
3.77643e-07
7.31912e-07
2.76167e-08
3.92785e-07
1.12287e-06
2.90701e-07
4.75382e-07
1.30294e-06
2.38287e-07
5.15609e-07
1.29682e-06
2.83245e-07
5.03369e-07
1.20546e-06
1.99646e-07
4.1947e-07
1.05566e-06
1.9317e-07