/*--------------------------------*- C++ -*----------------------------------*\
| =========                 |                                                 |
| \\      /  F ield         | OpenFOAM: The Open Source CFD Toolbox           |
|  \\    /   O peration     | Version:  2.3.0                                 |
|   \\  /    A nd           | Web:      www.OpenFOAM.org                      |
|    \\/     M anipulation  |                                                 |
\*---------------------------------------------------------------------------*/
FoamFile
{
    version     2.0;
    format      ascii;
    class       surfaceScalarField;
    location    "39";
    object      phi.air;
}
// * * * * * * * * * * * * * * * * * * * * * * * * * * * * * * * * * * * * * //

dimensions      [0 3 -1 0 0 0 0];

internalField   nonuniform List<scalar> 
16448
(
-1.32852e-06
-2.6501e-06
5.25922e-07
7.73639e-07
-2.81705e-06
7.14893e-07
7.22814e-07
-1.1626e-06
1.21342e-06
5.29623e-07
-9.32088e-07
1.12527e-06
5.41143e-08
-4.75939e-07
9.51436e-07
-1.29344e-07
-6.9351e-07
8.76957e-07
-2.00734e-07
-6.7941e-07
7.5079e-07
-2.04164e-07
-6.4559e-07
6.49009e-07
-2.77233e-07
-4.84653e-07
5.57712e-07
-4.43179e-07
-3.46733e-07
5.1267e-07
-6.33194e-07
-2.64453e-07
4.5446e-07
-7.14295e-07
-2.77923e-07
3.59015e-07
-6.83964e-07
-3.216e-07
2.9126e-07
-5.58799e-07
-3.68359e-07
2.43184e-07
-4.15353e-07
-3.87674e-07
2.44219e-07
-2.66816e-07
-4.08857e-07
2.60308e-07
-1.40912e-07
-4.19762e-07
2.93849e-07
-3.7988e-08
-4.32005e-07
3.29069e-07
3.45777e-08
-4.41013e-07
3.68437e-07
7.61319e-08
-4.45906e-07
4.0434e-07
8.95602e-08
-4.48728e-07
4.35288e-07
8.51219e-08
-4.51396e-07
4.55822e-07
7.00114e-08
-4.49284e-07
4.64383e-07
4.92366e-08
-4.42519e-07
4.63282e-07
2.63177e-08
-4.3131e-07
4.54218e-07
4.00963e-09
-4.16708e-07
4.39004e-07
-1.46295e-08
-4.01746e-07
4.20374e-07
-2.75562e-08
-3.87889e-07
4.00804e-07
-3.47938e-08
-3.73838e-07
3.81065e-07
-3.99956e-08
-3.58259e-07
3.63449e-07
-4.73307e-08
-3.4067e-07
3.47994e-07
-5.8286e-08
-3.2167e-07
3.32613e-07
-7.11893e-08
-3.02285e-07
3.15176e-07
-8.26333e-08
-2.83145e-07
2.94576e-07
-8.90328e-08
-2.64836e-07
2.71223e-07
-8.87515e-08
-2.47583e-07
2.47289e-07
-8.48723e-08
-2.30612e-07
2.26721e-07
-8.62702e-08
-2.12754e-07
2.14139e-07
-1.06994e-07
-1.93721e-07
2.14432e-07
-1.70337e-07
-1.70541e-07
2.33871e-07
-3.20289e-07
-1.32336e-07
2.82275e-07
-6.22218e-07
-7.25037e-08
3.7442e-07
-1.11824e-06
6.00159e-09
4.90008e-07
-1.69791e-06
1.17342e-08
5.6792e-07
-2.07891e-06
-2.28019e-07
6.09006e-07
-2.00416e-06
-7.77391e-07
7.02636e-07
-1.26277e-06
-1.4557e-06
7.14297e-07
-5.27244e-07
-1.60546e-06
8.69916e-07
-1.33498e-06
-6.82132e-07
1.48984e-06
-1.87418e-06
-1.76296e-06
2.30214e-06
2.97692e-06
-7.90958e-06
3.05845e-06
9.89739e-06
-1.00105e-05
3.09001e-06
1.56191e-05
-9.08386e-06
3.36212e-06
2.05837e-05
-7.47677e-06
2.51211e-06
2.21094e-05
-5.15025e-06
3.62454e-06
1.97187e-05
-2.40082e-07
2.63069e-06
1.45956e-05
2.68223e-06
2.44077e-06
1.10416e-05
5.38668e-06
-1.83261e-06
-8.3269e-06
9.84589e-06
9.27946e-06
-3.09723e-05
-7.75402e-07
-7.04525e-06
-6.58414e-05
-1.53965e-05
2.9487e-06
-1.74164e-05
-5.38446e-06
1.04188e-05
2.55096e-05
-7.09205e-06
8.17385e-06
2.75299e-05
-6.77175e-06
4.88035e-06
2.78112e-05
-5.00764e-06
4.65438e-06
2.73161e-05
-4.7416e-06
5.20232e-06
2.64248e-05
-4.60235e-06
5.48068e-06
2.44149e-05
-3.69919e-06
5.72815e-06
2.21171e-05
-3.8713e-06
6.07095e-06
2.04433e-05
-4.49623e-06
6.02541e-06
1.88369e-05
-4.51342e-06
6.03566e-06
1.68963e-05
-4.05561e-06
5.90074e-06
1.49586e-05
-3.98124e-06
5.80866e-06
1.3652e-05
-4.28897e-06
5.49978e-06
1.3165e-05
-4.20946e-06
4.64759e-06
1.32778e-05
-3.51907e-06
3.36595e-06
1.2803e-05
-1.89124e-06
2.35813e-06
1.04447e-05
2.98707e-07
1.98408e-06
7.08207e-06
1.91741e-06
1.39234e-06
6.05637e-06
2.43464e-06
-1.39051e-06
9.65588e-06
3.0313e-06
-6.75101e-06
1.27529e-05
4.82062e-06
-7.8934e-06
1.44891e-05
5.27343e-06
-7.04007e-06
1.4884e-05
4.67698e-06
-4.97837e-06
1.47557e-05
3.45108e-06
-3.26252e-06
1.43633e-05
2.38492e-06
-2.0346e-06
1.37824e-05
1.28154e-06
-7.24334e-07
1.33175e-05
6.53443e-07
-1.82065e-07
1.25273e-05
1.0093e-06
-1.92791e-07
1.17818e-05
1.49594e-06
-7.72965e-07
1.13897e-05
1.78023e-06
-1.40969e-06
1.15771e-05
1.35638e-06
-1.55655e-06
1.02779e-05
1.35697e-06
1.99195e-08
4.08232e-06
3.0295e-06
3.27347e-06
-1.67938e-06
3.08584e-06
2.8635e-06
-3.70537e-06
2.69528e-06
-2.00722e-06
-3.755e-06
-2.14498e-07
-4.59999e-07
-4.1106e-06
-2.53687e-07
-1.06141e-07
-2.23769e-06
7.21214e-07
2.27353e-07
-1.79217e-06
5.26575e-07
1.87446e-07
-7.66989e-07
3.3094e-07
-4.74632e-09
-7.99085e-07
2.9775e-07
-1.89954e-07
-6.57496e-07
1.63277e-07
-3.10243e-07
-6.22318e-07
9.70018e-08
-4.4762e-07
-4.23376e-07
7.60866e-08
-6.45193e-07
-2.59732e-07
1.10558e-07
-8.27704e-07
-1.73348e-07
9.13933e-08
-8.84266e-07
-2.35296e-07
1.39213e-08
-8.43634e-07
-3.09397e-07
-5.28496e-08
-7.20279e-07
-3.88124e-07
-1.03606e-07
-5.71064e-07
-4.21056e-07
-1.1585e-07
-4.11124e-07
-4.54674e-07
-1.14139e-07
-2.68767e-07
-4.68318e-07
-9.38191e-08
-1.47699e-07
-4.82296e-07
-7.07942e-08
-5.45271e-08
-4.90355e-07
-4.38489e-08
9.07049e-09
-4.90623e-07
-1.88997e-08
4.21737e-08
-4.85381e-07
3.53077e-09
5.39277e-08
-4.76778e-07
1.36088e-08
5.14907e-08
-4.64383e-07
1.75157e-08
4.01035e-08
-4.47402e-07
1.62491e-08
2.37941e-08
-4.26026e-07
1.10046e-08
5.4691e-09
-4.01679e-07
3.27401e-09
-9.93092e-09
-3.76429e-07
-9.93889e-09
-2.08332e-08
-3.52419e-07
-2.45892e-08
-2.77663e-08
-3.28037e-07
-3.88907e-08
-3.39471e-08
-3.00334e-07
-5.17671e-08
-4.1791e-08
-2.69076e-07
-6.37739e-08
-5.07519e-08
-2.36625e-07
-7.61086e-08
-5.91684e-08
-2.04597e-07
-8.92965e-08
-6.51975e-08
-1.73771e-07
-1.0337e-07
-6.75669e-08
-1.44809e-07
-1.17683e-07
-6.68933e-08
-1.17912e-07
-1.30371e-07
-6.69855e-08
-9.17581e-08
-1.38789e-07
-7.56801e-08
-6.44197e-08
-1.39667e-07
-1.04818e-07
-3.63613e-08
-1.28249e-07
-1.74916e-07
-2.51062e-09
-9.79612e-08
-3.2579e-07
5.79566e-08
-3.94471e-08
-6.06772e-07
1.62504e-07
4.59446e-08
-1.05119e-06
3.09257e-07
1.4113e-07
-1.59104e-06
3.52223e-07
1.99335e-07
-2.05498e-06
8.45612e-08
1.51328e-07
-2.23597e-06
-7.06616e-07
1.10191e-07
-2.07815e-06
-1.65959e-06
4.60491e-08
-1.54575e-06
-2.12703e-06
-1.08565e-08
3.72729e-08
-2.0381e-06
-2.27092e-07
3.47855e-06
-5.6096e-06
4.05316e-07
9.06812e-06
-1.37635e-05
2.64299e-07
1.519e-05
-1.64498e-05
3.17297e-07
2.05191e-05
-1.38127e-05
-6.00253e-07
2.57866e-05
-1.07169e-05
-2.02738e-06
2.7309e-05
-6.45004e-06
-2.2272e-07
2.64328e-05
8.01707e-07
-1.65574e-07
2.08222e-05
7.92298e-06
3.6971e-07
1.64956e-05
1.07973e-05
-1.08398e-06
-8.30757e-06
1.71643e-05
1.72885e-05
-3.00125e-05
-4.93624e-06
-3.71136e-06
-7.01884e-05
-2.65526e-05
-2.17174e-06
-3.56611e-05
-1.13061e-05
9.47202e-06
6.89386e-06
-9.44929e-06
5.73907e-06
1.83832e-05
-8.81968e-06
3.37248e-06
1.39997e-05
-4.02295e-06
3.57449e-06
5.63787e-06
-1.77896e-06
5.48416e-06
-1.75962e-06
-3.44769e-06
6.26041e-06
-4.38631e-06
-5.91424e-06
4.95312e-06
-3.73654e-06
-8.29095e-06
3.84686e-06
-1.71812e-06
-1.00971e-05
3.63408e-06
-1.22138e-07
-1.07103e-05
4.64485e-06
1.34682e-06
-1.01928e-05
4.6969e-06
2.42444e-06
-8.97568e-06
3.96513e-06
2.92539e-06
-7.0606e-06
2.36021e-06
3.77503e-06
-4.79593e-06
-1.32384e-07
4.5114e-06
-2.35109e-06
-1.84568e-06
4.17581e-06
6.8846e-07
-2.19247e-06
2.83777e-06
3.18039e-06
-1.47531e-06
2.54372e-06
3.89034e-06
-1.64329e-06
4.56637e-06
4.49545e-06
-4.07197e-06
9.26889e-06
6.71696e-06
-8.48714e-06
1.27596e-05
9.58769e-06
-8.39806e-06
1.40869e-05
1.07457e-05
-6.97067e-06
1.37669e-05
1.01244e-05
-5.18413e-06
1.32169e-05
8.20737e-06
-4.30973e-06
1.23297e-05
6.47746e-06
-3.35651e-06
1.13847e-05
5.1169e-06
-3.0001e-06
1.15341e-05
3.24861e-06
-2.8206e-06
1.13303e-05
3.09052e-06
-1.85141e-06
1.09731e-05
3.19484e-06
-1.37111e-06
1.04741e-05
4.01655e-06
-1.78903e-06
1.02489e-05
4.54573e-06
-3.02026e-06
9.59603e-06
4.6691e-06
-2.56262e-06
6.87243e-06
5.27953e-06
5.94391e-07
2.55821e-06
4.83176e-06
2.84598e-06
-3.89838e-06
3.79448e-06
-2.56952e-06
-4.10317e-06
-4.07568e-07
-1.43882e-06
-4.65175e-06
-5.8955e-07
-9.90666e-07
-2.87549e-06
1.89631e-07
-2.86143e-07
-2.46315e-06
-3.35574e-08
-8.86796e-09
-9.58476e-07
-8.58045e-08
-1.2342e-07
-6.79362e-07
-5.18783e-09
-3.15323e-07
-3.54252e-07
-1.11357e-07
-4.42272e-07
-3.52825e-07
-1.42559e-07
-5.39614e-07
-1.6022e-07
-1.65828e-07
-6.20129e-07
-4.52167e-08
-1.34013e-07
-7.13868e-07
4.14517e-08
-1.21074e-07
-7.52948e-07
-3.18007e-08
-1.64429e-07
-7.51398e-07
-9.5064e-08
-2.15898e-07
-7.0122e-07
-1.77995e-07
-2.60323e-07
-6.20296e-07
-2.18426e-07
-2.83569e-07
-5.1468e-07
-2.58598e-07
-3.01708e-07
-4.08287e-07
-2.72324e-07
-3.02403e-07
-3.10233e-07
-2.82978e-07
-2.97389e-07
-2.25625e-07
-2.86275e-07
-2.88706e-07
-1.54646e-07
-2.8211e-07
-2.7951e-07
-1.00736e-07
-2.67738e-07
-2.71571e-07
-6.41689e-08
-2.47746e-07
-2.65618e-07
-4.19901e-08
-2.24723e-07
-2.61858e-07
-3.06068e-08
-1.98504e-07
-2.60301e-07
-2.63115e-08
-1.6997e-07
-2.60371e-07
-2.58365e-08
-1.40519e-07
-2.61655e-07
-2.73536e-08
-1.10989e-07
-2.63943e-07
-3.09763e-08
-8.17841e-08
-2.67034e-07
-3.65164e-08
-5.19662e-08
-2.70552e-07
-4.32097e-08
-1.90824e-08
-2.7458e-07
-5.00779e-08
1.74862e-08
-2.79716e-07
-5.69137e-08
5.57782e-08
-2.8559e-07
-6.39265e-08
9.31012e-08
-2.90708e-07
-7.29176e-08
1.29195e-07
-2.93999e-07
-8.63428e-08
1.63616e-07
-2.95024e-07
-1.06789e-07
1.96111e-07
-2.93601e-07
-1.3765e-07
2.27575e-07
-2.88497e-07
-1.85849e-07
2.60375e-07
-2.76622e-07
-2.60245e-07
2.92631e-07
-2.54623e-07
-3.66658e-07
3.2304e-07
-2.19164e-07
-4.95159e-07
3.56392e-07
-1.69962e-07
-6.38692e-07
4.1408e-07
-1.08071e-07
-8.0969e-07
5.16583e-07
-3.63565e-08
-1.02542e-06
5.55182e-07
1.27402e-08
-1.29391e-06
3.43723e-07
9.30346e-09
-1.7465e-06
-2.83469e-07
2.94175e-08
-2.211e-06
-1.13037e-06
-6.47558e-08
-1.66072e-06
-1.94559e-06
-7.31751e-07
1.48945e-06
-3.61863e-06
-1.56967e-06
6.15385e-06
-9.46951e-06
-8.04558e-07
1.01943e-05
-1.70344e-05
-7.69629e-07
1.43106e-05
-1.73268e-05
-3.23934e-06
2.00056e-05
-1.48799e-05
-4.62789e-06
2.52074e-05
-1.25185e-05
-3.40022e-06
2.6813e-05
-7.50756e-06
-5.48168e-07
2.82201e-05
-5.20488e-07
-8.49901e-08
2.20489e-05
1.30651e-05
1.02901e-06
2.09982e-05
1.24915e-05
-6.43452e-07
-1.03752e-05
3.03777e-05
1.79317e-05
-3.00631e-05
-1.57659e-05
-6.44628e-07
-7.30182e-05
-3.25384e-05
-5.65017e-06
-2.6528e-05
-1.33706e-05
4.6172e-06
1.17822e-05
-6.59931e-06
7.93641e-06
5.91154e-06
-2.79817e-06
1.88114e-06
-2.87988e-06
-9.94034e-07
6.44734e-06
-1.08207e-05
-1.81336e-07
5.54552e-06
-1.45476e-05
-3.12706e-06
4.60076e-06
-1.45434e-05
-7.3553e-06
2.10531e-06
-1.25137e-05
-1.05888e-05
3.82825e-07
-1.03779e-05
-1.18252e-05
4.62289e-08
-9.07331e-06
-1.2788e-05
7.14302e-07
-7.20556e-06
-1.2135e-05
4.28709e-08
-4.50825e-06
-1.02506e-05
-1.48682e-06
-1.22763e-06
-7.13175e-06
-3.3108e-06
2.30532e-06
-3.0488e-06
-5.3885e-06
4.58849e-06
8.14698e-07
-5.48966e-06
5.12879e-06
4.44801e-06
-4.32226e-06
4.35482e-06
6.68358e-06
-2.77493e-06
4.39884e-06
7.4034e-06
-3.61626e-06
6.11061e-06
9.8277e-06
-7.18836e-06
9.64709e-06
1.29965e-05
-1.00115e-05
1.29453e-05
1.47759e-05
-8.51091e-06
1.44729e-05
1.6142e-05
-6.9094e-06
1.42077e-05
1.56636e-05
-5.19432e-06
1.36449e-05
1.36071e-05
-4.90715e-06
1.33421e-05
1.05716e-05
-3.91708e-06
1.34222e-05
7.77039e-06
-2.81474e-06
1.49291e-05
3.7034e-06
-2.06167e-06
1.69659e-05
1.68985e-06
-5.78524e-07
1.8247e-05
6.25618e-09
1.92632e-06
1.83217e-05
7.88332e-07
3.19497e-06
1.77953e-05
2.83118e-06
2.25055e-06
1.58823e-05
5.93818e-06
6.92268e-07
1.28601e-05
9.39277e-06
-1.13166e-06
7.72726e-06
9.77006e-06
4.88249e-07
1.62893e-06
3.37327e-06
-3.08714e-06
-4.17563e-06
-2.03022e-07
-1.96482e-06
-4.98027e-06
-7.93803e-07
-1.60915e-06
-3.2688e-06
3.76302e-08
-8.0157e-07
-3.15068e-06
-1.20065e-07
-3.38965e-07
-1.36713e-06
-5.3966e-08
-2.39101e-07
-7.61584e-07
-1.76587e-08
-3.47922e-07
-1.15099e-07
-1.30347e-07
-4.2603e-07
-1.2744e-07
-1.47291e-07
-4.5901e-07
6.07835e-08
-1.88037e-07
-4.6984e-07
1.48957e-07
-1.83358e-07
-5.08963e-07
2.79547e-07
-1.98986e-07
-5.60486e-07
2.46739e-07
-2.2703e-07
-6.17489e-07
2.17829e-07
-2.55904e-07
-6.29529e-07
1.27896e-07
-2.93867e-07
-6.0316e-07
7.44828e-08
-3.19294e-07
-5.39577e-07
2.71794e-08
-3.49376e-07
-4.5942e-07
1.52888e-08
-3.67788e-07
-3.7969e-07
1.75983e-08
-3.80323e-07
-3.06383e-07
2.74031e-08
-3.87003e-07
-2.39868e-07
4.16873e-08
-3.9033e-07
-1.81006e-07
6.33387e-08
-3.89957e-07
-1.31624e-07
8.93908e-08
-3.86538e-07
-9.33199e-08
1.18031e-07
-3.81078e-07
-6.61603e-08
1.49648e-07
-3.75331e-07
-4.95286e-08
1.83493e-07
-3.70116e-07
-4.13258e-08
2.16746e-07
-3.65488e-07
-3.9178e-08
2.48441e-07
-3.616e-07
-4.08682e-08
2.78787e-07
-3.58902e-07
-4.49078e-08
3.09865e-07
-3.57814e-07
-5.05484e-08
3.44661e-07
-3.58124e-07
-5.72116e-08
3.83129e-07
-3.59003e-07
-6.48891e-08
4.22602e-07
-3.59169e-07
-7.53538e-08
4.61526e-07
-3.57984e-07
-9.07371e-08
4.99388e-07
-3.54834e-07
-1.13851e-07
5.36092e-07
-3.49386e-07
-1.49002e-07
5.72298e-07
-3.4106e-07
-2.02862e-07
6.0982e-07
-3.28411e-07
-2.83292e-07
6.5042e-07
-3.09641e-07
-3.95501e-07
6.88836e-07
-2.84023e-07
-5.36961e-07
7.16656e-07
-2.52183e-07
-6.86478e-07
7.23439e-07
-2.17556e-07
-7.87775e-07
7.04064e-07
-1.88715e-07
-7.81396e-07
6.7639e-07
-1.66215e-07
-7.15337e-07
6.25837e-07
-1.36742e-07
-6.23576e-07
3.61837e-07
-1.09904e-07
-8.88618e-07
-4.54072e-08
2.69521e-08
-1.32894e-06
-6.7494e-07
-1.51369e-08
-7.33218e-07
-1.72041e-06
-8.20925e-07
1.93165e-06
-4.81531e-06
-1.46825e-06
4.77561e-06
-1.02917e-05
-2.02189e-06
6.11483e-06
-1.44106e-05
-3.96303e-06
9.64268e-06
-1.58678e-05
-4.98686e-06
1.45109e-05
-1.89586e-05
-7.8952e-07
1.51451e-05
-1.91545e-05
6.00169e-06
1.71882e-05
-1.45887e-05
5.03804e-06
2.42122e-05
-8.5446e-06
1.00006e-06
2.17165e-05
1.64382e-05
-8.77648e-07
2.18001e-05
1.46931e-05
-2.28517e-06
-1.02269e-06
3.44223e-05
1.80579e-05
-3.97533e-05
-1.3614e-05
-3.92481e-06
-0.00011024
-3.03211e-05
-3.79982e-06
-0.000115302
-9.30155e-06
6.27456e-06
-0.000124015
-4.41564e-06
5.54597e-06
-0.000133122
1.41848e-07
4.37339e-06
-0.000134111
-1.2112e-06
2.06206e-06
-0.000133867
-1.62145e-06
1.26305e-06
-0.0001321
-5.58151e-06
7.50866e-07
-0.000126876
-8.81286e-06
9.35204e-07
-0.000108501
-1.20714e-05
1.61178e-06
-6.19105e-05
-1.32124e-05
1.7196e-06
-2.87268e-05
-1.45268e-05
1.58012e-06
-2.68552e-05
-1.37418e-05
1.13002e-06
-2.31493e-05
-1.17207e-05
-4.75229e-07
-1.86199e-05
-7.89762e-06
-1.5784e-06
-1.24558e-05
-3.00375e-06
-4.16013e-06
-6.91562e-06
2.50265e-06
-5.08715e-06
-3.86367e-06
7.39945e-06
-3.4701e-06
-2.42193e-06
1.10202e-05
-3.1624e-06
-4.79009e-07
1.36218e-05
-5.64588e-06
3.35282e-06
1.67484e-05
-9.58303e-06
8.10328e-06
1.83232e-05
-8.75988e-06
1.18628e-05
1.92355e-05
-8.05665e-06
1.3928e-05
1.91418e-05
-6.85311e-06
1.49781e-05
1.55373e-05
-4.42752e-06
1.60056e-05
9.99192e-06
-2.39041e-06
1.64856e-05
2.72809e-06
6.52407e-07
1.75814e-05
-4.5032e-06
3.88309e-06
1.99037e-05
-1.03315e-05
6.57069e-06
2.14016e-05
-7.68692e-06
8.11452e-06
2.26254e-05
-8.56684e-06
7.36075e-06
2.30865e-05
-6.24573e-06
6.60661e-06
2.41512e-05
-3.99837e-06
5.71329e-06
2.42346e-05
6.15661e-07
5.28702e-06
2.10193e-05
9.12071e-06
3.36824e-06
1.25313e-05
1.62515e-05
2.19097e-06
1.28217e-05
2.74404e-06
-3.44847e-06
-4.07075e-06
-1.75504e-08
-2.28166e-06
-5.25442e-06
-8.92671e-07
-2.04493e-06
-3.47641e-06
-2.91325e-08
-1.22082e-06
-3.68995e-06
-2.84852e-07
-7.48672e-07
-1.93478e-06
9.54773e-08
-3.663e-07
-1.18739e-06
4.34197e-08
-2.78684e-07
-6.39937e-08
-1.38735e-07
-3.56253e-07
9.45831e-08
-1.44468e-07
-3.37434e-07
2.49451e-07
-2.07499e-07
-3.22242e-07
3.4249e-07
-2.08738e-07
-3.38422e-07
5.14262e-07
-2.18549e-07
-4.02135e-07
5.29236e-07
-2.18799e-07
-4.97859e-07
5.36632e-07
-2.23092e-07
-5.5171e-07
4.26371e-07
-2.44638e-07
-5.56011e-07
3.44239e-07
-2.65471e-07
-5.15997e-07
2.84821e-07
-2.97672e-07
-4.54409e-07
2.77333e-07
-3.23647e-07
-3.92791e-07
3.01045e-07
-3.45081e-07
-3.32791e-07
3.29581e-07
-3.62194e-07
-2.74852e-07
3.58599e-07
-3.74869e-07
-2.16959e-07
3.89252e-07
-3.83823e-07
-1.62516e-07
4.22493e-07
-3.87563e-07
-1.15856e-07
4.57926e-07
-3.86571e-07
-7.91635e-08
4.94563e-07
-3.81628e-07
-5.33427e-08
5.3145e-07
-3.73796e-07
-3.69847e-08
5.6512e-07
-3.64752e-07
-2.76093e-08
5.94613e-07
-3.55566e-07
-2.36953e-08
6.21911e-07
-3.47058e-07
-2.45055e-08
6.50122e-07
-3.39466e-07
-2.86669e-08
6.81475e-07
-3.32673e-07
-3.57343e-08
7.16151e-07
-3.25975e-07
-4.65483e-08
7.52274e-07
-3.18879e-07
-6.28211e-08
7.88696e-07
-3.10918e-07
-8.65814e-08
8.24612e-07
-3.01485e-07
-1.21506e-07
8.6122e-07
-2.90225e-07
-1.74419e-07
9.01387e-07
-2.76198e-07
-2.54448e-07
9.49169e-07
-2.59342e-07
-3.68898e-07
1.00575e-06
-2.40901e-07
-5.17254e-07
1.06028e-06
-2.23106e-07
-6.83423e-07
1.09367e-06
-2.10871e-07
-8.19453e-07
1.07391e-06
-2.14466e-07
-8.39052e-07
9.73095e-07
-2.49454e-07
-6.5844e-07
8.04629e-07
-3.08874e-07
-3.17208e-07
6.17293e-07
-3.32712e-07
5.54954e-08
3.05126e-07
-3.16016e-07
-4.1718e-08
1.59155e-07
-1.07372e-07
-5.2223e-07
-1.0474e-07
-8.97112e-08
5.12528e-08
-1.36128e-06
-9.32634e-07
-3.06342e-09
-2.98317e-06
-1.77788e-06
-1.82384e-06
-4.35338e-06
-4.11757e-06
-1.91616e-06
-9.28259e-06
-5.03574e-06
-2.21936e-06
-1.48446e-05
-7.19998e-07
-8.42505e-06
-1.79768e-05
5.2239e-06
-1.40476e-05
-1.77082e-05
4.17633e-06
-9.50144e-06
-1.81418e-05
-9.92966e-07
-2.96122e-06
-1.20208e-05
-3.064e-06
1.08566e-05
9.42661e-06
-6.80641e-06
2.04258e-05
7.61488e-06
-2.49119e-06
5.24475e-07
3.4347e-05
1.85949e-05
-4.79193e-05
-9.36638e-06
-3.67164e-06
-0.000123269
-2.49343e-05
-5.83967e-06
-0.000131395
-2.9036e-06
6.74842e-06
-0.000137519
-1.21818e-06
4.69554e-06
-0.000145171
2.19079e-06
4.91971e-06
-0.000148729
-3.10774e-07
3.23323e-06
-0.000151486
-7.55995e-07
2.59337e-06
-0.000153465
-5.1873e-06
2.1703e-06
-0.000154454
-8.05361e-06
5.60509e-07
-0.000153979
-1.13634e-05
-1.37348e-06
-0.0001524
-1.21393e-05
-3.2524e-06
-0.000150304
-1.20564e-05
-4.36162e-06
-0.000147581
-1.01833e-05
-5.49242e-06
-0.000143677
-7.68428e-06
-6.12213e-06
-0.000138737
-3.67401e-06
-6.27196e-06
-0.000133396
9.85899e-07
-5.5108e-06
-0.000127531
6.6482e-06
-5.84968e-06
-0.00012245
1.26926e-05
-7.24168e-06
-0.000118598
1.77656e-05
-9.1716e-06
-0.000113822
2.0758e-05
-1.05088e-05
-0.000107957
2.19527e-05
-1.01694e-05
-0.000103517
2.17421e-05
-7.3883e-06
-0.000101044
2.00076e-05
-3.82049e-06
-0.000100807
1.61135e-05
4.85779e-07
-0.000102699
8.68484e-06
4.51952e-06
-0.000104886
7.62271e-07
8.05372e-06
-0.000103394
-7.26724e-06
1.06804e-05
-9.03796e-05
-1.22627e-05
1.142e-05
-3.46371e-05
-1.51301e-05
1.03847e-05
7.33728e-06
-1.21867e-05
8.75614e-06
5.73869e-06
-1.00512e-05
5.90974e-06
5.849e-06
-7.59112e-06
3.5999e-06
8.00532e-06
-7.73249e-06
1.54307e-06
1.14451e-05
-3.76733e-06
9.85135e-07
1.46484e-05
5.01555e-06
8.61617e-07
9.7629e-06
2.0005e-05
1.23929e-06
2.26399e-05
1.48658e-06
-3.80838e-06
-3.68331e-06
1.70016e-07
-2.56479e-06
-5.43025e-06
-1.06776e-06
-2.33761e-06
-3.49599e-06
-2.07615e-07
-1.41566e-06
-3.93191e-06
-6.79997e-07
-9.93742e-07
-2.42339e-06
6.66827e-08
-4.32862e-07
-1.7335e-06
-1.47818e-08
-1.59976e-07
-1.71155e-07
-1.65738e-07
-2.38217e-07
2.91734e-07
-1.18921e-07
-1.8403e-07
4.21615e-07
-2.26363e-07
-1.7852e-07
5.28982e-07
-1.92014e-07
-1.87935e-07
7.30451e-07
-2.06785e-07
-2.79714e-07
8.14328e-07
-1.93325e-07
-4.0897e-07
8.54463e-07
-1.88589e-07
-4.81304e-07
7.04099e-07
-2.05406e-07
-4.84488e-07
5.83192e-07
-2.35781e-07
-4.40176e-07
5.13449e-07
-2.72951e-07
-3.83085e-07
5.22311e-07
-3.02083e-07
-3.39834e-07
5.7956e-07
-3.21779e-07
-3.05755e-07
6.34076e-07
-3.38588e-07
-2.74258e-07
6.78798e-07
-3.51708e-07
-2.3871e-07
7.1481e-07
-3.6112e-07
-1.99558e-07
7.48101e-07
-3.64773e-07
-1.61711e-07
7.82649e-07
-3.62584e-07
-1.29343e-07
8.17875e-07
-3.55693e-07
-1.06902e-07
8.54548e-07
-3.45553e-07
-9.15943e-08
8.82995e-07
-3.33196e-07
-8.14333e-08
9.0454e-07
-3.20103e-07
-7.41354e-08
9.21619e-07
-3.07019e-07
-6.96325e-08
9.40115e-07
-2.9451e-07
-6.94563e-08
9.64189e-07
-2.82904e-07
-7.53122e-08
9.93866e-07
-2.71873e-07
-8.81983e-08
1.02617e-06
-2.61025e-07
-1.09109e-07
1.05965e-06
-2.50056e-07
-1.37995e-07
1.09207e-06
-2.38589e-07
-1.77702e-07
1.12691e-06
-2.26001e-07
-2.32932e-07
1.16827e-06
-2.11666e-07
-3.10159e-07
1.22135e-06
-1.94969e-07
-4.12383e-07
1.28648e-06
-1.78522e-07
-5.28067e-07
1.34454e-06
-1.68591e-07
-6.29747e-07
1.36744e-06
-1.72098e-07
-6.75279e-07
1.31637e-06
-1.96937e-07
-5.75567e-07
1.14254e-06
-2.69171e-07
-2.54639e-07
8.58591e-07
-3.74902e-07
2.55494e-07
5.54127e-07
-4.46977e-07
5.5946e-07
4.12235e-07
-4.11085e-07
3.97223e-07
5.98469e-07
-2.77086e-07
-2.28189e-07
6.78743e-07
-1.58078e-07
1.3006e-07
-7.80699e-07
-9.38846e-07
-9.81095e-07
1.51504e-08
-1.8872e-06
-6.88131e-06
5.13461e-06
-3.58782e-06
-1.27432e-05
1.8694e-06
-5.29012e-06
-1.8763e-05
-4.35737e-06
-4.46745e-06
-2.66994e-05
-6.75824e-06
-3.28206e-06
-3.2622e-05
-8.24304e-06
-3.54254e-06
-3.73527e-05
-9.52543e-06
-3.88563e-06
-3.43282e-05
-9.95408e-06
-5.09102e-06
1.36137e-06
-1.81265e-05
-8.1365e-06
2.20059e-05
-9.6935e-06
-3.33644e-06
-2.45135e-06
4.02241e-05
1.58385e-05
-5.78546e-05
-7.02653e-06
-2.65978e-06
-0.000138714
-1.26477e-05
-2.97826e-06
-0.00014845
5.89126e-06
8.57625e-06
-0.000155604
3.85059e-06
5.62819e-06
-0.000163169
4.65145e-06
5.04398e-06
-0.000166442
1.7122e-06
2.5666e-06
-0.000168999
4.97405e-07
2.22453e-06
-0.000170804
-2.96049e-06
8.80312e-07
-0.000171688
-5.70807e-06
-7.19097e-07
-0.000171474
-8.93054e-06
-2.33368e-06
-0.000170932
-9.58334e-06
-3.66865e-06
-0.000169335
-9.65258e-06
-4.83025e-06
-0.000166688
-7.4216e-06
-6.52132e-06
-0.000162853
-4.527e-06
-8.03396e-06
-0.000158054
-3.60476e-07
-8.57364e-06
-0.000153209
4.62912e-06
-8.6843e-06
-0.00014828
1.02112e-05
-8.49504e-06
-0.000143283
1.61489e-05
-8.76602e-06
-0.000138277
2.0738e-05
-8.37734e-06
-0.000134018
2.26428e-05
-7.16113e-06
-0.000130086
2.16261e-05
-4.30189e-06
-0.000126796
1.98266e-05
-4.62316e-07
-0.000124772
1.72182e-05
3.57779e-06
-0.000123696
1.32615e-05
6.71942e-06
-0.000125226
6.75145e-06
8.7883e-06
-0.000130946
1.15706e-06
1.0007e-05
-0.000139725
-4.47508e-06
9.59418e-06
-0.000146363
-8.21502e-06
6.90055e-06
-0.000146169
-1.24793e-05
1.91614e-06
-0.000139305
-1.33136e-05
-2.00771e-06
-0.000118685
-1.03189e-05
-4.23221e-06
-5.4652e-05
-5.86564e-06
-5.00667e-06
-1.15854e-06
-3.19182e-06
-6.49818e-06
4.17349e-06
2.01677e-06
-5.4316e-06
7.11096e-06
1.12017e-05
-3.21724e-06
5.89586e-06
2.50636e-05
-5.92276e-08
2.87681e-05
1.21437e-06
-3.98053e-06
-2.86273e-06
3.30732e-07
-2.71491e-06
-5.2613e-06
-1.43457e-06
-2.52289e-06
-3.17402e-06
-5.13988e-07
-1.43354e-06
-3.8983e-06
-1.12298e-06
-8.56492e-07
-2.6779e-06
-3.22548e-07
-3.05315e-07
-1.97671e-06
-3.07978e-07
-3.58605e-08
-1.62046e-07
-2.78571e-07
-1.82378e-07
5.94985e-07
-1.56742e-07
-1.03942e-07
6.426e-07
-2.9943e-07
-1.07138e-07
7.53809e-07
-2.2164e-07
-1.07274e-07
9.52001e-07
-2.21422e-07
-1.91564e-07
1.07188e-06
-1.73269e-07
-3.04822e-07
1.12971e-06
-1.61995e-07
-3.63844e-07
9.50635e-07
-1.87522e-07
-3.6776e-07
8.23577e-07
-2.36477e-07
-3.36257e-07
7.59486e-07
-2.77548e-07
-3.00098e-07
7.89955e-07
-3.0381e-07
-2.80018e-07
8.71919e-07
-3.12446e-07
-2.73685e-07
9.45788e-07
-3.18052e-07
-2.73861e-07
1.00141e-06
-3.22448e-07
-2.72955e-07
1.04011e-06
-3.26211e-07
-2.66863e-07
1.06912e-06
-3.27115e-07
-2.56776e-07
1.09498e-06
-3.22425e-07
-2.46337e-07
1.12063e-06
-3.13199e-07
-2.41823e-07
1.14838e-06
-2.9835e-07
-2.39258e-07
1.16576e-06
-2.85338e-07
-2.35478e-07
1.17383e-06
-2.73074e-07
-2.29198e-07
1.17786e-06
-2.62529e-07
-2.21512e-07
1.18484e-06
-2.52415e-07
-2.1779e-07
1.20251e-06
-2.42044e-07
-2.22661e-07
1.23034e-06
-2.3161e-07
-2.37806e-07
1.2625e-06
-2.2119e-07
-2.63058e-07
1.29567e-06
-2.1077e-07
-2.93335e-07
1.32327e-06
-2.00918e-07
-3.27536e-07
1.3518e-06
-1.90681e-07
-3.65055e-07
1.38559e-06
-1.79805e-07
-4.05326e-07
1.42982e-06
-1.6819e-07
-4.42983e-07
1.48335e-06
-1.59211e-07
-4.59843e-07
1.52271e-06
-1.61309e-07
-4.29336e-07
1.51756e-06
-1.80626e-07
-3.26425e-07
1.43784e-06
-2.24382e-07
-9.80142e-08
1.21851e-06
-3.04373e-07
2.63094e-07
8.86682e-07
-3.8919e-07
7.01369e-07
5.60372e-07
-4.44509e-07
7.98955e-07
6.83765e-07
-3.69105e-07
2.95299e-07
1.29559e-06
-1.93449e-07
-6.00278e-07
1.6693e-06
-9.4967e-08
-1.18519e-06
3.99397e-07
-5.95163e-07
3.74727e-07
1.56763e-07
-1.70155e-06
-7.17346e-07
7.4925e-06
-1.26586e-06
-1.01856e-05
1.27035e-05
-1.36578e-06
-2.00723e-05
9.90901e-06
-4.37964e-06
-2.80486e-05
4.48204e-06
-3.26392e-06
-3.46366e-05
9.75864e-07
-2.6308e-06
-3.85938e-05
-3.36126e-06
-2.20689e-06
-3.42782e-05
-1.37383e-05
-5.31138e-07
-3.20894e-05
-2.0706e-05
3.90734e-07
-2.59985e-05
-1.60168e-05
2.32369e-07
6.37888e-09
1.12247e-05
-1.93452e-06
-6.58452e-05
-4.15067e-07
6.13676e-07
-0.000154946
6.51955e-06
3.25705e-06
-0.000162783
1.17616e-05
1.01853e-05
-0.000170642
8.0775e-06
6.85553e-06
-0.000175869
6.17002e-06
4.3769e-06
-0.000178796
2.65729e-06
2.21975e-06
-0.000181612
-7.44977e-08
2.14873e-06
-0.000183658
-2.92179e-06
1.49175e-06
-0.000185319
-6.55082e-06
7.02986e-07
-0.00018651
-9.36637e-06
3.77473e-07
-0.000186797
-1.09847e-05
-2.54894e-07
-0.000185588
-1.10096e-05
-1.20936e-06
-0.000182976
-8.87906e-06
-2.5684e-06
-0.000178882
-5.81821e-06
-4.17002e-06
-0.000173466
-1.258e-06
-5.83659e-06
-0.000167468
4.59663e-06
-7.16286e-06
-0.000161753
9.78194e-06
-7.00703e-06
-0.000156236
1.50846e-05
-6.32549e-06
-0.000150857
1.86599e-05
-4.50221e-06
-0.000146329
1.96499e-05
-1.591e-06
-0.000143301
1.79438e-05
2.35792e-06
-0.000142414
1.59501e-05
5.46439e-06
-0.000144621
1.48118e-05
7.98514e-06
-0.000151536
1.41131e-05
9.83019e-06
-0.000163368
1.13339e-05
1.0721e-05
-0.000172624
6.87684e-06
7.60247e-06
-0.000173371
-8.9371e-07
1.80624e-06
-0.000173019
-6.94231e-06
1.86654e-07
-0.000173017
-1.2246e-05
-1.04559e-06
-0.000169965
-1.42839e-05
-3.41994e-06
-0.000163383
-1.24817e-05
-4.84882e-06
-0.000154074
-6.48137e-06
-7.30002e-06
-0.00014313
-7.28325e-07
-7.75066e-06
-0.000129733
7.80495e-06
-6.45003e-06
-0.000105652
1.83887e-05
-2.12258e-06
-4.41007e-05
2.97465e-05
5.41095e-07
3.21133e-05
3.37792e-07
-3.77945e-06
-1.62887e-06
8.25222e-07
-2.80421e-06
-5.08363e-06
-1.15291e-06
-2.76965e-06
-2.73495e-06
-4.73645e-07
-1.62577e-06
-3.85297e-06
-1.18921e-06
-7.57091e-07
-2.93664e-06
-6.09948e-07
-1.50337e-07
-2.09575e-06
-4.87719e-07
4.86307e-08
2.41264e-08
-3.85148e-07
-1.00613e-07
8.50762e-07
-1.0654e-07
-5.41314e-08
1.01258e-06
-4.16471e-07
-1.36409e-07
1.10504e-06
-2.68958e-07
-1.1295e-07
1.22608e-06
-2.97542e-07
-1.18744e-07
1.33247e-06
-2.54801e-07
-1.05932e-07
1.38474e-06
-2.67853e-07
-9.63756e-08
1.25159e-06
-3.10518e-07
-1.02842e-07
1.1887e-06
-3.58663e-07
-1.40788e-07
1.19188e-06
-3.9445e-07
-1.90158e-07
1.26288e-06
-4.23561e-07
-2.38691e-07
1.36014e-06
-4.39693e-07
-2.85758e-07
1.44627e-06
-4.53419e-07
-3.33043e-07
1.51321e-06
-4.64509e-07
-3.72074e-07
1.55122e-06
-4.72081e-07
-3.9652e-07
1.57066e-06
-4.77095e-07
-4.10197e-07
1.58731e-06
-4.78654e-07
-4.15982e-07
1.60372e-06
-4.77304e-07
-4.14912e-07
1.62083e-06
-4.73517e-07
-4.11586e-07
1.6312e-06
-4.68763e-07
-4.05693e-07
1.63356e-06
-4.65624e-07
-3.96007e-07
1.6314e-06
-4.6322e-07
-3.85194e-07
1.63356e-06
-4.5953e-07
-3.81235e-07
1.65258e-06
-4.54023e-07
-3.89481e-07
1.68554e-06
-4.46942e-07
-4.0963e-07
1.72198e-06
-4.39317e-07
-4.38696e-07
1.75683e-06
-4.32085e-07
-4.68678e-07
1.78052e-06
-4.27261e-07
-4.96271e-07
1.80209e-06
-4.22687e-07
-5.16766e-07
1.82529e-06
-4.19188e-07
-5.21699e-07
1.85173e-06
-4.16968e-07
-4.96544e-07
1.87774e-06
-4.19521e-07
-4.25612e-07
1.88512e-06
-4.33317e-07
-2.80671e-07
1.84376e-06
-4.71118e-07
-3.17126e-08
1.72904e-06
-5.40128e-07
3.4595e-07
1.48516e-06
-6.44287e-07
8.00615e-07
1.18092e-06
-7.48871e-07
1.19128e-06
9.39731e-07
-7.69991e-07
1.28427e-06
1.22699e-06
-6.3618e-07
8.92588e-07
2.10002e-06
-4.12706e-07
6.19335e-08
2.79372e-06
-2.93724e-07
-7.84814e-07
2.0716e-06
-8.25419e-07
6.74129e-07
5.12871e-07
-1.81503e-06
3.87664e-06
6.13143e-06
-1.84144e-06
3.11327e-06
1.41885e-05
-7.21644e-07
-8.09063e-07
1.46047e-05
-7.73339e-07
-1.05505e-05
1.15322e-05
2.69138e-06
-2.77527e-05
1.07931e-05
7.38509e-06
-4.4426e-05
2.1799e-06
1.11322e-05
-5.43995e-05
-1.2706e-05
8.94134e-06
-6.30685e-05
-2.12137e-05
9.17658e-06
-5.18038e-05
-2.7346e-05
6.47058e-08
5.08927e-06
-2.71041e-05
-2.35738e-05
-7.21758e-05
1.01478e-05
2.82167e-06
-0.000179857
2.72515e-05
1.18525e-05
-0.000190461
1.70021e-05
1.28626e-05
-0.000198311
1.3609e-05
5.64009e-06
-0.000200837
8.15554e-06
3.34276e-07
-0.000200905
4.44723e-06
-1.93493e-06
-0.000203574
1.70353e-07
1.44568e-06
-0.000208737
-2.26545e-06
3.64181e-06
-0.000214038
-6.9373e-06
4.14745e-06
-0.000218762
-8.84208e-06
3.75003e-06
-0.000222443
-1.16417e-05
3.45847e-06
-0.000224345
-1.26981e-05
3.20981e-06
-0.000223835
-1.17913e-05
2.0093e-06
-0.000221211
-8.66385e-06
-3.01964e-07
-0.000216475
-4.83342e-06
-2.5147e-06
-0.000210526
2.49697e-07
-3.47816e-06
-0.000204621
5.59646e-06
-3.65098e-06
-0.000199322
9.95071e-06
-2.12233e-06
-0.00019663
1.33995e-05
9.90911e-07
-0.000198486
1.57628e-05
4.46694e-06
-0.000205503
1.65943e-05
7.25732e-06
-0.000215109
1.72675e-05
7.65092e-06
-0.000221663
1.66463e-05
5.75891e-06
-0.000226367
1.54461e-05
4.62039e-06
-0.000227132
1.09165e-05
2.34013e-06
-0.000224004
4.51095e-06
6.2895e-07
-0.00022144
-1.6836e-06
-1.47057e-06
-0.000220928
-5.94173e-06
-2.09121e-06
-0.000222102
-9.01457e-06
-2.45186e-06
-0.000222807
-1.07081e-05
-3.17941e-06
-0.000221566
-1.02295e-05
-4.94281e-06
-0.000215024
-6.99273e-06
-7.39085e-06
-0.000206171
-2.14656e-06
-8.49521e-06
-0.00019515
3.20474e-06
-7.80106e-06
-0.000183431
1.12067e-05
-4.15466e-06
-0.000169342
2.1051e-05
2.38016e-07
2.41632e-05
2.1166e-06
-3.16616e-06
-1.49816e-08
1.69435e-06
-2.80407e-06
-4.89377e-06
-5.5196e-07
-2.98439e-06
-2.45196e-06
-1.02678e-07
-2.00656e-06
-3.93622e-06
-8.94589e-07
-9.39046e-07
-3.38406e-06
-6.20096e-07
-6.96512e-08
-2.39109e-06
-5.74067e-07
1.08633e-07
-2.79556e-07
1.25393e-07
-6.40845e-08
6.03684e-07
4.19791e-07
-5.36507e-08
1.04068e-06
-3.85364e-08
-1.71297e-07
1.114e-06
1.08683e-07
-9.40352e-08
1.17181e-06