/*--------------------------------*- C++ -*----------------------------------*\
| =========                 |                                                 |
| \\      /  F ield         | OpenFOAM: The Open Source CFD Toolbox           |
|  \\    /   O peration     | Version:  2.3.0                                 |
|   \\  /    A nd           | Web:      www.OpenFOAM.org                      |
|    \\/     M anipulation  |                                                 |
\*---------------------------------------------------------------------------*/
FoamFile
{
    version     2.0;
    format      ascii;
    class       volScalarField;
    location    "39";
    object      rho;
}
// * * * * * * * * * * * * * * * * * * * * * * * * * * * * * * * * * * * * * //

dimensions      [1 -3 0 0 0 0 0];

internalField   nonuniform List<scalar> 
6144
(
1.16256
1.1632
1.16378
1.16443
1.16517
1.16626
1.16711
1.16789
1.16855
1.16883
1.16887
1.16888
1.16889
1.16889
1.16889
1.1689
1.1689
1.1689
1.1689
1.1689
1.1689
1.16891
1.16891
1.16891
1.16891
1.16891
1.16891
1.16891
1.16891
1.16892
1.16892
1.16892
1.16892
1.16892
1.16892
1.16892
1.16892
1.16892
1.16893
1.16893
1.16893
1.16893
1.16893
1.16899
1.16982
1.17307
1.18021
1.19227
1.21108
1.2305
1.24971
1.26976
1.27995
1.28493
1.28505
1.28434
1.28039
1.28665
1.86143
51.6696
981.156
1026.82
1027.09
1027.1
1027.1
1027.1
1027.1
1027.1
1027.1
1027.1
1027.1
1027.1
1027.1
1027.1
1027.1
1027.1
1027.1
1027.1
1027.1
1027.1
1027.1
1027.1
1027.1
1027.1
1027.1
1027.1
1027.1
1027.1
1027.1
1027.1
1027.1
1027.1
1027.1
1027.1
1027.1
1027.1
1.1623
1.16307
1.16411
1.16477
1.16574
1.16658
1.16725
1.16793
1.16855
1.16881
1.16887
1.16888
1.16889
1.1689
1.1689
1.16891
1.16891
1.16891
1.16891
1.16891
1.16891
1.16891
1.16891
1.16892
1.16892
1.16892
1.16892
1.16892
1.16892
1.16892
1.16893
1.16893
1.16893
1.16893
1.16893
1.16893
1.16893
1.16893
1.16894
1.16894
1.16894
1.16894
1.16895
1.16905
1.16972
1.17194
1.17691
1.18505
1.19565
1.21533
1.25532
1.28653
1.29468
1.29493
1.29436
1.29357
1.28815
1.29122
1.65604
41.5164
971.351
1026.7
1027.09
1027.1
1027.1
1027.1
1027.1
1027.1
1027.1
1027.1
1027.1
1027.1
1027.1
1027.1
1027.1
1027.1
1027.1
1027.1
1027.1
1027.1
1027.1
1027.1
1027.1
1027.1
1027.1
1027.1
1027.1
1027.1
1027.1
1027.1
1027.1
1027.1
1027.1
1027.1
1027.1
1027.1
1.16218
1.16274
1.16391
1.16473
1.16598
1.16671
1.16731
1.16791
1.16838
1.16866
1.16878
1.16884
1.16887
1.16889
1.1689
1.1689
1.16891
1.16891
1.16891
1.16891
1.16891
1.16891
1.16892
1.16892
1.16892
1.16892
1.16892
1.16892
1.16892
1.16892
1.16893
1.16893
1.16893
1.16893
1.16893
1.16893
1.16893
1.16893
1.16893
1.16893
1.16894
1.16894
1.16897
1.16911
1.16971
1.17125
1.17378
1.1787
1.18785
1.23086
1.28208
1.29919
1.29894
1.29802
1.29646
1.29645
1.29357
1.29615
1.70158
43.7298
971.126
1026.72
1027.09
1027.1
1027.1
1027.1
1027.1
1027.1
1027.1
1027.1
1027.1
1027.1
1027.1
1027.1
1027.1
1027.1
1027.1
1027.1
1027.1
1027.1
1027.1
1027.1
1027.1
1027.1
1027.1
1027.1
1027.1
1027.1
1027.1
1027.1
1027.1
1027.1
1027.1
1027.1
1027.1
1027.1
1.16214
1.16236
1.16354
1.16432
1.16573
1.16667
1.16724
1.1678
1.16827
1.16857
1.16872
1.16881
1.16886
1.16888
1.16889
1.1689
1.1689
1.1689
1.16891
1.16891
1.16891
1.16891
1.16891
1.16891
1.16891
1.16891
1.16892
1.16892
1.16892
1.16892
1.16892
1.16892
1.16892
1.16893
1.16893
1.16893
1.16893
1.16893
1.16893
1.16893
1.16894
1.16894
1.16898
1.16914
1.16967
1.17086
1.17274
1.17656
1.18799
1.26179
1.298
1.30141
1.30013
1.29661
1.2916
1.29388
1.29136
1.29828
1.45356
76.199
1009.08
1027.05
1027.09
1027.09
1027.09
1027.09
1027.09
1027.09
1027.09
1027.1
1027.1
1027.1
1027.1
1027.1
1027.1
1027.1
1027.1
1027.1
1027.1
1027.1
1027.1
1027.1
1027.1
1027.1
1027.1
1027.1
1027.1
1027.1
1027.1
1027.1
1027.1
1027.1
1027.1
1027.1
1027.1
1027.1
1.16213
1.16212
1.16318
1.16385
1.16512
1.1661
1.16709
1.16769
1.16816
1.16848
1.16868
1.1688
1.16886
1.16889
1.1689
1.1689
1.16891
1.16891
1.16891
1.16891
1.16891
1.16891
1.16892
1.16892
1.16892
1.16892
1.16892
1.16892
1.16892
1.16892
1.16892
1.16892
1.16893
1.16893
1.16893
1.16893
1.16893
1.16893
1.16893
1.16893
1.16894
1.16895
1.16898
1.16917
1.16977
1.17092
1.17259
1.17613
1.19625
1.28493
1.30186
1.30137
1.29517
1.28889
1.28522
1.2869
1.28811
1.30005
1.27556
116.006
1021.11
1026.76
1026.78
1026.78
1026.78
1026.79
1026.8
1026.85
1026.92
1026.98
1027.03
1027.06
1027.07
1027.08
1027.09
1027.09
1027.09
1027.09
1027.09
1027.09
1027.09
1027.08
1027.08
1027.08
1027.08
1027.09
1027.09
1027.1
1027.1
1027.1
1027.1
1027.1
1027.1
1027.1
1027.1
1027.1
1.16211
1.16203
1.16289
1.16345
1.16464
1.16549
1.16679
1.16755
1.16803
1.1684
1.16863
1.16878
1.16885
1.16888
1.16889
1.1689
1.1689
1.1689
1.1689
1.1689
1.16891
1.16891
1.16891
1.16891
1.16891
1.16891
1.16891
1.16892
1.16892
1.16892
1.16892
1.16892
1.16892
1.16892
1.16892
1.16892
1.16893
1.16893
1.16893
1.16893
1.16893
1.16894
1.169
1.16924
1.1699
1.17132
1.17334
1.1774
1.2026
1.28976
1.30204
1.29685
1.29073
1.28728
1.28449
1.28182
1.27905
1.29233
1.27556
184.638
1016.31
1023.91
1023.73
1023.68
1023.65
1023.69
1023.77
1024.03
1024.43
1024.97
1025.49
1025.94
1026.27
1026.49
1026.62
1026.68
1026.71
1026.71
1026.66
1026.59
1026.49
1026.38
1026.27
1026.19
1026.18
1026.35
1026.51
1026.74
1026.94
1027.05
1027.09
1027.1
1027.1
1027.1
1027.1
1027.1
1.16219
1.16204
1.16272
1.16314
1.16435
1.16513
1.16627
1.16736
1.16794
1.16833
1.16859
1.16877
1.16885
1.16889
1.1689
1.1689
1.1689
1.16891
1.16891
1.16891
1.16891
1.16891
1.16891
1.16891
1.16891
1.16892
1.16892
1.16892
1.16892
1.16892
1.16892
1.16892
1.16892
1.16892
1.16892
1.16893
1.16893
1.16893
1.16893
1.16893
1.16893
1.16894
1.16902
1.16925
1.16991
1.17139
1.17415
1.17971
1.18557
1.26847
1.29832
1.29325
1.28658
1.28219
1.28017
1.27929
1.27866
1.27969
1.27556
260.694
1007.45
1016.26
1015.19
1014.94
1014.83
1015.01
1015.34
1015.75
1016.5
1017.37
1018.42
1019.55
1020.66
1021.65
1022.38
1022.76
1022.97
1023.01
1022.72
1022.24
1021.46
1020.53
1019.58
1018.82
1018.46
1018.51
1019.11
1020.11
1021.89
1023.77
1025.45
1026.45
1026.91
1027.01
1027.08
1027.1
1.16227
1.1623
1.16269
1.16297
1.1642
1.16503
1.16587
1.16712
1.16785
1.1683
1.16857
1.16876
1.16885
1.16888
1.16889
1.1689
1.1689
1.16891
1.16891
1.16891
1.16891
1.16891
1.16891
1.16892
1.16892
1.16892
1.16892
1.16892
1.16892
1.16892
1.16893
1.16893
1.16893
1.16893
1.16893
1.16893
1.16893
1.16893
1.16893
1.16894
1.16894
1.16895
1.16901
1.16924
1.17002
1.17175
1.17533
1.18281
1.18975
1.23421
1.28598
1.29514
1.29282
1.28259
1.27977
1.2791
1.27904
1.2802
1.27556
236.205
996.104
1010.27
1009.14
1008.9
1008.93
1009.02
1009.12
1009.15
1009.17
1009.11
1009.1
1009.06
1009.05
1009.33
1009.81
1010.34
1010.76
1010.88
1010.16
1009.31
1008.42
1007.62
1006.89
1006.2
1005.62
1005.24
1005.88
1006.37
1006.95
1007.87
1009.57
1012.76
1017.52
1022.78
1026.05
1026.38
1.16205
1.16245
1.16281
1.1629
1.16412
1.16502
1.16571
1.16684
1.16777
1.16824
1.16853
1.16874
1.16884
1.16887
1.16889
1.1689
1.1689
1.1689
1.1689
1.1689
1.1689
1.16891
1.16891
1.16891
1.16891
1.16891
1.16892
1.16892
1.16892
1.16892
1.16892
1.16892
1.16892
1.16892
1.16893
1.16893
1.16893
1.16893
1.16893
1.16893
1.16894
1.16895
1.169
1.16925
1.17008
1.17179
1.17546
1.18339
1.19275
1.21733
1.27273
1.29689
1.29275
1.28336
1.28202
1.28352
1.28856
1.29049
1.27556
201.147
1001.86
1016.17
1016.56
1017.39
1017.78
1017.89
1017.38
1016.91
1016.25
1015.6
1014.94
1014.34
1013.75
1013.27
1012.97
1012.93
1013.55
1014.06
1014.72
1015.51
1016.49
1017.73
1019.12
1020.53
1021.58
1022.03
1021.96
1021.8
1021.6
1021.3
1021.22
1022.11
1023.3
1024.64
1025.78
1026.43
1.16182
1.16219
1.1626
1.16281
1.16399
1.16509
1.16619
1.16672
1.16767
1.16825
1.16853
1.16873
1.16883
1.16888
1.16889
1.1689
1.1689
1.16891
1.16891
1.16891
1.16891
1.16891
1.16891
1.16891
1.16892
1.16892
1.16892
1.16892
1.16892
1.16892
1.16892
1.16892
1.16893
1.16893
1.16893
1.16893
1.16893
1.16893
1.16893
1.16893
1.16894
1.16895
1.16901
1.16935
1.17045
1.17257
1.17691
1.18671
1.1981
1.21347
1.2612
1.29583
1.29201
1.28389
1.28264
1.2858
1.29479
1.30294
1.27556
127.701
1011.97
1024.44
1024.87
1025.47
1025.67
1025.78
1025.65
1025.51
1025.31
1025.11
1024.84
1024.53
1024.18
1023.9
1023.75
1023.72
1023.92
1024.34
1024.9
1025.47
1025.96
1026.36
1026.64
1026.8
1026.85
1026.83
1026.81
1026.77
1026.74
1026.71
1026.7
1026.69
1026.73
1026.8
1026.94
1027.02
1.16135
1.16182
1.16212
1.16246
1.16378
1.16506
1.16634
1.16677
1.16768
1.16829
1.16855
1.16872
1.16881
1.16886
1.16888
1.16889
1.1689
1.1689
1.1689
1.1689
1.16891
1.16891
1.16891
1.16891
1.16891
1.16892
1.16892
1.16892
1.16892
1.16892
1.16892
1.16892
1.16893
1.16893
1.16893
1.16893
1.16893
1.16893
1.16893
1.16893
1.16894
1.16895
1.16904
1.16965
1.1714
1.17463
1.18124
1.19363
1.20488
1.21655
1.24823
1.29058
1.29413
1.28529
1.28265
1.28954
1.28374
1.28487
1.27556
54.7745
1013.02
1026.95
1026.99
1027.04
1027.05
1027.06
1027.07
1027.06
1027.05
1027.05
1027.04
1027.03
1027.02
1027.02
1027.01
1027.03
1027.04
1027.05
1027.07
1027.09
1027.09
1027.1
1027.09
1027.09
1027.09
1027.09
1027.09
1027.09
1027.09
1027.09
1027.09
1027.09
1027.09
1027.1
1027.1
1027.1
1.16115
1.16155
1.16164
1.16189
1.16308
1.16454
1.16622
1.16708
1.16775
1.16838
1.16861
1.16872
1.16878
1.16883
1.16886
1.16889
1.1689
1.1689
1.1689
1.16891
1.16891
1.16891
1.16891
1.16891
1.16892
1.16892
1.16892
1.16892
1.16892
1.16892
1.16892
1.16893
1.16893
1.16893
1.16893
1.16893
1.16893
1.16894
1.16894
1.16894
1.16894
1.16896
1.1691
1.16997
1.17258
1.17757
1.18659
1.19918
1.21166
1.22573
1.24135
1.27694
1.29368
1.29095
1.28754
1.29242
1.28987
1.29376
1.27556
30.8379
1000.18
1027.09
1027.09
1027.09
1027.09
1027.1
1027.1
1027.1
1027.1
1027.1
1027.1
1027.1
1027.1
1027.1
1027.1
1027.1
1027.1
1027.1
1027.1
1027.1
1027.1
1027.1
1027.1
1027.1
1027.1
1027.1
1027.1
1027.1
1027.1
1027.1
1027.1
1027.1
1027.1
1027.1
1027.1
1027.1
1.16099
1.16143
1.16141
1.16152
1.1623
1.16369
1.16575
1.16747
1.16787
1.16844
1.16865
1.16875
1.16879
1.16884
1.16888
1.16891
1.16891
1.16891
1.16891
1.16891
1.16891
1.16891
1.16892
1.16892
1.16892
1.16892
1.16892
1.16892
1.16892
1.16893
1.16893
1.16893
1.16893
1.16893
1.16893
1.16893
1.16893
1.16894
1.16894
1.16894
1.16894
1.16896
1.16914
1.17018
1.17354
1.17995
1.18974
1.20257
1.21745
1.23111
1.24136
1.26055
1.28672
1.29267
1.29167
1.29689
1.29427
1.29603
1.27895
21.1978
993.175
1027.09
1027.09
1027.09
1027.1
1027.1
1027.1
1027.1
1027.1
1027.1
1027.1
1027.1
1027.1
1027.1
1027.1
1027.1
1027.1
1027.1
1027.1
1027.1
1027.1
1027.1
1027.1
1027.1
1027.1
1027.1
1027.1
1027.1
1027.1
1027.1
1027.1
1027.1
1027.1
1027.1
1027.1
1027.1
1.16098
1.16144
1.16141
1.1615
1.16187
1.16304
1.16501
1.16719
1.16802
1.16848
1.16865
1.16875
1.16878
1.16883
1.16887
1.16891
1.16891
1.16891
1.16891
1.16892
1.16892
1.16892
1.16892
1.16892
1.16892
1.16892
1.16893
1.16893
1.16893
1.16893
1.16893
1.16893
1.16893
1.16893
1.16893
1.16893
1.16894
1.16894
1.16894
1.16894
1.16895
1.16897
1.16915
1.17019
1.17385
1.18104
1.19041
1.20191
1.21606
1.23089
1.24216
1.25013
1.27336
1.28911
1.29058
1.29538
1.29262
1.29689
1.35597
31.3914
985.457
1027.09
1027.09
1027.09
1027.1
1027.1
1027.1
1027.1
1027.1
1027.1
1027.1
1027.1
1027.1
1027.1
1027.1
1027.1
1027.1
1027.1
1027.1
1027.1
1027.1
1027.1
1027.1
1027.1
1027.1
1027.1
1027.1
1027.1
1027.1
1027.1
1027.1
1027.1
1027.1
1027.1
1027.1
1027.1
1.16111
1.16204
1.16207
1.16215
1.16193
1.16283
1.16428
1.16667
1.16818
1.1685
1.16864
1.16872
1.16875
1.1688
1.16886
1.16891
1.16891
1.16891
1.16891
1.16891
1.16891
1.16892
1.16892
1.16892
1.16892
1.16892
1.16892
1.16892
1.16893
1.16893
1.16893
1.16893
1.16893
1.16893
1.16893
1.16893
1.16893
1.16894
1.16894
1.16894
1.16894
1.16897
1.16914
1.17026
1.17427
1.1816
1.1904
1.19987
1.21119
1.22419
1.24275
1.25296
1.26457
1.28041
1.28537
1.28988
1.2876
1.29305
1.69478
40.0176
978.371
1026.93
1027.09
1027.09
1027.1
1027.1
1027.1
1027.1
1027.1
1027.1
1027.1
1027.1
1027.1
1027.1
1027.1
1027.1
1027.1
1027.1
1027.1
1027.1
1027.1
1027.1
1027.1
1027.1
1027.1
1027.1
1027.1
1027.1
1027.1
1027.1
1027.1
1027.1
1027.1
1027.1
1027.1
1027.1
1.16076
1.16077
1.16087
1.16282
1.16287
1.16305
1.16426
1.16644
1.16827
1.16853
1.16861
1.16867
1.16872
1.16878
1.16886
1.16892
1.16892
1.16892
1.16892
1.16892
1.16892
1.16892
1.16893
1.16893
1.16893
1.16893
1.16893
1.16893
1.16893
1.16893
1.16894
1.16894
1.16894
1.16894
1.16894
1.16894
1.16894
1.16894
1.16895
1.16895
1.16895
1.16897
1.16911
1.17029
1.17495
1.183
1.19107
1.1982
1.2052
1.21455
1.24141
1.25713
1.26169
1.27143
1.27572
1.28037
1.27876
1.28869
2.26589
61.2182
964.689
1026.47
1027.09
1027.1
1027.1
1027.1
1027.1
1027.1
1027.1
1027.1
1027.1
1027.1
1027.1
1027.1
1027.1
1027.1
1027.1
1027.1
1027.1
1027.1
1027.1
1027.1
1027.1
1027.1
1027.1
1027.1
1027.1
1027.1
1027.1
1027.1
1027.1
1027.1
1027.1
1027.1
1027.1
1027.1
1.16206
1.16314
1.16383
1.16445
1.16515
1.16635
1.16734
1.16809
1.1686
1.16876
1.16881
1.16885
1.16888
1.16891
1.16892
1.16892
1.16892
1.16892
1.16892
1.16892
1.16893
1.16893
1.16893
1.16893
1.16893
1.16893
1.16893
1.16893
1.16894
1.16894
1.16894
1.16894
1.16894
1.16894
1.16895
1.16895
1.16895
1.16895
1.16895
1.16895
1.16896
1.16897
1.16898
1.16906
1.16987
1.17334
1.18055
1.19207
1.21025
1.22975
1.2484
1.26968
1.27738
1.2803
1.28112
1.28177
1.27881
1.30917
1.67024
47.0226
971.329
1026.97
1027.1
1027.1
1027.1
1027.1
1027.1
1027.1
1027.1
1027.1
1027.1
1027.1
1027.1
1027.1
1027.1
1027.1
1027.1
1027.1
1027.1
1027.1
1027.1
1027.1
1027.1
1027.1
1027.1
1027.1
1027.1
1027.1
1027.1
1027.1
1027.1
1027.1
1027.1
1027.1
1027.1
1027.1
1.16144
1.16302
1.16457
1.16523
1.16596
1.1668
1.16752
1.168
1.16832
1.16851
1.16866
1.16877
1.16885
1.16889
1.1689
1.16891
1.16892
1.16892
1.16892
1.16892
1.16892
1.16893
1.16893
1.16893
1.16893
1.16893
1.16893
1.16893
1.16893
1.16894
1.16894
1.16894
1.16894
1.16894
1.16894
1.16894
1.16894
1.16894
1.16894
1.16895
1.16896
1.16898
1.16904
1.16926
1.16988
1.17157
1.17599
1.18384
1.19515
1.21154
1.25729
1.2838
1.28488
1.28441
1.28246
1.28213
1.28343
1.3294
1.48809
71.3802
999.873
1027.07
1027.1
1027.1
1027.1
1027.1
1027.1
1027.1
1027.1
1027.1
1027.1
1027.1
1027.1
1027.1
1027.1
1027.1
1027.1
1027.1
1027.1
1027.1
1027.1
1027.1
1027.1
1027.1
1027.1
1027.1
1027.1
1027.1
1027.1
1027.1
1027.1
1027.1
1027.1
1027.1
1027.1
1027.1
1.16114
1.16237
1.16451
1.1653
1.16591
1.16642
1.1671
1.16764
1.16807
1.16836
1.16858
1.16874
1.16883
1.16888
1.1689
1.16891
1.16891
1.16892
1.16892
1.16892
1.16892
1.16892
1.16892
1.16892
1.16893
1.16893
1.16893
1.16893
1.16893
1.16893
1.16893
1.16893
1.16893
1.16894
1.16894
1.16894
1.16894
1.16894
1.16894
1.16894
1.16895
1.16897
1.16902
1.16928
1.16993
1.171
1.17348
1.17827
1.18633
1.23177
1.28768
1.29182
1.2901
1.29102
1.28877
1.28564
1.28302
1.33639
1.53584
69.1181
998.321
1027.09
1027.09
1027.09
1027.1
1027.1
1027.09
1027.09
1027.1
1027.1
1027.1
1027.1
1027.1
1027.1
1027.1
1027.1
1027.1
1027.1
1027.1
1027.1
1027.1
1027.1
1027.1
1027.1
1027.1
1027.1
1027.1
1027.1
1027.1
1027.1
1027.1
1027.1
1027.1
1027.1
1027.1
1027.1
1.16095
1.16158
1.16355
1.16447
1.1652
1.16587
1.1667
1.16738
1.16794
1.16831
1.16855
1.16873
1.16883
1.16887
1.16889
1.16891
1.16891
1.16891
1.16891
1.16892
1.16892
1.16892
1.16892
1.16892
1.16892
1.16892
1.16892
1.16893
1.16893
1.16893
1.16893
1.16893
1.16893
1.16893
1.16893
1.16893
1.16894
1.16894
1.16894
1.16894
1.16895
1.16896
1.16901
1.16928
1.17017
1.1718
1.1752
1.17969
1.18754
1.27409
1.29958
1.29538
1.29289
1.2937
1.29282
1.2924
1.28423
1.34843
1.45859
170.011
1022.42
1026.99
1027
1027.01
1027
1027.02
1027.03
1027.05
1027.07
1027.08
1027.09
1027.09
1027.1
1027.1
1027.1
1027.1
1027.1
1027.1
1027.1
1027.1
1027.1
1027.1
1027.1
1027.1
1027.1
1027.1
1027.1
1027.1
1027.1
1027.1
1027.1
1027.1
1027.1
1027.1
1027.1
1027.1
1.16083
1.16099
1.16275
1.16387
1.16468
1.16548
1.16644
1.16722
1.16786
1.16828
1.16854
1.16873
1.16883
1.16887
1.16889
1.16891
1.16891
1.16891
1.16891
1.16891
1.16892
1.16892
1.16892
1.16892
1.16892
1.16892
1.16892
1.16892
1.16893
1.16893
1.16893
1.16893
1.16893
1.16893
1.16893
1.16893
1.16893
1.16894
1.16894
1.16894
1.16895
1.16896
1.169
1.16932
1.17056
1.17327
1.17858
1.18498
1.20858
1.29628
1.3015
1.30007
1.29799
1.28991
1.28551
1.29546
1.30584
1.33845
1.30398
315.675
1022.82
1024.69
1024.68
1024.67
1024.64
1024.91
1025.15
1025.51
1025.89
1026.25
1026.53
1026.74
1026.87
1026.94
1026.99
1027.01
1027.01
1027.02
1027.02
1027.03
1027.03
1027.02
1027
1027
1027.05
1027.07
1027.09
1027.09
1027.1
1027.1
1027.1
1027.1
1027.1
1027.1
1027.1
1027.1
1.16075
1.16061
1.16197
1.1633
1.16428
1.16523
1.16631
1.16714
1.16783
1.16828
1.16854
1.16873
1.16883
1.16887
1.16889
1.16891
1.16891
1.16891
1.16891
1.16891
1.16891
1.16892
1.16892
1.16892
1.16892
1.16892
1.16892
1.16892
1.16892
1.16893
1.16893
1.16893
1.16893
1.16893
1.16893
1.16893
1.16893
1.16893
1.16894
1.16894
1.16895
1.16896
1.16901
1.16944
1.17106
1.17466
1.18132
1.19052
1.21829
1.29787
1.30345
1.30718
1.31135
1.31232
1.31205
1.31239
1.31358
1.30764
1.27556
363.325
1011.66
1016.03
1015.03
1014.68
1014.52
1014.8
1015.43
1016.27
1017.54
1018.96
1020.38
1021.66
1022.64
1023.36
1023.9
1024.3
1024.57
1024.71
1024.76
1024.77
1024.53
1024.11
1023.71
1023.53
1023.78
1024.37
1025.29
1026.1
1026.7
1027.01
1027.1
1027.1
1027.1
1027.1
1027.1
1027.1
1.16073
1.1604
1.1613
1.16254
1.16392
1.16505
1.16625
1.1671
1.16782
1.16827
1.16854
1.16873
1.16883
1.16887
1.16889
1.16891
1.16891
1.16891
1.16891
1.16891
1.16891
1.16891
1.16892
1.16892
1.16892
1.16892
1.16892
1.16892
1.16892
1.16893
1.16893
1.16893
1.16893
1.16893
1.16893
1.16893
1.16893
1.16893
1.16894
1.16894
1.16895
1.16896
1.16904
1.16956
1.17157
1.17576
1.18283
1.19405
1.20055
1.26964
1.29069
1.2912
1.29275
1.29267
1.29128
1.29023
1.28955
1.29063
1.27556
478.101
1003.47
1006.82
1005.93
1005.5
1005.31
1004.8
1004.39
1004.14
1004.08
1004.46
1005.27
1006.33
1007.48
1008.56
1009.34
1009.8
1009.94
1009.56
1008.9
1007.92
1006.92
1005.27
1002.93
1000.25
997.431
995.602
998.868
1004.62
1010.81
1017.28
1022.71
1024.96
1024.42
1023.35
1022.13
1021.04
1.16077
1.16027
1.1608
1.16177
1.16338
1.16483
1.16621
1.16709
1.16782
1.16828
1.16854
1.16874
1.16883
1.16887
1.16889
1.16891
1.16891
1.16891
1.16891
1.16891
1.16891
1.16892
1.16892
1.16892
1.16892
1.16892
1.16892
1.16892
1.16892
1.16893
1.16893
1.16893
1.16893
1.16893
1.16893
1.16893
1.16893
1.16894
1.16894
1.16894
1.16895
1.16897
1.16906
1.1697
1.17222
1.17713
1.18424
1.19508
1.20801
1.22784
1.28153
1.28532
1.28188
1.28018
1.27974
1.27974
1.28006
1.282
1.27556
302.545
995.905
1006.63
1006.46
1006.38
1005.63
1004.1
1002.81
1001.76
1000.97
999.528
997.849
995.921
993.628
991.196
988.883
986.789
984.703
982.96
981.562
980.459
977.959
974.94
971.98
968.734
965.917
963.012
958.837
952.606
945.429
937.604
926.931
912.954
896.852
873.47
817.404
619.948
1.16079
1.16021
1.16044
1.16111
1.16262
1.16444
1.16613
1.16708
1.16782
1.16829
1.16855
1.16874
1.16883
1.16887
1.16889
1.16891
1.16891
1.16891
1.16891
1.16891
1.16892
1.16892
1.16892
1.16892
1.16892
1.16892
1.16892
1.16892
1.16893
1.16893
1.16893
1.16893
1.16893
1.16893
1.16893
1.16893
1.16894
1.16894
1.16894
1.16894
1.16895
1.16897
1.16908
1.16986
1.17289
1.17851
1.18555
1.19519
1.20984
1.21954
1.26025
1.28586
1.28735
1.28204
1.28014
1.28334
1.28116
1.28171
1.27556
177.474
999.198
1016.5
1017.33
1019.06
1019.98
1021.09
1022.24
1022.8
1022.55
1022.33
1021.95
1021.53
1020.9
1020.31
1020.06
1019.92
1019.89
1019.98
1020.18
1020.38
1020.72
1020.85
1020.11
1019.13
1017.12
1014.17
1010.16
1005.18
1000.01
995.839
991.282
988.361
985.394
983.45
983.779
992.007
1.16069
1.16018
1.16023
1.16067
1.1618
1.16387
1.16604
1.1671
1.16784
1.1683
1.16856
1.16875
1.16884
1.16887
1.16889
1.16891
1.16891
1.16891
1.16891
1.16892
1.16892
1.16892
1.16892
1.16892
1.16892
1.16892
1.16893
1.16893
1.16893
1.16893
1.16893
1.16893
1.16893
1.16893
1.16893
1.16894
1.16894
1.16894
1.16894
1.16894
1.16895
1.16897
1.16909
1.16999
1.1734
1.17953
1.18686
1.19506
1.20944
1.22339
1.24458
1.28212
1.29207
1.28421
1.28014
1.28651
1.28355
1.28772
1.27556
119.742
1009.73
1024.95
1025.33
1025.98
1026.2
1026.45
1026.54
1026.56
1026.5
1026.43
1026.33
1026.23
1026.15
1026.12
1026.22
1026.34
1026.45
1026.57
1026.67
1026.75
1026.8
1026.81
1026.81
1026.73
1026.64
1026.57
1026.52
1026.5
1026.5
1026.54
1026.57
1026.54
1026.62
1026.81
1026.93
1027.05
1.16058
1.16019
1.16013
1.1604
1.16129
1.16323
1.16574
1.1671
1.16788
1.16832
1.16858
1.16876
1.16884
1.16887
1.16889
1.16891
1.16891
1.16891
1.16891
1.16892
1.16892
1.16892
1.16892
1.16892
1.16892
1.16892
1.16893
1.16893
1.16893
1.16893
1.16893
1.16893
1.16893
1.16893
1.16894
1.16894
1.16894
1.16894
1.16894
1.16894
1.16895
1.16897
1.1691
1.17011
1.17388
1.18062
1.18908
1.19847
1.21044
1.22542
1.23592
1.27209
1.29158
1.28896
1.28586
1.29038
1.28956
1.29662
1.30287
52.4535
1012.63
1026.99
1026.99
1027.05
1027.06
1027.08
1027.09
1027.09
1027.09
1027.09
1027.08
1027.08
1027.08
1027.08
1027.08
1027.09
1027.09
1027.09
1027.1
1027.1
1027.1
1027.1
1027.1
1027.1
1027.1
1027.1
1027.1
1027.1
1027.1
1027.1
1027.1
1027.1
1027.1
1027.1
1027.1
1027.1
1.16053
1.16017
1.16009
1.16022
1.1609
1.16273
1.16523
1.16711
1.16795
1.16835
1.1686
1.16878
1.16885
1.16887
1.16889
1.16891
1.16891
1.16891
1.16891
1.16892
1.16892
1.16892
1.16892
1.16892
1.16892
1.16892
1.16893
1.16893
1.16893
1.16893
1.16893
1.16893
1.16893
1.16893
1.16893
1.16894
1.16894
1.16894
1.16894
1.16894
1.16895
1.16897
1.16911
1.17024
1.17442
1.18153
1.1904
1.20009
1.2104
1.22588
1.23957
1.25205
1.28514
1.291
1.28984
1.30027
1.30781
1.30994
1.39577
24.192
1001.58
1027.09
1027.09
1027.09
1027.09
1027.1
1027.1
1027.1
1027.1
1027.1
1027.1
1027.1
1027.1
1027.1
1027.1
1027.1
1027.1
1027.1
1027.1
1027.1
1027.1
1027.1
1027.1
1027.1
1027.1
1027.1
1027.1
1027.1
1027.1
1027.1
1027.1
1027.1
1027.1
1027.1
1027.1
1027.1
1.16056
1.1603
1.16011
1.16014
1.16032
1.1615
1.16397
1.16673
1.16802
1.16839
1.16862
1.16878
1.16884
1.16886
1.16888
1.16891
1.16891
1.16891
1.16891
1.16892
1.16892
1.16892
1.16892
1.16892
1.16892
1.16892
1.16893
1.16893
1.16893
1.16893
1.16893
1.16893
1.16893
1.16893
1.16893
1.16893
1.16894
1.16894
1.16894
1.16894
1.16895
1.16897
1.16913
1.1704
1.17507
1.18287
1.1917
1.2014
1.21115
1.22346
1.23611
1.24926
1.26914
1.28029
1.29041
1.32776
1.32246
1.32131
1.51054
20.6056
992.571
1027.09
1027.09
1027.09
1027.09
1027.1
1027.1
1027.1
1027.1
1027.1
1027.1
1027.1
1027.1
1027.1
1027.1
1027.1
1027.1
1027.1
1027.1
1027.1
1027.1
1027.1
1027.1
1027.1
1027.1
1027.1
1027.1
1027.1
1027.1
1027.1
1027.1
1027.1
1027.1
1027.1
1027.1
1027.1
1.16074
1.16089
1.16047
1.16044
1.16012
1.16048
1.16205
1.1654
1.16809
1.16846
1.16864
1.16878
1.16881
1.16883
1.16887
1.1689
1.16891
1.16891
1.16891
1.16891
1.16891
1.16892
1.16892
1.16892
1.16892
1.16892
1.16892
1.16892
1.16892
1.16892
1.16893
1.16893
1.16893
1.16893
1.16893
1.16893
1.16893
1.16893
1.16893
1.16894
1.16894
1.16897
1.16914
1.1705
1.17544
1.18367
1.19241
1.20102
1.21064
1.22121
1.23351
1.24398
1.2582
1.28923
1.31234
1.33911
1.31573
1.31018
1.64274
30.3982
984.45
1027.09
1027.09
1027.09
1027.1
1027.1
1027.1
1027.1
1027.1
1027.1
1027.1
1027.1
1027.1
1027.1
1027.1
1027.1
1027.1
1027.1
1027.1
1027.1
1027.1
1027.1
1027.1
1027.1
1027.1
1027.1
1027.1
1027.1
1027.1
1027.1
1027.1
1027.1
1027.1
1027.1
1027.1
1027.1
1.16096
1.16128
1.16112
1.16107
1.16043
1.16037
1.16093
1.16367
1.16787
1.16853
1.16865
1.16873
1.16875
1.16878
1.16885
1.1689
1.16891
1.16891
1.16891
1.16891
1.16891
1.16891
1.16892
1.16892
1.16892
1.16892
1.16892
1.16892
1.16892
1.16892
1.16892
1.16892
1.16892
1.16892
1.16892
1.16893
1.16893
1.16893
1.16893
1.16893
1.16894
1.16896
1.16915
1.17054
1.17533
1.1833
1.19157
1.1992
1.20696
1.21593
1.23466
1.25037
1.26769
1.30523
1.30141
1.32272
1.28852
1.31963
1.63639
43.0372
982.857
1027.06
1027.09
1027.09
1027.1
1027.1
1027.1
1027.1
1027.1
1027.1
1027.1
1027.1
1027.1
1027.1
1027.1
1027.1
1027.1
1027.1
1027.1
1027.1
1027.1
1027.1
1027.1
1027.1
1027.1
1027.1
1027.1
1027.1
1027.1
1027.1
1027.1
1027.1
1027.1
1027.1
1027.1
1027.1
1.16065
1.16074
1.16081
1.16146
1.16059
1.1605
1.16084
1.16296
1.16756
1.16857
1.16865
1.1687
1.16872
1.16876
1.16885
1.16891
1.16891
1.16892
1.16892
1.16892
1.16892
1.16892
1.16892
1.16892
1.16892
1.16892
1.16893
1.16893
1.16893
1.16893
1.16893
1.16893
1.16893
1.16893
1.16894
1.16894
1.16894
1.16894
1.16894
1.16895
1.16895
1.16897
1.16912
1.17043
1.17539
1.18358
1.19151
1.19805
1.20363
1.21153
1.23656
1.25707
1.2624
1.27183
1.29135
1.34873
1.35447
1.34929
1.99415
54.5296
979.963
1026.82
1027.09
1027.09
1027.1
1027.1
1027.1
1027.1
1027.1
1027.1
1027.1
1027.1
1027.1
1027.1
1027.1
1027.1
1027.1
1027.1
1027.1
1027.1
1027.1
1027.1
1027.1
1027.1
1027.1
1027.1
1027.1
1027.1
1027.1
1027.1
1027.1
1027.1
1027.1
1027.1
1027.1
1027.1
1.16156
1.16242
1.16359
1.16442
1.16517
1.16631
1.16734
1.16822
1.16864
1.16877
1.16882
1.16886
1.16888
1.1689
1.16891
1.16891
1.16891
1.16891
1.16892
1.16892
1.16892
1.16892
1.16892
1.16892
1.16892
1.16892
1.16893
1.16893
1.16893
1.16893
1.16893
1.16893
1.16893
1.16894
1.16894
1.16894
1.16894
1.16894
1.16894
1.16894
1.16895
1.16895
1.16897
1.16908
1.17017
1.17416
1.1813
1.19169
1.20769
1.22882
1.24383
1.26132
1.26931
1.27334
1.27489
1.2774
1.27554
1.2957
1.69893
47.5875
977.258
1026.87
1027.1
1027.1
1027.1
1027.1
1027.1
1027.1
1027.1
1027.1
1027.1
1027.1
1027.1
1027.1
1027.1
1027.1
1027.1
1027.1
1027.1
1027.1
1027.1
1027.1
1027.1
1027.1
1027.1
1027.1
1027.1
1027.1
1027.1
1027.1
1027.1
1027.1
1027.1
1027.1
1027.1
1027.1
1.16076
1.1613
1.16432
1.16497
1.16558
1.16661
1.16763
1.16826
1.16852
1.16865
1.16873
1.16881
1.16886
1.16889
1.1689
1.16891
1.16891
1.16891
1.16891
1.16892
1.16892
1.16892
1.16892
1.16892
1.16892
1.16893
1.16893
1.16893
1.16893
1.16893
1.16893
1.16893
1.16893
1.16893
1.16894
1.16894
1.16894
1.16894
1.16894
1.16894
1.16895
1.16896
1.169
1.16917
1.1701
1.17368
1.18087
1.19057
1.20287
1.21734
1.23915
1.25883
1.26867
1.2783
1.27683
1.27679
1.2746
1.301
1.46205
71.7261
1005.7
1027.06
1027.1
1027.1
1027.1
1027.1
1027.1
1027.1
1027.1
1027.1
1027.1
1027.1
1027.1
1027.1
1027.1
1027.1
1027.1
1027.1
1027.1
1027.1
1027.1
1027.1
1027.1
1027.1
1027.1
1027.1
1027.1
1027.1
1027.1
1027.1
1027.1
1027.1
1027.1
1027.1
1027.1
1027.1
1.16059
1.16083
1.16437
1.16537
1.16593
1.16672
1.16759
1.16811
1.16835
1.16851
1.16866
1.16878
1.16885
1.16888
1.16889
1.1689
1.1689
1.1689
1.16891
1.16891
1.16891
1.16891
1.16891
1.16892
1.16892
1.16892
1.16892
1.16892
1.16892
1.16892
1.16892
1.16892
1.16892
1.16892
1.16893
1.16893
1.16893
1.16893
1.16893
1.16893
1.16894
1.16896
1.16902
1.16924
1.1701
1.17272
1.17788
1.18599
1.19815
1.21072
1.26709
1.27964
1.28807
1.28989
1.28616
1.28217
1.27373
1.30643
1.41125
82.2031
1007.5
1027.09
1027.1
1027.1
1027.1
1027.1
1027.1
1027.1
1027.1
1027.1
1027.1
1027.1
1027.1
1027.1
1027.1
1027.1
1027.1
1027.1
1027.1
1027.1
1027.1
1027.1
1027.1
1027.1
1027.1
1027.1
1027.1
1027.1
1027.1
1027.1
1027.1
1027.1
1027.1
1027.1
1027.1
1027.1
1.16051
1.16067
1.16386
1.16531
1.16591
1.16668
1.16744
1.1679
1.16822
1.16845
1.16864
1.16877
1.16885
1.16888
1.16889
1.1689
1.1689
1.16891
1.16891
1.16891
1.16891
1.16891
1.16891
1.16891
1.16891
1.16891
1.16891
1.16892
1.16892
1.16892
1.16892
1.16892
1.16892
1.16892
1.16892
1.16892
1.16893
1.16893
1.16893
1.16893
1.16895
1.16896
1.16903
1.16928
1.17017
1.17226
1.17613
1.18089
1.18934
1.24386
1.2907
1.29043
1.29142
1.28672
1.28838
1.28742
1.27489
1.31744
1.38862
140.144
1021.35
1027.06
1027.06
1027.06
1027.06
1027.06
1027.06
1027.06
1027.06
1027.08
1027.09
1027.09
1027.09
1027.1
1027.1
1027.09
1027.09
1027.1
1027.1
1027.1
1027.1
1027.1
1027.1
1027.1
1027.1
1027.1
1027.1
1027.1
1027.1
1027.1
1027.1
1027.1
1027.1
1027.1
1027.1
1027.1
1.1605
1.16064
1.16243
1.16526
1.16583
1.16659
1.16726
1.16774
1.16815
1.16842
1.16862
1.16877
1.16884
1.16888
1.16889
1.1689
1.1689
1.1689
1.16891
1.16891
1.16891
1.16891
1.16891
1.16891
1.16891
1.16891
1.16892
1.16892
1.16892
1.16892
1.16892
1.16892
1.16892
1.16892
1.16892
1.16892
1.16892
1.16893
1.16893
1.16893
1.16896
1.169
1.1691
1.1694
1.17016
1.17181
1.17517
1.1802
1.18842
1.28229
1.29768
1.29559
1.29038
1.28568
1.2857
1.28899
1.29445
1.3451
1.42108
249.217
1024.47
1025.99
1025.97
1025.94
1025.92
1025.89
1025.86
1025.85
1025.93
1026.07
1026.25
1026.47
1026.66
1026.78
1026.85
1026.88
1026.88
1026.88
1026.9
1026.92
1026.93
1026.96
1026.99
1027.01
1027.04
1027.06
1027.08
1027.1
1027.1
1027.1
1027.1
1027.1
1027.1
1027.1
1027.1
1027.1
1.16055
1.16054
1.1619
1.16478
1.16575
1.16651
1.16709
1.16762
1.16809
1.1684
1.16861
1.16875
1.16883
1.16887
1.16889
1.16889
1.1689
1.1689
1.1689
1.16891
1.16891
1.16891
1.16891
1.16891
1.16891
1.16891
1.16892
1.16892
1.16892
1.16892
1.16892
1.16892
1.16892
1.16892
1.16892
1.16892
1.16893
1.16893
1.16893
1.16893
1.16896
1.16901
1.16913
1.16946
1.17012
1.17135
1.17476
1.18222
1.19586
1.28862
1.30098
1.30625
1.31233
1.31496
1.3213
1.33764
1.36549
1.39414
1.40575
296.696
1019.19
1022.57
1022.73
1022.9
1022.98
1022.92
1022.84
1022.79
1022.68
1022.56
1022.46
1022.4
1022.44
1022.46
1022.45
1022.44
1022.4
1022.35
1022.34
1022.63
1023.12
1023.85
1024.62
1025.34
1026.06
1026.62
1026.94
1027.07
1027.09
1027.09
1027.09
1027.1
1027.1
1027.1
1027.1
1027.1
1.1605
1.16035
1.16151
1.16371
1.16549
1.16646
1.16716
1.16763
1.16808
1.16835
1.16855
1.16871
1.16881
1.16887
1.16889
1.16889
1.16889
1.1689
1.1689
1.1689
1.16891
1.16891
1.16891
1.16892
1.16892
1.16892
1.16892
1.16892
1.16892
1.16892
1.16892
1.16893
1.16893
1.16893
1.16893
1.16893
1.16893
1.16893
1.16893
1.16893
1.16894
1.16896
1.16902
1.16927
1.16991
1.17174
1.1761
1.18647
1.19044
1.24278
1.28112
1.29378
1.30551
1.31205
1.31526
1.31856
1.32364
1.3299
1.30829
341.923
1014.71
1019.96
1020.99
1021.66
1021.74
1021.47
1021.35
1021.15
1020.95
1020.9
1020.9
1020.68
1020.32
1019.73
1018.79
1017.77
1016.84
1016.03
1015.43
1015.13
1015.12
1016.26
1017.86
1020.51
1023.63
1026.33
1027.07
1027.06
1027.04
1027
1026.96
1026.93
1026.91
1026.91
1027.01
1027.05
1.16047
1.16029
1.16105
1.16237
1.1648
1.16609
1.16696
1.1674
1.16794
1.16809
1.16842
1.16868
1.16879
1.16886
1.16888
1.16889
1.16889
1.1689
1.1689
1.1689
1.1689
1.1689
1.16891
1.16891
1.16891