/*--------------------------------*- C++ -*----------------------------------*\
| =========                 |                                                 |
| \\      /  F ield         | OpenFOAM: The Open Source CFD Toolbox           |
|  \\    /   O peration     | Version:  2.3.0                                 |
|   \\  /    A nd           | Web:      www.OpenFOAM.org                      |
|    \\/     M anipulation  |                                                 |
\*---------------------------------------------------------------------------*/
FoamFile
{
    version     2.0;
    format      ascii;
    class       volVectorField;
    location    "39";
    object      U;
}
// * * * * * * * * * * * * * * * * * * * * * * * * * * * * * * * * * * * * * //

dimensions      [0 1 -1 0 0 0 0];

internalField   nonuniform List<vector> 
6144
(
(0.0107145 0.0188807 0.00113684)
(0.0112228 -0.0069242 -0.000326448)
(0.00410178 -0.00822355 -0.00217686)
(0.00331814 -0.00761461 -0.00245318)
(0.00215875 -0.00583304 -0.00246176)
(0.00282315 -0.00246226 -0.00243442)
(0.00287163 -0.00108901 -0.00195667)
(0.00261196 0.000130861 -0.00126069)
(0.00184821 0.000566421 -0.00074774)
(0.00129852 0.00270114 4.35167e-05)
(0.000995625 0.00430405 0.000765763)
(0.00106572 0.00514185 0.00145522)
(0.00128501 0.00494396 0.0019207)
(0.00145601 0.00406371 0.00222961)
(0.00159609 0.0029324 0.00204026)
(0.00173369 0.00187428 0.00176922)
(0.00183285 0.000935195 0.00137446)
(0.00193019 0.000245341 0.001031)
(0.00201217 -0.000264321 0.000695935)
(0.00207373 -0.000513876 0.000401857)
(0.00212226 -0.000617557 0.000198359)
(0.00214691 -0.000601944 8.98717e-05)
(0.00214947 -0.000527175 5.14497e-05)
(0.00213116 -0.000418495 6.59336e-05)
(0.00209596 -0.000298063 0.0001265)
(0.00204915 -0.000185447 0.000224437)
(0.00199162 -9.66434e-05 0.000373247)
(0.00193136 -3.55675e-05 0.000538302)
(0.00187684 -1.30884e-05 0.000684532)
(0.00182268 -2.74216e-05 0.000810456)
(0.00177033 -5.16139e-05 0.000911326)
(0.00172083 -6.89513e-05 0.000994638)
(0.00167508 -6.81117e-05 0.00106974)
(0.00163172 -5.91505e-05 0.0011396)
(0.00158934 -1.70946e-05 0.00121184)
(0.00154254 1.40325e-05 0.00128621)
(0.00149827 0.000118468 0.0013959)
(0.00144143 7.01781e-05 0.0014973)
(0.00139754 0.000286619 0.0016727)
(0.00131913 -6.03148e-05 0.0017671)
(0.00128566 0.000446403 0.0020071)
(0.00115986 -0.00044001 0.00205935)
(0.00116921 0.000505797 0.00229444)
(0.00101029 -0.00114958 0.00230888)
(0.00100651 0.000742167 0.00219212)
(0.00089143 -0.00143859 0.00193093)
(0.000769364 0.00245438 0.00116075)
(0.00102482 0.000662347 0.000999926)
(0.000606751 0.00659964 0.000237059)
(0.00202879 0.00295879 -0.000345165)
(0.00305857 0.011926 -0.00123914)
(0.0081214 -0.00175193 -0.00268317)
(0.0123803 0.00710946 -0.00743159)
(0.00732683 -0.0118536 -0.00825447)
(0.00193727 0.0166118 -0.0110129)
(0.00972539 0.00056075 -0.0116293)
(0.0324412 0.0794768 0.0113588)
(0.00163267 -0.0859948 0.00243704)
(-0.0661764 0.117288 -0.1296)
(-0.0285796 -0.0146505 -0.104604)
(0.0615284 -0.201686 0.00651383)
(0.0439102 -0.0229338 -0.00469002)
(0.0208598 -0.119705 -0.0211046)
(0.0202984 -0.103956 -0.0129823)
(0.0105251 -0.098873 -0.00775758)
(0.00179967 -0.0925244 -0.00562818)
(-0.000673209 -0.0755448 -0.00482664)
(-0.00537668 -0.0565613 -0.00593614)
(-0.0106662 -0.0277109 -0.0036688)
(-0.00670814 0.000757896 -0.0090812)
(-0.00261604 0.0211529 -0.00975924)
(0.00221608 0.0367583 -0.00814429)
(0.00505258 0.0463274 -0.00654902)
(0.0072378 0.04994 -0.00518466)
(0.00923265 0.0493381 -0.00427022)
(0.00910419 0.0458378 -0.00471549)
(0.00935351 0.0445855 -0.00571158)
(0.00980683 0.0424992 -0.0052612)
(0.0102911 0.0405714 -0.00556878)
(0.0109589 0.0376667 -0.00570812)
(0.0121307 0.0339778 -0.00605202)
(0.0133466 0.0288884 -0.00652096)
(0.0151364 0.0224592 -0.00699421)
(0.0174723 0.0140871 -0.00728684)
(0.0201869 0.00358569 -0.00646696)
(0.0215801 -0.00891309 -0.00652823)
(0.0215284 -0.0207637 -0.00702095)
(0.019792 -0.0309682 -0.00710064)
(0.0181796 -0.0378477 -0.00611655)
(0.0154906 -0.0427141 -0.00509246)
(0.012674 -0.0444869 -0.00471272)
(0.00899735 -0.0435605 -0.00420479)
(0.00558271 -0.0383015 -0.00337695)
(0.00398991 -0.0317186 -0.00254593)
(-0.000574036 -0.0197156 -0.00258366)
(-0.00547601 -0.00809486 -0.000710321)
(0.0211189 0.017679 0.0036141)
(0.0225133 0.00132314 0.00312813)
(0.0103366 -0.00256387 -0.000883183)
(0.00955092 -0.00331982 -0.00119897)
(0.00564261 -0.00503597 -0.000901169)
(0.00554471 -0.00286446 -4.83687e-05)
(0.00411202 -0.00216297 0.00148153)
(0.00340644 -0.000202828 0.00228602)
(0.00178688 0.000921991 0.00220016)
(0.00102027 0.00408424 0.00236863)
(0.00115485 0.00580204 0.00290691)
(0.00178491 0.00658789 0.00371815)
(0.0024617 0.00619913 0.00424418)
(0.00292643 0.00536217 0.00451563)
(0.00315254 0.00410894 0.00448855)
(0.00333283 0.00294015 0.0043846)
(0.00340352 0.00185598 0.00422746)
(0.00350062 0.00103651 0.00410343)
(0.00355908 0.000368891 0.00399781)
(0.00360483 -3.25437e-05 0.00389249)
(0.00365704 -0.000260679 0.00376832)
(0.00366589 -0.000349208 0.00371265)
(0.00363499 -0.000353018 0.003717)
(0.00356795 -0.000303476 0.00376973)
(0.0034723 -0.000225901 0.00386145)
(0.00335733 -0.00014352 0.00398304)
(0.0032291 -7.1731e-05 0.00412422)
(0.00310341 -1.8438e-05 0.00425487)
(0.0030043 3.45984e-06 0.00433643)
(0.00290817 -3.1831e-06 0.00441009)
(0.00280799 -5.27969e-06 0.00447705)
(0.00270876 2.6684e-06 0.00454192)
(0.00261603 2.39085e-05 0.00460593)
(0.0025237 4.27714e-05 0.00466803)
(0.00242928 8.42244e-05 0.00473048)
(0.00232564 0.000100705 0.00479221)
(0.00224741 0.000187014 0.0048661)
(0.00213271 0.00011585 0.00492319)
(0.00210399 0.00032811 0.00503183)
(0.00192484 -5.51118e-05 0.00506249)
(0.0019923 0.00045328 0.00522516)
(0.00169366 -0.000538778 0.00517862)
(0.00194114 0.00050387 0.00535144)
(0.00150605 -0.0013353 0.00522058)
(0.00172776 0.000983644 0.00529896)
(0.000844367 -0.00163575 0.00502853)
(0.00076395 0.00315666 0.00455456)
(0.000479878 0.000116115 0.00442732)
(0.000508416 0.00706237 0.00397169)
(0.00276236 -0.00180518 0.00403401)
(0.00667622 0.0100251 0.00337545)
(0.0151268 -0.0114585 0.00163359)
(0.0183961 0.0120482 -0.00436121)
(0.0121361 0.000794065 0.000315518)
(0.0173604 0.0258923 0.00804037)
(0.0160691 -0.0435008 0.00810384)
(0.00635295 0.0180956 -0.00957629)
(-0.00244174 -0.000182818 -0.0430812)
(0.0526464 0.197906 -0.0486608)
(0.112231 -0.00273377 -0.0679292)
(0.109374 -0.193205 0.0468001)
(0.0640045 -0.0145076 0.0220014)
(0.0336182 -0.104805 -0.0164347)
(0.0215206 -0.0667536 0.0103251)
(-0.00316259 -0.0719102 0.0129685)
(-0.0166876 -0.0692129 0.00770052)
(-0.0208764 -0.0538348 0.0024983)
(-0.0206878 -0.0375983 -0.000827642)
(-0.021756 -0.0096169 -0.00260776)
(-0.020052 0.0208999 -0.00931847)
(-0.00949185 0.0354327 -0.00551872)
(-0.00055305 0.0496618 -0.00220535)
(0.00534398 0.0590695 0.00104535)
(0.00911854 0.0626142 0.00317612)
(0.011865 0.061665 0.0049613)
(0.0128706 0.0592053 0.00435732)
(0.0129346 0.0580706 0.00394231)
(0.0141608 0.0569815 0.00462662)
(0.0150144 0.0548063 0.00533979)
(0.0159366 0.0514979 0.00630946)
(0.0172439 0.0472305 0.00686342)
(0.0190244 0.0418213 0.00655662)
(0.0221223 0.035342 0.00550849)
(0.0266356 0.0269433 0.00378412)
(0.0314482 0.0152112 0.00183375)
(0.0333113 0.00133358 0.00109934)
(0.0328458 -0.0121221 0.00036674)
(0.0290632 -0.024342 0.00107426)
(0.0241837 -0.0330426 0.00211387)
(0.0186888 -0.0393843 0.00262461)
(0.0140252 -0.0418504 0.00220448)
(0.0088741 -0.0411516 0.00133934)
(0.00301372 -0.0350662 -0.000387749)
(-0.00321313 -0.0263033 -0.00105758)
(-0.00946266 -0.012581 -0.000828181)
(-0.0144378 -0.00415625 0.00165986)
(0.0251019 0.0184112 0.00467122)
(0.0261903 0.00735015 0.00447771)
(0.0154529 0.00284749 0.00171407)
(0.0132894 0.00240155 0.0019881)
(0.00695583 -0.00149418 0.00301284)
(0.00506705 0.000106058 0.00308425)
(0.00195912 -0.00111052 0.00396316)
(0.000815631 0.000506206 0.00402322)
(-0.00109709 0.000822259 0.00367577)
(-0.00150859 0.00367511 0.00362974)
(-0.000765542 0.00502131 0.00391153)
(0.000489812 0.00586494 0.00449263)
(0.00133506 0.00571288 0.00493923)
(0.00195961 0.005415 0.00520794)
(0.00233249 0.00460231 0.005192)
(0.00256441 0.00376578 0.00509407)
(0.00264287 0.00286675 0.00496626)
(0.00275421 0.00214644 0.00488347)
(0.00279358 0.00149454 0.0048322)
(0.00276944 0.000986756 0.00482308)
(0.00270534 0.000600048 0.00484084)
(0.00262175 0.000351219 0.00487948)
(0.00252198 0.000194391 0.00492843)
(0.00240502 0.000112701 0.00498869)
(0.00227478 7.80211e-05 0.00505558)
(0.00213758 7.2402e-05 0.00512395)
(0.00199846 7.85071e-05 0.00519299)
(0.00185802 8.35197e-05 0.00526065)
(0.00171261 9.17715e-05 0.00532739)
(0.00155936 0.000116323 0.0053902)
(0.0013968 0.000160726 0.00545185)
(0.0012424 0.000210973 0.00551484)
(0.00110531 0.000259949 0.00557902)
(0.000973127 0.000289783 0.0056428)
(0.000849814 0.00032669 0.00570955)
(0.000718616 0.000337567 0.00577248)
(0.000608575 0.00039661 0.00583635)
(0.000455947 0.000335704 0.0058868)
(0.000412585 0.000500438 0.00597201)
(0.000189222 0.000192623 0.00598703)
(0.000294337 0.000649984 0.00611649)
(-9.83345e-05 -0.000130749 0.00604504)
(0.000232548 0.00100969 0.00619902)
(-0.000455782 -0.000315471 0.00601439)
(-0.000152261 0.00219925 0.00606715)
(-0.00132632 0.000229665 0.00581651)
(-0.00141694 0.00451913 0.00546448)
(-0.00137469 0.000743859 0.00572084)
(-0.000495314 0.00607338 0.00589238)
(0.00136836 -0.00463788 0.00626548)
(0.00947322 0.0041434 0.00634049)
(0.0134403 -0.0110019 0.00304584)
(0.0154113 0.0208335 -0.00102923)
(0.010631 -0.00768205 0.00623653)
(0.0321068 0.00150674 0.0113992)
(0.0336969 -0.051111 0.0101276)
(-0.0166211 0.0126737 0.00836765)
(-0.0525328 -0.0691858 -0.0336738)
(-0.0109323 0.189296 -0.0799156)
(0.123743 -0.00848818 -0.0350507)
(0.139001 -0.192554 0.0574608)
(0.0867728 0.00900777 0.0309906)
(0.0450956 -0.0953371 -0.00716229)
(0.0214729 -0.0411222 0.0164644)
(-0.0103057 -0.0562383 0.0169685)
(-0.0238333 -0.0457086 0.0123637)
(-0.0300068 -0.0356904 0.00813104)
(-0.0372532 -0.0174033 0.00215396)
(-0.0422089 0.0146911 -0.00852827)
(-0.0275673 0.0332616 -0.00910488)
(-0.0140293 0.0447044 -0.00285297)
(-0.00447398 0.0565559 0.00231052)
(0.00165836 0.0652243 0.00665656)
(0.0050305 0.0683984 0.00960794)
(0.00734314 0.0677266 0.0117084)
(0.00861214 0.0666826 0.0115791)
(0.00885629 0.0664402 0.0110939)
(0.00972208 0.066076 0.0117181)
(0.0103307 0.0641467 0.0131107)
(0.0105942 0.0608016 0.0143665)
(0.0111878 0.0566218 0.0150091)
(0.0126278 0.0514889 0.0139233)
(0.016419 0.0454422 0.0109597)
(0.0236113 0.0378784 0.0060274)
(0.0332783 0.0280016 0.0013975)
(0.0370481 0.0140236 0.000635075)
(0.0370324 -0.000614142 0.000882996)
(0.0306714 -0.0163118 0.00405421)
(0.0236647 -0.0297377 0.00571638)
(0.016481 -0.0386432 0.00749182)
(0.00877023 -0.0443309 0.0103847)
(0.00164868 -0.0472943 0.0107518)
(-0.0045041 -0.0428574 0.00837448)
(-0.00910136 -0.0343467 0.00403309)
(-0.0151344 -0.0172604 -0.000565973)
(-0.023554 -0.0048298 0.00278724)
(0.026855 0.020678 0.00469421)
(0.0282785 0.0125118 0.00439934)
(0.0177235 0.00794474 0.000554403)
(0.0152913 0.00778312 0.00118158)
(0.00794195 0.00256262 0.00283337)
(0.0053346 0.00287742 0.00333256)
(0.0013467 -3.64847e-05 0.00458838)
(-0.000498473 0.00086861 0.00447458)
(-0.00306344 -2.20407e-05 0.00424678)
(-0.0035527 0.0022823 0.00393188)
(-0.00246258 0.00328113 0.00417243)
(-0.00100037 0.00442587 0.00477585)
(-6.50274e-05 0.00479566 0.00519507)
(0.000639271 0.00500736 0.00548135)
(0.00107953 0.00460748 0.00546731)
(0.00134897 0.00405888 0.00539022)
(0.00139659 0.00329537 0.00529215)
(0.00145378 0.00265788 0.00524334)
(0.00145664 0.00205836 0.00520906)
(0.00140907 0.00156115 0.00519642)
(0.00130325 0.00112328 0.00518992)
(0.00117012 0.000783021 0.00520425)
(0.0010195 0.000521619 0.00523247)
(0.000856807 0.000339446 0.00527435)
(0.000691184 0.000221966 0.0053255)
(0.000531082 0.000159521 0.00538102)
(0.000380506 0.000137761 0.00543597)
(0.000238106 0.00014452 0.00548476)
(9.72083e-05 0.000170045 0.00552511)
(-5.42703e-05 0.000209568 0.00556392)
(-0.000205905 0.000258879 0.00560844)
(-0.00034123 0.000308062 0.00565967)
(-0.000459777 0.000360922 0.00571369)
(-0.000575671 0.000409655 0.00576562)
(-0.000686485 0.000466195 0.00581035)
(-0.000799921 0.000489833 0.00584759)
(-0.000891601 0.000546467 0.00588252)
(-0.00101021 0.000496218 0.00590565)
(-0.00102992 0.000621522 0.00595775)
(-0.0012137 0.000377965 0.00595315)
(-0.00110966 0.000819519 0.00605012)
(-0.00150949 0.000287129 0.00595844)
(-0.00126841 0.00150302 0.0060157)
(-0.0019749 0.000643595 0.00583868)
(-0.00187699 0.0030588 0.00571387)
(-0.00272309 0.00124718 0.00559053)
(-0.0027043 0.00484547 0.005079)
(-0.00209477 0.000133421 0.00522199)
(-0.000197838 0.00529495 0.00567409)
(0.00138936 -0.00515436 0.00631345)
(0.00791408 0.000425878 0.00578983)
(0.00733721 -0.00891353 0.000797002)
(0.0236082 0.0127017 0.00902423)
(0.0313661 -0.0284644 0.018773)
(0.0313812 -0.0185556 0.0118376)
(0.0170807 -0.0712087 0.0111371)
(-0.0248356 0.0146998 0.0132159)
(-0.0775318 -0.107963 -0.01595)
(0.0358872 0.224173 -0.125205)
(0.145939 -0.032033 -0.00676271)
(0.159308 -0.198917 0.060016)
(0.0879141 0.0490402 0.0202361)
(0.0464013 -0.0913857 -0.0127954)
(0.0169209 0.00240339 0.00541965)
(-0.0294046 -0.032745 0.00885194)
(-0.0339428 -0.00913436 0.00889446)
(-0.0494453 -0.00496997 0.00274406)
(-0.0552953 0.0193778 -0.00808553)
(-0.0441991 0.038059 -0.0116887)
(-0.0279804 0.0450258 -0.00637527)
(-0.0176677 0.0560463 0.000322113)
(-0.010319 0.0656129 0.00625825)
(-0.00620303 0.072975 0.010526)
(-0.00444494 0.0759594 0.0135992)
(-0.00333732 0.0759317 0.0158401)
(-0.00183164 0.0755555 0.0160418)
(-0.00122937 0.0751158 0.015265)
(-1.60113e-05 0.0738842 0.0161459)
(0.000527257 0.0709294 0.017011)
(0.000606465 0.0665755 0.0177838)
(0.00104102 0.0611819 0.0168376)
(0.00315588 0.0549521 0.013373)
(0.00956031 0.0485081 0.00825335)
(0.0217301 0.0413979 0.00147312)
(0.0381644 0.0345278 -0.00634732)
(0.0495153 0.0286019 -0.0111416)
(0.0497461 0.0153309 -0.0114176)
(0.0388329 -0.000986463 -0.00943676)
(0.0246285 -0.0173844 -0.00524221)
(0.0103481 -0.0327619 0.00176537)
(-0.0017366 -0.0428956 0.0080632)
(-0.0139091 -0.0497006 0.0143516)
(-0.0235805 -0.0484351 0.0151421)
(-0.0288958 -0.0413449 0.00963778)
(-0.0323091 -0.0242714 0.00294113)
(-0.0338288 -0.00512896 0.000308624)
(0.0282372 0.0234942 0.00464764)
(0.0299286 0.0178259 0.00375273)
(0.0204509 0.0133655 -2.95009e-06)
(0.0199251 0.0130366 -0.000484493)
(0.0110196 0.00578322 -0.000482815)
(0.00756018 0.00461088 0.000712861)
(0.00128209 -0.000255108 0.00305684)
(-0.00106014 0.00109563 0.00344345)
(-0.00423717 -0.00100397 0.00399719)
(-0.00533014 0.00106665 0.00390933)
(-0.00454095 0.00187249 0.00414222)
(-0.00329514 0.00334664 0.00477998)
(-0.00241686 0.00403004 0.00511531)
(-0.00152575 0.00454034 0.00544699)
(-0.000934523 0.00439736 0.00541048)
(-0.000634263 0.00399283 0.0053497)
(-0.000679848 0.00334491 0.00526531)
(-0.000782235 0.00279396 0.00524334)
(-0.000921815 0.0022688 0.00521153)
(-0.00105934 0.0018104 0.00517846)
(-0.00122013 0.0013704 0.00513829)
(-0.00138126 0.000993337 0.00511117)
(-0.00154063 0.000678033 0.00509986)
(-0.00170487 0.00043875 0.00510199)
(-0.00187486 0.000269152 0.00511161)
(-0.00203326 0.000165916 0.00512648)
(-0.00217203 0.000115643 0.00514466)
(-0.00229129 0.000104258 0.00515998)
(-0.00240586 0.000119371 0.00516608)
(-0.00252836 0.000156668 0.00516659)
(-0.00265434 0.000209438 0.00517329)
(-0.00277014 0.000263406 0.00518249)
(-0.00287178 0.000321749 0.00519342)
(-0.00296941 0.000376694 0.005205)
(-0.00305995 0.000442763 0.00521627)
(-0.00314676 0.000480129 0.00522012)
(-0.00321322 0.000547039 0.00522472)
(-0.00330528 0.000528216 0.00521997)
(-0.00331877 0.000669796 0.00523669)
(-0.00349871 0.000556597 0.00520005)
(-0.00345582 0.00105317 0.00522109)
(-0.00387053 0.000818423 0.00509373)
(-0.00383948 0.00209147 0.00500581)
(-0.00446169 0.00160405 0.0048005)
(-0.0044365 0.00369304 0.00452575)
(-0.00476146 0.00176901 0.00434723)
(-0.00405053 0.00476808 0.00387492)
(-0.00318411 -0.000508562 0.00370267)
(-0.000857366 0.00346723 0.00411349)
(0.00189601 -0.00507099 0.00569651)
(0.00672537 -0.000801755 0.00466985)
(0.00918276 -0.0101714 0.00592739)
(0.0319885 -0.00351194 0.0233856)
(0.0412615 -0.0360246 0.0264561)
(0.0420249 -0.0270162 0.00126997)
(0.0203192 -0.084 -0.00253884)
(-0.027314 -0.0253038 0.016521)
(-0.107296 -0.138856 0.0299692)
(0.0146464 0.162061 -0.144379)
(0.127988 -0.0229969 0.0239463)
(0.159104 -0.185336 0.0702483)
(0.0805458 0.0984532 2.73267e-05)
(0.0620349 -0.0841935 -0.00401096)
(-0.0193729 0.0647472 -0.0119204)
(-0.0301864 -0.00953093 0.000716341)
(-0.0514638 0.0337338 -0.00551548)
(-0.0574069 0.0288776 -0.0108866)
(-0.0527288 0.0454137 -0.0138627)
(-0.0374794 0.0489446 -0.00899029)
(-0.028021 0.0582278 -0.00201977)
(-0.0217283 0.0667242 0.00450517)
(-0.0180222 0.0759548 0.00993976)
(-0.016036 0.0819744 0.0134039)
(-0.0158874 0.0847071 0.0161501)
(-0.0150236 0.0844366 0.0185496)
(-0.0129567 0.0826223 0.018706)
(-0.0117344 0.0791338 0.0174059)
(-0.00970401 0.075269 0.0186241)
(-0.00841723 0.0685941 0.018906)
(-0.00739081 0.0613832 0.0191511)
(-0.00557209 0.0534784 0.0174362)
(-7.08601e-05 0.0451578 0.0140083)
(0.0119917 0.0376999 0.00948234)
(0.0294207 0.0309054 0.00329931)
(0.0512107 0.0264181 -0.00444026)
(0.0666275 0.0264456 -0.0100859)
(0.0725786 0.0196069 -0.0132944)
(0.0623951 0.00720625 -0.0160499)
(0.0441318 -0.00847049 -0.018)
(0.0200659 -0.0235669 -0.0166109)
(-0.00242209 -0.0384731 -0.0109938)
(-0.0259895 -0.048464 0.000719728)
(-0.0404958 -0.0490776 0.0152168)
(-0.0455915 -0.0420963 0.0138039)
(-0.04777 -0.0275442 0.00287918)
(-0.0521309 -0.00995098 0.00234017)
(0.0281089 0.0255062 0.00791319)
(0.0314508 0.0225594 0.00490101)
(0.022868 0.0181729 0.00128389)
(0.0245846 0.0182116 0.000430959)
(0.0172171 0.00968499 -0.00236876)
(0.0131979 0.00798543 -0.00162662)
(0.00301399 -0.000522533 -0.0005859)
(-0.00121897 0.00118974 0.000634267)
(-0.00517257 -0.0021498 0.00208821)
(-0.0073856 -0.000505039 0.00288972)
(-0.00647041 0.000142019 0.0033341)
(-0.00496686 0.00198456 0.00426821)
(-0.00361444 0.00303039 0.00470423)
(-0.00241665 0.00385175 0.00528403)
(-0.00156064 0.003824 0.00544407)
(-0.00115396 0.00349657 0.00555188)
(-0.00126102 0.00287708 0.00548864)
(-0.0014874 0.00243424 0.0054583)
(-0.00171963 0.00206425 0.00539249)
(-0.00192392 0.00177965 0.0053044)
(-0.0021326 0.00148655 0.00518135)
(-0.00234175 0.0012046 0.00505928)
(-0.00255388 0.000945875 0.00494713)
(-0.00274832 0.000727723 0.00484834)
(-0.00292227 0.000568707 0.00475943)
(-0.00306398 0.000473605 0.00467484)
(-0.00317634 0.000424949 0.00459394)
(-0.00326634 0.00040873 0.00451558)
(-0.0033574 0.0004063 0.00444418)
(-0.00346494 0.000414577 0.00438507)
(-0.00356655 0.000440898 0.0043448)
(-0.00365233 0.000479869 0.00431597)
(-0.00372211 0.000534851 0.004294)
(-0.00378913 0.000597042 0.0042762)
(-0.00384618 0.000679454 0.00425868)
(-0.00389885 0.000736717 0.00423438)
(-0.0039279 0.000828081 0.00421387)
(-0.00398833 0.000854053 0.00417965)
(-0.00399237 0.00103472 0.00416257)
(-0.00416018 0.00102954 0.00409602)
(-0.00419927 0.00158132 0.00405325)
(-0.0046325 0.00153384 0.00385511)
(-0.00480284 0.00274909 0.00364628)
(-0.00510425 0.00224299 0.00341228)
(-0.00488272 0.00399996 0.00319565)
(-0.00444083 0.00195658 0.00331131)
(-0.00298873 0.0049494 0.00317936)
(-0.00161307 0.000415088 0.00335543)
(0.000902494 0.00470249 0.00387935)
(0.00265754 -0.00297767 0.0060007)
(0.00832458 0.00577349 0.00888105)
(0.0126894 -0.00792437 0.0177041)
(0.0299475 0.0061182 0.0354611)
(0.0366157 -0.00296723 0.0331026)
(0.0464629 0.0267637 0.0399252)
(0.0124124 -0.0313333 0.0377657)
(-0.044244 0.0280332 0.067488)
(-0.146963 -0.101558 0.0618107)
(0.0241287 0.126181 -0.15665)
(0.115464 -0.0351225 0.0419146)
(0.143384 -0.153932 0.0747)
(0.0588908 0.101818 -0.0185623)
(0.041034 0.0179826 -0.00719229)
(-0.0172159 0.0811697 -0.0112459)
(-0.0213642 0.0516578 -0.00924648)
(-0.0423823 0.0663833 -0.0117779)
(-0.0442804 0.0646799 -0.0113588)
(-0.040169 0.0735593 -0.00720707)
(-0.0339247 0.0765295 -0.00134164)
(-0.0313421 0.0861201 0.00472328)
(-0.0288816 0.0930326 0.00966684)
(-0.0278038 0.100361 0.0129477)
(-0.0263462 0.103189 0.015324)
(-0.0249523 0.102395 0.0175979)
(-0.0240091 0.098271 0.0189217)
(-0.0204848 0.0912636 0.0180436)
(-0.0170124 0.082721 0.0171628)
(-0.0128605 0.073189 0.0180372)
(-0.00941765 0.0604113 0.0179588)
(-0.00631971 0.0469893 0.0175094)
(-0.00201595 0.034323 0.0157374)
(0.0041007 0.022957 0.0121773)
(0.0147669 0.0159489 0.0084299)
(0.0294717 0.010683 0.0046326)
(0.0491329 0.00961177 -0.000691343)
(0.0737573 0.0133547 -0.00660418)
(0.0850225 0.0161936 -0.00895633)
(0.0846379 0.0102933 -0.0120993)
(0.0702504 -0.00212667 -0.0173652)
(0.0463985 -0.0157256 -0.0199968)
(0.0170837 -0.0340406 -0.0153447)
(-0.0244843 -0.0469736 -0.0217572)
(-0.0578649 -0.0517748 0.000693634)
(-0.0683838 -0.0423933 0.0139172)
(-0.0672526 -0.0290249 0.00875737)
(-0.0627251 -0.00695237 -0.00534642)
(0.0253482 0.0265743 0.00964058)
(0.030831 0.0267645 0.00821537)
(0.0224567 0.021257 0.00451353)
(0.0252494 0.0211769 0.00442006)
(0.0208932 0.0111509 4.00902e-05)
(0.0189225 0.010618 0.000145312)
(0.00715693 -0.000518881 -0.00308415)
(0.000217692 0.00099816 -0.00153882)
(-0.0042695 -0.0025888 0.000229803)
(-0.00774347 -0.00140506 0.00181053)
(-0.00798361 -0.00136617 0.00245204)
(-0.00732368 0.000966265 0.00370639)
(-0.00639491 0.00221128 0.00433764)
(-0.0048555 0.002928 0.00534354)
(-0.00375936 0.00294232 0.00593246)
(-0.00329807 0.002758 0.0063495)
(-0.00357582 0.00227756 0.00637418)
(-0.00414 0.00196277 0.00626622)
(-0.00462826 0.00174919 0.00608156)
(-0.00495907 0.00165726 0.0058758)
(-0.00517661 0.00157086 0.00563029)
(-0.00535017 0.00148801 0.00539528)
(-0.00548893 0.00139733 0.00518006)
(-0.00562163 0.0013127 0.00500295)
(-0.00576461 0.00126113 0.00487196)
(-0.00586238 0.00123295 0.00473607)
(-0.00591348 0.00121551 0.00461282)
(-0.00591489 0.00120587 0.00451837)
(-0.00591027 0.00118696 0.00445645)
(-0.0059367 0.00116687 0.00441699)
(-0.00598123 0.00116683 0.00439805)
(-0.00602106 0.00118362 0.00438981)
(-0.0060525 0.00122073 0.00438858)
(-0.00608356 0.00127701 0.00439059)
(-0.00609481 0.00136384 0.00439339)
(-0.00608575 0.00144424 0.00439511)
(-0.00607432 0.0015587 0.00438935)
(-0.00608441 0.00164653 0.00436562)
(-0.00609787 0.00186251 0.00434171)
(-0.00623581 0.00194568 0.00429162)
(-0.00640728 0.00249717 0.00421742)
(-0.00667821 0.00245281 0.00407292)
(-0.00689397 0.00345743 0.00385224)
(-0.00673561 0.0026481 0.00363508)
(-0.00650098 0.00416683 0.0033725)
(-0.0058542 0.00202064 0.0033644)
(-0.00427447 0.00519523 0.00345986)
(-0.00304283 0.00146925 0.00409352)
(-0.000568052 0.00624092 0.00447696)
(0.000431637 0.000213659 0.00555253)
(0.00565716 0.0101868 0.00684887)
(0.0060193 0.00615888 0.00659617)
(0.00489857 0.0246577 0.0205657)
(0.00352579 0.0162531 0.0446241)
(0.0298513 0.0481678 0.068958)
(0.0346798 -0.00184815 0.0966215)
(0.021137 0.00951207 0.177101)
(-0.116013 -0.131888 0.116783)
(0.0234017 0.0626774 -0.117814)
(0.073062 -0.0391421 0.0552976)
(0.0946612 -0.117797 0.0728265)
(0.0322588 0.130782 -0.0258677)
(0.0344295 0.0594774 -0.00569705)
(-0.00121981 0.113383 -0.00798082)
(-0.0189314 0.104508 -0.00489608)
(-0.0326477 0.11401 -0.00452571)
(-0.0370649 0.113484 -0.00227433)
(-0.0370255 0.117571 0.00177737)
(-0.0352732 0.11775 0.00529444)
(-0.034933 0.12151 0.00810306)
(-0.0338013 0.122042 0.0104614)
(-0.0331805 0.122466 0.0111635)
(-0.0314765 0.119047 0.0117616)
(-0.0292415 0.112427 0.0133156)
(-0.025825 0.104745 0.0156422)
(-0.0209479 0.0920423 0.0150733)
(-0.0159257 0.0820275 0.0146665)
(-0.00971243 0.068136 0.0155667)
(-0.00336246 0.0526754 0.0151389)
(0.00124415 0.0371503 0.0145764)
(0.00422134 0.0206311 0.0113019)
(0.00824001 0.00949594 0.00574592)
(0.0212567 0.00471744 0.00343716)
(0.0380561 0.00191608 0.00187722)
(0.0565721 0.0026917 -0.000489204)
(0.0770904 0.0061062 -0.00203717)
(0.0935359 0.0107429 -0.00342634)
(0.0965506 0.0113543 -0.00607847)
(0.088174 0.00411718 -0.0138652)
(0.0692896 -0.00617987 -0.0173024)
(0.0433953 -0.0213496 -0.0136528)
(-0.00344214 -0.0426892 -0.0234673)
(-0.0574622 -0.042086 -0.0182801)
(-0.0823443 -0.0380326 0.000306305)
(-0.0862999 -0.0319975 0.00231113)
(-0.0834549 -0.0119508 -0.00453147)
(0.0251877 0.0253911 0.0108208)
(0.0285815 0.0312247 0.00944635)
(0.0198312 0.0245148 0.00619842)
(0.0244674 0.0247522 0.00735668)
(0.0204965 0.0125561 0.00299669)
(0.0206163 0.0123955 0.00352453)
(0.0106764 3.78705e-05 -0.00294036)
(5.58596e-05 0.000341886 -0.00311234)
(-0.00489389 -0.00311127 -0.000866895)
(-0.00868654 -0.00132606 0.000835289)
(-0.00959465 -0.00227116 0.00163171)
(-0.00913794 -0.000607694 0.00315142)
(-0.00667985 -0.000289443 0.00452844)
(-0.00465135 0.00026853 0.00591763)
(-0.00351852 0.000346717 0.00691569)
(-0.0031844 0.000699001 0.00777712)
(-0.0033902 0.000980083 0.00822167)
(-0.0038735 0.00129404 0.00831726)
(-0.00431964 0.00153651 0.00819044)
(-0.00463792 0.00180474 0.00796305)
(-0.00487746 0.00198397 0.0076523)
(-0.0050646 0.00206727 0.00734481)
(-0.00521179 0.0020956 0.00706287)
(-0.00533848 0.0020948 0.00681062)
(-0.00545341 0.00207326 0.00659449)
(-0.00551683 0.00204522 0.00641901)
(-0.00553597 0.00201451 0.00626633)
(-0.00550707 0.00196715 0.00615119)
(-0.00547472 0.00189636 0.00606824)
(-0.00547027 0.00184196 0.00602103)
(-0.0054825 0.00182405 0.00599735)
(-0.00549048 0.00183796 0.00598295)
(-0.00550059 0.00187796 0.0059674)
(-0.00552687 0.00194164 0.0059397)
(-0.00554348 0.00203581 0.00589691)
(-0.00553939 0.00212596 0.00584125)
(-0.00554165 0.00224697 0.00577269)
(-0.00555239 0.00235741 0.00569271)
(-0.00558563 0.00256754 0.00561375)
(-0.00571149 0.0026502 0.0055132)
(-0.00590168 0.00310058 0.00539546)
(-0.00600119 0.00290085 0.00521699)
(-0.00616117 0.00371379 0.00505289)
(-0.0056783 0.00261246 0.0048714)
(-0.005351 0.0040975 0.00479163)
(-0.00479863 0.00180376 0.00473766)
(-0.00367077 0.00515195 0.0048719)
(-0.00311488 0.00263065 0.00548766)
(-0.00231529 0.00836716 0.0048798)
(-0.00191581 0.00527432 0.00368124)
(-0.0017391 0.0167201 0.0019891)
(-0.000879333 0.0119977 -0.00148644)
(-0.000377149 0.0201865 0.00371966)
(-0.00545463 -0.00584198 0.0154891)
(-0.0037088 -0.0060655 0.0502407)
(0.0153546 -0.0342992 0.0932487)
(0.032039 -0.0263931 0.153359)
(-0.0172517 -0.125883 0.130998)
(0.0219002 0.00874304 -0.0963912)
(0.0250353 -0.0363547 0.0617628)
(0.0382117 -0.065666 0.0713108)
(0.0115159 0.135835 -0.0182646)
(0.00678364 0.0983718 0.000239228)
(-0.00646275 0.144949 -0.00160424)
(-0.0200167 0.144922 -0.000581513)
(-0.0251471 0.148994 0.000289659)
(-0.0294756 0.14669 0.0013111)
(-0.0308751 0.145395 0.00316187)
(-0.0320555 0.140478 0.00431399)
(-0.0330014 0.138383 0.00645155)
(-0.0335418 0.133924 0.00758769)
(-0.0321164 0.129374 0.00795055)
(-0.0307631 0.121447 0.00821404)
(-0.0284503 0.11167 0.00900375)
(-0.0229443 0.101244 0.0101111)
(-0.0172993 0.0893317 0.0100678)
(-0.00949496 0.0796153 0.0123266)
(0.000715829 0.0672437 0.0158287)
(0.0104496 0.0544756 0.0176353)
(0.0179108 0.0405069 0.0187635)
(0.0242958 0.0237773 0.0175319)
(0.0295984 0.00461597 0.0142342)
(0.0371784 -0.00734826 0.00996556)
(0.0507455 -0.0134812 0.0063045)
(0.0654584 -0.0127568 0.00440797)
(0.0815222 -0.00649401 0.00659427)
(0.0974003 0.00017945 0.0119144)
(0.102887 0.00719843 0.0136286)
(0.0987712 0.00712965 0.00974926)
(0.0815293 0.00770048 0.000516017)
(0.0549951 -0.00179335 -0.00394916)
(0.0179613 -0.00807487 -0.00176737)
(-0.0549564 -0.0231468 -0.0135948)
(-0.0868264 -0.0170836 -0.00175766)
(-0.099607 -0.0128125 -0.00394422)
(-0.101406 -0.00918336 -0.0351821)
(0.0073552 0.0252303 -0.00128345)
(0.024931 0.0319276 0.00740382)
(0.0148267 0.0281198 0.00455503)
(0.0223616 0.030547 0.00672103)
(0.0182299 0.0161296 0.00393965)
(0.0192999 0.0150302 0.00574082)
(0.0135268 0.00158494 -0.000844531)
(0.00205174 0.00123665 -0.00760544)
(-0.00561199 -0.00319089 -0.00564564)
(-0.00834464 -0.000657603 -0.00337803)
(-0.00949797 -0.00269369 -0.00221152)
(-0.0094606 -0.0020567 -0.000982573)
(-0.00872211 -0.00273978 0.000417114)
(-0.00764557 -0.00211846 0.00194024)
(-0.00716675 -0.00159619 0.00308355)
(-0.00726598 -0.000668643 0.00411019)
(-0.00782843 0.000127982 0.004906)
(-0.0084341 0.000844748 0.00537917)
(-0.00896615 0.00137257 0.00553867)
(-0.00929352 0.00180784 0.00550014)
(-0.00928199 0.00209904 0.00534949)
(-0.00923961 0.00228572 0.00517407)
(-0.00918758 0.00239195 0.00500321)
(-0.00913154 0.00244512 0.00484429)
(-0.00906918 0.00245465 0.00469971)
(-0.00897599 0.00243534 0.00457162)
(-0.00886244 0.00240307 0.00445493)
(-0.00871083 0.00235939 0.00435601)
(-0.00860072 0.00230335 0.00427382)
(-0.0085913 0.00225496 0.00421853)
(-0.00860844 0.00223172 0.00418234)
(-0.00861404 0.00223941 0.00415893)
(-0.00861071 0.00226953 0.00413846)
(-0.00860725 0.00233026 0.00410744)
(-0.00857107 0.00242437 0.00405447)
(-0.00850827 0.00250472 0.00398358)
(-0.00847632 0.00261839 0.00388783)
(-0.00844756 0.00273975 0.0037774)
(-0.00845812 0.00296656 0.00366885)
(-0.00848881 0.00311198 0.00356664)
(-0.00873688 0.00359032 0.00345075)
(-0.00866204 0.0032362 0.00331439)
(-0.00887393 0.00387653 0.00321595)
(-0.00830247 0.00246624 0.00300749)
(-0.00816357 0.00384517 0.00296562)
(-0.00790473 0.0014966 0.00279094)
(-0.00774662 0.00476602 0.0026904)
(-0.00824131 0.00256386 0.00334648)
(-0.00840552 0.00815152 0.00286625)
(-0.0075433 0.00385052 0.00260264)
(-0.0029199 0.0127124 0.00595071)
(0.0150267 -0.00458103 0.0116052)
(0.0150586 0.000504094 0.00705509)
(0.00729823 -0.0192679 0.00402243)
(-0.0174635 -0.0210358 0.036786)
(-0.0261141 -0.0599444 0.074655)
(-7.28315e-05 -0.0536694 0.133387)
(0.0126069 -0.150588 0.151378)
(-0.00606087 0.0436737 -0.104765)
(-0.0248329 -0.0232867 0.0560812)
(-0.0311953 -0.0942869 0.0664542)
(-0.0146044 0.13874 -0.0214776)
(-0.0263035 0.0854077 -0.00121213)
(-0.0158311 0.133405 -0.00209355)
(-0.0224683 0.132614 -0.000793282)
(-0.0226396 0.13579 -0.00058161)
(-0.0244761 0.132978 -0.000603333)