/*--------------------------------*- C++ -*----------------------------------*\
| =========                 |                                                 |
| \\      /  F ield         | OpenFOAM: The Open Source CFD Toolbox           |
|  \\    /   O peration     | Version:  2.3.0                                 |
|   \\  /    A nd           | Web:      www.OpenFOAM.org                      |
|    \\/     M anipulation  |                                                 |
\*---------------------------------------------------------------------------*/
FoamFile
{
    version     2.0;
    format      ascii;
    class       volVectorField;
    location    "39";
    object      U.air;
}
// * * * * * * * * * * * * * * * * * * * * * * * * * * * * * * * * * * * * * //

dimensions      [0 1 -1 0 0 0 0];

internalField   nonuniform List<vector> 
6144
(
(0.0121598 0.0219034 -0.000690058)
(0.0128466 -0.00385072 -0.0022801)
(0.00455506 -0.00563585 -0.00338873)
(0.00338388 -0.00416245 -0.00284481)
(0.0019011 -0.00200954 -0.00208895)
(0.00330029 0.00117847 -0.00192004)
(0.00335958 0.000675049 -0.00153283)
(0.00316333 0.00167997 -0.00109474)
(0.0023971 0.00107938 -0.000709821)
(0.00177787 0.0023182 -0.000176252)
(0.00132709 0.00343811 0.000319987)
(0.00127984 0.00449125 0.00099295)
(0.00141469 0.00458071 0.00139232)
(0.00155546 0.0040186 0.00180194)
(0.00162673 0.00307575 0.00182085)
(0.00172431 0.00215237 0.00170098)
(0.00179532 0.00124634 0.00144202)
(0.00187323 0.000531024 0.00117944)
(0.00193888 -4.0194e-05 0.000905974)
(0.00198801 -0.000390547 0.000659129)
(0.00202234 -0.000557098 0.000439547)
(0.00205011 -0.000567853 0.000288929)
(0.00205379 -0.000499115 0.00022686)
(0.00203606 -0.000379497 0.000235644)
(0.00199826 -0.000237908 0.000308006)
(0.00194436 -9.17069e-05 0.000431784)
(0.00188537 4.06194e-05 0.0005827)
(0.00182467 0.000142235 0.000737408)
(0.00176102 0.000202778 0.000894055)
(0.00169302 0.000234749 0.00103489)
(0.0016196 0.000268915 0.00115948)
(0.00154198 0.000326283 0.0012844)
(0.00146064 0.00040482 0.00142763)
(0.00137594 0.000485987 0.0016)
(0.00129052 0.000545844 0.00180024)
(0.00120605 0.000563368 0.00201131)
(0.00112354 0.000541808 0.00219846)
(0.00104406 0.00051546 0.00232034)
(0.000974356 0.000561199 0.0023419)
(0.000914656 0.00077358 0.00219875)
(0.00084718 0.00134996 0.00178737)
(0.000743541 0.00261177 0.000951512)
(0.000604919 0.00506793 -5.99039e-05)
(0.000717464 0.00880753 -0.000798607)
(0.00178815 0.0126468 -0.00106693)
(0.0034213 0.0136465 -0.00110922)
(0.00606997 0.0103451 -0.0010559)
(0.0062116 0.00374741 -0.00190056)
(0.00096745 0.00367008 -0.00423763)
(0.0019483 0.0149448 -0.00672063)
(0.0313569 0.00585451 -0.0076645)
(0.0425608 -0.0469287 -0.00343711)
(0.0404807 -0.0720708 -0.00726815)
(0.0353422 -0.117936 -0.000748414)
(0.0259884 -0.132687 -0.0106865)
(0.00317049 -0.143107 -0.00444694)
(-0.00811272 -0.0816803 0.00230768)
(-0.0175034 -0.133439 0.0322879)
(-0.0434948 0.0580803 -0.0739187)
(0.026916 0.0782266 0.0486013)
(0.0651014 0.337977 0.0380177)
(0.0276599 0.389248 -0.0177857)
(0.0387289 -0.138253 -0.0157778)
(0.0380851 -0.174331 -0.00593612)
(0.0359734 -0.171549 -0.00350799)
(0.0348274 -0.168964 -0.00492067)
(0.0337896 -0.163829 -0.0113561)
(0.0328129 -0.156612 -0.00969927)
(0.0285066 -0.143994 -0.00583491)
(0.026235 -0.12558 -0.00357117)
(0.0202023 -0.118272 -0.00305416)
(0.0141102 -0.107342 -0.00232512)
(0.0149877 -0.0952573 -0.00271028)
(0.0237052 -0.0834209 -0.00271042)
(0.0287616 -0.0793374 -0.000351678)
(0.0290714 -0.0797265 0.00312122)
(0.0240553 -0.0815731 0.00805512)
(0.0129967 -0.0770339 0.0097036)
(-0.0031114 -0.0488491 0.0145652)
(-0.0120361 -0.0351387 0.027994)
(-0.014201 -0.0444951 0.0382428)
(-0.024341 -0.0700809 0.0425371)
(-0.0272149 -0.0839432 0.0369937)
(-0.0233008 -0.0855536 0.0346825)
(-0.0169542 -0.0905887 0.0296902)
(-0.0121285 -0.0885113 0.0191096)
(-0.0052682 -0.0835285 0.00751704)
(0.000167992 -0.0804069 0.00548733)
(-0.000416645 -0.0782689 0.00585413)
(-0.00147713 -0.0735027 0.00444692)
(-0.00211585 -0.0676961 0.00256154)
(7.99284e-05 -0.0668408 0.00100967)
(-0.00207287 -0.0690736 -0.00551177)
(-0.0145215 -0.0572737 -0.0151585)
(-0.00909048 0.0092797 -0.0124163)
(0.0264579 0.0100776 -0.0103375)
(0.0221013 0.0211522 0.00326705)
(0.0240378 0.0052767 0.00263242)
(0.0110096 0.000843049 -0.00198757)
(0.00900545 0.00022069 -0.00100551)
(0.0043561 -0.00277175 0.000392789)
(0.00539531 0.000110141 0.000810736)
(0.0050717 -1.08632e-05 0.00170015)
(0.00480434 0.00222302 0.00220351)
(0.00354105 0.00189246 0.0025756)
(0.0024318 0.00358632 0.00266308)
(0.00186683 0.00467445 0.00285216)
(0.00208956 0.00558504 0.00354447)
(0.00249747 0.00549216 0.00400446)
(0.00293756 0.00497433 0.00429704)
(0.0031004 0.00400998 0.00434568)
(0.00326077 0.00306392 0.00432212)
(0.00332092 0.00206645 0.00423889)
(0.00339173 0.0012639 0.00416006)
(0.00343413 0.000580507 0.00408843)
(0.0034409 9.6135e-05 0.00403833)
(0.00343728 -0.000202199 0.00398626)
(0.00343514 -0.000318101 0.00392704)
(0.00339896 -0.000339899 0.00392629)
(0.00332751 -0.000289761 0.00397518)
(0.00322243 -0.000200582 0.00406726)
(0.00309292 -8.85017e-05 0.00418979)
(0.00296369 1.94737e-05 0.00429931)
(0.00285117 0.000101228 0.00438895)
(0.00274044 0.000152021 0.00447888)
(0.0026159 0.000186608 0.00456377)
(0.00247218 0.000227034 0.00464746)
(0.00231604 0.00027949 0.00473551)
(0.00216056 0.000334463 0.00483059)
(0.0020135 0.000379909 0.00493356)
(0.0018792 0.000404928 0.00504218)
(0.00175853 0.000406298 0.00515025)
(0.00164089 0.000396533 0.00524548)
(0.00151001 0.000406847 0.00531135)
(0.00135452 0.000501714 0.00532382)
(0.00113683 0.000755536 0.0052378)
(0.000742429 0.00134363 0.00497282)
(0.00011771 0.00252135 0.00425214)
(-0.000675365 0.00464971 0.00303145)
(-0.00091326 0.00791008 0.0020394)
(0.000788522 0.0113297 0.00245024)
(0.00565329 0.0135796 0.00309736)
(0.0108776 0.0131497 0.00271693)
(0.0120383 0.00993369 0.00277428)
(0.00674074 0.00963419 0.00260678)
(0.0204833 -0.0107481 0.00475668)
(0.0694546 -0.0330161 0.00396608)
(0.0856028 -0.0785266 0.00608145)
(0.0743715 -0.0962109 0.00680732)
(0.059032 -0.141476 0.0161113)
(0.0399458 -0.152546 0.000927189)
(0.000604792 -0.170039 0.00657643)
(-0.0245888 -0.118366 0.0219781)
(-0.040973 -0.160756 0.0469421)
(-0.0750717 0.0607419 -0.116357)
(-0.0171827 0.0604652 0.0147657)
(0.12749 0.329931 0.107654)
(0.0436102 0.419691 0.0260199)
(0.0447173 0.000830682 0.0024954)
(0.0476154 -0.0903012 0.0232343)
(0.0254332 -0.0968646 0.00950522)
(0.0224675 -0.0650533 0.000447584)
(0.0204718 -0.00181403 -0.00883358)
(0.0136629 0.0228244 0.00601152)
(0.0218748 0.0258632 0.00827615)
(0.0325134 0.0168794 -0.0092035)
(0.0389625 0.00338589 -0.021392)
(0.0392017 -0.0016265 -0.029407)
(0.0373347 -0.0125469 -0.0309903)
(0.0319113 -0.0130224 -0.0285398)
(0.0247875 -0.0192815 -0.0186935)
(0.0149322 -0.0248969 -0.00429744)
(4.98774e-05 -0.0251905 0.00945481)
(-0.0148591 -0.0199825 0.0179879)
(-0.0157709 -0.0117234 0.0251766)
(-0.0130184 -0.0175803 0.0378197)
(-0.0192011 -0.0378818 0.0479157)
(-0.0326586 -0.0643965 0.0458098)
(-0.0366191 -0.076123 0.0365703)
(-0.0336122 -0.0757695 0.0334161)
(-0.0253293 -0.0748854 0.0277752)
(-0.0177529 -0.0720919 0.0159044)
(-0.0112252 -0.0629618 0.0109715)
(-0.00824226 -0.0610179 0.011617)
(-0.0102819 -0.0631604 0.0115217)
(-0.0149685 -0.0625107 0.0104302)
(-0.019247 -0.0587125 0.00704622)
(-0.0167132 -0.0563028 0.00823506)
(-0.0126996 -0.0528521 0.0036687)
(-0.0182261 -0.0537769 -0.00305912)
(-0.0239703 -0.0175231 -0.0141189)
(0.0190773 -0.0136896 -0.0175847)
(0.025465 0.0211977 0.00415639)
(0.0280575 0.0121163 0.004117)
(0.0167543 0.00656235 0.00102417)
(0.0135541 0.00504311 0.00277119)
(0.00522245 -0.00110792 0.00366722)
(0.00456705 0.00115693 0.00309216)
(0.00309071 0.000622144 0.00380938)
(0.00297877 0.00308385 0.00388702)
(0.00176858 0.00267823 0.00406474)
(0.000916005 0.00385095 0.00415101)
(0.000396676 0.00400375 0.00420749)
(0.000920195 0.00472245 0.00451694)
(0.00141614 0.00462524 0.0048074)
(0.00193743 0.00456387 0.00503025)
(0.0021603 0.00404893 0.00504378)
(0.00238837 0.00350577 0.00501965)
(0.0024684 0.0027865 0.00495539)
(0.00254485 0.00217675 0.00491047)
(0.00258032 0.00160176 0.00487764)
(0.00256198 0.00113253 0.00487656)
(0.00248944 0.00074351 0.00489822)
(0.00238205 0.00047439 0.00494247)
(0.00226507 0.000299785 0.00499855)
(0.00213054 0.000204321 0.00506162)
(0.00197911 0.00016119 0.00513023)
(0.00181887 0.000151129 0.00520107)
(0.00165145 0.000154764 0.00527427)
(0.00148288 0.00016905 0.0053528)
(0.00130909 0.000196257 0.00542983)
(0.00111086 0.000233425 0.00550589)
(0.0008935 0.000274419 0.00558752)
(0.000677694 0.000313263 0.00567702)
(0.000468955 0.0003513 0.00576763)
(0.000269213 0.00039415 0.0058538)
(8.23024e-05 0.000455094 0.00593186)
(-9.11459e-05 0.000547782 0.00599816)
(-0.000254768 0.000689854 0.00604865)
(-0.000419619 0.000901684 0.00606987)
(-0.000586897 0.00124417 0.006034)
(-0.000777581 0.00175286 0.0058975)
(-0.00108433 0.00245154 0.00559048)
(-0.00169329 0.00318829 0.00503943)
(-0.00263815 0.00409136 0.00420786)
(-0.00298118 0.0052091 0.00332233)
(-0.00166076 0.0066903 0.00327365)
(0.00254248 0.00832692 0.00391181)
(0.00822139 0.0122127 0.0042919)
(0.012558 0.0114068 0.00699806)
(0.0174333 0.006526 0.00928202)
(0.0470501 -0.0276267 0.0147428)
(0.0904136 -0.0425967 0.00859853)
(0.103089 -0.0725908 0.022429)
(0.0829063 -0.0846966 0.0247369)
(0.06281 -0.135757 0.0206268)
(0.0320348 -0.134015 0.00442524)
(-0.0105575 -0.16998 0.00621559)
(-0.0679158 -0.117076 0.0121415)
(-0.0724741 -0.165982 0.0490446)
(-0.138688 0.0440364 -0.0901055)
(0.0719226 0.0660749 -0.0159996)
(0.184167 0.316054 0.11877)
(0.08955 0.399949 0.0447901)
(0.0783101 -0.0878399 0.0207207)
(0.0535951 -0.0461753 0.0211735)
(0.0208849 -0.00905337 -0.0163053)
(-0.00418603 0.0384457 -0.00530258)
(0.0185557 0.0762978 0.0209329)
(0.0529751 0.081883 0.0155011)
(0.0673932 0.0710014 -0.00176685)
(0.0728343 0.0606907 -0.0121627)
(0.0716988 0.0512864 -0.0135783)
(0.0656731 0.0453931 -0.0077666)
(0.0549212 0.031281 0.000876913)
(0.0406021 0.0180295 0.00434278)
(0.0239625 -0.00566306 0.00966558)
(0.00775669 -0.0209424 0.00828997)
(-0.00900439 -0.0283095 0.00885291)
(-0.0228494 -0.022893 0.0149566)
(-0.0275383 -0.0207326 0.0303307)
(-0.0343396 -0.0275455 0.050457)
(-0.0497157 -0.0374844 0.0582221)
(-0.061984 -0.0589559 0.0494458)
(-0.0691839 -0.0721259 0.0406786)
(-0.065758 -0.0722372 0.0361834)
(-0.054613 -0.0737469 0.03028)
(-0.0452522 -0.0668443 0.0178787)
(-0.0385003 -0.0678118 0.00693022)
(-0.0233105 -0.0679507 0.00179461)
(-0.0201741 -0.0792442 -0.00173462)
(-0.0165126 -0.0902051 -0.00786654)
(-0.0215387 -0.0930465 -0.0113241)
(-0.0320879 -0.0919707 -0.011621)
(-0.0411201 -0.0859037 -0.00908499)
(-0.0426111 -0.0751378 0.00225005)
(-0.0315379 -0.0471243 0.00128493)
(0.0175363 -0.0366397 -0.0123273)
(0.0265641 0.0215063 0.00437464)
(0.0303997 0.0165372 0.00516134)
(0.0193264 0.0095707 0.00167276)
(0.017242 0.00936459 0.00231914)
(0.00683756 0.00123327 0.00311729)
(0.00415847 0.00253235 0.00281079)
(0.00142904 0.000797461 0.00380584)
(0.00152279 0.00321883 0.00391053)
(0.000353454 0.00231578 0.0041733)
(-0.000244026 0.00314224 0.00428855)
(-0.000805422 0.00276021 0.00443367)
(-0.000377767 0.00336856 0.004777)
(-4.97372e-05 0.00354402 0.00503686)
(0.000485851 0.00389181 0.00523942)
(0.000775369 0.00373144 0.00523557)
(0.00104821 0.00349186 0.0052461)
(0.00113396 0.00297284 0.00521824)
(0.00118222 0.00250393 0.00521744)
(0.00117977 0.00202241 0.0052086)
(0.00114049 0.00161087 0.00521069)
(0.00103352 0.00122815 0.00521804)
(0.000895347 0.000904797 0.00523583)
(0.000735911 0.000642601 0.00526639)
(0.000561177 0.000449931 0.00530734)
(0.000380446 0.000322845 0.0053563)
(0.000200353 0.000252783 0.00540989)
(2.71506e-05 0.000225198 0.00546323)
(-0.000140441 0.000225337 0.00551545)
(-0.000310448 0.00024285 0.00556754)
(-0.000496034 0.000270665 0.0056254)
(-0.000689312 0.000304779 0.0056921)
(-0.000879655 0.00034364 0.00575916)
(-0.00107032 0.000391648 0.00581657)
(-0.0012574 0.000459478 0.00585615)
(-0.00143965 0.000562333 0.00587839)
(-0.00161436 0.000716348 0.00588356)
(-0.00178799 0.000953188 0.00586493)
(-0.00197916 0.00131167 0.00580748)
(-0.0021709 0.00184016 0.00569151)
(-0.00233745 0.00253569 0.005498)
(-0.00245453 0.0033927 0.00518475)
(-0.00258154 0.00413096 0.00468225)
(-0.00289086 0.00446808 0.00391401)
(-0.00305652 0.00414391 0.00309546)
(-0.00199106 0.00377051 0.00268153)
(0.00107585 0.00300974 0.00250249)
(0.00523234 0.00717676 0.00378326)
(0.0104149 0.00605941 0.00788324)
(0.0256099 0.00122556 0.0131457)
(0.0590428 -0.026341 0.0180985)
(0.0953508 -0.0241778 0.0299936)
(0.0889558 -0.0397285 0.0388374)
(0.0861906 -0.0608632 0.0216083)
(0.0805255 -0.0879077 -0.00680764)
(0.0524276 -0.064535 0.00406997)
(0.0198839 -0.129175 0.0155062)
(-0.0585077 -0.0839635 0.0256808)
(-0.0569693 -0.192221 0.0629589)
(-0.181617 0.150221 -0.0946615)
(0.0943619 -0.0428614 0.0417666)
(0.172138 0.453411 0.102562)
(0.0541636 0.62643 -0.00356232)
(0.0167675 0.570571 -0.0146626)
(-0.000594183 0.677978 -0.00671068)
(0.00106184 0.673094 0.00213906)
(0.00639309 0.674271 0.00379242)
(0.0205632 0.667058 0.0079948)
(0.0343931 0.655136 -0.00039392)
(0.0502375 0.610532 -0.00244608)
(0.056772 0.448287 0.00197284)
(0.0616627 0.165992 0.00865368)
(0.064638 0.139283 0.0157441)
(0.0567707 0.125988 0.0180519)
(0.0379513 0.105311 0.0151146)
(0.0119648 0.0766498 0.0144489)
(-0.0118304 0.0463849 0.0194132)
(-0.0278905 0.0226233 0.0169336)
(-0.0343046 0.015011 0.0226876)
(-0.0371981 0.00759865 0.0363218)
(-0.0553396 -0.00464975 0.0498957)
(-0.0705509 -0.0252353 0.0418833)
(-0.0803065 -0.049741 0.0355308)
(-0.0889595 -0.063143 0.0332591)
(-0.0855952 -0.0674381 0.0240898)
(-0.0717673 -0.0734968 0.0132257)
(-0.0525482 -0.079098 -0.00743221)
(-0.0342509 -0.0775056 -0.0258357)
(-0.0122282 -0.0876153 -0.0351349)
(-0.00158883 -0.0973349 -0.0456677)
(0.0121838 -0.10253 -0.0400346)
(0.0082206 -0.105374 -0.0378508)
(-0.000758602 -0.107577 -0.0274952)
(-0.0217633 -0.112433 -0.0287371)
(-0.053446 -0.112164 -0.0241847)
(-0.0702435 -0.0785371 -0.0167302)
(-0.0401417 -0.0460789 -0.0183171)
(0.0267101 0.021596 0.00426846)
(0.0327511 0.0196347 0.00587601)
(0.0216766 0.0112675 0.00182085)
(0.0219824 0.0126418 0.00176184)
(0.0100597 0.00351971 0.000658282)
(0.00542619 0.00494557 0.000596535)
(0.000150513 3.79076e-05 0.0027894)
(0.00020899 0.00309017 0.00318609)
(-0.000977304 0.00154921 0.00360701)
(-0.00141521 0.00237431 0.00406422)
(-0.00242564 0.00167371 0.00428674)
(-0.00243133 0.00231451 0.00468175)
(-0.00241479 0.00262107 0.00488706)
(-0.00183194 0.00327215 0.00510602)
(-0.00145229 0.00331798 0.00507447)
(-0.00113339 0.0032377 0.00511743)
(-0.0010631 0.0028332 0.00512757)
(-0.0011264 0.0024849 0.00516719)
(-0.00123176 0.00210354 0.00517134)
(-0.00135316 0.00176347 0.00515822)
(-0.00149324 0.00141617 0.00512787)
(-0.00165012 0.00108239 0.005098)
(-0.00181105 0.000783664 0.00507914)
(-0.00198583 0.000541453 0.0050712)
(-0.00217533 0.000361482 0.00507097)
(-0.00235217 0.000243589 0.00507834)
(-0.0025119 0.000173013 0.00508973)
(-0.00265504 0.000136352 0.00509959)
(-0.00279742 0.00012882 0.00510694)
(-0.00295905 0.000143682 0.00511951)
(-0.00314123 0.000173841 0.00513928)
(-0.00333186 0.000220861 0.00515751)
(-0.00352273 0.000291698 0.00516306)
(-0.00370732 0.000396553 0.00514462)
(-0.0038852 0.000548757 0.00510205)
(-0.00406744 0.000773133 0.00503415)
(-0.0042707 0.00111737 0.00494086)
(-0.00449901 0.00162647 0.00482186)
(-0.00472215 0.00232864 0.00466151)
(-0.00488261 0.00318312 0.00447552)
(-0.00487589 0.00408642 0.00429596)
(-0.00459839 0.00456586 0.00412156)
(-0.00409666 0.00424331 0.00383419)
(-0.00347085 0.00268273 0.00339643)
(-0.00170683 0.000720359 0.00327893)
(-0.000444354 -0.00146315 0.00182233)
(0.001992 0.00200829 0.00262357)
(0.00813645 0.0030419 0.00825292)
(0.0253792 -0.00398313 0.0196541)
(0.048243 0.00358098 0.0305431)
(0.0583429 0.0167859 0.0458671)
(0.0824796 0.00397653 0.0363958)
(0.112133 0.0173591 0.00914803)
(0.116568 0.0636934 0.0215052)
(0.114077 0.0896211 0.0639601)
(0.0822565 -0.0171881 0.0696967)
(-0.111394 0.0669625 0.0536809)
(-0.0891282 -0.196897 0.108809)
(-0.201388 0.193523 -0.0305251)
(0.0528679 -0.0479994 0.0321211)
(0.150325 0.499725 0.114904)
(0.0367688 0.659887 -0.0107571)
(0.0216363 0.627555 -0.00980889)
(-0.00274157 0.687225 -0.00884442)
(0.0105802 0.700907 0.00189235)
(0.0103464 0.713964 0.00242431)
(0.036016 0.722461 0.00367787)
(0.0542275 0.726909 0.00971993)
(0.0708938 0.725855 0.0215443)
(0.0762749 0.717504 0.0317692)
(0.0747923 0.705855 0.0374411)
(0.0669408 0.692826 0.0446932)
(0.0542673 0.675125 0.0450488)
(0.0340402 0.65149 0.042684)
(0.0106241 0.624229 0.0349157)
(-0.01612 0.597912 0.0323256)
(-0.0426648 0.566453 0.0388132)
(-0.062334 0.546101 0.0490015)
(-0.0756143 0.527719 0.0547361)
(-0.0858651 0.498953 0.0491719)
(-0.0899506 0.471802 0.0312266)
(-0.0895228 0.45571 0.0157758)
(-0.0806579 0.44622 0.000208455)
(-0.0562429 0.449766 -0.0165498)
(-0.0248916 0.459879 -0.03301)
(0.0158969 0.465496 -0.0423431)
(0.0537302 0.443212 -0.0412087)
(0.073421 0.327733 -0.0325344)
(0.0618456 -0.0176883 -0.0244316)
(0.0662847 -0.0234674 -0.0038608)
(0.0522636 -0.0225954 0.00996566)
(0.0421395 -0.0315468 0.0205488)
(0.0183383 -0.0322348 0.0225876)
(-0.0225931 -0.0678567 0.00651304)
(-0.0724766 -0.0607078 -0.0116873)
(-0.0733118 -0.0315733 -0.0151724)
(0.0251685 0.0210273 0.00474949)
(0.0341892 0.0232429 0.00786862)
(0.0223097 0.0120746 0.00302881)
(0.0240362 0.0147769 0.00307772)
(0.0136868 0.00420673 -0.000493314)
(0.00896807 0.00693795 -0.00106088)
(0.000730432 -0.00110607 0.00138324)
(-0.00126517 0.00278714 0.00207048)
(-0.00187534 0.000382513 0.00259525)
(-0.00251063 0.00165532 0.00336281)
(-0.00348609 0.000627763 0.00362175)
(-0.00358234 0.00151158 0.00414117)
(-0.00361845 0.00192181 0.00435205)
(-0.00282631 0.00282351 0.00477979)
(-0.00219865 0.00285452 0.00496822)
(-0.00178195 0.00275815 0.0051854)
(-0.00172337 0.00233836 0.00527461)
(-0.0018856 0.00207169 0.0053189)
(-0.00206037 0.00183133 0.00529276)
(-0.00222514 0.00165335 0.00522412)
(-0.00239134 0.00145537 0.00511432)
(-0.0025707 0.00123234 0.00498624)
(-0.00276918 0.00100454 0.00486356)
(-0.00296481 0.000798216 0.00475372)
(-0.00314504 0.000640951 0.00465621)
(-0.0033001 0.000536869 0.00456401)
(-0.00342346 0.000466616 0.00448045)
(-0.00353775 0.000419287 0.004403)
(-0.00366021 0.000384947 0.00433935)
(-0.00379361 0.000368518 0.00429851)
(-0.00393909 0.000380271 0.00427585)
(-0.00409025 0.000427027 0.00425461)
(-0.00424456 0.000514385 0.00421936)
(-0.0044018 0.000642211 0.00415663)
(-0.00457489 0.000815232 0.0040678)
(-0.00478321 0.00105207 0.00395304)
(-0.0050497 0.00138577 0.00381712)
(-0.00537902 0.00184114 0.00365938)
(-0.00568249 0.00242499 0.00349612)
(-0.0058122 0.0030038 0.00340048)
(-0.00553774 0.00345083 0.0034949)
(-0.00466851 0.00340222 0.00378779)
(-0.00331448 0.00249972 0.00411875)
(-0.00200155 3.32083e-05 0.00424041)
(-0.000620432 -0.00251456 0.00395038)
(-0.000633768 -0.00320249 0.00241328)
(-0.000565709 -0.000342741 0.00252029)
(0.00725509 0.00295174 0.00788312)
(0.00509879 -0.00506228 0.0203415)
(-0.00271221 0.0160139 0.0270016)
(0.0371365 0.0537416 0.0424735)
(0.0660067 0.0701433 0.0505099)
(0.0639634 0.109983 0.0516135)
(0.0571102 0.147699 0.0685497)
(0.0613615 0.167039 0.101532)
(0.0413086 0.158457 0.121329)
(0.0508633 0.22325 0.152554)
(0.0687998 -0.243107 0.221211)
(-0.132467 0.252665 0.0506613)
(0.0409237 -0.0331477 0.0202903)
(0.107912 0.550869 0.0986326)
(-0.012879 0.697719 -0.0207033)
(-0.0109023 0.67937 -0.0133179)
(-0.0184094 0.734603 -0.00654399)
(-0.0051251 0.744607 0.00579289)
(-0.000681901 0.756676 0.00700984)
(0.0157857 0.761584 0.01383)
(0.0255714 0.766175 0.0220925)
(0.0408467 0.762969 0.0279947)
(0.0441826 0.757267 0.0390234)
(0.0454066 0.751589 0.0448185)
(0.0371207 0.736891 0.0538243)
(0.0273188 0.722008 0.0607529)
(0.0114084 0.69698 0.063662)
(-0.00772305 0.674238 0.060639)
(-0.0330674 0.649272 0.0561508)
(-0.0599073 0.625198 0.0537323)
(-0.0840745 0.601097 0.0506175)
(-0.0968588 0.577343 0.0412639)
(-0.0984709 0.560538 0.0204255)
(-0.0958364 0.539415 -0.0041512)
(-0.0841799 0.527803 -0.0198883)
(-0.0617631 0.517805 -0.0278622)
(-0.0224149 0.514138 -0.0249671)
(0.0121005 0.526087 -0.0260155)
(0.0366819 0.554658 -0.0239455)
(0.0419183 0.596376 -0.00751465)
(0.0506675 0.611083 -0.00158813)
(0.0491675 0.585809 0.0298519)
(0.0349599 0.547554 0.0345424)
(0.0263893 0.395098 0.0420952)
(0.0251451 0.0358744 0.0484955)
(0.0157152 -0.00582522 0.0353621)
(-0.019102 -0.0235385 0.0275035)
(-0.0901523 -0.0321321 0.00646514)
(-0.10907 -0.0219792 -0.0148458)
(0.021092 0.0185143 0.00610297)
(0.0341207 0.0263936 0.010714)
(0.021268 0.0116973 0.00499277)
(0.0244343 0.0167066 0.00487654)
(0.0158736 0.00272687 0.000777307)
(0.011913 0.00659669 -0.00040231)
(0.00123642 -0.00239024 0.000909913)
(-0.00225581 0.00268746 0.00161271)
(-0.00332356 -0.000228535 0.00185307)
(-0.0038704 0.00131441 0.0027199)
(-0.00528416 8.51495e-05 0.00275286)
(-0.00605645 0.00108448 0.00350254)
(-0.00642703 0.00127661 0.00387369)
(-0.00536652 0.00216802 0.00477835)
(-0.00449791 0.00210048 0.00540841)
(-0.00401246 0.00208304 0.00592227)
(-0.00411082 0.00176474 0.00610418)
(-0.00455329 0.0016259 0.00610404)
(-0.00495043 0.00153265 0.00598274)
(-0.00524024 0.00152669 0.00581229)
(-0.00542559 0.00151953 0.00559698)
(-0.00556241 0.00149341 0.00536701)
(-0.00569146 0.00143412 0.00513846)
(-0.00582682 0.00136242 0.00494208)
(-0.00598894 0.00131123 0.00478978)
(-0.0060856 0.00128842 0.00464859)
(-0.0061387 0.0012654 0.00453005)
(-0.00615062 0.00123392 0.00445122)
(-0.00616866 0.00118515 0.00440504)
(-0.00623208 0.00114144 0.00438776)
(-0.00633777 0.00113401 0.00439133)
(-0.00646084 0.00117788 0.00439411)
(-0.00658979 0.00127886 0.0043776)
(-0.00670281 0.00141839 0.00433814)
(-0.00682397 0.00157572 0.00427289)
(-0.00697547 0.00174872 0.00418421)
(-0.00718636 0.00193864 0.00408292)
(-0.00745454 0.00213068 0.00397572)
(-0.00767465 0.00229147 0.00387586)
(-0.00770314 0.00227116 0.00382895)
(-0.00736638 0.00198282 0.00392801)
(-0.00638189 0.00122859 0.00421625)
(-0.00480682 -0.00025194 0.00449917)
(-0.00297799 -0.00224806 0.00467679)
(-0.00302977 -0.00448378 0.00378445)
(-0.005141 -0.00286381 0.00234828)
(-0.00609479 0.000533742 0.00232637)
(0.00109533 0.00540235 0.00683533)
(-0.00157438 0.00664379 0.0161107)
(-0.0376378 -0.0116317 0.0238919)
(-0.0470324 0.0197832 0.0294441)
(-0.0185494 0.0743167 0.0421227)
(0.00915407 0.110945 0.066851)
(0.0327416 0.147792 0.0833835)
(0.0495026 0.169188 0.0927229)
(0.0745902 0.171138 0.080217)
(0.108605 0.16768 0.0733237)
(0.03185 0.0366258 0.0786794)
(-0.172393 0.387099 0.127769)
(0.0286275 -0.0838461 0.0270543)
(0.0154351 0.630169 0.0416937)
(-0.0425914 0.708934 -0.0248992)
(-0.0285469 0.718701 -0.0301089)
(-0.0251501 0.759546 -0.0192881)
(-0.0091664 0.75888 -0.00581666)
(-0.00186021 0.773662 -0.000261632)
(0.0130478 0.77662 0.00660457)
(0.0286183 0.783143 0.0128123)
(0.0428532 0.783906 0.0182486)
(0.0473245 0.784194 0.0262584)
(0.0484088 0.779646 0.0326732)
(0.0397085 0.766519 0.040769)
(0.0267642 0.750209 0.0496227)
(0.00744845 0.725086 0.054332)
(-0.0163885 0.698193 0.0607545)
(-0.0384572 0.66981 0.0611954)
(-0.0612378 0.645276 0.0582208)
(-0.0749269 0.619285 0.0491015)
(-0.0794863 0.595673 0.0312778)
(-0.0744584 0.57715 0.00446682)
(-0.0675176 0.565918 -0.0145253)
(-0.0614635 0.56456 -0.025755)
(-0.0555343 0.578412 -0.0335385)
(-0.0453638 0.611695 -0.0432463)
(-0.0333888 0.665442 -0.0326341)
(-0.00290399 0.681011 -0.00059724)
(0.0285609 0.664962 0.0072013)
(0.053494 0.672423 0.00791178)
(0.0654216 0.65904 0.0206052)
(0.0567904 0.641619 0.0307014)
(0.033803 0.602417 0.0464529)
(0.0113675 0.56542 0.0457835)
(-0.0216729 0.515578 0.0363648)
(-0.0659006 0.460681 0.0132102)
(-0.111077 0.309363 0.00355124)
(-0.121431 0.0167849 -0.0109606)
(0.0164513 0.0117107 0.00645345)
(0.033242 0.0290876 0.0112265)
(0.0186213 0.0109364 0.00504703)
(0.0245664 0.0196673 0.00415364)
(0.017365 0.00221412 0.00104081)
(0.0125369 0.00569593 -9.49197e-05)
(0.00092406 -0.00345464 0.001735)
(-0.0046528 0.0026542 0.00150365)
(-0.00400835 -0.00120908 0.00298339)
(-0.00470793 0.00168892 0.00341745)
(-0.00554121 7.96945e-05 0.00335399)
(-0.00609892 0.00107982 0.0041706)
(-0.00626292 0.000372937 0.00472159)
(-0.00502322 0.000745859 0.00595192)
(-0.00423044 0.000388351 0.00687532)
(-0.00383574 0.000704277 0.00772822)
(-0.00395647 0.000860943 0.00813427)
(-0.00432962 0.00117781 0.0082291)
(-0.00466261 0.00139398 0.00812825)
(-0.00490404 0.00164819 0.00793514)
(-0.00507585 0.00186641 0.00766954)
(-0.00520478 0.00201507 0.00737643)
(-0.005314 0.00208978 0.00710369)
(-0.00541925 0.00211903 0.00685647)
(-0.00552828 0.00210731 0.00664002)
(-0.0055955 0.00207674 0.00645745)
(-0.00560781 0.00203886 0.00631721)
(-0.00558255 0.00198382 0.0062177)
(-0.00555972 0.00191062 0.00615368)
(-0.00558773 0.00184962 0.00611971)
(-0.00567158 0.00184143 0.00609936)
(-0.00578469 0.00189449 0.00606515)
(-0.0059102 0.00200324 0.0059999)
(-0.00600299 0.00213339 0.00590854)
(-0.00610447 0.00225559 0.00579371)
(-0.00623553 0.00235431 0.00566968)
(-0.00641559 0.00240309 0.00554185)
(-0.00662342 0.00235151 0.00542194)
(-0.00670862 0.00215002 0.00531581)
(-0.00652261 0.00167617 0.00529057)
(-0.00594357 0.000827995 0.00545047)
(-0.00458877 -0.000541501 0.00593572)
(-0.00272264 -0.00244662 0.00656385)
(-0.00118603 -0.00442984 0.0066587)
(-0.00235325 -0.00577506 0.00560805)
(-0.00624903 -0.00519867 0.00399531)
(-0.00867127 -0.00158034 0.00437634)
(-0.00368268 0.00115727 0.00861437)
(0.00290774 0.00636731 0.0144521)
(-0.027547 -0.0140869 0.0228145)
(-0.0596837 -0.017759 0.0281909)
(-0.0583733 -0.00605107 0.0377341)
(-0.035787 0.0124291 0.0374511)
(-0.0320305 0.0742941 0.0180272)
(-0.0129394 0.14208 -0.000827238)
(0.0617447 0.215309 -0.00803197)
(0.0931078 0.233463 -0.032244)
(0.0997408 0.178487 -0.0413411)
(0.0629664 0.459478 0.00227787)
(-0.0217049 -0.128419 0.0279305)
(-0.0729495 0.629671 -0.0101426)
(-0.0701149 0.716785 -0.0467326)
(-0.049537 0.725125 -0.040023)
(-0.0317573 0.75275 -0.0264347)
(-0.0142827 0.737395 -0.0144287)
(0.00245644 0.737101 -0.0182012)
(0.0145164 0.749569 -0.00933165)
(0.0313199 0.763965 -0.00415371)
(0.0417863 0.77677 0.00538914)
(0.0528478 0.786118 0.0145404)
(0.0530443 0.792696 0.0252045)
(0.0455606 0.788601 0.0333019)
(0.034815 0.777285 0.0384093)
(0.0187042 0.759075 0.0418264)
(-0.00133879 0.734872 0.050684)
(-0.0198777 0.707853 0.0495084)
(-0.0392056 0.68573 0.0422127)
(-0.056794 0.662997 0.0273359)
(-0.0669488 0.657368 0.00709573)
(-0.0677893 0.664848 -0.00790351)
(-0.063562 0.694421 -0.0129919)
(-0.0610625 0.720527 -0.00753136)
(-0.0598618 0.728416 -0.00129869)
(-0.043547 0.740321 0.00706503)
(-0.0143903 0.722926 0.0190419)
(0.0177518 0.711205 0.018312)
(0.0306289 0.697804 0.0196521)
(0.0452452 0.700245 0.0215047)
(0.0491595 0.696856 0.0224945)
(0.0456492 0.691768 0.033253)
(0.0268733 0.678668 0.0400099)
(0.00674916 0.644323 0.0391779)
(-0.0233787 0.61814 0.0309438)
(-0.061242 0.570242 0.00694163)
(-0.104856 0.537873 -0.0188631)
(-0.122311 0.47532 -0.0395752)
(0.00594745 0.00299002 0.0018035)
(0.0318849 0.0316884 0.0098031)
(0.0160991 0.00963221 0.00351583)
(0.0242917 0.0232142 0.00136479)
(0.0195234 0.00419577 -0.000763355)
(0.0134222 0.00579134 -0.00145677)
(-0.00122683 -0.0045858 -0.00354219)
(-0.0053745 0.00285507 -0.00285738)
(-0.00745715 -0.00181998 -0.000193535)
(-0.0077396 0.00227475 0.000395958)
(-0.00818881 3.47238e-05 0.000451748)
(-0.00858211 0.000929874 0.00132085)
(-0.00874923 -0.000386148 0.0019171)
(-0.00808049 -0.000213225 0.00286598)
(-0.00782035 -0.000526259 0.00360155)
(-0.00788411 -1.10978e-05 0.00438534)
(-0.00824873 0.000389944 0.00499837)
(-0.00870405 0.000916392 0.00537544)
(-0.00911888 0.00129784 0.00552172)
(-0.00943979 0.00168277 0.00551065)
(-0.00954002 0.00198757 0.00537283)
(-0.00949039 0.00220912 0.00519471)
(-0.00942876 0.0023527 0.00502571)
(-0.00936853 0.00243442 0.00487183)
(-0.00931132 0.00245873 0.00473112)
(-0.00922624 0.0024437 0.00460435)
(-0.0091103 0.00241076 0.00449763)
(-0.00897981 0.00237087 0.0044073)
(-0.00888384 0.00232711 0.00433782)
(-0.00890512 0.00229011 0.0042871)
(-0.00901189 0.00228715 0.00424611)
(-0.00912805 0.00232484 0.0041958)
(-0.00922398 0.00239519 0.00411873)
(-0.00924812 0.0024634 0.00401632)
(-0.00924951 0.00250431 0.00389964)
(-0.00923942 0.00250058 0.00378933)
(-0.00920923 0.00242979 0.00370388)
(-0.00914897 0.00227214 0.00364327)
(-0.00905254 0.00191079 0.00356407)
(-0.00872866 0.00114748 0.00354476)
(-0.00801187 -5.60566e-05 0.00367119)
(-0.00673453 -0.00173834 0.00398807)
(-0.00538073 -0.00353304 0.00429128)
(-0.00462483 -0.00542718 0.00400736)
(-0.00662327 -0.00610036 0.00270147)
(-0.0117777 -0.00560545 0.000313586)
(-0.0155118 -0.00240569 0.000782643)
(-0.0118498 -0.00132568 0.00317146)
(-0.000325613 0.00488655 0.0100657)
(-0.0213367 -0.0106997 0.0114583)
(-0.0600754 -0.014766 0.0175701)
(-0.0637776 -0.0068363 0.0251454)
(-0.0654252 0.0213791 0.00118258)
(-0.0704338 0.109601 -0.0206773)
(-0.00980091 0.1785 -0.000101008)
(0.0537377 0.212748 0.0205929)
(0.069141 0.239119 -0.0249947)
(0.110583 0.213961 -0.0315155)
(0.216716 0.585883 0.0444416)
(-0.0496698 -0.169037 0.0249586)
(-0.159175 0.632018 -0.0197934)
(-0.0871814 0.690376 -0.0182281)
(-0.0693743 0.661915 0.00284269)
(-0.0337846 0.673266 0.0157329)
(-0.0175569 0.632078 0.0116748)
(-0.00793754 0.620413 -0.0129723)
(-0.00177197 0.616481 -0.0225291)
(0.0199084 0.629816 -0.024571)
(0.0272566 0.651366 -0.0256668)
(0.0386246 0.678371 -0.0330374)
(0.0516059 0.717297 -0.0250611)
(0.0578887 0.74587 -0.0116983)
(0.0480964 0.754832 -0.00317464)
(0.0342081 0.756674 -0.00262419)
(0.0165114 0.752153 -3.22727e-05)
(-0.00724911 0.746416 0.0008204)
(-0.0283269 0.737694 -0.00433331)
(-0.0453456 0.733272 -0.00804349)
(-0.0604357 0.734043 -0.0116014)
(-0.0673448 0.732498 -0.0113052)
(-0.07034 0.722413 -0.0020902)
(-0.0613409 0.710568 0.0089179)