/*--------------------------------*- C++ -*----------------------------------*\
| =========                 |                                                 |
| \\      /  F ield         | OpenFOAM: The Open Source CFD Toolbox           |
|  \\    /   O peration     | Version:  2.3.0                                 |
|   \\  /    A nd           | Web:      www.OpenFOAM.org                      |
|    \\/     M anipulation  |                                                 |
\*---------------------------------------------------------------------------*/
FoamFile
{
    version     2.0;
    format      ascii;
    class       volVectorField;
    location    "39";
    object      U.water;
}
// * * * * * * * * * * * * * * * * * * * * * * * * * * * * * * * * * * * * * //

dimensions      [0 1 -1 0 0 0 0];

internalField   nonuniform List<vector> 
6144
(
(0.0107147 0.0185601 0.00113677)
(0.0112231 -0.00727009 -0.000326493)
(0.00410197 -0.00859552 -0.00217692)
(0.00331836 -0.00800618 -0.00245322)
(0.00215901 -0.00624534 -0.00246179)
(0.00282346 -0.00290127 -0.00243443)
(0.00287199 -0.00156432 -0.00195664)
(0.00261235 -0.000386771 -0.00126065)
(0.0018486 1.82034e-05 -0.000747709)
(0.0012989 0.00214257 4.35628e-05)
(0.000995978 0.00374393 0.000765816)
(0.00106604 0.00458083 0.00145525)
(0.00128531 0.00438212 0.00192071)
(0.00145627 0.00350118 0.00222961)
(0.00159631 0.00236931 0.00204025)
(0.00173388 0.00131074 0.00176922)
(0.00183302 0.000371277 0.00137447)
(0.00193033 -0.000318901 0.00103102)
(0.0020123 -0.000828835 0.000695954)
(0.00207384 -0.00107862 0.000401879)
(0.00212236 -0.00118248 0.000198386)
(0.00214699 -0.00116702 8.98995e-05)
(0.00214955 -0.00109237 5.14783e-05)
(0.00213123 -0.000983789 6.59587e-05)
(0.00209603 -0.000863426 0.000126523)
(0.00204921 -0.000750857 0.000224456)
(0.00199167 -0.000662085 0.000373265)
(0.00193141 -0.000601033 0.000538316)
(0.00187689 -0.00057857 0.000684545)
(0.00182272 -0.000592909 0.000810467)
(0.00177038 -0.0006171 0.000911337)
(0.00172086 -0.000634431 0.000994647)
(0.00167512 -0.000633581 0.00106974)
(0.00163175 -0.000624607 0.0011396)
(0.00158937 -0.000582537 0.00121184)
(0.00154257 -0.000551388 0.00128621)
(0.0014983 -0.000446932 0.00139591)
(0.00144145 -0.000495186 0.0014973)
(0.00139756 -0.000278707 0.0016727)
(0.00131914 -0.00062558 0.0017671)
(0.00128567 -0.00011881 0.0020071)
(0.00115987 -0.00100517 0.00205935)
(0.00116924 -5.931e-05 0.00229445)
(0.00101031 -0.00171467 0.0023089)
(0.00100655 0.000177113 0.00219215)
(0.000891468 -0.00200374 0.00193095)
(0.000769447 0.00188928 0.00116077)
(0.00102492 9.60805e-05 0.000999966)
(0.000606912 0.00601991 0.000237129)
(0.00202887 0.00232985 -0.000344973)
(0.00305848 0.0111711 -0.00123883)
(0.00812078 -0.00278907 -0.00268221)
(0.0123775 0.00551438 -0.00743098)
(0.00732261 -0.0141694 -0.00824806)
(0.00193975 0.013708 -0.0110087)
(0.00975339 -0.00265988 -0.0115977)
(0.0323995 0.0748704 0.0113278)
(0.00157967 -0.0919891 0.00237642)
(-0.0677522 0.100545 -0.131355)
(-0.0423734 -0.130949 -0.119586)
(0.0617902 -0.220716 0.00655852)
(0.0439118 -0.0229737 -0.00468862)
(0.0208598 -0.119705 -0.0211046)
(0.0202984 -0.103956 -0.0129823)
(0.0105251 -0.098873 -0.00775758)
(0.00179967 -0.0925244 -0.00562818)
(-0.000673209 -0.0755448 -0.00482664)
(-0.00537668 -0.0565613 -0.00593614)
(-0.0106662 -0.0277109 -0.0036688)
(-0.00670814 0.000757891 -0.0090812)
(-0.00261604 0.0211529 -0.00975924)
(0.00221608 0.0367583 -0.00814429)
(0.00505258 0.0463274 -0.00654902)
(0.0072378 0.04994 -0.00518466)
(0.00923265 0.0493381 -0.00427022)
(0.00910419 0.0458378 -0.00471549)
(0.00935351 0.0445855 -0.00571158)
(0.00980683 0.0424992 -0.0052612)
(0.0102911 0.0405714 -0.00556878)
(0.0109589 0.0376667 -0.00570812)
(0.0121307 0.0339778 -0.00605202)
(0.0133466 0.0288884 -0.00652096)
(0.0151364 0.0224592 -0.00699421)
(0.0174723 0.0140871 -0.00728684)
(0.0201869 0.00358568 -0.00646696)
(0.0215801 -0.0089131 -0.00652823)
(0.0215284 -0.0207637 -0.00702095)
(0.019792 -0.0309682 -0.00710064)
(0.0181796 -0.0378477 -0.00611655)
(0.0154906 -0.0427141 -0.00509246)
(0.012674 -0.0444869 -0.00471272)
(0.00899735 -0.0435605 -0.00420479)
(0.00558271 -0.0383015 -0.00337695)
(0.00398991 -0.0317186 -0.00254593)
(-0.000574036 -0.0197156 -0.00258366)
(-0.00547601 -0.00809487 -0.000710321)
(0.0211191 0.0173837 0.00361381)
(0.0225137 0.000985838 0.00312791)
(0.0103372 -0.00294577 -0.000883312)
(0.00955163 -0.00373123 -0.00119906)
(0.00564348 -0.00547206 -0.000901226)
(0.00554571 -0.00332437 -4.84082e-05)
(0.00411315 -0.00265003 0.00148152)
(0.00340765 -0.000723877 0.00228599)
(0.0017881 0.00037315 0.00220013)
(0.00102145 0.00352541 0.00236858)
(0.00115596 0.00524206 0.00290686)
(0.00178592 0.00602704 0.00371807)
(0.00246262 0.00563723 0.00424407)
(0.00292724 0.00479936 0.0045155)
(0.00315324 0.00354548 0.00448842)
(0.00333342 0.00237624 0.00438448)
(0.00340403 0.00129172 0.00422735)
(0.00350105 0.000471944 0.00410333)
(0.00355946 -0.000195925 0.00399771)
(0.00360516 -0.000597569 0.00389239)
(0.00365733 -0.000825875 0.00376822)
(0.00366616 -0.000914545 0.00371256)
(0.00363523 -0.00091847 0.0037169)
(0.00356817 -0.000869018 0.00376963)
(0.00347252 -0.000791514 0.00386134)
(0.00335753 -0.000709188 0.00398293)
(0.0032293 -0.000637444 0.0041241)
(0.00310361 -0.000584186 0.00425475)
(0.00300449 -0.000562311 0.00433631)
(0.00290836 -0.000568967 0.00440996)
(0.00280818 -0.000571071 0.00447692)
(0.00270893 -0.000563125 0.00454179)
(0.00261621 -0.000541886 0.0046058)
(0.00252387 -0.00052302 0.0046679)
(0.00242944 -0.000481563 0.00473034)
(0.0023258 -0.000465069 0.00479207)
(0.00224756 -0.000378749 0.00486596)
(0.00213287 -0.000449886 0.00492305)
(0.00210414 -0.000237604 0.00503168)
(0.00192499 -0.000620776 0.00506235)
(0.00199245 -0.000112368 0.00522501)
(0.00169382 -0.00110437 0.00517848)
(0.00194131 -6.17049e-05 0.0053513)
(0.00150623 -0.00190082 0.00522045)
(0.00172795 0.000418127 0.00529882)
(0.000844586 -0.00220127 0.0050284)
(0.000764278 0.00259113 0.00455447)
(0.000480229 -0.000452624 0.00442721)
(0.000508915 0.00646845 0.00397165)
(0.00276277 -0.00246771 0.00403404)
(0.00667637 0.00922908 0.00337572)
(0.0151267 -0.0125162 0.00163512)
(0.0183907 0.010526 -0.00435978)
(0.012129 -0.00123012 0.000319488)
(0.0173632 0.0234982 0.00804282)
(0.0160931 -0.046345 0.0081074)
(0.00637984 0.0133446 -0.00958863)
(-0.00212775 -0.00856588 -0.0429965)
(0.053307 0.173083 -0.0503201)
(0.112091 -0.119551 -0.0805107)
(0.111024 -0.220756 0.0470272)
(0.0640103 -0.0145911 0.0220052)
(0.0336182 -0.104805 -0.0164347)
(0.0215206 -0.0667536 0.0103251)
(-0.00316259 -0.0719102 0.0129685)
(-0.0166876 -0.0692129 0.00770052)
(-0.0208764 -0.0538348 0.0024983)
(-0.0206878 -0.0375983 -0.000827642)
(-0.021756 -0.0096169 -0.00260776)
(-0.020052 0.0208999 -0.00931847)
(-0.00949185 0.0354327 -0.00551872)
(-0.00055305 0.0496618 -0.00220535)
(0.00534398 0.0590695 0.00104535)
(0.00911854 0.0626142 0.00317612)
(0.011865 0.061665 0.0049613)
(0.0128706 0.0592053 0.00435732)
(0.0129346 0.0580706 0.00394231)
(0.0141608 0.0569815 0.00462662)
(0.0150144 0.0548063 0.00533979)
(0.0159366 0.0514979 0.00630946)
(0.0172439 0.0472305 0.00686342)
(0.0190244 0.0418213 0.00655662)
(0.0221223 0.035342 0.00550849)
(0.0266356 0.0269433 0.00378412)
(0.0314482 0.0152112 0.00183375)
(0.0333113 0.00133357 0.00109934)
(0.0328458 -0.0121221 0.00036674)
(0.0290632 -0.024342 0.00107426)
(0.0241837 -0.0330426 0.00211387)
(0.0186888 -0.0393843 0.00262461)
(0.0140252 -0.0418504 0.00220448)
(0.0088741 -0.0411517 0.00133934)
(0.00301372 -0.0350662 -0.000387749)
(-0.00321313 -0.0263033 -0.00105758)
(-0.00946266 -0.012581 -0.000828181)
(-0.0144378 -0.00415625 0.00165986)
(0.0251023 0.0181376 0.00467055)
(0.026191 0.00703069 0.00447723)
(0.015454 0.00247314 0.00171381)
(0.0132907 0.00198886 0.00198792)
(0.0069575 -0.00193565 0.00301271)
(0.00506896 -0.000359661 0.00308415)
(0.00196123 -0.0016012 0.00396306)
(0.000817804 -1.35713e-05 0.00402312)
(-0.00109497 0.000278291 0.00367567)
(-0.00150657 0.00312022 0.00362964)
(-0.000763684 0.00446361 0.00391144)
(0.000491516 0.00530532 0.00449252)
(0.00133659 0.00515144 0.0049391)
(0.00196098 0.00485228 0.00520779)
(0.0023337 0.00403878 0.00519186)
(0.00256547 0.00320176 0.00509393)
(0.00264382 0.00230238 0.00496612)
(0.00275506 0.00158178 0.00488334)
(0.00279435 0.000929636 0.00483206)
(0.00277014 0.000421649 0.00482294)
(0.002706 3.47772e-05 0.00484069)
(0.00262236 -0.000214187 0.00487933)
(0.00252257 -0.000371123 0.00492828)
(0.00240558 -0.000452897 0.00498853)
(0.00227532 -0.000487643 0.00505542)
(0.00213812 -0.000493313 0.00512378)
(0.00199899 -0.000487247 0.00519283)
(0.00185854 -0.000482264 0.00526048)
(0.00171314 -0.000474032 0.00532722)
(0.00155987 -0.000449493 0.00539003)
(0.00139732 -0.000405098 0.00545168)
(0.0012429 -0.000354854 0.00551467)
(0.00110581 -0.000305877 0.00557884)
(0.000973615 -0.000276038 0.00564263)
(0.000850295 -0.000239122 0.00570937)
(0.000719089 -0.000228228 0.00577231)
(0.000609041 -0.000169163 0.00583617)
(0.000456406 -0.000230027 0.00588662)
(0.000413036 -6.5268e-05 0.00597183)
(0.000189669 -0.000373031 0.00598685)
(0.000294776 8.43497e-05 0.00611631)
(-9.78934e-05 -0.000696331 0.00604487)
(0.000232985 0.000444133 0.00619884)
(-0.000455343 -0.000880977 0.00601421)
(-0.000151795 0.00163378 0.00606699)
(-0.00132582 -0.000335785 0.00581633)
(-0.0014163 0.00395254 0.00546434)
(-0.00137399 0.000168684 0.0057207)
(-0.000494396 0.00546182 0.00589234)
(0.00136953 -0.00533235 0.00626557)
(0.00947427 0.00329402 0.00634111)
(0.0134426 -0.0120915 0.00304775)
(0.0154109 0.0194321 -0.00102624)
(0.0106314 -0.00943058 0.00624128)
(0.0321034 -0.000705968 0.0114007)
(0.0336865 -0.0537567 0.0101342)
(-0.0165893 0.00873671 0.00833867)
(-0.0521754 -0.0751091 -0.0336892)
(-0.00872451 0.169181 -0.0808932)
(0.124017 -0.121102 -0.0451156)
(0.140496 -0.217788 0.0576566)
(0.0867775 0.00894258 0.0309933)
(0.0450956 -0.0953371 -0.00716229)
(0.0214729 -0.0411222 0.0164644)
(-0.0103057 -0.0562383 0.0169685)
(-0.0238333 -0.0457086 0.0123637)
(-0.0300068 -0.0356904 0.00813104)
(-0.0372532 -0.0174033 0.00215396)
(-0.0422089 0.0146911 -0.00852827)
(-0.0275673 0.0332616 -0.00910488)
(-0.0140293 0.0447044 -0.00285297)
(-0.00447398 0.0565559 0.00231052)
(0.00165836 0.0652242 0.00665656)
(0.0050305 0.0683984 0.00960794)
(0.00734314 0.0677266 0.0117084)
(0.00861214 0.0666825 0.0115791)
(0.00885629 0.0664402 0.0110939)
(0.00972208 0.066076 0.0117181)
(0.0103307 0.0641467 0.0131107)
(0.0105942 0.0608015 0.0143665)
(0.0111878 0.0566218 0.0150091)
(0.0126278 0.0514889 0.0139233)
(0.016419 0.0454422 0.0109597)
(0.0236113 0.0378784 0.0060274)
(0.0332783 0.0280016 0.0013975)
(0.0370481 0.0140236 0.000635075)
(0.0370324 -0.000614149 0.000882996)
(0.0306714 -0.0163118 0.00405421)
(0.0236647 -0.0297377 0.00571638)
(0.016481 -0.0386433 0.00749182)
(0.00877023 -0.0443309 0.0103847)
(0.00164868 -0.0472943 0.0107518)
(-0.0045041 -0.0428574 0.00837448)
(-0.00910136 -0.0343467 0.00403309)
(-0.0151344 -0.0172604 -0.000565973)
(-0.023554 -0.0048298 0.00278724)
(0.0268556 0.020424 0.0046938)
(0.0282797 0.0122182 0.00439889)
(0.0177253 0.00759903 0.000554096)
(0.0152935 0.0073928 0.0011813)
(0.0079446 0.00213419 0.00283314)
(0.00533755 0.00241998 0.00333238)
(0.00134986 -0.000519472 0.00458823)
(-0.000495352 0.00035619 0.00447443)
(-0.00306048 -0.000560511 0.00424666)
(-0.00354996 0.00173037 0.00393178)
(-0.00246009 0.0027248 0.00417234)
(-0.000998138 0.00386681 0.00477574)
(-6.30232e-05 0.00423434 0.00519495)
(0.000641064 0.00444462 0.00548122)
(0.00108114 0.00404393 0.00546717)
(0.00135042 0.00349484 0.00539009)
(0.00139791 0.002731 0.00529202)
(0.00145501 0.00209324 0.00524321)
(0.00145778 0.00149349 0.00520892)
(0.00141015 0.000996091 0.00519628)
(0.00130427 0.000558069 0.00518977)
(0.0011711 0.00021769 0.0052041)
(0.00102045 -4.38073e-05 0.00523231)
(0.000857737 -0.000226052 0.0052742)
(0.000692093 -0.000343585 0.00532534)
(0.000531979 -0.00040607 0.00538086)
(0.000381389 -0.00042786 0.00543581)
(0.000238981 -0.000421124 0.00548461)
(9.80706e-05 -0.000395615 0.00552495)
(-5.34172e-05 -0.000356105 0.00556376)
(-0.000205067 -0.000306802 0.00560828)
(-0.000340402 -0.000257626 0.00565951)
(-0.000458965 -0.000204772 0.00571353)
(-0.000574873 -0.000156042 0.00576546)
(-0.000685705 -9.94987e-05 0.00581019)
(-0.000799155 -7.5851e-05 0.00584743)
(-0.000890853 -1.9204e-05 0.00588236)
(-0.00100947 -6.94224e-05 0.0059055)
(-0.00102921 5.58986e-05 0.0059576)
(-0.001213 -0.000187615 0.00595301)
(-0.00110899 0.00025396 0.00604996)
(-0.00150883 -0.000278385 0.00595829)
(-0.00126777 0.000937548 0.00601555)
(-0.00197426 7.81846e-05 0.00583854)
(-0.00187633 0.0024934 0.00571373)
(-0.00272239 0.000681816 0.00559039)
(-0.0027035 0.00427837 0.00507893)
(-0.00209383 -0.00044354 0.00522199)
(-0.000196712 0.00468095 0.00567429)
(0.00139107 -0.00585677 0.00631391)
(0.00791584 -0.000442634 0.00579138)
(0.00734154 -0.0100189 0.000800585)
(0.0236127 0.0112265 0.00902667)
(0.0313676 -0.0304389 0.0187747)
(0.0313849 -0.0210718 0.0118375)
(0.0171002 -0.0740385 0.0111363)
(-0.0248061 0.0109285 0.0131887)
(-0.0772414 -0.112583 -0.0159704)
(0.0378431 0.202851 -0.125935)
(0.143186 -0.149951 -0.0177849)
(0.16124 -0.224592 0.0605846)
(0.0879191 0.0489852 0.0202379)
(0.0464014 -0.091387 -0.0127954)
(0.0169209 0.00240249 0.00541964)
(-0.0294046 -0.032746 0.00885194)
(-0.0339428 -0.00913546 0.00889447)
(-0.0494453 -0.00497123 0.00274407)
(-0.0552954 0.0193763 -0.00808553)
(-0.0441992 0.0380574 -0.0116887)
(-0.0279804 0.0450241 -0.00637529)
(-0.0176677 0.0560447 0.000322098)
(-0.010319 0.0656113 0.00625825)
(-0.00620303 0.0729736 0.010526)
(-0.00444494 0.0759582 0.0135992)
(-0.00333732 0.0759312 0.0158401)
(-0.00183164 0.0755555 0.0160418)
(-0.00122937 0.0751158 0.015265)
(-1.60107e-05 0.0738841 0.0161459)
(0.00052726 0.0709286 0.017011)
(0.00060647 0.0665742 0.0177838)
(0.00104103 0.061181 0.0168376)
(0.00315588 0.0549518 0.013373)
(0.00956031 0.0485081 0.00825335)
(0.0217301 0.0413975 0.00147312)
(0.0381644 0.0345273 -0.00634732)
(0.0495153 0.0286019 -0.0111416)
(0.0497461 0.0153309 -0.0114176)
(0.0388329 -0.00098647 -0.00943676)
(0.0246285 -0.0173844 -0.00524221)
(0.0103481 -0.0327619 0.00176537)
(-0.0017366 -0.0428956 0.0080632)
(-0.0139091 -0.0497006 0.0143516)
(-0.0235805 -0.0484351 0.0151421)
(-0.0288958 -0.0413449 0.00963778)
(-0.0323091 -0.0242714 0.00294113)
(-0.0338288 -0.00512896 0.000308624)
(0.0282381 0.023261 0.00464738)
(0.0299305 0.0175601 0.00375232)
(0.0204538 0.0130516 -3.20979e-06)
(0.0199284 0.0126778 -0.000484723)
(0.0110234 0.00538163 -0.000483039)
(0.00756422 0.00417039 0.000712744)
(0.00128621 -0.000728879 0.00305671)
(-0.00105624 0.000590904 0.00344336)
(-0.00423355 -0.00153634 0.00399709)
(-0.00532687 0.000517299 0.00390924)
(-0.00453802 0.00131666 0.00414213)
(-0.00329254 0.00278736 0.00477988)
(-0.00241454 0.00346834 0.0051152)
(-0.00152367 0.00397724 0.00544687)
(-0.000932638 0.00383351 0.00541037)
(-0.000632531 0.00342853 0.00534959)
(-0.000678231 0.00278029 0.0052652)
(-0.000780707 0.00222909 0.00524323)
(-0.00092035 0.00170372 0.00521142)
(-0.00105793 0.00124513 0.00517834)
(-0.00121876 0.000804979 0.00513818)
(-0.00137994 0.000427799 0.00511104)
(-0.00153933 0.000112403 0.00509974)
(-0.00170361 -0.000126949 0.00510186)
(-0.00187361 -0.000296596 0.00511149)
(-0.00203204 -0.000399866 0.00512635)
(-0.00217083 -0.000450163 0.00514454)
(-0.00229012 -0.000461563 0.00515986)
(-0.0024047 -0.000446457 0.00516597)
(-0.00252723 -0.00040916 0.00516647)
(-0.00265324 -0.000356386 0.00517317)
(-0.00276906 -0.000302411 0.00518238)
(-0.00287072 -0.000244059 0.00519332)
(-0.00296839 -0.000189103 0.00520489)
(-0.00305896 -0.00012302 0.00521617)
(-0.0031458 -8.56341e-05 0.00522001)
(-0.00321229 -1.87029e-05 0.00522462)
(-0.00330438 -3.74899e-05 0.00521987)
(-0.0033179 0.000104116 0.00523659)
(-0.00349787 -9.04228e-06 0.00519995)
(-0.00345503 0.000487554 0.00522099)
(-0.00386977 0.000252852 0.00509364)
(-0.00383875 0.00152593 0.00500572)
(-0.00446097 0.00103857 0.0048004)
(-0.0044358 0.00312758 0.00452567)
(-0.00476074 0.00120366 0.00434717)
(-0.00404982 0.00420097 0.00387498)
(-0.00318329 -0.00108623 0.00370284)
(-0.000856587 0.00284711 0.00411386)
(0.00189728 -0.00578917 0.00569733)
(0.00672679 -0.00167556 0.00467211)
(0.00918686 -0.0113512 0.0059305)
(0.0319891 -0.00530734 0.0233791)
(0.041243 -0.0384603 0.0264595)
(0.0420301 -0.0298928 0.0013495)
(0.0203453 -0.0870478 -0.00245788)
(-0.0272892 -0.0290397 0.0165236)
(-0.10695 -0.142307 0.0297486)
(0.0171394 0.141968 -0.144626)
(0.122101 -0.150934 0.0128774)
(0.16037 -0.20676 0.0710878)
(0.0805538 0.0983468 2.90188e-05)
(0.0620403 -0.084263 -0.00401069)
(-0.0193717 0.064695 -0.0119207)
(-0.0301852 -0.00959566 0.000716898)
(-0.0514637 0.0336593 -0.00551505)
(-0.0574077 0.0287898 -0.0108866)
(-0.0527308 0.0453166 -0.0138636)
(-0.0374808 0.0488386 -0.00899165)
(-0.0280218 0.0581164 -0.002021)
(-0.0217286 0.0666059 0.00450429)
(-0.0180222 0.0758233 0.00993909)
(-0.0160358 0.0818373 0.0134035)
(-0.0158872 0.084583 0.0161499)
(-0.0150235 0.0843678 0.0185496)
(-0.0129565 0.082578 0.018706)
(-0.0117343 0.0790989 0.0174059)
(-0.00970388 0.0752299 0.0186241)
(-0.0084171 0.0685642 0.018906)
(-0.00739077 0.0613666 0.0191512)
(-0.00557214 0.05347 0.0174362)
(-7.09619e-05 0.0451521 0.0140083)
(0.0119915 0.0376948 0.00948239)
(0.0294206 0.0309001 0.00329937)
(0.0512107 0.0264137 -0.00444022)
(0.0666275 0.0264428 -0.0100859)
(0.0725787 0.0196055 -0.0132944)
(0.0623951 0.00720583 -0.0160499)
(0.0441318 -0.00847052 -0.018)
(0.0200659 -0.0235669 -0.0166109)
(-0.00242209 -0.0384731 -0.0109938)
(-0.0259895 -0.048464 0.000719728)
(-0.0404958 -0.0490776 0.0152168)
(-0.0455915 -0.0420963 0.0138039)
(-0.04777 -0.0275442 0.00287918)
(-0.0521309 -0.00995098 0.00234017)
(0.0281103 0.0252921 0.00791274)
(0.0314538 0.0223231 0.00490073)
(0.0228724 0.0178951 0.00128372)
(0.0245892 0.0178906 0.000430884)
(0.0172222 0.00931998 -0.0023688)
(0.0132029 0.0075714 -0.00162665)
(0.00301881 -0.000984163 -0.000585916)
(-0.00121454 0.000691799 0.000634239)
(-0.00516851 -0.00267632 0.00208821)
(-0.007382 -0.00105189 0.00288969)
(-0.0064672 -0.00041356 0.00333406)
(-0.00496402 0.00142509 0.00426814)
(-0.00361191 0.00246849 0.00470416)
(-0.00241438 0.00328858 0.00528394)
(-0.00155859 0.00326016 0.00544397)
(-0.00115207 0.00293234 0.00555178)
(-0.00125924 0.00231258 0.00548854)
(-0.00148569 0.0018695 0.0054582)
(-0.00171797 0.00149931 0.00539238)
(-0.0019223 0.00121454 0.00530429)
(-0.002131 0.000921286 0.00518124)
(-0.00234018 0.000639208 0.00505918)
(-0.00255235 0.000380389 0.00494703)
(-0.00274682 0.000162161 0.00484825)
(-0.00292081 3.08814e-06 0.00475934)
(-0.00306256 -9.2055e-05 0.00467476)
(-0.00317495 -0.000140742 0.00459386)
(-0.00326499 -0.000156982 0.00451551)
(-0.00335608 -0.000159425 0.0044441)
(-0.00346365 -0.000151152 0.00438501)
(-0.0035653 -0.000124832 0.00434473)
(-0.00365113 -8.58574e-05 0.0043159)
(-0.00372095 -3.08694e-05 0.00429393)
(-0.003788 3.13298e-05 0.00427614)
(-0.0038451 0.000113753 0.00425861)
(-0.00389781 0.000171032 0.00423433)
(-0.00392691 0.000262416 0.00421381)
(-0.00398738 0.000288416 0.0041796)
(-0.00399147 0.000469105 0.00416251)
(-0.00415933 0.000463959 0.00409597)
(-0.00419848 0.00101576 0.00405319)
(-0.00463175 0.000968325 0.00385506)
(-0.00480214 0.0021836 0.00364622)
(-0.00510359 0.00167755 0.00341224)
(-0.00488211 0.00343453 0.00319563)
(-0.00444023 0.00139126 0.00331136)
(-0.00298823 0.00438224 0.00317953)
(-0.00161248 -0.000162914 0.00335572)
(0.000902846 0.00407841 0.00387983)
(0.0026581 -0.00370368 0.00600175)
(0.00832424 0.00486464 0.00888302)
(0.0126897 -0.009244 0.017703)
(0.0299315 0.00406834 0.0354413)
(0.0365738 -0.00563051 0.0331106)
(0.0464068 0.0238322 0.0399325)
(0.0123716 -0.0342255 0.0378004)
(-0.044226 0.0245257 0.0674253)
(-0.146478 -0.104413 0.0616728)
(0.0258242 0.105968 -0.156919)
(0.106507 -0.177242 0.027366)
(0.14431 -0.180968 0.0759639)
(0.0589163 0.101126 -0.018554)
(0.0410609 0.0173885 -0.00719457)
(-0.0172113 0.0806753 -0.0112466)
(-0.0213568 0.0510398 -0.00924613)
(-0.0423853 0.0655745 -0.0117809)
(-0.0442877 0.0636976 -0.0113668)
(-0.0401758 0.072567 -0.00721708)
(-0.033926 0.0755818 -0.00134885)
(-0.0313428 0.0851085 0.00471718)
(-0.0288805 0.091919 0.00966292)
(-0.0278031 0.0992886 0.0129454)
(-0.0263447 0.10201 0.0153226)
(-0.0249503 0.101391 0.017598)
(-0.0240082 0.0974291 0.0189224)
(-0.0204845 0.0905692 0.018044)
(-0.0170121 0.0821644 0.0171624)
(-0.0128602 0.0727681 0.0180372)
(-0.00941758 0.0601478 0.0179592)
(-0.00632042 0.0468569 0.0175098)
(-0.00201646 0.0342712 0.0157376)
(0.00410039 0.0229406 0.0121774)
(0.0147667 0.015943 0.00842994)
(0.0294715 0.0106723 0.00463269)
(0.0491325 0.00960082 -0.000691221)
(0.0737572 0.0133448 -0.00660411)
(0.0850226 0.0161856 -0.00895625)
(0.0846382 0.0102861 -0.0120992)
(0.0702508 -0.00213262 -0.0173652)
(0.0463987 -0.0157293 -0.0199968)
(0.0170838 -0.0340417 -0.0153447)
(-0.0244843 -0.0469736 -0.0217572)
(-0.0578649 -0.0517748 0.000693634)
(-0.0683838 -0.0423933 0.0139172)
(-0.0672526 -0.0290249 0.00875737)
(-0.0627251 -0.00695237 -0.00534642)
(0.0253506 0.0263739 0.00964032)
(0.0308359 0.0265523 0.00821537)
(0.0224631 0.0210142 0.00451355)
(0.0252557 0.0208952 0.00442016)
(0.0208995 0.010825 4.02816e-05)
(0.0189283 0.0102397 0.000145475)
(0.00716232 -0.000954744 -0.00308408)
(0.000222525 0.000514518 -0.00153878)
(-0.00426512 -0.00310727 0.000229871)
(-0.00773965 -0.00194819 0.00181054)
(-0.00798022 -0.00192106 0.00245203)
(-0.00732072 0.000406562 0.00370633)
(-0.00639228 0.00164899 0.00433758)
(-0.00485314 0.00236442 0.00534347)
(-0.0037572 0.00237811 0.00593237)
(-0.00329605 0.00219343 0.00634938)
(-0.0035739 0.00171276 0.00637406)
(-0.00413815 0.00139776 0.00626609)
(-0.00462647 0.001184 0.00608146)
(-0.00495732 0.00109193 0.0058757)
(-0.00517489 0.00100541 0.0056302)
(-0.00534849 0.000922459 0.0053952)
(-0.00548728 0.000831688 0.00518)
(-0.00562003 0.000746997 0.00500288)
(-0.00576305 0.000695371 0.00487191)
(-0.00586087 0.000667166 0.00473602)
(-0.00591201 0.000649693 0.00461277)
(-0.00591346 0.000640038 0.00451832)
(-0.00590889 0.000621123 0.00445641)
(-0.00593537 0.000601027 0.00441695)
(-0.00597994 0.000600981 0.00439801)
(-0.00601981 0.000617779 0.00438977)
(-0.00605131 0.000654886 0.00438854)
(-0.00608242 0.000711178 0.00439055)
(-0.00609373 0.000798025 0.00439335)
(-0.00608471 0.00087844 0.00439507)
(-0.00607334 0.000992924 0.00438931)
(-0.00608348 0.00108078 0.00436558)
(-0.006097 0.00129679 0.00434167)
(-0.00623499 0.00137999 0.00429157)
(-0.00640653 0.0019315 0.00421738)
(-0.00667751 0.00188719 0.00407288)
(-0.00689333 0.00289183 0.0038522)
(-0.00673501 0.00208254 0.00363505)
(-0.00650044 0.00360128 0.0033725)
(-0.00585366 0.00145515 0.00336445)
(-0.004274 0.00462818 0.00346002)
(-0.00304223 0.000892284 0.00409378)
(-0.000567547 0.00562095 0.00447751)
(0.00043239 -0.000514392 0.00555392)
(0.00565673 0.00926551 0.00685107)
(0.00601707 0.00486934 0.00659651)
(0.00489146 0.022761 0.0205448)
(0.00352048 0.0138624 0.0445792)
(0.0297904 0.045604 0.068904)
(0.0346318 -0.00426168 0.0965521)
(0.0211119 0.00674822 0.176906)
(-0.115792 -0.134202 0.116565)
(0.024452 0.0394264 -0.119649)
(0.0670174 -0.217355 0.0437224)
(0.0947763 -0.126146 0.0732168)
(0.0322609 0.129021 -0.0258822)
(0.0344581 0.0576542 -0.0056978)
(-0.00119356 0.111269 -0.00798491)
(-0.0189104 0.10235 -0.00490318)
(-0.0326486 0.111974 -0.0045346)
(-0.0370688 0.111421 -0.00228678)
(-0.0370286 0.115689 0.00176839)
(-0.0352723 0.115224 0.00528746)
(-0.0349331 0.119202 0.00809749)
(-0.0338019 0.119747 0.010459)
(-0.0331815 0.120249 0.0111635)
(-0.0314776 0.116675 0.0117611)
(-0.0292422 0.110123 0.0133163)
(-0.0258236 0.102454 0.0156476)
(-0.0209511 0.0907182 0.015075)
(-0.0159266 0.0809527 0.0146677)
(-0.0097122 0.0672111 0.0155691)
(-0.00336143 0.0521672 0.0151406)
(0.00124321 0.0369391 0.0145779)
(0.00422089 0.0205944 0.0113022)
(0.0082399 0.00949104 0.00574595)
(0.0212566 0.00471202 0.00343718)
(0.0380559 0.00191107 0.00187724)
(0.0565719 0.00268641 -0.000489178)
(0.0770903 0.00609762 -0.00203711)
(0.093536 0.0107329 -0.00342621)
(0.0965509 0.0113402 -0.00607822)
(0.088175 0.00409603 -0.0138649)
(0.0692918 -0.00620997 -0.0173024)
(0.0433988 -0.0213862 -0.0136526)
(-0.0034383 -0.0427303 -0.0234676)
(-0.0574603 -0.0421263 -0.018281)
(-0.0823441 -0.0380573 0.000306248)
(-0.0862999 -0.0320064 0.00231126)
(-0.0834549 -0.0119508 -0.00453147)
(0.0251911 0.0252006 0.0108211)
(0.0285892 0.0310273 0.00944683)
(0.0198401 0.0243009 0.00619872)
(0.0244756 0.0245089 0.00735685)
(0.020504 0.0122694 0.0029971)
(0.0206229 0.0120556 0.00352478)
(0.0106822 -0.000368599 -0.00294019)
(6.09364e-05 -0.000129686 -0.00311235)
(-0.00488935 -0.00362565 -0.000866871)
(-0.00868265 -0.00186666 0.000835276)
(-0.00959125 -0.0028255 0.00163169)
(-0.00913499 -0.00116752 0.00315136)
(-0.00667719 -0.000851909 0.00452834)
(-0.00464894 -0.000295223 0.0059175)
(-0.00351629 -0.000217662 0.00691552)
(-0.00318231 0.000134281 0.00777693)
(-0.00338819 0.000415139 0.00822145)
(-0.00387155 0.000728915 0.00831703)
(-0.00431773 0.000971234 0.0081902)
(-0.00463605 0.00123931 0.0079628)
(-0.00487562 0.00141841 0.00765206)
(-0.0050628 0.00150159 0.00734458)
(-0.00521002 0.00152981 0.00706265)
(-0.00533675 0.00152893 0.00681042)
(-0.00545172 0.00150732 0.00659429)
(-0.00551519 0.00147924 0.00641882)
(-0.00553436 0.00144848 0.00626614)
(-0.0055055 0.0014011 0.00615101)
(-0.00547319 0.00133029 0.00606806)
(-0.00546879 0.00127589 0.00602086)
(-0.00548107 0.00125797 0.00599717)
(-0.0054891 0.00127187 0.00598278)
(-0.00549926 0.00131188 0.00596723)
(-0.00552559 0.00137556 0.00593953)
(-0.00554225 0.00146974 0.00589674)
(-0.00553821 0.0015599 0.00584108)
(-0.00554052 0.00168093 0.00577253)
(-0.00555131 0.0017914 0.00569255)
(-0.00558462 0.00200154 0.0056136)
(-0.00571053 0.00208423 0.00551305)
(-0.00590079 0.00253461 0.00539532)
(-0.00600036 0.00233493 0.00521686)
(-0.00616038 0.00314789 0.00505276)
(-0.00567756 0.00204658 0.0048713)
(-0.00535028 0.00353161 0.00479154)
(-0.00479789 0.00123784 0.0047376)
(-0.00367002 0.00458416 0.00487192)
(-0.00311391 0.00205029 0.00548777)
(-0.00231383 0.00773748 0.0048805)
(-0.00191287 0.00452586 0.00368404)
(-0.00173307 0.0157814 0.00199493)
(-0.000870026 0.0108016 -0.00147677)
(-0.000363986 0.0185875 0.00372122)
(-0.00543899 -0.00798233 0.0154676)
(-0.00372481 -0.00877549 0.0501591)
(0.0153416 -0.0371532 0.0930979)
(0.0320481 -0.0292075 0.153196)
(-0.0171887 -0.127875 0.13097)
(0.0221118 -0.0162074 -0.0978819)
(0.0235209 -0.231465 0.0508971)
(0.0382626 -0.0738257 0.0716062)
(0.0115347 0.132292 -0.0182902)
(0.00681139 0.0940754 0.000238387)
(-0.00643867 0.140624 -0.00160909)
(-0.0200081 0.140905 -0.000589589)
(-0.0251386 0.145347 0.000281786)
(-0.0294662 0.142929 0.00129994)
(-0.0308704 0.141322 0.00315428)
(-0.0320511 0.136313 0.00430451)
(-0.0330014 0.133926 0.00644732)
(-0.0335501 0.129505 0.00759051)
(-0.0321285 0.124904 0.00795718)
(-0.0307768 0.117063 0.00822234)
(-0.0284762 0.107606 0.00900827)
(-0.0229786 0.0973365 0.0101122)
(-0.0173175 0.085717 0.0100638)
(-0.00952989 0.076428 0.0123158)
(0.000706417 0.0645937 0.0158267)
(0.0104431 0.0525925 0.017634)
(0.017904 0.039317 0.0187652)
(0.0242914 0.0232119 0.0175346)
(0.0295965 0.00440291 0.014235)
(0.0371761 -0.00746536 0.00996611)
(0.0507423 -0.0136395 0.00630468)
(0.0654565 -0.012845 0.00440772)
(0.0815222 -0.00649403 0.00659427)
(0.0974003 0.000179446 0.0119144)
(0.102887 0.00719842 0.0136286)
(0.0987712 0.00712965 0.00974926)
(0.0815293 0.00770048 0.000516018)
(0.0549951 -0.00179336 -0.00394916)
(0.0179613 -0.00807487 -0.00176737)
(-0.0549564 -0.0231468 -0.0135948)
(-0.0868264 -0.0170836 -0.00175766)
(-0.099607 -0.0128126 -0.00394421)
(-0.101406 -0.00918337 -0.0351821)
(0.00736445 0.0251454 -0.00128026)
(0.0249432 0.031734 0.00740526)
(0.0148387 0.0279243 0.00455583)
(0.0223717 0.0303358 0.00672143)
(0.0182385 0.0158822 0.00394016)
(0.0193069 0.0147296 0.00574116)
(0.0135328 0.00121022 -0.000844097)
(0.00205683 0.000781768 -0.00760524)
(-0.00560753 -0.00370069 -0.00564546)
(-0.00834089 -0.00119745 -0.00337786)
(-0.00949473 -0.00324764 -0.00221136)
(-0.00945783 -0.00261633 -0.000982432)
(-0.0087197 -0.00330215 0.000417241)
(-0.00764348 -0.00268222 0.00194035)
(-0.0071649 -0.00216056 0.00308365)
(-0.0072643 -0.00123333 0.0041103)
(-0.00782687 -0.000436889 0.00490611)
(-0.00843261 0.000279727 0.00537927)
(-0.00896471 0.000807406 0.00553878)
(-0.00929211 0.00124253 0.00550024)
(-0.00928061 0.00153359 0.00534958)
(-0.00923824 0.00172015 0.00517416)
(-0.00918623 0.00182626 0.0050033)
(-0.0091302 0.00187935 0.00484438)
(-0.00906786 0.00188881 0.0046998)
(-0.00897468 0.00186944 0.00457171)
(-0.00886116 0.00183714 0.00445502)
(-0.00870957 0.00179342 0.0043561)
(-0.00859949 0.00173736 0.00427391)
(-0.0085901 0.00168895 0.00421861)
(-0.00860728 0.0016657 0.00418242)
(-0.00861291 0.00167339 0.00415901)
(-0.00860963 0.0017035 0.00413855)
(-0.0086062 0.00176424 0.00410752)
(-0.00857007 0.00185835 0.00405455)
(-0.00850731 0.00193872 0.00398366)
(-0.00847539 0.00205241 0.00388791)
(-0.00844667 0.00217378 0.00377748)
(-0.00845727 0.0024006 0.00366894)
(-0.008488 0.00254603 0.00356672)
(-0.00873611 0.00302435 0.00345083)
(-0.0086613 0.00267026 0.00331448)
(-0.00887323 0.0033106 0.00321604)
(-0.0083018 0.00190034 0.00300759)
(-0.00816293 0.00327931 0.00296571)
(-0.0079041 0.000930728 0.00279103)
(-0.00774598 0.00419853 0.00269051)
(-0.00824054 0.00198318 0.00334662)
(-0.00840391 0.00752086 0.00286691)
(-0.00753918 0.0030982 0.00260551)
(-0.00290718 0.011682 0.00595655)
(0.0150415 -0.00603385 0.0116115)
(0.0150698 -0.00136374 0.00707349)
(0.00729327 -0.0215865 0.00403533)
(-0.0174308 -0.0238927 0.0367295)
(-0.0260085 -0.063038 0.0745234)
(-3.65282e-05 -0.0569049 0.133198)
(0.0126219 -0.152834 0.151251)
(-0.00590713 0.0193172 -0.107034)
(-0.0225564 -0.214124 0.0454676)
(-0.0311592 -0.102247 0.066781)
(-0.0145868 0.13608 -0.0214998)
(-0.0263079 0.0824268 -0.00121646)