/*--------------------------------*- C++ -*----------------------------------*\
| =========                 |                                                 |
| \\      /  F ield         | OpenFOAM: The Open Source CFD Toolbox           |
|  \\    /   O peration     | Version:  2.3.0                                 |
|   \\  /    A nd           | Web:      www.OpenFOAM.org                      |
|    \\/     M anipulation  |                                                 |
\*---------------------------------------------------------------------------*/
FoamFile
{
    version     2.0;
    format      ascii;
    class       volVectorField;
    location    "39";
    object      Ur;
}
// * * * * * * * * * * * * * * * * * * * * * * * * * * * * * * * * * * * * * //

dimensions      [0 1 -1 0 0 0 0];

internalField   nonuniform List<vector> 
6144
(
(-1.89416e-07 0.000320661 7.00307e-08)
(-2.98214e-07 0.000345895 4.44897e-08)
(-1.95235e-07 0.000371966 5.96868e-08)
(-2.20119e-07 0.000391579 4.4748e-08)
(-2.58235e-07 0.000412301 3.25372e-08)
(-3.08899e-07 0.00043902 6.47334e-09)
(-3.5367e-07 0.000475314 -2.56393e-08)
(-3.88086e-07 0.000517636 -3.74402e-08)
(-3.94242e-07 0.000548223 -3.09235e-08)
(-3.78418e-07 0.000558578 -4.60797e-08)
(-3.52924e-07 0.000560129 -5.30159e-08)
(-3.23693e-07 0.00056103 -2.62284e-08)
(-2.94468e-07 0.000561843 -1.11689e-08)
(-2.59706e-07 0.000562533 2.51338e-09)
(-2.24473e-07 0.000563094 4.33559e-09)
(-1.92973e-07 0.000563551 -3.3894e-10)
(-1.66984e-07 0.000563923 -7.57768e-09)
(-1.43351e-07 0.000564247 -1.27641e-08)
(-1.2702e-07 0.000564519 -1.88986e-08)
(-1.09897e-07 0.000564745 -2.19364e-08)
(-1.00331e-07 0.00056493 -2.75766e-08)
(-8.73742e-08 0.000565082 -2.7803e-08)
(-8.17599e-08 0.000565204 -2.85816e-08)
(-7.14403e-08 0.000565299 -2.51717e-08)
(-6.80998e-08 0.000565369 -2.32598e-08)
(-5.9633e-08 0.000565416 -1.96675e-08)
(-5.77632e-08 0.000565448 -1.78402e-08)
(-5.05976e-08 0.000565471 -1.40043e-08)
(-4.97283e-08 0.000565487 -1.32529e-08)
(-4.37875e-08 0.000565493 -1.07283e-08)
(-4.31901e-08 0.000565492 -1.10571e-08)
(-3.73162e-08 0.000565485 -8.89061e-09)
(-3.65852e-08 0.000565475 -8.94509e-09)
(-3.09569e-08 0.000565462 -6.7758e-09)
(-3.00168e-08 0.000565448 -6.67152e-09)
(-2.4782e-08 0.000565427 -5.31046e-09)
(-2.36717e-08 0.000565406 -4.02325e-09)
(-1.94474e-08 0.00056537 -3.53562e-09)
(-1.88217e-08 0.000565331 -1.16373e-09)
(-1.50022e-08 0.000565271 -6.6201e-10)
(-1.60832e-08 0.000565219 6.20349e-10)
(-8.93383e-09 0.000565164 -2.96429e-09)
(-2.34862e-08 0.000565112 -8.59686e-09)
(-1.69053e-08 0.000565098 -1.37698e-08)
(-3.74505e-08 0.000565059 -2.70371e-08)
(-3.80801e-08 0.000565157 -2.27296e-08)
(-8.3621e-08 0.000565104 -2.93024e-08)
(-9.92164e-08 0.000566272 -4.02809e-08)
(-1.60616e-07 0.00057974 -6.99771e-08)
(-7.7313e-08 0.000628947 -1.9166e-07)
(8.92986e-08 0.000754849 -3.16826e-07)
(6.18446e-07 0.00103716 -9.58032e-07)
(2.74069e-06 0.00159515 -6.07358e-07)
(4.21787e-06 0.00231604 -6.40801e-06)
(-2.47951e-06 0.00290412 -4.19308e-06)
(-2.80053e-05 0.00322103 -3.16081e-05)
(4.16922e-05 0.0046072 3.10295e-05)
(5.30247e-05 0.00599697 6.06497e-05)
(0.00157637 0.0167497 0.00175541)
(0.014485 0.122126 0.0157323)
(-0.00796802 0.579149 -0.00136003)
(-0.0169816 0.41568 -0.0146527)
(-0.000207321 0.0213808 -0.000151926)
(-3.83783e-05 0.00655797 2.79205e-05)
(-3.5369e-05 0.00675509 5.97342e-06)
(-2.87611e-05 0.00678496 1.57941e-07)
(-1.50522e-05 0.00684582 -1.73922e-06)
(-1.20564e-05 0.00692345 -3.28889e-06)
(-7.30078e-06 0.00711708 -3.30933e-06)
(-6.40168e-06 0.0076557 -2.2959e-06)
(-9.05775e-06 0.00851788 -2.15062e-06)
(-1.02546e-05 0.00922787 -2.39518e-06)
(-1.11269e-05 0.00961488 -4.18679e-06)
(-1.01972e-05 0.00981753 -4.55187e-06)
(-8.94786e-06 0.00990896 -2.72974e-06)
(-7.23414e-06 0.0099231 -1.6289e-06)
(-7.13744e-06 0.0098813 -2.13127e-06)
(-8.02889e-06 0.00976764 -2.54834e-06)
(-8.83852e-06 0.00962504 -3.0362e-06)
(-9.62447e-06 0.00950198 -2.9284e-06)
(-1.07326e-05 0.00940485 -2.12055e-06)
(-1.23306e-05 0.00932687 -1.76753e-06)
(-1.41691e-05 0.00926205 -2.69164e-06)
(-1.53339e-05 0.00921326 -4.89348e-06)
(-1.59753e-05 0.0091766 -1.02038e-05)
(-1.60833e-05 0.0091506 -1.23074e-05)
(-1.65391e-05 0.00913096 -1.20347e-05)
(-1.61362e-05 0.00910262 -1.1947e-05)
(-1.58462e-05 0.00904383 -1.14164e-05)
(-1.45577e-05 0.00894015 -9.28332e-06)
(-1.35038e-05 0.00881665 -6.86604e-06)
(-1.20493e-05 0.00870942 -4.47006e-06)
(-8.82424e-06 0.00856602 -2.52493e-06)
(-6.82454e-06 0.00806165 -1.95846e-06)
(-5.15443e-06 0.00671399 1.9659e-07)
(-2.93613e-06 0.00515237 5.33958e-07)
(-1.87105e-07 0.000295243 2.91836e-07)
(-4.16614e-07 0.000337307 2.25433e-07)
(-5.65975e-07 0.000381905 1.28563e-07)
(-7.13031e-07 0.000411417 8.58919e-08)
(-8.7326e-07 0.00043609 5.73087e-08)
(-9.96874e-07 0.000459917 3.94799e-08)
(-1.13638e-06 0.000487062 1.03455e-08)
(-1.20347e-06 0.000521054 3.01137e-08)
(-1.21563e-06 0.000548846 3.06455e-08)
(-1.18362e-06 0.000558838 4.69161e-08)
(-1.10813e-06 0.000559979 4.8954e-08)
(-1.01819e-06 0.000560855 8.36047e-08)
(-9.16235e-07 0.0005619 1.14791e-07)
(-8.06214e-07 0.000562817 1.31531e-07)
(-6.93834e-07 0.000563458 1.31153e-07)
(-5.93555e-07 0.000563913 1.22856e-07)
(-5.06652e-07 0.000564269 1.16386e-07)
(-4.35863e-07 0.00056457 1.0833e-07)
(-3.78005e-07 0.000564822 1.05432e-07)
(-3.29523e-07 0.000565031 9.94893e-08)
(-2.94975e-07 0.000565202 9.99245e-08)
(-2.65203e-07 0.000565343 9.69035e-08)
(-2.45731e-07 0.000565458 1.01295e-07)
(-2.27687e-07 0.000565548 1.01369e-07)
(-2.17124e-07 0.000565618 1.07725e-07)
(-2.06311e-07 0.000565673 1.093e-07)
(-2.01359e-07 0.000565718 1.16503e-07)
(-1.94845e-07 0.000565754 1.17898e-07)
(-1.93143e-07 0.000565777 1.24104e-07)
(-1.88139e-07 0.000565789 1.2461e-07)
(-1.85478e-07 0.000565797 1.29392e-07)
(-1.79156e-07 0.000565799 1.29003e-07)
(-1.75675e-07 0.0005658 1.32971e-07)
(-1.69321e-07 0.000565797 1.32133e-07)
(-1.65616e-07 0.000565793 1.35683e-07)
(-1.60314e-07 0.00056578 1.34411e-07)
(-1.56536e-07 0.000565769 1.39238e-07)
(-1.54673e-07 0.000565741 1.36335e-07)
(-1.51006e-07 0.000565719 1.43391e-07)
(-1.52116e-07 0.00056567 1.39798e-07)
(-1.50076e-07 0.000565654 1.48165e-07)
(-1.56109e-07 0.000565596 1.374e-07)
(-1.66026e-07 0.00056558 1.46406e-07)
(-1.7323e-07 0.000565528 1.37459e-07)
(-1.93358e-07 0.000565523 1.37953e-07)
(-2.19051e-07 0.000565526 1.2844e-07)
(-3.27826e-07 0.000565544 9.00371e-08)
(-3.51674e-07 0.000568744 1.12607e-07)
(-4.98805e-07 0.000593924 4.09205e-08)
(-4.06048e-07 0.00066254 -3.0723e-08)
(-1.55261e-07 0.000796049 -2.6573e-07)
(8.44053e-08 0.00105779 -1.53589e-06)
(5.4326e-06 0.00152231 -1.42907e-06)
(7.1026e-06 0.00202431 -3.9698e-06)
(-2.74444e-06 0.00239433 -2.44431e-06)
(-2.39581e-05 0.00284447 -3.56184e-06)
(-2.68883e-05 0.00475174 1.23489e-05)
(-0.000314192 0.00838855 -8.47228e-05)
(-0.000661567 0.0248612 0.00166192)
(0.000147307 0.122566 0.0132007)
(-0.0337737 0.563839 -0.00464714)
(-0.0284711 0.41052 -0.0189112)
(-0.000290256 0.0213455 -0.000370082)
(-3.39001e-05 0.00661183 0.000116659)
(-0.000104029 0.00672727 1.74523e-05)
(-4.62277e-05 0.00677902 -5.58928e-06)
(-2.8515e-05 0.00684993 -3.31491e-06)
(-2.48532e-05 0.00701926 -4.76418e-07)
(-2.63948e-05 0.00760068 -1.99211e-06)
(-2.95176e-05 0.00859987 -2.90836e-08)
(-2.88746e-05 0.0094037 -4.26876e-06)
(-2.69527e-05 0.00971401 -6.88326e-06)
(-2.37323e-05 0.00979337 -8.67803e-06)
(-1.89369e-05 0.00983188 -9.36019e-06)
(-1.26104e-05 0.00983071 -6.64436e-06)
(-9.41375e-06 0.00976124 -3.11488e-06)
(-1.0437e-05 0.00964139 -3.32195e-06)
(-1.18243e-05 0.0095181 -4.49834e-06)
(-1.39851e-05 0.0094197 -5.23808e-06)
(-1.69973e-05 0.00934853 -5.01641e-06)
(-2.12539e-05 0.00929245 -4.57077e-06)
(-2.62884e-05 0.00923975 -3.8333e-06)
(-3.02971e-05 0.00919138 -3.17195e-06)
(-3.0991e-05 0.0091499 -3.66593e-06)
(-2.92467e-05 0.00911882 -4.90658e-06)
(-2.53338e-05 0.00909627 -6.48804e-06)
(-2.34044e-05 0.00907942 -8.03593e-06)
(-2.31292e-05 0.00905033 -1.00365e-05)
(-2.17851e-05 0.00900051 -1.02456e-05)
(-2.04097e-05 0.00890704 -9.76342e-06)
(-1.89138e-05 0.00876195 -8.46117e-06)
(-1.76983e-05 0.00858848 -6.15015e-06)
(-1.68775e-05 0.00834933 -3.22682e-06)
(-1.41723e-05 0.00765148 -1.14454e-06)
(-1.0337e-05 0.00624528 1.32335e-06)
(-7.13019e-06 0.00495554 2.4225e-06)
(-3.77732e-07 0.000273564 6.72789e-07)
(-7.30748e-07 0.000319457 4.82349e-07)
(-1.11072e-06 0.000374355 2.54898e-07)
(-1.38939e-06 0.000412694 1.88506e-07)
(-1.67204e-06 0.000441472 1.38008e-07)
(-1.90339e-06 0.000465723 9.70825e-08)
(-2.11227e-06 0.000490686 1.0377e-07)
(-2.17279e-06 0.000519782 1.05076e-07)
(-2.12076e-06 0.000543973 9.34066e-08)
(-2.02367e-06 0.000554891 9.54005e-08)
(-1.8582e-06 0.000557706 9.3866e-08)
(-1.7039e-06 0.00055963 1.09714e-07)
(-1.53529e-06 0.000561447 1.31178e-07)
(-1.37054e-06 0.000562727 1.44256e-07)
(-1.21198e-06 0.000563527 1.43709e-07)
(-1.0688e-06 0.000564027 1.3897e-07)
(-9.48054e-07 0.000564382 1.34696e-07)
(-8.48999e-07 0.00056467 1.34397e-07)
(-7.70112e-07 0.000564911 1.35239e-07)
(-7.01588e-07 0.000565112 1.39221e-07)
(-6.52134e-07 0.000565276 1.42426e-07)
(-6.09804e-07 0.000565411 1.4753e-07)
(-5.83531e-07 0.000565519 1.51235e-07)
(-5.5986e-07 0.000565604 1.56172e-07)
(-5.48092e-07 0.00056567 1.59321e-07)
(-5.35522e-07 0.00056572 1.63351e-07)
(-5.31628e-07 0.00056576 1.65418e-07)
(-5.24497e-07 0.000565789 1.68433e-07)
(-5.23001e-07 0.000565809 1.69484e-07)
(-5.15392e-07 0.000565822 1.71561e-07)
(-5.11467e-07 0.000565829 1.72169e-07)
(-5.02181e-07 0.000565832 1.73829e-07)
(-4.97351e-07 0.000565831 1.73893e-07)
(-4.87548e-07 0.000565827 1.7509e-07)
(-4.8177e-07 0.000565818 1.75109e-07)
(-4.72161e-07 0.000565801 1.75991e-07)
(-4.65863e-07 0.000565779 1.76212e-07)
(-4.59007e-07 0.000565737 1.75427e-07)
(-4.51374e-07 0.000565712 1.78065e-07)
(-4.47432e-07 0.00056566 1.74657e-07)
(-4.39397e-07 0.00056564 1.77393e-07)
(-4.41148e-07 0.000565588 1.73435e-07)
(-4.37453e-07 0.000565558 1.74241e-07)
(-4.39351e-07 0.000565512 1.77481e-07)
(-4.65928e-07 0.000565472 1.64666e-07)
(-5.01152e-07 0.000565455 1.79826e-07)
(-6.37861e-07 0.000566596 1.39028e-07)
(-6.99607e-07 0.000575181 1.34988e-07)
(-9.18478e-07 0.00061157 4.16367e-08)
(-1.16857e-06 0.000694472 -8.37836e-08)
(-1.04893e-06 0.000849387 -6.22807e-07)
(-2.31936e-06 0.00108963 -1.90506e-06)
(3.71664e-07 0.00140144 -2.98553e-06)
(-4.23207e-07 0.00174862 -4.75308e-06)
(3.4285e-06 0.00221284 -1.58828e-06)
(1.03353e-05 0.00264597 -6.62261e-06)
(-3.17994e-05 0.00393739 2.89826e-05)
(-0.000357541 0.00592586 1.53236e-05)
(-0.00220943 0.0201302 0.000978263)
(-0.000286369 0.117847 0.0105326)
(-0.0329458 0.555819 -0.00431345)
(-0.0290995 0.397834 -0.0163777)
(-0.000666809 0.0218188 -0.00138165)
(-0.000183757 0.00663185 0.000812872)
(-0.000487198 0.00657339 2.7813e-07)
(-0.000174771 0.00664563 -1.09014e-05)
(-0.000181709 0.00670171 -1.25854e-05)
(-0.000171123 0.00720993 -1.72481e-05)
(-0.000182831 0.0082607 -7.77221e-06)
(-0.000184328 0.00909928 -6.50703e-06)
(-0.00015729 0.0092905 -0.000126889)
(-0.0001215 0.00928797 -0.000142431)
(-8.96328e-05 0.00931689 -9.09097e-06)
(-6.90991e-05 0.00932993 -1.07066e-05)
(-5.65916e-05 0.00932901 -7.59463e-06)
(-1.01785e-05 0.00933862 -1.30657e-06)
(-1.44595e-05 0.00939664 -2.10858e-06)
(-9.59808e-05 0.00955231 -7.4462e-06)
(-0.000118191 0.00975789 -9.75121e-06)
(-0.00014001 0.00993129 -8.79097e-06)
(-0.000193121 0.0100256 -6.26788e-06)
(-0.000246735 0.0100385 -4.89561e-06)
(-5.37857e-05 0.00989242 5.64239e-06)
(-0.000261284 0.00979803 2.98672e-07)
(-0.000221929 0.0097838 2.03646e-06)
(-3.77683e-05 0.00936549 2.13163e-06)
(-3.08264e-05 0.009227 5.14075e-07)
(-2.47674e-05 0.00906754 1.03553e-06)
(-2.26723e-05 0.00897688 1.38694e-06)
(-2.46838e-05 0.00898019 4.88817e-07)
(-2.78519e-05 0.00899045 -1.67212e-06)
(-2.92296e-05 0.00889731 -4.50879e-06)
(-2.88275e-05 0.00861795 -5.99782e-06)
(-2.49966e-05 0.00788513 -4.51243e-06)
(-1.88572e-05 0.0064405 -9.07713e-07)
(-1.15295e-05 0.00502615 1.57159e-06)
(-6.77067e-07 0.000254066 4.18813e-07)
(-1.24212e-06 0.000293634 4.55555e-07)
(-1.83992e-06 0.000345712 3.07577e-07)
(-2.21326e-06 0.000390322 2.87979e-07)
(-2.65777e-06 0.000428428 2.31767e-07)
(-2.95293e-06 0.000457442 1.81332e-07)
(-3.16274e-06 0.000482992 1.42746e-07)
(-3.12039e-06 0.000512424 1.49008e-07)
(-2.96044e-06 0.000538476 1.20018e-07)
(-2.73475e-06 0.000551934 1.06827e-07)
(-2.48452e-06 0.000556331 9.68465e-08)
(-2.23506e-06 0.00055906 1.12906e-07)
(-2.00425e-06 0.000561329 1.20113e-07)
(-1.79285e-06 0.000562749 1.34301e-07)
(-1.60626e-06 0.000563563 1.33363e-07)
(-1.4542e-06 0.000564047 1.2869e-07)
(-1.32655e-06 0.000564381 1.29371e-07)
(-1.23004e-06 0.000564648 1.27234e-07)
(-1.14787e-06 0.000564874 1.35062e-07)
(-1.08439e-06 0.000565062 1.3493e-07)
(-1.0269e-06 0.000565216 1.44009e-07)
(-9.86757e-07 0.000565337 1.43215e-07)
(-9.52145e-07 0.000565432 1.52855e-07)
(-9.30119e-07 0.000565504 1.51345e-07)
(-9.09093e-07 0.000565557 1.59617e-07)
(-8.96969e-07 0.000565596 1.56572e-07)
(-8.82882e-07 0.000565627 1.6303e-07)
(-8.74859e-07 0.00056565 1.58559e-07)
(-8.62259e-07 0.000565666 1.63213e-07)
(-8.53145e-07 0.000565678 1.58271e-07)
(-8.3848e-07 0.000565687 1.62896e-07)
(-8.27317e-07 0.000565694 1.58232e-07)
(-8.11247e-07 0.0005657 1.62207e-07)
(-7.98424e-07 0.000565702 1.57148e-07)
(-7.80537e-07 0.0005657 1.6036e-07)
(-7.66539e-07 0.000565689 1.54616e-07)
(-7.47535e-07 0.000565677 1.57266e-07)
(-7.33906e-07 0.000565647 1.50487e-07)
(-7.12562e-07 0.000565629 1.55575e-07)
(-6.98602e-07 0.000565585 1.45438e-07)
(-6.70024e-07 0.000565564 1.52938e-07)
(-6.57234e-07 0.000565519 1.41946e-07)
(-6.3772e-07 0.000565477 1.47878e-07)
(-6.40249e-07 0.000565416 1.45961e-07)
(-6.59529e-07 0.000565412 1.40584e-07)
(-7.03526e-07 0.000565369 1.41416e-07)
(-8.0254e-07 0.000567109 6.80677e-08)
(-9.37138e-07 0.000576966 -5.23764e-09)
(-1.1263e-06 0.000614012 -1.99669e-07)
(-1.70666e-06 0.000702418 -4.62363e-07)
(-1.76216e-06 0.000868527 -1.54716e-06)
(-4.32912e-06 0.00110538 -3.58311e-06)
(-4.52716e-06 0.00147526 -2.4402e-06)
(-1.50561e-06 0.00197465 -1.68642e-06)
(-3.65329e-06 0.00251638 1.06173e-07)
(-1.94766e-05 0.00283015 7.25568e-07)
(-2.95869e-05 0.0037718 2.71632e-05)
(-0.000290412 0.0046219 2.03558e-05)
(-0.00195697 0.0213324 0.000729699)
(0.00291781 0.125014 0.0116855)
(-0.0454764 0.604344 -0.0133833)
(-0.0432926 0.473026 -0.0155536)
(-0.0310765 0.510828 0.00505538)
(-0.0264394 0.490634 0.00305693)
(-0.00681036 0.487865 -0.00189329)
(-0.00793328 0.482213 -0.00548881)
(-0.00188012 0.487413 -0.00567621)
(0.00784932 0.490559 -0.00174497)
(0.0108363 0.487545 0.00414409)
(0.0075715 0.490272 0.0052428)
(0.00499224 0.496663 0.00468108)
(0.00220544 0.503393 0.00286406)
(4.94231e-05 0.496429 0.000842147)
(0.000361078 0.4768 0.00114794)
(8.05711e-05 0.381766 0.000202318)
(-0.000103428 0.029136 -3.90334e-05)
(-0.000134642 0.0308004 -3.30068e-05)
(-0.000517448 0.115788 -3.747e-05)
(-0.001758 0.377028 -0.000200376)
(-0.00182642 0.479384 -0.00121431)
(-0.00128221 0.471481 -0.0016547)
(0.000439143 0.338154 -0.00232169)
(-0.000282376 0.0497762 0.000111586)
(0.00262694 0.287082 -0.00199724)
(-0.00018195 0.361795 -0.000580285)
(-0.000191191 0.0289038 3.05776e-05)
(-0.000188863 0.00990393 -6.12417e-06)
(-0.000184937 0.00912918 -2.05073e-06)
(-4.09317e-05 0.00857858 2.71069e-06)
(-4.67585e-05 0.00848166 1.43991e-06)
(-4.88467e-05 0.00857501 -1.17298e-06)
(-5.87788e-05 0.00871661 -3.01987e-06)
(-5.87406e-05 0.00866644 -7.8202e-06)
(-4.78054e-05 0.00814512 -7.94589e-06)
(-3.43991e-05 0.00675831 -5.13986e-06)
(-1.88181e-05 0.00517019 4.58882e-07)
(-8.86838e-07 0.000233184 2.60428e-07)
(-1.90708e-06 0.000265769 4.05495e-07)
(-2.87426e-06 0.000313942 2.59701e-07)
(-3.31392e-06 0.000358837 2.30463e-07)
(-3.79974e-06 0.000401599 2.24047e-07)
(-4.04498e-06 0.000440496 1.16973e-07)
(-4.11645e-06 0.000473775 1.23524e-07)
(-3.89851e-06 0.000504734 9.56123e-08)
(-3.61445e-06 0.000532373 9.93967e-08)
(-3.27093e-06 0.000549357 8.12071e-08)
(-2.9297e-06 0.000555844 9.08319e-08)
(-2.60435e-06 0.000559283 1.02416e-07)
(-2.32416e-06 0.000561715 1.0459e-07)
(-2.08036e-06 0.000563102 1.17002e-07)
(-1.88445e-06 0.000563858 1.12714e-07)
(-1.73121e-06 0.000564308 1.16368e-07)
(-1.61679e-06 0.000564622 1.10774e-07)
(-1.52875e-06 0.000564878 1.17888e-07)
(-1.46475e-06 0.000565093 1.14214e-07)
(-1.40861e-06 0.000565275 1.21216e-07)
(-1.3671e-06 0.000565424 1.15545e-07)
(-1.32839e-06 0.000565544 1.22703e-07)
(-1.29934e-06 0.000565636 1.17511e-07)
(-1.2685e-06 0.000565704 1.24326e-07)
(-1.24566e-06 0.000565753 1.18544e-07)
(-1.21908e-06 0.000565788 1.2434e-07)
(-1.19839e-06 0.000565811 1.17966e-07)
(-1.17322e-06 0.000565826 1.22601e-07)
(-1.15291e-06 0.000565833 1.15699e-07)
(-1.12722e-06 0.000565834 1.19347e-07)
(-1.10482e-06 0.00056583 1.1245e-07)
(-1.07667e-06 0.000565822 1.15567e-07)
(-1.05166e-06 0.000565814 1.08391e-07)
(-1.02135e-06 0.000565803 1.11112e-07)
(-9.94211e-07 0.000565789 1.04332e-07)
(-9.62347e-07 0.000565769 1.06908e-07)
(-9.33938e-07 0.000565747 1.00458e-07)
(-9.01556e-07 0.000565712 1.02382e-07)
(-8.67856e-07 0.000565686 9.94294e-08)
(-8.33081e-07 0.000565645 9.84872e-08)
(-7.90657e-07 0.000565624 9.7092e-08)
(-7.59033e-07 0.000565576 9.54665e-08)
(-7.25689e-07 0.000565543 9.39378e-08)
(-7.15093e-07 0.000565484 9.85561e-08)
(-7.02726e-07 0.000565469 7.90959e-08)
(-7.26547e-07 0.000565351 5.71718e-08)
(-7.0971e-07 0.000567111 -6.00249e-08)
(-8.1898e-07 0.000577669 -1.74948e-07)
(-7.78979e-07 0.000620126 -3.67984e-07)
(-1.27146e-06 0.000718187 -8.19607e-07)
(-1.41179e-06 0.000873818 -2.25659e-06)
(-4.10249e-06 0.00117988 -3.11121e-06)
(-5.69276e-07 0.00179549 6.51903e-06)
(1.85355e-05 0.00243587 -3.41967e-06)
(-5.18968e-06 0.0028769 -7.95415e-05)
(-2.6165e-05 0.0030482 -8.09645e-05)
(-2.47707e-05 0.0037364 -2.64351e-06)
(-0.00034684 0.00345197 0.000220664)
(-0.00249359 0.0200984 0.000247286)
(0.00636735 0.13837 0.0119716)
(-0.0348802 0.590147 -0.023126)
(-0.0346744 0.464139 -0.00738219)
(-0.0415146 0.532149 -0.00208871)
(-0.0107912 0.48193 0.00307686)
(-0.00956738 0.514069 -0.0044228)
(-0.000665834 0.5057 -0.00292644)
(0.00473226 0.50541 5.24589e-05)
(0.00991623 0.494545 0.00411413)
(0.00687161 0.501471 0.0064286)
(0.00343548 0.503311 0.00555194)
(0.00120906 0.501346 0.00373964)
(9.40812e-05 0.498103 0.00255365)
(-0.000889666 0.490802 0.00132077)
(-0.0007485 0.472036 0.000795227)
(-0.000826984 0.384059 -9.57537e-05)
(-0.00104676 0.330365 -8.82713e-05)
(-0.00103314 0.319693 0.000385303)
(-0.00150078 0.447964 0.000132128)
(-0.00214037 0.498262 -0.000357929)
(-0.00101609 0.49145 -0.00118742)
(0.00308346 0.495626 -0.00254404)
(0.00884082 0.491482 -0.00388552)
(0.0124735 0.49358 -0.00456374)
(0.0121279 0.496185 -0.00544003)
(0.00586858 0.496542 -0.00440539)
(-0.00269173 0.491582 -0.00286512)
(-0.0111007 0.468458 -0.00191202)
(-0.014398 0.342783 -0.00115545)
(-0.000218608 0.0300795 4.36818e-05)
(-0.000272593 0.00854919 -7.85219e-06)
(-0.000290611 0.00717948 -1.09608e-05)
(-7.01874e-05 0.0071928 -1.20179e-05)
(-7.55057e-05 0.00804164 -7.39747e-06)
(-6.04603e-05 0.00811171 -9.93085e-06)
(-4.51135e-05 0.00704375 -9.03734e-06)
(-2.87867e-05 0.00553099 -3.68868e-06)
(-1.34224e-06 0.000214067 4.51201e-07)
(-2.99371e-06 0.00023635 2.77173e-07)
(-4.38408e-06 0.000277801 1.6851e-07)
(-4.64136e-06 0.000320994 7.47677e-08)
(-5.04415e-06 0.000365009 3.6829e-08)
(-4.96922e-06 0.000414032 3.43722e-08)
(-4.81767e-06 0.000461633 1.50916e-08)
(-4.42347e-06 0.000497949 2.77321e-08)
(-4.05755e-06 0.000526526 -3.19949e-09)
(-3.6031e-06 0.000546854 3.2577e-08)
(-3.20638e-06 0.000555585 4.21707e-08)
(-2.84107e-06 0.00055947 7.34788e-08)
(-2.53453e-06 0.0005619 7.38185e-08)
(-2.27124e-06 0.000563172 9.16403e-08)
(-2.04784e-06 0.000563846 9.72143e-08)
(-1.88935e-06 0.000564235 9.92865e-08)
(-1.77854e-06 0.000564512 1.07081e-07)
(-1.70851e-06 0.000564741 1.03965e-07)
(-1.65918e-06 0.000564942 1.12932e-07)
(-1.62531e-06 0.000565118 1.05763e-07)
(-1.59352e-06 0.000565269 1.1003e-07)
(-1.56397e-06 0.000565393 9.81409e-08)
(-1.52959e-06 0.000565492 1.00274e-07)
(-1.49735e-06 0.000565568 8.80943e-08)
(-1.46203e-06 0.000565624 9.0647e-08)
(-1.42804e-06 0.000565666 7.88848e-08)
(-1.39111e-06 0.000565696 8.08287e-08)
(-1.35614e-06 0.000565718 6.9882e-08)
(-1.3188e-06 0.00056573 7.30762e-08)
(-1.28242e-06 0.000565735 6.45236e-08)
(-1.24268e-06 0.000565735 6.88959e-08)
(-1.20416e-06 0.000565732 6.1488e-08)
(-1.16259e-06 0.000565726 6.58392e-08)
(-1.12221e-06 0.000565718 5.90825e-08)
(-1.0789e-06 0.000565707 6.35386e-08)
(-1.03694e-06 0.000565691 5.67662e-08)
(-9.92677e-07 0.000565671 6.12186e-08)
(-9.5017e-07 0.000565642 5.4634e-08)
(-8.98764e-07 0.000565619 6.08772e-08)
(-8.53575e-07 0.000565584 5.36354e-08)
(-7.9365e-07 0.000565565 6.19494e-08)
(-7.48844e-07 0.000565516 5.14343e-08)
(-6.94959e-07 0.000565495 5.82821e-08)
(-6.59825e-07 0.000565439 4.20227e-08)
(-6.04611e-07 0.000565431 2.18517e-08)
(-5.97433e-07 0.000565328 -4.88524e-08)
(-4.97433e-07 0.000567161 -1.70807e-07)
(-5.88413e-07 0.000578008 -2.98053e-07)
(-3.52155e-07 0.000624087 -4.7767e-07)
(-5.6191e-07 0.000726023 -1.05072e-06)
(3.40311e-07 0.000908866 -1.96624e-06)
(-3.26771e-07 0.00131967 1.08331e-06)
(1.59614e-05 0.00204999 1.97987e-05)
(4.19434e-05 0.00266355 -8.04439e-06)
(5.60178e-05 0.00293175 -7.29975e-06)
(4.0779e-05 0.00289252 -3.47831e-05)
(-1.79999e-05 0.00350788 6.27265e-05)
(-0.000484779 0.00285512 0.000137977)
(-0.00169563 0.0202141 0.000268632)
(0.00998895 0.158502 0.0162256)
(-0.0195996 0.572196 -0.0267495)
(-0.0174464 0.471644 -0.00562588)
(-0.0228911 0.505218 0.00193993)
(-0.00462348 0.499258 0.000666802)
(-0.0060072 0.501612 -0.000278401)
(0.00171758 0.467793 0.00173468)
(0.00377786 0.505216 0.00412347)
(0.0034178 0.499691 0.00504153)
(0.000640424 0.477215 0.00363342)
(0.000301366 0.468937 0.0028291)
(-0.000474001 0.503596 0.00177456)
(-0.000307407 0.47605 0.000994053)
(-0.000637545 0.516103 0.000643287)
(-0.00100106 0.503639 -6.50822e-05)
(-0.000523535 0.488887 -0.000363917)
(-0.000229937 0.491045 -0.000242929)
(-0.000314489 0.490701 0.000311819)
(-0.000379018 0.489954 -0.000105528)
(-0.000120717 0.480123 -0.000778718)
(0.00247493 0.464411 -0.00166151)
(0.00439516 0.441699 -0.00216867)
(0.00920804 0.483399 -0.00294729)
(0.0101252 0.47092 -0.00314665)
(0.0128752 0.496844 -0.00452015)
(0.0150322 0.498918 -0.00555091)
(0.000807502 0.498482 -0.00343185)
(-0.00816727 0.491731 -0.00466504)
(-0.0212384 0.484566 -0.0044993)
(-0.0281336 0.483639 -0.00197139)
(-0.0313636 0.460866 0.00128813)
(-0.0321037 0.33178 -0.000202511)
(-0.0003847 0.0262254 4.46108e-05)
(-0.000387535 0.00369876 -5.3407e-05)
(-0.000364252 0.00389812 -5.8443e-05)
(-0.000322691 0.00398776 -4.5855e-05)
(-9.18191e-05 0.0041897 -1.24483e-05)
(-2.46059e-06 0.000200452 2.63888e-07)
(-4.94503e-06 0.000212162 9.11086e-10)
(-6.36389e-06 0.000242738 -2.13334e-08)
(-6.30355e-06 0.000281746 -1.08339e-07)
(-6.29405e-06 0.000325925 -1.91365e-07)
(-5.82692e-06 0.000378364 -1.63182e-07)
(-5.39008e-06 0.000435866 -6.68908e-08)
(-4.83368e-06 0.000483646 -4.43637e-08)
(-4.38125e-06 0.000518475 -6.74158e-08)
(-3.8191e-06 0.000543136 -3.11407e-09)
(-3.38392e-06 0.000554893 1.54709e-08)
(-2.96289e-06 0.000559709 5.97719e-08)
(-2.62975e-06 0.000562289 5.58836e-08)
(-2.35712e-06 0.000563581 7.68827e-08)
(-2.16626e-06 0.000564218 8.98291e-08)
(-2.02372e-06 0.000564571 1.19104e-07)
(-1.92207e-06 0.000564813 1.21558e-07)
(-1.8485e-06 0.000565017 1.24162e-07)
(-1.79626e-06 0.000565189 1.07706e-07)
(-1.75485e-06 0.000565335 1.03678e-07)
(-1.71794e-06 0.000565455 8.61275e-08)
(-1.6813e-06 0.000565557 8.26832e-08)
(-1.64426e-06 0.000565644 6.70941e-08)
(-1.60374e-06 0.000565711 6.54271e-08)
(-1.56008e-06 0.00056576 5.29967e-08)
(-1.51519e-06 0.000565794 5.32511e-08)
(-1.47012e-06 0.000565818 4.23531e-08)
(-1.42546e-06 0.000565836 4.47201e-08)
(-1.38165e-06 0.000565846 3.75162e-08)
(-1.33682e-06 0.000565851 4.21879e-08)
(-1.2901e-06 0.000565853 3.69714e-08)
(-1.24159e-06 0.00056585 4.21744e-08)
(-1.19179e-06 0.000565845 3.76008e-08)
(-1.14032e-06 0.000565835 4.3044e-08)
(-1.08818e-06 0.000565823 3.89587e-08)
(-1.03585e-06 0.000565803 4.46855e-08)
(-9.83414e-07 0.00056578 4.07901e-08)
(-9.30188e-07 0.000565749 4.57531e-08)
(-8.72349e-07 0.000565725 4.15617e-08)
(-8.15316e-07 0.000565692 4.79092e-08)
(-7.48386e-07 0.000565674 4.40506e-08)
(-6.91719e-07 0.000565624 4.64903e-08)
(-6.35559e-07 0.000565606 4.04082e-08)
(-6.00408e-07 0.000565565 2.74508e-08)
(-5.4335e-07 0.000565554 -3.76887e-10)
(-5.35331e-07 0.000565494 -4.92619e-08)
(-4.7275e-07 0.000567061 -1.59072e-07)
(-6.00615e-07 0.000576969 -2.63722e-07)
(-5.04984e-07 0.000619984 -5.54407e-07)
(-7.53201e-07 0.000728061 -1.39919e-06)
(4.28977e-07 0.000921341 -2.19868e-06)
(2.23484e-06 0.00128958 -3.34638e-07)
(7.10961e-06 0.00189676 2.08974e-05)
(5.30924e-06 0.00239089 4.49533e-05)
(6.08939e-05 0.00256398 5.39323e-05)
(4.80245e-05 0.00241373 6.94726e-05)
(2.50516e-05 0.00276407 0.00019543)
(-0.000221032 0.00231385 0.000218553)
(-0.00105034 0.0232512 0.00183572)
(0.00740747 0.218394 0.014185)
(-0.00840486 0.609755 -0.0285064)
(-0.000584424 0.487698 0.00403169)
(-0.00707616 0.450765 0.000186842)
(-0.00616498 0.496293 0.000958809)
(-0.00502793 0.515656 0.00169682)
(0.000232945 0.496438 0.00216827)
(0.000905763 0.4711 0.00284248)
(0.000624809 0.381063 0.0018198)
(-0.000185422 0.498518 0.00137855)
(2.40572e-05 0.459382 0.001109)
(0.0001104 0.467264 0.000485415)
(0.000207621 0.454795 3.16446e-06)
(0.000246175 0.487512 0.00010389)
(0.000139856 0.466082 -0.000159231)
(-0.000281954 0.491758 -0.00114046)
(0.00106503 0.443501 -0.000566725)
(0.000375332 0.446721 -0.000514975)
(-0.000123885 0.486151 -0.00126513)
(-0.000982567 0.485234 -0.00158042)
(0.00212527 0.479857 -0.00338256)
(0.00605037 0.486671 -0.00443467)
(0.0104662 0.470806 -0.00207464)
(0.0114862 0.522 -0.00188438)
(0.0156277 0.482106 -0.00245368)
(0.012648 0.467493 -0.00229234)
(0.00601355 0.470883 -0.00333895)
(-0.00159328 0.450549 -0.0054744)
(-0.0112386 0.446208 -0.00779153)
(-0.0222631 0.456957 -0.00538528)
(-0.0334653 0.467236 -0.00132225)
(-0.0449718 0.473246 -0.00280739)
(-0.0443722 0.475078 0.00349981)
(-0.0214147 0.4713 0.0108803)
(-0.00523129 0.467091 0.00106941)
(-0.00186882 0.391548 -0.00555541)
(-0.000122658 0.0328625 -0.00084105)
(-3.38389e-06 0.000190542 -2.36621e-07)
(-7.71107e-06 0.000197395 -4.72607e-07)
(-8.91607e-06 0.000213834 -3.0957e-07)
(-8.20615e-06 0.000243271 -1.78123e-07)
(-7.5302e-06 0.000286767 -4.07647e-07)
(-6.54371e-06 0.000339972 -2.50201e-07)
(-5.85116e-06 0.000406472 -1.7353e-07)
(-5.07684e-06 0.000471576 1.2141e-08)
(-4.54331e-06 0.000514388 -2.4155e-08)
(-3.89163e-06 0.000540606 1.29922e-08)
(-3.40735e-06 0.000554343 2.07064e-08)
(-2.95292e-06 0.000559832 6.44934e-08)
(-2.66177e-06 0.000562472 9.92208e-08)
(-2.416e-06 0.000563758 1.3506e-07)
(-2.22859e-06 0.000564385 1.67362e-07)
(-2.09222e-06 0.000564726 1.94152e-07)
(-2.00849e-06 0.000564949 2.19331e-07)
(-1.94786e-06 0.000565127 2.30494e-07)
(-1.90671e-06 0.000565284 2.44557e-07)
(-1.8677e-06 0.000565431 2.42689e-07)
(-1.83669e-06 0.00056557 2.40443e-07)
(-1.8008e-06 0.000565692 2.26133e-07)
(-1.76759e-06 0.000565793 2.19974e-07)
(-1.72808e-06 0.000565877 2.05225e-07)
(-1.69067e-06 0.000565943 1.99471e-07)
(-1.64862e-06 0.000565992 1.87534e-07)
(-1.61089e-06 0.00056603 1.8479e-07)
(-1.56865e-06 0.000566056 1.75855e-07)
(-1.52815e-06 0.000566072 1.75875e-07)
(-1.48052e-06 0.000566081 1.70999e-07)
(-1.43381e-06 0.000566085 1.73545e-07)
(-1.38249e-06 0.000566089 1.69755e-07)
(-1.33383e-06 0.000566088 1.72231e-07)
(-1.28054e-06 0.000566084 1.68066e-07)
(-1.22947e-06 0.000566074 1.69263e-07)
(-1.17582e-06 0.000566059 1.63892e-07)
(-1.12533e-06 0.000566039 1.62523e-07)
(-1.07281e-06 0.000566017 1.53842e-07)
(-1.01899e-06 0.000566005 1.50321e-07)
(-9.61348e-07 0.00056598 1.44795e-07)
(-8.99519e-07 0.000565977 1.44797e-07)
(-8.30414e-07 0.000565924 1.34254e-07)
(-7.81641e-07 0.000565906 1.33836e-07)
(-7.43007e-07 0.000565882 1.07996e-07)
(-7.20622e-07 0.00056589 9.28081e-08)
(-7.32465e-07 0.000565924 5.51755e-08)
(-7.56857e-07 0.000567796 -1.50136e-08)
(-9.65501e-07 0.00058037 -1.07628e-07)
(-1.46004e-06 0.000629682 -7.03243e-07)
(-2.94571e-06 0.000748469 -2.79544e-06)
(-6.02792e-06 0.000938762 -5.8218e-06)
(-9.30674e-06 0.00119613 -9.6749e-06)
(-1.31634e-05 0.0015991 -1.55579e-06)
(-1.56333e-05 0.00214048 2.15186e-05)
(1.60114e-05 0.00271023 8.15606e-05)
(1.30682e-05 0.00285433 0.000150902)
(-9.07e-06 0.00281459 0.000162838)
(-6.29697e-05 0.00199222 2.71009e-05)
(-0.000211631 0.0249507 0.00149076)
(0.0020407 0.262915 0.0146416)
(-0.003674 0.588339 -0.0212994)
(-0.00258011 0.487528 0.00351645)
(-0.00325402 0.503879 9.85926e-05)
(-0.00276919 0.497242 0.000558376)
(-0.00105682 0.491654 0.000988412)
(-0.0010969 0.470857 0.00101642)
(-0.00122945 0.489504 0.00145277)
(-0.000595881 0.5171 0.00096452)
(-0.000517951 0.490305 0.00111667)
(5.7997e-06 0.499697 0.000474297)
(0.000919477 0.486871 -0.000310692)
(0.00131702 0.487716 -0.000723982)
(0.00153036 0.490041 -0.000928028)
(0.00308395 0.483989 -0.000539185)
(0.00427511 0.487465 -0.000137216)
(0.00245487 0.485379 0.000544107)
(0.00536764 0.489769 0.00165833)
(0.00180831 0.509127 0.000373331)
(0.00167142 0.485498 0.000317092)
(0.00273831 0.480711 -0.000683434)
(0.00347063 0.454277 -0.0021678)
(0.00349024 0.394362 -0.0015119)
(0.00945036 0.473793 -0.00222583)
(0.0101302 0.505694 -0.000576941)
(0.00873331 0.425586 0.00122633)
(0.00127909 0.0588131 8.5135e-05)
(-0.000195783 0.0122162 -0.000585887)
(-0.00049465 0.0118289 -0.000917796)
(-0.000852189 0.0110513 -0.00124562)
(-0.00109567 0.0103976 -0.00121488)
(-0.00110995 0.00931252 -0.000857912)
(-0.00115377 0.00893457 -0.00049679)
(-0.00075006 0.0105857 -0.000110203)
(-0.000618379 0.0117269 -0.000341092)
(-0.000763767 0.0149209 -0.00104641)
(-0.000624655 0.0112474 0.00190187)
(-9.25407e-06 8.49755e-05 -3.1916e-06)
(-1.22272e-05 0.000193657 -1.44849e-06)
(-1.2048e-05 0.000195482 -7.96219e-07)
(-1.00664e-05 0.000211205 -4.05052e-07)
(-8.64199e-06 0.000247441 -5.03157e-07)