/*--------------------------------*- C++ -*----------------------------------*\
| =========                 |                                                 |
| \\      /  F ield         | OpenFOAM: The Open Source CFD Toolbox           |
|  \\    /   O peration     | Version:  2.3.0                                 |
|   \\  /    A nd           | Web:      www.OpenFOAM.org                      |
|    \\/     M anipulation  |                                                 |
\*---------------------------------------------------------------------------*/
FoamFile
{
    version     2.0;
    format      ascii;
    class       volScalarField;
    location    "39";
    object      w2;
}
// * * * * * * * * * * * * * * * * * * * * * * * * * * * * * * * * * * * * * //

dimensions      [0 0 0 0 0 0 0];

internalField   nonuniform List<scalar> 
6144
(
0.452838
0.452838
0.452838
0.452838
0.452838
0.452838
0.452838
0.452838
0.452838
0.452838
0.452838
0.452838
0.452838
0.452838
0.452838
0.452838
0.452838
0.452838
0.452838
0.452838
0.452838
0.452838
0.452838
0.452838
0.452838
0.452838
0.452838
0.452838
0.452838
0.452838
0.452838
0.452838
0.452838
0.452838
0.452838
0.452838
0.452838
0.452838
0.452838
0.452838
0.452838
0.452838
0.452838
0.452838
0.452838
0.452838
0.452838
0.452838
0.452838
0.452838
0.452838
0.452838
0.452838
0.452838
0.452838
0.452838
0.45284
0.452846
0.452394
0.498115
0.140494
0.000533144
3.8033e-06
0.000519291
0.0079584
0.00209625
0.0266976
0.00312313
0.0036587
0.00151242
0.00121817
0.00243955
0.009304
0.173499
0.0108943
0.0167058
0.025386
0.0126008
0.0110526
0.0119076
0.0155517
0.0154505
0.0271865
0.039886
0.00953232
0.00819717
0.00758389
0.0111563
0.0145141
0.0548676
0.0487182
0.0708735
0.00659161
0.0015501
0.000507916
0.000103398
0.452838
0.452838
0.452838
0.452838
0.452838
0.452838
0.452838
0.452838
0.452838
0.452838
0.452838
0.452838
0.452838
0.452838
0.452838
0.452838
0.452838
0.452838
0.452838
0.452838
0.452838
0.452838
0.452838
0.452838
0.452838
0.452838
0.452838
0.452838
0.452838
0.452838
0.452838
0.452838
0.452838
0.452838
0.452838
0.452838
0.452838
0.452838
0.452838
0.452838
0.452838
0.452838
0.452838
0.452838
0.452838
0.452838
0.452838
0.452838
0.452838
0.452838
0.452838
0.452838
0.452838
0.452838
0.452838
0.452838
0.452846
0.454004
0.495594
0.485024
0.193485
0.00111756
3.87315e-06
0.000569249
0.000989465
0.00327567
0.0190095
0.00370135
0.000980758
0.00102797
0.00233176
0.0073463
0.0254979
0.00761539
0.0280433
0.013184
0.00553172
0.0054519
0.00520286
0.00538847
0.00494169
0.00442332
0.00438414
0.00394277
0.0047148
0.00460331
0.00469435
0.00468304
0.00455882
0.0042808
0.00335598
0.00372473
0.00320289
0.00100648
0.000471077
0.000106445
0.452838
0.452838
0.452838
0.452838
0.452838
0.452838
0.452838
0.452838
0.452838
0.452838
0.452838
0.452838
0.452838
0.452838
0.452838
0.452838
0.452838
0.452838
0.452838
0.452838
0.452838
0.452838
0.452838
0.452838
0.452838
0.452838
0.452838
0.452838
0.452838
0.452838
0.452838
0.452838
0.452838
0.452838
0.452838
0.452838
0.452838
0.452838
0.452838
0.452838
0.452838
0.452838
0.452838
0.452838
0.452838
0.452838
0.452838
0.452838
0.452838
0.452838
0.452838
0.452838
0.452838
0.452838
0.452838
0.452838
0.452838
0.452966
0.468184
0.403602
0.75004
0.000881247
3.64905e-06
6.64211e-05
0.000118238
0.000177435
0.000227087
0.00050516
0.000186303
0.000322048
0.00325305
0.000801753
0.000779808
0.000664802
0.000635921
0.00570932
0.0110949
0.000565121
0.000485887
0.000509191
0.000585202
0.000972208
0.0690339
0.00109428
0.00137488
0.0141745
0.136907
0.0121716
0.0314099
0.010154
0.021429
0.00816581
0.00255943
0.00108163
0.000476928
0.000108298
0.452838
0.452838
0.452838
0.452838
0.452838
0.452838
0.452838
0.452838
0.452838
0.452838
0.452838
0.452838
0.452838
0.452838
0.452838
0.452838
0.452838
0.452838
0.452838
0.452838
0.452838
0.452838
0.452838
0.452838
0.452838
0.452838
0.452838
0.452838
0.452838
0.452838
0.452838
0.452838
0.452838
0.452838
0.452838
0.452838
0.452838
0.452838
0.452838
0.452838
0.452838
0.452838
0.452838
0.452838
0.452838
0.452838
0.452838
0.452838
0.452838
0.452838
0.452838
0.452838
0.452838
0.452838
0.452838
0.452838
0.452839
0.452838
0.455393
0.494069
0.883588
0.174779
0.00045818
0.000258101
0.000266169
0.00150974
0.00294807
0.00140809
0.00073477
0.000683059
0.000554755
0.0017451
0.000579636
9.85087e-05
1.12832e-05
8.48103e-06
2.13086e-05
9.12123e-06
1.75666e-05
8.9471e-05
6.51504e-05
8.11217e-06
6.87592e-05
1.22436e-05
1.80844e-05
8.37579e-06
0.000704055
0.000371788
0.00264518
0.0363669
0.005401
0.0200246
0.00643617
0.00144922
0.000535656
9.95978e-05
0.452838
0.452838
0.452838
0.452838
0.452838
0.452838
0.452838
0.452838
0.452838
0.452838
0.452838
0.452838
0.452838
0.452838
0.452838
0.452838
0.452838
0.452838
0.452838
0.452838
0.452838
0.452838
0.452838
0.452838
0.452838
0.452838
0.452838
0.452838
0.452838
0.452838
0.452838
0.452838
0.452838
0.452838
0.452838
0.452838
0.452838
0.452838
0.452838
0.452838
0.452838
0.452838
0.452838
0.452838
0.452838
0.452838
0.452838
0.452838
0.452838
0.452838
0.452838
0.452838
0.452838
0.452838
0.452838
0.452838
0.452839
0.452822
0.452837
0.464786
0.186801
0.0264089
0.0163336
0.0504173
0.316256
0.186062
0.0676196
0.78372
0.154382
0.543154
0.119285
0.0857876
0.0776617
0.0078484
0.00439714
0.00765455
0.00277462
0.00190369
0.00294386
0.966501
0.0120783
0.0259753
0.00311033
0.00433299
0.00457486
0.000571514
6.2648e-05
8.39582e-06
6.86102e-06
0.000103816
6.01117e-05
0.00108146
0.00199492
0.00339265
0.000541746
0.00010782
0.452838
0.452838
0.452838
0.452838
0.452838
0.452838
0.452838
0.452838
0.452838
0.452838
0.452838
0.452838
0.452838
0.452838
0.452838
0.452838
0.452838
0.452838
0.452838
0.452838
0.452838
0.452838
0.452838
0.452838
0.452838
0.452838
0.452838
0.452838
0.452838
0.452838
0.452838
0.452838
0.452838
0.452838
0.452838
0.452838
0.452838
0.452838
0.452838
0.452838
0.452838
0.452838
0.452838
0.452838
0.452838
0.452838
0.452838
0.452838
0.452838
0.452838
0.452838
0.452838
0.452838
0.452838
0.452838
0.452838
0.452838
0.452838
0.452843
0.46228
0.296697
0.465437
0.0724463
0.133927
0.0717754
0.626244
0.069041
0.241488
0.874369
0.43983
0.32123
0.21824
0.942998
0.938417
0.186758
0.0809918
0.728365
0.859751
0.110771
0.999996
0.993379
0.0037096
0.00282865
0.0026319
0.0134227
0.0139034
0.0451972
0.0103386
0.000765742
0.000158543
2.18641e-05
2.49217e-06
4.48864e-05
0.000119226
0.000155549
0.000147219
0.452838
0.452838
0.452838
0.452838
0.452838
0.452838
0.452838
0.452838
0.452838
0.452838
0.452838
0.452838
0.452838
0.452838
0.452838
0.452838
0.452838
0.452838
0.452838
0.452838
0.452838
0.452838
0.452838
0.452838
0.452838
0.452838
0.452838
0.452838
0.452838
0.452838
0.452838
0.452838
0.452838
0.452838
0.452838
0.452838
0.452838
0.452838
0.452838
0.452838
0.452838
0.452838
0.452838
0.452838
0.452838
0.452838
0.452838
0.452838
0.452838
0.452838
0.452838
0.452838
0.452838
0.452838
0.452838
0.452838
0.45284
0.452789
0.451195
0.537527
0.068913
0.978679
0.935224
0.112886
0.982693
0.0457199
0.983685
0.740798
0.0794632
0.00431856
0.999984
0.896423
0.39373
0.541017
0.0553367
0.790642
0.948207
0.157229
0.874373
0.231586
0.0123043
0.00209649
0.999426
0.00061205
0.997447
0.00460844
0.00550958
0.0042149
0.00377202
0.00517213
0.0104447
0.0132244
0.0368687
0.00256094
0.000916723
7.54177e-06
0.452838
0.452838
0.452838
0.452838
0.452838
0.452838
0.452838
0.452838
0.452838
0.452838
0.452838
0.452838
0.452838
0.452838
0.452838
0.452838
0.452838
0.452838
0.452838
0.452838
0.452838
0.452838
0.452838
0.452838
0.452838
0.452838
0.452838
0.452838
0.452838
0.452838
0.452838
0.452838
0.452838
0.452838
0.452838
0.452838
0.452838
0.452838
0.452838
0.452838
0.452838
0.452838
0.452838
0.452838
0.452838
0.452838
0.452838
0.452838
0.452838
0.452838
0.452838
0.452838
0.452838
0.452838
0.452838
0.452838
0.452838
0.453545
0.440379
0.528631
0.0804638
0.0095122
0.975221
0.639639
0.00149197
0.946681
0.503347
1
0.974152
0.888122
0.950357
0.372115
0.873691
0.671241
0.775943
0.520062
0.209086
0.00255184
2.65034e-06
0.00036382
0.982159
0.747818
0.996251
0.0116941
0.00181554
0.99999
0.00618267
0.931005
0.999991
0.407847
0.000104606
0.00628356
0.0474115
0.371056
0.995908
4.12124e-05
0.452838
0.452838
0.452838
0.452838
0.452838
0.452838
0.452838
0.452838
0.452838
0.452838
0.452838
0.452838
0.452838
0.452838
0.452838
0.452838
0.452838
0.452838
0.452838
0.452838
0.452838
0.452838
0.452838
0.452838
0.452838
0.452838
0.452838
0.452838
0.452838
0.452838
0.452838
0.452838
0.452838
0.452838
0.452838
0.452838
0.452838
0.452838
0.452838
0.452838
0.452838
0.452838
0.452838
0.452838
0.452838
0.452838
0.452838
0.452838
0.452838
0.452838
0.452838
0.452838
0.452838
0.452838
0.452838
0.452838
0.452838
0.45283
0.453073
0.525412
0.0423762
0.898679
0.892345
0.997398
0.146799
0.754404
0.744122
0.295941
0.994804
0.993771
0.86452
0.152735
0.13818
0.994824
0.188458
0.971814
0.936515
0.305376
0.833236
0.941306
0.999984
0.415618
0.0878526
0.691701
0.23129
0.864578
0.340014
0.137666
0.0413754
0.0231844
0.00181207
0.000860848
0.000884471
0.00577284
0.0161039
0.000101644
0.452838
0.452838
0.452838
0.452838
0.452838
0.452838
0.452838
0.452838
0.452838
0.452838
0.452838
0.452838
0.452838
0.452838
0.452838
0.452838
0.452838
0.452838
0.452838
0.452838
0.452838
0.452838
0.452838
0.452838
0.452838
0.452838
0.452838
0.452838
0.452838
0.452838
0.452838
0.452838
0.452838
0.452838
0.452838
0.452838
0.452838
0.452838
0.452838
0.452838
0.452838
0.452838
0.452838
0.452838
0.452838
0.452838
0.452838
0.452838
0.452838
0.452838
0.452838
0.452838
0.452838
0.452838
0.452838
0.452838
0.452838
0.452838
0.45293
0.534245
0.0680406
0.0797437
0.104956
0.092089
0.0624125
0.977933
0.88477
0.0144034
0.308964
0.203256
0.310845
0.96734
0.693613
0.822554
0.954468
0.330184
0.889982
0.893595
0.326663
0.916192
0.0572396
0.925408
0.0580464
0.0465636
0.338789
0.0900088
0.779334
0.854678
0.972199
0.099454
0.100985
0.00050333
0.0119999
0.00120333
0.00019322
7.21605e-06
0.452838
0.452838
0.452838
0.452838
0.452838
0.452838
0.452838
0.452838
0.452838
0.452838
0.452838
0.452838
0.452838
0.452838
0.452838
0.452838
0.452838
0.452838
0.452838
0.452838
0.452838
0.452838
0.452838
0.452838
0.452838
0.452838
0.452838
0.452838
0.452838
0.452838
0.452838
0.452838
0.452838
0.452838
0.452838
0.452838
0.452838
0.452838
0.452838
0.452838
0.452838
0.452838
0.452838
0.452838
0.452838
0.452838
0.452838
0.452838
0.452838
0.452838
0.452838
0.452838
0.452838
0.452838
0.452839
0.452838
0.452839
0.452762
0.453987
0.532893
0.0878797
0.0126062
0.0278974
0.0262714
0.0478611
0.411173
0.180614
0.0454504
0.0478788
0.0673768
0.288792
0.980035
0.965865
0.0683519
0.0358802
0.0202375
0.017387
0.0522056
0.019065
0.0220053
0.0221068
0.0218456
0.0260688
0.0103108
0.0761788
0.0574571
0.0570363
0.0695823
0.995461
0.976217
0.989842
0.0040737
0.00345556
0.000314262
4.20554e-05
7.60692e-06
0.452838
0.452838
0.452838
0.452838
0.452838
0.452838
0.452838
0.452838
0.452838
0.452838
0.452838
0.452838
0.452838
0.452838
0.452838
0.452838
0.452838
0.452838
0.452838
0.452838
0.452838
0.452838
0.452838
0.452838
0.452838
0.452838
0.452838
0.452838
0.452838
0.452838
0.452838
0.452838
0.452838
0.452838
0.452838
0.452838
0.452838
0.452838
0.452838
0.452838
0.452838
0.452838
0.452838
0.452838
0.452838
0.452838
0.452838
0.452838
0.452838
0.452838
0.452838
0.452838
0.452838
0.452838
0.452838
0.452838
0.452839
0.453023
0.446313
0.514526
0.0787675
0.0011861
0.000690969
6.8674e-05
2.49831e-05
9.17168e-05
4.03675e-05
0.00016069
0.000588466
0.00544775
6.95387e-05
7.74685e-06
6.25465e-06
0.000900043
0.00163737
0.00047148
7.84994e-06
0.000988251
8.63383e-06
7.36252e-06
8.92732e-06
2.97796e-05
0.000306571
0.000359146
0.000760581
0.0013093
0.00189115
0.00109881
0.000545173
0.000315675
0.000287074
0.000649663
3.30381e-05
1.02665e-05
1.09925e-05
0.000138048
0.452838
0.452838
0.452838
0.452838
0.452838
0.452838
0.452838
0.452838
0.452838
0.452838
0.452838
0.452838
0.452838
0.452838
0.452838
0.452838
0.452838
0.452838
0.452838
0.452838
0.452838
0.452838
0.452838
0.452838
0.452838
0.452838
0.452838
0.452838
0.452838
0.452838
0.452838
0.452838
0.452838
0.452838
0.452838
0.452838
0.452838
0.452838
0.452838
0.452838
0.452838
0.452838
0.452838
0.452838
0.452838
0.452838
0.452838
0.452838
0.452838
0.452838
0.452838
0.452838
0.452838
0.452838
0.452838
0.452838
0.452839
0.452838
0.452867
0.558448
0.0825675
0.000316321
2.29952e-06
0.000294025
0.000141455
0.00111374
0.000721483
0.00704122
0.00241432
0.00123148
0.00104393
0.00100728
0.00406992
0.00499169
0.00580876
0.00512898
0.00265621
0.00158102
0.00190802
0.00169183
0.000421516
0.000158719
0.000145198
0.000103049
9.04392e-05
0.000105688
0.000200903
0.000398024
0.000341491
0.000180588
0.000132933
0.000101691
0.000106698
0.000543113
0.00711467
0.000141098
0.452838
0.452838
0.452838
0.452838
0.452838
0.452838
0.452838
0.452838
0.452838
0.452838
0.452838
0.452838
0.452838
0.452838
0.452838
0.452838
0.452838
0.452838
0.452838
0.452838
0.452838
0.452838
0.452838
0.452838
0.452838
0.452838
0.452838
0.452838
0.452838
0.452838
0.452838
0.452838
0.452838
0.452838
0.452838
0.452838
0.452838
0.452838
0.452838
0.452838
0.452838
0.452838
0.452838
0.452838
0.452838
0.452838
0.452838
0.452838
0.452838
0.452838
0.452838
0.452838
0.452838
0.452838
0.452838
0.452838
0.452839
0.452839
0.4529
0.519816
0.112817
0.000372889
2.36958e-06
0.000259012
0.00131512
0.000948115
0.00133506
0.00314818
0.0105555
0.148185
0.0142441
0.014791
0.0766069
0.00923953
0.0052923
0.00704334
0.0245434
0.0062349
0.0044345
0.00373032
0.0028399
0.0234006
0.0026508
0.0012133
0.00178115
0.00697486
0.00569717
0.00323417
0.000307205
0.000571595
0.00392743
0.00453052
0.0058478
0.0173221
0.00499028
0.000132559
0.452838
0.452838
0.452838
0.452838
0.452838
0.452838
0.452838
0.452838
0.452838
0.452838
0.452838
0.452838
0.452838
0.452838
0.452838
0.452838
0.452838
0.452838
0.452838
0.452838
0.452838
0.452838
0.452838
0.452838
0.452838
0.452838
0.452838
0.452838
0.452838
0.452838
0.452838
0.452838
0.452838
0.452838
0.452838
0.452838
0.452838
0.452838
0.452838
0.452838
0.452838
0.452838
0.452838
0.452838
0.452838
0.452838
0.452838
0.452838
0.452838
0.452838
0.452838
0.452838
0.452838
0.452838
0.452838
0.452838
0.452839
0.452841
0.456222
0.553918
0.0470622
0.000523529
2.3633e-06
0.000291203
0.000763222
0.00223961
0.00240288
0.00573348
0.00621993
0.00420773
0.0055112
0.00762084
0.0276537
0.0200814
0.00600196
0.00498856
0.0221186
0.370071
0.00641068
0.0112384
0.200661
0.00387513
0.0085578
0.00213852
0.00541906
0.00380382
0.00181028
0.00159809
0.000284865
0.000541584
0.00399109
0.00386157
0.00218833
0.0016094
0.00111455
0.000118149
0.452838
0.452838
0.452838
0.452838
0.452838
0.452838
0.452838
0.452838
0.452838
0.452838
0.452838
0.452838
0.452838
0.452838
0.452838
0.452838
0.452838
0.452838
0.452838
0.452838
0.452838
0.452838
0.452838
0.452838
0.452838
0.452838
0.452838
0.452838
0.452838
0.452838
0.452838
0.452838
0.452838
0.452838
0.452838
0.452838
0.452838
0.452838
0.452838
0.452838
0.452838
0.452838
0.452838
0.452838
0.452838
0.452838
0.452838
0.452838
0.452838
0.452838
0.452838
0.452838
0.452838
0.452838
0.452838
0.452838
0.452839
0.452836
0.451878
0.520629
0.0999518
0.00104835
2.29182e-06
0.000289562
0.00689412
0.0013564
0.00276955
0.00193825
0.00288234
0.00665159
0.0302693
0.0165581
0.00853386
0.00686166
0.00552054
0.00883198
0.00895665
0.13141
0.0177925
0.00857657
0.0146866
0.00444453
0.00715089
0.0013778
0.00328409
0.00200648
0.00148418
0.00185989
0.000388298
0.000708385
0.00477189
0.076806
0.00281534
0.00133239
0.0010528
0.000119016
0.452838
0.452838
0.452838
0.452838
0.452838
0.452838
0.452838
0.452838
0.452838
0.452838
0.452838
0.452838
0.452838
0.452838
0.452838
0.452838
0.452838
0.452838
0.452838
0.452838
0.452838
0.452838
0.452838
0.452838
0.452838
0.452838
0.452838
0.452838
0.452838
0.452838
0.452838
0.452838
0.452838
0.452838
0.452838
0.452838
0.452838
0.452838
0.452838
0.452838
0.452838
0.452838
0.452838
0.452838
0.452838
0.452838
0.452838
0.452838
0.452838
0.452838
0.452838
0.452838
0.452838
0.452838
0.452838
0.452838
0.452839
0.453968
0.476666
0.50162
0.158685
0.00130901
3.88738e-06
0.000472654
0.0023446
0.00467668
0.00816344
0.00338415
0.00372684
0.0015036
0.00151778
0.00228111
0.00330351
0.00485954
0.00478008
0.00724053
0.0113893
0.0165546
0.0156808
0.0137438
0.010143
0.00953723
0.00948125
0.0125405
0.0196596
0.0108134
0.0101078
0.0135233
0.0306676
0.0306943
0.0111385
0.00811628
0.00370543
0.00135127
0.000505116
0.000103936
0.452838
0.452838
0.452838
0.452838
0.452838
0.452838
0.452838
0.452838
0.452838
0.452838
0.452838
0.452838
0.452838
0.452838
0.452838
0.452838
0.452838
0.452838
0.452838
0.452838
0.452838
0.452838
0.452838
0.452838
0.452838
0.452838
0.452838
0.452838
0.452838
0.452838
0.452838
0.452838
0.452838
0.452838
0.452838
0.452838
0.452838
0.452838
0.452838
0.452838
0.452838
0.452838
0.452838
0.452838
0.452838
0.452838
0.452838
0.452838
0.452838
0.452838
0.452838
0.452838
0.452838
0.452838
0.452838
0.452838
0.45284
0.452877
0.453017
0.502398
0.573323
9.9366e-06
8.43509e-05
0.000546932
0.000538897
0.004025
0.258585
0.00258338
0.000966391
0.000847092
0.00173106
0.00899991
0.0087985
0.0380181
0.0291094
0.339387
0.0132782
0.0124139
0.00933351
0.00661078
0.00516289
0.00538355
0.00699733
0.00795298
0.00644404
0.0121718
0.120355
0.0952435
0.0199471
0.0122613
0.00729733
0.00337162
0.00210933
0.000897095
0.000481444
0.000106629
0.452838
0.452838
0.452838
0.452838
0.452838
0.452838
0.452838
0.452838
0.452838
0.452838
0.452838
0.452838
0.452838
0.452838
0.452838
0.452838
0.452838
0.452838
0.452838
0.452838
0.452838
0.452838
0.452838
0.452838
0.452838
0.452838
0.452838
0.452838
0.452838
0.452838
0.452838
0.452838
0.452838
0.452838
0.452838
0.452838
0.452838
0.452838
0.452838
0.452838
0.452838
0.452838
0.452838
0.452838
0.452838
0.452838
0.452838
0.452838
0.452838
0.452838
0.452838
0.452838
0.452838
0.452838
0.452838
0.452839
0.452839
0.452846
0.441632
0.5235
0.394463
1.40727e-06
1.12675e-05
1.9816e-05
9.33083e-06
0.000216475
0.000198556
0.000484477
0.000199246
8.28756e-06
1.48572e-05
1.41317e-05
6.63888e-06
0.000364527
0.000423362
0.000606634
0.000512426
0.000645111
0.00109452
0.00337394
0.0027341
0.00453174
0.00220085
0.0171741
0.00278342
0.0146141
0.00551441
0.0048334
0.00610984
0.0144008
0.0321365
0.010694
0.00283439
0.00098055
0.000471255
0.000106102
0.452838
0.452838
0.452838
0.452838
0.452838
0.452838
0.452838
0.452838
0.452838
0.452838
0.452838
0.452838
0.452838
0.452838
0.452838
0.452838
0.452838
0.452838
0.452838
0.452838
0.452838
0.452838
0.452838
0.452838
0.452838
0.452838
0.452838
0.452838
0.452838
0.452838
0.452838
0.452838
0.452838
0.452838
0.452838
0.452838
0.452838
0.452838
0.452838
0.452838
0.452838
0.452838
0.452838
0.452838
0.452838
0.452838
0.452838
0.452838
0.452838
0.452838
0.452838
0.452838
0.452838
0.452838
0.452838
0.452838
0.452839
0.452787
0.453788
0.498294
0.59933
0.000857925
0.0190897
0.00225069
0.00194022
0.00537657
0.0817731
0.00792238
0.00990924
0.00598313
0.00762908
0.0919731
0.0254823
0.00979715
0.603208
0.916704
0.00660363
0.0127386
0.0105236
0.987529
0.000325119
4.27645e-05
7.83671e-06
1.6121e-05
0.0188896
1.47827e-05
0.000347717
0.00889423
0.0279618
0.0129017
0.00710642
0.00504563
0.00233535
0.00116237
0.000452737
0.000104805
0.452838
0.452838
0.452838
0.452838
0.452838
0.452838
0.452838
0.452838
0.452838
0.452838
0.452838
0.452838
0.452838
0.452838
0.452838
0.452838
0.452838
0.452838
0.452838
0.452838
0.452838
0.452838
0.452838
0.452838
0.452838
0.452838
0.452838
0.452838
0.452838
0.452838
0.452838
0.452838
0.452838
0.452838
0.452838
0.452838
0.452838
0.452838
0.452838
0.452838
0.452838
0.452838
0.452838
0.452838
0.452838
0.452838
0.452838
0.452838
0.452838
0.452838
0.452838
0.452838
0.452838
0.452838
0.452839
0.452838
0.452839
0.452851
0.452972
0.514699
0.0928219
0.196961
0.0570832
0.0830419
0.13429
0.0331442
0.897465
0.129945
0.957852
0.87927
0.957212
0.936404
0.945128
0.933565
0.14189
0.054882
0.0320018
0.871115
0.974214
0.999994
0.160734
0.104991
0.0386176
0.0765742
0.00200205
0.000160171
1.20637e-05
6.28432e-06
0.000106436
0.000130319
0.00213466
0.00961584
0.00259059
0.00144681
0.000548525
9.48835e-05
0.452838
0.452838
0.452838
0.452838
0.452838
0.452838
0.452838
0.452838
0.452838
0.452838
0.452838
0.452838
0.452838
0.452838
0.452838
0.452838
0.452838
0.452838
0.452838
0.452838
0.452838
0.452838
0.452838
0.452838
0.452838
0.452838
0.452838
0.452838
0.452838
0.452838
0.452838
0.452838
0.452838
0.452838
0.452838
0.452838
0.452838
0.452838
0.452838
0.452838
0.452838
0.452838
0.452838
0.452838
0.452838
0.452838
0.452838
0.452838
0.452838
0.452838
0.452838
0.452838
0.452838
0.452838
0.452839
0.452838
0.452827
0.452698
0.451319
0.565702
0.961402
0.138374
0.902563
0.76429
0.182307
0.0655691
0.000318446
0.997501
0.438702
0.825699
0.788564
0.78081
0.834839
0.57141
0.801108
0.227349
0.782955
0.997625
0.993678
0.709162
0.69556
0.305659
0.43021
0.307266
0.735247
0.0765919
0.158175
0.0220302
0.00067231
1.30597e-05
4.18244e-06
9.94423e-05
0.000100455
8.09086e-05
8.07224e-05
2.88248e-05
0.452838
0.452838
0.452838
0.452838
0.452838
0.452838
0.452838
0.452838
0.452838
0.452838
0.452838
0.452838
0.452838
0.452838
0.452838
0.452838
0.452838
0.452838
0.452838
0.452838
0.452838
0.452838
0.452838
0.452838
0.452838
0.452838
0.452838
0.452838
0.452838
0.452838
0.452838
0.452838
0.452838
0.452838
0.452838
0.452838
0.452838
0.452838
0.452838
0.452838
0.452838
0.452838
0.452838
0.452838
0.452838
0.452838
0.452838
0.452838
0.452838
0.452838
0.452838
0.452838
0.452838
0.452838
0.452838
0.452838
0.452838
0.45285
0.447043
0.60307
0.0780609
0.690344
0.447743
0.479627
0.867411
0.237627
0.999977
0.577262
0.498731
0.84564
0.52495
0.407183
0.70971
0.209547
0.412746
0.583172
0.522869
0.312368
0.709995
0.911906
0.997796
0.600204
0.318814
0.55942
0.531221
0.566071
0.884788
0.973069
0.664389
0.0358661
0.0382981
0.797368
0.917552
0.134957
0.00896933
0.995749
0.452838
0.452838
0.452838
0.452838
0.452838
0.452838
0.452838
0.452838
0.452838
0.452838
0.452838
0.452838
0.452838
0.452838
0.452838
0.452838
0.452838
0.452838
0.452838
0.452838
0.452838
0.452838
0.452838
0.452838
0.452838
0.452838
0.452838
0.452838
0.452838
0.452838
0.452838
0.452838
0.452838
0.452838
0.452838
0.452838
0.452838
0.452838
0.452838
0.452838
0.452838
0.452838
0.452838
0.452838
0.452838
0.452838
0.452838
0.452838
0.452838
0.452838
0.452838
0.452838
0.452838
0.452838
0.452838
0.452839
0.452855
0.45284
0.454627
0.586695
0.162079
0.998865
0.911733
0.552582
0.763336
0.335875
0.597167
0.888652
0.806013
0.904626
0.870379
0.447801
0.833016
0.654637
0.440531
0.463584
0.230654
0.971675
0.998098
0.68599
0.874883
0.445976
0.511747
0.622062
0.357572
0.367194
0.529676
0.832508
0.241005
0.622369
0.85012
0.399693
0.25294
0.98586
0.98609
0.999952
0.452838
0.452838
0.452838
0.452838
0.452838
0.452838
0.452838
0.452838
0.452838
0.452838
0.452838
0.452838
0.452838
0.452838
0.452838
0.452838
0.452838
0.452838
0.452838
0.452838
0.452838
0.452838
0.452838
0.452838
0.452838
0.452838
0.452838
0.452838
0.452838
0.452838
0.452838
0.452838
0.452838
0.452838
0.452838
0.452838
0.452838
0.452838
0.452838
0.452838
0.452838
0.452838
0.452838
0.452838
0.452838
0.452838
0.452838
0.452838
0.452838
0.452838
0.452838
0.452838
0.452838
0.452838
0.452838
0.452838
0.452838
0.45282
0.452317
0.514925
0.373152
0.963123
0.995016
0.767246
0.999994
0.810018
0.875573
0.996914
0.102786
0.00837241
0.450383
0.244835
0.450169
0.310154
0.695026
0.305661
0.244817
0.529273
0.871912
0.938863
0.986181
0.847888
0.195983
0.350366
0.544974
0.572948
0.20277
0.372641
0.374513
0.458503
0.412175
0.754876
0.455151
0.494313
0.884434
0.893411
0.452838
0.452838
0.452838
0.452838
0.452838
0.452838
0.452838
0.452838
0.452838
0.452838
0.452838
0.452838
0.452838
0.452838
0.452838
0.452838
0.452838
0.452838
0.452838
0.452838
0.452838
0.452838
0.452838
0.452838
0.452838
0.452838
0.452838
0.452838
0.452838
0.452838
0.452838
0.452838
0.452838
0.452838
0.452838
0.452838
0.452838
0.452838
0.452838
0.452838
0.452838
0.452838
0.452838
0.452838
0.452838
0.452838
0.452838
0.452838
0.452838
0.452838
0.452838
0.452838
0.452838
0.452838
0.452838
0.452838
0.452838
0.452802
0.452501
0.519138
0.0578263
0.841406
0.921303
0.526623
0.867093
0.810525
0.950998
0.108045
0.916632
0.973412
0.723292
0.998433
0.597692
0.816333
0.768844
0.970877
0.957548
0.996102
0.862264
0.818181
0.242261
0.999694
0.991093
0.412207
0.151442
0.991491
0.920155
0.549929
0.33379
0.863251
0.531473
0.345723
0.401977
0.798004
0.845401
0.00670156
0.452838
0.452838
0.452838
0.452838
0.452838
0.452838
0.452838
0.452838
0.452838
0.452838
0.452838
0.452838
0.452838
0.452838
0.452838
0.452838
0.452838
0.452838
0.452838
0.452838
0.452838
0.452838
0.452838
0.452838
0.452838
0.452838
0.452838
0.452838
0.452838
0.452838
0.452838
0.452838
0.452838
0.452838
0.452838
0.452838
0.452838
0.452838
0.452838
0.452838
0.452838
0.452838
0.452838
0.452838
0.452838
0.452838
0.452838
0.452838
0.452838
0.452838
0.452838
0.452838
0.452838
0.452838
0.452839
0.452839
0.452838
0.452758
0.435604
0.539632
0.980717
0.0833436
0.104469
0.948374
0.0775583
0.434976
0.972331
0.10009
0.735959
0.176871
0.087623
0.161943
0.0826273
0.000254541
0.340784
0.999881
0.274198
0.0920615
0.110279
0.336353
0.140031
0.0637153
0.915848
0.140049
0.99833
0.085794
0.0434379
0.111124
0.0480441
0.000288092
0.057701
0.360605
0.0795877
0.10116
0.00423047
7.45281e-05
0.452838
0.452838
0.452838
0.452838
0.452838
0.452838
0.452838
0.452838
0.452838
0.452838
0.452838
0.452838
0.452838
0.452838
0.452838
0.452838
0.452838
0.452838
0.452838
0.452838
0.452838
0.452838
0.452838
0.452838
0.452838
0.452838
0.452838
0.452838
0.452838
0.452838
0.452838
0.452838
0.452838
0.452838
0.452838
0.452838
0.452838
0.452838
0.452838
0.452838
0.452838
0.452838
0.452838
0.452838
0.452838
0.452838
0.452838
0.452838
0.452838
0.452838
0.452838
0.452838
0.452838
0.452838
0.452838
0.452838
0.452839
0.452814
0.421057
0.531021
0.993324
0.00143027
0.35705
0.0062898
0.00285419
0.00290371
0.00372069
0.000583122
0.00330447
0.000442439
0.134663
0.0166969
0.0649006
0.0385244
0.00437252
0.00216598
0.00263135
0.00431581
0.00428234
0.00413028
0.0044469
0.00550447
0.0132833
0.011842
0.0563663
0.0111259
0.0272359
0.00865459
0.00368228
0.00173768
0.00248831
0.00198193
7.14782e-05
1.02009e-05
8.4965e-06
0.000119183
0.452838
0.452838
0.452838
0.452838
0.452838
0.452838
0.452838
0.452838
0.452838
0.452838
0.452838
0.452838
0.452838
0.452838
0.452838
0.452838
0.452838
0.452838
0.452838
0.452838
0.452838
0.452838
0.452838
0.452838
0.452838
0.452838
0.452838
0.452838
0.452838
0.452838
0.452838
0.452838
0.452838
0.452838
0.452838
0.452838
0.452838
0.452838
0.452838
0.452838
0.452838
0.452838
0.452838
0.452838
0.452838
0.452838
0.452838
0.452838
0.452838
0.452838
0.452838
0.452838
0.452838
0.452838
0.452838
0.452838
0.452839
0.452827
0.45587
0.531838
0.165185
0.99999
0.000158455
6.87455e-06
1.15453e-05
1.04212e-05
7.15884e-05
9.98145e-06
5.69278e-06
0.000664586
0.000480119
0.000379155
0.000341559
0.000356379
0.00080602
0.00057871
0.00026335
0.000258151
0.000244445
0.000185927
0.00014696
0.000145726
0.000226661
0.000359559
0.000597725
0.00135479
0.00540643
0.000236561
0.000118781
0.000130669
0.000155716
0.000191561
0.000319834
0.000970618
0.00185476
0.000143561
0.452838
0.452838
0.452838
0.452838
0.452838
0.452838
0.452838
0.452838
0.452838
0.452838
0.452838
0.452838
0.452838
0.452838
0.452838
0.452838
0.452838
0.452838
0.452838
0.452838
0.452838
0.452838
0.452838
0.452838
0.452838
0.452838
0.452838
0.452838
0.452838
0.452838
0.452838
0.452838
0.452838
0.452838
0.452838
0.452838
0.452838
0.452838
0.452838
0.452838
0.452838
0.452838
0.452838
0.452838
0.452838
0.452838
0.452838
0.452838
0.452838
0.452838
0.452838
0.452838
0.452838
0.452838
0.452838
0.452838
0.452838
0.452972
0.454276
0.512249
0.678347
7.78692e-06
4.53345e-05
0.00061148
0.000673123
0.000657363
0.00047497
0.000590207
0.00473045
0.0116213
0.0190727
0.0277724
0.0784492
0.0433217
0.011756
0.0187796
0.00352898
0.00357145
0.00458827
0.00208431
0.00179914
0.00296824
0.00136876
0.00155623
0.00141974
0.00209863
0.00905215
0.000459514
0.000472028
0.00164041
0.00848534
0.00664055
0.0116102
0.00394884
0.00549352
0.000138637
0.452838
0.452838
0.452838
0.452838
0.452838
0.452838
0.452838
0.452838
0.452838
0.452838
0.452838
0.452838
0.452838
0.452838
0.452838
0.452838
0.452838
0.452838
0.452838
0.452838
0.452838
0.452838
0.452838
0.452838
0.452838
0.452838
0.452838
0.452838
0.452838
0.452838
0.452838
0.452838
0.452838
0.452838
0.452838
0.452838
0.452838
0.452838
0.452838
0.452838
0.452838
0.452838
0.452838
0.452838
0.452838
0.452838
0.452838
0.452838
0.452838
0.452838
0.452838
0.452838
0.452838
0.452838
0.452838
0.452838
0.452839
0.453164
0.480106
0.476018
0.664105
3.39554e-06
0.000677557
0.000174038
0.000352293
0.00180995
0.027236
0.00213433
0.00179276
0.00192201
0.00270945
0.00518447
0.0171341
0.00661801
0.00312509
0.00297447
0.0139565
0.00601109
0.00377534
0.00264876
0.00347462
0.00167091
0.00149384
0.00864075
0.00621916
0.00803606
0.0300264
0.000527319
0.000400188
0.00113701
0.0101219
0.00273426
0.00216371
0.00154121
0.00291956
0.000128152
0.452838
0.452838
0.452838
0.452838
0.452838
0.452838
0.452838
0.452838
0.452838
0.452838
0.452838
0.452838
0.452838
0.452838
0.452838
0.452838
0.452838
0.452838
0.452838
0.452838
0.452838
0.452838
0.452838
0.452838
0.452838
0.452838
0.452838
0.452838
0.452838
0.452838
0.452838
0.452838
0.452838
0.452838
0.452838
0.452838
0.452838
0.452838
0.452838
0.452838
0.452838
0.452838
0.452838
0.452838
0.452838
0.452838
0.452838
0.452838
0.452838
0.452838
0.452838
0.452838
0.452838
0.452838
0.452838
0.452838
0.452839
0.452896
0.455819
0.540476
0.0931059
0.000397657
2.36266e-06
0.000234717
0.000615604
0.000926369
0.00344728
0.00322845
0.246968
0.00854248
0.0103944
0.0154321
0.0271606
0.0186667
0.00944293
0.0191646
0.0527704
0.0372669
0.0399974
0.00643113
0.0038298
0.00102432
0.00180191
0.00738913
0.00181806
0.0238093
0.00836065
0.000813283
0.000566974
0.00147968
0.0184983
0.00626672
0.00253685