/*--------------------------------*- C++ -*----------------------------------*\
| =========                 |                                                 |
| \\      /  F ield         | OpenFOAM: The Open Source CFD Toolbox           |
|  \\    /   O peration     | Version:  2.3.0                                 |
|   \\  /    A nd           | Web:      www.OpenFOAM.org                      |
|    \\/     M anipulation  |                                                 |
\*---------------------------------------------------------------------------*/
FoamFile
{
    version     2.0;
    format      ascii;
    class       volScalarField;
    location    "1";
    object      alpha.air;
}
// * * * * * * * * * * * * * * * * * * * * * * * * * * * * * * * * * * * * * //

dimensions      [0 0 0 0 0 0 0];

internalField   nonuniform List<scalar> 
6144
(
0.99999
0.99999
0.99999
0.99999
0.99999
0.99999
0.99999
0.99999
0.99999
0.99999
0.99999
0.99999
0.99999
0.99999
0.99999
0.99999
0.99999
0.99999
0.99999
0.99999
0.99999
0.99999
0.99999
0.99999
0.99999
0.99999
0.99999
0.99999
0.99999
0.99999
0.99999
0.99999
0.99999
0.99999
0.99999
0.99999
0.99999
0.99999
0.99999
0.99999
0.99999
0.99999
0.99999
0.99999
0.99999
0.99999
0.99999
0.99999
0.99999
0.99999
0.99999
0.99999
0.99999
0.99999
0.99999
0.99999
0.99999
0.999987
0.99999
0.812042
0.00373599
3.10696e-06
8.91099e-07
8.9112e-07
8.91102e-07
8.9135e-07
8.91385e-07
8.93632e-07
8.92009e-07
8.94322e-07
8.91691e-07
8.96601e-07
8.88026e-07
8.95198e-07
8.8855e-07
8.94772e-07
8.89525e-07
8.93851e-07
8.90636e-07
8.92326e-07
8.92146e-07
8.92118e-07
8.92283e-07
8.92415e-07
8.92699e-07
8.93096e-07
8.93357e-07
8.93471e-07
8.93528e-07
8.93813e-07
8.95712e-07
8.97312e-07
8.60759e-07
7.80275e-07
7.79791e-07
7.80311e-07
0.99999
0.99999
0.99999
0.99999
0.99999
0.99999
0.99999
0.99999
0.99999
0.99999
0.99999
0.99999
0.99999
0.99999
0.99999
0.99999
0.99999
0.99999
0.99999
0.99999
0.99999
0.99999
0.99999
0.99999
0.99999
0.99999
0.99999
0.99999
0.99999
0.99999
0.99999
0.99999
0.99999
0.99999
0.99999
0.99999
0.99999
0.99999
0.99999
0.99999
0.99999
0.99999
0.99999
0.99999
0.99999
0.99999
0.99999
0.99999
0.99999
0.99999
0.99999
0.99999
0.99999
0.99999
0.99999
0.99999
0.99999
0.999983
0.999841
0.910297
0.0369507
2.1075e-05
8.91109e-07
8.95635e-07
8.91337e-07
8.92471e-07
8.91401e-07
8.93664e-07
8.90781e-07
8.94349e-07
8.9066e-07
8.96616e-07
8.87701e-07
8.95201e-07
8.88417e-07
8.94845e-07
8.89551e-07
8.93952e-07
8.90707e-07
8.92431e-07
8.92275e-07
8.92286e-07
8.92457e-07
8.9258e-07
8.92842e-07
8.93298e-07
8.93556e-07
8.93667e-07
8.93676e-07
8.93677e-07
8.91587e-07
8.70905e-07
8.1131e-07
7.79435e-07
7.79753e-07
7.79788e-07
0.99999
0.99999
0.99999
0.99999
0.99999
0.99999
0.99999
0.99999
0.99999
0.99999
0.99999
0.99999
0.99999
0.99999
0.99999
0.99999
0.99999
0.99999
0.99999
0.99999
0.99999
0.99999
0.99999
0.99999
0.99999
0.99999
0.99999
0.99999
0.99999
0.99999
0.99999
0.99999
0.99999
0.99999
0.99999
0.99999
0.99999
0.99999
0.99999
0.99999
0.99999
0.99999
0.99999
0.99999
0.99999
0.99999
0.99999
0.99999
0.99999
0.99999
0.99999
0.99999
0.99999
0.99999
0.99999
0.99999
0.999989
0.999982
0.998539
0.922745
0.0493842
0.000201697
8.91118e-07
8.9665e-07
9.14601e-07
8.95285e-07
8.91425e-07
8.9437e-07
8.90735e-07
8.95118e-07
8.90825e-07
8.9632e-07
8.87591e-07
8.94227e-07
8.88417e-07
8.93934e-07
8.89499e-07
8.93463e-07
8.90358e-07
8.91943e-07
8.91784e-07
8.91782e-07
8.91853e-07
8.91965e-07
8.92152e-07
8.92629e-07
8.92897e-07
8.9297e-07
8.92981e-07
8.92862e-07
8.90253e-07
8.67879e-07
8.09109e-07
7.79432e-07
7.78915e-07
7.79752e-07
0.99999
0.99999
0.99999
0.99999
0.99999
0.99999
0.99999
0.99999
0.99999
0.99999
0.99999
0.99999
0.99999
0.99999
0.99999
0.99999
0.99999
0.99999
0.99999
0.99999
0.99999
0.99999
0.99999
0.99999
0.99999
0.99999
0.99999
0.99999
0.99999
0.99999
0.99999
0.99999
0.99999
0.99999
0.99999
0.99999
0.99999
0.99999
0.99999
0.99999
0.99999
0.99999
0.99999
0.99999
0.99999
0.99999
0.99999
0.99999
0.99999
0.99999
0.99999
0.99999
0.99999
0.99999
0.99999
0.99999
0.999976
0.999969
0.998523
0.897653
0.036827
9.37577e-05
3.23631e-06
1.8645e-06
8.92131e-07
8.95049e-07
8.93793e-07
8.91686e-07
8.90264e-07
8.94522e-07
8.98552e-07
8.98251e-07
8.87557e-07
8.91142e-07
8.88416e-07
8.92421e-07
8.89503e-07
8.92822e-07
8.90389e-07
8.91609e-07
8.91468e-07
8.91803e-07
8.9276e-07
8.93085e-07
8.9278e-07
8.92831e-07
8.93063e-07
8.93464e-07
8.93515e-07
8.93537e-07
8.91294e-07
8.71344e-07
8.12149e-07
7.79109e-07
7.78609e-07
7.78915e-07
0.99999
0.99999
0.99999
0.99999
0.99999
0.99999
0.99999
0.99999
0.99999
0.99999
0.99999
0.99999
0.99999
0.99999
0.99999
0.99999
0.99999
0.99999
0.99999
0.99999
0.99999
0.99999
0.99999
0.99999
0.99999
0.99999
0.99999
0.99999
0.99999
0.99999
0.99999
0.99999
0.99999
0.99999
0.99999
0.99999
0.99999
0.99999
0.99999
0.99999
0.99999
0.99999
0.99999
0.99999
0.99999
0.99999
0.99999
0.99999
0.99999
0.99999
0.99999
0.99999
0.99999
0.99999
0.99999
0.99999
0.999989
0.999979
0.998102
0.904207
0.0467524
0.000618042
0.000328012
0.000186962
4.87066e-05
7.01397e-06
3.03441e-06
9.33722e-07
8.87443e-07
9.01627e-07
8.89796e-07
8.85484e-07
8.83751e-07
8.89038e-07
8.89313e-07
8.98298e-07
8.90999e-07
8.94117e-07
8.8663e-07
8.8358e-07
8.82626e-07
8.83033e-07
8.85449e-07
8.91897e-07
8.98029e-07
8.92228e-07
8.90216e-07
8.91627e-07
8.92721e-07
8.93402e-07
8.95004e-07
8.99927e-07
8.8944e-07
7.89609e-07
7.77856e-07
7.78607e-07
0.99999
0.99999
0.99999
0.99999
0.99999
0.99999
0.99999
0.99999
0.99999
0.99999
0.99999
0.99999
0.99999
0.99999
0.99999
0.99999
0.99999
0.99999
0.99999
0.99999
0.99999
0.99999
0.99999
0.99999
0.99999
0.99999
0.99999
0.99999
0.99999
0.99999
0.99999
0.99999
0.99999
0.99999
0.99999
0.99999
0.99999
0.99999
0.99999
0.99999
0.99999
0.99999
0.99999
0.99999
0.99999
0.99999
0.99999
0.99999
0.99999
0.99999
0.99999
0.99999
0.99999
0.99999
0.99999
0.99999
0.999984
0.999966
0.999108
0.863203
0.0338727
0.00411359
0.0039176
0.00175186
0.00101097
0.000559415
0.000296548
0.000133618
5.66024e-05
1.56394e-05
3.90606e-06
1.05477e-06
1.21254e-06
2.23127e-06
1.93164e-06
9.44947e-07
9.82387e-07
1.48141e-06
1.03338e-06
8.55606e-07
9.01813e-07
8.74682e-07
8.4152e-07
8.21114e-07
8.21114e-07
8.21114e-07
8.27475e-07
8.65338e-07
8.42169e-07
8.48905e-07
8.72708e-07
8.53254e-07
7.77554e-07
7.77423e-07
7.77658e-07
7.77855e-07
0.99999
0.99999
0.99999
0.99999
0.99999
0.99999
0.99999
0.99999
0.99999
0.99999
0.99999
0.99999
0.99999
0.99999
0.99999
0.99999
0.99999
0.99999
0.99999
0.99999
0.99999
0.99999
0.99999
0.99999
0.99999
0.99999
0.99999
0.99999
0.99999
0.99999
0.99999
0.99999
0.99999
0.99999
0.99999
0.99999
0.99999
0.99999
0.99999
0.99999
0.99999
0.99999
0.99999
0.99999
0.99999
0.99999
0.99999
0.99999
0.99999
0.99999
0.99999
0.99999
0.99999
0.99999
0.99999
0.99999
0.99998
0.999975
0.99999
0.750357
0.0370057
0.0198677
0.0201006
0.0126397
0.00848025
0.00560078
0.00413187
0.00289173
0.00182928
0.00102109
0.000703601
0.000617064
0.000665373
0.00056154
0.00058618
0.000482432
0.000495014
0.000394791
0.00041501
0.000384157
0.000403486
0.000319976
0.000283831
0.000303288
0.000346697
0.000395825
0.000439479
0.00033193
0.000179919
5.77856e-05
2.4196e-05
1.55868e-05
6.41746e-06
2.71233e-06
7.77855e-07
7.78607e-07
0.99999
0.99999
0.99999
0.99999
0.99999
0.99999
0.99999
0.99999
0.99999
0.99999
0.99999
0.99999
0.99999
0.99999
0.99999
0.99999
0.99999
0.99999
0.99999
0.99999
0.99999
0.99999
0.99999
0.99999
0.99999
0.99999
0.99999
0.99999
0.99999
0.99999
0.99999
0.99999
0.99999
0.99999
0.99999
0.99999
0.99999
0.99999
0.99999
0.99999
0.99999
0.99999
0.99999
0.99999
0.99999
0.99999
0.99999
0.99999
0.99999
0.99999
0.99999
0.99999
0.99999
0.99999
0.99999
0.999989
0.999975
0.999955
0.998195
0.78006
0.0815927
0.045511
0.0424362
0.030628
0.0226405
0.0176835
0.0134892
0.0100165
0.00767967
0.00663269
0.00663668
0.00724022
0.00774922
0.00856743
0.0102023
0.0125979
0.0142113
0.0146833
0.0149246
0.0151354
0.0151466
0.0155541
0.0164039
0.0167517
0.0168717
0.0180805
0.024723
0.0283754
0.0276873
0.0220318
0.0197418
0.0182177
0.0154324
0.011931
0.00870333
0.00610745
0.99999
0.99999
0.99999
0.99999
0.99999
0.99999
0.99999
0.99999
0.99999
0.99999
0.99999
0.99999
0.99999
0.99999
0.99999
0.99999
0.99999
0.99999
0.99999
0.99999
0.99999
0.99999
0.99999
0.99999
0.99999
0.99999
0.99999
0.99999
0.99999
0.99999
0.99999
0.99999
0.99999
0.99999
0.99999
0.99999
0.99999
0.99999
0.99999
0.99999
0.99999
0.99999
0.99999
0.99999
0.99999
0.99999
0.99999
0.99999
0.99999
0.99999
0.99999
0.99999
0.99999
0.99999
0.99999
0.99999
0.999987
0.999983
0.997821
0.882449
0.0887908
0.0312128
0.0293682
0.0154397
0.0114615
0.0101264
0.00500508
0.0022676
0.00128945
0.000980389
0.000971986
0.00130195
0.00179829
0.00197776
0.0022053
0.00267259
0.00304311
0.00322574
0.00337271
0.00358509
0.00378603
0.00375976
0.00374196
0.00415756
0.00419354
0.00341867
0.0032445
0.00292803
0.00216035
0.00136986
0.000558316
0.000222567
5.44379e-05
3.79266e-06
7.13633e-06
3.0649e-06
0.99999
0.99999
0.99999
0.99999
0.99999
0.99999
0.99999
0.99999
0.99999
0.99999
0.99999
0.99999
0.99999
0.99999
0.99999
0.99999
0.99999
0.99999
0.99999
0.99999
0.99999
0.99999
0.99999
0.99999
0.99999
0.99999
0.99999
0.99999
0.99999
0.99999
0.99999
0.99999
0.99999
0.99999
0.99999
0.99999
0.99999
0.99999
0.99999
0.99999
0.99999
0.99999
0.99999
0.99999
0.99999
0.99999
0.99999
0.99999
0.99999
0.99999
0.99999
0.99999
0.99999
0.99999
0.99999
0.99999
0.99999
0.999976
0.997343
0.919774
0.0677601
0.00753158
0.00742039
0.00513179
0.00208439
0.00123
0.000417998
0.00012283
3.85625e-05
1.65586e-05
1.37635e-05
1.87025e-05
3.95544e-05
5.35623e-05
6.31272e-05
7.01639e-05
7.76189e-05
8.2553e-05
8.42117e-05
8.44836e-05
9.76467e-05
0.00010243
8.8422e-05
8.1085e-05
7.67389e-05
5.71906e-05
3.2446e-05
1.3883e-05
5.5393e-06
2.32939e-06
7.98103e-07
7.88465e-07
7.7554e-07
7.76026e-07
7.76517e-07
7.77006e-07
0.999991
0.99999
0.99999
0.99999
0.99999
0.99999
0.99999
0.99999
0.99999
0.99999
0.99999
0.99999
0.99999
0.99999
0.99999
0.99999
0.99999
0.99999
0.99999
0.99999
0.99999
0.99999
0.99999
0.99999
0.99999
0.99999
0.99999
0.99999
0.99999
0.99999
0.99999
0.99999
0.99999
0.99999
0.99999
0.99999
0.99999
0.99999
0.99999
0.99999
0.99999
0.99999
0.99999
0.99999
0.99999
0.99999
0.99999
0.99999
0.99999
0.99999
0.99999
0.99999
0.99999
0.99999
0.99999
0.99999
0.99999
0.999982
0.998207
0.927737
0.061609
0.00103721
0.000399828
0.000216006
6.68099e-05
2.31021e-05
5.66417e-06
1.3728e-06
8.45421e-07
8.46593e-07
8.45422e-07
8.45422e-07
8.4817e-07
8.59036e-07
8.73167e-07
8.91798e-07
9.01872e-07
9.26353e-07
9.21487e-07
9.29712e-07
9.71359e-07
1.00549e-06
9.86041e-07
9.55236e-07
9.38157e-07
9.27463e-07
9.18133e-07
9.09686e-07
9.09174e-07
9.00515e-07
8.89522e-07
8.82078e-07
8.76586e-07
7.84407e-07
7.77007e-07
7.775e-07
0.999991
0.99999
0.99999
0.99999
0.99999
0.99999
0.99999
0.99999
0.99999
0.99999
0.99999
0.99999
0.99999
0.99999
0.99999
0.99999
0.99999
0.99999
0.99999
0.99999
0.99999
0.99999
0.99999
0.99999
0.99999
0.99999
0.99999
0.99999
0.99999
0.99999
0.99999
0.99999
0.99999
0.99999
0.99999
0.99999
0.99999
0.99999
0.99999
0.99999
0.99999
0.99999
0.99999
0.99999
0.99999
0.99999
0.99999
0.99999
0.99999
0.99999
0.99999
0.99999
0.99999
0.99999
0.99999
0.99999
0.99999
0.999986
0.998971
0.945413
0.053864
0.000354237
3.19098e-06
1.17039e-06
8.81761e-07
9.1079e-07
9.24335e-07
9.29595e-07
9.07895e-07
8.98348e-07
8.81051e-07
8.9731e-07
8.89131e-07
8.88181e-07
8.74913e-07
8.83541e-07
8.78132e-07
8.84921e-07
8.82376e-07
8.84443e-07
8.88131e-07
8.89773e-07
8.88285e-07
8.87357e-07
8.88754e-07
8.90511e-07
8.91776e-07
8.92811e-07
8.93191e-07
8.94118e-07
8.96474e-07
8.98731e-07
8.67997e-07
7.78745e-07
7.77501e-07
7.77992e-07
0.999992
0.99999
0.99999
0.99999
0.99999
0.99999
0.99999
0.99999
0.99999
0.99999
0.99999
0.99999
0.99999
0.99999
0.99999
0.99999
0.99999
0.99999
0.99999
0.99999
0.99999
0.99999
0.99999
0.99999
0.99999
0.99999
0.99999
0.99999
0.99999
0.99999
0.99999
0.99999
0.99999
0.99999
0.99999
0.99999
0.99999
0.99999
0.99999
0.99999
0.99999
0.99999
0.99999
0.99999
0.99999
0.99999
0.99999
0.99999
0.99999
0.99999
0.99999
0.99999
0.99999
0.99999
0.99999
0.99999
0.999989
0.999986
0.999294
0.95173
0.0671646
0.00056647
1.27259e-06
8.81787e-07
8.83388e-07
8.85129e-07
8.843e-07
8.92441e-07
8.85252e-07
8.90849e-07
8.83042e-07
8.9141e-07
8.83828e-07
8.89498e-07
8.81535e-07
8.87745e-07
8.82727e-07
8.86773e-07
8.84219e-07
8.85647e-07
8.85854e-07
8.86157e-07
8.87141e-07
8.88231e-07
8.89612e-07
8.91037e-07
8.92466e-07
8.93483e-07
8.94063e-07
8.94924e-07
8.94416e-07
8.77579e-07
8.20381e-07
7.79013e-07
7.77993e-07
7.78485e-07
0.999992
0.99999
0.99999
0.99999
0.99999
0.99999
0.99999
0.99999
0.99999
0.99999
0.99999
0.99999
0.99999
0.99999
0.99999
0.99999
0.99999
0.99999
0.99999
0.99999
0.99999
0.99999
0.99999
0.99999
0.99999
0.99999
0.99999
0.99999
0.99999
0.99999
0.99999
0.99999
0.99999
0.99999
0.99999
0.99999
0.99999
0.99999
0.99999
0.99999
0.99999
0.99999
0.99999
0.99999
0.99999
0.99999
0.99999
0.99999
0.99999
0.99999
0.99999
0.99999
0.99999
0.99999
0.99999
0.99999
0.999987
0.999984
0.999818
0.929601
0.0465027
7.84763e-05
8.81755e-07
8.86374e-07
8.83135e-07
8.85955e-07
8.85082e-07
8.88528e-07
8.82777e-07
8.87234e-07
8.83058e-07
8.86718e-07
8.83594e-07
8.89067e-07
8.81367e-07
8.87773e-07
8.82794e-07
8.86831e-07
8.84188e-07
8.85951e-07
8.86156e-07
8.86511e-07
8.87504e-07
8.88847e-07
8.90325e-07
8.91716e-07
8.93051e-07
8.93938e-07
8.94555e-07
8.9536e-07
8.9296e-07
8.64064e-07
8.02015e-07
7.79394e-07
7.78487e-07
7.78976e-07
0.999992
0.99999
0.99999
0.99999
0.99999
0.99999
0.99999
0.99999
0.99999
0.99999
0.99999
0.99999
0.99999
0.99999
0.99999
0.99999
0.99999
0.99999
0.99999
0.99999
0.99999
0.99999
0.99999
0.99999
0.99999
0.99999
0.99999
0.99999
0.99999
0.99999
0.99999
0.99999
0.99999
0.99999
0.99999
0.99999
0.99999
0.99999
0.99999
0.99999
0.99999
0.99999
0.99999
0.99999
0.99999
0.99999
0.99999
0.99999
0.99999
0.99999
0.99999
0.99999
0.99999
0.99999
0.999988
0.999982
0.999945
0.999958
0.999837
0.897542
0.0448844
9.73495e-07
8.81756e-07
8.81757e-07
8.8176e-07
8.84915e-07
8.82633e-07
8.87875e-07
8.82696e-07
8.87216e-07
8.83456e-07
8.86698e-07
8.84101e-07
8.89053e-07
8.81743e-07
8.87773e-07
8.83338e-07
8.86832e-07
8.84828e-07
8.86449e-07
8.86685e-07
8.87132e-07
8.88168e-07
8.89559e-07
8.91176e-07
8.92588e-07
8.9357e-07
8.94291e-07
8.94971e-07
8.95891e-07
8.94382e-07
8.67777e-07
8.05019e-07
7.79926e-07
7.78978e-07
7.79469e-07
0.999993
0.99999
0.99999
0.99999
0.99999
0.99999
0.99999
0.99999
0.99999
0.99999
0.99999
0.99999
0.99999
0.99999
0.99999
0.99999
0.99999
0.99999
0.99999
0.99999
0.99999
0.99999
0.99999
0.99999
0.99999
0.99999
0.99999
0.99999
0.99999
0.99999
0.99999
0.99999
0.99999
0.99999
0.99999
0.99999
0.99999
0.99999
0.99999
0.99999
0.99999
0.99999
0.99999
0.99999
0.99999
0.99999
0.99999
0.99999
0.99999
0.99999
0.99999
0.99999
0.99999
0.99999
0.99999
0.999989
0.99998
0.999973
0.999986
0.876781
0.0304261
8.81775e-07
8.84969e-07
8.86376e-07
8.86375e-07
8.86375e-07
8.85943e-07
8.87851e-07
8.84375e-07
8.87196e-07
8.84137e-07
8.86671e-07
8.83755e-07
8.89e-07
8.81513e-07
8.87774e-07
8.83094e-07
8.86832e-07
8.84523e-07
8.86281e-07
8.86592e-07
8.87198e-07
8.8834e-07
8.89679e-07
8.91253e-07
8.92797e-07
8.93686e-07
8.94228e-07
8.94776e-07
8.95891e-07
8.95152e-07
8.69594e-07
8.05618e-07
7.8041e-07
7.79471e-07
7.79963e-07
0.99999
0.99999
0.99999
0.99999
0.99999
0.99999
0.99999
0.99999
0.99999
0.99999
0.99999
0.99999
0.99999
0.99999
0.99999
0.99999
0.99999
0.99999
0.99999
0.99999
0.99999
0.99999
0.99999
0.99999
0.99999
0.99999
0.99999
0.99999
0.99999
0.99999
0.99999
0.99999
0.99999
0.99999
0.99999
0.99999
0.99999
0.99999
0.99999
0.99999
0.99999
0.99999
0.99999
0.99999
0.99999
0.99999
0.99999
0.99999
0.99999
0.99999
0.99999
0.99999
0.99999
0.99999
0.99999
0.99999
0.99999
0.999981
0.999575
0.911602
0.049018
0.00012103
8.91095e-07
8.91083e-07
8.91095e-07
8.9198e-07
8.91389e-07
8.93163e-07
8.9104e-07
8.94216e-07
8.9066e-07
8.95912e-07
8.87965e-07
8.94807e-07
8.88417e-07
8.94115e-07
8.89504e-07
8.93248e-07
8.90536e-07
8.91772e-07
8.91776e-07
8.91779e-07
8.91783e-07
8.91787e-07
8.91958e-07
8.92341e-07
8.92538e-07
8.92569e-07
8.92579e-07
8.924e-07
8.89405e-07
8.65954e-07
8.08365e-07
7.79436e-07
7.79753e-07
7.7979e-07
0.99999
0.99999
0.99999
0.99999
0.99999
0.99999
0.99999
0.99999
0.99999
0.99999
0.99999
0.99999
0.99999
0.99999
0.99999
0.99999
0.99999
0.99999
0.99999
0.99999
0.99999
0.99999
0.99999
0.99999
0.99999
0.99999
0.99999
0.99999
0.99999
0.99999
0.99999
0.99999
0.99999
0.99999
0.99999
0.99999
0.99999
0.99999
0.99999
0.99999
0.99999
0.99999
0.99999
0.99999
0.99999
0.99999
0.99999
0.99999
0.99999
0.99999
0.99999
0.99999
0.99999
0.99999
0.99999
0.99999
0.99999
0.999978
0.998694
0.921763
0.0532445
0.000225625
8.911e-07
8.91095e-07
8.91102e-07
8.91701e-07
8.91555e-07
8.95518e-07
8.91017e-07
8.95913e-07
8.90634e-07
8.97148e-07
8.87961e-07
8.95577e-07
8.88417e-07
8.94904e-07
8.89519e-07
8.93967e-07
8.90703e-07
8.92424e-07
8.92198e-07
8.92158e-07
8.9228e-07
8.92355e-07
8.92525e-07
8.92938e-07
8.93211e-07
8.93261e-07
8.93274e-07
8.93041e-07
8.89205e-07
8.62537e-07
8.05492e-07
7.79538e-07
7.78917e-07
7.79752e-07
0.99999
0.99999
0.99999
0.99999
0.99999
0.99999
0.99999
0.99999
0.99999
0.99999
0.99999
0.99999
0.99999
0.99999
0.99999
0.99999
0.99999
0.99999
0.99999
0.99999
0.99999
0.99999
0.99999
0.99999
0.99999
0.99999
0.99999
0.99999
0.99999
0.99999
0.99999
0.99999
0.99999
0.99999
0.99999
0.99999
0.99999
0.99999
0.99999
0.99999
0.99999
0.99999
0.99999
0.99999
0.99999
0.99999
0.99999
0.99999
0.99999
0.99999
0.99999
0.99999
0.99999
0.99999
0.99999
0.999988
0.999973
0.999955
0.999481
0.809801
0.00321299
8.23481e-06
8.91112e-07
9.15808e-07
9.03365e-07
9.07827e-07
8.92886e-07
9.04615e-07
9.22438e-07
9.22558e-07
9.14428e-07
9.09047e-07
8.95759e-07
9.0217e-07
8.94926e-07
8.98988e-07
8.91096e-07
8.94772e-07
8.91942e-07
8.93159e-07
8.92528e-07
8.9239e-07
8.92488e-07
8.92341e-07
8.92112e-07
8.92329e-07
8.9254e-07
8.92631e-07
8.92665e-07
8.92809e-07
8.9297e-07
8.88358e-07
8.43385e-07
7.79227e-07
7.78611e-07
7.78917e-07
0.99999
0.99999
0.99999
0.99999
0.99999
0.99999
0.99999
0.99999
0.99999
0.99999
0.99999
0.99999
0.99999
0.99999
0.99999
0.99999
0.99999
0.99999
0.99999
0.99999
0.99999
0.99999
0.99999
0.99999
0.99999
0.99999
0.99999
0.99999
0.99999
0.99999
0.99999
0.99999
0.99999
0.99999
0.99999
0.99999
0.99999
0.99999
0.99999
0.99999
0.99999
0.99999
0.99999
0.99999
0.99999
0.99999
0.99999
0.99999
0.99999
0.99999
0.99999
0.99999
0.99999
0.99999
0.99999
0.999977
0.999898
0.99974
0.999279
0.821261
0.00290979
0.000116406
8.81944e-05
3.71506e-05
1.17e-05
3.14977e-06
1.05646e-06
8.91677e-07
9.21708e-07
9.11138e-07
9.11791e-07
9.09499e-07
9.14344e-07
9.17847e-07
9.19425e-07
9.19992e-07
9.16296e-07
9.05463e-07
8.96713e-07
8.9473e-07
8.92729e-07
8.98665e-07
9.12175e-07
9.12149e-07
8.99026e-07
8.92007e-07
8.92401e-07
8.92875e-07
8.93323e-07
8.93606e-07
8.93783e-07
8.91555e-07
8.51976e-07
7.7883e-07
7.77875e-07
7.78608e-07
0.99999
0.99999
0.99999
0.99999
0.99999
0.99999
0.99999
0.99999
0.99999
0.99999
0.99999
0.99999
0.99999
0.99999
0.99999
0.99999
0.99999
0.99999
0.99999
0.99999
0.99999
0.99999
0.99999
0.99999
0.99999
0.99999
0.99999
0.99999
0.99999
0.99999
0.99999
0.99999
0.99999
0.99999
0.99999
0.99999
0.99999
0.99999
0.99999
0.99999
0.99999
0.99999
0.99999
0.99999
0.99999
0.99999
0.99999
0.99999
0.99999
0.99999
0.99999
0.99999
0.99999
0.99999
0.99999
0.99999
0.999983
0.999875
0.999125
0.815576
0.0168528
0.0049313
0.00385245
0.00187788
0.000918969
0.000470561
0.000169896
5.93004e-05
1.92305e-05
4.91571e-06
1.56093e-06
8.77362e-07
9.62455e-07
9.41874e-07
1.00912e-06
9.32753e-07
9.38398e-07
8.91014e-07
8.8479e-07
8.7898e-07
8.77534e-07
8.7702e-07
8.77533e-07
8.76977e-07
8.77533e-07
8.77143e-07
8.77533e-07
8.80069e-07
8.85492e-07
8.91338e-07
8.94869e-07
8.98467e-07
8.80483e-07
7.80989e-07
7.77658e-07
7.77874e-07
0.99999
0.99999
0.99999
0.99999
0.99999
0.99999
0.99999
0.99999
0.99999
0.99999
0.99999
0.99999
0.99999
0.99999
0.99999
0.99999
0.99999
0.99999
0.99999
0.99999
0.99999
0.99999
0.99999
0.99999
0.99999
0.99999
0.99999
0.99999
0.99999
0.99999
0.99999
0.99999
0.99999
0.99999
0.99999
0.99999
0.99999
0.99999
0.99999
0.99999
0.99999
0.99999
0.99999
0.99999
0.99999
0.99999
0.99999
0.99999
0.99999
0.99999
0.99999
0.99999
0.99999
0.99999
0.99999
0.999985
0.999943
0.99982
0.999351
0.736192
0.0609733
0.031758
0.0253298
0.0144834
0.00995329
0.00755419
0.0050111
0.00286429
0.00170009
0.00108775
0.000646857
0.000372236
0.000298268
0.00026313
0.000261389
0.000202755
0.000164389
0.000121597
0.000108077
9.52282e-05
7.03859e-05
5.36079e-05
3.53783e-05
2.3762e-05
7.74751e-06
4.96385e-06
9.88171e-07
9.10075e-07
8.40803e-07
8.03736e-07
7.91013e-07
7.77749e-07
7.76759e-07
7.77646e-07
7.77281e-07
7.77658e-07
0.99999
0.99999
0.99999
0.99999
0.99999
0.99999
0.99999
0.99999
0.99999
0.99999
0.99999
0.99999
0.99999
0.99999
0.99999
0.99999
0.99999
0.99999
0.99999
0.99999
0.99999
0.99999
0.99999
0.99999
0.99999
0.99999
0.99999
0.99999
0.99999
0.99999
0.99999
0.99999
0.99999
0.99999
0.99999
0.99999
0.99999
0.99999
0.99999
0.99999
0.99999
0.99999
0.99999
0.99999
0.99999
0.99999
0.99999
0.99999
0.99999
0.99999
0.99999
0.99999
0.99999
0.99999
0.999989
0.999975
0.999939
0.999912
0.999806
0.644692
0.092722
0.0612395
0.0540383
0.0442614
0.039147
0.0349668
0.0294884
0.0255996
0.0236771
0.0253181
0.02561
0.0246957
0.0251634
0.0245862
0.0226351
0.021762
0.0209982
0.0201983
0.0192182
0.0181133
0.0170343
0.0162906
0.0156638
0.0149728
0.013713
0.0128928
0.011504
0.00939601
0.00788698
0.00668346
0.00546571
0.00372316
0.00225634
0.000944902
0.000225223
4.78334e-05
0.99999
0.99999
0.99999
0.99999
0.99999
0.99999
0.99999
0.99999
0.99999
0.99999
0.99999
0.99999
0.99999
0.99999
0.99999
0.99999
0.99999
0.99999
0.99999
0.99999
0.99999
0.99999
0.99999
0.99999
0.99999
0.99999
0.99999
0.99999
0.99999
0.99999
0.99999
0.99999
0.99999
0.99999
0.99999
0.99999
0.99999
0.99999
0.99999
0.99999
0.99999
0.99999
0.99999
0.99999
0.99999
0.99999
0.99999
0.99999
0.99999
0.99999
0.99999
0.99999
0.99999
0.99999
0.999989
0.999969
0.999886
0.999709
0.996336
0.653428
0.111264
0.0812196
0.0790224
0.0701939
0.0638768
0.0621427
0.0634423
0.0708799
0.0753403
0.075306
0.0748802
0.0715534
0.0708666
0.0720243
0.0747984
0.0763168
0.0779162
0.0796853
0.0819251
0.0844759
0.0872294
0.0898589
0.0923129
0.0943411
0.096039
0.0978587
0.100552
0.104845
0.111005
0.118913
0.127809
0.138537
0.15297
0.175396
0.22299
0.413367
0.999991
0.99999
0.99999
0.99999
0.99999
0.99999
0.99999
0.99999
0.99999
0.99999
0.99999
0.99999
0.99999
0.99999
0.99999
0.99999
0.99999
0.99999
0.99999
0.99999
0.99999
0.99999
0.99999
0.99999
0.99999
0.99999
0.99999
0.99999
0.99999
0.99999
0.99999
0.99999
0.99999
0.99999
0.99999
0.99999
0.99999
0.99999
0.99999
0.99999
0.99999
0.99999
0.99999
0.99999
0.99999
0.99999
0.99999
0.99999
0.99999
0.99999
0.99999
0.99999
0.99999
0.99999
0.99999
0.999987
0.999959
0.999955
0.99774
0.780431
0.0840612
0.0355896
0.0272659
0.0186447
0.0148098
0.0118707
0.00779826
0.00399912
0.00190208
0.00159435
0.00213538
0.00317627
0.00371559
0.00387782
0.00345808
0.00314915
0.00316668
0.003856
0.00429801
0.00444768
0.00447544
0.00440124
0.00439988
0.00446788
0.00437036
0.00361713
0.00289315
0.00247867
0.00223198
0.0019208
0.00134725
0.00078573
0.00038437
0.000172916
0.000280664
0.000385949
0.999991
0.99999
0.99999
0.99999
0.99999
0.99999
0.99999
0.99999
0.99999
0.99999
0.99999
0.99999
0.99999
0.99999
0.99999
0.99999
0.99999
0.99999
0.99999
0.99999
0.99999
0.99999
0.99999
0.99999
0.99999
0.99999
0.99999
0.99999
0.99999
0.99999
0.99999
0.99999
0.99999
0.99999
0.99999
0.99999
0.99999
0.99999
0.99999
0.99999
0.99999
0.99999
0.99999
0.99999
0.99999
0.99999
0.99999
0.99999
0.99999
0.99999
0.99999
0.99999
0.99999
0.99999
0.99999
0.99999
0.99999
0.999983
0.999181
0.891738
0.0474603
0.00584445
0.00391062
0.00154715
0.000727377
0.000362315
0.000149162
3.31249e-05
5.79407e-06
1.43296e-06
8.24554e-07
1.87356e-06
7.54411e-06
8.30901e-06
7.03289e-06
5.87214e-06
4.73552e-06
4.30272e-06
4.30351e-06
4.71638e-06
4.40549e-06
3.58004e-06
2.79884e-06
3.6989e-06
5.69066e-06
3.66462e-06
2.01902e-06
8.93432e-07
8.36882e-07
9.52859e-07
8.68167e-07
8.07318e-07
7.75607e-07
7.76081e-07
7.7657e-07
7.77064e-07
0.999991
0.99999
0.99999
0.99999
0.99999
0.99999
0.99999
0.99999
0.99999
0.99999
0.99999
0.99999
0.99999
0.99999
0.99999
0.99999
0.99999
0.99999
0.99999
0.99999
0.99999
0.99999
0.99999
0.99999
0.99999
0.99999
0.99999
0.99999
0.99999
0.99999
0.99999
0.99999
0.99999
0.99999
0.99999
0.99999
0.99999
0.99999
0.99999
0.99999
0.99999
0.99999
0.99999
0.99999
0.99999
0.99999
0.99999
0.99999
0.99999
0.99999
0.99999
0.99999
0.99999
0.99999
0.99999
0.99999
0.999988
0.999977
0.999284
0.883504
0.0205713
0.000227967
0.000140075
2.98177e-05
5.74896e-06
1.01505e-06
8.53207e-07
8.53744e-07
8.45422e-07
8.45422e-07
8.46187e-07
8.46122e-07
8.45594e-07
8.45589e-07
8.45594e-07
8.47788e-07
8.47767e-07
8.52236e-07
8.52831e-07
8.5762e-07
8.63066e-07
8.68458e-07
8.73689e-07
8.7741e-07
8.81825e-07
8.85856e-07
8.89703e-07
8.91837e-07
8.9276e-07
8.95085e-07
8.96178e-07
8.91493e-07
8.49472e-07
7.7718e-07
7.77065e-07
7.77555e-07
0.999992
0.99999
0.99999
0.99999
0.99999
0.99999
0.99999
0.99999
0.99999
0.99999
0.99999
0.99999
0.99999
0.99999
0.99999
0.99999
0.99999
0.99999
0.99999
0.99999
0.99999
0.99999
0.99999
0.99999
0.99999
0.99999
0.99999
0.99999
0.99999
0.99999
0.99999
0.99999
0.99999
0.99999
0.99999
0.99999
0.99999
0.99999
0.99999
0.99999
0.99999
0.99999
0.99999
0.99999
0.99999
0.99999
0.99999
0.99999
0.99999
0.99999
0.99999
0.99999
0.99999
0.99999
0.99999
0.999989
0.999979
0.999963
0.999326
0.926538
0.04485
8.81759e-07
2.59861e-06
8.81758e-07
8.81761e-07
8.82692e-07
9.1054e-07
9.23148e-07
9.20838e-07
9.11933e-07
9.02316e-07
9.02443e-07
8.91227e-07
8.95104e-07
8.88418e-07
8.9278e-07
8.87522e-07
8.89405e-07
8.86499e-07
8.87065e-07
8.86784e-07
8.86399e-07
8.86814e-07
8.87812e-07
8.89444e-07
8.90793e-07
8.9171e-07
8.92252e-07
8.92592e-07
8.93194e-07
8.92894e-07
8.78969e-07
8.23184e-07
7.77608e-07
7.77556e-07
7.78053e-07
0.999992
0.99999
0.99999
0.99999
0.99999
0.99999
0.99999
0.99999
0.99999
0.99999
0.99999
0.99999
0.99999
0.99999
0.99999
0.99999
0.99999
0.99999
0.99999
0.99999
0.99999
0.99999
0.99999
0.99999
0.99999
0.99999
0.99999
0.99999
0.99999
0.99999
0.99999
0.99999
0.99999
0.99999
0.99999
0.99999
0.99999
0.99999
0.99999
0.99999
0.99999
0.99999
0.99999
0.99999
0.99999
0.99999
0.99999
0.99999
0.99999
0.99999
0.99999
0.99999
0.99999
0.99999
0.99999
0.99999
0.999982
0.999924
0.999457
0.918237
0.0281759
8.81758e-07
8.87111e-07
8.88037e-07
8.88005e-07
8.88042e-07
8.8268e-07
8.85118e-07
8.82721e-07
8.85745e-07
8.83058e-07
8.84101e-07
8.83594e-07
8.86268e-07
8.81354e-07
8.84671e-07
8.82423e-07
8.83768e-07
8.83511e-07
8.8373e-07
8.83736e-07
8.83857e-07
8.84795e-07
8.85974e-07
8.87398e-07
8.8871e-07
8.89723e-07
8.90427e-07
8.91085e-07
8.92125e-07
8.9132e-07
8.69941e-07
8.10509e-07
7.78032e-07
7.78055e-07
7.78541e-07
0.999993
0.99999
0.99999
0.99999
0.99999
0.99999
0.99999
0.99999
0.99999
0.99999
0.99999
0.99999
0.99999
0.99999
0.99999
0.99999
0.99999
0.99999
0.99999
0.99999
0.99999
0.99999
0.99999
0.99999
0.99999
0.99999
0.99999
0.99999
0.99999
0.99999
0.99999
0.99999
0.99999
0.99999
0.99999
0.99999
0.99999
0.99999
0.99999
0.99999
0.99999
0.99999
0.99999
0.99999
0.99999
0.99999
0.99999
0.99999
0.99999
0.99999
0.99999
0.99999
0.99999
0.99999
0.999987
0.999972
0.999964
0.999925
0.999766
0.85304
0.00270935
8.81756e-07
8.81755e-07
8.86761e-07
8.84831e-07
8.83389e-07
8.82638e-07
8.87028e-07
8.82696e-07
8.85472e-07
8.83074e-07
8.83846e-07
8.83587e-07
8.86147e-07
8.81354e-07
8.84921e-07
8.82423e-07
8.84354e-07
8.83507e-07
8.84413e-07
8.84229e-07
8.84593e-07
8.85712e-07
8.87055e-07
8.88509e-07
8.89833e-07
8.90759e-07
8.91468e-07
8.92138e-07
8.93322e-07
8.92831e-07
8.72022e-07
8.10419e-07
7.78476e-07
7.78544e-07
7.79032e-07
0.999993
0.99999
0.99999
0.99999
0.99999
0.99999
0.99999
0.99999
0.99999
0.99999
0.99999
0.99999
0.99999
0.99999
0.99999
0.99999
0.99999
0.99999
0.99999
0.99999
0.99999
0.99999
0.99999
0.99999
0.99999
0.99999
0.99999
0.99999
0.99999
0.99999
0.99999
0.99999
0.99999
0.99999
0.99999
0.99999
0.99999
0.99999
0.99999
0.99999
0.99999
0.99999
0.99999
0.99999
0.99999
0.99999
0.99999
0.99999
0.99999
0.99999
0.99999
0.99999
0.99999
0.999989
0.999951
0.999878
0.999877
0.999885
0.999871
0.86832
0.00474038
8.81757e-07
8.81755e-07
8.86715e-07
8.82564e-07
8.82604e-07
8.82603e-07
8.82645e-07
8.8268e-07
8.83844e-07
8.83092e-07
8.83578e-07
8.83586e-07
8.85513e-07
8.81354e-07
8.84171e-07
8.82423e-07
8.83493e-07
8.83497e-07
8.83905e-07
8.83911e-07
8.84149e-07
8.85246e-07
8.86646e-07
8.88086e-07
8.8943e-07
8.90246e-07
8.90898e-07
8.91555e-07
8.92621e-07
8.91072e-07
8.63745e-07
8.02273e-07
7.78917e-07
7.79035e-07
7.79522e-07
0.999993
0.99999
0.99999
0.99999
0.99999
0.99999
0.99999
0.99999
0.99999
0.99999
0.99999
0.99999
0.99999
0.99999
0.99999
0.99999
0.99999
0.99999
0.99999
0.99999
0.99999
0.99999
0.99999
0.99999
0.99999
0.99999
0.99999
0.99999
0.99999
0.99999
0.99999
0.99999
0.99999
0.99999
0.99999
0.99999
0.99999
0.99999
0.99999
0.99999
0.99999
0.99999
0.99999
0.99999
0.99999
0.99999
0.99999
0.99999
0.99999
0.99999
0.99999
0.99999
0.99999
0.99999
0.999988
0.999972
0.999926
0.999936
0.999831
0.85264
0.00968377
1.59444e-06
8.81756e-07
8.85888e-07
8.84843e-07
8.82608e-07
8.82633e-07
8.84819e-07
8.82696e-07
8.83732e-07
8.8311e-07
8.83626e-07
8.83587e-07
8.85698e-07
8.81354e-07
8.8443e-07
8.82423e-07
8.8377e-07
8.83507e-07
8.84158e-07
8.84008e-07
8.84491e-07
8.85766e-07
8.87226e-07
8.88532e-07
8.89877e-07
8.90636e-07
8.91191e-07
8.91823e-07
8.935e-07
8.93928e-07
8.71534e-07
8.06075e-07
7.79342e-07
7.79526e-07
7.80032e-07
0.99999
0.99999
0.99999
0.99999
0.99999
0.99999
0.99999
0.99999
0.99999
0.99999
0.99999
0.99999
0.99999
0.99999
0.99999
0.99999
0.99999
0.99999
0.99999
0.99999
0.99999
0.99999
0.99999
0.99999
0.99999
0.99999
0.99999
0.99999
0.99999
0.99999
0.99999
0.99999
0.99999
0.99999
0.99999
0.99999
0.99999
0.99999
0.99999