/*--------------------------------*- C++ -*----------------------------------*\
| =========                 |                                                 |
| \\      /  F ield         | OpenFOAM: The Open Source CFD Toolbox           |
|  \\    /   O peration     | Version:  2.3.0                                 |
|   \\  /    A nd           | Web:      www.OpenFOAM.org                      |
|    \\/     M anipulation  |                                                 |
\*---------------------------------------------------------------------------*/
FoamFile
{
    version     2.0;
    format      ascii;
    class       volScalarField;
    location    "1";
    object      alpha.airMean;
}
// * * * * * * * * * * * * * * * * * * * * * * * * * * * * * * * * * * * * * //

dimensions      [0 0 0 0 0 0 0];

internalField   nonuniform List<scalar> 
6144
(
0.99999
0.99999
0.99999
0.99999
0.99999
0.99999
0.99999
0.99999
0.99999
0.99999
0.99999
0.99999
0.99999
0.99999
0.99999
0.99999
0.99999
0.99999
0.99999
0.99999
0.99999
0.99999
0.99999
0.99999
0.99999
0.99999
0.99999
0.99999
0.99999
0.99999
0.99999
0.99999
0.99999
0.99999
0.99999
0.99999
0.99999
0.99999
0.99999
0.99999
0.99999
0.99999
0.99999
0.99999
0.99999
0.99999
0.99999
0.99999
0.99999
0.99999
0.99999
0.99999
0.99999
0.99999
0.99999
0.99999
0.99999
0.999989
0.99999
0.886564
0.00155141
9.17354e-06
8.22138e-06
7.89909e-06
7.81031e-06
7.35588e-06
7.33734e-06
6.96048e-06
6.87003e-06
6.57839e-06
6.41354e-06
6.15954e-06
5.97402e-06
5.7331e-06
5.53901e-06
5.30762e-06
5.10472e-06
4.89547e-06
4.67541e-06
4.46714e-06
4.25897e-06
4.03718e-06
3.82195e-06
3.61193e-06
3.39781e-06
3.18222e-06
2.96244e-06
2.74364e-06
2.52031e-06
2.30536e-06
2.08953e-06
1.88089e-06
1.73983e-06
1.71599e-06
1.74584e-06
1.74408e-06
0.99999
0.99999
0.99999
0.99999
0.99999
0.99999
0.99999
0.99999
0.99999
0.99999
0.99999
0.99999
0.99999
0.99999
0.99999
0.99999
0.99999
0.99999
0.99999
0.99999
0.99999
0.99999
0.99999
0.99999
0.99999
0.99999
0.99999
0.99999
0.99999
0.99999
0.99999
0.99999
0.99999
0.99999
0.99999
0.99999
0.99999
0.99999
0.99999
0.99999
0.99999
0.99999
0.99999
0.99999
0.99999
0.99999
0.99999
0.99999
0.99999
0.99999
0.99999
0.99999
0.99999
0.99999
0.99999
0.99999
0.99999
0.999987
0.999923
0.943383
0.0159605
2.47644e-05
8.19302e-06
7.88992e-06
7.7791e-06
7.37439e-06
7.33262e-06
6.97862e-06
6.86814e-06
6.56208e-06
6.41584e-06
6.16849e-06
5.98519e-06
5.76086e-06
5.55923e-06
5.33841e-06
5.11946e-06
4.90392e-06
4.69595e-06
4.49951e-06
4.29846e-06
4.1039e-06
3.90873e-06
3.68525e-06
3.45833e-06
3.23268e-06
2.98955e-06
2.73931e-06
2.52836e-06
2.30262e-06
2.08422e-06
1.87393e-06
1.70536e-06
1.70466e-06
1.74045e-06
1.74942e-06
0.99999
0.99999
0.99999
0.99999
0.99999
0.99999
0.99999
0.99999
0.99999
0.99999
0.99999
0.99999
0.99999
0.99999
0.99999
0.99999
0.99999
0.99999
0.99999
0.99999
0.99999
0.99999
0.99999
0.99999
0.99999
0.99999
0.99999
0.99999
0.99999
0.99999
0.99999
0.99999
0.99999
0.99999
0.99999
0.99999
0.99999
0.99999
0.99999
0.99999
0.99999
0.99999
0.99999
0.99999
0.99999
0.99999
0.99999
0.99999
0.99999
0.99999
0.99999
0.99999
0.99999
0.99999
0.99999
0.99999
0.99999
0.999988
0.999583
0.951382
0.0147019
5.08662e-05
8.18781e-06
7.87286e-06
7.77078e-06
7.38979e-06
7.33798e-06
6.99655e-06
6.92066e-06
6.65081e-06
6.5063e-06
6.23826e-06
6.04627e-06
5.78804e-06
5.57262e-06
5.31396e-06
5.11037e-06
4.89711e-06
4.68176e-06
4.46623e-06
4.25244e-06
4.03605e-06
3.82375e-06
3.60755e-06
3.3824e-06
3.18051e-06
2.96108e-06
2.73443e-06
2.52541e-06
2.30667e-06
2.08235e-06
1.87125e-06
1.70658e-06
1.70172e-06
1.74334e-06
1.74539e-06
0.99999
0.99999
0.99999
0.99999
0.99999
0.99999
0.99999
0.99999
0.99999
0.99999
0.99999
0.99999
0.99999
0.99999
0.99999
0.99999
0.99999
0.99999
0.99999
0.99999
0.99999
0.99999
0.99999
0.99999
0.99999
0.99999
0.99999
0.99999
0.99999
0.99999
0.99999
0.99999
0.99999
0.99999
0.99999
0.99999
0.99999
0.99999
0.99999
0.99999
0.99999
0.99999
0.99999
0.99999
0.99999
0.99999
0.99999
0.99999
0.99999
0.99999
0.99999
0.99999
0.99999
0.99999
0.99999
0.99999
0.999989
0.999987
0.99971
0.936144
0.00913233
1.99106e-05
8.54921e-06
8.16212e-06
7.91076e-06
7.36422e-06
7.35364e-06
6.95601e-06
6.87956e-06
6.54811e-06
6.41391e-06
6.15578e-06
5.96323e-06
5.73253e-06
5.5158e-06
5.30618e-06
5.10663e-06
4.89615e-06
4.68579e-06
4.47741e-06
4.26268e-06
4.0588e-06
3.84864e-06
3.63253e-06
3.40623e-06
3.18376e-06
2.95331e-06
2.738e-06
2.52836e-06
2.30851e-06
2.08159e-06
1.87167e-06
1.70668e-06
1.70125e-06
1.74165e-06
1.74519e-06
0.99999
0.99999
0.99999
0.99999
0.99999
0.99999
0.99999
0.99999
0.99999
0.99999
0.99999
0.99999
0.99999
0.99999
0.99999
0.99999
0.99999
0.99999
0.99999
0.99999
0.99999
0.99999
0.99999
0.99999
0.99999
0.99999
0.99999
0.99999
0.99999
0.99999
0.99999
0.99999
0.99999
0.99999
0.99999
0.99999
0.99999
0.99999
0.99999
0.99999
0.99999
0.99999
0.99999
0.99999
0.99999
0.99999
0.99999
0.99999
0.99999
0.99999
0.99999
0.99999
0.99999
0.99999
0.99999
0.99999
0.99999
0.999989
0.999597
0.949933
0.0126573
7.97967e-05
5.05626e-05
5.42652e-05
3.80522e-05
2.18595e-05
2.11747e-05
1.62322e-05
1.50795e-05
1.18889e-05
1.06454e-05
9.03891e-06
7.93835e-06
7.04097e-06
6.39141e-06
5.84814e-06
5.44741e-06
5.10854e-06
4.81409e-06
4.57498e-06
4.33621e-06
4.0741e-06
3.82704e-06
3.62593e-06
3.41714e-06
3.19249e-06
2.97802e-06
2.7561e-06
2.5298e-06
2.31177e-06
2.08234e-06
1.87698e-06
1.74434e-06
1.73749e-06
1.75017e-06
1.74348e-06
0.99999
0.99999
0.99999
0.99999
0.99999
0.99999
0.99999
0.99999
0.99999
0.99999
0.99999
0.99999
0.99999
0.99999
0.99999
0.99999
0.99999
0.99999
0.99999
0.99999
0.99999
0.99999
0.99999
0.99999
0.99999
0.99999
0.99999
0.99999
0.99999
0.99999
0.99999
0.99999
0.99999
0.99999
0.99999
0.99999
0.99999
0.99999
0.99999
0.99999
0.99999
0.99999
0.99999
0.99999
0.99999
0.99999
0.99999
0.99999
0.99999
0.99999
0.99999
0.99999
0.99999
0.99999
0.99999
0.99999
0.99999
0.999987
0.999778
0.93829
0.0101353
0.000367308
0.000510107
0.000438456
0.000471301
0.000473992
0.000450812
0.000405715
0.000381598
0.000298266
0.000258683
0.000210056
0.000175218
0.000142883
0.000120712
9.87305e-05
8.00555e-05
6.31825e-05
5.01925e-05
3.96307e-05
3.09934e-05
2.34939e-05
1.72584e-05
1.31947e-05
9.7596e-06
7.19298e-06
5.21114e-06
4.04666e-06
3.11027e-06
2.53125e-06
2.17033e-06
1.91719e-06
1.74569e-06
1.74364e-06
1.75246e-06
1.77806e-06
0.99999
0.99999
0.99999
0.99999
0.99999
0.99999
0.99999
0.99999
0.99999
0.99999
0.99999
0.99999
0.99999
0.99999
0.99999
0.99999
0.99999
0.99999
0.99999
0.99999
0.99999
0.99999
0.99999
0.99999
0.99999
0.99999
0.99999
0.99999
0.99999
0.99999
0.99999
0.99999
0.99999
0.99999
0.99999
0.99999
0.99999
0.99999
0.99999
0.99999
0.99999
0.99999
0.99999
0.99999
0.99999
0.99999
0.99999
0.99999
0.99999
0.99999
0.99999
0.99999
0.99999
0.99999
0.99999
0.99999
0.999989
0.999988
0.99999
0.909525
0.00442736
0.00181136
0.0025307
0.00255794
0.00269156
0.00286029
0.0030317
0.00303881
0.00306638
0.00269624
0.00240896
0.00207622
0.00200053
0.00177034
0.00166194
0.00143391
0.0013164
0.00114063
0.00102299
0.000869153
0.000775962
0.000653639
0.000508402
0.000421655
0.000345197
0.000299239
0.000258775
0.000199175
0.000138679
7.2595e-05
3.25127e-05
1.49073e-05
6.04062e-06
3.44293e-06
2.90193e-06
2.81436e-06
0.99999
0.99999
0.99999
0.99999
0.99999
0.99999
0.99999
0.99999
0.99999
0.99999
0.99999
0.99999
0.99999
0.99999
0.99999
0.99999
0.99999
0.99999
0.99999
0.99999
0.99999
0.99999
0.99999
0.99999
0.99999
0.99999
0.99999
0.99999
0.99999
0.99999
0.99999
0.99999
0.99999
0.99999
0.99999
0.99999
0.99999
0.99999
0.99999
0.99999
0.99999
0.99999
0.99999
0.99999
0.99999
0.99999
0.99999
0.99999
0.99999
0.99999
0.99999
0.99999
0.99999
0.99999
0.99999
0.99999
0.999989
0.999987
0.999845
0.934071
0.0108417
0.00396083
0.00576497
0.00664573
0.00709911
0.00754947
0.00791336
0.00814989
0.0082009
0.00822354
0.00819613
0.00797629
0.00782627
0.00771512
0.00769529
0.00772204
0.00776154
0.00768122
0.00757617
0.00749486
0.00737471
0.00731939
0.00730188
0.00741326
0.00759669
0.00815078
0.00858651
0.00897075
0.00959332
0.00970511
0.00928407
0.00868116
0.0077801
0.00664248
0.00468033
0.00285281
0.99999
0.99999
0.99999
0.99999
0.99999
0.99999
0.99999
0.99999
0.99999
0.99999
0.99999
0.99999
0.99999
0.99999
0.99999
0.99999
0.99999
0.99999
0.99999
0.99999
0.99999
0.99999
0.99999
0.99999
0.99999
0.99999
0.99999
0.99999
0.99999
0.99999
0.99999
0.99999
0.99999
0.99999
0.99999
0.99999
0.99999
0.99999
0.99999
0.99999
0.99999
0.99999
0.99999
0.99999
0.99999
0.99999
0.99999
0.99999
0.99999
0.99999
0.99999
0.99999
0.99999
0.99999
0.99999
0.99999
0.99999
0.999989
0.999618
0.953377
0.0157751
0.00201697
0.00358418
0.00419123
0.00411394
0.00429277
0.00429463
0.00414108
0.00391647
0.0035668
0.00337953
0.00311665
0.00295043
0.00260507
0.00235687
0.00216507
0.00199786
0.00188562
0.00186225
0.00169356
0.0015
0.00136569
0.00128299
0.00124344
0.00116657
0.00107149
0.000992212
0.00089125
0.000732982
0.000542702
0.000346941
0.000197356
8.42321e-05
2.07421e-05
3.40227e-06
1.95943e-06
0.99999
0.99999
0.99999
0.99999
0.99999
0.99999
0.99999
0.99999
0.99999
0.99999
0.99999
0.99999
0.99999
0.99999
0.99999
0.99999
0.99999
0.99999
0.99999
0.99999
0.99999
0.99999
0.99999
0.99999
0.99999
0.99999
0.99999
0.99999
0.99999
0.99999
0.99999
0.99999
0.99999
0.99999
0.99999
0.99999
0.99999
0.99999
0.99999
0.99999
0.99999
0.99999
0.99999
0.99999
0.99999
0.99999
0.99999
0.99999
0.99999
0.99999
0.99999
0.99999
0.99999
0.99999
0.99999
0.99999
0.99999
0.999988
0.999639
0.961906
0.0144161
0.0006085
0.00088211
0.00113818
0.001004
0.000962681
0.000839942
0.000746461
0.000638618
0.000512022
0.000442082
0.000347584
0.00029765
0.000235128
0.000184314
0.000145519
0.000119889
9.87533e-05
7.92915e-05
5.98987e-05
4.63986e-05
3.76255e-05
3.07344e-05
2.43166e-05
1.9151e-05
1.47601e-05
1.10045e-05
7.70895e-06
5.01118e-06
3.31943e-06
2.36704e-06
1.93593e-06
1.73809e-06
1.73499e-06
1.74716e-06
1.7617e-06
0.99999
0.99999
0.99999
0.99999
0.99999
0.99999
0.99999
0.99999
0.99999
0.99999
0.99999
0.99999
0.99999
0.99999
0.99999
0.99999
0.99999
0.99999
0.99999
0.99999
0.99999
0.99999
0.99999
0.99999
0.99999
0.99999
0.99999
0.99999
0.99999
0.99999
0.99999
0.99999
0.99999
0.99999
0.99999
0.99999
0.99999
0.99999
0.99999
0.99999
0.99999
0.99999
0.99999
0.99999
0.99999
0.99999
0.99999
0.99999
0.99999
0.99999
0.99999
0.99999
0.99999
0.99999
0.99999
0.99999
0.99999
0.999989
0.999708
0.963569
0.0132052
0.000127912
7.06243e-05
7.15604e-05
5.94886e-05
4.99028e-05
3.86167e-05
3.08878e-05
2.48924e-05
1.90632e-05
1.48607e-05
1.16607e-05
9.84122e-06
8.17449e-06
7.11629e-06
6.28951e-06
5.68986e-06
5.2326e-06
4.8628e-06
4.54915e-06
4.32193e-06
4.10507e-06
3.84661e-06
3.62068e-06
3.40572e-06
3.19282e-06
2.97484e-06
2.75312e-06
2.53098e-06
2.30264e-06
2.08979e-06
1.87766e-06
1.74042e-06
1.7279e-06
1.74505e-06
1.74024e-06
0.99999
0.99999
0.99999
0.99999
0.99999
0.99999
0.99999
0.99999
0.99999
0.99999
0.99999
0.99999
0.99999
0.99999
0.99999
0.99999
0.99999
0.99999
0.99999
0.99999
0.99999
0.99999
0.99999
0.99999
0.99999
0.99999
0.99999
0.99999
0.99999
0.99999
0.99999
0.99999
0.99999
0.99999
0.99999
0.99999
0.99999
0.99999
0.99999
0.99999
0.99999
0.99999
0.99999
0.99999
0.99999
0.99999
0.99999
0.99999
0.99999
0.99999
0.99999
0.99999
0.99999
0.99999
0.99999
0.99999
0.99999
0.999989
0.999823
0.966249
0.0126627
5.559e-05
8.91014e-06
8.38835e-06
8.11134e-06
7.55722e-06
7.49025e-06
7.12072e-06
6.95567e-06
6.63972e-06
6.45478e-06
6.17544e-06
6.00114e-06
5.74384e-06
5.53704e-06
5.31761e-06
5.1011e-06
4.87765e-06
4.67954e-06
4.46453e-06
4.23881e-06
4.04149e-06
3.81706e-06
3.59306e-06
3.39372e-06
3.1752e-06
2.94845e-06
2.74392e-06
2.52509e-06
2.29579e-06
2.08507e-06
1.88128e-06
1.73648e-06
1.7228e-06
1.74008e-06
1.74688e-06
0.999991
0.99999
0.99999
0.99999
0.99999
0.99999
0.99999
0.99999
0.99999
0.99999
0.99999
0.99999
0.99999
0.99999
0.99999
0.99999
0.99999
0.99999
0.99999
0.99999
0.99999
0.99999
0.99999
0.99999
0.99999
0.99999
0.99999
0.99999
0.99999
0.99999
0.99999
0.99999
0.99999
0.99999
0.99999
0.99999
0.99999
0.99999
0.99999
0.99999
0.99999
0.99999
0.99999
0.99999
0.99999
0.99999
0.99999
0.99999
0.99999
0.99999
0.99999
0.99999
0.99999
0.99999
0.99999
0.99999
0.99999
0.999988
0.999884
0.967556
0.0147695
7.86369e-05
8.22718e-06
7.89467e-06
7.79901e-06
7.41092e-06
7.32551e-06
6.94413e-06
6.87457e-06
6.55444e-06
6.416e-06
6.13278e-06
5.97569e-06
5.7355e-06
5.53748e-06
5.3227e-06
5.11604e-06
4.91425e-06
4.68762e-06
4.4565e-06
4.25235e-06
4.03662e-06
3.8103e-06
3.61529e-06
3.40223e-06
3.17897e-06
2.98066e-06
2.76886e-06
2.54573e-06
2.32974e-06
2.10843e-06
1.87044e-06
1.70564e-06
1.69774e-06
1.73945e-06
1.74243e-06
0.999991
0.99999
0.99999
0.99999
0.99999
0.99999
0.99999
0.99999
0.99999
0.99999
0.99999
0.99999
0.99999
0.99999
0.99999
0.99999
0.99999
0.99999
0.99999
0.99999
0.99999
0.99999
0.99999
0.99999
0.99999
0.99999
0.99999
0.99999
0.99999
0.99999
0.99999
0.99999
0.99999
0.99999
0.99999
0.99999
0.99999
0.99999
0.99999
0.99999
0.99999
0.99999
0.99999
0.99999
0.99999
0.99999
0.99999
0.99999
0.99999
0.99999
0.99999
0.99999
0.99999
0.99999
0.99999
0.99999
0.99999
0.999989
0.999944
0.954658
0.0086968
1.74662e-05
8.24856e-06
7.86567e-06
7.82085e-06
7.42036e-06
7.33368e-06
6.99545e-06
6.87628e-06
6.6065e-06
6.42205e-06
6.18027e-06
5.97751e-06
5.76185e-06
5.55775e-06
5.34036e-06
5.13617e-06
4.91864e-06
4.68763e-06
4.48063e-06
4.26628e-06
4.03216e-06
3.82255e-06
3.6101e-06
3.38964e-06
3.17199e-06
2.96471e-06
2.74642e-06
2.51973e-06
2.3087e-06
2.09175e-06
1.87098e-06
1.69902e-06
1.69682e-06
1.73947e-06
1.74212e-06
0.999991
0.99999
0.99999
0.99999
0.99999
0.99999
0.99999
0.99999
0.99999
0.99999
0.99999
0.99999
0.99999
0.99999
0.99999
0.99999
0.99999
0.99999
0.99999
0.99999
0.99999
0.99999
0.99999
0.99999
0.99999
0.99999
0.99999
0.99999
0.99999
0.99999
0.99999
0.99999
0.99999
0.99999
0.99999
0.99999
0.99999
0.99999
0.99999
0.99999
0.99999
0.99999
0.99999
0.99999
0.99999
0.99999
0.99999
0.99999
0.99999
0.99999
0.99999
0.99999
0.99999
0.99999
0.99999
0.999989
0.999985
0.999985
0.999973
0.94638
0.0127851
1.06664e-05
8.23691e-06
7.90293e-06
7.84267e-06
7.39674e-06
7.35499e-06
7.05986e-06
6.89187e-06
6.64927e-06
6.42831e-06
6.17561e-06
5.98695e-06
5.73025e-06
5.54549e-06
5.32482e-06
5.10217e-06
4.90148e-06
4.69539e-06
4.46709e-06
4.25331e-06
4.04246e-06
3.82862e-06
3.61795e-06
3.40899e-06
3.20662e-06
2.97495e-06
2.74653e-06
2.52838e-06
2.30899e-06
2.09203e-06
1.87229e-06
1.70329e-06
1.69894e-06
1.74015e-06
1.74291e-06
0.999991
0.99999
0.99999
0.99999
0.99999
0.99999
0.99999
0.99999
0.99999
0.99999
0.99999
0.99999
0.99999
0.99999
0.99999
0.99999
0.99999
0.99999
0.99999
0.99999
0.99999
0.99999
0.99999
0.99999
0.99999
0.99999
0.99999
0.99999
0.99999
0.99999
0.99999
0.99999
0.99999
0.99999
0.99999
0.99999
0.99999
0.99999
0.99999
0.99999
0.99999
0.99999
0.99999
0.99999
0.99999
0.99999
0.99999
0.99999
0.99999
0.99999
0.99999
0.99999
0.99999
0.99999
0.99999
0.99999
0.999989
0.999988
0.99999
0.905053
0.00108367
8.16583e-06
8.26501e-06
7.88693e-06
7.84893e-06
7.41945e-06
7.34813e-06
7.04166e-06
6.87265e-06
6.59033e-06
6.43267e-06
6.1546e-06
5.97902e-06
5.73498e-06
5.54846e-06
5.31959e-06
5.10546e-06
4.90286e-06
4.68525e-06
4.45697e-06
4.25797e-06
4.04584e-06
3.82397e-06
3.60828e-06
3.39257e-06
3.18414e-06
2.96482e-06
2.73747e-06
2.52647e-06
2.30986e-06
2.08698e-06
1.87551e-06
1.70629e-06
1.69885e-06
1.74164e-06
1.7439e-06
0.99999
0.99999
0.99999
0.99999
0.99999
0.99999
0.99999
0.99999
0.99999
0.99999
0.99999
0.99999
0.99999
0.99999
0.99999
0.99999
0.99999
0.99999
0.99999
0.99999
0.99999
0.99999
0.99999
0.99999
0.99999
0.99999
0.99999
0.99999
0.99999
0.99999
0.99999
0.99999
0.99999
0.99999
0.99999
0.99999
0.99999
0.99999
0.99999
0.99999
0.99999
0.99999
0.99999
0.99999
0.99999
0.99999
0.99999
0.99999
0.99999
0.99999
0.99999
0.99999
0.99999
0.99999
0.99999
0.99999
0.99999
0.999985
0.999832
0.942805
0.0175076
4.20301e-05
8.1714e-06
7.88748e-06
7.78772e-06
7.31618e-06
7.32043e-06
6.93399e-06
6.86347e-06
6.54274e-06
6.40824e-06
6.13698e-06
5.96622e-06
5.7222e-06
5.5195e-06
5.30523e-06
5.10218e-06
4.88311e-06
4.67501e-06
4.46494e-06
4.24379e-06
4.03265e-06
3.82053e-06
3.60667e-06
3.39219e-06
3.17816e-06
2.96016e-06
2.7411e-06
2.52023e-06
2.30421e-06
2.08921e-06
1.87158e-06
1.69867e-06
1.70087e-06
1.73929e-06
1.74619e-06
0.99999
0.99999
0.99999
0.99999
0.99999
0.99999
0.99999
0.99999
0.99999
0.99999
0.99999
0.99999
0.99999
0.99999
0.99999
0.99999
0.99999
0.99999
0.99999
0.99999
0.99999
0.99999
0.99999
0.99999
0.99999
0.99999
0.99999
0.99999
0.99999
0.99999
0.99999
0.99999
0.99999
0.99999
0.99999
0.99999
0.99999
0.99999
0.99999
0.99999
0.99999
0.99999
0.99999
0.99999
0.99999
0.99999
0.99999
0.99999
0.99999
0.99999
0.99999
0.99999
0.99999
0.99999
0.99999
0.99999
0.99999
0.999967
0.999026
0.945643
0.0241634
6.86322e-05
8.13809e-06
7.9234e-06
7.80692e-06
7.32409e-06
7.33936e-06
6.95542e-06
6.88001e-06
6.57461e-06
6.42209e-06
6.1553e-06
5.98025e-06
5.73455e-06
5.52719e-06
5.32034e-06
5.11421e-06
4.88121e-06
4.68368e-06
4.47099e-06
4.23956e-06
4.04154e-06
3.82649e-06
3.59996e-06
3.39891e-06
3.18217e-06
2.95246e-06
2.7476e-06
2.52817e-06
2.30172e-06
2.08844e-06
1.87176e-06
1.70399e-06
1.69869e-06
1.74464e-06
1.74382e-06
0.99999
0.99999
0.99999
0.99999
0.99999
0.99999
0.99999
0.99999
0.99999
0.99999
0.99999
0.99999
0.99999
0.99999
0.99999
0.99999
0.99999
0.99999
0.99999
0.99999
0.99999
0.99999
0.99999
0.99999
0.99999
0.99999
0.99999
0.99999
0.99999
0.99999
0.99999
0.99999
0.99999
0.99999
0.99999
0.99999
0.99999
0.99999
0.99999
0.99999
0.99999
0.99999
0.99999
0.99999
0.99999
0.99999
0.99999
0.99999
0.99999
0.99999
0.99999
0.99999
0.99999
0.99999
0.99999
0.99999
0.999989
0.999977
0.999496
0.896615
0.00184118
1.0299e-05
8.25256e-06
7.93338e-06
7.82944e-06
7.35609e-06
7.35108e-06
6.9582e-06
6.89295e-06
6.56196e-06
6.43174e-06
6.14825e-06
5.98174e-06
5.73492e-06
5.53838e-06
5.32199e-06
5.114e-06
4.89078e-06
4.68366e-06
4.47034e-06
4.25803e-06
4.05604e-06
3.83659e-06
3.6095e-06
3.38937e-06
3.17322e-06
2.9621e-06
2.74477e-06
2.5195e-06
2.30752e-06
2.08795e-06
1.88095e-06
1.72495e-06
1.73216e-06
1.74145e-06
1.76232e-06
0.99999
0.99999
0.99999
0.99999
0.99999
0.99999
0.99999
0.99999
0.99999
0.99999
0.99999
0.99999
0.99999
0.99999
0.99999
0.99999
0.99999
0.99999
0.99999
0.99999
0.99999
0.99999
0.99999
0.99999
0.99999
0.99999
0.99999
0.99999
0.99999
0.99999
0.99999
0.99999
0.99999
0.99999
0.99999
0.99999
0.99999
0.99999
0.99999
0.99999
0.99999
0.99999
0.99999
0.99999
0.99999
0.99999
0.99999
0.99999
0.99999
0.99999
0.99999
0.99999
0.99999
0.99999
0.99999
0.999989
0.999983
0.999958
0.999751
0.860369
0.00417032
1.9247e-05
2.15792e-05
2.11052e-05
1.88787e-05
1.58653e-05
1.43057e-05
1.1541e-05
9.89425e-06
8.4138e-06
7.81661e-06
6.96049e-06
6.55834e-06
6.08173e-06
5.79168e-06
5.50627e-06
5.26335e-06
4.9858e-06
4.74915e-06
4.52298e-06
4.2959e-06
4.08898e-06
3.88645e-06
3.67625e-06
3.45673e-06
3.22584e-06
3.00151e-06
2.77279e-06
2.55413e-06
2.32119e-06
2.09866e-06
1.87821e-06
1.73282e-06
1.71919e-06
1.74455e-06
1.74772e-06
0.99999
0.99999
0.99999
0.99999
0.99999
0.99999
0.99999
0.99999
0.99999
0.99999
0.99999
0.99999
0.99999
0.99999
0.99999
0.99999
0.99999
0.99999
0.99999
0.99999
0.99999
0.99999
0.99999
0.99999
0.99999
0.99999
0.99999
0.99999
0.99999
0.99999
0.99999
0.99999
0.99999
0.99999
0.99999
0.99999
0.99999
0.99999
0.99999
0.99999
0.99999
0.99999
0.99999
0.99999
0.99999
0.99999
0.99999
0.99999
0.99999
0.99999
0.99999
0.99999
0.99999
0.99999
0.99999
0.99999
0.99999
0.999977
0.999593
0.904403
0.00578354
0.000453238
0.000619644
0.000684494
0.000656102
0.000634001
0.00058144
0.00050634
0.00042098
0.000313906
0.000271982
0.000211958
0.00017047
0.000126751
0.000106069
8.3131e-05
6.43233e-05
4.52844e-05
3.3097e-05
2.44799e-05
1.81598e-05
1.34084e-05
1.00635e-05
7.69498e-06
5.99656e-06
4.6672e-06
3.73065e-06
3.14406e-06
2.69845e-06
2.38088e-06
2.11781e-06
1.89415e-06
1.7416e-06
1.74526e-06
1.7468e-06
1.76634e-06
0.99999
0.99999
0.99999
0.99999
0.99999
0.99999
0.99999
0.99999
0.99999
0.99999
0.99999
0.99999
0.99999
0.99999
0.99999
0.99999
0.99999
0.99999
0.99999
0.99999
0.99999
0.99999
0.99999
0.99999
0.99999
0.99999
0.99999
0.99999
0.99999
0.99999
0.99999
0.99999
0.99999
0.99999
0.99999
0.99999
0.99999
0.99999
0.99999
0.99999
0.99999
0.99999
0.99999
0.99999
0.99999
0.99999
0.99999
0.99999
0.99999
0.99999
0.99999
0.99999
0.99999
0.99999
0.99999
0.99999
0.999986
0.999965
0.999747
0.864201
0.0058651
0.00319072
0.00441243
0.00509374
0.00534111
0.00527113
0.00500942
0.00486932
0.00456805
0.0043184
0.00405886
0.00371809
0.00349953
0.00311979
0.00281811
0.00251982
0.00246252
0.00202637
0.00165855
0.00141343
0.00118272
0.000987044
0.000814318
0.000667892
0.000553557
0.000450986
0.00030725
0.000225342
0.000162943
0.000110788
6.06081e-05
2.88208e-05
1.31148e-05
6.10246e-06
2.89067e-06
1.82731e-06
0.99999
0.99999
0.99999
0.99999
0.99999
0.99999
0.99999
0.99999
0.99999
0.99999
0.99999
0.99999
0.99999
0.99999
0.99999
0.99999
0.99999
0.99999
0.99999
0.99999
0.99999
0.99999
0.99999
0.99999
0.99999
0.99999
0.99999
0.99999
0.99999
0.99999
0.99999
0.99999
0.99999
0.99999
0.99999
0.99999
0.99999
0.99999
0.99999
0.99999
0.99999
0.99999
0.99999
0.99999
0.99999
0.99999
0.99999
0.99999
0.99999
0.99999
0.99999
0.99999
0.99999
0.99999
0.99999
0.999989
0.999985
0.999976
0.999887
0.833015
0.0148245
0.00654518
0.00869022
0.0100819
0.0108371
0.0116985
0.0125057
0.0131561
0.0137024
0.0142709
0.0146112
0.0150161
0.0154975
0.0159042
0.0160518
0.0158779
0.015716
0.0155426
0.0153533
0.0150942
0.0147466
0.0143039
0.0137896
0.0131398
0.0119692
0.0106815
0.00957182
0.00854529
0.00775445
0.00692161
0.00571595
0.0042964
0.00279941
0.00187885
0.00128988
0.000942942
0.99999
0.99999
0.99999
0.99999
0.99999
0.99999
0.99999
0.99999
0.99999
0.99999
0.99999
0.99999
0.99999
0.99999
0.99999
0.99999
0.99999
0.99999
0.99999
0.99999
0.99999
0.99999
0.99999
0.99999
0.99999
0.99999
0.99999
0.99999
0.99999
0.99999
0.99999
0.99999
0.99999
0.99999
0.99999
0.99999
0.99999
0.99999
0.99999
0.99999
0.99999
0.99999
0.99999
0.99999
0.99999
0.99999
0.99999
0.99999
0.99999
0.99999
0.99999
0.99999
0.99999
0.99999
0.99999
0.999989
0.999981
0.999955
0.999696
0.869271
0.00866935
0.00725364
0.00954131
0.0116794
0.0136116
0.0154062
0.0173467
0.0195209
0.0220247
0.0248232
0.0273029
0.029813
0.0324538
0.0347687
0.0372407
0.0401184
0.0431576
0.0464279
0.0498629
0.0536749
0.0581019
0.0628197
0.0675041
0.072161
0.0771958
0.0818634
0.0873467
0.0938072
0.101028
0.108736
0.118015
0.129238
0.144649
0.16805
0.215903
0.404183
0.99999
0.99999
0.99999
0.99999
0.99999
0.99999
0.99999
0.99999
0.99999
0.99999
0.99999
0.99999
0.99999
0.99999
0.99999
0.99999
0.99999
0.99999
0.99999
0.99999
0.99999
0.99999
0.99999
0.99999
0.99999
0.99999
0.99999
0.99999
0.99999
0.99999
0.99999
0.99999
0.99999
0.99999
0.99999
0.99999
0.99999
0.99999
0.99999
0.99999
0.99999
0.99999
0.99999
0.99999
0.99999
0.99999
0.99999
0.99999
0.99999
0.99999
0.99999
0.99999
0.99999
0.99999
0.99999
0.99999
0.999988
0.999983
0.999557
0.916233
0.00902409
0.00387783
0.00502604
0.00574174
0.00622985
0.00676741
0.0071256
0.00738264
0.00750319
0.00753913
0.00765973
0.00770014
0.00780598
0.00781034
0.00795688
0.00804445
0.00825736
0.00842768
0.00816824
0.00787092
0.00795025
0.00808498
0.00800526
0.00753808
0.00721857
0.0071849
0.00689778
0.00641936
0.00598591
0.00551194
0.00463317
0.00357698
0.00274522
0.00193683
0.00140195
0.00101376
0.99999
0.99999
0.99999
0.99999
0.99999
0.99999
0.99999
0.99999
0.99999
0.99999
0.99999
0.99999
0.99999
0.99999
0.99999
0.99999
0.99999
0.99999
0.99999
0.99999
0.99999
0.99999
0.99999
0.99999
0.99999
0.99999
0.99999
0.99999
0.99999
0.99999
0.99999
0.99999
0.99999
0.99999
0.99999
0.99999
0.99999
0.99999
0.99999
0.99999
0.99999
0.99999
0.99999
0.99999
0.99999
0.99999
0.99999
0.99999
0.99999
0.99999
0.99999
0.99999
0.99999
0.99999
0.99999
0.99999
0.99999
0.99998
0.999355
0.946126
0.0180364
0.000767404
0.00087635
0.000868559
0.000907653
0.000928953
0.000885582
0.000843968
0.000846312
0.000836859
0.000862908
0.000854688
0.000787863
0.000782657
0.000749218
0.000674229
0.000636991
0.000597283
0.000540098
0.000505274
0.000490297
0.000476312
0.000430845
0.000345054
0.000282641
0.000245509
0.000202035
0.000160065
0.000118954
8.53316e-05
5.5336e-05
3.11151e-05
1.74291e-05
8.72569e-06
3.98535e-06
2.11625e-06
0.999991
0.99999
0.99999
0.99999
0.99999
0.99999
0.99999
0.99999
0.99999
0.99999
0.99999
0.99999
0.99999
0.99999
0.99999
0.99999
0.99999
0.99999
0.99999
0.99999
0.99999
0.99999
0.99999
0.99999
0.99999
0.99999
0.99999
0.99999
0.99999
0.99999
0.99999
0.99999
0.99999
0.99999
0.99999
0.99999
0.99999
0.99999
0.99999
0.99999
0.99999
0.99999
0.99999
0.99999
0.99999
0.99999
0.99999
0.99999
0.99999
0.99999
0.99999
0.99999
0.99999
0.99999
0.99999
0.99999
0.99999
0.999982
0.999453
0.93614
0.0129128
4.56471e-05
4.32473e-05
3.15257e-05
2.82265e-05
2.55097e-05
2.41868e-05
2.25521e-05
2.14219e-05
2.00112e-05
1.88981e-05
1.75544e-05
1.63558e-05
1.48572e-05
1.33737e-05
1.21284e-05
1.08224e-05
9.74961e-06
8.80435e-06
8.12353e-06
7.54847e-06
6.77094e-06
5.6046e-06
4.85731e-06
4.21314e-06
3.67502e-06
3.28099e-06
2.94696e-06
2.6333e-06
2.3653e-06
2.12199e-06
1.90043e-06
1.73302e-06
1.73125e-06
1.74276e-06
1.76657e-06
0.999991
0.99999
0.99999
0.99999
0.99999
0.99999
0.99999
0.99999
0.99999
0.99999
0.99999
0.99999
0.99999
0.99999
0.99999
0.99999
0.99999
0.99999
0.99999
0.99999
0.99999
0.99999
0.99999
0.99999
0.99999
0.99999
0.99999
0.99999
0.99999
0.99999
0.99999
0.99999
0.99999
0.99999
0.99999
0.99999
0.99999
0.99999
0.99999
0.99999
0.99999
0.99999
0.99999
0.99999
0.99999
0.99999
0.99999
0.99999
0.99999
0.99999
0.99999
0.99999
0.99999
0.99999
0.99999
0.99999
0.999989
0.999981
0.999629
0.935833
0.0085552
8.37585e-06
8.47662e-06
7.92108e-06
7.81996e-06
7.40245e-06
7.3377e-06
6.98549e-06
6.8759e-06
6.56925e-06
6.41495e-06
6.14271e-06
5.97095e-06
5.73626e-06
5.56431e-06
5.36126e-06
5.18142e-06
4.98158e-06
4.73974e-06
4.48322e-06
4.2885e-06
4.08329e-06
3.8718e-06
3.67072e-06
3.45307e-06
3.22941e-06
3.01597e-06
2.78466e-06
2.53795e-06
2.30627e-06
2.08996e-06
1.88018e-06
1.72464e-06
1.72043e-06
1.74514e-06
1.74967e-06
0.999991
0.99999
0.99999
0.99999
0.99999
0.99999
0.99999
0.99999
0.99999
0.99999
0.99999
0.99999
0.99999
0.99999
0.99999
0.99999
0.99999
0.99999
0.99999
0.99999
0.99999
0.99999
0.99999
0.99999
0.99999
0.99999
0.99999
0.99999
0.99999
0.99999
0.99999
0.99999
0.99999
0.99999
0.99999
0.99999
0.99999
0.99999
0.99999
0.99999
0.99999
0.99999
0.99999
0.99999
0.99999
0.99999
0.99999
0.99999
0.99999
0.99999
0.99999
0.99999
0.99999
0.99999
0.99999
0.99999
0.999989
0.999967
0.999628
0.950437
0.0207873
9.45268e-06
8.18825e-06
7.85849e-06
7.74265e-06
7.34662e-06
7.29194e-06
6.92097e-06
6.84081e-06
6.57931e-06
6.38252e-06
6.15011e-06
5.95267e-06
5.73888e-06
5.55085e-06
5.3394e-06
5.13177e-06
4.91384e-06
4.68927e-06
4.47436e-06
4.25543e-06
4.03678e-06
3.82634e-06
3.60751e-06
3.38951e-06
3.17725e-06
2.96078e-06
2.74255e-06
2.52202e-06
2.30958e-06
2.08764e-06
1.87198e-06
1.70533e-06
1.70154e-06
1.73884e-06
1.74581e-06
0.999991
0.99999
0.99999
0.99999
0.99999
0.99999
0.99999
0.99999
0.99999
0.99999
0.99999
0.99999
0.99999
0.99999
0.99999
0.99999
0.99999
0.99999
0.99999
0.99999
0.99999
0.99999
0.99999
0.99999
0.99999
0.99999
0.99999
0.99999
0.99999
0.99999
0.99999
0.99999
0.99999
0.99999
0.99999
0.99999
0.99999
0.99999
0.99999
0.99999
0.99999
0.99999
0.99999
0.99999
0.99999
0.99999
0.99999
0.99999
0.99999
0.99999
0.99999
0.99999
0.99999
0.99999
0.99999
0.999989
0.999987
0.999981
0.999831
0.904389
0.00226621
7.84055e-06
8.22077e-06
7.82397e-06
7.71776e-06
7.32121e-06
7.29056e-06
6.90667e-06
6.84254e-06
6.51801e-06
6.39042e-06
6.11884e-06
5.95835e-06
5.71684e-06
5.51816e-06
5.30194e-06
5.09464e-06
4.88674e-06
4.67574e-06
4.46163e-06
4.24721e-06
4.04102e-06
3.82763e-06
3.61716e-06
3.40331e-06
3.18204e-06
2.96756e-06
2.75167e-06
2.53226e-06
2.31997e-06
2.10154e-06
1.87573e-06
1.71172e-06
1.70822e-06
1.74182e-06
1.74828e-06
0.999991
0.99999
0.99999
0.99999
0.99999
0.99999
0.99999
0.99999
0.99999
0.99999
0.99999
0.99999
0.99999
0.99999
0.99999
0.99999
0.99999
0.99999
0.99999
0.99999
0.99999
0.99999
0.99999
0.99999
0.99999
0.99999
0.99999
0.99999
0.99999
0.99999
0.99999
0.99999
0.99999
0.99999
0.99999
0.99999
0.99999
0.99999
0.99999
0.99999
0.99999
0.99999
0.99999
0.99999
0.99999
0.99999
0.99999
0.99999
0.99999
0.99999
0.99999
0.99999
0.99999
0.99999
0.999988
0.999978
0.999965
0.999951
0.999805
0.901528
0.00389396
7.9313e-06
8.17069e-06
7.80673e-06
7.73509e-06
7.31168e-06
7.2778e-06
6.89875e-06
6.8326e-06
6.51216e-06
6.381e-06
6.10665e-06
5.94546e-06
5.70607e-06
5.51599e-06
5.29234e-06
5.07134e-06
4.876e-06
4.66561e-06
4.43493e-06
4.23575e-06
4.02766e-06
3.81355e-06
3.59934e-06
3.3792e-06
3.17449e-06
2.9584e-06
2.73798e-06
2.51808e-06
2.30379e-06
2.08942e-06
1.87361e-06
1.70033e-06
1.70162e-06
1.73989e-06
1.74651e-06
0.999991
0.99999
0.99999
0.99999
0.99999
0.99999
0.99999
0.99999
0.99999
0.99999
0.99999
0.99999
0.99999
0.99999
0.99999
0.99999
0.99999
0.99999
0.99999
0.99999
0.99999
0.99999
0.99999
0.99999
0.99999
0.99999
0.99999
0.99999
0.99999
0.99999
0.99999
0.99999
0.99999
0.99999
0.99999
0.99999
0.99999
0.99999
0.99999
0.99999
0.99999
0.99999
0.99999
0.99999
0.99999
0.99999
0.99999
0.99999
0.99999
0.99999
0.99999
0.99999
0.99999
0.99999
0.99999
0.999989
0.999983
0.999979
0.999889
0.945014
0.0113359
9.94874e-06
8.14496e-06
7.76183e-06
7.72439e-06
7.28323e-06
7.28384e-06
6.93918e-06
6.83942e-06
6.53591e-06
6.39192e-06
6.1243e-06
5.95693e-06
5.71435e-06
5.50186e-06
5.285e-06
5.08881e-06
4.86578e-06
4.65115e-06
4.44918e-06
4.23692e-06
4.01366e-06
3.81189e-06
3.59823e-06
3.37491e-06
3.17129e-06
2.95328e-06
2.73163e-06
2.52272e-06
2.30483e-06
2.08689e-06
1.88162e-06
1.71008e-06
1.70407e-06
1.74214e-06
1.74779e-06
0.99999
0.99999
0.99999
0.99999
0.99999
0.99999
0.99999
0.99999
0.99999
0.99999
0.99999
0.99999
0.99999
0.99999
0.99999
0.99999
0.99999
0.99999
0.99999
0.99999
0.99999
0.99999
0.99999
0.99999
0.99999
0.99999
0.99999
0.99999
0.99999
0.99999
0.99999
0.99999