/*--------------------------------*- C++ -*----------------------------------*\
| =========                 |                                                 |
| \\      /  F ield         | OpenFOAM: The Open Source CFD Toolbox           |
|  \\    /   O peration     | Version:  2.3.0                                 |
|   \\  /    A nd           | Web:      www.OpenFOAM.org                      |
|    \\/     M anipulation  |                                                 |
\*---------------------------------------------------------------------------*/
FoamFile
{
    version     2.0;
    format      ascii;
    class       volScalarField;
    location    "1";
    object      dsauterMean;
}
// * * * * * * * * * * * * * * * * * * * * * * * * * * * * * * * * * * * * * //

dimensions      [0 0 0 0 0 0 0];

internalField   nonuniform List<scalar> 
6144
(
0.00833335
0.00833335
0.00833335
0.00833335
0.00833335
0.00833335
0.00833335
0.00833335
0.00833335
0.00833335
0.00833335
0.00833335
0.00833335
0.00833335
0.00833335
0.00833335
0.00833335
0.00833335
0.00833335
0.00833335
0.00833335
0.00833335
0.00833335
0.00833335
0.00833335
0.00833335
0.00833335
0.00833335
0.00833335
0.00833335
0.00833335
0.00833335
0.00833335
0.00833335
0.00833335
0.00833335
0.00833335
0.00833335
0.00833335
0.00833335
0.00833335
0.00833335
0.00833335
0.00833335
0.00833335
0.00833335
0.00833335
0.00833335
0.00833335
0.00833335
0.00833335
0.00833335
0.00833335
0.00833335
0.00833335
0.00833335
0.00833335
0.00833335
0.00833335
0.00833517
0.00833427
0.00833324
0.006849
0.00668928
0.00648078
0.0063162
0.00615151
0.00590458
0.0057398
0.00553423
0.0053694
0.00516351
0.00499889
0.00483418
0.00466957
0.00446364
0.00429906
0.00413428
0.00396967
0.00380717
0.00362827
0.00350277
0.00328051
0.00319996
0.00301166
0.00289932
0.00273269
0.00261518
0.00248516
0.00240534
0.00232298
0.00224067
0.00219955
0.00215832
0.00219922
0.00215902
0.00833335
0.00833335
0.00833335
0.00833335
0.00833335
0.00833335
0.00833335
0.00833335
0.00833335
0.00833335
0.00833335
0.00833335
0.00833335
0.00833335
0.00833335
0.00833335
0.00833335
0.00833335
0.00833335
0.00833335
0.00833335
0.00833335
0.00833335
0.00833335
0.00833335
0.00833335
0.00833335
0.00833335
0.00833335
0.00833335
0.00833335
0.00833335
0.00833335
0.00833335
0.00833335
0.00833335
0.00833335
0.00833335
0.00833335
0.00833335
0.00833335
0.00833335
0.00833335
0.00833335
0.00833335
0.00833335
0.00833335
0.00833335
0.00833335
0.00833335
0.00833335
0.00833335
0.00833335
0.00833335
0.00833335
0.00833335
0.00833335
0.00833335
0.00833239
0.00833426
0.00833461
0.00833329
0.00689251
0.00672806
0.00651913
0.00634983
0.00615049
0.00594568
0.00578194
0.0055859
0.00541365
0.00519896
0.00503879
0.00483336
0.00464129
0.0044585
0.0043056
0.00415406
0.00395202
0.00380322
0.00365058
0.00347249
0.00332288
0.00318801
0.00302348
0.00290247
0.00277584
0.00265234
0.00252891
0.00240534
0.00232302
0.00228184
0.0021894
0.00220337
0.0021999
0.0022003
0.00833335
0.00833335
0.00833335
0.00833335
0.00833335
0.00833335
0.00833335
0.00833335
0.00833335
0.00833335
0.00833335
0.00833335
0.00833335
0.00833335
0.00833335
0.00833335
0.00833335
0.00833335
0.00833335
0.00833335
0.00833335
0.00833335
0.00833335
0.00833335
0.00833335
0.00833335
0.00833335
0.00833335
0.00833335
0.00833335
0.00833335
0.00833335
0.00833335
0.00833335
0.00833335
0.00833335
0.00833335
0.00833335
0.00833335
0.00833335
0.00833335
0.00833335
0.00833335
0.00833335
0.00833335
0.00833335
0.00833335
0.00833335
0.00833335
0.00833335
0.00833335
0.00833335
0.00833335
0.00833335
0.00833335
0.00833335
0.00833335
0.00833335
0.00833356
0.00834633
0.00758533
0.00833092
0.00684718
0.00674188
0.00647484
0.00631623
0.00610563
0.00591207
0.00573994
0.00546881
0.00535657
0.00512303
0.00500368
0.00480338
0.00469947
0.00447296
0.00430228
0.00414468
0.00394284
0.00382427
0.00365454
0.00347566
0.0033522
0.00318734
0.00302005
0.00289944
0.00277584
0.00265237
0.00252885
0.00240534
0.00232808
0.00227774
0.00220025
0.00218007
0.0022515
0.00220319
0.00833335
0.00833335
0.00833335
0.00833335
0.00833335
0.00833335
0.00833335
0.00833335
0.00833335
0.00833335
0.00833335
0.00833335
0.00833335
0.00833335
0.00833335
0.00833335
0.00833335
0.00833335
0.00833335
0.00833335
0.00833335
0.00833335
0.00833335
0.00833335
0.00833335
0.00833335
0.00833335
0.00833335
0.00833335
0.00833335
0.00833335
0.00833335
0.00833335
0.00833335
0.00833335
0.00833335
0.00833335
0.00833335
0.00833335
0.00833335
0.00833335
0.00833335
0.00833335
0.00833335
0.00833335
0.00833335
0.00833335
0.00833335
0.00833335
0.00833335
0.00833335
0.00833335
0.00833335
0.00833335
0.00833335
0.00833335
0.00833335
0.00833335
0.00833317
0.00833354
0.00833389
0.00822409
0.00808634
0.00804636
0.0077568
0.00690163
0.00680037
0.00615152
0.00597892
0.00558768
0.00536945
0.00520443
0.00499884
0.00483423
0.0046695
0.00450493
0.00429897
0.00413402
0.00395031
0.00381062
0.00364084
0.00345585
0.00332253
0.00319844
0.00301372
0.00289915
0.00277588
0.00265856
0.00251142
0.00240534
0.00232319
0.00226787
0.0022155
0.00219938
0.00219949
0.00224067
0.00833335
0.00833335
0.00833335
0.00833335
0.00833335
0.00833335
0.00833335
0.00833335
0.00833335
0.00833335
0.00833335
0.00833335
0.00833335
0.00833335
0.00833335
0.00833335
0.00833335
0.00833335
0.00833335
0.00833335
0.00833335
0.00833335
0.00833335
0.00833335
0.00833335
0.00833335
0.00833335
0.00833335
0.00833335
0.00833335
0.00833335
0.00833335
0.00833335
0.00833335
0.00833335
0.00833335
0.00833335
0.00833335
0.00833335
0.00833335
0.00833335
0.00833335
0.00833335
0.00833335
0.00833335
0.00833335
0.00833335
0.00833335
0.00833335
0.00833335
0.00833335
0.00833335
0.00833335
0.00833335
0.00833335
0.00833335
0.00833335
0.00833335
0.00833335
0.00834577
0.00755278
0.00833535
0.00834161
0.0083259
0.0083609
0.00836652
0.00835363
0.00829622
0.00803462
0.0078058
0.00753495
0.00716443
0.00690852
0.00655353
0.00627428
0.00601841
0.00557889
0.00533983
0.00489776
0.00451936
0.00422324
0.00392721
0.00359895
0.00322865
0.00306401
0.00286948
0.00274647
0.00262188
0.00249123
0.00239955
0.002323
0.00224067
0.00215819
0.00215814
0.00219971
0.0021995
0.00833335
0.00833335
0.00833335
0.00833335
0.00833335
0.00833335
0.00833335
0.00833335
0.00833335
0.00833335
0.00833335
0.00833335
0.00833335
0.00833335
0.00833335
0.00833335
0.00833335
0.00833335
0.00833335
0.00833335
0.00833335
0.00833335
0.00833335
0.00833335
0.00833335
0.00833335
0.00833335
0.00833335
0.00833335
0.00833335
0.00833335
0.00833335
0.00833335
0.00833335
0.00833335
0.00833335
0.00833335
0.00833335
0.00833335
0.00833335
0.00833335
0.00833335
0.00833335
0.00833335
0.00833335
0.00833335
0.00833335
0.00833335
0.00833335
0.00833335
0.00833335
0.00833335
0.00833335
0.00833335
0.00833335
0.00833335
0.00833335
0.00833335
0.00833335
0.00834371
0.00754084
0.00836072
0.00829605
0.00830721
0.00830605
0.00829669
0.00834272
0.00817813
0.00828675
0.00826612
0.00830785
0.00824307
0.00807824
0.00789597
0.00773994
0.00752339
0.00702291
0.00660398
0.00648978
0.00580749
0.0055127
0.00525806
0.00489691
0.00461027
0.00429974
0.00395703
0.00365923
0.0032597
0.00298862
0.00261424
0.00237165
0.00222989
0.00220132
0.00212169
0.00211598
0.00220274
0.00833335
0.00833335
0.00833335
0.00833335
0.00833335
0.00833335
0.00833335
0.00833335
0.00833335
0.00833335
0.00833335
0.00833335
0.00833335
0.00833335
0.00833335
0.00833335
0.00833335
0.00833335
0.00833335
0.00833335
0.00833335
0.00833335
0.00833335
0.00833335
0.00833335
0.00833335
0.00833335
0.00833335
0.00833335
0.00833335
0.00833335
0.00833335
0.00833335
0.00833335
0.00833335
0.00833335
0.00833335
0.00833335
0.00833335
0.00833335
0.00833335
0.00833335
0.00833335
0.00833335
0.00833335
0.00833335
0.00833335
0.00833335
0.00833335
0.00833335
0.00833335
0.00833335
0.00833335
0.00833335
0.00833335
0.00833335
0.00833335
0.00833335
0.00833335
0.00833325
0.00833531
0.00856629
0.00798568
0.00834905
0.00833549
0.00817618
0.00823389
0.00825291
0.0081156
0.00804652
0.00842866
0.00825847
0.00834939
0.00825265
0.00844039
0.00816958
0.00845378
0.0082183
0.00831815
0.00834777
0.00841116
0.00816159
0.00812327
0.00798224
0.00788866
0.00797499
0.00758673
0.00758638
0.00714074
0.00690743
0.0061964
0.00534821
0.00371866
0.00408012
0.0039829
0.00450482
0.00833335
0.00833335
0.00833335
0.00833335
0.00833335
0.00833335
0.00833335
0.00833335
0.00833335
0.00833335
0.00833335
0.00833335
0.00833335
0.00833335
0.00833335
0.00833335
0.00833335
0.00833335
0.00833335
0.00833335
0.00833335
0.00833335
0.00833335
0.00833335
0.00833335
0.00833335
0.00833335
0.00833335
0.00833335
0.00833335
0.00833335
0.00833335
0.00833335
0.00833335
0.00833335
0.00833335
0.00833335
0.00833335
0.00833335
0.00833335
0.00833335
0.00833335
0.00833335
0.00833335
0.00833335
0.00833335
0.00833335
0.00833335
0.00833335
0.00833335
0.00833335
0.00833335
0.00833335
0.00833335
0.00833335
0.00833335
0.00833335
0.00833335
0.00833361
0.00833308
0.00833208
0.00831756
0.00829524
0.00833265
0.00833598
0.00836251
0.00833366
0.00830833
0.00828778
0.0083708
0.00827001
0.00829265
0.00834098
0.00833402
0.00823663
0.0081999
0.00803972
0.00847471
0.00830452
0.00833109
0.0080846
0.00784522
0.00768626
0.00768751
0.00781361
0.00793674
0.00829102
0.00815835
0.00766788
0.00786772
0.00774551
0.00761846
0.00826393
0.00746258
0.00820591
0.00817786
0.00833335
0.00833335
0.00833335
0.00833335
0.00833335
0.00833335
0.00833335
0.00833335
0.00833335
0.00833335
0.00833335
0.00833335
0.00833335
0.00833335
0.00833335
0.00833335
0.00833335
0.00833335
0.00833335
0.00833335
0.00833335
0.00833335
0.00833335
0.00833335
0.00833335
0.00833335
0.00833335
0.00833335
0.00833335
0.00833335
0.00833335
0.00833335
0.00833335
0.00833335
0.00833335
0.00833335
0.00833335
0.00833335
0.00833335
0.00833335
0.00833335
0.00833335
0.00833335
0.00833335
0.00833335
0.00833335
0.00833335
0.00833335
0.00833335
0.00833335
0.00833335
0.00833335
0.00833335
0.00833335
0.00833335
0.00833335
0.00833335
0.00833335
0.00833319
0.00833337
0.00833287
0.00808375
0.00823468
0.00820944
0.00841646
0.00802716
0.00811946
0.00833979
0.00834262
0.00821031
0.00826192
0.00840964
0.00785679
0.0084258
0.00808052
0.00818938
0.00830802
0.00833976
0.00815184
0.00824814
0.00795449
0.00812529
0.00820183
0.00830148
0.00828543
0.00831189
0.00814549
0.00823801
0.00793029
0.00787267
0.00742845
0.0067717
0.00740621
0.00765344
0.00597359
0.00418349
0.00833335
0.00833335
0.00833335
0.00833335
0.00833335
0.00833335
0.00833335
0.00833335
0.00833335
0.00833335
0.00833335
0.00833335
0.00833335
0.00833335
0.00833335
0.00833335
0.00833335
0.00833335
0.00833335
0.00833335
0.00833335
0.00833335
0.00833335
0.00833335
0.00833335
0.00833335
0.00833335
0.00833335
0.00833335
0.00833335
0.00833335
0.00833335
0.00833335
0.00833335
0.00833335
0.00833335
0.00833335
0.00833335
0.00833335
0.00833335
0.00833335
0.00833335
0.00833335
0.00833335
0.00833335
0.00833335
0.00833335
0.00833335
0.00833335
0.00833335
0.00833335
0.00833335
0.00833335
0.00833335
0.00833335
0.00833335
0.00833335
0.00833335
0.00833335
0.0083334
0.00833596
0.00838008
0.00809341
0.00830305
0.00836262
0.00827855
0.00826005
0.00831188
0.00821736
0.00831833
0.00834267
0.00850442
0.00805875
0.00835769
0.00828901
0.00833803
0.00834113
0.0080399
0.00792416
0.00787443
0.00775887
0.00743235
0.00718909
0.00703989
0.00686084
0.00676339
0.00657394
0.0065251
0.00631207
0.00612091
0.00516865
0.00265011
0.00228182
0.00215834
0.00216017
0.00219769
0.00833335
0.00833335
0.00833335
0.00833335
0.00833335
0.00833335
0.00833335
0.00833335
0.00833335
0.00833335
0.00833335
0.00833335
0.00833335
0.00833335
0.00833335
0.00833335
0.00833335
0.00833335
0.00833335
0.00833335
0.00833335
0.00833335
0.00833335
0.00833335
0.00833335
0.00833335
0.00833335
0.00833335
0.00833335
0.00833335
0.00833335
0.00833335
0.00833335
0.00833335
0.00833335
0.00833335
0.00833335
0.00833335
0.00833335
0.00833335
0.00833335
0.00833335
0.00833335
0.00833335
0.00833335
0.00833335
0.00833335
0.00833335
0.00833335
0.00833335
0.00833335
0.00833335
0.00833335
0.00833335
0.00833335
0.00833335
0.00833335
0.00833336
0.00833236
0.00833432
0.0083431
0.00833168
0.00828238
0.00835044
0.0082928
0.00831104
0.00833989
0.00833648
0.00806748
0.00783324
0.0074728
0.00726207
0.00681123
0.00659336
0.00627499
0.00594973
0.00561618
0.00528428
0.00483489
0.00430035
0.00388291
0.00361079
0.00345908
0.00326824
0.00304847
0.00286624
0.00277585
0.00260263
0.00249564
0.00239784
0.002323
0.00224052
0.00217044
0.00216109
0.00218072
0.0021995
0.00833335
0.00833335
0.00833335
0.00833335
0.00833335
0.00833335
0.00833335
0.00833335
0.00833335
0.00833335
0.00833335
0.00833335
0.00833335
0.00833335
0.00833335
0.00833335
0.00833335
0.00833335
0.00833335
0.00833335
0.00833335
0.00833335
0.00833335
0.00833335
0.00833335
0.00833335
0.00833335
0.00833335
0.00833335
0.00833335
0.00833335
0.00833335
0.00833335
0.00833335
0.00833335
0.00833335
0.00833335
0.00833335
0.00833335
0.00833335
0.00833335
0.00833335
0.00833335
0.00833335
0.00833335
0.00833335
0.00833335
0.00833335
0.00833335
0.00833335
0.00833335
0.00833335
0.00833335
0.00833335
0.00833335
0.00833335
0.00833335
0.00833335
0.0083334
0.0083333
0.00833733
0.00851271
0.00832487
0.00833873
0.00803159
0.00743225
0.00700653
0.00664988
0.00633154
0.00589653
0.00553401
0.00524245
0.00507719
0.00487546
0.0046695
0.00450483
0.00433999
0.0041344
0.00396956
0.00380372
0.00364013
0.00345717
0.00337146
0.00318736
0.00302283
0.00289935
0.00277596
0.00261129
0.00252884
0.00241683
0.00230946
0.00224066
0.00215887
0.00219924
0.00219957
0.00224067
0.00833335
0.00833335
0.00833335
0.00833335
0.00833335
0.00833335
0.00833335
0.00833335
0.00833335
0.00833335
0.00833335
0.00833335
0.00833335
0.00833335
0.00833335
0.00833335
0.00833335
0.00833335
0.00833335
0.00833335
0.00833335
0.00833335
0.00833335
0.00833335
0.00833335
0.00833335
0.00833335
0.00833335
0.00833335
0.00833335
0.00833335
0.00833335
0.00833335
0.00833335
0.00833335
0.00833335
0.00833335
0.00833335
0.00833335
0.00833335
0.00833335
0.00833335
0.00833335
0.00833335
0.00833335
0.00833335
0.00833335
0.00833335
0.00833335
0.00833335
0.00833335
0.00833335
0.00833335
0.00833335
0.00833335
0.00833335
0.00833335
0.00833335
0.00833335
0.00833321
0.00836115
0.00833283
0.00718034
0.00672757
0.00652192
0.00631618
0.00615151
0.00594547
0.00578099
0.00551629
0.00543329
0.00516351
0.00504001
0.00483418
0.00466918
0.00446418
0.00430043
0.00410384
0.00397363
0.003805
0.00364006
0.00347504
0.0033536
0.0031724
0.00302833
0.00291139
0.00277585
0.00262732
0.0025295
0.00240603
0.00232291
0.00228184
0.00219951
0.0021995
0.00224067
0.00224067
0.00833335
0.00833335
0.00833335
0.00833335
0.00833335
0.00833335
0.00833335
0.00833335
0.00833335
0.00833335
0.00833335
0.00833335
0.00833335
0.00833335
0.00833335
0.00833335
0.00833335
0.00833335
0.00833335
0.00833335
0.00833335
0.00833335
0.00833335
0.00833335
0.00833335
0.00833335
0.00833335
0.00833335
0.00833335
0.00833335
0.00833335
0.00833335
0.00833335
0.00833335
0.00833335
0.00833335
0.00833335
0.00833335
0.00833335
0.00833335
0.00833335
0.00833335
0.00833335
0.00833335
0.00833335
0.00833335
0.00833335
0.00833335
0.00833335
0.00833335
0.00833335
0.00833335
0.00833335
0.00833335
0.00833335
0.00833335
0.00833335
0.00833335
0.00833335
0.00833332
0.00833469
0.00833474
0.00685168
0.00672784
0.00652201
0.00631513
0.00615321
0.00594533
0.00573994
0.00553391
0.00536942
0.00516351
0.00499993
0.00483418
0.00465607
0.00450216
0.00428645
0.00411261
0.0039482
0.00380501
0.00364027
0.00348074
0.00332879
0.00321871
0.00302212
0.00289828
0.00277458
0.00265231
0.00252885
0.00240475
0.00232103
0.00227709
0.00220871
0.0021995
0.00224067
0.00224067
0.00833335
0.00833335
0.00833335
0.00833335
0.00833335
0.00833335
0.00833335
0.00833335
0.00833335
0.00833335
0.00833335
0.00833335
0.00833335
0.00833335
0.00833335
0.00833335
0.00833335
0.00833335
0.00833335
0.00833335
0.00833335
0.00833335
0.00833335
0.00833335
0.00833335
0.00833335
0.00833335
0.00833335
0.00833335
0.00833335
0.00833335
0.00833335
0.00833335
0.00833335
0.00833335
0.00833335
0.00833335
0.00833335
0.00833335
0.00833335
0.00833335
0.00833335
0.00833335
0.00833335
0.00833335
0.00833335
0.00833335
0.00833335
0.00833335
0.00833335
0.00833335
0.00833335
0.00833335
0.00833335
0.00833335
0.00833335
0.00833335
0.00833335
0.00833339
0.00832342
0.00925034
0.00756738
0.00685126
0.00668627
0.006526
0.00631249
0.00615102
0.00594569
0.00573972
0.00551827
0.00542028
0.00520468
0.00503795
0.0048342
0.0046695
0.00450484
0.00434863
0.00417588
0.00392324
0.00383358
0.00364003
0.0034632
0.00336057
0.00318827
0.00302644
0.00284432
0.00279696
0.00263482
0.00251782
0.00240872
0.00231148
0.00229525
0.00219746
0.00219951
0.00224069
0.00224067
0.00833335
0.00833335
0.00833335
0.00833335
0.00833335
0.00833335
0.00833335
0.00833335
0.00833335
0.00833335
0.00833335
0.00833335
0.00833335
0.00833335
0.00833335
0.00833335
0.00833335
0.00833335
0.00833335
0.00833335
0.00833335
0.00833335
0.00833335
0.00833335
0.00833335
0.00833335
0.00833335
0.00833335
0.00833335
0.00833335
0.00833335
0.00833335
0.00833335
0.00833335
0.00833335
0.00833335
0.00833335
0.00833335
0.00833335
0.00833335
0.00833335
0.00833335
0.00833335
0.00833335
0.00833335
0.00833335
0.00833335
0.00833335
0.00833335
0.00833335
0.00833335
0.00833335
0.00833335
0.00833335
0.00833335
0.00833335
0.00833335
0.00833335
0.00833337
0.00833336
0.00829131
0.0069808
0.0068867
0.00669216
0.0065164
0.00631609
0.00615847
0.00589756
0.00574133
0.00557517
0.00536991
0.00520504
0.00506378
0.00482839
0.00468072
0.00451075
0.00429457
0.00413429
0.00396967
0.00382099
0.00362746
0.00347566
0.00335078
0.0031811
0.0030229
0.00289944
0.00275747
0.00267165
0.00253003
0.00240535
0.00232302
0.00228375
0.00219971
0.00219949
0.00223989
0.00224139
0.00833335
0.00833335
0.00833335
0.00833335
0.00833335
0.00833335
0.00833335
0.00833335
0.00833335
0.00833335
0.00833335
0.00833335
0.00833335
0.00833335
0.00833335
0.00833335
0.00833335
0.00833335
0.00833335
0.00833335
0.00833335
0.00833335
0.00833335
0.00833335
0.00833335
0.00833335
0.00833335
0.00833335
0.00833335
0.00833335
0.00833335
0.00833335
0.00833335
0.00833335
0.00833335
0.00833335
0.00833335
0.00833335
0.00833335
0.00833335
0.00833335
0.00833335
0.00833335
0.00833335
0.00833335
0.00833335
0.00833335
0.00833335
0.00833335
0.00833335
0.00833335
0.00833335
0.00833335
0.00833335
0.00833335
0.00833335
0.00833335
0.00833336
0.00833331
0.00833171
0.008333
0.00833335
0.00685135
0.00668657
0.00648092
0.00632898
0.00608399
0.00592463
0.0057369
0.00553358
0.00536556
0.00516425
0.00499891
0.00483414
0.00468222
0.00446682
0.00429901
0.00413468
0.00396964
0.00380499
0.00363602
0.0034819
0.00335218
0.00319848
0.00300275
0.00291673
0.00277584
0.00265285
0.00253641
0.00240222
0.00231929
0.00228354
0.00219951
0.00219951
0.00219951
0.0021995
0.00833335
0.00833335
0.00833335
0.00833335
0.00833335
0.00833335
0.00833335
0.00833335
0.00833335
0.00833335
0.00833335
0.00833335
0.00833335
0.00833335
0.00833335
0.00833335
0.00833335
0.00833335
0.00833335
0.00833335
0.00833335
0.00833335
0.00833335
0.00833335
0.00833335
0.00833335
0.00833335
0.00833335
0.00833335
0.00833335
0.00833335
0.00833335
0.00833335
0.00833335
0.00833335
0.00833335
0.00833335
0.00833335
0.00833335
0.00833335
0.00833335
0.00833335
0.00833335
0.00833335
0.00833335
0.00833335
0.00833335
0.00833335
0.00833335
0.00833335
0.00833335
0.00833335
0.00833335
0.00833335
0.00833335
0.00833335
0.00833335
0.00833335
0.00833336
0.00833334
0.00833196
0.00833393
0.00685414
0.00672794
0.00649947
0.00631419
0.00613261
0.00590967
0.00577811
0.00553483
0.00537501
0.00520468
0.00499885
0.00483418
0.00468836
0.00448724
0.00434017
0.00413432
0.00396895
0.00380534
0.00364033
0.00351696
0.0033522
0.00320253
0.00304157
0.00289934
0.00277584
0.00265233
0.00252884
0.00240534
0.00232301
0.00228184
0.00220786
0.00220612
0.00224481
0.00219885
0.00833335
0.00833335
0.00833335
0.00833335
0.00833335
0.00833335
0.00833335
0.00833335
0.00833335
0.00833335
0.00833335
0.00833335
0.00833335
0.00833335
0.00833335
0.00833335
0.00833335
0.00833335
0.00833335
0.00833335
0.00833335
0.00833335
0.00833335
0.00833335
0.00833335
0.00833335
0.00833335
0.00833335
0.00833335
0.00833335
0.00833335
0.00833335
0.00833335
0.00833335
0.00833335
0.00833335
0.00833335
0.00833335
0.00833335
0.00833335
0.00833335
0.00833335
0.00833335
0.00833335
0.00833335
0.00833335
0.00833335
0.00833335
0.00833335
0.00833335
0.00833335
0.00833335
0.00833335
0.00833335
0.00833335
0.00833335
0.00833335
0.00833334
0.00833341
0.00833367
0.00835031
0.00833529
0.00706122
0.00722203
0.00680724
0.00648084
0.0063573
0.00594568
0.00576936
0.00557306
0.00542461
0.00520469
0.00504002
0.00483159
0.00469824
0.00447181
0.00434015
0.00419449
0.00395288
0.00382232
0.00366141
0.00350401
0.00332862
0.00320111
0.0030689
0.00289522
0.00277584
0.00265223
0.00253198
0.00239445
0.00232022
0.0022817
0.00219408
0.00220464
0.00224065
0.00224067
0.00833335
0.00833335
0.00833335
0.00833335
0.00833335
0.00833335
0.00833335
0.00833335
0.00833335
0.00833335
0.00833335
0.00833335
0.00833335
0.00833335
0.00833335
0.00833335
0.00833335
0.00833335
0.00833335
0.00833335
0.00833335
0.00833335
0.00833335
0.00833335
0.00833335
0.00833335
0.00833335
0.00833335
0.00833335
0.00833335
0.00833335
0.00833335
0.00833335
0.00833335
0.00833335
0.00833335
0.00833335
0.00833335
0.00833335
0.00833335
0.00833335
0.00833335
0.00833335
0.00833335
0.00833335
0.00833335
0.00833335
0.00833335
0.00833335
0.00833335
0.00833335
0.00833335
0.00833335
0.00833335
0.00833335
0.00833335
0.00833335
0.00833335
0.00833335
0.00833922
0.0064078
0.00839993
0.00836985
0.00832678
0.0083322
0.00833927
0.0081924
0.00805254
0.00779496
0.00755281
0.00728063
0.00689841
0.00660294
0.00626193
0.00605092
0.00545946
0.00516331
0.00483413
0.00454828
0.0042172
0.0038442
0.00355499
0.00339322
0.00319171
0.0029932
0.00291571
0.00277547
0.002679
0.00250678
0.00239532
0.00232816
0.00224685
0.00215923
0.00219964
0.00219863
0.00224157
0.00833335
0.00833335
0.00833335
0.00833335
0.00833335
0.00833335
0.00833335
0.00833335
0.00833335
0.00833335
0.00833335
0.00833335
0.00833335
0.00833335
0.00833335
0.00833335
0.00833335
0.00833335
0.00833335
0.00833335
0.00833335
0.00833335
0.00833335
0.00833335
0.00833335
0.00833335
0.00833335
0.00833335
0.00833335
0.00833335
0.00833335
0.00833335
0.00833335
0.00833335
0.00833335
0.00833335
0.00833335
0.00833335
0.00833335
0.00833335
0.00833335
0.00833335
0.00833335
0.00833335
0.00833335
0.00833335
0.00833335
0.00833335
0.00833335
0.00833335
0.00833335
0.00833335
0.00833335
0.00833335
0.00833335
0.00833335
0.00833335
0.00833335
0.00833335
0.00834032
0.0077305
0.00830526
0.00833453
0.0082133
0.00838977
0.00825066
0.00830398
0.00822189
0.00854188
0.00819905
0.00834338
0.00803874
0.00785456
0.00754903
0.00720598
0.00687491
0.00659265
0.00632389
0.00596853
0.0056956
0.00541084
0.00508636
0.00478872
0.00445592
0.00419956
0.00383353
0.00351716
0.00314808
0.00285939
0.00253997
0.0023233
0.0022819
0.00219872
0.00215876
0.0021997
0.0021995
0.00833335
0.00833335
0.00833335
0.00833335
0.00833335
0.00833335
0.00833335
0.00833335
0.00833335
0.00833335
0.00833335
0.00833335
0.00833335
0.00833335
0.00833335
0.00833335
0.00833335
0.00833335
0.00833335
0.00833335
0.00833335
0.00833335
0.00833335
0.00833335
0.00833335
0.00833335
0.00833335
0.00833335
0.00833335
0.00833335
0.00833335
0.00833335
0.00833335
0.00833335
0.00833335
0.00833335
0.00833335
0.00833335
0.00833335
0.00833335
0.00833335
0.00833335
0.00833335
0.00833335
0.00833335
0.00833335
0.00833335
0.00833335
0.00833335
0.00833335
0.00833335
0.00833335
0.00833335
0.00833335
0.00833335
0.00833335
0.00833335
0.00833335
0.00833329
0.00832697
0.009342
0.00832202
0.00833487
0.00838242
0.00808108
0.00828305
0.00825121
0.00833414
0.00831535
0.00824918
0.0082954
0.0082804
0.00828511
0.00833323
0.00833492
0.00855215
0.00771104
0.00843289
0.00803861
0.00831812
0.00849084
0.00833305
0.00798151
0.00806743
0.0071454
0.00688378
0.00602881
0.00540845
0.00453173
0.00324631
0.00299306
0.00262984
0.00225925
0.00210381
0.00219674
0.00220184
0.00833335
0.00833335
0.00833335
0.00833335
0.00833335
0.00833335
0.00833335
0.00833335
0.00833335
0.00833335
0.00833335
0.00833335
0.00833335
0.00833335
0.00833335
0.00833335
0.00833335
0.00833335
0.00833335
0.00833335
0.00833335
0.00833335
0.00833335
0.00833335
0.00833335
0.00833335
0.00833335
0.00833335
0.00833335
0.00833335
0.00833335
0.00833335
0.00833335
0.00833335
0.00833335
0.00833335
0.00833335
0.00833335
0.00833335
0.00833335
0.00833335
0.00833335
0.00833335
0.00833335
0.00833335
0.00833335
0.00833335
0.00833335
0.00833335
0.00833335
0.00833335
0.00833335
0.00833335
0.00833335
0.00833335
0.00833335
0.00833335
0.00833335
0.00833335
0.00831736
0.00855495
0.00815897
0.00819963
0.00829825
0.00832581
0.00833906
0.00833863
0.00836792
0.00838651
0.00816988
0.00834591
0.00824091
0.0083077
0.00803531
0.00841195
0.00825653
0.008351
0.00833929
0.00833691
0.00831778
0.00826175
0.00836777
0.00808225
0.0077954
0.00863254
0.00831609
0.00829875
0.00833194
0.00761331
0.00849185
0.00785752
0.00818657
0.00834068
0.00835864
0.00827554
0.00816663
0.00833335
0.00833335
0.00833335
0.00833335
0.00833335
0.00833335
0.00833335
0.00833335
0.00833335
0.00833335
0.00833335
0.00833335
0.00833335
0.00833335
0.00833335
0.00833335
0.00833335
0.00833335
0.00833335
0.00833335
0.00833335
0.00833335
0.00833335
0.00833335
0.00833335
0.00833335
0.00833335
0.00833335
0.00833335
0.00833335
0.00833335
0.00833335
0.00833335
0.00833335
0.00833335
0.00833335
0.00833335
0.00833335
0.00833335
0.00833335
0.00833335
0.00833335
0.00833335
0.00833335
0.00833335
0.00833335
0.00833335
0.00833335
0.00833335
0.00833335
0.00833335
0.00833335
0.00833335
0.00833335
0.00833335
0.00833335
0.00833335
0.00833335
0.00833337
0.00832617
0.00924926
0.00835363
0.00832055
0.00832975
0.00818249
0.00832096
0.00826382
0.00839504
0.00819943
0.00820206
0.00825567
0.00820839
0.00830653
0.00833404
0.00833422
0.00834152
0.00833342
0.00832016
0.00834238
0.0083407
0.00830066
0.00820166
0.00831461
0.008092
0.00830976
0.00835482
0.00818948
0.00824458
0.00828777
0.00824724
0.00836457
0.00838023
0.0083499
0.00818129
0.00838313
0.00833327
0.00833335
0.00833335
0.00833335
0.00833335
0.00833335
0.00833335
0.00833335
0.00833335
0.00833335
0.00833335
0.00833335
0.00833335
0.00833335
0.00833335
0.00833335
0.00833335
0.00833335
0.00833335
0.00833335
0.00833335
0.00833335
0.00833335
0.00833335
0.00833335
0.00833335
0.00833335
0.00833335
0.00833335
0.00833335
0.00833335
0.00833335
0.00833335
0.00833335
0.00833335
0.00833335
0.00833335
0.00833335
0.00833335
0.00833335
0.00833335
0.00833335
0.00833335
0.00833335
0.00833335
0.00833335
0.00833335
0.00833335
0.00833335
0.00833335
0.00833335
0.00833335
0.00833335
0.00833335
0.00833335
0.00833335
0.00833335
0.00833335
0.00833335
0.00833359
0.00833336
0.00822775
0.00828111
0.00830632
0.00831935
0.00834153
0.00829499
0.00829577
0.00832176
0.00833757
0.00834618
0.00829619
0.00829017
0.00828815
0.00832322
0.00833921
0.00831633
0.00830418
0.00825547
0.0083534
0.00829141
0.00830055
0.00829722
0.00831779
0.00831901
0.00829088
0.00809531
0.00825874
0.0082875
0.00824621
0.00816243
0.00831328
0.00824403
0.00837735
0.00833535
0.00832226
0.00833044
0.00833335
0.00833335
0.00833335
0.00833335
0.00833335
0.00833335
0.00833335
0.00833335
0.00833335
0.00833335
0.00833335
0.00833335
0.00833335
0.00833335
0.00833335
0.00833335
0.00833335
0.00833335
0.00833335
0.00833335
0.00833335
0.00833335
0.00833335
0.00833335
0.00833335
0.00833335
0.00833335
0.00833335
0.00833335
0.00833335
0.00833335
0.00833335
0.00833335
0.00833335
0.00833335
0.00833335
0.00833335
0.00833335
0.00833335
0.00833335
0.00833335
0.00833335
0.00833335
0.00833335
0.00833335
0.00833335
0.00833335
0.00833335
0.00833335
0.00833335
0.00833335
0.00833335
0.00833335
0.00833335
0.00833335
0.00833335
0.00833335
0.00833335
0.00833332
0.00833489
0.00835307
0.00864972
0.00829398
0.00827561
0.00828942
0.00823814
0.00833629
0.00832984
0.00825883
0.0084742
0.00792952
0.00781543
0.00800936
0.00783347
0.00789295
0.00789403
0.0078122
0.00776553
0.0078964
0.00774347
0.00771381
0.00763817
0.00761378
0.00631626
0.00590834
0.00571339
0.00541928
0.00491673
0.00377254
0.00314696
0.00280358
0.00262692
0.00233077
0.00225566
0.00219771
0.00219745
0.00833335
0.00833335
0.00833335
0.00833335
0.00833335
0.00833335
0.00833335
0.00833335
0.00833335
0.00833335
0.00833335
0.00833335
0.00833335
0.00833335
0.00833335
0.00833335
0.00833335
0.00833335
0.00833335
0.00833335
0.00833335
0.00833335
0.00833335
0.00833335
0.00833335
0.00833335
0.00833335
0.00833335
0.00833335
0.00833335
0.00833335
0.00833335
0.00833335
0.00833335
0.00833335
0.00833335
0.00833335
0.00833335
0.00833335
0.00833335
0.00833335
0.00833335
0.00833335
0.00833335
0.00833335
0.00833335
0.00833335
0.00833335
0.00833335
0.00833335
0.00833335
0.00833335
0.00833335
0.00833335
0.00833335
0.00833335
0.00833335
0.00833335
0.00833359
0.00833172
0.00834053
0.00832444
0.00836684
0.00830949
0.00835015
0.00834189
0.00799994
0.00766828
0.00747621
0.00722537
0.00699453
0.00665343
0.00644307
0.00619417
0.00594512
0.00569862
0.00545059
0.00520371
0.0050079
0.00468352
0.00447006
0.00418222
0.003994
0.00368117
0.00343407
0.00321441
0.00295323
0.00271231
0.00257818
0.00247086
0.00232307
0.00228419
0.00219853
0.00219972
0.00219977
0.00224067
0.00833335
0.00833335
0.00833335
0.00833335
0.00833335
0.00833335
0.00833335
0.00833335
0.00833335
0.00833335
0.00833335
0.00833335
0.00833335
0.00833335
0.00833335
0.00833335
0.00833335
0.00833335
0.00833335
0.00833335
0.00833335
0.00833335
0.00833335
0.00833335
0.00833335
0.00833335
0.00833335
0.00833335
0.00833335
0.00833335
0.00833335
0.00833335
0.00833335
0.00833335
0.00833335
0.00833335
0.00833335
0.00833335
0.00833335
0.00833335
0.00833335
0.00833335
0.00833335
0.00833335
0.00833335
0.00833335
0.00833335
0.00833335
0.00833335
0.00833335
0.00833335
0.00833335
0.00833335
0.00833335
0.00833335
0.00833335
0.00833335
0.00833336
0.00833037
0.00833722
0.00837649
0.00758782
0.00812682
0.00734483
0.00697452
0.00645038