/*--------------------------------*- C++ -*----------------------------------*\
| =========                 |                                                 |
| \\      /  F ield         | OpenFOAM: The Open Source CFD Toolbox           |
|  \\    /   O peration     | Version:  2.3.0                                 |
|   \\  /    A nd           | Web:      www.OpenFOAM.org                      |
|    \\/     M anipulation  |                                                 |
\*---------------------------------------------------------------------------*/
FoamFile
{
    version     2.0;
    format      ascii;
    class       surfaceScalarField;
    location    "1";
    object      phi;
}
// * * * * * * * * * * * * * * * * * * * * * * * * * * * * * * * * * * * * * //

dimensions      [0 3 -1 0 0 0 0];

internalField   nonuniform List<scalar> 
16448
(
-1.60781e-06
-5.04657e-07
7.34126e-08
-1.2697e-06
-5.19644e-07
1.81534e-07
-1.03852e-06
-5.40979e-07
3.09804e-07
-8.66518e-07
-5.31735e-07
3.59727e-07
-7.39393e-07
-5.15958e-07
3.88831e-07
-6.40076e-07
-5.02173e-07
4.02854e-07
-5.61805e-07
-4.8786e-07
4.09587e-07
-4.98347e-07
-4.76085e-07
4.12625e-07
-4.46424e-07
-4.65754e-07
4.13829e-07
-4.03571e-07
-4.56996e-07
4.14142e-07
-3.6806e-07
-4.49525e-07
4.14012e-07
-3.38596e-07
-4.43135e-07
4.1367e-07
-3.14136e-07
-4.37709e-07
4.13247e-07
-2.93835e-07
-4.33108e-07
4.12806e-07
-2.77008e-07
-4.29206e-07
4.12377e-07
-2.63083e-07
-4.259e-07
4.11973e-07
-2.51579e-07
-4.23102e-07
4.11596e-07
-2.4209e-07
-4.20734e-07
4.11243e-07
-2.34274e-07
-4.1873e-07
4.10912e-07
-2.27848e-07
-4.1703e-07
4.10602e-07
-2.22576e-07
-4.15582e-07
4.10308e-07
-2.1826e-07
-4.14346e-07
4.10029e-07
-2.14737e-07
-4.13287e-07
4.09762e-07
-2.11872e-07
-4.12372e-07
4.09504e-07
-2.09551e-07
-4.11579e-07
4.09256e-07
-2.07678e-07
-4.10894e-07
4.09018e-07
-2.06174e-07
-4.10294e-07
4.08788e-07
-2.04985e-07
-4.09752e-07
4.08559e-07
-2.04059e-07
-4.09247e-07
4.08318e-07
-2.03356e-07
-4.08775e-07
4.08069e-07
-2.02836e-07
-4.08345e-07
4.07822e-07
-2.02468e-07
-4.07954e-07
4.07582e-07
-2.02234e-07
-4.07607e-07
4.07369e-07
-2.02124e-07
-4.07288e-07
4.07174e-07
-2.02119e-07
-4.0698e-07
4.06972e-07
-2.02194e-07
-4.06689e-07
4.06758e-07
-2.02312e-07
-4.06425e-07
4.06539e-07
-2.02385e-07
-4.06188e-07
4.06255e-07
-2.0213e-07
-4.06133e-07
4.05873e-07
-2.04503e-07
-4.0447e-07
4.06837e-07
-1.98997e-07
-4.08898e-07
4.03388e-07
-2.05119e-07
-4.02052e-07
4.08167e-07
-1.95382e-07
-4.11744e-07
4.02002e-07
-2.0237e-07
-4.01598e-07
4.08577e-07
-1.88703e-07
-4.15616e-07
4.01943e-07
-1.91392e-07
-4.05457e-07
4.08137e-07
-1.78145e-07
-4.18688e-07
4.05434e-07
-1.47496e-07
-4.31544e-07
4.00884e-07
-1.31553e-07
-4.23784e-07
4.07832e-07
-6.93072e-08
-4.65323e-07
4.03065e-07
-2.90264e-09
-4.45202e-07
3.78789e-07
9.76046e-08
-5.21905e-07
4.21384e-07
2.76039e-07
-4.64108e-07
2.85663e-07
3.77278e-07
-5.33845e-07
4.32592e-07
6.81251e-07
-4.29824e-07
1.25842e-07
-1.99109e-07
7.89939e-09
8.72449e-07
-2.05263e-06
7.92259e-07
1.06126e-06
-1.18199e-05
5.01673e-06
4.75057e-06
2.27141e-06
-6.86746e-06
-7.22387e-06
-7.13767e-07
2.04335e-06
9.41814e-07
-1.38189e-05
4.83683e-06
8.26837e-06
-4.3901e-06
-9.5434e-06
1.14559e-07
9.00727e-06
-8.49165e-06
-4.90572e-06
8.04233e-06
4.26861e-07
5.38074e-07
3.6294e-06
1.72192e-06
2.69101e-06
3.65709e-06
-8.65137e-07
8.37453e-07
2.9315e-06
-1.39324e-07
8.64924e-07
3.38307e-06
-8.94461e-07
4.42892e-07
4.04341e-06
-1.01458e-06
3.54231e-07
3.93229e-06
-5.65314e-07
6.76432e-07
3.96294e-06
-6.66065e-07
6.35418e-07
3.80083e-06
-5.14663e-07
6.7677e-07
3.71124e-06
-5.82115e-07
6.71704e-07
3.54075e-06
-4.93197e-07
6.63677e-07
3.41644e-06
-5.43536e-07
6.67844e-07
3.24515e-06
-4.89232e-07
6.60523e-07
3.09607e-06
-5.15813e-07
6.64893e-07
2.93151e-06
-4.9802e-07
6.62576e-07
2.77495e-06
-5.0792e-07
6.64475e-07
2.62336e-06
-5.14169e-07
6.65757e-07
2.47224e-06
-5.15689e-07
6.66804e-07
2.32564e-06
-5.20874e-07
6.67471e-07
2.18381e-06
-5.26785e-07
6.68617e-07
2.04643e-06
-5.32738e-07
6.70117e-07
1.91333e-06
-5.38887e-07
6.71992e-07
1.78387e-06
-5.4494e-07
6.7439e-07
1.65778e-06
-5.50474e-07
6.76565e-07
1.53252e-06
-5.52838e-07
6.78098e-07
1.40407e-06
-5.4982e-07
6.78274e-07
1.26686e-06
-5.39209e-07
6.76421e-07
1.11437e-06
-5.1985e-07
6.72338e-07
9.40613e-07
-4.9236e-07
6.66119e-07
7.41219e-07
-4.59359e-07
6.58755e-07
5.13838e-07
-4.24124e-07
6.51506e-07
2.64506e-07
-3.96445e-07
6.45778e-07
-3.77367e-07
6.41874e-07
-1.83533e-06
-8.16338e-07
-2.57023e-07
-1.37771e-06
-8.62432e-07
-1.14834e-07
-1.11675e-06
-8.64218e-07
6.22798e-08
-9.21926e-07
-8.49406e-07
1.22841e-07
-7.88611e-07
-8.08891e-07
1.59613e-07
-6.84029e-07
-7.84112e-07
1.77352e-07
-6.03163e-07
-7.54545e-07
1.85815e-07
-5.37335e-07
-7.31733e-07
1.89817e-07
-4.83619e-07
-7.11103e-07
1.9163e-07
-4.39297e-07
-6.93668e-07
1.92347e-07
-4.02611e-07
-6.78734e-07
1.9252e-07
-3.72182e-07
-6.66018e-07
1.92452e-07
-3.46951e-07
-6.55216e-07
1.92275e-07
-3.26058e-07
-6.4605e-07
1.92047e-07
-3.08788e-07
-6.3828e-07
1.91801e-07
-2.94542e-07
-6.31699e-07
1.91551e-07
-2.8282e-07
-6.26131e-07
1.91304e-07
-2.73193e-07
-6.21424e-07
1.9106e-07
-2.65309e-07
-6.17441e-07
1.90823e-07
-2.58875e-07
-6.14061e-07
1.90594e-07
-2.53643e-07
-6.11187e-07
1.90368e-07
-2.49407e-07
-6.08734e-07
1.90148e-07
-2.46e-07
-6.0663e-07
1.89932e-07
-2.43275e-07
-6.0482e-07
1.89719e-07
-2.41117e-07
-6.03245e-07
1.89503e-07
-2.39435e-07
-6.01859e-07
1.89278e-07
-2.38149e-07
-6.00632e-07
1.89047e-07
-2.37196e-07
-5.99532e-07
1.88821e-07
-2.36514e-07
-5.98531e-07
1.88596e-07
-2.36053e-07
-5.97617e-07
1.88376e-07
-2.35786e-07
-5.96777e-07
1.88159e-07
-2.3569e-07
-5.96002e-07
1.87945e-07
-2.35749e-07
-5.95284e-07
1.87729e-07
-2.35947e-07
-5.94614e-07
1.87516e-07
-2.36262e-07
-5.93977e-07
1.87304e-07
-2.36677e-07
-5.93371e-07
1.87088e-07
-2.37176e-07
-5.92811e-07
1.86875e-07
-2.37736e-07
-5.92271e-07
1.86634e-07
-2.38344e-07
-5.91855e-07
1.8632e-07
-2.39167e-07
-5.91108e-07
1.8745e-07
-2.38598e-07
-5.92562e-07
1.83083e-07
-2.40232e-07
-5.90236e-07
1.89805e-07
-2.37293e-07
-5.95081e-07
1.80383e-07
-2.39557e-07
-5.90467e-07
1.9112e-07
-2.31581e-07
-6.02815e-07
1.79207e-07
-2.35006e-07
-5.93235e-07
1.91187e-07
-2.1382e-07
-6.18496e-07
1.78603e-07
-2.19429e-07
-6.14045e-07
1.88092e-07
-1.79299e-07
-6.40041e-07
1.76108e-07
-1.7131e-07
-6.6239e-07
1.89059e-07
-5.81961e-08
-7.03163e-07
1.44824e-07
-1.43952e-08
-7.80433e-07
2.14706e-07
2.97093e-07
-8.11109e-07
3.54897e-08
7.20905e-07
-1.15506e-06
1.9738e-07
1.59355e-06
-8.8373e-07
-4.18756e-07
3.11488e-06
-1.4361e-06
-7.7342e-08
6.90643e-06
-6.8008e-07
-2.31922e-06
1.23549e-05
2.35525e-06
-2.78697e-06
-6.21022e-06
-4.40257e-07
1.21379e-05
9.38007e-07
-1.35706e-06
-3.74783e-06
1.74639e-05
-5.19126e-06
-6.49782e-06
1.05702e-05
-7.10251e-06
4.45275e-06
-5.52442e-07
-2.80501e-06
5.43604e-06
8.71016e-07
2.17021e-07
-1.21361e-06
5.12278e-06
-1.46897e-07
-2.38294e-06
4.19705e-06
-1.02608e-06
1.08668e-06
5.58783e-06
-1.434e-06
-9.60966e-08
5.08869e-06
-7.43592e-07
3.48268e-07
4.61742e-06
-9.5535e-07
4.12037e-07
4.4517e-06
-6.45144e-07
2.45546e-07
4.30718e-06
-7.68953e-07
2.47402e-07
4.12848e-06
-5.64589e-07
2.28627e-07
4.0207e-06
-7.03297e-07
2.28961e-07
3.83625e-06
-5.40119e-07
2.31364e-07
3.70265e-06
-6.45299e-07
2.35359e-07
3.51948e-06
-5.42948e-07
2.36877e-07
3.35669e-06
-5.96234e-07
2.43212e-07
3.18036e-06
-5.65785e-07
2.4409e-07
3.01107e-06
-5.86998e-07
2.48366e-07
2.84901e-06
-6.02073e-07
2.49963e-07
2.68718e-06
-6.05425e-07
2.51554e-07
2.52975e-06
-6.16958e-07
2.53518e-07
2.37707e-06
-6.301e-07
2.55993e-07
2.22944e-06
-6.4416e-07
2.59053e-07
2.08633e-06
-6.5883e-07
2.63051e-07
1.94869e-06
-6.75006e-07
2.67703e-07
1.81607e-06
-6.90356e-07
2.72506e-07
1.68604e-06
-6.99233e-07
2.7642e-07
1.55409e-06
-6.96423e-07
2.78554e-07
1.41264e-06
-6.76225e-07
2.78472e-07
1.25324e-06
-6.35866e-07
2.75413e-07
1.068e-06
-5.76975e-07
2.69856e-07
8.51889e-07
-5.05699e-07
2.62454e-07
5.98905e-07
-4.26534e-07
2.55395e-07
3.11696e-07
-3.58416e-07
2.49182e-07
-3.13294e-07
2.47625e-07
-1.97335e-06
-9.89527e-07
-5.22683e-07
-1.37607e-06
-1.1062e-06
-3.53507e-07
-1.10871e-06
-1.02731e-06
-1.0428e-07
-8.90867e-07
-1.03745e-06
-2.97962e-08
-7.67749e-07
-9.47671e-07
1.56585e-08
-6.61004e-07
-9.24566e-07
3.37046e-08
-5.85346e-07
-8.73045e-07
4.28388e-08
-5.22092e-07
-8.42027e-07
4.70369e-08
-4.71514e-07
-8.10611e-07
4.89273e-08
-4.29822e-07
-7.85022e-07
4.966e-08
-3.95468e-07
-7.62899e-07
4.9809e-08
-3.67083e-07
-7.44067e-07
4.96616e-08
-3.43627e-07
-7.28035e-07
4.93602e-08
-3.24268e-07
-7.14393e-07
4.89815e-08
-3.08326e-07
-7.02792e-07
4.8567e-08
-2.95233e-07
-6.92933e-07
4.8138e-08
-2.84511e-07
-6.84559e-07
4.77035e-08
-2.75761e-07
-6.77446e-07
4.72682e-08
-2.68647e-07
-6.71394e-07
4.68365e-08
-2.62897e-07
-6.66227e-07
4.64116e-08
-2.5828e-07
-6.618e-07
4.59924e-08
-2.54602e-07
-6.57993e-07
4.55777e-08
-2.51705e-07
-6.54698e-07
4.51659e-08
-2.49456e-07
-6.5183e-07
4.47567e-08
-2.47742e-07
-6.49314e-07
4.43505e-08
-2.46468e-07
-6.47087e-07
4.39494e-08
-2.45561e-07
-6.45096e-07
4.35526e-08
-2.4496e-07
-6.43297e-07
4.31588e-08
-2.44617e-07
-6.41651e-07
4.27716e-08
-2.44494e-07
-6.40133e-07
4.23866e-08
-2.44561e-07
-6.38718e-07
4.20013e-08
-2.44795e-07
-6.37389e-07
4.16152e-08
-2.45183e-07
-6.36132e-07
4.12284e-08
-2.45707e-07
-6.34937e-07
4.0839e-08
-2.46351e-07
-6.33791e-07
4.04508e-08
-2.47106e-07
-6.32688e-07
4.00639e-08
-2.47963e-07
-6.31637e-07
3.9675e-08
-2.48902e-07
-6.3061e-07
3.92671e-08
-2.49871e-07
-6.29715e-07
3.88197e-08
-2.51471e-07
-6.28962e-07
3.94429e-08
-2.51153e-07
-6.29034e-07
3.61431e-08
-2.54026e-07
-6.28159e-07
4.07834e-08
-2.5206e-07
-6.31043e-07
3.39834e-08
-2.55896e-07
-6.28258e-07
4.16126e-08
-2.50679e-07
-6.4066e-07
3.26148e-08
-2.56035e-07
-6.29877e-07
4.19814e-08
-2.41033e-07
-6.64266e-07
3.07531e-08
-2.54211e-07
-6.43928e-07
4.30431e-08
-2.19186e-07
-7.00512e-07
2.54286e-08
-2.30039e-07
-7.02348e-07
5.07912e-08
-1.42799e-07
-7.78636e-07
-1.17854e-08
-1.55121e-07
-8.58612e-07
9.04786e-08
1.66974e-07
-8.93073e-07
-2.40151e-07
3.05217e-07
-1.35561e-06
6.22849e-08
1.45596e-06
-9.59314e-07
-1.07518e-06
3.26074e-06
-2.20637e-06
-1.03452e-06
7.34554e-06
-1.08787e-06
-3.67701e-06
1.4965e-05
-1.12369e-06
-4.14052e-06
-3.42868e-06
3.43309e-06
1.45204e-05
1.16376e-06
-2.7498e-06
-3.19977e-06
1.09346e-05
-6.82929e-06
-8.13285e-06
4.89787e-06
-6.15277e-06
5.08698e-06
7.18942e-07
-6.37334e-07
2.01126e-06
3.96402e-07
-1.90724e-06
2.44682e-06
6.1603e-06
-4.41117e-06
-1.4996e-06
4.58306e-06
-1.13754e-06
1.68872e-06
6.25281e-06
-2.44532e-06
-6.58426e-07
5.55033e-06
-4.67021e-07
4.25911e-07
4.99607e-06
-8.49123e-07
4.48034e-07
4.81038e-06
-3.8997e-07
-6.94815e-08
4.64972e-06
-6.14326e-07
6.03188e-09
4.44992e-06
-3.0305e-07
-6.17436e-08
4.33354e-06
-5.36869e-07
-5.00531e-08
4.13694e-06
-2.88609e-07
-5.49096e-08
3.98888e-06
-4.50422e-07
-4.68145e-08
3.79243e-06
-3.04012e-07
-4.24926e-08
3.61004e-06
-3.82881e-07
-3.09658e-08
3.4203e-06
-3.51982e-07
-2.40669e-08
3.23605e-06
-3.87284e-07
-1.54655e-08
3.06212e-06
-4.1758e-07
-1.05646e-08
2.8895e-06
-4.2878e-07
-4.02953e-09
2.72129e-06
-4.50526e-07
1.77892e-09
2.55721e-06
-4.75757e-07
9.73334e-09
2.39836e-06
-5.03991e-07
1.86824e-08
2.24307e-06
-5.33116e-07
2.95686e-08
2.09611e-06
-5.70504e-07
4.24592e-08
1.96041e-06
-6.10342e-07
5.56844e-08
1.83375e-06
-6.39225e-07
6.66528e-08
1.71088e-06
-6.44728e-07
7.11768e-08
1.58053e-06
-6.13268e-07
6.73973e-08
1.42862e-06
-5.41436e-07
5.74808e-08
1.23887e-06
-4.29627e-07
4.24056e-08
9.93393e-07
-2.83464e-07
2.3241e-08
6.93148e-07
-1.34427e-07
8.1393e-09
3.62421e-07
-2.81801e-08
4.92905e-10
5.02346e-08
-1.10585e-09
-2.11456e-06
-1.06102e-06
-7.23944e-07
-1.32539e-06
-1.34199e-06
-5.53378e-07
-1.10278e-06
-1.04975e-06
-2.00168e-07
-8.27985e-07
-1.1784e-06
-1.33853e-07
-7.38859e-07
-9.67039e-07
-6.97628e-08
-6.18371e-07
-9.94615e-07
-5.04424e-08
-5.56775e-07
-8.9636e-07
-3.82826e-08
-4.95489e-07
-8.69875e-07
-3.34406e-08
-4.50435e-07
-8.24188e-07
-3.1478e-08
-4.12605e-07
-7.91816e-07
-3.10385e-08
-3.81676e-07
-7.62505e-07
-3.13252e-08
-3.5624e-07
-7.37622e-07
-3.18828e-08
-3.35341e-07
-7.16345e-07
-3.25916e-08
-3.18199e-07
-6.98148e-07
-3.33895e-08
-3.04177e-07
-6.82584e-07
-3.42316e-08
-2.92745e-07
-6.69273e-07
-3.50949e-08
-2.83458e-07
-6.57883e-07
-3.59672e-08
-2.75949e-07
-6.48117e-07
-3.68412e-08
-2.69914e-07
-6.39723e-07
-3.77098e-08
-2.6511e-07
-6.32474e-07
-3.85609e-08
-2.61328e-07
-6.26182e-07
-3.94044e-08
-2.58392e-07
-6.2069e-07
-4.02434e-08
-2.56154e-07
-6.15863e-07
-4.10775e-08
-2.54491e-07
-6.1159e-07
-4.19074e-08
-2.53305e-07
-6.07772e-07
-4.27333e-08
-2.52515e-07
-6.04328e-07
-4.35539e-08
-2.52058e-07
-6.01188e-07
-4.43708e-08
-2.5188e-07
-5.98297e-07
-4.51837e-08
-2.51933e-07
-5.9561e-07
-4.59945e-08
-2.52183e-07
-5.93085e-07
-4.68033e-08
-2.52604e-07
-5.90697e-07
-4.76076e-08
-2.53185e-07
-5.88415e-07
-4.83996e-08
-2.53917e-07
-5.86224e-07
-4.91848e-08
-2.54782e-07
-5.84112e-07
-4.99671e-08
-2.55768e-07
-5.82067e-07
-5.07472e-08
-2.56875e-07
-5.80068e-07
-5.15209e-08
-2.58111e-07
-5.78117e-07
-5.2295e-08
-2.59457e-07
-5.76189e-07
-5.30842e-08
-2.60896e-07
-5.74384e-07
-5.39038e-08
-2.63308e-07
-5.72963e-07
-5.35977e-08
-2.6332e-07
-5.71423e-07
-5.76125e-08
-2.67808e-07
-5.71074e-07
-5.26084e-08
-2.66813e-07
-5.71046e-07
-6.1007e-08
-2.72816e-07
-5.70268e-07
-5.19997e-08
-2.71247e-07
-5.78529e-07
-6.37166e-08
-2.7878e-07
-5.7073e-07
-5.16274e-08
-2.73869e-07
-6.01331e-07
-6.78646e-08
-2.87577e-07
-5.81021e-07
-4.92121e-08
-2.66533e-07
-6.40667e-07
-8.0911e-08
-3.02651e-07
-6.31917e-07
-3.43278e-08
-2.36386e-07
-6.98596e-07
-1.4633e-07
-2.94346e-07
-7.96212e-07
-4.45698e-09
-3.42368e-08
-7.1371e-07
-4.39498e-07
-2.42714e-08
-1.28349e-06
-8.20926e-08
1.0966e-06
-4.73826e-07
-1.60638e-06
2.87693e-06
-1.9811e-06
-2.00561e-06
6.7476e-06
3.1443e-07
-5.27298e-06
1.2249e-05
-2.8804e-06
-3.74471e-06
-4.25155e-06
2.07774e-06
1.7856e-05
1.43006e-06
-3.97263e-06
-4.45879e-06
1.0305e-05
-7.47552e-06
-8.22871e-06
5.07833e-06
-5.83568e-06
4.90958e-06
3.17587e-07
2.89763e-06
1.2258e-06
-8.45408e-07
-2.42044e-06
1.67622e-06
5.44587e-06
-8.61816e-06
-2.08425e-06
4.76895e-06
-1.27334e-06
8.12742e-07
5.39658e-06
-2.50675e-06
-5.66185e-07
5.21605e-06
-3.39196e-07
5.27134e-08
5.17726e-06
-8.67451e-07
5.71199e-08
5.03161e-06
2.75724e-08
-2.7189e-07
4.97989e-06
-3.90525e-07
-1.72079e-07
4.74265e-06
1.38058e-07
-2.03871e-07
4.65447e-06
-2.27911e-07
-2.20778e-07
4.43023e-06
1.41903e-07
-2.06274e-07
4.2756e-06
-8.24991e-08
-2.13296e-07
4.05418e-06
1.12923e-07
-1.95516e-07
3.8471e-06
1.09521e-08
-1.86752e-07
3.64126e-06
3.27231e-08
-1.78867e-07
3.44241e-06
-1.38726e-08
-1.74568e-07
3.25808e-06
-5.75244e-08
-1.75723e-07
3.07522e-06
-7.27211e-08
-1.73201e-07
2.89495e-06
-9.79486e-08
-1.72307e-07
2.7203e-06
-1.34166e-07
-1.66941e-07
2.55108e-06
-1.75059e-07
-1.59718e-07
2.38209e-06
-2.15311e-07
-1.48809e-07
2.22168e-06
-2.77542e-07
-1.32553e-07
2.08249e-06
-3.62417e-07
-1.08737e-07
1.96882e-06
-4.44008e-07
-8.15519e-08
1.87498e-06
-4.93407e-07
-5.74725e-08
1.78067e-06
-4.75245e-07
-4.37177e-08
1.66499e-06
-3.81902e-07
-4.38518e-08
1.51374e-06
-2.19615e-07
-5.87629e-08
1.27628e-06
4.37692e-08
-8.97665e-08
9.43472e-07
3.2032e-07
-1.21937e-07
4.9836e-07
5.69942e-07
-1.53007e-07
7.0224e-07
-1.53643e-07
-2.27042e-06
-1.00566e-06
-8.54358e-07
-1.20569e-06
-1.63739e-06
-7.69324e-07
-1.11093e-06
-8.81672e-07
-2.62848e-07
-7.27279e-07
-1.31931e-06
-2.42742e-07
-7.16012e-07
-8.34252e-07
-1.44058e-07
-5.5238e-07
-1.0227e-06
-1.35552e-07
-5.26362e-07
-8.04106e-07
-1.18275e-07
-4.57377e-07
-8.23887e-07
-1.14974e-07
-4.22521e-07
-7.46193e-07
-1.12854e-07
-3.88681e-07
-7.12952e-07
-1.12706e-07
-3.62402e-07
-6.75513e-07
-1.13274e-07
-3.40914e-07
-6.44855e-07
-1.14257e-07
-3.23385e-07
-6.18416e-07
-1.1546e-07
-3.0913e-07
-5.95638e-07
-1.16767e-07
-2.97582e-07
-5.76005e-07
-1.1813e-07
-2.88271e-07
-5.59064e-07
-1.19524e-07
-2.80805e-07
-5.44416e-07
-1.20935e-07
-2.74861e-07
-5.31706e-07
-1.22358e-07
-2.7017e-07
-5.20635e-07
-1.23783e-07
-2.66531e-07
-5.10972e-07
-1.25144e-07
-2.63761e-07
-5.02473e-07
-1.26482e-07
-2.61709e-07
-4.94934e-07
-1.27813e-07
-2.60246e-07
-4.88192e-07
-1.29139e-07
-2.59269e-07
-4.82112e-07
-1.3046e-07
-2.58696e-07
-4.76577e-07
-1.31773e-07
-2.58462e-07
-4.7149e-07
-1.33079e-07
-2.58507e-07
-4.66773e-07
-1.34374e-07
-2.58789e-07
-4.62361e-07
-1.35661e-07
-2.59271e-07
-4.58195e-07
-1.36938e-07
-2.59925e-07
-4.54236e-07
-1.38203e-07
-2.60732e-07
-4.50453e-07
-1.39442e-07
-2.61696e-07
-4.46828e-07
-1.40631e-07
-2.628e-07
-4.43316e-07
-1.41811e-07
-2.64022e-07
-4.39874e-07
-1.43024e-07
-2.65342e-07
-4.36473e-07
-1.4428e-07
-2.66786e-07
-4.33116e-07
-1.45518e-07
-2.68384e-07
-4.29798e-07
-1.46729e-07
-2.70149e-07
-4.26495e-07
-1.47939e-07
-2.72092e-07
-4.23277e-07
-1.49173e-07
-2.75311e-07
-4.20495e-07
-1.49262e-07
-2.75643e-07
-4.17328e-07
-1.53773e-07
-2.81877e-07
-4.15966e-07
-1.48887e-07
-2.81774e-07
-4.12898e-07
-1.58261e-07
-2.90233e-07
-4.13181e-07
-1.48643e-07
-2.92283e-07
-4.14182e-07
-1.62307e-07
-3.02238e-07
-4.12511e-07
-1.48281e-07
-3.06871e-07
-4.282e-07
-1.68509e-07
-3.22099e-07
-4.20948e-07
-1.44864e-07
-3.17159e-07
-4.58304e-07
-1.87316e-07
-3.61154e-07
-4.66926e-07
-1.21019e-07
-3.10168e-07
-4.87032e-07
-2.62564e-07
-4.05876e-07
-6.13315e-07
-8.72138e-08
-1.46198e-07
-3.87478e-07
-5.85924e-07
-1.60419e-07
-1.03354e-06
-2.35755e-07
1.06608e-06
1.45524e-07
-1.84585e-06
2.76916e-06
-1.45405e-06
-2.23014e-06
6.98451e-06
1.52873e-06
-5.42963e-06
1.04421e-05
-1.82412e-06
-4.51388e-06
-3.88152e-06
-4.96642e-07
1.68981e-05
1.34018e-06
-4.8612e-06
-4.33313e-06
1.27759e-05
-9.95736e-06
-8.95387e-06
7.59148e-06
-4.93103e-06
4.27981e-06
7.12879e-06
3.49023e-06
-1.29882e-07
5.3778e-06
-2.83645e-06
2.16704e-06
4.31295e-06
-7.65978e-06
1.06521e-07
4.53992e-06
-1.4385e-06
-6.17795e-08
5.13113e-06
-2.15571e-06
-9.42237e-07
5.36437e-06
-3.68131e-07
-2.04303e-07
5.38621e-06
-6.35421e-07
-2.53869e-07
5.33976e-06
4.4489e-07
-3.7086e-07
5.22138e-06
1.29765e-07
-4.01907e-07
5.0286e-06
6.87456e-07
-3.5662e-07
4.89528e-06
3.97546e-07
-4.92136e-07
4.69735e-06
7.05387e-07
-3.65545e-07
4.51396e-06
5.44331e-07
-4.43446e-07
4.29238e-06
6.58257e-07
-3.2375e-07
4.04901e-06
5.86066e-07
-3.31748e-07
3.83993e-06
5.29288e-07
-2.87483e-07
3.6226e-06
4.84272e-07
-2.80815e-07
3.42736e-06
4.1636e-07
-2.78644e-07
3.23969e-06
3.80674e-07
-2.65728e-07
3.04099e-06
3.57114e-07
-2.56361e-07
2.84979e-06
2.95209e-07
-2.38178e-07
2.66686e-06
2.22362e-07
-2.14485e-07
2.49952e-06
1.34978e-07
-1.82956e-07
2.33906e-06
3.41483e-08
-1.51229e-07
2.20841e-06
-1.14456e-07
-1.17302e-07
2.11702e-06
-2.62218e-07
-9.04054e-08
2.06296e-06
-3.58749e-07
-8.05959e-08
2.00951e-06
-3.3156e-07
-9.02298e-08
1.91294e-06
-1.54937e-07
-1.30392e-07
1.72442e-06
1.61488e-07
-1.92581e-07
1.45384e-06
5.74844e-07
-2.60501e-07
1.04906e-06
1.05597e-06
-3.3087e-07
5.68295e-07
1.43627e-06
-3.85559e-07
1.67202e-06
-4.0148e-07
-2.46254e-06
-6.83538e-07
-9.26513e-07
-1.05198e-06
-2.04585e-06
-1.00211e-06
-1.11288e-06
-4.76926e-07
-3.43849e-07
-6.06427e-07
-1.42239e-06
-4.03379e-07
-6.88876e-07
-5.00026e-07
-2.5178e-07
-4.68071e-07
-9.72598e-07
-2.70908e-07
-4.97721e-07
-5.34869e-07
-2.39588e-07
-4.0332e-07
-6.75695e-07
-2.42595e-07
-3.91816e-07
-5.18824e-07
-2.38874e-07
-3.5822e-07
-5.07041e-07
-2.39508e-07
-3.37637e-07
-4.55644e-07
-2.40453e-07
-3.20622e-07
-4.1987e-07
-2.42001e-07
-3.0707e-07
-3.8814e-07
-2.4383e-07
-2.96313e-07
-3.60596e-07
-2.45802e-07
-2.87809e-07
-3.36664e-07
-2.47846e-07
-2.81125e-07
-3.15824e-07
-2.49927e-07
-2.75918e-07
-2.97603e-07
-2.52022e-07
-2.71923e-07
-2.81584e-07
-2.54119e-07
-2.68932e-07
-2.67415e-07
-2.56216e-07
-2.66747e-07
-2.54795e-07
-2.58366e-07
-2.65228e-07
-2.43472e-07
-2.60524e-07
-2.64256e-07
-2.33248e-07
-2.62662e-07
-2.63732e-07
-2.23942e-07
-2.64777e-07
-2.6358e-07
-2.15399e-07
-2.66869e-07
-2.63737e-07
-2.07489e-07
-2.68935e-07
-2.64152e-07
-2.00102e-07
-2.70977e-07
-2.64784e-07
-1.9315e-07
-2.72997e-07
-2.65596e-07
-1.86556e-07
-2.74997e-07
-2.66564e-07
-1.80255e-07
-2.76978e-07
-2.67672e-07
-1.74197e-07
-2.78936e-07
-2.68907e-07
-1.68343e-07
-2.80881e-07
-2.7025e-07
-1.62656e-07
-2.82835e-07
-2.71704e-07
-1.571e-07
-2.84769e-07
-2.73264e-07
-1.51642e-07
-2.86678e-07
-2.74926e-07
-1.46265e-07
-2.88554e-07
-2.76708e-07
-1.40947e-07
-2.90393e-07
-2.7864e-07
-1.35669e-07
-2.92208e-07
-2.80762e-07
-1.30389e-07
-2.93991e-07
-2.83125e-07
-1.25144e-07
-2.9578e-07
-2.87145e-07
-1.20041e-07
-2.9644e-07
-2.87482e-07
-1.15563e-07
-3.0144e-07
-2.95751e-07
-1.10623e-07
-2.9708e-07
-2.95762e-07
-1.05704e-07
-3.07194e-07
-3.07384e-07
-1.03997e-07
-2.97568e-07
-3.11544e-07
-9.73026e-08
-3.12731e-07
-3.25024e-07
-1.01342e-07
-2.97696e-07
-3.37354e-07
-9.50998e-08
-3.20785e-07
-3.55731e-07
-1.08026e-07
-2.94551e-07
-3.68924e-07
-1.02003e-07
-3.43124e-07
-4.16399e-07
-1.45757e-07
-2.737e-07
-3.77628e-07
-1.0168e-07
-4.24143e-07
-5.01482e-07
-2.6751e-07
-2.2196e-07
-1.62829e-07
3.65838e-08
-7.62738e-07
-1.34641e-07
-6.43982e-07
-4.17753e-07
1.22995e-06
8.47559e-07
-2.06664e-06
3.74716e-06
-1.22709e-06
-2.74418e-06
8.50578e-06
2.43516e-06
-5.66505e-06
1.37769e-05
-3.55869e-06
-3.53652e-06
-4.27964e-06
-1.8244e-06
1.93843e-05
1.07995e-06
-6.27936e-06
-3.94137e-06
4.19076e-06
-3.64628e-06
-9.42162e-06
-3.36104e-06
-3.50544e-06
6.12646e-06
1.43636e-05
-9.34756e-06
-4.88666e-06
1.10766e-05
-2.86427e-07
7.3702e-07
2.67719e-06
-8.91799e-07
1.63153e-06
3.12778e-06
-1.36884e-06
-5.202e-07
4.51503e-06
-2.00966e-06
-1.53327e-06
4.68386e-06
1.51979e-07
-6.88932e-07
5.3207e-06
-7.42138e-07
-5.30116e-07
4.82025e-06
1.34144e-06
-3.96095e-07
5.06614e-06
1.93552e-07
-3.09671e-07
4.47817e-06
1.78458e-06
-5.09156e-07
4.62304e-06
7.33367e-07
-4.80688e-07
4.12097e-06
1.87153e-06
-6.64061e-07
4.12076e-06
1.12858e-06
-5.84039e-07
3.72216e-06
1.62224e-06
-5.65385e-07
3.60179e-06
1.21497e-06
-5.08534e-07
3.38786e-06
1.26258e-06
-5.19359e-07
3.24345e-06
1.2007e-06
-5.72016e-07
3.09686e-06
1.17657e-06
-6.13624e-07
2.96442e-06
1.14601e-06
-6.32898e-07
2.78375e-06
1.18615e-06
-6.48365e-07
2.6243e-06
1.06995e-06
-6.15283e-07
2.42226e-06
1.00274e-06
-5.78344e-07
2.19772e-06
8.41917e-07
-4.8239e-07
2.02332e-06
5.81209e-07
-3.72668e-07
1.94505e-06
1.92236e-07
-2.28413e-07
1.99014e-06
-2.32684e-07
-7.4627e-08
2.14392e-06
-5.80045e-07
6.75202e-08
2.33496e-06
-6.79855e-07
1.57259e-07
2.50553e-06
-4.9176e-07
1.66256e-07
2.57582e-06
-3.38859e-09
9.45866e-08
2.44199e-06
7.49469e-07
-4.07883e-08
1.86889e-06
1.85793e-06
-2.28858e-07
9.56263e-07
2.74787e-06
-3.98968e-07
2.98789e-06
-3.59606e-07
-2.53753e-06
-1.48942e-08
-1.01094e-06
-8.5036e-07
-2.43373e-06
-1.29929e-06
-1.0839e-06
2.63393e-07
-5.06784e-07
-4.84986e-07
-1.35208e-06
-6.69221e-07
-6.43542e-07
1.20484e-07
-4.61957e-07
-3.84376e-07
-7.11566e-07
-5.20198e-07
-4.61117e-07
1.03704e-08
-4.68499e-07
-3.40926e-07
-3.10428e-07
-4.85458e-07
-3.62979e-07
-2.10746e-08
-4.75698e-07
-3.21075e-07
-6.82844e-08
-4.80661e-07
-3.13502e-07
1.83267e-08
-4.81545e-07
-3.01693e-07
5.12724e-08
-4.82954e-07
-2.92475e-07
8.70787e-08
-4.84439e-07
-2.85388e-07
1.18521e-07
-4.86206e-07
-2.80023e-07
1.46135e-07
-4.88165e-07
-2.76023e-07
1.70433e-07
-4.9026e-07
-2.73089e-07
1.9191e-07
-4.92449e-07
-2.71048e-07
2.11089e-07
-4.94716e-07
-2.69754e-07
2.28333e-07
-4.97044e-07
-2.69027e-07
2.43908e-07
-4.99433e-07
-2.68762e-07
2.58082e-07
-5.01822e-07
-2.68884e-07
2.71039e-07
-5.04169e-07
-2.6932e-07
2.82981e-07
-5.0649e-07
-2.70014e-07
2.94073e-07
-5.08783e-07
-2.70918e-07
3.04453e-07
-5.11041e-07
-2.71996e-07
3.14232e-07
-5.1326e-07
-2.73218e-07
3.23508e-07
-5.1544e-07
-2.74566e-07
3.32354e-07
-5.17566e-07
-2.76038e-07
3.40834e-07
-5.19622e-07
-2.77622e-07
3.49012e-07
-5.2163e-07
-2.79302e-07
3.56937e-07
-5.23604e-07
-2.81067e-07
3.64653e-07
-5.2555e-07
-2.82912e-07
3.72203e-07
-5.27462e-07
-2.8484e-07
3.79608e-07
-5.29329e-07
-2.86859e-07
3.86894e-07
-5.31144e-07
-2.89006e-07
3.94099e-07
-5.32906e-07
-2.91294e-07
4.01247e-07
-5.34631e-07
-2.9373e-07
4.08356e-07
-5.36317e-07
-2.96374e-07
4.15474e-07
-5.37978e-07
-3.00931e-07
4.23078e-07
-5.3857e-07
-3.0154e-07
4.28063e-07
-5.43019e-07
-3.11169e-07
4.37907e-07
-5.38907e-07
-3.11659e-07
4.4285e-07
-5.48064e-07
-3.25393e-07
4.48626e-07
-5.38895e-07
-3.3171e-07
4.61721e-07
-5.52704e-07
-3.47617e-07
4.53074e-07
-5.38515e-07
-3.66711e-07
4.83463e-07
-5.59467e-07
-3.87173e-07
4.47549e-07
-5.3512e-07
-4.15078e-07
5.06385e-07
-5.80482e-07
-4.64526e-07
4.1996e-07
-5.1628e-07
-4.33671e-07
5.31642e-07
-6.64176e-07
-5.88239e-07
3.29991e-07
-4.42947e-07
-1.75153e-07
6.26055e-07
-1.00256e-06
-2.49991e-07
9.68606e-09
-5.78845e-07
1.46783e-06
1.19542e-06
-2.06568e-06
2.9818e-06
-1.03038e-06
-1.71069e-06
7.47006e-06
2.72969e-06
-4.78276e-06
1.19914e-05
-4.16263e-06
-3.91743e-06
-4.82677e-06
2.6534e-06
1.23405e-05
-6.54107e-07
-6.94379e-06
-3.50793e-06
6.39716e-06
-2.12133e-06
-8.57498e-06
-1.47032e-06
-1.76273e-06
6.12625e-06
-3.24257e-06
-6.13588e-06
-1.43834e-06
-5.61515e-06
3.13292e-06
-1.04583e-06
-3.54187e-06
7.41614e-07
-3.70598e-06
-3.27495e-06
-4.05474e-07
-1.22979e-06
-1.80174e-06
-9.28992e-07
-2.55355e-06
-2.11455e-06
1.33524e-06
-8.70232e-07
-1.17306e-06
-1.72781e-07
-1.5107e-06
-2.37156e-06
2.66516e-06
-1.25104e-07
-1.46598e-06
4.29732e-07
-1.14163e-06
-2.39633e-06
2.83469e-06
-1.19647e-07
-1.4065e-06
8.13268e-07
-1.06964e-06
-1.90808e-06
2.46433e-06
-9.11442e-08
-1.09536e-06
9.70512e-07
-6.54586e-07
-1.23868e-06
1.80626e-06
-4.06284e-08
-6.79912e-07
1.06196e-06
-4.05692e-07
-6.46155e-07
1.36727e-06
-1.38372e-07
-3.46174e-07
1.34063e-06
-4.39846e-07
-2.24516e-07
1.29517e-06
-2.40183e-07
-9.63426e-08
1.43498e-06
-4.17078e-07
7.37779e-08
1.28973e-06
-2.73635e-07
3.11282e-07
1.12822e-06
-2.95719e-07
5.58959e-07
9.87766e-07
-2.32651e-07
8.11613e-07
8.30043e-07
-2.40734e-07
1.02864e-06
6.38399e-07
-2.74175e-07
1.17476e-06
3.84123e-07
-3.37967e-07
1.25143e-06
9.21421e-08
-4.01462e-07
1.38372e-06
-2.6572e-07
-4.46589e-07
1.57136e-06
-2.97852e-07
-5.69628e-07
1.77043e-06
4.27918e-08
-7.33613e-07
1.94217e-06
7.16132e-07
-8.91257e-07
1.9428e-06
1.79798e-06
-1.04914e-06
1.63055e-06
3.36877e-06
-1.19859e-06
9.55344e-07
4.81732e-06
-1.39424e-06
5.21165e-06
-1.26842e-06
-2.48696e-06
1.00936e-06
-9.03862e-07
-6.34331e-07
-2.83891e-06
-1.44745e-06
-1.02522e-06
1.24741e-06
-5.93126e-07
-3.87645e-07
-1.12773e-06
-8.61924e-07
-5.87285e-07
9.43862e-07
-6.23739e-07
-3.13557e-07
-2.67348e-07
-7.17946e-07
-4.11502e-07
7.6175e-07
-6.53435e-07
-2.83592e-07
2.48667e-07
-6.87006e-07
-3.302e-07
6.98031e-07
-6.72498e-07
-2.77873e-07
5.6782e-07
-6.88432e-07
-2.85146e-07
7.15629e-07
-6.9003e-07
-2.766e-07
7.42407e-07
-6.99681e-07
-2.73264e-07
7.90948e-07
-7.07206e-07
-2.71637e-07
8.31911e-07
-7.15019e-07
-2.71081e-07
8.68257e-07
-7.22678e-07
-2.71276e-07
9.00843e-07
-7.30217e-07
-2.72033e-07
9.30314e-07
-7.37648e-07
-2.732e-07
9.57163e-07
-7.4491e-07
-2.74659e-07
9.8181e-07
-7.5202e-07
-2.76404e-07
1.00461e-06
-7.58963e-07
-2.78417e-07
1.02586e-06
-7.65767e-07
-2.80575e-07
1.04581e-06
-7.72617e-07
-2.82857e-07
1.06467e-06
-7.79408e-07
-2.85243e-07
1.0826e-06
-7.86138e-07
-2.87717e-07
1.09973e-06
-7.92803e-07
-2.9027e-07
1.11618e-06
-7.99398e-07
-2.92891e-07
1.13205e-06
-8.05924e-07
-2.95572e-07
1.14742e-06
-8.12386e-07
-2.9831e-07
1.16235e-06
-8.1878e-07
-3.01101e-07
1.1769e-06
-8.251e-07
-3.0395e-07
1.19113e-06
-8.31346e-07
-3.06857e-07
1.20507e-06
-8.37515e-07
-3.09824e-07
1.21877e-06
-8.43606e-07
-3.12861e-07
1.23226e-06
-8.49617e-07
-3.15996e-07
1.24557e-06
-8.55543e-07
-3.19261e-07
1.25875e-06
-8.61383e-07
-3.22678e-07
1.27181e-06
-8.67146e-07
-3.26214e-07
1.28472e-06
-8.72822e-07
-3.29798e-07
1.29743e-06
-8.78377e-07
-3.3622e-07
1.31264e-06
-8.83137e-07
-3.36243e-07
1.31899e-06
-8.9091e-07
-3.50211e-07
1.3437e-06
-8.91816e-07
-3.48272e-07
1.34398e-06
-9.03064e-07
-3.69484e-07
1.37017e-06
-9.00327e-07
-3.72788e-07
1.37943e-06
-9.14404e-07
-3.99306e-07
1.3881e-06
-9.08496e-07
-4.18924e-07
1.43117e-06
-9.28085e-07
-4.51312e-07
1.39317e-06
-9.13223e-07
-4.92756e-07
1.50763e-06
-9.59795e-07
-5.53126e-07
1.37885e-06
-8.98513e-07
-5.6805e-07
1.62281e-06
-1.07625e-06
-7.52357e-07
1.32822e-06
-8.13912e-07
-3.56311e-07
1.75977e-06
-1.52977e-06
-6.98593e-07
1.28025e-06
-9.28277e-07
1.78194e-06
1.64678e-06
-2.93189e-06
2.00243e-06
9.2194e-07
-2.17279e-06
7.33082e-06
2.06136e-06
-4.66005e-06
3.22773e-06
3.13706e-06
-3.19658e-06
-2.01115e-06
2.7311e-06
5.16119e-06
-2.39878e-06
-4.97302e-07
-6.0581e-06
-3.44292e-07
7.07745e-06
-1.12494e-05
-1.33029e-05
4.34954e-06
6.85127e-06
-2.65665e-05
7.96483e-06
-8.32818e-07
-2.50634e-05
3.44386e-06
-1.80993e-06
-2.18984e-05
1.55537e-06
-3.97549e-06
-2.41173e-05
5.91246e-06
-4.09659e-06
-2.56595e-05
4.34613e-06
-3.73115e-06
-2.59059e-05
3.27577e-06
-1.69295e-06
-2.82684e-05
2.96506e-06
-7.74172e-07
-2.70946e-05
1.63636e-06
-1.43777e-07
-2.87536e-05
2.15981e-06
-6.97089e-08
-2.68919e-05
9.85022e-07
-1.05309e-08
-2.78148e-05
1.87405e-06
-1.3621e-07
-2.60829e-05
7.56966e-07
-2.27086e-08
-2.65853e-05
1.64426e-06
-1.69349e-07
-2.56014e-05
9.21183e-07
-9.64781e-08
-2.57319e-05
1.51908e-06
-3.24084e-07
-2.5178e-05
1.16184e-06
-3.4582e-07
-2.46944e-05
1.34161e-06
-4.81673e-07
-2.42557e-05
1.23396e-06
-3.74516e-07
-2.36418e-05
1.22779e-06
-4.0345e-07
-2.33803e-05
1.21125e-06
-1.79714e-07
-2.33484e-05
1.40175e-06
-3.01954e-07
-2.3679e-05
1.53508e-06
-2.13045e-07
-2.43418e-05
1.74028e-06
-2.43651e-07
-2.55286e-05
2.04956e-06
-2.20377e-07
-2.73366e-05
2.50902e-06
-3.12676e-07
-2.97288e-05
3.07014e-06
-5.814e-07
-3.23893e-05
3.54835e-06
-1.1491e-06
-3.42525e-05
3.62165e-06
-2.05192e-06
-3.44925e-05
3.26597e-06
-2.97896e-06
-3.23982e-05
2.49553e-06
-3.87002e-06
-2.7326e-05
1.30141e-06
-4.57257e-06
-1.93232e-05
-1.08053e-07
-4.52373e-06
-9.52772e-06
-1.64257e-06
-3.33417e-06
-1.8866e-06
-2.42895e-06
-1.69064e-06
2.15037e-06
1.25178e-07
-3.54269e-07
-2.96491e-06
-1.21037e-06
-8.25248e-07
1.89225e-06
-1.73864e-07
-2.98424e-07
-1.06881e-06
-5.85746e-07
-4.75082e-07
1.4222e-06
-3.01683e-07
-2.49438e-07
-6.345e-08
-4.29542e-07
-3.41605e-07
1.19413e-06
-3.40213e-07
-2.31404e-07
5.25544e-07
-3.87077e-07