/*--------------------------------*- C++ -*----------------------------------*\
| =========                 |                                                 |
| \\      /  F ield         | OpenFOAM: The Open Source CFD Toolbox           |
|  \\    /   O peration     | Version:  2.3.0                                 |
|   \\  /    A nd           | Web:      www.OpenFOAM.org                      |
|    \\/     M anipulation  |                                                 |
\*---------------------------------------------------------------------------*/
FoamFile
{
    version     2.0;
    format      ascii;
    class       surfaceScalarField;
    location    "1";
    object      phi;
}
// * * * * * * * * * * * * * * * * * * * * * * * * * * * * * * * * * * * * * //

dimensions      [0 3 -1 0 0 0 0];

internalField   nonuniform List<scalar> 
16448
(
-1.51767e-06
-4.66621e-07
5.98213e-08
-1.20435e-06
-4.76789e-07
1.63468e-07
-9.87924e-07
-4.99545e-07
2.83119e-07
-8.28258e-07
-4.90656e-07
3.3099e-07
-7.09163e-07
-4.77455e-07
3.58358e-07
-6.16401e-07
-4.64497e-07
3.71733e-07
-5.42982e-07
-4.51611e-07
3.78191e-07
-4.83525e-07
-4.40599e-07
3.81141e-07
-4.3486e-07
-4.31014e-07
3.82347e-07
-3.94731e-07
-4.22829e-07
3.82701e-07
-3.61508e-07
-4.15858e-07
3.82636e-07
-3.33975e-07
-4.09897e-07
3.82365e-07
-3.11146e-07
-4.04838e-07
3.8201e-07
-2.92222e-07
-4.00553e-07
3.8163e-07
-2.76555e-07
-3.96922e-07
3.81256e-07
-2.63607e-07
-3.93848e-07
3.80901e-07
-2.52924e-07
-3.91248e-07
3.80567e-07
-2.44125e-07
-3.8905e-07
3.80253e-07
-2.36887e-07
-3.87192e-07
3.79957e-07
-2.30944e-07
-3.85619e-07
3.79678e-07
-2.26073e-07
-3.8428e-07
3.79412e-07
-2.22092e-07
-3.83138e-07
3.79159e-07
-2.18845e-07
-3.82159e-07
3.78915e-07
-2.16209e-07
-3.81315e-07
3.78681e-07
-2.14076e-07
-3.80585e-07
3.78456e-07
-2.1236e-07
-3.79954e-07
3.7824e-07
-2.1099e-07
-3.79397e-07
3.78031e-07
-2.09913e-07
-3.78897e-07
3.77822e-07
-2.09076e-07
-3.78441e-07
3.77608e-07
-2.0844e-07
-3.78011e-07
3.77378e-07
-2.07966e-07
-3.7762e-07
3.77149e-07
-2.07624e-07
-3.77263e-07
3.76924e-07
-2.074e-07
-3.76921e-07
3.76699e-07
-2.07273e-07
-3.76639e-07
3.76516e-07
-2.0722e-07
-3.76404e-07
3.76354e-07
-2.07202e-07
-3.76182e-07
3.76167e-07
-2.07169e-07
-3.76003e-07
3.75971e-07
-2.07038e-07
-3.75919e-07
3.75791e-07
-2.06718e-07
-3.7591e-07
3.75591e-07
-2.06e-07
-3.76067e-07
3.75351e-07
-2.03434e-07
-3.7729e-07
3.74724e-07
-2.05953e-07
-3.73761e-07
3.76282e-07
-1.93903e-07
-3.85347e-07
3.73297e-07
-2.01229e-07
-3.69285e-07
3.76612e-07
-1.72887e-07
-4.02254e-07
3.7391e-07
-1.86318e-07
-3.62515e-07
3.75947e-07
-1.2581e-07
-4.37236e-07
3.76726e-07
-1.41587e-07
-3.59536e-07
3.75312e-07
-3.18702e-08
-4.92238e-07
3.82518e-07
6.82811e-09
-4.14784e-07
3.76084e-07
1.85811e-07
-5.6036e-07
3.81372e-07
4.43438e-07
-6.54068e-07
3.96438e-07
7.99591e-07
-6.82902e-07
3.26741e-07
1.61576e-06
-1.20603e-06
3.89863e-07
2.60953e-06
-1.12426e-06
1.3048e-07
4.79102e-06
-2.47138e-06
2.89867e-07
9.91699e-06
-3.80124e-06
-1.32474e-06
1.75973e-05
-5.88362e-06
-1.79674e-06
1.09756e-05
4.08812e-06
2.53352e-06
-2.84433e-06
7.10807e-06
6.71183e-06
-1.63959e-05
7.45484e-06
6.09673e-06
-9.60434e-06
-6.47631e-06
-3.15227e-07
-6.67921e-06
-1.7996e-06
-1.12553e-06
-7.1369e-07
-5.24936e-06
-7.16162e-07
9.6971e-07
-3.43651e-06
1.75311e-06
1.70497e-06
-8.42537e-07
1.0727e-07
3.83634e-06
-1.91963e-06
-2.11737e-07
3.63832e-06
-5.79976e-07
7.78e-07
3.97025e-06
-9.24185e-07
5.92249e-07
3.93895e-06
-6.80273e-07
7.11567e-07
3.96913e-06
-7.30489e-07
7.00304e-07
3.93481e-06
-6.46436e-07
6.80747e-07
3.90929e-06
-6.63454e-07
6.88971e-07
3.82457e-06
-5.82239e-07
6.66953e-07
3.74696e-06
-5.96665e-07
6.74276e-07
3.62815e-06
-5.43163e-07
6.61971e-07
3.50947e-06
-5.47498e-07
6.6617e-07
3.36985e-06
-5.20439e-07
6.6006e-07
3.22546e-06
-5.15884e-07
6.6027e-07
3.07895e-06
-5.12904e-07
6.59412e-07
2.9238e-06
-5.0353e-07
6.58676e-07
2.76697e-06
-5.01394e-07
6.58227e-07
2.60999e-06
-5.01742e-07
6.5872e-07
2.45468e-06
-5.04764e-07
6.60079e-07
2.30103e-06
-5.08462e-07
6.62109e-07
2.14921e-06
-5.12524e-07
6.64344e-07
1.99738e-06
-5.14181e-07
6.66003e-07
1.84288e-06
-5.12286e-07
6.66794e-07
1.68135e-06
-5.04184e-07
6.65712e-07
1.5072e-06
-4.88149e-07
6.62302e-07
1.31444e-06
-4.63792e-07
6.56553e-07
1.09833e-06
-4.32947e-07
6.49053e-07
8.57179e-07
-3.99788e-07
6.40945e-07
5.90182e-07
-3.66434e-07
6.33434e-07
3.01948e-07
-3.40028e-07
6.28264e-07
-3.2263e-07
6.24582e-07
-1.7251e-06
-7.55794e-07
-2.47027e-07
-1.3034e-06
-7.87551e-07
-1.10939e-07
-1.05769e-06
-7.98306e-07
5.30493e-08
-8.78256e-07
-7.81304e-07
1.11213e-07
-7.52593e-07
-7.48509e-07
1.45386e-07
-6.55582e-07
-7.23777e-07
1.62265e-07
-5.79797e-07
-6.97666e-07
1.70266e-07
-5.18444e-07
-6.7601e-07
1.74055e-07
-4.68328e-07
-6.56909e-07
1.75779e-07
-4.27052e-07
-6.40576e-07
1.76471e-07
-3.92937e-07
-6.26612e-07
1.7664e-07
-3.64682e-07
-6.14731e-07
1.76579e-07
-3.41288e-07
-6.04646e-07
1.76414e-07
-3.21944e-07
-5.96097e-07
1.76201e-07
-3.05978e-07
-5.88857e-07
1.75969e-07
-2.9283e-07
-5.82729e-07
1.75735e-07
-2.8203e-07
-5.77548e-07
1.75502e-07
-2.73177e-07
-5.73172e-07
1.75273e-07
-2.6594e-07
-5.69473e-07
1.75048e-07
-2.60046e-07
-5.66339e-07
1.7483e-07
-2.55263e-07
-5.63674e-07
1.74615e-07
-2.51402e-07
-5.614e-07
1.74406e-07
-2.48308e-07
-5.59449e-07
1.742e-07
-2.45846e-07
-5.5777e-07
1.73998e-07
-2.4391e-07
-5.56306e-07
1.7379e-07
-2.42414e-07
-5.55018e-07
1.73572e-07
-2.41278e-07
-5.53877e-07
1.7335e-07
-2.40445e-07
-5.52857e-07
1.73131e-07
-2.39864e-07
-5.51931e-07
1.72914e-07
-2.39487e-07
-5.51088e-07
1.72705e-07
-2.39289e-07
-5.50316e-07
1.72502e-07
-2.39247e-07
-5.49608e-07
1.72307e-07
-2.39329e-07
-5.48954e-07
1.72119e-07
-2.39532e-07
-5.48357e-07
1.71925e-07
-2.39841e-07
-5.47815e-07
1.71724e-07
-2.40209e-07
-5.47332e-07
1.71522e-07
-2.40595e-07
-5.46931e-07
1.71317e-07
-2.40956e-07
-5.46662e-07
1.71106e-07
-2.4119e-07
-5.46604e-07
1.70931e-07
-2.41163e-07
-5.46832e-07
1.70738e-07
-2.40572e-07
-5.48002e-07
1.70122e-07
-2.40949e-07
-5.45478e-07
1.72094e-07
-2.35032e-07
-5.5907e-07
1.67806e-07
-2.38026e-07
-5.39589e-07
1.73297e-07
-2.19058e-07
-5.88815e-07
1.67591e-07
-2.27832e-07
-5.26901e-07
1.73157e-07
-1.8067e-07
-6.54566e-07
1.70165e-07
-1.97828e-07
-5.14713e-07
1.72329e-07
-9.55434e-08
-7.68598e-07
1.7407e-07
-1.1845e-07
-5.71299e-07
1.79414e-07
7.82479e-08
-9.16728e-07
1.59664e-07
6.5924e-08
-8.96754e-07
2.55e-07
4.21228e-07
-1.09387e-06
5.56555e-08
4.21106e-07
-1.71002e-06
5.04092e-07
1.0381e-06
-1.3692e-06
-3.72068e-07
7.90829e-07
-3.1205e-06
8.96366e-07
-1.33758e-06
-1.03924e-06
-6.33617e-07
-5.70693e-06
-4.41782e-06
2.90353e-06
9.07843e-07
1.6716e-06
-4.19827e-06
1.11654e-06
4.99273e-06
1.9066e-06
2.05988e-07
5.93614e-06
2.42926e-06
-2.14502e-06
-4.43686e-06
3.11564e-07
8.141e-06
-7.08256e-06
-5.00306e-06
5.502e-06
-3.40368e-06
7.93319e-07
3.42507e-06
-1.98377e-06
6.24173e-07
3.50406e-06
-1.47422e-06
5.52686e-07
3.62166e-06
-2.14948e-06
1.12235e-07
3.82929e-06
-1.14542e-06
3.57808e-07
4.07675e-06
-1.4324e-06
2.60749e-07
4.17453e-06
-1.04014e-06
2.62072e-07
4.27142e-06
-1.10377e-06
2.76382e-07
4.25816e-06
-8.64128e-07
2.3095e-07
4.242e-06
-9.00235e-07
2.52933e-07
4.15768e-06
-7.29589e-07
2.31664e-07
4.0754e-06
-7.64481e-07
2.50082e-07
3.95112e-06
-6.57789e-07
2.38901e-07
3.82149e-06
-6.68533e-07
2.50659e-07
3.67213e-06
-6.16242e-07
2.45168e-07
3.51488e-06
-6.06986e-07
2.4834e-07
3.35795e-06
-6.02914e-07
2.46944e-07
3.19008e-06
-5.82237e-07
2.46572e-07
3.01967e-06
-5.78319e-07
2.47338e-07
2.8488e-06
-5.80173e-07
2.49293e-07
2.68187e-06
-5.90417e-07
2.52581e-07
2.5171e-06
-6.01716e-07
2.58027e-07
2.35584e-06
-6.15199e-07
2.63938e-07
2.19532e-06
-6.22658e-07
2.68992e-07
2.03425e-06
-6.23764e-07
2.72551e-07
1.86566e-06
-6.09239e-07
2.73643e-07
1.68286e-06
-5.76511e-07
2.71169e-07
1.47747e-06
-5.23762e-07
2.6536e-07
1.24504e-06
-4.58097e-07
2.57582e-07
9.82575e-07
-3.85457e-07
2.48144e-07
6.84172e-07
-3.06923e-07
2.38898e-07
3.5365e-07
-2.42023e-07
2.32522e-07
-2.02122e-07
2.33146e-07
-1.85097e-06
-9.19465e-07
-4.92494e-07
-1.30762e-06
-1.00212e-06
-3.28775e-07
-1.04898e-06
-9.55991e-07
-1.00957e-07
-8.52564e-07
-9.49463e-07
-2.82603e-08
-7.32478e-07
-8.82108e-07
1.35093e-08
-6.35161e-07
-8.51734e-07
3.06345e-08
-5.63076e-07
-8.08882e-07
3.91271e-08
-5.04415e-07
-7.77722e-07
4.30492e-08
-4.57105e-07
-7.49002e-07
4.47833e-08
-4.18321e-07
-7.24811e-07
4.54509e-08
-3.86414e-07
-7.04096e-07
4.55772e-08
-3.601e-07
-6.86472e-07
4.54282e-08
-3.38395e-07
-6.71488e-07
4.51385e-08
-3.20514e-07
-6.58756e-07
4.47788e-08
-3.05817e-07
-6.4794e-07
4.43881e-08
-2.9377e-07
-6.38759e-07
4.39857e-08
-2.83925e-07
-6.30969e-07
4.35798e-08
-2.75911e-07
-6.24358e-07
4.3174e-08
-2.69413e-07
-6.1874e-07
4.27721e-08
-2.64173e-07
-6.1395e-07
4.23757e-08
-2.59982e-07
-6.09848e-07
4.19862e-08
-2.5666e-07
-6.06319e-07
4.1602e-08
-2.5406e-07
-6.03266e-07
4.12211e-08
-2.52058e-07
-6.00609e-07
4.08433e-08
-2.5055e-07
-5.98279e-07
4.04696e-08
-2.49448e-07
-5.96216e-07
4.01009e-08
-2.48684e-07
-5.94372e-07
3.97363e-08
-2.48203e-07
-5.92707e-07
3.93743e-08
-2.4796e-07
-5.91187e-07
3.90179e-08
-2.47924e-07
-5.89784e-07
3.86646e-08
-2.48068e-07
-5.8848e-07
3.83126e-08
-2.48368e-07
-5.87263e-07
3.79599e-08
-2.48802e-07
-5.86123e-07
3.76072e-08
-2.49352e-07
-5.85056e-07
3.72536e-08
-2.50008e-07
-5.84056e-07
3.69017e-08
-2.50757e-07
-5.83133e-07
3.65536e-08
-2.51578e-07
-5.82316e-07
3.62085e-08
-2.5244e-07
-5.81662e-07
3.58649e-08
-2.53302e-07
-5.81269e-07
3.55287e-08
-2.54093e-07
-5.81217e-07
3.5179e-08
-2.54564e-07
-5.82137e-07
3.4607e-08
-2.55833e-07
-5.79934e-07
3.57266e-08
-2.53694e-07
-5.94218e-07
3.30083e-08
-2.55995e-07
-5.73427e-07
3.61395e-08
-2.47882e-07
-6.30018e-07
3.30883e-08
-2.52157e-07
-5.58308e-07
3.56801e-08
-2.28555e-07
-7.13874e-07
3.57015e-08
-2.39792e-07
-5.38545e-07
3.50657e-08
-1.6813e-07
-8.81147e-07
4.08813e-08
-2.16283e-07
-5.63522e-07
4.03715e-08
-1.08041e-08
-1.16077e-06
3.85526e-08
-1.25669e-07
-8.62441e-07
8.05456e-08
3.64318e-07
-1.49396e-06
-8.99102e-08
4.95958e-07
-2.04916e-06
2.07494e-07
1.8268e-06
-1.73067e-06
-9.69387e-07
2.9974e-06
-4.24418e-06
-4.69451e-08
5.41677e-06
-8.91543e-07
-2.56709e-06
2.10626e-06
-1.58331e-06
4.75975e-07
-7.0079e-06
4.3337e-06
6.45209e-06
1.09e-06
2.23123e-07
-3.32825e-06
1.18855e-05
-1.38136e-06
-3.47796e-06
8.71263e-06
-3.9379e-06
2.67388e-06
6.25481e-06
-6.74662e-06
2.12187e-06
4.7215e-06
-2.05976e-06
1.89384e-07
3.10712e-06
-8.05241e-07
4.35852e-07
3.45732e-06
-2.08021e-06
2.55791e-07
3.81411e-06
-2.2826e-06
-2.23677e-07
4.11958e-06
-1.53089e-06
8.0003e-08
4.39442e-06
-1.73405e-06
2.68023e-08
4.55589e-06
-1.1655e-06
-3.61158e-08
4.65065e-06
-1.18349e-06
-1.5046e-08
4.64348e-06
-8.0519e-07
-5.17748e-08
4.61504e-06
-8.52832e-07
-1.89657e-08
4.52032e-06
-5.97655e-07
-3.72201e-08
4.42088e-06
-6.46035e-07
-1.90109e-08
4.28766e-06
-4.95637e-07
-2.89327e-08
4.14073e-06
-5.04439e-07
-1.71702e-08
3.97926e-06
-4.32984e-07
-2.17955e-08
3.80398e-06
-4.13183e-07
-1.85202e-08
3.63117e-06
-4.10987e-07
-1.91231e-08
3.44875e-06
-3.84919e-07
-1.48977e-08
3.26269e-06
-3.8217e-07
-1.0093e-08
3.07425e-06
-3.90139e-07
-1.59304e-09
2.89273e-06
-4.18346e-07
9.44445e-09
2.71402e-06
-4.47927e-07
2.49221e-08
2.54533e-06
-4.86587e-07
4.00751e-08
2.38204e-06
-5.13059e-07
5.36973e-08
2.22498e-06
-5.30453e-07
6.37438e-08
2.0651e-06
-5.15212e-07
6.5857e-08
1.88868e-06
-4.58751e-07
5.86552e-08
1.67825e-06
-3.58945e-07
4.56226e-08
1.42469e-06
-2.33168e-07
2.86335e-08
1.12382e-06
-9.49961e-08
1.04069e-08
7.8388e-07
3.52264e-08
-2.20094e-09
4.05589e-07
1.48841e-07
-1.25685e-08
2.13577e-07
-1.01075e-08
-1.98406e-06
-9.93105e-07
-6.85482e-07
-1.27677e-06
-1.19942e-06
-5.09995e-07
-1.03759e-06
-9.99938e-07
-1.95245e-07
-8.00762e-07
-1.06382e-06
-1.22468e-07
-7.01346e-07
-9.1505e-07
-6.64809e-08
-5.98101e-07
-9.08591e-07
-4.6393e-08
-5.35135e-07
-8.36357e-07
-3.54954e-08
-4.80003e-07
-8.02004e-07
-3.0852e-08
-4.37331e-07
-7.62632e-07
-2.90431e-08
-4.02326e-07
-7.31153e-07
-2.86617e-08
-3.73677e-07
-7.03788e-07
-2.89568e-08
-3.50171e-07
-6.8046e-07
-2.95169e-08
-3.30903e-07
-6.60557e-07
-3.01977e-08
-3.15133e-07
-6.43569e-07
-3.09545e-08
-3.02262e-07
-6.29062e-07
-3.1749e-08
-2.9179e-07
-6.16668e-07
-3.25593e-08
-2.83306e-07
-6.06074e-07
-3.33762e-08
-2.76469e-07
-5.96998e-07
-3.41922e-08
-2.70997e-07
-5.89204e-07
-3.50037e-08
-2.66654e-07
-5.82482e-07
-3.58052e-08
-2.63256e-07
-5.76649e-07
-3.65919e-08
-2.6064e-07
-5.7156e-07
-3.73706e-08
-2.58668e-07
-5.67089e-07
-3.81437e-08
-2.57229e-07
-5.63131e-07
-3.89119e-08
-2.56231e-07
-5.59596e-07
-3.96761e-08
-2.55597e-07
-5.56408e-07
-4.0436e-08
-2.5527e-07
-5.53501e-07
-4.11919e-08
-2.552e-07
-5.50828e-07
-4.19438e-08
-2.55345e-07
-5.48343e-07
-4.26922e-08
-2.55679e-07
-5.46011e-07
-4.34335e-08
-2.56181e-07
-5.43807e-07
-4.4165e-08
-2.56837e-07
-5.41712e-07
-4.48902e-08
-2.57632e-07
-5.39712e-07
-4.56093e-08
-2.58549e-07
-5.37806e-07
-4.63275e-08
-2.59586e-07
-5.35978e-07
-4.70359e-08
-2.60748e-07
-5.3423e-07
-4.77354e-08
-2.62037e-07
-5.32593e-07
-4.84278e-08
-2.6346e-07
-5.31122e-07
-4.91142e-08
-2.65039e-07
-5.29889e-07
-4.97953e-08
-2.66781e-07
-5.28981e-07
-5.0491e-08
-2.6861e-07
-5.28932e-07
-5.13725e-08
-2.7106e-07
-5.27034e-07
-5.04486e-08
-2.73613e-07
-5.37782e-07
-5.38803e-08
-2.75381e-07
-5.2138e-07
-5.02801e-08
-2.82118e-07
-5.68516e-07
-5.47635e-08
-2.79767e-07
-5.10055e-07
-5.06068e-08
-2.98538e-07
-6.40647e-07
-5.44553e-08
-2.83925e-07
-5.04487e-07
-4.86771e-08
-3.39916e-07
-7.63201e-07
-6.19559e-08
-3.02281e-07
-5.72008e-07
-2.9157e-08
-4.44485e-07
-9.02522e-07
-1.16046e-07
-4.53463e-07
-8.91126e-07
3.76532e-08
-6.05505e-07
-9.18975e-07
-4.22949e-07
-1.09945e-06
-1.5903e-06
3.50724e-08
5.66796e-08
-7.05826e-07
-2.18099e-06
-1.22065e-06
-1.9347e-06
-1.03217e-06
4.84671e-06
-1.40499e-06
-5.55394e-06
6.17782e-06
-2.10539e-06
-8.09066e-07
-5.27052e-06
-8.95399e-07
1.66775e-05
2.15095e-06
-7.31984e-07
-6.46643e-06
1.12137e-05
-4.34747e-06
-6.09669e-06
7.56976e-06
-2.69521e-06
2.40123e-06
2.80339e-06
-3.25895e-06
1.2787e-06
1.0604e-06
-2.67144e-06
2.35467e-06
5.10299e-06
-3.45893e-06
-1.3889e-06
4.29971e-06
-2.05073e-06
7.738e-07
4.39942e-06
-2.26478e-06
-1.17539e-07
4.58112e-06
-1.74077e-06
2.81784e-08
4.83504e-06
-1.92725e-06
-6.07294e-08
5.00515e-06
-1.09285e-06
-2.42766e-07
5.12844e-06
-1.15869e-06
-1.48095e-07
5.08369e-06
-5.2737e-07
-2.33069e-07
5.02278e-06
-6.13767e-07
-1.78165e-07
4.90347e-06
-2.92562e-07
-1.8579e-07
4.7835e-06
-3.50662e-07
-1.75407e-07
4.63318e-06
-1.66703e-07
-1.78615e-07
4.47022e-06
-1.70522e-07
-1.70961e-07
4.29145e-06
-7.74982e-08
-1.76722e-07
4.09121e-06
-3.13253e-08
-1.81616e-07
3.89316e-06
-2.47481e-08
-1.88196e-07
3.68743e-06
9.60553e-09
-1.88799e-07
3.48251e-06
1.34989e-08
-1.90742e-07
3.27633e-06
1.58322e-09
-1.85554e-07
3.08412e-06
-5.25388e-08
-1.73596e-07
2.89186e-06
-1.07078e-07
-1.48593e-07
2.71295e-06
-1.86273e-07
-1.21399e-07
2.54204e-06
-2.49177e-07
-9.29741e-08
2.41276e-06
-3.39641e-07
-6.15368e-08
2.28974e-06
-3.47321e-07
-4.48649e-08
2.15536e-06
-2.80608e-07
-4.37612e-08
1.96943e-06
-1.08288e-07
-6.47279e-08
1.72257e-06
1.08525e-07
-9.48344e-08
1.4224e-06
3.32887e-07
-1.27703e-07
1.02029e-06
5.97806e-07
-1.60468e-07
5.34772e-07
8.18053e-07
-1.83691e-07
9.29477e-07
-1.81125e-07
-2.12039e-06
-9.60435e-07
-8.21273e-07
-1.17152e-06
-1.43989e-06
-7.08402e-07
-1.04123e-06
-8.73282e-07
-2.56946e-07
-7.13038e-07
-1.17166e-06
-2.20362e-07
-6.74373e-07
-8.16432e-07
-1.37289e-07
-5.41813e-07
-9.17391e-07
-1.23766e-07
-5.02067e-07
-7.66412e-07
-1.09693e-07
-4.46128e-07
-7.52197e-07
-1.05748e-07
-4.10466e-07
-6.94249e-07
-1.04043e-07
-3.80015e-07
-6.57658e-07
-1.03946e-07
-3.55712e-07
-6.23547e-07
-1.04541e-07
-3.35975e-07
-5.9471e-07
-1.05486e-07
-3.19926e-07
-5.69964e-07
-1.06639e-07
-3.06907e-07
-5.48702e-07
-1.07884e-07
-2.96382e-07
-5.30408e-07
-1.09175e-07
-2.87918e-07
-5.14642e-07
-1.10487e-07
-2.81156e-07
-5.01023e-07
-1.11808e-07
-2.75799e-07
-4.89218e-07
-1.13134e-07
-2.71602e-07
-4.78939e-07
-1.14457e-07
-2.68361e-07
-4.69953e-07
-1.15766e-07
-2.6592e-07
-4.62061e-07
-1.17023e-07
-2.64142e-07
-4.55073e-07
-1.18259e-07
-2.62909e-07
-4.48828e-07
-1.19488e-07
-2.62125e-07
-4.432e-07
-1.20708e-07
-2.61714e-07
-4.38079e-07
-1.21921e-07
-2.61616e-07
-4.33376e-07
-1.23124e-07
-2.61777e-07
-4.29017e-07
-1.24316e-07
-2.62157e-07
-4.24945e-07
-1.25497e-07
-2.62723e-07
-4.2111e-07
-1.2666e-07
-2.63458e-07
-4.1748e-07
-1.27788e-07
-2.64354e-07
-4.1402e-07
-1.28885e-07
-2.65401e-07
-4.10688e-07
-1.2997e-07
-2.66589e-07
-4.07457e-07
-1.31061e-07
-2.67879e-07
-4.04295e-07
-1.32214e-07
-2.69294e-07
-4.01204e-07
-1.33355e-07
-2.70868e-07
-3.98193e-07
-1.34456e-07
-2.72638e-07
-3.95279e-07
-1.3554e-07
-2.74648e-07
-3.92495e-07
-1.3661e-07
-2.76964e-07
-3.89903e-07
-1.37667e-07
-2.7967e-07
-3.87548e-07
-1.38721e-07
-2.82876e-07
-3.8578e-07
-1.39943e-07
-2.8669e-07
-3.83906e-07
-1.39309e-07
-2.93448e-07
-3.87743e-07
-1.43281e-07
-2.95795e-07
-3.79543e-07
-1.39485e-07
-3.13733e-07
-4.05334e-07
-1.45247e-07
-3.10594e-07
-3.7344e-07
-1.3975e-07
-3.49603e-07
-4.55604e-07
-1.46038e-07
-3.44307e-07
-3.72344e-07
-1.37436e-07
-3.92924e-07
-5.6305e-07
-1.51541e-07
-4.31114e-07
-4.11405e-07
-1.22413e-07
-3.92882e-07
-7.48869e-07
-1.91894e-07
-6.00783e-07
-6.27888e-07
-5.534e-08
-1.0522e-07
-9.49737e-07
-4.64815e-07
-3.83959e-07
-1.34776e-06
3.61841e-08
1.27315e-06
-7.5604e-07
-1.60692e-06
2.13309e-06
-2.08442e-06
-7.10245e-07
6.10888e-06
-7.87551e-07
-4.59327e-06
3.43616e-06
2.0803e-06
-1.51302e-06
-8.37952e-06
-1.61347e-06
1.25338e-05
2.09567e-06
-6.08658e-06
-5.12064e-06
1.71298e-05
-1.33294e-05
-6.05228e-06
1.27927e-05
1.51831e-07
1.4902e-06
8.12916e-07
3.95939e-06
4.76144e-06
1.32336e-06
-1.0051e-06
-2.17677e-06
5.16603e-06
-3.4328e-06
-3.86879e-06
4.75297e-06
-1.66008e-06
2.24077e-08
5.01928e-06
-2.06867e-06
-4.62419e-07
5.31315e-06
-1.60487e-06
-4.29781e-07
5.35701e-06
-1.65316e-06
-3.17956e-07
5.59001e-06
-7.84261e-07
-5.41592e-07
5.56097e-06
-7.5563e-07
-3.74018e-07
5.46878e-06
-6.66556e-08
-3.68526e-07
5.35515e-06
-1.51428e-07
-3.48712e-07
5.23639e-06
1.49865e-07
-3.23674e-07
5.07464e-06
1.72427e-07
-3.61343e-07
4.93214e-06
2.86549e-07
-3.10749e-07
4.74864e-06
3.32705e-07
-3.19732e-07
4.5766e-06
4.04597e-07
-3.10058e-07
4.3413e-06
5.32685e-07
-3.28721e-07
4.12224e-06
5.22006e-07
-3.27691e-07
3.9304e-06
5.0834e-07
-3.06895e-07
3.69999e-06
5.56767e-07
-3.12865e-07
3.44637e-06
5.45224e-07
-2.90025e-07
3.23586e-06
4.16078e-07
-2.581e-07
3.04454e-06
2.82341e-07
-1.98106e-07
2.88774e-06
1.27971e-07
-1.57445e-07
2.72695e-06
3.02036e-08
-1.18592e-07
2.60541e-06
-1.38408e-07
-7.96963e-08
2.51716e-06
-1.87223e-07
-7.18459e-08
2.40157e-06
-6.49679e-08
-1.00051e-07
2.19992e-06
2.53394e-07
-1.60028e-07
1.93234e-06
6.02703e-07
-2.26597e-07
1.57921e-06
9.87519e-07
-3.01495e-07
1.11571e-06
1.42702e-06
-3.65713e-07
5.89908e-07
1.75371e-06
-4.09856e-07
1.93138e-06
-4.11993e-07
-2.31447e-06
-6.93844e-07
-8.91509e-07
-1.02873e-06
-1.78873e-06
-9.36892e-07
-1.04828e-06
-5.22771e-07
-3.30967e-07
-5.97655e-07
-1.25358e-06
-3.68716e-07
-6.49392e-07
-5.26608e-07
-2.38095e-07
-4.62829e-07
-8.57137e-07
-2.46821e-07
-4.71041e-07
-5.3551e-07
-2.22693e-07
-3.99719e-07
-6.00881e-07
-2.22636e-07
-3.78788e-07
-4.94863e-07
-2.20318e-07
-3.52142e-07
-4.63681e-07
-2.2062e-07
-3.32638e-07
-4.21415e-07
-2.21635e-07
-3.17194e-07
-3.8701e-07
-2.23141e-07
-3.04947e-07
-3.57314e-07
-2.24896e-07
-2.95246e-07
-3.31626e-07
-2.26772e-07
-2.87601e-07
-3.09344e-07
-2.28707e-07
-2.81616e-07
-2.89957e-07
-2.30666e-07
-2.76981e-07
-2.73022e-07
-2.32633e-07
-2.73452e-07
-2.58146e-07
-2.34596e-07
-2.70834e-07
-2.45001e-07
-2.36553e-07
-2.68967e-07
-2.33305e-07
-2.38508e-07
-2.67714e-07
-2.2282e-07
-2.4049e-07
-2.66961e-07
-2.1336e-07
-2.42459e-07
-2.6662e-07
-2.04755e-07
-2.44408e-07
-2.6662e-07
-1.96862e-07
-2.46332e-07
-2.66904e-07
-1.89558e-07
-2.4823e-07
-2.67426e-07
-1.82743e-07
-2.50103e-07
-2.68152e-07
-1.76331e-07
-2.51953e-07
-2.69053e-07
-1.70253e-07
-2.53784e-07
-2.70104e-07
-1.64449e-07
-2.55603e-07
-2.71284e-07
-1.58872e-07
-2.57421e-07
-2.72581e-07
-1.53482e-07
-2.59232e-07
-2.73996e-07
-1.4825e-07
-2.61017e-07
-2.75529e-07
-1.4314e-07
-2.62776e-07
-2.77179e-07
-1.3813e-07
-2.64508e-07
-2.78967e-07
-1.33201e-07
-2.66206e-07
-2.80938e-07
-1.28348e-07
-2.67869e-07
-2.83142e-07
-1.23563e-07
-2.69502e-07
-2.85662e-07
-1.18861e-07
-2.71108e-07
-2.88599e-07
-1.14269e-07
-2.72688e-07
-2.92118e-07
-1.09778e-07
-2.74247e-07
-2.96426e-07
-1.05513e-07
-2.75951e-07
-3.01716e-07
-1.02799e-07
-2.75816e-07
-3.11506e-07
-9.74727e-08
-2.80473e-07
-3.15391e-07
-9.90242e-08
-2.76634e-07
-3.42953e-07
-9.36731e-08
-2.84093e-07
-3.39176e-07
-1.00241e-07
-2.76977e-07
-4.07827e-07
-1.00019e-07
-2.86929e-07
-3.91623e-07
-1.15134e-07
-2.73419e-07
-5.37232e-07
-1.2077e-07
-2.96667e-07
-5.26383e-07
-1.70408e-07
-2.51852e-07
-7.5892e-07
-1.48603e-07
-3.67726e-07
-8.83887e-07
-3.26308e-07
-1.76621e-07
-8.60362e-07
-2.13515e-07
-7.59748e-07
-1.30371e-06
-6.99087e-07
-2.05331e-07
6.91124e-07
-1.42332e-07
-2.60856e-06
1.85692e-06
-1.86378e-06
-1.38646e-06
6.25052e-06
8.88732e-08
-5.27005e-06
1.22773e-05
1.11837e-06
-5.0649e-06
-2.60929e-06
-6.3411e-07
1.39072e-05
1.94366e-06
-6.01077e-06
-4.62886e-06
5.22029e-06
-1.14895e-05
-5.11612e-06
8.51637e-07
1.45792e-06
3.06317e-06
1.01435e-05
-2.55706e-06
-2.77502e-06
6.50772e-06
2.33223e-06
2.98702e-07
1.61742e-06
1.43722e-06
2.04316e-08
2.13907e-06
-1.93008e-06
-2.51566e-07
2.79814e-06
-1.75683e-06
-9.70873e-07
3.37726e-06
-1.54766e-06
-6.36314e-07
4.43007e-06
-1.81165e-06
-8.94311e-07
4.54324e-06
-2.63981e-07
-6.33448e-07
4.83428e-06
-6.14306e-07
-4.32373e-07
4.52558e-06
7.01128e-07
-4.59089e-07
4.63473e-06
7.01306e-08
-3.30704e-07
4.32118e-06
9.32997e-07
-4.69583e-07
4.42317e-06
4.61599e-07
-3.9117e-07
4.18904e-06
1.01638e-06
-4.957e-07
4.16839e-06
8.38244e-07
-4.8489e-07
3.96183e-06
1.21318e-06
-6.02028e-07
3.76306e-06
1.40735e-06
-6.75904e-07
3.54586e-06
1.4388e-06
-6.99591e-07
3.40539e-06
1.35565e-06
-7.06844e-07
3.23315e-06
1.44892e-06
-7.1991e-07
3.03153e-06
1.45054e-06
-7.03703e-07
2.82792e-06
1.2616e-06
-6.4191e-07
2.61945e-06
9.05377e-07
-4.14563e-07
2.48089e-06
5.51377e-07
-2.8485e-07
2.41071e-06
2.07397e-07
-1.0702e-07
2.52523e-06
-3.28063e-07
7.51337e-08
2.82733e-06
-6.87409e-07
1.98084e-07
3.0429e-06
-5.00072e-07
2.19534e-07
2.93449e-06
2.85837e-07
7.59679e-08
2.78588e-06
7.94589e-07
-4.32782e-08
2.51164e-06
1.46276e-06
-2.00994e-07
1.85171e-06
2.44585e-06
-3.58896e-07
9.52736e-07
3.14509e-06
-4.92411e-07
3.35433e-06
-4.70217e-07
-2.409e-06
-9.14906e-08
-9.73601e-07
-8.36792e-07
-2.13787e-06
-1.22307e-06
-1.0261e-06
1.48398e-07
-4.81867e-07
-4.75936e-07
-1.18472e-06
-6.19037e-07
-6.08976e-07
4.08442e-08
-4.34418e-07
-3.78905e-07
-6.08281e-07
-4.78931e-07
-4.36938e-07
-4.14117e-08
-4.36065e-07
-3.39507e-07
-2.50326e-07
-4.47986e-07
-3.47467e-07
-4.46849e-08
-4.42214e-07
-3.19962e-07
-4.58994e-08
-4.45286e-07
-3.09603e-07
1.50252e-08
-4.46796e-07
-2.99559e-07
5.0944e-08
-4.47997e-07
-2.9151e-07
8.40596e-08
-4.49418e-07
-2.85302e-07
1.13251e-07
-4.51083e-07
-2.80623e-07
1.38902e-07
-4.52921e-07
-2.7717e-07
1.61473e-07
-4.54879e-07
-2.74682e-07
1.81412e-07
-4.56917e-07
-2.73006e-07
1.99202e-07
-4.5902e-07
-2.72003e-07
2.15171e-07
-4.61168e-07
-2.7152e-07
2.29581e-07
-4.63364e-07
-2.71453e-07
2.42683e-07
-4.65563e-07
-2.71737e-07
2.54652e-07
-4.67722e-07
-2.72307e-07
2.65677e-07
-4.69855e-07
-2.73113e-07
2.75911e-07
-4.7196e-07
-2.74112e-07
2.8548e-07
-4.74031e-07
-2.75273e-07
2.94491e-07
-4.76065e-07
-2.7657e-07
3.03033e-07
-4.7806e-07
-2.77987e-07
3.11175e-07
-4.80002e-07
-2.79522e-07
3.18977e-07
-4.81884e-07
-2.81167e-07
3.26504e-07
-4.83722e-07
-2.8291e-07
3.33799e-07
-4.8553e-07
-2.84746e-07
3.40903e-07
-4.87307e-07
-2.86682e-07
3.47853e-07
-4.89049e-07
-2.88728e-07
3.54674e-07
-4.90747e-07
-2.90916e-07
3.61388e-07
-4.92395e-07
-2.93293e-07
3.68028e-07
-4.93988e-07
-2.95927e-07
3.74609e-07
-4.95531e-07
-2.98901e-07
3.81153e-07
-4.9703e-07
-3.02328e-07
3.87676e-07
-4.98513e-07
-3.06403e-07
3.94207e-07
-4.999e-07
-3.11518e-07
4.00927e-07
-5.01321e-07
-3.1785e-07
4.0469e-07
-5.01149e-07
-3.29417e-07
4.19194e-07
-5.05099e-07
-3.34994e-07
4.08041e-07
-5.01482e-07
-3.65887e-07
4.45446e-07
-5.08227e-07
-3.65668e-07
4.00533e-07
-5.00985e-07
-4.3671e-07
4.82875e-07
-5.11854e-07
-4.33055e-07
3.77152e-07
-4.95932e-07
-5.62998e-07
5.35172e-07
-5.26001e-07
-5.97855e-07
3.36768e-07
-4.72311e-07
-7.52161e-07
6.04913e-07
-5.99213e-07
-9.73365e-07
2.86712e-07
-3.91809e-07
-8.93929e-07
7.03115e-07
-9.9607e-07
-1.46178e-06
2.21826e-07
-3.53059e-07
4.23327e-07
1.09457e-06
-3.12202e-06
1.23864e-06
-3.71658e-07
-2.30745e-06
7.56144e-06
1.35499e-06
-7.58895e-06
1.43178e-05
-3.59185e-06
-2.04617e-06
2.73291e-06
-3.46918e-06
1.44199e-05
-2.2823e-06
2.80056e-06
-3.79575e-06
-1.58509e-05
4.19972e-06
-2.11813e-06
-1.21154e-05
-4.58299e-06
2.30863e-06
-6.81089e-06
-6.81872e-06
-1.04045e-06
-6.69661e-06
2.28793e-06
-6.81041e-08
-4.45315e-06
1.18072e-06
-1.98564e-06
-5.40562e-06
-2.56042e-07
-7.20718e-07
-4.95231e-06
-5.28978e-07
-1.68059e-06
-4.78468e-06
-4.01077e-07
-1.31382e-06
-4.18396e-06
-7.07432e-07
-1.70467e-06
-3.8776e-06
4.44372e-07
-1.01455e-06
-3.43027e-06
-1.47255e-07
-9.14267e-07
-3.77177e-06
1.41461e-06
-3.71892e-07
-3.40024e-06
4.25388e-07
-7.26693e-07
-3.66978e-06
1.46784e-06
-2.65222e-07
-3.10413e-06
4.97613e-07
-6.01575e-07
-3.11369e-06
1.26863e-06
-2.42619e-07
-2.64261e-06
8.74788e-07
-5.07552e-07
-2.43105e-06
1.25829e-06
-2.56609e-07
-1.96581e-06
1.28802e-06
-3.45843e-07
-1.74033e-06
1.42068e-06
-2.07294e-07
-1.50164e-06
1.57885e-06
-4.61832e-07
-1.08036e-06
1.50338e-06
-4.757e-07
-5.44837e-07
1.21939e-06
-3.04328e-07
-1.10124e-07
9.07468e-07
-8.054e-08
3.09852e-07
5.49909e-07
-6.44563e-08
5.30607e-07
2.93864e-07
3.68169e-08
6.28649e-07
2.01481e-07
-9.2063e-08
6.62731e-07
-9.1139e-08
-2.70957e-07
7.78231e-07
-4.40986e-07
-3.61896e-07
1.05896e-06
-7.39053e-08
-7.06883e-07
1.32312e-06
9.64073e-07
-9.42394e-07
1.46104e-06
1.68501e-06
-1.02834e-06
1.46056e-06
2.62314e-06
-1.15991e-06
1.23658e-06
3.98442e-06
-1.31459e-06
7.62731e-07
5.10055e-06
-1.48161e-06
5.43e-06
-1.31294e-06
-2.36617e-06
8.44765e-07
-8.70872e-07
-6.23567e-07
-2.49567e-06
-1.38481e-06
-9.67326e-07
1.05598e-06
-5.63832e-07
-3.73311e-07
-9.67213e-07
-8.11525e-07
-5.52886e-07
8.06388e-07
-5.85976e-07
-3.03717e-07
-1.88357e-07
-6.69094e-07
-3.9226e-07
6.59802e-07
-6.1267e-07
-2.82925e-07
2.80251e-07
-6.39909e-07
-3.18795e-07
6.20336e-07
-6.29149e-07
-2.82507e-07
5.5878e-07
-6.40964e-07
-2.81167e-07
6.58193e-07
-6.44505e-07
-2.76783e-07
6.9894e-07
-6.52376e-07
-2.74435e-07
7.41328e-07
-6.59613e-07
-2.73403e-07
7.79043e-07
-6.6682e-07
-2.73286e-07
8.12694e-07
-6.73904e-07
-2.73822e-07
8.42892e-07
-6.80877e-07
-2.74848e-07
8.70194e-07
-6.87752e-07
-2.76221e-07
8.95058e-07
-6.94477e-07
-2.77846e-07
9.17875e-07
-7.01074e-07
-2.79725e-07
9.38972e-07
-7.07506e-07
-2.81843e-07
9.58624e-07
-7.13817e-07
-2.84084e-07
9.77076e-07
-7.20176e-07
-2.86435e-07
9.94511e-07
-7.26477e-07
-2.88876e-07
1.01108e-06
-7.32724e-07
-2.91394e-07
1.02692e-06
-7.38913e-07
-2.93983e-07
1.04213e-06
-7.45039e-07
-2.96636e-07
1.0568e-06
-7.51102e-07
-2.99349e-07
1.07101e-06
-7.57109e-07
-3.02119e-07
1.08481e-06
-7.63057e-07
-3.04948e-07
1.09828e-06
-7.68939e-07
-3.07836e-07
1.11145e-06
-7.74753e-07
-3.10795e-07
1.12437e-06
-7.80495e-07
-3.13836e-07
1.13707e-06
-7.86163e-07
-3.16983e-07
1.14959e-06
-7.91758e-07
-3.20268e-07
1.16196e-06
-7.97277e-07
-3.23748e-07
1.17423e-06
-8.02718e-07
-3.27491e-07
1.18644e-06
-8.08076e-07
-3.31616e-07
1.19863e-06
-8.1335e-07
-3.36272e-07
1.21088e-06
-8.18538e-07
-3.41576e-07
1.22317e-06
-8.23651e-07
-3.4762e-07
1.23566e-06
-8.28682e-07
-3.56615e-07
1.24649e-06
-8.32799e-07
-3.68082e-07
1.27001e-06
-8.39344e-07
-3.78882e-07
1.25996e-06
-8.41115e-07
-4.09521e-07
1.3254e-06
-8.49307e-07
-4.17623e-07
1.25697e-06
-8.48332e-07
-4.92434e-07
1.41762e-06
-8.59919e-07
-4.98642e-07
1.23346e-06
-8.50098e-07
-6.54573e-07
1.57338e-06
-8.82271e-07
-6.89381e-07
1.20023e-06
-8.28649e-07
-9.43227e-07
1.83705e-06
-9.78279e-07
-1.15688e-06
1.22931e-06
-7.28943e-07
-1.22377e-06
2.22407e-06
-1.45406e-06
-2.00654e-06
1.64156e-06
-6.36962e-07
1.49957e-07
2.65725e-06
-3.71918e-06
-1.14511e-06
2.32761e-06
-1.40421e-06
8.01135e-07
4.95042e-06
-5.54167e-06
1.12368e-06
-1.28424e-06
-2.63018e-06
-2.17762e-06
-5.72479e-06
5.55695e-06
-5.10972e-06
1.31691e-05
-7.43549e-06
-1.9033e-05
2.35869e-05
-5.45735e-06
-2.80159e-05
1.49138e-06
2.91803e-06
-2.65884e-05
-5.93566e-06
-2.30276e-06
-2.35027e-05
2.05244e-06
-2.84411e-06
-2.01375e-05
7.87182e-07
-2.9671e-06
-2.29705e-05
5.2278e-06
-2.64729e-06
-2.41906e-05
4.55257e-06
-3.85863e-06
-2.57374e-05
4.97674e-06
-3.82903e-06
-2.77565e-05
4.17097e-06
-2.85772e-06
-2.87997e-05
2.84998e-06
-1.36099e-06
-3.08102e-05
2.61808e-06
-7.53445e-07
-3.07768e-05
1.66962e-06
-2.86884e-07
-3.21896e-05
1.96099e-06
-1.21145e-07
-3.19535e-05
1.42321e-06
-1.8974e-07
-3.28801e-05
1.79078e-06
-3.64401e-07
-3.25773e-05
1.28775e-06
-3.19274e-07
-3.27233e-05
1.35794e-06
-3.34078e-07
-3.20478e-05
9.94193e-07
-4.08175e-07
-3.11888e-05
9.54334e-07
-5.22041e-07
-3.01583e-05
8.97027e-07
-5.03569e-07
-2.89341e-05
7.17559e-07
-3.59639e-07
-2.8264e-05
6.57719e-07
1.78911e-07
-2.83166e-05
7.75872e-07
4.99717e-07
-2.93916e-05
1.23492e-06
7.51183e-07
-3.14658e-05
1.82682e-06
8.01059e-07
-3.42276e-05
2.27488e-06
7.84978e-07
-3.73572e-05
2.75182e-06
5.84613e-07
-4.09228e-05
3.50548e-06
-2.46758e-08
-4.3715e-05
3.80704e-06
-1.44974e-06
-4.41267e-05
3.52662e-06
-3.18355e-06
-4.17538e-05
2.45097e-06
-3.85505e-06
-3.7302e-05
1.53997e-06
-4.30253e-06
-3.05468e-05
6.28638e-07
-4.75712e-06
-2.12783e-05
-9.33688e-07
-4.34775e-06
-1.08732e-05
-2.05534e-06
-3.2474e-06
-2.30923e-06
-3.13328e-06
-1.60701e-06
1.92092e-06
4.5777e-08
-3.38672e-07
-2.6079e-06
-1.15611e-06
-7.69899e-07
1.65929e-06
-1.72087e-07
-2.75207e-07
-9.1057e-07
-5.51342e-07
-4.45679e-07
1.25739e-06
-2.80534e-07
-2.3771e-07
1.75613e-09
-3.98084e-07
-3.28438e-07
1.06643e-06
-3.15895e-07
-2.29556e-07
5.37432e-07
-3.56062e-07
-2.79698e-07