/*--------------------------------*- C++ -*----------------------------------*\
| =========                 |                                                 |
| \\      /  F ield         | OpenFOAM: The Open Source CFD Toolbox           |
|  \\    /   O peration     | Version:  2.3.0                                 |
|   \\  /    A nd           | Web:      www.OpenFOAM.org                      |
|    \\/     M anipulation  |                                                 |
\*---------------------------------------------------------------------------*/
FoamFile
{
    version     2.0;
    format      ascii;
    class       surfaceScalarField;
    location    "1";
    object      phi.air;
}
// * * * * * * * * * * * * * * * * * * * * * * * * * * * * * * * * * * * * * //

dimensions      [0 3 -1 0 0 0 0];

internalField   nonuniform List<scalar> 
16448
(
-1.51767e-06
-4.66621e-07
5.98213e-08
-1.20435e-06
-4.76789e-07
1.63468e-07
-9.87925e-07
-4.99545e-07
2.83119e-07
-8.28259e-07
-4.90656e-07
3.3099e-07
-7.09164e-07
-4.77455e-07
3.58358e-07
-6.16402e-07
-4.64497e-07
3.71733e-07
-5.42983e-07
-4.51611e-07
3.78191e-07
-4.83526e-07
-4.40599e-07
3.81141e-07
-4.3486e-07
-4.31014e-07
3.82347e-07
-3.94732e-07
-4.22829e-07
3.82701e-07
-3.61509e-07
-4.15858e-07
3.82636e-07
-3.33976e-07
-4.09897e-07
3.82365e-07
-3.11146e-07
-4.04838e-07
3.8201e-07
-2.92223e-07
-4.00553e-07
3.8163e-07
-2.76556e-07
-3.96922e-07
3.81256e-07
-2.63608e-07
-3.93848e-07
3.80901e-07
-2.52925e-07
-3.91248e-07
3.80567e-07
-2.44126e-07
-3.8905e-07
3.80253e-07
-2.36888e-07
-3.87192e-07
3.79957e-07
-2.30945e-07
-3.85619e-07
3.79678e-07
-2.26074e-07
-3.8428e-07
3.79412e-07
-2.22093e-07
-3.83138e-07
3.79159e-07
-2.18846e-07
-3.82159e-07
3.78915e-07
-2.1621e-07
-3.81315e-07
3.78681e-07
-2.14077e-07
-3.80585e-07
3.78456e-07
-2.12361e-07
-3.79954e-07
3.7824e-07
-2.10991e-07
-3.79397e-07
3.78031e-07
-2.09913e-07
-3.78897e-07
3.77822e-07
-2.09077e-07
-3.78441e-07
3.77608e-07
-2.08441e-07
-3.78011e-07
3.77378e-07
-2.07967e-07
-3.7762e-07
3.77149e-07
-2.07625e-07
-3.77263e-07
3.76924e-07
-2.074e-07
-3.76921e-07
3.76699e-07
-2.07274e-07
-3.76639e-07
3.76516e-07
-2.07221e-07
-3.76404e-07
3.76354e-07
-2.07203e-07
-3.76182e-07
3.76167e-07
-2.0717e-07
-3.76003e-07
3.75971e-07
-2.07039e-07
-3.75919e-07
3.75791e-07
-2.06719e-07
-3.7591e-07
3.75591e-07
-2.06001e-07
-3.76067e-07
3.75351e-07
-2.03435e-07
-3.7729e-07
3.74724e-07
-2.05954e-07
-3.73761e-07
3.76282e-07
-1.93904e-07
-3.85347e-07
3.73297e-07
-2.0123e-07
-3.69285e-07
3.76612e-07
-1.72888e-07
-4.02254e-07
3.7391e-07
-1.86319e-07
-3.62515e-07
3.75947e-07
-1.25811e-07
-4.37236e-07
3.76726e-07
-1.41588e-07
-3.59536e-07
3.75312e-07
-3.18712e-08
-4.92238e-07
3.82518e-07
6.8272e-09
-4.14784e-07
3.76084e-07
1.8581e-07
-5.6036e-07
3.81372e-07
4.43438e-07
-6.54068e-07
3.96438e-07
7.99591e-07
-6.82902e-07
3.26741e-07
1.61575e-06
-1.20603e-06
3.89863e-07
2.60953e-06
-1.12426e-06
1.3048e-07
4.79102e-06
-2.47138e-06
2.89867e-07
9.91698e-06
-3.80124e-06
-1.32474e-06
1.75973e-05
-5.88362e-06
-1.79674e-06
9.16699e-06
4.0881e-06
2.53354e-06
-3.76392e-05
6.99462e-06
6.62064e-06
-8.23675e-05
3.15502e-06
4.02189e-06
-4.26742e-05
-7.53794e-06
-2.72224e-06
-8.35367e-06
-1.81803e-06
-1.11698e-06
-2.44296e-06
-5.21303e-06
-7.11209e-07
-7.31035e-07
-3.41799e-06
1.74732e-06
-1.47651e-08
-8.46184e-07
1.07669e-07
2.16983e-06
-1.91136e-06
-2.13268e-07
1.89493e-06
-5.82697e-07
7.78635e-07
2.2971e-06
-9.22451e-07
5.9035e-07
2.19521e-06
-6.80163e-07
7.11494e-07
2.2857e-06
-7.28484e-07
6.99225e-07
2.19163e-06
-6.43574e-07
6.80082e-07
2.2207e-06
-6.6089e-07
6.88054e-07
2.08432e-06
-5.799e-07
6.66197e-07
2.04718e-06
-5.94739e-07
6.73406e-07
1.89226e-06
-5.41466e-07
6.6118e-07
1.79812e-06
-5.46018e-07
6.65297e-07
1.63917e-06
-5.19089e-07
6.59202e-07
1.50481e-06
-5.14631e-07
6.59355e-07
1.35248e-06
-5.11656e-07
6.58381e-07
1.19498e-06
-5.02283e-07
6.57517e-07
1.03791e-06
-5.00192e-07
6.57044e-07
8.7959e-07
-5.0056e-07
6.57516e-07
7.22731e-07
-5.0359e-07
6.58859e-07
5.67397e-07
-5.07305e-07
6.60875e-07
4.1386e-07
-5.11381e-07
6.63098e-07
2.60506e-07
-5.13024e-07
6.64748e-07
1.04579e-07
-5.1105e-07
6.65535e-07
-5.86043e-08
-5.02808e-07
6.64459e-07
-2.3606e-07
-4.86604e-07
6.61069e-07
-4.33577e-07
-4.62112e-07
6.5536e-07
-6.22098e-07
-4.31217e-07
6.47894e-07
-7.64498e-07
-3.98144e-07
6.39723e-07
-9.63457e-07
-3.65047e-07
6.32094e-07
-1.25331e-06
-3.38903e-07
6.26908e-07
-3.21684e-07
6.23233e-07
-1.7251e-06
-7.55794e-07
-2.47027e-07
-1.3034e-06
-7.87551e-07
-1.10939e-07
-1.05769e-06
-7.98306e-07
5.30493e-08
-8.78257e-07
-7.81304e-07
1.11213e-07
-7.52594e-07
-7.48509e-07
1.45386e-07
-6.55583e-07
-7.23777e-07
1.62265e-07
-5.79798e-07
-6.97666e-07
1.70266e-07
-5.18445e-07
-6.7601e-07
1.74055e-07
-4.68329e-07
-6.56909e-07
1.75779e-07
-4.27053e-07
-6.40576e-07
1.76471e-07
-3.92938e-07
-6.26612e-07
1.7664e-07
-3.64683e-07
-6.14731e-07
1.76579e-07
-3.41289e-07
-6.04646e-07
1.76414e-07
-3.21945e-07
-5.96097e-07
1.76201e-07
-3.05979e-07
-5.88857e-07
1.75969e-07
-2.92831e-07
-5.82729e-07
1.75735e-07
-2.82031e-07
-5.77548e-07
1.75502e-07
-2.73178e-07
-5.73172e-07
1.75273e-07
-2.65941e-07
-5.69473e-07
1.75048e-07
-2.60047e-07
-5.66339e-07
1.7483e-07
-2.55264e-07
-5.63674e-07
1.74615e-07
-2.51403e-07
-5.614e-07
1.74406e-07
-2.48309e-07
-5.59449e-07
1.742e-07
-2.45847e-07
-5.5777e-07
1.73998e-07
-2.43911e-07
-5.56306e-07
1.7379e-07
-2.42414e-07
-5.55018e-07
1.73572e-07
-2.41279e-07
-5.53877e-07
1.7335e-07
-2.40446e-07
-5.52857e-07
1.73131e-07
-2.39865e-07
-5.51931e-07
1.72914e-07
-2.39488e-07
-5.51088e-07
1.72705e-07
-2.3929e-07
-5.50316e-07
1.72502e-07
-2.39247e-07
-5.49608e-07
1.72307e-07
-2.39329e-07
-5.48954e-07
1.72119e-07
-2.39533e-07
-5.48357e-07
1.71925e-07
-2.39842e-07
-5.47815e-07
1.71724e-07
-2.4021e-07
-5.47332e-07
1.71522e-07
-2.40596e-07
-5.46931e-07
1.71317e-07
-2.40957e-07
-5.46662e-07
1.71106e-07
-2.41191e-07
-5.46604e-07
1.70931e-07
-2.41164e-07
-5.46832e-07
1.70738e-07
-2.40573e-07
-5.48002e-07
1.70122e-07
-2.4095e-07
-5.45478e-07
1.72094e-07
-2.35033e-07
-5.5907e-07
1.67806e-07
-2.38027e-07
-5.39589e-07
1.73297e-07
-2.19059e-07
-5.88815e-07
1.67591e-07
-2.27833e-07
-5.26901e-07
1.73157e-07
-1.80671e-07
-6.54566e-07
1.70165e-07
-1.97829e-07
-5.14713e-07
1.72329e-07
-9.55444e-08
-7.68598e-07
1.7407e-07
-1.18451e-07
-5.71299e-07
1.79414e-07
7.82469e-08
-9.16728e-07
1.59664e-07
6.59231e-08
-8.96754e-07
2.55e-07
4.21227e-07
-1.09387e-06
5.56555e-08
4.21105e-07
-1.71002e-06
5.04092e-07
1.0381e-06
-1.3692e-06
-3.72068e-07
7.90828e-07
-3.1205e-06
8.96366e-07
-1.33758e-06
-1.03924e-06
-6.33617e-07
-5.70695e-06
-4.41782e-06
2.90353e-06
2.72435e-07
1.67131e-06
-4.19811e-06
-3.28138e-05
4.95515e-06
1.80573e-06
-7.91512e-05
1.1252e-06
1.71888e-06
-4.04757e-05
-6.4729e-06
-3.98426e-07
6.33936e-06
-7.04961e-06
-4.98453e-06
3.59585e-06
-3.42807e-06
7.96985e-07
1.59149e-06
-1.97921e-06
6.24458e-07
1.66066e-06
-1.48256e-06
5.61868e-07
1.82474e-06
-2.15986e-06
1.13823e-07
1.96444e-06
-1.13916e-06
3.65156e-07
2.27803e-06
-1.43053e-06
2.63892e-07
2.3008e-06
-1.03553e-06
2.67017e-07
2.46109e-06
-1.09834e-06
2.79055e-07
2.38026e-06
-8.59733e-07
2.34729e-07
2.42179e-06
-8.96785e-07
2.56215e-07
2.27957e-06
-7.27059e-07
2.34697e-07
2.23923e-06
-7.62877e-07
2.52835e-07
2.07421e-06
-6.56624e-07
2.41446e-07
1.96915e-06
-6.6782e-07
2.53012e-07
1.79738e-06
-6.15752e-07
2.4744e-07
1.64904e-06
-6.06748e-07
2.50584e-07
1.48415e-06
-6.02906e-07
2.49192e-07
1.31195e-06
-5.82471e-07
2.48807e-07
1.13942e-06
-5.7895e-07
2.49596e-07
9.65444e-07
-5.81083e-07
2.51565e-07
7.95131e-07
-5.91445e-07
2.54861e-07
6.26794e-07
-6.02791e-07
2.60297e-07
4.61902e-07
-6.16373e-07
2.66195e-07
2.98092e-07
-6.23985e-07
2.71242e-07
1.33758e-07
-6.25294e-07
2.74801e-07
-3.80931e-08
-6.10594e-07
2.75895e-07
-2.22516e-07
-5.7733e-07
2.73443e-07
-4.10634e-07
-5.23771e-07
2.67677e-07
-5.71476e-07
-4.56907e-07
2.59903e-07
-7.51091e-07
-3.83369e-07
2.50388e-07
-1.023e-06
-3.04364e-07
2.41177e-07
-1.35677e-06
-2.39483e-07
2.3489e-07
-1.99764e-07
2.35501e-07
-1.85097e-06
-9.19465e-07
-4.92494e-07
-1.30762e-06
-1.00212e-06
-3.28775e-07
-1.04898e-06
-9.55991e-07
-1.00957e-07
-8.52565e-07
-9.49463e-07
-2.82602e-08
-7.32479e-07
-8.82108e-07
1.35093e-08
-6.35162e-07
-8.51734e-07
3.06345e-08
-5.63076e-07
-8.08882e-07
3.91271e-08
-5.04416e-07
-7.77722e-07
4.30492e-08
-4.57106e-07
-7.49002e-07
4.47833e-08
-4.18322e-07
-7.24811e-07
4.54509e-08
-3.86415e-07
-7.04096e-07
4.55772e-08
-3.601e-07
-6.86472e-07
4.54282e-08
-3.38396e-07
-6.71488e-07
4.51385e-08
-3.20515e-07
-6.58756e-07
4.47788e-08
-3.05818e-07
-6.4794e-07
4.43881e-08
-2.9377e-07
-6.38759e-07
4.39857e-08
-2.83926e-07
-6.30969e-07
4.35798e-08
-2.75912e-07
-6.24358e-07
4.3174e-08
-2.69414e-07
-6.1874e-07
4.27721e-08
-2.64174e-07
-6.1395e-07
4.23757e-08
-2.59983e-07
-6.09848e-07
4.19862e-08
-2.56661e-07
-6.06319e-07
4.1602e-08
-2.54061e-07
-6.03266e-07
4.12211e-08
-2.52059e-07
-6.00609e-07
4.08434e-08
-2.50551e-07
-5.98279e-07
4.04696e-08
-2.49449e-07
-5.96216e-07
4.01009e-08
-2.48685e-07
-5.94372e-07
3.97363e-08
-2.48204e-07
-5.92707e-07
3.93743e-08
-2.47961e-07
-5.91187e-07
3.90179e-08
-2.47925e-07
-5.89784e-07
3.86646e-08
-2.48069e-07
-5.8848e-07
3.83126e-08
-2.48369e-07
-5.87263e-07
3.79599e-08
-2.48803e-07
-5.86123e-07
3.76072e-08
-2.49352e-07
-5.85056e-07
3.72536e-08
-2.50009e-07
-5.84056e-07
3.69017e-08
-2.50758e-07
-5.83133e-07
3.65536e-08
-2.51579e-07
-5.82316e-07
3.62085e-08
-2.52441e-07
-5.81662e-07
3.58649e-08
-2.53303e-07
-5.81269e-07
3.55287e-08
-2.54094e-07
-5.81217e-07
3.5179e-08
-2.54565e-07
-5.82137e-07
3.4607e-08
-2.55834e-07
-5.79934e-07
3.57266e-08
-2.53695e-07
-5.94218e-07
3.30083e-08
-2.55996e-07
-5.73427e-07
3.61395e-08
-2.47883e-07
-6.30018e-07
3.30883e-08
-2.52158e-07
-5.58308e-07
3.56801e-08
-2.28556e-07
-7.13874e-07
3.57015e-08
-2.39793e-07
-5.38545e-07
3.50657e-08
-1.68131e-07
-8.81147e-07
4.08813e-08
-2.16284e-07
-5.63522e-07
4.03715e-08
-1.08052e-08
-1.16077e-06
3.85526e-08
-1.2567e-07
-8.62441e-07
8.05456e-08
3.64317e-07
-1.49396e-06
-8.99102e-08
4.95957e-07
-2.04916e-06
2.07494e-07
1.8268e-06
-1.73067e-06
-9.69387e-07
2.9974e-06
-4.24418e-06
-4.69452e-08
5.41677e-06
-8.91542e-07
-2.56709e-06
2.10743e-06
-1.58331e-06
4.75974e-07
-7.56481e-06
4.33388e-06
6.45187e-06
-3.26096e-05
1.36678e-07
-3.39844e-06
-7.35926e-05
-4.03574e-06
-1.1518e-06
-3.41004e-05
-5.24964e-06
4.02953e-06
4.30591e-06
-5.7396e-06
2.17479e-06
2.74178e-06
-1.73458e-06
1.88862e-07
1.12115e-06
-8.01697e-07
4.42873e-07
1.49167e-06
-2.06779e-06
2.61594e-07
1.89383e-06
-2.28107e-06
-2.23236e-07
2.12833e-06
-1.52487e-06
8.52537e-08
2.47213e-06
-1.73295e-06
3.10836e-08
2.5501e-06
-1.15771e-06
-3.14065e-08
2.71291e-06
-1.17839e-06
-1.02935e-08
2.63086e-06
-7.9747e-07
-4.66227e-08
2.66374e-06
-8.47252e-07
-1.44184e-08
2.50505e-06
-5.93804e-07
-3.28473e-08
2.44883e-06
-6.42489e-07
-1.44865e-08
2.27077e-06
-4.9335e-07
-2.44855e-08
2.14776e-06
-5.02212e-07
-1.26256e-08
1.96145e-06
-4.31377e-07
-1.72468e-08
1.79376e-06
-4.11893e-07
-1.39061e-08
1.61145e-06
-4.0997e-07
-1.44741e-08
1.42249e-06
-3.84199e-07
-1.02812e-08
1.23258e-06
-3.81538e-07
-5.46876e-09
1.03949e-06
-3.89476e-07
3.14039e-09
8.52716e-07
-4.17756e-07
1.41139e-08
6.68797e-07
-4.47244e-07
2.95168e-08
4.94629e-07
-4.85274e-07
4.46117e-08
3.26358e-07
-5.10923e-07
5.81881e-08
1.64225e-07
-5.27624e-07
6.82647e-08
-7.99629e-10
-5.11883e-07
7.06431e-08
-1.80096e-07
-4.55376e-07
6.36318e-08
-3.71203e-07
-3.55963e-07
5.0534e-08
-5.47557e-07
-2.30983e-07
3.33512e-08
-7.62391e-07
-9.4316e-08
1.47121e-08
-1.07634e-06
3.61452e-08
1.74272e-09
-1.45944e-06
1.48394e-07
-8.41637e-09
2.12443e-07
-5.96302e-09
-1.98406e-06
-9.93105e-07
-6.85482e-07
-1.27678e-06
-1.19942e-06
-5.09995e-07
-1.03759e-06
-9.99938e-07
-1.95245e-07
-8.00763e-07
-1.06382e-06
-1.22468e-07
-7.01347e-07
-9.1505e-07
-6.64809e-08
-5.98102e-07
-9.08591e-07
-4.6393e-08
-5.35136e-07
-8.36357e-07
-3.54954e-08
-4.80004e-07
-8.02004e-07
-3.08519e-08
-4.37332e-07
-7.62632e-07
-2.90431e-08
-4.02327e-07
-7.31153e-07
-2.86617e-08
-3.73678e-07
-7.03788e-07
-2.89568e-08
-3.50172e-07
-6.8046e-07
-2.95169e-08
-3.30904e-07
-6.60557e-07
-3.01977e-08
-3.15134e-07
-6.43569e-07
-3.09545e-08
-3.02262e-07
-6.29062e-07
-3.1749e-08
-2.91791e-07
-6.16668e-07
-3.25593e-08
-2.83306e-07
-6.06074e-07
-3.33762e-08
-2.7647e-07
-5.96998e-07
-3.41922e-08
-2.70998e-07
-5.89204e-07
-3.50037e-08
-2.66655e-07
-5.82482e-07
-3.58052e-08
-2.63257e-07
-5.76649e-07
-3.65919e-08
-2.60641e-07
-5.7156e-07
-3.73706e-08
-2.58669e-07
-5.67089e-07
-3.81437e-08
-2.5723e-07
-5.63131e-07
-3.89119e-08
-2.56232e-07
-5.59596e-07
-3.96761e-08
-2.55598e-07
-5.56408e-07
-4.0436e-08
-2.55271e-07
-5.53501e-07
-4.11919e-08
-2.55201e-07
-5.50828e-07
-4.19438e-08
-2.55346e-07
-5.48343e-07
-4.26922e-08
-2.5568e-07
-5.46011e-07
-4.34335e-08
-2.56182e-07
-5.43807e-07
-4.4165e-08
-2.56838e-07
-5.41712e-07
-4.48902e-08
-2.57633e-07
-5.39712e-07
-4.56093e-08
-2.5855e-07
-5.37806e-07
-4.63275e-08
-2.59587e-07
-5.35978e-07
-4.70359e-08
-2.60749e-07
-5.3423e-07
-4.77354e-08
-2.62038e-07
-5.32593e-07
-4.84278e-08
-2.63461e-07
-5.31122e-07
-4.91142e-08
-2.6504e-07
-5.29889e-07
-4.97953e-08
-2.66782e-07
-5.28981e-07
-5.0491e-08
-2.68611e-07
-5.28932e-07
-5.13725e-08
-2.71061e-07
-5.27034e-07
-5.04486e-08
-2.73614e-07
-5.37782e-07
-5.38803e-08
-2.75382e-07
-5.2138e-07
-5.02801e-08
-2.82119e-07
-5.68516e-07
-5.47635e-08
-2.79768e-07
-5.10055e-07
-5.06068e-08
-2.98539e-07
-6.40647e-07
-5.44553e-08
-2.83926e-07
-5.04487e-07
-4.86771e-08
-3.39917e-07
-7.63201e-07
-6.19559e-08
-3.02282e-07
-5.72008e-07
-2.9157e-08
-4.44486e-07
-9.02522e-07
-1.16046e-07
-4.53464e-07
-8.91126e-07
3.76532e-08
-6.05506e-07
-9.18975e-07
-4.22949e-07
-1.09945e-06
-1.5903e-06
3.50724e-08
5.66785e-08
-7.05826e-07
-2.18099e-06
-1.22065e-06
-1.9347e-06
-1.03217e-06
4.8467e-06
-1.40499e-06
-5.55395e-06
6.17943e-06
-2.10539e-06
-8.0913e-07
-6.17591e-06
-8.95424e-07
1.66773e-05
-3.82943e-05
-8.07374e-07
-6.62782e-06
-9.16894e-05
-5.20697e-06
-2.76055e-06
-8.88147e-05
-2.09485e-06
3.49555e-06
-8.11053e-05
-2.40746e-06
2.17968e-06
-4.05984e-05
-2.5227e-06
1.42728e-06
2.94025e-06
-3.41003e-06
-7.66552e-07
2.15132e-06
-1.99483e-06
5.47501e-07
2.33925e-06
-2.17071e-06
-6.19167e-08
2.462e-06
-1.67402e-06
3.54088e-08
2.79078e-06
-1.91843e-06
-5.49161e-08
2.86107e-06
-1.08289e-06
-2.33848e-07
3.05345e-06
-1.14625e-06
-1.43044e-07
2.93366e-06
-5.1845e-07
-2.26924e-07
2.94204e-06
-6.11621e-07
-1.73458e-07
2.75342e-06
-2.87259e-07
-1.81375e-07
2.67568e-06
-3.50431e-07
-1.7074e-07
2.47733e-06
-1.64911e-07
-1.739e-07
2.33642e-06
-1.70111e-07
-1.66019e-07
2.13049e-06
-7.62119e-08
-1.71782e-07
1.936e-06
-3.04251e-08
-1.76426e-07
1.72743e-06
-2.44021e-08
-1.82777e-07
1.51263e-06
9.83536e-09
-1.83124e-07
1.30069e-06
1.37043e-08
-1.8473e-07
1.08693e-06
1.53452e-09
-1.78879e-07
8.87547e-07
-5.31231e-08
-1.66631e-07
6.89364e-07
-1.09131e-07
-1.41594e-07
5.03701e-07
-1.8988e-07
-1.14295e-07
3.26716e-07
-2.53768e-07
-8.5868e-08
1.89697e-07
-3.44272e-07
-5.4566e-08
5.94624e-08
-3.50778e-07
-3.80078e-08
-8.05825e-08
-2.81699e-07
-3.70447e-08
-2.50145e-07
-1.0547e-07
-5.80258e-08
-4.16909e-07
1.13193e-07
-8.80787e-08
-6.22432e-07
3.39968e-07
-1.21058e-07
-9.93346e-07
6.07062e-07
-1.53948e-07
-1.48427e-06
8.28545e-07
-1.77027e-07
9.40229e-07
-1.74459e-07
-2.12039e-06
-9.60435e-07
-8.21273e-07
-1.17152e-06
-1.43989e-06
-7.08402e-07
-1.04123e-06
-8.73282e-07
-2.56946e-07
-7.13039e-07
-1.17166e-06
-2.20362e-07
-6.74374e-07
-8.16432e-07
-1.37289e-07
-5.41814e-07
-9.17391e-07
-1.23766e-07
-5.02068e-07
-7.66412e-07
-1.09693e-07
-4.46129e-07
-7.52197e-07
-1.05748e-07
-4.10467e-07
-6.94249e-07
-1.04043e-07
-3.80016e-07
-6.57658e-07
-1.03946e-07
-3.55713e-07
-6.23547e-07
-1.04541e-07
-3.35976e-07
-5.9471e-07
-1.05486e-07
-3.19927e-07
-5.69964e-07
-1.06639e-07
-3.06908e-07
-5.48702e-07
-1.07884e-07
-2.96383e-07
-5.30408e-07
-1.09175e-07
-2.87919e-07
-5.14642e-07
-1.10487e-07
-2.81157e-07
-5.01023e-07
-1.11808e-07
-2.758e-07
-4.89218e-07
-1.13134e-07
-2.71603e-07
-4.78939e-07
-1.14457e-07
-2.68362e-07
-4.69953e-07
-1.15766e-07
-2.65921e-07
-4.62061e-07
-1.17023e-07
-2.64143e-07
-4.55073e-07
-1.18259e-07
-2.6291e-07
-4.48828e-07
-1.19488e-07
-2.62126e-07
-4.432e-07
-1.20708e-07
-2.61715e-07
-4.38079e-07
-1.21921e-07
-2.61617e-07
-4.33376e-07
-1.23124e-07
-2.61778e-07
-4.29017e-07
-1.24316e-07
-2.62158e-07
-4.24945e-07
-1.25497e-07
-2.62724e-07
-4.2111e-07
-1.2666e-07
-2.63459e-07
-4.1748e-07
-1.27788e-07
-2.64355e-07
-4.1402e-07
-1.28885e-07
-2.65402e-07
-4.10688e-07
-1.2997e-07
-2.6659e-07
-4.07457e-07
-1.31061e-07
-2.6788e-07
-4.04295e-07
-1.32214e-07
-2.69295e-07
-4.01204e-07
-1.33355e-07
-2.70869e-07
-3.98193e-07
-1.34456e-07
-2.72639e-07
-3.95279e-07
-1.3554e-07
-2.74649e-07
-3.92495e-07
-1.3661e-07
-2.76965e-07
-3.89903e-07
-1.37667e-07
-2.79671e-07
-3.87548e-07
-1.38721e-07
-2.82878e-07
-3.8578e-07
-1.39943e-07
-2.86691e-07
-3.83906e-07
-1.39309e-07
-2.93449e-07
-3.87743e-07
-1.43281e-07
-2.95796e-07
-3.79543e-07
-1.39485e-07
-3.13734e-07
-4.05334e-07
-1.45247e-07
-3.10595e-07
-3.7344e-07
-1.3975e-07
-3.49604e-07
-4.55604e-07
-1.46038e-07
-3.44308e-07
-3.72344e-07
-1.37436e-07
-3.92925e-07
-5.6305e-07
-1.51541e-07
-4.31115e-07
-4.11405e-07
-1.22413e-07
-3.92883e-07
-7.48869e-07
-1.91894e-07
-6.00784e-07
-6.27888e-07
-5.534e-08
-1.05221e-07
-9.49737e-07
-4.64815e-07
-3.8396e-07
-1.34776e-06
3.61841e-08
1.27315e-06
-7.5604e-07
-1.60692e-06
2.13309e-06
-2.08442e-06
-7.10245e-07
6.10887e-06
-7.87551e-07
-4.59327e-06
3.43843e-06
2.0803e-06
-1.51304e-06
-9.25661e-06
-1.61329e-06
1.25336e-05
-3.79138e-05
-6.16084e-06
-5.16384e-06
-9.10406e-05
-9.9076e-06
-2.56053e-06
-9.71889e-05
2.26721e-06
4.0297e-06
-0.000102077
2.8543e-06
3.83011e-06
-0.000102357
-1.34846e-06
-1.84241e-06
-9.6248e-05
-2.52717e-06
-2.06239e-06
-9.18677e-05
-1.62843e-06
6.28425e-08
-8.24621e-05
-1.80181e-06
-1.19538e-07
-3.67053e-05
-1.31284e-06
-1.68169e-07
3.13187e-06
-1.10791e-06
-1.38513e-07
3.3038e-06
-2.54327e-07
-2.64278e-07
3.37772e-06
-1.28024e-07
-1.84801e-07
3.20073e-06
3.42386e-07
-3.65759e-07
3.14783e-06
8.16014e-08
-3.44766e-07
2.94918e-06
3.61443e-07
-3.18678e-07
2.82274e-06
3.89401e-07
-3.56495e-07
2.62706e-06
4.43107e-07
-3.05285e-07
2.47078e-06
3.29342e-07
-3.14229e-07
2.27387e-06
5.75815e-07
-3.04624e-07
2.05429e-06
7.05549e-07
-3.23173e-07
1.82916e-06
5.19189e-07
-3.22391e-07
1.62571e-06
5.07067e-07
-3.01653e-07
1.38557e-06
5.57148e-07
-3.07507e-07
1.11486e-06
5.47295e-07
-2.8422e-07
8.80582e-07
4.20001e-07
-2.51694e-07
6.80921e-07
2.86033e-07
-1.91468e-07
5.24364e-07
1.29327e-07
-1.50443e-07
3.57178e-07
2.76988e-08
-1.11365e-07
2.2469e-07
-1.36901e-07
-7.2133e-08
1.24175e-07
-1.83156e-07
-6.36146e-08
-4.11672e-09
-6.03798e-08
-9.15631e-08
-2.22136e-07
2.56706e-07
-1.5125e-07
-4.94115e-07
6.02387e-07
-2.17564e-07
-7.25376e-07
9.83147e-07
-2.92412e-07
-1.06223e-06
1.41805e-06
-3.57143e-07
-1.58288e-06
1.74198e-06
-4.0099e-07
1.91861e-06
-4.03161e-07
-2.31447e-06
-6.93844e-07
-8.91509e-07
-1.02873e-06
-1.78873e-06
-9.36892e-07
-1.04828e-06
-5.22771e-07
-3.30967e-07
-5.97656e-07
-1.25358e-06
-3.68716e-07
-6.49393e-07
-5.26608e-07
-2.38095e-07
-4.62829e-07
-8.57137e-07
-2.46821e-07
-4.71042e-07
-5.3551e-07
-2.22693e-07
-3.9972e-07
-6.00881e-07
-2.22636e-07
-3.78789e-07
-4.94863e-07
-2.20318e-07
-3.52143e-07
-4.63681e-07
-2.2062e-07
-3.32639e-07
-4.21415e-07
-2.21635e-07
-3.17195e-07
-3.8701e-07
-2.23141e-07
-3.04948e-07
-3.57314e-07
-2.24896e-07
-2.95247e-07
-3.31626e-07
-2.26772e-07
-2.87602e-07
-3.09344e-07
-2.28707e-07
-2.81617e-07
-2.89957e-07
-2.30666e-07
-2.76982e-07
-2.73022e-07
-2.32633e-07
-2.73453e-07
-2.58146e-07
-2.34596e-07
-2.70835e-07
-2.45001e-07
-2.36553e-07
-2.68968e-07
-2.33305e-07
-2.38508e-07
-2.67715e-07
-2.2282e-07
-2.4049e-07
-2.66962e-07
-2.1336e-07
-2.42459e-07
-2.66621e-07
-2.04755e-07
-2.44408e-07
-2.66621e-07
-1.96862e-07
-2.46332e-07
-2.66905e-07
-1.89558e-07
-2.4823e-07
-2.67427e-07
-1.82743e-07
-2.50103e-07
-2.68153e-07
-1.76331e-07
-2.51953e-07
-2.69054e-07
-1.70253e-07
-2.53784e-07
-2.70105e-07
-1.64449e-07
-2.55603e-07
-2.71285e-07
-1.58872e-07
-2.57421e-07
-2.72583e-07
-1.53482e-07
-2.59232e-07
-2.73997e-07
-1.4825e-07
-2.61017e-07
-2.7553e-07
-1.4314e-07
-2.62776e-07
-2.7718e-07
-1.3813e-07
-2.64508e-07
-2.78968e-07
-1.33201e-07
-2.66206e-07
-2.80939e-07
-1.28348e-07
-2.67869e-07
-2.83143e-07
-1.23563e-07
-2.69502e-07
-2.85663e-07
-1.18861e-07
-2.71108e-07
-2.886e-07
-1.14269e-07
-2.72688e-07
-2.92119e-07
-1.09778e-07
-2.74247e-07
-2.96427e-07
-1.05513e-07
-2.75951e-07
-3.01717e-07
-1.02799e-07
-2.75816e-07
-3.11507e-07
-9.74727e-08
-2.80473e-07
-3.15393e-07
-9.90242e-08
-2.76634e-07
-3.42954e-07
-9.36731e-08
-2.84093e-07
-3.39177e-07
-1.00241e-07
-2.76977e-07
-4.07828e-07
-1.00019e-07
-2.86929e-07
-3.91624e-07
-1.15134e-07
-2.73419e-07
-5.37233e-07
-1.2077e-07
-2.96667e-07
-5.26384e-07
-1.70408e-07
-2.51852e-07
-7.58921e-07
-1.48603e-07
-3.67726e-07
-8.83888e-07
-3.26308e-07
-1.7662e-07
-8.60363e-07
-2.13515e-07
-7.59748e-07
-1.30372e-06
-6.99087e-07
-2.05331e-07
6.91123e-07
-1.42332e-07
-2.60856e-06
1.85692e-06
-1.86378e-06
-1.38646e-06
6.25051e-06
8.88734e-08
-5.27005e-06
1.22778e-05
1.11837e-06
-5.06494e-06
-4.05349e-06
-6.34117e-07
1.39073e-05
-4.4629e-05
-6.20403e-06
-4.79116e-06
-0.00010576
-8.64501e-06
-2.37384e-06
-0.000105173
2.19305e-06
3.20571e-06
-0.000101171
-2.45666e-07
-6.34942e-07
-0.000106754
1.7934e-06
7.50554e-07
-0.000109012
2.93013e-07
1.64876e-07
-0.000108277
-1.66755e-06
-2.85332e-07
-0.000108399
-1.57969e-06
-4.88348e-07
-0.00010701
-1.09724e-06
-3.44294e-07
-0.00010502
-4.30812e-07
-3.42615e-07
-0.000102212
7.05772e-07
-1.689e-07
-9.02464e-05
7.55994e-07
1.68534e-07
-5.61251e-05
1.22807e-06
1.5612e-07
-5.82145e-05
6.90656e-07
-1.11008e-07
-9.45028e-05
1.06687e-06
-2.5025e-08
-9.11123e-05
9.01065e-07
-1.48439e-09
-4.00155e-05
1.16514e-06
-1.2802e-07
-3.5108e-05
1.18859e-06
-3.32733e-07
-7.54003e-05
1.39615e-06
-2.59522e-07
-3.88533e-05
1.52534e-06
-2.87643e-07
1.13585e-06
1.70526e-06
-5.06066e-07
9.23059e-07
1.62557e-06
-4.78578e-07
8.19988e-07
1.58093e-06
-4.78744e-07
6.75185e-07
1.37443e-06
-4.29728e-07
4.87948e-07
9.87707e-07
-3.05212e-07
2.75697e-07
3.96647e-07
-1.00385e-07
1.17556e-07
-1.4354e-08
5.78722e-08
-1.86329e-08
-4.38448e-07
1.82661e-07
6.7322e-08
-7.58173e-07
8.60821e-08
3.81027e-07
-6.93157e-07
2.07336e-07
5.50353e-07
-1.08249e-07
2.28503e-07
4.33229e-07
1.00191e-06
8.45692e-08
3.91078e-07
1.77055e-06
-3.61137e-08
2.00748e-07
2.62217e-06
-1.92154e-07
-4.64314e-07
3.68753e-06
-3.48842e-07
-1.37232e-06
3.10928e-06
-4.81747e-07
3.35941e-06
-4.60782e-07
-2.409e-06
-9.14906e-08
-9.73601e-07
-8.36793e-07
-2.13787e-06
-1.22307e-06
-1.0261e-06
1.48398e-07
-4.81867e-07
-4.75937e-07
-1.18472e-06
-6.19037e-07
-6.08977e-07
4.08442e-08
-4.34418e-07
-3.78906e-07
-6.08281e-07
-4.78931e-07
-4.36939e-07
-4.14117e-08
-4.36065e-07
-3.39508e-07
-2.50326e-07
-4.47986e-07
-3.47468e-07
-4.46848e-08
-4.42214e-07
-3.19963e-07
-4.58994e-08
-4.45286e-07
-3.09604e-07
1.50252e-08
-4.46796e-07
-2.9956e-07
5.0944e-08
-4.47997e-07
-2.91511e-07
8.40596e-08
-4.49418e-07
-2.85303e-07
1.13251e-07
-4.51083e-07
-2.80624e-07
1.38902e-07
-4.52921e-07
-2.77171e-07
1.61473e-07
-4.54879e-07
-2.74683e-07
1.81412e-07
-4.56917e-07
-2.73007e-07
1.99202e-07
-4.5902e-07
-2.72004e-07
2.15171e-07
-4.61168e-07
-2.71521e-07
2.29581e-07
-4.63364e-07
-2.71454e-07
2.42683e-07
-4.65563e-07
-2.71738e-07
2.54652e-07
-4.67722e-07
-2.72308e-07
2.65677e-07
-4.69855e-07
-2.73114e-07
2.75911e-07
-4.7196e-07
-2.74113e-07
2.8548e-07
-4.74031e-07
-2.75274e-07
2.94491e-07
-4.76065e-07
-2.76571e-07
3.03033e-07
-4.7806e-07
-2.77988e-07
3.11175e-07
-4.80002e-07
-2.79523e-07
3.18977e-07
-4.81884e-07
-2.81168e-07
3.26504e-07
-4.83722e-07
-2.82911e-07
3.33799e-07
-4.8553e-07
-2.84747e-07
3.40903e-07
-4.87307e-07
-2.86683e-07
3.47853e-07
-4.89049e-07
-2.88729e-07
3.54674e-07
-4.90747e-07
-2.90917e-07
3.61388e-07
-4.92395e-07
-2.93294e-07
3.68028e-07
-4.93988e-07
-2.95928e-07
3.74609e-07
-4.95531e-07
-2.98902e-07
3.81153e-07
-4.9703e-07
-3.02329e-07
3.87676e-07
-4.98513e-07
-3.06404e-07
3.94207e-07
-4.999e-07
-3.1152e-07
4.00927e-07
-5.01321e-07
-3.17851e-07
4.0469e-07
-5.01149e-07
-3.29419e-07
4.19194e-07
-5.05099e-07
-3.34995e-07
4.08041e-07
-5.01482e-07
-3.65889e-07
4.45446e-07
-5.08227e-07
-3.6567e-07
4.00533e-07
-5.00985e-07
-4.36711e-07
4.82875e-07
-5.11854e-07
-4.33056e-07
3.77152e-07
-4.95932e-07
-5.63e-07
5.35172e-07
-5.26001e-07
-5.97856e-07
3.36768e-07
-4.72311e-07
-7.52162e-07
6.04913e-07
-5.99213e-07
-9.73366e-07
2.86713e-07
-3.91809e-07
-8.9393e-07
7.03115e-07
-9.9607e-07
-1.46178e-06
2.21826e-07
-3.53059e-07
4.23326e-07
1.09457e-06
-3.12202e-06
1.23864e-06
-3.71658e-07
-2.30745e-06
7.56143e-06
1.35499e-06
-7.58895e-06
1.43178e-05
-3.59185e-06
-2.04619e-06
-9.28753e-07
-3.46936e-06
1.442e-05
-5.93984e-05
2.72997e-06
-4.22392e-06
-0.000126763
1.3317e-06
-3.70376e-07
-0.000111437
-2.69711e-06
2.93253e-06
-0.000108401
-3.222e-06
3.6298e-08
-0.000119577
2.08662e-06
-3.08939e-07
-0.00011699
9.04771e-07
-1.34722e-06
-0.000112835
-7.71396e-08
-7.21858e-07
-0.000108902
-2.90987e-07
-1.18647e-06
-0.000114306
2.14955e-08
-8.77791e-07
-0.000119223
4.8492e-07
-9.68616e-07
-0.000121883
1.32018e-06
-4.14973e-07
-0.000122678
1.16315e-06
-1.32258e-07
-0.000122342
1.69186e-06
2.07774e-07
-0.000123577
1.1499e-06
-4.06088e-08
-0.000125173
1.34548e-06
2.13201e-07
-0.000123351
9.53471e-07
7.56874e-08
-0.000124216
1.31939e-06
2.0919e-07
-0.000123597
1.22872e-06
4.16315e-08
-0.000122982
1.45224e-06
2.04316e-07
-0.000125183
1.50804e-06
1.15015e-07
-0.000125661
1.57607e-06
2.4098e-07
-0.000126405
1.55827e-06
-3.8447e-09
-0.000126314
1.37857e-06
1.52986e-07
-0.000125753
1.07459e-06
2.78033e-07
-0.000126318
7.15105e-07
4.25702e-07
-0.000128344
2.09897e-07
5.41935e-07
-0.000129256
-1.10353e-07
4.94313e-07
-0.00012932
-3.46133e-07
2.84202e-07
-0.000129305
-1.22375e-07
6.69787e-08
-0.000127964
2.438e-07
-1.55897e-07
-0.000126992
1.00208e-06
-4.4238e-07
-0.000125926
2.04633e-06
-6.28888e-07
-0.000124716
2.83168e-06
-7.22957e-07
-0.000121774
3.74269e-06
-8.71433e-07
-6.09324e-05
4.82771e-06
-9.57102e-07
-2.23199e-06
4.81442e-06
-1.30728e-06
5.17466e-06
-1.20179e-06
-2.36617e-06
8.44765e-07
-8.70872e-07
-6.23568e-07
-2.49567e-06
-1.38481e-06
-9.67327e-07
1.05598e-06
-5.63832e-07
-3.73312e-07
-9.67213e-07
-8.11525e-07
-5.52887e-07
8.06388e-07
-5.85976e-07
-3.03718e-07
-1.88357e-07
-6.69094e-07
-3.92261e-07
6.59802e-07
-6.1267e-07
-2.82926e-07
2.80251e-07
-6.39909e-07
-3.18796e-07
6.20336e-07
-6.29149e-07
-2.82508e-07
5.5878e-07
-6.40964e-07
-2.81168e-07
6.58193e-07
-6.44505e-07
-2.76784e-07
6.9894e-07
-6.52376e-07
-2.74436e-07
7.41328e-07
-6.59613e-07
-2.73404e-07
7.79043e-07
-6.6682e-07
-2.73287e-07
8.12694e-07
-6.73904e-07
-2.73823e-07
8.42892e-07
-6.80877e-07
-2.74849e-07
8.70194e-07
-6.87752e-07
-2.76222e-07
8.95058e-07
-6.94477e-07
-2.77847e-07
9.17875e-07
-7.01074e-07
-2.79726e-07
9.38972e-07
-7.07506e-07
-2.81844e-07
9.58624e-07
-7.13817e-07
-2.84085e-07
9.77077e-07
-7.20176e-07
-2.86436e-07
9.94511e-07
-7.26477e-07
-2.88877e-07
1.01108e-06
-7.32724e-07
-2.91396e-07
1.02692e-06
-7.38913e-07
-2.93984e-07
1.04213e-06
-7.45039e-07
-2.96638e-07
1.0568e-06
-7.51102e-07
-2.9935e-07
1.07101e-06
-7.57109e-07
-3.0212e-07
1.08481e-06
-7.63057e-07
-3.04949e-07
1.09828e-06
-7.68939e-07
-3.07837e-07
1.11145e-06
-7.74753e-07
-3.10796e-07
1.12437e-06
-7.80495e-07
-3.13837e-07
1.13707e-06
-7.86163e-07
-3.16984e-07
1.14959e-06
-7.91758e-07
-3.2027e-07
1.16196e-06
-7.97277e-07
-3.23749e-07
1.17423e-06
-8.02718e-07
-3.27493e-07
1.18644e-06
-8.08076e-07
-3.31618e-07
1.19863e-06
-8.1335e-07
-3.36274e-07
1.21088e-06
-8.18538e-07
-3.41577e-07
1.22317e-06
-8.23651e-07
-3.47621e-07
1.23566e-06
-8.28682e-07
-3.56617e-07
1.24649e-06
-8.32799e-07
-3.68084e-07
1.27001e-06
-8.39344e-07
-3.78883e-07
1.25996e-06
-8.41115e-07
-4.09522e-07
1.3254e-06
-8.49307e-07
-4.17624e-07
1.25697e-06
-8.48332e-07
-4.92436e-07
1.41762e-06
-8.59919e-07
-4.98644e-07
1.23346e-06
-8.50098e-07
-6.54574e-07
1.57338e-06
-8.82271e-07
-6.89383e-07
1.20023e-06
-8.28649e-07
-9.43228e-07
1.83705e-06
-9.78279e-07
-1.15688e-06
1.22931e-06
-7.28943e-07
-1.22377e-06
2.22407e-06
-1.45406e-06
-2.00655e-06
1.64156e-06
-6.36962e-07
1.49955e-07
2.65725e-06
-3.71918e-06
-1.14511e-06
2.32761e-06
-1.40421e-06
8.01121e-07
4.95042e-06
-5.54169e-06
1.1242e-06
-1.28424e-06
-2.6302e-06
-5.8725e-06
-5.72493e-06
5.55847e-06
-6.70523e-05
1.35238e-05
-7.43924e-06
-0.000150888
1.82613e-05
-2.65095e-06
-0.000154949
-1.84987e-06
2.78865e-06
-0.000153732
-3.4982e-06
-1.25752e-06
-0.000154723
2.39954e-06
-2.1749e-06
-0.000153958
2.14972e-06
-2.63785e-06
-0.000157653
6.08861e-06
-2.75265e-06
-0.00015981
5.13938e-06
-3.59378e-06
-0.000162439
4.95486e-06
-3.0156e-06
-0.000165333
3.65873e-06
-1.30907e-06
-0.000167613
2.34227e-06
5.73966e-07
-0.000169582
2.20115e-06
1.24251e-06
-0.000171838
1.7434e-06
1.44743e-06
-0.000173095
2.04363e-06
9.86482e-07
-0.000173939
1.87222e-06
5.47881e-07
-0.000173486
2.06336e-06
3.73737e-07
-0.000174891
1.71946e-06
4.10414e-07
-0.00017938
1.65006e-06
3.62227e-07
-0.000179237
1.42555e-06
3.11974e-07
-0.000177113
1.41448e-06
2.2255e-07
-0.000177443
1.32913e-06
2.89325e-07
-0.000177262
1.23205e-06
5.06887e-07
-0.000177588
1.28808e-06
1.09582e-06
-0.000178748
1.53376e-06
1.53329e-06
-0.000180772
1.88353e-06
1.8869e-06
-0.000182984
2.70161e-06
1.97479e-06
-0.000182972
3.01482e-06
1.81876e-06
-0.000184977
3.29493e-06
1.14688e-06
-0.000191302
4.03858e-06
9.60519e-10
-0.000198225
3.6287e-06
-1.85705e-06
-0.000199924
3.16254e-06
-3.11429e-06
-0.000197518
2.16126e-06
-3.53866e-06
-0.000193241
1.09061e-06
-3.98624e-06
-0.000187875
-9.68859e-08
-4.07757e-06
-0.000178982
-1.34384e-06
-3.31659e-06
-0.000168905
-1.82346e-06
-2.34088e-06
-1.60975e-06
-1.50649e-06
-1.60701e-06
1.92092e-06
4.5777e-08
-3.38673e-07
-2.6079e-06
-1.15611e-06
-7.699e-07
1.65929e-06
-1.72087e-07
-2.75208e-07
-9.1057e-07
-5.51342e-07
-4.4568e-07
1.25739e-06
-2.80534e-07
-2.37711e-07
1.75614e-09
-3.98084e-07
-3.28439e-07
1.06643e-06