/*--------------------------------*- C++ -*----------------------------------*\
| =========                 |                                                 |
| \\      /  F ield         | OpenFOAM: The Open Source CFD Toolbox           |
|  \\    /   O peration     | Version:  2.3.0                                 |
|   \\  /    A nd           | Web:      www.OpenFOAM.org                      |
|    \\/     M anipulation  |                                                 |
\*---------------------------------------------------------------------------*/
FoamFile
{
    version     2.0;
    format      ascii;
    class       surfaceScalarField;
    location    "1";
    object      phi.air;
}
// * * * * * * * * * * * * * * * * * * * * * * * * * * * * * * * * * * * * * //

dimensions      [0 3 -1 0 0 0 0];

internalField   nonuniform List<scalar> 
16448
(
-1.60781e-06
-5.04657e-07
7.34126e-08
-1.2697e-06
-5.19644e-07
1.81534e-07
-1.03852e-06
-5.40979e-07
3.09804e-07
-8.66519e-07
-5.31735e-07
3.59727e-07
-7.39394e-07
-5.15958e-07
3.88831e-07
-6.40077e-07
-5.02173e-07
4.02854e-07
-5.61806e-07
-4.8786e-07
4.09587e-07
-4.98349e-07
-4.76085e-07
4.12625e-07
-4.46425e-07
-4.65754e-07
4.13829e-07
-4.03573e-07
-4.56996e-07
4.14142e-07
-3.68061e-07
-4.49525e-07
4.14012e-07
-3.38597e-07
-4.43135e-07
4.1367e-07
-3.14137e-07
-4.37709e-07
4.13247e-07
-2.93836e-07
-4.33108e-07
4.12806e-07
-2.77009e-07
-4.29206e-07
4.12377e-07
-2.63084e-07
-4.259e-07
4.11973e-07
-2.5158e-07
-4.23102e-07
4.11596e-07
-2.42091e-07
-4.20734e-07
4.11243e-07
-2.34275e-07
-4.1873e-07
4.10912e-07
-2.27849e-07
-4.1703e-07
4.10602e-07
-2.22577e-07
-4.15582e-07
4.10308e-07
-2.18261e-07
-4.14346e-07
4.10029e-07
-2.14738e-07
-4.13287e-07
4.09762e-07
-2.11873e-07
-4.12372e-07
4.09504e-07
-2.09552e-07
-4.11579e-07
4.09256e-07
-2.07679e-07
-4.10894e-07
4.09018e-07
-2.06175e-07
-4.10294e-07
4.08788e-07
-2.04986e-07
-4.09752e-07
4.08559e-07
-2.0406e-07
-4.09247e-07
4.08318e-07
-2.03357e-07
-4.08775e-07
4.08069e-07
-2.02837e-07
-4.08345e-07
4.07822e-07
-2.02469e-07
-4.07954e-07
4.07582e-07
-2.02235e-07
-4.07607e-07
4.07369e-07
-2.02125e-07
-4.07288e-07
4.07174e-07
-2.0212e-07
-4.0698e-07
4.06972e-07
-2.02195e-07
-4.06689e-07
4.06758e-07
-2.02314e-07
-4.06425e-07
4.06539e-07
-2.02386e-07
-4.06188e-07
4.06255e-07
-2.02131e-07
-4.06133e-07
4.05873e-07
-2.04504e-07
-4.0447e-07
4.06837e-07
-1.98998e-07
-4.08898e-07
4.03388e-07
-2.0512e-07
-4.02052e-07
4.08167e-07
-1.95383e-07
-4.11744e-07
4.02002e-07
-2.02371e-07
-4.01598e-07
4.08577e-07
-1.88704e-07
-4.15616e-07
4.01943e-07
-1.91393e-07
-4.05457e-07
4.08137e-07
-1.78146e-07
-4.18688e-07
4.05434e-07
-1.47497e-07
-4.31544e-07
4.00884e-07
-1.31554e-07
-4.23784e-07
4.07832e-07
-6.93083e-08
-4.65323e-07
4.03065e-07
-2.90384e-09
-4.45202e-07
3.78789e-07
9.76035e-08
-5.21905e-07
4.21384e-07
2.76038e-07
-4.64108e-07
2.85663e-07
3.77277e-07
-5.33845e-07
4.32592e-07
6.8125e-07
-4.29824e-07
1.25842e-07
-1.9911e-07
7.89941e-09
8.72449e-07
-2.05263e-06
7.92259e-07
1.06126e-06
-1.18199e-05
5.01673e-06
4.75057e-06
6.25563e-07
-6.86755e-06
-7.2238e-06
-3.64115e-05
2.09674e-06
1.03325e-06
-8.43756e-05
6.46301e-07
6.29587e-06
-4.03744e-05
-1.45058e-05
-4.69371e-06
7.35377e-06
-8.43295e-06
-4.89005e-06
6.32786e-06
4.33487e-07
5.40959e-07
1.94938e-06
1.71606e-06
2.67031e-06
1.97472e-06
-8.64126e-07
8.34317e-07
1.28791e-06
-1.39886e-07
8.56798e-07
1.68322e-06
-8.87266e-07
4.49518e-07
2.40976e-06
-1.00649e-06
3.57636e-07
2.22289e-06
-5.62322e-07
6.79179e-07
2.32438e-06
-6.61734e-07
6.3552e-07
2.09323e-06
-5.12021e-07
6.76245e-07
2.06571e-06
-5.79749e-07
6.71009e-07
1.83688e-06
-4.9129e-07
6.62884e-07
1.75912e-06
-5.4186e-07
6.66957e-07
1.54591e-06
-4.87678e-07
6.59617e-07
1.42411e-06
-5.14415e-07
6.63905e-07
1.23869e-06
-4.96712e-07
6.6155e-07
1.09407e-06
-5.06704e-07
6.63397e-07
9.37276e-07
-5.12939e-07
6.6457e-07
7.84111e-07
-5.14418e-07
6.65505e-07
6.37417e-07
-5.19612e-07
6.66155e-07
4.94327e-07
-5.2553e-07
6.67283e-07
3.55493e-07
-5.31493e-07
6.68765e-07
2.20936e-07
-5.37651e-07
6.70621e-07
9.01883e-08
-5.43718e-07
6.73002e-07
-3.71904e-08
-5.49248e-07
6.75164e-07
-1.6379e-07
-5.51569e-07
6.76692e-07
-2.93695e-07
-5.48461e-07
6.76874e-07
-4.32346e-07
-5.37733e-07
6.75036e-07
-5.80073e-07
-5.18259e-07
6.70977e-07
-7.05386e-07
-4.90679e-07
6.64772e-07
-8.21515e-07
-4.57668e-07
6.57333e-07
-1.00984e-06
-4.22634e-07
6.50003e-07
-1.26137e-06
-3.95267e-07
6.44287e-07
-3.76386e-07
6.40401e-07
-1.83533e-06
-8.16338e-07
-2.57023e-07
-1.37771e-06
-8.62432e-07
-1.14834e-07
-1.11675e-06
-8.64218e-07
6.22798e-08
-9.21927e-07
-8.49406e-07
1.22841e-07
-7.88612e-07
-8.08891e-07
1.59613e-07
-6.8403e-07
-7.84112e-07
1.77352e-07
-6.03164e-07
-7.54545e-07
1.85815e-07
-5.37336e-07
-7.31733e-07
1.89817e-07
-4.8362e-07
-7.11103e-07
1.9163e-07
-4.39298e-07
-6.93668e-07
1.92347e-07
-4.02612e-07
-6.78734e-07
1.9252e-07
-3.72183e-07
-6.66018e-07
1.92452e-07
-3.46952e-07
-6.55216e-07
1.92275e-07
-3.26059e-07
-6.4605e-07
1.92047e-07
-3.08789e-07
-6.3828e-07
1.91801e-07
-2.94544e-07
-6.31699e-07
1.91551e-07
-2.82821e-07
-6.26131e-07
1.91304e-07
-2.73194e-07
-6.21424e-07
1.9106e-07
-2.6531e-07
-6.17441e-07
1.90823e-07
-2.58876e-07
-6.14061e-07
1.90594e-07
-2.53644e-07
-6.11187e-07
1.90368e-07
-2.49409e-07
-6.08734e-07
1.90148e-07
-2.46001e-07
-6.0663e-07
1.89932e-07
-2.43276e-07
-6.0482e-07
1.89719e-07
-2.41118e-07
-6.03245e-07
1.89503e-07
-2.39436e-07
-6.01859e-07
1.89278e-07
-2.3815e-07
-6.00632e-07
1.89047e-07
-2.37197e-07
-5.99532e-07
1.88821e-07
-2.36515e-07
-5.98531e-07
1.88596e-07
-2.36054e-07
-5.97617e-07
1.88376e-07
-2.35788e-07
-5.96777e-07
1.88159e-07
-2.35691e-07
-5.96002e-07
1.87945e-07
-2.3575e-07
-5.95284e-07
1.87729e-07
-2.35948e-07
-5.94614e-07
1.87516e-07
-2.36264e-07
-5.93977e-07
1.87304e-07
-2.36678e-07
-5.93371e-07
1.87088e-07
-2.37177e-07
-5.92811e-07
1.86875e-07
-2.37737e-07
-5.92271e-07
1.86634e-07
-2.38346e-07
-5.91855e-07
1.8632e-07
-2.39168e-07
-5.91108e-07
1.8745e-07
-2.386e-07
-5.92562e-07
1.83083e-07
-2.40233e-07
-5.90236e-07
1.89805e-07
-2.37294e-07
-5.95081e-07
1.80383e-07
-2.39558e-07
-5.90467e-07
1.9112e-07
-2.31583e-07
-6.02815e-07
1.79207e-07
-2.35007e-07
-5.93235e-07
1.91187e-07
-2.13821e-07
-6.18496e-07
1.78603e-07
-2.1943e-07
-6.14045e-07
1.88092e-07
-1.793e-07
-6.40041e-07
1.76108e-07
-1.71312e-07
-6.6239e-07
1.89059e-07
-5.81974e-08
-7.03163e-07
1.44824e-07
-1.43964e-08
-7.80433e-07
2.14706e-07
2.97092e-07
-8.11109e-07
3.54897e-08
7.20904e-07
-1.15506e-06
1.9738e-07
1.59355e-06
-8.8373e-07
-4.18756e-07
3.11487e-06
-1.4361e-06
-7.7342e-08
6.90643e-06
-6.8008e-07
-2.31922e-06
1.23553e-05
2.35525e-06
-2.78697e-06
-6.58996e-06
-4.4022e-07
1.2138e-05
-3.35457e-05
-1.38162e-06
-3.7969e-06
-7.24123e-05
-6.17092e-06
-2.20008e-06
-3.25158e-05
-8.49401e-06
1.0835e-05
-2.41437e-06
-2.83095e-06
5.44683e-06
-8.87956e-07
2.14828e-07
-1.22941e-06
3.37138e-06
-1.33695e-07
-2.36752e-06
2.36977e-06
-1.02511e-06
1.08006e-06
3.84783e-06
-1.42604e-06
-8.91042e-08
3.25272e-06
-7.44249e-07
3.57024e-07
2.86172e-06
-9.57016e-07
4.13642e-07
2.61429e-06
-6.38509e-07
2.51077e-07
2.5429e-06
-7.65938e-07
2.51175e-07
2.28915e-06
-5.60989e-07
2.3252e-07
2.24631e-06
-7.01444e-07
2.32557e-07
1.99741e-06
-5.3825e-07
2.34213e-07
1.91212e-06
-6.44312e-07
2.38231e-07
1.6822e-06
-5.41952e-07
2.39302e-07
1.54697e-06
-5.95701e-07
2.45577e-07
1.34661e-06
-5.6567e-07
2.46362e-07
1.18837e-06
-5.87144e-07
2.50588e-07
1.01908e-06
-6.02473e-07
2.52173e-07
8.53151e-07
-6.05943e-07
2.5375e-07
6.93821e-07
-6.17552e-07
2.55713e-07
5.38124e-07
-6.30774e-07
2.58182e-07
3.87264e-07
-6.44879e-07
2.61232e-07
2.40935e-07
-6.59553e-07
2.65217e-07
1.00192e-07
-6.75732e-07
2.6986e-07
-3.54687e-08
-6.91135e-07
2.74659e-07
-1.68632e-07
-7.00121e-07
2.78579e-07
-3.03848e-07
-6.9734e-07
2.80724e-07
-4.48512e-07
-6.76943e-07
2.80634e-07
-6.03978e-07
-6.36161e-07
2.77586e-07
-7.37194e-07
-5.76586e-07
2.7205e-07
-8.63472e-07
-5.0417e-07
2.64552e-07
-1.07506e-06
-4.24103e-07
2.5736e-07
-1.36608e-06
-3.55614e-07
2.51228e-07
-3.10587e-07
2.49704e-07
-1.97335e-06
-9.89527e-07
-5.22683e-07
-1.37607e-06
-1.1062e-06
-3.53507e-07
-1.10871e-06
-1.02731e-06
-1.0428e-07
-8.90868e-07
-1.03745e-06
-2.97962e-08
-7.67751e-07
-9.47671e-07
1.56585e-08
-6.61005e-07
-9.24566e-07
3.37046e-08
-5.85347e-07
-8.73045e-07
4.28388e-08
-5.22093e-07
-8.42027e-07
4.70369e-08
-4.71515e-07
-8.10611e-07
4.89273e-08
-4.29823e-07
-7.85022e-07
4.966e-08
-3.95469e-07
-7.62899e-07
4.9809e-08
-3.67084e-07
-7.44067e-07
4.96616e-08
-3.43628e-07
-7.28035e-07
4.93602e-08
-3.24269e-07
-7.14393e-07
4.89815e-08
-3.08327e-07
-7.02792e-07
4.8567e-08
-2.95234e-07
-6.92933e-07
4.8138e-08
-2.84513e-07
-6.84559e-07
4.77035e-08
-2.75762e-07
-6.77446e-07
4.72682e-08
-2.68649e-07
-6.71394e-07
4.68365e-08
-2.62898e-07
-6.66227e-07
4.64116e-08
-2.58281e-07
-6.618e-07
4.59924e-08
-2.54603e-07
-6.57993e-07
4.55777e-08
-2.51706e-07
-6.54698e-07
4.51659e-08
-2.49458e-07
-6.5183e-07
4.47567e-08
-2.47743e-07
-6.49314e-07
4.43505e-08
-2.46469e-07
-6.47087e-07
4.39494e-08
-2.45562e-07
-6.45096e-07
4.35526e-08
-2.44961e-07
-6.43297e-07
4.31588e-08
-2.44618e-07
-6.41651e-07
4.27716e-08
-2.44496e-07
-6.40133e-07
4.23866e-08
-2.44562e-07
-6.38718e-07
4.20013e-08
-2.44797e-07
-6.37389e-07
4.16152e-08
-2.45184e-07
-6.36132e-07
4.12284e-08
-2.45708e-07
-6.34937e-07
4.0839e-08
-2.46352e-07
-6.33791e-07
4.04508e-08
-2.47107e-07
-6.32688e-07
4.00639e-08
-2.47965e-07
-6.31637e-07
3.9675e-08
-2.48903e-07
-6.3061e-07
3.92671e-08
-2.49872e-07
-6.29715e-07
3.88197e-08
-2.51472e-07
-6.28962e-07
3.94429e-08
-2.51154e-07
-6.29034e-07
3.61431e-08
-2.54027e-07
-6.28159e-07
4.07834e-08
-2.52061e-07
-6.31043e-07
3.39834e-08
-2.55897e-07
-6.28258e-07
4.16126e-08
-2.5068e-07
-6.4066e-07
3.26148e-08
-2.56036e-07
-6.29877e-07
4.19814e-08
-2.41034e-07
-6.64266e-07
3.07531e-08
-2.54212e-07
-6.43928e-07
4.30431e-08
-2.19187e-07
-7.00512e-07
2.54286e-08
-2.30041e-07
-7.02348e-07
5.07912e-08
-1.42801e-07
-7.78636e-07
-1.17854e-08
-1.55123e-07
-8.58612e-07
9.04786e-08
1.66973e-07
-8.93073e-07
-2.40151e-07
3.05216e-07
-1.35561e-06
6.22849e-08
1.45596e-06
-9.59314e-07
-1.07518e-06
3.26074e-06
-2.20637e-06
-1.03452e-06
7.34554e-06
-1.08787e-06
-3.67701e-06
1.49652e-05
-1.12369e-06
-4.14052e-06
-3.8656e-06
3.43308e-06
1.45204e-05
-3.69698e-05
-2.81373e-06
-3.33542e-06
-8.29543e-05
-6.69887e-06
-3.73521e-06
-4.05408e-05
-4.61615e-06
1.06222e-05
-1.35036e-06
-5.95669e-07
2.05176e-06
-1.54876e-06
-1.93758e-06
2.48168e-06
4.31159e-06
-4.43912e-06
-1.47951e-06
2.6286e-06
-1.13352e-06
1.6747e-06
4.40268e-06
-2.4373e-06
-6.63072e-07
3.59147e-06
-4.62732e-07
4.32661e-07
3.12333e-06
-8.44241e-07
4.47945e-07
2.84421e-06
-3.82167e-07
-6.59904e-08
2.76142e-06
-6.07305e-07
1.07372e-08
2.47875e-06
-3.00637e-07
-5.66003e-08
2.43087e-06
-5.33026e-07
-4.50543e-08
2.16357e-06
-2.88049e-07
-4.99533e-08
2.06553e-06
-4.4823e-07
-4.19411e-08
1.81783e-06
-3.03267e-07
-3.77697e-08
1.66312e-06
-3.81541e-07
-2.63812e-08
1.44661e-06
-3.51245e-07
-1.95532e-08
1.27221e-06
-3.86755e-07
-1.09202e-08
1.08989e-06
-4.17127e-07
-6.00882e-09
9.10553e-07
-4.28443e-07
5.45805e-10
7.38594e-07
-4.50253e-07
6.40732e-09
5.70044e-07
-4.7564e-07
1.43022e-08
4.06453e-07
-5.0406e-07
2.32107e-08
2.4635e-07
-5.33321e-07
3.40474e-08
9.44727e-08
-5.70042e-07
4.68956e-08
-4.60302e-08
-6.08841e-07
6.00962e-08
-1.77474e-07
-6.36937e-07
7.10861e-08
-3.05426e-07
-6.41973e-07
7.57348e-08
-4.41368e-07
-6.1027e-07
7.2235e-08
-5.9649e-07
-5.38482e-07
6.23767e-08
-7.46647e-07
-4.27116e-07
4.72225e-08
-8.89867e-07
-2.8304e-07
2.77567e-08
-1.13044e-06
-1.3486e-07
1.21873e-08
-1.46706e-06
-2.76171e-08
4.39145e-09
5.037e-08
2.83705e-09
-2.11456e-06
-1.06102e-06
-7.23944e-07
-1.32539e-06
-1.34199e-06
-5.53378e-07
-1.10278e-06
-1.04975e-06
-2.00168e-07
-8.27987e-07
-1.1784e-06
-1.33853e-07
-7.3886e-07
-9.67039e-07
-6.97628e-08
-6.18372e-07
-9.94615e-07
-5.04424e-08
-5.56776e-07
-8.9636e-07
-3.82826e-08
-4.9549e-07
-8.69875e-07
-3.34406e-08
-4.50436e-07
-8.24188e-07
-3.14779e-08
-4.12606e-07
-7.91816e-07
-3.10385e-08
-3.81677e-07
-7.62505e-07
-3.13252e-08
-3.56241e-07
-7.37622e-07
-3.18828e-08
-3.35342e-07
-7.16345e-07
-3.25916e-08
-3.182e-07
-6.98148e-07
-3.33895e-08
-3.04178e-07
-6.82584e-07
-3.42316e-08
-2.92746e-07
-6.69273e-07
-3.50948e-08
-2.83459e-07
-6.57883e-07
-3.59672e-08
-2.7595e-07
-6.48117e-07
-3.68412e-08
-2.69915e-07
-6.39723e-07
-3.77098e-08
-2.65111e-07
-6.32474e-07
-3.85609e-08
-2.61329e-07
-6.26182e-07
-3.94044e-08
-2.58393e-07
-6.2069e-07
-4.02434e-08
-2.56155e-07
-6.15863e-07
-4.10775e-08
-2.54492e-07
-6.1159e-07
-4.19074e-08
-2.53306e-07
-6.07772e-07
-4.27333e-08
-2.52516e-07
-6.04328e-07
-4.35539e-08
-2.5206e-07
-6.01188e-07
-4.43708e-08
-2.51881e-07
-5.98297e-07
-4.51837e-08
-2.51934e-07
-5.9561e-07
-4.59945e-08
-2.52184e-07
-5.93085e-07
-4.68033e-08
-2.52605e-07
-5.90697e-07
-4.76076e-08
-2.53186e-07
-5.88415e-07
-4.83996e-08
-2.53918e-07
-5.86224e-07
-4.91847e-08
-2.54783e-07
-5.84112e-07
-4.99671e-08
-2.55769e-07
-5.82067e-07
-5.07472e-08
-2.56877e-07
-5.80068e-07
-5.15209e-08
-2.58112e-07
-5.78117e-07
-5.2295e-08
-2.59458e-07
-5.76189e-07
-5.30842e-08
-2.60898e-07
-5.74384e-07
-5.39038e-08
-2.63309e-07
-5.72963e-07
-5.35977e-08
-2.63321e-07
-5.71423e-07
-5.76125e-08
-2.67809e-07
-5.71074e-07
-5.26084e-08
-2.66814e-07
-5.71046e-07
-6.1007e-08
-2.72817e-07
-5.70268e-07
-5.19997e-08
-2.71249e-07
-5.78529e-07
-6.37166e-08
-2.78781e-07
-5.7073e-07
-5.16274e-08
-2.7387e-07
-6.01331e-07
-6.78646e-08
-2.87579e-07
-5.81021e-07
-4.92121e-08
-2.66534e-07
-6.40667e-07
-8.09109e-08
-3.02653e-07
-6.31917e-07
-3.43278e-08
-2.36387e-07
-6.98596e-07
-1.4633e-07
-2.94347e-07
-7.96212e-07
-4.45698e-09
-3.42382e-08
-7.1371e-07
-4.39498e-07
-2.42727e-08
-1.28349e-06
-8.20926e-08
1.0966e-06
-4.73826e-07
-1.60638e-06
2.87692e-06
-1.9811e-06
-2.00561e-06
6.7476e-06
3.1443e-07
-5.27298e-06
1.22493e-05
-2.8804e-06
-3.74471e-06
-4.71209e-06
2.07775e-06
1.7856e-05
-3.70261e-05
-4.02831e-06
-4.58418e-06
-8.81355e-05
-6.51457e-06
-3.69572e-06
-4.27233e-05
-2.90749e-06
5.94802e-06
-1.95207e-06
2.44126e-06
1.22058e-06
-3.04839e-06
-3.67348e-06
1.03494e-06
3.39247e-06
-8.394e-06
-2.07039e-06
2.66266e-06
-1.26253e-06
8.0905e-07
3.41732e-06
-2.49553e-06
-5.57136e-07
3.13187e-06
-3.27494e-07
5.86391e-08
3.18747e-06
-8.55128e-07
6.69385e-08
2.93801e-06
3.81791e-08
-2.62335e-07
2.96717e-06
-3.87023e-07
-1.67518e-07
2.63983e-06
1.45805e-07
-1.9998e-07
2.62103e-06
-2.2688e-07
-2.16435e-07
2.32129e-06
1.46798e-07
-2.02025e-07
2.21599e-06
-8.16462e-08
-2.08448e-07
1.93993e-06
1.15916e-07
-1.90686e-07
1.75967e-06
1.19476e-08
-1.81757e-07
1.52357e-06
3.39103e-08
-1.73624e-07
1.33342e-06
-1.3576e-08
-1.69009e-07
1.13932e-06
-5.71839e-08
-1.6997e-07
9.48984e-07
-7.24657e-08
-1.67321e-07
7.64342e-07
-9.75735e-08
-1.66243e-07
5.83659e-07
-1.33936e-07
-1.60752e-07
4.07933e-07
-1.75298e-07
-1.53321e-07
2.32469e-07
-2.17339e-07
-1.42224e-07
6.56032e-08
-2.80994e-07
-1.25731e-07
-8.01865e-08
-3.66594e-07
-1.01831e-07
-2.0073e-07
-4.4845e-07
-7.46861e-08
-3.019e-07
-4.9753e-07
-5.07064e-08
-4.04041e-07
-4.78133e-07
-3.70846e-08
-5.26641e-07
-3.82637e-07
-3.73168e-08
-6.45851e-07
-2.16197e-07
-5.22268e-08
-7.70673e-07
4.69992e-08
-8.3267e-08
-1.03096e-06
3.27e-07
-1.15704e-07
-1.48229e-06
5.78665e-07
-1.46562e-07
7.11474e-07
-1.47173e-07
-2.27042e-06
-1.00566e-06
-8.54358e-07
-1.20569e-06
-1.63739e-06
-7.69324e-07
-1.11093e-06
-8.81672e-07
-2.62848e-07
-7.2728e-07
-1.31931e-06
-2.42742e-07
-7.16013e-07
-8.34252e-07
-1.44058e-07
-5.52381e-07
-1.0227e-06
-1.35552e-07
-5.26363e-07
-8.04106e-07
-1.18275e-07
-4.57378e-07
-8.23887e-07
-1.14974e-07
-4.22522e-07
-7.46193e-07
-1.12854e-07
-3.88682e-07
-7.12952e-07
-1.12706e-07
-3.62403e-07
-6.75513e-07
-1.13274e-07
-3.40915e-07
-6.44855e-07
-1.14257e-07
-3.23386e-07
-6.18416e-07
-1.1546e-07
-3.09132e-07
-5.95638e-07
-1.16767e-07
-2.97583e-07
-5.76005e-07
-1.1813e-07
-2.88272e-07
-5.59064e-07
-1.19524e-07
-2.80807e-07
-5.44416e-07
-1.20935e-07
-2.74863e-07
-5.31706e-07
-1.22358e-07
-2.70171e-07
-5.20635e-07
-1.23783e-07
-2.66532e-07
-5.10972e-07
-1.25144e-07
-2.63762e-07
-5.02473e-07
-1.26482e-07
-2.6171e-07
-4.94934e-07
-1.27813e-07
-2.60247e-07
-4.88192e-07
-1.29139e-07
-2.5927e-07
-4.82112e-07
-1.3046e-07
-2.58697e-07
-4.76577e-07
-1.31773e-07
-2.58463e-07
-4.7149e-07
-1.33078e-07
-2.58509e-07
-4.66773e-07
-1.34374e-07
-2.5879e-07
-4.62361e-07
-1.35661e-07
-2.59272e-07
-4.58195e-07
-1.36938e-07
-2.59926e-07
-4.54236e-07
-1.38203e-07
-2.60733e-07
-4.50453e-07
-1.39442e-07
-2.61697e-07
-4.46828e-07
-1.40631e-07
-2.62801e-07
-4.43316e-07
-1.41811e-07
-2.64023e-07
-4.39874e-07
-1.43024e-07
-2.65344e-07
-4.36473e-07
-1.4428e-07
-2.66787e-07
-4.33116e-07
-1.45518e-07
-2.68385e-07
-4.29798e-07
-1.46729e-07
-2.70151e-07
-4.26495e-07
-1.47939e-07
-2.72093e-07
-4.23277e-07
-1.49173e-07
-2.75313e-07
-4.20495e-07
-1.49262e-07
-2.75644e-07
-4.17328e-07
-1.53773e-07
-2.81879e-07
-4.15966e-07
-1.48887e-07
-2.81775e-07
-4.12898e-07
-1.58261e-07
-2.90234e-07
-4.13181e-07
-1.48643e-07
-2.92284e-07
-4.14182e-07
-1.62307e-07
-3.02239e-07
-4.12511e-07
-1.48281e-07
-3.06872e-07
-4.282e-07
-1.68509e-07
-3.221e-07
-4.20948e-07
-1.44864e-07
-3.1716e-07
-4.58304e-07
-1.87316e-07
-3.61155e-07
-4.66926e-07
-1.21019e-07
-3.1017e-07
-4.87032e-07
-2.62564e-07
-4.05877e-07
-6.13315e-07
-8.72138e-08
-1.46199e-07
-3.87478e-07
-5.85924e-07
-1.6042e-07
-1.03354e-06
-2.35755e-07
1.06608e-06
1.45524e-07
-1.84585e-06
2.76916e-06
-1.45405e-06
-2.23014e-06
6.9845e-06
1.52873e-06
-5.42963e-06
1.04425e-05
-1.82412e-06
-4.51388e-06
-4.44457e-06
-4.96608e-07
1.68982e-05
-4.20386e-05
-4.94945e-06
-4.46e-06
-0.000108825
-8.2257e-06
-4.03306e-06
-0.000107412
-2.34843e-06
5.27298e-06
-0.000104969
8.79105e-07
1.50982e-06
-9.62078e-05
-3.88858e-06
1.82238e-06
-4.02035e-05
-5.69182e-06
4.69159e-08
2.4666e-06
-1.08188e-06
-3.5743e-07
2.9193e-06
-1.27515e-06
-6.35876e-07
3.03989e-06
2.28581e-07
-1.33319e-07
3.13131e-06
2.05607e-07
-1.54327e-07
3.0562e-06
9.15011e-07
-3.62767e-07
3.05771e-06
6.96177e-07
-3.99369e-07
2.79769e-06
8.34591e-07
-3.50823e-07
2.74137e-06
6.88742e-07
-3.27109e-07
2.46247e-06
8.43054e-07
-3.61216e-07
2.31995e-06
5.42949e-07
-2.62235e-07
2.0126e-06
6.55682e-07
-3.19881e-07
1.78841e-06
7.14502e-07
-3.26393e-07
1.57165e-06
6.0625e-07
-2.82427e-07
1.36875e-06
5.73338e-07
-2.75458e-07
1.1426e-06
5.08388e-07
-2.73016e-07
9.43548e-07
3.77444e-07
-2.59837e-07
7.58289e-07
3.57343e-07
-2.50399e-07
5.64241e-07
2.94889e-07
-2.32014e-07
3.73184e-07
2.24344e-07
-2.08081e-07
1.97785e-07
1.3737e-07
-1.76453e-07
2.92495e-08
3.43584e-08
-1.44462e-07
-1.09795e-07
-1.12859e-07
-1.10157e-07
-2.09591e-07
-2.5851e-07
-8.29194e-08
-2.72705e-07
-3.53787e-07
-7.24998e-08
-3.35448e-07
-3.25783e-07
-8.20846e-08
-4.38108e-07
-1.50067e-07
-1.22038e-07
-5.85744e-07
1.63042e-07
-1.83985e-07
-7.41023e-07
5.71975e-07
-2.52015e-07
-1.07395e-06
1.0482e-06
-3.22676e-07
-1.56381e-06
1.42562e-06
-3.76974e-07
1.66006e-06
-3.92761e-07
-2.46254e-06
-6.83538e-07
-9.26513e-07
-1.05198e-06
-2.04585e-06
-1.00211e-06
-1.11288e-06
-4.76926e-07
-3.43849e-07
-6.06428e-07
-1.42239e-06
-4.03379e-07
-6.88877e-07
-5.00026e-07
-2.5178e-07
-4.68072e-07
-9.72598e-07
-2.70908e-07
-4.97723e-07
-5.34869e-07
-2.39588e-07
-4.03321e-07
-6.75695e-07
-2.42595e-07
-3.91817e-07
-5.18824e-07
-2.38874e-07
-3.58221e-07
-5.07041e-07
-2.39508e-07
-3.37638e-07
-4.55644e-07
-2.40453e-07
-3.20623e-07
-4.1987e-07
-2.42001e-07
-3.07071e-07
-3.8814e-07
-2.4383e-07
-2.96314e-07
-3.60596e-07
-2.45802e-07
-2.8781e-07
-3.36664e-07
-2.47846e-07
-2.81126e-07
-3.15824e-07
-2.49927e-07
-2.7592e-07
-2.97603e-07
-2.52022e-07
-2.71925e-07
-2.81584e-07
-2.54119e-07
-2.68933e-07
-2.67415e-07
-2.56216e-07
-2.66748e-07
-2.54795e-07
-2.58366e-07
-2.65229e-07
-2.43472e-07
-2.60524e-07
-2.64257e-07
-2.33248e-07
-2.62662e-07
-2.63733e-07
-2.23942e-07
-2.64777e-07
-2.63581e-07
-2.15399e-07
-2.66869e-07
-2.63739e-07
-2.07489e-07
-2.68935e-07
-2.64153e-07
-2.00102e-07
-2.70977e-07
-2.64785e-07
-1.9315e-07
-2.72997e-07
-2.65597e-07
-1.86556e-07
-2.74997e-07
-2.66565e-07
-1.80255e-07
-2.76978e-07
-2.67673e-07
-1.74197e-07
-2.78936e-07
-2.68909e-07
-1.68343e-07
-2.80881e-07
-2.70251e-07
-1.62656e-07
-2.82835e-07
-2.71705e-07
-1.571e-07
-2.84769e-07
-2.73265e-07
-1.51642e-07
-2.86678e-07
-2.74927e-07
-1.46265e-07
-2.88554e-07
-2.7671e-07
-1.40947e-07
-2.90393e-07
-2.78641e-07
-1.35669e-07
-2.92208e-07
-2.80763e-07
-1.30389e-07
-2.93991e-07
-2.83126e-07
-1.25144e-07
-2.9578e-07
-2.87147e-07
-1.20041e-07
-2.9644e-07
-2.87483e-07
-1.15563e-07
-3.0144e-07
-2.95752e-07
-1.10623e-07
-2.9708e-07
-2.95763e-07
-1.05704e-07
-3.07194e-07
-3.07385e-07
-1.03997e-07
-2.97568e-07
-3.11546e-07
-9.73026e-08
-3.12731e-07
-3.25025e-07
-1.01342e-07
-2.97696e-07
-3.37355e-07
-9.50998e-08
-3.20785e-07
-3.55732e-07
-1.08026e-07
-2.94551e-07
-3.68925e-07
-1.02003e-07
-3.43124e-07
-4.164e-07
-1.45757e-07
-2.737e-07
-3.7763e-07
-1.0168e-07
-4.24143e-07
-5.01483e-07
-2.6751e-07
-2.2196e-07
-1.6283e-07
3.65838e-08
-7.62738e-07
-1.34642e-07
-6.43982e-07
-4.17753e-07
1.22994e-06
8.47559e-07
-2.06664e-06
3.74716e-06
-1.22709e-06
-2.74418e-06
8.50578e-06
2.43516e-06
-5.66505e-06
1.37778e-05
-3.55869e-06
-3.53652e-06
-5.19231e-06
-1.82438e-06
1.93845e-05
-4.85342e-05
-6.31006e-06
-4.24462e-06
-0.000122273
-5.04339e-06
-4.8157e-06
-0.000116645
-4.71632e-06
4.82379e-06
-0.000107373
-4.89183e-06
-1.51127e-06
-0.000112915
-7.54827e-07
1.78134e-06
-0.00011687
-6.96515e-07
1.24081e-06
-0.000116551
-8.4842e-07
-4.47749e-07
-0.000116088
-9.52637e-08
-6.61948e-07
-0.000115898
1.44011e-06
-1.63835e-07
-0.000113434
1.4897e-06
1.40841e-07
-0.000106359
2.13306e-06
3.45359e-07
-9.95747e-05
1.68654e-06
2.74682e-07
-0.000106589
1.84517e-06
-1.97411e-08
-0.000106321
1.48787e-06
-6.88994e-08
-4.92664e-05
1.76924e-06
-1.70787e-07
1.61808e-06
1.39726e-06
-2.69582e-07
-2.96713e-05
1.74254e-06
-2.97548e-07
-7.66214e-05
1.28834e-06
-1.12125e-07
-9.61082e-05
1.30441e-06
-1.06417e-07
-9.23907e-05
1.27077e-06
-1.2799e-07
-4.24245e-05
1.22994e-06
-1.83348e-07
4.76881e-07
1.30919e-06
-3.63188e-07
2.88779e-07
1.24593e-06
-3.58569e-07
2.57268e-07
1.05157e-06
-3.04366e-07
9.29618e-08
7.5833e-07
-2.31733e-07
-1.26013e-07
5.62529e-07
-1.06314e-07
-3.1105e-07
2.27656e-07
3.96771e-08
-4.71513e-07
-3.85376e-07
1.89641e-07
-5.64321e-07
-6.61238e-07
3.12765e-07
-4.69631e-07
-8.60982e-07
3.33701e-07
-2.25744e-07
-5.59615e-07
1.67708e-07
7.8121e-08
9.3189e-08
1.7596e-07
2.74353e-07
1.08625e-06
1.03321e-07
1.76142e-07
1.94722e-06
-3.35486e-08
-4.03332e-07
3.25845e-06
-2.19738e-07
-1.32306e-06
3.80347e-06
-3.88809e-07
2.93438e-06
-3.50461e-07
-2.53753e-06
-1.48942e-08
-1.01094e-06
-8.50361e-07
-2.43373e-06
-1.29929e-06
-1.0839e-06
2.63393e-07
-5.06784e-07
-4.84987e-07
-1.35208e-06
-6.69221e-07
-6.43543e-07
1.20484e-07
-4.61957e-07
-3.84377e-07
-7.11566e-07
-5.20198e-07
-4.61118e-07
1.03704e-08
-4.68499e-07
-3.40928e-07
-3.10428e-07
-4.85458e-07
-3.6298e-07
-2.10746e-08
-4.75698e-07
-3.21076e-07
-6.82844e-08
-4.80661e-07
-3.13503e-07
1.83267e-08
-4.81545e-07
-3.01694e-07
5.12724e-08
-4.82954e-07
-2.92476e-07
8.70787e-08
-4.84439e-07
-2.85389e-07
1.18521e-07
-4.86206e-07
-2.80025e-07
1.46135e-07
-4.88165e-07
-2.76024e-07
1.70433e-07
-4.9026e-07
-2.7309e-07
1.9191e-07
-4.92449e-07
-2.71049e-07
2.11089e-07
-4.94716e-07
-2.69756e-07
2.28333e-07
-4.97044e-07
-2.69028e-07
2.43908e-07
-4.99433e-07
-2.68763e-07
2.58082e-07
-5.01822e-07
-2.68885e-07
2.71039e-07
-5.04169e-07
-2.69321e-07
2.82981e-07
-5.0649e-07
-2.70015e-07
2.94073e-07
-5.08783e-07
-2.70919e-07
3.04453e-07
-5.11041e-07
-2.71997e-07
3.14232e-07
-5.1326e-07
-2.73219e-07
3.23508e-07
-5.1544e-07
-2.74568e-07
3.32354e-07
-5.17566e-07
-2.76039e-07
3.40834e-07
-5.19622e-07
-2.77623e-07
3.49012e-07
-5.2163e-07
-2.79304e-07
3.56937e-07
-5.23604e-07
-2.81068e-07
3.64653e-07
-5.2555e-07
-2.82913e-07
3.72203e-07
-5.27462e-07
-2.84841e-07
3.79608e-07
-5.29329e-07
-2.86861e-07
3.86894e-07
-5.31144e-07
-2.89007e-07
3.94099e-07
-5.32906e-07
-2.91295e-07
4.01247e-07
-5.34631e-07
-2.93731e-07
4.08356e-07
-5.36317e-07
-2.96375e-07
4.15474e-07
-5.37978e-07
-3.00932e-07
4.23078e-07
-5.3857e-07
-3.01541e-07
4.28063e-07
-5.43019e-07
-3.1117e-07
4.37907e-07
-5.38907e-07
-3.1166e-07
4.4285e-07
-5.48064e-07
-3.25394e-07
4.48626e-07
-5.38895e-07
-3.31712e-07
4.61721e-07
-5.52704e-07
-3.47618e-07
4.53074e-07
-5.38515e-07
-3.66712e-07
4.83463e-07
-5.59467e-07
-3.87174e-07
4.47549e-07
-5.3512e-07
-4.15079e-07
5.06385e-07
-5.80482e-07
-4.64527e-07
4.1996e-07
-5.1628e-07
-4.33672e-07
5.31642e-07
-6.64176e-07
-5.8824e-07
3.29991e-07
-4.42947e-07
-1.75155e-07
6.26055e-07
-1.00256e-06
-2.49993e-07
9.68607e-09
-5.78845e-07
1.46783e-06
1.19542e-06
-2.06568e-06
2.9818e-06
-1.03038e-06
-1.71069e-06
7.47006e-06
2.72969e-06
-4.78276e-06
1.19929e-05
-4.16263e-06
-3.91743e-06
-5.89122e-06
2.65328e-06
1.23406e-05
-5.14668e-05
-6.97032e-06
-3.6269e-06
-0.000126448
-2.50914e-06
-4.2827e-06
-0.000126457
-2.57733e-06
6.79311e-06
-0.000128123
-1.9885e-06
-6.11845e-07
-0.000130315
2.20773e-06
-1.17982e-06
-0.000128884
3.7935e-07
-2.49963e-06
-0.000129039
5.16097e-08
-1.25436e-06
-0.000128785
7.48381e-07
-1.58511e-06
-0.000129922
2.32416e-06
-3.71208e-07
-0.000130685
2.00374e-06
-3.80444e-07
-0.000132037
2.82844e-06
2.6614e-07
-0.000132257
1.90357e-06
-2.49095e-07
-0.000133323
2.32202e-06
1.92275e-07
-0.000133251
1.54642e-06
-2.01137e-07
-0.000133864
1.94011e-06
3.53923e-07
-0.000133622
1.39419e-06
1.30727e-07
-0.000134264
1.63291e-06
5.65445e-07
-0.000134826
1.38847e-06
2.38101e-07
-0.000135589
1.55029e-06
4.23231e-07
-0.000135573
1.53814e-06
9.07837e-08
-0.000135859
1.50554e-06
3.09201e-07
-0.000136812
1.44888e-06
1.2754e-07
-0.00013695
1.28641e-06
3.26087e-07
-0.000137267
1.1235e-06
2.41635e-07
-0.00013846
8.00059e-07
3.50323e-07
-0.000138618
6.84107e-07
2.68604e-07
-0.000139143
4.47087e-07
2.41604e-07
-0.00014047
-2.57276e-08
1.66245e-07
-0.000140456
-5.07e-08
8.38731e-08
-0.00013994
-2.19167e-08
-4.35556e-08
-0.000139803
4.95925e-07
-2.44633e-07
-0.000139206
1.34084e-06
-4.39086e-07
-0.00013836
2.48107e-06
-6.01223e-07
-0.00013838
3.33203e-06
-7.21211e-07
-0.000134926
4.70018e-06
-8.3651e-07
-6.72694e-05
5.39087e-06
-8.74939e-07
5.25665e-06
-1.11885e-06
-2.48696e-06
1.00936e-06
-9.03862e-07
-6.34332e-07
-2.83891e-06
-1.44745e-06
-1.02523e-06
1.24741e-06
-5.93126e-07
-3.87646e-07
-1.12773e-06
-8.61924e-07
-5.87286e-07
9.43862e-07
-6.23739e-07
-3.13558e-07
-2.67348e-07
-7.17946e-07
-4.11503e-07
7.6175e-07
-6.53435e-07
-2.83593e-07
2.48667e-07
-6.87006e-07
-3.30202e-07
6.98031e-07
-6.72498e-07
-2.77874e-07
5.6782e-07
-6.88432e-07
-2.85147e-07
7.15629e-07
-6.9003e-07
-2.76601e-07
7.42407e-07
-6.99681e-07
-2.73266e-07
7.90948e-07
-7.07206e-07
-2.71638e-07
8.31911e-07
-7.15019e-07
-2.71083e-07
8.68257e-07
-7.22678e-07
-2.71277e-07
9.00843e-07
-7.30217e-07
-2.72035e-07
9.30314e-07
-7.37648e-07
-2.73201e-07
9.57163e-07
-7.4491e-07
-2.74661e-07
9.8181e-07
-7.5202e-07
-2.76406e-07
1.00461e-06
-7.58963e-07
-2.78419e-07
1.02586e-06
-7.65767e-07
-2.80576e-07
1.04581e-06
-7.72617e-07
-2.82858e-07
1.06467e-06
-7.79408e-07
-2.85245e-07
1.0826e-06
-7.86138e-07
-2.87719e-07
1.09973e-06
-7.92803e-07
-2.90272e-07
1.11618e-06
-7.99398e-07
-2.92893e-07
1.13205e-06
-8.05924e-07
-2.95574e-07
1.14742e-06
-8.12386e-07
-2.98311e-07
1.16235e-06
-8.1878e-07
-3.01103e-07
1.1769e-06
-8.251e-07
-3.03952e-07
1.19113e-06
-8.31346e-07
-3.06858e-07
1.20507e-06
-8.37515e-07
-3.09826e-07
1.21877e-06
-8.43606e-07
-3.12862e-07
1.23226e-06
-8.49617e-07
-3.15998e-07
1.24557e-06
-8.55543e-07
-3.19263e-07
1.25875e-06
-8.61383e-07
-3.22679e-07
1.27181e-06
-8.67146e-07
-3.26216e-07
1.28472e-06
-8.72822e-07
-3.298e-07
1.29743e-06
-8.78377e-07
-3.36222e-07
1.31264e-06
-8.83137e-07
-3.36245e-07
1.31899e-06
-8.9091e-07
-3.50212e-07
1.3437e-06
-8.91816e-07
-3.48274e-07
1.34398e-06
-9.03064e-07
-3.69485e-07
1.37017e-06
-9.00327e-07
-3.7279e-07
1.37943e-06
-9.14404e-07
-3.99307e-07
1.3881e-06
-9.08496e-07
-4.18926e-07
1.43117e-06
-9.28085e-07
-4.51314e-07
1.39317e-06
-9.13223e-07
-4.92757e-07
1.50763e-06
-9.59795e-07
-5.53127e-07
1.37885e-06
-8.98513e-07
-5.68052e-07
1.62281e-06
-1.07625e-06
-7.52359e-07
1.32822e-06
-8.13912e-07
-3.56313e-07
1.75977e-06
-1.52977e-06
-6.98595e-07
1.28025e-06
-9.28277e-07
1.78194e-06
1.64678e-06
-2.93189e-06
2.00242e-06
9.2194e-07
-2.17279e-06
7.33081e-06
2.06136e-06
-4.66005e-06
3.2311e-06
3.13706e-06
-3.19657e-06
-4.10303e-06
2.73115e-06
5.16233e-06
-6.23156e-05
-3.26452e-07
-6.04607e-06
-0.00015396
9.07273e-06
-6.3726e-06
-0.000159512
5.92887e-06
7.36902e-06
-0.000167859
7.14783e-06
-9.95463e-07
-0.000169599
4.33423e-06
-2.02092e-06
-0.000168447
4.19185e-06
-3.83592e-06
-0.000170556
5.53377e-06
-3.89714e-06
-0.000172804
3.99858e-06
-2.50611e-06
-0.000176536
2.50032e-06
6.92029e-07
-0.000179293
1.94649e-06
2.02676e-06
-0.000179931
1.4874e-06
2.2177e-06
-0.000181187
1.82418e-06
1.42486e-06
-0.00018218
1.65794e-06
6.09848e-07
-0.000182458
1.99493e-06
4.47767e-07
-0.000182412
1.62363e-06
6.18156e-07
-0.000183136
1.92844e-06
7.41695e-07
-0.000183569
1.7e-06
7.73588e-07
-0.000184437
1.92775e-06
4.86229e-07
-0.000185051
1.81477e-06
4.52452e-07
-0.000185606
1.87808e-06
3.29765e-07
-0.000185996
1.81204e-06
4.59967e-07
-0.000186646
1.85707e-06
4.53064e-07
-0.000187726
1.89916e-06
7.10214e-07
-0.000188375
2.20133e-06
6.10354e-07
-0.000189725
2.3048e-06
7.34401e-07
-0.00019196
2.55472e-06
7.05945e-07
-0.000194261
3.12725e-06
6.43299e-07
-0.000197415
3.38532e-06
3.37853e-07
-0.000201794
3.75099e-06
-2.03968e-07
-0.000205165
3.8534e-06
-1.00508e-06
-0.000206221
3.54979e-06
-1.96963e-06
-0.000206225
2.74089e-06
-2.8892e-06
-0.000204844
1.58672e-06
-3.5916e-06
-0.000200464
1.20107e-07
-3.83608e-06
-0.00019316
-1.2747e-06
-3.27614e-06
-0.000184194
-1.57483e-06
-2.05346e-06
-1.58658e-06
-4.44512e-07
-1.69064e-06
2.15037e-06
1.25178e-07
-3.5427e-07
-2.96491e-06
-1.21037e-06
-8.25249e-07
1.89225e-06
-1.73864e-07
-2.98425e-07
-1.06881e-06
-5.85746e-07
-4.75083e-07
1.4222e-06
-3.01683e-07
-2.49439e-07
-6.345e-08
-4.29542e-07
-3.41606e-07
1.19413e-06
-3.40213e-07
-2.31405e-07