/*--------------------------------*- C++ -*----------------------------------*\
| =========                 |                                                 |
| \\      /  F ield         | OpenFOAM: The Open Source CFD Toolbox           |
|  \\    /   O peration     | Version:  2.3.0                                 |
|   \\  /    A nd           | Web:      www.OpenFOAM.org                      |
|    \\/     M anipulation  |                                                 |
\*---------------------------------------------------------------------------*/
FoamFile
{
    version     2.0;
    format      ascii;
    class       volVectorField;
    location    "1";
    object      U.air;
}
// * * * * * * * * * * * * * * * * * * * * * * * * * * * * * * * * * * * * * //

dimensions      [0 1 -1 0 0 0 0];

internalField   nonuniform List<vector> 
6144
(
(0.00177269 0.0129969 -0.000263947)
(0.00179869 0.00846877 -0.000714418)
(0.00192334 0.0074131 -0.00125565)
(0.00189874 0.00602197 -0.00146072)
(0.00187046 0.00509131 -0.00155696)
(0.0018307 0.00437609 -0.00160595)
(0.0017887 0.00381259 -0.0016297)
(0.00175321 0.00336233 -0.00163921)
(0.00172211 0.00299525 -0.00164186)
(0.00169552 0.00269352 -0.00164127)
(0.0016724 0.00244397 -0.0016397)
(0.00165221 0.00223703 -0.00163798)
(0.00163497 0.0020652 -0.00163594)
(0.00162029 0.00192251 -0.00163373)
(0.00160778 0.00180407 -0.00163148)
(0.0015971 0.00170589 -0.00162925)
(0.00158799 0.0016246 -0.00162705)
(0.00158019 0.00155738 -0.00162491)
(0.00157352 0.00150185 -0.00162282)
(0.00156778 0.00145602 -0.00162078)
(0.0015628 0.00141823 -0.00161878)
(0.00155848 0.00138711 -0.00161682)
(0.00155469 0.00136152 -0.00161489)
(0.00155135 0.0013405 -0.00161298)
(0.00154835 0.00132328 -0.00161111)
(0.00154565 0.00130916 -0.00160926)
(0.00154317 0.00129753 -0.00160745)
(0.00154091 0.00128806 -0.00160567)
(0.00153888 0.00128059 -0.00160393)
(0.00153701 0.00127472 -0.00160221)
(0.00153526 0.00127017 -0.00160045)
(0.00153358 0.00126647 -0.00159863)
(0.00153189 0.00126337 -0.00159675)
(0.00153024 0.00126124 -0.00159485)
(0.00152868 0.00125995 -0.00159294)
(0.00152719 0.00125924 -0.00159105)
(0.00152584 0.00125854 -0.00158914)
(0.00152473 0.0012581 -0.00158714)
(0.0015236 0.0013146 -0.00158544)
(0.00151973 0.000860826 -0.00158589)
(0.00153024 0.00235568 -0.00157573)
(0.00151282 -0.000880905 -0.00158731)
(0.00153651 0.00475365 -0.0015695)
(0.00151529 -0.00392753 -0.00158332)
(0.00153826 0.00833937 -0.0015757)
(0.00154383 -0.00809159 -0.00156102)
(0.00152778 0.0127717 -0.00160049)
(0.00166845 -0.0131653 -0.00149303)
(0.00148863 0.0178685 -0.0016403)
(0.00183423 -0.0193415 -0.00143766)
(0.00149782 0.0233189 -0.00155128)
(0.0020583 -0.0262961 -0.00138746)
(0.00142356 0.0275502 -0.000977955)
(0.00190422 -0.0333563 -0.00102467)
(0.00115364 0.0307838 0.000549639)
(-0.00266965 -0.0414959 -0.00133356)
(-0.00601673 0.0456854 -0.0038667)
(-0.019789 -0.0378705 -0.0227656)
(0.0404158 0.346239 0.0142743)
(-0.0300609 -0.0811575 -0.00986491)
(-0.012704 0.506395 -0.0172974)
(0.103515 0.466931 0.0702847)
(0.0468746 -0.0594624 0.0344398)
(0.012817 -0.0207356 -0.00227088)
(-0.00800419 -0.0520295 -0.0168232)
(0.0037193 0.03003 -0.00899239)
(-0.00136351 -0.0525403 -0.0105903)
(0.00434762 0.0340039 -0.00183951)
(0.00451771 -0.0503346 -0.00218274)
(0.00254157 0.0162769 -0.0026905)
(0.00276883 -0.0386854 -0.00254198)
(0.00225039 0.00614953 -0.00258397)
(0.00244488 -0.0276455 -0.00258748)
(0.00213407 -0.000871203 -0.00259165)
(0.00228271 -0.018439 -0.00261889)
(0.00209456 -0.00525734 -0.00261014)
(0.00218653 -0.0116147 -0.00261107)
(0.00212181 -0.00689297 -0.00260878)
(0.0021579 -0.00730533 -0.00260488)
(0.00216879 -0.00629909 -0.00260412)
(0.00217561 -0.00509578 -0.00259814)
(0.002193 -0.00428207 -0.00259492)
(0.00221409 -0.00341502 -0.00259457)
(0.00223459 -0.00256231 -0.0025956)
(0.00225571 -0.00173984 -0.00259967)
(0.00227478 -0.000943134 -0.00260574)
(0.00229153 -0.000170179 -0.00261266)
(0.00229442 0.000589461 -0.00262041)
(0.00227989 0.00135507 -0.00262497)
(0.00224214 0.00215588 -0.00262378)
(0.00217895 0.00300872 -0.00261546)
(0.00209576 0.00382034 -0.0025979)
(0.00199881 0.00452652 -0.00257352)
(0.00189258 0.00542637 -0.00254851)
(0.0018007 0.00674368 -0.00252661)
(0.00173378 0.00829135 -0.00251482)
(0.0044888 0.0153186 0.00133758)
(0.00466976 0.00920596 0.00075963)
(0.00477624 0.00800057 -3.75333e-05)
(0.00468476 0.00639634 -0.0003054)
(0.00449824 0.00539284 -0.000453798)
(0.00436263 0.00464193 -0.000518878)
(0.00421627 0.00405272 -0.000551157)
(0.00409794 0.00358681 -0.000565761)
(0.0039924 0.00320609 -0.000571795)
(0.00390242 0.00289378 -0.000573315)
(0.00382518 0.00263562 -0.000572489)
(0.00375869 0.0024216 -0.000570701)
(0.00370147 0.00224396 -0.000568456)
(0.00365214 0.00209658 -0.000565968)
(0.00360953 0.00197442 -0.00056335)
(0.00357263 0.00187327 -0.000560673)
(0.00354059 0.00178964 -0.000557959)
(0.00351269 0.00172055 -0.000555213)
(0.00348827 0.00166352 -0.000552454)
(0.00346676 0.00161651 -0.000549693)
(0.00344767 0.0015778 -0.000546915)
(0.00343062 0.00154595 -0.000544134)
(0.00341525 0.00151978 -0.000541354)
(0.00340127 0.00149827 -0.000538571)
(0.00338845 0.00148065 -0.000535801)
(0.00337661 0.00146638 -0.000533051)
(0.00336556 0.00145479 -0.000530317)
(0.00335516 0.00144541 -0.000527608)
(0.00334531 0.0014379 -0.000524835)
(0.00333592 0.0014319 -0.000522037)
(0.00332687 0.00142717 -0.000519213)
(0.00331812 0.00142352 -0.000516344)
(0.00330958 0.00142083 -0.000513427)
(0.00330123 0.00141898 -0.000510507)
(0.00329307 0.00141794 -0.00050763)
(0.00328513 0.00141765 -0.000504795)
(0.00327745 0.0014174 -0.000501964)
(0.00327015 0.00141826 -0.000499056)
(0.00326403 0.00146879 -0.000496465)
(0.00325003 0.00103384 -0.000496141)
(0.00326906 0.0025148 -0.000484843)
(0.00322384 -0.00073574 -0.000495888)
(0.00328263 0.00497936 -0.000478845)
(0.00320626 -0.00387679 -0.000490087)
(0.00331643 0.00872092 -0.000477952)
(0.00320864 -0.00823566 -0.000476687)
(0.00337161 0.013497 -0.000476466)
(0.00334408 -0.0135772 -0.000438594)
(0.00344921 0.0190377 -0.000460253)
(0.00358508 -0.0200295 -0.000380239)
(0.00370978 0.0251699 -0.000156674)
(0.00408204 -0.0275223 -0.000344395)
(0.00413028 0.0301888 0.00142945)
(0.00517797 -0.0360909 0.000885989)
(0.00429474 0.0303166 0.00549664)
(0.00325859 -0.0520454 0.00892025)
(-0.00027262 0.0135013 0.0241079)
(-0.0294879 -0.132606 0.0308033)
(0.026567 0.0647551 -0.104287)
(0.00885912 0.0565723 0.032112)
(0.015982 0.346491 0.0559988)
(0.06659 0.424654 -0.0186102)
(0.0405767 -0.0489264 -0.0217622)
(-0.0163352 0.0959613 -0.0157621)
(-0.0101099 -0.0889069 0.00624533)
(0.00501098 0.0453848 -0.0117251)
(0.00282071 -0.0670846 -0.00868706)
(0.00511145 0.0181648 -0.00232473)
(0.00626085 -0.0501367 -0.00317299)
(0.00397701 0.0133846 -0.000334416)
(0.00462422 -0.0385868 -0.000564477)
(0.00357623 0.00567926 -0.000275389)
(0.00413754 -0.0276118 -0.000361003)
(0.00343926 -0.00110062 -0.000351077)
(0.0038743 -0.0183941 -0.000393349)
(0.00342914 -0.00541731 -0.000395525)
(0.00364331 -0.0115903 -0.000432687)
(0.00349687 -0.00696591 -0.000438599)
(0.00357019 -0.00730208 -0.000462778)
(0.00361787 -0.00631443 -0.000469077)
(0.00361227 -0.00510841 -0.000480182)
(0.00364706 -0.00428417 -0.000491873)
(0.00368691 -0.00341338 -0.000504687)
(0.00372886 -0.0025607 -0.000519633)
(0.00377297 -0.00174016 -0.00053936)
(0.00381935 -0.000946835 -0.000563114)
(0.00386196 -0.00018645 -0.000587883)
(0.00387883 0.000548022 -0.000611457)
(0.00384671 0.00128027 -0.00062944)
(0.00374745 0.00204054 -0.00064156)
(0.00357215 0.00285391 -0.000644773)
(0.00332471 0.00363325 -0.000641891)
(0.00303676 0.00431678 -0.000633273)
(0.00275474 0.00522187 -0.000629822)
(0.0025579 0.00658312 -0.000626293)
(0.00241947 0.00822501 -0.000643563)
(0.00586062 0.0170055 0.00258794)
(0.00631898 0.0093247 0.00186234)
(0.00613073 0.0079482 0.000763496)
(0.00605666 0.0062205 0.000450377)
(0.00565843 0.00519398 0.00025731)
(0.0054754 0.00447514 0.000171357)
(0.00521299 0.00389318 0.00012982)
(0.00502669 0.00345369 0.000111852)
(0.004851 0.00309052 0.000104949)
(0.00470326 0.00279643 0.000103403)
(0.00457493 0.00255377 0.000104355)
(0.00446448 0.00235331 0.000106799)
(0.00436928 0.00218739 0.000110062)
(0.00428709 0.00205004 0.000113788)
(0.004216 0.00193639 0.00011778)
(0.00415435 0.00184247 0.00012194)
(0.00410074 0.00176492 0.000126213)
(0.00405395 0.00170096 0.000130566)
(0.00401287 0.00164824 0.000134971)
(0.00397657 0.00160484 0.000139413)
(0.00394426 0.00156916 0.000143877)
(0.00391529 0.00153985 0.000148362)
(0.00388909 0.00151589 0.000152864)
(0.00386523 0.00149638 0.000157365)
(0.00384328 0.00148045 0.000161862)
(0.0038229 0.00146747 0.000166342)
(0.00380382 0.00145693 0.000170803)
(0.00378578 0.00144843 0.000175253)
(0.00376853 0.00144164 0.000179613)
(0.00375197 0.00143628 0.000183933)
(0.00373601 0.00143214 0.00018825)
(0.00372056 0.00142906 0.000192557)
(0.00370557 0.00142692 0.000196817)
(0.00369096 0.00142563 0.000201)
(0.00367668 0.00142505 0.000205057)
(0.0036627 0.00142522 0.000209007)
(0.00364907 0.00142557 0.000212934)
(0.0036358 0.00142704 0.000216976)
(0.0036234 0.00147726 0.000220707)
(0.00361043 0.00104679 0.00022132)
(0.00360619 0.00252751 0.00023784)
(0.00358896 -0.000722774 0.00021914)
(0.0036016 0.00500571 0.000253325)
(0.00357373 -0.0038615 0.00021978)
(0.00363442 0.00877561 0.000268375)
(0.00356972 -0.00822167 0.000222354)
(0.00373119 0.01363 0.00030222)
(0.00364693 -0.013579 0.000223926)
(0.00388473 0.0192895 0.000416506)
(0.00392646 -0.0199229 0.000230436)
(0.0043011 0.0256148 0.00106649)
(0.00467242 -0.0270988 8.72527e-05)
(0.00510028 0.0314912 0.0037911)
(0.00728585 -0.0354997 0.0014328)
(0.00617081 0.0339963 0.0131155)
(0.0124314 -0.0537976 0.016054)
(0.00967937 0.0168194 0.047807)
(0.000908733 -0.132321 0.0522457)
(-0.0306774 0.0554531 -0.127845)
(0.0105807 0.0430727 0.0254548)
(0.053922 0.364229 0.0954958)
(0.0285595 0.470495 -0.00700111)
(-0.00417053 -0.0933865 -0.00759936)
(0.0105911 0.12014 -0.0293834)
(0.0122354 -0.102565 0.0170149)
(0.00398464 0.0480013 -0.0243686)
(0.0118446 -0.0697784 -0.0018977)
(0.00322437 0.017493 -0.0031756)
(0.00431728 -0.0506508 -0.00652283)
(0.00284987 0.0130711 0.001583)
(0.00377547 -0.0386737 0.000496707)
(0.00249947 0.00526772 0.00135217)
(0.00352223 -0.0274537 0.00115842)
(0.00240671 -0.00148453 0.00117534)
(0.00314352 -0.0182315 0.0010979)
(0.0024632 -0.00566155 0.00105813)
(0.00282657 -0.0114746 0.000980316)
(0.00266204 -0.00703648 0.000927319)
(0.00281055 -0.00722497 0.000863917)
(0.00292653 -0.00628646 0.000827182)
(0.00295696 -0.00505913 0.000768061)
(0.00303441 -0.00422369 0.000715748)
(0.00312479 -0.00335383 0.000659047)
(0.00321934 -0.00249954 0.000598028)
(0.00331422 -0.0016713 0.000527827)
(0.00342317 -0.000875455 0.000450208)
(0.00353576 -0.000130798 0.000374119)
(0.00361634 0.000556746 0.000305862)
(0.00361848 0.00120767 0.000256648)
(0.00348429 0.00186557 0.000229093)
(0.00319163 0.00258347 0.000233851)
(0.00274742 0.00333944 0.000259273)
(0.00216162 0.00403947 0.000307094)
(0.00149932 0.00498067 0.000332511)
(0.000921123 0.00641215 0.00032675)
(0.000573213 0.00815556 0.000285809)
(0.00665189 0.0185505 0.003601)
(0.00780059 0.00938902 0.00278974)
(0.00671068 0.00772663 0.00118569)
(0.00705445 0.00594871 0.000930522)
(0.00613513 0.004846 0.000661946)
(0.00608736 0.00422763 0.000590954)
(0.00561692 0.0036354 0.000542494)
(0.005406 0.00325545 0.000527529)
(0.0051503 0.00291379 0.00052155)
(0.00495113 0.0026499 0.000521621)
(0.00477498 0.00242965 0.000524267)
(0.00462394 0.00224886 0.000528288)
(0.00449382 0.00209973 0.000533122)
(0.00438141 0.00197677 0.000538414)
(0.00428405 0.00187544 0.000543967)
(0.0041995 0.00179196 0.000549682)
(0.00412585 0.00172324 0.000555506)
(0.00406141 0.0016667 0.00056139)
(0.00400472 0.00162021 0.000567317)
(0.0039545 0.00158205 0.000573269)
(0.00390967 0.00155078 0.000579246)
(0.00386937 0.00152521 0.000585231)
(0.00383284 0.00150436 0.000591207)
(0.00379945 0.0014874 0.000597167)
(0.00376867 0.00147357 0.000603108)
(0.00374004 0.00146235 0.000609024)
(0.00371318 0.00145331 0.000614916)
(0.00368779 0.00144608 0.000620786)
(0.00366363 0.00144036 0.000626655)
(0.00364049 0.00143589 0.000632525)
(0.00361822 0.00143249 0.000638396)
(0.00359665 0.00143006 0.000644235)
(0.00357572 0.00142851 0.000649989)
(0.00355535 0.00142774 0.000655574)
(0.00353547 0.00142771 0.00066082)
(0.00351597 0.00142837 0.000665769)
(0.00349691 0.00142935 0.00067061)
(0.00347828 0.00143155 0.000675543)
(0.00346056 0.00148282 0.000680182)
(0.00344407 0.00105462 0.000681415)
(0.00343105 0.00253725 0.000699964)
(0.00341534 -0.000710559 0.000678676)
(0.00341766 0.00502616 0.000721257)
(0.00339128 -0.00383868 0.000675475)
(0.00344912 0.00881782 0.000746853)
(0.00337371 -0.00817976 0.000668781)
(0.0035643 0.013732 0.000803965)
(0.00341423 -0.0135286 0.00064519)
(0.00376659 0.0195438 0.000996723)
(0.00368224 -0.0197431 0.000570591)
(0.00417083 0.0261146 0.00185467)
(0.00450215 -0.0267122 0.000260595)
(0.00472803 0.032782 0.00561825)
(0.00716695 -0.034924 0.00224102)
(0.00521882 0.0369169 0.0196057)
(0.0124056 -0.0525396 0.0255739)
(0.00715513 0.0268936 0.0711664)
(0.0163314 -0.13216 0.065079)
(-0.0225496 0.0940126 -0.161324)
(0.0215768 0.0248674 0.0255037)
(0.0320275 0.365459 0.0987921)
(0.0221031 0.468162 0.00164677)
(0.00776546 -0.0841704 -0.00232451)
(0.00990749 0.116648 -0.0224337)
(0.0404355 -0.0841088 0.0234453)
(0.00534985 0.0422613 -0.0189223)
(0.0131271 -0.0628928 -0.000374784)
(0.00158928 0.024061 -0.00224658)
(0.00396656 -0.050517 -0.00461905)
(0.00130258 0.0141098 0.00230801)
(0.00242603 -0.0386957 0.00136355)
(0.000928678 0.0049641 0.00211228)
(0.00198734 -0.0271494 0.00214232)
(0.00086098 -0.0019683 0.00195136)
(0.00152144 -0.0179254 0.00197245)
(0.000843627 -0.00594278 0.00178849)
(0.00114896 -0.0112216 0.00167384)
(0.00102292 -0.00702751 0.00156377)
(0.00120059 -0.00703138 0.00147807)
(0.00136902 -0.00615613 0.00145924)
(0.00143595 -0.00492081 0.00140078)
(0.00156179 -0.00408755 0.00136983)
(0.00171519 -0.00321445 0.00132395)
(0.00189626 -0.00236147 0.00127317)
(0.00207911 -0.00152806 0.00120099)
(0.00224772 -0.000714096 0.00110438)
(0.00240157 2.67498e-05 0.000976094)
(0.00251085 0.000655963 0.000829692)
(0.00251079 0.00117284 0.000694204)
(0.00231947 0.00163792 0.000598544)
(0.00193018 0.00214732 0.000554084)
(0.00134612 0.00269762 0.000556634)
(0.00072671 0.00320902 0.000616006)
(3.73526e-05 0.00405555 0.000630247)
(-0.000489122 0.0056707 0.000634318)
(-0.000885392 0.00788239 0.000407544)
(0.00674728 0.0196085 0.00437029)
(0.00943619 0.0093169 0.00383454)
(0.00630683 0.00723269 0.00152494)
(0.00790518 0.00566575 0.00144862)
(0.0058047 0.00429855 0.00103387)
(0.00636516 0.0039946 0.00101301)
(0.00540354 0.00326142 0.000936874)
(0.00532506 0.00302999 0.000930967)
(0.00493612 0.00268032 0.000923107)
(0.00470832 0.00246547 0.00092548)
(0.00448488 0.00227109 0.000929918)
(0.00429473 0.00211683 0.000935731)
(0.00412994 0.00198984 0.000942216)
(0.00398712 0.00188558 0.000949166)
(0.00386316 0.00179999 0.000956456)
(0.00375531 0.0017298 0.000963986)
(0.00366114 0.00167226 0.000971695)
(0.00357855 0.00162508 0.000979547)
(0.00350572 0.0015864 0.000987485)
(0.00344114 0.00155475 0.000995476)
(0.00338344 0.00152893 0.00100355)
(0.00333146 0.0015079 0.00101164)
(0.00328425 0.00149078 0.00101973)
(0.00324102 0.00147688 0.00102782)
(0.00320109 0.0014656 0.00103589)
(0.00316391 0.00145652 0.00104394)
(0.00312902 0.00144925 0.00105198)
(0.00309605 0.00144348 0.00106001)
(0.00306469 0.00143898 0.00106803)
(0.00303467 0.00143552 0.00107605)
(0.00300581 0.00143301 0.00108406)
(0.00297795 0.00143138 0.00109203)
(0.00295089 0.00143056 0.00109989)
(0.00292447 0.00143043 0.00110749)
(0.00289852 0.00143088 0.00111413)
(0.002873 0.00143193 0.00111989)
(0.00284792 0.00143343 0.00112535)
(0.00282326 0.00143615 0.00113092)
(0.00279946 0.00148922 0.00113624)
(0.00277757 0.0010613 0.00113812)
(0.0027563 0.00254909 0.00115766)
(0.0027388 -0.00070041 0.00113497)
(0.00272581 0.00504866 0.00118378)
(0.00270691 -0.0038176 0.00112796)
(0.00273322 0.0088598 0.00121821)
(0.00268261 -0.00813582 0.00111278)
(0.00281768 0.0138219 0.00129209)
(0.00270444 -0.0134639 0.0010721)
(0.00299894 0.0197624 0.00154036)
(0.0029221 -0.0196348 0.000966148)
(0.00326648 0.026633 0.0025415)
(0.00366813 -0.0266256 0.000606009)
(0.0033008 0.0341459 0.00687756)
(0.00604527 -0.0354581 0.00255297)
(0.00241398 0.0392934 0.023186)
(0.0102118 -0.0549048 0.0270492)
(-6.49937e-05 0.0363968 0.0767598)
(0.0170456 -0.14428 0.0641991)
(-0.0211549 0.133105 -0.177117)
(0.0234423 0.00303061 0.0194572)
(0.0519538 0.407732 0.109626)
(0.00776634 0.597756 0.00865262)
(-0.0149182 0.463398 0.000728636)
(0.0240289 0.539871 -0.00799769)
(0.0423448 0.359427 0.00501703)
(0.00610106 0.0589522 -0.0145817)
(0.0112232 -0.0577459 0.00291164)
(0.00126355 0.0259065 -0.00118191)
(0.00385789 -0.0494609 -0.00135933)
(-0.00145781 0.0146123 0.00359881)
(0.00197216 -0.0380267 0.00276252)
(-0.00215712 0.00473452 0.00359291)
(0.000828662 -0.0265278 0.00370074)
(-0.00204467 -0.00225386 0.0033539)
(-0.000220389 -0.0174801 0.00337158)
(-0.00165692 -0.00597053 0.00282924)
(-0.000882783 -0.0107445 0.00265135)
(-0.00106904 -0.00679687 0.00213652)
(-0.000788148 -0.00674183 0.00189259)
(-0.000575279 -0.00587111 0.00174967)
(-0.000528978 -0.00460302 0.00151341)
(-0.000452771 -0.00380651 0.00133244)
(-0.000293862 -0.00296038 0.00109751)
(-9.18195e-05 -0.0020954 0.000844193)
(0.000227839 -0.0012824 0.00053409)
(0.000742556 -0.000511389 0.000263087)
(0.00139892 0.000172748 3.36671e-05)
(0.00204447 0.000706432 -0.000153237)
(0.00246314 0.00106019 -0.000282044)
(0.00239397 0.00132801 -0.000302639)
(0.00177516 0.00164889 -0.000187731)
(0.000556161 0.00218016 3.04274e-05)
(-0.0011962 0.00276153 0.000281079)
(-0.00330174 0.00378737 0.00053493)
(-0.0051871 0.00551399 0.00071831)
(-0.00604861 0.00775367 0.000672015)
(0.0057201 0.0197024 0.00494644)
(0.0115919 0.00910008 0.00522571)
(0.00461007 0.00637103 0.00199753)
(0.00871372 0.00554278 0.00229043)
(0.00442068 0.00342465 0.00159298)
(0.00632652 0.00389512 0.00171384)
(0.00435813 0.00267845 0.00156195)
(0.00476438 0.00285053 0.00159506)
(0.0040643 0.00236295 0.00157481)
(0.0038888 0.00226127 0.00158269)
(0.0036105 0.00207896 0.00158788)
(0.00340115 0.00195642 0.00159635)
(0.00321949 0.0018546 0.001606)
(0.00306258 0.00177246 0.00161639)
(0.00292678 0.00170598 0.00162719)
(0.00280895 0.00165207 0.00163825)
(0.00270633 0.00160825 0.00164947)
(0.00261645 0.00157265 0.00166079)
(0.00253733 0.00154377 0.00167218)
(0.00246738 0.00152033 0.00168363)
(0.00240508 0.0015013 0.00169499)
(0.00234913 0.00148589 0.0017062)
(0.00229851 0.00147341 0.00171732)
(0.00225234 0.00146334 0.00172832)
(0.00220989 0.00145526 0.00173922)
(0.00217055 0.00144882 0.00175)
(0.00213383 0.00144373 0.00176067)
(0.00209929 0.00143978 0.00177129)
(0.00206655 0.00143677 0.00178182)
(0.00203538 0.00143459 0.00179222)
(0.00200556 0.00143314 0.00180243)
(0.00197694 0.00143233 0.00181248)
(0.00194931 0.00143208 0.00182237)
(0.00192243 0.00143244 0.00183202)
(0.00189619 0.00143339 0.00184128)
(0.00187054 0.00143483 0.00185014)
(0.00184539 0.00143669 0.00185874)
(0.00182061 0.00143968 0.0018673)
(0.0017965 0.00149439 0.00187548)
(0.00177367 0.00106601 0.00187995)
(0.00175404 0.00256001 0.00190259)
(0.00173221 -0.000695344 0.00188028)
(0.0017186 0.00507157 0.00193716)
(0.00170006 -0.00380745 0.00187334)
(0.00170663 0.00890423 0.00198288)
(0.00167978 -0.00811173 0.00185441)
(0.0017489 0.0139105 0.00206844)
(0.00170013 -0.0134212 0.00180585)
(0.00187075 0.0199628 0.00233256)
(0.00187792 -0.0195997 0.00168216)
(0.00203803 0.0271175 0.00343721)
(0.00247302 -0.0268349 0.00134099)
(0.00180761 0.0354472 0.00801833)
(0.00443212 -0.0368879 0.00283865)
(0.000160298 0.040705 0.0250728)
(0.00866445 -0.0580349 0.0262277)
(-0.00110072 0.0330763 0.0766479)
(0.0176416 -0.160803 0.0733854)
(-0.00543936 0.127372 -0.158798)
(0.0265727 0.0108109 0.0228466)
(0.0437464 0.43576 0.117963)
(0.017339 0.642233 -0.00194898)
(0.0139564 0.447853 0.0269614)
(0.0119561 0.518177 0.00277889)
(0.008328 0.507424 -0.00320427)
(0.00368914 0.548767 0.00334994)
(0.00273168 0.498223 0.00902299)
(-0.00294712 0.539069 0.00308929)
(-0.00455693 0.494486 0.0013295)
(-0.0058977 0.510158 -0.00271235)
(-0.00612789 0.429332 -0.00167033)
(-0.00398506 0.444531 0.000189762)
(-0.00445582 0.490407 0.00221533)
(-0.00393624 0.415095 0.00241984)
(-0.00425645 0.00563653 0.00246517)
(-0.0033442 0.0180098 0.0023009)
(-0.00360494 0.237617 0.00182383)
(-0.00269726 0.399003 0.00208978)
(-0.00262814 0.424296 0.00217233)
(-0.0023805 0.339282 0.00230405)
(-0.00227581 0.0180134 0.00219087)
(-0.00224772 -0.00197843 0.00227353)
(-0.00188378 -0.00116399 0.00214877)
(-0.00171165 -0.000762721 0.00209379)
(-0.00147187 1.96999e-05 0.00169025)
(-0.00109932 0.000864774 0.00122951)
(-0.000703295 0.00162526 0.000574443)
(-0.000350561 0.00219917 -0.000183626)
(-0.000102836 0.00221825 -0.000937481)
(-0.000260509 0.00150413 -0.00128342)
(-0.000927472 0.000337118 -0.00151003)
(-0.00187886 -0.000718546 -0.00143117)
(-0.00308465 -0.00105108 -0.0010078)
(-0.00449317 5.72445e-05 -0.000746387)
(-0.00553087 0.00312586 -0.00090973)
(-0.00683889 0.00709335 -0.00322205)
(0.00274392 0.0187566 0.00570443)
(0.0141418 0.00883276 0.00710736)
(0.00116216 0.00481835 0.00296787)
(0.00880808 0.00573783 0.00382425)
(0.00162624 0.0021141 0.00275431)
(0.00547971 0.00403813 0.0030954)
(0.00205709 0.00181875 0.00281102)
(0.00333889 0.00281913 0.00293162)
(0.00206327 0.00189696 0.00287085)
(0.0021104 0.00209189 0.00290584)
(0.00172462 0.00186493 0.00290929)
(0.00149472 0.00180593 0.00291635)
(0.00128369 0.00173077 0.00292311)
(0.0011023 0.0016718 0.0029316)
(0.000946366 0.00162475 0.00294136)
(0.000811983 0.00158716 0.00295209)
(0.000695705 0.00155692 0.00296357)
(0.000594606 0.00153258 0.00297569)
(0.000506196 0.00151316 0.00298835)
(0.000428217 0.00149765 0.00300161)
(0.000358926 0.00148516 0.00301496)
(0.000297118 0.00147514 0.00302804)
(0.000241581 0.00146717 0.00304106)
(0.000191267 0.00146085 0.003054)
(0.000145333 0.00145586 0.00306684)
(0.000103085 0.00145197 0.00307954)
(6.39305e-05 0.00144895 0.0030921)
(2.7409e-05 0.00144668 0.00310441)
(-6.8861e-06 0.00144511 0.00311639)
(-3.93054e-05 0.00144417 0.00312811)
(-7.0101e-05 0.00144378 0.00313965)
(-9.95152e-05 0.00144385 0.00315101)
(-0.000127765 0.00144435 0.00316214)
(-0.000155 0.00144526 0.00317296)
(-0.000181343 0.00144656 0.00318341)
(-0.000206948 0.00144838 0.00319349)
(-0.000231935 0.00145078 0.00320329)
(-0.000256414 0.00145398 0.00321299)
(-0.000280396 0.0015093 0.00322219)
(-0.000305358 0.0010822 0.00322768)
(-0.000319814 0.00257888 0.00325079)
(-0.000352198 -0.000681278 0.00322849)
(-0.000361738 0.0051022 0.00328788)
(-0.000383264 -0.00379529 0.00321844)
(-0.000404572 0.00895533 0.00333551)
(-0.000391371 -0.00809713 0.00319394)
(-0.00043183 0.0140013 0.00341801)
(-0.00035746 -0.013402 0.00313789)
(-0.000421077 0.0201438 0.00366468)
(-0.000209449 -0.0195987 0.0029928)
(-0.000349664 0.0275066 0.00477103)
(0.000270616 -0.0270362 0.0026663)
(-0.000447866 0.0365279 0.00976476)
(0.00212942 -0.0381279 0.00392102)
(-0.00271048 0.043246 0.0284978)
(0.00786588 -0.0629451 0.0260892)
(-0.00701658 0.0468299 0.0759325)
(0.0260606 -0.162994 0.0386337)
(-0.00915489 0.137822 -0.156628)
(0.0380065 0.00773009 0.0327086)
(0.0336882 0.440832 0.144765)
(0.0273915 0.623329 0.0130038)
(0.0317433 0.501533 0.0207325)
(-0.00223273 0.599394 0.00930221)
(0.00466956 0.526081 0.0274222)
(0.00788764 0.578234 0.0202007)
(0.0031873 0.524137 0.0255131)
(-0.00680837 0.568859 0.0157706)
(-0.00521574 0.530292 0.017119)
(-0.0115817 0.567264 0.00834885)
(-0.00606197 0.538902 0.0142468)
(-0.0105889 0.561639 0.00805425)
(-0.00559375 0.544108 0.0128401)
(-0.00945348 0.554636 0.00549412)
(-0.00572638 0.544432 0.006444)
(-0.00804698 0.548446 0.000332779)
(-0.00630409 0.543048 0.00089599)
(-0.00746394 0.544769 -0.000593144)
(-0.00703602 0.548532 -6.29441e-05)
(-0.00703689 0.539448 -0.000517584)
(-0.00640462 0.541134 -0.00142035)
(-0.00566766 0.546623 -0.00181698)
(-0.00457503 0.536909 -0.00259195)
(-0.00241335 0.53976 -0.00371674)
(-0.00135328 0.545734 -0.00431668)
(0.000455364 0.535881 -0.00481696)
(0.00403636 0.540887 -0.00554853)
(0.00479657 0.545414 -0.00560376)
(0.00519733 0.536463 -0.00569477)
(0.00242598 0.532817 -0.00508372)
(-0.0022371 0.529293 -0.00406039)
(-0.00858838 0.526314 -0.00284407)
(-0.0129639 0.519857 -0.00190804)
(-0.0195259 0.520169 2.63908e-05)
(-0.0207019 0.470964 0.000611271)
(-0.0195668 0.0309809 -0.00097728)
(-0.00256086 0.015896 0.00634486)
(0.0169395 0.00893107 0.00776548)
(-0.00453367 0.00240357 0.00385095)
(0.00793407 0.00645638 0.00496797)
(-0.00312153 0.000435195 0.00389611)
(0.00313237 0.0044715 0.00436527)
(-0.00211117 0.000692255 0.00404967)
(0.000364495 0.00294289 0.00424433)
(-0.0017362 0.00123669 0.00416841)
(-0.00121581 0.00200684 0.00425272)
(-0.00182264 0.0015521 0.00426212)
(-0.00198242 0.00160328 0.00430835)
(-0.00218877 0.00154942 0.00434589)
(-0.00235888 0.00152162 0.00438381)
(-0.00250133 0.00150162 0.00442065)
(-0.00262076 0.00148687 0.00445662)
(-0.00272097 0.00147584 0.00449186)
(-0.00280623 0.00146763 0.00452571)
(-0.00287901 0.00146129 0.00455826)
(-0.00294062 0.00145655 0.00458967)
(-0.00299285 0.00145342 0.00462029)
(-0.00303702 0.00145129 0.0046508)
(-0.0030745 0.00144983 0.00468101)
(-0.00310633 0.00144896 0.0047108)
(-0.00313337 0.00144854 0.00474012)
(-0.00315632 0.00144849 0.00476896)
(-0.00317581 0.00144878 0.00479735)
(-0.0031923 0.00144933 0.00482531)
(-0.0032062 0.00145012 0.00485285)
(-0.00321791 0.00145112 0.00487991)
(-0.00322772 0.00145233 0.00490647)
(-0.00323594 0.00145376 0.00493252)
(-0.00324282 0.00145541 0.00495805)
(-0.00324848 0.00145728 0.00498305)
(-0.00325312 0.00145942 0.00500749)
(-0.003257 0.00146211 0.0050314)
(-0.00326025 0.00146522 0.0050548)
(-0.00326293 0.00146885 0.00507778)
(-0.00326499 0.00152373 0.00509971)
(-0.00327527 0.00110022 0.00511912)
(-0.00325112 0.00259827 0.00515228)
(-0.00329897 -0.000677802 0.0051475)
(-0.00324523 0.00515083 0.00521343)
(-0.00330532 -0.00382712 0.00516399)
(-0.00326699 0.00906198 0.00528672)
(-0.00328057 -0.00818433 0.00516389)
(-0.003322 0.0142053 0.00539671)
(-0.00320914 -0.0135636 0.00512839)
(-0.00340176 0.0204971 0.00567176)
(-0.00306068 -0.0198364 0.00498529)
(-0.00339392 0.0280921 0.00683511)
(-0.00272076 -0.0272909 0.00461642)
(-0.00276532 0.0377886 0.0120974)
(-0.00150479 -0.0383414 0.00571067)
(0.000202469 0.0482073 0.0309216)
(0.00644457 -0.0695155 0.024307)
(0.00371356 0.0638476 0.0723384)
(0.00791075 -0.17458 0.0236196)
(-0.0474532 0.201032 -0.145766)
(0.0318819 -0.0310828 0.0632719)
(0.0183744 0.496358 0.143266)
(-0.00385403 0.62943 0.0120383)
(-0.00933464 0.596162 0.0288198)
(-0.0128138 0.646125 0.0330616)
(-0.000858542 0.611083 0.0480536)
(0.0007855 0.630057 0.0536271)
(0.000984525 0.617807 0.048211)
(-0.00580309 0.631352 0.0148157)
(-0.00733267 0.638555 0.00106814)
(-0.00793592 0.644374 0.000452159)
(-0.00519374 0.634678 0.00669547)
(-0.0024658 0.638406 0.0187037)
(-0.000785098 0.639461 0.0210422)
(-0.00100834 0.629117 0.0191937)
(-0.00133241 0.626937 0.0151612)
(-0.00185136 0.628711 0.0132694)
(-0.00178933 0.622597 0.0130891)
(-0.00176947 0.622672 0.0135846)
(-0.00198043 0.619668 0.0135861)
(-0.00179128 0.617921 0.0129242)
(-0.00224492 0.615848 0.0117647)
(-0.00222785 0.609835 0.00989197)
(-0.0026637 0.614717 0.00789331)
(-0.00322654 0.611808 0.005049)
(-0.00450734 0.611173 0.000153902)
(-0.00552928 0.616169 -0.0037923)
(-0.00664889 0.619025 -0.00701416)
(-0.00757434 0.626329 -0.00817645)
(-0.00792438 0.640799 -0.00706423)
(-0.00803427 0.642895 -0.00544215)
(-0.00835807 0.635788 -0.00358586)
(-0.00941639 0.631798 -0.00521631)
(-0.0113071 0.620751 -0.0132008)
(-0.0162434 0.598002 -0.0316509)
(-0.0247091 0.570006 -0.0582951)
(-0.0304929 0.533841 -0.0804745)
(-0.00970634 0.00418995 0.000990089)
(0.0185563 0.00975275 0.00564928)
(-0.0103492 -0.00204927 0.00126838)
(0.0066813 0.00800159 0.00286831)
(-0.00779577 -0.0019574 0.00171635)
(0.000686169 0.00530533 0.00226727)
(-0.00636647 -0.000677918 0.00189204)
(-0.0027047 0.00333517 0.00211574)
(-0.00577895 0.000477266 0.0019821)
(-0.00468561 0.00213187 0.0020817)
(-0.00569624 0.00123095 0.00205112)
(-0.00571939 0.00156351 0.00208823)
(-0.00597394 0.00147853 0.00210099)
(-0.00615649 0.00148281 0.00211871)
(-0.00631024 0.00148605 0.00213555)
(-0.00644049 0.00149021 0.00215194)
(-0.00655139 0.0014948 0.00216797)
(-0.00664503 0.00149971 0.00218419)
(-0.00672421 0.00150443 0.00220059)
(-0.00679201 0.00150871 0.00221686)
(-0.00685023 0.00151268 0.00223293)
(-0.00690053 0.00151635 0.00224881)
(-0.00694405 0.00151973 0.0022646)
(-0.00698184 0.00152281 0.00228031)
(-0.0070147 0.00152563 0.00229595)
(-0.00704334 0.00152823 0.00231153)
(-0.00706834 0.00153065 0.0023271)
(-0.00709019 0.00153291 0.00234266)
(-0.00710927 0.00153505 0.00235823)
(-0.00712596 0.0015371 0.00237378)
(-0.00714056 0.00153911 0.00238931)
(-0.00715333 0.00154109 0.00240483)
(-0.0071645 0.0015431 0.00242035)
(-0.00717428 0.00154502 0.00243585)
(-0.00718293 0.00154731 0.00245136)
(-0.00719061 0.00154989 0.00246689)
(-0.00719746 0.00155245 0.00248247)
(-0.00720371 0.00155576 0.00249824)
(-0.00720897 0.00160422 0.00251374)
(-0.00722906 0.00119668 0.00252875)
(-0.00719376 0.00266534 0.00254929)
(-0.00727883 -0.000580127 0.00255189)
(-0.00719017 0.00520573 0.00259268)
(-0.007312 -0.00372685 0.0025682)
(-0.00724009 0.0090877 0.00264632)
(-0.00730991 -0.00807298 0.00257312)
(-0.00737654 0.0141871 0.0027279)
(-0.00725996 -0.0134422 0.0025517)
(-0.00762693 0.0204538 0.00293817)
(-0.00716538 -0.0197449 0.00243359)
(-0.00787785 0.0281395 0.00397296)
(-0.00714257 -0.0273469 0.00198471)
(-0.00692149 0.0381554 0.00933195)
(-0.00734727 -0.038773 0.00326145)
(0.000989311 0.0482519 0.0306998)
(-0.0010302 -0.0672228 0.0258796)
(0.0206571 0.0606048 0.0831256)
(-0.004057 -0.183001 0.0550052)
(-0.0673654 0.165508 -0.166095)