/*--------------------------------*- C++ -*----------------------------------*\
| =========                 |                                                 |
| \\      /  F ield         | OpenFOAM: The Open Source CFD Toolbox           |
|  \\    /   O peration     | Version:  2.3.0                                 |
|   \\  /    A nd           | Web:      www.OpenFOAM.org                      |
|    \\/     M anipulation  |                                                 |
\*---------------------------------------------------------------------------*/
FoamFile
{
    version     2.0;
    format      ascii;
    class       volVectorField;
    location    "1";
    object      U.airMean;
}
// * * * * * * * * * * * * * * * * * * * * * * * * * * * * * * * * * * * * * //

dimensions      [0 1 -1 0 0 0 0];

internalField   nonuniform List<vector> 
6144
(
(0.000841309 0.0073762 -6.72329e-05)
(0.000859997 0.00529579 -0.000328971)
(0.0009256 0.00456089 -0.000583329)
(0.000921944 0.00392244 -0.000694038)
(0.000907021 0.00342704 -0.000748452)
(0.000887583 0.00304739 -0.000773858)
(0.000866979 0.00274566 -0.000786591)
(0.000848372 0.00250184 -0.000791982)
(0.000831928 0.00230245 -0.000793799)
(0.000817659 0.00213834 -0.00079389)
(0.000805385 0.00200281 -0.000793191)
(0.000794835 0.00189073 -0.000792209)
(0.000785845 0.001798 -0.000791089)
(0.000778213 0.00172131 -0.000789909)
(0.000771726 0.00165792 -0.000788722)
(0.000766206 0.00160563 -0.00078756)
(0.000761507 0.00156259 -0.000786434)
(0.000757513 0.00152725 -0.000785338)
(0.000754118 0.00149828 -0.000784268)
(0.000751223 0.00147457 -0.000783223)
(0.000748734 0.00145521 -0.000782197)
(0.000746584 0.00143943 -0.000781191)
(0.000744715 0.00142663 -0.000780201)
(0.000743069 0.00141629 -0.000779228)
(0.000741606 0.00140797 -0.000778272)
(0.000740296 0.00140135 -0.000777335)
(0.000739116 0.00139619 -0.000776419)
(0.000738057 0.00139228 -0.000775521)
(0.000737096 0.00138947 -0.000774629)
(0.000736193 0.00138756 -0.000773726)
(0.000735319 0.00138639 -0.000772791)
(0.000734452 0.00138585 -0.000771817)
(0.000733571 0.00138577 -0.000770816)
(0.00073269 0.00138649 -0.000769822)
(0.000731832 0.00138807 -0.000768854)
(0.000730979 0.00139018 -0.000767893)
(0.000730125 0.0013929 -0.000766932)
(0.000729282 0.00139624 -0.000765967)
(0.000728471 0.00140014 -0.000764992)
(0.000727747 0.00140443 -0.000764002)
(0.000727133 0.00141973 -0.000763062)
(0.000726078 0.00134772 -0.000762287)
(0.000728991 0.00163928 -0.000760405)
(0.000722546 0.000909937 -0.000761212)
(0.00073759 0.00242059 -0.000758056)
(0.000718259 -0.000275406 -0.000759421)
(0.000757258 0.00408781 -0.00075947)
(0.000721687 -0.00253544 -0.000752947)
(0.000790017 0.00686214 -0.000769012)
(0.000782715 -0.00625728 -0.000733603)
(0.000894008 0.0111084 -0.000766864)
(0.000947278 -0.0124889 -0.000720731)
(0.00140107 0.0176296 -0.000630537)
(0.00168514 -0.0237133 -0.000543526)
(0.00313475 0.0263718 -3.64064e-06)
(0.00493095 -0.045032 0.000701055)
(0.00966345 0.0328718 0.00452023)
(0.0178415 -0.100442 0.00986045)
(-0.0378083 0.125182 -0.0445301)
(-0.0300645 -0.0543045 -0.031834)
(0.00253911 0.463008 0.00110438)
(0.0184801 0.567759 0.0142354)
(0.00254915 0.359947 0.00274337)
(0.00905032 0.455662 -0.000312008)
(0.00521647 0.334445 -0.00211736)
(0.00153298 0.413789 -0.00127563)
(0.002744 0.321305 -0.00141195)
(0.00141318 0.374743 -0.00157165)
(0.0019505 0.30711 -0.00155067)
(0.00163165 0.343449 -0.00144936)
(0.0017943 0.291457 -0.00153814)
(0.00169494 0.312536 -0.00142332)
(0.00176618 0.278012 -0.00150119)
(0.00167226 0.284766 -0.00143706)
(0.0017039 0.260728 -0.00148039)
(0.00162812 0.260361 -0.00143834)
(0.00162668 0.241394 -0.00145459)
(0.00157069 0.235603 -0.00142968)
(0.00154093 0.22532 -0.00142908)
(0.00149921 0.214068 -0.0014147)
(0.00145326 0.204697 -0.00140228)
(0.0014115 0.196226 -0.0013918)
(0.00136774 0.185306 -0.0013812)
(0.00132769 0.178418 -0.00137221)
(0.00128677 0.169421 -0.0013643)
(0.00124919 0.161338 -0.00135862)
(0.00120777 0.153318 -0.00135251)
(0.00116506 0.146004 -0.001348)
(0.00111812 0.139735 -0.00134354)
(0.0010731 0.13618 -0.00134228)
(0.00102155 0.13032 -0.00134209)
(0.000957552 0.127423 -0.00133882)
(0.000905024 0.126714 -0.00133679)
(0.000845842 0.122934 -0.00133492)
(0.000790341 0.127393 -0.00133744)
(0.000757715 0.124693 -0.00134005)
(0.00215261 0.0084802 0.000710399)
(0.00219713 0.00561032 0.000366911)
(0.00229931 0.00480478 4.02049e-06)
(0.00225939 0.00406931 -0.000141099)
(0.00219168 0.00353858 -0.000212536)
(0.00212142 0.00314304 -0.000244821)
(0.00205314 0.002833 -0.000260231)
(0.00199169 0.00258472 -0.000267197)
(0.00193736 0.00238252 -0.000269987)
(0.00189006 0.00221662 -0.000270713)
(0.00184928 0.00207992 -0.000270324)
(0.00181423 0.00196703 -0.000269425)
(0.00178416 0.00187373 -0.000268292)
(0.00175835 0.00179665 -0.000267033)
(0.00173615 0.00173305 -0.000265714)
(0.00171698 0.00168066 -0.000264377)
(0.00170041 0.00163761 -0.000263027)
(0.00168606 0.00160227 -0.000261664)
(0.00167356 0.00157332 -0.000260295)
(0.00166262 0.00154965 -0.000258925)
(0.00165295 0.00153033 -0.00025755)
(0.00164434 0.0015146 -0.00025618)
(0.0016366 0.00150185 -0.000254814)
(0.00162958 0.00149158 -0.000253452)
(0.00162315 0.00148339 -0.000252102)
(0.00161721 0.00147693 -0.000250763)
(0.00161165 0.0014719 -0.000249436)
(0.00160641 0.00146808 -0.00024812)
(0.00160142 0.00146529 -0.000246796)
(0.00159663 0.00146336 -0.00024546)
(0.00159198 0.00146219 -0.000244102)
(0.00158744 0.00146171 -0.000242721)
(0.00158296 0.0014619 -0.000241324)
(0.00157851 0.00146283 -0.000239938)
(0.00157406 0.00146444 -0.000238589)
(0.00156962 0.00146671 -0.000237265)
(0.00156517 0.00146966 -0.000235952)
(0.00156073 0.00147329 -0.000234647)
(0.00155635 0.00147753 -0.000233341)
(0.00155211 0.00148237 -0.000232018)
(0.00154833 0.001497 -0.00023075)
(0.00154301 0.00143014 -0.000229672)
(0.00154829 0.00171568 -0.000227369)
(0.00152864 0.000995828 -0.000228129)
(0.00156807 0.00250791 -0.00022396)
(0.00150766 -0.000199377 -0.000226306)
(0.0016277 0.00421851 -0.000221548)
(0.00149031 -0.00250204 -0.000222879)
(0.00174648 0.00713093 -0.000220078)
(0.00157021 -0.0062452 -0.000217329)
(0.00196007 0.0115641 -0.000194069)
(0.00192852 -0.0121956 -0.000292491)
(0.00228151 0.0185564 8.92455e-05)
(0.00316705 -0.0217865 -0.000791396)
(0.00295489 0.0305237 0.00214935)
(0.00613819 -0.0385247 -0.00129018)
(0.00902524 0.0527996 0.0125361)
(0.0127015 -0.0741955 0.00623816)
(0.0201018 0.202725 -0.0285388)
(-0.0326785 -0.0333268 -0.0432812)
(-0.0132542 0.392172 0.00289986)
(0.0181782 0.562738 0.00529369)
(0.0083472 0.321 0.00780584)
(0.0101839 0.442837 -0.00649827)
(0.00737062 0.333611 -0.00279579)
(0.00389086 0.409838 -0.00178926)
(0.00527109 0.323495 -0.000750697)
(0.00309869 0.376273 -0.00074807)
(0.00419935 0.310175 -0.000532654)
(0.00330841 0.345219 -0.000245818)
(0.00389831 0.294695 -0.000401078)
(0.00345736 0.314699 -0.000201088)
(0.00376002 0.277816 -0.000341415)
(0.0034378 0.284997 -0.000222303)
(0.00358827 0.259914 -0.000302384)
(0.00333657 0.258028 -0.000238027)
(0.00336365 0.24244 -0.000275093)
(0.00318759 0.236489 -0.000241241)
(0.00311026 0.223824 -0.000255724)
(0.00298793 0.214544 -0.000241746)
(0.00285318 0.204913 -0.000236115)
(0.00272925 0.193818 -0.000236539)
(0.00259768 0.181056 -0.000233323)
(0.00249021 0.178589 -0.00023195)
(0.00236494 0.169164 -0.000240174)
(0.00225463 0.162314 -0.000244931)
(0.00213443 0.155947 -0.000251569)
(0.00200782 0.148009 -0.000262978)
(0.00188516 0.141088 -0.000274049)
(0.00172915 0.135626 -0.00028494)
(0.00158987 0.132123 -0.000302333)
(0.00142458 0.128593 -0.000317026)
(0.00123215 0.126138 -0.00032629)
(0.00108388 0.127302 -0.000341075)
(0.000937361 0.127342 -0.000358464)
(0.000856773 0.126753 -0.000383519)
(0.00287281 0.00937827 0.00130311)
(0.00293171 0.00569099 0.00086632)
(0.0029961 0.00482026 0.000378177)
(0.0029156 0.00399698 0.000203162)
(0.00278803 0.00345237 0.000114418)
(0.00266773 0.00305798 7.15181e-05)
(0.00255026 0.00275265 5.18032e-05)
(0.00244661 0.00251304 4.33756e-05)
(0.00235534 0.00232022 4.03633e-05)
(0.00227627 0.00216338 3.9937e-05)
(0.00220808 0.00203503 4.07059e-05)
(0.00214963 0.00192956 4.21176e-05)
(0.00209951 0.00184266 4.38601e-05)
(0.00205643 0.00177107 4.57799e-05)
(0.00201932 0.00171212 4.77857e-05)
(0.00198727 0.00166366 4.98356e-05)
(0.00195953 0.00162388 5.19131e-05)
(0.00193546 0.00159126 5.40089e-05)
(0.00191446 0.00156457 5.61148e-05)
(0.001896 0.00154278 5.82265e-05)
(0.00187966 0.00152502 6.03358e-05)
(0.00186505 0.00151061 6.24427e-05)
(0.00185189 0.001499 6.45488e-05)
(0.00183992 0.00148968 6.66455e-05)
(0.00182892 0.00148225 6.87348e-05)
(0.00181872 0.00147639 7.08145e-05)
(0.00180916 0.00147186 7.28811e-05)
(0.00180011 0.00146845 7.49368e-05)
(0.00179146 0.00146598 7.69716e-05)
(0.00178314 0.00146436 7.89829e-05)
(0.00177509 0.00146346 8.09761e-05)
(0.00176724 0.00146324 8.29456e-05)
(0.00175952 0.00146366 8.48743e-05)
(0.00175187 0.0014647 8.67642e-05)
(0.00174422 0.00146638 8.86152e-05)
(0.00173656 0.0014687 9.04372e-05)
(0.00172887 0.00147171 9.22468e-05)
(0.00172117 0.00147545 9.40499e-05)
(0.00171354 0.00147987 9.58506e-05)
(0.00170606 0.0014851 9.76649e-05)
(0.00169901 0.00149975 9.94325e-05)
(0.00169131 0.00143678 0.000100882)
(0.00169186 0.00171724 0.000104363)
(0.00167319 0.00101261 0.00010228)
(0.00170796 0.00250836 0.00011113)
(0.00164829 -0.000161089 0.000102114)
(0.00178008 0.00422343 0.000120437)
(0.00162207 -0.00243017 9.95861e-05)
(0.00196593 0.00718773 0.000138982)
(0.00166401 -0.00614789 9.18657e-05)
(0.0023681 0.0118534 0.000196566)
(0.00201675 -0.0123329 4.25904e-05)
(0.00323596 0.0195357 0.000590264)
(0.00348615 -0.0232692 -9.51034e-05)
(0.00441964 0.0316773 0.0029371)
(0.00741307 -0.0438626 0.00143092)
(0.00511437 0.0483098 0.0106978)
(0.00421151 -0.0889175 0.0188384)
(-0.0163134 0.144095 -0.047009)
(0.00629882 -0.00104854 -0.0228193)
(0.0114778 0.356673 0.0202967)
(0.00819498 0.552371 -0.0113839)
(0.00986626 0.324181 -0.00318599)
(0.00278355 0.438153 -0.00645168)
(0.00231601 0.332824 -0.00341423)
(0.00291502 0.406722 -0.00208118)
(0.00520364 0.321509 -0.000332017)
(0.00321128 0.373419 -6.59061e-05)
(0.00491416 0.306581 2.78094e-06)
(0.0038099 0.339243 0.000512287)
(0.00467868 0.288021 0.000283668)
(0.00400359 0.308257 0.000590585)
(0.00449381 0.277007 0.000399193)
(0.00395852 0.284919 0.000569279)
(0.00422493 0.261156 0.000464402)
(0.00379507 0.258942 0.000547916)
(0.00387681 0.24252 0.000495096)
(0.00355972 0.235351 0.000527706)
(0.00346019 0.223745 0.000512244)
(0.0032692 0.214867 0.00052569)
(0.00305799 0.205079 0.000521183)
(0.00286662 0.196697 0.000519886)
(0.00267775 0.186697 0.000506933)
(0.00253282 0.178105 0.000488384)
(0.00234045 0.170548 0.000458514)
(0.00217169 0.161135 0.000429748)
(0.00200148 0.15492 0.00039998)
(0.00181593 0.149283 0.000362252)
(0.00160936 0.14067 0.000312784)
(0.00141051 0.135108 0.000265641)
(0.00116002 0.131677 0.00020566)
(0.000877255 0.128861 0.000153048)
(0.000598732 0.125085 0.000122554)
(0.00021651 0.126887 7.68894e-05)
(-2.62838e-05 0.130968 3.99571e-05)
(-0.000241622 0.125048 -2.34334e-05)
(0.00337097 0.0103777 0.00183092)
(0.0034999 0.00575706 0.00127855)
(0.00343604 0.00479514 0.000618374)
(0.00333611 0.00387658 0.000413027)
(0.0031197 0.00330576 0.000305451)
(0.00295652 0.00291955 0.000260605)
(0.00278523 0.00262539 0.000240737)
(0.00264149 0.00240285 0.000233167)
(0.00251401 0.00222535 0.000231056)
(0.00240435 0.00208309 0.00023149)
(0.00231014 0.00196756 0.00023309)
(0.00222965 0.00187311 0.000235217)
(0.00216081 0.0017956 0.000237645)
(0.00210177 0.00173199 0.000240249)
(0.00205093 0.00167981 0.000242945)
(0.00200703 0.00163701 0.000245683)
(0.00196899 0.00160194 0.000248444)
(0.0019359 0.00157324 0.000251212)
(0.00190697 0.00154981 0.000253983)
(0.00188148 0.00153072 0.000256755)
(0.00185885 0.00151522 0.000259516)
(0.00183858 0.00150268 0.000262269)
(0.00182029 0.0014926 0.000265012)
(0.00180361 0.00148454 0.000267745)
(0.00178827 0.00147814 0.000270469)
(0.00177402 0.00147314 0.000273186)
(0.00176067 0.0014693 0.00027589)
(0.00174804 0.00146646 0.000278576)
(0.00173601 0.00146446 0.000281245)
(0.00172444 0.00146322 0.000283882)
(0.00171326 0.00146262 0.000286467)
(0.00170236 0.00146263 0.000288974)
(0.00169166 0.00146322 0.000291361)
(0.00168107 0.00146438 0.000293636)
(0.00167051 0.00146612 0.000295828)
(0.00165993 0.00146847 0.000297978)
(0.00164931 0.00147149 0.000300109)
(0.00163864 0.00147524 0.000302228)
(0.00162797 0.00147978 0.000304329)
(0.00161738 0.00148532 0.000306438)
(0.00160712 0.00149998 0.000308497)
(0.00159648 0.00144073 0.000310193)
(0.00159249 0.00171637 0.000314149)
(0.00157329 0.0010285 0.000311601)
(0.00159911 0.00250486 0.000322766)
(0.00154465 -0.000115816 0.000309845)
(0.001658 0.00421761 0.000337233)
(0.00151676 -0.00231342 0.000300983)
(0.00181617 0.00718507 0.000375603)
(0.00155449 -0.00582811 0.000266867)
(0.00207976 0.0118286 0.000533859)
(0.00187594 -0.0111391 0.00014757)
(0.00239328 0.0195943 0.00148109)
(0.00295699 -0.0197708 0.000193545)
(0.0026274 0.0344599 0.00705693)
(0.00490081 -0.0389874 0.0043133)
(0.00347816 0.060112 0.0286464)
(0.00612107 -0.101698 0.0286083)
(-0.00378441 0.185722 -0.0743375)
(0.000800622 -0.0268174 0.00468869)
(0.00390307 0.399194 0.0360463)
(0.00909656 0.57174 -0.0122499)
(0.012249 0.396083 0.00107269)
(0.000369939 0.516782 -0.0110325)
(0.00458835 0.388435 0.00198907)
(0.00397499 0.430388 -0.00590472)
(0.00540691 0.345107 0.000958222)
(0.00401115 0.381887 -0.00157035)
(0.00535203 0.314643 0.000524427)
(0.00412027 0.34505 0.000808079)
(0.00511766 0.293847 0.00073833)
(0.00415784 0.31424 0.00116112)
(0.00480366 0.276283 0.000968327)
(0.00404375 0.285597 0.00114528)
(0.0044242 0.262331 0.00105348)
(0.00381892 0.259965 0.00112201)
(0.00391598 0.242002 0.00107217)
(0.00352174 0.234876 0.00109532)
(0.00332863 0.223633 0.00106573)
(0.00307316 0.214374 0.00107769)
(0.00278854 0.204239 0.00106903)
(0.00247479 0.19403 0.00105893)
(0.00220788 0.185651 0.00103377)
(0.00200622 0.178572 0.0010076)
(0.00177347 0.169523 0.000955681)
(0.00158521 0.161217 0.000897866)
(0.00137211 0.154755 0.000846313)
(0.00112865 0.14879 0.000778225)
(0.000884894 0.140046 0.000693991)
(0.000659916 0.134636 0.000614108)
(0.000307179 0.131263 0.000523844)
(-9.68783e-06 0.128731 0.000449932)
(-0.000338833 0.124906 0.00037966)
(-0.000820392 0.126563 0.00024529)
(-0.0011251 0.128559 0.000118036)
(-0.00143132 0.127318 -0.000143268)
(0.00368482 0.0112319 0.00232444)
(0.00400262 0.00576464 0.00170772)
(0.00359693 0.00466999 0.000836085)
(0.00356454 0.00370145 0.00061978)
(0.00317858 0.00309631 0.000488933)
(0.00301446 0.00274391 0.00044361)
(0.00277304 0.0024578 0.000421091)
(0.00259881 0.00226168 0.000413941)
(0.00243639 0.00210291 0.000412557)
(0.00229914 0.00197944 0.000414083)
(0.00218112 0.00188046 0.000416862)
(0.00208002 0.00180071 0.000420057)
(0.00199323 0.00173575 0.000423424)
(0.00191861 0.00168265 0.000426897)
(0.00185427 0.00163918 0.000430451)
(0.00179862 0.00160361 0.000434062)
(0.00175032 0.00157454 0.000437712)
(0.00170821 0.00155079 0.000441391)
(0.00167127 0.00153145 0.000445083)
(0.00163865 0.00151576 0.000448784)
(0.00160964 0.00150305 0.000452485)
(0.00158363 0.00149282 0.000456176)
(0.00156012 0.00148462 0.00045986)
(0.00153869 0.0014781 0.000463541)
(0.00151897 0.00147298 0.000467217)
(0.00150067 0.00146902 0.000470888)
(0.00148354 0.00146604 0.00047456)
(0.00146736 0.00146389 0.000478215)
(0.00145195 0.00146245 0.000481832)
(0.00143716 0.00146164 0.000485377)
(0.00142285 0.0014614 0.000488799)
(0.0014089 0.0014617 0.00049202)
(0.00139519 0.00146249 0.000494918)
(0.00138161 0.00146374 0.000497486)
(0.00136807 0.00146549 0.000499858)
(0.0013545 0.0014678 0.00050216)
(0.00134085 0.00147074 0.000504437)
(0.00132707 0.00147444 0.000506693)
(0.00131317 0.00147899 0.000508936)
(0.00129914 0.00148463 0.000511169)
(0.00128515 0.00149933 0.00051333)
(0.00127095 0.00144234 0.000515108)
(0.00125978 0.00171533 0.000519195)
(0.00124245 0.00103822 0.000516271)
(0.00124592 0.00250376 0.000528868)
(0.00121311 -8.77893e-05 0.000512839)
(0.00126515 0.00422302 0.000547034)
(0.00119071 -0.00226318 0.000499128)
(0.00135585 0.00724919 0.000596341)
(0.00122313 -0.00586341 0.000457254)
(0.00151367 0.0121721 0.000766703)
(0.00146996 -0.0119136 0.000334546)
(0.00149665 0.0206025 0.00151983)
(0.00217547 -0.02306 0.000187898)
(0.000562299 0.0340018 0.00466326)
(0.00183184 -0.0448556 0.00243858)
(0.00122071 0.051281 0.0128806)
(-0.0032327 -0.0975592 0.0224531)
(0.00246996 0.154265 -0.0538745)
(0.000267187 -0.00646643 -0.0171833)
(0.00711182 0.363189 0.0357283)
(0.0023943 0.559814 -0.0104872)
(0.00187791 0.428505 -0.00491209)
(0.00863563 0.53801 -0.000209055)
(0.00861212 0.447188 0.00178027)
(0.00432118 0.51864 0.000155081)
(0.00520344 0.457733 0.00111469)
(0.0043538 0.497601 0.00116628)
(0.00491878 0.4496 0.00144576)
(0.00427465 0.468399 0.00184521)
(0.00490683 0.42036 0.00176028)
(0.00409123 0.425087 0.00200038)
(0.00466554 0.389161 0.00189475)
(0.00387008 0.382528 0.00196571)
(0.00426407 0.353527 0.00194905)
(0.00354607 0.343754 0.00194267)
(0.00372949 0.313169 0.00191242)
(0.00316853 0.297589 0.00186752)
(0.00294784 0.26691 0.00181283)
(0.00262212 0.246641 0.00180422)
(0.00218046 0.228564 0.00173248)
(0.00194589 0.211671 0.00172075)
(0.0015768 0.195567 0.00156805)
(0.0013573 0.179926 0.001443)
(0.00113605 0.17036 0.00127066)
(0.000857908 0.160798 0.00109148)
(0.000534168 0.152688 0.000930856)
(0.000403728 0.145908 0.000762678)
(6.47423e-05 0.139572 0.000501142)
(-9.49865e-05 0.133867 0.00025892)
(-0.000575796 0.130095 -9.80448e-06)
(-0.00100517 0.126824 -0.000265522)
(-0.00153133 0.122057 -0.000318338)
(-0.00244483 0.124221 -0.000507808)
(-0.00318046 0.128148 -0.000604929)
(-0.0037394 0.124827 -0.000837062)
(0.00370911 0.011807 0.00280032)
(0.00451873 0.00569417 0.00226515)
(0.00335474 0.00440172 0.0011273)
(0.00362572 0.00349038 0.000959585)
(0.00287558 0.00279411 0.000777547)
(0.00281498 0.00254426 0.000745811)
(0.00244339 0.00224065 0.000718443)
(0.00226607 0.00209555 0.000714516)
(0.002062 0.00195509 0.000713911)
(0.00190099 0.00185707 0.000716522)
(0.00176169 0.0017776 0.000720208)
(0.00164732 0.00171446 0.000724482)
(0.00155092 0.00166371 0.000729177)
(0.00146857 0.00162281 0.000734096)
(0.00139781 0.00158974 0.000739115)
(0.00133675 0.00156293 0.000744168)
(0.00128385 0.00154115 0.000749217)
(0.00123777 0.0015235 0.000754239)
(0.00119742 0.00150923 0.000759226)
(0.00116188 0.00149769 0.000764176)
(0.00113037 0.00148844 0.000769063)
(0.00110221 0.00148107 0.000773862)
(0.00107685 0.00147524 0.000778578)
(0.00105382 0.00147067 0.000783216)
(0.00103274 0.00146714 0.000787775)
(0.00101325 0.00146448 0.000792259)
(0.000995095 0.00146255 0.000796663)
(0.000978032 0.00146124 0.000801)
(0.000961855 0.00146048 0.000805284)
(0.000946396 0.00146019 0.000809497)
(0.000931505 0.00146032 0.000813595)
(0.000917056 0.00146085 0.000817556)
(0.000902934 0.00146176 0.000821346)
(0.000889029 0.00146307 0.000824966)
(0.00087523 0.00146479 0.000828449)
(0.000861438 0.00146697 0.000831835)
(0.000847553 0.00146969 0.000835138)
(0.000833508 0.00147316 0.000838374)
(0.000819256 0.00147751 0.000841551)
(0.000804738 0.0014829 0.000844704)
(0.000789964 0.00149746 0.000847766)
(0.000775158 0.00144055 0.000850412)
(0.000759397 0.00171414 0.000855478)
(0.000747493 0.00103818 0.000852968)
(0.000728371 0.00250512 0.000867857)
(0.000724627 -7.83979e-05 0.000849594)
(0.000704538 0.00423011 0.00088991)
(0.000711948 -0.00221432 0.000832302)
(0.000705195 0.00726138 0.000940287)
(0.000724206 -0.0056695 0.00077507)
(0.000797426 0.0121563 0.00115415)
(0.000836437 -0.0111705 0.000611086)
(0.00112635 0.0206285 0.00247797)
(0.00140739 -0.0212832 0.000595857)
(0.00174939 0.0356196 0.00948149)
(0.00369863 -0.0441935 0.00473102)
(0.00274018 0.0521851 0.0293874)
(0.00266577 -0.0998477 0.0321272)
(-0.0155385 0.14968 -0.0742896)
(0.0240775 -0.0124125 0.00298125)
(0.0160428 0.379423 0.0372195)
(-0.0132832 0.583844 -0.0104952)
(-0.00402762 0.407197 0.00549884)
(0.000856617 0.525882 -0.00716983)
(0.00348811 0.448827 -0.000675726)
(0.00268541 0.51526 -0.00180974)
(0.00419941 0.458169 0.00250364)
(0.00327634 0.494955 0.00129545)
(0.00414076 0.458737 0.00319288)
(0.00328079 0.492685 0.00300109)
(0.00364037 0.468281 0.00335615)
(0.00303216 0.485906 0.00317322)
(0.00314997 0.456301 0.00329744)
(0.00274012 0.452046 0.0030036)
(0.00248586 0.43161 0.00311201)
(0.0023435 0.424858 0.00295583)
(0.00190075 0.390667 0.00291882)
(0.00182685 0.371857 0.00276299)
(0.00114192 0.358333 0.00268558)
(0.000897547 0.328975 0.00275979)
(0.00052996 0.310467 0.0026646)
(-8.26775e-05 0.296961 0.00268838)
(-0.000300666 0.276404 0.00256798)
(-0.000337794 0.257653 0.00254469)
(-0.00043622 0.238916 0.00235851)
(-0.00044067 0.221235 0.00210371)
(-0.00075726 0.200755 0.0019395)
(-0.000841278 0.180075 0.00161075)
(-0.000889763 0.163672 0.00125907)
(-0.00100304 0.144234 0.000794857)
(-0.00126309 0.131798 0.000376877)
(-0.00172572 0.125226 -3.37469e-05)
(-0.00228458 0.12123 -0.000425679)
(-0.00319981 0.116287 -0.00131533)
(-0.00403818 0.119976 -0.00225907)
(-0.00506341 0.125324 -0.00450957)
(0.00310597 0.0118822 0.00332541)
(0.00503087 0.00549191 0.00314307)
(0.00239253 0.00388061 0.00166566)
(0.00333647 0.00327767 0.00164396)
(0.00196531 0.00234349 0.00137389)
(0.00219136 0.00235377 0.00138315)
(0.00158667 0.00195266 0.00133931)
(0.00147441 0.00191976 0.00134641)
(0.00121566 0.0017775 0.00134692)
(0.00105157 0.0017181 0.00135438)
(0.000900672 0.0016656 0.00136155)
(0.000768976 0.0016285 0.00136498)
(0.000655939 0.00159543 0.0013678)
(0.000559623 0.00156791 0.0013711)
(0.000477486 0.0015456 0.00137494)
(0.000407227 0.00152763 0.00137921)
(0.000346869 0.00151317 0.00138379)
(0.000294746 0.00150157 0.0013886)
(0.000249454 0.00149232 0.00139359)
(0.0002098 0.001485 0.00139876)
(0.000174837 0.0014792 0.00140399)
(0.000143847 0.00147465 0.00140912)
(0.000116178 0.00147113 0.00141417)
(9.12654e-05 0.00146847 0.00141916)
(6.86495e-05 0.00146651 0.00142408)
(4.79425e-05 0.00146512 0.00142892)
(2.88114e-05 0.00146423 0.00143367)
(1.0994e-05 0.00146375 0.00143831)
(-5.73568e-06 0.00146363 0.0014428)
(-2.15847e-05 0.00146386 0.00144713)
(-3.67094e-05 0.00146441 0.00145132)
(-5.12558e-05 0.00146525 0.00145538)
(-6.53696e-05 0.00146639 0.0014593)
(-7.91706e-05 0.00146782 0.00146307)
(-9.27937e-05 0.00146957 0.0014667)
(-0.000106392 0.0014717 0.00147016)
(-0.00012009 0.00147429 0.00147346)
(-0.00013401 0.00147749 0.00147659)
(-0.000148261 0.0014814 0.00147955)
(-0.00016297 0.00148631 0.00148233)
(-0.000178317 0.00150092 0.00148489)
(-0.00019372 0.00144237 0.00148695)
(-0.000214585 0.00171963 0.00149096)
(-0.000220793 0.0010357 0.00148782)
(-0.000266725 0.0025164 0.00150076)
(-0.000236774 -8.91833e-05 0.00148162)
(-0.000344344 0.00425406 0.00152064)
(-0.000236139 -0.00225333 0.00145977)
(-0.000458334 0.00731802 0.00158003)
(-0.000225413 -0.00578514 0.00139443)
(-0.000610479 0.0123301 0.0018022)
(-0.00019748 -0.0116581 0.00120985)
(-0.000890182 0.021092 0.00296458)
(-9.09634e-05 -0.0225796 0.00100603)
(-0.0013006 0.0363469 0.00878225)
(0.00118847 -0.0461529 0.00363815)
(-0.00189268 0.0557989 0.0280393)
(0.00783914 -0.098466 0.0348893)
(-0.00804028 0.191746 -0.0704201)
(0.00357297 -0.032379 0.014621)
(-0.001786 0.4325 0.0313495)
(0.00425552 0.595978 -0.00927498)
(0.00966496 0.411879 0.00706046)
(-0.00277027 0.538365 -0.00419695)
(-0.000559087 0.446058 0.00442036)
(0.00298152 0.512796 0.000325197)
(0.00305922 0.451841 0.00526491)
(0.00311898 0.499966 0.00448005)
(0.00376049 0.455763 0.00674659)
(0.00253116 0.485503 0.00645356)
(0.00354898 0.481057 0.00758421)
(0.00189955 0.496629 0.00652339)
(0.00305223 0.481864 0.00745213)
(0.00140142 0.492945 0.00599362)
(0.00252377 0.48645 0.00716178)
(0.000701728 0.485974 0.00539829)
(0.00133346 0.485039 0.00629892)
(6.42095e-05 0.486058 0.00536918)
(-0.00044327 0.48473 0.00539574)
(-0.00138702 0.485139 0.00465371)
(-0.0019333 0.481848 0.00414218)
(-0.00214384 0.471845 0.00385244)
(-0.00246047 0.461 0.0026863)
(-0.00230776 0.453848 0.00218932)
(-0.00213551 0.445252 0.00097965)
(-0.00215453 0.438539 0.000125597)
(-0.00222873 0.408599 -0.000304319)
(-0.00143071 0.405746 -0.00101046)
(-0.00151284 0.3834 -0.00195232)
(-0.00107957 0.362605 -0.00244118)
(-0.00214346 0.312095 -0.00347352)
(-0.00301886 0.261009 -0.00431526)
(-0.00375628 0.195298 -0.0041705)
(-0.00528255 0.202616 -0.00459617)
(-0.00778653 0.220752 -0.00513956)
(-0.00832381 0.220567 -0.00546893)
(0.00149759 0.0108122 0.00355814)
(0.00555148 0.00520023 0.0038436)
(0.000204873 0.00296048 0.0021651)
(0.00235612 0.0031488 0.00232607)
(-7.78559e-05 0.0017271 0.0019859)
(0.000665292 0.00221492 0.00204689)
(-0.000304731 0.00157577 0.0019914)
(-0.000243241 0.00176863 0.00201624)
(-0.000595539 0.0015772 0.00201635)
(-0.000730127 0.00158557 0.00202973)
(-0.000887246 0.00153909 0.00204097)
(-0.0010148 0.00151423 0.00205763)
(-0.00112275 0.00149862 0.00207493)
(-0.00121318 0.00148839 0.00209177)
(-0.00128882 0.00148119 0.00210799)
(-0.00135209 0.00147591 0.00212367)
(-0.00140506 0.00147198 0.0021389)
(-0.00144977 0.00146908 0.00215354)
(-0.00148744 0.00146691 0.00216776)
(-0.00151916 0.00146535 0.0021815)
(-0.00154591 0.00146445 0.00219485)
(-0.00156843 0.00146403 0.00220803)
(-0.00158742 0.0014639 0.00222106)
(-0.00160346 0.00146404 0.0022339)
(-0.001617 0.00146438 0.00224653)
(-0.00162847 0.0014649 0.00225893)
(-0.00163819 0.00146557 0.00227111)
(-0.00164645 0.00146639 0.00228308)
(-0.00165347 0.00146733 0.00229485)
(-0.00165947 0.0014684 0.0023064)
(-0.00166464 0.00146959 0.00231771)
(-0.00166915 0.00147091 0.00232877)
(-0.00167315 0.00147237 0.00233959)
(-0.00167679 0.001474 0.00235015)
(-0.00168022 0.00147581 0.00236045)
(-0.00168361 0.00147786 0.00237052)
(-0.00168711 0.0014802 0.00238033)
(-0.00169088 0.00148294 0.00238992)
(-0.00169517 0.00148638 0.00239929)
(-0.0017002 0.00149054 0.00240847)
(-0.00170624 0.00150449 0.0024173)
(-0.00171311 0.00144119 0.00242578)
(-0.00172733 0.00172653 0.00243578)
(-0.00172362 0.00101879 0.00243947)
(-0.00177669 0.00253577 0.00245881)
(-0.00172198 -0.000136484 0.0024449)
(-0.00187662 0.00429933 0.00249396)
(-0.00170564 -0.0023426 0.002432)
(-0.00204065 0.00739665 0.00256863)
(-0.00171079 -0.00590982 0.00237112)
(-0.00224575 0.0124396 0.00280726)
(-0.00181192 -0.0117279 0.00216714)
(-0.0023703 0.0212553 0.0040835)
(-0.00209054 -0.0223104 0.00203285)
(-0.0015875 0.0374051 0.0113312)
(-0.00113692 -0.0461645 0.00597952)
(-0.000209724 0.0599518 0.0328786)
(0.0101098 -0.0988562 0.0304639)
(-0.00516645 0.208624 -0.0782752)
(-0.0160352 -0.0347384 0.0102794)
(-0.0144792 0.411585 0.0316355)
(0.0129463 0.586171 -0.0153857)
(0.0126098 0.429592 0.00115469)
(-0.006946 0.546203 0.00192583)
(-0.000962323 0.455689 0.00691818)
(-0.00449292 0.526379 0.00706133)
(-0.00194204 0.471655 0.00936698)
(-0.00227891 0.519336 0.0111197)
(-0.0012014 0.484036 0.0125593)
(-0.00119369 0.514656 0.0132722)
(-0.000848329 0.496091 0.013584)
(-0.00115261 0.513652 0.01311)
(-0.000715925 0.5082 0.0134615)
(-0.000948935 0.516895 0.0130587)
(-0.000311103 0.505498 0.0138097)
(-0.000376543 0.508046 0.0139681)
(0.000235442 0.507564 0.0150306)
(0.000496834 0.519643 0.0157241)
(0.000507498 0.514123 0.0158401)
(0.000772148 0.511159 0.0165299)
(0.00118112 0.493162 0.0167413)
(0.00141957 0.479508 0.0168837)
(0.00142902 0.470019 0.0164258)
(0.00120269 0.471014 0.0151754)
(0.000919584 0.472176 0.0137299)
(0.000257046 0.48157 0.0108972)
(-0.000209796 0.485208 0.00916556)
(-0.00077925 0.476017 0.00788436)
(-0.00125626 0.457821 0.00587019)
(-0.00191118 0.464427 0.00447404)
(-0.00246599 0.465446 0.0032195)
(-0.0037147 0.47355 -0.000811023)
(-0.00572492 0.482078 -0.00767542)
(-0.00905071 0.455279 -0.0191229)
(-0.0169543 0.482477 -0.0433308)
(-0.0251267 0.451347 -0.0684168)
(-0.000975747 0.00513742 0.0014609)
(0.00594683 0.00466196 0.00269449)
(-0.0022001 0.00113132 0.000855581)
(0.00144036 0.00316272 0.00126883)
(-0.002163 0.000822082 0.000846626)
(-0.000768839 0.00221052 0.000968644)
(-0.00223236 0.00113245 0.000863801)
(-0.00192724 0.00169982 0.000898523)
(-0.00245423 0.00136335 0.000878789)
(-0.00254123 0.0014959 0.000889736)
(-0.00273658 0.00144988 0.000891679)
(-0.0028654 0.0014609 0.000897304)
(-0.00297561 0.00146458 0.000902539)
(-0.00306808 0.00146914 0.000907866)
(-0.00314615 0.00147372 0.000913208)
(-0.00321232 0.00147811 0.000918545)
(-0.00326862 0.00148219 0.000923886)
(-0.00331638 0.00148594 0.000929409)
(-0.00335715 0.00148934 0.000934972)
(-0.00339211 0.0014924 0.000940575)
(-0.0034222 0.00149518 0.000946207)
(-0.00344824 0.00149772 0.000951822)
(-0.00347085 0.00150004 0.000957444)
(-0.00349054 0.00150216 0.00096309)
(-0.00350778 0.00150412 0.000968764)
(-0.00352293 0.00150593 0.000974471)
(-0.00353631 0.00150761 0.000980216)
(-0.0035482 0.0015092 0.000986003)
(-0.00355882 0.00151072 0.000991835)
(-0.00356835 0.00151217 0.000997709)
(-0.00357698 0.00151359 0.00100362)
(-0.00358486 0.001515 0.00100957)
(-0.00359213 0.00151641 0.00101555)
(-0.00359893 0.00151784 0.00102158)
(-0.00360543 0.00151932 0.00102765)
(-0.00361178 0.00152088 0.00103376)
(-0.00361818 0.00152247 0.0010399)
(-0.00362489 0.00152448 0.0010461)
(-0.00363211 0.00152684 0.00105236)
(-0.00364014 0.00152941 0.0010587)
(-0.00364937 0.00154192 0.001065)
(-0.00366001 0.00147366 0.00107158)
(-0.0036788 0.00176372 0.00107836)
(-0.00367835 0.00103502 0.0010831)
(-0.00374488 0.00257526 0.0010954)
(-0.00368465 -0.000148242 0.0010894)
(-0.00388179 0.00433705 0.0011222)
(-0.00368138 -0.00239626 0.00108192)
(-0.00412595 0.00741461 0.00117606)
(-0.00372863 -0.00603846 0.00103932)
(-0.00451187 0.0124387 0.00132677)
(-0.0039684 -0.0121303 0.00089659)
(-0.00509956 0.021276 0.00205271)
(-0.00497617 -0.0233865 0.000638533)
(-0.0048706 0.0368289 0.00536347)
(-0.00675844 -0.0482479 0.00193458)
(-0.00491801 0.0589085 0.0122041)
(-0.000322579 -0.114121 0.013339)
(-0.00107168 0.198953 -0.0445638)
(-0.0196315 -0.0268191 -0.0194084)
(-0.0154869 0.376848 0.0425772)