/*--------------------------------*- C++ -*----------------------------------*\
| =========                 |                                                 |
| \\      /  F ield         | OpenFOAM: The Open Source CFD Toolbox           |
|  \\    /   O peration     | Version:  2.3.0                                 |
|   \\  /    A nd           | Web:      www.OpenFOAM.org                      |
|    \\/     M anipulation  |                                                 |
\*---------------------------------------------------------------------------*/
FoamFile
{
    version     2.0;
    format      ascii;
    class       volVectorField;
    location    "1";
    object      Ur;
}
// * * * * * * * * * * * * * * * * * * * * * * * * * * * * * * * * * * * * * //

dimensions      [0 1 -1 0 0 0 0];

internalField   nonuniform List<vector> 
6144
(
(2.48014e-07 0.000707723 -7.75443e-08)
(2.51265e-07 0.000707457 -1.10935e-07)
(2.33447e-07 0.000707711 -1.84913e-07)
(2.37835e-07 0.0007077 -2.03228e-07)
(2.21703e-07 0.000707721 -2.15457e-07)
(2.19346e-07 0.000707728 -2.21742e-07)
(2.12441e-07 0.000707719 -2.23151e-07)
(2.10073e-07 0.000707699 -2.23284e-07)
(2.07239e-07 0.000707669 -2.21775e-07)
(2.05063e-07 0.000707635 -2.20293e-07)
(2.02299e-07 0.000707603 -2.20082e-07)
(1.99778e-07 0.000707574 -2.20049e-07)
(1.97684e-07 0.00070755 -2.19885e-07)
(1.95944e-07 0.000707532 -2.19697e-07)
(1.9442e-07 0.000707518 -2.1948e-07)
(1.93177e-07 0.000707508 -2.19265e-07)
(1.91937e-07 0.0007075 -2.19148e-07)
(1.9109e-07 0.000707496 -2.18981e-07)
(1.90195e-07 0.000707494 -2.18922e-07)
(1.8984e-07 0.000707494 -2.1875e-07)
(1.89263e-07 0.000707497 -2.18756e-07)
(1.89343e-07 0.000707502 -2.18592e-07)
(1.89034e-07 0.000707507 -2.18672e-07)
(1.89526e-07 0.000707515 -2.18503e-07)
(1.89433e-07 0.000707522 -2.18684e-07)
(1.90238e-07 0.000707531 -2.18551e-07)
(1.90119e-07 0.000707539 -2.18865e-07)
(1.91159e-07 0.000707548 -2.18724e-07)
(1.9114e-07 0.000707556 -2.19124e-07)
(1.92744e-07 0.000707563 -2.19095e-07)
(1.93095e-07 0.00070757 -2.19763e-07)
(1.95616e-07 0.000707577 -2.20123e-07)
(1.96764e-07 0.000707579 -2.21555e-07)
(1.99578e-07 0.000707578 -2.21671e-07)
(1.99597e-07 0.000707573 -2.21923e-07)
(2.01985e-07 0.000707564 -2.20821e-07)
(2.006e-07 0.000707547 -2.19113e-07)
(2.04037e-07 0.000707505 -2.1719e-07)
(2.06105e-07 0.000707691 -2.17601e-07)
(1.99227e-07 0.000706914 -2.22312e-07)
(2.13513e-07 0.000708249 -2.10599e-07)
(1.96871e-07 0.000706372 -2.14863e-07)
(1.98416e-07 0.000708526 -2.23492e-07)
(1.78706e-07 0.000706085 -2.1205e-07)
(2.08293e-07 0.000708402 -2.12458e-07)
(1.68427e-07 0.000706179 -1.92727e-07)
(2.02594e-07 0.000707462 -2.02104e-07)
(2.18504e-07 0.000706441 -1.57087e-07)
(2.47105e-07 0.000705734 -1.46437e-07)
(2.70396e-07 0.000707142 -1.3363e-07)
(3.22156e-07 0.000703203 4.23445e-08)
(4.88485e-07 0.000707465 6.84887e-08)
(2.7701e-07 0.000697496 5.15064e-07)
(1.3042e-08 0.000704541 1.4398e-06)
(-1.62698e-06 0.000694432 9.4234e-07)
(-8.7764e-06 0.000703227 -2.09982e-06)
(-2.66688e-05 0.000719137 -2.25145e-05)
(-4.58593e-05 0.000931517 -4.62275e-05)
(0.000497526 0.0116436 0.000286904)
(-0.00464865 0.210096 -0.00273399)
(0.0255412 0.564464 0.013652)
(0.0399859 0.305883 0.0267107)
(0.00015972 0.0295598 0.000191649)
(-0.0001101 0.00984275 -9.73324e-05)
(-7.66408e-05 0.0101391 -5.40659e-05)
(3.23027e-05 0.0101693 5.27985e-06)
(-7.5699e-06 0.0101259 -6.79701e-06)
(1.18232e-05 0.0101673 1.26361e-05)
(8.09852e-06 0.0101167 6.7683e-06)
(-5.79407e-06 0.0101857 -5.00359e-06)
(-6.23016e-07 0.0101315 -1.64829e-06)
(-1.73607e-06 0.0101773 -3.26658e-06)
(1.14604e-07 0.010135 -2.81874e-06)
(3.28644e-07 0.0101683 -2.88477e-06)
(1.0652e-06 0.010147 -2.97686e-06)
(1.11927e-06 0.0101711 -2.93923e-06)
(1.59374e-06 0.0101665 -3.06675e-06)
(1.7631e-06 0.0101762 -3.0649e-06)
(2.0749e-06 0.0101668 -3.09113e-06)
(2.30198e-06 0.0101653 -3.13622e-06)
(2.4768e-06 0.0101649 -3.18477e-06)
(2.5632e-06 0.0101621 -3.208e-06)
(2.62572e-06 0.0101618 -3.22659e-06)
(2.66384e-06 0.0101627 -3.24497e-06)
(2.67574e-06 0.010164 -3.26e-06)
(2.64948e-06 0.0101649 -3.26445e-06)
(2.56031e-06 0.0101652 -3.24413e-06)
(2.41224e-06 0.0101653 -3.19402e-06)
(2.22143e-06 0.0101657 -3.1174e-06)
(2.00298e-06 0.0101666 -3.01368e-06)
(1.79035e-06 0.0101518 -2.89936e-06)
(1.60675e-06 0.00998718 -2.80114e-06)
(1.39207e-06 0.00958022 -2.54571e-06)
(1.18321e-06 0.00920271 -2.31874e-06)
(1.0291e-06 0.00909173 -2.36912e-06)
(1.01113e-06 0.00909525 -2.3958e-06)
(6.62699e-07 0.000708074 1.40466e-07)
(7.29291e-07 0.000707553 8.89032e-08)
(5.97158e-07 0.000707782 -3.23324e-08)
(6.31923e-07 0.000707772 -5.89635e-08)
(5.62639e-07 0.000707784 -8.07795e-08)
(5.70459e-07 0.000707788 -8.60898e-08)
(5.393e-07 0.000707765 -8.94788e-08)
(5.32724e-07 0.000707739 -9.06981e-08)
(5.17635e-07 0.000707701 -9.1254e-08)
(5.07505e-07 0.000707666 -9.1406e-08)
(4.97792e-07 0.000707631 -9.14047e-08)
(4.89562e-07 0.0007076 -9.12865e-08)
(4.82571e-07 0.000707575 -9.10407e-08)
(4.76598e-07 0.000707556 -9.08173e-08)
(4.71361e-07 0.00070754 -9.04603e-08)
(4.66789e-07 0.000707529 -9.03128e-08)
(4.62752e-07 0.00070752 -8.9953e-08)
(4.59507e-07 0.000707515 -8.98796e-08)
(4.56786e-07 0.000707512 -8.9453e-08)
(4.54901e-07 0.000707513 -8.94634e-08)
(4.53379e-07 0.000707515 -8.897e-08)
(4.52688e-07 0.00070752 -8.90761e-08)
(4.52171e-07 0.000707526 -8.85307e-08)
(4.52481e-07 0.000707534 -8.87688e-08)
(4.52766e-07 0.000707544 -8.82086e-08)
(4.54326e-07 0.000707553 -8.86762e-08)
(4.56129e-07 0.00070756 -8.81297e-08)
(4.58863e-07 0.000707568 -8.87991e-08)
(4.61143e-07 0.000707576 -8.80606e-08)
(4.64441e-07 0.000707582 -8.87713e-08)
(4.67008e-07 0.000707588 -8.77725e-08)
(4.70544e-07 0.000707593 -8.85526e-08)
(4.73054e-07 0.000707595 -8.72714e-08)
(4.7672e-07 0.000707595 -8.81392e-08)
(4.7907e-07 0.00070759 -8.64325e-08)
(4.82912e-07 0.000707581 -8.73151e-08)
(4.82299e-07 0.000707564 -8.44979e-08)
(4.86958e-07 0.000707525 -8.48308e-08)
(4.94291e-07 0.0007077 -8.1833e-08)
(4.76803e-07 0.000706926 -8.97218e-08)
(5.06313e-07 0.000708291 -7.63986e-08)
(4.52518e-07 0.000706337 -8.88855e-08)
(4.93366e-07 0.000708614 -8.00326e-08)
(3.95204e-07 0.000706027 -7.87752e-08)
(5.10802e-07 0.000708549 -7.0691e-08)
(3.33553e-07 0.000706036 -6.6412e-08)
(4.95913e-07 0.000707694 -6.20356e-08)
(3.89766e-07 0.000706293 -1.97877e-08)
(5.69855e-07 0.000706016 1.6706e-08)
(5.30151e-07 0.000707033 -9.88153e-09)
(8.02291e-07 0.000703419 3.28218e-07)
(1.3334e-06 0.000707427 1.93752e-07)
(9.0864e-07 0.000697336 1.17048e-06)
(2.69108e-06 0.000703258 2.67423e-06)
(2.33347e-07 0.000688188 4.03574e-06)
(-6.1211e-06 0.000687974 4.84794e-06)
(-3.59831e-05 0.000616405 -8.78801e-07)
(-0.000101588 0.00208337 -5.77411e-06)
(0.000644062 0.0143668 -0.000653407)
(-0.00163862 0.14116 0.00759264)
(0.0193876 0.625916 -0.0230311)
(0.0267772 0.439474 -0.0388258)
(7.21249e-05 0.0278304 -0.00021759)
(-2.80334e-05 0.00954421 -1.9371e-05)
(-7.05765e-05 0.0102008 4.22546e-05)
(5.54558e-05 0.0102331 -4.35943e-05)
(-4.88211e-06 0.0100914 -4.14439e-05)
(2.9285e-06 0.0101822 1.84719e-05)
(-8.64752e-07 0.0101286 -2.66706e-06)
(-1.3103e-05 0.0101788 3.75986e-06)
(-6.82881e-06 0.0101395 -4.21022e-07)
(-5.1819e-06 0.0101778 -1.07849e-06)
(-1.24985e-06 0.0101375 -8.72718e-07)
(-3.64184e-07 0.0101691 -1.29109e-06)
(1.72133e-06 0.0101483 -1.09018e-06)
(1.63721e-06 0.0101721 -1.20667e-06)
(3.06745e-06 0.0101678 -1.18061e-06)
(3.49827e-06 0.0101774 -1.18386e-06)
(4.39921e-06 0.0101681 -1.12249e-06)
(4.97731e-06 0.0101664 -1.10641e-06)
(5.38093e-06 0.0101666 -1.04994e-06)
(5.62801e-06 0.0101642 -1.06902e-06)
(5.81655e-06 0.0101639 -1.07611e-06)
(5.94676e-06 0.0101648 -1.08321e-06)
(6.01011e-06 0.0101661 -1.09103e-06)
(5.98994e-06 0.0101669 -1.08558e-06)
(5.77586e-06 0.0101671 -1.05286e-06)
(5.31754e-06 0.0101671 -9.99389e-07)
(4.66791e-06 0.0101673 -9.3332e-07)
(3.88747e-06 0.010168 -8.41619e-07)
(3.11594e-06 0.0101518 -7.88533e-07)
(2.44324e-06 0.00998461 -8.35811e-07)
(2.01017e-06 0.00957607 -7.2248e-07)
(2.02513e-06 0.00919824 -3.71311e-07)
(2.16399e-06 0.00908704 -4.20152e-07)
(2.35738e-06 0.0090907 -3.88788e-07)
(8.68568e-07 0.000708238 3.2908e-07)
(1.11938e-06 0.000707509 2.61124e-07)
(7.78673e-07 0.000707756 7.53707e-08)
(9.09675e-07 0.000707759 5.87942e-08)
(7.0941e-07 0.000707752 2.10111e-08)
(7.75191e-07 0.000707771 1.71045e-08)
(6.92446e-07 0.000707732 1.00859e-08)
(6.96262e-07 0.000707712 8.13694e-09)
(6.65179e-07 0.000707669 6.6162e-09)
(6.5124e-07 0.000707636 6.09332e-09)
(6.35152e-07 0.000707601 6.00518e-09)
(6.22013e-07 0.000707572 6.15514e-09)
(6.10642e-07 0.000707548 6.42839e-09)
(6.00835e-07 0.000707529 6.76068e-09)
(5.92117e-07 0.000707514 7.07443e-09)
(5.84647e-07 0.000707504 7.40553e-09)
(5.7819e-07 0.000707496 7.71933e-09)
(5.73116e-07 0.000707492 8.05956e-09)
(5.68949e-07 0.000707491 8.38063e-09)
(5.66132e-07 0.000707492 8.75648e-09)
(5.63995e-07 0.000707495 9.08877e-09)
(5.63177e-07 0.000707501 9.49083e-09)
(5.62849e-07 0.000707507 9.82368e-09)
(5.64231e-07 0.000707515 1.02452e-08)
(5.65895e-07 0.000707523 1.05578e-08)
(5.68893e-07 0.000707532 1.10191e-08)
(5.71613e-07 0.000707541 1.13645e-08)
(5.75739e-07 0.00070755 1.18727e-08)
(5.79319e-07 0.000707559 1.2214e-08)
(5.84455e-07 0.000707567 1.27598e-08)
(5.88611e-07 0.000707574 1.30878e-08)
(5.94396e-07 0.000707579 1.37213e-08)
(5.98664e-07 0.000707583 1.4108e-08)
(6.04721e-07 0.000707583 1.4908e-08)
(6.08799e-07 0.00070758 1.54284e-08)
(6.14713e-07 0.000707572 1.63858e-08)
(6.15225e-07 0.000707556 1.6811e-08)
(6.21839e-07 0.000707517 1.85824e-08)
(6.26795e-07 0.000707687 2.0531e-08)
(6.19789e-07 0.000706925 1.33809e-08)
(6.28718e-07 0.000708261 2.73967e-08)
(5.79196e-07 0.00070634 1.18929e-08)
(6.2601e-07 0.000708568 2.34315e-08)
(4.91198e-07 0.000706032 2.70573e-08)
(6.33197e-07 0.000708492 3.91039e-08)
(3.5457e-07 0.000706025 3.21197e-08)
(6.22121e-07 0.000707727 7.17864e-08)
(2.94529e-07 0.000706329 5.13492e-08)
(6.55185e-07 0.00070613 1.75904e-07)
(4.26594e-07 0.000707114 6.55266e-08)
(9.25865e-07 0.000703772 6.34953e-07)
(1.6267e-06 0.00070779 2.28916e-07)
(1.53921e-06 0.000698397 2.36146e-06)
(6.44179e-06 0.000703897 3.42143e-06)
(6.55552e-06 0.000687716 7.27961e-06)
(1.4875e-05 0.000682298 1.11871e-05)
(4.03911e-06 0.000622235 7.01488e-06)
(1.49187e-05 0.00163517 1.09962e-05)
(0.000176192 0.0116469 -0.000427563)
(0.00793305 0.145103 0.0176962)
(-0.0040684 0.651618 -0.0269271)
(-0.0181172 0.379563 -0.0412558)
(-0.000154987 0.0272624 -8.58587e-05)
(3.31161e-05 0.00988783 5.071e-05)
(-3.09075e-05 0.0103271 6.60625e-05)
(1.45681e-06 0.010271 -0.000103985)
(-7.45449e-06 0.0100726 4.60472e-06)
(-2.70591e-05 0.0101649 3.69575e-06)
(-3.09043e-05 0.0101166 -2.97042e-05)
(-2.14874e-05 0.0101695 2.0115e-05)
(-1.70066e-05 0.0101388 -9.49098e-07)
(-1.00982e-05 0.0101779 2.08879e-06)
(-3.71277e-06 0.0101368 7.82867e-08)
(-2.78897e-06 0.0101674 1.49867e-07)
(8.78198e-07 0.0101467 -1.14802e-07)
(3.73656e-07 0.0101699 -4.4085e-07)
(2.86759e-06 0.0101657 -4.14221e-07)
(3.66798e-06 0.0101743 -4.78326e-07)
(5.17664e-06 0.0101651 -3.5197e-07)
(6.06644e-06 0.0101618 -3.05638e-07)
(6.57353e-06 0.0101619 -2.91365e-07)
(6.90042e-06 0.0101609 -2.00406e-07)
(7.19584e-06 0.0101602 -2.00086e-07)
(7.42379e-06 0.0101597 -2.17426e-07)
(7.55276e-06 0.0101599 -2.51345e-07)
(7.73059e-06 0.0101607 -2.6085e-07)
(7.68617e-06 0.010161 -2.09935e-07)
(7.09734e-06 0.0101604 -7.02352e-08)
(6.00705e-06 0.0101599 9.1892e-08)
(4.49474e-06 0.0101612 2.8712e-07)
(2.85599e-06 0.0101604 5.36938e-07)
(1.27935e-06 0.0100473 5.81015e-07)
(5.14073e-08 0.00966413 6.47294e-07)
(-6.07424e-07 0.00923175 9.29406e-07)
(-9.28785e-07 0.00908182 5.59862e-07)
(-6.29523e-07 0.00908607 4.9016e-07)
(9.54407e-07 0.000708455 5.02032e-07)
(1.59611e-06 0.000707516 4.49748e-07)
(6.75855e-07 0.000707681 8.34261e-08)
(1.22269e-06 0.00070777 1.51549e-07)
(6.55568e-07 0.000707705 7.03254e-08)
(9.52211e-07 0.00070779 8.58505e-08)
(7.13097e-07 0.000707694 6.88068e-08)
(7.90624e-07 0.000707709 6.9762e-08)
(7.22222e-07 0.000707648 6.65715e-08)
(7.15086e-07 0.000707624 6.6317e-08)
(6.91641e-07 0.000707587 6.61049e-08)
(6.74901e-07 0.00070756 6.6278e-08)
(6.59875e-07 0.000707537 6.66876e-08)
(6.46564e-07 0.000707519 6.70225e-08)
(6.35001e-07 0.000707506 6.75837e-08)
(6.25005e-07 0.000707496 6.79247e-08)
(6.16807e-07 0.00070749 6.85828e-08)
(6.10109e-07 0.000707487 6.88764e-08)
(6.05188e-07 0.000707487 6.96724e-08)
(6.01494e-07 0.000707489 6.995e-08)
(5.99474e-07 0.000707494 7.09485e-08)
(5.98364e-07 0.0007075 7.1138e-08)
(5.98903e-07 0.000707508 7.23229e-08)
(6.00242e-07 0.000707516 7.24586e-08)
(6.03225e-07 0.000707525 7.38974e-08)
(6.06465e-07 0.000707535 7.38715e-08)
(6.1126e-07 0.000707545 7.54837e-08)
(6.1599e-07 0.000707555 7.52102e-08)
(6.22328e-07 0.000707564 7.69961e-08)
(6.2822e-07 0.000707573 7.64551e-08)
(6.35765e-07 0.000707581 7.84826e-08)
(6.42421e-07 0.000707587 7.7796e-08)
(6.50783e-07 0.000707591 8.03557e-08)
(6.57651e-07 0.000707592 7.95959e-08)
(6.66373e-07 0.00070759 8.29169e-08)
(6.72581e-07 0.000707581 8.19122e-08)
(6.78865e-07 0.000707565 8.52322e-08)
(6.85792e-07 0.000707525 8.47704e-08)
(6.94284e-07 0.000707692 9.07019e-08)
(6.89098e-07 0.000706938 8.00785e-08)
(6.99216e-07 0.000708252 9.91293e-08)
(6.43602e-07 0.000706352 7.77019e-08)
(7.01436e-07 0.000708536 9.75527e-08)
(5.31783e-07 0.000706049 9.19783e-08)
(6.94398e-07 0.000708437 1.17198e-07)
(3.30685e-07 0.000706041 9.41736e-08)
(6.68599e-07 0.00070771 1.62377e-07)
(1.26344e-07 0.000706347 9.79288e-08)
(6.06454e-07 0.000706235 3.1058e-07)
(7.60687e-08 0.000707189 7.84482e-08)
(6.34847e-07 0.000704324 9.36264e-07)
(9.16072e-07 0.000707961 3.10736e-07)
(1.05628e-06 0.000700705 3.66527e-06)
(5.6877e-06 0.000706249 4.75332e-06)
(6.80741e-06 0.000693476 1.19932e-05)
(2.07248e-05 0.000691562 2.11213e-05)
(2.02824e-05 0.000675642 2.59896e-05)
(6.37814e-05 0.00165607 1.80711e-05)
(-2.60571e-05 0.0118493 -0.000594989)
(0.00432687 0.142061 0.0190578)
(-0.00369679 0.645213 -0.0277711)
(-0.00635068 0.384334 -0.0364754)
(-0.000530852 0.0272401 -0.00044378)
(0.000124524 0.0104442 0.000232751)
(0.000272764 0.0110673 9.8532e-05)
(-6.85766e-05 0.0103973 -7.61166e-05)
(-2.25782e-05 0.0101589 1.38668e-05)
(-4.29528e-05 0.0101799 1.05834e-05)
(-5.09082e-05 0.0101139 -3.09616e-05)
(-2.88192e-05 0.0101617 1.02037e-05)
(-2.73598e-05 0.0101344 -5.97577e-06)
(-1.23897e-05 0.0101814 -3.77671e-06)
(-6.4941e-06 0.0101414 -1.56768e-06)
(-3.76857e-06 0.0101744 -1.91129e-06)
(-8.80048e-07 0.0101565 -1.34202e-06)
(-1.05496e-06 0.0101814 -2.25484e-06)
(1.7191e-06 0.0101781 -1.86585e-06)
(3.47138e-06 0.0101892 -1.5319e-06)
(5.49563e-06 0.0101823 -7.56667e-07)
(6.42466e-06 0.0101773 -1.89618e-07)
(6.97808e-06 0.0101737 1.98503e-07)
(7.25978e-06 0.0101669 4.10294e-07)
(7.75056e-06 0.0101631 4.2278e-07)
(8.0699e-06 0.0101618 4.33188e-07)
(7.66455e-06 0.0101618 3.86034e-07)
(7.03836e-06 0.0101624 2.7188e-07)
(6.87178e-06 0.0101629 1.85196e-07)
(5.85853e-06 0.010163 1.9735e-07)
(4.29794e-06 0.0101633 3.5223e-07)
(2.27985e-06 0.0101656 6.63116e-07)
(3.70726e-07 0.0101698 1.0255e-06)
(-1.05404e-06 0.0100827 1.24135e-06)
(-1.14737e-06 0.00971307 1.59254e-06)
(-8.06679e-07 0.00924915 2.43304e-06)
(-6.35973e-07 0.00907654 2.08267e-06)
(-1.51106e-07 0.00908198 2.11061e-06)
(7.38618e-07 0.000708632 6.5676e-07)
(2.21717e-06 0.000707469 6.66797e-07)
(3.47331e-07 0.00070757 9.86354e-08)
(1.6132e-06 0.000707851 2.54234e-07)
(3.98294e-07 0.000707571 1.03808e-07)
(1.17996e-06 0.000707873 1.61089e-07)
(5.72141e-07 0.000707594 1.15925e-07)
(8.68594e-07 0.000707725 1.28541e-07)
(6.81221e-07 0.000707597 1.19368e-07)
(7.17417e-07 0.000707604 1.21205e-07)
(6.78034e-07 0.000707557 1.20094e-07)
(6.6e-07 0.000707535 1.20595e-07)
(6.40914e-07 0.000707514 1.2093e-07)
(6.23992e-07 0.000707498 1.21583e-07)
(6.09167e-07 0.000707487 1.22087e-07)
(5.96597e-07 0.00070748 1.22922e-07)
(5.86077e-07 0.000707476 1.23436e-07)
(5.77837e-07 0.000707475 1.24447e-07)
(5.7148e-07 0.000707477 1.2492e-07)
(5.67351e-07 0.000707481 1.26215e-07)
(5.64616e-07 0.000707487 1.26743e-07)
(5.63698e-07 0.000707495 1.28262e-07)
(5.63776e-07 0.000707504 1.28696e-07)
(5.65655e-07 0.000707514 1.30457e-07)
(5.68239e-07 0.000707525 1.30726e-07)
(5.72634e-07 0.000707536 1.3269e-07)
(5.77398e-07 0.000707547 1.3274e-07)
(5.84048e-07 0.000707558 1.34964e-07)
(5.90697e-07 0.000707569 1.34785e-07)
(5.99203e-07 0.000707579 1.37272e-07)
(6.07155e-07 0.000707588 1.36749e-07)
(6.17061e-07 0.000707596 1.39851e-07)
(6.26046e-07 0.000707601 1.39332e-07)
(6.37089e-07 0.000707603 1.43143e-07)
(6.46312e-07 0.000707601 1.43484e-07)
(6.57036e-07 0.000707593 1.48327e-07)
(6.64157e-07 0.000707577 1.47116e-07)
(6.75932e-07 0.000707537 1.53703e-07)
(6.82735e-07 0.000707703 1.54168e-07)
(6.85616e-07 0.000706951 1.51204e-07)
(6.92531e-07 0.000708251 1.63718e-07)
(6.4532e-07 0.000706362 1.50309e-07)
(6.93867e-07 0.000708508 1.64203e-07)
(5.22725e-07 0.000706053 1.63666e-07)
(6.57897e-07 0.000708364 1.82229e-07)
(2.75232e-07 0.000706038 1.68481e-07)
(5.61478e-07 0.000707638 2.30079e-07)
(-5.73232e-08 0.000706326 1.70016e-07)
(3.34699e-07 0.000706221 3.97843e-07)
(-4.12162e-07 0.000707135 1.56378e-07)
(-1.23437e-07 0.000704596 1.07383e-06)
(-5.30311e-07 0.000707832 4.06917e-07)
(-1.17602e-06 0.000701857 3.99244e-06)
(5.33361e-07 0.000707655 4.9281e-06)
(-1.19539e-06 0.000698144 1.2859e-05)
(4.66324e-06 0.000696562 2.37328e-05)
(3.48612e-06 0.000699372 4.42309e-05)
(2.52092e-05 0.0016132 4.51764e-05)
(-0.000168136 0.0118104 -0.000675547)
(0.0081436 0.145037 0.0224534)
(-0.0125184 0.698061 -0.0285749)
(-0.0264607 0.530145 -0.0333902)
(0.0239181 0.573245 -0.00988723)
(0.0151878 0.512558 0.00995235)
(-0.006453 0.433007 -0.00115942)
(-0.000150076 0.0300087 -3.42562e-05)
(-0.0001235 0.0102837 4.50908e-05)
(-0.000219897 0.0106559 -6.60985e-05)
(-0.000256603 0.0107354 -0.000360817)
(-0.000216223 0.0106468 4.73859e-06)
(-0.000111585 0.0103363 -1.7702e-05)
(-0.00010318 0.0102327 1.93817e-06)
(-4.34008e-05 0.0101148 -0.000137233)
(-5.92425e-05 0.0101281 2.79869e-06)
(-1.2199e-05 0.0101404 -0.000152278)
(-4.76172e-06 0.0102445 -1.17022e-06)
(-1.11458e-05 0.0103248 -6.69797e-06)
(-6.10372e-06 0.0102925 -5.03537e-06)
(1.76022e-06 0.0102073 -2.46539e-06)
(2.35687e-06 0.0102338 -1.19338e-06)
(6.08782e-06 0.0102809 -4.84185e-07)
(5.95603e-06 0.0102324 -2.79948e-07)
(7.11771e-06 0.0101739 -7.39675e-07)
(8.85923e-06 0.0101629 -8.90508e-07)
(1.13265e-05 0.0101617 -2.72309e-07)
(1.30995e-05 0.0101605 7.84617e-07)
(1.30548e-05 0.0101607 7.98108e-07)
(1.14592e-05 0.0101602 1.11403e-06)
(8.48536e-06 0.0101586 1.3639e-06)
(3.75277e-06 0.0101579 1.54927e-06)
(-2.05887e-06 0.0101536 1.97221e-06)
(-8.44085e-06 0.0100465 2.0789e-06)
(-1.06899e-05 0.00967176 1.72825e-06)
(-1.15829e-05 0.00923111 2.33999e-06)
(-1.05464e-05 0.00907352 1.88078e-06)
(-8.42342e-06 0.0090776 1.85025e-06)
(5.78552e-08 0.0007088 5.25641e-07)
(2.90205e-06 0.000707446 8.14798e-07)
(-3.29722e-07 0.00070732 1.35653e-07)
(1.89855e-06 0.000707962 3.65237e-07)
(-1.03777e-07 0.000707349 1.56165e-07)
(1.33885e-06 0.00070802 2.69161e-07)
(2.42724e-07 0.000707425 1.83785e-07)
(9.37521e-07 0.000707818 2.27027e-07)
(4.8084e-07 0.000707494 1.98677e-07)
(6.54258e-07 0.000707607 2.08011e-07)
(5.64674e-07 0.000707516 2.04008e-07)
(5.5629e-07 0.00070751 2.05877e-07)
(5.34604e-07 0.000707486 2.06801e-07)
(5.16028e-07 0.000707472 2.07957e-07)
(5.00033e-07 0.000707462 2.09446e-07)
(4.86481e-07 0.000707456 2.10672e-07)
(4.75465e-07 0.000707454 2.1238e-07)
(4.66759e-07 0.000707455 2.13657e-07)
(4.60455e-07 0.000707459 2.15692e-07)
(4.5625e-07 0.000707464 2.16959e-07)
(4.54095e-07 0.000707472 2.19271e-07)
(4.53266e-07 0.000707481 2.20496e-07)
(4.54232e-07 0.000707491 2.23092e-07)
(4.5643e-07 0.000707503 2.2416e-07)
(4.60388e-07 0.000707515 2.26988e-07)
(4.65269e-07 0.000707527 2.27824e-07)
(4.71819e-07 0.000707539 2.30961e-07)
(4.79017e-07 0.000707552 2.31739e-07)
(4.87833e-07 0.000707564 2.35513e-07)
(4.96886e-07 0.000707575 2.36108e-07)
(5.07446e-07 0.000707586 2.40287e-07)
(5.17898e-07 0.000707594 2.40302e-07)
(5.30012e-07 0.000707601 2.45018e-07)
(5.41648e-07 0.000707604 2.45247e-07)
(5.54343e-07 0.000707602 2.51196e-07)
(5.6521e-07 0.000707594 2.5126e-07)
(5.7629e-07 0.000707579 2.57779e-07)
(5.86726e-07 0.000707539 2.59456e-07)
(5.97334e-07 0.000707707 2.69356e-07)
(5.99999e-07 0.000706957 2.59459e-07)
(6.1385e-07 0.000708246 2.83723e-07)
(5.67278e-07 0.000706355 2.60427e-07)
(6.10444e-07 0.000708463 2.90037e-07)
(4.40108e-07 0.000706017 2.70949e-07)
(5.3486e-07 0.00070825 3.08411e-07)
(1.61817e-07 0.000705983 2.76074e-07)
(3.42339e-07 0.00070751 3.56385e-07)
(-2.70964e-07 0.000706216 2.75432e-07)
(-9.05482e-08 0.000706081 5.24423e-07)
(-9.09287e-07 0.000706844 2.62776e-07)
(-1.0734e-06 0.000704451 1.17573e-06)
(-1.98264e-06 0.000707066 4.54722e-07)
(-3.70395e-06 0.000701619 3.89101e-06)
(-4.76666e-06 0.000706385 4.11031e-06)
(-1.10649e-05 0.000696788 1.17806e-05)
(-1.68683e-05 0.00069441 1.90462e-05)
(-2.89558e-05 0.00068189 5.55326e-05)
(6.43487e-06 0.00203156 8.07344e-05)
(-0.00020124 0.0150971 -0.000688051)
(0.00659222 0.16966 0.0273871)
(-0.00319744 0.716784 -0.0374061)
(-0.00157649 0.467666 0.0114898)
(-0.00453153 0.571208 -0.016382)
(-0.00307039 0.552516 -0.0115415)
(-0.0052586 0.568254 0.00354635)
(0.000500732 0.508 0.0119865)
(-0.00659868 0.566187 -0.00260147)
(-0.00477823 0.515364 0.00079381)
(-0.00627708 0.554949 -0.00540112)
(-0.00434641 0.50207 -0.00415967)
(-0.00324064 0.475946 -0.00439342)
(-0.00104311 0.446613 -0.000441239)
(-0.000361828 0.524283 2.33654e-05)
(-0.000646095 0.42437 0.000281525)
(-2.85953e-05 0.0298251 -6.47302e-05)
(-2.0075e-05 0.0311288 -0.00010235)
(0.000112809 0.255235 -0.000256098)
(0.000255733 0.413164 -6.15732e-06)
(0.000317778 0.43853 0.000211159)
(0.000184959 0.352838 -5.64302e-05)
(7.44694e-06 0.0307827 -8.14225e-05)
(-2.36414e-05 0.0101017 -0.000154448)
(-2.01737e-05 0.0101784 -0.000163566)
(-3.21094e-05 0.00977608 -0.000173121)
(-3.72461e-05 0.00965264 -0.000190754)
(-4.70464e-05 0.00961636 -0.000195891)
(-5.24505e-05 0.00977735 -0.000199029)
(-4.71126e-05 0.0101908 -0.000198138)
(-4.94362e-05 0.0105582 -0.000202714)
(-3.93e-05 0.0105166 1.72357e-06)
(-3.68566e-05 0.0100712 4.29073e-06)
(-8.20086e-06 0.00950822 7.5684e-06)
(-6.07394e-06 0.00914039 7.77902e-06)
(1.4325e-06 0.00905829 8.37005e-06)
(4.99924e-07 0.00907067 6.47474e-06)
(-4.69182e-06 0.00907449 4.62998e-06)
(-1.06959e-06 0.000708715 5.1589e-07)
(3.38377e-06 0.00070765 9.17762e-07)
(-1.38033e-06 0.000706971 2.12944e-07)
(1.96046e-06 0.000708247 5.39947e-07)
(-8.45821e-07 0.000707045 2.87831e-07)
(1.2154e-06 0.000708247 4.50135e-07)
(-3.52346e-07 0.000707219 3.27207e-07)
(7.76631e-07 0.000707971 4.08756e-07)
(-1.54419e-08 0.000707336 3.53173e-07)
(4.00425e-07 0.000707677 3.8288e-07)
(1.72589e-07 0.000707451 3.61576e-07)
(2.03486e-07 0.000707502 3.69114e-07)
(1.74332e-07 0.000707469 3.6849e-07)
(1.52804e-07 0.000707458 3.70396e-07)
(1.344e-07 0.00070745 3.72079e-07)
(1.18835e-07 0.000707446 3.74139e-07)
(1.06148e-07 0.000707445 3.75991e-07)
(9.61787e-08 0.000707448 3.78498e-07)
(8.88013e-08 0.000707453 3.80718e-07)
(8.36803e-08 0.000707461 3.84199e-07)
(8.06838e-08 0.000707471 3.86974e-07)
(7.93756e-08 0.000707482 3.90247e-07)
(7.99316e-08 0.000707494 3.92377e-07)
(8.21634e-08 0.000707507 3.95809e-07)
(8.60297e-08 0.00070752 3.97748e-07)
(9.13078e-08 0.000707534 4.0142e-07)
(9.78832e-08 0.000707548 4.03151e-07)
(1.05484e-07 0.000707562 4.07016e-07)
(1.14056e-07 0.000707576 4.08404e-07)
(1.23589e-07 0.000707588 4.12683e-07)
(1.34043e-07 0.0007076 4.14122e-07)
(1.45342e-07 0.000707611 4.19161e-07)
(1.57268e-07 0.000707618 4.20815e-07)
(1.6972e-07 0.000707623 4.27081e-07)
(1.82106e-07 0.000707622 4.29115e-07)
(1.9404e-07 0.000707616 4.3634e-07)
(2.04603e-07 0.000707601 4.38073e-07)
(2.13921e-07 0.000707564 4.50388e-07)
(2.21836e-07 0.000707733 4.55746e-07)
(2.24493e-07 0.000706985 4.57154e-07)
(2.41575e-07 0.000708264 4.74087e-07)
(2.0007e-07 0.000706371 4.64018e-07)
(2.27759e-07 0.000708441 4.85703e-07)
(7.72419e-08 0.000705987 4.76763e-07)
(1.14522e-07 0.000708162 5.04165e-07)
(-2.03095e-07 0.000705901 4.88748e-07)
(-1.57065e-07 0.000707359 5.5113e-07)
(-6.75681e-07 0.000706023 4.95961e-07)
(-7.37215e-07 0.000705844 7.15606e-07)
(-1.4724e-06 0.000706404 4.72105e-07)
(-1.96682e-06 0.000704015 1.31529e-06)
(-3.0219e-06 0.000705883 6.32043e-07)
(-4.966e-06 0.000700176 3.75574e-06)
(-7.28082e-06 0.000702454 3.18839e-06)
(-1.57326e-05 0.000690923 9.10231e-06)
(-2.4695e-05 0.000684368 6.95446e-06)
(-5.01689e-05 0.000685245 2.10056e-05)
(-1.06925e-05 0.00232947 -1.09658e-05)
(-3.12704e-05 0.0168617 -0.00072387)
(0.00336417 0.179279 0.0300942)
(0.00747074 0.696886 -0.0341842)
(0.0111828 0.516625 -0.0251732)
(-0.0294896 0.588899 -0.00569469)
(0.00963303 0.500234 0.0247692)
(0.00421256 0.575349 -0.00228945)
(-0.001437 0.505622 0.0163156)
(-0.0108952 0.567661 -0.00229294)
(-0.00490147 0.513795 0.0058606)
(-0.0146813 0.565345 -0.0103783)
(-0.000646058 0.525711 0.00299333)
(-0.010625 0.558257 -0.0103974)
(0.00300876 0.533037 0.00487289)
(-0.0062956 0.55101 -0.00824928)
(0.00344115 0.537979 0.00166547)
(-0.00301336 0.544482 -0.00817848)
(0.00205969 0.540522 -0.00218991)
(-0.00103927 0.540845 -0.00447176)
(0.00021853 0.542074 -0.00144045)
(-4.29673e-05 0.546431 -0.00132418)
(0.000117091 0.539063 -0.000992208)
(0.000923174 0.5403 -0.00136868)
(0.00156357 0.547022 -0.00135429)
(0.00186966 0.53765 -0.00112424)
(0.00325907 0.541638 -0.00163216)
(0.00323622 0.54864 -0.000973255)
(0.00348804 0.539701 -0.000552373)
(0.00485585 0.545352 -0.000458175)
(0.00270988 0.550254 -3.68178e-05)
(0.000458963 0.541665 0.000266768)
(-0.00300197 0.538245 0.000912971)
(-0.00624213 0.535511 0.00130486)
(-0.00945637 0.533412 0.00151397)
(-0.00819716 0.527256 0.00121004)
(-0.00670132 0.5272 0.00153689)
(-0.00188658 0.476238 0.000784653)
(-0.000107903 0.0331233 -0.000116558)
(-2.50499e-06 0.000707655 6.18723e-07)
(3.85325e-06 0.000707834 7.31948e-07)
(-2.61628e-06 0.000706566 2.67081e-07)
(1.7369e-06 0.000708696 6.45741e-07)
(-1.69614e-06 0.000706777 4.10989e-07)
(8.71735e-07 0.000708523 5.93301e-07)
(-1.10263e-06 0.000707003 4.61112e-07)
(3.62671e-07 0.000708175 5.55256e-07)
(-7.49602e-07 0.000707166 4.87167e-07)
(-4.63238e-08 0.000707813 5.45006e-07)
(-4.92984e-07 0.000707351 5.10721e-07)
(-3.5513e-07 0.000707533 5.30192e-07)
(-4.11464e-07 0.000707459 5.26534e-07)
(-4.33979e-07 0.000707459 5.32803e-07)
(-4.52523e-07 0.000707455 5.37659e-07)
(-4.67652e-07 0.000707455 5.42457e-07)
(-4.79871e-07 0.000707458 5.47615e-07)
(-4.89108e-07 0.000707464 5.53183e-07)
(-4.96023e-07 0.000707472 5.59267e-07)
(-5.00577e-07 0.000707482 5.64026e-07)
(-5.03018e-07 0.000707493 5.69351e-07)
(-5.02851e-07 0.000707506 5.74255e-07)
(-5.00836e-07 0.00070752 5.79981e-07)
(-4.96563e-07 0.000707534 5.84774e-07)
(-4.90965e-07 0.000707549 5.90642e-07)
(-4.83397e-07 0.000707563 5.95322e-07)
(-4.75045e-07 0.000707578 6.01338e-07)
(-4.65074e-07 0.000707593 6.05707e-07)
(-4.54866e-07 0.000707607 6.11679e-07)
(-4.43089e-07 0.00070762 6.15928e-07)
(-4.31377e-07 0.000707633 6.22544e-07)
(-4.18184e-07 0.000707644 6.27248e-07)
(-4.05602e-07 0.000707652 6.35024e-07)
(-3.91865e-07 0.000707657 6.40609e-07)
(-3.79627e-07 0.000707657 6.49875e-07)
(-3.67056e-07 0.000707649 6.56012e-07)
(-3.57334e-07 0.000707632 6.65887e-07)
(-3.50105e-07 0.000707591 6.77853e-07)
(-3.4335e-07 0.000707762 6.93581e-07)
(-3.52111e-07 0.000707008 6.96565e-07)
(-3.19206e-07 0.000708298 7.21176e-07)
(-3.73792e-07 0.000706366 7.08263e-07)
(-3.47681e-07 0.000708448 7.42565e-07)
(-4.83918e-07 0.000705933 7.2422e-07)
(-4.86529e-07 0.000708115 7.68431e-07)
(-7.26239e-07 0.000705771 7.40891e-07)
(-7.96006e-07 0.000707233 8.23279e-07)
(-1.15106e-06 0.000705764 7.47388e-07)
(-1.40094e-06 0.000705576 9.91965e-07)
(-1.91652e-06 0.000705907 7.02953e-07)
(-2.39651e-06 0.00070349 1.58419e-06)
(-3.20903e-06 0.000704766 7.87839e-07)
(-3.62696e-06 0.000698821 3.77372e-06)
(-4.94632e-06 0.000698649 2.18499e-06)
(-5.32509e-06 0.000685734 5.90095e-06)
(-1.17184e-05 0.000672431 -1.13385e-05)
(-2.60308e-05 0.00069414 -3.53613e-05)
(-3.79328e-05 0.00291185 -0.000149744)
(1.03717e-06 0.0214136 -0.000385497)
(0.00503859 0.214635 0.0280907)
(-0.0104832 0.670896 -0.0341253)
(-0.0078284 0.558198 -0.0149206)
(-0.00478508 0.560293 0.0135858)
(0.00750211 0.529781 0.0212976)
(0.00205962 0.555704 0.0188693)
(0.00386268 0.5374 0.0195715)
(-0.000805773 0.539985 0.00273891)
(-0.00548505 0.534032 -0.0238175)
(-0.00694718 0.548178 -0.0288712)
(-0.00400649 0.545991 -0.0187912)
(-0.00271763 0.540912 -0.00853932)
(0.00143899 0.543409 0.00441495)
(0.000441323 0.54847 0.00288347)
(0.000850029 0.540089 0.00164453)
(-0.000688982 0.541608 -0.00244451)
(-0.000451176 0.545342 -0.00171879)
(-0.000884607 0.54149 -0.00142701)
(-0.000876431 0.543022 -0.000421404)
(-0.000449899 0.543409 -0.000350121)
(-0.000957455 0.543807 -0.00114171)
(-0.00068072 0.543738 -0.00185706)
(-0.000801431 0.541691 -0.00250813)
(-0.00100254 0.546726 -0.00308675)
(-0.00125512 0.544628 -0.00397423)
(-0.00174939 0.5433 -0.00539473)
(-0.0017564 0.546345 -0.00505273)
(-0.00169496 0.545566 -0.00373305)
(-0.00155368 0.547364 -0.00109766)
(-0.00107292 0.553793 0.00160318)
(-0.00114749 0.547214 0.00131114)
(-0.0018374 0.537168 2.14824e-05)
(-0.00317507 0.534899 -0.00490683)
(-0.00512251 0.532881 -0.014148)
(-0.00791735 0.528086 -0.0244461)
(-0.00865282 0.532699 -0.0268619)
(-0.00707578 0.52276 -0.0245485)
(-3.74695e-06 0.000705577 -1.04428e-06)
(3.79869e-06 0.000708733 4.55281e-07)
(-3.27047e-06 0.00070576 -1.15579e-07)
(1.56078e-06 0.000709292 3.61869e-07)
(-2.10465e-06 0.000706417 1.72273e-07)
(6.48306e-07 0.000708763 3.34967e-07)
(-1.51452e-06 0.000706701 2.36142e-07)
(8.20065e-08 0.000708298 3.20165e-07)
(-1.21832e-06 0.000706951 2.52746e-07)
(-3.40183e-07 0.000707927 3.06989e-07)
(-9.96558e-07 0.000707192 2.6877e-07)
(-7.06447e-07 0.000707584 2.95994e-07)
(-8.34443e-07 0.000707397 2.80248e-07)
(-8.50285e-07 0.000707428 2.86697e-07)
(-8.69862e-07 0.000707424 2.88545e-07)