/*--------------------------------*- C++ -*----------------------------------*\
| =========                 |                                                 |
| \\      /  F ield         | OpenFOAM: The Open Source CFD Toolbox           |
|  \\    /   O peration     | Version:  2.3.0                                 |
|   \\  /    A nd           | Web:      www.OpenFOAM.org                      |
|    \\/     M anipulation  |                                                 |
\*---------------------------------------------------------------------------*/
FoamFile
{
    version     2.0;
    format      ascii;
    class       volScalarField;
    location    "1";
    object      w2;
}
// * * * * * * * * * * * * * * * * * * * * * * * * * * * * * * * * * * * * * //

dimensions      [0 0 0 0 0 0 0];

internalField   nonuniform List<scalar> 
6144
(
0.452838
0.452838
0.452838
0.452838
0.452838
0.452838
0.452838
0.452838
0.452838
0.452838
0.452838
0.452838
0.452838
0.452838
0.452838
0.452838
0.452838
0.452838
0.452838
0.452838
0.452838
0.452838
0.452838
0.452838
0.452838
0.452838
0.452838
0.452838
0.452838
0.452838
0.452838
0.452838
0.452838
0.452838
0.452838
0.452838
0.452838
0.452838
0.452838
0.452838
0.452838
0.452838
0.452838
0.452838
0.452838
0.452838
0.452838
0.452838
0.452838
0.452838
0.452838
0.452838
0.452838
0.452838
0.452838
0.452838
0.452838
0.452838
0.444149
0.525604
0.0256107
2.83891e-05
7.77024e-06
0.0176576
0.00599311
0.010849
0.00411516
0.00310402
0.00352793
0.00347824
0.00404476
0.00427476
0.00439505
0.00490879
0.00597606
0.00696814
0.00995548
0.0129064
0.0247384
0.0413043
0.092261
0.412439
0.142921
0.12616
0.116158
0.113962
0.124061
0.137258
0.130728
0.0741878
0.0539965
0.00905458
0.00244553
0.00323669
0.0998902
0.000141248
0.452838
0.452838
0.452838
0.452838
0.452838
0.452838
0.452838
0.452838
0.452838
0.452838
0.452838
0.452838
0.452838
0.452838
0.452838
0.452838
0.452838
0.452838
0.452838
0.452838
0.452838
0.452838
0.452838
0.452838
0.452838
0.452838
0.452838
0.452838
0.452838
0.452838
0.452838
0.452838
0.452838
0.452838
0.452838
0.452838
0.452838
0.452838
0.452838
0.452838
0.452838
0.452838
0.452838
0.452838
0.452838
0.452838
0.452838
0.452838
0.452838
0.452838
0.452838
0.452838
0.452838
0.452838
0.452838
0.452838
0.452838
0.452843
0.454854
0.521601
0.163996
0.000140573
7.1339e-06
0.00162274
0.00445197
0.0457726
0.00905218
0.00508231
0.00382073
0.00401869
0.00383182
0.00425567
0.00430395
0.00484047
0.00603868
0.00685916
0.0103583
0.0125364
0.0276391
0.036429
0.067278
0.128727
0.0812543
0.0743798
0.0691789
0.0659318
0.0691455
0.0652908
0.0656801
0.128821
0.0156175
0.00367004
0.00293475
0.00838229
0.889252
0.00013647
0.452838
0.452838
0.452838
0.452838
0.452838
0.452838
0.452838
0.452838
0.452838
0.452838
0.452838
0.452838
0.452838
0.452838
0.452838
0.452838
0.452838
0.452838
0.452838
0.452838
0.452838
0.452838
0.452838
0.452838
0.452838
0.452838
0.452838
0.452838
0.452838
0.452838
0.452838
0.452838
0.452838
0.452838
0.452838
0.452838
0.452838
0.452838
0.452838
0.452838
0.452838
0.452838
0.452838
0.452838
0.452838
0.452838
0.452838
0.452838
0.452838
0.452838
0.452838
0.452838
0.452838
0.452838
0.452838
0.452838
0.452839
0.45275
0.472772
0.392902
0.760629
0.00103779
6.61977e-06
0.000843553
0.458225
0.00592658
0.00489385
0.00424305
0.0039088
0.00373162
0.00393072
0.00427126
0.00419567
0.00487876
0.00579383
0.00723644
0.00970774
0.0146771
0.0224028
0.0674396
0.207363
0.178922
0.236788
0.465776
0.404021
0.260729
0.11571
0.0879038
0.0762527
0.0505976
0.0110844
0.00352081
0.00306767
0.00936331
0.0651629
0.000141241
0.452838
0.452838
0.452838
0.452838
0.452838
0.452838
0.452838
0.452838
0.452838
0.452838
0.452838
0.452838
0.452838
0.452838
0.452838
0.452838
0.452838
0.452838
0.452838
0.452838
0.452838
0.452838
0.452838
0.452838
0.452838
0.452838
0.452838
0.452838
0.452838
0.452838
0.452838
0.452838
0.452838
0.452838
0.452838
0.452838
0.452838
0.452838
0.452838
0.452838
0.452838
0.452838
0.452838
0.452838
0.452838
0.452838
0.452838
0.452838
0.452838
0.452838
0.452838
0.452838
0.452838
0.452838
0.452838
0.452838
0.452838
0.45278
0.457196
0.493471
0.920077
0.0612169
8.83153e-05
1.61998e-05
7.39302e-06
0.00176343
0.00127096
0.0348416
0.00340576
0.00338337
0.00375912
0.00447547
0.00431613
0.00476962
0.00706827
0.00693855
0.0124213
0.0134297
0.0306624
0.0495535
0.0712638
0.164834
0.14843
0.16879
0.147041
0.063264
0.051434
0.0365125
0.0419339
0.0824514
0.0143485
0.00354871
0.00274861
0.00621323
0.0241635
0.000140012
0.452838
0.452838
0.452838
0.452838
0.452838
0.452838
0.452838
0.452838
0.452838
0.452838
0.452838
0.452838
0.452838
0.452838
0.452838
0.452838
0.452838
0.452838
0.452838
0.452838
0.452838
0.452838
0.452838
0.452838
0.452838
0.452838
0.452838
0.452838
0.452838
0.452838
0.452838
0.452838
0.452838
0.452838
0.452838
0.452838
0.452838
0.452838
0.452838
0.452838
0.452838
0.452838
0.452838
0.452838
0.452838
0.452838
0.452838
0.452838
0.452838
0.452838
0.452838
0.452838
0.452838
0.452838
0.452838
0.452838
0.452839
0.452806
0.45312
0.457778
0.238578
0.162729
0.0351905
0.071822
0.8238
0.999315
0.000130736
7.99066e-06
7.8129e-06
0.00043884
0.000353395
0.00100711
0.00108546
0.00247104
0.00126694
0.00309215
0.0115067
0.00220268
0.00170576
0.0740807
0.0393693
0.0704698
0.0344499
0.0252022
0.0961388
0.0289922
0.140254
0.151957
0.114651
0.354052
0.0454163
0.388314
0.00292433
0.00265593
0.0353087
0.00014249
0.452838
0.452838
0.452838
0.452838
0.452838
0.452838
0.452838
0.452838
0.452838
0.452838
0.452838
0.452838
0.452838
0.452838
0.452838
0.452838
0.452838
0.452838
0.452838
0.452838
0.452838
0.452838
0.452838
0.452838
0.452838
0.452838
0.452838
0.452838
0.452838
0.452838
0.452838
0.452838
0.452838
0.452838
0.452838
0.452838
0.452838
0.452838
0.452838
0.452838
0.452838
0.452838
0.452838
0.452838
0.452838
0.452838
0.452838
0.452838
0.452838
0.452838
0.452838
0.452838
0.452838
0.452838
0.452838
0.452838
0.452838
0.452838
0.453083
0.48312
0.273849
0.971879
0.929737
0.0300537
0.0024324
0.000641354
0.175511
0.0538676
0.00921516
0.00201998
0.00013591
1.2289e-05
0.000262925
2.13476e-05
0.000194169
7.86821e-06
6.86107e-05
1.3386e-05
1.15992e-05
8.25932e-06
0.000817253
0.000847718
0.00140305
0.00436814
0.00163693
0.00136612
0.00079194
0.000783035
0.0328542
0.00100369
0.000508516
0.000326936
0.000259279
0.000259779
0.0142766
0.000139942
0.452838
0.452838
0.452838
0.452838
0.452838
0.452838
0.452838
0.452838
0.452838
0.452838
0.452838
0.452838
0.452838
0.452838
0.452838
0.452838
0.452838
0.452838
0.452838
0.452838
0.452838
0.452838
0.452838
0.452838
0.452838
0.452838
0.452838
0.452838
0.452838
0.452838
0.452838
0.452838
0.452838
0.452838
0.452838
0.452838
0.452838
0.452838
0.452838
0.452838
0.452838
0.452838
0.452838
0.452838
0.452838
0.452838
0.452838
0.452838
0.452838
0.452838
0.452838
0.452838
0.452838
0.452838
0.452838
0.452838
0.452838
0.452938
0.450387
0.526398
0.172461
0.00392359
0.154499
0.264266
0.989533
0.732814
0.0895344
0.757201
0.887332
0.154816
0.174157
0.817724
0.203014
0.119157
0.122022
0.965875
0.757355
0.613203
0.0779454
0.257852
0.240873
0.937983
0.30018
0.226418
0.0769997
0.999832
0.000596751
0.21974
0.0406707
0.0367817
0.00605762
0.00363336
0.999756
0.999987
2.75799e-05
0.00012359
0.452838
0.452838
0.452838
0.452838
0.452838
0.452838
0.452838
0.452838
0.452838
0.452838
0.452838
0.452838
0.452838
0.452838
0.452838
0.452838
0.452838
0.452838
0.452838
0.452838
0.452838
0.452838
0.452838
0.452838
0.452838
0.452838
0.452838
0.452838
0.452838
0.452838
0.452838
0.452838
0.452838
0.452838
0.452838
0.452838
0.452838
0.452838
0.452838
0.452838
0.452838
0.452838
0.452838
0.452838
0.452838
0.452838
0.452838
0.452838
0.452838
0.452838
0.452838
0.452838
0.452838
0.452838
0.452838
0.452838
0.452839
0.452828
0.453751
0.527456
0.304584
0.999418
0.811045
0.39262
0.874643
0.458492
0.295427
0.420243
0.433956
0.260507
0.902662
0.306479
0.90604
0.976684
0.956906
0.369428
0.732152
0.964597
0.999997
0.649073
0.899474
0.419938
0.337512
0.983225
0.991288
0.598917
0.496122
0.256278
0.80478
0.300658
0.609477
0.380934
0.639493
0.289997
0.664581
0.983206
0.452838
0.452838
0.452838
0.452838
0.452838
0.452838
0.452838
0.452838
0.452838
0.452838
0.452838
0.452838
0.452838
0.452838
0.452838
0.452838
0.452838
0.452838
0.452838
0.452838
0.452838
0.452838
0.452838
0.452838
0.452838
0.452838
0.452838
0.452838
0.452838
0.452838
0.452838
0.452838
0.452838
0.452838
0.452838
0.452838
0.452838
0.452838
0.452838
0.452838
0.452838
0.452838
0.452838
0.452838
0.452838
0.452838
0.452838
0.452838
0.452838
0.452838
0.452838
0.452838
0.452838
0.452838
0.452838
0.452838
0.452843
0.45277
0.481491
0.529766
0.000507014
1.96109e-08
0.946668
0.995521
0.519565
0.129827
0.369549
0.999718
0.194506
0.301462
0.0250527
0.460342
0.844142
0.0439059
0.771066
0.0370531
0.334772
0.744397
0.809489
0.957991
0.4119
0.612239
0.538981
0.445984
0.619326
0.997356
0.255792
0.609987
0.0206238
0.0187981
0.00388776
0.420975
0.00819459
0.00674443
0.00403219
1.01902e-05
0.452838
0.452838
0.452838
0.452838
0.452838
0.452838
0.452838
0.452838
0.452838
0.452838
0.452838
0.452838
0.452838
0.452838
0.452838
0.452838
0.452838
0.452838
0.452838
0.452838
0.452838
0.452838
0.452838
0.452838
0.452838
0.452838
0.452838
0.452838
0.452838
0.452838
0.452838
0.452838
0.452838
0.452838
0.452838
0.452838
0.452838
0.452838
0.452838
0.452838
0.452838
0.452838
0.452838
0.452838
0.452838
0.452838
0.452838
0.452838
0.452838
0.452838
0.452838
0.452838
0.452838
0.452838
0.452838
0.452838
0.452838
0.452843
0.458537
0.530467
0.183562
0.95637
0.0244287
0.9984
0.836747
0.954408
0.0935392
0.0821246
0.0817232
0.0503343
0.00825298
0.0212257
0.0512411
0.0224831
0.081674
0.0216422
0.0624828
0.0577535
0.0289983
0.013362
0.015105
0.99813
0.000684269
0.610829
0.763696
0.123747
0.0248918
0.00184318
0.000136792
1.67468e-05
7.81246e-06
0.00047708
0.000316375
0.000326406
0.000442427
0.000122718
0.452838
0.452838
0.452838
0.452838
0.452838
0.452838
0.452838
0.452838
0.452838
0.452838
0.452838
0.452838
0.452838
0.452838
0.452838
0.452838
0.452838
0.452838
0.452838
0.452838
0.452838
0.452838
0.452838
0.452838
0.452838
0.452838
0.452838
0.452838
0.452838
0.452838
0.452838
0.452838
0.452838
0.452838
0.452838
0.452838
0.452838
0.452838
0.452838
0.452838
0.452838
0.452838
0.452838
0.452838
0.452838
0.452838
0.452838
0.452838
0.452838
0.452838
0.452838
0.452838
0.452838
0.452838
0.452838
0.452838
0.452838
0.452806
0.456659
0.519979
0.21436
0.0312686
0.0476506
0.923443
0.155875
0.99842
0.000229129
1.23486e-05
7.17993e-06
0.000796133
0.000593567
0.00187476
0.00117579
0.0115873
0.00453977
0.00483043
0.00815221
0.00336558
0.00561162
0.00210093
0.00143823
0.00126853
0.00300615
0.00146134
0.00108232
0.00118077
0.00140239
0.00489701
0.00199369
0.000986638
0.00817465
0.0211956
0.00318098
0.00312499
0.0189425
0.000142568
0.452838
0.452838
0.452838
0.452838
0.452838
0.452838
0.452838
0.452838
0.452838
0.452838
0.452838
0.452838
0.452838
0.452838
0.452838
0.452838
0.452838
0.452838
0.452838
0.452838
0.452838
0.452838
0.452838
0.452838
0.452838
0.452838
0.452838
0.452838
0.452838
0.452838
0.452838
0.452838
0.452838
0.452838
0.452838
0.452838
0.452838
0.452838
0.452838
0.452838
0.452838
0.452838
0.452838
0.452838
0.452838
0.452838
0.452838
0.452838
0.452838
0.452838
0.452838
0.452838
0.452838
0.452838
0.452838
0.452838
0.452838
0.453062
0.430182
0.537396
0.160678
0.00833605
4.89634e-05
9.94959e-06
7.3243e-06
0.0241435
0.0109464
0.00111059
0.00282268
0.00536675
0.00405622
0.0032513
0.00435896
0.00536689
0.00681107
0.0053926
0.0176738
0.00844378
0.128694
0.0156186
0.0169858
0.0367477
0.0493777
0.0336905
0.0288489
0.0346654
0.0505736
0.0399006
0.0402874
0.0302648
0.039026
0.0121137
0.0023752
0.00261621
0.022102
0.000140101
0.452838
0.452838
0.452838
0.452838
0.452838
0.452838
0.452838
0.452838
0.452838
0.452838
0.452838
0.452838
0.452838
0.452838
0.452838
0.452838
0.452838
0.452838
0.452838
0.452838
0.452838
0.452838
0.452838
0.452838
0.452838
0.452838
0.452838
0.452838
0.452838
0.452838
0.452838
0.452838
0.452838
0.452838
0.452838
0.452838
0.452838
0.452838
0.452838
0.452838
0.452838
0.452838
0.452838
0.452838
0.452838
0.452838
0.452838
0.452838
0.452838
0.452838
0.452838
0.452838
0.452838
0.452838
0.452838
0.452838
0.452838
0.452838
0.45312
0.59504
0.154335
0.014566
7.97508e-06
9.50564e-06
0.0174207
0.0280719
0.00558098
0.00445271
0.00375622
0.0037397
0.00402972
0.00380392
0.00459899
0.00481926
0.00622069
0.00647015
0.0104409
0.0117958
0.0269077
0.0384235
0.0628112
0.120021
0.0618743
0.0546067
0.0499323
0.0447978
0.0430614
0.0379642
0.0409655
0.0459818
0.0229074
0.00413284
0.00284704
0.00716381
0.0287282
0.000141945
0.452838
0.452838
0.452838
0.452838
0.452838
0.452838
0.452838
0.452838
0.452838
0.452838
0.452838
0.452838
0.452838
0.452838
0.452838
0.452838
0.452838
0.452838
0.452838
0.452838
0.452838
0.452838
0.452838
0.452838
0.452838
0.452838
0.452838
0.452838
0.452838
0.452838
0.452838
0.452838
0.452838
0.452838
0.452838
0.452838
0.452838
0.452838
0.452838
0.452838
0.452838
0.452838
0.452838
0.452838
0.452838
0.452838
0.452838
0.452838
0.452838
0.452838
0.452838
0.452838
0.452838
0.452838
0.452838
0.452838
0.452838
0.452838
0.452876
0.520218
0.190855
0.000664095
7.49659e-06
0.00265507
0.00314589
0.00849454
0.0175233
0.00558357
0.00457141
0.00379529
0.00403741
0.00385799
0.00494586
0.00483392
0.00628521
0.00625554
0.0108586
0.0106611
0.0334756
0.0254381
0.0415193
0.0522485
0.0372218
0.0340054
0.0335922
0.0328605
0.0347202
0.035607
0.0381997
0.0637324
0.0113602
0.00327096
0.00323652
0.01262
0.121426
0.000141182
0.452838
0.452838
0.452838
0.452838
0.452838
0.452838
0.452838
0.452838
0.452838
0.452838
0.452838
0.452838
0.452838
0.452838
0.452838
0.452838
0.452838
0.452838
0.452838
0.452838
0.452838
0.452838
0.452838
0.452838
0.452838
0.452838
0.452838
0.452838
0.452838
0.452838
0.452838
0.452838
0.452838
0.452838
0.452838
0.452838
0.452838
0.452838
0.452838
0.452838
0.452838
0.452838
0.452838
0.452838
0.452838
0.452838
0.452838
0.452838
0.452838
0.452838
0.452838
0.452838
0.452838
0.452838
0.452838
0.452838
0.452838
0.452806
0.454674
0.571751
0.111324
1e-05
7.67348e-06
0.00386721
0.00212755
0.00444167
0.00320151
0.00355061
0.00376968
0.00362985
0.00424228
0.00381221
0.00521323
0.00474122
0.00654148
0.0060075
0.0113893
0.00989335
0.0400668
0.0222215
0.0356732
0.0427685
0.0328127
0.030407
0.0304052
0.0319918
0.0348859
0.0354873
0.0355431
0.0480501
0.0137065
0.00340998
0.00319932
0.0125594
0.0515756
0.000141516
0.452838
0.452838
0.452838
0.452838
0.452838
0.452838
0.452838
0.452838
0.452838
0.452838
0.452838
0.452838
0.452838
0.452838
0.452838
0.452838
0.452838
0.452838
0.452838
0.452838
0.452838
0.452838
0.452838
0.452838
0.452838
0.452838
0.452838
0.452838
0.452838
0.452838
0.452838
0.452838
0.452838
0.452838
0.452838
0.452838
0.452838
0.452838
0.452838
0.452838
0.452838
0.452838
0.452838
0.452838
0.452838
0.452838
0.452838
0.452838
0.452838
0.452838
0.452838
0.452838
0.452838
0.452838
0.452838
0.452838
0.452838
0.452824
0.446051
0.516535
0.507722
0.000695691
0.00229919
0.00220421
0.00817127
0.00369053
0.00495726
0.00378837
0.00498145
0.00383402
0.00458679
0.00394937
0.00520816
0.00477601
0.00646232
0.0060461
0.0111073
0.0099674
0.0365503
0.0220352
0.0364151
0.0435802
0.0334034
0.0314917
0.0308511
0.0329078
0.0371576
0.038522
0.0362054
0.0428203
0.0150398
0.00341938
0.00316148
0.0126769
0.0480183
0.000141789
0.452838
0.452838
0.452838
0.452838
0.452838
0.452838
0.452838
0.452838
0.452838
0.452838
0.452838
0.452838
0.452838
0.452838
0.452838
0.452838
0.452838
0.452838
0.452838
0.452838
0.452838
0.452838
0.452838
0.452838
0.452838
0.452838
0.452838
0.452838
0.452838
0.452838
0.452838
0.452838
0.452838
0.452838
0.452838
0.452838
0.452838
0.452838
0.452838
0.452838
0.452838
0.452838
0.452838
0.452838
0.452838
0.452838
0.452838
0.452838
0.452838
0.452838
0.452838
0.452838
0.452838
0.452838
0.452838
0.452838
0.45284
0.452702
0.461013
0.517651
0.186994
0.000792634
7.00221e-06
0.00445888
0.00792811
0.00442067
0.00369471
0.00339732
0.00329795
0.00353454
0.00377942
0.00426215
0.00419087
0.00507667
0.00557809
0.00740717
0.0088834
0.0152865
0.018516
0.10223
0.309201
0.0737215
0.094129
0.0950779
0.0951403
0.0923302
0.0809279
0.0755849
0.0724745
0.0436694
0.0099319
0.00337023
0.00294276
0.00805886
0.0864948
0.000140657
0.452838
0.452838
0.452838
0.452838
0.452838
0.452838
0.452838
0.452838
0.452838
0.452838
0.452838
0.452838
0.452838
0.452838
0.452838
0.452838
0.452838
0.452838
0.452838
0.452838
0.452838
0.452838
0.452838
0.452838
0.452838
0.452838
0.452838
0.452838
0.452838
0.452838
0.452838
0.452838
0.452838
0.452838
0.452838
0.452838
0.452838
0.452838
0.452838
0.452838
0.452838
0.452838
0.452838
0.452838
0.452838
0.452838
0.452838
0.452838
0.452838
0.452838
0.452838
0.452838
0.452838
0.452838
0.452838
0.452838
0.452838
0.452839
0.452828
0.493658
0.219739
0.00131159
6.44016e-06
0.0112016
0.0069453
0.0109245
0.00406463
0.00316752
0.00381257
0.00353836
0.00356484
0.00408013
0.00421194
0.00496497
0.00569869
0.00722424
0.00929695
0.0141819
0.0208335
0.0583748
0.343258
0.206718
0.721003
8.07478e-05
0.025492
0.823627
0.825751
0.963458
0.420601
0.0669342
0.00955482
0.0033404
0.00310762
0.00879885
0.0901021
0.00014095
0.452838
0.452838
0.452838
0.452838
0.452838
0.452838
0.452838
0.452838
0.452838
0.452838
0.452838
0.452838
0.452838
0.452838
0.452838
0.452838
0.452838
0.452838
0.452838
0.452838
0.452838
0.452838
0.452838
0.452838
0.452838
0.452838
0.452838
0.452838
0.452838
0.452838
0.452838
0.452838
0.452838
0.452838
0.452838
0.452838
0.452838
0.452838
0.452838
0.452838
0.452838
0.452838
0.452838
0.452838
0.452838
0.452838
0.452838
0.452838
0.452838
0.452838
0.452838
0.452838
0.452838
0.452838
0.452838
0.452838
0.452839
0.45285
0.48459
0.505289
0.0210611
6.63029e-05
7.37839e-06
0.0016192
0.00145047
0.000401745
0.00184148
0.00332092
0.00429968
0.00350456
0.00341621
0.0050488
0.00393428
0.00479487
0.00563825
0.00792384
0.00889516
0.0141652
0.0228335
0.0872772
0.998319
0.145044
0.152877
0.239363
0.181965
0.250424
0.168234
0.172713
0.222203
0.988504
0.0874327
0.00621775
0.00262026
0.00426642
0.0404144
0.000141587
0.452838
0.452838
0.452838
0.452838
0.452838
0.452838
0.452838
0.452838
0.452838
0.452838
0.452838
0.452838
0.452838
0.452838
0.452838
0.452838
0.452838
0.452838
0.452838
0.452838
0.452838
0.452838
0.452838
0.452838
0.452838
0.452838
0.452838
0.452838
0.452838
0.452838
0.452838
0.452838
0.452838
0.452838
0.452838
0.452838
0.452838
0.452838
0.452838
0.452838
0.452838
0.452838
0.452838
0.452838
0.452838
0.452838
0.452838
0.452838
0.452838
0.452838
0.452838
0.452838
0.452838
0.452838
0.452838
0.452839
0.452845
0.452842
0.454816
0.506837
0.86169
0.0424239
0.0395268
0.012945
0.00137781
9.61525e-05
8.91245e-06
8.88303e-06
0.00207623
0.00134203
0.000525497
0.00463479
0.00425644
0.00574189
0.00583865
0.0104696
0.00659671
0.072961
0.0135
0.411429
0.0495636
0.0148762
0.0215458
0.0299577
0.0155518
0.067593
0.0826804
0.0755592
0.0830697
0.0806463
0.952311
0.00713034
0.0024403
0.00325947
0.0463433
0.000140527
0.452838
0.452838
0.452838
0.452838
0.452838
0.452838
0.452838
0.452838
0.452838
0.452838
0.452838
0.452838
0.452838
0.452838
0.452838
0.452838
0.452838
0.452838
0.452838
0.452838
0.452838
0.452838
0.452838
0.452838
0.452838
0.452838
0.452838
0.452838
0.452838
0.452838
0.452838
0.452838
0.452838
0.452838
0.452838
0.452838
0.452838
0.452838
0.452838
0.452838
0.452838
0.452838
0.452838
0.452838
0.452838
0.452838
0.452838
0.452838
0.452838
0.452838
0.452838
0.452838
0.452838
0.452838
0.452838
0.452838
0.452839
0.452852
0.453083
0.502381
0.152617
0.456051
0.994438
0.99387
0.205341
0.129316
0.0649775
0.0180355
0.00417196
0.000156179
1.21838e-05
8.35291e-06
0.00186189
0.00630235
0.0013602
0.00256461
0.00140722
0.00179945
0.00241966
0.00188929
0.0021246
0.00195867
0.00277693
0.00157166
0.00163841
0.0018683
0.00179964
0.035708
0.0308942
0.0408296
0.0330609
0.0485893
0.00266395
0.00277768
0.0147727
0.000143067
0.452838
0.452838
0.452838
0.452838
0.452838
0.452838
0.452838
0.452838
0.452838
0.452838
0.452838
0.452838
0.452838
0.452838
0.452838
0.452838
0.452838
0.452838
0.452838
0.452838
0.452838
0.452838
0.452838
0.452838
0.452838
0.452838
0.452838
0.452838
0.452838
0.452838
0.452838
0.452838
0.452838
0.452838
0.452838
0.452838
0.452838
0.452838
0.452838
0.452838
0.452838
0.452838
0.452838
0.452838
0.452838
0.452838
0.452838
0.452838
0.452838
0.452838
0.452838
0.452838
0.452838
0.452838
0.452838
0.452839
0.452839
0.452846
0.453026
0.625635
0.88245
0.0298603
0.724598
0.809277
0.978134
0.46214
0.59974
0.997198
0.976164
0.46406
0.0504608
0.431094
0.0681408
0.0640163
0.0768471
0.0806651
0.0416723
0.00507548
0.0255391
0.00524628
0.993629
0.00422033
0.0903566
0.0034059
0.987025
0.000174024
7.70389e-06
0.999999
0.00467483
0.00509427
0.00169254
0.00102903
0.000459479
0.000232433
0.000145886
6.7032e-05
0.452838
0.452838
0.452838
0.452838
0.452838
0.452838
0.452838
0.452838
0.452838
0.452838
0.452838
0.452838
0.452838
0.452838
0.452838
0.452838
0.452838
0.452838
0.452838
0.452838
0.452838
0.452838
0.452838
0.452838
0.452838
0.452838
0.452838
0.452838
0.452838
0.452838
0.452838
0.452838
0.452838
0.452838
0.452838
0.452838
0.452838
0.452838
0.452838
0.452838
0.452838
0.452838
0.452838
0.452838
0.452838
0.452838
0.452838
0.452838
0.452838
0.452838
0.452838
0.452838
0.452838
0.452838
0.452838
0.452842
0.452866
0.453366
0.470608
0.627024
0.177022
0.543954
0.4264
0.431037
0.828431
0.891566
0.944992
3.60528e-06
5.72658e-09
0.998805
0.919579
0.385941
0.729194
0.730269
0.986981
0.683937
0.269975
0.529904
0.350736
0.342153
0.383116
0.673145
0.894875
0.456183
0.975185
0.806706
0.000549701
7.68007e-06
0.000137138
0.385983
0.994392
0.927658
0.108406
0.0645842
0.996747
0.000303901
0.452838
0.452838
0.452838
0.452838
0.452838
0.452838
0.452838
0.452838
0.452838
0.452838
0.452838
0.452838
0.452838
0.452838
0.452838
0.452838
0.452838
0.452838
0.452838
0.452838
0.452838
0.452838
0.452838
0.452838
0.452838
0.452838
0.452838
0.452838
0.452838
0.452838
0.452838
0.452838
0.452838
0.452838
0.452838
0.452838
0.452838
0.452838
0.452838
0.452838
0.452838
0.452838
0.452838
0.452838
0.452838
0.452838
0.452838
0.452838
0.452838
0.452838
0.452838
0.452838
0.452838
0.452838
0.452838
0.452844
0.453017
0.452864
0.456926
0.643626
0.248785
0.999441
0.579549
0.21338
0.831798
0.400123
0.0464051
0.999368
0.883493
0.41771
0.406958
0.861582
0.334037
0.834222
0.613927
0.297904
0.507649
0.453883
0.442365
0.41381
0.452786
0.447157
0.491835
0.615959
0.486392
0.565247
0.835874
0.863583
0.972968
0.219152
0.568977
0.407515
0.331193
0.912269
0.345665
0.999999
0.452838
0.452838
0.452838
0.452838
0.452838
0.452838
0.452838
0.452838
0.452838
0.452838
0.452838
0.452838
0.452838
0.452838
0.452838
0.452838
0.452838
0.452838
0.452838
0.452838
0.452838
0.452838
0.452838
0.452838
0.452838
0.452838
0.452838
0.452838
0.452838
0.452838
0.452838
0.452838
0.452838
0.452838
0.452838
0.452838
0.452838
0.452838
0.452838
0.452838
0.452838
0.452838
0.452838
0.452838
0.452838
0.452838
0.452838
0.452838
0.452838
0.452838
0.452838
0.452838
0.452838
0.452838
0.452838
0.452838
0.452839
0.45294
0.470856
0.510113
0.411081
0.681924
0.883424
0.241872
0.87004
0.321868
0.525383
0.792226
0.985874
0.717851
0.97409
0.279903
0.731509
0.928447
0.999224
0.68043
0.253534
0.461321
0.987194
0.99834
0.449527
0.396765
0.225144
0.889726
0.607869
0.759305
8.91292e-06
0.00101432
0.20875
0.987795
0.165452
0.318703
0.102777
0.0419416
0.0885015
0.00198892
0.452838
0.452838
0.452838
0.452838
0.452838
0.452838
0.452838
0.452838
0.452838
0.452838
0.452838
0.452838
0.452838
0.452838
0.452838
0.452838
0.452838
0.452838
0.452838
0.452838
0.452838
0.452838
0.452838
0.452838
0.452838
0.452838
0.452838
0.452838
0.452838
0.452838
0.452838
0.452838
0.452838
0.452838
0.452838
0.452838
0.452838
0.452838
0.452838
0.452838
0.452838
0.452838
0.452838
0.452838
0.452838
0.452838
0.452838
0.452838
0.452838
0.452838
0.452838
0.452838
0.452838
0.452838
0.452838
0.452838
0.452838
0.452804
0.453974
0.513971
0.166569
0.495077
0.243562
0.145499
0.450428
0.0661811
0.0568875
0.00768161
0.000275301
1.33168e-05
1.65083e-05
1.14026e-05
8.74005e-05
0.000851304
0.0104118
0.00146851
0.00202896
0.00157942
0.019371
0.00141536
0.000714751
0.000395721
0.0001423
0.000211966
0.000319983
0.000158617
0.000148955
8.11357e-06
0.00473571
0.216354
0.00073763
0.000685404
0.000489022
0.000290872
0.000164177
6.92761e-05
0.452838
0.452838
0.452838
0.452838
0.452838
0.452838
0.452838
0.452838
0.452838
0.452838
0.452838
0.452838
0.452838
0.452838
0.452838
0.452838
0.452838
0.452838
0.452838
0.452838
0.452838
0.452838
0.452838
0.452838
0.452838
0.452838
0.452838
0.452838
0.452838
0.452838
0.452838
0.452838
0.452838
0.452838
0.452838
0.452838
0.452838
0.452838
0.452838
0.452838
0.452838
0.452838
0.452838
0.452838
0.452838
0.452838
0.452838
0.452838
0.452838
0.452838
0.452838
0.452838
0.452838
0.452838
0.452838
0.452838
0.452838
0.452885
0.436395
0.555475
0.0568283
0.0303378
0.0140618
0.00267984
0.999994
8.35359e-06
7.7435e-06
0.00142967
0.000296293
0.000324502
0.00253335
0.000425266
0.000390679
0.000861127
0.000763886
0.00143074
0.00114107
0.00182619
0.00203026
0.00395149
0.0400831
0.0201972
0.0196501
0.0107563
0.00843178
0.0054495
0.00426665
0.0225404
0.0403862
0.0190492
0.0324546
0.00965471
0.00284252
0.00500992
0.00978771
0.00014411
0.452838
0.452838
0.452838
0.452838
0.452838
0.452838
0.452838
0.452838
0.452838
0.452838
0.452838
0.452838
0.452838
0.452838
0.452838
0.452838
0.452838
0.452838
0.452838
0.452838
0.452838
0.452838
0.452838
0.452838
0.452838
0.452838
0.452838
0.452838
0.452838
0.452838
0.452838
0.452838
0.452838
0.452838
0.452838
0.452838
0.452838
0.452838
0.452838
0.452838
0.452838
0.452838
0.452838
0.452838
0.452838
0.452838
0.452838
0.452838
0.452838
0.452838
0.452838
0.452838
0.452838
0.452838
0.452838
0.452838
0.452837
0.452772
0.454135
0.500086
0.689142
0.999932
0.000355043
8.22639e-06
0.000257966
0.000373904
0.0252966
0.00339319
0.00441139
0.00482102
0.00354353
0.00439666
0.00408645
0.00467082
0.00622028
0.00650877
0.00999317
0.0126734
0.0242314
0.0481405
0.0932828
0.990939
0.175195
0.112435
0.091188
0.13166
0.978806
0.13709
0.0759854
0.0462033
0.0116086
0.00342499
0.00224746
0.0037575
0.0108422
0.000139761
0.452838
0.452838
0.452838
0.452838
0.452838
0.452838
0.452838
0.452838
0.452838
0.452838
0.452838
0.452838
0.452838
0.452838
0.452838
0.452838
0.452838
0.452838
0.452838
0.452838
0.452838
0.452838
0.452838
0.452838
0.452838
0.452838
0.452838
0.452838
0.452838
0.452838
0.452838
0.452838
0.452838
0.452838
0.452838
0.452838
0.452838
0.452838
0.452838
0.452838
0.452838
0.452838
0.452838
0.452838
0.452838
0.452838
0.452838
0.452838
0.452838
0.452838
0.452838
0.452838
0.452838
0.452838
0.452838
0.452838
0.452838
0.452847
0.452986
0.530975
0.594845
1.44418e-05
0.000368161
0.00765265
0.00498242
0.0121724
0.00278474
0.00374958
0.00274343
0.00366006
0.00327115
0.0044455
0.00397565
0.00618082
0.00478074
0.00915462
0.00701102
0.0248447
0.0125395
0.0534897
0.0287067
0.0239096
0.0304883
0.0315545
0.0301394
0.0276199
0.0252593
0.0262652
0.0284073
0.0291096
0.00970501
0.00331737
0.00280936
0.00835742
0.0537874
0.000141683
0.452838
0.452838
0.452838
0.452838
0.452838
0.452838
0.452838
0.452838
0.452838
0.452838
0.452838
0.452838
0.452838
0.452838
0.452838
0.452838
0.452838
0.452838
0.452838
0.452838
0.452838
0.452838
0.452838
0.452838
0.452838
0.452838
0.452838
0.452838
0.452838
0.452838
0.452838
0.452838
0.452838
0.452838
0.452838
0.452838
0.452838
0.452838
0.452838
0.452838
0.452838
0.452838
0.452838
0.452838
0.452838
0.452838
0.452838
0.452838
0.452838
0.452838
0.452838
0.452838
0.452838
0.452838
0.452838
0.452838
0.452838
0.452832
0.432187
0.526371
0.258584
9.40867e-06
0.0163707
0.0034768
0.325684
0.0282832
0.0047499
0.00329093
0.00372408
0.00364934
0.0034776
0.00442224
0.00405716
0.00593914
0.00495893
0.00829021
0.00758524
0.0176353
0.0153881
0.0615606
0.0638723
0.0538692
0.0837681
0.094378
0.0872261
0.0717179
0.0591446
0.0576905
0.0616647
0.0503211
0.0106375
0.00318086
0.0025766
0.00592569
0.0203002
0.000140214
0.452838
0.452838
0.452838
0.452838
0.452838
0.452838
0.452838
0.452838
0.452838
0.452838
0.452838
0.452838
0.452838
0.452838
0.452838
0.452838
0.452838
0.452838
0.452838
0.452838
0.452838
0.452838
0.452838
0.452838
0.452838
0.452838
0.452838
0.452838
0.452838
0.452838
0.452838
0.452838
0.452838
0.452838
0.452838
0.452838
0.452838
0.452838
0.452838
0.452838
0.452838
0.452838
0.452838
0.452838
0.452838
0.452838
0.452838
0.452838
0.452838
0.452838
0.452838
0.452838
0.452838
0.452838
0.452838
0.452838
0.452839
0.452831
0.452751
0.502559
0.585544
1.23555e-05
0.002297
0.0013461
0.0296302
0.00325777
0.00713456
0.00684324
0.00271741
0.00313961
0.00301256
0.0045362
0.00380177
0.00659462
0.00456501
0.00973748
0.00659729
0.0269411
0.0116194
0.0425878
0.0257721
0.023209
0.0292905
0.030421
0.0301317
0.0286733
0.0269974
0.0269112
0.0282565
0.0240037
0.00725426
0.0028145
0.00271163
0.00743413
0.0250385
0.000140644
0.452838
0.452838
0.452838
0.452838
0.452838
0.452838
0.452838
0.452838
0.452838
0.452838
0.452838
0.452838
0.452838
0.452838
0.452838
0.452838
0.452838
0.452838
0.452838
0.452838
0.452838
0.452838
0.452838
0.452838
0.452838
0.452838
0.452838
0.452838
0.452838
0.452838
0.452838
0.452838
0.452838
0.452838
0.452838
0.452838
0.452838
0.452838
0.452838
0.452838
0.452838
0.452838
0.452838
0.452838
0.452838
0.452838
0.452838
0.452838
0.452838
0.452838
0.452838
0.452838
0.452838
0.452838
0.452838
0.452838
0.452838
0.452838
0.452851
0.532812
0.0502599
2.09814e-05
0.999996
0.00309417
0.200685
0.0375314
0.00393539
0.00322614
0.00312475
0.00409311
0.00338563
0.0047157
0.00397638
0.00640423
0.00476281
0.00913818
0.00699967
0.0221294
0.0129382
0.0690007
0.0337287
0.0314661
0.0419236
0.0428715
0.0421129
0.0394106
0.0357735
0.0355214
0.0415503
0.0411606
0.00958296
0.00294438
0.00258995
0.00708999
0.0285217
0.000140627
0.452838
0.452838
0.452838
0.452838
0.452838
0.452838
0.452838
0.452838
0.452838
0.452838
0.452838
0.452838
0.452838