/*--------------------------------*- C++ -*----------------------------------*\
| =========                 |                                                 |
| \\      /  F ield         | OpenFOAM: The Open Source CFD Toolbox           |
|  \\    /   O peration     | Version:  2.3.0                                 |
|   \\  /    A nd           | Web:      www.OpenFOAM.org                      |
|    \\/     M anipulation  |                                                 |
\*---------------------------------------------------------------------------*/
FoamFile
{
    version     2.0;
    format      ascii;
    class       volScalarField;
    location    "2";
    object      alpha.air;
}
// * * * * * * * * * * * * * * * * * * * * * * * * * * * * * * * * * * * * * //

dimensions      [0 0 0 0 0 0 0];

internalField   nonuniform List<scalar> 
6144
(
0.99999
0.99999
0.99999
0.99999
0.99999
0.99999
0.99999
0.99999
0.99999
0.99999
0.99999
0.99999
0.99999
0.99999
0.99999
0.99999
0.99999
0.99999
0.99999
0.99999
0.99999
0.99999
0.99999
0.99999
0.99999
0.99999
0.99999
0.99999
0.99999
0.99999
0.99999
0.99999
0.99999
0.99999
0.99999
0.99999
0.99999
0.99999
0.99999
0.99999
0.99999
0.99999
0.99999
0.99999
0.99999
0.99999
0.99999
0.99999
0.99999
0.99999
0.99999
0.99999
0.99999
0.999988
0.999953
0.999898
0.999852
0.99976
0.998837
0.947242
0.0435158
0.000232571
8.70322e-07
8.7084e-07
8.70929e-07
8.70941e-07
8.72222e-07
8.72222e-07
8.69149e-07
8.69875e-07
8.69171e-07
8.68942e-07
8.68182e-07
8.68207e-07
8.68071e-07
8.68519e-07
8.68556e-07
8.69017e-07
8.68686e-07
8.68318e-07
8.68406e-07
8.68408e-07
8.68411e-07
8.68426e-07
8.68642e-07
8.68777e-07
8.68809e-07
8.68808e-07
8.68705e-07
8.67186e-07
8.56146e-07
8.122e-07
7.15509e-07
6.148e-07
6.15115e-07
6.15396e-07
0.99999
0.99999
0.99999
0.99999
0.99999
0.99999
0.99999
0.99999
0.99999
0.99999
0.99999
0.99999
0.99999
0.99999
0.99999
0.99999
0.99999
0.99999
0.99999
0.99999
0.99999
0.99999
0.99999
0.99999
0.99999
0.99999
0.99999
0.99999
0.99999
0.99999
0.99999
0.99999
0.99999
0.99999
0.99999
0.99999
0.99999
0.99999
0.99999
0.99999
0.99999
0.99999
0.99999
0.99999
0.99999
0.99999
0.99999
0.99999
0.99999
0.99999
0.99999
0.99999
0.99999
0.99999
0.999983
0.999978
0.999892
0.999794
0.999441
0.967727
0.0601052
0.000408995
1.0237e-06
8.44329e-07
8.44954e-07
8.52735e-07
8.61675e-07
8.68024e-07
8.68436e-07
8.68851e-07
8.6875e-07
8.68309e-07
8.67181e-07
8.67445e-07
8.67295e-07
8.679e-07
8.68003e-07
8.68577e-07
8.68289e-07
8.67938e-07
8.68234e-07
8.6811e-07
8.68084e-07
8.68336e-07
8.68674e-07
8.6882e-07
8.68813e-07
8.68781e-07
8.68637e-07
8.67217e-07
8.56741e-07
8.13273e-07
7.14736e-07
6.14518e-07
6.14804e-07
6.15112e-07
0.99999
0.99999
0.99999
0.99999
0.99999
0.99999
0.99999
0.99999
0.99999
0.99999
0.99999
0.99999
0.99999
0.99999
0.99999
0.99999
0.99999
0.99999
0.99999
0.99999
0.99999
0.99999
0.99999
0.99999
0.99999
0.99999
0.99999
0.99999
0.99999
0.99999
0.99999
0.99999
0.99999
0.99999
0.99999
0.99999
0.99999
0.99999
0.99999
0.99999
0.99999
0.99999
0.99999
0.99999
0.99999
0.99999
0.99999
0.99999
0.99999
0.99999
0.99999
0.99999
0.99999
0.99999
0.999988
0.999987
0.999934
0.999889
0.999504
0.962497
0.0537524
0.000189223
8.36714e-07
8.54823e-07
8.46208e-07
8.61009e-07
8.66022e-07
8.7063e-07
8.70346e-07
8.6993e-07
8.69124e-07
8.68454e-07
8.66831e-07
8.67108e-07
8.66783e-07
8.67417e-07
8.67638e-07
8.68247e-07
8.67981e-07
8.67357e-07
8.67187e-07
8.66653e-07
8.66522e-07
8.66542e-07
8.66585e-07
8.66709e-07
8.66946e-07
8.67321e-07
8.67676e-07
8.6729e-07
8.60302e-07
8.22748e-07
7.24164e-07
6.14227e-07
6.14517e-07
6.14803e-07
0.99999
0.99999
0.99999
0.99999
0.99999
0.99999
0.99999
0.99999
0.99999
0.99999
0.99999
0.99999
0.99999
0.99999
0.99999
0.99999
0.99999
0.99999
0.99999
0.99999
0.99999
0.99999
0.99999
0.99999
0.99999
0.99999
0.99999
0.99999
0.99999
0.99999
0.99999
0.99999
0.99999
0.99999
0.99999
0.99999
0.99999
0.99999
0.99999
0.99999
0.99999
0.99999
0.99999
0.99999
0.99999
0.99999
0.99999
0.99999
0.99999
0.99999
0.99999
0.99999
0.99999
0.999988
0.999976
0.999977
0.999947
0.999924
0.999559
0.941582
0.0517641
0.000121052
8.36898e-07
8.3705e-07
8.72831e-07
8.91551e-07
8.87035e-07
8.8347e-07
8.87675e-07
8.73549e-07
8.64708e-07
8.63741e-07
8.63741e-07
8.63741e-07
8.63908e-07
8.65596e-07
8.68831e-07
8.70789e-07
8.7034e-07
8.68675e-07
8.67874e-07
8.66726e-07
8.6601e-07
8.66137e-07
8.6657e-07
8.67186e-07
8.67708e-07
8.67863e-07
8.67813e-07
8.67059e-07
8.60488e-07
8.25839e-07
7.288e-07
6.13958e-07
6.14234e-07
6.14523e-07
0.99999
0.99999
0.99999
0.99999
0.99999
0.99999
0.99999
0.99999
0.99999
0.99999
0.99999
0.99999
0.99999
0.99999
0.99999
0.99999
0.99999
0.99999
0.99999
0.99999
0.99999
0.99999
0.99999
0.99999
0.99999
0.99999
0.99999
0.99999
0.99999
0.99999
0.99999
0.99999
0.99999
0.99999
0.99999
0.99999
0.99999
0.99999
0.99999
0.99999
0.99999
0.99999
0.99999
0.99999
0.99999
0.99999
0.99999
0.99999
0.99999
0.99999
0.99999
0.99999
0.99999
0.999987
0.999952
0.999947
0.999916
0.999897
0.999687
0.896804
0.0389194
8.42208e-05
2.12551e-05
9.63923e-06
9.65225e-06
1.07495e-05
1.11937e-05
9.52091e-06
7.28644e-06
4.10595e-06
2.52139e-06
1.83247e-06
1.84619e-06
1.33616e-06
8.63904e-07
9.0428e-07
9.37682e-07
9.68843e-07
9.06273e-07
8.47625e-07
8.3933e-07
8.3932e-07
8.39356e-07
8.39461e-07
8.39499e-07
8.39607e-07
8.5259e-07
8.61897e-07
8.65432e-07
8.65223e-07
8.58984e-07
8.25318e-07
7.31202e-07
6.13656e-07
6.13958e-07
6.14234e-07
0.99999
0.99999
0.99999
0.99999
0.99999
0.99999
0.99999
0.99999
0.99999
0.99999
0.99999
0.99999
0.99999
0.99999
0.99999
0.99999
0.99999
0.99999
0.99999
0.99999
0.99999
0.99999
0.99999
0.99999
0.99999
0.99999
0.99999
0.99999
0.99999
0.99999
0.99999
0.99999
0.99999
0.99999
0.99999
0.99999
0.99999
0.99999
0.99999
0.99999
0.99999
0.99999
0.99999
0.99999
0.99999
0.99999
0.99999
0.99999
0.99999
0.99999
0.99999
0.99999
0.99999
0.999986
0.999957
0.999939
0.999935
0.999954
0.999974
0.838883
0.0254564
0.000769819
0.000761956
0.000699466
0.00073988
0.000693467
0.000710854
0.000607402
0.000535456
0.000437269
0.000373114
0.000299899
0.000244347
0.000197239
0.000157729
0.000127474
0.000104165
8.62838e-05
7.30606e-05
6.11364e-05
4.93334e-05
3.65359e-05
2.34271e-05
1.28311e-05
6.62214e-06
3.37685e-06
1.82493e-06
1.0186e-06
7.90836e-07
6.79032e-07
6.13636e-07
6.13345e-07
6.13069e-07
6.13361e-07
6.1366e-07
6.13961e-07
0.99999
0.99999
0.99999
0.99999
0.99999
0.99999
0.99999
0.99999
0.99999
0.99999
0.99999
0.99999
0.99999
0.99999
0.99999
0.99999
0.99999
0.99999
0.99999
0.99999
0.99999
0.99999
0.99999
0.99999
0.99999
0.99999
0.99999
0.99999
0.99999
0.99999
0.99999
0.99999
0.99999
0.99999
0.99999
0.99999
0.99999
0.99999
0.99999
0.99999
0.99999
0.99999
0.99999
0.99999
0.99999
0.99999
0.99999
0.99999
0.99999
0.99999
0.99999
0.99999
0.99999
0.99999
0.999976
0.999956
0.999943
0.999935
0.999974
0.764065
0.0145159
0.00324331
0.00330546
0.00313233
0.00322181
0.00327541
0.0033448
0.0032946
0.00334243
0.00322355
0.00328126
0.00318321
0.00322888
0.0031386
0.00315168
0.00306044
0.00308106
0.00299896
0.00299872
0.00276058
0.00260552
0.00238005
0.00199113
0.00159577
0.00127804
0.00101784
0.000803146
0.000626268
0.00047705
0.000345993
0.000233511
0.000123724
4.11694e-05
9.02956e-06
3.76352e-06
8.6027e-06
0.99999
0.99999
0.99999
0.99999
0.99999
0.99999
0.99999
0.99999
0.99999
0.99999
0.99999
0.99999
0.99999
0.99999
0.99999
0.99999
0.99999
0.99999
0.99999
0.99999
0.99999
0.99999
0.99999
0.99999
0.99999
0.99999
0.99999
0.99999
0.99999
0.99999
0.99999
0.99999
0.99999
0.99999
0.99999
0.99999
0.99999
0.99999
0.99999
0.99999
0.99999
0.99999
0.99999
0.99999
0.99999
0.99999
0.99999
0.99999
0.99999
0.99999
0.99999
0.99999
0.99999
0.999988
0.999969
0.999961
0.999948
0.999941
0.999974
0.520753
0.0285477
0.0240221
0.0241783
0.0242565
0.0243189
0.0242712
0.0240451
0.0240143
0.0241328
0.0244966
0.0251164
0.0254407
0.0255356
0.0253171
0.0244033
0.0236342
0.0233603
0.0233787
0.0235143
0.0236334
0.0231421
0.0214287
0.0195919
0.0178106
0.0163589
0.0152069
0.0143432
0.0136419
0.013039
0.0124573
0.0117683
0.0105722
0.00911951
0.00765845
0.00615833
0.00460673
0.99999
0.99999
0.99999
0.99999
0.99999
0.99999
0.99999
0.99999
0.99999
0.99999
0.99999
0.99999
0.99999
0.99999
0.99999
0.99999
0.99999
0.99999
0.99999
0.99999
0.99999
0.99999
0.99999
0.99999
0.99999
0.99999
0.99999
0.99999
0.99999
0.99999
0.99999
0.99999
0.99999
0.99999
0.99999
0.99999
0.99999
0.99999
0.99999
0.99999
0.99999
0.99999
0.99999
0.99999
0.99999
0.99999
0.99999
0.99999
0.99999
0.99999
0.99999
0.99999
0.999989
0.99997
0.999955
0.999966
0.999966
0.999966
0.999974
0.660387
0.0216023
0.0131716
0.0125037
0.011877
0.0113407
0.0107312
0.0100131
0.00934638
0.00877043
0.00827882
0.00784893
0.007434
0.00698385
0.00646615
0.00592731
0.00543974
0.00513991
0.00496192
0.00471136
0.00420377
0.00343393
0.0025448
0.00176862
0.00115799
0.00075446
0.000541869
0.000459722
0.000447513
0.000438687
0.000303702
0.000170608
8.27829e-05
3.49136e-05
1.4001e-05
7.82115e-06
7.61229e-06
0.999991
0.99999
0.99999
0.99999
0.99999
0.99999
0.99999
0.99999
0.99999
0.99999
0.99999
0.99999
0.99999
0.99999
0.99999
0.99999
0.99999
0.99999
0.99999
0.99999
0.99999
0.99999
0.99999
0.99999
0.99999
0.99999
0.99999
0.99999
0.99999
0.99999
0.99999
0.99999
0.99999
0.99999
0.99999
0.99999
0.99999
0.99999
0.99999
0.99999
0.99999
0.99999
0.99999
0.99999
0.99999
0.99999
0.99999
0.99999
0.99999
0.99999
0.99999
0.99999
0.99999
0.999985
0.999947
0.999953
0.999968
0.999973
0.999974
0.833737
0.0173472
0.00220199
0.00177893
0.00145135
0.00136349
0.00120192
0.00106335
0.000904594
0.00077018
0.000645156
0.000541716
0.000455338
0.000381203
0.000315273
0.00025663
0.00020538
0.000162256
0.000123593
8.90312e-05
5.52798e-05
2.89753e-05
1.22283e-05
4.35316e-06
1.53902e-06
8.30064e-07
6.95602e-07
6.15542e-07
6.15265e-07
6.14982e-07
6.14708e-07
6.14443e-07
6.142e-07
6.13962e-07
6.13955e-07
6.14203e-07
6.14493e-07
0.999991
0.99999
0.99999
0.99999
0.99999
0.99999
0.99999
0.99999
0.99999
0.99999
0.99999
0.99999
0.99999
0.99999
0.99999
0.99999
0.99999
0.99999
0.99999
0.99999
0.99999
0.99999
0.99999
0.99999
0.99999
0.99999
0.99999
0.99999
0.99999
0.99999
0.99999
0.99999
0.99999
0.99999
0.99999
0.99999
0.99999
0.99999
0.99999
0.99999
0.99999
0.99999
0.99999
0.99999
0.99999
0.99999
0.99999
0.99999
0.99999
0.99999
0.99999
0.99999
0.99999
0.999988
0.999967
0.999953
0.99996
0.999959
0.999974
0.882558
0.00806668
7.28945e-05
3.90886e-05
2.44913e-05
2.08627e-05
1.78994e-05
1.4405e-05
1.07042e-05
7.8777e-06
5.7298e-06
4.49102e-06
3.56653e-06
2.52828e-06
1.46186e-06
9.22429e-07
8.89613e-07
1.2203e-06
1.26377e-06
9.17767e-07
8.62688e-07
8.88565e-07
8.62593e-07
8.28153e-07
8.28153e-07
8.28385e-07
8.24574e-07
8.19738e-07
8.14399e-07
8.11164e-07
8.08226e-07
8.01697e-07
7.73844e-07
7.00485e-07
6.14101e-07
6.14392e-07
6.14678e-07
0.999991
0.99999
0.99999
0.99999
0.99999
0.99999
0.99999
0.99999
0.99999
0.99999
0.99999
0.99999
0.99999
0.99999
0.99999
0.99999
0.99999
0.99999
0.99999
0.99999
0.99999
0.99999
0.99999
0.99999
0.99999
0.99999
0.99999
0.99999
0.99999
0.99999
0.99999
0.99999
0.99999
0.99999
0.99999
0.99999
0.99999
0.99999
0.99999
0.99999
0.99999
0.99999
0.99999
0.99999
0.99999
0.99999
0.99999
0.99999
0.99999
0.99999
0.99999
0.99999
0.99999
0.99999
0.999987
0.999974
0.999971
0.999966
0.999891
0.933426
0.0130672
1.00183e-05
7.99768e-07
1.173e-06
8.01158e-07
8.19753e-07
8.64236e-07
8.72555e-07
8.72879e-07
8.68856e-07
8.85746e-07
9.67821e-07
9.55856e-07
9.36575e-07
9.24124e-07
9.183e-07
9.13858e-07
9.09982e-07
9.03748e-07
8.94643e-07
8.87572e-07
8.80902e-07
8.67893e-07
8.54842e-07
8.51687e-07
8.54957e-07
8.5859e-07
8.60289e-07
8.61596e-07
8.63115e-07
8.60995e-07
8.28918e-07
7.19162e-07
6.14392e-07
6.14678e-07
6.14966e-07
0.999992
0.999991
0.99999
0.99999
0.99999
0.99999
0.99999
0.99999
0.99999
0.99999
0.99999
0.99999
0.99999
0.99999
0.99999
0.99999
0.99999
0.99999
0.99999
0.99999
0.99999
0.99999
0.99999
0.99999
0.99999
0.99999
0.99999
0.99999
0.99999
0.99999
0.99999
0.99999
0.99999
0.99999
0.99999
0.99999
0.99999
0.99999
0.99999
0.99999
0.99999
0.99999
0.99999
0.99999
0.99999
0.99999
0.99999
0.99999
0.99999
0.99999
0.99999
0.99999
0.99999
0.999987
0.999975
0.999976
0.999977
0.999974
0.99969
0.975792
0.0580289
0.000249109
7.87015e-07
7.87014e-07
7.87015e-07
8.19154e-07
8.50324e-07
8.68135e-07
8.623e-07
8.61704e-07
8.58156e-07
8.58914e-07
8.57492e-07
8.58216e-07
8.58461e-07
8.62533e-07
8.64862e-07
8.68096e-07
8.69814e-07
8.71593e-07
8.72617e-07
8.69989e-07
8.67266e-07
8.65577e-07
8.65485e-07
8.66375e-07
8.67714e-07
8.69119e-07
8.725e-07
8.78907e-07
8.80757e-07
8.45063e-07
7.31483e-07
6.1467e-07
6.14959e-07
6.15242e-07
0.999992
0.999991
0.99999
0.99999
0.99999
0.99999
0.99999
0.99999
0.99999
0.99999
0.99999
0.99999
0.99999
0.99999
0.99999
0.99999
0.99999
0.99999
0.99999
0.99999
0.99999
0.99999
0.99999
0.99999
0.99999
0.99999
0.99999
0.99999
0.99999
0.99999
0.99999
0.99999
0.99999
0.99999
0.99999
0.99999
0.99999
0.99999
0.99999
0.99999
0.99999
0.99999
0.99999
0.99999
0.99999
0.99999
0.99999
0.99999
0.99999
0.99999
0.99999
0.99999
0.999989
0.999981
0.999967
0.999969
0.99997
0.999973
0.999779
0.978762
0.100982
0.00112547
2.76668e-06
7.87014e-07
7.88708e-07
8.09425e-07
8.37651e-07
8.62663e-07
8.60888e-07
8.59684e-07
8.57605e-07
8.57569e-07
8.56714e-07
8.57155e-07
8.56505e-07
8.57308e-07
8.57289e-07
8.58652e-07
8.59453e-07
8.61259e-07
8.63738e-07
8.64365e-07
8.65221e-07
8.66327e-07
8.67368e-07
8.68288e-07
8.69279e-07
8.71247e-07
8.76349e-07
8.82432e-07
8.80006e-07
8.38873e-07
7.24564e-07
6.14954e-07
6.15237e-07
6.15524e-07
0.999995
0.999992
0.99999
0.99999
0.99999
0.99999
0.99999
0.99999
0.99999
0.99999
0.99999
0.99999
0.99999
0.99999
0.99999
0.99999
0.99999
0.99999
0.99999
0.99999
0.99999
0.99999
0.99999
0.99999
0.99999
0.99999
0.99999
0.99999
0.99999
0.99999
0.99999
0.99999
0.99999
0.99999
0.99999
0.99999
0.99999
0.99999
0.99999
0.99999
0.99999
0.99999
0.99999
0.99999
0.99999
0.99999
0.99999
0.99999
0.99999
0.99999
0.99999
0.99999
0.99999
0.999985
0.999977
0.999976
0.999979
0.999978
0.99988
0.96424
0.0917112
0.000759629
1.38421e-06
7.87013e-07
7.90912e-07
8.22752e-07
8.48386e-07
8.58879e-07
8.56491e-07
8.56376e-07
8.57281e-07
8.57738e-07
8.56872e-07
8.57283e-07
8.56767e-07
8.57587e-07
8.5763e-07
8.58934e-07
8.59693e-07
8.61247e-07
8.63413e-07
8.644e-07
8.65511e-07
8.66939e-07
8.682e-07
8.69105e-07
8.70032e-07
8.72408e-07
8.78618e-07
8.84633e-07
8.78801e-07
8.29921e-07
7.1637e-07
6.15231e-07
6.15518e-07
6.15805e-07
0.999997
0.999992
0.99999
0.99999
0.99999
0.99999
0.99999
0.99999
0.99999
0.99999
0.99999
0.99999
0.99999
0.99999
0.99999
0.99999
0.99999
0.99999
0.99999
0.99999
0.99999
0.99999
0.99999
0.99999
0.99999
0.99999
0.99999
0.99999
0.99999
0.99999
0.99999
0.99999
0.99999
0.99999
0.99999
0.99999
0.99999
0.99999
0.99999
0.99999
0.99999
0.99999
0.99999
0.99999
0.99999
0.99999
0.99999
0.99999
0.99999
0.99999
0.99999
0.99999
0.99999
0.99999
0.999988
0.999985
0.999986
0.999985
0.999518
0.958348
0.0767302
0.000688116
1.32616e-06
7.87014e-07
7.90538e-07
8.14236e-07
8.41411e-07
8.53541e-07
8.57168e-07
8.57374e-07
8.57271e-07
8.58084e-07
8.57919e-07
8.58036e-07
8.58045e-07
8.58743e-07
8.5903e-07
8.60465e-07
8.61606e-07
8.6322e-07
8.65101e-07
8.66068e-07
8.67339e-07
8.68836e-07
8.69999e-07
8.70931e-07
8.72469e-07
8.76783e-07
8.84899e-07
8.89802e-07
8.79255e-07
8.25836e-07
7.14835e-07
6.15509e-07
6.15797e-07
6.16083e-07
0.99999
0.99999
0.99999
0.99999
0.99999
0.99999
0.99999
0.99999
0.99999
0.99999
0.99999
0.99999
0.99999
0.99999
0.99999
0.99999
0.99999
0.99999
0.99999
0.99999
0.99999
0.99999
0.99999
0.99999
0.99999
0.99999
0.99999
0.99999
0.99999
0.99999
0.99999
0.99999
0.99999
0.99999
0.99999
0.99999
0.99999
0.99999
0.99999
0.99999
0.99999
0.99999
0.99999
0.99999
0.99999
0.99999
0.99999
0.99999
0.99999
0.99999
0.99999
0.99999
0.99999
0.99999
0.999983
0.999961
0.999932
0.999938
0.999233
0.96825
0.0806588
0.000708863
1.45438e-06
8.44329e-07
8.50453e-07
8.66974e-07
8.66783e-07
8.68787e-07
8.67727e-07
8.6822e-07
8.68936e-07
8.68598e-07
8.6718e-07
8.66837e-07
8.66223e-07
8.66566e-07
8.66584e-07
8.66804e-07
8.66236e-07
8.66234e-07
8.66234e-07
8.66233e-07
8.66231e-07
8.6623e-07
8.66228e-07
8.66227e-07
8.66225e-07
8.66223e-07
8.66164e-07
8.64972e-07
8.55153e-07
8.1242e-07
7.13955e-07
6.1452e-07
6.14807e-07
6.15112e-07
0.99999
0.99999
0.99999
0.99999
0.99999
0.99999
0.99999
0.99999
0.99999
0.99999
0.99999
0.99999
0.99999
0.99999
0.99999
0.99999
0.99999
0.99999
0.99999
0.99999
0.99999
0.99999
0.99999
0.99999
0.99999
0.99999
0.99999
0.99999
0.99999
0.99999
0.99999
0.99999
0.99999
0.99999
0.99999
0.99999
0.99999
0.99999
0.99999
0.99999
0.99999
0.99999
0.99999
0.99999
0.99999
0.99999
0.99999
0.99999
0.99999
0.99999
0.99999
0.99999
0.99999
0.99999
0.999988
0.999945
0.999731
0.999418
0.999309
0.967203
0.055094
5.55215e-05
8.36714e-07
8.44308e-07
8.42771e-07
8.62543e-07
8.64054e-07
8.70498e-07
8.67753e-07
8.683e-07
8.70189e-07
8.70364e-07
8.69151e-07
8.68514e-07
8.67476e-07
8.6756e-07
8.67222e-07
8.67464e-07
8.66962e-07
8.66466e-07
8.66702e-07
8.66417e-07
8.66233e-07
8.66438e-07
8.66755e-07
8.67018e-07
8.67124e-07
8.6715e-07
8.67072e-07
8.66242e-07
8.58658e-07
8.20312e-07
7.20026e-07
6.14231e-07
6.1452e-07
6.14807e-07
0.99999
0.99999
0.99999
0.99999
0.99999
0.99999
0.99999
0.99999
0.99999
0.99999
0.99999
0.99999
0.99999
0.99999
0.99999
0.99999
0.99999
0.99999
0.99999
0.99999
0.99999
0.99999
0.99999
0.99999
0.99999
0.99999
0.99999
0.99999
0.99999
0.99999
0.99999
0.99999
0.99999
0.99999
0.99999
0.99999
0.99999
0.99999
0.99999
0.99999
0.99999
0.99999
0.99999
0.99999
0.99999
0.99999
0.99999
0.99999
0.99999
0.99999
0.99999
0.99999
0.99999
0.999988
0.999972
0.9999
0.999681
0.999513
0.999591
0.940079
0.0302989
8.36713e-07
8.3653e-07
8.57116e-07
8.58487e-07
8.92252e-07
8.82966e-07
8.82221e-07
8.77805e-07
8.79021e-07
8.82391e-07
8.79668e-07
8.77408e-07
8.75426e-07
8.73047e-07
8.71697e-07
8.70686e-07
8.70639e-07
8.70108e-07
8.6898e-07
8.68206e-07
8.67015e-07
8.66604e-07
8.66724e-07
8.66737e-07
8.66845e-07
8.66958e-07
8.67274e-07
8.67597e-07
8.67443e-07
8.61766e-07
8.26854e-07
7.27712e-07
6.13982e-07
6.1423e-07
6.1452e-07
0.99999
0.99999
0.99999
0.99999
0.99999
0.99999
0.99999
0.99999
0.99999
0.99999
0.99999
0.99999
0.99999
0.99999
0.99999
0.99999
0.99999
0.99999
0.99999
0.99999
0.99999
0.99999
0.99999
0.99999
0.99999
0.99999
0.99999
0.99999
0.99999
0.99999
0.99999
0.99999
0.99999
0.99999
0.99999
0.99999
0.99999
0.99999
0.99999
0.99999
0.99999
0.99999
0.99999
0.99999
0.99999
0.99999
0.99999
0.99999
0.99999
0.99999
0.99999
0.99999
0.999987
0.999973
0.99991
0.999771
0.99971
0.999731
0.999768
0.93164
0.0357788
8.36898e-07
1.23599e-06
1.27587e-06
1.79595e-06
8.73711e-07
8.72585e-07
9.24767e-07
9.76085e-07
1.18496e-06
1.54417e-06
1.17603e-06
8.63742e-07
8.74249e-07
8.8326e-07
8.87668e-07
9.51967e-07
9.33055e-07
9.13458e-07
8.9475e-07
8.77476e-07
8.6674e-07
8.67182e-07
8.67397e-07
8.68094e-07
8.68723e-07
8.68681e-07
8.68805e-07
8.68121e-07
8.67468e-07
8.62414e-07
8.30319e-07
7.35292e-07
6.13734e-07
6.13987e-07
6.14235e-07
0.99999
0.99999
0.99999
0.99999
0.99999
0.99999
0.99999
0.99999
0.99999
0.99999
0.99999
0.99999
0.99999
0.99999
0.99999
0.99999
0.99999
0.99999
0.99999
0.99999
0.99999
0.99999
0.99999
0.99999
0.99999
0.99999
0.99999
0.99999
0.99999
0.99999
0.99999
0.99999
0.99999
0.99999
0.99999
0.99999
0.99999
0.99999
0.99999
0.99999
0.99999
0.99999
0.99999
0.99999
0.99999
0.99999
0.99999
0.99999
0.99999
0.99999
0.99999
0.99999
0.999988
0.999963
0.999914
0.999794
0.99976
0.999738
0.99985
0.779069
0.0208316
0.000586361
0.000417414
0.000278475
0.000301608
0.000290355
0.000313006
0.000320297
0.000329142
0.000274351
0.000237648
0.000183841
0.000140176
9.89036e-05
6.60198e-05
4.09302e-05
2.49583e-05
1.48955e-05
9.77446e-06
6.3861e-06
4.18434e-06
2.63587e-06
2.07534e-06
1.69215e-06
9.09721e-07
8.3966e-07
9.10612e-07
1.00371e-06
8.59481e-07
8.10952e-07
8.03708e-07
7.8959e-07
7.31631e-07
6.13463e-07
6.13739e-07
6.13991e-07
0.99999
0.99999
0.99999
0.99999
0.99999
0.99999
0.99999
0.99999
0.99999
0.99999
0.99999
0.99999
0.99999
0.99999
0.99999
0.99999
0.99999
0.99999
0.99999
0.99999
0.99999
0.99999
0.99999
0.99999
0.99999
0.99999
0.99999
0.99999
0.99999
0.99999
0.99999
0.99999
0.99999
0.99999
0.99999
0.99999
0.99999
0.99999
0.99999
0.99999
0.99999
0.99999
0.99999
0.99999
0.99999
0.99999
0.99999
0.99999
0.99999
0.99999
0.99999
0.99999
0.99999
0.999981
0.999944
0.999851
0.99982
0.999815
0.999878
0.411852
0.0168465
0.01483
0.0143938
0.0138881
0.0134651
0.0128584
0.012116
0.0114827
0.010987
0.0105667
0.00996522
0.00916041
0.00824564
0.00731313
0.00625715
0.00518605
0.00429227
0.00363944
0.0031543
0.00277261
0.00242458
0.00200831
0.00155498
0.00112148
0.000766849
0.00049567
0.000302535
0.000172577
8.58502e-05
3.76287e-05
1.21095e-05
2.86241e-06
6.13119e-07
6.13178e-07
6.1347e-07
6.22817e-07
0.99999
0.99999
0.99999
0.99999
0.99999
0.99999
0.99999
0.99999
0.99999
0.99999
0.99999
0.99999
0.99999
0.99999
0.99999
0.99999
0.99999
0.99999
0.99999
0.99999
0.99999
0.99999
0.99999
0.99999
0.99999
0.99999
0.99999
0.99999
0.99999
0.99999
0.99999
0.99999
0.99999
0.99999
0.99999
0.99999
0.99999
0.99999
0.99999
0.99999
0.99999
0.99999
0.99999
0.99999
0.99999
0.99999
0.99999
0.99999
0.99999
0.99999
0.99999
0.99999
0.99999
0.999989
0.999968
0.999922
0.999866
0.999868
0.999886
0.314653
0.0332603
0.0336628
0.0341888
0.0344103
0.034497
0.0344454
0.0337285
0.0334501
0.0336494
0.0349908
0.0364245
0.0375234
0.0379635
0.0381394
0.0374041
0.0360344
0.0357252
0.0361479
0.0368283
0.0371743
0.0372228
0.036355
0.0336128
0.0311338
0.0288135
0.0264305
0.0241183
0.0218175
0.0193933
0.016672
0.0134307
0.00950221
0.00530256
0.00240204
0.00115624
0.00126582
0.999991
0.99999
0.99999
0.99999
0.99999
0.99999
0.99999
0.99999
0.99999
0.99999
0.99999
0.99999
0.99999
0.99999
0.99999
0.99999
0.99999
0.99999
0.99999
0.99999
0.99999
0.99999
0.99999
0.99999
0.99999
0.99999
0.99999
0.99999
0.99999
0.99999
0.99999
0.99999
0.99999
0.99999
0.99999
0.99999
0.99999
0.99999
0.99999
0.99999
0.99999
0.99999
0.99999
0.99999
0.99999
0.99999
0.99999
0.99999
0.99999
0.99999
0.99999
0.99999
0.99999
0.999984
0.999947
0.999909
0.9999
0.9999
0.99991
0.589322
0.0329437
0.0260286
0.0273319
0.0286554
0.0302878
0.0314087
0.0322257
0.0328739
0.0342758
0.0362125
0.0394662
0.0435304
0.0467324
0.048385
0.0492497
0.0503405
0.0528361
0.0577294
0.0645233
0.0710631
0.0753705
0.0777872
0.0801061
0.083021
0.0860604
0.0903198
0.0970315
0.105363
0.114349
0.124229
0.134437
0.144367
0.154742
0.168417
0.208163
0.406115
0.999991
0.99999
0.99999
0.99999
0.99999
0.99999
0.99999
0.99999
0.99999
0.99999
0.99999
0.99999
0.99999
0.99999
0.99999
0.99999
0.99999
0.99999
0.99999
0.99999
0.99999
0.99999
0.99999
0.99999
0.99999
0.99999
0.99999
0.99999
0.99999
0.99999
0.99999
0.99999
0.99999
0.99999
0.99999
0.99999
0.99999
0.99999
0.99999
0.99999
0.99999
0.99999
0.99999
0.99999
0.99999
0.99999
0.99999
0.99999
0.99999
0.99999
0.99999
0.99999
0.99999
0.999981
0.999923
0.99991
0.999921
0.999895
0.999966
0.787152
0.0142956
0.00237687
0.00191367
0.001511
0.00140798
0.00145318
0.00153009
0.00165934
0.0015859
0.00172786
0.0017936
0.00187851
0.00204138
0.00218811
0.00246627
0.00287402
0.00332799
0.00363517
0.003696
0.00335533
0.00278207
0.00235944
0.00224546
0.00224421
0.00234933
0.00270633
0.0031885
0.00340961
0.00345201
0.00330377
0.00224538
0.00128911
0.000743863
0.000478548
0.000607682
0.000908675
0.999991
0.999991
0.99999
0.99999
0.99999
0.99999
0.99999
0.99999
0.99999
0.99999
0.99999
0.99999
0.99999
0.99999
0.99999
0.99999
0.99999
0.99999
0.99999
0.99999
0.99999
0.99999
0.99999
0.99999
0.99999
0.99999
0.99999
0.99999
0.99999
0.99999
0.99999
0.99999
0.99999
0.99999
0.99999
0.99999
0.99999
0.99999
0.99999
0.99999
0.99999
0.99999
0.99999
0.99999
0.99999
0.99999
0.99999
0.99999
0.99999
0.99999
0.99999
0.99999
0.99999
0.99998
0.999916
0.999915
0.999938
0.999902
0.99987
0.889477
0.00696276
0.000126988
0.000109641
7.5238e-05
6.08996e-05
3.9101e-05
2.75911e-05
2.32262e-05
2.03865e-05
1.78816e-05
1.58284e-05
1.41541e-05
1.29338e-05
1.1799e-05
1.08062e-05
9.44785e-06
8.45504e-06
7.67611e-06
6.98791e-06
6.48517e-06
6.10231e-06
5.71103e-06
5.00007e-06
4.26076e-06
3.64375e-06
3.14934e-06
2.72724e-06
2.07079e-06
8.29133e-07
8.84437e-07
9.1013e-07
7.92749e-07
6.46401e-07
6.13704e-07
6.13955e-07
6.14203e-07
0.999992
0.999991
0.99999
0.99999
0.99999
0.99999
0.99999
0.99999
0.99999
0.99999
0.99999
0.99999
0.99999
0.99999
0.99999
0.99999
0.99999
0.99999
0.99999
0.99999
0.99999
0.99999
0.99999
0.99999
0.99999
0.99999
0.99999
0.99999
0.99999
0.99999
0.99999
0.99999
0.99999
0.99999
0.99999
0.99999
0.99999
0.99999
0.99999
0.99999
0.99999
0.99999
0.99999
0.99999
0.99999
0.99999
0.99999
0.99999
0.99999
0.99999
0.99999
0.99999
0.99999
0.999982
0.999949
0.999918
0.999919
0.999869
0.999795
0.939703
0.00791939
7.87014e-07
4.52854e-06
1.48396e-06
1.33115e-06
1.0619e-06
8.91157e-07
9.0207e-07
8.71182e-07
9.59099e-07
9.04643e-07
9.03665e-07
9.01697e-07
9.00875e-07
8.97796e-07
8.88948e-07
8.81107e-07
8.7671e-07
8.70942e-07
8.62455e-07
8.55189e-07
8.49668e-07
8.45633e-07
8.45031e-07
8.49257e-07
8.553e-07
8.62355e-07
8.70528e-07
8.77541e-07
8.8269e-07
8.74e-07
8.22694e-07
7.06657e-07
6.13882e-07
6.14131e-07
6.14423e-07
0.999992
0.999992
0.99999
0.99999
0.99999
0.99999
0.99999
0.99999
0.99999
0.99999
0.99999
0.99999
0.99999
0.99999
0.99999
0.99999
0.99999
0.99999
0.99999
0.99999
0.99999
0.99999
0.99999
0.99999
0.99999
0.99999
0.99999
0.99999
0.99999
0.99999
0.99999
0.99999
0.99999
0.99999
0.99999
0.99999
0.99999
0.99999
0.99999
0.99999
0.99999
0.99999
0.99999
0.99999
0.99999
0.99999
0.99999
0.99999
0.99999
0.99999
0.99999
0.99999
0.99999
0.999981
0.999961
0.999954
0.999953
0.999943
0.999767
0.958145
0.0392531
7.87014e-07
7.87016e-07
8.10825e-07
8.47565e-07
8.60339e-07
8.56454e-07
8.62141e-07
8.54806e-07
8.55631e-07
8.536e-07
8.53038e-07
8.52433e-07
8.52434e-07
8.52433e-07
8.5255e-07
8.52752e-07
8.5428e-07
8.55314e-07
8.56899e-07
8.58775e-07
8.59255e-07
8.59751e-07
8.60654e-07
8.61631e-07
8.62437e-07
8.63422e-07
8.65897e-07
8.72338e-07
8.78002e-07
8.71678e-07
8.22977e-07
7.09176e-07
6.1413e-07
6.14422e-07
6.14709e-07
0.999993
0.999994
0.999991
0.99999
0.99999
0.99999
0.99999
0.99999
0.99999
0.99999
0.99999
0.99999
0.99999
0.99999
0.99999
0.99999
0.99999
0.99999
0.99999
0.99999
0.99999
0.99999
0.99999
0.99999
0.99999
0.99999
0.99999
0.99999
0.99999
0.99999
0.99999
0.99999
0.99999
0.99999
0.99999
0.99999
0.99999
0.99999
0.99999
0.99999
0.99999
0.99999
0.99999
0.99999
0.99999
0.99999
0.99999
0.99999
0.99999
0.99999
0.99999
0.99999
0.999985
0.999959
0.999946
0.999946
0.99995
0.999945
0.999662
0.975669
0.0851676
0.000752731
8.91732e-07
8.20442e-07
8.37725e-07
8.46637e-07
8.42955e-07
8.58905e-07
8.51697e-07
8.53551e-07
8.53432e-07
8.53012e-07
8.52559e-07
8.52558e-07
8.52434e-07
8.53007e-07
8.53338e-07
8.5482e-07
8.55856e-07
8.57539e-07
8.59697e-07
8.60145e-07
8.60772e-07
8.61758e-07
8.62716e-07
8.63544e-07
8.6482e-07
8.68362e-07
8.75792e-07
8.81382e-07
8.74252e-07
8.24313e-07
7.10232e-07
6.14415e-07
6.14701e-07
6.1499e-07
0.999994
0.999995
0.999992
0.99999
0.99999
0.99999
0.99999
0.99999
0.99999
0.99999
0.99999
0.99999
0.99999
0.99999
0.99999
0.99999
0.99999
0.99999
0.99999
0.99999
0.99999
0.99999
0.99999
0.99999
0.99999
0.99999
0.99999
0.99999
0.99999
0.99999
0.99999
0.99999
0.99999
0.99999
0.99999
0.99999
0.99999
0.99999
0.99999
0.99999
0.99999
0.99999
0.99999
0.99999
0.99999
0.99999
0.99999
0.99999
0.99999
0.99999
0.99999
0.99999
0.999977
0.999951
0.999949
0.999952
0.999935
0.999875
0.999742
0.971275
0.0446549
6.90034e-05
7.87006e-07
8.29315e-07
8.30588e-07
8.47609e-07
8.47569e-07
8.60619e-07
8.53263e-07
8.54534e-07
8.54589e-07
8.53691e-07
8.52627e-07
8.52907e-07
8.52455e-07
8.53086e-07
8.53127e-07
8.54289e-07
8.54808e-07
8.56063e-07
8.57998e-07
8.59059e-07
8.60367e-07
8.61855e-07
8.63014e-07
8.63951e-07
8.65355e-07
8.69109e-07
8.76537e-07
8.8148e-07
8.72173e-07
8.20027e-07
7.07091e-07
6.14698e-07
6.14988e-07
6.15272e-07
0.999997
0.999996
0.999992
0.99999
0.99999
0.99999
0.99999
0.99999
0.99999
0.99999
0.99999
0.99999
0.99999
0.99999
0.99999
0.99999
0.99999
0.99999
0.99999
0.99999
0.99999
0.99999
0.99999
0.99999
0.99999
0.99999
0.99999
0.99999
0.99999
0.99999
0.99999
0.99999
0.99999
0.99999
0.99999
0.99999
0.99999
0.99999
0.99999
0.99999
0.99999
0.99999
0.99999
0.99999
0.99999
0.99999
0.99999
0.99999
0.99999
0.99999
0.99999
0.99999
0.999984
0.99997
0.999971
0.999974
0.999971
0.999961
0.999872
0.944997
0.0193642
4.88266e-05
7.87004e-07
8.04321e-07
8.08253e-07
8.41707e-07
8.42657e-07
8.55002e-07
8.51994e-07
8.52071e-07
8.51977e-07
8.52071e-07
8.51987e-07
8.52071e-07
8.52026e-07
8.52071e-07
8.52062e-07
8.5302e-07
8.53687e-07
8.54989e-07
8.56835e-07
8.578e-07
8.59009e-07
8.60449e-07
8.61605e-07
8.62565e-07
8.64186e-07
8.68668e-07
8.76956e-07
8.81939e-07
8.71705e-07
8.18324e-07
7.06087e-07
6.14985e-07
6.15269e-07
6.15556e-07
0.999999
0.999995
0.999991
0.99999
0.99999
0.99999
0.99999
0.99999
0.99999
0.99999
0.99999
0.99999
0.99999
0.99999
0.99999
0.99999
0.99999
0.99999
0.99999
0.99999
0.99999
0.99999
0.99999
0.99999
0.99999
0.99999
0.99999
0.99999
0.99999
0.99999
0.99999
0.99999
0.99999
0.99999
0.99999
0.99999
0.99999
0.99999
0.99999
0.99999
0.99999
0.99999
0.99999
0.99999
0.99999
0.99999
0.99999
0.99999
0.99999
0.99999
0.99999
0.99999
0.99999
0.999988
0.99998
0.999981
0.999979
0.999978
0.999863
0.964429
0.0348256
6.42523e-05
7.87005e-07
7.97769e-07
7.94818e-07
8.21889e-07
8.4093e-07
8.5406e-07
8.57177e-07
8.55905e-07
8.54032e-07
8.54427e-07
8.53791e-07
8.53938e-07
8.53452e-07
8.54167e-07
8.54356e-07
8.55649e-07
8.56568e-07
8.58006e-07
8.59837e-07
8.60861e-07
8.62171e-07
8.63644e-07
8.64756e-07
8.65747e-07
8.677e-07
8.73029e-07
8.81712e-07
8.85873e-07
8.73476e-07
8.18547e-07
7.07552e-07
6.15267e-07
6.15554e-07
6.15842e-07
0.99999
0.99999
0.99999
0.99999
0.99999
0.99999
0.99999
0.99999
0.99999
0.99999
0.99999
0.99999
0.99999
0.99999
0.99999
0.99999
0.99999
0.99999
0.99999
0.99999
0.99999
0.99999
0.99999
0.99999
0.99999
0.99999
0.99999
0.99999
0.99999
0.99999
0.99999
0.99999