/*--------------------------------*- C++ -*----------------------------------*\
| =========                 |                                                 |
| \\      /  F ield         | OpenFOAM: The Open Source CFD Toolbox           |
|  \\    /   O peration     | Version:  2.3.0                                 |
|   \\  /    A nd           | Web:      www.OpenFOAM.org                      |
|    \\/     M anipulation  |                                                 |
\*---------------------------------------------------------------------------*/
FoamFile
{
    version     2.0;
    format      ascii;
    class       volScalarField;
    location    "2";
    object      alpha.air;
}
// * * * * * * * * * * * * * * * * * * * * * * * * * * * * * * * * * * * * * //

dimensions      [0 0 0 0 0 0 0];

internalField   nonuniform List<scalar> 
6144
(
0.99999
0.99999
0.99999
0.99999
0.99999
0.99999
0.99999
0.99999
0.99999
0.99999
0.99999
0.99999
0.99999
0.99999
0.99999
0.99999
0.99999
0.99999
0.99999
0.99999
0.99999
0.99999
0.99999
0.99999
0.99999
0.99999
0.99999
0.99999
0.99999
0.99999
0.99999
0.99999
0.99999
0.99999
0.99999
0.99999
0.99999
0.99999
0.99999
0.99999
0.99999
0.99999
0.99999
0.99999
0.99999
0.99999
0.99999
0.99999
0.99999
0.99999
0.99999
0.99999
0.99999
0.99999
0.99999
0.99999
0.999983
0.999864
0.99976
0.941786
0.0200692
3.73665e-05
8.72302e-07
8.88019e-07
8.77868e-07
8.91979e-07
8.91015e-07
8.94735e-07
8.94855e-07
8.94398e-07
8.94454e-07
8.94544e-07
8.94171e-07
8.93599e-07
8.92938e-07
8.92911e-07
8.92749e-07
8.92747e-07
8.92739e-07
8.92606e-07
8.93014e-07
8.93065e-07
8.93068e-07
8.93268e-07
8.93632e-07
8.93956e-07
8.94147e-07
8.94272e-07
8.94321e-07
8.93666e-07
8.84257e-07
8.3852e-07
7.29705e-07
6.32439e-07
6.32878e-07
6.33083e-07
0.99999
0.99999
0.99999
0.99999
0.99999
0.99999
0.99999
0.99999
0.99999
0.99999
0.99999
0.99999
0.99999
0.99999
0.99999
0.99999
0.99999
0.99999
0.99999
0.99999
0.99999
0.99999
0.99999
0.99999
0.99999
0.99999
0.99999
0.99999
0.99999
0.99999
0.99999
0.99999
0.99999
0.99999
0.99999
0.99999
0.99999
0.99999
0.99999
0.99999
0.99999
0.99999
0.99999
0.99999
0.99999
0.99999
0.99999
0.99999
0.99999
0.99999
0.99999
0.99999
0.99999
0.99999
0.99999
0.999987
0.999947
0.999707
0.998144
0.948446
0.0616571
0.000392896
9.75613e-07
8.62482e-07
8.65822e-07
8.86005e-07
8.9244e-07
8.91802e-07
8.90733e-07
8.91007e-07
8.91351e-07
8.92011e-07
8.9202e-07
8.92062e-07
8.91856e-07
8.92123e-07
8.92083e-07
8.92301e-07
8.9228e-07
8.92222e-07
8.92661e-07
8.92923e-07
8.93087e-07
8.93467e-07
8.93882e-07
8.94137e-07
8.94135e-07
8.94083e-07
8.93678e-07
8.90366e-07
8.72247e-07
8.15397e-07
7.1291e-07
6.32196e-07
6.32381e-07
6.32881e-07
0.99999
0.99999
0.99999
0.99999
0.99999
0.99999
0.99999
0.99999
0.99999
0.99999
0.99999
0.99999
0.99999
0.99999
0.99999
0.99999
0.99999
0.99999
0.99999
0.99999
0.99999
0.99999
0.99999
0.99999
0.99999
0.99999
0.99999
0.99999
0.99999
0.99999
0.99999
0.99999
0.99999
0.99999
0.99999
0.99999
0.99999
0.99999
0.99999
0.99999
0.99999
0.99999
0.99999
0.99999
0.99999
0.99999
0.99999
0.99999
0.99999
0.99999
0.99999
0.99999
0.99999
0.99999
0.999989
0.999984
0.999978
0.999862
0.998975
0.958697
0.0672391
0.000348923
8.60508e-07
8.66384e-07
8.67749e-07
8.89862e-07
8.94639e-07
8.97301e-07
8.95723e-07
8.94856e-07
8.938e-07
8.93412e-07
8.92285e-07
8.91537e-07
8.90765e-07
8.90974e-07
8.90966e-07
8.91095e-07
8.91042e-07
8.90806e-07
8.91126e-07
8.91249e-07
8.91244e-07
8.91448e-07
8.91633e-07
8.91932e-07
8.92431e-07
8.92859e-07
8.92665e-07
8.89554e-07
8.71892e-07
8.16087e-07
7.14769e-07
6.31996e-07
6.32126e-07
6.3238e-07
0.99999
0.99999
0.99999
0.99999
0.99999
0.99999
0.99999
0.99999
0.99999
0.99999
0.99999
0.99999
0.99999
0.99999
0.99999
0.99999
0.99999
0.99999
0.99999
0.99999
0.99999
0.99999
0.99999
0.99999
0.99999
0.99999
0.99999
0.99999
0.99999
0.99999
0.99999
0.99999
0.99999
0.99999
0.99999
0.99999
0.99999
0.99999
0.99999
0.99999
0.99999
0.99999
0.99999
0.99999
0.99999
0.99999
0.99999
0.99999
0.99999
0.99999
0.99999
0.99999
0.99999
0.99999
0.999988
0.999977
0.999967
0.999918
0.999443
0.948422
0.0655795
0.000231707
8.60508e-07
8.60508e-07
8.97147e-07
9.17598e-07
9.07019e-07
8.88258e-07
8.86269e-07
8.84682e-07
8.84654e-07
8.84702e-07
8.8475e-07
8.84797e-07
8.85404e-07
8.88212e-07
8.89827e-07
8.89138e-07
8.89273e-07
8.89612e-07
8.90784e-07
8.92113e-07
8.93419e-07
8.93896e-07
8.93645e-07
8.93165e-07
8.92796e-07
8.92844e-07
8.92567e-07
8.89853e-07
8.74065e-07
8.21248e-07
7.18647e-07
6.31705e-07
6.31833e-07
6.32124e-07
0.99999
0.99999
0.99999
0.99999
0.99999
0.99999
0.99999
0.99999
0.99999
0.99999
0.99999
0.99999
0.99999
0.99999
0.99999
0.99999
0.99999
0.99999
0.99999
0.99999
0.99999
0.99999
0.99999
0.99999
0.99999
0.99999
0.99999
0.99999
0.99999
0.99999
0.99999
0.99999
0.99999
0.99999
0.99999
0.99999
0.99999
0.99999
0.99999
0.99999
0.99999
0.99999
0.99999
0.99999
0.99999
0.99999
0.99999
0.99999
0.99999
0.99999
0.99999
0.99999
0.99999
0.99999
0.999989
0.999982
0.999955
0.999922
0.999713
0.92295
0.0512253
0.000167777
1.78005e-05
1.06559e-05
1.17603e-05
1.28651e-05
1.35841e-05
1.0985e-05
8.48641e-06
5.40268e-06
3.11834e-06
1.74346e-06
1.24681e-06
8.84846e-07
8.84891e-07
9.1871e-07
8.92102e-07
8.48187e-07
8.48205e-07
8.4825e-07
8.48314e-07
8.48386e-07
8.48449e-07
8.54761e-07
8.67671e-07
8.76005e-07
8.82177e-07
8.87567e-07
8.91254e-07
8.926e-07
8.89417e-07
8.59753e-07
7.53428e-07
6.31169e-07
6.31704e-07
6.31833e-07
0.99999
0.99999
0.99999
0.99999
0.99999
0.99999
0.99999
0.99999
0.99999
0.99999
0.99999
0.99999
0.99999
0.99999
0.99999
0.99999
0.99999
0.99999
0.99999
0.99999
0.99999
0.99999
0.99999
0.99999
0.99999
0.99999
0.99999
0.99999
0.99999
0.99999
0.99999
0.99999
0.99999
0.99999
0.99999
0.99999
0.99999
0.99999
0.99999
0.99999
0.99999
0.99999
0.99999
0.99999
0.99999
0.99999
0.99999
0.99999
0.99999
0.99999
0.99999
0.99999
0.99999
0.99999
0.999986
0.999961
0.999949
0.999921
0.99999
0.868922
0.0371589
0.000806629
0.000740681
0.00074708
0.000785517
0.000822377
0.000822241
0.000707864
0.000651302
0.000524065
0.000352806
0.000247684
0.000188486
0.000146224
0.000112394
8.41474e-05
6.65366e-05
5.69966e-05
5.47728e-05
5.56783e-05
4.25793e-05
2.38427e-05
1.52313e-05
1.01727e-05
6.54998e-06
3.5125e-06
1.63343e-06
1.12757e-06
9.95388e-07
7.49542e-07
6.31094e-07
6.3078e-07
6.30632e-07
6.3078e-07
6.31108e-07
6.3171e-07
0.99999
0.99999
0.99999
0.99999
0.99999
0.99999
0.99999
0.99999
0.99999
0.99999
0.99999
0.99999
0.99999
0.99999
0.99999
0.99999
0.99999
0.99999
0.99999
0.99999
0.99999
0.99999
0.99999
0.99999
0.99999
0.99999
0.99999
0.99999
0.99999
0.99999
0.99999
0.99999
0.99999
0.99999
0.99999
0.99999
0.99999
0.99999
0.99999
0.99999
0.99999
0.99999
0.99999
0.99999
0.99999
0.99999
0.99999
0.99999
0.99999
0.99999
0.99999
0.99999
0.99999
0.99999
0.999988
0.999977
0.99996
0.999917
0.99999
0.740709
0.0161925
0.00336038
0.00337667
0.00388771
0.00449791
0.00463786
0.0045054
0.00440583
0.00463194
0.00466785
0.00391639
0.00353895
0.00416494
0.00443949
0.00422742
0.00397619
0.00382597
0.00379712
0.0030684
0.00272253
0.00292988
0.00242805
0.00184243
0.00171885
0.00160852
0.00136995
0.000990128
0.000757583
0.000649197
0.00046233
0.000228975
0.000105992
3.18249e-05
5.477e-06
6.3171e-07
9.83518e-07
0.99999
0.99999
0.99999
0.99999
0.99999
0.99999
0.99999
0.99999
0.99999
0.99999
0.99999
0.99999
0.99999
0.99999
0.99999
0.99999
0.99999
0.99999
0.99999
0.99999
0.99999
0.99999
0.99999
0.99999
0.99999
0.99999
0.99999
0.99999
0.99999
0.99999
0.99999
0.99999
0.99999
0.99999
0.99999
0.99999
0.99999
0.99999
0.99999
0.99999
0.99999
0.99999
0.99999
0.99999
0.99999
0.99999
0.99999
0.99999
0.99999
0.99999
0.99999
0.99999
0.99999
0.99999
0.999989
0.999983
0.999977
0.999928
0.99999
0.457255
0.030448
0.0267977
0.0266342
0.0267045
0.0271362
0.0273039
0.027248
0.0269434
0.0270621
0.0272015
0.0269672
0.0267278
0.0263979
0.0262332
0.0262161
0.0263692
0.0264816
0.0265308
0.025587
0.0247211
0.0239805
0.02316
0.0221851
0.0211399
0.0199467
0.018665
0.0174213
0.0164236
0.0158365
0.0153699
0.0148434
0.0139308
0.0125342
0.0110289
0.00882157
0.00631106
0.99999
0.99999
0.99999
0.99999
0.99999
0.99999
0.99999
0.99999
0.99999
0.99999
0.99999
0.99999
0.99999
0.99999
0.99999
0.99999
0.99999
0.99999
0.99999
0.99999
0.99999
0.99999
0.99999
0.99999
0.99999
0.99999
0.99999
0.99999
0.99999
0.99999
0.99999
0.99999
0.99999
0.99999
0.99999
0.99999
0.99999
0.99999
0.99999
0.99999
0.99999
0.99999
0.99999
0.99999
0.99999
0.99999
0.99999
0.99999
0.99999
0.99999
0.99999
0.99999
0.99999
0.99999
0.999987
0.999971
0.999941
0.999945
0.99999
0.554827
0.0204298
0.0170661
0.0170494
0.0158972
0.0139153
0.011136
0.00934274
0.00902943
0.00909384
0.00800331
0.00766597
0.00751533
0.00714658
0.00698506
0.00690635
0.00685319
0.00675633
0.00683967
0.00656172
0.00478843
0.00353913
0.00283964
0.00213905
0.00129076
0.000772467
0.000525634
0.000464859
0.000516865
0.000431732
0.000286801
0.000166778
0.000103932
5.90568e-05
2.15225e-05
7.06314e-06
5.20713e-06
0.999991
0.99999
0.99999
0.99999
0.99999
0.99999
0.99999
0.99999
0.99999
0.99999
0.99999
0.99999
0.99999
0.99999
0.99999
0.99999
0.99999
0.99999
0.99999
0.99999
0.99999
0.99999
0.99999
0.99999
0.99999
0.99999
0.99999
0.99999
0.99999
0.99999
0.99999
0.99999
0.99999
0.99999
0.99999
0.99999
0.99999
0.99999
0.99999
0.99999
0.99999
0.99999
0.99999
0.99999
0.99999
0.99999
0.99999
0.99999
0.99999
0.99999
0.99999
0.99999
0.99999
0.99999
0.999988
0.999983
0.999978
0.999973
0.99999
0.71501
0.0083922
0.00301145
0.00259337
0.00226538
0.00220115
0.00165233
0.00104696
0.000756401
0.000601726
0.000485648
0.000423464
0.000400523
0.000394211
0.000390544
0.000388523
0.000349324
0.000262278
0.000213449
0.000148925
6.88625e-05
2.51696e-05
1.04225e-05
4.01061e-06
1.37601e-06
7.73629e-07
6.73768e-07
6.35504e-07
6.35424e-07
6.34848e-07
6.34776e-07
6.34262e-07
6.34169e-07
6.33788e-07
6.33837e-07
6.33557e-07
6.34097e-07
0.999991
0.99999
0.99999
0.99999
0.99999
0.99999
0.99999
0.99999
0.99999
0.99999
0.99999
0.99999
0.99999
0.99999
0.99999
0.99999
0.99999
0.99999
0.99999
0.99999
0.99999
0.99999
0.99999
0.99999
0.99999
0.99999
0.99999
0.99999
0.99999
0.99999
0.99999
0.99999
0.99999
0.99999
0.99999
0.99999
0.99999
0.99999
0.99999
0.99999
0.99999
0.99999
0.99999
0.99999
0.99999
0.99999
0.99999
0.99999
0.99999
0.99999
0.99999
0.99999
0.99999
0.99999
0.999988
0.999985
0.999985
0.999959
0.99999
0.859183
0.0192788
0.00010238
5.5046e-05
3.20108e-05
2.74882e-05
1.64204e-05
1.21238e-05
8.51629e-06
6.18364e-06
4.70866e-06
3.66084e-06
2.78355e-06
2.28849e-06
2.15662e-06
2.21872e-06
2.24566e-06
1.5691e-06
9.04119e-07
8.48599e-07
8.60318e-07
8.45649e-07
8.45651e-07
8.45654e-07
8.45656e-07
8.46339e-07
8.42132e-07
8.39331e-07
8.38671e-07
8.41418e-07
8.41814e-07
8.3269e-07
7.96962e-07
7.10527e-07
6.34164e-07
6.34101e-07
6.34101e-07
0.999991
0.99999
0.99999
0.99999
0.99999
0.99999
0.99999
0.99999
0.99999
0.99999
0.99999
0.99999
0.99999
0.99999
0.99999
0.99999
0.99999
0.99999
0.99999
0.99999
0.99999
0.99999
0.99999
0.99999
0.99999
0.99999
0.99999
0.99999
0.99999
0.99999
0.99999
0.99999
0.99999
0.99999
0.99999
0.99999
0.99999
0.99999
0.99999
0.99999
0.99999
0.99999
0.99999
0.99999
0.99999
0.99999
0.99999
0.99999
0.99999
0.99999
0.99999
0.99999
0.99999
0.99999
0.99999
0.999989
0.999984
0.999918
0.999882
0.939661
0.0636801
3.36293e-05
7.88949e-07
9.00532e-07
1.2432e-06
1.00635e-06
7.93987e-07
8.03053e-07
8.47856e-07
8.93688e-07
8.96356e-07
9.0178e-07
9.53899e-07
9.4848e-07
9.35455e-07
9.42449e-07
9.48018e-07
9.46578e-07
9.32136e-07
9.20273e-07
9.11504e-07
8.99999e-07
8.8675e-07
8.79461e-07
8.79147e-07
8.8246e-07
8.81555e-07
8.8109e-07
8.84706e-07
8.88336e-07
8.8281e-07
8.35893e-07
7.18015e-07
6.34567e-07
6.34102e-07
6.34697e-07
0.999992
0.999991
0.99999
0.99999
0.99999
0.99999
0.99999
0.99999
0.99999
0.99999
0.99999
0.99999
0.99999
0.99999
0.99999
0.99999
0.99999
0.99999
0.99999
0.99999
0.99999
0.99999
0.99999
0.99999
0.99999
0.99999
0.99999
0.99999
0.99999
0.99999
0.99999
0.99999
0.99999
0.99999
0.99999
0.99999
0.99999
0.99999
0.99999
0.99999
0.99999
0.99999
0.99999
0.99999
0.99999
0.99999
0.99999
0.99999
0.99999
0.99999
0.99999
0.99999
0.99999
0.99999
0.999989
0.999986
0.999971
0.999921
0.999361
0.968236
0.0762588
0.000367407
8.46046e-07
7.90938e-07
7.90602e-07
7.93142e-07
7.93994e-07
8.01566e-07
8.33085e-07
8.77241e-07
8.89641e-07
8.9093e-07
8.90206e-07
8.88927e-07
8.86939e-07
8.8743e-07
8.89118e-07
8.93574e-07
8.9846e-07
9.02467e-07
9.05043e-07
9.01734e-07
8.96291e-07
8.9178e-07
8.90475e-07
8.91115e-07
8.92082e-07
8.93165e-07
8.94542e-07
8.94576e-07
8.84357e-07
8.34099e-07
7.19369e-07
6.34865e-07
6.34703e-07
6.34704e-07
0.999993
0.999991
0.99999
0.99999
0.99999
0.99999
0.99999
0.99999
0.99999
0.99999
0.99999
0.99999
0.99999
0.99999
0.99999
0.99999
0.99999
0.99999
0.99999
0.99999
0.99999
0.99999
0.99999
0.99999
0.99999
0.99999
0.99999
0.99999
0.99999
0.99999
0.99999
0.99999
0.99999
0.99999
0.99999
0.99999
0.99999
0.99999
0.99999
0.99999
0.99999
0.99999
0.99999
0.99999
0.99999
0.99999
0.99999
0.99999
0.99999
0.99999
0.99999
0.99999
0.99999
0.999989
0.99998
0.999969
0.999968
0.999972
0.999274
0.958101
0.079011
0.000620709
1.3221e-06
7.90601e-07
7.90602e-07
7.933e-07
8.0336e-07
8.29025e-07
8.6505e-07
8.86507e-07
8.88479e-07
8.88788e-07
8.87989e-07
8.87657e-07
8.86755e-07
8.86597e-07
8.8622e-07
8.86789e-07
8.87095e-07
8.88135e-07
8.90409e-07
8.91581e-07
8.91519e-07
8.91047e-07
8.91462e-07
8.92731e-07
8.9432e-07
8.95341e-07
8.95451e-07
8.92906e-07
8.7534e-07
8.14052e-07
7.0651e-07
6.35216e-07
6.34704e-07
6.35352e-07
0.999995
0.999991
0.99999
0.99999
0.99999
0.99999
0.99999
0.99999
0.99999
0.99999
0.99999
0.99999
0.99999
0.99999
0.99999
0.99999
0.99999
0.99999
0.99999
0.99999
0.99999
0.99999
0.99999
0.99999
0.99999
0.99999
0.99999
0.99999
0.99999
0.99999
0.99999
0.99999
0.99999
0.99999
0.99999
0.99999
0.99999
0.99999
0.99999
0.99999
0.99999
0.99999
0.99999
0.99999
0.99999
0.99999
0.99999
0.99999
0.99999
0.99999
0.99999
0.99999
0.99999
0.999986
0.999963
0.999962
0.999974
0.99997
0.999237
0.953719
0.0603355
0.00035889
8.21223e-07
8.06387e-07
8.01397e-07
8.1984e-07
8.44319e-07
8.70411e-07
8.79269e-07
8.83321e-07
8.84813e-07
8.86112e-07
8.86452e-07
8.86867e-07
8.86601e-07
8.86708e-07
8.86427e-07
8.86843e-07
8.86822e-07
8.87191e-07
8.88275e-07
8.88677e-07
8.89296e-07
8.90482e-07
8.91925e-07
8.93406e-07
8.94732e-07
8.95573e-07
8.95558e-07
8.91838e-07
8.69558e-07
8.03172e-07
7.00206e-07
6.35431e-07
6.35359e-07
6.3536e-07
0.999997
0.999992
0.99999
0.99999
0.99999
0.99999
0.99999
0.99999
0.99999
0.99999
0.99999
0.99999
0.99999
0.99999
0.99999
0.99999
0.99999
0.99999
0.99999
0.99999
0.99999
0.99999
0.99999
0.99999
0.99999
0.99999
0.99999
0.99999
0.99999
0.99999
0.99999
0.99999
0.99999
0.99999
0.99999
0.99999
0.99999
0.99999
0.99999
0.99999
0.99999
0.99999
0.99999
0.99999
0.99999
0.99999
0.99999
0.99999
0.99999
0.99999
0.99999
0.99999
0.99999
0.999988
0.99998
0.99997
0.999965
0.999959
0.999969
0.951392
0.00635258
6.04234e-06
7.88946e-07
8.48634e-07
8.42332e-07
8.7534e-07
8.77147e-07
8.87858e-07
8.87884e-07
8.87543e-07
8.87969e-07
8.88045e-07
8.88057e-07
8.88064e-07
8.88069e-07
8.88085e-07
8.88091e-07
8.88251e-07
8.88258e-07
8.88618e-07
8.89613e-07
8.90061e-07
8.90843e-07
8.92312e-07
8.94036e-07
8.95518e-07
8.96234e-07
8.96234e-07
8.96234e-07
8.94864e-07
8.71575e-07
8.04399e-07
7.01672e-07
6.35835e-07
6.35361e-07
6.35956e-07
0.99999
0.99999
0.99999
0.99999
0.99999
0.99999
0.99999
0.99999
0.99999
0.99999
0.99999
0.99999
0.99999
0.99999
0.99999
0.99999
0.99999
0.99999
0.99999
0.99999
0.99999
0.99999
0.99999
0.99999
0.99999
0.99999
0.99999
0.99999
0.99999
0.99999
0.99999
0.99999
0.99999
0.99999
0.99999
0.99999
0.99999
0.99999
0.99999
0.99999
0.99999
0.99999
0.99999
0.99999
0.99999
0.99999
0.99999
0.99999
0.99999
0.99999
0.99999
0.99999
0.99999
0.99999
0.99999
0.99999
0.999988
0.999927
0.999236
0.947657
0.0503356
9.83737e-05
8.72301e-07
8.76794e-07
8.70834e-07
8.95077e-07
8.92432e-07
8.96481e-07
8.96977e-07
8.94698e-07
8.93233e-07
8.93125e-07
8.92417e-07
8.91907e-07
8.91251e-07
8.91265e-07
8.90887e-07
8.90888e-07
8.9089e-07
8.90893e-07
8.9095e-07
8.90951e-07
8.90953e-07
8.91007e-07
8.91194e-07
8.91517e-07
8.918e-07
8.91895e-07
8.91657e-07
8.89131e-07
8.74346e-07
8.21902e-07
7.17375e-07
6.32646e-07
6.32662e-07
6.33186e-07
0.99999
0.99999
0.99999
0.99999
0.99999
0.99999
0.99999
0.99999
0.99999
0.99999
0.99999
0.99999
0.99999
0.99999
0.99999
0.99999
0.99999
0.99999
0.99999
0.99999
0.99999
0.99999
0.99999
0.99999
0.99999
0.99999
0.99999
0.99999
0.99999
0.99999
0.99999
0.99999
0.99999
0.99999
0.99999
0.99999
0.99999
0.99999
0.99999
0.99999
0.99999
0.99999
0.99999
0.99999
0.99999
0.99999
0.99999
0.99999
0.99999
0.99999
0.99999
0.99999
0.99999
0.99999
0.999989
0.999984
0.999944
0.99963
0.997541
0.946975
0.0945094
0.000938961
1.65103e-06
8.62482e-07
8.67572e-07
8.91297e-07
8.89809e-07
8.95393e-07
8.93911e-07
8.94204e-07
8.94577e-07
8.94558e-07
8.93693e-07
8.92645e-07
8.91608e-07
8.91452e-07
8.91001e-07
8.90982e-07
8.90893e-07
8.90896e-07
8.91282e-07
8.91357e-07
8.91383e-07
8.91657e-07
8.92049e-07
8.92419e-07
8.92601e-07
8.92567e-07
8.91961e-07
8.87717e-07
8.67646e-07
8.09507e-07
7.0959e-07
6.32215e-07
6.32646e-07
6.32662e-07
0.99999
0.99999
0.99999
0.99999
0.99999
0.99999
0.99999
0.99999
0.99999
0.99999
0.99999
0.99999
0.99999
0.99999
0.99999
0.99999
0.99999
0.99999
0.99999
0.99999
0.99999
0.99999
0.99999
0.99999
0.99999
0.99999
0.99999
0.99999
0.99999
0.99999
0.99999
0.99999
0.99999
0.99999
0.99999
0.99999
0.99999
0.99999
0.99999
0.99999
0.99999
0.99999
0.99999
0.99999
0.99999
0.99999
0.99999
0.99999
0.99999
0.99999
0.99999
0.99999
0.99999
0.99999
0.999988
0.999967
0.999969
0.999886
0.998957
0.953058
0.0435563
8.95394e-05
8.60509e-07
8.63908e-07
8.85395e-07
9.10262e-07
9.1848e-07
9.20647e-07
9.24723e-07
9.27573e-07
9.24793e-07
9.24279e-07
9.16521e-07
9.06283e-07
9.0045e-07
8.97938e-07
8.96125e-07
8.94272e-07
8.92865e-07
8.91905e-07
8.92239e-07
8.92348e-07
8.92188e-07
8.92286e-07
8.92242e-07
8.9235e-07
8.92626e-07
8.92938e-07
8.92753e-07
8.91445e-07
8.80735e-07
8.33179e-07
7.26486e-07
6.31936e-07
6.31981e-07
6.32645e-07
0.99999
0.99999
0.99999
0.99999
0.99999
0.99999
0.99999
0.99999
0.99999
0.99999
0.99999
0.99999
0.99999
0.99999
0.99999
0.99999
0.99999
0.99999
0.99999
0.99999
0.99999
0.99999
0.99999
0.99999
0.99999
0.99999
0.99999
0.99999
0.99999
0.99999
0.99999
0.99999
0.99999
0.99999
0.99999
0.99999
0.99999
0.99999
0.99999
0.99999
0.99999
0.99999
0.99999
0.99999
0.99999
0.99999
0.99999
0.99999
0.99999
0.99999
0.99999
0.99999
0.99999
0.99999
0.999988
0.999973
0.999934
0.99992
0.999713
0.928022
0.0194119
3.45096e-06
1.34044e-06
2.55626e-06
1.54914e-06
9.02941e-07
9.12413e-07
1.65974e-06
2.1371e-06
1.14302e-06
8.84702e-07
9.47988e-07
9.80375e-07
9.54859e-07
9.28207e-07
8.99765e-07
8.97754e-07
8.88703e-07
8.88694e-07
8.88719e-07
8.91602e-07
9.0025e-07
9.07611e-07
9.06429e-07
9.02625e-07
8.95645e-07
8.92845e-07
8.93403e-07
8.937e-07
8.93593e-07
8.85525e-07
8.43641e-07
7.37252e-07
6.31711e-07
6.31909e-07
6.31982e-07
0.99999
0.99999
0.99999
0.99999
0.99999
0.99999
0.99999
0.99999
0.99999
0.99999
0.99999
0.99999
0.99999
0.99999
0.99999
0.99999
0.99999
0.99999
0.99999
0.99999
0.99999
0.99999
0.99999
0.99999
0.99999
0.99999
0.99999
0.99999
0.99999
0.99999
0.99999
0.99999
0.99999
0.99999
0.99999
0.99999
0.99999
0.99999
0.99999
0.99999
0.99999
0.99999
0.99999
0.99999
0.99999
0.99999
0.99999
0.99999
0.99999
0.99999
0.99999
0.99999
0.99999
0.99999
0.999988
0.999953
0.999881
0.999863
0.999841
0.88453
0.0135685
0.000293738
0.000255734
0.000249805
0.000275129
0.000285833
0.000306112
0.000350989
0.000377633
0.000343931
0.00024214
0.000133981
7.79007e-05
4.75364e-05
2.71192e-05
1.35393e-05
7.20223e-06
3.66479e-06
2.5832e-06
2.28341e-06
2.30528e-06
1.8075e-06
1.86881e-06
1.18808e-06
8.67836e-07
9.53896e-07
9.64189e-07
9.3909e-07
8.47857e-07
8.47669e-07
8.47482e-07
8.47295e-07
7.48787e-07
6.31474e-07
6.31356e-07
6.31907e-07
0.99999
0.99999
0.99999
0.99999
0.99999
0.99999
0.99999
0.99999
0.99999
0.99999
0.99999
0.99999
0.99999
0.99999
0.99999
0.99999
0.99999
0.99999
0.99999
0.99999
0.99999
0.99999
0.99999
0.99999
0.99999
0.99999
0.99999
0.99999
0.99999
0.99999
0.99999
0.99999
0.99999
0.99999
0.99999
0.99999
0.99999
0.99999
0.99999
0.99999
0.99999
0.99999
0.99999
0.99999
0.99999
0.99999
0.99999
0.99999
0.99999
0.99999
0.99999
0.99999
0.99999
0.99999
0.999972
0.999914
0.999952
0.999966
0.999987
0.681848
0.0184343
0.00930595
0.00922286
0.0098551
0.0109333
0.0111415
0.0108625
0.0114015
0.0117239
0.0113269
0.00903929
0.00736852
0.0062314
0.00523941
0.00434323
0.00352679
0.00303539
0.00259112
0.002341
0.00217757
0.00183197
0.0015094
0.00131941
0.00106801
0.000737636
0.000474249
0.000297883
0.00020267
0.000124712
5.79668e-05
6.96085e-06
8.93376e-07
6.30781e-07
6.3103e-07
6.31482e-07
6.66005e-07
0.99999
0.99999
0.99999
0.99999
0.99999
0.99999
0.99999
0.99999
0.99999
0.99999
0.99999
0.99999
0.99999
0.99999
0.99999
0.99999
0.99999
0.99999
0.99999
0.99999
0.99999
0.99999
0.99999
0.99999
0.99999
0.99999
0.99999
0.99999
0.99999
0.99999
0.99999
0.99999
0.99999
0.99999
0.99999
0.99999
0.99999
0.99999
0.99999
0.99999
0.99999
0.99999
0.99999
0.99999
0.99999
0.99999
0.99999
0.99999
0.99999
0.99999
0.99999
0.99999
0.99999
0.99999
0.999988
0.999955
0.999904
0.999899
0.999971
0.462929
0.0351249
0.0318273
0.0329465
0.0334167
0.0341109
0.0352991
0.0367489
0.0377777
0.0380471
0.0378686
0.0369736
0.0366952
0.0365899
0.0364188
0.0361633
0.0361794
0.0359018
0.0355272
0.0351149
0.0345308
0.0337323
0.0335205
0.0336653
0.0326662
0.0291931
0.0259523
0.0230608
0.0217748
0.0222959
0.0240615
0.0156805
0.00832271
0.00445969
0.00156154
0.000109238
0.00191337
0.999991
0.99999
0.99999
0.99999
0.99999
0.99999
0.99999
0.99999
0.99999
0.99999
0.99999
0.99999
0.99999
0.99999
0.99999
0.99999
0.99999
0.99999
0.99999
0.99999
0.99999
0.99999
0.99999
0.99999
0.99999
0.99999
0.99999
0.99999
0.99999
0.99999
0.99999
0.99999
0.99999
0.99999
0.99999
0.99999
0.99999
0.99999
0.99999
0.99999
0.99999
0.99999
0.99999
0.99999
0.99999
0.99999
0.99999
0.99999
0.99999
0.99999
0.99999
0.99999
0.99999
0.99999
0.999983
0.999949
0.999927
0.9999
0.99996
0.530029
0.0366056
0.0305718
0.0305439
0.0307465
0.0328172
0.0346717
0.0366154
0.0384043
0.0400152
0.041471
0.0432238
0.0448079
0.046637
0.0494103
0.0523174
0.0556635
0.0595554
0.0628857
0.0658222
0.0693246
0.0739518
0.0791852
0.0847995
0.0899525
0.0949639
0.0999266
0.104254
0.109813
0.118621
0.12609
0.132672
0.143017
0.156343
0.175268
0.218504
0.404233
0.999991
0.99999
0.99999
0.99999
0.99999
0.99999
0.99999
0.99999
0.99999
0.99999
0.99999
0.99999
0.99999
0.99999
0.99999
0.99999
0.99999
0.99999
0.99999
0.99999
0.99999
0.99999
0.99999
0.99999
0.99999
0.99999
0.99999
0.99999
0.99999
0.99999
0.99999
0.99999
0.99999
0.99999
0.99999
0.99999
0.99999
0.99999
0.99999
0.99999
0.99999
0.99999
0.99999
0.99999
0.99999
0.99999
0.99999
0.99999
0.99999
0.99999
0.99999
0.99999
0.99999
0.999989
0.999957
0.99989
0.999901
0.999972
0.99999
0.716325
0.0141555
0.00336649
0.00203874
0.0016067
0.00152286
0.00148862
0.0014774
0.00147709
0.001443
0.00142946
0.001537
0.00184167
0.00230704
0.00282767
0.00329056
0.00357775
0.00358483
0.00308421
0.00269324
0.00261352
0.0026091
0.00253326
0.00241506
0.0022561
0.00219616
0.00263634
0.0029825
0.00275409
0.00247306
0.00233275
0.00182903
0.00150359
0.00104086
0.000778046
0.000612032
0.000463864
0.999991
0.99999
0.99999
0.99999
0.99999
0.99999
0.99999
0.99999
0.99999
0.99999
0.99999
0.99999
0.99999
0.99999
0.99999
0.99999
0.99999
0.99999
0.99999
0.99999
0.99999
0.99999
0.99999
0.99999
0.99999
0.99999
0.99999
0.99999
0.99999
0.99999
0.99999
0.99999
0.99999
0.99999
0.99999
0.99999
0.99999
0.99999
0.99999
0.99999
0.99999
0.99999
0.99999
0.99999
0.99999
0.99999
0.99999
0.99999
0.99999
0.99999
0.99999
0.99999
0.99999
0.999989
0.999972
0.999954
0.99995
0.999954
0.999959
0.828309
0.00788419
0.000195525
0.000139187
0.000117735
0.000111775
8.87533e-05
4.53813e-05
2.28248e-05
1.27676e-05
8.08986e-06
9.65789e-06
1.42267e-05
1.63723e-05
1.64209e-05
1.80328e-05
1.76179e-05
1.38416e-05
1.01022e-05
7.91394e-06
6.58393e-06
6.34033e-06
6.25957e-06
5.24189e-06
4.2085e-06
3.41247e-06
2.84905e-06
2.2554e-06
1.46051e-06
6.70982e-07
8.51894e-07
7.99849e-07
7.87781e-07
6.42129e-07
6.33437e-07
6.33515e-07
6.33557e-07
0.999992
0.999991
0.99999
0.99999
0.99999
0.99999
0.99999
0.99999
0.99999
0.99999
0.99999
0.99999
0.99999
0.99999
0.99999
0.99999
0.99999
0.99999
0.99999
0.99999
0.99999
0.99999
0.99999
0.99999
0.99999
0.99999
0.99999
0.99999
0.99999
0.99999
0.99999
0.99999
0.99999
0.99999
0.99999
0.99999
0.99999
0.99999
0.99999
0.99999
0.99999
0.99999
0.99999
0.99999
0.99999
0.99999
0.99999
0.99999
0.99999
0.99999
0.99999
0.99999
0.99999
0.99999
0.999979
0.999956
0.99996
0.999959
0.999924
0.920016
0.0210549
7.88952e-07
5.0448e-06
2.36972e-06
2.40649e-06
1.83786e-06
1.1593e-06
8.57214e-07
9.24164e-07
1.00777e-06
9.04494e-07
8.91419e-07
8.82392e-07
8.82328e-07
8.8675e-07
9.07701e-07
9.18949e-07
9.15904e-07
9.03106e-07
8.85794e-07
8.70599e-07
8.62572e-07
8.63688e-07
8.69692e-07
8.76111e-07
8.81896e-07
8.86587e-07
8.91264e-07
8.92153e-07
8.89334e-07
8.70003e-07
8.04427e-07
6.97453e-07
6.33806e-07
6.33557e-07
6.34097e-07
0.999992
0.999992
0.99999
0.99999
0.99999
0.99999
0.99999
0.99999
0.99999
0.99999
0.99999
0.99999
0.99999
0.99999
0.99999
0.99999
0.99999
0.99999
0.99999
0.99999
0.99999
0.99999
0.99999
0.99999
0.99999
0.99999
0.99999
0.99999
0.99999
0.99999
0.99999
0.99999
0.99999
0.99999
0.99999
0.99999
0.99999
0.99999
0.99999
0.99999
0.99999
0.99999
0.99999
0.99999
0.99999
0.99999
0.99999
0.99999
0.99999
0.99999
0.99999
0.99999
0.99999
0.99999
0.999981
0.999965
0.999969
0.99995
0.999829
0.939496
0.039026
7.88947e-07
7.88951e-07
7.8895e-07
7.92042e-07
8.01422e-07
8.00117e-07
8.03556e-07
8.43097e-07
8.82914e-07
8.86588e-07
8.84967e-07
8.82328e-07
8.82392e-07
8.82336e-07
8.82392e-07
8.82389e-07
8.83094e-07
8.83624e-07
8.84223e-07
8.85556e-07
8.85314e-07
8.84813e-07
8.85123e-07
8.86139e-07
8.87327e-07
8.88302e-07
8.88731e-07
8.88514e-07
8.85551e-07
8.66082e-07
8.02182e-07
6.96515e-07
6.34134e-07
6.34102e-07
6.34103e-07
0.999993
0.999993
0.99999
0.99999
0.99999
0.99999
0.99999
0.99999
0.99999
0.99999
0.99999
0.99999
0.99999
0.99999
0.99999
0.99999
0.99999
0.99999
0.99999
0.99999
0.99999
0.99999
0.99999
0.99999
0.99999
0.99999
0.99999
0.99999
0.99999
0.99999
0.99999
0.99999
0.99999
0.99999
0.99999
0.99999
0.99999
0.99999
0.99999
0.99999
0.99999
0.99999
0.99999
0.99999
0.99999
0.99999
0.99999
0.99999
0.99999
0.99999
0.99999
0.99999
0.99999
0.99999
0.99997
0.999952
0.999965
0.999942
0.999621
0.955841
0.0755061
0.000256232
7.8895e-07
8.15854e-07
8.14536e-07
8.46201e-07
8.48879e-07
8.63112e-07
8.74566e-07
8.83039e-07
8.83482e-07
8.83363e-07
8.82392e-07
8.82353e-07
8.82392e-07
8.82376e-07
8.82392e-07
8.82632e-07
8.83014e-07
8.8377e-07
8.84935e-07
8.84883e-07
8.84861e-07
8.85423e-07
8.86643e-07
8.87937e-07
8.89019e-07
8.8993e-07
8.90165e-07
8.87416e-07
8.67624e-07
8.02949e-07
6.98261e-07
6.34581e-07
6.34103e-07
6.34697e-07
0.999995
0.999994
0.999991
0.99999
0.99999
0.99999
0.99999
0.99999
0.99999
0.99999
0.99999
0.99999
0.99999
0.99999
0.99999
0.99999
0.99999
0.99999
0.99999
0.99999
0.99999
0.99999
0.99999
0.99999
0.99999
0.99999
0.99999
0.99999
0.99999
0.99999
0.99999
0.99999
0.99999
0.99999
0.99999
0.99999
0.99999
0.99999
0.99999
0.99999
0.99999
0.99999
0.99999
0.99999
0.99999
0.99999
0.99999
0.99999
0.99999
0.99999
0.99999
0.99999
0.99999
0.999989
0.999964
0.999945
0.999956
0.999962
0.999104
0.962077
0.0739727
0.000411983
7.88949e-07
8.36112e-07
8.41501e-07
8.72285e-07
8.63299e-07
8.79619e-07
8.8066e-07
8.83337e-07
8.83056e-07
8.83015e-07
8.8296e-07
8.83e-07
8.8264e-07
8.82627e-07
8.82392e-07
8.82657e-07
8.82533e-07
8.8263e-07
8.83248e-07
8.83515e-07
8.84199e-07
8.85633e-07
8.87229e-07
8.88638e-07
8.89787e-07
8.90505e-07
8.90501e-07
8.86792e-07
8.64673e-07
7.98012e-07
6.94682e-07
6.34858e-07
6.34704e-07
6.34705e-07
0.999998
0.999995
0.999991
0.99999
0.99999
0.99999
0.99999
0.99999
0.99999
0.99999
0.99999
0.99999
0.99999
0.99999
0.99999
0.99999
0.99999
0.99999
0.99999
0.99999
0.99999
0.99999
0.99999
0.99999
0.99999
0.99999
0.99999
0.99999
0.99999
0.99999
0.99999
0.99999
0.99999
0.99999
0.99999
0.99999
0.99999
0.99999
0.99999
0.99999
0.99999
0.99999
0.99999
0.99999
0.99999
0.99999
0.99999
0.99999
0.99999
0.99999
0.99999
0.99999
0.99999
0.999987
0.999957
0.999945
0.999949
0.999933
0.998909
0.928566
0.0264349
2.93397e-06
7.88947e-07
8.53293e-07
8.49165e-07
8.74461e-07
8.6744e-07
8.83905e-07
8.81406e-07
8.81842e-07
8.81822e-07
8.81848e-07
8.81819e-07
8.81868e-07
8.81839e-07
8.81874e-07
8.81853e-07
8.81893e-07
8.81886e-07
8.81901e-07
8.82019e-07
8.82091e-07
8.82743e-07
8.84217e-07
8.85892e-07
8.87308e-07
8.88395e-07
8.89198e-07
8.8935e-07
8.85898e-07
8.63738e-07
7.96851e-07
6.94211e-07
6.35235e-07
6.34705e-07
6.35353e-07
0.999998
0.999994
0.999991
0.99999
0.99999
0.99999
0.99999
0.99999
0.99999
0.99999
0.99999
0.99999
0.99999
0.99999
0.99999
0.99999
0.99999
0.99999
0.99999
0.99999
0.99999
0.99999
0.99999
0.99999
0.99999
0.99999
0.99999
0.99999
0.99999
0.99999
0.99999
0.99999
0.99999
0.99999
0.99999
0.99999
0.99999
0.99999
0.99999
0.99999
0.99999
0.99999
0.99999
0.99999
0.99999
0.99999
0.99999
0.99999
0.99999
0.99999
0.99999
0.99999
0.99999
0.99999
0.999971
0.999955
0.999946
0.999939
0.999549
0.919246
0.00437964
7.88958e-07
8.73105e-07
8.60513e-07
8.57286e-07
8.86499e-07
8.76778e-07
8.88866e-07
8.85963e-07
8.85291e-07
8.85492e-07
8.84925e-07
8.84372e-07
8.8411e-07
8.83553e-07
8.83462e-07
8.83199e-07
8.83493e-07
8.83468e-07
8.83751e-07
8.8458e-07
8.85021e-07
8.85877e-07
8.87434e-07
8.8911e-07
8.90441e-07
8.91312e-07
8.91833e-07
8.91946e-07
8.89119e-07
8.67559e-07
8.00558e-07
6.96859e-07
6.35437e-07
6.35361e-07
6.35362e-07
0.99999
0.99999
0.99999
0.99999
0.99999
0.99999
0.99999
0.99999
0.99999
0.99999
0.99999
0.99999
0.99999
0.99999
0.99999
0.99999
0.99999
0.99999
0.99999
0.99999
0.99999
0.99999
0.99999
0.99999
0.99999
0.99999
0.99999
0.99999
0.99999
0.99999
0.99999
0.99999
0.99999