/*--------------------------------*- C++ -*----------------------------------*\
| =========                 |                                                 |
| \\      /  F ield         | OpenFOAM: The Open Source CFD Toolbox           |
|  \\    /   O peration     | Version:  2.3.0                                 |
|   \\  /    A nd           | Web:      www.OpenFOAM.org                      |
|    \\/     M anipulation  |                                                 |
\*---------------------------------------------------------------------------*/
FoamFile
{
    version     2.0;
    format      ascii;
    class       volScalarField;
    location    "2";
    object      dsauterMean;
}
// * * * * * * * * * * * * * * * * * * * * * * * * * * * * * * * * * * * * * //

dimensions      [0 0 0 0 0 0 0];

internalField   nonuniform List<scalar> 
6144
(
0.00833335
0.00833335
0.00833335
0.00833335
0.00833335
0.00833335
0.00833335
0.00833335
0.00833335
0.00833335
0.00833335
0.00833335
0.00833335
0.00833335
0.00833335
0.00833335
0.00833335
0.00833335
0.00833335
0.00833335
0.00833335
0.00833335
0.00833335
0.00833335
0.00833335
0.00833335
0.00833335
0.00833335
0.00833335
0.00833335
0.00833335
0.00833335
0.00833335
0.00833335
0.00833335
0.00833335
0.00833335
0.00833335
0.00833335
0.00833335
0.00833335
0.00833335
0.00833335
0.00833335
0.00833335
0.00833335
0.00833335
0.00833335
0.00833335
0.00833335
0.00833335
0.00833335
0.00833335
0.00833335
0.00833335
0.00833335
0.00833335
0.00833335
0.00833335
0.00833566
0.00836058
0.0083325
0.0034745
0.00339464
0.00329039
0.0032081
0.00312576
0.00300229
0.0029199
0.00281711
0.0027347
0.00263175
0.00254944
0.00246709
0.00238479
0.00228182
0.00219953
0.00211714
0.00203484
0.00195359
0.00186413
0.00180139
0.00169025
0.00164998
0.00155583
0.00149966
0.00141635
0.00135759
0.00129258
0.00125267
0.00121149
0.00117034
0.00114977
0.00112916
0.00114961
0.00112951
0.00833335
0.00833335
0.00833335
0.00833335
0.00833335
0.00833335
0.00833335
0.00833335
0.00833335
0.00833335
0.00833335
0.00833335
0.00833335
0.00833335
0.00833335
0.00833335
0.00833335
0.00833335
0.00833335
0.00833335
0.00833335
0.00833335
0.00833335
0.00833335
0.00833335
0.00833335
0.00833335
0.00833335
0.00833335
0.00833335
0.00833335
0.00833335
0.00833335
0.00833335
0.00833335
0.00833335
0.00833335
0.00833335
0.00833335
0.00833335
0.00833335
0.00833335
0.00833335
0.00833335
0.00833335
0.00833335
0.00833335
0.00833335
0.00833335
0.00833335
0.00833335
0.00833335
0.00833335
0.00833335
0.00833335
0.00833335
0.00833335
0.00833329
0.00833065
0.00833622
0.00833226
0.00833365
0.00407259
0.00341403
0.00330957
0.00322491
0.00312524
0.00302284
0.00294097
0.00284295
0.00275683
0.00264948
0.0025694
0.00246668
0.00237065
0.00227925
0.0022028
0.00212703
0.00202601
0.00195161
0.00187529
0.00178624
0.00171144
0.001644
0.00156174
0.00150123
0.00143792
0.00137617
0.00131446
0.00125267
0.00121151
0.00119092
0.0011447
0.00115168
0.00114995
0.00115015
0.00833335
0.00833335
0.00833335
0.00833335
0.00833335
0.00833335
0.00833335
0.00833335
0.00833335
0.00833335
0.00833335
0.00833335
0.00833335
0.00833335
0.00833335
0.00833335
0.00833335
0.00833335
0.00833335
0.00833335
0.00833335
0.00833335
0.00833335
0.00833335
0.00833335
0.00833335
0.00833335
0.00833335
0.00833335
0.00833335
0.00833335
0.00833335
0.00833335
0.00833335
0.00833335
0.00833335
0.00833335
0.00833335
0.00833335
0.00833335
0.00833335
0.00833335
0.00833335
0.00833335
0.00833335
0.00833335
0.00833335
0.00833335
0.00833335
0.00833335
0.00833335
0.00833335
0.00833335
0.00833335
0.00833335
0.00833335
0.00833335
0.00833336
0.00833393
0.00835979
0.00763394
0.00833213
0.00508114
0.00342094
0.00328742
0.00320812
0.00310281
0.00300604
0.00291997
0.00278441
0.00272828
0.00261151
0.00255184
0.00245169
0.00239974
0.00228648
0.00220114
0.00212234
0.00202142
0.00196214
0.00187727
0.00178783
0.0017261
0.00164367
0.00156002
0.00149972
0.00143792
0.00137618
0.00131443
0.00125267
0.00121404
0.00118887
0.00115012
0.00114004
0.00117575
0.00115159
0.00833335
0.00833335
0.00833335
0.00833335
0.00833335
0.00833335
0.00833335
0.00833335
0.00833335
0.00833335
0.00833335
0.00833335
0.00833335
0.00833335
0.00833335
0.00833335
0.00833335
0.00833335
0.00833335
0.00833335
0.00833335
0.00833335
0.00833335
0.00833335
0.00833335
0.00833335
0.00833335
0.00833335
0.00833335
0.00833335
0.00833335
0.00833335
0.00833335
0.00833335
0.00833335
0.00833335
0.00833335
0.00833335
0.00833335
0.00833335
0.00833335
0.00833335
0.00833335
0.00833335
0.00833335
0.00833335
0.00833335
0.00833335
0.00833335
0.00833335
0.00833335
0.00833335
0.00833335
0.00833335
0.00833335
0.00833335
0.00833335
0.00833335
0.00833326
0.00833345
0.00833518
0.0078992
0.00475185
0.00419668
0.0039284
0.00350082
0.00345018
0.00312576
0.00303946
0.00284384
0.00273472
0.00265221
0.00254942
0.00246712
0.00238475
0.00230246
0.00219949
0.00211701
0.00202516
0.00195531
0.00187042
0.00177793
0.00171127
0.00164922
0.00155686
0.00149957
0.00143794
0.00137928
0.00130571
0.00125267
0.0012116
0.00118394
0.00115775
0.00114969
0.00114974
0.00117033
0.00833335
0.00833335
0.00833335
0.00833335
0.00833335
0.00833335
0.00833335
0.00833335
0.00833335
0.00833335
0.00833335
0.00833335
0.00833335
0.00833335
0.00833335
0.00833335
0.00833335
0.00833335
0.00833335
0.00833335
0.00833335
0.00833335
0.00833335
0.00833335
0.00833335
0.00833335
0.00833335
0.00833335
0.00833335
0.00833335
0.00833335
0.00833335
0.00833335
0.00833335
0.00833335
0.00833335
0.00833335
0.00833335
0.00833335
0.00833335
0.00833335
0.00833335
0.00833335
0.00833335
0.00833335
0.00833335
0.00833335
0.00833335
0.00833335
0.00833335
0.00833335
0.00833335
0.00833335
0.00833335
0.00833335
0.00833335
0.00833335
0.00833335
0.00833335
0.00836105
0.00758717
0.00833529
0.00772194
0.0077822
0.00762779
0.00697632
0.00681816
0.0061977
0.00598024
0.00561786
0.00545355
0.00505287
0.00459514
0.00416995
0.00376347
0.00318274
0.00283945
0.00271992
0.00249888
0.00230968
0.00216162
0.00201361
0.00184948
0.00166433
0.001582
0.00148474
0.00142323
0.00136094
0.00129562
0.00124978
0.0012115
0.00117034
0.00112909
0.00112907
0.00114986
0.00114975
0.00833335
0.00833335
0.00833335
0.00833335
0.00833335
0.00833335
0.00833335
0.00833335
0.00833335
0.00833335
0.00833335
0.00833335
0.00833335
0.00833335
0.00833335
0.00833335
0.00833335
0.00833335
0.00833335
0.00833335
0.00833335
0.00833335
0.00833335
0.00833335
0.00833335
0.00833335
0.00833335
0.00833335
0.00833335
0.00833335
0.00833335
0.00833335
0.00833335
0.00833335
0.00833335
0.00833335
0.00833335
0.00833335
0.00833335
0.00833335
0.00833335
0.00833335
0.00833335
0.00833335
0.00833335
0.00833335
0.00833335
0.00833335
0.00833335
0.00833335
0.00833335
0.00833335
0.00833335
0.00833335
0.00833335
0.00833335
0.00833335
0.00833335
0.00833335
0.00835642
0.00751276
0.00835748
0.00826522
0.00832839
0.00831995
0.00832261
0.00832945
0.00824819
0.00824723
0.00822418
0.00837603
0.00812618
0.00823963
0.00812731
0.00804287
0.00778271
0.00762133
0.00745912
0.00719413
0.0069851
0.0066761
0.00615305
0.00500921
0.00456116
0.00393475
0.00344623
0.00284414
0.00209126
0.00154431
0.00135712
0.00123582
0.00116494
0.00115066
0.00111084
0.00110799
0.00115137
0.00833335
0.00833335
0.00833335
0.00833335
0.00833335
0.00833335
0.00833335
0.00833335
0.00833335
0.00833335
0.00833335
0.00833335
0.00833335
0.00833335
0.00833335
0.00833335
0.00833335
0.00833335
0.00833335
0.00833335
0.00833335
0.00833335
0.00833335
0.00833335
0.00833335
0.00833335
0.00833335
0.00833335
0.00833335
0.00833335
0.00833335
0.00833335
0.00833335
0.00833335
0.00833335
0.00833335
0.00833335
0.00833335
0.00833335
0.00833335
0.00833335
0.00833335
0.00833335
0.00833335
0.00833335
0.00833335
0.00833335
0.00833335
0.00833335
0.00833335
0.00833335
0.00833335
0.00833335
0.00833335
0.00833335
0.00833335
0.00833335
0.00833334
0.00833347
0.00833282
0.00833959
0.00889753
0.00717432
0.00836221
0.0083459
0.00808104
0.00814681
0.0081387
0.00801856
0.00817541
0.00819199
0.00809705
0.0083586
0.00810375
0.00843911
0.00814224
0.00853763
0.00780485
0.00831162
0.00834503
0.00820984
0.00819801
0.00822685
0.00814274
0.00805257
0.0080227
0.00788258
0.00802907
0.00767386
0.00721888
0.0071486
0.00692783
0.00602892
0.00578915
0.00370633
0.00481774
0.00833335
0.00833335
0.00833335
0.00833335
0.00833335
0.00833335
0.00833335
0.00833335
0.00833335
0.00833335
0.00833335
0.00833335
0.00833335
0.00833335
0.00833335
0.00833335
0.00833335
0.00833335
0.00833335
0.00833335
0.00833335
0.00833335
0.00833335
0.00833335
0.00833335
0.00833335
0.00833335
0.00833335
0.00833335
0.00833335
0.00833335
0.00833335
0.00833335
0.00833335
0.00833335
0.00833335
0.00833335
0.00833335
0.00833335
0.00833335
0.00833335
0.00833335
0.00833335
0.00833335
0.00833335
0.00833335
0.00833335
0.00833335
0.00833335
0.00833335
0.00833335
0.00833335
0.00833335
0.00833335
0.00833335
0.00833335
0.00833335
0.00833331
0.00833463
0.00833143
0.00831594
0.00837773
0.00831939
0.0083242
0.00832819
0.00828732
0.00820273
0.00845695
0.00824786
0.00837251
0.00828125
0.008304
0.00831574
0.00834141
0.00827891
0.0082611
0.00815125
0.00844777
0.00832511
0.00833198
0.00817665
0.00808809
0.00800932
0.00801083
0.00807487
0.00813672
0.00831783
0.00827257
0.00794896
0.00813441
0.00800018
0.00783909
0.00855598
0.00775105
0.00839927
0.008223
0.00833335
0.00833335
0.00833335
0.00833335
0.00833335
0.00833335
0.00833335
0.00833335
0.00833335
0.00833335
0.00833335
0.00833335
0.00833335
0.00833335
0.00833335
0.00833335
0.00833335
0.00833335
0.00833335
0.00833335
0.00833335
0.00833335
0.00833335
0.00833335
0.00833335
0.00833335
0.00833335
0.00833335
0.00833335
0.00833335
0.00833335
0.00833335
0.00833335
0.00833335
0.00833335
0.00833335
0.00833335
0.00833335
0.00833335
0.00833335
0.00833335
0.00833335
0.00833335
0.00833335
0.00833335
0.00833335
0.00833335
0.00833335
0.00833335
0.00833335
0.00833335
0.00833335
0.00833335
0.00833335
0.00833335
0.00833335
0.00833335
0.00833336
0.00833319
0.00833349
0.00822896
0.00790551
0.00799795
0.00773516
0.00840464
0.00757699
0.00787607
0.00813631
0.00831185
0.00787676
0.0079369
0.00854816
0.00770781
0.00846013
0.00799356
0.00804835
0.00831309
0.00834109
0.00810217
0.00819685
0.00779559
0.00795704
0.00804042
0.00826851
0.00807965
0.0083439
0.00805926
0.0081016
0.00806162
0.00805234
0.00786146
0.00745667
0.00786959
0.00799565
0.00714847
0.00626982
0.00833335
0.00833335
0.00833335
0.00833335
0.00833335
0.00833335
0.00833335
0.00833335
0.00833335
0.00833335
0.00833335
0.00833335
0.00833335
0.00833335
0.00833335
0.00833335
0.00833335
0.00833335
0.00833335
0.00833335
0.00833335
0.00833335
0.00833335
0.00833335
0.00833335
0.00833335
0.00833335
0.00833335
0.00833335
0.00833335
0.00833335
0.00833335
0.00833335
0.00833335
0.00833335
0.00833335
0.00833335
0.00833335
0.00833335
0.00833335
0.00833335
0.00833335
0.00833335
0.00833335
0.00833335
0.00833335
0.00833335
0.00833335
0.00833335
0.00833335
0.00833335
0.00833335
0.00833335
0.00833335
0.00833335
0.00833335
0.00833335
0.00833335
0.00833337
0.00833353
0.00831277
0.00841162
0.00783505
0.00827219
0.00821468
0.00827712
0.00820361
0.00832312
0.00827283
0.00834119
0.00823326
0.0086486
0.0078304
0.00841935
0.0083045
0.00833584
0.00834829
0.00814922
0.00809705
0.00809676
0.00811952
0.00774828
0.0075598
0.00751125
0.00711029
0.00668466
0.00583817
0.00511291
0.00437769
0.00375917
0.00263432
0.00137505
0.00119091
0.00112917
0.00113008
0.00114884
0.00833335
0.00833335
0.00833335
0.00833335
0.00833335
0.00833335
0.00833335
0.00833335
0.00833335
0.00833335
0.00833335
0.00833335
0.00833335
0.00833335
0.00833335
0.00833335
0.00833335
0.00833335
0.00833335
0.00833335
0.00833335
0.00833335
0.00833335
0.00833335
0.00833335
0.00833335
0.00833335
0.00833335
0.00833335
0.00833335
0.00833335
0.00833335
0.00833335
0.00833335
0.00833335
0.00833335
0.00833335
0.00833335
0.00833335
0.00833335
0.00833335
0.00833335
0.00833335
0.00833335
0.00833335
0.00833335
0.00833335
0.00833335
0.00833335
0.00833335
0.00833335
0.00833335
0.00833335
0.00833335
0.00833335
0.00833335
0.00833335
0.00833338
0.0083315
0.00833236
0.00833668
0.00829491
0.00824746
0.00812318
0.00804086
0.00797951
0.00790356
0.00780557
0.00770174
0.00760347
0.00746484
0.00741884
0.00720115
0.00716966
0.00693365
0.00672999
0.00648074
0.00608601
0.00554546
0.00475251
0.00380867
0.00318915
0.00255858
0.0020958
0.00161539
0.00148312
0.00143793
0.00135131
0.00129782
0.00124892
0.0012115
0.00117026
0.00113522
0.00113054
0.00114036
0.00114975
0.00833335
0.00833335
0.00833335
0.00833335
0.00833335
0.00833335
0.00833335
0.00833335
0.00833335
0.00833335
0.00833335
0.00833335
0.00833335
0.00833335
0.00833335
0.00833335
0.00833335
0.00833335
0.00833335
0.00833335
0.00833335
0.00833335
0.00833335
0.00833335
0.00833335
0.00833335
0.00833335
0.00833335
0.00833335
0.00833335
0.00833335
0.00833335
0.00833335
0.00833335
0.00833335
0.00833335
0.00833335
0.00833335
0.00833335
0.00833335
0.00833335
0.00833335
0.00833335
0.00833335
0.00833335
0.00833335
0.00833335
0.00833335
0.00833335
0.00833335
0.00833335
0.00833335
0.00833335
0.00833335
0.00833335
0.00833335
0.00833335
0.00833335
0.00833338
0.00833572
0.00833553
0.00883719
0.00699178
0.00430186
0.00420988
0.00403371
0.00384144
0.00366309
0.00346286
0.00314238
0.00289934
0.00267122
0.00258859
0.00248773
0.00238475
0.00230242
0.00221999
0.0021172
0.00203478
0.00195186
0.00187006
0.00177859
0.00173573
0.00164368
0.00156141
0.00149968
0.00143798
0.00135564
0.00131442
0.00125842
0.00120473
0.00117033
0.00112944
0.00114962
0.00114979
0.00117034
0.00833335
0.00833335
0.00833335
0.00833335
0.00833335
0.00833335
0.00833335
0.00833335
0.00833335
0.00833335
0.00833335
0.00833335
0.00833335
0.00833335
0.00833335
0.00833335
0.00833335
0.00833335
0.00833335
0.00833335
0.00833335
0.00833335
0.00833335
0.00833335
0.00833335
0.00833335
0.00833335
0.00833335
0.00833335
0.00833335
0.00833335
0.00833335
0.00833335
0.00833335
0.00833335
0.00833335
0.00833335
0.00833335
0.00833335
0.00833335
0.00833335
0.00833335
0.00833335
0.00833335
0.00833335
0.00833335
0.00833335
0.00833335
0.00833335
0.00833335
0.00833335
0.00833335
0.00833335
0.00833335
0.00833335
0.00833335
0.00833335
0.00833335
0.00833335
0.00833387
0.00835002
0.00833244
0.00748926
0.00341379
0.00331096
0.00320809
0.00312575
0.00302274
0.00294049
0.00280814
0.00276664
0.00263175
0.00257
0.00246709
0.00238459
0.00228209
0.00220021
0.00210192
0.00203681
0.0019525
0.00187003
0.00178752
0.0017268
0.0016362
0.00156416
0.00150569
0.00143792
0.00136366
0.00131475
0.00125302
0.00121146
0.00119092
0.00114975
0.00114975
0.00117034
0.00117034
0.00833335
0.00833335
0.00833335
0.00833335
0.00833335
0.00833335
0.00833335
0.00833335
0.00833335
0.00833335
0.00833335
0.00833335
0.00833335
0.00833335
0.00833335
0.00833335
0.00833335
0.00833335
0.00833335
0.00833335
0.00833335
0.00833335
0.00833335
0.00833335
0.00833335
0.00833335
0.00833335
0.00833335
0.00833335
0.00833335
0.00833335
0.00833335
0.00833335
0.00833335
0.00833335
0.00833335
0.00833335
0.00833335
0.00833335
0.00833335
0.00833335
0.00833335
0.00833335
0.00833335
0.00833335
0.00833335
0.00833335
0.00833335
0.00833335
0.00833335
0.00833335
0.00833335
0.00833335
0.00833335
0.00833335
0.00833335
0.00833335
0.00833335
0.00833335
0.00833323
0.0083342
0.00833922
0.00438151
0.00341392
0.00331101
0.00320757
0.00312661
0.00302266
0.00291997
0.00281696
0.00273471
0.00263175
0.00254996
0.00246709
0.00237804
0.00230108
0.00219322
0.00210631
0.0020241
0.0019525
0.00187013
0.00179037
0.0017144
0.00165936
0.00156106
0.00149914
0.00143729
0.00137615
0.00131442
0.00125237
0.00121052
0.00118855
0.00115435
0.00114975
0.00117034
0.00117034
0.00833335
0.00833335
0.00833335
0.00833335
0.00833335
0.00833335
0.00833335
0.00833335
0.00833335
0.00833335
0.00833335
0.00833335
0.00833335
0.00833335
0.00833335
0.00833335
0.00833335
0.00833335
0.00833335
0.00833335
0.00833335
0.00833335
0.00833335
0.00833335
0.00833335
0.00833335
0.00833335
0.00833335
0.00833335
0.00833335
0.00833335
0.00833335
0.00833335
0.00833335
0.00833335
0.00833335
0.00833335
0.00833335
0.00833335
0.00833335
0.00833335
0.00833335
0.00833335
0.00833335
0.00833335
0.00833335
0.00833335
0.00833335
0.00833335
0.00833335
0.00833335
0.00833335
0.00833335
0.00833335
0.00833335
0.00833335
0.00833335
0.00833335
0.00833333
0.00831901
0.00930926
0.00767016
0.00347563
0.00339314
0.003313
0.00320624
0.00312551
0.00302285
0.00291986
0.00280914
0.00276014
0.00265234
0.00256897
0.0024671
0.00238475
0.00230242
0.00222431
0.00213794
0.00201162
0.00196679
0.00187001
0.0017816
0.00173029
0.00164413
0.00156322
0.00147216
0.00144848
0.00136741
0.00130891
0.00125436
0.00120574
0.00119762
0.00114873
0.00114975
0.00117035
0.00117033
0.00833335
0.00833335
0.00833335
0.00833335
0.00833335
0.00833335
0.00833335
0.00833335
0.00833335
0.00833335
0.00833335
0.00833335
0.00833335
0.00833335
0.00833335
0.00833335
0.00833335
0.00833335
0.00833335
0.00833335
0.00833335
0.00833335
0.00833335
0.00833335
0.00833335
0.00833335
0.00833335
0.00833335
0.00833335
0.00833335
0.00833335
0.00833335
0.00833335
0.00833335
0.00833335
0.00833335
0.00833335
0.00833335
0.00833335
0.00833335
0.00833335
0.00833335
0.00833335
0.00833335
0.00833335
0.00833335
0.00833335
0.00833335
0.00833335
0.00833335
0.00833335
0.00833335
0.00833335
0.00833335
0.00833335
0.00833335
0.00833335
0.00833335
0.00833338
0.00833335
0.00831315
0.00413736
0.00349335
0.00339608
0.0033082
0.00320805
0.00312923
0.00299878
0.00292066
0.00283758
0.00273496
0.00265252
0.00258189
0.0024642
0.00239036
0.00230537
0.00219729
0.00211715
0.00203483
0.00196049
0.00186373
0.00178783
0.00172539
0.00164055
0.00156145
0.00149972
0.00142873
0.00138582
0.00131501
0.00125267
0.00121151
0.00119187
0.00114985
0.00114975
0.00116994
0.00117069
0.00833335
0.00833335
0.00833335
0.00833335
0.00833335
0.00833335
0.00833335
0.00833335
0.00833335
0.00833335
0.00833335
0.00833335
0.00833335
0.00833335
0.00833335
0.00833335
0.00833335
0.00833335
0.00833335
0.00833335
0.00833335
0.00833335
0.00833335
0.00833335
0.00833335
0.00833335
0.00833335
0.00833335
0.00833335
0.00833335
0.00833335
0.00833335
0.00833335
0.00833335
0.00833335
0.00833335
0.00833335
0.00833335
0.00833335
0.00833335
0.00833335
0.00833335
0.00833335
0.00833335
0.00833335
0.00833335
0.00833335
0.00833335
0.00833335
0.00833335
0.00833335
0.00833335
0.00833335
0.00833335
0.00833335
0.00833335
0.00833335
0.00833333
0.00833325
0.00833145
0.00833181
0.00833335
0.00347567
0.00339329
0.00329046
0.00321449
0.00309199
0.00301232
0.00291845
0.00281679
0.00273278
0.00263212
0.00254946
0.00246707
0.00239111
0.00228341
0.00219951
0.00211734
0.00203482
0.00195249
0.00186801
0.00179095
0.00172609
0.00164924
0.00155137
0.00150836
0.00143792
0.00137642
0.00131821
0.00125111
0.00120965
0.00119177
0.00114976
0.00114975
0.00114975
0.00114975
0.00833335
0.00833335
0.00833335
0.00833335
0.00833335
0.00833335
0.00833335
0.00833335
0.00833335
0.00833335
0.00833335
0.00833335
0.00833335
0.00833335
0.00833335
0.00833335
0.00833335
0.00833335
0.00833335
0.00833335
0.00833335
0.00833335
0.00833335
0.00833335
0.00833335
0.00833335
0.00833335
0.00833335
0.00833335
0.00833335
0.00833335
0.00833335
0.00833335
0.00833335
0.00833335
0.00833335
0.00833335
0.00833335
0.00833335
0.00833335
0.00833335
0.00833335
0.00833335
0.00833335
0.00833335
0.00833335
0.00833335
0.00833335
0.00833335
0.00833335
0.00833335
0.00833335
0.00833335
0.00833335
0.00833335
0.00833335
0.00833335
0.00833335
0.00833335
0.00833318
0.0083321
0.00833355
0.00519313
0.00341397
0.00329974
0.00320709
0.00311631
0.00300484
0.00293905
0.00281741
0.00273751
0.00265234
0.00254943
0.00246709
0.00239418
0.00229362
0.00222009
0.00211716
0.00203447
0.00195267
0.00187016
0.00180848
0.0017261
0.00165126
0.00157078
0.00149967
0.00143792
0.00137616
0.00131442
0.00125267
0.0012115
0.00119092
0.00115393
0.00115306
0.0011724
0.00114943
0.00833335
0.00833335
0.00833335
0.00833335
0.00833335
0.00833335
0.00833335
0.00833335
0.00833335
0.00833335
0.00833335
0.00833335
0.00833335
0.00833335
0.00833335
0.00833335
0.00833335
0.00833335
0.00833335
0.00833335
0.00833335
0.00833335
0.00833335
0.00833335
0.00833335
0.00833335
0.00833335
0.00833335
0.00833335
0.00833335
0.00833335
0.00833335
0.00833335
0.00833335
0.00833335
0.00833335
0.00833335
0.00833335
0.00833335
0.00833335
0.00833335
0.00833335
0.00833335
0.00833335
0.00833335
0.00833335
0.00833335
0.00833335
0.00833335
0.00833335
0.00833335
0.00833335
0.00833335
0.00833335
0.00833335
0.00833335
0.00833335
0.00833334
0.00833631
0.00833058
0.00834417
0.00767894
0.00358061
0.00366102
0.00345362
0.00329042
0.00322865
0.00302284
0.00293468
0.00283653
0.0027623
0.00265235
0.00257001
0.0024658
0.00239912
0.00228591
0.00222008
0.00214724
0.00202644
0.00196116
0.0018807
0.00180201
0.00171431
0.00165056
0.00158445
0.00149761
0.00143792
0.00137612
0.00131599
0.00124723
0.00121011
0.00119085
0.00114704
0.00115232
0.00117032
0.00117034
0.00833335
0.00833335
0.00833335
0.00833335
0.00833335
0.00833335
0.00833335
0.00833335
0.00833335
0.00833335
0.00833335
0.00833335
0.00833335
0.00833335
0.00833335
0.00833335
0.00833335
0.00833335
0.00833335
0.00833335
0.00833335
0.00833335
0.00833335
0.00833335
0.00833335
0.00833335
0.00833335
0.00833335
0.00833335
0.00833335
0.00833335
0.00833335
0.00833335
0.00833335
0.00833335
0.00833335
0.00833335
0.00833335
0.00833335
0.00833335
0.00833335
0.00833335
0.00833335
0.00833335
0.00833335
0.00833335
0.00833335
0.00833335
0.00833335
0.00833335
0.00833335
0.00833335
0.00833335
0.00833335
0.00833335
0.00833335
0.00833335
0.00833335
0.00833335
0.00834327
0.00696543
0.00734581
0.00520949
0.00590911
0.00520412
0.00528997
0.00480478
0.00485844
0.00470906
0.00452491
0.00434179
0.00393155
0.00372195
0.00332505
0.00317841
0.00277973
0.00263166
0.00246706
0.00232414
0.0021586
0.0019721
0.00182749
0.00174661
0.00164586
0.0015466
0.00150786
0.00143773
0.0013895
0.00130339
0.00124766
0.00121408
0.00117342
0.00112961
0.00114982
0.00114931
0.00117079
0.00833335
0.00833335
0.00833335
0.00833335
0.00833335
0.00833335
0.00833335
0.00833335
0.00833335
0.00833335
0.00833335
0.00833335
0.00833335
0.00833335
0.00833335
0.00833335
0.00833335
0.00833335
0.00833335
0.00833335
0.00833335
0.00833335
0.00833335
0.00833335
0.00833335
0.00833335
0.00833335
0.00833335
0.00833335
0.00833335
0.00833335
0.00833335
0.00833335
0.00833335
0.00833335
0.00833335
0.00833335
0.00833335
0.00833335
0.00833335
0.00833335
0.00833335
0.00833335
0.00833335
0.00833335
0.00833335
0.00833335
0.00833335
0.00833335
0.00833335
0.00833335
0.00833335
0.00833335
0.00833335
0.00833335
0.00833335
0.00833335
0.00833335
0.00833335
0.00833987
0.0074499
0.00822088
0.00834356
0.00827475
0.00829363
0.00827299
0.00832152
0.00824644
0.00849358
0.00821662
0.00815146
0.00779532
0.00797046
0.00767
0.00734953
0.00689636
0.00681962
0.00644755
0.00613382
0.00469567
0.00423742
0.00339594
0.00316504
0.00287154
0.00254171
0.00219316
0.00180858
0.00162404
0.00147969
0.00131998
0.00121165
0.00119095
0.00114936
0.00112938
0.00114985
0.00114975
0.00833335
0.00833335
0.00833335
0.00833335
0.00833335
0.00833335
0.00833335
0.00833335
0.00833335
0.00833335
0.00833335
0.00833335
0.00833335
0.00833335
0.00833335
0.00833335
0.00833335
0.00833335
0.00833335
0.00833335
0.00833335
0.00833335
0.00833335
0.00833335
0.00833335
0.00833335
0.00833335
0.00833335
0.00833335
0.00833335
0.00833335
0.00833335
0.00833335
0.00833335
0.00833335
0.00833335
0.00833335
0.00833335
0.00833335
0.00833335
0.00833335
0.00833335
0.00833335
0.00833335
0.00833335
0.00833335
0.00833335
0.00833335
0.00833335
0.00833335
0.00833335
0.00833335
0.00833335
0.00833335
0.00833335
0.00833335
0.00833335
0.00833335
0.00833334
0.00832485
0.00950319
0.00832823
0.00833396
0.00850575
0.00758882
0.00829829
0.00806079
0.00848557
0.0083058
0.00818424
0.00828216
0.00800535
0.00833823
0.00834344
0.00834533
0.00854961
0.00761246
0.0087872
0.00761075
0.00844013
0.00872342
0.00833765
0.00789857
0.00814561
0.00739555
0.00764724
0.00707335
0.00700457
0.00537075
0.00465427
0.00428484
0.00146778
0.00117962
0.0011019
0.00114837
0.00115092
0.00833335
0.00833335
0.00833335
0.00833335
0.00833335
0.00833335
0.00833335
0.00833335
0.00833335
0.00833335
0.00833335
0.00833335
0.00833335
0.00833335
0.00833335
0.00833335
0.00833335
0.00833335
0.00833335
0.00833335
0.00833335
0.00833335
0.00833335
0.00833335
0.00833335
0.00833335
0.00833335
0.00833335
0.00833335
0.00833335
0.00833335
0.00833335
0.00833335
0.00833335
0.00833335
0.00833335
0.00833335
0.00833335
0.00833335
0.00833335
0.00833335
0.00833335
0.00833335
0.00833335
0.00833335
0.00833335
0.00833335
0.00833335
0.00833335
0.00833335
0.00833335
0.00833335
0.00833335
0.00833335
0.00833335
0.00833335
0.00833335
0.00833337
0.00833338
0.00830452
0.00875292
0.0082178
0.00826506
0.00831191
0.00833003
0.0083348
0.00833964
0.00833346
0.00832832
0.00830166
0.0082776
0.00829358
0.00828596
0.00813955
0.00838396
0.00827648
0.00833341
0.00832365
0.00833957
0.00832203
0.00828498
0.00835704
0.00809656
0.00795745
0.00877233
0.00832453
0.00831493
0.00830922
0.00798426
0.00770914
0.00770496
0.00865306
0.00834092
0.00832454
0.0082743
0.00806581
0.00833335
0.00833335
0.00833335
0.00833335
0.00833335
0.00833335
0.00833335
0.00833335
0.00833335
0.00833335
0.00833335
0.00833335
0.00833335
0.00833335
0.00833335
0.00833335
0.00833335
0.00833335
0.00833335
0.00833335
0.00833335
0.00833335
0.00833335
0.00833335
0.00833335
0.00833335
0.00833335
0.00833335
0.00833335
0.00833335
0.00833335
0.00833335
0.00833335
0.00833335
0.00833335
0.00833335
0.00833335
0.00833335
0.00833335
0.00833335
0.00833335
0.00833335
0.00833335
0.00833335
0.00833335
0.00833335
0.00833335
0.00833335
0.00833335
0.00833335
0.00833335
0.00833335
0.00833335
0.00833335
0.00833335
0.00833335
0.00833334
0.00833135
0.00833518
0.00833094
0.00889161
0.00837019
0.00824833
0.0083761
0.00818636
0.00835577
0.00831586
0.00834756
0.00826344
0.00827801
0.00829064
0.00826866
0.00832225
0.00833461
0.00833833
0.00833813
0.00833218
0.00833311
0.00833543
0.00833189
0.00830645
0.00827606
0.00831917
0.00821107
0.00831784
0.00833972
0.00826188
0.00828479
0.00834002
0.00827286
0.0083297
0.00837263
0.00836939
0.00819507
0.00837262
0.00833331
0.00833335
0.00833335
0.00833335
0.00833335
0.00833335
0.00833335
0.00833335
0.00833335
0.00833335
0.00833335
0.00833335
0.00833335
0.00833335
0.00833335
0.00833335
0.00833335
0.00833335
0.00833335
0.00833335
0.00833335
0.00833335
0.00833335
0.00833335
0.00833335
0.00833335
0.00833335
0.00833335
0.00833335
0.00833335
0.00833335
0.00833335
0.00833335
0.00833335
0.00833335
0.00833335
0.00833335
0.00833335
0.00833335
0.00833335
0.00833335
0.00833335
0.00833335
0.00833335
0.00833335
0.00833335
0.00833335
0.00833335
0.00833335
0.00833335
0.00833335
0.00833335
0.00833335
0.00833335
0.00833335
0.00833335
0.00833335
0.00833335
0.00833336
0.00833365
0.00833308
0.00791967
0.00852575
0.00810547
0.00829197
0.00831238
0.00831439
0.008327
0.00829164
0.00834017
0.00834003
0.00827383
0.00826828
0.00828698
0.00834161
0.00828321
0.00832289
0.00809229
0.00829317
0.00819001
0.00825115
0.00829772
0.00831928
0.00831026
0.00833753
0.00827272
0.00795686
0.0081447
0.0083634
0.00803196
0.00824613
0.00824188
0.00835939
0.00834731
0.00833435
0.00832753
0.0083319
0.00833335
0.00833335
0.00833335
0.00833335
0.00833335
0.00833335
0.00833335
0.00833335
0.00833335
0.00833335
0.00833335
0.00833335
0.00833335
0.00833335
0.00833335
0.00833335
0.00833335
0.00833335
0.00833335
0.00833335
0.00833335
0.00833335
0.00833335
0.00833335
0.00833335
0.00833335
0.00833335
0.00833335
0.00833335
0.00833335
0.00833335
0.00833335
0.00833335
0.00833335
0.00833335
0.00833335
0.00833335
0.00833335
0.00833335
0.00833335
0.00833335
0.00833335
0.00833335
0.00833335
0.00833335
0.00833335
0.00833335
0.00833335
0.00833335
0.00833335
0.00833335
0.00833335
0.00833335
0.00833335
0.00833335
0.00833335
0.00833335
0.00833335
0.00833332
0.00833393
0.00837564
0.00854071
0.00830125
0.00830528
0.00818497
0.00827389
0.00821819
0.00801688
0.00819963
0.00824352
0.00800948
0.00800631
0.00815332
0.00808472
0.00811417
0.00811586
0.00805936
0.00809291
0.00814934
0.00804863
0.00802763
0.00792566
0.00805077
0.00732488
0.00713681
0.00667533
0.00613003
0.00515784
0.0034183
0.00244919
0.00145179
0.00136346
0.00121539
0.00117783
0.00114886
0.00114872
0.00833335
0.00833335
0.00833335
0.00833335
0.00833335
0.00833335
0.00833335
0.00833335
0.00833335
0.00833335
0.00833335
0.00833335
0.00833335
0.00833335
0.00833335
0.00833335
0.00833335
0.00833335
0.00833335
0.00833335
0.00833335
0.00833335
0.00833335
0.00833335
0.00833335
0.00833335
0.00833335
0.00833335
0.00833335
0.00833335
0.00833335
0.00833335
0.00833335
0.00833335
0.00833335
0.00833335
0.00833335
0.00833335
0.00833335
0.00833335
0.00833335
0.00833335
0.00833335
0.00833335
0.00833335
0.00833335
0.00833335
0.00833335
0.00833335
0.00833335
0.00833335
0.00833335
0.00833335
0.00833335
0.00833335
0.00833335
0.00833335
0.00833335
0.00833358
0.00833251
0.00835715
0.00738088
0.0080167
0.007765
0.0076679
0.00718417
0.00679094
0.00633648
0.00568424
0.00415867
0.00381466
0.00352083
0.00337447
0.00314708
0.00302256
0.00289931
0.00277529
0.00265186
0.00255395
0.00239176
0.00228503
0.00214111
0.002047
0.00189059
0.00176704
0.00165721
0.00152661
0.00140616
0.00133909
0.00128543
0.00121154
0.0011921
0.00114926
0.00114986
0.00114989
0.00117034
0.00833335
0.00833335
0.00833335
0.00833335
0.00833335
0.00833335
0.00833335
0.00833335
0.00833335
0.00833335
0.00833335
0.00833335
0.00833335
0.00833335
0.00833335
0.00833335
0.00833335
0.00833335
0.00833335
0.00833335
0.00833335
0.00833335
0.00833335
0.00833335
0.00833335
0.00833335
0.00833335
0.00833335
0.00833335
0.00833335
0.00833335
0.00833335
0.00833335
0.00833335
0.00833335
0.00833335
0.00833335
0.00833335
0.00833335
0.00833335
0.00833335
0.00833335
0.00833335
0.00833335
0.00833335
0.00833335
0.00833335
0.00833335
0.00833335
0.00833335
0.00833335
0.00833335
0.00833335
0.00833335
0.00833335
0.00833335
0.00833335
0.00833335
0.00833096
0.00833642
0.00832959
0.00591546
0.00501904
0.00372242
0.00353726