/*--------------------------------*- C++ -*----------------------------------*\
| =========                 |                                                 |
| \\      /  F ield         | OpenFOAM: The Open Source CFD Toolbox           |
|  \\    /   O peration     | Version:  2.3.0                                 |
|   \\  /    A nd           | Web:      www.OpenFOAM.org                      |
|    \\/     M anipulation  |                                                 |
\*---------------------------------------------------------------------------*/
FoamFile
{
    version     2.0;
    format      ascii;
    class       volScalarField;
    location    "2";
    object      k.water;
}
// * * * * * * * * * * * * * * * * * * * * * * * * * * * * * * * * * * * * * //

dimensions      [0 2 -2 0 0 0 0];

internalField   nonuniform List<scalar> 
6144
(
5.37283e-06
5.17918e-06
5.15371e-06
5.06778e-06
5.01889e-06
4.98292e-06
4.95186e-06
4.93077e-06
4.91247e-06
4.89896e-06
4.888e-06
4.87953e-06
4.87288e-06
4.86771e-06
4.86371e-06
4.86063e-06
4.85829e-06
4.85653e-06
4.85522e-06
4.85427e-06
4.8536e-06
4.85315e-06
4.85289e-06
4.85277e-06
4.85275e-06
4.85283e-06
4.85298e-06
4.85319e-06
4.85345e-06
4.85375e-06
4.85408e-06
4.85444e-06
4.85481e-06
4.8552e-06
4.85561e-06
4.85605e-06
4.85654e-06
4.85667e-06
4.85936e-06
4.85709e-06
4.87143e-06
4.86487e-06
4.90896e-06
4.90143e-06
4.99246e-06
4.99128e-06
5.13726e-06
5.14535e-06
5.35167e-06
5.37078e-06
5.6526e-06
5.78996e-06
8.03083e-06
3.84404e-05
0.0002725
0.00102327
0.00258821
0.00335121
0.00525389
0.00592346
0.0124866
0.00552105
0.00329165
0.00156039
0.000880525
0.000408158
0.000144782
4.43539e-05
1.67484e-05
1.00209e-05
8.51108e-06
7.70978e-06
7.3567e-06
6.95884e-06
6.75401e-06
6.54628e-06
6.41175e-06
6.32368e-06
6.23849e-06
6.18913e-06
6.1386e-06
6.08216e-06
6.02608e-06
5.96612e-06
5.90242e-06
5.83667e-06
5.76869e-06
5.69743e-06
5.62174e-06
5.5397e-06
5.45044e-06
5.35279e-06
5.24742e-06
5.13627e-06
5.03053e-06
4.90096e-06
4.68785e-06
4.92975e-06
5.14553e-06
5.09686e-06
5.05113e-06
5.02974e-06
4.98973e-06
4.97491e-06
4.95285e-06
4.94072e-06
4.9288e-06
4.92028e-06
4.91335e-06
4.90806e-06
4.904e-06
4.90096e-06
4.89877e-06
4.89727e-06
4.89634e-06
4.89587e-06
4.89577e-06
4.89598e-06
4.89643e-06
4.89709e-06
4.89791e-06
4.89885e-06
4.89991e-06
4.90105e-06
4.90226e-06
4.90352e-06
4.90482e-06
4.90616e-06
4.90752e-06
4.9089e-06
4.91028e-06
4.91168e-06
4.9131e-06
4.91411e-06
4.91744e-06
4.91579e-06
4.92868e-06
4.92178e-06
4.96015e-06
4.94933e-06
5.0331e-06
5.02559e-06
5.16746e-06
5.16907e-06
5.37654e-06
5.38125e-06
5.72235e-06
7.05521e-06
3.59421e-05
0.000288412
0.00124102
0.00257709
0.00358901
0.00427311
0.00468232
0.00597597
0.0110244
0.00731515
0.00454831
0.00292333
0.00189572
0.000980473
0.000366867
0.000100399
2.64806e-05
1.08546e-05
8.02865e-06
7.23465e-06
6.98863e-06
6.6967e-06
6.53927e-06
6.37561e-06
6.26443e-06
6.19149e-06
6.12379e-06
6.07954e-06
6.03431e-06
5.98385e-06
5.93305e-06
5.87929e-06
5.82317e-06
5.76599e-06
5.70765e-06
5.64706e-06
5.58253e-06
5.5117e-06
5.43407e-06
5.34858e-06
5.25609e-06
5.15521e-06
5.05488e-06
4.84968e-06
4.0033e-06
4.22304e-06
4.92098e-06
5.00488e-06
5.04338e-06
5.04131e-06
4.999e-06
4.99419e-06
4.96899e-06
4.96014e-06
4.94718e-06
4.93929e-06
4.93215e-06
4.92684e-06
4.92274e-06
4.91971e-06
4.91757e-06
4.91615e-06
4.91534e-06
4.91503e-06
4.91512e-06
4.91554e-06
4.91624e-06
4.91716e-06
4.91827e-06
4.91951e-06
4.92088e-06
4.92234e-06
4.92387e-06
4.92546e-06
4.92709e-06
4.92875e-06
4.93044e-06
4.93215e-06
4.93386e-06
4.93557e-06
4.93728e-06
4.93878e-06
4.94186e-06
4.94147e-06
4.95254e-06
4.94834e-06
4.98176e-06
4.97483e-06
5.04982e-06
5.04672e-06
5.17499e-06
5.18428e-06
5.36993e-06
5.40588e-06
5.67598e-06
7.44182e-06
4.13536e-05
0.000376987
0.00134819
0.00273834
0.00412992
0.00379942
0.00349572
0.00399672
0.00704089
0.00423329
0.00298975
0.00244814
0.00181283
0.00093512
0.000318695
7.70607e-05
2.02572e-05
9.36983e-06
7.50546e-06
6.91824e-06
6.7536e-06
6.51166e-06
6.38319e-06
6.23391e-06
6.12236e-06
6.03596e-06
5.95535e-06
5.90415e-06
5.86727e-06
5.83487e-06
5.80267e-06
5.76075e-06
5.71966e-06
5.67993e-06
5.63801e-06
5.59311e-06
5.54358e-06
5.48628e-06
5.41974e-06
5.34141e-06
5.2529e-06
5.15453e-06
5.04752e-06
4.77563e-06
3.63913e-06
3.70888e-06
4.57075e-06
4.60106e-06
4.79357e-06
4.82894e-06
4.82656e-06
4.84307e-06
4.82098e-06
4.8198e-06
4.8059e-06
4.79947e-06
4.79173e-06
4.78587e-06
4.78086e-06
4.77679e-06
4.77352e-06
4.77094e-06
4.76893e-06
4.76741e-06
4.7663e-06
4.76552e-06
4.76504e-06
4.76479e-06
4.76475e-06
4.76487e-06
4.76514e-06
4.76552e-06
4.766e-06
4.76656e-06
4.76719e-06
4.76787e-06
4.7686e-06
4.76936e-06
4.77013e-06
4.77092e-06
4.77167e-06
4.77277e-06
4.77343e-06
4.77511e-06
4.78063e-06
4.78136e-06
4.80576e-06
4.80636e-06
4.86618e-06
4.87459e-06
4.97305e-06
5.00959e-06
5.11222e-06
5.24956e-06
5.29978e-06
9.3804e-06
8.35376e-05
0.000470329
0.00121525
0.0021059
0.00391067
0.003678
0.00194266
0.00225802
0.00529964
0.00265675
0.00134819
0.00118086
0.00102634
0.000459322
0.000135927
3.58914e-05
1.42422e-05
9.08483e-06
8.24531e-06
7.62331e-06
7.58964e-06
7.34467e-06
7.23859e-06
6.85995e-06
6.48023e-06
6.02099e-06
5.72987e-06
5.54704e-06
5.44386e-06
5.37493e-06
5.34085e-06
5.33025e-06
5.32864e-06
5.32093e-06
5.30234e-06
5.27364e-06
5.23207e-06
5.17024e-06
5.08894e-06
4.99672e-06
4.90145e-06
4.80594e-06
4.70355e-06
4.71418e-06
3.31674e-06
3.21492e-06
4.26887e-06
4.20268e-06
4.47154e-06
4.46624e-06
4.49298e-06
4.50026e-06
4.48816e-06
4.49042e-06
4.48055e-06
4.47795e-06
4.47318e-06
4.47015e-06
4.46768e-06
4.46588e-06
4.46475e-06
4.46415e-06
4.464e-06
4.46422e-06
4.46474e-06
4.46552e-06
4.46652e-06
4.46771e-06
4.46905e-06
4.47053e-06
4.47214e-06
4.47384e-06
4.47562e-06
4.47749e-06
4.47942e-06
4.4814e-06
4.48342e-06
4.48546e-06
4.48751e-06
4.48958e-06
4.49162e-06
4.49398e-06
4.49621e-06
4.49882e-06
4.50645e-06
4.50809e-06
4.53476e-06
4.53731e-06
4.59674e-06
4.60959e-06
4.70244e-06
4.74573e-06
4.84929e-06
4.98825e-06
4.99898e-06
6.74084e-06
6.23874e-05
0.000467651
0.00148294
0.00418323
0.00726893
0.00627702
0.00143788
0.00140942
0.00414452
0.00187602
0.000601837
0.000607115
0.000320725
0.000114579
7.36681e-05
3.71921e-05
4.4107e-05
3.71291e-05
3.58127e-05
3.10869e-05
3.23253e-05
3.09412e-05
3.11496e-05
2.69534e-05
2.29387e-05
1.73605e-05
1.40143e-05
1.06046e-05
8.34585e-06
6.92572e-06
6.06128e-06
5.68881e-06
5.38385e-06
5.26562e-06
5.15829e-06
5.13675e-06
5.09256e-06
5.03468e-06
4.9356e-06
4.83808e-06
4.7466e-06
4.66099e-06
4.59055e-06
4.86974e-06
2.9958e-06
2.96588e-06
3.87101e-06
3.62837e-06
4.04107e-06
3.92735e-06
4.05535e-06
4.0168e-06
4.05207e-06
4.041e-06
4.05084e-06
4.04966e-06
4.05347e-06
4.05509e-06
4.05796e-06
4.0607e-06
4.0636e-06
4.06655e-06
4.06959e-06
4.07272e-06
4.07596e-06
4.07928e-06
4.0827e-06
4.0862e-06
4.08977e-06
4.0934e-06
4.09709e-06
4.10082e-06
4.10459e-06
4.10841e-06
4.11227e-06
4.11617e-06
4.12012e-06
4.12409e-06
4.12811e-06
4.13218e-06
4.13629e-06
4.14064e-06
4.14516e-06
4.14959e-06
4.15961e-06
4.1633e-06
4.19129e-06
4.19644e-06
4.25379e-06
4.26958e-06
4.35295e-06
4.39762e-06
4.4747e-06
4.60731e-06
4.61007e-06
1.09618e-05
0.00014447
0.000657749
0.00220117
0.00623874
0.00670586
0.00569274
0.00105762
0.000943795
0.0026787
0.000830231
0.000270986
0.000279325
0.000173074
0.000184426
0.000217011
0.000215034
0.000214465
0.000194323
0.000183922
0.000170276
0.000160971
0.000153159
0.000145853
0.000133364
0.00012321
0.000100954
8.12794e-05
6.06004e-05
5.02442e-05
3.9498e-05
3.15801e-05
2.7516e-05
2.13642e-05
1.83173e-05
1.43744e-05
1.253e-05
9.37169e-06
8.07714e-06
6.30457e-06
5.36878e-06
4.9059e-06
4.57015e-06
4.42948e-06
4.77582e-06
2.86082e-06
2.96807e-06
3.46269e-06
3.325e-06
3.50901e-06
3.39791e-06
3.485e-06
3.42436e-06
3.48068e-06
3.45474e-06
3.48909e-06
3.48584e-06
3.50473e-06
3.51203e-06
3.5237e-06
3.53353e-06
3.54355e-06
3.55324e-06
3.56265e-06
3.57179e-06
3.58075e-06
3.58959e-06
3.59835e-06
3.60702e-06
3.61562e-06
3.62416e-06
3.63267e-06
3.64119e-06
3.64972e-06
3.65819e-06
3.66662e-06
3.67502e-06
3.6834e-06
3.69179e-06
3.70019e-06
3.7086e-06
3.71698e-06
3.72567e-06
3.73414e-06
3.74349e-06
3.75577e-06
3.7651e-06
3.79134e-06
3.80115e-06
3.85309e-06
3.86965e-06
3.94747e-06
3.98637e-06
4.06098e-06
4.17777e-06
4.20578e-06
1.04873e-05
0.000130983
0.000556686
0.0013843
0.00365618
0.00614307
0.00619547
0.000952528
0.000853693
0.00113776
0.000298502
0.000195378
0.000194858
0.00019412
0.000219124
0.00023526
0.000240333
0.000243554
0.000234194
0.000229064
0.000204838
0.000197122
0.000178869
0.000172955
0.000169677
0.000167433
0.000154244
0.000153052
0.000153699
0.0001508
0.000143902
0.000137696
0.000132791
0.000120579
0.000105447
9.56783e-05
8.17664e-05
6.44998e-05
5.43124e-05
3.46252e-05
2.50961e-05
1.65405e-05
9.20756e-06
6.10301e-06
5.07704e-06
3.09135e-06
3.41455e-06
3.42582e-06
3.34761e-06
3.30005e-06
3.26325e-06
3.21509e-06
3.19334e-06
3.19707e-06
3.1814e-06
3.20073e-06
3.19166e-06
3.20875e-06
3.20916e-06
3.21979e-06
3.22556e-06
3.23267e-06
3.23934e-06
3.24602e-06
3.25267e-06
3.25937e-06
3.26583e-06
3.27211e-06
3.27831e-06
3.28447e-06
3.29061e-06
3.29675e-06
3.30289e-06
3.30905e-06
3.31526e-06
3.32152e-06
3.32784e-06
3.33421e-06
3.34064e-06
3.34714e-06
3.35372e-06
3.36037e-06
3.36739e-06
3.37395e-06
3.38191e-06
3.39012e-06
3.39851e-06
3.41448e-06
3.42341e-06
3.45708e-06
3.46932e-06
3.52747e-06
3.55324e-06
3.62357e-06
3.70455e-06
3.73754e-06
7.8143e-06
9.76352e-05
0.000493087
0.00147158
0.00376795
0.00499551
0.00617653
0.000953374
0.000920806
0.000502387
0.000323867
0.000359741
0.000371923
0.000377912
0.000381624
0.000378833
0.000353487
0.000301889
0.000243655
0.000208609
0.000200793
0.000205611
0.000237853
0.000295428
0.000354983
0.000400651
0.000422648
0.000429269
0.000431097
0.000413637
0.000361753
0.000293341
0.000241429
0.000208863
0.000164409
0.000124729
9.67489e-05
7.13275e-05
5.49343e-05
4.81213e-05
3.97236e-05
3.05436e-05
2.33093e-05
1.69793e-05
1.05298e-05
3.86236e-06
3.91094e-06
3.94231e-06
4.07524e-06
3.66899e-06
3.89188e-06
3.59227e-06
3.72933e-06
3.57901e-06
3.63683e-06
3.58263e-06
3.60225e-06
3.58932e-06
3.59582e-06
3.59642e-06
3.5998e-06
3.60346e-06
3.60731e-06
3.61152e-06
3.61601e-06
3.62069e-06
3.62539e-06
3.63019e-06
3.63506e-06
3.64002e-06
3.64505e-06
3.65015e-06
3.65531e-06
3.66052e-06
3.66579e-06
3.67112e-06
3.6765e-06
3.68194e-06
3.68743e-06
3.69297e-06
3.69859e-06
3.70427e-06
3.71009e-06
3.71613e-06
3.72192e-06
3.73043e-06
3.73578e-06
3.75228e-06
3.75829e-06
3.79168e-06
3.80308e-06
3.86006e-06
3.89036e-06
3.96076e-06
4.05581e-06
4.0835e-06
6.58124e-06
6.56194e-05
0.000595356
0.00255628
0.00552182
0.00628089
0.00570668
0.000973281
0.000942358
0.000459028
0.000215215
0.000221092
0.000218535
0.000190242
0.000178614
0.000168214
0.000150244
0.000132237
9.53892e-05
7.01773e-05
5.87349e-05
5.1379e-05
4.68651e-05
4.63561e-05
5.28425e-05
7.87129e-05
0.000137599
0.000196833
0.000210657
0.000207006
0.000174609
0.000128632
9.68254e-05
7.54602e-05
5.70749e-05
4.06591e-05
3.085e-05
2.56588e-05
2.10351e-05
1.80253e-05
1.59437e-05
1.27883e-05
1.00511e-05
7.77093e-06
5.7616e-06
4.16021e-06
4.49807e-06
4.65647e-06
4.5176e-06
4.5443e-06
4.52945e-06
4.47828e-06
4.46968e-06
4.47298e-06
4.47191e-06
4.48084e-06
4.48579e-06
4.49124e-06
4.49459e-06
4.50082e-06
4.50382e-06
4.50903e-06
4.51307e-06
4.51725e-06
4.52129e-06
4.52515e-06
4.52907e-06
4.53299e-06
4.53685e-06
4.54061e-06
4.54426e-06
4.54776e-06
4.55113e-06
4.55436e-06
4.55745e-06
4.56041e-06
4.56322e-06
4.5659e-06
4.56843e-06
4.57083e-06
4.57311e-06
4.57525e-06
4.57716e-06
4.5801e-06
4.58e-06
4.5874e-06
4.58375e-06
4.60176e-06
4.59603e-06
4.63306e-06
4.63204e-06
4.6966e-06
4.72077e-06
4.80494e-06
4.91485e-06
4.95093e-06
6.451e-06
3.68782e-05
0.000485232
0.0020709
0.00438931
0.00539368
0.00437753
0.000938639
0.000931138
0.000564159
0.000214211
0.000226381
0.000250566
0.000169075
0.000132897
7.1375e-05
4.27769e-05
3.18652e-05
2.8571e-05
2.56475e-05
2.06122e-05
1.7673e-05
1.46139e-05
1.32828e-05
1.2745e-05
1.4026e-05
1.8525e-05
2.90024e-05
4.1744e-05
4.84813e-05
4.70377e-05
3.88135e-05
2.95544e-05
2.25677e-05
1.65915e-05
1.24806e-05
9.68907e-06
7.96477e-06
6.77698e-06
5.95183e-06
5.57559e-06
5.21505e-06
4.89066e-06
4.60494e-06
5.15555e-06
4.72232e-06
5.86722e-06
5.15269e-06
4.83431e-06
5.07577e-06
4.95167e-06
5.05571e-06
4.93032e-06
5.04205e-06
4.96371e-06
5.04191e-06
5.01885e-06
5.05724e-06
5.05965e-06
5.07729e-06
5.08696e-06
5.0977e-06
5.10719e-06
5.11588e-06
5.12394e-06
5.13145e-06
5.13855e-06
5.14526e-06
5.15164e-06
5.15772e-06
5.16353e-06
5.1691e-06
5.17445e-06
5.1796e-06
5.18457e-06
5.18936e-06
5.19399e-06
5.19847e-06
5.20281e-06
5.20701e-06
5.21109e-06
5.21502e-06
5.21893e-06
5.223e-06
5.22614e-06
5.23352e-06
5.23417e-06
5.25289e-06
5.25034e-06
5.29263e-06
5.29013e-06
5.37059e-06
5.37912e-06
5.5066e-06
5.55522e-06
5.74619e-06
7.18909e-06
4.34113e-05
0.000481837
0.00147664
0.00259584
0.00367001
0.00342209
0.000889112
0.000859469
0.000908297
0.000364517
0.000383199
0.000609399
0.000578235
0.000660858
0.000656316
0.000494916
0.000163866
3.3019e-05
1.21765e-05
9.17162e-06
8.64901e-06
8.01761e-06
7.65458e-06
7.31275e-06
7.3726e-06
7.71307e-06
8.61359e-06
1.01232e-05
1.1927e-05
1.26402e-05
1.20065e-05
1.06121e-05
9.31027e-06
8.1247e-06
7.1886e-06
6.47901e-06
5.96588e-06
5.59756e-06
5.34274e-06
5.21505e-06
5.12545e-06
5.02883e-06
4.91709e-06
5.0146e-06
5.58573e-06
7.92362e-06
5.36484e-06
5.36026e-06
5.21721e-06
5.25419e-06
5.25717e-06
5.04801e-06
5.17132e-06
5.05222e-06
5.15307e-06
5.10641e-06
5.16331e-06
5.15645e-06
5.18383e-06
5.19278e-06
5.20725e-06
5.2187e-06
5.22935e-06
5.2392e-06
5.24833e-06
5.25689e-06
5.26495e-06
5.27261e-06
5.27991e-06
5.2869e-06
5.29364e-06
5.30014e-06
5.30644e-06
5.31257e-06
5.31854e-06
5.32436e-06
5.33006e-06
5.33565e-06
5.34113e-06
5.34653e-06
5.3518e-06
5.35711e-06
5.36258e-06
5.36711e-06
5.3765e-06
5.37799e-06
5.40066e-06
5.39747e-06
5.44804e-06
5.44203e-06
5.53897e-06
5.53791e-06
5.69644e-06
5.71985e-06
5.97558e-06
7.29845e-06
4.24887e-05
0.000434325
0.00128272
0.0021427
0.00309792
0.00229142
0.00106098
0.000970158
0.00171433
0.000938766
0.000974254
0.00104877
0.00110417
0.00113228
0.0011284
0.00102819
0.000634988
0.000209817
4.63244e-05
1.25549e-05
7.7359e-06
6.95082e-06
6.75669e-06
6.58781e-06
6.51408e-06
6.49366e-06
6.53359e-06
6.63317e-06
6.81898e-06
6.97288e-06
6.99313e-06
6.85706e-06
6.6661e-06
6.46277e-06
6.26413e-06
6.0764e-06
5.90968e-06
5.7563e-06
5.60965e-06
5.50321e-06
5.41909e-06
5.36377e-06
5.33154e-06
5.15615e-06
6.79091e-06
1.02581e-05
5.41223e-06
5.92758e-06
5.38823e-06
5.28436e-06
5.33916e-06
5.06537e-06
5.17526e-06
5.05055e-06
5.1471e-06
5.09495e-06
5.15346e-06
5.14191e-06
5.17068e-06
5.17768e-06
5.19233e-06
5.20318e-06
5.21344e-06
5.2229e-06
5.23164e-06
5.2398e-06
5.24748e-06
5.25476e-06
5.26171e-06
5.26837e-06
5.27479e-06
5.28102e-06
5.28707e-06
5.29297e-06
5.29874e-06
5.30441e-06
5.30998e-06
5.31547e-06
5.32089e-06
5.32626e-06
5.33155e-06
5.33681e-06
5.34258e-06
5.34665e-06
5.3575e-06
5.35765e-06
5.38381e-06
5.37813e-06
5.43631e-06
5.42685e-06
5.53594e-06
5.53103e-06
5.70516e-06
5.72327e-06
6.02969e-06
8.65783e-06
7.29997e-05
0.0005218
0.00147789
0.00242218
0.00345539
0.00329972
0.00236535
0.00201488
0.00352093
0.00266947
0.00263318
0.00216369
0.00193095
0.00170268
0.00153245
0.00125436
0.000755703
0.000287522
7.17206e-05
1.721e-05
8.23276e-06
6.93256e-06
6.69452e-06
6.54825e-06
6.46353e-06
6.41165e-06
6.36986e-06
6.3538e-06
6.33756e-06
6.32306e-06
6.31166e-06
6.28042e-06
6.22743e-06
6.16316e-06
6.08806e-06
6.00642e-06
5.91982e-06
5.82928e-06
5.7386e-06
5.65663e-06
5.58272e-06
5.51596e-06
5.46415e-06
5.25774e-06
7.26513e-06
1.08164e-05
5.86097e-06
6.12806e-06
5.84739e-06
5.32299e-06
5.36422e-06
5.06233e-06
5.14049e-06
5.01946e-06
5.09011e-06
5.04347e-06
5.0889e-06
5.0767e-06
5.09976e-06
5.10494e-06
5.11708e-06
5.1261e-06
5.13468e-06
5.14264e-06
5.14999e-06
5.15686e-06
5.16334e-06
5.1695e-06
5.17539e-06
5.18107e-06
5.18656e-06
5.19191e-06
5.19712e-06
5.20224e-06
5.20726e-06
5.21222e-06
5.21712e-06
5.22197e-06
5.22679e-06
5.23157e-06
5.23627e-06
5.24084e-06
5.24645e-06
5.24917e-06
5.26137e-06
5.25918e-06
5.28977e-06
5.28129e-06
5.34876e-06
5.33806e-06
5.45987e-06
5.4576e-06
5.64225e-06
5.67715e-06
6.0899e-06
1.32684e-05
0.00014592
0.000722606
0.00151305
0.00234667
0.00405202
0.00530612
0.00522815
0.0055382
0.00867056
0.00660665
0.00458993
0.0030659
0.00225173
0.0017243
0.00139616
0.0010316
0.00055824
0.000193473
4.79467e-05
1.35684e-05
7.87672e-06
6.92844e-06
6.71926e-06
6.56919e-06
6.47917e-06
6.41992e-06
6.36344e-06
6.33519e-06
6.3012e-06
6.26325e-06
6.2298e-06
6.19217e-06
6.14551e-06
6.09175e-06
6.02911e-06
5.96131e-06
5.887e-06
5.8105e-06
5.73243e-06
5.65719e-06
5.58767e-06
5.52331e-06
5.47141e-06
5.2933e-06
8.24567e-06
9.95552e-06
7.2034e-06
6.3636e-06
6.17837e-06
5.39633e-06
5.38485e-06
5.05086e-06
5.09823e-06
4.9699e-06
5.01192e-06
4.96983e-06
4.99611e-06
4.9856e-06
4.99866e-06
5.00257e-06
5.01037e-06
5.01705e-06
5.0232e-06
5.02903e-06
5.03442e-06
5.03948e-06
5.04427e-06
5.04883e-06
5.05321e-06
5.05743e-06
5.06154e-06
5.06554e-06
5.06945e-06
5.0733e-06
5.07709e-06
5.08083e-06
5.08454e-06
5.08821e-06
5.09187e-06
5.09551e-06
5.09911e-06
5.10239e-06
5.10764e-06
5.108e-06
5.12206e-06
5.11579e-06
5.1535e-06
5.14037e-06
5.2213e-06
5.2091e-06
5.34682e-06
5.34787e-06
5.53956e-06
5.59477e-06
6.62086e-06
2.933e-05
0.000260222
0.000811893
0.00131333
0.00202768
0.00396213
0.00496246
0.0047937
0.00543905
0.0106656
0.00645153
0.00399241
0.00229921
0.00168749
0.00107572
0.000694062
0.000383022
0.000158869
4.88605e-05
1.57524e-05
8.62523e-06
7.3528e-06
6.90411e-06
6.72356e-06
6.54547e-06
6.44223e-06
6.37111e-06
6.30419e-06
6.27169e-06
6.23292e-06
6.19202e-06
6.15263e-06
6.10991e-06
6.06103e-06
6.0066e-06
5.94542e-06
5.87956e-06
5.80818e-06
5.73349e-06
5.6576e-06
5.58313e-06
5.51364e-06
5.45029e-06
5.40233e-06
5.27534e-06
9.14297e-06
8.41874e-06
8.11486e-06
6.70345e-06
6.32185e-06
5.43875e-06
5.42063e-06
5.06795e-06
5.09789e-06
4.95453e-06
4.97763e-06
4.9304e-06
4.93813e-06
4.92756e-06
4.92709e-06
4.92926e-06
4.92987e-06
4.93309e-06
4.9351e-06
4.93732e-06
4.93926e-06
4.94103e-06
4.94266e-06
4.94417e-06
4.94558e-06
4.9469e-06
4.94816e-06
4.94936e-06
4.95051e-06
4.95163e-06
4.9527e-06
4.95376e-06
4.95479e-06
4.9558e-06
4.95678e-06
4.95776e-06
4.95873e-06
4.95932e-06
4.96216e-06
4.95954e-06
4.97326e-06
4.96403e-06
5.00627e-06
4.99325e-06
5.0824e-06
5.07754e-06
5.21886e-06
5.23469e-06
5.41679e-06
5.48398e-06
6.01469e-06
1.6495e-05
0.000150637
0.000604347
0.000947287
0.00112914
0.00147449
0.00199666
0.00258697
0.00259248
0.0061135
0.00188954
0.00137346
0.000653198
0.000636262
0.000426055
0.000205714
8.65194e-05
3.29784e-05
1.41395e-05
9.35934e-06
7.89077e-06
7.41621e-06
6.98411e-06
6.77651e-06
6.55246e-06
6.42137e-06
6.32537e-06
6.24144e-06
6.2029e-06
6.15527e-06
6.10959e-06
6.06591e-06
6.01758e-06
5.96335e-06
5.90349e-06
5.83735e-06
5.7657e-06
5.68879e-06
5.60784e-06
5.5248e-06
5.44216e-06
5.3637e-06
5.29303e-06
5.23811e-06
5.18903e-06
4.33756e-06
4.24415e-06
4.4544e-06
4.43057e-06
4.51927e-06
4.50043e-06
4.53752e-06
4.53371e-06
4.5498e-06
4.55439e-06
4.56283e-06
4.56922e-06
4.57577e-06
4.5818e-06
4.58743e-06
4.5926e-06
4.59732e-06
4.60158e-06
4.60542e-06
4.60886e-06
4.61195e-06
4.61474e-06
4.61727e-06
4.61957e-06
4.62168e-06
4.62363e-06
4.62546e-06
4.62718e-06
4.6288e-06
4.63035e-06
4.63184e-06
4.63331e-06
4.63478e-06
4.63627e-06
4.6378e-06
4.63939e-06
4.64095e-06
4.64303e-06
4.64492e-06
4.64756e-06
4.65707e-06
4.65802e-06
4.69392e-06
4.69414e-06
4.77559e-06
4.78757e-06
4.91743e-06
4.95527e-06
5.12361e-06
5.18243e-06
5.36027e-06
5.88076e-06
1.97247e-05
0.00019146
0.00102503
0.00267594
0.00523843
0.00596246
0.0055951
0.00614314
0.0124628
0.00513105
0.00192136
0.000623889
0.00035979
0.000188155
7.89534e-05
2.98025e-05
1.41136e-05
9.53432e-06
8.35538e-06
7.57147e-06
7.15292e-06
6.70648e-06
6.46773e-06
6.24985e-06
6.12512e-06
6.05942e-06
6.01086e-06
5.98987e-06
5.96618e-06
5.93523e-06
5.90077e-06
5.85947e-06
5.80823e-06
5.75209e-06
5.69241e-06
5.62893e-06
5.56119e-06
5.48774e-06
5.40783e-06
5.32071e-06
5.22775e-06
5.13222e-06
5.04309e-06
4.99565e-06
4.36739e-07
4.65605e-07
7.14543e-07
8.09051e-07
9.3645e-07
9.69297e-07
1.00555e-06
1.01339e-06
1.02249e-06
1.02521e-06
1.0273e-06
1.02842e-06
1.02919e-06
1.02978e-06
1.03028e-06
1.03072e-06
1.03114e-06
1.03152e-06
1.03187e-06
1.0322e-06
1.03251e-06
1.0328e-06
1.03308e-06
1.03334e-06
1.03359e-06
1.0338e-06
1.03397e-06
1.03412e-06
1.03427e-06
1.03441e-06
1.03457e-06
1.03473e-06
1.0349e-06
1.03508e-06
1.03526e-06
1.0354e-06
1.0355e-06
1.03654e-06
1.0348e-06
1.03895e-06
1.03454e-06
1.04171e-06
1.03736e-06
1.04615e-06
1.04762e-06
1.05668e-06
1.0666e-06
1.0804e-06
1.08871e-06
1.14291e-06
1.28853e-06
5.94972e-06
0.000111936
0.000909967
0.00296974
0.00569466
0.00797645
0.00932151
0.0114102
0.0130624
0.0031296
0.00217365
0.00158704
0.000773488
0.000455318
0.000205555
7.6725e-05
2.33566e-05
8.42015e-06
4.23533e-06
2.93146e-06
2.36122e-06
2.15836e-06
1.99445e-06
1.89414e-06
1.81306e-06
1.75029e-06
1.72019e-06
1.70482e-06
1.70611e-06
1.71646e-06
1.72861e-06
1.73918e-06
1.74412e-06
1.7499e-06
1.75498e-06
1.76349e-06
1.77424e-06
1.79307e-06
1.81566e-06
1.84258e-06
1.87746e-06
1.90625e-06
1.93216e-06
2.00341e-06
4.24253e-06
3.95161e-07
3.79037e-07
3.7085e-07
3.7972e-07
4.41809e-07
4.6171e-07
4.9258e-07
4.9622e-07
5.05668e-07
5.0736e-07
5.1024e-07
5.11312e-07
5.12253e-07
5.12786e-07
5.13135e-07
5.13335e-07
5.13425e-07
5.13427e-07
5.13355e-07
5.13222e-07
5.13039e-07
5.12813e-07
5.1255e-07
5.12254e-07
5.11929e-07
5.11586e-07
5.11229e-07
5.10858e-07
5.10478e-07
5.10091e-07
5.09693e-07
5.09279e-07
5.08846e-07
5.08392e-07
5.0792e-07
5.07416e-07
5.06842e-07
5.06845e-07
5.04788e-07
5.07126e-07
5.02587e-07
5.07362e-07
5.01145e-07
5.07468e-07
5.01156e-07
5.08661e-07
5.01785e-07
5.14028e-07
4.98737e-07
5.3886e-07
5.34878e-07
5.90065e-06
0.000139191
0.000998453
0.00298385
0.00536642
0.00868884
0.0105453
0.0102258
0.00979648
0.000996753
0.00158218
0.00138598
0.00120749
0.000678243
0.000210726
7.76384e-05
2.67895e-05
8.36047e-06
3.61717e-06
2.3934e-06
1.82894e-06
1.62016e-06
1.40325e-06
1.29304e-06
1.08475e-06
9.33938e-07
7.91726e-07
7.06331e-07
6.58324e-07
6.4382e-07
6.28175e-07
6.24502e-07
6.35146e-07
6.51124e-07
6.61399e-07
6.65932e-07
6.65483e-07
6.61415e-07
6.51891e-07
6.33047e-07
6.1709e-07
6.04211e-07
6.03245e-07
6.6621e-07
3.93061e-06
4.18441e-07
4.09391e-07
3.69074e-07
3.70097e-07
3.66281e-07
3.69472e-07
3.66551e-07
3.6831e-07
3.66804e-07
3.67586e-07
3.67046e-07
3.67343e-07
3.67296e-07
3.67441e-07
3.67563e-07
3.67718e-07
3.67892e-07
3.68082e-07
3.68285e-07
3.68499e-07
3.68721e-07
3.68951e-07
3.69187e-07
3.69428e-07
3.69672e-07
3.6992e-07
3.70171e-07
3.70424e-07
3.70677e-07
3.70933e-07
3.71189e-07
3.71447e-07
3.71705e-07
3.71964e-07
3.72223e-07
3.72482e-07
3.72741e-07
3.73013e-07
3.73285e-07
3.73595e-07
3.73936e-07
3.74274e-07
3.74882e-07
3.75253e-07
3.7649e-07
3.76981e-07
3.79077e-07
3.80006e-07
3.82543e-07
3.85972e-07
4.71436e-07
1.14486e-05
0.000225487
0.000981821
0.002625
0.00503186
0.00931826
0.0109244
0.0052993
0.00329038
0.00117476
0.00232287
0.00150595
0.000949606
0.000429159
0.000144153
9.6805e-05
2.58949e-05
1.52959e-05
1.3839e-05
1.63115e-05
1.603e-05
1.74177e-05
1.56741e-05
1.53063e-05
1.10651e-05
8.64558e-06
4.6006e-06
2.61767e-06
1.48368e-06
9.7685e-07
7.44336e-07
6.54273e-07
6.32101e-07
5.98153e-07
5.83985e-07
5.65536e-07
5.5472e-07
5.42887e-07
5.3218e-07
5.18865e-07
5.0276e-07
4.85253e-07
4.69166e-07
5.10105e-07
3.66763e-06
4.0138e-07
4.73202e-07
3.69135e-07
3.70291e-07
3.63011e-07
3.67342e-07
3.62695e-07
3.65354e-07
3.62932e-07
3.64324e-07
3.63367e-07
3.64037e-07
3.63894e-07
3.64223e-07
3.64418e-07
3.64682e-07
3.64956e-07
3.65245e-07
3.65548e-07
3.65862e-07
3.66184e-07
3.66514e-07
3.66849e-07
3.6719e-07
3.67534e-07
3.67881e-07
3.6823e-07
3.68574e-07
3.68914e-07
3.69256e-07
3.69599e-07
3.69944e-07
3.7029e-07
3.70635e-07
3.70981e-07
3.71327e-07
3.71674e-07
3.72027e-07
3.72405e-07
3.7277e-07
3.73251e-07
3.73614e-07
3.7439e-07
3.74772e-07
3.76179e-07
3.76679e-07
3.78927e-07
3.79879e-07
3.83126e-07
3.84681e-07
4.04915e-07
6.90993e-06
0.000207409
0.0011196
0.00427814
0.0108412
0.0145033
0.0119851
0.00335998
0.00099186
0.00106259
0.00144759
0.000948928
0.000668795
0.000569071
0.000331731
0.000372793
0.000214991
0.000263262
0.000244776
0.00027873
0.00026682
0.000278563
0.000248684
0.000245554
0.000180905
0.000155825
9.36563e-05
6.42417e-05
3.33828e-05
2.04131e-05
1.41631e-05
1.06556e-05
8.97822e-06
5.46794e-06
4.10981e-06
2.3908e-06
1.80799e-06
8.05883e-07
6.30779e-07
5.33609e-07
5.05101e-07
4.87033e-07
4.65251e-07
5.11229e-07
3.85544e-06
4.66583e-07
6.51924e-07
3.70248e-07
3.85504e-07
3.60656e-07
3.69351e-07
3.59956e-07
3.64991e-07
3.60326e-07
3.63061e-07
3.61047e-07
3.62422e-07
3.6192e-07
3.62563e-07
3.62776e-07
3.63187e-07
3.63589e-07
3.64013e-07
3.64453e-07
3.64908e-07
3.65372e-07
3.65847e-07
3.66329e-07
3.66819e-07
3.67314e-07
3.67814e-07
3.68321e-07
3.68839e-07
3.69369e-07
3.699e-07
3.70433e-07
3.70967e-07
3.71502e-07
3.72039e-07
3.72576e-07
3.73114e-07
3.73655e-07
3.74194e-07
3.74786e-07
3.75301e-07
3.76036e-07
3.76519e-07
3.77555e-07
3.78066e-07
3.79642e-07
3.80346e-07
3.82516e-07
3.8378e-07
3.86064e-07
3.89128e-07
4.97985e-07
2.3064e-05
0.000360338
0.00172356
0.00653207
0.0143105
0.0177332
0.0104723
0.00064347
0.000517562
0.00113147
0.000974535
0.00103292
0.00104384
0.00116773
0.00115826
0.00119059
0.00113083
0.00111503
0.00105503
0.00102793
0.000965783
0.000946025
0.000904636
0.00088508
0.000833563
0.000783842
0.000682396
0.000571621
0.000420886
0.000349164
0.000284025
0.000244856
0.000211637
0.000154008
0.000126369
8.7252e-05
6.65039e-05
3.42911e-05
2.47592e-05
1.04604e-05
4.75249e-06
2.8541e-06
1.46463e-06
9.4913e-07
3.44366e-06
6.23144e-07
1.09818e-06
3.82222e-07
4.46289e-07
3.67322e-07
3.89748e-07
3.66301e-07
3.77297e-07
3.66821e-07
3.73123e-07
3.68151e-07
3.71609e-07
3.69942e-07
3.7162e-07
3.71759e-07
3.7265e-07
3.73398e-07
3.74211e-07
3.75052e-07
3.75918e-07
3.76805e-07
3.77704e-07
3.78616e-07
3.79537e-07
3.80465e-07
3.81402e-07
3.82346e-07
3.83297e-07
3.84254e-07
3.85217e-07
3.86185e-07
3.87158e-07
3.88137e-07
3.8912e-07
3.90108e-07
3.91096e-07
3.92114e-07
3.93044e-07
3.94242e-07
3.94986e-07
3.96518e-07
3.97065e-07
3.99024e-07
3.99492e-07
4.02049e-07
4.02668e-07
4.06009e-07
4.07278e-07
4.10936e-07
4.15412e-07
4.56744e-07
1.1914e-05
0.000232578
0.00100886
0.00359627
0.00891745
0.0136861
0.0151859
0.00103376
0.000623653
0.00125352
0.000893871
0.000889824
0.000965528
0.00102732
0.00106689
0.00114492
0.00117521
0.00119595
0.00118083
0.0011466
0.00106834
0.00103146
0.00100699
0.00100203
0.00100672
0.00103322
0.00104786
0.00104668
0.00103893
0.00100236
0.000980978
0.00095314
0.000901863
0.000820597
0.000736193
0.000632876
0.0005178
0.000420241
0.000344587
0.000239755
0.000169394
8.95811e-05
3.75262e-05
1.37799e-05
4.6178e-06
1.07182e-06
1.72316e-06
4.3942e-07
5.54145e-07
3.96167e-07
4.2844e-07
3.89767e-07
4.03837e-07
3.88122e-07
3.97091e-07
3.89123e-07
3.94596e-07
3.91475e-07
3.94392e-07
3.94204e-07
3.95767e-07
3.96864e-07
3.98183e-07
3.99563e-07
4.01007e-07
4.02516e-07
4.04074e-07
4.05667e-07
4.07297e-07
4.08965e-07
4.10669e-07
4.12404e-07
4.14169e-07
4.15959e-07
4.17766e-07
4.1959e-07
4.21435e-07
4.23299e-07
4.25181e-07
4.27079e-07
4.28993e-07
4.30922e-07
4.3286e-07
4.34897e-07
4.36819e-07
4.39053e-07
4.40938e-07
4.43484e-07
4.45395e-07
4.48594e-07
4.50629e-07
4.5501e-07
4.57887e-07
4.63556e-07
4.71817e-07
4.8016e-07
3.24074e-06
0.00015066
0.00114019
0.00400561
0.00672551
0.00894369
0.0145309
0.00130178
0.000628504
0.0011767
0.00111865
0.00138905
0.00142818
0.00145134
0.00142133
0.00144765
0.00145875
0.00152169
0.00153507
0.00153066
0.00139852
0.00127947
0.00121002
0.0011854
0.00118927
0.00128306
0.00137091
0.00139796
0.00140955
0.00141253
0.0014077
0.00135569
0.00129621
0.00115775
0.0010214
0.000872642
0.000715778
0.000587985
0.000479585
0.000375905
0.00028201
0.000203816
0.00013845
0.000107683
1.95252e-05
2.25455e-06
2.6041e-06
6.30698e-07
6.59324e-07
4.7018e-07
4.97374e-07
4.48802e-07
4.64898e-07
4.45735e-07
4.57083e-07
4.476e-07
4.54804e-07
4.51598e-07
4.55728e-07
4.5636e-07
4.59133e-07
4.61492e-07
4.64225e-07
4.67145e-07
4.70248e-07
4.73524e-07
4.76914e-07
4.80401e-07
4.83991e-07
4.87685e-07
4.9147e-07
4.95328e-07
4.99254e-07
5.0324e-07
5.07278e-07
5.11365e-07
5.155e-07
5.19673e-07
5.2388e-07
5.28119e-07
5.32391e-07
5.36706e-07
5.4107e-07
5.45469e-07
5.49869e-07
5.54652e-07
5.5857e-07
5.64608e-07
5.67512e-07
5.75886e-07
5.77988e-07
5.89329e-07
5.94336e-07
6.04791e-07
6.31299e-07
6.04295e-07
3.62751e-06
0.000198225
0.00203618
0.00563749
0.00815256
0.00865672
0.0106501
0.000614043
0.00057478
0.000719885
0.000482204
0.000681885
0.000579261
0.000690446
0.000575096
0.000477354
0.000248203
0.000142933
9.91285e-05
9.09041e-05
8.59599e-05
8.51692e-05
8.27188e-05
8.03877e-05
7.77249e-05
7.75596e-05
8.4376e-05
9.56264e-05
9.76828e-05
9.37425e-05
8.73123e-05
7.99842e-05
7.42648e-05
6.90194e-05
6.41227e-05
5.96491e-05
5.40586e-05
4.85168e-05
4.26027e-05
3.66088e-05
3.16427e-05
2.66661e-05
2.06793e-05
1.4546e-05
6.19794e-06
6.5093e-06
4.32305e-06
1.27806e-06
7.19413e-07
6.02968e-07
5.56065e-07
5.44995e-07
5.38512e-07
5.45618e-07
5.43627e-07
5.50369e-07
5.52946e-07
5.57937e-07
5.62643e-07
5.6773e-07
5.73197e-07
5.78928e-07
5.84876e-07
5.91057e-07
5.97461e-07
6.04038e-07
6.10706e-07
6.17507e-07
6.2444e-07
6.31537e-07
6.3878e-07
6.46182e-07
6.53742e-07
6.61444e-07
6.69292e-07
6.77264e-07
6.85333e-07
6.93492e-07
7.01727e-07
7.10034e-07
7.18423e-07
7.26895e-07
7.35543e-07
7.44323e-07
7.52331e-07
7.6307e-07
7.68198e-07
7.83971e-07
7.84153e-07
8.07455e-07
8.03071e-07
8.35e-07
8.35828e-07
8.63695e-07
9.21303e-07
8.23263e-07
5.96001e-06
0.000215015
0.00164691
0.00428805
0.00743672
0.00794434
0.00577128
0.00143953
0.00119558
0.000696012
0.000610882
0.000670494
0.000539641
0.000701319
0.000566269
0.000427048
0.000231105
8.7879e-05
3.10543e-05
1.33707e-05
8.67194e-06
6.95137e-06
6.55048e-06
6.1615e-06
6.25686e-06
6.6425e-06