/*--------------------------------*- C++ -*----------------------------------*\
| =========                 |                                                 |
| \\      /  F ield         | OpenFOAM: The Open Source CFD Toolbox           |
|  \\    /   O peration     | Version:  2.3.0                                 |
|   \\  /    A nd           | Web:      www.OpenFOAM.org                      |
|    \\/     M anipulation  |                                                 |
\*---------------------------------------------------------------------------*/
FoamFile
{
    version     2.0;
    format      ascii;
    class       surfaceScalarField;
    location    "2";
    object      phi;
}
// * * * * * * * * * * * * * * * * * * * * * * * * * * * * * * * * * * * * * //

dimensions      [0 3 -1 0 0 0 0];

internalField   nonuniform List<scalar> 
16448
(
-2.46904e-06
-9.60649e-07
2.50399e-07
-1.75744e-06
-1.10354e-06
3.91944e-07
-1.46826e-06
-9.03669e-07
6.14498e-07
-1.10696e-06
-1.0246e-06
6.63304e-07
-9.88128e-07
-8.24929e-07
7.06104e-07
-7.98793e-07
-9.0954e-07
7.20209e-07
-7.2808e-07
-7.95657e-07
7.24947e-07
-6.20508e-07
-8.35722e-07
7.28154e-07
-5.61669e-07
-7.85548e-07
7.26715e-07
-4.95187e-07
-7.92738e-07
7.26264e-07
-4.45788e-07
-7.73721e-07
7.24333e-07
-4.00292e-07
-7.68298e-07
7.22811e-07
-3.62062e-07
-7.59442e-07
7.2122e-07
-3.2901e-07
-7.52859e-07
7.19813e-07
-3.00825e-07
-7.46715e-07
7.18537e-07
-2.76859e-07
-7.41361e-07
7.17402e-07
-2.56567e-07
-7.3667e-07
7.1639e-07
-2.39449e-07
-7.32594e-07
7.15486e-07
-2.25038e-07
-7.29074e-07
7.14677e-07
-2.12928e-07
-7.26051e-07
7.13951e-07
-2.02753e-07
-7.2346e-07
7.13297e-07
-1.94198e-07
-7.2125e-07
7.12704e-07
-1.86977e-07
-7.1937e-07
7.1216e-07
-1.80847e-07
-7.17778e-07
7.11657e-07
-1.75594e-07
-7.16436e-07
7.11193e-07
-1.71035e-07
-7.15311e-07
7.1076e-07
-1.67008e-07
-7.14375e-07
7.10356e-07
-1.63372e-07
-7.13606e-07
7.09977e-07
-1.59995e-07
-7.12991e-07
7.09618e-07
-1.56754e-07
-7.12509e-07
7.09273e-07
-1.53532e-07
-7.12155e-07
7.08937e-07
-1.50226e-07
-7.11915e-07
7.08613e-07
-1.46745e-07
-7.11741e-07
7.08262e-07
-1.4372e-07
-7.11239e-07
7.08215e-07
-1.36284e-07
-7.14032e-07
7.06596e-07
-1.36419e-07
-7.08735e-07
7.0887e-07
-1.24195e-07
-7.17415e-07
7.0519e-07
-1.25712e-07
-7.07308e-07
7.08824e-07
-1.1013e-07
-7.2032e-07
7.04734e-07
-1.10921e-07
-7.07663e-07
7.08451e-07
-9.36001e-08
-7.22296e-07
7.0497e-07
-9.17005e-08
-7.10418e-07
7.08514e-07
-7.72896e-08
-7.18715e-07
7.04298e-07
-7.01424e-08
-7.16953e-07
7.098e-07
-6.71199e-08
-7.05054e-07
7.02024e-07
-5.48961e-08
-7.23049e-07
7.10817e-07
-7.46963e-08
-6.74124e-07
6.93916e-07
-6.90046e-08
-7.15163e-07
7.09463e-07
-1.4346e-07
-5.98243e-07
6.72688e-07
-1.66728e-07
-6.69135e-07
6.92394e-07
-4.65828e-07
-3.20156e-07
6.19246e-07
-5.70899e-07
-5.29812e-07
6.34874e-07
-1.72262e-06
4.49163e-07
7.02548e-07
-2.4008e-06
5.93569e-09
6.72231e-07
-8.10762e-06
3.28098e-06
2.42584e-06
-8.42085e-06
-2.15046e-07
5.28283e-07
-1.31896e-05
3.06486e-06
1.70384e-06
-1.14218e-05
2.06694e-06
-3.83467e-06
-7.72115e-06
-2.86249e-06
-8.38206e-07
-6.0359e-07
2.02005e-06
-9.13754e-06
1.95785e-05
-2.43205e-05
4.13837e-06
2.37947e-05
-1.44733e-05
1.02571e-05
2.36287e-05
-8.77613e-06
8.94212e-06
2.43994e-05
-6.20553e-06
5.43487e-06
2.28061e-05
-2.40191e-06
3.99514e-06
1.78151e-05
7.2057e-07
4.27042e-06
1.21944e-05
1.74242e-06
3.87828e-06
8.05595e-06
1.80298e-06
2.33552e-06
6.17901e-06
7.68263e-07
1.10868e-06
5.65131e-06
-7.15707e-08
5.99262e-07
5.57912e-06
-5.76185e-07
6.48378e-07
5.54607e-06
-7.93362e-07
8.26416e-07
5.45809e-06
-8.97769e-07
9.85747e-07
5.31873e-06
-9.30012e-07
1.06937e-06
5.15026e-06
-9.6847e-07
1.13693e-06
4.96951e-06
-9.85523e-07
1.16628e-06
4.78771e-06
-1.00052e-06
1.18232e-06
4.59458e-06
-9.96676e-07
1.1898e-06
4.39483e-06
-9.94851e-07
1.1946e-06
4.1952e-06
-9.97757e-07
1.19739e-06
3.99059e-06
-9.93255e-07
1.19786e-06
3.78194e-06
-9.89072e-07
1.19772e-06
3.57029e-06
-9.84683e-07
1.19633e-06
3.35456e-06
-9.77784e-07
1.19351e-06
3.13388e-06
-9.68909e-07
1.18959e-06
2.90655e-06
-9.57656e-07
1.18499e-06
2.67207e-06
-9.45036e-07
1.17951e-06
2.4297e-06
-9.30371e-07
1.17274e-06
2.17689e-06
-9.12494e-07
1.16531e-06
1.91166e-06
-8.91401e-07
1.15663e-06
1.63228e-06
-8.67913e-07
1.1473e-06
1.33705e-06
-8.42829e-07
1.13805e-06
1.02679e-06
-8.19394e-07
1.12966e-06
6.98652e-07
-7.94083e-07
1.12222e-06
3.55865e-07
-7.73887e-07
1.11667e-06
-7.54359e-07
1.11022e-06
-2.85332e-06
-1.56549e-06
-2.91348e-07
-1.89243e-06
-1.93038e-06
-1.34047e-07
-1.63227e-06
-1.3683e-06
2.04478e-07
-1.20123e-06
-1.70341e-06
2.47768e-07
-1.12169e-06
-1.22424e-06
3.19764e-07
-8.91115e-07
-1.47471e-06
3.34593e-07
-8.41674e-07
-1.19149e-06
3.46383e-07
-7.05096e-07
-1.32503e-06
3.52725e-07
-6.54677e-07
-1.18907e-06
3.53107e-07
-5.7171e-07
-1.23141e-06
3.55709e-07
-5.21865e-07
-1.17849e-06
3.54932e-07
-4.68916e-07
-1.17688e-06
3.55637e-07
-4.27253e-07
-1.15618e-06
3.55077e-07
-3.90448e-07
-1.14459e-06
3.5493e-07
-3.59405e-07
-1.13236e-06
3.54604e-07
-3.33081e-07
-1.12198e-06
3.54309e-07
-3.109e-07
-1.11286e-06
3.54015e-07
-2.92272e-07
-1.10494e-06
3.53731e-07
-2.76672e-07
-1.09812e-06
3.53458e-07
-2.63636e-07
-1.09227e-06
3.53199e-07
-2.52744e-07
-1.08729e-06
3.52951e-07
-2.43635e-07
-1.08306e-06
3.52714e-07
-2.35997e-07
-1.07949e-06
3.52488e-07
-2.2957e-07
-1.07647e-06
3.52275e-07
-2.24125e-07
-1.07395e-06
3.52073e-07
-2.19457e-07
-1.07185e-06
3.51877e-07
-2.15382e-07
-1.07013e-06
3.51683e-07
-2.11743e-07
-1.06873e-06
3.51486e-07
-2.084e-07
-1.06762e-06
3.51285e-07
-2.05214e-07
-1.06678e-06
3.51084e-07
-2.02059e-07
-1.06619e-06
3.5088e-07
-1.9882e-07
-1.06584e-06
3.50684e-07
-1.95425e-07
-1.06562e-06
3.50476e-07
-1.91697e-07
-1.06549e-06
3.50518e-07
-1.86856e-07
-1.06772e-06
3.48839e-07
-1.83494e-07
-1.06379e-06
3.51684e-07
-1.75344e-07
-1.07255e-06
3.46975e-07
-1.72577e-07
-1.06257e-06
3.52484e-07
-1.60541e-07
-1.07784e-06
3.45468e-07
-1.57416e-07
-1.06359e-06
3.52791e-07
-1.42706e-07
-1.08089e-06
3.43866e-07
-1.37378e-07
-1.06834e-06
3.52577e-07
-1.2289e-07
-1.0755e-06
3.42281e-07
-1.13709e-07
-1.07803e-06
3.51871e-07
-1.06831e-07
-1.05133e-06
3.39376e-07
-9.52513e-08
-1.08688e-06
3.52225e-07
-1.03771e-07
-9.96311e-07
3.30682e-07
-1.14684e-07
-1.05966e-06
3.55381e-07
-1.18987e-07
-8.91444e-07
2.97479e-07
-2.21945e-07
-9.29784e-07
3.6358e-07
-1.81056e-07
-5.54647e-07
1.93576e-07
-4.61912e-07
-6.23174e-07
3.74192e-07
-2.70886e-07
2.78603e-07
-2.04941e-08
-8.38994e-07
8.24896e-08
4.91526e-07
7.72391e-07
2.76598e-06
-1.09641e-06
6.87036e-07
8.12591e-07
-9.42315e-07
2.86249e-06
6.47785e-06
-5.58848e-06
9.95202e-06
8.7905e-07
-5.9017e-06
-6.5002e-06
1.58556e-06
1.20041e-05
-2.93437e-07
-3.88077e-07
-3.79862e-06
1.96803e-05
-4.02044e-05
-4.08984e-06
2.3177e-05
-2.34439e-05
5.47391e-06
2.07321e-05
-1.15941e-05
5.2628e-06
2.33596e-05
-8.65512e-06
-1.77876e-07
2.14659e-05
-2.37448e-07
-2.70742e-07
1.47924e-05
5.47705e-06
1.91695e-06
8.86731e-06
5.47933e-06
2.1882e-06
7.02449e-06
3.89603e-06
-2.50228e-07
7.02496e-06
1.88127e-06
-1.11348e-06
6.99894e-06
7.38011e-07
-7.8356e-07
6.69675e-06
-4.80992e-08
-2.25895e-07
6.31091e-06
-5.20264e-07
1.12737e-07
6.00933e-06
-8.40111e-07
2.43924e-07
5.76921e-06
-9.96151e-07
3.06258e-07
5.57628e-06
-1.12987e-06
3.54327e-07
5.38523e-06
-1.18119e-06
3.8672e-07
5.19798e-06
-1.22498e-06
4.117e-07
4.99977e-06
-1.2269e-06
4.28437e-07
4.78983e-06
-1.22788e-06
4.42965e-07
4.57688e-06
-1.23596e-06
4.5115e-07
4.36097e-06
-1.23362e-06
4.5627e-07
4.14036e-06
-1.22859e-06
4.60134e-07
3.91537e-06
-1.2205e-06
4.60805e-07
3.68334e-06
-1.20379e-06
4.58044e-07
3.4452e-06
-1.18598e-06
4.55201e-07
3.20015e-06
-1.16509e-06
4.52486e-07
2.9479e-06
-1.14351e-06
4.5073e-07
2.68839e-06
-1.12158e-06
4.50721e-07
2.41878e-06
-1.09425e-06
4.51362e-07
2.13509e-06
-1.05924e-06
4.51536e-07
1.83558e-06
-1.02022e-06
4.51806e-07
1.51786e-06
-9.77404e-07
4.52297e-07
1.17773e-06
-9.31422e-07
4.52161e-07
8.07504e-07
-8.77127e-07
4.53269e-07
4.14884e-07
-8.35839e-07
4.54572e-07
-7.97463e-07
4.57988e-07
-2.98705e-06
-1.8827e-06
-6.66527e-07
-1.75559e-06
-2.56461e-06
-5.97227e-07
-1.60359e-06
-1.45781e-06
-6.24835e-08
-1.09828e-06
-2.15502e-06
-5.36986e-08
-1.10003e-06
-1.28494e-06
6.24505e-08
-8.32969e-07
-1.8049e-06
6.31204e-08
-8.34155e-07
-1.27815e-06
8.7846e-08
-6.72765e-07
-1.57469e-06
8.82711e-08
-6.52399e-07
-1.30265e-06
9.3215e-08
-5.5276e-07
-1.42441e-06
9.33677e-08
-5.17726e-07
-1.30778e-06
9.42665e-08
-4.59222e-07
-1.32942e-06
9.4043e-08
-4.22137e-07
-1.2874e-06
9.41503e-08
-3.85966e-07
-1.27456e-06
9.38086e-08
-3.56538e-07
-1.25522e-06
9.34521e-08
-3.31524e-07
-1.23998e-06
9.29953e-08
-3.10569e-07
-1.22629e-06
9.24971e-08
-2.93072e-07
-1.21438e-06
9.19575e-08
-2.78508e-07
-1.20406e-06
9.13885e-08
-2.6641e-07
-1.19516e-06
9.07961e-08
-2.56374e-07
-1.1875e-06
9.01874e-08
-2.48051e-07
-1.18094e-06
8.9567e-08
-2.41138e-07
-1.17533e-06
8.89388e-08
-2.35376e-07
-1.17053e-06
8.83044e-08
-2.30537e-07
-1.16644e-06
8.76631e-08
-2.26421e-07
-1.16298e-06
8.70165e-08
-2.22859e-07
-1.16005e-06
8.63677e-08
-2.19698e-07
-1.15761e-06
8.57203e-08
-2.168e-07
-1.15559e-06
8.50766e-08
-2.14043e-07
-1.15397e-06
8.4439e-08
-2.11305e-07
-1.15274e-06
8.38082e-08
-2.08468e-07
-1.15188e-06
8.31965e-08
-2.05433e-07
-1.15127e-06
8.26179e-08
-2.02149e-07
-1.151e-06
8.22188e-08
-1.97427e-07
-1.15292e-06
8.04735e-08
-1.94672e-07
-1.14898e-06
8.24289e-08
-1.8633e-07
-1.15887e-06
7.7968e-08
-1.84296e-07
-1.14712e-06
8.25061e-08
-1.71209e-07
-1.16681e-06
7.58729e-08
-1.69327e-07
-1.14769e-06
8.22054e-08
-1.51031e-07
-1.17331e-06
7.4111e-08
-1.48018e-07
-1.15297e-06
8.15986e-08
-1.24374e-07
-1.17129e-06
7.21226e-08
-1.19056e-07
-1.16459e-06
8.12241e-08
-9.08017e-08
-1.14841e-06
6.88024e-08
-8.57852e-08
-1.17419e-06
8.22717e-08
-4.53451e-08
-1.09783e-06
6.10561e-08
-7.79902e-08
-1.1162e-06
8.91645e-08
5.07455e-09
-1.00752e-06
3.29911e-08
-1.68608e-07
-8.73981e-07
1.17858e-07
5.24658e-08
-6.81934e-07
-9.38093e-08
-4.48157e-07
-2.99833e-07
1.77259e-07
-1.13261e-08
2.43047e-07
-4.01297e-07
-1.31617e-06
1.09804e-06
2.89269e-07
4.07147e-07
1.59526e-06
-5.52626e-07
-3.75782e-07
-5.68331e-08
1.65232e-06
3.47053e-06
3.62522e-06
-9.93717e-07
1.35415e-05
-5.80232e-06
-3.38967e-06
-6.45624e-06
9.84928e-06
1.17339e-05
4.91612e-07
-8.58777e-06
1.25184e-06
9.5882e-06
-4.35039e-05
-5.79698e-06
6.44104e-06
-2.13865e-05
1.08978e-06
6.96013e-06
-1.3892e-05
1.7788e-06
6.54611e-06
-3.97686e-06
-4.26425e-06
7.40225e-06
2.25959e-06
-3.35318e-06
6.84634e-06
5.33297e-06
6.99986e-07
5.74923e-06
6.00612e-06
5.70316e-07
6.39418e-06
4.13685e-06
-8.85782e-07
7.05146e-06
2.65481e-06
-1.43082e-06
7.17265e-06
1.48258e-06
-8.65758e-07
6.84815e-06
6.62829e-07
-3.86433e-07
6.46567e-06
7.2715e-08
-2.10502e-07
6.21614e-06
-4.19887e-07
-1.70689e-07
6.04636e-06
-6.86588e-07
-1.39791e-07
5.9087e-06
-8.88018e-07
-1.04197e-07
5.75381e-06
-9.51229e-07
-7.5066e-08
5.58218e-06
-1.00334e-06
-5.00042e-08
5.38276e-06
-9.94054e-07
-3.34236e-08
5.16415e-06
-9.914e-07
-1.78707e-08
4.93935e-06
-1.00259e-06
-8.56936e-09
4.71489e-06
-1.00801e-06
-1.14916e-09
4.47896e-06
-1.00066e-06
7.99161e-09
4.24318e-06
-9.98171e-07
1.34564e-08
4.00445e-06
-9.77311e-07
1.22462e-08
3.75782e-06
-9.50982e-07
1.16312e-08
3.4983e-06
-9.15045e-07
9.47797e-09
3.22731e-06
-8.81265e-07
8.73535e-09
2.94329e-06
-8.4745e-07
9.89372e-09
2.64105e-06
-8.05496e-07
1.34844e-08
2.32306e-06
-7.61769e-07
2.05166e-08
1.99117e-06
-7.18363e-07
3.00338e-08
1.64067e-06
-6.67884e-07
4.09762e-08
1.26875e-06
-6.12852e-07
5.33486e-08
8.66195e-07
-5.4316e-07
6.85906e-08
4.47089e-07
-5.02864e-07
8.61311e-08
-4.56149e-07
1.05775e-07
-3.12483e-06
-1.98179e-06
-8.7105e-07
-1.55956e-06
-3.16926e-06
-9.60608e-07
-1.5334e-06
-1.28373e-06
-2.00237e-07
-9.63809e-07
-2.47333e-06
-2.5129e-07
-1.05921e-06
-1.11824e-06
-7.13066e-08
-7.64821e-07
-2.00313e-06
-9.61783e-08
-8.16802e-07
-1.17355e-06
-5.26364e-08
-6.31734e-07
-1.69951e-06
-6.02545e-08
-6.42353e-07
-1.2409e-06
-5.11256e-08
-5.24081e-07
-1.49018e-06
-5.24903e-08
-5.09815e-07
-1.27029e-06
-5.17424e-08
-4.39966e-07
-1.34711e-06
-5.21444e-08
-4.12787e-07
-1.26182e-06
-5.27559e-08
-3.75244e-07
-1.25858e-06
-5.35089e-08
-3.48641e-07
-1.22745e-06
-5.43629e-08
-3.25401e-07
-1.20783e-06
-5.53743e-08
-3.06231e-07
-1.18901e-06
-5.64453e-08
-2.90383e-07
-1.17262e-06
-5.75951e-08
-2.77329e-07
-1.1583e-06
-5.88001e-08
-2.66596e-07
-1.14583e-06
-6.00455e-08
-2.57789e-07
-1.13497e-06
-6.1322e-08
-2.50568e-07
-1.12553e-06
-6.26184e-08
-2.44644e-07
-1.11731e-06
-6.39288e-08
-2.39768e-07
-1.11014e-06
-6.52478e-08
-2.35727e-07
-1.1039e-06
-6.65731e-08
-2.32341e-07
-1.09845e-06
-6.79012e-08
-2.29455e-07
-1.0937e-06
-6.92325e-08
-2.26931e-07
-1.08956e-06
-7.05635e-08
-2.24642e-07
-1.08598e-06
-7.18934e-08
-2.22468e-07
-1.08292e-06
-7.3222e-08
-2.20288e-07
-1.08037e-06
-7.45457e-08
-2.18003e-07
-1.0783e-06
-7.58616e-08
-2.15497e-07
-1.07661e-06
-7.71676e-08
-2.12775e-07
-1.0754e-06
-7.83239e-08
-2.08435e-07
-1.07657e-06
-8.06911e-08
-2.06513e-07
-1.07144e-06
-7.94759e-08
-1.98044e-07
-1.0827e-06
-8.4642e-08
-1.97226e-07
-1.06727e-06
-8.06759e-08
-1.82841e-07
-1.09306e-06
-8.8142e-08
-1.82886e-07
-1.06553e-06
-8.21334e-08
-1.60561e-07
-1.10444e-06
-9.12039e-08
-1.60618e-07
-1.06912e-06
-8.38117e-08
-1.26481e-07
-1.111e-06
-9.44369e-08
-1.25933e-07
-1.08012e-06
-8.50386e-08
-7.40023e-08
-1.10198e-06
-9.83744e-08
-7.32091e-08
-1.0905e-06
-8.44944e-08
3.58038e-09
-1.07142e-06
-1.03222e-07
-1.32906e-08
-1.02407e-06
-7.52753e-08
1.35396e-07
-1.02113e-06
-1.351e-07
3.85259e-08
-7.44054e-07
-3.3078e-08
3.84847e-07
-7.81119e-07
-2.47154e-07
3.13765e-08
-1.75869e-08
7.12044e-08
6.18901e-07
1.27032e-07
-4.71528e-07
-8.19099e-07
2.212e-06
3.24017e-07
1.54793e-06
2.56144e-07
-1.02793e-06
3.836e-06
-2.48516e-06
1.40226e-07
1.11447e-05
-1.38005e-06
-2.30342e-06
2.04697e-05
-1.35621e-05
-1.56533e-06
-5.02917e-06
1.92344e-05
1.61136e-05
1.75289e-06
-1.58009e-05
4.30987e-07
7.23221e-06
-4.29548e-05
-6.02829e-06
3.11466e-06
-1.95398e-05
2.27088e-06
4.44481e-06
-1.56692e-05
4.47025e-07
-1.34673e-06
1.4755e-06
3.39181e-07
-1.80989e-06
2.6699e-06
5.28477e-08
-1.9083e-06
4.12064e-06
1.31074e-06
1.12397e-06
3.37361e-06
-3.99755e-07
2.89375e-06
3.43678e-06
-1.06971e-06
4.40925e-06
2.42664e-06
-1.28734e-06
5.3099e-06
1.59894e-06
-1.01701e-06
5.77079e-06
9.55744e-07
-7.538e-07
6.03511e-06
4.22854e-07
-6.14462e-07
6.14582e-06
-1.23479e-08
-5.18252e-07
6.18726e-06
-2.89897e-07
-4.38126e-07
6.16325e-06
-4.63688e-07
-4.00326e-07
6.07656e-06
-4.95886e-07
-3.68655e-07
5.93253e-06
-5.1553e-07
-3.43783e-07
5.73149e-06
-4.70797e-07
-3.22209e-07
5.50615e-06
-4.57397e-07
-3.08668e-07
5.26227e-06
-4.58803e-07
-2.99912e-07
5.02264e-06
-4.78697e-07
-2.89684e-07
4.77546e-06
-4.77337e-07
-2.7614e-07
4.53764e-06
-4.93218e-07
-2.67132e-07
4.30565e-06
-4.8091e-07
-2.64408e-07
4.06353e-06
-4.53157e-07
-2.55704e-07
3.81434e-06
-4.09505e-07
-2.56353e-07
3.55457e-06
-3.59904e-07
-2.61591e-07
3.27974e-06
-3.01213e-07
-2.71415e-07
2.9783e-06
-2.22731e-07
-2.81326e-07
2.65514e-06
-1.47523e-07
-2.91081e-07
2.31196e-06
-7.93309e-08
-2.95851e-07
1.95581e-06
-1.405e-08
-2.97686e-07
1.56904e-06
6.54381e-08
-2.91528e-07
1.11274e-06
1.903e-07
-2.77159e-07
6.09289e-07
2.67547e-07
-2.66956e-07
3.95831e-07
-2.42691e-07
-3.127e-06
-1.89805e-06
-1.05371e-06
-1.30021e-06
-3.73961e-06
-1.25644e-06
-1.44619e-06
-8.43478e-07
-2.94269e-07
-8.48036e-07
-2.62682e-06
-4.44688e-07
-1.02857e-06
-7.53837e-07
-1.8389e-07
-7.144e-07
-2.05418e-06
-2.63145e-07
-8.02579e-07
-9.04066e-07
-1.81311e-07
-5.96461e-07
-1.68981e-06
-2.15822e-07
-6.28733e-07
-1.02072e-06
-1.87894e-07
-4.93296e-07
-1.42493e-06
-2.00675e-07
-4.97133e-07
-1.07379e-06
-1.92647e-07
-4.14943e-07
-1.23242e-06
-1.96865e-07
-4.02317e-07
-1.07863e-06
-1.9579e-07
-3.59496e-07
-1.1033e-06
-1.98092e-07
-3.38542e-07
-1.04947e-06
-1.9892e-07
-3.17092e-07
-1.02875e-06
-2.00519e-07
-3.00239e-07
-1.00382e-06
-2.02019e-07
-2.86501e-07
-9.82598e-07
-2.03742e-07
-2.75363e-07
-9.63829e-07
-2.05588e-07
-2.66348e-07
-9.47286e-07
-2.07542e-07
-2.59067e-07
-9.32662e-07
-2.09576e-07
-2.53204e-07
-9.19705e-07
-2.11673e-07
-2.48482e-07
-9.082e-07
-2.13817e-07
-2.44673e-07
-8.97946e-07
-2.15994e-07
-2.41591e-07
-8.88772e-07
-2.18197e-07
-2.3908e-07
-8.80535e-07
-2.20418e-07
-2.36996e-07
-8.73119e-07
-2.22654e-07
-2.35218e-07
-8.66432e-07
-2.24898e-07
-2.33639e-07
-8.6041e-07
-2.27145e-07
-2.32151e-07
-8.55016e-07
-2.29391e-07
-2.30657e-07
-8.5023e-07
-2.31633e-07
-2.29057e-07
-8.46035e-07
-2.33865e-07
-2.27216e-07
-8.42391e-07
-2.36063e-07
-2.25178e-07
-8.39315e-07
-2.38123e-07
-2.21482e-07
-8.38959e-07
-2.41314e-07
-2.20416e-07
-8.31422e-07
-2.4108e-07
-2.12235e-07
-8.43799e-07
-2.47092e-07
-2.12686e-07
-8.22901e-07
-2.43925e-07
-1.97694e-07
-8.55591e-07
-2.52472e-07
-1.99657e-07
-8.1673e-07
-2.46844e-07
-1.74475e-07
-8.72465e-07
-2.57171e-07
-1.77365e-07
-8.16348e-07
-2.49886e-07
-1.35039e-07
-8.91094e-07
-2.62249e-07
-1.38137e-07
-8.24625e-07
-2.52404e-07
-6.69625e-08
-9.05876e-07
-2.67295e-07
-6.37297e-08
-8.39999e-07
-2.5375e-07
4.39515e-08
-9.07246e-07
-2.71867e-07
1.00929e-07
-8.34062e-07
-2.47e-07
2.74572e-07
-9.02996e-07
-2.91789e-07
4.61032e-07
-7.47873e-07
-1.82652e-07
8.39835e-07
-8.42874e-07
-3.17061e-07
1.25146e-06
-4.50321e-07
2.10993e-08
2.44034e-06
-7.88521e-07
-2.7334e-07
2.9545e-06
1.15526e-06
5.42573e-07
5.4505e-06
-1.23076e-06
-1.00913e-06
3.07718e-06
2.37955e-07
-3.49802e-07
1.25518e-05
-7.07148e-06
-3.78319e-06
2.26315e-06
-4.33117e-06
1.0577e-06
-1.19974e-06
7.86639e-06
1.48305e-05
2.67222e-06
-1.53652e-05
-4.30775e-06
3.62007e-06
-3.58543e-05
-8.04834e-06
-2.26355e-06
-1.73126e-05
3.65643e-06
-4.37173e-06
-1.41754e-05
6.14459e-07
-7.79096e-06
2.48574e-06
2.40899e-06
-6.21599e-06
1.0468e-06
4.81403e-08
-5.39329e-06
3.4013e-06
-1.03362e-07
-2.87035e-06
2.12866e-06
-1.27799e-06
-6.49719e-07
2.78935e-06
-1.57319e-06
1.56851e-06
1.93087e-06
-1.72245e-06
2.83395e-06
1.76173e-06
-1.42823e-06
3.85034e-06
1.19254e-06
-1.25318e-06
4.54097e-06
7.68722e-07
-1.0365e-06
5.02972e-06
4.29725e-07
-9.30825e-07
5.33624e-06
2.30177e-07
-8.26593e-07
5.52408e-06
1.27601e-07
-7.79126e-07
5.59647e-06
1.39227e-07
-7.07512e-07
5.60905e-06
1.60549e-07
-6.88657e-07
5.50653e-06
2.90946e-07
-6.59221e-07
5.40661e-06
3.01624e-07
-6.59102e-07
5.26921e-06
3.13471e-07
-6.34877e-07
5.12957e-06
2.94153e-07
-6.33213e-07
4.94673e-06
3.22933e-07
-6.17433e-07
4.79752e-06
2.70301e-07
-6.14301e-07
4.5711e-06
3.5474e-07
-6.09235e-07
4.31847e-06
3.69934e-07
-5.70463e-07
3.99704e-06
4.51058e-07
-5.39131e-07
3.69668e-06
4.37138e-07
-4.96687e-07
3.40014e-06
4.55473e-07
-4.60148e-07
3.07783e-06
5.18858e-07
-4.19275e-07
2.72878e-06
5.97604e-07
-3.96079e-07
2.35096e-06
6.88224e-07
-3.89732e-07
1.98754e-06
7.33442e-07
-3.8407e-07
1.58453e-06
8.52961e-07
-3.8452e-07
1.08986e-06
1.07841e-06
-3.93434e-07
6.02116e-07
1.15168e-06
-3.96387e-07
1.34658e-06
-3.48634e-07
-2.94537e-06
-1.51176e-06
-1.18188e-06
-1.0456e-06
-4.22659e-06
-1.41278e-06
-1.40353e-06
-5.82645e-08
-4.27298e-07
-7.96007e-07
-2.54069e-06
-6.93666e-07
-1.03492e-06
-1.54757e-07
-3.60199e-07
-6.96155e-07
-1.87046e-06
-5.22488e-07
-7.96469e-07
-4.21669e-07
-3.82093e-07
-5.6916e-07
-1.45069e-06
-4.66409e-07
-6.09501e-07
-5.79102e-07
-4.0127e-07
-4.60033e-07
-1.13292e-06
-4.4145e-07
-4.74897e-07
-6.44408e-07
-4.14505e-07
-3.83335e-07
-8.93065e-07
-4.30893e-07
-3.83602e-07
-6.554e-07
-4.2295e-07
-3.34478e-07
-7.23332e-07
-4.29065e-07
-3.23763e-07
-6.31136e-07
-4.29028e-07
-3.03007e-07
-6.17191e-07
-4.32289e-07
-2.89604e-07
-5.82433e-07
-4.34772e-07
-2.78689e-07
-5.55717e-07
-4.37772e-07
-2.70061e-07
-5.31531e-07
-4.40907e-07
-2.63245e-07
-5.09891e-07
-4.4419e-07
-2.57917e-07
-4.90385e-07
-4.47587e-07
-2.53783e-07
-4.7275e-07
-4.51069e-07
-2.50582e-07
-4.5677e-07
-4.54614e-07
-2.48114e-07
-4.42198e-07
-4.58199e-07
-2.46231e-07
-4.28832e-07
-4.61806e-07
-2.44805e-07
-4.16512e-07
-4.65434e-07
-2.43714e-07
-4.0511e-07
-4.69085e-07
-2.42859e-07
-3.94539e-07
-4.72737e-07
-2.4215e-07
-3.8474e-07
-4.76366e-07
-2.41501e-07
-3.75676e-07
-4.7998e-07
-2.40817e-07
-3.6733e-07
-4.83573e-07
-2.39995e-07
-3.59714e-07
-4.87137e-07
-2.38965e-07
-3.52805e-07
-4.90608e-07
-2.37765e-07
-3.46585e-07
-4.93926e-07
-2.34896e-07
-3.43561e-07
-4.98261e-07
-2.35041e-07
-3.319e-07
-4.99375e-07
-2.27448e-07
-3.44961e-07
-5.06426e-07
-2.29731e-07
-3.16112e-07
-5.04506e-07
-2.14913e-07
-3.561e-07
-5.14306e-07
-2.19245e-07
-3.02886e-07
-5.09512e-07
-1.93239e-07
-3.76617e-07
-5.21852e-07
-1.99032e-07
-2.96073e-07
-5.14485e-07
-1.54146e-07
-4.07285e-07
-5.28694e-07
-1.59418e-07
-3.00057e-07
-5.193e-07
-8.18112e-08
-4.48748e-07
-5.34734e-07
-7.31383e-08
-3.25714e-07
-5.22962e-07
4.84191e-08
-4.89076e-07
-5.39726e-07
1.67816e-07
-4.31164e-07
-5.22297e-07
3.55468e-07
-5.33524e-07
-5.57122e-07
7.16483e-07
-6.24684e-07
-4.84202e-07
1.24083e-06
-7.96488e-07
-5.70722e-07
2.20013e-06
-1.04737e-06
-3.62253e-07
3.84478e-06
-1.97905e-06
-4.54121e-07
7.0114e-06
-1.77861e-06
-2.32761e-07
7.94324e-06
-1.67074e-06
-4.91854e-07
2.41223e-06
4.8586e-06
9.10347e-07
-1.14744e-05
4.82705e-06
1.98811e-06
-2.36366e-05
9.6221e-06
-1.7911e-06
3.90877e-06
-9.88342e-06
-9.79584e-06
2.8596e-06
-1.20171e-05
-2.29915e-06
3.54664e-06
-2.56049e-05
-1.09364e-05
-6.05637e-06
-9.3825e-06
1.67298e-06
-1.24927e-05
-7.23438e-06
-5.04581e-07
-1.16923e-05
1.53272e-06
1.52688e-07
-1.13709e-05
1.52837e-06
-8.02814e-07
-1.05661e-05
2.96984e-06
-3.7321e-07
-1.00048e-05
2.50533e-06
-9.3793e-07
-8.6566e-06
2.60309e-06
-1.1618e-06
-6.98652e-06
1.71995e-06
-1.45907e-06
-5.67607e-06
1.65276e-06
-1.20141e-06
-4.28875e-06
1.05963e-06
-1.25435e-06
-3.44224e-06
1.02363e-06
-1.10137e-06
-2.57446e-06
5.83608e-07
-1.02163e-06
-2.0011e-06
6.37003e-07
-9.80149e-07
-1.39096e-06
4.36692e-07
-9.19212e-07
-9.13226e-07
5.46998e-07
-8.85483e-07
-3.34804e-07
4.84463e-07
-9.0232e-07
1.07918e-07
7.47264e-07
-8.99027e-07
5.6968e-07
7.97778e-07
-9.57906e-07
1.02126e-06
9.16364e-07
-1.05446e-06
1.44871e-06
1.00454e-06
-1.13783e-06
1.83994e-06
1.12356e-06
-1.19185e-06
2.25004e-06
1.14008e-06
-1.27988e-06
2.56346e-06
1.31768e-06
-1.27636e-06
2.79559e-06
1.40609e-06
-1.26828e-06
2.87153e-06
1.60489e-06
-1.22978e-06
2.91775e-06
1.65885e-06
-1.26793e-06
2.89212e-06
1.74127e-06
-1.26017e-06
2.79446e-06
1.8476e-06
-1.23108e-06
2.64147e-06
1.93406e-06
-1.18346e-06
2.47198e-06
1.96334e-06
-1.10562e-06
2.32204e-06
1.90263e-06
-1.01926e-06
2.05006e-06
2.03294e-06
-9.07999e-07
1.58277e-06
2.38768e-06
-8.41972e-07
1.04816e-06
2.45257e-06
-7.66291e-07
2.97192e-06
-5.77177e-07
-2.8232e-06
-5.73776e-07
-1.39743e-06
-9.33532e-07
-4.57353e-06
-1.54273e-06
-1.47603e-06
1.08983e-06
-6.0561e-07
-8.48776e-07
-2.19283e-06
-9.75143e-07
-1.08968e-06
7.41588e-07
-6.55454e-07
-7.20302e-07
-1.37859e-06
-8.61259e-07
-7.98314e-07
3.73036e-07
-7.16683e-07
-5.56494e-07
-8.74173e-07
-8.18333e-07
-5.86494e-07
1.96402e-07
-7.4548e-07
-4.31299e-07
-4.91134e-07
-7.9697e-07
-4.49066e-07
1.35313e-07
-7.61925e-07
-3.5542e-07
-1.99116e-07
-7.87576e-07
-3.6473e-07
1.2706e-07
-7.7312e-07
-3.13356e-07
1.06431e-08
-7.85329e-07
-3.12527e-07
1.49993e-07
-7.81931e-07
-2.90843e-07
1.48863e-07
-7.87717e-07
-2.8176e-07
1.98049e-07
-7.89538e-07
-2.73498e-07
2.29122e-07
-7.93079e-07
-2.67255e-07
2.58808e-07
-7.96556e-07
-2.62541e-07
2.85708e-07
-8.0029e-07
-2.59056e-07
3.10345e-07
-8.0419e-07
-2.56565e-07
3.32926e-07
-8.08143e-07
-2.54841e-07
3.53594e-07
-8.12064e-07
-2.53699e-07
3.72647e-07
-8.15965e-07
-2.52991e-07
3.90307e-07
-8.19825e-07
-2.52611e-07
4.06742e-07
-8.23613e-07
-2.52513e-07
4.221e-07
-8.27289e-07
-2.52642e-07
4.3649e-07
-8.30879e-07
-2.52887e-07
4.4998e-07
-8.34459e-07
-2.53167e-07
4.62607e-07
-8.37985e-07
-2.53418e-07
4.74368e-07
-8.41432e-07
-2.53581e-07
4.85255e-07
-8.44788e-07
-2.53464e-07
4.95138e-07
-8.48048e-07
-2.5307e-07
5.04204e-07
-8.51167e-07
-2.51225e-07
5.0973e-07
-8.55124e-07
-2.52691e-07
5.25409e-07
-8.55828e-07
-2.46133e-07
5.10979e-07
-8.62487e-07
-2.50126e-07
5.47769e-07
-8.59873e-07
-2.367e-07
4.99611e-07
-8.69125e-07
-2.43011e-07
5.67016e-07
-8.63576e-07
-2.19292e-07
4.74396e-07
-8.74722e-07
-2.26987e-07
5.78724e-07
-8.67087e-07
-1.86509e-07
4.31384e-07
-8.79137e-07
-1.92533e-07
5.76387e-07
-8.70405e-07
-1.24493e-07
3.65183e-07
-8.8196e-07
-1.21543e-07
5.43464e-07
-8.72107e-07
-6.17322e-09
2.79212e-07
-8.83642e-07
9.7839e-09
4.14676e-07
-8.61775e-07
1.88447e-07
1.7863e-07
-8.90798e-07
2.80204e-07
1.05785e-07
-8.222e-07
5.36921e-07
-2.2756e-07
-8.25623e-07
6.63562e-07
-5.12514e-07
-6.61468e-07
9.45657e-07
-1.66774e-06
-5.93383e-07
2.47945e-06
-3.11296e-06
-1.99403e-07
6.71977e-06
-5.21316e-06
-6.97901e-07
1.52195e-05
-3.04632e-06
-5.94855e-07
2.12328e-05
-6.53445e-07
-5.32731e-07
2.16294e-05
7.46082e-06
1.76456e-06
7.9304e-06
1.09106e-05
-7.09525e-06
9.0905e-07
-3.53963e-06
-1.456e-06
-6.85505e-07
-1.71652e-05
-6.84463e-06
-1.20508e-05
-5.43121e-07
2.52645e-06
-1.90184e-05
-1.14059e-06
8.74333e-07
-2.06066e-05
2.59603e-06
5.25492e-07
-2.15275e-05
2.68703e-06
-2.37167e-07
-2.10859e-05
2.67079e-06
-1.41952e-07
-2.02044e-05
2.20654e-06
-5.82018e-07
-1.91789e-05
2.08131e-06
-5.03154e-07
-1.78112e-05
1.3616e-06
-1.0087e-06
-1.67545e-05
1.29973e-06
-7.03122e-07
-1.54699e-05
7.78903e-07
-1.00333e-06
-1.44968e-05
7.56781e-07
-7.05634e-07
-1.34447e-05
3.77457e-07
-8.45415e-07
-1.251e-05
4.27287e-07
-7.24349e-07
-1.16428e-05
3.16614e-07
-7.46619e-07
-1.08891e-05
4.50594e-07
-6.56768e-07
-1.00059e-05
3.58514e-07
-7.56723e-07
-9.37201e-06
9.2676e-07
-8.12815e-07
-8.936e-06
1.4348e-06
-1.0725e-06
-8.71273e-06
2.05629e-06
-1.3627e-06
-8.87218e-06
2.60927e-06
-1.44482e-06
-8.98986e-06
2.75763e-06
-1.51597e-06
-8.8546e-06
2.59121e-06
-1.58603e-06
-8.56078e-06
2.52423e-06
-1.50007e-06
-8.06179e-06
2.3336e-06
-1.42627e-06
-7.33669e-06
2.22867e-06
-1.34869e-06
-6.50341e-06
2.08541e-06
-1.25969e-06
-5.59253e-06
2.07527e-06
-1.24477e-06
-4.6281e-06
2.19152e-06
-1.30826e-06
-3.615e-06
2.24469e-06
-1.32368e-06
-2.56499e-06
2.31317e-06
-1.3998e-06
-1.40767e-06
2.22802e-06
-1.48269e-06
-2.90996e-07
2.60672e-06
-1.69044e-06
5.5993e-07
3.35849e-06
-1.82174e-06
7.15523e-07
4.0601e-06
-1.76313e-06
4.94563e-06
-1.25818e-06
-2.94181e-06
8.98425e-07
-9.66789e-07
-1.17971e-06
-4.93768e-06
-1.39796e-06
-1.84262e-06
2.39565e-06
-6.42917e-07
-1.06983e-06
-1.95748e-06
-1.00815e-06
-1.238e-06
1.7597e-06
-8.49954e-07
-7.90711e-07
-8.43624e-07
-9.82254e-07
-8.11369e-07
1.35461e-06
-9.60917e-07
-5.43215e-07
-1.40994e-07
-1.00131e-06
-5.4672e-07
1.20663e-06
-1.00671e-06
-3.93835e-07
3.86604e-07
-1.03059e-06
-4.06558e-07
1.17752e-06
-1.02946e-06
-3.1781e-07
7.68732e-07
-1.05656e-06
-3.31852e-07
1.19572e-06
-1.05459e-06
-2.8339e-07
1.04082e-06
-1.07861e-06
-2.91126e-07
1.23912e-06
-1.08136e-06
-2.70379e-07
1.22778e-06
-1.09963e-06
-2.69741e-07
1.30607e-06
-1.10863e-06
-2.65691e-07
1.34677e-06
-1.12167e-06
-2.63543e-07
1.38958e-06
-1.13289e-06
-2.62513e-07
1.42887e-06
-1.14416e-06
-2.62432e-07
1.46525e-06
-1.15496e-06
-2.63069e-07
1.49906e-06
-1.16547e-06
-2.64111e-07
1.53075e-06
-1.17608e-06
-2.65472e-07
1.56063e-06
-1.18659e-06
-2.67086e-07
1.58894e-06
-1.19699e-06
-2.68897e-07
1.61586e-06
-1.20728e-06
-2.70842e-07
1.64152e-06
-1.21745e-06
-2.72873e-07
1.66601e-06
-1.22747e-06
-2.74966e-07
1.68942e-06
-1.23732e-06
-2.77092e-07
1.71179e-06
-1.24704e-06
-2.792e-07
1.73313e-06
-1.25663e-06
-2.81208e-07
1.7534e-06
-1.26611e-06
-2.83156e-07
1.77256e-06
-1.27544e-06
-2.8497e-07
1.79055e-06
-1.28451e-06
-2.85133e-07
1.8042e-06
-1.29428e-06
-2.897e-07
1.83097e-06
-1.30097e-06
-2.84825e-07
1.81955e-06
-1.31342e-06
-2.92934e-07
1.87305e-06
-1.31715e-06
-2.81313e-07
1.8194e-06
-1.33138e-06
-2.9262e-07
1.91156e-06
-1.33321e-06
-2.71701e-07
1.80168e-06
-1.34818e-06
-2.84685e-07
1.94093e-06
-1.3492e-06
-2.49709e-07
1.76032e-06
-1.36388e-06
-2.60641e-07
1.95208e-06
-1.36473e-06
-2.03315e-07
1.68563e-06
-1.37774e-06
-2.05208e-07
1.92365e-06
-1.37826e-06
-1.03762e-07
1.5684e-06
-1.3906e-06
-9.79029e-08
1.79256e-06
-1.38371e-06
8.37288e-08
1.40318e-06
-1.40614e-06
1.06293e-07
1.43815e-06
-1.35488e-06
3.12022e-07
9.27421e-07
-1.36066e-06
1.85086e-07
7.55254e-07
-1.14078e-06
-2.13289e-07
-1.15192e-07
-1.15411e-06
-4.82278e-07
-2.34809e-06
-4.95835e-07
3.97854e-06
-8.66724e-06
-1.00669e-06
1.28036e-05
-9.1977e-06
-2.67365e-06
2.358e-05
-4.59776e-06
-6.83202e-06
3.16544e-05
4.06329e-06
-4.67701e-06
4.19091e-06
4.2465e-05
-4.09114e-06
-1.09347e-05
7.61234e-06
3.97474e-06
-5.34723e-05
1.34042e-05
1.19723e-05
-6.87899e-05
8.60382e-06
6.17645e-06
-7.85855e-05
6.0725e-06
2.58878e-06
-8.02055e-05
3.03901e-06
1.18364e-06
-8.06107e-05
2.65356e-06
4.4551e-07
-8.05724e-05
2.48795e-06
1.51494e-07
-8.09791e-05
2.59829e-06
2.18416e-08
-8.13362e-05
2.58153e-06
-1.36239e-07
-8.19018e-05
2.78417e-06
-8.50052e-07
-8.26714e-05
3.00053e-06
-9.24058e-07
-8.37399e-05
2.94632e-06
-1.0917e-06
-8.47772e-05
2.63804e-06
-8.36549e-07
-8.61601e-05
2.19918e-06
-4.31306e-07
-8.71902e-05
1.55897e-06
-9.40662e-08
-8.78777e-05
1.00304e-06
8.39363e-09
-8.78605e-05
6.19149e-07
-1.78626e-07
-8.70236e-05
4.32583e-07
-9.04007e-07
-8.48076e-05
7.14361e-07
-1.99662e-06
-8.20524e-05
1.59125e-06
-2.90479e-06
-7.94275e-05
2.89279e-06
-3.45439e-06
-7.73269e-05
4.23327e-06
-3.71788e-06
-7.54102e-05
4.67301e-06
-3.8258e-06
-7.32656e-05
4.403e-06
-3.95062e-06
-7.05965e-05
3.59849e-06
-3.7382e-06
-6.71027e-05
2.46359e-06
-3.61905e-06
-6.28634e-05
1.34337e-06
-3.34973e-06
-5.79364e-05
2.95662e-07
-3.13328e-06
-5.22999e-05
-7.32105e-07
-2.82536e-06
-4.63437e-05
-1.35273e-06
-2.40855e-06
-4.05181e-05
-1.68378e-06
-1.89386e-06
-3.50156e-05
-1.52264e-06
-1.66369e-06
-2.94954e-05
-1.53353e-06
-1.75599e-06
-2.35179e-05
-1.52427e-06
-1.84429e-06
-1.6816e-05
-1.34521e-06
-1.99639e-06
-9.54701e-06
-1.03232e-06
-2.17517e-06
-1.82372e-06
-2.77711e-06
-2.95589e-06
2.3065e-06
1.65596e-06
-1.35506e-06
-5.11882e-06
-1.41969e-06
-2.07088e-06
3.02137e-06
9.00918e-08
-1.22237e-06
-2.18096e-06
-6.25045e-07
-1.26342e-06
2.21674e-06
-4.15989e-07
-7.83646e-07
-7.35303e-07
-5.88093e-07
-7.38826e-07
1.87121e-06
-5.61401e-07
-4.96595e-07
2.41791e-07
-6.24997e-07
-4.75793e-07
1.78753e-06
-6.01673e-07
-3.45462e-07
8.9367e-07