/*--------------------------------*- C++ -*----------------------------------*\
| =========                 |                                                 |
| \\      /  F ield         | OpenFOAM: The Open Source CFD Toolbox           |
|  \\    /   O peration     | Version:  2.3.0                                 |
|   \\  /    A nd           | Web:      www.OpenFOAM.org                      |
|    \\/     M anipulation  |                                                 |
\*---------------------------------------------------------------------------*/
FoamFile
{
    version     2.0;
    format      ascii;
    class       surfaceScalarField;
    location    "2";
    object      phi.water;
}
// * * * * * * * * * * * * * * * * * * * * * * * * * * * * * * * * * * * * * //

dimensions      [0 3 -1 0 0 0 0];

internalField   nonuniform List<scalar> 
16448
(
-2.36613e-06
-9.60477e-07
2.50241e-07
-1.65399e-06
-1.10349e-06
3.91773e-07
-1.36427e-06
-9.03647e-07
6.14242e-07
-1.00305e-06
-1.0247e-06
6.62998e-07
-8.83196e-07
-8.25115e-07
7.05757e-07
-6.93488e-07
-9.09803e-07
7.19843e-07
-6.21627e-07
-7.95945e-07
7.24569e-07
-5.13313e-07
-8.36015e-07
7.27773e-07
-4.53447e-07
-7.858e-07
7.26335e-07
-3.86163e-07
-7.92951e-07
7.25888e-07
-3.35967e-07
-7.73877e-07
7.23961e-07
-2.89801e-07
-7.68404e-07
7.22443e-07
-2.50981e-07
-7.59501e-07
7.20856e-07
-2.17428e-07
-7.52876e-07
7.19452e-07
-1.88821e-07
-7.46697e-07
7.18181e-07
-1.64501e-07
-7.41313e-07
7.17049e-07
-1.4392e-07
-7.36599e-07
7.16041e-07
-1.26561e-07
-7.32504e-07
7.1514e-07
-1.11955e-07
-7.2897e-07
7.14333e-07
-9.96839e-08
-7.25935e-07
7.1361e-07
-8.93799e-08
-7.23335e-07
7.12959e-07
-8.07186e-08
-7.21118e-07
7.12368e-07
-7.34123e-08
-7.19234e-07
7.11825e-07
-6.72119e-08
-7.17639e-07
7.11324e-07
-6.19011e-08
-7.16295e-07
7.1086e-07
-5.72924e-08
-7.15169e-07
7.10429e-07
-5.32224e-08
-7.14232e-07
7.10026e-07
-4.95485e-08
-7.13464e-07
7.09648e-07
-4.61344e-08
-7.12848e-07
7.0929e-07
-4.286e-08
-7.12366e-07
7.08944e-07
-3.96027e-08
-7.12013e-07
7.08609e-07
-3.62668e-08
-7.11773e-07
7.08285e-07
-3.27025e-08
-7.11598e-07
7.07934e-07
-2.98499e-08
-7.11099e-07
7.07886e-07
-2.18123e-08
-7.13883e-07
7.0627e-07
-2.29061e-08
-7.08596e-07
7.08538e-07
-9.2892e-09
-7.1726e-07
7.04863e-07
-1.23955e-08
-7.07165e-07
7.08491e-07
5.11474e-09
-7.20157e-07
7.04404e-07
2.28608e-09
-7.07508e-07
7.08114e-07
2.19039e-08
-7.22115e-07
7.04637e-07
2.14919e-08
-7.10246e-07
7.08168e-07
3.83748e-08
-7.18504e-07
7.03966e-07
4.31297e-08
-7.1675e-07
7.0944e-07
4.86063e-08
-7.04791e-07
7.01697e-07
5.85109e-08
-7.22786e-07
7.10441e-07
4.105e-08
-6.7379e-07
6.93603e-07
4.42612e-08
-7.14795e-07
7.09064e-07
-2.75213e-08
-5.97824e-07
6.72448e-07
-5.38116e-08
-6.6853e-07
6.92021e-07
-3.5022e-07
-3.19693e-07
6.19324e-07
-4.58616e-07
-5.28494e-07
6.34832e-07
-1.60268e-06
4.50153e-07
7.03555e-07
-2.25803e-06
1.01721e-08
6.7435e-07
-7.64447e-06
3.27034e-06
2.42408e-06
-7.94476e-06
-2.729e-07
5.16435e-07
-1.21659e-05
2.98253e-06
1.59212e-06
-1.07233e-05
2.00618e-06
-3.86758e-06
2.38353e-06
-3.03999e-06
-1.02826e-06
3.04719e-05
3.8716e-06
-1.0022e-05
2.15273e-05
-2.45683e-05
3.65639e-06
2.37998e-05
-1.44764e-05
1.02549e-05
2.36287e-05
-8.77614e-06
8.94212e-06
2.43994e-05
-6.20553e-06
5.43487e-06
2.28061e-05
-2.40191e-06
3.99514e-06
1.78151e-05
7.2057e-07
4.27042e-06
1.21944e-05
1.74242e-06
3.87828e-06
8.05595e-06
1.80298e-06
2.33552e-06
6.17901e-06
7.68263e-07
1.10868e-06
5.65132e-06
-7.15707e-08
5.99262e-07
5.57912e-06
-5.76185e-07
6.48378e-07
5.54607e-06
-7.93362e-07
8.26416e-07
5.45809e-06
-8.97769e-07
9.85747e-07
5.31873e-06
-9.30012e-07
1.06937e-06
5.15027e-06
-9.6847e-07
1.13693e-06
4.96951e-06
-9.85523e-07
1.16628e-06
4.78771e-06
-1.00052e-06
1.18232e-06
4.59458e-06
-9.96676e-07
1.1898e-06
4.39484e-06
-9.94851e-07
1.1946e-06
4.1952e-06
-9.97757e-07
1.19739e-06
3.99059e-06
-9.93255e-07
1.19786e-06
3.78194e-06
-9.89072e-07
1.19772e-06
3.57029e-06
-9.84683e-07
1.19633e-06
3.35456e-06
-9.77784e-07
1.19351e-06
3.13388e-06
-9.68909e-07
1.18959e-06
2.90655e-06
-9.57656e-07
1.18499e-06
2.67207e-06
-9.45036e-07
1.17951e-06
2.42971e-06
-9.30371e-07
1.17274e-06
2.17689e-06
-9.12494e-07
1.16531e-06
1.91166e-06
-8.91401e-07
1.15663e-06
1.63228e-06
-8.67913e-07
1.1473e-06
1.33705e-06
-8.42829e-07
1.13805e-06
1.02679e-06
-8.19394e-07
1.12966e-06
6.98653e-07
-7.94083e-07
1.12222e-06
3.55866e-07
-7.73887e-07
1.11667e-06
-7.54359e-07
1.11022e-06
-2.75034e-06
-1.56538e-06
-2.91398e-07
-1.78911e-06
-1.9304e-06
-1.34106e-07
-1.52779e-06
-1.36846e-06
2.04312e-07
-1.0971e-06
-1.70377e-06
2.47579e-07
-1.01607e-06
-1.22473e-06
3.19495e-07
-7.8524e-07
-1.47531e-06
3.34309e-07
-7.34258e-07
-1.19211e-06
3.46086e-07
-5.96972e-07
-1.32563e-06
3.52424e-07
-5.45242e-07
-1.18959e-06
3.5281e-07
-4.61429e-07
-1.23186e-06
3.55411e-07
-4.10606e-07
-1.17883e-06
3.54637e-07
-3.56886e-07
-1.17713e-06
3.55343e-07
-3.145e-07
-1.15634e-06
3.54785e-07
-2.77074e-07
-1.14468e-06
3.54639e-07
-2.45485e-07
-1.13238e-06
3.54315e-07
-2.18687e-07
-1.12196e-06
3.54022e-07
-1.96091e-07
-1.1128e-06
3.5373e-07
-1.771e-07
-1.10485e-06
3.53447e-07
-1.61181e-07
-1.09801e-06
3.53176e-07
-1.47861e-07
-1.09214e-06
3.52919e-07
-1.36715e-07
-1.08715e-06
3.52673e-07
-1.27375e-07
-1.08291e-06
3.52437e-07
-1.19528e-07
-1.07933e-06
3.52212e-07
-1.12905e-07
-1.07631e-06
3.52e-07
-1.07278e-07
-1.07378e-06
3.51799e-07
-1.02436e-07
-1.07169e-06
3.51603e-07
-9.81943e-08
-1.06996e-06
3.5141e-07
-9.43932e-08
-1.06857e-06
3.51214e-07
-9.08899e-08
-1.06746e-06
3.51013e-07
-8.75451e-08
-1.06662e-06
3.50813e-07
-8.4232e-08
-1.06603e-06
3.50609e-07
-8.0836e-08
-1.06568e-06
3.50413e-07
-7.72427e-08
-1.06546e-06
3.50205e-07
-7.35288e-08
-1.06533e-06
3.50245e-07
-6.80971e-08
-1.06756e-06
3.4857e-07
-6.53247e-08
-1.06362e-06
3.51407e-07
-5.58232e-08
-1.07238e-06
3.46707e-07
-5.45532e-08
-1.06239e-06
3.52203e-07
-4.01926e-08
-1.07765e-06
3.452e-07
-3.94071e-08
-1.06338e-06
3.52506e-07
-2.17759e-08
-1.08066e-06
3.436e-07
-1.91982e-08
-1.06808e-06
3.52285e-07
-1.49738e-09
-1.07522e-06
3.42016e-07
4.74645e-09
-1.07768e-06
3.51571e-07
1.4882e-08
-1.05096e-06
3.39114e-07
2.3538e-08
-1.08639e-06
3.51909e-07
1.81146e-08
-9.95815e-07
3.30433e-07
4.26169e-09
-1.05896e-06
3.55031e-07
3.0438e-09
-8.9073e-07
2.97306e-07
-1.02905e-07
-9.28705e-07
3.63144e-07
-5.83013e-08
-5.53436e-07
1.93566e-07
-3.43565e-07
-6.21361e-07
3.73519e-07
-1.47804e-07
2.81142e-07
-2.00993e-08
-7.2561e-07
8.64165e-08
4.89773e-07
9.83398e-07
2.7771e-06
-1.09556e-06
7.04497e-07
8.30627e-07
-1.00754e-06
4.11739e-06
6.51211e-06
-5.54566e-06
1.02412e-05
1.07759e-06
-5.40232e-06
2.11745e-06
1.50003e-06
1.17061e-05
3.09003e-05
2.80746e-06
-3.16142e-06
2.26438e-05
-4.06242e-05
-4.39908e-06
2.31931e-05
-2.34477e-05
5.47296e-06
2.07321e-05
-1.15941e-05
5.26281e-06
2.33596e-05
-8.65512e-06
-1.77876e-07
2.14659e-05
-2.37448e-07
-2.70742e-07
1.47924e-05
5.47705e-06
1.91695e-06
8.86731e-06
5.47933e-06
2.1882e-06
7.02449e-06
3.89603e-06
-2.50228e-07
7.02496e-06
1.88127e-06
-1.11348e-06
6.99894e-06
7.38011e-07
-7.8356e-07
6.69675e-06
-4.80992e-08
-2.25895e-07
6.31091e-06
-5.20264e-07
1.12737e-07
6.00933e-06
-8.40111e-07
2.43924e-07
5.76921e-06
-9.96151e-07
3.06258e-07
5.57629e-06
-1.12987e-06
3.54327e-07
5.38523e-06
-1.18119e-06
3.8672e-07
5.19798e-06
-1.22498e-06
4.117e-07
4.99977e-06
-1.2269e-06
4.28437e-07
4.78983e-06
-1.22788e-06
4.42965e-07
4.57688e-06
-1.23596e-06
4.5115e-07
4.36097e-06
-1.23362e-06
4.5627e-07
4.14036e-06
-1.22859e-06
4.60134e-07
3.91537e-06
-1.2205e-06
4.60805e-07
3.68334e-06
-1.20379e-06
4.58044e-07
3.44521e-06
-1.18598e-06
4.55201e-07
3.20015e-06
-1.16509e-06
4.52486e-07
2.9479e-06
-1.14351e-06
4.5073e-07
2.68839e-06
-1.12158e-06
4.50721e-07
2.41878e-06
-1.09425e-06
4.51362e-07
2.13509e-06
-1.05924e-06
4.51536e-07
1.83559e-06
-1.02022e-06
4.51806e-07
1.51786e-06
-9.77404e-07
4.52297e-07
1.17773e-06
-9.31422e-07
4.52161e-07
8.07505e-07
-8.77127e-07
4.53269e-07
4.14885e-07
-8.35839e-07
4.54572e-07
-7.97463e-07
4.57988e-07
-2.88364e-06
-1.88251e-06
-6.66544e-07
-1.65264e-06
-2.56461e-06
-5.97157e-07
-1.49857e-06
-1.45818e-06
-6.26932e-08
-9.94119e-07
-2.15556e-06
-5.39306e-08
-9.93665e-07
-1.28575e-06
6.21503e-08
-7.26626e-07
-1.80579e-06
6.28133e-08
-7.25692e-07
-1.27912e-06
8.75242e-08
-5.63739e-07
-1.57558e-06
8.79578e-08
-5.41644e-07
-1.30344e-06
9.29008e-08
-4.41223e-07
-1.42506e-06
9.30609e-08
-4.04946e-07
-1.30829e-06
9.39609e-08
-3.4563e-07
-1.3298e-06
9.37409e-08
-3.07671e-07
-1.28765e-06
9.38492e-08
-2.70776e-07
-1.27472e-06
9.35101e-08
-2.40684e-07
-1.25529e-06
9.31546e-08
-2.15078e-07
-1.23998e-06
9.27e-08
-1.93591e-07
-1.22624e-06
9.22031e-08
-1.75611e-07
-1.21429e-06
9.16655e-08
-1.60606e-07
-1.20394e-06
9.10977e-08
-1.48102e-07
-1.19501e-06
9.05072e-08
-1.37691e-07
-1.18734e-06
8.98995e-08
-1.29015e-07
-1.18077e-06
8.92806e-08
-1.21769e-07
-1.17515e-06
8.86533e-08
-1.15689e-07
-1.17035e-06
8.80201e-08
-1.10543e-07
-1.16626e-06
8.73794e-08
-1.0613e-07
-1.16279e-06
8.67337e-08
-1.02277e-07
-1.15987e-06
8.60853e-08
-9.88297e-08
-1.15743e-06
8.54385e-08
-9.56476e-08
-1.15542e-06
8.47951e-08
-9.26077e-08
-1.1538e-06
8.41577e-08
-8.95867e-08
-1.15257e-06
8.35269e-08
-8.64673e-08
-1.15171e-06
8.29151e-08
-8.31121e-08
-1.1511e-06
8.23362e-08
-7.9717e-08
-1.15083e-06
8.19357e-08
-7.42736e-08
-1.15274e-06
8.01927e-08
-7.19879e-08
-1.1488e-06
8.21434e-08
-6.2161e-08
-1.15867e-06
7.76855e-08
-6.15048e-08
-1.14692e-06
8.22182e-08
-4.59094e-08
-1.16658e-06
7.55882e-08
-4.636e-08
-1.14745e-06
8.19134e-08
-2.48867e-08
-1.17303e-06
7.3824e-08
-2.4635e-08
-1.15266e-06
8.13012e-08
2.46763e-09
-1.17092e-06
7.18328e-08
4.88454e-09
-1.16417e-06
8.09187e-08
3.6497e-08
-1.1479e-06
6.85056e-08
3.88817e-08
-1.17358e-06
8.19534e-08
8.17827e-08
-1.09708e-06
6.07389e-08
4.73117e-08
-1.11535e-06
8.88042e-08
1.32293e-07
-1.00637e-06
3.26423e-08
-4.32294e-08
-8.72756e-07
1.17339e-07
1.80395e-07
-6.80145e-07
-9.41372e-08
-3.2314e-07
-2.97749e-07
1.76192e-07
1.20163e-07
2.46306e-07
-4.0196e-07
-1.19657e-06
1.10303e-06
2.85208e-07
5.60668e-07
1.59985e-06
-5.52005e-07
-4.83077e-07
-5.54512e-08
1.52902e-06
4.51455e-06
3.67016e-06
-8.45689e-07
1.29021e-05
-5.76528e-06
-2.84424e-06
4.01988e-06
9.76108e-06
1.16063e-05
3.23522e-05
-4.14056e-06
2.29751e-06
1.20732e-05
-4.38578e-05
-5.88379e-06
6.44524e-06
-2.13877e-05
1.08999e-06
6.96013e-06
-1.3892e-05
1.7788e-06
6.54612e-06
-3.97686e-06
-4.26425e-06
7.40225e-06
2.25959e-06
-3.35318e-06
6.84634e-06
5.33297e-06
6.99986e-07
5.74923e-06
6.00612e-06
5.70316e-07
6.39418e-06
4.13685e-06
-8.85782e-07
7.05146e-06
2.65481e-06
-1.43082e-06
7.17265e-06
1.48258e-06
-8.65758e-07
6.84815e-06
6.62829e-07
-3.86433e-07
6.46567e-06
7.2715e-08
-2.10502e-07
6.21614e-06
-4.19887e-07
-1.70689e-07
6.04636e-06
-6.86588e-07
-1.39791e-07
5.90871e-06
-8.88018e-07
-1.04197e-07
5.75381e-06
-9.51229e-07
-7.5066e-08
5.58218e-06
-1.00334e-06
-5.00042e-08
5.38276e-06
-9.94054e-07
-3.34236e-08
5.16415e-06
-9.914e-07
-1.78707e-08
4.93935e-06
-1.00259e-06
-8.56936e-09
4.71489e-06
-1.00801e-06
-1.14917e-09
4.47897e-06
-1.00066e-06
7.99161e-09
4.24318e-06
-9.98171e-07
1.34564e-08
4.00445e-06
-9.77311e-07
1.22462e-08
3.75782e-06
-9.50982e-07
1.16312e-08
3.4983e-06
-9.15045e-07
9.47797e-09
3.22731e-06
-8.81265e-07
8.73535e-09
2.94329e-06
-8.4745e-07
9.89372e-09
2.64105e-06
-8.05496e-07
1.34844e-08
2.32306e-06
-7.61769e-07
2.05166e-08
1.99117e-06
-7.18363e-07
3.00338e-08
1.64067e-06
-6.67884e-07
4.09762e-08
1.26875e-06
-6.12852e-07
5.33486e-08
8.66196e-07
-5.4316e-07
6.85906e-08
4.4709e-07
-5.02864e-07
8.61311e-08
-4.56149e-07
1.05775e-07
-3.02052e-06
-1.98178e-06
-8.71097e-07
-1.45711e-06
-3.16936e-06
-9.60447e-07
-1.42785e-06
-1.28429e-06
-2.00468e-07
-8.59711e-07
-2.47411e-06
-2.51529e-07
-9.52083e-07
-1.11934e-06
-7.17074e-08
-6.5804e-07
-2.00429e-06
-9.65659e-08
-7.07209e-07
-1.17479e-06
-5.30712e-08
-5.2179e-07
-1.7006e-06
-6.06651e-08
-5.30171e-07
-1.24189e-06
-5.15462e-08
-4.11272e-07
-1.49095e-06
-5.28972e-08
-3.95405e-07
-1.27091e-06
-5.21514e-08
-3.24803e-07
-1.34754e-06
-5.25484e-08
-2.96538e-07
-1.2621e-06
-5.31576e-08
-2.58211e-07
-1.25874e-06
-5.39093e-08
-2.30819e-07
-1.2275e-06
-5.47599e-08
-2.06881e-07
-1.2078e-06
-5.57707e-08
-1.87062e-07
-1.18891e-06
-5.68378e-08
-1.70617e-07
-1.17247e-06
-5.79869e-08
-1.57004e-07
-1.15811e-06
-5.91882e-08
-1.45747e-07
-1.14562e-06
-6.04326e-08
-1.36443e-07
-1.13475e-06
-6.17058e-08
-1.28749e-07
-1.12529e-06
-6.3001e-08
-1.22369e-07
-1.11706e-06
-6.43088e-08
-1.17054e-07
-1.1099e-06
-6.56265e-08
-1.12584e-07
-1.10365e-06
-6.69497e-08
-1.08777e-07
-1.0982e-06
-6.82764e-08
-1.05476e-07
-1.09345e-06
-6.96062e-08
-1.02542e-07
-1.08932e-06
-7.09357e-08
-9.98441e-08
-1.08574e-06
-7.22646e-08
-9.72626e-08
-1.08269e-06
-7.35919e-08
-9.46753e-08
-1.08014e-06
-7.49152e-08
-9.19824e-08
-1.07807e-06
-7.62298e-08
-8.90343e-08
-1.07638e-06
-7.7536e-08
-8.60702e-08
-1.07516e-06
-7.86919e-08
-8.08862e-08
-1.07633e-06
-8.10572e-08
-7.93056e-08
-1.07118e-06
-7.98453e-08
-6.92285e-08
-1.08244e-06
-8.50079e-08
-6.96502e-08
-1.06699e-06
-8.10471e-08
-5.25877e-08
-1.09275e-06
-8.85085e-08
-5.4946e-08
-1.0652e-06
-8.25081e-08
-2.91934e-08
-1.10406e-06
-9.1572e-08
-3.20109e-08
-1.0687e-06
-8.41905e-08
5.81925e-09
-1.11051e-06
-9.48077e-08
3.52739e-09
-1.07956e-06
-8.54234e-08
5.88608e-08
-1.1013e-06
-9.8754e-08
5.74291e-08
-1.08973e-06
-8.4889e-08
1.36409e-07
-1.07041e-06
-1.03621e-07
1.1894e-07
-1.02303e-06
-7.57462e-08
2.69098e-07
-1.01958e-06
-1.35502e-07
1.71674e-07
-7.42563e-07
-3.37294e-08
5.19827e-07
-7.78568e-07
-2.47891e-07
1.65558e-07
-1.48603e-08
6.99072e-08
7.6668e-07
1.3174e-07
-4.72892e-07
-6.86617e-07
2.21719e-06
3.2157e-07
1.79902e-06
2.53038e-07
-9.91316e-07
3.92107e-06
-2.47454e-06
2.02047e-07
1.21303e-05
-1.44084e-06
-1.75768e-06
1.88295e-05
-1.34214e-05
-1.13068e-06
1.07623e-05
1.90526e-05
1.60389e-05
3.66007e-05
-1.16998e-05
1.39182e-06
9.76128e-06
-4.3222e-05
-6.16027e-06
3.11748e-06
-1.95405e-05
2.27107e-06
4.44481e-06
-1.56692e-05
4.47021e-07
-1.34673e-06
1.4755e-06
3.39179e-07
-1.80989e-06
2.66991e-06
5.28465e-08
-1.9083e-06
4.12064e-06
1.31074e-06
1.12397e-06
3.37362e-06
-3.99755e-07
2.89375e-06
3.43679e-06
-1.06971e-06
4.40925e-06
2.42665e-06
-1.28734e-06
5.3099e-06
1.59894e-06
-1.01701e-06
5.77079e-06
9.55744e-07
-7.53801e-07
6.03511e-06
4.22854e-07
-6.14462e-07
6.14582e-06
-1.2348e-08
-5.18252e-07
6.18726e-06
-2.89897e-07
-4.38126e-07
6.16325e-06
-4.63688e-07
-4.00326e-07
6.07656e-06
-4.95886e-07
-3.68655e-07
5.93254e-06
-5.1553e-07
-3.43783e-07
5.73149e-06
-4.70797e-07
-3.22209e-07
5.50615e-06
-4.57397e-07
-3.08668e-07
5.26227e-06
-4.58803e-07
-2.99912e-07
5.02264e-06
-4.78697e-07
-2.89684e-07
4.77546e-06
-4.77337e-07
-2.7614e-07
4.53764e-06
-4.93218e-07
-2.67132e-07
4.30565e-06
-4.8091e-07
-2.64408e-07
4.06353e-06
-4.53157e-07
-2.55704e-07
3.81434e-06
-4.09505e-07
-2.56353e-07
3.55457e-06
-3.59904e-07
-2.61591e-07
3.27975e-06
-3.01213e-07
-2.71415e-07
2.97831e-06
-2.22731e-07
-2.81326e-07
2.65514e-06
-1.47523e-07
-2.91081e-07
2.31196e-06
-7.93309e-08
-2.95851e-07
1.95581e-06
-1.405e-08
-2.97686e-07
1.56905e-06
6.54381e-08
-2.91528e-07
1.11275e-06
1.903e-07
-2.77159e-07
6.0929e-07
2.67547e-07
-2.66956e-07
3.95831e-07
-2.42691e-07
-3.02214e-06
-1.8983e-06
-1.05372e-06
-1.19828e-06
-3.73998e-06
-1.25623e-06
-1.34018e-06
-8.44433e-07
-2.94571e-07
-7.44026e-07
-2.6279e-06
-4.44987e-07
-9.2066e-07
-7.5528e-07
-1.84383e-07
-6.0717e-07
-2.05556e-06
-2.6359e-07
-6.91795e-07
-9.05556e-07
-1.8182e-07
-4.85569e-07
-1.69104e-06
-2.16272e-07
-5.15056e-07
-1.02188e-06
-1.88376e-07
-3.79185e-07
-1.42578e-06
-2.01119e-07
-3.81025e-07
-1.07451e-06
-1.93112e-07
-2.98209e-07
-1.23289e-06
-1.97308e-07
-2.84216e-07
-1.07897e-06
-1.96245e-07
-2.40622e-07
-1.10348e-06
-1.98536e-07
-2.18729e-07
-1.04954e-06
-1.99367e-07
-1.96484e-07
-1.02874e-06
-2.00962e-07
-1.78875e-07
-1.00375e-06
-2.02462e-07
-1.64423e-07
-9.82474e-07
-2.04181e-07
-1.52614e-07
-9.63674e-07
-2.06027e-07
-1.42955e-07
-9.47106e-07
-2.07977e-07
-1.35061e-07
-9.3247e-07
-2.1001e-07
-1.28603e-07
-9.19503e-07
-2.12104e-07
-1.23306e-07
-9.07997e-07
-2.14247e-07
-1.18934e-07
-8.97743e-07
-2.16422e-07
-1.153e-07
-8.88574e-07
-2.18623e-07
-1.12245e-07
-8.80343e-07
-2.20843e-07
-1.09623e-07
-8.72935e-07
-2.23077e-07
-1.07309e-07
-8.66255e-07
-2.2532e-07
-1.05197e-07
-8.6024e-07
-2.27565e-07
-1.03178e-07
-8.54854e-07
-2.2981e-07
-1.01149e-07
-8.50072e-07
-2.32051e-07
-9.90167e-08
-8.45882e-07
-2.34283e-07
-9.66089e-08
-8.42239e-07
-2.3648e-07
-9.41999e-08
-8.39163e-07
-2.38541e-07
-8.95363e-08
-8.388e-07
-2.41727e-07
-8.86807e-08
-8.3126e-07
-2.41499e-07
-7.87734e-08
-8.43615e-07
-2.47505e-07
-8.03107e-08
-8.22709e-07
-2.44346e-07
-6.25098e-08
-8.55358e-07
-2.52886e-07
-6.67378e-08
-8.16482e-07
-2.47268e-07
-3.78627e-08
-8.72146e-07
-2.57587e-07
-4.3527e-08
-8.16005e-07
-2.50315e-07
2.76359e-09
-8.90638e-07
-2.62664e-07
-3.14953e-09
-8.24127e-07
-2.52837e-07
7.14403e-08
-9.05201e-07
-2.67724e-07
7.3061e-08
-8.39254e-07
-2.5419e-07
1.82701e-07
-9.06227e-07
-2.72315e-07
2.39205e-07
-8.32984e-07
-2.4754e-07
4.14674e-07
-9.01411e-07
-2.92279e-07
6.00388e-07
-7.46072e-07
-1.83498e-07
9.81178e-07
-8.40423e-07
-3.18106e-07
1.39238e-06
-4.46959e-07
1.98434e-08
2.60645e-06
-7.83415e-07
-2.75621e-07
3.11189e-06
1.16101e-06
5.42835e-07
5.94893e-06
-1.21219e-06
-1.00104e-06
3.26762e-06
2.69415e-07
-2.94127e-07
1.39753e-05
-6.94264e-06
-3.78833e-06
1.99743e-07
-4.52498e-06
1.54543e-06
2.23277e-05
8.7955e-06
1.48292e-05
4.23969e-05
-1.26053e-05
-2.89101e-06
5.99517e-06
-3.59735e-05
-8.17618e-06
-2.25758e-06
-1.73151e-05
3.65622e-06
-4.36997e-06
-1.41782e-05
6.14192e-07
-7.78987e-06
2.48601e-06
2.40907e-06
-6.21484e-06
1.04662e-06
4.81767e-08
-5.39206e-06
3.40154e-06
-1.03345e-07
-2.86918e-06
2.12862e-06
-1.27809e-06
-6.48766e-07
2.78942e-06
-1.57331e-06
1.56916e-06
1.93094e-06
-1.7226e-06
2.83432e-06
1.76179e-06
-1.42834e-06
3.85058e-06
1.19259e-06
-1.25328e-06
4.54116e-06
7.68734e-07
-1.03656e-06
5.02987e-06
4.2972e-07
-9.30864e-07
5.33629e-06
2.30166e-07
-8.26619e-07
5.52408e-06
1.27584e-07
-7.79135e-07
5.59648e-06
1.39214e-07
-7.07516e-07
5.60905e-06
1.6054e-07
-6.88659e-07
5.50653e-06
2.9094e-07
-6.59222e-07
5.40661e-06
3.01619e-07
-6.59103e-07
5.26921e-06
3.13466e-07
-6.34878e-07
5.12957e-06
2.94147e-07
-6.33214e-07
4.94674e-06
3.22929e-07
-6.17433e-07
4.79752e-06
2.70298e-07
-6.14301e-07
4.5711e-06
3.54738e-07
-6.09235e-07
4.31847e-06
3.69934e-07
-5.70463e-07
3.99704e-06
4.51058e-07
-5.39131e-07
3.69669e-06
4.37138e-07
-4.96687e-07
3.40015e-06
4.55473e-07
-4.60148e-07
3.07783e-06
5.18858e-07
-4.19275e-07
2.72878e-06
5.97604e-07
-3.96079e-07
2.35096e-06
6.88224e-07
-3.89732e-07
1.98754e-06
7.33442e-07
-3.8407e-07
1.58453e-06
8.52961e-07
-3.8452e-07
1.08986e-06
1.07841e-06
-3.93434e-07
6.02117e-07
1.15168e-06
-3.96387e-07
1.34658e-06
-3.48634e-07
-2.8402e-06
-1.51146e-06
-1.18183e-06
-9.4416e-07
-4.22736e-06
-1.41277e-06
-1.29703e-06
-5.95406e-08
-4.27699e-07
-6.92082e-07
-2.542e-06
-6.94052e-07
-9.26171e-07
-1.56406e-07
-3.60776e-07
-5.8844e-07
-1.87194e-06
-5.22971e-07
-6.84431e-07
-4.23203e-07
-3.82654e-07
-4.57287e-07
-1.45193e-06
-4.66876e-07
-4.94265e-07
-5.80215e-07
-4.01787e-07
-3.44596e-07
-1.1337e-06
-4.41907e-07
-3.57034e-07
-6.45027e-07
-4.14993e-07
-2.65022e-07
-8.93406e-07
-4.31351e-07
-2.63591e-07
-6.55612e-07
-4.23423e-07
-2.13795e-07
-7.23359e-07
-4.29525e-07
-2.01911e-07
-6.31065e-07
-4.29491e-07
-1.8032e-07
-6.17022e-07
-4.32749e-07
-1.66034e-07
-5.82193e-07
-4.35227e-07
-1.54304e-07
-5.55431e-07
-4.38227e-07
-1.44886e-07
-5.31206e-07
-4.41357e-07
-1.37315e-07
-5.09547e-07
-4.44639e-07
-1.31252e-07
-4.90024e-07
-4.48032e-07
-1.26409e-07
-4.72386e-07
-4.51513e-07
-1.22509e-07
-4.56404e-07
-4.55053e-07
-1.19359e-07
-4.41838e-07
-4.58637e-07
-1.168e-07
-4.28478e-07
-4.62241e-07
-1.14707e-07
-4.16168e-07
-4.65867e-07
-1.12954e-07
-4.04775e-07
-4.69516e-07
-1.1144e-07
-3.94214e-07
-4.73165e-07
-1.10074e-07
-3.84426e-07
-4.76792e-07
-1.08767e-07
-3.7537e-07
-4.80404e-07
-1.07425e-07
-3.67032e-07
-4.83996e-07
-1.05943e-07
-3.5942e-07
-4.87558e-07
-1.04224e-07
-3.52514e-07
-4.91028e-07
-1.02515e-07
-3.46291e-07
-4.94346e-07
-9.85653e-08
-3.43262e-07
-4.98678e-07
-9.87751e-08
-3.31594e-07
-4.99794e-07
-8.93554e-08
-3.44632e-07
-5.06842e-07
-9.25506e-08
-3.15772e-07
-5.04926e-07
-7.48863e-08
-3.5571e-07
-5.14722e-07
-8.12218e-08
-3.02484e-07
-5.09934e-07
-5.13877e-08
-3.76125e-07
-5.2227e-07
-5.99583e-08
-2.95567e-07
-5.14912e-07
-1.08102e-08
-4.06632e-07
-5.29115e-07
-1.89254e-08
-2.99382e-07
-5.19732e-07
6.25305e-08
-4.47846e-07
-5.35167e-07
6.94545e-08
-3.24744e-07
-5.23401e-07
1.93212e-07
-4.87828e-07
-5.40182e-07
3.1222e-07
-4.29616e-07
-5.22818e-07
5.0193e-07
-5.31685e-07
-5.57644e-07
8.62615e-07
-6.22253e-07
-4.85006e-07
1.38829e-06
-7.93446e-07
-5.71922e-07
2.34943e-06
-1.04331e-06
-3.6386e-07
4.02163e-06
-1.97334e-06
-4.56537e-07
7.25479e-06
-1.76814e-06
-2.38833e-07
8.51422e-06
-1.65796e-06
-5.09176e-07
2.90391e-06
4.83874e-06
9.32396e-07
-1.0645e-05
4.76462e-06
2.02977e-06
-2.28027e-05
9.72614e-06
-1.95224e-06
3.33273e-05
-9.85037e-06
-9.47366e-06
4.28178e-05
-9.50847e-06
-2.49202e-06
5.22186e-06
-2.56115e-05
-1.10081e-05
-5.96459e-06
-9.38798e-06
1.65791e-06
-1.24063e-05
-7.24201e-06
-5.13108e-07
-1.16055e-05
1.53247e-06
1.46416e-07
-1.12845e-05
1.52724e-06
-8.08156e-07
-1.04811e-05
2.97008e-06
-3.7719e-07
-9.92507e-06
2.50538e-06
-9.42087e-07
-8.58723e-06
2.60356e-06
-1.166e-06
-6.92709e-06
1.72006e-06
-1.4633e-06
-5.6263e-06
1.65306e-06
-1.20561e-06
-4.24723e-06
1.05967e-06
-1.25802e-06
-3.40852e-06
1.02373e-06
-1.10477e-06
-2.54693e-06
5.833e-07
-1.02409e-06
-1.97893e-06
6.36615e-07
-9.82287e-07
-1.37305e-06
4.35951e-07
-9.20948e-07
-8.98595e-07
5.4626e-07
-8.86865e-07
-3.22731e-07
4.83478e-07
-9.03455e-07
1.18056e-07
7.46508e-07
-8.9996e-07
5.78258e-07
7.97005e-07
-9.58716e-07
1.02836e-06
9.15597e-07
-1.05527e-06
1.45426e-06
1.00371e-06
-1.13859e-06
1.84382e-06
1.12279e-06
-1.19249e-06
2.25239e-06
1.13939e-06
-1.28042e-06
2.56472e-06
1.31717e-06
-1.27674e-06
2.79623e-06
1.40573e-06
-1.26854e-06
2.87185e-06
1.60467e-06
-1.22994e-06
2.91789e-06
1.65871e-06
-1.26803e-06
2.89216e-06
1.74118e-06
-1.26023e-06
2.79446e-06
1.84745e-06
-1.23109e-06
2.64147e-06
1.93396e-06
-1.18347e-06
2.47198e-06
1.96328e-06
-1.10563e-06
2.32205e-06
1.9026e-06
-1.01926e-06
2.05007e-06
2.03293e-06
-9.07999e-07
1.58277e-06
2.38767e-06
-8.41972e-07
1.04817e-06
2.45257e-06
-7.66291e-07
2.97192e-06
-5.77177e-07
-2.71809e-06
-5.74572e-07
-1.39743e-06
-8.32611e-07
-4.57549e-06
-1.5429e-06
-1.36898e-06
1.08774e-06
-6.06114e-07
-7.44897e-07
-2.19522e-06
-9.75627e-07
-9.80034e-07
7.3943e-07
-6.5608e-07
-6.12022e-07
-1.38078e-06
-8.61774e-07
-6.85e-07
3.7111e-07
-7.17272e-07
-4.43549e-07
-8.75898e-07
-8.18813e-07
-4.69686e-07
1.94921e-07
-7.46011e-07
-3.14467e-07
-4.92316e-07
-7.97427e-07
-3.29427e-07
1.3432e-07
-7.62423e-07
-2.35485e-07
-1.99838e-07
-7.88025e-07
-2.42787e-07
1.26471e-07
-7.73602e-07
-1.90834e-07
1.02524e-08
-7.85777e-07
-1.88592e-07
1.49682e-07
-7.82399e-07
-1.66063e-07
1.48676e-07
-7.88166e-07
-1.55964e-07
1.97918e-07
-7.89993e-07
-1.46776e-07
2.29045e-07
-7.93526e-07
-1.39638e-07
2.58759e-07
-7.97003e-07
-1.3405e-07
2.85681e-07
-8.00731e-07
-1.29718e-07
3.10324e-07
-8.04631e-07
-1.26394e-07
3.32908e-07
-8.08578e-07
-1.23854e-07
3.53569e-07
-8.12497e-07
-1.21906e-07
3.72615e-07
-8.16394e-07
-1.20403e-07
3.90261e-07
-8.20253e-07
-1.19232e-07
4.06684e-07
-8.24037e-07
-1.18348e-07
4.22026e-07
-8.27712e-07
-1.17694e-07
4.36401e-07
-8.31299e-07
-1.17155e-07
4.49876e-07
-8.34877e-07
-1.16652e-07
4.62489e-07
-8.38401e-07
-1.16118e-07
4.74238e-07
-8.41846e-07
-1.15496e-07
4.85115e-07
-8.45201e-07
-1.14563e-07
4.94993e-07
-8.48459e-07
-1.13528e-07
5.04057e-07
-8.51578e-07
-1.10481e-07
5.09587e-07
-8.55531e-07
-1.11876e-07
5.25269e-07
-8.5624e-07
-1.0338e-07
5.1086e-07
-8.62892e-07
-1.08105e-07
5.47662e-07
-8.60286e-07
-9.18013e-08
4.9955e-07
-8.69531e-07
-9.98248e-08
5.66974e-07
-8.63991e-07
-7.21513e-08
4.74437e-07
-8.7513e-07
-8.26434e-08
5.78788e-07
-8.67507e-07
-3.75579e-08
4.31588e-07
-8.7955e-07
-4.65327e-08
5.76628e-07
-8.7083e-07
2.59016e-08
3.65636e-07
-8.82388e-07
2.65848e-08
5.4399e-07
-8.72542e-07
1.44703e-07
2.80023e-07
-8.84103e-07
1.60883e-07
4.15656e-07
-8.62309e-07
3.41266e-07
1.79979e-07
-8.91334e-07
4.33269e-07
1.07489e-07
-8.23066e-07
6.91167e-07
-2.25335e-07
-8.27017e-07
8.21187e-07
-5.10027e-07
-6.63532e-07
1.10234e-06
-1.66562e-06
-5.96665e-07
2.68283e-06
-3.11112e-06
-2.03843e-07
7.21619e-06
-5.2382e-06
-7.12997e-07
1.56287e-05
-3.04902e-06
-6.03894e-07
2.23139e-05
-6.85085e-07
-4.67328e-07
2.27876e-05
7.37509e-06
1.76506e-06
3.98886e-05
1.09047e-05
-6.77889e-06
4.06866e-05
-3.77831e-07
-1.75881e-06
4.94891e-07
-1.72007e-05
-6.90063e-06
-1.16379e-05
-5.59782e-07
2.48705e-06
-1.8616e-05
-1.15863e-06
8.5125e-07
-2.02038e-05
2.59424e-06
5.06324e-07
-2.11174e-05
2.68613e-06
-2.51535e-07
-2.06657e-05
2.67192e-06
-1.54961e-07
-1.97807e-05
2.20612e-06
-5.93671e-07
-1.87539e-05
2.08183e-06
-5.13729e-07
-1.73881e-05
1.35952e-06
-1.02111e-06
-1.63336e-05
1.29845e-06
-7.17564e-07
-1.50499e-05
7.75947e-07
-1.01835e-06
-1.40785e-05
7.55007e-07
-7.21226e-07
-1.30261e-05
3.73857e-07
-8.59568e-07
-1.20939e-05
4.24736e-07
-7.39673e-07
-1.12304e-05
3.12061e-07
-7.6027e-07
-1.048e-05
4.46133e-07
-6.69437e-07
-9.59729e-06
3.49782e-07
-7.6859e-07
-8.96723e-06
9.17407e-07
-8.23459e-07
-8.54595e-06
1.42446e-06
-1.08433e-06
-8.34667e-06
2.04694e-06
-1.37725e-06
-8.53077e-06
2.60067e-06
-1.45943e-06
-8.68912e-06
2.75135e-06
-1.53207e-06
-8.6064e-06
2.58555e-06
-1.60264e-06
-8.36138e-06
2.51997e-06
-1.51522e-06
-7.902e-06
2.33047e-06
-1.43946e-06
-7.20955e-06
2.2265e-06
-1.3601e-06
-6.40338e-06
2.08369e-06
-1.26841e-06
-5.51531e-06
2.07361e-06
-1.25173e-06
-4.57045e-06
2.19033e-06
-1.31424e-06
-3.57428e-06
2.24361e-06
-1.32854e-06
-2.53993e-06
2.31176e-06
-1.4035e-06
-1.39641e-06
2.22522e-06
-1.48519e-06
-2.87969e-07
2.60329e-06
-1.69217e-06
5.60483e-07
3.35598e-06
-1.82284e-06
7.15981e-07
4.05897e-06
-1.76373e-06
4.94517e-06
-1.25853e-06
-2.8365e-06
8.97957e-07
-9.6593e-07
-1.07965e-06
-4.94043e-06
-1.39871e-06
-1.7341e-06
2.39229e-06
-6.43517e-07
-9.65458e-07
-1.96045e-06
-1.00872e-06
-1.12646e-06
1.75661e-06
-8.50591e-07
-6.80857e-07
-8.46305e-07
-9.82778e-07
-6.95504e-07
1.35193e-06
-9.61447e-07
-4.27777e-07
-1.43154e-07
-1.00177e-06
-4.26666e-07
1.20441e-06
-1.00716e-06
-2.73768e-07
3.84833e-07
-1.031e-06
-2.83039e-07
1.17579e-06
-1.02989e-06
-1.93985e-07
7.67317e-07
-1.05695e-06
-2.05423e-07
1.19438e-06
-1.055e-06
-1.56312e-07
1.03968e-06
-1.079e-06
-1.62097e-07
1.23804e-06
-1.08177e-06
-1.40341e-07
1.2268e-06
-1.10002e-06
-1.38241e-07
1.30513e-06
-1.10902e-06
-1.32953e-07
1.34588e-06
-1.12205e-06
-1.29543e-07
1.38871e-06
-1.13327e-06
-1.27284e-07
1.42801e-06
-1.14455e-06
-1.25981e-07
1.4644e-06
-1.15534e-06
-1.25417e-07
1.49821e-06
-1.16585e-06
-1.2526e-07
1.52989e-06
-1.17646e-06
-1.25435e-07
1.55976e-06
-1.18697e-06
-1.25862e-07
1.58806e-06
-1.19737e-06
-1.26492e-07
1.61496e-06
-1.20766e-06
-1.27252e-07
1.6406e-06
-1.21782e-06
-1.28099e-07
1.66508e-06
-1.22784e-06
-1.29002e-07
1.68848e-06
-1.2377e-06
-1.29934e-07
1.71084e-06
-1.24741e-06
-1.30842e-07
1.73216e-06
-1.257e-06
-1.31643e-07
1.75243e-06
-1.26649e-06
-1.32355e-07
1.77158e-06
-1.27582e-06
-1.33094e-07
1.78958e-06
-1.28489e-06
-1.31623e-07
1.80324e-06
-1.29466e-06
-1.35692e-07
1.83001e-06
-1.30136e-06
-1.28412e-07
1.81863e-06
-1.3138e-06
-1.36822e-07
1.87213e-06
-1.31754e-06
-1.21863e-07
1.81854e-06
-1.33176e-06
-1.34404e-07
1.91071e-06
-1.33361e-06
-1.09102e-07
1.80095e-06
-1.34856e-06
-1.24316e-07
1.9402e-06
-1.3496e-06
-8.40122e-08
1.75976e-06
-1.36427e-06
-9.79897e-08
1.95153e-06
-1.36514e-06
-3.50385e-08
1.68534e-06
-1.37815e-06
-3.9554e-08
1.92339e-06
-1.37867e-06
6.64853e-08
1.5685e-06
-1.39105e-06
7.16121e-08
1.79277e-06
-1.38417e-06
2.55965e-07
1.40395e-06
-1.40671e-06
2.79808e-07
1.4393e-06
-1.35571e-06
4.87146e-07
9.29987e-07
-1.36222e-06
3.63602e-07
7.58939e-07
-1.14334e-06
-2.38006e-08
-1.0887e-07
-1.15867e-06
-2.29045e-07
-2.29875e-06
-5.06042e-07
4.47838e-06
-8.57931e-06
-1.0351e-06
1.32106e-05
-9.16363e-06
-2.69618e-06
2.47226e-05
-4.6089e-06
-6.76286e-06
3.27827e-05
3.91665e-06
-4.71933e-06
4.44378e-05
4.2346e-05
-3.83691e-06
2.59186e-05
1.00864e-05
1.35665e-06
-4.95782e-05
1.33873e-05
1.18818e-05
-6.52399e-05
8.60244e-06
6.19774e-06
-7.50614e-05
6.07709e-06
2.58157e-06
-7.6651e-05
3.02743e-06
1.16792e-06
-7.70204e-05
2.64095e-06
4.24944e-07
-7.69438e-05
2.47744e-06
1.2913e-07
-7.73444e-05
2.58866e-06
-1.42575e-09
-7.76838e-05
2.57239e-06
-1.55109e-07
-7.81856e-05
2.77549e-06
-8.81035e-07
-7.88422e-05
2.99488e-06
-9.55647e-07
-7.98242e-05
2.94302e-06
-1.13169e-06
-8.08201e-05
2.63616e-06
-8.78977e-07
-8.21659e-05
2.19783e-06
-4.68169e-07
-8.32378e-05
1.55859e-06
-1.18737e-07
-8.40701e-05
9.99678e-07
-3.31195e-09
-8.41398e-05
6.15263e-07
-1.81354e-07
-8.32982e-05
4.25685e-07
-8.95817e-07
-8.10442e-05
7.00115e-07
-1.98967e-06
-7.82448e-05
1.57001e-06
-2.92481e-06
-7.56137e-05
2.87361e-06
-3.49208e-06
-7.3663e-05
4.22187e-06
-3.75925e-06
-7.20186e-05
4.67095e-06
-3.88378e-06
-7.01576e-05
4.40565e-06
-4.01417e-06
-6.77434e-05
3.6024e-06
-3.81205e-06
-6.44588e-05
2.4671e-06
-3.7042e-06
-6.03781e-05
1.34568e-06
-3.43722e-06
-5.55717e-05
2.9696e-07
-3.22998e-06
-5.00331e-05
-7.33008e-07
-2.93339e-06
-4.41622e-05
-1.35516e-06
-2.52828e-06
-3.84318e-05
-1.68758e-06
-2.01153e-06
-3.30784e-05
-1.52599e-06
-1.77413e-06
-2.77779e-05
-1.53614e-06
-1.87441e-06
-2.20493e-05
-1.52655e-06
-1.97135e-06
-1.56062e-05
-1.34664e-06
-2.1313e-06
-8.60489e-06
-1.03238e-06
-2.38309e-06
-1.82406e-06
-3.65527e-06
-2.84222e-06
2.30284e-06
1.65291e-06
-1.25782e-06
-5.12177e-06
-1.42141e-06
-1.9622e-06
3.01774e-06
8.86705e-08
-1.12002e-06
-2.18339e-06
-6.26355e-07
-1.15302e-06
2.21432e-06
-4.17101e-07
-6.76054e-07
-7.37295e-07
-5.88915e-07
-6.25051e-07
1.86921e-06
-5.62187e-07
-3.83987e-07
2.4012e-07
-6.25643e-07
-3.58664e-07
1.78595e-06
-6.0234e-07
-2.28996e-07
8.92432e-07
-6.37954e-07
-2.32404e-07