/*--------------------------------*- C++ -*----------------------------------*\
| =========                 |                                                 |
| \\      /  F ield         | OpenFOAM: The Open Source CFD Toolbox           |
|  \\    /   O peration     | Version:  2.3.0                                 |
|   \\  /    A nd           | Web:      www.OpenFOAM.org                      |
|    \\/     M anipulation  |                                                 |
\*---------------------------------------------------------------------------*/
FoamFile
{
    version     2.0;
    format      ascii;
    class       surfaceScalarField;
    location    "2";
    object      phi.air;
}
// * * * * * * * * * * * * * * * * * * * * * * * * * * * * * * * * * * * * * //

dimensions      [0 3 -1 0 0 0 0];

internalField   nonuniform List<scalar> 
16448
(
-2.46904e-06
-9.60649e-07
2.50399e-07
-1.75744e-06
-1.10354e-06
3.91944e-07
-1.46826e-06
-9.03669e-07
6.14498e-07
-1.10696e-06
-1.0246e-06
6.63304e-07
-9.88129e-07
-8.24929e-07
7.06104e-07
-7.98794e-07
-9.0954e-07
7.20209e-07
-7.28081e-07
-7.95657e-07
7.24947e-07
-6.20509e-07
-8.35722e-07
7.28154e-07
-5.6167e-07
-7.85548e-07
7.26715e-07
-4.95188e-07
-7.92738e-07
7.26264e-07
-4.45789e-07
-7.73721e-07
7.24333e-07
-4.00293e-07
-7.68298e-07
7.22811e-07
-3.62063e-07
-7.59442e-07
7.2122e-07
-3.29011e-07
-7.52859e-07
7.19813e-07
-3.00826e-07
-7.46715e-07
7.18537e-07
-2.7686e-07
-7.41361e-07
7.17402e-07
-2.56568e-07
-7.3667e-07
7.1639e-07
-2.3945e-07
-7.32594e-07
7.15486e-07
-2.25039e-07
-7.29074e-07
7.14677e-07
-2.12929e-07
-7.26051e-07
7.13951e-07
-2.02754e-07
-7.2346e-07
7.13297e-07
-1.94199e-07
-7.2125e-07
7.12704e-07
-1.86978e-07
-7.1937e-07
7.1216e-07
-1.80848e-07
-7.17778e-07
7.11657e-07
-1.75595e-07
-7.16436e-07
7.11193e-07
-1.71036e-07
-7.15311e-07
7.1076e-07
-1.67009e-07
-7.14375e-07
7.10356e-07
-1.63373e-07
-7.13606e-07
7.09977e-07
-1.59996e-07
-7.12991e-07
7.09618e-07
-1.56755e-07
-7.12509e-07
7.09273e-07
-1.53533e-07
-7.12155e-07
7.08937e-07
-1.50227e-07
-7.11915e-07
7.08613e-07
-1.46746e-07
-7.11741e-07
7.08262e-07
-1.43721e-07
-7.11239e-07
7.08215e-07
-1.36285e-07
-7.14032e-07
7.06596e-07
-1.3642e-07
-7.08735e-07
7.0887e-07
-1.24196e-07
-7.17415e-07
7.0519e-07
-1.25714e-07
-7.07308e-07
7.08824e-07
-1.10131e-07
-7.2032e-07
7.04734e-07
-1.10922e-07
-7.07663e-07
7.08451e-07
-9.36012e-08
-7.22296e-07
7.0497e-07
-9.17016e-08
-7.10418e-07
7.08514e-07
-7.72908e-08
-7.18715e-07
7.04298e-07
-7.01435e-08
-7.16953e-07
7.098e-07
-6.71211e-08
-7.05054e-07
7.02024e-07
-5.48972e-08
-7.23049e-07
7.10817e-07
-7.46975e-08
-6.74124e-07
6.93916e-07
-6.90057e-08
-7.15163e-07
7.09463e-07
-1.43461e-07
-5.98243e-07
6.72688e-07
-1.66729e-07
-6.69135e-07
6.92394e-07
-4.65829e-07
-3.20156e-07
6.19246e-07
-5.709e-07
-5.29812e-07
6.34874e-07
-1.72262e-06
4.49163e-07
7.02548e-07
-2.4008e-06
5.93564e-09
6.72231e-07
-8.10765e-06
3.28098e-06
2.42584e-06
-8.42091e-06
-2.15042e-07
5.28284e-07
-1.31898e-05
3.06488e-06
1.70385e-06
-1.14223e-05
2.06695e-06
-3.83467e-06
-8.00109e-06
-2.86234e-06
-8.38024e-07
-3.22517e-05
1.93762e-06
-9.09878e-06
-6.75506e-05
-1.97772e-05
1.13586e-05
-2.00239e-05
-4.74854e-06
1.49997e-05
2.22269e-05
-3.38858e-06
9.38124e-06
2.2808e-05
-6.21455e-06
5.31563e-06
2.11334e-05
-2.37132e-06
3.96022e-06
1.61619e-05
7.33647e-07
4.25564e-06
1.05053e-05
1.73873e-06
3.87468e-06
6.36654e-06
1.79749e-06
2.33164e-06
4.50924e-06
7.66199e-07
1.10468e-06
3.97647e-06
-7.19372e-08
5.96916e-07
3.90373e-06
-5.75198e-07
6.46462e-07
3.8679e-06
-7.92221e-07
8.24599e-07
3.7804e-06
-8.96872e-07
9.83617e-07
3.63991e-06
-9.29347e-07
1.06699e-06
3.46975e-06
-9.68169e-07
1.1342e-06
3.28644e-06
-9.85045e-07
1.16343e-06
3.10431e-06
-9.99935e-07
1.17945e-06
2.90851e-06
-9.96005e-07
1.18693e-06
2.70807e-06
-9.94196e-07
1.19172e-06
2.50879e-06
-9.97149e-07
1.1945e-06
2.30135e-06
-9.92597e-07
1.195e-06
2.09121e-06
-9.88311e-07
1.1949e-06
1.87872e-06
-9.83854e-07
1.19356e-06
1.66145e-06
-9.76845e-07
1.19079e-06
1.43905e-06
-9.67813e-07
1.18691e-06
1.2103e-06
-9.56447e-07
1.18236e-06
9.74566e-07
-9.43808e-07
1.17692e-06
7.3104e-07
-9.2926e-07
1.1702e-06
4.78321e-07
-9.11689e-07
1.16278e-06
2.22283e-07
-8.91133e-07
1.15411e-06
-1.18972e-08
-8.68383e-07
1.14474e-06
-1.86967e-07
-8.44002e-07
1.13537e-06
-3.24498e-07
-8.21001e-07
1.1267e-06
-5.64249e-07
-7.95869e-07
1.11898e-06
-9.08782e-07
-7.75713e-07
1.11341e-06
-7.56187e-07
1.10698e-06
-2.85332e-06
-1.56549e-06
-2.91348e-07
-1.89243e-06
-1.93038e-06
-1.34047e-07
-1.63227e-06
-1.3683e-06
2.04478e-07
-1.20123e-06
-1.70341e-06
2.47768e-07
-1.12169e-06
-1.22424e-06
3.19764e-07
-8.91116e-07
-1.47471e-06
3.34593e-07
-8.41675e-07
-1.19149e-06
3.46383e-07
-7.05097e-07
-1.32503e-06
3.52725e-07
-6.54678e-07
-1.18907e-06
3.53107e-07
-5.71711e-07
-1.23141e-06
3.55709e-07
-5.21866e-07
-1.17849e-06
3.54932e-07
-4.68917e-07
-1.17688e-06
3.55637e-07
-4.27254e-07
-1.15618e-06
3.55077e-07
-3.90449e-07
-1.14459e-06
3.5493e-07
-3.59406e-07
-1.13236e-06
3.54604e-07
-3.33083e-07
-1.12198e-06
3.54309e-07
-3.10901e-07
-1.11286e-06
3.54015e-07
-2.92273e-07
-1.10494e-06
3.53731e-07
-2.76674e-07
-1.09812e-06
3.53458e-07
-2.63637e-07
-1.09227e-06
3.53199e-07
-2.52745e-07
-1.08729e-06
3.52951e-07
-2.43636e-07
-1.08306e-06
3.52714e-07
-2.35998e-07
-1.07949e-06
3.52488e-07
-2.29571e-07
-1.07647e-06
3.52275e-07
-2.24126e-07
-1.07395e-06
3.52073e-07
-2.19458e-07
-1.07185e-06
3.51877e-07
-2.15383e-07
-1.07013e-06
3.51683e-07
-2.11745e-07
-1.06873e-06
3.51486e-07
-2.08401e-07
-1.06762e-06
3.51285e-07
-2.05215e-07
-1.06678e-06
3.51084e-07
-2.02061e-07
-1.06619e-06
3.5088e-07
-1.98822e-07
-1.06584e-06
3.50684e-07
-1.95426e-07
-1.06562e-06
3.50476e-07
-1.91698e-07
-1.06549e-06
3.50518e-07
-1.86857e-07
-1.06772e-06
3.48839e-07
-1.83496e-07
-1.06379e-06
3.51684e-07
-1.75346e-07
-1.07255e-06
3.46975e-07
-1.72578e-07
-1.06257e-06
3.52484e-07
-1.60542e-07
-1.07784e-06
3.45468e-07
-1.57417e-07
-1.06359e-06
3.52791e-07
-1.42707e-07
-1.08089e-06
3.43866e-07
-1.37379e-07
-1.06834e-06
3.52577e-07
-1.22892e-07
-1.0755e-06
3.42281e-07
-1.13711e-07
-1.07803e-06
3.51871e-07
-1.06832e-07
-1.05133e-06
3.39376e-07
-9.52525e-08
-1.08688e-06
3.52225e-07
-1.03772e-07
-9.96311e-07
3.30682e-07
-1.14686e-07
-1.05966e-06
3.55381e-07
-1.18989e-07
-8.91444e-07
2.97479e-07
-2.21946e-07
-9.29784e-07
3.6358e-07
-1.81057e-07
-5.54647e-07
1.93576e-07
-4.61914e-07
-6.23174e-07
3.74192e-07
-2.70887e-07
2.78603e-07
-2.04941e-08
-8.38996e-07
8.24896e-08
4.91526e-07
7.72387e-07
2.76598e-06
-1.09641e-06
6.87035e-07
8.12591e-07
-9.42312e-07
2.8623e-06
6.47784e-06
-5.58849e-06
9.95191e-06
8.79018e-07
-5.9019e-06
-6.64399e-06
1.5856e-06
1.20043e-05
-2.97823e-05
-5.03505e-07
-3.82007e-06
-7.52718e-05
-3.32541e-05
9.88933e-07
-5.55714e-05
-1.08543e-05
9.83789e-06
-8.51223e-06
-5.07304e-06
2.54106e-06
2.16337e-05
-8.5683e-06
-9.55994e-08
1.97602e-05
-1.77802e-07
-2.66277e-07
1.30056e-05
5.4748e-06
1.93193e-06
7.04831e-06
5.49347e-06
2.2035e-06
5.2135e-06
3.8953e-06
-2.45292e-07
5.22277e-06
1.88236e-06
-1.11169e-06
5.19693e-06
7.38847e-07
-7.81529e-07
4.89228e-06
-4.72674e-08
-2.23217e-07
4.5028e-06
-5.18486e-07
1.16172e-07
4.20253e-06
-8.38035e-07
2.47612e-07
3.95827e-06
-9.9392e-07
3.09109e-07
3.76266e-06
-1.12729e-06
3.56157e-07
3.56645e-06
-1.17857e-06
3.88096e-07
3.3771e-06
-1.2223e-06
4.12797e-07
3.17416e-06
-1.2243e-06
4.29315e-07
2.96163e-06
-1.2254e-06
4.43669e-07
2.74736e-06
-1.23372e-06
4.51761e-07
2.52657e-06
-1.23167e-06
4.56882e-07
2.30263e-06
-1.22706e-06
4.60783e-07
2.07481e-06
-1.21959e-06
4.61517e-07
1.83918e-06
-1.20345e-06
4.58824e-07
1.5974e-06
-1.18576e-06
4.5603e-07
1.34913e-06
-1.16479e-06
4.53347e-07
1.09392e-06
-1.14283e-06
4.51605e-07
8.31565e-07
-1.11998e-06
4.51578e-07
5.60305e-07
-1.09175e-06
4.52228e-07
2.84396e-07
-1.05633e-06
4.52422e-07
3.17575e-08
-1.01722e-06
4.52679e-07
-1.5454e-07
-9.74396e-07
4.53054e-07
-3.05252e-07
-9.28402e-07
4.52606e-07
-5.79958e-07
-8.74124e-07
4.5338e-07
-9.75784e-07
-8.32898e-07
4.54714e-07
-7.94575e-07
4.58158e-07
-2.98705e-06
-1.8827e-06
-6.66527e-07
-1.75559e-06
-2.56461e-06
-5.97227e-07
-1.60359e-06
-1.45781e-06
-6.24835e-08
-1.09828e-06
-2.15502e-06
-5.36986e-08
-1.10003e-06
-1.28494e-06
6.24505e-08
-8.3297e-07
-1.8049e-06
6.31204e-08
-8.34156e-07
-1.27815e-06
8.7846e-08
-6.72766e-07
-1.57469e-06
8.82711e-08
-6.524e-07
-1.30265e-06
9.3215e-08
-5.52761e-07
-1.42441e-06
9.33677e-08
-5.17727e-07
-1.30778e-06
9.42665e-08
-4.59223e-07
-1.32942e-06
9.4043e-08
-4.22138e-07
-1.2874e-06
9.41503e-08
-3.85967e-07
-1.27456e-06
9.38086e-08
-3.56539e-07
-1.25522e-06
9.34521e-08
-3.31525e-07
-1.23998e-06
9.29953e-08
-3.1057e-07
-1.22629e-06
9.24971e-08
-2.93073e-07
-1.21438e-06
9.19575e-08
-2.78509e-07
-1.20406e-06
9.13885e-08
-2.66411e-07
-1.19516e-06
9.07961e-08
-2.56376e-07
-1.1875e-06
9.01874e-08
-2.48052e-07
-1.18094e-06
8.9567e-08
-2.41139e-07
-1.17533e-06
8.89388e-08
-2.35377e-07
-1.17053e-06
8.83044e-08
-2.30538e-07
-1.16644e-06
8.76631e-08
-2.26422e-07
-1.16298e-06
8.70165e-08
-2.2286e-07
-1.16005e-06
8.63677e-08
-2.19699e-07
-1.15761e-06
8.57203e-08
-2.16801e-07
-1.15559e-06
8.50766e-08
-2.14044e-07
-1.15397e-06
8.4439e-08
-2.11307e-07
-1.15274e-06
8.38082e-08
-2.08469e-07
-1.15188e-06
8.31965e-08
-2.05434e-07
-1.15127e-06
8.26179e-08
-2.0215e-07
-1.151e-06
8.22188e-08
-1.97428e-07
-1.15292e-06
8.04735e-08
-1.94673e-07
-1.14898e-06
8.24289e-08
-1.86331e-07
-1.15887e-06
7.7968e-08
-1.84297e-07
-1.14712e-06
8.25061e-08
-1.7121e-07
-1.16681e-06
7.58729e-08
-1.69329e-07
-1.14769e-06
8.22054e-08
-1.51032e-07
-1.17331e-06
7.4111e-08
-1.4802e-07
-1.15297e-06
8.15986e-08
-1.24376e-07
-1.17129e-06
7.21226e-08
-1.19057e-07
-1.16459e-06
8.12241e-08
-9.0803e-08
-1.14841e-06
6.88024e-08
-8.57864e-08
-1.17419e-06
8.22717e-08
-4.53464e-08
-1.09783e-06
6.10561e-08
-7.79914e-08
-1.1162e-06
8.91645e-08
5.07328e-09
-1.00752e-06
3.29911e-08
-1.68609e-07
-8.73981e-07
1.17858e-07
5.24645e-08
-6.81934e-07
-9.38093e-08
-4.48158e-07
-2.99833e-07
1.77259e-07
-1.13274e-08
2.43047e-07
-4.01297e-07
-1.31617e-06
1.09804e-06
2.89269e-07
4.07145e-07
1.59526e-06
-5.52626e-07
-3.75778e-07
-5.68332e-08
1.65233e-06
3.47044e-06
3.62522e-06
-9.93748e-07
1.35417e-05
-5.80233e-06
-3.38985e-06
-6.65905e-06
9.84933e-06
1.1734e-05
-3.03258e-05
-8.81133e-06
1.19655e-06
-8.00251e-05
-3.71518e-05
-3.73612e-06
-3.77178e-05
-1.3528e-05
-1.37149e-06
5.17575e-06
-1.37536e-05
1.88093e-06
4.55973e-06
-3.93735e-06
-4.21757e-06
5.59998e-06
2.28614e-06
-3.32857e-06
4.86709e-06
5.36686e-06
7.18395e-07
3.80934e-06
5.98619e-06
5.89333e-07
4.45106e-06
4.14862e-06
-8.67125e-07
5.11803e-06
2.65826e-06
-1.41752e-06
5.23927e-06
1.48358e-06
-8.55743e-07
4.91355e-06
6.63558e-07
-3.78816e-07
4.52643e-06
7.35914e-08
-2.04025e-07
4.27967e-06
-4.18653e-07
-1.64615e-07
4.10276e-06
-6.84234e-07
-1.34052e-07
3.96133e-06
-8.856e-07
-9.88836e-08
3.79916e-06
-9.48607e-07
-7.01537e-08
3.62342e-06
-1.00056e-06
-4.55709e-08
3.41766e-06
-9.91175e-07
-2.92302e-08
3.19477e-06
-9.88749e-07
-1.35532e-08
2.96796e-06
-9.99885e-07
-4.15282e-09
2.73733e-06
-1.00517e-06
3.36129e-09
2.49681e-06
-9.97911e-07
1.23704e-08
2.25672e-06
-9.95778e-07
1.78648e-08
2.01295e-06
-9.75456e-07
1.67918e-08
1.76106e-06
-9.49861e-07
1.62349e-08
1.49634e-06
-9.1519e-07
1.40852e-08
1.21991e-06
-8.82771e-07
1.33487e-08
9.30376e-07
-8.49776e-07
1.45071e-08
6.23599e-07
-8.08028e-07
1.80389e-08
3.0824e-07
-7.64207e-07
2.49647e-08
1.61018e-08
-7.20613e-07
3.43806e-08
-1.9919e-07
-6.69972e-07
4.50908e-08
-3.56273e-07
-6.14603e-07
5.69035e-08
-6.45625e-07
-5.44672e-07
7.15215e-08
-1.06954e-06
-5.04345e-07
8.90429e-08
-4.57723e-07
1.08669e-07
-3.12483e-06
-1.98179e-06
-8.7105e-07
-1.55956e-06
-3.16926e-06
-9.60608e-07
-1.5334e-06
-1.28373e-06
-2.00237e-07
-9.6381e-07
-2.47333e-06
-2.5129e-07
-1.05921e-06
-1.11824e-06
-7.13066e-08
-7.64822e-07
-2.00313e-06
-9.61783e-08
-8.16803e-07
-1.17355e-06
-5.26364e-08
-6.31735e-07
-1.69951e-06
-6.02545e-08
-6.42354e-07
-1.2409e-06
-5.11256e-08
-5.24082e-07
-1.49018e-06
-5.24903e-08
-5.09816e-07
-1.27029e-06
-5.17424e-08
-4.39967e-07
-1.34711e-06
-5.21444e-08
-4.12788e-07
-1.26182e-06
-5.27559e-08
-3.75245e-07
-1.25858e-06
-5.35089e-08
-3.48642e-07
-1.22745e-06
-5.43629e-08
-3.25402e-07
-1.20783e-06
-5.53742e-08
-3.06232e-07
-1.18901e-06
-5.64453e-08
-2.90384e-07
-1.17262e-06
-5.75951e-08
-2.7733e-07
-1.1583e-06
-5.88001e-08
-2.66597e-07
-1.14583e-06
-6.00455e-08
-2.5779e-07
-1.13497e-06
-6.13219e-08
-2.50569e-07
-1.12553e-06
-6.26184e-08
-2.44645e-07
-1.11731e-06
-6.39288e-08
-2.39769e-07
-1.11014e-06
-6.52478e-08
-2.35729e-07
-1.1039e-06
-6.65731e-08
-2.32342e-07
-1.09845e-06
-6.79012e-08
-2.29456e-07
-1.0937e-06
-6.92325e-08
-2.26933e-07
-1.08956e-06
-7.05635e-08
-2.24643e-07
-1.08598e-06
-7.18934e-08
-2.22469e-07
-1.08292e-06
-7.3222e-08
-2.2029e-07
-1.08037e-06
-7.45457e-08
-2.18005e-07
-1.0783e-06
-7.58616e-08
-2.15499e-07
-1.07661e-06
-7.71676e-08
-2.12776e-07
-1.0754e-06
-7.83239e-08
-2.08436e-07
-1.07657e-06
-8.06911e-08
-2.06514e-07
-1.07144e-06
-7.94759e-08
-1.98045e-07
-1.0827e-06
-8.4642e-08
-1.97227e-07
-1.06727e-06
-8.06759e-08
-1.82843e-07
-1.09306e-06
-8.8142e-08
-1.82887e-07
-1.06553e-06
-8.21334e-08
-1.60562e-07
-1.10444e-06
-9.12039e-08
-1.60619e-07
-1.06912e-06
-8.38117e-08
-1.26483e-07
-1.111e-06
-9.44369e-08
-1.25934e-07
-1.08012e-06
-8.50386e-08
-7.40037e-08
-1.10198e-06
-9.83744e-08
-7.32104e-08
-1.0905e-06
-8.44944e-08
3.57905e-09
-1.07142e-06
-1.03222e-07
-1.32919e-08
-1.02407e-06
-7.52753e-08
1.35394e-07
-1.02113e-06
-1.351e-07
3.85245e-08
-7.44054e-07
-3.3078e-08
3.84846e-07
-7.81119e-07
-2.47154e-07
3.13751e-08
-1.75869e-08
7.12044e-08
6.189e-07
1.27032e-07
-4.71528e-07
-8.19101e-07
2.212e-06
3.24017e-07
1.54792e-06
2.56145e-07
-1.02794e-06
3.836e-06
-2.48516e-06
1.40217e-07
1.11446e-05
-1.38004e-06
-2.30353e-06
2.04701e-05
-1.35621e-05
-1.56541e-06
-5.50773e-06
1.92344e-05
1.61137e-05
-3.35264e-05
-1.61605e-05
3.64937e-07
-8.76717e-05
-3.73363e-05
-3.03637e-06
-4.30798e-05
-1.35742e-05
-1.57228e-06
2.36551e-06
-1.17815e-05
4.10289e-06
-3.37235e-06
1.69304e-06
2.73047e-06
-3.8394e-06
2.1709e-06
9.37144e-07
-4.01492e-06
3.35531e-06
1.27628e-06
-9.42055e-07
2.80636e-06
-3.79575e-07
7.91791e-07
3.03458e-06
-1.04548e-06
2.33108e-06
1.95402e-06
-1.26713e-06
3.24083e-06
1.45401e-06
-9.95407e-07
3.71084e-06
7.89204e-07
-4.97535e-07
3.97111e-06
3.93233e-07
-3.52203e-07
4.08447e-06
5.8052e-08
-5.10636e-07
4.11539e-06
-1.77656e-07
-4.28452e-07
4.08598e-06
-4.62026e-07
-3.91976e-07
3.98581e-06
-4.91202e-07
-3.6174e-07
3.83081e-06
-5.11113e-07
-3.38687e-07
3.62132e-06
-4.65984e-07
-3.18341e-07
3.39096e-06
-4.51796e-07
-3.04919e-07
3.14542e-06
-4.52905e-07
-2.95897e-07
2.89926e-06
-4.72361e-07
-2.85015e-07
2.64689e-06
-4.70835e-07
-2.70866e-07
2.40343e-06
-4.86609e-07
-2.60793e-07
2.16377e-06
-4.74225e-07
-2.5719e-07
1.91375e-06
-4.46775e-07
-2.48246e-07
1.65645e-06
-4.03752e-07
-2.48863e-07
1.38926e-06
-3.5507e-07
-2.5405e-07
1.10762e-06
-2.97089e-07
-2.63895e-07
8.00809e-07
-2.19682e-07
-2.73989e-07
4.79191e-07
-1.45295e-07
-2.84074e-07
1.74267e-07
-7.79278e-08
-2.89326e-07
-4.22525e-08
-1.32904e-08
-2.91594e-07
-1.94446e-07
6.67308e-08
-2.86533e-07
-5.23062e-07
1.91946e-07
-2.73364e-07
-1.03396e-06
2.69457e-07
-2.63177e-07
3.98474e-07
-2.38536e-07
-3.127e-06
-1.89805e-06
-1.05371e-06
-1.30021e-06
-3.73961e-06
-1.25644e-06
-1.44619e-06
-8.43478e-07
-2.94269e-07
-8.48037e-07
-2.62682e-06
-4.44688e-07
-1.02857e-06
-7.53837e-07
-1.8389e-07
-7.14401e-07
-2.05418e-06
-2.63145e-07
-8.0258e-07
-9.04066e-07
-1.81311e-07
-5.96462e-07
-1.68981e-06
-2.15822e-07
-6.28734e-07
-1.02072e-06
-1.87894e-07
-4.93297e-07
-1.42493e-06
-2.00675e-07
-4.97134e-07
-1.07379e-06
-1.92647e-07
-4.14944e-07
-1.23242e-06
-1.96865e-07
-4.02318e-07
-1.07863e-06
-1.9579e-07
-3.59497e-07
-1.1033e-06
-1.98092e-07
-3.38543e-07
-1.04947e-06
-1.9892e-07
-3.17093e-07
-1.02875e-06
-2.00519e-07
-3.0024e-07
-1.00382e-06
-2.02019e-07
-2.86502e-07
-9.82598e-07
-2.03742e-07
-2.75364e-07
-9.63829e-07
-2.05588e-07
-2.66349e-07
-9.47286e-07
-2.07542e-07
-2.59068e-07
-9.32662e-07
-2.09576e-07
-2.53205e-07
-9.19705e-07
-2.11673e-07
-2.48483e-07
-9.082e-07
-2.13817e-07
-2.44674e-07
-8.97946e-07
-2.15994e-07
-2.41592e-07
-8.88772e-07
-2.18197e-07
-2.39081e-07
-8.80535e-07
-2.20418e-07
-2.36997e-07
-8.73119e-07
-2.22654e-07
-2.35219e-07
-8.66432e-07
-2.24898e-07
-2.3364e-07
-8.6041e-07
-2.27145e-07
-2.32153e-07
-8.55016e-07
-2.29391e-07
-2.30658e-07
-8.5023e-07
-2.31633e-07
-2.29058e-07
-8.46035e-07
-2.33865e-07
-2.27217e-07
-8.42391e-07
-2.36063e-07
-2.25179e-07
-8.39315e-07
-2.38123e-07
-2.21483e-07
-8.38959e-07
-2.41314e-07
-2.20418e-07
-8.31422e-07
-2.4108e-07
-2.12236e-07
-8.43799e-07
-2.47092e-07
-2.12688e-07
-8.22901e-07
-2.43925e-07
-1.97695e-07
-8.55591e-07
-2.52472e-07
-1.99658e-07
-8.1673e-07
-2.46844e-07
-1.74476e-07
-8.72465e-07
-2.57171e-07
-1.77367e-07
-8.16348e-07
-2.49886e-07
-1.3504e-07
-8.91094e-07
-2.62249e-07
-1.38139e-07
-8.24625e-07
-2.52404e-07
-6.69639e-08
-9.05876e-07
-2.67295e-07
-6.3731e-08
-8.39999e-07
-2.5375e-07
4.39501e-08
-9.07246e-07
-2.71867e-07
1.00928e-07
-8.34062e-07
-2.47e-07
2.74571e-07
-9.02996e-07
-2.91789e-07
4.61031e-07
-7.47873e-07
-1.82652e-07
8.39834e-07
-8.42874e-07
-3.17061e-07
1.25146e-06
-4.50321e-07
2.10993e-08
2.44034e-06
-7.88522e-07
-2.7334e-07
2.95449e-06
1.15526e-06
5.42573e-07
5.45048e-06
-1.23076e-06
-1.00913e-06
3.07717e-06
2.37953e-07
-3.4981e-07
1.25517e-05
-7.07149e-06
-3.78319e-06
2.26358e-06
-4.33116e-06
1.0576e-06
-2.48294e-06
7.86623e-06
1.48305e-05
-4.24572e-05
-1.57846e-05
-4.61066e-06
-0.000115712
-3.22762e-05
-3.55721e-06
-0.000115528
-1.16103e-05
4.17058e-06
-0.000118257
-6.94427e-06
1.60674e-06
-0.000120771
1.72835e-06
1.92347e-06
-0.000119085
1.51423e-06
-1.40182e-07
-0.000117969
2.71074e-06
-1.93083e-07
-0.000115529
2.23019e-06
-8.06148e-07
-0.000114016
2.56018e-06
-1.01518e-06
-0.000112332
1.65354e-06
-1.00413e-06
-0.000109845
1.48468e-06
-7.84759e-07
-0.000105486
9.25842e-07
-6.5814e-07
-0.000100494
6.89092e-07
-5.45162e-07
-9.14525e-05
4.72641e-07
-4.99501e-07
-4.09413e-05
3.45272e-07
-4.28735e-07
3.29116e-06
3.44139e-07
-5.56156e-07
3.23483e-06
3.34101e-07
-5.37941e-07
3.17e-06
3.37629e-07
-5.45283e-07
3.09676e-06
4.22907e-07
-5.17053e-07
3.12243e-06
4.42327e-07
-5.10907e-07
3.05449e-06
4.97734e-07
-4.83984e-07
2.91321e-06
5.1969e-07
-4.63345e-07
2.72376e-06
5.51136e-07
-4.47386e-07
2.56438e-06
5.17119e-07
-4.35395e-07
2.33559e-06
5.86987e-07
-4.46319e-07
2.07793e-06
5.53146e-07
-5.52339e-07
1.73527e-06
5.91585e-07
-5.29473e-07
1.39931e-06
5.12759e-07
-4.8813e-07
1.07891e-06
5.2946e-07
-4.73934e-07
7.45429e-07
5.13898e-07
-4.13033e-07
3.95829e-07
5.9444e-07
-3.91137e-07
5.68481e-08
6.85843e-07
-3.85266e-07
-1.63427e-07
7.32043e-07
-3.79962e-07
-3.16473e-07
8.52986e-07
-3.81121e-07
-6.69992e-07
1.0796e-06
-3.90997e-07
-1.16678e-06
1.15043e-06
-3.93434e-07
1.34149e-06
-3.44912e-07
-2.94537e-06
-1.51176e-06
-1.18188e-06
-1.0456e-06
-4.22659e-06
-1.41278e-06
-1.40353e-06
-5.82645e-08
-4.27298e-07
-7.96008e-07
-2.54069e-06
-6.93666e-07
-1.03492e-06
-1.54757e-07
-3.60199e-07
-6.96156e-07
-1.87046e-06
-5.22488e-07
-7.9647e-07
-4.21669e-07
-3.82093e-07
-5.69161e-07
-1.45069e-06
-4.66409e-07
-6.09502e-07
-5.79102e-07
-4.0127e-07
-4.60034e-07
-1.13292e-06
-4.4145e-07
-4.74898e-07
-6.44408e-07
-4.14505e-07
-3.83336e-07
-8.93065e-07
-4.30893e-07
-3.83603e-07
-6.554e-07
-4.2295e-07
-3.34479e-07
-7.23332e-07
-4.29065e-07
-3.23764e-07
-6.31136e-07
-4.29028e-07
-3.03009e-07
-6.17191e-07
-4.32289e-07
-2.89605e-07
-5.82433e-07
-4.34772e-07
-2.78691e-07
-5.55717e-07
-4.37772e-07
-2.70063e-07
-5.31531e-07
-4.40907e-07
-2.63246e-07
-5.09891e-07
-4.4419e-07
-2.57918e-07
-4.90385e-07
-4.47587e-07
-2.53785e-07
-4.7275e-07
-4.51069e-07
-2.50583e-07
-4.5677e-07
-4.54614e-07
-2.48115e-07
-4.42198e-07
-4.58199e-07
-2.46233e-07
-4.28832e-07
-4.61806e-07
-2.44806e-07
-4.16512e-07
-4.65434e-07
-2.43715e-07
-4.0511e-07
-4.69085e-07
-2.4286e-07
-3.94539e-07
-4.72737e-07
-2.42151e-07
-3.8474e-07
-4.76366e-07
-2.41502e-07
-3.75676e-07
-4.7998e-07
-2.40819e-07
-3.6733e-07
-4.83573e-07
-2.39996e-07
-3.59714e-07
-4.87137e-07
-2.38967e-07
-3.52805e-07
-4.90608e-07
-2.37767e-07
-3.46585e-07
-4.93926e-07
-2.34897e-07
-3.43561e-07
-4.98261e-07
-2.35043e-07
-3.319e-07
-4.99375e-07
-2.2745e-07
-3.44961e-07
-5.06426e-07
-2.29733e-07
-3.16112e-07
-5.04506e-07
-2.14914e-07
-3.561e-07
-5.14306e-07
-2.19247e-07
-3.02886e-07
-5.09512e-07
-1.9324e-07
-3.76617e-07
-5.21852e-07
-1.99033e-07
-2.96073e-07
-5.14485e-07
-1.54148e-07
-4.07285e-07
-5.28694e-07
-1.59419e-07
-3.00057e-07
-5.193e-07
-8.18127e-08
-4.48748e-07
-5.34734e-07
-7.31397e-08
-3.25714e-07
-5.22962e-07
4.84176e-08
-4.89076e-07
-5.39726e-07
1.67815e-07
-4.31164e-07
-5.22297e-07
3.55467e-07
-5.33524e-07
-5.57122e-07
7.16481e-07
-6.24684e-07
-4.84202e-07
1.24082e-06
-7.96488e-07
-5.70722e-07
2.20013e-06
-1.04737e-06
-3.62253e-07
3.84478e-06
-1.97905e-06
-4.5412e-07
7.0114e-06
-1.77861e-06
-2.32761e-07
7.94321e-06
-1.67074e-06
-4.91853e-07
2.4122e-06
4.8586e-06
9.10345e-07
-1.14744e-05
4.82706e-06
1.9881e-06
-2.36366e-05
9.6221e-06
-1.79108e-06
1.33297e-06
-9.88342e-06
-9.79587e-06
-4.95736e-05
-1.26373e-05
-2.14971e-06
-0.000122436
-2.52827e-05
-7.39907e-06
-0.000125797
-6.64181e-06
3.17976e-06
-0.000130615
-3.47102e-06
3.70635e-07
-0.000132205
1.66309e-06
8.18816e-07
-0.000131858
2.09697e-06
-2.20703e-07
-0.00013156
2.84866e-06
7.99546e-08
-0.000130825
2.48163e-06
-4.38127e-07
-0.000129969
2.35798e-06
-6.29102e-07
-0.000129108
1.66047e-06
-8.98621e-07
-0.000128431
1.48813e-06
-6.21802e-07
-0.000127616
1.03835e-06
-7.18716e-07
-0.000127325
9.6593e-07
-5.62074e-07
-0.000127214
7.61968e-07
-5.86511e-07
-0.000126876
8.71071e-07
-5.55665e-07
-0.00012693
8.87381e-07
-5.17077e-07
-0.000127214
1.01303e-06
-5.00123e-07
-0.000127092
1.10763e-06
-5.20773e-07
-0.000127124
1.24137e-06
-5.29899e-07
-0.000127251
1.30495e-06
-5.89252e-07
-0.000127525
1.46388e-06
-6.35897e-07
-0.000127618
1.63682e-06
-6.8994e-07
-0.000127438
1.76904e-06
-7.35752e-07
-0.000127337
1.83463e-06
-7.7933e-07
-0.000127112
1.95874e-06
-7.84257e-07
-0.000125834
1.96997e-06
-7.79856e-07
-0.000120386
2.0483e-06
-7.60563e-07
-0.000100197
2.0009e-06
-7.9715e-07
-4.19536e-05
2.02766e-06
-8.08042e-07
6.31468e-07
2.49577e-06
-1.03879e-06
6.77468e-07
2.46739e-06
-9.59438e-07
5.95327e-07
2.44137e-06
-8.86481e-07
4.45972e-07
2.48031e-06
-8.25593e-07
1.70997e-07
2.72473e-06
-9.04997e-07
-2.99507e-07
3.07203e-06
-8.40837e-07
-8.47903e-07
3.10502e-06
-7.6502e-07
3.74285e-06
-5.75091e-07
-2.8232e-06
-5.73776e-07
-1.39743e-06
-9.33533e-07
-4.57353e-06
-1.54273e-06
-1.47603e-06
1.08983e-06
-6.0561e-07
-8.48777e-07
-2.19283e-06
-9.75143e-07
-1.08968e-06
7.41588e-07
-6.55454e-07
-7.20303e-07
-1.37859e-06
-8.61259e-07
-7.98315e-07
3.73036e-07
-7.16683e-07
-5.56495e-07
-8.74173e-07
-8.18333e-07
-5.86495e-07
1.96402e-07
-7.4548e-07
-4.313e-07
-4.91134e-07
-7.9697e-07
-4.49067e-07
1.35313e-07
-7.61925e-07
-3.55421e-07
-1.99116e-07
-7.87576e-07
-3.64732e-07
1.2706e-07
-7.7312e-07
-3.13358e-07
1.06431e-08
-7.85329e-07
-3.12528e-07
1.49993e-07
-7.81931e-07
-2.90844e-07
1.48863e-07
-7.87717e-07
-2.81761e-07
1.98049e-07
-7.89538e-07
-2.73499e-07
2.29122e-07
-7.93079e-07
-2.67256e-07
2.58808e-07
-7.96556e-07
-2.62543e-07
2.85708e-07
-8.0029e-07
-2.59057e-07
3.10345e-07
-8.0419e-07
-2.56566e-07
3.32926e-07
-8.08143e-07
-2.54842e-07
3.53594e-07
-8.12064e-07
-2.537e-07
3.72647e-07
-8.15965e-07
-2.52993e-07
3.90307e-07
-8.19825e-07
-2.52613e-07
4.06742e-07
-8.23613e-07
-2.52514e-07
4.221e-07
-8.27289e-07
-2.52644e-07
4.3649e-07
-8.30879e-07
-2.52888e-07
4.4998e-07
-8.34459e-07
-2.53168e-07
4.62607e-07
-8.37985e-07
-2.53419e-07
4.74368e-07
-8.41432e-07
-2.53583e-07
4.85255e-07
-8.44788e-07
-2.53465e-07
4.95138e-07
-8.48048e-07
-2.53071e-07
5.04204e-07
-8.51167e-07
-2.51227e-07
5.0973e-07
-8.55124e-07
-2.52692e-07
5.25409e-07
-8.55828e-07
-2.46134e-07
5.10979e-07
-8.62487e-07
-2.50127e-07
5.47769e-07
-8.59873e-07
-2.36702e-07
4.99611e-07
-8.69125e-07
-2.43013e-07
5.67016e-07
-8.63576e-07
-2.19293e-07
4.74396e-07
-8.74722e-07
-2.26989e-07
5.78724e-07
-8.67087e-07
-1.86511e-07
4.31384e-07
-8.79137e-07
-1.92535e-07
5.76387e-07
-8.70405e-07
-1.24494e-07
3.65183e-07
-8.8196e-07
-1.21545e-07
5.43464e-07
-8.72107e-07
-6.17473e-09
2.79212e-07
-8.83642e-07
9.78239e-09
4.14676e-07
-8.61775e-07
1.88446e-07
1.7863e-07
-8.90798e-07
2.80202e-07
1.05785e-07
-8.222e-07
5.3692e-07
-2.2756e-07
-8.25623e-07
6.6356e-07
-5.12514e-07
-6.61468e-07
9.45655e-07
-1.66774e-06
-5.93383e-07
2.47944e-06
-3.11296e-06
-1.99403e-07
6.71975e-06
-5.21316e-06
-6.97901e-07
1.52195e-05
-3.04632e-06
-5.94855e-07
2.12327e-05
-6.53444e-07
-5.32738e-07
2.16294e-05
7.46083e-06
1.76456e-06
3.65989e-06
1.09106e-05
-7.09528e-06
-6.14066e-05
-5.23896e-06
-1.10476e-06
-0.000132365
-1.55139e-05
-4.83608e-06
-0.000137721
7.29176e-07
4.14355e-06
-0.0001436
2.2701e-07
1.80343e-06
-0.000146983
2.7324e-06
1.29131e-06
-0.000147361
2.75539e-06
3.32802e-07
-0.000147593
2.58484e-06
3.72739e-07
-0.000147421
2.2385e-06
-1.13406e-07
-0.00014683
2.04162e-06
-7.5543e-08
-0.000146273
1.5202e-06
-5.11939e-07
-0.000145756
1.39668e-06
-1.47709e-07
-0.000144974
9.9732e-07
-4.50365e-07
-0.000144542
8.86993e-07
-1.49554e-07
-0.000144495
6.40658e-07
-3.48362e-07
-0.00014441
6.16066e-07
-1.89902e-07
-0.000144004
6.64765e-07
-2.62877e-07
-0.000143703
8.0322e-07
-1.91946e-07
-0.000143992
1.05574e-06
-3.19145e-07
-0.000143945
1.67637e-06
-4.25782e-07
-0.000143993
2.25969e-06
-6.51587e-07
-0.000144779
2.8072e-06
-8.50387e-07
-0.000145487
3.31917e-06
-9.31899e-07
-0.00014628
3.31954e-06
-9.37768e-07
-0.000146988
3.15157e-06
-9.39859e-07
-0.000147121
2.99533e-06
-8.62862e-07
-0.000147089
2.7164e-06
-8.2615e-07
-0.000146838
2.51788e-06
-7.82212e-07
-0.000146343
2.33129e-06
-7.85385e-07
-0.000145473
2.32884e-06
-8.25839e-07
-0.000144662
2.38306e-06
-9.03177e-07
-0.000144081
2.42895e-06
-9.40676e-07
-0.000142785
2.57092e-06
-1.03759e-06
-0.000137916
2.80396e-06
-1.13574e-06
-0.000120843
3.43543e-06
-1.26241e-06
-8.57694e-05
4.0845e-06
-1.21694e-06
-7.33053e-05
4.46758e-06
-1.07429e-06
5.16817e-06
-8.98698e-07
-2.94181e-06
8.98425e-07
-9.66789e-07
-1.17971e-06
-4.93768e-06
-1.39796e-06
-1.84262e-06
2.39565e-06
-6.42917e-07
-1.06983e-06
-1.95748e-06
-1.00815e-06
-1.238e-06
1.7597e-06
-8.49954e-07
-7.90712e-07
-8.43624e-07
-9.82254e-07
-8.1137e-07
1.35461e-06
-9.60917e-07
-5.43216e-07
-1.40994e-07
-1.00131e-06
-5.46721e-07
1.20663e-06
-1.00671e-06
-3.93836e-07
3.86604e-07
-1.03059e-06
-4.06559e-07
1.17752e-06
-1.02946e-06
-3.17811e-07
7.68732e-07
-1.05656e-06
-3.31854e-07
1.19572e-06
-1.05459e-06
-2.83391e-07
1.04082e-06
-1.07861e-06
-2.91127e-07
1.23912e-06
-1.08136e-06
-2.7038e-07
1.22778e-06
-1.09963e-06
-2.69742e-07
1.30607e-06
-1.10863e-06
-2.65692e-07
1.34677e-06
-1.12167e-06
-2.63545e-07
1.38958e-06
-1.13289e-06
-2.62514e-07
1.42887e-06
-1.14416e-06
-2.62433e-07
1.46525e-06
-1.15496e-06
-2.63071e-07
1.49906e-06
-1.16547e-06
-2.64112e-07
1.53075e-06
-1.17608e-06
-2.65474e-07
1.56063e-06
-1.18659e-06
-2.67087e-07
1.58894e-06
-1.19699e-06
-2.68899e-07
1.61586e-06
-1.20728e-06
-2.70843e-07
1.64152e-06
-1.21745e-06
-2.72875e-07
1.66601e-06
-1.22747e-06
-2.74967e-07
1.68942e-06
-1.23732e-06
-2.77094e-07
1.71179e-06
-1.24704e-06
-2.79202e-07
1.73313e-06
-1.25663e-06
-2.81209e-07
1.7534e-06
-1.26611e-06
-2.83158e-07
1.77256e-06
-1.27544e-06
-2.84972e-07
1.79055e-06
-1.28451e-06
-2.85135e-07
1.8042e-06
-1.29428e-06
-2.89701e-07
1.83097e-06
-1.30097e-06
-2.84827e-07
1.81955e-06
-1.31342e-06
-2.92935e-07
1.87305e-06
-1.31715e-06
-2.81315e-07
1.8194e-06
-1.33138e-06
-2.92621e-07
1.91156e-06
-1.33321e-06
-2.71703e-07
1.80168e-06
-1.34818e-06
-2.84687e-07
1.94093e-06
-1.3492e-06
-2.4971e-07
1.76032e-06
-1.36388e-06
-2.60642e-07
1.95208e-06
-1.36473e-06
-2.03317e-07
1.68563e-06
-1.37774e-06
-2.0521e-07
1.92365e-06
-1.37826e-06
-1.03764e-07
1.5684e-06
-1.3906e-06
-9.79046e-08
1.79256e-06
-1.38371e-06
8.37271e-08
1.40318e-06
-1.40614e-06
1.06291e-07
1.43815e-06
-1.35488e-06
3.1202e-07
9.27421e-07
-1.36066e-06
1.85085e-07
7.55254e-07
-1.14078e-06
-2.13291e-07
-1.15193e-07
-1.15411e-06
-4.82283e-07
-2.3481e-06
-4.95835e-07
3.97852e-06
-8.66725e-06
-1.00669e-06
1.28036e-05
-9.1977e-06
-2.67365e-06
2.35799e-05
-4.59776e-06
-6.83203e-06
3.16544e-05
4.0633e-06
-4.677e-06
-8.47232e-06
4.2465e-05
-4.09115e-06
-0.000108113
5.93594e-06
5.97338e-06
-0.00019771
1.40707e-05
1.47536e-05
-0.000212543
8.6787e-06
5.35942e-06
-0.000220582
5.82009e-06
2.85531e-06
-0.000223001
3.68787e-06
1.74431e-06
-0.0002248
3.37026e-06
1.1482e-06
-0.000227145
3.09831e-06
8.94674e-07
-0.000228606
3.17571e-06
7.81137e-07
-0.000229402
3.14251e-06
4.69794e-07
-0.000231023
3.32605e-06
1.10723e-07
-0.000233209
3.356e-06
9.25265e-09
-0.000234727
3.15364e-06
2.95137e-09
-0.000236072
2.7571e-06
2.29779e-07
-0.000239254
2.2858e-06
4.39303e-07
-0.000242222
1.58368e-06
4.71504e-07
-0.000242592
1.23527e-06
2.73923e-07
-0.000242487
9.00089e-07
-1.17693e-07
-0.000242711
9.42612e-07
-1.07921e-06
-0.000241556
1.7758e-06
-2.13368e-06
-0.000239761
3.18482e-06
-2.54971e-06
-0.000238681
4.35797e-06
-2.84559e-06
-0.000238067
5.15095e-06
-3.0861e-06
-0.000237371
4.85833e-06
-2.96234e-06
-0.00023634
4.13279e-06
-3.02585e-06
-0.000234733
3.14746e-06
-2.69603e-06
-0.000231968
2.01202e-06
-2.45642e-06
-0.00022858
1.01798e-06
-2.21044e-06
-0.000224565
1.01236e-07
-1.96318e-06
-0.000219955
-5.89803e-07
-1.62639e-06
-0.000215279
-9.50909e-07
-1.19099e-06
-0.000210669
-1.0205e-06
-8.00348e-07
-0.000206491
-8.92461e-07
-7.22768e-07
-0.000202204
-9.81824e-07
-8.23406e-07
-0.000197097
-9.6302e-07
-9.18061e-07
-0.000190708
-9.23479e-07
-1.10297e-06
-0.000183611
-1.01068e-06
-1.09907e-06
-1.65592e-06
-8.69927e-07
-2.95589e-06
2.3065e-06
1.65596e-06
-1.35506e-06
-5.11882e-06
-1.41969e-06
-2.07088e-06
3.02137e-06
9.00918e-08
-1.22237e-06
-2.18096e-06
-6.25045e-07
-1.26342e-06
2.21674e-06
-4.15988e-07
-7.83647e-07
-7.35303e-07
-5.88093e-07
-7.38827e-07
1.87121e-06
-5.61401e-07
-4.96596e-07
2.41791e-07
-6.24997e-07
-4.75794e-07