/*--------------------------------*- C++ -*----------------------------------*\
| =========                 |                                                 |
| \\      /  F ield         | OpenFOAM: The Open Source CFD Toolbox           |
|  \\    /   O peration     | Version:  2.3.0                                 |
|   \\  /    A nd           | Web:      www.OpenFOAM.org                      |
|    \\/     M anipulation  |                                                 |
\*---------------------------------------------------------------------------*/
FoamFile
{
    version     2.0;
    format      ascii;
    class       volVectorField;
    location    "2";
    object      U;
}
// * * * * * * * * * * * * * * * * * * * * * * * * * * * * * * * * * * * * * //

dimensions      [0 1 -1 0 0 0 0];

internalField   nonuniform List<vector> 
6144
(
(0.00337156 0.0202867 -0.000936163)
(0.00373842 0.0122299 -0.00149308)
(0.00336985 0.0104471 -0.00243047)
(0.00367178 0.0079661 -0.00253149)
(0.00315874 0.00659849 -0.00267974)
(0.00333901 0.00566529 -0.00273883)
(0.00305622 0.0047961 -0.00275127)
(0.00312343 0.0042868 -0.00276795)
(0.00301159 0.00373193 -0.0027564)
(0.00300943 0.00334882 -0.00275858)
(0.00295862 0.00297613 -0.00275744)
(0.00293312 0.00267633 -0.00275899)
(0.00290401 0.00240948 -0.00275732)
(0.0028806 0.00218301 -0.00275556)
(0.00285936 0.00198831 -0.00275316)
(0.00284075 0.0018226 -0.00275053)
(0.00282438 0.001682 -0.00274777)
(0.00281003 0.00156316 -0.00274497)
(0.00279747 0.00146299 -0.00274218)
(0.0027865 0.00137869 -0.00273945)
(0.0027769 0.00130781 -0.00273678)
(0.00276849 0.00124817 -0.00273419)
(0.00276112 0.00119787 -0.00273168)
(0.00275465 0.00115522 -0.00272925)
(0.00274896 0.00111878 -0.00272689)
(0.00274395 0.00108731 -0.00272459)
(0.00273948 0.00105967 -0.00272235)
(0.0027355 0.00103494 -0.00272016)
(0.00273196 0.00101232 -0.00271803)
(0.00272884 0.000990945 -0.00271594)
(0.00272613 0.000970179 -0.00271387)
(0.00272385 0.000948436 -0.00271178)
(0.00272164 0.00093216 -0.00270993)
(0.00271917 0.000840475 -0.00270817)
(0.00272528 0.00111228 -0.00270281)
(0.00270758 0.000330118 -0.00270799)
(0.00273308 0.00172273 -0.00269577)
(0.00269969 -0.000607988 -0.0027056)
(0.00274028 0.00269312 -0.00268722)
(0.00270061 -0.00189433 -0.00269933)
(0.00275076 0.00391903 -0.00266537)
(0.00271645 -0.00342006 -0.00268402)
(0.00273059 0.00527127 -0.0026613)
(0.00276077 -0.00501977 -0.00264432)
(0.00267577 0.00659434 -0.00265618)
(0.00280069 -0.00648018 -0.00261592)
(0.00256759 0.00780676 -0.00260542)
(0.00279135 -0.00762414 -0.00261468)
(0.00226331 0.00913832 -0.002398)
(0.00265353 -0.00823492 -0.00251296)
(0.00113184 0.0111146 -0.00190994)
(0.00184877 -0.00667447 -0.00180863)
(-0.00272604 0.0152858 -0.00185774)
(-0.00200013 0.000877125 -0.00279028)
(-0.0145268 0.0384774 -0.0129048)
(0.0115476 0.0477151 0.00323158)
(0.013721 0.0794878 0.0170119)
(0.0172709 0.0475923 0.0330746)
(0.0226668 0.124216 -0.00752445)
(-0.0124695 0.0433379 0.0383179)
(0.10223 -0.261982 0.0384556)
(0.0652296 -0.0716615 -0.000460429)
(0.042233 -0.151934 -0.00749699)
(0.0298337 -0.157178 0.00846869)
(0.021861 -0.150324 0.00466791)
(0.0203354 -0.128295 -0.0107706)
(0.00967156 -0.0923189 -0.0203148)
(-0.00127626 -0.0554855 -0.0170176)
(-0.000456231 -0.0411654 -0.00952215)
(0.00268486 -0.0345833 -0.00490044)
(0.00409928 -0.0342491 -0.00345992)
(0.00451626 -0.0336053 -0.00318786)
(0.00461178 -0.0334912 -0.00335682)
(0.00460403 -0.0326063 -0.00351607)
(0.00468945 -0.0317666 -0.00381199)
(0.00467804 -0.0305061 -0.00403451)
(0.00465049 -0.029449 -0.0042549)
(0.00456941 -0.0284379 -0.00441009)
(0.00454091 -0.0269502 -0.00448348)
(0.00454589 -0.0260009 -0.00451336)
(0.00450753 -0.0246812 -0.00455239)
(0.00448553 -0.0233469 -0.00456207)
(0.00446045 -0.0221202 -0.00456729)
(0.00442394 -0.0208285 -0.00456511)
(0.0043812 -0.0194959 -0.00456168)
(0.00433345 -0.0181378 -0.0045549)
(0.00428728 -0.0167427 -0.00454047)
(0.00423623 -0.0153053 -0.00451961)
(0.00417282 -0.0138165 -0.0044969)
(0.00409451 -0.012261 -0.00446423)
(0.004005 -0.010631 -0.00441948)
(0.00390586 -0.0089104 -0.00436309)
(0.00380073 -0.00710237 -0.00429787)
(0.0036887 -0.00518947 -0.00423148)
(0.00360147 -0.00317838 -0.0041742)
(0.00351791 -0.00107532 -0.00413392)
(0.00867659 0.0239269 0.00185723)
(0.0102487 0.0134785 0.00126305)
(0.00789227 0.0113431 -0.000375352)
(0.00920015 0.00872746 -0.000486882)
(0.00711415 0.00722649 -0.000836776)
(0.00805818 0.0064058 -0.000867767)
(0.00684972 0.00534367 -0.000952938)
(0.00732625 0.00492424 -0.000961381)
(0.00675915 0.00421722 -0.000977629)
(0.00686753 0.0038629 -0.00098458)
(0.00665141 0.00340935 -0.00098239)
(0.00660446 0.00309697 -0.000985695)
(0.00650645 0.00279223 -0.000981271)
(0.00643622 0.00254489 -0.000979574)
(0.00636806 0.00232943 -0.000976452)
(0.00630786 0.00214774 -0.000973359)
(0.00625392 0.00199402 -0.000970056)
(0.00620589 0.00186462 -0.0009666)
(0.0061632 0.00175595 -0.000963035)
(0.00612528 0.00166486 -0.000959388)
(0.00609157 0.00158854 -0.000955649)
(0.00606153 0.0015245 -0.000951848)
(0.00603469 0.00147063 -0.000948001)
(0.00601062 0.0014251 -0.000944128)
(0.00598894 0.00138639 -0.000940239)
(0.00596934 0.00135317 -0.000936322)
(0.00595159 0.00132424 -0.000932371)
(0.00593543 0.00129854 -0.000928398)
(0.00592072 0.00127518 -0.000924381)
(0.00590735 0.00125317 -0.000920296)
(0.00589522 0.00123197 -0.000916116)
(0.00588431 0.00120983 -0.000911781)
(0.00587446 0.00119096 -0.000907271)
(0.00586335 0.00111087 -0.000902672)
(0.00587243 0.00136255 -0.000894449)
(0.00582899 0.000593726 -0.000897368)
(0.00588384 0.00200122 -0.000881956)
(0.0057993 -0.000399242 -0.000889027)
(0.00589241 0.00305078 -0.000873361)
(0.0057827 -0.00180227 -0.000876692)
(0.00588579 0.00442034 -0.000866161)
(0.00578314 -0.00351583 -0.000860292)
(0.00584021 0.00598845 -0.00086169)
(0.00580384 -0.00539237 -0.000840437)
(0.00570909 0.00760217 -0.000851484)
(0.005821 -0.00721107 -0.000832953)
(0.00543687 0.00915304 -0.00080092)
(0.00569292 -0.00877398 -0.000866437)
(0.00487524 0.0109448 -0.00049727)
(0.00517185 -0.0103538 -0.00091315)
(0.0029227 0.0139723 0.000696015)
(0.00398724 -0.0129029 -0.000409655)
(-0.00215223 0.0203119 0.00335843)
(0.00145618 -0.0195915 -0.000824349)
(-0.0213217 0.0348128 0.00414944)
(-0.00726178 -0.0523314 -0.0125033)
(-0.0429887 0.0550849 0.038661)
(-0.0312503 -0.108069 0.0719282)
(0.0125088 0.0490212 -0.0915005)
(-0.0085139 0.0537275 0.0345385)
(0.216595 -0.25321 0.11948)
(0.132703 -0.0649853 0.0610005)
(0.0794212 -0.139339 0.0459519)
(0.0580179 -0.121444 0.0633108)
(0.0127625 -0.142807 0.0436331)
(-0.0269918 -0.108659 0.0012621)
(-0.0293481 -0.0599316 -0.0165034)
(-0.0194542 -0.0386876 -0.0100856)
(-0.00850608 -0.0397257 -0.00344952)
(-0.00196737 -0.0394962 -0.00221286)
(0.00246598 -0.0395382 -0.0012286)
(0.0046439 -0.0358911 -0.00033437)
(0.00583188 -0.0348045 0.000151873)
(0.00624731 -0.0327361 0.000109319)
(0.00663734 -0.0318952 -0.000174982)
(0.00681232 -0.0305598 -0.000392331)
(0.00698331 -0.0295185 -0.000585046)
(0.00698773 -0.0285546 -0.00070964)
(0.00697551 -0.0270888 -0.000819603)
(0.00699191 -0.0261297 -0.000891198)
(0.0069545 -0.0248295 -0.000940016)
(0.00689912 -0.0234962 -0.000978811)
(0.00684845 -0.0222764 -0.00099647)
(0.00677622 -0.0209905 -0.000990373)
(0.00668119 -0.0196558 -0.000983644)
(0.0065675 -0.0182941 -0.000976181)
(0.00644644 -0.0168993 -0.000977805)
(0.00632303 -0.0154736 -0.000988303)
(0.00619795 -0.014006 -0.00100178)
(0.00607743 -0.0124755 -0.00101573)
(0.00596366 -0.0108714 -0.00103431)
(0.00583789 -0.00917507 -0.00105944)
(0.00570704 -0.00738385 -0.00108753)
(0.00553208 -0.00544068 -0.00111962)
(0.0053788 -0.00335854 -0.00113964)
(0.00522491 -0.00114512 -0.00117907)
(0.0112371 0.0253449 0.00373993)
(0.0143305 0.0129869 0.00334998)
(0.00933064 0.0106833 0.00087398)
(0.0123647 0.00837814 0.00101161)
(0.00823898 0.00658521 0.00033401)
(0.0105021 0.00631275 0.000449285)
(0.00802537 0.00491307 0.000230381)
(0.00926185 0.00490922 0.000302301)
(0.00802246 0.00395992 0.000226605)
(0.00846985 0.00382625 0.000264652)
(0.0079444 0.00326005 0.000238157)
(0.00796878 0.00302842 0.000253585)
(0.00776148 0.0027033 0.000248788)
(0.00766149 0.00247933 0.000254522)
(0.00754497 0.00226992 0.000258205)
(0.00744621 0.00209826 0.00026342)
(0.0073569 0.00195272 0.000269129)
(0.00727729 0.00183087 0.000275361)
(0.00720636 0.001729 0.000282002)
(0.00714316 0.00164395 0.000288982)
(0.00708676 0.00157295 0.000296214)
(0.00703628 0.00151363 0.000303651)
(0.00699092 0.00146391 0.000311251)
(0.00694998 0.0014221 0.000318973)
(0.00691288 0.00138675 0.000326809)
(0.00687915 0.00135646 0.000334722)
(0.00684835 0.00133006 0.000342682)
(0.00682012 0.00130659 0.000350674)
(0.00679418 0.0012852 0.000358655)
(0.00677035 0.00126507 0.000366585)
(0.00674844 0.00124569 0.000374439)
(0.00672833 0.00122544 0.000382143)
(0.0067096 0.00120747 0.000389508)
(0.00669222 0.00113435 0.000396725)
(0.00668749 0.00137659 0.000408169)
(0.0066494 0.000623254 0.000405808)
(0.00668497 0.00202055 0.000427783)
(0.00660914 -0.000373091 0.000417037)
(0.00668935 0.00308401 0.00044352)
(0.00658248 -0.00179271 0.000431356)
(0.00668309 0.00447851 0.000456009)
(0.00657963 -0.0035506 0.000448102)
(0.00662659 0.00608419 0.00046634)
(0.0066077 -0.00551726 0.000461574)
(0.00645498 0.0077255 0.000479086)
(0.00662204 -0.00748577 0.000451386)
(0.00611993 0.00920655 0.00053253)
(0.00633172 -0.00925671 0.000347224)
(0.00555005 0.0107832 0.00088308)
(0.00524211 -0.0112626 -5.26209e-06)
(0.00371336 0.0139976 0.00270592)
(0.00286969 -0.0151006 -0.000191537)
(-0.000637204 0.0220428 0.00761198)
(-0.00227098 -0.0235451 -4.03225e-05)
(-0.0103645 0.0449522 0.00908523)
(-0.0075039 -0.0591252 -0.0227672)
(-0.0311254 0.0795392 0.0221816)
(0.0211884 -0.148448 0.0563826)
(-0.0435651 0.0848498 -0.105754)
(0.0136912 0.0251 -0.00354071)
(0.241751 -0.232429 0.142276)
(0.128382 0.0656589 0.0726026)
(0.0653821 -0.100277 0.0752989)
(0.0357771 0.0017841 0.0689029)
(-0.00488321 -0.0547831 0.0505385)
(-0.0309873 -0.0378025 0.0155743)
(-0.0328896 -0.0302919 -0.012329)
(-0.0238216 -0.0297258 -0.00600599)
(-0.0124183 -0.0367053 -0.000716722)
(-0.00641092 -0.0374396 -0.000647219)
(-0.00210987 -0.0379243 0.000458428)
(0.000922439 -0.0339345 0.00170654)
(0.00330293 -0.0334555 0.00255426)
(0.00459919 -0.0317394 0.00266633)
(0.00560572 -0.0312932 0.00239234)
(0.00594798 -0.0302949 0.00210009)
(0.00620176 -0.0293964 0.00181332)
(0.00618061 -0.0285432 0.00160998)
(0.00617088 -0.0271022 0.00141603)
(0.00622797 -0.026134 0.00126666)
(0.0062388 -0.0248741 0.00116916)
(0.00625059 -0.0235307 0.00108927)
(0.00624651 -0.0223126 0.00103655)
(0.00616763 -0.0210624 0.00102878)
(0.00605464 -0.0197719 0.00101515)
(0.00590695 -0.0184408 0.00102043)
(0.00572469 -0.0170536 0.00101641)
(0.00548725 -0.0156143 0.00100018)
(0.00519436 -0.0141106 0.000969452)
(0.00486773 -0.0125253 0.000916081)
(0.00452569 -0.0108772 0.000840612)
(0.00416753 -0.00913953 0.000755153)
(0.00378653 -0.00732719 0.000668329)
(0.00336485 -0.00536337 0.000558335)
(0.00306336 -0.00330475 0.000453955)
(0.0027876 -0.0011369 0.000327208)
(0.0125652 0.026158 0.00480045)
(0.0181499 0.0122538 0.00529078)
(0.00903693 0.00947376 0.0015237)
(0.0147451 0.00803349 0.00199792)
(0.00783593 0.00553968 0.000991944)
(0.0120811 0.00637211 0.00129588)
(0.00788151 0.00421786 0.000946719)
(0.0103275 0.00501036 0.00110971)
(0.00808675 0.00350782 0.000973159)
(0.00914364 0.00384925 0.00104738)
(0.0081202 0.00298966 0.00100163)
(0.00836012 0.00297218 0.00102981)
(0.00796204 0.00255189 0.0010216)
(0.00787457 0.00238905 0.00103197)
(0.00769963 0.00217662 0.00103655)
(0.00756718 0.00202166 0.00104426)
(0.00744397 0.00188701 0.00105223)
(0.00733413 0.00177587 0.00106086)
(0.00723601 0.00168362 0.00106996)
(0.00714837 0.00160715 0.00107944)
(0.00706988 0.00154371 0.00108922)
(0.0069994 0.00149101 0.00109922)
(0.00693586 0.00144708 0.00110939)
(0.00687829 0.00141029 0.00111969)
(0.00682595 0.00137927 0.00113008)
(0.00677819 0.00135276 0.00114055)
(0.00673435 0.00132973 0.00115107)
(0.00669402 0.00130932 0.00116162)
(0.00665686 0.00129077 0.00117219)
(0.00662267 0.00127333 0.00118278)
(0.0065913 0.00125645 0.00119338)
(0.0065627 0.0012387 0.00120396)
(0.00653646 0.00122274 0.00121453)
(0.00651285 0.00115703 0.00122498)
(0.00650218 0.00138934 0.00123937)
(0.00645673 0.000657889 0.0012402)
(0.00649755 0.00203643 0.0012657)
(0.0064007 -0.000336347 0.00125658)
(0.00651021 0.00311369 0.00128897)
(0.00635818 -0.00176992 0.00127444)
(0.00652088 0.00453486 0.00130961)
(0.00634306 -0.00357025 0.00129334)
(0.00649315 0.00618027 0.00132747)
(0.00636415 -0.00562861 0.00130712)
(0.00636245 0.00784801 0.0013422)
(0.00637292 -0.00773082 0.00129089)
(0.00609805 0.00917969 0.00137506)
(0.00596687 -0.0097058 0.0011179)
(0.00569194 0.010242 0.0017458)
(0.00443841 -0.0123455 0.00045046)
(0.00422275 0.0122557 0.00365009)
(0.000528522 -0.017469 -0.000511547)
(-0.000865387 0.017802 0.00748153)
(-0.0095512 -0.0277403 0.000759296)
(-0.00439778 0.0420275 0.0163942)
(0.00868368 -0.0693923 0.0070886)
(-0.0071699 0.0500066 0.0596141)
(0.0600365 -0.21584 0.0632853)
(-0.0784487 0.144869 -0.117913)
(0.073649 -0.01793 0.0133028)
(0.239257 -0.211536 0.152842)
(0.111461 0.0870114 0.0762105)
(0.078044 -0.0972587 0.0787548)
(0.00947681 0.0348476 0.0448973)
(-0.0205768 -0.0148895 0.0223151)
(-0.0280505 0.028267 -0.00356039)
(-0.028345 -0.00632272 -0.00606655)
(-0.020341 -0.00680696 0.00311861)
(-0.0151798 -0.0201038 0.00286967)
(-0.00880427 -0.0236008 0.00298446)
(-0.00446324 -0.0282954 0.00403617)
(-0.00129247 -0.0284502 0.00449005)
(0.00144806 -0.0304062 0.00456761)
(0.00277145 -0.0299878 0.00419835)
(0.00374429 -0.0302709 0.0037022)
(0.00395757 -0.0298011 0.00325461)
(0.00413918 -0.0291022 0.00283721)
(0.00398015 -0.028349 0.00245865)
(0.00391595 -0.0269827 0.00216339)
(0.00390642 -0.0259619 0.00187545)
(0.00389807 -0.0247075 0.00173582)
(0.00377961 -0.0233599 0.00161027)
(0.00375179 -0.0221701 0.0015315)
(0.00364519 -0.0210012 0.00151835)
(0.00353343 -0.0198129 0.00151789)
(0.00341384 -0.0185896 0.00157959)
(0.00336231 -0.0173313 0.0016567)
(0.00332661 -0.0160324 0.00176675)
(0.0032099 -0.0146463 0.00184543)
(0.00308368 -0.0131614 0.00193113)
(0.0029646 -0.0115935 0.00198755)
(0.00279199 -0.00993156 0.0020053)
(0.00257814 -0.00822787 0.001968)
(0.00225813 -0.00625892 0.00180922)
(0.00213043 -0.00405447 0.00163767)
(0.00191202 -0.00146667 0.00131352)
(0.0126905 0.0262193 0.00598384)
(0.0218642 0.0110423 0.00712404)
(0.00700193 0.00777505 0.00198721)
(0.0162279 0.00806213 0.00300521)
(0.00607062 0.00429852 0.00150814)
(0.0128241 0.00678654 0.00215042)
(0.00663056 0.00337479 0.00154762)
(0.0106334 0.00531722 0.00191046)
(0.00713364 0.00291295 0.00162338)
(0.00907786 0.00398185 0.00180834)
(0.00731974 0.00258899 0.0016855)
(0.0079743 0.00297401 0.00176313)
(0.00723418 0.00232143 0.00172695)
(0.00724769 0.00231093 0.00175331)
(0.00696551 0.00205706 0.00175243)
(0.0068093 0.00193561 0.00176325)
(0.00664833 0.00181198 0.00177265)
(0.00650686 0.00171443 0.0017836)
(0.00638041 0.00163409 0.00179532)
(0.00626736 0.00156817 0.00180775)
(0.00616591 0.00151394 0.00182072)
(0.00607455 0.00146924 0.00183412)
(0.00599195 0.00143224 0.00184783)
(0.00591689 0.00140139 0.0018618)
(0.00584837 0.00137543 0.00187596)
(0.00578552 0.00135336 0.00189028)
(0.00572765 0.00133428 0.00190476)
(0.00567422 0.00131741 0.00191933)
(0.00562478 0.00130208 0.0019339)
(0.00557907 0.00128769 0.0019485)
(0.00553691 0.00127367 0.00196311)
(0.00549816 0.00125912 0.00197768)
(0.0054625 0.00124563 0.00199219)
(0.00543016 0.00118778 0.00200664)
(0.00541228 0.00140987 0.00202439)
(0.0053568 0.000704572 0.00202988)
(0.00540198 0.00205804 0.00205958)
(0.00528197 -0.000282089 0.00205297)
(0.00542222 0.00314762 0.00209374)
(0.00522062 -0.00172209 0.00207604)
(0.00545816 0.00459437 0.0021268)
(0.00518929 -0.00355302 0.00209874)
(0.00548411 0.0062786 0.00215752)
(0.00519999 -0.00568456 0.00211597)
(0.00545466 0.00797548 0.00218106)
(0.00522323 -0.00789881 0.00210248)
(0.00532762 0.00913263 0.00222015)
(0.00495065 -0.0100152 0.00190134)
(0.00514171 0.00952878 0.00254135)
(0.00364479 -0.0130684 0.00112161)
(0.00416057 0.00910218 0.00353947)
(-0.000432588 -0.0184289 -0.00151763)
(0.000147802 0.007448 0.0031445)
(-0.0126044 -0.0388561 0.000339413)
(0.00581759 0.0199294 0.019005)
(0.0153196 -0.093865 0.0165297)
(0.0354316 0.084082 0.0370646)
(0.062788 -0.253768 0.0568405)
(-0.122414 0.419807 -0.0878118)
(0.0927228 -0.128152 0.0781742)
(0.202912 -0.15243 0.169278)
(0.0920618 0.0809525 0.0383684)
(0.0949495 -0.0434248 0.0605839)
(-0.0159213 0.0716063 0.0131153)
(-0.003474 0.0128302 0.0122148)
(-0.013822 0.0408295 0.00502098)
(-0.00679326 0.0133363 0.0119805)
(-0.0118002 0.0122949 0.0138559)
(-0.0072064 -0.00591081 0.0137986)
(-0.00614788 -0.00910975 0.0130436)
(-0.00400853 -0.0166872 0.0107289)
(-0.0018755 -0.0190073 0.00985089)
(-0.000314454 -0.0226051 0.00790001)
(0.000741587 -0.023768 0.00669671)
(0.00124366 -0.0250159 0.00554752)
(0.00124316 -0.0255178 0.00460231)
(0.00113632 -0.0254259 0.00400722)
(0.000702073 -0.0253643 0.00316743)
(0.000496033 -0.0246081 0.00294034)
(0.000396044 -0.0241286 0.00222844)
(0.000543061 -0.0233996 0.00218534)
(0.000593516 -0.0224855 0.00203491)
(0.000712041 -0.0217174 0.00189236)
(0.000675259 -0.0207992 0.00195123)
(0.000502609 -0.0196951 0.00175005)
(0.000230611 -0.0183516 0.00163577)
(-0.000151407 -0.016898 0.00138856)
(-0.000622881 -0.0155003 0.00120585)
(-0.00118495 -0.0141374 0.0009541)
(-0.00168249 -0.0126509 0.000779657)
(-0.00211996 -0.0110424 0.000599431)
(-0.00248688 -0.00937536 0.000480479)
(-0.00304945 -0.00776333 0.000383968)
(-0.00389336 -0.00573863 0.000482956)
(-0.00445435 -0.00366979 0.000881328)
(-0.00547755 -0.00140371 0.000951761)
(0.0117448 0.0240176 0.00734478)
(0.0252981 0.0099846 0.00853556)
(0.0035844 0.00580794 0.00272519)
(0.0165218 0.00895148 0.00442482)
(0.0033178 0.00300297 0.00236852)
(0.0125073 0.00771795 0.00350021)
(0.00451784 0.00241689 0.00252656)
(0.00999243 0.00585699 0.00320199)
(0.00531733 0.00217187 0.00267184)
(0.00815705 0.00421764 0.003042)
(0.00564157 0.00204412 0.00278386)
(0.00680932 0.0030236 0.00295723)
(0.00565727 0.00196602 0.0028621)
(0.00589074 0.00224983 0.00292865)
(0.00546444 0.00186679 0.00291635)
(0.00533881 0.00182837 0.00293955)
(0.00515636 0.00170803 0.00295315)
(0.00500478 0.00163011 0.00297064)
(0.00486891 0.00156517 0.00298901)
(0.00474761 0.00151266 0.00300843)
(0.00463877 0.00146999 0.00302868)
(0.00454072 0.00143532 0.00304954)
(0.00445212 0.00140694 0.00307082)
(0.00437171 0.00138346 0.0030924)
(0.00429834 0.00136385 0.00311419)
(0.0042311 0.00134731 0.0031362)
(0.00416928 0.0013331 0.0031585)
(0.00411233 0.00132059 0.00318092)
(0.00405986 0.00130924 0.00320322)
(0.00401163 0.00129855 0.00322544)
(0.00396749 0.00128806 0.00324759)
(0.00392736 0.00127698 0.00326961)
(0.0038911 0.00126648 0.00329138)
(0.00385865 0.00121734 0.00331296)
(0.0038423 0.00142819 0.00333728)
(0.00378422 0.000755256 0.00335037)
(0.00384308 0.00207585 0.00338753)
(0.00370645 -0.00021554 0.00338614)
(0.003887 0.00317616 0.0034387)
(0.00364196 -0.00164832 0.00342027)
(0.00396717 0.00464666 0.00348981)
(0.00360783 -0.00348579 0.0034522)
(0.00407658 0.00636703 0.00354029)
(0.00361986 -0.00564515 0.00347874)
(0.00420368 0.00810413 0.00358724)
(0.00370173 -0.00792811 0.00347852)
(0.00429483 0.00922819 0.00364612)
(0.00397452 -0.0101254 0.00333417)
(0.00442092 0.00911989 0.00393933)
(0.00427706 -0.0133028 0.00278814)
(0.00515318 0.00694204 0.00476278)
(0.00480742 -0.0185729 0.00090123)
(0.00847325 -0.00317918 0.00240214)
(0.00189126 -0.0398276 -5.15621e-06)
(0.00721161 -0.0169149 0.0110453)
(-0.0162967 -0.0729612 0.0121005)
(0.0223727 0.0610499 0.0145927)
(-0.000882004 0.00826295 0.000633954)
(0.0832678 0.408073 0.137552)
(0.0695085 -0.130119 0.0632255)
(0.163473 -0.112736 0.184497)
(0.0710138 0.0492274 0.03827)
(0.0436383 0.0278634 0.0341349)
(-0.00598507 0.0670402 0.0152678)
(-0.00313104 0.0472153 0.00992604)
(-0.0151694 0.0507769 0.00634274)
(-0.011446 0.0446259 0.00809712)
(-0.0123152 0.0443405 0.010074)
(-0.00859659 0.0332731 0.00978759)
(-0.00704325 0.0298069 0.00943663)
(-0.0047402 0.0195314 0.00804891)
(-0.00333342 0.0187794 0.00655857)
(-0.00199624 0.0114731 0.00611827)
(-0.00152528 0.0109555 0.0053312)
(-0.0011862 0.00676198 0.00479009)
(-0.00140768 0.00516796 0.00422979)
(-0.0014683 0.0027188 0.00366513)
(-0.00215617 0.000203955 0.00297074)
(-0.00212283 -0.00119628 0.00205628)
(-0.00235099 -0.00364054 0.00172883)
(-0.00244764 -0.00516451 0.00187323)
(-0.00277708 -0.0069441 0.00153237)
(-0.00234873 -0.00864243 0.00225667)
(-0.00284616 -0.00991123 0.00286054)
(-0.00273474 -0.0113648 0.00298836)
(-0.00301772 -0.0116371 0.00360183)
(-0.00250433 -0.0121212 0.00394951)
(-0.00215103 -0.0118084 0.00428746)
(-0.00215867 -0.0117539 0.00417264)
(-0.00238948 -0.0110781 0.00421774)
(-0.00287706 -0.010499 0.00378697)
(-0.00298017 -0.00968985 0.00374007)
(-0.00355125 -0.00898669 0.00348192)
(-0.00475627 -0.00726734 0.00267842)
(-0.00470859 -0.00556247 0.00140539)
(-0.00530346 -0.00255561 -0.00121928)
(0.0066343 0.0211676 0.00875031)
(0.0280201 0.0106116 0.00927052)
(-0.00295931 0.0039294 0.00392779)
(0.0148361 0.0111668 0.00618855)
(-0.00152424 0.00175131 0.00395922)
(0.0102089 0.00922095 0.00552178)
(0.00045497 0.00139589 0.00430482)
(0.00735936 0.00661513 0.00523408)
(0.00148012 0.00135311 0.00453677)
(0.00519275 0.0045468 0.00506077)
(0.00186109 0.00142738 0.00468421)
(0.00357457 0.00314947 0.00496186)
(0.00190883 0.00155992 0.00478662)
(0.00243201 0.00226369 0.00491247)
(0.00176007 0.0016514 0.00486178)
(0.0017035 0.0017669 0.00490701)
(0.00146051 0.00161649 0.00491536)
(0.00129089 0.00156383 0.00493831)
(0.00113671 0.00151249 0.00496151)
(0.0010003 0.00147239 0.004987)
(0.000878568 0.00144029 0.00501429)
(0.000769788 0.00141462 0.0050423)
(0.000672461 0.00139411 0.00507032)
(0.000584706 0.0013775 0.00509856)
(0.000505148 0.00136383 0.00512696)
(0.000432709 0.00135232 0.00515547)
(0.000366468 0.00134251 0.00518396)
(0.000305794 0.00133424 0.00521228)
(0.000250296 0.00132701 0.00524048)
(0.000199641 0.0013202 0.00526866)
(0.000153676 0.0013135 0.0052968)
(0.000112349 0.00130649 0.00532475)
(7.55083e-05 0.00129955 0.00535253)
(4.31791e-05 0.0012595 0.00538015)
(2.88112e-05 0.00145677 0.00541022)
(-3.32917e-05 0.000822168 0.00542833)
(4.20841e-05 0.00210233 0.00547414)
(-0.000114629 -0.000127997 0.00547197)
(0.000109514 0.00320986 0.00553986)
(-0.000181054 -0.00154228 0.00551132)
(0.000231747 0.00469852 0.00560612)
(-0.00021352 -0.00335983 0.00554694)
(0.000419772 0.00644776 0.00567172)
(-0.000187836 -0.00549757 0.0055785)
(0.000687864 0.00824055 0.00573314)
(-3.78224e-05 -0.00778259 0.00558966)
(0.000991868 0.00963403 0.00579636)
(0.000573884 -0.00993967 0.0054685)
(0.0013137 0.0101165 0.00603042)
(0.00187707 -0.012411 0.00492726)
(0.00300946 0.0102001 0.00670929)
(0.00462052 -0.014677 0.0033848)
(0.00946123 0.00771885 0.00541874)
(0.0125492 -0.0178553 -0.00126303)
(0.00997748 -0.000791772 0.00489114)
(-0.0223234 -0.0732309 0.00853701)
(-0.0549116 -0.039295 0.0238891)
(-0.0877819 -0.186573 -0.0105526)
(0.0112886 0.180541 0.133463)
(0.0511567 -0.0885026 0.0543235)
(0.121387 -0.0809238 0.124207)
(0.0239823 0.0696602 0.0193358)
(0.0202137 0.0581105 0.0125878)
(-0.00733489 0.0915273 0.00765108)
(-0.0104339 0.0913506 0.00676599)
(-0.0113632 0.089269 0.00746502)
(-0.00920505 0.0902049 0.00818149)
(-0.00858514 0.081396 0.00910595)
(-0.0040579 0.0802014 0.010268)
(-0.00476976 0.0711383 0.0100544)
(-0.00177532 0.068555 0.0102428)
(-0.00284718 0.0613416 0.00909823)
(-0.000505371 0.0586859 0.00967846)
(-0.00168193 0.052578 0.00891914)
(-0.000646214 0.0505251 0.00931603)
(-0.00197157 0.0446674 0.0084475)
(-0.00200162 0.0437822 0.00876754)
(-0.00415707 0.0379352 0.00740738)
(-0.00489896 0.036754 0.00562856)
(-0.00549362 0.0347158 0.00528182)
(-0.00592614 0.0352622 0.0047352)
(-0.00669941 0.0349303 0.00454321)
(-0.0072427 0.0360336 0.00425789)
(-0.00828699 0.0337687 0.003988)
(-0.00930184 0.0333923 0.0028334)
(-0.0107195 0.0295231 0.00170816)
(-0.011713 0.0269648 0.000591846)
(-0.012727 0.0235026 8.58377e-05)
(-0.0134777 0.0193624 -8.23911e-05)
(-0.0136508 0.0161129 -0.000696059)
(-0.0130453 0.0112627 -0.00128978)
(-0.0122645 0.0078597 -0.00204757)
(-0.012758 0.00301553 -0.00298398)
(-0.0142927 -0.000713013 -0.00168809)
(-0.0146941 -0.00371055 0.0015491)
(-0.0190688 -0.00177646 0.000245146)
(0.00127423 0.0160557 0.0100514)
(0.0309138 0.015418 0.00737638)
(-0.0103533 0.00310186 0.00521047)
(0.0132614 0.0153693 0.00642967)
(-0.0074216 0.000800289 0.00578877)
(0.00719456 0.0113293 0.00672431)
(-0.00482445 0.000291078 0.00635948)
(0.0034922 0.00749649 0.00687139)
(-0.00363931 0.000304829 0.00665559)
(0.000906349 0.00486756 0.00700712)
(-0.00319706 0.000617201 0.00684267)
(-0.000934662 0.00324252 0.00710737)
(-0.00306218 0.000982955 0.00702245)
(-0.00219622 0.00224523 0.00720255)
(-0.00309429 0.0012875 0.00719533)
(-0.00298802 0.00167059 0.00730687)
(-0.0032698 0.00143521 0.00735594)
(-0.00339802 0.00144448 0.00742814)
(-0.00352534 0.00141142 0.00749107)
(-0.00363443 0.00139054 0.00755336)
(-0.00372873 0.00137542 0.00761305)
(-0.00380972 0.00136467 0.00767141)
(-0.00387863 0.00135701 0.00772935)
(-0.00393705 0.00135122 0.00778668)
(-0.00398639 0.00134691 0.0078433)
(-0.00402775 0.00134377 0.00789923)
(-0.00406204 0.00134148 0.00795457)
(-0.00408999 0.00133971 0.0080091)
(-0.00411215 0.00133828 0.00806256)
(-0.00412882 0.00133708 0.00811509)
(-0.00414011 0.00133592 0.00816677)
(-0.00414602 0.00133447 0.00821762)
(-0.00414644 0.00133293 0.00826754)
(-0.00414197 0.00130536 0.00831651)
(-0.00411656 0.001489 0.00836637)
(-0.00415215 0.000902295 0.00840562)
(-0.0040107 0.00213785 0.00846855)
(-0.00416856 -2.07098e-05 0.008491)
(-0.00383725 0.00326441 0.00856695)
(-0.00416864 -0.00141257 0.00857154)
(-0.00359048 0.00479075 0.00866172)
(-0.00412941 -0.00320806 0.00864681)
(-0.00324877 0.00660112 0.00875208)
(-0.00401625 -0.00531926 0.00871393)
(-0.00278055 0.00850034 0.00883077)
(-0.00374709 -0.00759632 0.00875388)
(-0.0021738 0.0101479 0.00889169)
(-0.00305413 -0.00982049 0.0086838)
(-0.001408 0.0110941 0.00902281)
(-0.00154565 -0.0121238 0.00811066)
(0.000913001 0.0114169 0.00940632)
(0.00148544 -0.0135272 0.00631775)
(0.00898801 0.0117489 0.00716414)
(0.0187428 -0.0109307 -0.00147853)
(0.0472904 0.015985 0.00308016)
(0.0633727 -0.0568535 0.00899685)
(0.0810142 -0.0185027 0.0298068)
(0.0477385 -0.197455 0.00189354)
(-0.103174 0.144052 0.115773)
(-0.0132444 -0.104097 0.0271934)
(0.000461043 0.110529 -0.020063)
(-0.0216564 0.253176 -0.000250225)
(-0.00953721 0.28055 0.0127892)
(-0.00909148 0.293817 0.0126129)
(-0.00660238 0.29563 0.0162073)
(-0.00568256 0.294152 0.0179599)
(-0.00401943 0.294213 0.0204006)
(-0.00344183 0.292944 0.0216346)
(-0.00241443 0.292641 0.022585)
(-0.00199148 0.29258 0.0225885)
(-0.00117181 0.294482 0.0208436)
(-0.000577979 0.295243 0.0165626)
(6.77766e-05 0.298388 0.0124106)
(0.000824586 0.300163 0.00878252)
(0.00155558 0.302036 0.00837444)
(0.00280405 0.299807 0.0105469)
(0.00509274 0.298749 0.0183635)
(0.00509318 0.289839 0.0293786)
(0.00289043 0.279545 0.0381329)
(-0.00121934 0.266934 0.0425526)
(-0.00597124 0.258985 0.0416651)
(-0.00739239 0.249751 0.036583)
(-0.00589755 0.242939 0.0336558)
(-0.00423637 0.232655 0.0316527)
(-0.00200583 0.222917 0.0281851)
(-0.000180404 0.206547 0.0239659)
(0.00187215 0.192899 0.0214596)
(0.0028927 0.173516 0.0177546)
(0.00209273 0.154937 0.0121864)
(0.000375689 0.134287 0.00544689)
(-0.00261159 0.115682 -0.000520929)
(-0.00396644 0.0987922 -0.00495939)
(-0.00694966 0.0820377 -0.0108542)
(-0.0116223 0.0624452 -0.0188982)
(-0.0187031 0.0378736 -0.0337319)
(-0.0223337 0.0165318 -0.0429834)
(-0.01078 0.00942345 -0.0049578)
(0.0325721 0.0222427 0.00611222)
(-0.0185613 -0.00011803 0.000192661)
(0.0121937 0.0204102 0.00270278)
(-0.0130769 -0.00135764 0.00301842)
(0.00422481 0.0135216 0.00354117)
(-0.0103822 -0.001485 0.00380833)
(-0.000858085 0.00842174 0.00401654)
(-0.00941876 -0.000881701 0.00405525)
(-0.00425542 0.00529241 0.00421651)
(-0.00915243 -0.000160841 0.00418029)
(-0.00651268 0.00346478 0.00435335)
(-0.00911971 0.000502238 0.00431286)
(-0.0080182 0.00237467 0.00446383)
(-0.00919347 0.00103373 0.00444862)
(-0.00897089 0.00173543 0.0045544)
(-0.00937523 0.00136214 0.00457828)
(-0.00949957 0.00146232 0.00464217)
(-0.00964951 0.00143734 0.00469055)
(-0.00977299 0.00143416 0.00474057)
(-0.0098761 0.00143346 0.00478976)
(-0.00996168 0.00143421 0.00483844)
(-0.0100333 0.00143591 0.00488654)
(-0.0100935 0.00143826 0.00493403)
(-0.0101437 0.00144105 0.00498082)
(-0.010185 0.00144415 0.00502694)
(-0.0102184 0.00144744 0.00507238)
(-0.0102446 0.00145083 0.00511723)
(-0.0102639 0.00145427 0.00516145)
(-0.010277 0.00145774 0.00520509)
(-0.0102839 0.0014612 0.00524822)
(-0.0102846 0.00146457 0.00529087)
(-0.010279 0.00146757 0.00533308)
(-0.0102678 0.00145234 0.00537527)
(-0.0102338 0.00161338 0.00541697)
(-0.0102704 0.00108992 0.00545384)
(-0.0100984 0.00225009 0.00550016)
(-0.0102808 0.000214289 0.00553332)
(-0.00988333 0.00335949 0.00557839)
(-0.0102727 -0.00110971 0.00561151)
(-0.00958064 0.00485967 0.0056536)
(-0.0102183 -0.00280755 0.00568492)
(-0.00916182 0.00663776 0.00572828)
(-0.0100728 -0.00478274 0.00574738)
(-0.00858272 0.00852374 0.00579865)
(-0.00973672 -0.0068821 0.00577709)
(-0.00780547 0.0102578 0.005858)
(-0.00896323 -0.00883805 0.00568331)
(-0.00687041 0.0116437 0.00592011)
(-0.0075225 -0.0100081 0.00495444)
(-0.00542974 0.0136916 0.00576018)
(-0.00677488 -0.00522517 0.00102224)
(-0.00654251 0.0229713 -0.00264466)
(-0.00670314 0.018164 -0.0153034)
(0.011399 0.0782068 -0.0172381)
(0.0165238 0.159783 0.0209387)
(-0.00986658 0.240471 0.0770787)
(-0.0531718 0.205284 0.111679)
(-0.14046 0.426684 0.132223)
(-0.0345626 -0.184011 0.0387998)
(-0.105113 0.0501033 -0.0336207)
(-0.046123 0.204475 -0.00747187)
(-0.0383108 0.209127 0.000685623)
(-0.0124263 0.211159 0.00406805)