/*--------------------------------*- C++ -*----------------------------------*\
| =========                 |                                                 |
| \\      /  F ield         | OpenFOAM: The Open Source CFD Toolbox           |
|  \\    /   O peration     | Version:  2.3.0                                 |
|   \\  /    A nd           | Web:      www.OpenFOAM.org                      |
|    \\/     M anipulation  |                                                 |
\*---------------------------------------------------------------------------*/
FoamFile
{
    version     2.0;
    format      ascii;
    class       volVectorField;
    location    "2";
    object      U;
}
// * * * * * * * * * * * * * * * * * * * * * * * * * * * * * * * * * * * * * //

dimensions      [0 1 -1 0 0 0 0];

internalField   nonuniform List<vector> 
6144
(
(0.00305461 0.0189345 -0.000795528)
(0.00337751 0.0115064 -0.0013438)
(0.00313737 0.00985144 -0.00222965)
(0.00334796 0.00755875 -0.0023732)
(0.00296342 0.00625923 -0.00251459)
(0.0030746 0.0053568 -0.00257443)
(0.00286377 0.00455582 -0.0025908)
(0.00289111 0.00404535 -0.00260549)
(0.00280808 0.00354167 -0.00259812)
(0.00279241 0.00317028 -0.00259887)
(0.00275125 0.00283038 -0.0025981)
(0.00272533 0.00255082 -0.00259806)
(0.00269959 0.00230782 -0.00259621)
(0.00267798 0.00210147 -0.002594)
(0.00265882 0.00192553 -0.00259141)
(0.00264201 0.00177643 -0.00258867)
(0.00262728 0.00165059 -0.00258586)
(0.00261436 0.00154479 -0.00258304)
(0.00260307 0.00145615 -0.00258026)
(0.00259318 0.0013821 -0.00257754)
(0.00258447 0.00132042 -0.00257488)
(0.0025768 0.00126919 -0.00257228)
(0.00257 0.00122674 -0.00256974)
(0.00256395 0.00119167 -0.00256727)
(0.00255852 0.00116279 -0.00256486)
(0.00255358 0.00113914 -0.00256251)
(0.00254896 0.00111991 -0.00256023)
(0.00254462 0.00110441 -0.00255801)
(0.00254059 0.00109193 -0.00255581)
(0.00253685 0.00108234 -0.00255364)
(0.00253341 0.00107529 -0.00255146)
(0.00253012 0.00107077 -0.00254918)
(0.00252675 0.00106802 -0.00254675)
(0.00252321 0.00106727 -0.00254415)
(0.0025195 0.00106882 -0.00254154)
(0.00251568 0.00106246 -0.00253848)
(0.00251189 0.00116939 -0.00253576)
(0.00250444 0.000831892 -0.00253381)
(0.00250154 0.00163352 -0.00252911)
(0.00249641 0.000268935 -0.00252713)
(0.00247824 0.00244409 -0.00252068)
(0.00249525 -0.000536668 -0.00251664)
(0.00243843 0.00354028 -0.00250025)
(0.00249942 -0.00146713 -0.00249944)
(0.00234494 0.00488686 -0.0024953)
(0.00250456 -0.00236224 -0.00246318)
(0.00220314 0.00650382 -0.00247953)
(0.00246619 -0.00302424 -0.00241369)
(0.00202823 0.00852723 -0.0024255)
(0.00230794 -0.00317995 -0.0023709)
(0.00185949 0.0113192 -0.00226896)
(0.00203668 -0.00199313 -0.00228627)
(0.0019411 0.0159829 -0.00166806)
(0.001371 0.00161595 -0.00206935)
(0.0019355 0.026497 0.000908961)
(0.00033875 -0.000529468 -0.00160799)
(0.012846 0.0376758 0.00751289)
(0.0612739 -0.0886319 -0.0197785)
(-0.0709732 0.0210496 -0.140619)
(-0.0589767 -0.0229667 -0.103256)
(0.018056 -0.207555 -0.0182701)
(0.0334182 0.0553559 -0.0143889)
(0.0485049 -0.115296 -0.00578664)
(0.0152991 -0.0545806 -0.00437475)
(0.0121798 -0.0657702 -0.0133073)
(0.01092 -0.0518221 -0.0100651)
(0.00764749 -0.0450058 -0.00623711)
(0.00588444 -0.04223 -0.00394139)
(0.00409474 -0.0415349 -0.00319776)
(0.00350627 -0.0409454 -0.00343582)
(0.00379169 -0.0406306 -0.00377406)
(0.00406536 -0.0393934 -0.00392841)
(0.00448343 -0.0386395 -0.00405039)
(0.00470928 -0.0374606 -0.00412594)
(0.00482788 -0.0368023 -0.00418804)
(0.00467991 -0.0358854 -0.00434729)
(0.00453161 -0.0347686 -0.00442171)
(0.00435759 -0.0336742 -0.0044537)
(0.00421451 -0.0318927 -0.00445154)
(0.00417279 -0.0303704 -0.00441944)
(0.00413793 -0.028556 -0.00441575)
(0.00413709 -0.0266903 -0.00440011)
(0.00415489 -0.0249949 -0.00438285)
(0.00417387 -0.023329 -0.00437339)
(0.00417751 -0.021702 -0.00437525)
(0.00416055 -0.020126 -0.00438686)
(0.00411938 -0.0185632 -0.0043959)
(0.00405536 -0.0169768 -0.00439563)
(0.0039691 -0.0153384 -0.00438274)
(0.00386922 -0.0136139 -0.00435794)
(0.00376298 -0.0117955 -0.00431919)
(0.00364981 -0.00987194 -0.00426453)
(0.00353401 -0.00784855 -0.00420203)
(0.00341471 -0.00572416 -0.00413519)
(0.003321 -0.00347901 -0.00408417)
(0.00322934 -0.00121778 -0.00405546)
(0.0078036 0.0224286 0.00179517)
(0.00926819 0.012725 0.00121012)
(0.00736536 0.010711 -0.000312716)
(0.00845222 0.00824244 -0.000466631)
(0.00670306 0.00682056 -0.000776066)
(0.00744136 0.00600067 -0.000823432)
(0.00646058 0.00503809 -0.000893841)
(0.00677126 0.00459484 -0.000908475)
(0.00634468 0.00397522 -0.000920254)
(0.00636982 0.00361789 -0.000927953)
(0.00620923 0.00322097 -0.000924881)
(0.00614389 0.00292514 -0.000926244)
(0.00605995 0.002654 -0.000922686)
(0.00599219 0.00242912 -0.000920241)
(0.00592996 0.00223657 -0.000917112)
(0.00587457 0.00207424 -0.000913876)
(0.00582518 0.00193765 -0.000910501)
(0.00578124 0.0018232 -0.000907004)
(0.00574215 0.00172759 -0.000903423)
(0.00570733 0.00164798 -0.000899779)
(0.00567621 0.00158185 -0.000896063)
(0.00564827 0.00152702 -0.0008923)
(0.00562306 0.00148166 -0.000888499)
(0.00560013 0.00144424 -0.000884685)
(0.00557912 0.00141348 -0.000880874)
(0.00555967 0.00138829 -0.000877047)
(0.00554153 0.00136795 -0.000873209)
(0.00552447 0.00135167 -0.000869369)
(0.00550826 0.0013388 -0.000865492)
(0.00549274 0.00132892 -0.000861586)
(0.00547773 0.00132155 -0.000857607)
(0.00546308 0.00131636 -0.000853398)
(0.00544853 0.00131332 -0.000848878)
(0.00543376 0.00131263 -0.000844238)
(0.00541854 0.00131359 -0.000839619)
(0.00540223 0.00131016 -0.00083457)
(0.00538868 0.00140951 -0.000829836)
(0.00536109 0.00107568 -0.000826233)
(0.00535167 0.00189471 -0.000820412)
(0.00532281 0.000464754 -0.000814926)
(0.00527785 0.00277308 -0.000815528)
(0.00529409 -0.000447391 -0.000799197)
(0.00513705 0.00399361 -0.000811959)
(0.00526521 -0.00154938 -0.000779612)
(0.0048875 0.00551348 -0.000809725)
(0.00520193 -0.00268752 -0.000756826)
(0.0044634 0.00733088 -0.000792923)
(0.00501699 -0.00360811 -0.000737635)
(0.00370606 0.0095189 -0.000731735)
(0.00451356 -0.00381089 -0.000745002)
(0.00183741 0.0123572 -0.000620847)
(0.00299082 -0.00243404 -0.000876154)
(-0.00324517 0.016723 -0.000337303)
(-0.00151927 0.00314421 -0.000503695)
(-0.010452 0.0256928 0.00236484)
(0.00667448 0.0111403 -0.00196512)
(0.025445 0.0455695 -0.015261)
(0.0708771 0.0222719 -0.0368054)
(0.0750803 0.187462 -0.0538446)
(0.0841013 0.0112138 -0.0734031)
(0.123402 -0.203824 0.0404595)
(0.0690388 -0.0528744 0.0175763)
(0.043482 -0.116001 0.0117997)
(0.00966031 -0.09513 0.0138612)
(-0.0013474 -0.0863555 0.00688507)
(-6.62042e-05 -0.0674467 0.0013363)
(0.00148177 -0.0516799 -0.00538616)
(0.00359145 -0.0407965 -0.00428863)
(0.00462451 -0.0379173 -0.00192014)
(0.00557761 -0.036671 -0.00095347)
(0.00632491 -0.0371491 -0.000636858)
(0.00696439 -0.0369553 -0.000434906)
(0.00744808 -0.0371743 -0.000354587)
(0.00749954 -0.0370325 -0.000395174)
(0.00750063 -0.0367086 -0.000505806)
(0.00726876 -0.036213 -0.000575033)
(0.00687441 -0.0352364 -0.000674061)
(0.00641065 -0.0341533 -0.000744247)
(0.00601542 -0.0323661 -0.00082505)
(0.00581442 -0.0307236 -0.000893364)
(0.00575269 -0.0288338 -0.000923379)
(0.00577004 -0.0269187 -0.000936742)
(0.00581402 -0.025189 -0.000940848)
(0.00587365 -0.023507 -0.000928437)
(0.00590365 -0.0218806 -0.000925233)
(0.00590283 -0.0203206 -0.000925975)
(0.00585279 -0.0187874 -0.00093703)
(0.00576668 -0.0172377 -0.000945132)
(0.00563188 -0.0156309 -0.000960003)
(0.00547867 -0.0139261 -0.000969654)
(0.0053243 -0.0121231 -0.000984251)
(0.00517231 -0.0102047 -0.00101136)
(0.00504216 -0.00818112 -0.00103411)
(0.00490286 -0.00601891 -0.00106187)
(0.00478079 -0.00369721 -0.00108047)
(0.00465075 -0.00131047 -0.00115457)
(0.0100164 0.0239922 0.00357132)
(0.0130809 0.0123687 0.00315937)
(0.00864745 0.0101635 0.000839408)
(0.0114294 0.00793731 0.000918442)
(0.00776069 0.00624123 0.000319991)
(0.00970962 0.00590925 0.000392083)
(0.0075761 0.0046463 0.000214641)
(0.00854324 0.00456183 0.000260273)
(0.00754053 0.00374696 0.000206088)
(0.00781619 0.00355959 0.00022988)
(0.00742172 0.00309143 0.000213968)
(0.0073789 0.00285156 0.000222907)
(0.00721699 0.00257544 0.000222698)
(0.00711162 0.00236707 0.000227413)
(0.00700733 0.00218266 0.000231895)
(0.00691564 0.00202919 0.000237184)
(0.00683361 0.00190031 0.000242949)
(0.00676051 0.00179275 0.000249115)
(0.00669531 0.00170325 0.000255599)
(0.00663705 0.00162899 0.000262342)
(0.00658479 0.00156752 0.000269271)
(0.00653769 0.00151675 0.00027635)
(0.00649497 0.00147488 0.000283548)
(0.00645594 0.00144056 0.00029083)
(0.00642002 0.00141258 0.000298184)
(0.00638669 0.00138977 0.000305578)
(0.0063555 0.00137125 0.00031297)
(0.00632603 0.00135636 0.000320365)
(0.00629788 0.00134455 0.000327733)
(0.00627067 0.00133541 0.000335019)
(0.00624408 0.00132862 0.000342211)
(0.00621781 0.00132394 0.000349249)
(0.00619172 0.00132127 0.000356185)
(0.00616552 0.00132064 0.000363153)
(0.00613872 0.00132131 0.000370087)
(0.00611071 0.00131759 0.00037741)
(0.0060828 0.00141467 0.000384599)
(0.00605018 0.00107608 0.000389184)
(0.00601194 0.00190451 0.00039982)
(0.00599182 0.00044013 0.000402962)
(0.00589435 0.00279455 0.000410144)
(0.00594158 -0.000522209 0.000420126)
(0.00568679 0.00403036 0.000417632)
(0.00589024 -0.00172178 0.000439433)
(0.00531877 0.00555749 0.000422908)
(0.00579061 -0.003045 0.00045549)
(0.00468934 0.00734942 0.000426826)
(0.00550179 -0.0043793 0.000454517)
(0.00361644 0.00952788 0.000425732)
(0.00464912 -0.00582142 0.000387532)
(0.00148151 0.012597 0.00051615)
(0.00240349 -0.00817921 -6.99141e-05)
(-0.00458351 0.0178148 0.00101621)
(-0.00393637 -0.0158778 -0.00223312)
(-0.0204475 0.0285327 0.00716621)
(-0.00485312 -0.0474457 0.00691062)
(-0.0286438 0.0527371 0.0265015)
(0.0239625 -0.0684678 -0.0230586)
(0.03938 0.218222 -0.0527946)
(0.139959 -0.00516858 0.00427597)
(0.195447 -0.190748 0.0783575)
(0.110722 0.0068917 0.0391134)
(0.0504917 -0.0895487 0.0155803)
(0.0275769 -0.0627693 0.0245181)
(-0.0105231 -0.0663595 0.0117917)
(-0.0133175 -0.048755 0.00150099)
(-0.00885202 -0.0378254 -0.0046897)
(-0.00231469 -0.0324404 -0.00029375)
(0.00214891 -0.0342204 0.00185018)
(0.0047438 -0.0349716 0.00222261)
(0.00634479 -0.0364202 0.00224262)
(0.00709906 -0.0364867 0.00215801)
(0.00764306 -0.0370072 0.00203137)
(0.00776306 -0.0369814 0.00189019)
(0.0075241 -0.0369966 0.00180381)
(0.00702959 -0.0367023 0.00168958)
(0.00622121 -0.035845 0.00156058)
(0.00528121 -0.0346794 0.00141387)
(0.00464617 -0.0327496 0.00127963)
(0.00440991 -0.0308697 0.00114714)
(0.004487 -0.0288349 0.0010994)
(0.00470476 -0.0268314 0.00108731)
(0.00495548 -0.0250879 0.00107661)
(0.00516148 -0.0234326 0.0010825)
(0.00525825 -0.0218616 0.00106469)
(0.00527408 -0.0203604 0.00104571)
(0.00516069 -0.0188717 0.00101279)
(0.00494235 -0.0173539 0.000983224)
(0.00461323 -0.0157641 0.000926835)
(0.00427337 -0.01404 0.000882921)
(0.00392131 -0.0121859 0.00082711)
(0.00353376 -0.0101924 0.000740789)
(0.00312197 -0.00812207 0.000665335)
(0.00265259 -0.00594068 0.00058235)
(0.00230699 -0.00364693 0.000487612)
(0.00202826 -0.00129934 0.000303722)
(0.0110199 0.0250014 0.00454785)
(0.0168147 0.0118091 0.00500435)
(0.00827777 0.00912486 0.00142588)
(0.0138194 0.00764118 0.00184675)
(0.0073445 0.00525261 0.000929783)
(0.0112658 0.00594818 0.00117268)
(0.00743025 0.00397286 0.000881653)
(0.0095459 0.00462955 0.00100148)
(0.00760946 0.00332425 0.000901771)
(0.00841424 0.00355366 0.000951442)
(0.00760185 0.00285514 0.000924603)
(0.00770636 0.00277336 0.000942463)
(0.00740948 0.0024458 0.000940943)
(0.00729119 0.00227612 0.000948832)
(0.00714251 0.00209791 0.000954995)
(0.00701733 0.00195772 0.000962549)
(0.00690438 0.00183962 0.00097059)
(0.00680343 0.00174188 0.000979101)
(0.00671317 0.00166111 0.000987969)
(0.0066323 0.00159452 0.000997123)
(0.00655955 0.00153971 0.00100648)
(0.00649378 0.00149468 0.001016)
(0.00643397 0.00145775 0.00102563)
(0.00637915 0.00142757 0.00103533)
(0.00632859 0.001403 0.00104509)
(0.00628156 0.00138301 0.00105489)
(0.0062374 0.00136685 0.0010647)
(0.00619559 0.00135394 0.00107453)
(0.00615568 0.00134377 0.00108436)
(0.00611728 0.00133595 0.00109419)
(0.00608004 0.00133015 0.001104)
(0.00604361 0.00132614 0.00111381)
(0.00600759 0.00132377 0.0011236)
(0.00597156 0.00132296 0.00113336)
(0.00593494 0.00132311 0.00114305)
(0.00589699 0.00131848 0.00115311)
(0.00585861 0.00141365 0.00116301)
(0.00581719 0.00106864 0.00116993)
(0.00576568 0.00190666 0.00118399)
(0.00573845 0.000403252 0.00118788)
(0.00561972 0.00280859 0.00120031)
(0.00566976 -0.000620589 0.00120774)
(0.00536906 0.00406056 0.00121254)
(0.00560611 -0.0019334 0.00122825)
(0.00493386 0.00558694 0.00122087)
(0.00550347 -0.00344938 0.00124187)
(0.00420163 0.00728513 0.00122244)
(0.00523021 -0.00506758 0.00121678)
(0.00300366 0.00899009 0.00123826)
(0.0044199 -0.00670272 0.000997241)
(0.00103063 0.0108231 0.0013797)
(0.00234513 -0.00949378 -6.64066e-05)
(-0.00311148 0.0136481 0.00293854)
(-0.00184448 -0.0199121 -0.00338352)
(-0.0091334 0.0153058 0.00852018)
(-0.00707729 -0.0623346 0.0105117)
(-0.0125305 0.015238 0.0286031)
(0.00608562 -0.158574 0.00862389)
(0.0167935 0.269804 -0.0876941)
(0.142965 -0.0297656 0.0514261)
(0.207567 -0.1836 0.0990465)
(0.101858 0.0464324 0.0328431)
(0.0420056 -0.0721735 0.018032)
(0.0110135 0.0110025 0.0225928)
(-0.0228008 -0.0225462 0.0109523)
(-0.0205709 -0.00862325 0.00443363)
(-0.0158375 -0.0200529 -0.000617715)
(-0.00484253 -0.0233894 0.00622193)
(0.000428565 -0.0300417 0.00546409)
(0.00320773 -0.0317116 0.00442214)
(0.00472686 -0.033877 0.00388173)
(0.0057458 -0.0343473 0.00344894)
(0.00642656 -0.035419 0.00314688)
(0.00667701 -0.0359244 0.00294469)
(0.00633036 -0.0365741 0.00274424)
(0.00539582 -0.0367771 0.00241051)
(0.00405483 -0.0362402 0.00230505)
(0.00246295 -0.0351628 0.00203383)
(0.00142942 -0.0329684 0.00182471)
(0.00104089 -0.0307206 0.00161513)
(0.001283 -0.0284445 0.00160515)
(0.00163212 -0.0263287 0.00170082)
(0.00194091 -0.0245517 0.00177466)
(0.00234162 -0.0230139 0.00178862)
(0.00260211 -0.021661 0.00175501)
(0.00276916 -0.0203991 0.00176681)
(0.00279562 -0.0191549 0.00181341)
(0.00273246 -0.0178262 0.00187129)
(0.00243707 -0.0163289 0.0018933)
(0.00209305 -0.0146404 0.00193525)
(0.00172639 -0.0128986 0.00191127)
(0.00147199 -0.0110238 0.00190017)
(0.00130405 -0.00907553 0.00188035)
(0.00105228 -0.00688232 0.00178069)
(0.000968214 -0.00442929 0.00165985)
(0.000850269 -0.00165161 0.00139037)
(0.0108611 0.0252667 0.00552851)
(0.0206832 0.0108578 0.00681959)
(0.00623131 0.00753827 0.0018412)
(0.0155372 0.00767375 0.00280823)
(0.00559268 0.00399397 0.00141614)
(0.0121227 0.00631282 0.00196703)
(0.00619483 0.00310675 0.00145042)
(0.0098874 0.00489437 0.00173932)
(0.00669054 0.00273328 0.00151748)
(0.00834639 0.00365483 0.00165388)
(0.00685947 0.00248412 0.00157139)
(0.00731074 0.00274851 0.00162358)
(0.00674439 0.00225028 0.00160639)
(0.00667504 0.00218443 0.00162324)
(0.00645556 0.00199371 0.00162808)
(0.00629878 0.00187515 0.00163781)
(0.00615294 0.00176989 0.00164781)
(0.00602287 0.00168438 0.00165874)
(0.00590652 0.0016144 0.00167029)
(0.00580215 0.00155723 0.00168238)
(0.00570806 0.00151053 0.00169487)
(0.00562281 0.00147244 0.00170765)
(0.0055451 0.0014414 0.00172066)
(0.00547372 0.0014161 0.00173384)
(0.00540767 0.00139553 0.00174714)
(0.00534606 0.0013789 0.00176053)
(0.00528815 0.00136553 0.001774)
(0.0052333 0.00135486 0.00178753)
(0.00518091 0.00134646 0.00180107)
(0.00513047 0.00134 0.00181458)
(0.00508155 0.00133518 0.00182805)
(0.0050337 0.00133181 0.00184147)
(0.00498652 0.00132971 0.00185486)
(0.0049395 0.00132873 0.00186817)
(0.00489207 0.00132813 0.00188139)
(0.00484318 0.00132201 0.00189494)
(0.00479376 0.00141587 0.00190817)
(0.00474253 0.00106258 0.00191844)
(0.00468012 0.00191189 0.00193664)
(0.00464351 0.000365757 0.00194207)
(0.00451369 0.00282658 0.00196195)
(0.00455671 -0.000724251 0.00196627)
(0.00424261 0.00409948 0.0019806)
(0.00448209 -0.00215802 0.00198944)
(0.00378824 0.00564663 0.00199559)
(0.0043818 -0.00387953 0.00200193)
(0.00305017 0.00735915 0.00200136)
(0.00410036 -0.00585142 0.0019697)
(0.00194183 0.00920391 0.00201922)
(0.0030165 -0.00834065 0.00170043)
(0.000506794 0.011618 0.00247029)
(-0.000143655 -0.0126355 0.000593416)
(-0.00253669 0.0154375 0.00455487)
(-0.0068298 -0.02455 7.39131e-05)
(-0.00550456 0.0233763 0.0126695)
(-0.00328962 -0.0566547 0.0211061)
(-0.00460354 0.0241171 0.0745902)
(-0.0524492 -0.15568 0.0640685)
(0.0352536 0.239798 -0.176151)
(0.142139 -0.0385127 0.0542803)
(0.21308 -0.1765 0.110796)
(0.101753 0.0506321 0.0382648)
(0.060131 -0.0574165 0.026946)
(0.000869154 0.0471718 0.00717421)
(-0.00773075 -0.00357292 0.00867316)
(-0.00965224 0.020729 0.00332508)
(-0.00449003 -0.00647733 0.00719567)
(-0.00245396 -0.00626868 0.0117852)
(3.28901e-07 -0.0155174 0.0122669)
(0.00116692 -0.0182989 0.0115251)
(0.00226459 -0.0225656 0.0093349)
(0.00334168 -0.0233069 0.00754865)
(0.00412757 -0.0254054 0.00580633)
(0.00442636 -0.026729 0.004894)
(0.00386014 -0.0283755 0.00407689)
(0.00234386 -0.0302984 0.00330984)
(0.000199545 -0.0309911 0.00320708)
(-0.00235361 -0.0310161 0.00252343)
(-0.00385345 -0.0289672 0.00239261)
(-0.00410424 -0.027199 0.00202672)
(-0.00322261 -0.0254793 0.00236105)
(-0.00239159 -0.0240764 0.00266705)
(-0.00132427 -0.0230688 0.00273004)
(-0.000531014 -0.0219962 0.00262714)
(-0.00029222 -0.0210179 0.00227881)
(-0.000172075 -0.0198452 0.00204742)
(-0.000490695 -0.0186462 0.00175087)
(-0.000931399 -0.0174685 0.00156214)
(-0.00163493 -0.0162413 0.001096)
(-0.00206925 -0.0146178 0.00103794)
(-0.0026035 -0.0126822 0.00079754)
(-0.00313007 -0.0104201 0.000466621)
(-0.00378508 -0.00841859 0.000573708)
(-0.00477901 -0.00618746 0.000730078)
(-0.00558966 -0.00396836 0.00114226)
(-0.00673039 -0.00157899 0.00103217)
(0.0096297 0.0234903 0.00676424)
(0.0244918 0.00988037 0.00843689)
(0.00281721 0.00547487 0.0024947)
(0.0162678 0.00845407 0.00419369)
(0.00284099 0.00255675 0.00222283)
(0.0120499 0.00715769 0.00323327)
(0.00407872 0.00207243 0.00237251)
(0.00938025 0.00538963 0.00293801)
(0.00489805 0.00197474 0.00250616)
(0.0075027 0.00387031 0.0027987)
(0.00524298 0.00195983 0.00260734)
(0.00619073 0.00278034 0.00273436)
(0.00525835 0.00193636 0.00267702)
(0.00535598 0.00210279 0.0027216)
(0.00504132 0.00183679 0.00272306)
(0.00489075 0.0017682 0.00274081)
(0.00473145 0.00167597 0.00275606)
(0.00459133 0.00160666 0.00277297)
(0.00446608 0.00155061 0.00279071)
(0.00435391 0.00150534 0.0028092)
(0.00425287 0.00146876 0.00282828)
(0.00416137 0.0014393 0.00284779)
(0.00407806 0.00141553 0.00286758)
(0.00400165 0.00139633 0.00288755)
(0.00393102 0.00138084 0.00290763)
(0.00386522 0.00136841 0.00292781)
(0.00380344 0.00135848 0.00294811)
(0.00374497 0.00135061 0.00296856)
(0.00368922 0.00134444 0.00298896)
(0.0036358 0.00133969 0.00300916)
(0.00358424 0.00133612 0.00302917)
(0.0035341 0.00133351 0.00304904)
(0.00348497 0.00133168 0.00306877)
(0.0034364 0.00133048 0.00308835)
(0.00338787 0.00132909 0.00310774)
(0.00333849 0.00132137 0.00312719)
(0.00328903 0.00141426 0.00314596)
(0.00323703 0.00105337 0.00316198)
(0.00318042 0.00191277 0.00318622)
(0.00313672 0.000327761 0.00319601)
(0.00302954 0.00284047 0.0032248)
(0.00304966 -0.000821731 0.00322979)
(0.00279381 0.00413485 0.00326057)
(0.0029799 -0.00236011 0.00326271)
(0.00241109 0.00569619 0.00329247)
(0.00290446 -0.00424493 0.00328893)
(0.0017923 0.00731168 0.00330823)
(0.00267543 -0.00638081 0.00327563)
(0.000943774 0.00844625 0.00333506)
(0.0015376 -0.00854289 0.00301301)
(0.000376169 0.00815236 0.00378245)
(-0.00168202 -0.0123219 0.00240882)
(-0.000864635 0.00567011 0.00598793)
(-0.00872954 -0.0236363 0.00341481)
(-0.00529782 -0.006404 0.0201917)
(-0.0161663 -0.0758761 0.0521975)
(-0.00703332 -0.0231344 0.117356)
(-0.0244385 -0.185211 0.123964)
(0.0594624 0.20865 -0.128483)
(0.118913 -0.0567696 0.0800492)
(0.197331 -0.138115 0.116752)
(0.0713781 0.0575633 0.023264)
(0.039944 0.00399121 0.0185561)
(-0.0098644 0.0619758 0.00329169)
(-0.000496473 0.0444292 0.00781002)
(-0.00749454 0.0526846 0.00673719)
(-0.00374249 0.0473295 0.00895654)
(-0.00526891 0.0448345 0.0101687)
(-0.00299625 0.0372609 0.0106684)
(-0.00144302 0.0345215 0.00941941)
(-0.000780398 0.0278905 0.00821402)
(0.00135994 0.0264012 0.00639618)
(0.00392957 0.0214943 0.00562345)
(0.00509592 0.0196162 0.00550132)
(0.00535266 0.0152878 0.00580242)
(0.00298058 0.0103668 0.00501925)
(-0.00101111 0.0063131 0.00545719)
(-0.00618913 0.00079749 0.00371806)
(-0.00844514 -0.00102336 0.00207753)
(-0.00845045 -0.00380985 0.000912113)
(-0.00745755 -0.00490732 0.00232766)
(-0.0063795 -0.00663136 0.00369584)
(-0.00501241 -0.00823345 0.00418372)
(-0.00394817 -0.00928639 0.00381337)
(-0.00348905 -0.0107576 0.00339707)
(-0.00315561 -0.0111068 0.00374981)
(-0.00265046 -0.0117399 0.00404817)
(-0.00238995 -0.011578 0.00414462)
(-0.00322861 -0.0119718 0.00362312)
(-0.00424861 -0.0113673 0.00382657)
(-0.00545593 -0.01092 0.00339147)
(-0.00537011 -0.010116 0.00358556)
(-0.00538857 -0.00935957 0.00326781)
(-0.00617687 -0.00788687 0.00239095)
(-0.00586437 -0.00605321 0.00149701)
(-0.00646468 -0.00277713 -0.000581023)
(0.0045024 0.0210218 0.00815055)
(0.0276577 0.0102208 0.00961145)
(-0.00349995 0.00321416 0.00366202)
(0.0150647 0.0104508 0.0060281)
(-0.00189421 0.0010286 0.00375159)
(0.0100747 0.00853893 0.00521982)
(0.000123584 0.000915803 0.00408696)
(0.00700941 0.0061076 0.00491814)
(0.00121575 0.00110779 0.0043086)
(0.0047812 0.00419701 0.00475966)
(0.00166854 0.0013439 0.00445051)
(0.00318869 0.00290558 0.00467757)
(0.00175793 0.00156279 0.00454708)
(0.00211647 0.00210282 0.00464013)
(0.0016056 0.00166382 0.00461438)
(0.0014861 0.00169582 0.00464502)
(0.00129078 0.00160026 0.00465949)
(0.00113008 0.00154734 0.00468021)
(0.000987911 0.00150405 0.00470245)
(0.000861837 0.00146994 0.00472652)
(0.000748904 0.00144279 0.00475203)
(0.000647373 0.00142119 0.00477798)
(0.000555754 0.00140404 0.00480387)
(0.000472325 0.00139036 0.00482985)
(0.000395776 0.00137944 0.00485592)
(0.000324993 0.00137067 0.00488204)
(0.000258992 0.00136361 0.0049081)
(0.000196997 0.00135812 0.00493391)
(0.000138351 0.00135406 0.00495946)
(8.2507e-05 0.00135107 0.00498492)
(2.89899e-05 0.00134884 0.0050103)
(-2.26842e-05 0.00134713 0.00503548)
(-7.29862e-05 0.00134583 0.00506037)
(-0.000122302 0.00134479 0.00508493)
(-0.000171094 0.00134341 0.0051091)
(-0.000220074 0.00133516 0.00513327)
(-0.000268469 0.00142645 0.00515663)
(-0.000322076 0.0010626 0.00517685)
(-0.000368154 0.0019263 0.00520615)
(-0.000424213 0.00031571 0.00521665)
(-0.00049793 0.00286463 0.00525274)
(-0.000512282 -0.000875799 0.00525357)
(-0.000688516 0.00418021 0.00529543)
(-0.000578036 -0.00248797 0.00528838)
(-0.000976152 0.00577353 0.00533292)
(-0.00062373 -0.00450966 0.0053185)
(-0.0014083 0.00742229 0.00536684)
(-0.000679523 -0.00688513 0.00532245)
(-0.0020241 0.00839824 0.00544334)
(-0.00088901 -0.00942603 0.00512612)
(-0.00279036 0.00756856 0.00576029)
(-0.00140093 -0.0140876 0.00460863)
(-0.00325562 0.00302573 0.00716027)
(-0.0016227 -0.0264928 0.00457717)
(-0.003434 -0.0156872 0.0103985)
(-0.0152695 -0.0734297 0.0242377)
(-0.0211129 -0.0692103 0.0492137)
(-0.0312268 -0.161042 0.0491423)
(0.0552938 0.107018 -0.108751)
(0.0688042 -0.0602388 0.0584765)
(0.156906 -0.0629068 0.0707145)
(0.0277952 0.0951815 0.00790535)
(0.0137187 0.0832375 0.00598078)
(-0.0130361 0.109959 -0.000293729)
(-0.0126984 0.115277 0.000530985)
(-0.0127764 0.118031 0.00413948)
(-0.0079157 0.120716 0.00668686)
(-0.00534532 0.11765 0.00974581)
(-0.00294825 0.116522 0.0104872)
(-0.00136584 0.11176 0.0107351)
(0.00060058 0.109836 0.0107489)
(0.000344934 0.106195 0.00961413)
(0.0017755 0.105874 0.00977226)
(0.00113668 0.102276 0.00995387)
(0.00332025 0.100265 0.0113374)
(0.00323018 0.0928076 0.0130384)
(0.00247738 0.0857402 0.0144548)
(-0.00222982 0.0722293 0.01278)
(-0.00536697 0.0672261 0.00962364)
(-0.00729634 0.0635438 0.00765465)
(-0.00840549 0.0619435 0.00760869)
(-0.00807708 0.0592859 0.00792889)
(-0.00754044 0.0570667 0.00735097)
(-0.00790058 0.0543178 0.00676123)
(-0.00891518 0.0505852 0.00543825)
(-0.00986197 0.0460993 0.0043123)
(-0.0107617 0.0413879 0.0038888)
(-0.0110144 0.0362897 0.00425096)
(-0.0116289 0.0293213 0.000405013)
(-0.0111954 0.0242448 0.0017342)
(-0.0119943 0.016459 -0.00143178)
(-0.0123711 0.0106329 -0.00299434)
(-0.0133874 0.00555594 -0.00237376)
(-0.0156011 -2.6249e-05 -0.00129962)
(-0.0169713 -0.00273222 0.00179058)
(-0.0220747 -0.00145939 -0.000303759)
(-0.000852043 0.0159579 0.00964288)
(0.0313701 0.0145011 0.00788088)
(-0.0110288 0.00172638 0.00490793)
(0.0136776 0.0142665 0.0064868)
(-0.00793344 -0.000313965 0.00555325)
(0.0071221 0.0105183 0.00652742)
(-0.00523066 -0.000334148 0.00606463)
(0.00320703 0.00697794 0.00656902)
(-0.00390332 2.55687e-05 0.00633308)
(0.000588406 0.0045455 0.00667154)
(-0.00333005 0.000545805 0.00651683)
(-0.00122171 0.00302106 0.00675488)
(-0.0031155 0.00101366 0.00669117)
(-0.00242008 0.00208698 0.00684392)
(-0.00312744 0.00134618 0.00685453)
(-0.00312294 0.00158671 0.00694567)
(-0.00332628 0.00145248 0.00700014)
(-0.00345846 0.00143512 0.0070641)
(-0.00357527 0.00141231 0.00712363)
(-0.00367629 0.00139556 0.00718109)
(-0.0037642 0.00138354 0.00723596)
(-0.00383972 0.001375 0.00729008)
(-0.00390433 0.00136905 0.00734401)
(-0.00395998 0.00136468 0.00739731)
(-0.004008 0.00136158 0.00744987)
(-0.00404954 0.00135951 0.00750171)
(-0.00408559 0.00135826 0.00755289)
(-0.00411688 0.0013576 0.00760351)
(-0.0041442 0.00135734 0.00765334)
(-0.00416826 0.00135739 0.00770216)
(-0.00418954 0.00135769 0.00775008)
(-0.00420847 0.00135811 0.0077972)
(-0.00422551 0.0013585 0.00784354)
(-0.00424101 0.00135864 0.0078891)
(-0.0042554 0.00135796 0.0079338)
(-0.00426933 0.00135007 0.0079778)
(-0.00428088 0.00143922 0.00801986)
(-0.00430673 0.0010765 0.00806055)
(-0.00429529 0.00194344 0.00810689)
(-0.004348 0.000310259 0.00814004)
(-0.00432283 0.00290047 0.00818981)
(-0.00437835 -0.000923836 0.00821563)
(-0.0043827 0.00425196 0.0082695)
(-0.00438844 -0.00260203 0.00828756)
(-0.0044841 0.0058993 0.00834231)
(-0.00436794 -0.00469424 0.00835214)
(-0.00461112 0.00762352 0.00839554)
(-0.0042527 -0.00710598 0.00839278)
(-0.00475132 0.0088122 0.00841386)
(-0.00358246 -0.0096356 0.0082202)
(-0.00476811 0.00861133 0.00860018)
(-0.00144527 -0.0137328 0.00738381)
(-0.00240207 0.00611653 0.00960003)
(0.00600406 -0.022855 0.00665941)
(0.00670315 -0.00377329 0.0130092)
(0.019137 -0.0544032 0.0173038)
(0.00263442 -0.0603693 0.0199906)
(-0.0453534 -0.105955 0.0412078)
(-0.0112102 -0.080446 -0.125025)
(0.0171602 -0.0910374 0.0250199)
(0.0302226 0.138811 -0.017108)
(-0.0216219 0.264903 -0.00228686)
(-0.0129161 0.293788 0.00682812)
(-0.0151731 0.302735 0.00996898)
(-0.0105447 0.304706 0.0135301)
(-0.00923792 0.302169 0.0156534)
(-0.00729508 0.302249 0.0182432)
(-0.00639066 0.301659 0.0187915)
(-0.00493084 0.300497 0.0191585)
(-0.0020364 0.302006 0.017964)
(0.00104403 0.305168 0.0162156)
(0.00375216 0.305188 0.0148815)
(0.00924264 0.306481 0.0140612)
(0.0143892 0.304492 0.0156012)
(0.019192 0.299266 0.0197772)
(0.0184144 0.293873 0.0244108)
(0.0140378 0.287519 0.0283681)
(0.00506206 0.278613 0.029292)
(-0.00556396 0.265846 0.0283951)
(-0.0106296 0.259576 0.0315254)
(-0.0108618 0.254687 0.0341681)
(-0.00749872 0.248738 0.0324294)
(-0.00511543 0.242896 0.0292731)
(-0.00237507 0.233601 0.0277127)
(0.000655985 0.222811 0.0249507)
(0.00270118 0.20938 0.0218825)
(0.00492465 0.195213 0.0182467)
(0.00508728 0.176846 0.0139341)
(0.00377576 0.159453 0.00853217)
(0.00144358 0.142886 0.00365388)
(-0.000872969 0.127557 0.000117314)
(-0.00266574 0.111635 -0.00337279)
(-0.00524145 0.0926296 -0.0086036)
(-0.00948844 0.0727216 -0.0148476)
(-0.0153802 0.0438548 -0.0264529)
(-0.019369 0.0188289 -0.0369328)
(-0.0129411 0.00695532 -0.00458445)
(0.0333733 0.0208105 0.0063906)
(-0.0192729 -0.00234401 0.000410006)
(0.0125375 0.0191116 0.00307531)
(-0.0137575 -0.00278096 0.00287866)
(0.00413285 0.0127373 0.00347236)
(-0.0108073 -0.00218538 0.00351751)
(-0.0010221 0.00797506 0.00377455)
(-0.00958437 -0.00115893 0.00371752)
(-0.00436259 0.00503153 0.00390666)
(-0.0091137 -0.000223231 0.00383391)
(-0.00656188 0.00328607 0.00400775)
(-0.00895025 0.000555701 0.00395723)
(-0.00799539 0.002233 0.00409247)
(-0.00896917 0.0011268 0.00408045)
(-0.00886206 0.00164259 0.00416562)
(-0.00915591 0.00141699 0.00419424)
(-0.00929963 0.00145257 0.00424444)
(-0.00943216 0.00144639 0.00428836)
(-0.009544 0.001445 0.00433215)
(-0.00963777 0.00144524 0.00437542)
(-0.00971713 0.00144634 0.00441813)
(-0.00978518 0.00144814 0.00446026)
(-0.00984355 0.00145036 0.00450185)
(-0.00989363 0.00145282 0.00454285)
(-0.00993657 0.0014554 0.00458331)
(-0.00997334 0.00145801 0.00462326)
(-0.0100047 0.00146055 0.00466282)
(-0.0100314 0.00146298 0.00470202)
(-0.0100541 0.00146525 0.00474081)
(-0.0100733 0.00146732 0.00477923)
(-0.0100895 0.00146914 0.00481734)
(-0.0101031 0.00147057 0.00485518)
(-0.0101143 0.00147146 0.0048928)
(-0.0101234 0.00147112 0.00493021)
(-0.0101314 0.00146486 0.00496783)
(-0.0101343 0.00154507 0.00500394)
(-0.010161 0.00120069 0.00504103)
(-0.0101188 0.00204 0.00507715)
(-0.0101979 0.000443122 0.00511469)
(-0.0100936 0.00298141 0.00515055)
(-0.0102269 -0.000773326 0.00518661)
(-0.0100651 0.0043061 0.00522875)
(-0.0102368 -0.00241376 0.0052543)
(-0.0100169 0.00591667 0.00531294)
(-0.0102031 -0.00442855 0.00531434)
(-0.00990253 0.00763592 0.00539659)
(-0.0100054 -0.00669877 0.00536083)
(-0.00969626 0.00919055 0.00546503)
(-0.00900798 -0.00899421 0.00530869)
(-0.00942265 0.0107933 0.00563738)
(-0.0060465 -0.0116547 0.0047871)
(-0.00675666 0.0148991 0.00728564)
(0.00242807 -0.0174669 0.00464675)
(0.00741236 0.0218528 0.0232811)
(0.0393027 -0.0548222 0.038688)
(0.0267146 -0.0401455 0.0752778)
(0.0127874 -0.140645 0.0883014)
(-0.068516 -0.0518775 -0.160564)
(-0.0443333 -0.105612 0.0174107)
(-0.107834 0.0867533 -0.0430071)
(-0.050151 0.227957 -0.00700752)
(-0.0382201 0.242776 0.0044494)