/*--------------------------------*- C++ -*----------------------------------*\
| =========                 |                                                 |
| \\      /  F ield         | OpenFOAM: The Open Source CFD Toolbox           |
|  \\    /   O peration     | Version:  2.3.0                                 |
|   \\  /    A nd           | Web:      www.OpenFOAM.org                      |
|    \\/     M anipulation  |                                                 |
\*---------------------------------------------------------------------------*/
FoamFile
{
    version     2.0;
    format      ascii;
    class       volVectorField;
    location    "2";
    object      U.waterMean;
}
// * * * * * * * * * * * * * * * * * * * * * * * * * * * * * * * * * * * * * //

dimensions      [0 1 -1 0 0 0 0];

internalField   nonuniform List<vector> 
6144
(
(0.00173204 0.0115875 -0.000342257)
(0.00182928 0.00733217 -0.000733278)
(0.00184682 0.0062432 -0.00124358)
(0.00187953 0.0049152 -0.00139274)
(0.00177868 0.00406133 -0.00148223)
(0.00177458 0.00342197 -0.0015247)
(0.00170541 0.00289995 -0.0015419)
(0.00168759 0.00250789 -0.00155052)
(0.00165124 0.00217017 -0.00155048)
(0.00163087 0.00190022 -0.00155003)
(0.00160756 0.00167026 -0.00154921)
(0.00158922 0.0014795 -0.00154818)
(0.00157287 0.00131869 -0.00154655)
(0.00155899 0.00118402 -0.00154475)
(0.00154699 0.00107114 -0.00154283)
(0.00153665 0.000976816 -0.00154088)
(0.00152773 0.00089816 -0.00153895)
(0.00152005 0.000832727 -0.00153706)
(0.00151342 0.000778387 -0.0015352)
(0.00150769 0.000733323 -0.00153338)
(0.00150271 0.000696001 -0.00153161)
(0.00149837 0.000665118 -0.00152987)
(0.00149457 0.000639588 -0.00152817)
(0.00149121 0.000618471 -0.0015265)
(0.00148823 0.000601012 -0.00152486)
(0.00148556 0.000586544 -0.00152325)
(0.00148312 0.000574499 -0.00152167)
(0.0014809 0.000564483 -0.00152012)
(0.00147887 0.00055618 -0.0015186)
(0.001477 0.000549231 -0.00151709)
(0.00147529 0.000543372 -0.00151558)
(0.0014737 0.000538114 -0.00151404)
(0.00147217 0.000533837 -0.00151249)
(0.00147074 0.000525812 -0.00151089)
(0.00146982 0.000549183 -0.00150907)
(0.00146657 0.000445182 -0.00150832)
(0.00146982 0.000701263 -0.00150482)
(0.0014608 0.000160521 -0.00150642)
(0.00147158 0.00112608 -0.00150013)
(0.00145503 -0.000459456 -0.00150395)
(0.0014753 0.0019475 -0.00149366)
(0.00145205 -0.0015362 -0.00149841)
(0.00147504 0.00328053 -0.00149283)
(0.00145664 -0.00317454 -0.0014838)
(0.0014718 0.00521344 -0.00149659)
(0.0014678 -0.00544951 -0.0014648)
(0.00146339 0.00779207 -0.00149465)
(0.00150267 -0.0084312 -0.00144137)
(0.00139367 0.0111178 -0.00146967)
(0.00157833 -0.0123815 -0.00138541)
(0.00114443 0.0155271 -0.00134563)
(0.00148622 -0.0173982 -0.00116048)
(0.000332789 0.021988 -0.00116919)
(-9.35085e-05 -0.0232152 -0.00123222)
(-0.00454135 0.0363507 -0.00396236)
(-0.00474426 -0.0151718 -0.00654473)
(-0.00334657 0.0811026 -0.00708343)
(0.0155115 0.00509698 0.00972095)
(0.0354816 0.271397 0.0249947)
(-0.0208123 -0.238535 -0.00657073)
(-0.00771639 -0.158871 -0.00942437)
(0.0403405 0.15861 0.0255081)
(0.0413285 -0.130094 0.0147188)
(0.0193578 0.0144033 -0.00168314)
(0.00683762 -0.0848782 -0.00920938)
(0.00574914 0.0123158 -0.00809241)
(0.00120932 -0.0561512 -0.00875063)
(0.00168534 0.0129905 -0.00445547)
(0.00282792 -0.0404032 -0.00276864)
(0.00254691 0.00197441 -0.00229334)
(0.00266992 -0.031427 -0.00220164)
(0.00246809 -0.0053194 -0.00220799)
(0.0025449 -0.0247705 -0.00229154)
(0.0024343 -0.00986414 -0.00233239)
(0.00251984 -0.0197186 -0.00240371)
(0.00244136 -0.0126485 -0.00243902)
(0.00247353 -0.0162761 -0.00247612)
(0.00242821 -0.013898 -0.00249091)
(0.00243041 -0.0141998 -0.00249694)
(0.00241953 -0.0137904 -0.00249808)
(0.00239887 -0.0132233 -0.00249903)
(0.00238491 -0.0127853 -0.00249602)
(0.00237056 -0.0123213 -0.00249463)
(0.00235161 -0.0118069 -0.00249275)
(0.00232927 -0.0112597 -0.00249187)
(0.00230162 -0.0106762 -0.00249046)
(0.00227163 -0.0100493 -0.00248711)
(0.00223326 -0.00937006 -0.00248294)
(0.00218633 -0.00862756 -0.0024764)
(0.002129 -0.00780827 -0.00246574)
(0.00206067 -0.00690161 -0.00245067)
(0.00198407 -0.00589132 -0.00242953)
(0.0019024 -0.00477176 -0.00240451)
(0.00181747 -0.00353052 -0.00237994)
(0.00174951 -0.00218122 -0.00235879)
(0.00169519 -0.000744823 -0.00234742)
(0.0043991 0.0137348 0.0011867)
(0.00485782 0.00803607 0.000704873)
(0.0044976 0.00677339 -8.96596e-05)
(0.0046832 0.00528534 -0.000285269)
(0.00418093 0.00435784 -0.000440148)
(0.00425888 0.00371829 -0.000489535)
(0.00395897 0.00314535 -0.00052367)
(0.00394711 0.00275889 -0.000536)
(0.00379523 0.0023894 -0.000541877)
(0.00374121 0.00211547 -0.000544548)
(0.00366041 0.00186879 -0.000543428)
(0.00360428 0.00167003 -0.000542597)
(0.00355073 0.0014999 -0.000540556)
(0.00350533 0.00135846 -0.000538547)
(0.00346532 0.00123986 -0.000536323)
(0.00343034 0.00114098 -0.00053404)
(0.0033997 0.00105868 -0.000531704)
(0.00337283 0.000990326 -0.000529323)
(0.0033492 0.000933645 -0.000526913)
(0.00332835 0.000886724 -0.000524485)
(0.00330984 0.00084793 -0.000522029)
(0.00329333 0.000815863 -0.000519561)
(0.00327849 0.000789382 -0.000517084)
(0.00326505 0.000767498 -0.000514603)
(0.00325278 0.000749437 -0.000512128)
(0.00324151 0.000734572 -0.000509659)
(0.00323108 0.000722314 -0.000507191)
(0.00322133 0.000712163 -0.000504732)
(0.00321216 0.00070373 -0.00050224)
(0.0032035 0.000696657 -0.000499704)
(0.00319528 0.000690691 -0.000497118)
(0.00318744 0.000685473 -0.000494481)
(0.00317987 0.000681187 -0.000491809)
(0.0031725 0.000674193 -0.000489079)
(0.00316663 0.000694827 -0.000486164)
(0.00315526 0.000595939 -0.000484332)
(0.00315912 0.000847594 -0.000479594)
(0.00313379 0.000305225 -0.000480265)
(0.00315653 0.00128712 -0.000473453)
(0.00310973 -0.000341317 -0.000475544)
(0.00315645 0.00214951 -0.000468742)
(0.00308444 -0.00147696 -0.000468807)
(0.00315886 0.00356231 -0.000466651)
(0.00305687 -0.00321923 -0.000459108)
(0.00316654 0.00563123 -0.000463857)
(0.00302828 -0.00565452 -0.000449707)
(0.00317709 0.00843928 -0.000446154)
(0.00302377 -0.00885897 -0.000443644)
(0.00314157 0.0121124 -0.000346273)
(0.00308353 -0.0132092 -0.000419001)
(0.00281941 0.0170517 7.6309e-05)
(0.0032217 -0.0194516 -5.38826e-05)
(0.00192896 0.0232763 0.00120831)
(0.00236539 -0.0297108 0.0016474)
(-0.0027206 0.0305341 0.0035275)
(-0.0042395 -0.0531924 0.00123358)
(-0.0191756 0.0406605 0.0148614)
(-0.0269312 -0.124386 0.0239331)
(0.042859 0.128492 -0.0653126)
(-0.0123617 -0.116791 -0.00187912)
(0.0210814 -0.276957 0.0519821)
(0.0381761 0.0349276 0.0215969)
(0.0402546 -0.125063 0.00305493)
(0.000647101 0.0436747 -0.000727043)
(-0.00467872 -0.0894562 -0.000712659)
(-0.00322054 0.0214115 -0.00573718)
(-0.000755848 -0.056467 -0.00732101)
(0.00050426 0.00706252 -0.00316781)
(0.00299894 -0.0425696 -0.00215459)
(0.00296764 -0.000787973 -0.00103875)
(0.00387263 -0.0324546 -0.000605808)
(0.00375571 -0.00579892 -0.000295141)
(0.00421349 -0.024889 -0.000280722)
(0.0040366 -0.00993238 -0.000289536)
(0.00433854 -0.0197082 -0.000363677)
(0.0041937 -0.0127081 -0.000388023)
(0.00431414 -0.0162923 -0.000430097)
(0.00422245 -0.0139711 -0.000439436)
(0.00421895 -0.0142542 -0.000460901)
(0.00419205 -0.0138543 -0.000467387)
(0.00412984 -0.0132969 -0.000478106)
(0.00407986 -0.0128557 -0.000489891)
(0.00403242 -0.0123943 -0.000499341)
(0.00397761 -0.011885 -0.000505392)
(0.00391361 -0.0113433 -0.000512942)
(0.00383638 -0.0107644 -0.00052062)
(0.00374704 -0.010145 -0.000529571)
(0.00364055 -0.00947842 -0.00053896)
(0.00351213 -0.00875033 -0.000546714)
(0.00336318 -0.00794836 -0.000553421)
(0.00319914 -0.00705942 -0.000559072)
(0.00302319 -0.00606435 -0.000565546)
(0.00285191 -0.00495534 -0.000571298)
(0.00268043 -0.00369916 -0.000584711)
(0.00255173 -0.00230713 -0.000596014)
(0.0024454 -0.000794538 -0.000621099)
(0.00572313 0.015118 0.00233353)
(0.0067235 0.00803195 0.00179133)
(0.00555564 0.00661538 0.000622218)
(0.00620604 0.00510618 0.000470339)
(0.00509138 0.00410855 0.000218294)
(0.0054527 0.0035976 0.000187841)
(0.00480003 0.00296008 0.000123159)
(0.00490335 0.002669 0.000122756)
(0.00458019 0.00226837 0.000106988)
(0.00454159 0.00204075 0.000110824)
(0.00438256 0.0017903 0.00010813)
(0.0043016 0.00161091 0.000111266)
(0.00420861 0.00144753 0.000113205)
(0.00413442 0.00131569 0.000116392)
(0.00406765 0.0012042 0.000119714)
(0.00400945 0.00111175 0.000123316)
(0.00395835 0.00103492 0.000127093)
(0.00391346 0.00097127 0.000131008)
(0.00387388 0.000918628 0.000135032)
(0.00383883 0.000875153 0.000139143)
(0.00380764 0.000839294 0.000143309)
(0.00377969 0.000809743 0.000147519)
(0.00375446 0.00078543 0.000151765)
(0.00373154 0.00076548 0.00015603)
(0.00371054 0.000749104 0.000160312)
(0.00369116 0.000735608 0.000164598)
(0.00367314 0.000724461 0.000168876)
(0.00365623 0.000715253 0.000173149)
(0.00364024 0.000707614 0.000177377)
(0.00362502 0.000701238 0.000181543)
(0.00361046 0.000695902 0.000185659)
(0.00359647 0.000691303 0.000189725)
(0.00358294 0.000687497 0.000193738)
(0.00356989 0.000681398 0.000197759)
(0.00355785 0.000701119 0.000201952)
(0.00354281 0.000605677 0.000204761)
(0.00353819 0.000853406 0.000211384)
(0.00351248 0.000316482 0.000210435)
(0.00352447 0.00129373 0.000221023)
(0.00347917 -0.000331247 0.000215868)
(0.00351564 0.00216007 0.000229925)
(0.00344363 -0.00147218 0.000221882)
(0.00351059 0.00358009 0.000237935)
(0.00340404 -0.00322455 0.000227807)
(0.00351108 0.0056573 0.000249569)
(0.00335716 -0.00567713 0.000226988)
(0.00351663 0.00847371 0.000288588)
(0.00330645 -0.00890513 0.000202249)
(0.00350746 0.0121698 0.00046067)
(0.00328887 -0.0132768 0.000131857)
(0.00330161 0.0173739 0.00126314)
(0.00358707 -0.0198401 0.000328315)
(0.00264039 0.0243163 0.00384711)
(0.00438546 -0.0303683 0.00312636)
(0.00183666 0.0321429 0.00967406)
(0.00169868 -0.0553987 0.00630077)
(-0.010638 0.0424302 0.0234701)
(-0.00375767 -0.124642 0.0245142)
(-0.00228842 0.111443 -0.0770263)
(-0.00313971 -0.103515 0.00269308)
(0.0801734 -0.274455 0.0835627)
(0.0572199 0.0698199 0.0339046)
(0.0289852 -0.129881 0.0185166)
(0.00771004 0.0563925 0.00112516)
(0.00416289 -0.084333 0.00848142)
(-0.0023265 0.023818 -0.00687297)
(0.00108564 -0.0567845 -0.00453223)
(-0.000597336 0.0057733 -0.0022957)
(0.00134745 -0.0428136 -0.00280156)
(0.0012936 -0.000594885 -0.000214909)
(0.0027041 -0.0320637 0.000351097)
(0.00281037 -0.00543824 0.00101347)
(0.00379809 -0.0245456 0.00108772)
(0.00362847 -0.00982392 0.00110772)
(0.00417817 -0.0195419 0.00100564)
(0.00395403 -0.0127451 0.000957376)
(0.00415303 -0.0162509 0.000885648)
(0.00401434 -0.0140433 0.000854952)
(0.00401805 -0.0142829 0.000802992)
(0.00399076 -0.013906 0.00077503)
(0.00391889 -0.0133529 0.000733028)
(0.0038701 -0.012903 0.000690286)
(0.00382728 -0.0124469 0.00064826)
(0.00377086 -0.0119493 0.000614006)
(0.00370278 -0.0114223 0.000574787)
(0.00361463 -0.0108638 0.000539686)
(0.00349648 -0.0102662 0.000502841)
(0.0033374 -0.00962483 0.000467062)
(0.00312663 -0.00892282 0.000439136)
(0.00285443 -0.00813653 0.00041537)
(0.00252897 -0.00725114 0.000395587)
(0.00215564 -0.00623758 0.000373657)
(0.00175279 -0.00510154 0.000349116)
(0.00132087 -0.00379943 0.000305111)
(0.000977191 -0.00237297 0.000256043)
(0.000734734 -0.000826346 0.00018611)
(0.00645131 0.0163025 0.0031315)
(0.00847061 0.00791943 0.00275415)
(0.00578899 0.00626803 0.00100573)
(0.00739126 0.00488982 0.000965451)
(0.00524836 0.00366764 0.000587552)
(0.00621858 0.00346983 0.000610549)
(0.00498407 0.00264054 0.000512115)
(0.00538038 0.00257066 0.000532359)
(0.00477217 0.00206363 0.000506432)
(0.00482757 0.00194828 0.00051706)
(0.00454889 0.00166341 0.000512986)
(0.00447041 0.00152743 0.000518829)
(0.00432973 0.00136543 0.000521473)
(0.00423283 0.00125001 0.000526226)
(0.00414034 0.00114776 0.000530826)
(0.00406067 0.00106465 0.000535822)
(0.00399044 0.000995656 0.000540989)
(0.00392858 0.000938779 0.000546306)
(0.00387391 0.000891951 0.000551739)
(0.00382538 0.000853447 0.000557263)
(0.00378205 0.000821821 0.000562842)
(0.00374311 0.000795878 0.000568457)
(0.00370788 0.000774615 0.000574093)
(0.00367577 0.000757215 0.000579741)
(0.00364629 0.000742965 0.000585395)
(0.00361903 0.000731259 0.000591045)
(0.0035936 0.000721661 0.00059669)
(0.00356972 0.000713787 0.000602321)
(0.00354717 0.000707303 0.000607944)
(0.00352575 0.000701937 0.000613548)
(0.00350534 0.000697462 0.00061912)
(0.00348578 0.000693629 0.000624643)
(0.00346693 0.000690451 0.000630099)
(0.00344879 0.00068527 0.000635509)
(0.00343177 0.000704214 0.000641015)
(0.00341198 0.000612743 0.000645101)
(0.00340355 0.0008554 0.000653012)
(0.00337149 0.00032667 0.000652926)
(0.00338365 0.00129545 0.000665424)
(0.00332674 -0.000320472 0.000659649)
(0.003371 0.00216413 0.000677651)
(0.0032789 -0.00146446 0.000665514)
(0.00336434 0.00358883 0.0006903)
(0.00322667 -0.00322424 0.000669068)
(0.00336375 0.00566984 0.000708699)
(0.00316762 -0.00568833 0.000660901)
(0.00336652 0.0084794 0.00075968)
(0.00309571 -0.00892812 0.000610757)
(0.00336003 0.0121461 0.000979186)
(0.00299111 -0.0133051 0.00046224)
(0.00320526 0.0173522 0.00205784)
(0.00304936 -0.0199546 0.000548724)
(0.00215041 0.0248467 0.00568663)
(0.00352518 -0.0313401 0.00423276)
(0.00137297 0.035188 0.0151681)
(0.00512814 -0.0591325 0.0140996)
(-0.00901765 0.0461777 0.0372279)
(0.00902349 -0.141806 0.0296322)
(-0.0224555 0.138977 -0.0941885)
(0.0178131 -0.127802 -0.00528631)
(0.0884332 -0.259735 0.0955066)
(0.0440941 0.0941202 0.0366209)
(0.0145634 -0.11777 0.0234508)
(-0.00315709 0.0718721 0.0019044)
(0.00771232 -0.0667987 0.0101808)
(-0.00292202 0.0386146 -0.00685969)
(0.000307852 -0.0481429 -0.00129054)
(-0.00244752 0.0146555 4.75172e-05)
(-0.00039218 -0.037716 -0.00147463)
(-0.000112886 0.0032751 0.00114751)
(0.00160018 -0.0299796 0.00149913)
(0.00174011 -0.00440668 0.00190813)
(0.00292387 -0.0238584 0.00191583)
(0.00270853 -0.00960784 0.00184911)
(0.00332207 -0.0192596 0.00175995)
(0.00302929 -0.0127628 0.00167222)
(0.00323271 -0.0161515 0.0015924)
(0.00303652 -0.0140988 0.00153838)
(0.0030024 -0.0142823 0.00146545)
(0.00293801 -0.0139251 0.00141676)
(0.00283251 -0.0133696 0.0013462)
(0.00272716 -0.0129065 0.00128461)
(0.0026491 -0.0124435 0.00121434)
(0.00254312 -0.01196 0.00115293)
(0.00244233 -0.0114645 0.00108622)
(0.00232339 -0.0109501 0.00103543)
(0.00221415 -0.0104129 0.000981769)
(0.00208522 -0.00984487 0.000945777)
(0.00190281 -0.00923027 0.000926206)
(0.00165901 -0.00854549 0.000930032)
(0.00137089 -0.00776104 0.000942937)
(0.00102549 -0.00684025 0.000946167)
(0.000672543 -0.00578686 0.000929546)
(0.000265762 -0.00447344 0.00084024)
(-2.63931e-05 -0.0028989 0.000735)
(-0.000308118 -0.00103597 0.000468163)
(0.00653032 0.0170251 0.00378)
(0.0103268 0.00765613 0.00377452)
(0.00511801 0.00564112 0.0013176)
(0.00830724 0.00474142 0.00147971)
(0.00464481 0.0030431 0.000909941)
(0.00662572 0.00342818 0.00103673)
(0.00454423 0.00219302 0.000864502)
(0.00546276 0.00251616 0.000933893)
(0.00441834 0.0017701 0.000876398)
(0.00468982 0.00186618 0.000909206)
(0.00421493 0.00148219 0.000893991)
(0.0041892 0.00143791 0.000908045)
(0.00397309 0.00125661 0.0009085)
(0.00386455 0.00117225 0.000915873)
(0.00374152 0.00107822 0.00092125)
(0.00364043 0.00100787 0.00092775)
(0.00355039 0.000948634 0.000934427)
(0.0034711 0.000900258 0.000941405)
(0.00340094 0.000860669 0.00094859)
(0.00333854 0.000828325 0.000955951)
(0.00328271 0.000801907 0.000963435)
(0.00323243 0.000780349 0.000970991)
(0.00318684 0.000762765 0.000978603)
(0.0031452 0.000748419 0.000986259)
(0.00310688 0.000736707 0.000993939)
(0.00307136 0.000727166 0.00100163)
(0.0030382 0.000719397 0.00100935)
(0.00300706 0.000713058 0.00101707)
(0.00297762 0.000707883 0.00102477)
(0.00294964 0.000703639 0.00103242)
(0.00292294 0.000700163 0.00104001)
(0.00289734 0.000697278 0.00104748)
(0.0028727 0.00069483 0.00105478)
(0.00284891 0.00069067 0.00106191)
(0.00282645 0.000708982 0.00106894)
(0.00280124 0.000621671 0.00107461)
(0.00278855 0.000858568 0.00108384)
(0.00274974 0.000339373 0.0010849)
(0.00276114 0.00129783 0.00109928)
(0.0026939 -0.00030616 0.00109317)
(0.00274257 0.00216848 0.00111495)
(0.00263612 -0.00145257 0.0010991)
(0.00273062 0.00359786 0.00113196)
(0.00257744 -0.00321982 0.00110092)
(0.00272307 0.00568457 0.00115635)
(0.00251913 -0.00569846 0.00108785)
(0.00271165 0.00848923 0.00121654)
(0.00245593 -0.00896223 0.0010249)
(0.00267984 0.0120955 0.00145275)
(0.00231642 -0.0134038 0.000841936)
(0.00245427 0.0171094 0.00247786)
(0.00197057 -0.0201986 0.000601618)
(0.00117708 0.024442 0.00582983)
(0.000834519 -0.0336724 0.00409143)
(0.00119738 0.0365175 0.0191593)
(0.00456264 -0.0664682 0.0186001)
(-0.00315885 0.064013 0.0470358)
(0.014417 -0.157261 0.0400655)
(-0.0322691 0.209524 -0.0948043)
(0.0283278 -0.178336 0.011991)
(0.0987917 -0.246659 0.107193)
(0.0391966 0.106563 0.0324802)
(0.0040846 -0.108004 0.0292475)
(-0.00592113 0.0580711 0.000340069)
(0.0106005 -0.0609064 0.0059016)
(-0.00129135 0.03941 -0.00448125)
(0.00335468 -0.042381 0.00342425)
(-0.00129894 0.0201428 0.00234873)
(0.000686256 -0.0342025 0.00117574)
(-0.000595944 0.00664127 0.00374034)
(0.00130251 -0.0277122 0.00294918)
(0.00052393 -0.00262898 0.00347646)
(0.00204988 -0.0224157 0.00321017)
(0.00126317 -0.00865022 0.00295879)
(0.002167 -0.0183393 0.00283134)
(0.00154707 -0.0122194 0.00252262)
(0.00182202 -0.0155865 0.00243562)
(0.00152984 -0.0137949 0.00223039)
(0.00149321 -0.0140209 0.00209219)
(0.0014549 -0.0137492 0.00193107)
(0.00142195 -0.0132758 0.00174649)
(0.00141108 -0.0128924 0.00159059)
(0.0014596 -0.0125111 0.0013998)
(0.0014924 -0.0120832 0.00126787)
(0.00147137 -0.0115928 0.00105835)
(0.00138235 -0.0110368 0.00089463)
(0.00120013 -0.0104332 0.000684866)
(0.000930916 -0.00985383 0.00050816)
(0.000547637 -0.00927245 0.000344342)
(3.42872e-05 -0.00860874 0.000262965)
(-0.000598059 -0.00782166 0.000229834)
(-0.00134231 -0.00686981 0.000241967)
(-0.0022049 -0.00581249 0.000266788)
(-0.00320048 -0.00445933 0.000291753)
(-0.00404334 -0.00293542 0.000356282)
(-0.00468173 -0.00111013 0.000240542)
(0.00573623 0.0168217 0.00449714)
(0.0123793 0.00727388 0.00488175)
(0.00350682 0.00467117 0.00176979)
(0.0088784 0.00481745 0.00226631)
(0.0032842 0.00221699 0.00142339)
(0.00657777 0.0035491 0.00173001)
(0.00345478 0.00160129 0.00143227)
(0.00506127 0.0025398 0.001594)
(0.00346872 0.00137419 0.00147369)
(0.00405991 0.00181453 0.00155103)
(0.00332587 0.00123256 0.0015093)
(0.00341904 0.00134983 0.00154212)
(0.00310963 0.00110596 0.00153613)
(0.00302433 0.00108151 0.00155081)
(0.00287667 0.000986665 0.00155769)
(0.00276988 0.000935972 0.00156787)
(0.00267168 0.000888356 0.00157771)
(0.00258574 0.000850857 0.00158798)
(0.00250973 0.000820425 0.00159848)
(0.00244229 0.000795759 0.00160916)
(0.00238209 0.000775801 0.00161994)
(0.00232799 0.000759689 0.00163077)
(0.00227908 0.000746664 0.0016416)
(0.00223455 0.00073612 0.00165242)
(0.00219369 0.000727605 0.00166321)
(0.00215594 0.000720745 0.00167395)
(0.00212083 0.000715228 0.00168467)
(0.00208796 0.00071079 0.0016954)
(0.00205699 0.000707216 0.00170604)
(0.00202771 0.000704345 0.00171656)
(0.00199992 0.000702024 0.00172693)
(0.00197346 0.000700117 0.00173715)
(0.00194818 0.000698498 0.00174718)
(0.00192392 0.000695424 0.00175706)
(0.00190125 0.000713157 0.00176682)
(0.00187571 0.000630583 0.00177535)
(0.00186419 0.000860807 0.00178727)
(0.00182333 0.00035311 0.00179111)
(0.0018394 0.00129899 0.00180887)
(0.0017669 -0.000289687 0.00180416)
(0.00182493 0.00217217 0.00183174)
(0.00171031 -0.00143718 0.00181359)
(0.00181772 0.00360809 0.00185721)
(0.00165706 -0.00321005 0.00181755)
(0.00181552 0.0057062 0.0018908)
(0.00161404 -0.00570344 0.0018054)
(0.00181129 0.00852214 0.00195925)
(0.00160264 -0.00899588 0.00174389)
(0.00179007 0.0120816 0.00219509)
(0.00164579 -0.0135378 0.0015777)
(0.00170613 0.0168462 0.00319731)
(0.00172134 -0.0207073 0.00134877)
(0.00141606 0.0225979 0.00614457)
(0.000950482 -0.0359206 0.00441575)
(-0.000679505 0.0277735 0.0192504)
(-0.00292652 -0.0692112 0.0193148)
(0.00142796 0.0570609 0.0483721)
(0.00419905 -0.136535 0.0252784)
(0.0140744 0.257636 -0.0385877)
(0.0321763 -0.21582 0.0205248)
(0.0740582 -0.220292 0.120586)
(0.0248144 0.147199 0.00875615)
(0.0212693 -0.0985376 0.0354894)
(-0.000408814 0.0421918 0.00942625)
(0.00302957 -0.0510757 0.00412065)
(-0.00604266 0.0398868 -0.00241371)
(-0.00187615 -0.037195 0.00389255)
(-0.00423608 0.0290832 0.00318309)
(-0.00193825 -0.0270438 0.00400688)
(-0.00210776 0.0165753 0.0034788)
(-0.000784642 -0.0202049 0.00398614)
(-0.000742941 0.00645904 0.00328966)
(-0.000246638 -0.0150013 0.0034696)
(-0.000214843 -0.000605232 0.00317901)
(-0.000114896 -0.0111318 0.00320551)
(-0.000141386 -0.00518626 0.00312795)
(-0.000224715 -0.008959 0.00303809)
(-0.000342221 -0.00771712 0.00299609)
(-0.000537361 -0.00840848 0.00278844)
(-0.000638543 -0.00866628 0.00264528)
(-0.000599178 -0.00886625 0.00240637)
(-0.000821079 -0.00902623 0.00221158)
(-0.000662289 -0.00929557 0.00200394)
(-0.000953518 -0.00943108 0.00191698)
(-0.000878552 -0.00961749 0.0016618)
(-0.00102019 -0.00959776 0.0016972)
(-0.000813619 -0.00960111 0.00144416)
(-0.000692142 -0.00948887 0.00135026)
(-0.000805176 -0.00939361 0.00116236)
(-0.00115469 -0.00915233 0.00113144)
(-0.00166224 -0.00877552 0.00109957)
(-0.00219354 -0.00817176 0.00105211)
(-0.00283187 -0.00741464 0.000927505)
(-0.0037572 -0.00612043 0.000410427)
(-0.00439759 -0.00422995 -0.000423808)
(-0.00545045 -0.00163955 -0.00282566)
(0.00316885 0.0159179 0.0053422)
(0.0143213 0.00720044 0.00618029)
(0.000281589 0.00328883 0.00261546)
(0.00851382 0.00532669 0.0035383)
(0.000707169 0.00115593 0.00245462)
(0.00554662 0.00389638 0.00297214)
(0.00126381 0.00085983 0.00254795)
(0.00367718 0.00266723 0.002818)
(0.00144851 0.000880858 0.00263214)
(0.0024407 0.00181333 0.00276723)
(0.00138259 0.000929357 0.0026908)
(0.00164527 0.00130048 0.0027516)
(0.00118454 0.000942128 0.00272527)
(0.00114227 0.00101621 0.00274927)
(0.000943594 0.000900456 0.00275014)
(0.000830152 0.000878367 0.00276235)
(0.000715815 0.000839375 0.00277221)
(0.000618304 0.000812475 0.00278371)
(0.000532701 0.000790688 0.00279589)
(0.000457206 0.000773445 0.00280882)
(0.000390078 0.000759687 0.00282214)
(0.000330194 0.000748737 0.00283541)
(0.000276483 0.00074006 0.00284865)
(0.000227908 0.000733169 0.00286189)
(0.000183668 0.000727698 0.00287509)
(0.000143104 0.000723352 0.00288823)
(0.000105653 0.000719884 0.00290129)
(7.08844e-05 0.000717209 0.00291417)
(3.84401e-05 0.000715227 0.00292681)
(8.02004e-06 0.000713758 0.0029393)
(-2.05852e-05 0.000712672 0.00295168)
(-4.75645e-05 0.000711849 0.00296393)
(-7.30968e-05 0.000711187 0.00297597)
(-9.7297e-05 0.000709194 0.0029878)
(-0.00011959 0.000725967 0.00299948)
(-0.000145011 0.000648737 0.0030099)
(-0.000154007 0.000871386 0.00302394)
(-0.000197232 0.000376701 0.00302893)
(-0.000174103 0.00130805 0.00304991)
(-0.000252763 -0.00026287 0.00304397)
(-0.000183138 0.00218341 0.00307736)
(-0.000305202 -0.00140979 0.00305409)
(-0.00018543 0.00362629 0.00310759)
(-0.000347817 -0.00318551 0.00305728)
(-0.000183298 0.00573816 0.00314506)
(-0.000369444 -0.00568705 0.00304458)
(-0.000180807 0.00859078 0.00321293)
(-0.00033521 -0.00899486 0.00298434)
(-0.00019253 0.012268 0.00342788)
(-0.000155181 -0.0135399 0.00280869)
(-0.000123318 0.0174131 0.0043604)
(0.000284781 -0.0205595 0.00260265)
(0.000288211 0.0240946 0.00751792)
(0.0013535 -0.0328026 0.00400733)
(-0.00265163 0.0292171 0.0174631)
(-0.00620329 -0.0686597 0.014595)
(-0.00911234 0.0323907 0.0380456)
(-0.0154184 -0.150967 -0.00696751)
(0.0136826 0.18233 -0.000245729)
(0.0287878 -0.223389 0.037184)
(0.0415547 -0.182803 0.122417)
(0.0175356 0.127235 0.0136306)
(0.0299017 -0.0526236 0.0164526)
(-0.00875093 0.100389 -0.00190667)
(-0.0018897 -0.0100542 0.0125437)
(-0.00230632 0.0737236 0.00614019)
(0.000371604 -0.00279701 0.0125195)
(-0.00346696 0.0543054 0.00760952)
(0.00124201 0.000490009 0.0114338)
(-0.00398902 0.0392215 0.00594686)
(0.00167882 0.00497137 0.0110161)
(-0.00384914 0.0276138 0.00470816)
(0.00138624 0.008623 0.0100112)
(-0.0034798 0.018929 0.0042615)
(0.000381701 0.0103473 0.0083366)
(-0.0028112 0.0126603 0.0044878)
(-0.00104452 0.00993544 0.00623266)
(-0.00242078 0.00840651 0.00470266)
(-0.00217856 0.00813005 0.00447675)
(-0.00242591 0.00565492 0.00372378)
(-0.0024359 0.00626184 0.00292387)
(-0.00256156 0.00416243 0.00223847)
(-0.00239566 0.0047138 0.00137912)
(-0.00242581 0.00311982 0.000812689)
(-0.00246332 0.00315621 -0.000142964)
(-0.00266345 0.0020656 -0.000855037)
(-0.00285274 0.00165782 -0.00182588)
(-0.0031229 0.00118115 -0.00237183)
(-0.00355574 0.000492787 -0.00272371)
(-0.00428484 -0.000206881 -0.002686)
(-0.00525756 -0.0013772 -0.00265693)
(-0.00638156 -0.00235897 -0.00249603)
(-0.00794498 -0.00340236 -0.00246142)
(-0.0101705 -0.00399352 -0.00212757)
(-0.0118615 -0.00392907 -0.00123508)
(-0.0134291 -0.00175654 -0.0020917)
(-0.000671054 0.0133139 0.00612089)
(0.0165962 0.00815422 0.00616057)
(-0.00449143 0.00165869 0.00345918)
(0.00748341 0.00652845 0.00430732)
(-0.0032825 -4.74499e-05 0.00356497)
(0.00338532 0.00451919 0.00400933)
(-0.00229596 -1.89015e-05 0.00374737)
(0.0010054 0.00289267 0.00396043)
(-0.00190716 0.000263453 0.00386533)
(-0.0004556 0.00184669 0.00399632)
(-0.00185634 0.000530754 0.00395743)
(-0.00136583 0.00123668 0.00404419)
(-0.00196914 0.000688688 0.00404831)
(-0.00191547 0.000922217 0.00410556)
(-0.00214889 0.000756458 0.00413052)
(-0.00223049 0.000788625 0.00417099)
(-0.00233556 0.000756461 0.00420411)
(-0.00241741 0.000747141 0.0042382)
(-0.00248837 0.000738057 0.00427048)
(-0.00254887 0.000731461 0.00430161)
(-0.00260045 0.00072693 0.00433174)
(-0.00264421 0.000723804 0.00436162)
(-0.00268133 0.000721702 0.00439127)
(-0.00271288 0.000720325 0.00442054)
(-0.00273967 0.000719522 0.00444936)
(-0.00276238 0.000719188 0.00447773)
(-0.00278158 0.000719236 0.00450571)
(-0.00279772 0.000719568 0.00453329)
(-0.00281118 0.000720118 0.0045604)
(-0.00282231 0.00072085 0.00458701)
(-0.00283134 0.000721728 0.00461312)
(-0.00283848 0.000722718 0.00463875)
(-0.00284388 0.000723741 0.0046639)
(-0.00284763 0.000723599 0.00468856)
(-0.00284908 0.000740017 0.00471269)
(-0.00285502 0.000670107 0.00473551)
(-0.00283909 0.000884408 0.00476107)
(-0.00286902 0.000405067 0.00477903)
(-0.00281037 0.00132277 0.00480934)
(-0.00288758 -0.000232914 0.00481848)
(-0.00276765 0.00220851 0.00485786)
(-0.00290212 -0.00138713 0.0048525)
(-0.00271694 0.00367489 0.00490886)
(-0.00290273 -0.00318082 0.00487852)
(-0.0026606 0.00582922 0.00496694)
(-0.00287683 -0.00571479 0.00488613)
(-0.00259423 0.0087566 0.00505372)
(-0.00280176 -0.00908443 0.00484342)
(-0.00249344 0.0125677 0.00527239)
(-0.00261791 -0.0137051 0.00466819)
(-0.00209389 0.0178364 0.00613944)
(-0.00213126 -0.0207218 0.00439248)
(-0.000441868 0.0248282 0.00899653)
(0.000968867 -0.0321118 0.00511681)
(0.00562245 0.0320463 0.018081)
(0.0104048 -0.0678998 0.0125219)
(0.0163453 0.0300612 0.0339562)
(0.014848 -0.158608 -0.00455785)
(-0.0375587 0.184267 0.0149451)
(0.00233693 -0.242588 0.0438309)
(0.00360118 -0.137189 0.0890973)
(-0.0113471 0.135908 -0.00253395)
(-0.00880444 0.0250902 0.005878)
(-0.0128574 0.147856 0.0035937)
(-0.00325675 0.0539405 0.0117059)
(-0.00350743 0.12791 0.0103472)
(-0.00112339 0.0723009 0.0138367)
(-0.00210105 0.117355 0.0135449)
(-0.00137784 0.0838157 0.0148592)
(-0.00206709 0.110321 0.0143432)
(-0.00112526 0.0917718 0.0155155)
(-0.00170287 0.106026 0.0144301)
(-0.000787584 0.0970218 0.0154545)
(-0.00106068 0.103995 0.0141669)
(-0.000461495 0.10021 0.0145712)
(-0.000430164 0.102828 0.0135645)
(-0.000261045 0.101825 0.0134169)
(-8.49534e-05 0.101928 0.0131749)
(-0.000332552 0.101531 0.0130956)
(-0.000416845 0.100648 0.0133118)
(-0.000946909 0.100603 0.0134425)
(-0.00125437 0.0994637 0.0136156)
(-0.00167585 0.0996349 0.0134888)
(-0.00178143 0.0986275 0.0135511)
(-0.0020517 0.0985147 0.0134054)
(-0.00200144 0.0968708 0.0130144)
(-0.00209193 0.0955675 0.0124788)
(-0.00187713 0.0925715 0.0118745)
(-0.00193698 0.0891737 0.0107506)
(-0.0020089 0.0838443 0.00919922)
(-0.00264533 0.077186 0.00659385)
(-0.00354827 0.0683782 0.00323352)
(-0.00508046 0.0579293 -0.00168259)
(-0.00803667 0.0446695 -0.00988447)
(-0.0141608 0.0260309 -0.0274525)
(-0.0212609 0.00866162 -0.050687)
(-0.00735488 0.00415549 -0.000161293)
(0.0178622 0.00998623 0.00454422)
(-0.00956969 -0.00174248 0.000934533)
(0.0063792 0.00838079 0.00229481)
(-0.00720862 -0.00189175 0.00168972)
(0.00119212 0.0053994 0.00207493)
(-0.00594933 -0.00117169 0.00191247)
(-0.00181529 0.0032706 0.00207561)
(-0.0055012 -0.000402131 0.00199578)
(-0.00363507 0.00199782 0.00209257)
(-0.00543394 0.000154389 0.00205514)
(-0.00474256 0.00129686 0.00212308)
(-0.00552983 0.000509822 0.00211165)
(-0.00539591 0.000941429 0.00215648)
(-0.0057031 0.000695281 0.00216293)
(-0.00577066 0.000797163 0.00219102)
(-0.00589871 0.000759511 0.00220774)
(-0.00598886 0.000768389 0.00222829)
(-0.00606705 0.000769842 0.00224782)
(-0.00613334 0.000772307 0.00226731)
(-0.00618971 0.000774974 0.00228651)
(-0.00623786 0.000777676 0.00230547)
(-0.00627922 0.000780383 0.00232426)
(-0.0063148 0.000783024 0.00234287)
(-0.0063454 0.000785572 0.00236131)
(-0.00637169 0.000788028 0.00237959)
(-0.00639424 0.0007904 0.00239774)
(-0.00641348 0.00079268 0.00241579)
(-0.00642979 0.000794881 0.00243374)
(-0.00644351 0.000797016 0.00245158)
(-0.00645487 0.000799103 0.00246932)
(-0.00646407 0.000801148 0.00248698)
(-0.00647123 0.000803098 0.00250455)
(-0.00647652 0.00080411 0.0025221)
(-0.0064792 0.000818642 0.00253953)
(-0.00648718 0.0007575 0.0025566)
(-0.00646898 0.000956892 0.00257469)
(-0.00650601 0.000502927 0.00259039)
(-0.00643621 0.0013865 0.00260977)
(-0.00653 -0.000121743 0.00262335)
(-0.0063874 0.00226042 0.00264544)
(-0.00654846 -0.00125808 0.00265389)
(-0.0063309 0.00370849 0.00268472)
(-0.00654821 -0.00302563 0.00267896)
(-0.00627137 0.00583717 0.00273255)
(-0.00651455 -0.00552113 0.00268852)
(-0.00620139 0.00873544 0.00280976)