/*--------------------------------*- C++ -*----------------------------------*\
| =========                 |                                                 |
| \\      /  F ield         | OpenFOAM: The Open Source CFD Toolbox           |
|  \\    /   O peration     | Version:  2.3.0                                 |
|   \\  /    A nd           | Web:      www.OpenFOAM.org                      |
|    \\/     M anipulation  |                                                 |
\*---------------------------------------------------------------------------*/
FoamFile
{
    version     2.0;
    format      ascii;
    class       volScalarField;
    location    "2";
    object      w2;
}
// * * * * * * * * * * * * * * * * * * * * * * * * * * * * * * * * * * * * * //

dimensions      [0 0 0 0 0 0 0];

internalField   nonuniform List<scalar> 
6144
(
0.452838
0.452838
0.452838
0.452838
0.452838
0.452838
0.452838
0.452838
0.452838
0.452838
0.452838
0.452838
0.452838
0.452838
0.452838
0.452838
0.452838
0.452838
0.452838
0.452838
0.452838
0.452838
0.452838
0.452838
0.452838
0.452838
0.452838
0.452838
0.452838
0.452838
0.452838
0.452838
0.452838
0.452838
0.452838
0.452838
0.452838
0.452838
0.452838
0.452838
0.452838
0.452838
0.452838
0.452838
0.452838
0.452838
0.452838
0.452838
0.452838
0.452838
0.452838
0.452838
0.452838
0.452838
0.452838
0.452838
0.452838
0.452835
0.448018
0.509052
0.0914945
0.000206596
6.34273e-06
0.000924077
0.00161203
0.00381212
0.0448996
0.0229025
0.0392732
0.0506981
0.0441122
0.0374873
0.0376436
0.0455456
0.0617504
0.0474331
0.0965785
0.0665692
0.0773181
0.118927
0.0504721
0.0634962
0.0796868
0.0649044
0.0649991
0.0731857
0.0781394
0.0796496
0.0931498
0.0525387
0.00586312
0.00183462
0.00116823
0.00222312
0.0282659
0.000137903
0.452838
0.452838
0.452838
0.452838
0.452838
0.452838
0.452838
0.452838
0.452838
0.452838
0.452838
0.452838
0.452838
0.452838
0.452838
0.452838
0.452838
0.452838
0.452838
0.452838
0.452838
0.452838
0.452838
0.452838
0.452838
0.452838
0.452838
0.452838
0.452838
0.452838
0.452838
0.452838
0.452838
0.452838
0.452838
0.452838
0.452838
0.452838
0.452838
0.452838
0.452838
0.452838
0.452838
0.452838
0.452838
0.452838
0.452838
0.452838
0.452838
0.452838
0.452838
0.452838
0.452838
0.452838
0.452838
0.452839
0.452867
0.454533
0.503717
0.480171
0.221794
0.00383422
6.70336e-06
1.10596e-05
0.00618925
0.0083258
0.33535
0.0222761
0.020234
0.0432612
0.0354316
0.0986016
0.0638609
0.52946
0.200332
0.178279
0.739393
0.527898
0.359983
0.585602
0.0883945
0.0915731
0.0924996
0.0673552
0.0721454
0.0931989
0.142713
0.29923
0.098632
0.0141971
0.00386187
0.00165869
0.00123636
0.00244388
0.166087
0.000136643
0.452838
0.452838
0.452838
0.452838
0.452838
0.452838
0.452838
0.452838
0.452838
0.452838
0.452838
0.452838
0.452838
0.452838
0.452838
0.452838
0.452838
0.452838
0.452838
0.452838
0.452838
0.452838
0.452838
0.452838
0.452838
0.452838
0.452838
0.452838
0.452838
0.452838
0.452838
0.452838
0.452838
0.452838
0.452838
0.452838
0.452838
0.452838
0.452838
0.452838
0.452838
0.452838
0.452838
0.452838
0.452838
0.452838
0.452838
0.452838
0.452838
0.452838
0.452838
0.452838
0.452838
0.452838
0.452838
0.452838
0.452838
0.453119
0.47255
0.378655
0.717311
0.0018397
6.71816e-06
0.0010293
0.00427249
0.00384392
0.149507
0.0282266
0.0520977
0.198797
0.583917
0.0763403
0.227705
0.0726677
0.0937015
0.0580893
0.0708735
0.108709
0.247612
0.788666
0.124058
0.140621
0.180365
0.135359
0.10019
0.0724188
0.0601576
0.0591334
0.256442
0.0182856
0.00416906
0.00173342
0.00126927
0.00253327
0.0460161
0.000137587
0.452838
0.452838
0.452838
0.452838
0.452838
0.452838
0.452838
0.452838
0.452838
0.452838
0.452838
0.452838
0.452838
0.452838
0.452838
0.452838
0.452838
0.452838
0.452838
0.452838
0.452838
0.452838
0.452838
0.452838
0.452838
0.452838
0.452838
0.452838
0.452838
0.452838
0.452838
0.452838
0.452838
0.452838
0.452838
0.452838
0.452838
0.452838
0.452838
0.452838
0.452838
0.452838
0.452838
0.452838
0.452838
0.452838
0.452838
0.452838
0.452838
0.452838
0.452838
0.452838
0.452838
0.452838
0.452838
0.452838
0.452838
0.452831
0.456485
0.489262
0.78705
0.98017
6.291e-06
0.000186388
0.00217563
0.000401747
0.00070355
0.0311025
0.00166874
0.00125936
0.00425585
0.0035113
0.00285591
0.790479
0.180048
0.3002
0.25516
0.445858
0.444488
0.187729
0.15705
0.334531
0.281043
0.106656
0.0482244
0.0479982
0.0475885
0.0604675
0.0447925
0.0149036
0.0041541
0.00171568
0.00121121
0.00226479
0.244315
0.000136194
0.452838
0.452838
0.452838
0.452838
0.452838
0.452838
0.452838
0.452838
0.452838
0.452838
0.452838
0.452838
0.452838
0.452838
0.452838
0.452838
0.452838
0.452838
0.452838
0.452838
0.452838
0.452838
0.452838
0.452838
0.452838
0.452838
0.452838
0.452838
0.452838
0.452838
0.452838
0.452838
0.452838
0.452838
0.452838
0.452838
0.452838
0.452838
0.452838
0.452838
0.452838
0.452838
0.452838
0.452838
0.452838
0.452838
0.452838
0.452838
0.452838
0.452838
0.452838
0.452838
0.452838
0.452838
0.452838
0.452838
0.452839
0.452818
0.452813
0.445431
0.237974
0.0787552
0.00231711
0.0029962
0.0045627
0.997523
0.0256718
0.0305933
0.00901463
0.0031242
0.000710945
0.000101248
9.63208e-06
7.19015e-06
0.000624437
0.000798925
0.000508742
0.000606805
0.000918218
0.00109667
0.000937422
0.00102338
0.00107708
0.00126754
0.00370083
0.00379174
0.00522051
0.00543448
0.0254867
0.098344
0.0100017
0.00215756
0.00109062
0.00170346
0.0189482
0.000137977
0.452838
0.452838
0.452838
0.452838
0.452838
0.452838
0.452838
0.452838
0.452838
0.452838
0.452838
0.452838
0.452838
0.452838
0.452838
0.452838
0.452838
0.452838
0.452838
0.452838
0.452838
0.452838
0.452838
0.452838
0.452838
0.452838
0.452838
0.452838
0.452838
0.452838
0.452838
0.452838
0.452838
0.452838
0.452838
0.452838
0.452838
0.452838
0.452838
0.452838
0.452838
0.452838
0.452838
0.452838
0.452838
0.452838
0.452838
0.452838
0.452838
0.452838
0.452838
0.452838
0.452838
0.452838
0.452838
0.452838
0.452838
0.452838
0.452845
0.470688
0.258018
0.324738
0.171478
0.157778
0.212409
0.991518
0.0598147
0.0280962
0.0305615
0.0126635
0.0381671
0.10004
0.0138951
0.0451262
0.0314442
0.0385717
0.150679
0.168642
0.365255
0.0953204
0.0909481
0.0176435
0.00942732
0.00190714
0.00126869
0.000135969
1.85568e-05
7.34191e-06
0.999995
0.000336972
0.000396653
0.000508586
0.000398424
0.000500119
0.0331103
0.000135827
0.452838
0.452838
0.452838
0.452838
0.452838
0.452838
0.452838
0.452838
0.452838
0.452838
0.452838
0.452838
0.452838
0.452838
0.452838
0.452838
0.452838
0.452838
0.452838
0.452838
0.452838
0.452838
0.452838
0.452838
0.452838
0.452838
0.452838
0.452838
0.452838
0.452838
0.452838
0.452838
0.452838
0.452838
0.452838
0.452838
0.452838
0.452838
0.452838
0.452838
0.452838
0.452838
0.452838
0.452838
0.452838
0.452838
0.452838
0.452838
0.452838
0.452838
0.452838
0.452838
0.452838
0.452838
0.452838
0.452838
0.452832
0.452993
0.444495
0.538023
0.0952712
0.975247
1
0.127488
0.999993
0.0925992
0.831627
0.977607
0.744634
0.981622
0.913983
0.857161
0.1488
0.17169
0.867032
0.854772
0.992369
0.715348
0.402956
0.274817
0.203038
0.24761
0.00358599
0.00762756
0.395031
0.941988
0.959065
0.991987
2.77898e-07
0.992155
0.993363
0.00924874
0.000751354
0.999962
0.999972
0.000120031
0.452838
0.452838
0.452838
0.452838
0.452838
0.452838
0.452838
0.452838
0.452838
0.452838
0.452838
0.452838
0.452838
0.452838
0.452838
0.452838
0.452838
0.452838
0.452838
0.452838
0.452838
0.452838
0.452838
0.452838
0.452838
0.452838
0.452838
0.452838
0.452838
0.452838
0.452838
0.452838
0.452838
0.452838
0.452838
0.452838
0.452838
0.452838
0.452838
0.452838
0.452838
0.452838
0.452838
0.452838
0.452838
0.452838
0.452838
0.452838
0.452838
0.452838
0.452838
0.452838
0.452838
0.452838
0.452838
0.452838
0.452838
0.452187
0.464686
0.478621
0.267234
0.172028
0.299339
0.434702
0.990621
0.780348
0.732257
0.983276
0.745632
0.28093
0.868041
0.596335
0.758386
0.249448
0.870539
0.571829
0.315118
0.642811
0.413709
0.297442
0.464972
0.494164
0.520837
0.468691
0.456402
0.453716
0.289293
0.85421
0.981716
0.868275
0.394621
0.724245
0.964771
0.906014
0.60389
0.966302
0.452838
0.452838
0.452838
0.452838
0.452838
0.452838
0.452838
0.452838
0.452838
0.452838
0.452838
0.452838
0.452838
0.452838
0.452838
0.452838
0.452838
0.452838
0.452838
0.452838
0.452838
0.452838
0.452838
0.452838
0.452838
0.452838
0.452838
0.452838
0.452838
0.452838
0.452838
0.452838
0.452838
0.452838
0.452838
0.452838
0.452838
0.452838
0.452838
0.452838
0.452838
0.452838
0.452838
0.452838
0.452838
0.452838
0.452838
0.452838
0.452838
0.452838
0.452838
0.452838
0.452838
0.452838
0.452838
0.452839
0.452823
0.452397
0.453784
0.502174
0.317162
0.870718
0.747633
0.971163
0.942102
0.853144
0.658624
0.981538
0.131302
0.489364
0.447717
0.978288
0.552892
0.561794
1
0.896993
0.113626
0.000678894
0.28916
0.612745
0.945791
0.151078
0.782835
0.708249
0.107267
0.0203856
0.0275906
0.0477301
0.0163209
0.0146469
0.0750588
0.0513593
0.0207045
0.00753226
0.00722713
1.75748e-05
0.452838
0.452838
0.452838
0.452838
0.452838
0.452838
0.452838
0.452838
0.452838
0.452838
0.452838
0.452838
0.452838
0.452838
0.452838
0.452838
0.452838
0.452838
0.452838
0.452838
0.452838
0.452838
0.452838
0.452838
0.452838
0.452838
0.452838
0.452838
0.452838
0.452838
0.452838
0.452838
0.452838
0.452838
0.452838
0.452838
0.452838
0.452838
0.452838
0.452838
0.452838
0.452838
0.452838
0.452838
0.452838
0.452838
0.452838
0.452838
0.452838
0.452838
0.452838
0.452838
0.452838
0.452838
0.452838
0.452838
0.452839
0.452824
0.452902
0.524413
0.0329624
0.777925
0.930033
0.960844
0.832732
0.939869
0.721776
0.989145
0.102664
0.124608
0.0702761
0.936752
0.655833
0.988119
0.603871
0.330554
0.888859
0.521499
0.218397
0.160808
0.0174883
0.00426187
0.00369588
7.8148e-06
1.10124e-05
0.000589522
0.000536041
0.000507988
0.000805405
0.000826293
0.000606847
0.000420273
0.000344735
0.000296574
0.000234206
8.45587e-05
0.452838
0.452838
0.452838
0.452838
0.452838
0.452838
0.452838
0.452838
0.452838
0.452838
0.452838
0.452838
0.452838
0.452838
0.452838
0.452838
0.452838
0.452838
0.452838
0.452838
0.452838
0.452838
0.452838
0.452838
0.452838
0.452838
0.452838
0.452838
0.452838
0.452838
0.452838
0.452838
0.452838
0.452838
0.452838
0.452838
0.452838
0.452838
0.452838
0.452838
0.452838
0.452838
0.452838
0.452838
0.452838
0.452838
0.452838
0.452838
0.452838
0.452838
0.452838
0.452838
0.452838
0.452838
0.452838
0.452838
0.452838
0.44956
0.564285
0.527656
0.0819163
0.0347852
0.0595736
0.00497167
0.00355765
0.000921935
0.00382334
0.000544581
0.0032614
0.00287489
0.00318194
0.00949398
0.00214411
0.000782068
0.000616028
0.000226086
1.22346e-05
8.32536e-06
0.000576775
0.000466076
0.000381043
0.000414959
0.000507809
0.000539125
0.000110861
0.018399
0.0393794
0.0481736
0.0209149
0.0669172
0.00980781
0.00250419
0.00157326
0.00402467
0.0072778
0.000140428
0.452838
0.452838
0.452838
0.452838
0.452838
0.452838
0.452838
0.452838
0.452838
0.452838
0.452838
0.452838
0.452838
0.452838
0.452838
0.452838
0.452838
0.452838
0.452838
0.452838
0.452838
0.452838
0.452838
0.452838
0.452838
0.452838
0.452838
0.452838
0.452838
0.452838
0.452838
0.452838
0.452838
0.452838
0.452838
0.452838
0.452838
0.452838
0.452838
0.452838
0.452838
0.452838
0.452838
0.452838
0.452838
0.452838
0.452838
0.452838
0.452838
0.452838
0.452838
0.452838
0.452838
0.452838
0.452838
0.452838
0.452838
0.452826
0.453835
0.436445
0.200724
0.000196051
6.17378e-06
1.18753e-05
1.11249e-05
1.50366e-05
7.66989e-06
0.000899879
0.000353332
0.000464751
0.00110842
0.00177118
0.00187305
0.00198127
0.00121215
0.000980261
0.00121981
0.0101878
0.0130158
0.0337977
0.199881
0.0397353
0.0769297
0.0257532
0.0137868
0.017433
0.0259461
0.0279331
0.0288518
0.149017
0.00548859
0.00162207
0.00110677
0.00222532
0.0227793
0.000135886
0.452838
0.452838
0.452838
0.452838
0.452838
0.452838
0.452838
0.452838
0.452838
0.452838
0.452838
0.452838
0.452838
0.452838
0.452838
0.452838
0.452838
0.452838
0.452838
0.452838
0.452838
0.452838
0.452838
0.452838
0.452838
0.452838
0.452838
0.452838
0.452838
0.452838
0.452838
0.452838
0.452838
0.452838
0.452838
0.452838
0.452838
0.452838
0.452838
0.452838
0.452838
0.452838
0.452838
0.452838
0.452838
0.452838
0.452838
0.452838
0.452838
0.452838
0.452838
0.452838
0.452838
0.452838
0.452838
0.452838
0.452838
0.452839
0.452902
0.574624
0.183188
0.00293703
7.37343e-06
0.00131655
0.000392725
0.00141677
0.0160484
0.00446702
0.00276426
0.00571952
0.0883063
0.59343
0.280875
0.07167
0.0946194
0.0228185
0.0210354
0.0144123
0.0187869
0.0279344
0.0542532
0.0477767
0.0349123
0.102597
0.0685708
0.0448409
0.0374867
0.0305385
0.0285119
0.998981
0.00600524
0.00178003
0.00122648
0.00274335
0.021638
0.000138334
0.452838
0.452838
0.452838
0.452838
0.452838
0.452838
0.452838
0.452838
0.452838
0.452838
0.452838
0.452838
0.452838
0.452838
0.452838
0.452838
0.452838
0.452838
0.452838
0.452838
0.452838
0.452838
0.452838
0.452838
0.452838
0.452838
0.452838
0.452838
0.452838
0.452838
0.452838
0.452838
0.452838
0.452838
0.452838
0.452838
0.452838
0.452838
0.452838
0.452838
0.452838
0.452838
0.452838
0.452838
0.452838
0.452838
0.452838
0.452838
0.452838
0.452838
0.452838
0.452838
0.452838
0.452838
0.452838
0.452838
0.452838
0.45284
0.452921
0.523032
0.240331
0.0111476
8.45549e-06
8.38685e-06
0.011499
0.0098983
0.00786518
0.00271625
0.00268941
0.00772604
0.0435223
0.0319995
0.0727893
0.0486642
0.109818
0.0398846
0.0505024
0.025868
0.0268727
0.0289612
0.0235623
0.0422413
0.127959
0.101239
0.0581978
0.0451837
0.0422329
0.0483686
0.0892252
0.0206698
0.00395596
0.00161181
0.00129029
0.00299607
0.039005
0.000137865
0.452838
0.452838
0.452838
0.452838
0.452838
0.452838
0.452838
0.452838
0.452838
0.452838
0.452838
0.452838
0.452838
0.452838
0.452838
0.452838
0.452838
0.452838
0.452838
0.452838
0.452838
0.452838
0.452838
0.452838
0.452838
0.452838
0.452838
0.452838
0.452838
0.452838
0.452838
0.452838
0.452838
0.452838
0.452838
0.452838
0.452838
0.452838
0.452838
0.452838
0.452838
0.452838
0.452838
0.452838
0.452838
0.452838
0.452838
0.452838
0.452838
0.452838
0.452838
0.452838
0.452838
0.452838
0.452838
0.452838
0.452838
0.452839
0.458089
0.571497
0.121379
0.00309077
5.51337e-06
0.000914187
0.00152391
0.0025066
0.0218576
0.0169948
0.0160206
0.0164547
0.0294139
0.0704594
0.401255
0.179991
0.245158
0.0537164
0.0821968
0.0377326
0.0495348
0.0552796
0.038466
0.0804051
0.108318
0.0866802
0.0835743
0.0792228
0.0854568
0.103242
0.291643
0.0133406
0.0033982
0.00158317
0.00137408
0.0034047
0.0392489
0.000137829
0.452838
0.452838
0.452838
0.452838
0.452838
0.452838
0.452838
0.452838
0.452838
0.452838
0.452838
0.452838
0.452838
0.452838
0.452838
0.452838
0.452838
0.452838
0.452838
0.452838
0.452838
0.452838
0.452838
0.452838
0.452838
0.452838
0.452838
0.452838
0.452838
0.452838
0.452838
0.452838
0.452838
0.452838
0.452838
0.452838
0.452838
0.452838
0.452838
0.452838
0.452838
0.452838
0.452838
0.452838
0.452838
0.452838
0.452838
0.452838
0.452838
0.452838
0.452838
0.452838
0.452838
0.452838
0.452838
0.452838
0.452838
0.452818
0.447906
0.523952
0.0299117
4.47718e-05
6.36724e-06
0.00422367
0.00125828
0.00134374
0.00342601
0.00657367
0.0307148
0.0546605
0.0270129
0.0275461
0.025388
0.0262415
0.0283366
0.0212064
0.0261624
0.0197489
0.0227427
0.0227113
0.0191935
0.0238626
0.0235907
0.0217894
0.0220609
0.0240137
0.027289
0.028271
0.0312275
0.0224264
0.00363621
0.00164581
0.00142446
0.0036655
0.0177367
0.000138579
0.452838
0.452838
0.452838
0.452838
0.452838
0.452838
0.452838
0.452838
0.452838
0.452838
0.452838
0.452838
0.452838
0.452838
0.452838
0.452838
0.452838
0.452838
0.452838
0.452838
0.452838
0.452838
0.452838
0.452838
0.452838
0.452838
0.452838
0.452838
0.452838
0.452838
0.452838
0.452838
0.452838
0.452838
0.452838
0.452838
0.452838
0.452838
0.452838
0.452838
0.452838
0.452838
0.452838
0.452838
0.452838
0.452838
0.452838
0.452838
0.452838
0.452838
0.452838
0.452838
0.452838
0.452838
0.452838
0.452838
0.452838
0.453672
0.470966
0.506575
0.179462
0.000664426
6.14473e-06
0.00151002
0.00140741
0.00188663
0.00748587
0.0194369
0.012351
0.052254
0.188169
0.506986
0.0866312
0.190635
0.072934
0.245546
0.0602306
0.0973159
0.0754317
0.0479184
0.125494
0.0984567
0.988155
0.0914318
0.104059
0.117968
0.154675
0.1052
0.0563879
0.015237
0.0041793
0.00167784
0.00119422
0.00228511
0.0645198
0.000136943
0.452838
0.452838
0.452838
0.452838
0.452838
0.452838
0.452838
0.452838
0.452838
0.452838
0.452838
0.452838
0.452838
0.452838
0.452838
0.452838
0.452838
0.452838
0.452838
0.452838
0.452838
0.452838
0.452838
0.452838
0.452838
0.452838
0.452838
0.452838
0.452838
0.452838
0.452838
0.452838
0.452838
0.452838
0.452838
0.452838
0.452838
0.452838
0.452838
0.452838
0.452838
0.452838
0.452838
0.452838
0.452838
0.452838
0.452838
0.452838
0.452838
0.452838
0.452838
0.452838
0.452838
0.452838
0.452838
0.452838
0.452839
0.45287
0.45331
0.47654
0.281053
0.0170095
1.00505e-05
9.08554e-06
0.00382566
0.0124389
0.00621565
0.01247
0.0186224
0.259362
0.0598068
0.10592
0.28703
0.102031
0.0509221
0.0530217
0.0354221
0.0438749
0.0438864
0.0368702
0.0735288
0.0693956
0.0694655
0.0977732
0.110355
0.0992637
0.0837948
0.0645667
0.0319247
0.0102958
0.0034534
0.00161187
0.00123949
0.00241982
0.0359377
0.000136847
0.452838
0.452838
0.452838
0.452838
0.452838
0.452838
0.452838
0.452838
0.452838
0.452838
0.452838
0.452838
0.452838
0.452838
0.452838
0.452838
0.452838
0.452838
0.452838
0.452838
0.452838
0.452838
0.452838
0.452838
0.452838
0.452838
0.452838
0.452838
0.452838
0.452838
0.452838
0.452838
0.452838
0.452838
0.452838
0.452838
0.452838
0.452838
0.452838
0.452838
0.452838
0.452838
0.452838
0.452838
0.452838
0.452838
0.452838
0.452838
0.452838
0.452838
0.452838
0.452838
0.452838
0.452838
0.452838
0.452838
0.452838
0.452845
0.439261
0.525036
0.16203
0.000632406
7.66176e-06
0.0684924
0.000867332
0.0028892
0.00874073
0.000696482
0.000693351
0.000821213
0.0659798
0.0902186
0.0223878
0.038188
0.0414565
0.0523876
0.0554987
0.0352754
0.0603908
0.0574975
0.093128
0.0782984
0.118684
0.0902993
0.105689
0.0874025
0.0928698
0.0878802
0.96305
0.0300177
0.00511913
0.0017632
0.00115816
0.00214777
0.0450859
0.000137678
0.452838
0.452838
0.452838
0.452838
0.452838
0.452838
0.452838
0.452838
0.452838
0.452838
0.452838
0.452838
0.452838
0.452838
0.452838
0.452838
0.452838
0.452838
0.452838
0.452838
0.452838
0.452838
0.452838
0.452838
0.452838
0.452838
0.452838
0.452838
0.452838
0.452838
0.452838
0.452838
0.452838
0.452838
0.452838
0.452838
0.452838
0.452838
0.452838
0.452838
0.452838
0.452838
0.452838
0.452838
0.452838
0.452838
0.452838
0.452838
0.452838
0.452838
0.452838
0.452838
0.452838
0.452838
0.452838
0.452838
0.452839
0.452614
0.45418
0.472621
0.514597
0.999975
0.000173147
4.31905e-05
1.39574e-05
7.58783e-06
1.01408e-05
1.08963e-05
9.08728e-05
9.0965e-06
7.92298e-06
0.00273265
0.00471931
0.00163792
0.00111603
0.00106754
0.000878071
0.00083095
0.00181767
0.017286
0.001708
0.00216996
0.00680249
0.0318086
0.0236018
0.0345535
0.206906
0.0898993
0.879545
0.0707906
0.00599787
0.00191876
0.00113639
0.00190264
0.144367
0.000136322
0.452838
0.452838
0.452838
0.452838
0.452838
0.452838
0.452838
0.452838
0.452838
0.452838
0.452838
0.452838
0.452838
0.452838
0.452838
0.452838
0.452838
0.452838
0.452838
0.452838
0.452838
0.452838
0.452838
0.452838
0.452838
0.452838
0.452838
0.452838
0.452838
0.452838
0.452838
0.452838
0.452838
0.452838
0.452838
0.452838
0.452838
0.452838
0.452838
0.452838
0.452838
0.452838
0.452838
0.452838
0.452838
0.452838
0.452838
0.452838
0.452838
0.452838
0.452838
0.452838
0.452838
0.452838
0.452838
0.452839
0.452838
0.452867
0.453082
0.517938
0.12739
0.0611474
0.0654457
0.135123
0.0370935
0.0804702
0.991594
0.0524541
0.0551433
0.29272
0.0324636
0.0216052
0.989762
0.996117
0.0024174
0.0237215
0.0179976
0.00296641
0.00697689
0.0016568
0.000641175
0.000205187
5.19198e-05
9.74272e-06
9.49381e-06
0.00477807
0.00296607
0.00104124
0.000804882
0.00066213
0.000454031
0.00247007
0.00101515
0.00141845
0.159195
0.000139364
0.452838
0.452838
0.452838
0.452838
0.452838
0.452838
0.452838
0.452838
0.452838
0.452838
0.452838
0.452838
0.452838
0.452838
0.452838
0.452838
0.452838
0.452838
0.452838
0.452838
0.452838
0.452838
0.452838
0.452838
0.452838
0.452838
0.452838
0.452838
0.452838
0.452838
0.452838
0.452838
0.452838
0.452838
0.452838
0.452838
0.452838
0.452838
0.452838
0.452838
0.452838
0.452838
0.452838
0.452838
0.452838
0.452838
0.452838
0.452838
0.452838
0.452838
0.452838
0.452838
0.452838
0.452838
0.452838
0.452838
0.452838
0.452839
0.452875
0.544588
0.9558
0.0553854
0.971328
0.999991
0.122774
0.265216
0.636951
0.976487
0.999968
0.531522
0.572316
0.906496
0.99561
0.931662
0.334915
0.937838
0.941886
0.912629
0.836557
0.120927
0.89693
0.937538
0.832637
0.142792
0.753813
0.261855
0.975784
0.999998
0.00178867
0.484051
0.0001128
0.999994
0.000326906
0.000250335
0.000151872
0.000144318
0.452838
0.452838
0.452838
0.452838
0.452838
0.452838
0.452838
0.452838
0.452838
0.452838
0.452838
0.452838
0.452838
0.452838
0.452838
0.452838
0.452838
0.452838
0.452838
0.452838
0.452838
0.452838
0.452838
0.452838
0.452838
0.452838
0.452838
0.452838
0.452838
0.452838
0.452838
0.452838
0.452838
0.452838
0.452838
0.452838
0.452838
0.452838
0.452838
0.452838
0.452838
0.452838
0.452838
0.452838
0.452838
0.452838
0.452838
0.452838
0.452838
0.452838
0.452838
0.452838
0.452838
0.452838
0.452838
0.452838
0.452837
0.452877
0.490062
0.529661
0.174363
0.524939
0.796611
0.402274
0.858073
0.261894
0.355526
0.793122
0.434006
0.205972
0.478025
0.504179
0.417357
0.492895
0.64579
0.758947
0.44093
0.592298
0.281585
0.574358
0.671705
0.636139
0.739354
0.646076
0.999097
0.999052
2.01758e-05
1.31077e-06
3.28533e-10
0.50282
0.385767
0.947767
0.956675
0.882544
0.000316537
7.60389e-05
0.452838
0.452838
0.452838
0.452838
0.452838
0.452838
0.452838
0.452838
0.452838
0.452838
0.452838
0.452838
0.452838
0.452838
0.452838
0.452838
0.452838
0.452838
0.452838
0.452838
0.452838
0.452838
0.452838
0.452838
0.452838
0.452838
0.452838
0.452838
0.452838
0.452838
0.452838
0.452838
0.452838
0.452838
0.452838
0.452838
0.452838
0.452838
0.452838
0.452838
0.452838
0.452838
0.452838
0.452838
0.452838
0.452838
0.452838
0.452838
0.452838
0.452838
0.452838
0.452838
0.452838
0.452838
0.452838
0.452838
0.452838
0.455766
0.453582
0.566583
0.150139
0.995296
0.744608
0.330987
0.792004
0.367069
0.257287
0.735877
0.634173
0.882733
0.668266
0.49988
0.476387
0.299452
0.385404
0.155562
0.390034
0.463598
0.382618
0.414347
0.478816
0.481936
0.451045
0.509565
0.553301
0.54923
0.987178
0.873696
0.0215164
0.999999
0.834518
0.599654
0.330569
0.925634
0.801208
0.998852
0.452838
0.452838
0.452838
0.452838
0.452838
0.452838
0.452838
0.452838
0.452838
0.452838
0.452838
0.452838
0.452838
0.452838
0.452838
0.452838
0.452838
0.452838
0.452838
0.452838
0.452838
0.452838
0.452838
0.452838
0.452838
0.452838
0.452838
0.452838
0.452838
0.452838
0.452838
0.452838
0.452838
0.452838
0.452838
0.452838
0.452838
0.452838
0.452838
0.452838
0.452838
0.452838
0.452838
0.452838
0.452838
0.452838
0.452838
0.452838
0.452838
0.452838
0.452838
0.452838
0.452838
0.452838
0.452839
0.452838
0.452838
0.45289
0.453357
0.524651
0.348027
0.144812
0.236962
0.196261
0.00196404
0.912527
0.198396
0.778379
0.163944
0.246119
0.855843
0.858596
0.288729
0.299848
0.631586
0.711579
0.19712
0.992088
0.00332702
0.298495
0.367895
0.999782
0.577303
0.497695
0.853594
0.924154
0.904342
0.0925251
0.224632
0.951588
0.678568
0.141231
0.131348
0.926907
0.118964
0.00353297
0.452838
0.452838
0.452838
0.452838
0.452838
0.452838
0.452838
0.452838
0.452838
0.452838
0.452838
0.452838
0.452838
0.452838
0.452838
0.452838
0.452838
0.452838
0.452838
0.452838
0.452838
0.452838
0.452838
0.452838
0.452838
0.452838
0.452838
0.452838
0.452838
0.452838
0.452838
0.452838
0.452838
0.452838
0.452838
0.452838
0.452838
0.452838
0.452838
0.452838
0.452838
0.452838
0.452838
0.452838
0.452838
0.452838
0.452838
0.452838
0.452838
0.452838
0.452838
0.452838
0.452838
0.452838
0.452838
0.452838
0.452838
0.452804
0.452458
0.534576
0.0363607
0.0101954
0.027422
0.0253461
0.989905
0.0147249
0.991411
0.00407882
0.00250208
0.00174262
0.0193703
0.0167955
0.0051793
0.00949823
0.00503793
0.00521916
0.00341818
0.000657744
0.00435793
0.000827451
0.00372434
0.00205015
0.00430872
0.00164356
0.0041007
0.000491104
6.12077e-05
1.12267e-05
6.29258e-06
0.00217502
0.00145212
0.000681843
0.000350572
0.000226174
0.000132886
5.92649e-05
0.452838
0.452838
0.452838
0.452838
0.452838
0.452838
0.452838
0.452838
0.452838
0.452838
0.452838
0.452838
0.452838
0.452838
0.452838
0.452838
0.452838
0.452838
0.452838
0.452838
0.452838
0.452838
0.452838
0.452838
0.452838
0.452838
0.452838
0.452838
0.452838
0.452838
0.452838
0.452838
0.452838
0.452838
0.452838
0.452838
0.452838
0.452838
0.452838
0.452838
0.452838
0.452838
0.452838
0.452838
0.452838
0.452838
0.452838
0.452838
0.452838
0.452838
0.452838
0.452838
0.452838
0.452838
0.452838
0.452838
0.452838
0.452842
0.442451
0.537283
0.402305
6.46145e-05
3.70121e-05
0.0106524
0.00354597
0.000100731
9.46165e-06
7.71908e-06
0.000469659
0.000382717
0.000849973
0.00633341
0.00179464
0.00104795
0.000662259
0.000600252
0.000773468
0.00233301
0.000760106
0.000556422
0.000677027
0.00106287
0.00172367
0.00416895
0.0105777
0.0213784
0.0100528
0.00468461
0.724327
0.0103619
0.00316721
0.00149201
0.00129627
0.00316089
0.0338462
0.000139089
0.452838
0.452838
0.452838
0.452838
0.452838
0.452838
0.452838
0.452838
0.452838
0.452838
0.452838
0.452838
0.452838
0.452838
0.452838
0.452838
0.452838
0.452838
0.452838
0.452838
0.452838
0.452838
0.452838
0.452838
0.452838
0.452838
0.452838
0.452838
0.452838
0.452838
0.452838
0.452838
0.452838
0.452838
0.452838
0.452838
0.452838
0.452838
0.452838
0.452838
0.452838
0.452838
0.452838
0.452838
0.452838
0.452838
0.452838
0.452838
0.452838
0.452838
0.452838
0.452838
0.452838
0.452838
0.452838
0.452838
0.452838
0.452838
0.456303
0.499522
0.689836
0.999997
0.000176971
0.00104578
0.000842645
0.00071803
0.0133466
0.0129601
0.0059031
0.00951322
0.0129463
0.0244041
0.0159357
0.0197257
0.0154494
0.0212256
0.0187383
0.0239588
0.018546
0.0158954
0.0273595
0.0231105
0.0262489
0.0216499
0.0204591
0.0167172
0.0135168
0.0104343
0.00799118
0.00555507
0.00248619
0.00128739
0.00110029
0.00209256
0.00581624
0.00013435
0.452838
0.452838
0.452838
0.452838
0.452838
0.452838
0.452838
0.452838
0.452838
0.452838
0.452838
0.452838
0.452838
0.452838
0.452838
0.452838
0.452838
0.452838
0.452838
0.452838
0.452838
0.452838
0.452838
0.452838
0.452838
0.452838
0.452838
0.452838
0.452838
0.452838
0.452838
0.452838
0.452838
0.452838
0.452838
0.452838
0.452838
0.452838
0.452838
0.452838
0.452838
0.452838
0.452838
0.452838
0.452838
0.452838
0.452838
0.452838
0.452838
0.452838
0.452838
0.452838
0.452838
0.452838
0.452838
0.452838
0.452838
0.452833
0.452738
0.599505
0.122276
0.00239484
5.80434e-06
0.00120386
0.00108686
0.00351013
0.0202331
0.0186693
0.0362288
0.299622
0.0238469
0.0499404
0.0261774
0.0301973
0.0221822
0.0278109
0.0247235
0.0591832
0.129889
0.0940323
0.378275
0.0715798
0.0482081
0.0463321
0.0449931
0.0389938
0.0354796
0.0366959
0.027349
0.00962335
0.00314387
0.00148563
0.00127882
0.002955
0.0341009
0.000137095
0.452838
0.452838
0.452838
0.452838
0.452838
0.452838
0.452838
0.452838
0.452838
0.452838
0.452838
0.452838
0.452838
0.452838
0.452838
0.452838
0.452838
0.452838
0.452838
0.452838
0.452838
0.452838
0.452838
0.452838
0.452838
0.452838
0.452838
0.452838
0.452838
0.452838
0.452838
0.452838
0.452838
0.452838
0.452838
0.452838
0.452838
0.452838
0.452838
0.452838
0.452838
0.452838
0.452838
0.452838
0.452838
0.452838
0.452838
0.452838
0.452838
0.452838
0.452838
0.452838
0.452838
0.452838
0.452838
0.452838
0.452838
0.45255
0.454028
0.465495
0.384266
0.00245379
6.37896e-06
0.000964883
0.0022458
0.00207235
0.00396278
0.00627817
0.0536355
0.103154
0.0188668
0.0282979
0.0565233
0.0900496
0.0632701
0.167845
0.0608425
0.10703
0.0528628
0.0410538
0.0724799
0.0552118
0.0757833
0.266393
0.462028
0.259204
0.137161
0.0677327
0.0298549
0.00884207
0.00291192
0.0014243
0.00125294
0.00262921
0.0130023
0.000136304
0.452838
0.452838
0.452838
0.452838
0.452838
0.452838
0.452838
0.452838
0.452838
0.452838
0.452838
0.452838
0.452838
0.452838
0.452838
0.452838
0.452838
0.452838
0.452838
0.452838
0.452838
0.452838
0.452838
0.452838
0.452838
0.452838
0.452838
0.452838
0.452838
0.452838
0.452838
0.452838
0.452838
0.452838
0.452838
0.452838
0.452838
0.452838
0.452838
0.452838
0.452838
0.452838
0.452838
0.452838
0.452838
0.452838
0.452838
0.452838
0.452838
0.452838
0.452838
0.452838
0.452838
0.452838
0.452838
0.452838
0.452838
0.452989
0.472205
0.433052
0.543735
2.24344e-05
6.44573e-06
0.00347769
0.00163038
0.00223194
0.00277391
0.00353031
0.0136693
0.108714
0.0433881
0.0187518
0.018133
0.0152235
0.0139308
0.0151124
0.0128764
0.0146669
0.0136279
0.013139
0.0150066
0.0138278
0.0147112
0.0159942
0.0158044
0.0160885
0.0159006
0.0159843
0.0134841
0.00688899
0.00269737
0.0013927
0.00124749
0.00269854
0.0129732
0.000136189
0.452838
0.452838
0.452838
0.452838
0.452838
0.452838
0.452838
0.452838
0.452838
0.452838
0.452838
0.452838
0.452838
0.452838
0.452838
0.452838
0.452838
0.452838
0.452838
0.452838
0.452838
0.452838
0.452838
0.452838
0.452838
0.452838
0.452838
0.452838
0.452838
0.452838
0.452838
0.452838
0.452838
0.452838
0.452838
0.452838
0.452838
0.452838
0.452838
0.452838
0.452838
0.452838
0.452838
0.452838
0.452838
0.452838
0.452838
0.452838
0.452838
0.452838
0.452838
0.452838
0.452838
0.452838
0.452838
0.452838
0.452838
0.45285
0.453931
0.520119
0.158483
2.18218e-05
0.000669849
0.00537943
0.00219
0.00122556
0.0026547
0.00378175
0.999999
0.119219
0.0406281
0.0473883
0.18829
0.0477906
0.0334449
0.0471047
0.0336268
0.0511546
0.0416384
0.0443852
0.0705665
0.051156
0.0590958
0.0788841
0.070976
0.056559
0.047436
0.0413219
0.0285146
0.00916298
0.00295892
0.00144849
0.00128035
0.0028612
0.0228373
0.000136754
0.452838
0.452838
0.452838
0.452838
0.452838
0.452838
0.452838
0.452838
0.452838
0.452838
0.452838
0.452838
0.452838
0.452838
0.452838
0.452838
0.452838
0.452838
0.452838
0.452838
0.452838
0.452838
0.452838
0.452838
0.452838
0.452838
0.452838
0.452838
0.452838