/*--------------------------------*- C++ -*----------------------------------*\
| =========                 |                                                 |
| \\      /  F ield         | OpenFOAM: The Open Source CFD Toolbox           |
|  \\    /   O peration     | Version:  2.3.0                                 |
|   \\  /    A nd           | Web:      www.OpenFOAM.org                      |
|    \\/     M anipulation  |                                                 |
\*---------------------------------------------------------------------------*/
FoamFile
{
    version     2.0;
    format      ascii;
    class       volScalarField;
    location    "46";
    object      alpha.airMean;
}
// * * * * * * * * * * * * * * * * * * * * * * * * * * * * * * * * * * * * * //

dimensions      [0 0 0 0 0 0 0];

internalField   nonuniform List<scalar> 
6144
(
0.999993
0.999993
0.999993
0.999992
0.999992
0.999991
0.999991
0.99999
0.99999
0.99999
0.99999
0.99999
0.99999
0.99999
0.99999
0.99999
0.99999
0.99999
0.99999
0.99999
0.99999
0.99999
0.99999
0.99999
0.99999
0.99999
0.99999
0.99999
0.99999
0.99999
0.99999
0.99999
0.99999
0.99999
0.99999
0.99999
0.99999
0.99999
0.99999
0.99999
0.99999
0.99999
0.99999
0.99999
0.999989
0.999988
0.999984
0.999976
0.999963
0.999948
0.999934
0.999922
0.999916
0.999911
0.999908
0.999902
0.9999
0.999894
0.998678
0.934895
0.0368005
0.000240634
1.06947e-06
7.46877e-07
7.45864e-07
7.40877e-07
7.4209e-07
7.38726e-07
7.40946e-07
7.38596e-07
7.38559e-07
7.36129e-07
7.33981e-07
7.30996e-07
7.27836e-07
7.24552e-07
7.22739e-07
7.21183e-07
7.19218e-07
7.14755e-07
7.08064e-07
7.00626e-07
6.93486e-07
6.84965e-07
6.73641e-07
6.56554e-07
6.40145e-07
6.26348e-07
6.08196e-07
5.81646e-07
5.52371e-07
5.29172e-07
4.98766e-07
4.64755e-07
4.27981e-07
4.01072e-07
0.999994
0.999993
0.999993
0.999992
0.999992
0.999991
0.999991
0.99999
0.99999
0.99999
0.99999
0.99999
0.99999
0.99999
0.99999
0.99999
0.99999
0.99999
0.99999
0.99999
0.99999
0.99999
0.99999
0.99999
0.99999
0.99999
0.99999
0.99999
0.99999
0.99999
0.99999
0.99999
0.99999
0.99999
0.99999
0.99999
0.99999
0.99999
0.99999
0.99999
0.99999
0.99999
0.99999
0.99999
0.999989
0.999988
0.999984
0.999977
0.999967
0.999955
0.999936
0.99992
0.999912
0.999904
0.999901
0.999895
0.999895
0.999885
0.999361
0.949495
0.0309825
0.000125148
8.09975e-07
7.86067e-07
7.78735e-07
7.77387e-07
7.77122e-07
7.76173e-07
7.76761e-07
7.68792e-07
7.65138e-07
7.57874e-07
7.54049e-07
7.49127e-07
7.45673e-07
7.42238e-07
7.40731e-07
7.39222e-07
7.35639e-07
7.28921e-07
7.20061e-07
7.10762e-07
6.99721e-07
6.88839e-07
6.75859e-07
6.60995e-07
6.47507e-07
6.37339e-07
6.2589e-07
6.08684e-07
5.87357e-07
5.59194e-07
5.2582e-07
4.96767e-07
4.61213e-07
4.15933e-07
0.999994
0.999994
0.999993
0.999992
0.999992
0.999991
0.999991
0.99999
0.99999
0.99999
0.99999
0.99999
0.99999
0.99999
0.99999
0.99999
0.99999
0.99999
0.99999
0.99999
0.99999
0.99999
0.99999
0.99999
0.99999
0.99999
0.99999
0.99999
0.99999
0.99999
0.99999
0.99999
0.99999
0.99999
0.99999
0.99999
0.99999
0.99999
0.99999
0.99999
0.99999
0.99999
0.99999
0.99999
0.999989
0.999988
0.999984
0.999978
0.999968
0.999954
0.999931
0.999914
0.999905
0.999897
0.999893
0.999888
0.99989
0.99988
0.99958
0.94067
0.0267813
7.85492e-05
1.4743e-06
1.49318e-06
1.46338e-06
1.42688e-06
1.28062e-06
1.11934e-06
9.68972e-07
8.63658e-07
8.18754e-07
7.97472e-07
7.85866e-07
7.75564e-07
7.72819e-07
7.699e-07
7.67227e-07
7.61906e-07
7.52789e-07
7.44175e-07
7.35979e-07
7.23142e-07
7.07878e-07
6.92619e-07
6.80521e-07
6.70194e-07
6.62279e-07
6.58098e-07
6.5014e-07
6.35164e-07
6.17277e-07
5.87749e-07
5.4699e-07
5.13191e-07
4.81116e-07
4.27487e-07
0.999994
0.999994
0.999993
0.999993
0.999992
0.999992
0.999991
0.999991
0.99999
0.99999
0.99999
0.99999
0.99999
0.99999
0.99999
0.99999
0.99999
0.99999
0.99999
0.99999
0.99999
0.99999
0.99999
0.99999
0.99999
0.99999
0.99999
0.99999
0.99999
0.99999
0.99999
0.99999
0.99999
0.99999
0.99999
0.99999
0.99999
0.99999
0.99999
0.99999
0.99999
0.99999
0.99999
0.99999
0.999989
0.999988
0.999984
0.999978
0.999967
0.999949
0.999924
0.999906
0.999898
0.999891
0.999888
0.999884
0.999886
0.999873
0.999699
0.915387
0.0208492
6.81115e-05
2.86104e-05
2.48381e-05
2.35672e-05
2.18341e-05
1.92264e-05
1.55566e-05
1.15117e-05
7.7102e-06
4.80873e-06
2.87744e-06
1.83502e-06
1.38279e-06
1.20614e-06
1.09697e-06
1.00099e-06
9.24099e-07
8.6831e-07
8.33676e-07
8.17337e-07
8.00745e-07
7.78735e-07
7.57307e-07
7.47337e-07
7.45481e-07
7.34072e-07
7.25283e-07
7.07261e-07
6.79001e-07
6.57044e-07
6.26958e-07
5.78896e-07
5.36221e-07
5.00357e-07
4.41296e-07
0.999994
0.999994
0.999993
0.999993
0.999992
0.999992
0.999991
0.999991
0.99999
0.99999
0.99999
0.99999
0.99999
0.99999
0.99999
0.99999
0.99999
0.99999
0.99999
0.99999
0.99999
0.99999
0.99999
0.99999
0.99999
0.99999
0.99999
0.99999
0.99999
0.99999
0.99999
0.99999
0.99999
0.99999
0.99999
0.99999
0.99999
0.99999
0.99999
0.99999
0.99999
0.99999
0.99999
0.99999
0.999989
0.999987
0.999984
0.999978
0.999964
0.999942
0.999917
0.9999
0.999892
0.999887
0.999884
0.99988
0.999881
0.999868
0.999737
0.879987
0.0218631
0.000537152
0.000476488
0.000407567
0.00038451
0.00035384
0.000319413
0.000278353
0.000239186
0.000200028
0.000163407
0.000131793
0.000106204
8.73794e-05
7.46567e-05
6.55573e-05
5.84854e-05
5.22257e-05
4.66386e-05
4.16251e-05
3.71914e-05
3.33783e-05
2.97627e-05
2.58192e-05
2.25023e-05
1.95246e-05
1.65998e-05
1.35743e-05
1.07083e-05
7.62074e-06
4.54846e-06
2.46376e-06
1.29074e-06
7.46414e-07
5.63625e-07
4.84163e-07
0.999995
0.999994
0.999994
0.999993
0.999993
0.999992
0.999992
0.999991
0.999991
0.99999
0.99999
0.99999
0.99999
0.99999
0.99999
0.99999
0.99999
0.99999
0.99999
0.99999
0.99999
0.99999
0.99999
0.99999
0.99999
0.99999
0.99999
0.99999
0.99999
0.99999
0.99999
0.99999
0.99999
0.99999
0.99999
0.99999
0.99999
0.99999
0.99999
0.99999
0.99999
0.99999
0.99999
0.99999
0.999989
0.999987
0.999984
0.999976
0.999961
0.999937
0.999912
0.999896
0.999889
0.999884
0.999883
0.999881
0.999883
0.999867
0.999769
0.832371
0.0221535
0.00290323
0.00294042
0.00276993
0.00272363
0.00260619
0.0024853
0.00234569
0.00220932
0.0020689
0.00192523
0.00178585
0.00164926
0.00151832
0.00139908
0.00129498
0.0012054
0.00112374
0.00104615
0.000969517
0.000890319
0.000812426
0.000733751
0.0006563
0.000589186
0.000535636
0.000486394
0.000435013
0.000374647
0.000300566
0.000220759
0.00014633
8.5387e-05
4.12936e-05
1.56431e-05
6.12739e-06
0.999995
0.999995
0.999994
0.999994
0.999993
0.999992
0.999992
0.999991
0.999991
0.99999
0.99999
0.99999
0.99999
0.99999
0.99999
0.99999
0.99999
0.99999
0.99999
0.99999
0.99999
0.99999
0.99999
0.99999
0.99999
0.99999
0.99999
0.99999
0.99999
0.99999
0.99999
0.99999
0.99999
0.99999
0.99999
0.99999
0.99999
0.99999
0.99999
0.99999
0.99999
0.99999
0.99999
0.99999
0.999989
0.999987
0.999982
0.999973
0.999958
0.999934
0.999909
0.999894
0.999887
0.999884
0.999884
0.999883
0.999885
0.999877
0.999838
0.782788
0.0246271
0.00750257
0.00786137
0.00777074
0.00768534
0.00754183
0.0073824
0.00724398
0.00710303
0.00695738
0.00681485
0.00665495
0.00649942
0.00632594
0.0061445
0.00594762
0.00575811
0.00555599
0.00535327
0.00513729
0.00491534
0.00468043
0.00443264
0.00417689
0.00391359
0.00363866
0.00335444
0.00303521
0.00267308
0.00229902
0.00192145
0.00156845
0.00123565
0.000898318
0.000553585
0.000290783
0.999995
0.999995
0.999994
0.999994
0.999993
0.999993
0.999992
0.999991
0.999991
0.999991
0.99999
0.99999
0.99999
0.99999
0.99999
0.99999
0.99999
0.99999
0.99999
0.99999
0.99999
0.99999
0.99999
0.99999
0.99999
0.99999
0.99999
0.99999
0.99999
0.99999
0.99999
0.99999
0.99999
0.99999
0.99999
0.99999
0.99999
0.99999
0.99999
0.99999
0.99999
0.99999
0.99999
0.99999
0.999989
0.999987
0.99998
0.999971
0.999955
0.999933
0.999907
0.999893
0.999887
0.999886
0.999888
0.999888
0.99989
0.99988
0.999823
0.773511
0.027561
0.01108
0.0117017
0.0117315
0.0116468
0.0115906
0.0115251
0.0115237
0.0115253
0.0115485
0.0115908
0.0116354
0.0116744
0.0117041
0.0117281
0.0117436
0.0117457
0.0117242
0.0116889
0.011663
0.0116595
0.0116992
0.011807
0.0119904
0.0122256
0.0124955
0.0127553
0.0129752
0.0131435
0.0132607
0.0132317
0.013009
0.0125186
0.0116591
0.0101813
0.00825457
0.999995
0.999995
0.999994
0.999994
0.999993
0.999993
0.999992
0.999991
0.999991
0.999991
0.99999
0.99999
0.99999
0.99999
0.99999
0.99999
0.99999
0.99999
0.99999
0.99999
0.99999
0.99999
0.99999
0.99999
0.99999
0.99999
0.99999
0.99999
0.99999
0.99999
0.99999
0.99999
0.99999
0.99999
0.99999
0.99999
0.99999
0.99999
0.99999
0.99999
0.99999
0.99999
0.99999
0.99999
0.999989
0.999986
0.999979
0.99997
0.999955
0.999935
0.999911
0.999896
0.99989
0.999888
0.99989
0.999889
0.999893
0.999883
0.999811
0.838495
0.025703
0.00633997
0.00620755
0.00563076
0.00531787
0.00508068
0.00494538
0.00484517
0.00477906
0.00472846
0.00469939
0.00466792
0.00463966
0.00461174
0.00458854
0.00456855
0.0045516
0.00452895
0.0044926
0.00444409
0.00439362
0.00433277
0.00427038
0.00420336
0.00413486
0.00407766
0.00402912
0.00398066
0.00390936
0.00380433
0.00364778
0.00335738
0.00290881
0.00228013
0.001439
0.000741738
0.999995
0.999995
0.999994
0.999994
0.999994
0.999993
0.999992
0.999991
0.999991
0.999991
0.99999
0.99999
0.99999
0.99999
0.99999
0.99999
0.99999
0.99999
0.99999
0.99999
0.99999
0.99999
0.99999
0.99999
0.99999
0.99999
0.99999
0.99999
0.99999
0.99999
0.99999
0.99999
0.99999
0.99999
0.99999
0.99999
0.99999
0.99999
0.99999
0.99999
0.99999
0.99999
0.99999
0.99999
0.999989
0.999986
0.999979
0.99997
0.999958
0.999942
0.999918
0.999901
0.999893
0.999889
0.99989
0.999889
0.999894
0.999886
0.999863
0.899951
0.0212272
0.00180182
0.00158959
0.00127864
0.00116111
0.0010815
0.00105249
0.00102031
0.0010006
0.000975134
0.000950822
0.00092268
0.000897648
0.000873823
0.00085274
0.000832132
0.000814706
0.000801955
0.000805929
0.000822879
0.000851114
0.000889234
0.000924977
0.00094832
0.000960208
0.000967405
0.000967259
0.000956957
0.000930887
0.000872183
0.00077254
0.000626551
0.000450077
0.000264221
0.000117881
5.13929e-05
0.999996
0.999995
0.999995
0.999994
0.999994
0.999993
0.999992
0.999991
0.999991
0.99999
0.99999
0.99999
0.99999
0.99999
0.99999
0.99999
0.99999
0.99999
0.99999
0.99999
0.99999
0.99999
0.99999
0.99999
0.99999
0.99999
0.99999
0.99999
0.99999
0.99999
0.99999
0.99999
0.99999
0.99999
0.99999
0.99999
0.99999
0.99999
0.99999
0.99999
0.99999
0.99999
0.99999
0.99999
0.999989
0.999987
0.999981
0.999972
0.999961
0.999947
0.999928
0.999909
0.9999
0.999893
0.999892
0.999889
0.999895
0.999884
0.999869
0.940123
0.0233021
0.000242986
0.000160216
0.000115486
0.000108141
0.000102616
0.000104189
0.000102271
9.93975e-05
9.42001e-05
8.89159e-05
8.30959e-05
7.72595e-05
7.10033e-05
6.50059e-05
5.9236e-05
5.47805e-05
5.23618e-05
5.32755e-05
5.68767e-05
6.25152e-05
6.87645e-05
7.43957e-05
7.89186e-05
8.2868e-05
8.6588e-05
9.01003e-05
9.08946e-05
8.65391e-05
7.70283e-05
6.16554e-05
4.22426e-05
2.40551e-05
1.05438e-05
3.99052e-06
1.92251e-06
0.999996
0.999995
0.999995
0.999995
0.999994
0.999993
0.999992
0.999991
0.999991
0.99999
0.99999
0.99999
0.99999
0.99999
0.99999
0.99999
0.99999
0.99999
0.99999
0.99999
0.99999
0.99999
0.99999
0.99999
0.99999
0.99999
0.99999
0.99999
0.99999
0.99999
0.99999
0.99999
0.99999
0.99999
0.99999
0.99999
0.99999
0.99999
0.99999
0.99999
0.99999
0.99999
0.99999
0.99999
0.999989
0.999987
0.999983
0.999974
0.999963
0.99995
0.999935
0.999919
0.999908
0.999898
0.999896
0.999892
0.999897
0.999882
0.999824
0.963232
0.0346471
8.73221e-05
4.44949e-06
3.01514e-06
3.14385e-06
3.26406e-06
3.50508e-06
3.4374e-06
3.21281e-06
3.01792e-06
2.83857e-06
2.61837e-06
2.36992e-06
2.10688e-06
1.85526e-06
1.64414e-06
1.51521e-06
1.4482e-06
1.48196e-06
1.57403e-06
1.72294e-06
1.92765e-06
2.16526e-06
2.4052e-06
2.63584e-06
2.85457e-06
3.02509e-06
3.00007e-06
2.72183e-06
2.31981e-06
1.83885e-06
1.32135e-06
9.04534e-07
6.59907e-07
5.51951e-07
4.68279e-07
0.999997
0.999996
0.999996
0.999995
0.999995
0.999994
0.999992
0.999991
0.999991
0.99999
0.99999
0.99999
0.99999
0.99999
0.99999
0.99999
0.99999
0.99999
0.99999
0.99999
0.99999
0.99999
0.99999
0.99999
0.99999
0.99999
0.99999
0.99999
0.99999
0.99999
0.99999
0.99999
0.99999
0.99999
0.99999
0.99999
0.99999
0.99999
0.99999
0.99999
0.99999
0.99999
0.99999
0.99999
0.999989
0.999987
0.999983
0.999976
0.999965
0.999952
0.999938
0.999925
0.999916
0.999905
0.999901
0.999896
0.999899
0.99988
0.999734
0.972589
0.0489179
0.000163444
9.52407e-07
8.70633e-07
8.65912e-07
8.66295e-07
8.63309e-07
8.61799e-07
8.55807e-07
8.41797e-07
8.35929e-07
8.29136e-07
8.2456e-07
8.18241e-07
8.07701e-07
7.96738e-07
7.91147e-07
7.89396e-07
7.88595e-07
7.86753e-07
7.82629e-07
7.79636e-07
7.72703e-07
7.63083e-07
7.50674e-07
7.3567e-07
7.2184e-07
7.084e-07
6.87505e-07
6.60603e-07
6.36981e-07
6.11229e-07
5.76819e-07
5.52104e-07
5.13054e-07
4.43019e-07
0.999997
0.999996
0.999996
0.999996
0.999995
0.999995
0.999993
0.999992
0.999991
0.99999
0.99999
0.99999
0.99999
0.99999
0.99999
0.99999
0.99999
0.99999
0.99999
0.99999
0.99999
0.99999
0.99999
0.99999
0.99999
0.99999
0.99999
0.99999
0.99999
0.99999
0.99999
0.99999
0.99999
0.99999
0.99999
0.99999
0.99999
0.99999
0.99999
0.99999
0.99999
0.99999
0.99999
0.99999
0.999989
0.999987
0.999983
0.999977
0.999966
0.999953
0.999939
0.999927
0.999919
0.99991
0.999905
0.999899
0.999898
0.999869
0.999644
0.969729
0.0582954
0.000306882
1.18237e-06
8.47922e-07
8.38875e-07
8.40986e-07
8.43449e-07
8.3958e-07
8.36031e-07
8.30172e-07
8.23285e-07
8.14612e-07
8.08995e-07
8.03257e-07
7.97191e-07
7.90829e-07
7.85434e-07
7.83555e-07
7.81921e-07
7.79939e-07
7.7552e-07
7.7225e-07
7.68787e-07
7.63673e-07
7.55455e-07
7.42897e-07
7.24961e-07
7.05519e-07
6.78911e-07
6.46362e-07
6.16763e-07
5.98371e-07
5.76559e-07
5.58414e-07
5.22984e-07
4.47062e-07
0.999997
0.999996
0.999996
0.999996
0.999996
0.999995
0.999994
0.999992
0.999991
0.99999
0.99999
0.99999
0.99999
0.99999
0.99999
0.99999
0.99999
0.99999
0.99999
0.99999
0.99999
0.99999
0.99999
0.99999
0.99999
0.99999
0.99999
0.99999
0.99999
0.99999
0.99999
0.99999
0.99999
0.99999
0.99999
0.99999
0.99999
0.99999
0.99999
0.99999
0.99999
0.99999
0.99999
0.99999
0.999989
0.999987
0.999983
0.999977
0.999967
0.999953
0.99994
0.999928
0.999921
0.999913
0.999908
0.9999
0.999894
0.999866
0.999584
0.963307
0.0575242
0.00029374
1.11433e-06
8.3487e-07
8.27477e-07
8.23728e-07
8.23816e-07
8.20733e-07
8.19332e-07
8.14549e-07
8.12189e-07
8.06709e-07
8.01175e-07
7.95933e-07
7.90716e-07
7.85059e-07
7.8003e-07
7.77913e-07
7.76434e-07
7.74886e-07
7.71588e-07
7.67267e-07
7.62996e-07
7.59089e-07
7.54326e-07
7.46427e-07
7.33558e-07
7.14949e-07
6.87521e-07
6.52664e-07
6.21394e-07
5.95319e-07
5.75542e-07
5.54478e-07
5.14558e-07
4.46528e-07
0.999998
0.999997
0.999997
0.999996
0.999996
0.999996
0.999995
0.999993
0.999991
0.99999
0.99999
0.99999
0.99999
0.99999
0.99999
0.99999
0.99999
0.99999
0.99999
0.99999
0.99999
0.99999
0.99999
0.99999
0.99999
0.99999
0.99999
0.99999
0.99999
0.99999
0.99999
0.99999
0.99999
0.99999
0.99999
0.99999
0.99999
0.99999
0.99999
0.99999
0.99999
0.99999
0.99999
0.99999
0.999989
0.999987
0.999983
0.999977
0.999967
0.999953
0.999938
0.999927
0.999921
0.999914
0.999911
0.9999
0.999898
0.999874
0.999277
0.955572
0.0633495
0.000566275
1.83783e-06
8.30637e-07
8.27302e-07
8.20911e-07
8.1756e-07
8.1242e-07
8.11551e-07
8.07444e-07
8.05213e-07
8.01645e-07
7.98264e-07
7.94911e-07
7.91525e-07
7.87999e-07
7.84366e-07
7.80877e-07
7.77645e-07
7.75209e-07
7.72016e-07
7.67503e-07
7.63653e-07
7.59784e-07
7.55282e-07
7.50545e-07
7.42765e-07
7.28262e-07
7.04225e-07
6.71372e-07
6.33497e-07
5.96942e-07
5.67723e-07
5.31562e-07
4.94014e-07
4.3608e-07
0.999994
0.999993
0.999993
0.999992
0.999992
0.999991
0.999991
0.99999
0.99999
0.99999
0.99999
0.99999
0.99999
0.99999
0.99999
0.99999
0.99999
0.99999
0.99999
0.99999
0.99999
0.99999
0.99999
0.99999
0.99999
0.99999
0.99999
0.99999
0.99999
0.99999
0.99999
0.99999
0.99999
0.99999
0.99999
0.99999
0.99999
0.99999
0.99999
0.99999
0.99999
0.99999
0.99999
0.99999
0.999989
0.999988
0.999984
0.999977
0.999964
0.999948
0.999935
0.999924
0.999918
0.999912
0.999909
0.999905
0.999904
0.999881
0.999174
0.946012
0.0358629
0.000143198
8.26813e-07
7.47553e-07
7.44108e-07
7.36994e-07
7.36897e-07
7.32087e-07
7.32424e-07
7.29476e-07
7.29683e-07
7.2733e-07
7.2634e-07
7.24094e-07
7.22203e-07
7.19631e-07
7.17743e-07
7.16485e-07
7.14435e-07
7.11014e-07
7.07162e-07
7.01622e-07
6.92633e-07
6.78922e-07
6.67139e-07
6.57593e-07
6.48014e-07
6.38331e-07
6.25696e-07
6.05964e-07
5.81008e-07
5.56554e-07
5.26056e-07
4.92572e-07
4.53934e-07
4.1118e-07
0.999994
0.999993
0.999992
0.999992
0.999992
0.999991
0.999991
0.999991
0.99999
0.99999
0.99999
0.99999
0.99999
0.99999
0.99999
0.99999
0.99999
0.99999
0.99999
0.99999
0.99999
0.99999
0.99999
0.99999
0.99999
0.99999
0.99999
0.99999
0.99999
0.99999
0.99999
0.99999
0.99999
0.99999
0.99999
0.99999
0.99999
0.99999
0.99999
0.99999
0.99999
0.99999
0.99999
0.99999
0.999989
0.999988
0.999984
0.999977
0.999967
0.999954
0.999938
0.999923
0.999914
0.999907
0.999904
0.9999
0.999899
0.999873
0.999555
0.921677
0.0169089
1.37578e-05
7.55693e-07
8.03716e-07
7.85419e-07
7.84855e-07
7.86567e-07
7.79457e-07
7.7923e-07
7.71343e-07
7.66461e-07
7.55798e-07
7.48799e-07
7.41838e-07
7.37399e-07
7.33137e-07
7.30401e-07
7.28154e-07
7.24743e-07
7.21349e-07
7.17479e-07
7.11462e-07
6.99844e-07
6.85089e-07
6.70983e-07
6.58469e-07
6.47586e-07
6.39451e-07
6.30667e-07
6.18161e-07
6.01725e-07
5.78136e-07
5.44838e-07
5.17369e-07
4.90577e-07
4.36555e-07
0.999995
0.999994
0.999993
0.999992
0.999992
0.999992
0.999991
0.999991
0.999991
0.99999
0.99999
0.99999
0.99999
0.99999
0.99999
0.99999
0.99999
0.99999
0.99999
0.99999
0.99999
0.99999
0.99999
0.99999
0.99999
0.99999
0.99999
0.99999
0.99999
0.99999
0.99999
0.99999
0.99999
0.99999
0.99999
0.99999
0.99999
0.99999
0.99999
0.99999
0.99999
0.99999
0.99999
0.99999
0.999989
0.999988
0.999984
0.999978
0.999968
0.999954
0.999934
0.999917
0.999905
0.999898
0.999897
0.999895
0.999896
0.999868
0.999692
0.901613
0.0157292
4.33673e-06
3.84948e-06
3.39902e-06
3.28047e-06
2.71747e-06
2.23488e-06
1.68762e-06
1.32716e-06
1.07018e-06
9.3999e-07
8.60363e-07
8.24692e-07
8.09347e-07
8.009e-07
7.90185e-07
7.82169e-07
7.72554e-07
7.65751e-07
7.6214e-07
7.52734e-07
7.39403e-07
7.25271e-07
7.08373e-07
6.91441e-07
6.77501e-07
6.65784e-07
6.54908e-07
6.45331e-07
6.35539e-07
6.25189e-07
6.03047e-07
5.65832e-07
5.35485e-07
5.08786e-07
4.54247e-07
0.999995
0.999994
0.999993
0.999993
0.999992
0.999992
0.999992
0.999991
0.999991
0.999991
0.99999
0.99999
0.99999
0.99999
0.99999
0.99999
0.99999
0.99999
0.99999
0.99999
0.99999
0.99999
0.99999
0.99999
0.99999
0.99999
0.99999
0.99999
0.99999
0.99999
0.99999
0.99999
0.99999
0.99999
0.99999
0.99999
0.99999
0.99999
0.99999
0.99999
0.99999
0.99999
0.99999
0.99999
0.999989
0.999988
0.999984
0.999979
0.999967
0.999951
0.999926
0.999905
0.999894
0.99989
0.99989
0.999884
0.999878
0.999852
0.999767
0.850508
0.00803889
0.000178544
0.000159027
0.000132172
0.000122338
0.000100804
7.97809e-05
5.87485e-05
4.14159e-05
2.79046e-05
1.86721e-05
1.26529e-05
9.04608e-06
7.00223e-06
5.96346e-06
5.40125e-06
5.1095e-06
4.8993e-06
4.71421e-06
4.49702e-06
4.26465e-06
3.97064e-06
3.60196e-06
3.13227e-06
2.70787e-06
2.32916e-06
1.98593e-06
1.68163e-06
1.28328e-06
9.66606e-07
7.86702e-07
7.03345e-07
6.54507e-07
5.97878e-07
5.49482e-07
4.80765e-07
0.999995
0.999995
0.999994
0.999993
0.999993
0.999992
0.999992
0.999991
0.999991
0.999991
0.99999
0.99999
0.99999
0.99999
0.99999
0.99999
0.99999
0.99999
0.99999
0.99999
0.99999
0.99999
0.99999
0.99999
0.99999
0.99999
0.99999
0.99999
0.99999
0.99999
0.99999
0.99999
0.99999
0.99999
0.99999
0.99999
0.99999
0.99999
0.99999
0.99999
0.99999
0.99999
0.99999
0.99999
0.999989
0.999987
0.999984
0.999978
0.999964
0.999943
0.999915
0.999896
0.999886
0.999882
0.999877
0.999867
0.999859
0.999843
0.999837
0.772111
0.00986093
0.00272024
0.00257177
0.00228762
0.00212448
0.00187364
0.00163836
0.00139489
0.00116912
0.000962177
0.000790168
0.000650986
0.000545862
0.000471043
0.000420384
0.000388985
0.000371238
0.000361513
0.000358276
0.000357638
0.000356991
0.000348336
0.000326266
0.000299642
0.000268185
0.000237443
0.000208192
0.000171376
0.00012871
8.58441e-05
4.93836e-05
2.38526e-05
9.8042e-06
3.59507e-06
1.35737e-06
7.3936e-07
0.999995
0.999995
0.999994
0.999993
0.999993
0.999992
0.999992
0.999991
0.999991
0.999991
0.99999
0.99999
0.99999
0.99999
0.99999
0.99999
0.99999
0.99999
0.99999
0.99999
0.99999
0.99999
0.99999
0.99999
0.99999
0.99999
0.99999
0.99999
0.99999
0.99999
0.99999
0.99999
0.99999
0.99999
0.99999
0.99999
0.99999
0.99999
0.99999
0.99999
0.99999
0.99999
0.99999
0.99999
0.999989
0.999987
0.999983
0.999975
0.999961
0.999936
0.999906
0.99989
0.999881
0.999874
0.999867
0.999861
0.999858
0.999855
0.999835
0.653567
0.0197423
0.0124473
0.012704
0.012476
0.01227
0.0119608
0.0116333
0.0112627
0.0108169
0.0103139
0.00975063
0.00915731
0.00857279
0.00800862
0.00748625
0.00703594
0.00666367
0.00636426
0.00612834
0.00594177
0.00575866
0.00553827
0.0052599
0.00498959
0.00468389
0.00433104
0.00396428
0.00356518
0.00313991
0.00265298
0.00213323
0.00157954
0.00103706
0.000572383
0.000244582
9.07387e-05
0.999996
0.999996
0.999995
0.999994
0.999993
0.999993
0.999992
0.999991
0.999991
0.999991
0.99999
0.99999
0.99999
0.99999
0.99999
0.99999
0.99999
0.99999
0.99999
0.99999
0.99999
0.99999
0.99999
0.99999
0.99999
0.99999
0.99999
0.99999
0.99999
0.99999
0.99999
0.99999
0.99999
0.99999
0.99999
0.99999
0.99999
0.99999
0.99999
0.99999
0.99999
0.99999
0.99999
0.99999
0.999989
0.999987
0.999982
0.999972
0.999957
0.999933
0.999902
0.999887
0.999879
0.999874
0.99987
0.999867
0.999867
0.999862
0.999607
0.579147
0.0296132
0.023521
0.0245819
0.0250641
0.0254367
0.0259181
0.0263587
0.0268156
0.0272047
0.0275837
0.0279134
0.0282165
0.0284359
0.0285774
0.028618
0.028594
0.0285033
0.0283784
0.0282115
0.0279963
0.0277084
0.0273559
0.0270319
0.0266749
0.0262052
0.0255887
0.0247308
0.0237019
0.0226532
0.0215904
0.0204369
0.0191397
0.0175608
0.015331
0.0125815
0.0100975
0.999996
0.999996
0.999995
0.999995
0.999994
0.999993
0.999992
0.999991
0.999991
0.999991
0.99999
0.99999
0.99999
0.99999
0.99999
0.99999
0.99999
0.99999
0.99999
0.99999
0.99999
0.99999
0.99999
0.99999
0.99999
0.99999
0.99999
0.99999
0.99999
0.99999
0.99999
0.99999
0.99999
0.99999
0.99999
0.99999
0.99999
0.99999
0.99999
0.99999
0.99999
0.99999
0.99999
0.99999
0.999989
0.999987
0.999981
0.99997
0.999954
0.99993
0.999902
0.999887
0.999882
0.99988
0.99988
0.99988
0.999882
0.999879
0.999344
0.681869
0.0319287
0.0208227
0.0216788
0.0219551
0.0224055
0.0231865
0.024153
0.0252481
0.0264447
0.0277505
0.0291549
0.0307067
0.0323741
0.0341194
0.0359511
0.0378489
0.0398507
0.0419613
0.0441749
0.0465097
0.0490088
0.0517558
0.0548056
0.0581681
0.0619331
0.0660383
0.0704446
0.0753059
0.0809069
0.0873845
0.0952604
0.10514
0.118387
0.13972
0.188492
0.383782
0.999996
0.999996
0.999996
0.999995
0.999994
0.999993
0.999992
0.999991
0.999991
0.999991
0.99999
0.99999
0.99999
0.99999
0.99999
0.99999
0.99999
0.99999
0.99999
0.99999
0.99999
0.99999
0.99999
0.99999
0.99999
0.99999
0.99999
0.99999
0.99999
0.99999
0.99999
0.99999
0.99999
0.99999
0.99999
0.99999
0.99999
0.99999
0.99999
0.99999
0.99999
0.99999
0.99999
0.99999
0.999989
0.999987
0.99998
0.999971
0.999957
0.999935
0.999909
0.999894
0.999887
0.999884
0.999883
0.999881
0.999883
0.99988
0.999842
0.825028
0.0215809
0.00626374
0.00587274
0.00502263
0.00469359
0.00437819
0.00418286
0.00404251
0.00398392
0.0039664
0.00400368
0.00404778
0.00413523
0.00427864
0.00449753
0.00477837
0.00512183
0.0055083
0.00592059
0.00636602
0.00684233
0.00735753
0.00790612
0.00842729
0.00890917
0.00941237
0.00992251
0.0104477
0.0110278
0.0116187
0.0121767
0.012749
0.0134433
0.0141138
0.014358
0.0131418
0.999996
0.999996
0.999996
0.999996
0.999995
0.999994
0.999992
0.999992
0.999991
0.999991
0.99999
0.99999
0.99999
0.99999
0.99999
0.99999
0.99999
0.99999
0.99999
0.99999
0.99999
0.99999
0.99999
0.99999
0.99999
0.99999
0.99999
0.99999
0.99999
0.99999
0.99999
0.99999
0.99999
0.99999
0.99999
0.99999
0.99999
0.99999
0.99999
0.99999
0.99999
0.99999
0.99999
0.99999
0.999989
0.999987
0.999981
0.999972
0.999962
0.999945
0.99992
0.999903
0.999894
0.999888
0.999885
0.999883
0.999886
0.999876
0.999891
0.88827
0.012639
0.00103575
0.000893521
0.000682141
0.00060754
0.000533006
0.00048155
0.000437554
0.00040876
0.000387347
0.00037552
0.000371701
0.000375174
0.000384299
0.000396259
0.000410426
0.000429327
0.000454901
0.00048879
0.000528196
0.000570925
0.000624352
0.000688281
0.000758025
0.000831111
0.000897565
0.000967948
0.0010353
0.00111217
0.00120206
0.00130446
0.00138195
0.0013834
0.00115679
0.000711728
0.000317839
0.999996
0.999996
0.999996
0.999996
0.999995
0.999994
0.999993
0.999992
0.999991
0.999991
0.99999
0.99999
0.99999
0.99999
0.99999
0.99999
0.99999
0.99999
0.99999
0.99999
0.99999
0.99999
0.99999
0.99999
0.99999
0.99999
0.99999
0.99999
0.99999
0.99999
0.99999
0.99999
0.99999
0.99999
0.99999
0.99999
0.99999
0.99999
0.99999
0.99999
0.99999
0.99999
0.99999
0.99999
0.999989
0.999987
0.999983
0.999974
0.999963
0.99995
0.999932
0.999913
0.999902
0.999896
0.999893
0.999889
0.999888
0.99987
0.999879
0.929339
0.0149349
0.000102988
9.41571e-05
7.00501e-05
6.46174e-05
5.6953e-05
5.16205e-05
4.4719e-05
3.83707e-05
3.26587e-05
2.82171e-05
2.50001e-05
2.32912e-05
2.28454e-05
2.23617e-05
2.17803e-05
2.1191e-05
2.13712e-05
2.35082e-05
2.666e-05
2.99545e-05
3.32147e-05
3.57843e-05
3.83949e-05
4.01862e-05
3.94649e-05
3.7178e-05
3.36892e-05
3.06339e-05
2.88979e-05
2.7838e-05
2.58079e-05
2.02761e-05
1.3097e-05
6.34953e-06
2.78306e-06
0.999997
0.999996
0.999996
0.999996
0.999996
0.999995
0.999993
0.999992
0.999991
0.999991
0.99999
0.99999
0.99999
0.99999
0.99999
0.99999
0.99999
0.99999
0.99999
0.99999
0.99999
0.99999
0.99999
0.99999
0.99999
0.99999
0.99999
0.99999
0.99999
0.99999
0.99999
0.99999
0.99999
0.99999
0.99999
0.99999
0.99999
0.99999
0.99999
0.99999
0.99999
0.99999
0.99999
0.99999
0.999989
0.999987
0.999984
0.999977
0.999966
0.999952
0.999937
0.999923
0.999911
0.999902
0.9999
0.999895
0.99989
0.999863
0.999828
0.954625
0.0231139
4.89835e-06
6.04381e-06
3.51698e-06
3.46239e-06
2.97782e-06
2.74861e-06
2.4266e-06
2.13921e-06
1.89842e-06
1.71465e-06
1.53291e-06
1.37035e-06
1.24706e-06
1.17529e-06
1.14754e-06
1.13622e-06
1.15718e-06
1.21939e-06
1.30061e-06
1.3916e-06
1.46647e-06
1.50693e-06
1.5034e-06
1.44518e-06
1.32529e-06
1.16805e-06
1.00663e-06
8.74728e-07
7.71382e-07
7.10497e-07
6.65658e-07
6.18028e-07
5.79185e-07
5.38685e-07
4.66338e-07
0.999997
0.999997
0.999997
0.999996
0.999996
0.999995
0.999994
0.999992
0.999991
0.999991
0.99999
0.99999
0.99999
0.99999
0.99999
0.99999
0.99999
0.99999
0.99999
0.99999
0.99999
0.99999
0.99999
0.99999
0.99999
0.99999
0.99999
0.99999
0.99999
0.99999
0.99999
0.99999
0.99999
0.99999
0.99999
0.99999
0.99999
0.99999
0.99999
0.99999
0.99999
0.99999
0.99999
0.99999
0.999989
0.999988
0.999984
0.999977
0.999968
0.999954
0.99994
0.999926
0.999917
0.999906
0.999901
0.999892
0.999884
0.999853
0.999744
0.963511
0.033717
1.03714e-05
1.03037e-06
8.88618e-07
9.14315e-07
8.97019e-07
8.89799e-07
8.77963e-07
8.73317e-07
8.55292e-07
8.4601e-07
8.38421e-07
8.3431e-07
8.26579e-07
8.14992e-07
8.04219e-07
7.96957e-07
7.90268e-07
7.85354e-07
7.84808e-07
7.83675e-07
7.82335e-07
7.79986e-07
7.72142e-07
7.59416e-07
7.42851e-07
7.24009e-07
7.04547e-07
6.83341e-07
6.56634e-07
6.24608e-07
6.04948e-07
5.80951e-07
5.54616e-07
5.12423e-07
4.36097e-07
0.999997
0.999997
0.999997
0.999997
0.999996
0.999996
0.999995
0.999993
0.999991
0.999991
0.99999
0.99999
0.99999
0.99999
0.99999
0.99999
0.99999
0.99999
0.99999
0.99999
0.99999
0.99999
0.99999
0.99999
0.99999
0.99999
0.99999
0.99999
0.99999
0.99999
0.99999
0.99999
0.99999
0.99999
0.99999
0.99999
0.99999
0.99999
0.99999
0.99999
0.99999
0.99999
0.99999
0.99999
0.999989
0.999987
0.999984
0.999977
0.999967
0.999954
0.99994
0.999927
0.999918
0.999906
0.999896
0.999887
0.999875
0.99983
0.999619
0.957817
0.0387422
3.14841e-05
8.91178e-07
8.67823e-07
8.52074e-07
8.52265e-07
8.53123e-07
8.46174e-07
8.41057e-07
8.32458e-07
8.25256e-07
8.16085e-07
8.11252e-07
8.05708e-07
7.99327e-07
7.92602e-07
7.87091e-07
7.83013e-07
7.79889e-07
7.77678e-07
7.74044e-07
7.70634e-07
7.6783e-07
7.63345e-07
7.55996e-07
7.45225e-07
7.2836e-07
7.07799e-07
6.83639e-07
6.50812e-07
6.16223e-07
5.91953e-07
5.7765e-07
5.6409e-07
5.30219e-07
4.45018e-07
0.999997
0.999997
0.999997
0.999997
0.999997
0.999996
0.999996
0.999994
0.999992
0.999991
0.99999
0.99999
0.99999
0.99999
0.99999
0.99999
0.99999
0.99999
0.99999
0.99999
0.99999
0.99999
0.99999
0.99999
0.99999
0.99999
0.99999
0.99999
0.99999
0.99999
0.99999
0.99999
0.99999
0.99999
0.99999
0.99999
0.99999
0.99999
0.99999
0.99999
0.99999
0.99999
0.99999
0.99999
0.999989
0.999987
0.999984
0.999977
0.999967
0.999954
0.99994
0.999927
0.999917
0.999905
0.999894
0.999878
0.999864
0.99982
0.999586
0.939465
0.035849
5.83909e-05
9.13774e-07
8.39211e-07
8.29826e-07
8.24596e-07
8.25136e-07
8.2038e-07
8.18696e-07
8.14152e-07
8.11592e-07
8.05789e-07
8.01096e-07
7.95423e-07
7.90866e-07
7.86189e-07
7.82198e-07
7.79331e-07
7.76713e-07
7.744e-07
7.71761e-07
7.68675e-07
7.65561e-07
7.61297e-07
7.55145e-07
7.47401e-07
7.34091e-07
7.14319e-07
6.86818e-07
6.49119e-07
6.11277e-07
5.82712e-07
5.69686e-07
5.5366e-07
5.18527e-07
4.44873e-07
0.999998
0.999997
0.999997
0.999997
0.999997
0.999997
0.999996
0.999994
0.999992
0.999991
0.99999
0.99999
0.99999
0.99999
0.99999
0.99999
0.99999
0.99999
0.99999
0.99999
0.99999
0.99999
0.99999
0.99999
0.99999
0.99999
0.99999
0.99999
0.99999
0.99999
0.99999
0.99999
0.99999
0.99999
0.99999
0.99999
0.99999
0.99999
0.99999
0.99999
0.99999
0.99999
0.99999
0.99999
0.999989
0.999987
0.999983
0.999977
0.999967
0.999953
0.999938
0.999927
0.99992
0.999912
0.999903
0.999886
0.999877
0.999829
0.999407
0.955358
0.056564
0.000418812
1.45505e-06
8.31592e-07
8.26086e-07
8.17414e-07
8.15869e-07
8.10445e-07
8.08779e-07
8.0405e-07
8.01883e-07
7.97848e-07
7.95462e-07
7.92075e-07
7.89376e-07
7.86561e-07
7.84346e-07
7.81774e-07