/*--------------------------------*- C++ -*----------------------------------*\
| =========                 |                                                 |
| \\      /  F ield         | OpenFOAM: The Open Source CFD Toolbox           |
|  \\    /   O peration     | Version:  2.3.0                                 |
|   \\  /    A nd           | Web:      www.OpenFOAM.org                      |
|    \\/     M anipulation  |                                                 |
\*---------------------------------------------------------------------------*/
FoamFile
{
    version     2.0;
    format      ascii;
    class       volScalarField;
    location    "46";
    object      alpha.air;
}
// * * * * * * * * * * * * * * * * * * * * * * * * * * * * * * * * * * * * * //

dimensions      [0 0 0 0 0 0 0];

internalField   nonuniform List<scalar> 
6144
(
0.999996
0.999995
0.999995
0.999994
0.999994
0.999993
0.999992
0.999991
0.99999
0.99999
0.99999
0.99999
0.99999
0.99999
0.99999
0.99999
0.99999
0.99999
0.99999
0.99999
0.99999
0.99999
0.99999
0.99999
0.99999
0.99999
0.99999
0.99999
0.99999
0.99999
0.99999
0.99999
0.99999
0.99999
0.99999
0.99999
0.99999
0.99999
0.99999
0.99999
0.99999
0.99999
0.99999
0.999988
0.99998
0.999967
0.999952
0.999929
0.999917
0.999905
0.999892
0.999889
0.99989
0.999891
0.999894
0.999897
0.999905
0.999908
0.998017
0.917232
0.0231492
0.000113051
5.10747e-07
4.69516e-07
4.70422e-07
4.70626e-07
4.71067e-07
4.71667e-07
4.71977e-07
4.71647e-07
4.70456e-07
4.72135e-07
4.74146e-07
4.73628e-07
4.73097e-07
4.73289e-07
4.7444e-07
4.7801e-07
4.82354e-07
4.95108e-07
5.01056e-07
4.57845e-07
4.4056e-07
4.35358e-07
4.24823e-07
4.24717e-07
4.21375e-07
4.06501e-07
3.86719e-07
3.66231e-07
3.46013e-07
3.27076e-07
3.07183e-07
2.81669e-07
2.54754e-07
2.32321e-07
0.999996
0.999995
0.999995
0.999994
0.999993
0.999993
0.999992
0.999991
0.99999
0.99999
0.99999
0.99999
0.99999
0.99999
0.99999
0.99999
0.99999
0.99999
0.99999
0.99999
0.99999
0.99999
0.99999
0.99999
0.99999
0.99999
0.99999
0.99999
0.99999
0.99999
0.99999
0.99999
0.99999
0.99999
0.99999
0.99999
0.99999
0.99999
0.99999
0.99999
0.99999
0.99999
0.99999
0.999987
0.999976
0.999955
0.999939
0.999931
0.999922
0.999899
0.999885
0.999887
0.999889
0.999889
0.999892
0.999894
0.999903
0.999894
0.999241
0.931251
0.0200554
2.45828e-05
4.68005e-07
4.80968e-07
4.80704e-07
4.96449e-07
5.32408e-07
5.53006e-07
5.47843e-07
5.2795e-07
4.90353e-07
4.72609e-07
4.74121e-07
4.77228e-07
4.68036e-07
4.65788e-07
4.65788e-07
4.65788e-07
4.78893e-07
5.09398e-07
4.93246e-07
4.58461e-07
4.49096e-07
4.50035e-07
4.48025e-07
4.64622e-07
4.65513e-07
4.24681e-07
3.84638e-07
3.53228e-07
3.21647e-07
2.9309e-07
2.6559e-07
2.43662e-07
2.32321e-07
2.3232e-07
0.999996
0.999996
0.999995
0.999994
0.999993
0.999992
0.999992
0.999991
0.999991
0.99999
0.99999
0.99999
0.99999
0.99999
0.99999
0.99999
0.99999
0.99999
0.99999
0.99999
0.99999
0.99999
0.99999
0.99999
0.99999
0.99999
0.99999
0.99999
0.99999
0.99999
0.99999
0.99999
0.99999
0.99999
0.99999
0.99999
0.99999
0.99999
0.99999
0.99999
0.99999
0.99999
0.99999
0.999987
0.999976
0.999959
0.999946
0.999936
0.999912
0.999886
0.999885
0.999888
0.99989
0.99989
0.99989
0.999888
0.999897
0.999889
0.999413
0.920648
0.0233023
8.49722e-07
4.68005e-07
4.77401e-07
4.97816e-07
4.96278e-07
4.99437e-07
5.09475e-07
5.08638e-07
5.01e-07
4.93913e-07
5.12772e-07
5.28912e-07
5.17962e-07
5.06497e-07
4.87612e-07
4.77663e-07
4.79019e-07
4.94329e-07
4.95938e-07
4.66546e-07
4.58539e-07
4.5851e-07
4.70579e-07
5.06754e-07
5.54764e-07
5.66046e-07
5.12317e-07
4.69982e-07
4.33442e-07
3.95555e-07
3.61831e-07
3.30836e-07
2.92551e-07
2.65027e-07
2.47255e-07
0.999997
0.999996
0.999995
0.999994
0.999993
0.999992
0.999992
0.999991
0.999991
0.99999
0.99999
0.99999
0.99999
0.99999
0.99999
0.99999
0.99999
0.99999
0.99999
0.99999
0.99999
0.99999
0.99999
0.99999
0.99999
0.99999
0.99999
0.99999
0.99999
0.99999
0.99999
0.99999
0.99999
0.99999
0.99999
0.99999
0.99999
0.99999
0.99999
0.99999
0.99999
0.99999
0.99999
0.999987
0.999979
0.999967
0.999953
0.999934
0.999906
0.999884
0.999885
0.999887
0.999888
0.999888
0.99989
0.999894
0.999897
0.999877
0.99972
0.879268
0.0272595
7.8051e-07
1.54883e-06
9.007e-07
1.00102e-06
4.96084e-07
6.50988e-07
6.40399e-07
6.62441e-07
6.8046e-07
6.87012e-07
6.78574e-07
5.80701e-07
5.3271e-07
5.24709e-07
5.22787e-07
5.25124e-07
5.2845e-07
5.31261e-07
5.26936e-07
5.26467e-07
5.38442e-07
5.58142e-07
5.84861e-07
6.24484e-07
6.48035e-07
6.13693e-07
5.43661e-07
5.18578e-07
5.0393e-07
4.94944e-07
4.74755e-07
4.53638e-07
4.21535e-07
3.67716e-07
3.13695e-07
0.999997
0.999996
0.999995
0.999995
0.999994
0.999993
0.999992
0.999991
0.999991
0.99999
0.99999
0.99999
0.99999
0.99999
0.99999
0.99999
0.99999
0.99999
0.99999
0.99999
0.99999
0.99999
0.99999
0.99999
0.99999
0.99999
0.99999
0.99999
0.99999
0.99999
0.99999
0.99999
0.99999
0.99999
0.99999
0.99999
0.99999
0.99999
0.99999
0.99999
0.99999
0.99999
0.99999
0.999987
0.999981
0.999973
0.99996
0.99994
0.999907
0.999884
0.999885
0.999886
0.999886
0.999885
0.999885
0.999885
0.999883
0.999883
0.999893
0.797131
0.0138716
7.48612e-05
5.80126e-05
4.02398e-05
3.26016e-05
1.33571e-05
7.08175e-06
5.27685e-06
3.52601e-06
2.03227e-06
1.20579e-06
9.88979e-07
1.08587e-06
8.62117e-07
6.3184e-07
5.18947e-07
5.18001e-07
5.15894e-07
5.1412e-07
5.11836e-07
5.11858e-07
5.11858e-07
5.11858e-07
5.23677e-07
6.56531e-07
7.14415e-07
5.73356e-07
5.14872e-07
5.14872e-07
5.32374e-07
5.39896e-07
5.41174e-07
5.32094e-07
5.39656e-07
4.93672e-07
3.61892e-07
0.999997
0.999996
0.999995
0.999995
0.999994
0.999993
0.999992
0.999991
0.999991
0.99999
0.99999
0.99999
0.99999
0.99999
0.99999
0.99999
0.99999
0.99999
0.99999
0.99999
0.99999
0.99999
0.99999
0.99999
0.99999
0.99999
0.99999
0.99999
0.99999
0.99999
0.99999
0.99999
0.99999
0.99999
0.99999
0.99999
0.99999
0.99999
0.99999
0.99999
0.99999
0.99999
0.99999
0.999988
0.999984
0.999979
0.999972
0.999959
0.999906
0.999883
0.999884
0.999886
0.999887
0.999886
0.999884
0.999883
0.999884
0.999879
0.999893
0.729583
0.00310796
0.00163221
0.00167944
0.00156321
0.00150686
0.00127658
0.00113784
0.00103236
0.000925643
0.000806694
0.00064939
0.000502244
0.000371988
0.000279325
0.000224569
0.000182641
0.000156105
0.000124168
9.35962e-05
7.61156e-05
6.45212e-05
6.06826e-05
5.10862e-05
4.01614e-05
3.00309e-05
2.06962e-05
1.10365e-05
4.31536e-06
1.60932e-06
8.79706e-07
5.53056e-07
4.87044e-07
4.87044e-07
4.87044e-07
5.70362e-07
3.32738e-07
0.999997
0.999996
0.999996
0.999995
0.999994
0.999993
0.999992
0.999991
0.999991
0.999991
0.99999
0.99999
0.99999
0.99999
0.99999
0.99999
0.99999
0.99999
0.99999
0.99999
0.99999
0.99999
0.99999
0.99999
0.99999
0.99999
0.99999
0.99999
0.99999
0.99999
0.99999
0.99999
0.99999
0.99999
0.99999
0.99999
0.99999
0.99999
0.99999
0.99999
0.99999
0.99999
0.99999
0.999989
0.999987
0.999984
0.999982
0.999977
0.999898
0.999881
0.999884
0.999886
0.999887
0.999885
0.999882
0.999881
0.999883
0.99988
0.999893
0.666103
0.00985105
0.00711847
0.00756131
0.00764777
0.0073867
0.00725166
0.00711901
0.00704098
0.00689193
0.00671629
0.00653719
0.00636271
0.00621384
0.00605075
0.00586988
0.00566945
0.00543913
0.00520627
0.00500979
0.00485046
0.00469616
0.00454305
0.00432923
0.00402239
0.00364112
0.00321289
0.0025118
0.00171237
0.000951098
0.000448731
0.000281427
0.000203161
0.000169714
3.90703e-05
2.40828e-06
3.15512e-07
0.999997
0.999997
0.999996
0.999996
0.999994
0.999993
0.999993
0.999992
0.999991
0.999991
0.99999
0.99999
0.99999
0.99999
0.99999
0.99999
0.99999
0.99999
0.99999
0.99999
0.99999
0.99999
0.99999
0.99999
0.99999
0.99999
0.99999
0.99999
0.99999
0.99999
0.99999
0.99999
0.99999
0.99999
0.99999
0.99999
0.99999
0.99999
0.99999
0.99999
0.99999
0.99999
0.99999
0.999989
0.999989
0.999988
0.999988
0.999984
0.999916
0.999882
0.999884
0.999886
0.999887
0.999883
0.999881
0.999882
0.999885
0.999887
0.999893
0.765002
0.0240843
0.00966258
0.0104231
0.0105922
0.0105498
0.0106346
0.0108912
0.0110453
0.0111034
0.0111356
0.0111199
0.0114372
0.011766
0.0120433
0.0122576
0.0125183
0.0128371
0.0132551
0.0137978
0.0143527
0.0148654
0.0153388
0.0158442
0.0163605
0.0169907
0.0177793
0.0185642
0.0190833
0.0185071
0.0170234
0.014733
0.0120748
0.00829274
0.00358153
0.00033254
0.00110583
0.999998
0.999997
0.999996
0.999996
0.999995
0.999994
0.999993
0.999992
0.999991
0.999991
0.99999
0.99999
0.99999
0.99999
0.99999
0.99999
0.99999
0.99999
0.99999
0.99999
0.99999
0.99999
0.99999
0.99999
0.99999
0.99999
0.99999
0.99999
0.99999
0.99999
0.99999
0.99999
0.99999
0.99999
0.99999
0.99999
0.99999
0.99999
0.99999
0.99999
0.99999
0.99999
0.99999
0.99999
0.999989
0.999989
0.999988
0.999986
0.999949
0.999891
0.999882
0.999886
0.999888
0.999887
0.999888
0.999884
0.999886
0.999881
0.999893
0.850709
0.0147892
0.00225931
0.00171803
0.00124958
0.00124281
0.00113762
0.00120549
0.0010876
0.00105778
0.00109189
0.0011201
0.00116353
0.00121141
0.00127747
0.00136168
0.00147851
0.00161161
0.00176945
0.00193532
0.002132
0.00234775
0.00257935
0.00281325
0.00306214
0.00330855
0.0035088
0.00366364
0.00373097
0.00352167
0.00320246
0.0025215
0.00166284
0.000740261
0.000183157
2.03451e-05
3.15508e-07
0.999998
0.999997
0.999997
0.999996
0.999995
0.999994
0.999993
0.999992
0.999991
0.999991
0.99999
0.99999
0.99999
0.99999
0.99999
0.99999
0.99999
0.99999
0.99999
0.99999
0.99999
0.99999
0.99999
0.99999
0.99999
0.99999
0.99999
0.99999
0.99999
0.99999
0.99999
0.99999
0.99999
0.99999
0.99999
0.99999
0.99999
0.99999
0.99999
0.99999
0.99999
0.99999
0.99999
0.99999
0.999989
0.999988
0.999987
0.999986
0.999968
0.999917
0.999886
0.999884
0.999886
0.999886
0.999886
0.999881
0.999883
0.999876
0.999893
0.907458
0.0118672
5.92321e-05
3.21158e-05
2.20872e-05
2.25392e-05
1.848e-05
2.09121e-05
1.93348e-05
1.89626e-05
2.02579e-05
2.08838e-05
2.08645e-05
2.13316e-05
2.44357e-05
2.91479e-05
3.65168e-05
4.63652e-05
5.79742e-05
6.96036e-05
8.00046e-05
9.00029e-05
0.000100292
0.000112751
0.000124032
0.000130373
0.000131663
0.000112201
9.29321e-05
7.31623e-05
5.8185e-05
4.06759e-05
2.01238e-05
5.05274e-06
4.44245e-07
3.89183e-07
3.9849e-07
0.999998
0.999998
0.999997
0.999997
0.999996
0.999994
0.999993
0.999992
0.999991
0.999991
0.99999
0.99999
0.99999
0.99999
0.99999
0.99999
0.99999
0.99999
0.99999
0.99999
0.99999
0.99999
0.99999
0.99999
0.99999
0.99999
0.99999
0.99999
0.99999
0.99999
0.99999
0.99999
0.99999
0.99999
0.99999
0.99999
0.99999
0.99999
0.99999
0.99999
0.99999
0.99999
0.99999
0.99999
0.999989
0.999986
0.999979
0.999981
0.999974
0.999942
0.999898
0.999881
0.999882
0.999882
0.999882
0.999878
0.999879
0.999875
0.999893
0.972325
0.0634704
6.02955e-07
6.02955e-07
8.66157e-07
8.75882e-07
8.19132e-07
8.78371e-07
9.42104e-07
8.60576e-07
7.06065e-07
5.9907e-07
5.62845e-07
5.39607e-07
5.25474e-07
5.19929e-07
5.19932e-07
5.19938e-07
5.19944e-07
5.1995e-07
8.81841e-07
1.33086e-06
6.61707e-07
5.17213e-07
6.13752e-07
1.13976e-06
1.70351e-06
1.2224e-06
7.65658e-07
7.25382e-07
8.29219e-07
8.58551e-07
6.89494e-07
4.96055e-07
4.95348e-07
5.38454e-07
4.56779e-07
0.999998
0.999998
0.999998
0.999997
0.999996
0.999995
0.999993
0.999992
0.999991
0.999991
0.99999
0.99999
0.99999
0.99999
0.99999
0.99999
0.99999
0.99999
0.99999
0.99999
0.99999
0.99999
0.99999
0.99999
0.99999
0.99999
0.99999
0.99999
0.99999
0.99999
0.99999
0.99999
0.99999
0.99999
0.99999
0.99999
0.99999
0.99999
0.99999
0.99999
0.99999
0.99999
0.99999
0.99999
0.999989
0.999982
0.999967
0.999964
0.999968
0.999953
0.999913
0.999885
0.999877
0.999877
0.999876
0.999874
0.999876
0.999872
0.999893
0.977387
0.0585179
9.42645e-06
6.02954e-07
7.44744e-07
7.9909e-07
7.76961e-07
7.51703e-07
7.31142e-07
7.36911e-07
7.33009e-07
6.95136e-07
6.49949e-07
6.47551e-07
6.36462e-07
6.28048e-07
6.21842e-07
6.21946e-07
6.25636e-07
6.17395e-07
5.96606e-07
5.5762e-07
5.22284e-07
5.17676e-07
5.55905e-07
5.92339e-07
6.05844e-07
6.06476e-07
5.99372e-07
5.73592e-07
5.65863e-07
5.63412e-07
5.61705e-07
5.36863e-07
5.54702e-07
5.55046e-07
4.66948e-07
0.999998
0.999998
0.999998
0.999998
0.999997
0.999996
0.999995
0.999993
0.999991
0.99999
0.99999
0.99999
0.99999
0.99999
0.99999
0.99999
0.99999
0.99999
0.99999
0.99999
0.99999
0.99999
0.99999
0.99999
0.99999
0.99999
0.99999
0.99999
0.99999
0.99999
0.99999
0.99999
0.99999
0.99999
0.99999
0.99999
0.99999
0.99999
0.99999
0.99999
0.99999
0.99999
0.99999
0.99999
0.999988
0.999978
0.999957
0.999947
0.999955
0.99995
0.999926
0.999894
0.99988
0.999875
0.999873
0.999873
0.999878
0.999867
0.999791
0.979102
0.0529892
8.0258e-05
6.02954e-07
6.4016e-07
6.55581e-07
7.05834e-07
7.06473e-07
7.02432e-07
7.05565e-07
7.14886e-07
7.10424e-07
6.89584e-07
6.54096e-07
6.28941e-07
6.23804e-07
6.20832e-07
6.14411e-07
6.14411e-07
6.14411e-07
6.15032e-07
6.04495e-07
5.53766e-07
5.08127e-07
5.17614e-07
5.47219e-07
5.66622e-07
5.7429e-07
5.75198e-07
5.57151e-07
5.3629e-07
5.37927e-07
5.4413e-07
5.47323e-07
5.55425e-07
5.54288e-07
4.69187e-07
0.999998
0.999998
0.999998
0.999998
0.999998
0.999997
0.999996
0.999994
0.999992
0.99999
0.99999
0.99999
0.99999
0.99999
0.99999
0.99999
0.99999
0.99999
0.99999
0.99999
0.99999
0.99999
0.99999
0.99999
0.99999
0.99999
0.99999
0.99999
0.99999
0.99999
0.99999
0.99999
0.99999
0.99999
0.99999
0.99999
0.99999
0.99999
0.99999
0.99999
0.99999
0.99999
0.99999
0.99999
0.999988
0.999975
0.999952
0.999941
0.999941
0.999942
0.999932
0.999908
0.999888
0.999878
0.999876
0.999875
0.999882
0.999788
0.99953
0.968749
0.0487264
1.02939e-05
6.02954e-07
6.17648e-07
6.17639e-07
6.34028e-07
6.5932e-07
6.82433e-07
6.89567e-07
6.92351e-07
6.92234e-07
6.84944e-07
6.65892e-07
6.42752e-07
6.28706e-07
6.25247e-07
6.24075e-07
6.20874e-07
6.17715e-07
6.1054e-07
6.10094e-07
6.0307e-07
5.44063e-07
5.08847e-07
5.18081e-07
5.347e-07
5.4434e-07
5.49257e-07
5.48939e-07
5.3912e-07
5.4172e-07
5.46434e-07
5.51908e-07
5.62471e-07
5.67793e-07
4.86381e-07
0.999998
0.999998
0.999998
0.999998
0.999998
0.999998
0.999997
0.999995
0.999992
0.99999
0.99999
0.99999
0.99999
0.99999
0.99999
0.99999
0.99999
0.99999
0.99999
0.99999
0.99999
0.99999
0.99999
0.99999
0.99999
0.99999
0.99999
0.99999
0.99999
0.99999
0.99999
0.99999
0.99999
0.99999
0.99999
0.99999
0.99999
0.99999
0.99999
0.99999
0.99999
0.99999
0.99999
0.99999
0.999987
0.999973
0.999949
0.999937
0.999935
0.999936
0.99993
0.999917
0.999902
0.999891
0.999885
0.999887
0.999861
0.999619
0.999032
0.966649
0.0560117
0.000142473
1.58221e-06
6.02918e-07
6.02918e-07
6.08871e-07
6.22929e-07
6.37836e-07
6.38553e-07
6.36958e-07
6.30261e-07
6.18784e-07
6.10059e-07
6.05212e-07
6.02902e-07
6.02856e-07
6.02645e-07
6.02645e-07
6.0267e-07
6.05516e-07
6.0589e-07
6.07173e-07
5.97982e-07
5.32273e-07
5.13043e-07
5.22371e-07
5.33681e-07
5.46458e-07
5.50312e-07
5.45745e-07
5.49119e-07
5.54099e-07
5.61012e-07
5.7561e-07
5.72788e-07
4.80567e-07
0.999998
0.999998
0.999998
0.999997
0.999997
0.999997
0.999997
0.999996
0.999993
0.999991
0.99999
0.99999
0.99999
0.99999
0.99999
0.99999
0.99999
0.99999
0.99999
0.99999
0.99999
0.99999
0.99999
0.99999
0.99999
0.99999
0.99999
0.99999
0.99999
0.99999
0.99999
0.99999
0.99999
0.99999
0.99999
0.99999
0.99999
0.99999
0.99999
0.99999
0.99999
0.99999
0.99999
0.99999
0.999987
0.999977
0.999954
0.999934
0.999928
0.999925
0.999921
0.999913
0.999905
0.999901
0.999901
0.999901
0.999892
0.999775
0.998467
0.950564
0.0886585
0.0013891
5.74961e-06
6.02918e-07
6.02917e-07
6.0292e-07
6.04093e-07
6.06264e-07
6.06476e-07
6.07412e-07
6.08526e-07
6.09502e-07
6.09581e-07
6.0807e-07
6.06887e-07
6.08191e-07
6.11434e-07
6.1225e-07
6.14309e-07
6.14425e-07
6.11093e-07
6.11818e-07
6.11681e-07
5.82503e-07
5.47201e-07
5.46137e-07
5.56435e-07
5.67402e-07
5.70656e-07
5.7165e-07
5.76397e-07
5.85709e-07
5.91646e-07
5.99299e-07
5.76629e-07
4.32241e-07
0.999997
0.999995
0.999995
0.999994
0.999994
0.999993
0.999992
0.999991
0.99999
0.99999
0.99999
0.99999
0.99999
0.99999
0.99999
0.99999
0.99999
0.99999
0.99999
0.99999
0.99999
0.99999
0.99999
0.99999
0.99999
0.99999
0.99999
0.99999
0.99999
0.99999
0.99999
0.99999
0.99999
0.99999
0.99999
0.99999
0.99999
0.99999
0.99999
0.99999
0.99999
0.99999
0.99999
0.999988
0.999982
0.999969
0.99995
0.999926
0.999916
0.999907
0.999896
0.999891
0.999893
0.999895
0.999899
0.999901
0.999906
0.999895
0.998815
0.929148
0.0242223
9.11458e-05
4.68005e-07
4.68032e-07
4.68778e-07
4.70587e-07
4.72976e-07
4.72076e-07
4.72588e-07
4.73433e-07
4.74686e-07
4.7737e-07
4.77023e-07
4.75394e-07
4.7412e-07
4.72703e-07
4.7268e-07
4.72475e-07
4.7225e-07
4.75253e-07
4.7573e-07
4.70439e-07
4.71432e-07
4.78265e-07
4.59962e-07
4.30214e-07
4.27285e-07
4.18158e-07
4.11811e-07
4.11144e-07
4.20871e-07
4.25963e-07
4.17217e-07
4.01885e-07
3.78519e-07
2.96208e-07
0.999997
0.999996
0.999994
0.999994
0.999993
0.999992
0.999991
0.999991
0.999991
0.99999
0.99999
0.99999
0.99999
0.99999
0.99999
0.99999
0.99999
0.99999
0.99999
0.99999
0.99999
0.99999
0.99999
0.99999
0.99999
0.99999
0.99999
0.99999
0.99999
0.99999
0.99999
0.99999
0.99999
0.99999
0.99999
0.99999
0.99999
0.99999
0.99999
0.99999
0.99999
0.99999
0.99999
0.999988
0.99998
0.999958
0.999939
0.999929
0.999924
0.999917
0.99989
0.999884
0.999885
0.999886
0.99989
0.999893
0.999902
0.999881
0.999375
0.903479
0.0156566
2.72593e-06
4.68005e-07
4.77496e-07
5.01538e-07
5.58569e-07
6.42479e-07
6.418e-07
6.19369e-07
5.88071e-07
5.56231e-07
5.23323e-07
4.9719e-07
4.81749e-07
4.73185e-07
4.67445e-07
4.65819e-07
4.66596e-07
4.71044e-07
4.80786e-07
4.76221e-07
4.66073e-07
4.70927e-07
4.78325e-07
4.65775e-07
4.40355e-07
4.41654e-07
4.19288e-07
3.96447e-07
3.88744e-07
3.87245e-07
3.89061e-07
3.58087e-07
3.16109e-07
2.80913e-07
2.63509e-07
0.999998
0.999997
0.999995
0.999994
0.999993
0.999993
0.999992
0.999991
0.999991
0.999991
0.99999
0.99999
0.99999
0.99999
0.99999
0.99999
0.99999
0.99999
0.99999
0.99999
0.99999
0.99999
0.99999
0.99999
0.99999
0.99999
0.99999
0.99999
0.99999
0.99999
0.99999
0.99999
0.99999
0.99999
0.99999
0.99999
0.99999
0.99999
0.99999
0.99999
0.99999
0.99999
0.99999
0.999989
0.999981
0.999959
0.999941
0.999935
0.999931
0.999918
0.999883
0.999878
0.999878
0.999877
0.999879
0.999882
0.999892
0.99988
0.999694
0.894997
0.0204877
8.58322e-07
1.30706e-06
5.18916e-07
1.06551e-06
7.84259e-07
7.03479e-07
5.99127e-07
5.64728e-07
5.49116e-07
5.41676e-07
5.36589e-07
5.3104e-07
5.26012e-07
5.21888e-07
5.13857e-07
5.02475e-07
4.86976e-07
4.87671e-07
4.94548e-07
4.77745e-07
4.68348e-07
4.74675e-07
4.74176e-07
4.65006e-07
4.63294e-07
4.97849e-07
5.01927e-07
5.1466e-07
5.28364e-07
5.12848e-07
5.00788e-07
4.64736e-07
3.99724e-07
2.99044e-07
2.59024e-07
0.999998
0.999997
0.999995
0.999994
0.999994
0.999993
0.999992
0.999992
0.999991
0.999991
0.99999
0.99999
0.99999
0.99999
0.99999
0.99999
0.99999
0.99999
0.99999
0.99999
0.99999
0.99999
0.99999
0.99999
0.99999
0.99999
0.99999
0.99999
0.99999
0.99999
0.99999
0.99999
0.99999
0.99999
0.99999
0.99999
0.99999
0.99999
0.99999
0.99999
0.99999
0.99999
0.99999
0.999989
0.999983
0.999964
0.999946
0.999936
0.999928
0.999896
0.999876
0.999871
0.999868
0.99986
0.999862
0.999869
0.999875
0.999872
0.999773
0.781919
0.00134602
8.5626e-05
7.25523e-05
4.42481e-05
3.32116e-05
1.97219e-05
1.14315e-05
6.05772e-06
3.11799e-06
1.47234e-06
1.00042e-06
9.70792e-07
8.77034e-07
5.84888e-07
5.43673e-07
5.78999e-07
5.83758e-07
5.73379e-07
5.61268e-07
5.37306e-07
5.14596e-07
5.09936e-07
5.06517e-07
5.0871e-07
5.16251e-07
5.89822e-07
6.67013e-07
7.01533e-07
7.062e-07
7.07317e-07
6.62584e-07
5.90401e-07
5.30577e-07
5.11227e-07
4.71476e-07
3.79154e-07
0.999998
0.999998
0.999996
0.999995
0.999994
0.999993
0.999992
0.999992
0.999991
0.999991
0.99999
0.99999
0.99999
0.99999
0.99999
0.99999
0.99999
0.99999
0.99999
0.99999
0.99999
0.99999
0.99999
0.99999
0.99999
0.99999
0.99999
0.99999
0.99999
0.99999
0.99999
0.99999
0.99999
0.99999
0.99999
0.99999
0.99999
0.99999
0.99999
0.99999
0.99999
0.99999
0.99999
0.999989
0.999986
0.999969
0.999949
0.999938
0.999926
0.999885
0.999869
0.999863
0.999859
0.999857
0.999863
0.999856
0.999844
0.999834
0.999834
0.698203
0.00540003
0.00264557
0.00265355
0.00219938
0.00193837
0.00155981
0.00122773
0.000943255
0.000709397
0.000510981
0.000351333
0.000227303
0.000133985
7.10656e-05
3.43224e-05
1.35809e-05
5.12079e-06
1.58621e-06
6.45902e-07
5.11859e-07
5.11859e-07
5.25812e-07
1.29868e-06
2.29572e-06
2.00009e-06
1.03693e-06
6.73623e-07
6.41719e-07
6.97858e-07
7.80561e-07
8.90682e-07
7.90665e-07
6.13509e-07
5.69006e-07
6.64671e-07
6.63555e-07
0.999998
0.999998
0.999997
0.999996
0.999994
0.999993
0.999993
0.999992
0.999991
0.999991
0.99999
0.99999
0.99999
0.99999
0.99999
0.99999
0.99999
0.99999
0.99999
0.99999
0.99999
0.99999
0.99999
0.99999
0.99999
0.99999
0.99999
0.99999
0.99999
0.99999
0.99999
0.99999
0.99999
0.99999
0.99999
0.99999
0.99999
0.99999
0.99999
0.99999
0.99999
0.99999
0.99999
0.99999
0.999988
0.999978
0.99996
0.999946
0.999943
0.999884
0.999863
0.999861
0.999862
0.999865
0.999857
0.99985
0.999847
0.999847
0.999893
0.548462
0.0181926
0.0154403
0.0163558
0.0164708
0.0157753
0.0151861
0.0145192
0.0138197
0.0129449
0.01196
0.010933
0.00993716
0.00895804
0.0079782
0.00695328
0.00586624
0.00478701
0.00366383
0.00271115
0.0019423
0.00132975
0.000945256
0.000728527
0.00067416
0.000663196
0.000518784
0.000336316
0.000193464
8.48542e-05
3.02426e-05
1.03476e-05
2.6434e-06
6.63509e-07
9.16543e-07
5.7078e-07
9.06949e-07
0.999998
0.999998
0.999997
0.999996
0.999995
0.999994
0.999993
0.999992
0.999991
0.999991
0.99999
0.99999
0.99999
0.99999
0.99999
0.99999
0.99999
0.99999
0.99999
0.99999
0.99999
0.99999
0.99999
0.99999
0.99999
0.99999
0.99999
0.99999
0.99999
0.99999
0.99999
0.99999
0.99999
0.99999
0.99999
0.99999
0.99999
0.99999
0.99999
0.99999
0.99999
0.99999
0.99999
0.99999
0.999989
0.999987
0.999983
0.999972
0.999934
0.999879
0.999867
0.999868
0.999868
0.999861
0.99985
0.999842
0.999841
0.999844
0.999893
0.522739
0.029549
0.0267935
0.0285634
0.0292652
0.0295338
0.0297135
0.0300806
0.0304069
0.0304925
0.0305657
0.0306045
0.0308838
0.031425
0.0319515
0.0324444
0.0327508
0.0327938
0.0321569
0.0316493
0.0315197
0.0314641
0.0311499
0.0301452
0.0285521
0.0263955
0.0238147
0.0204679
0.0159643
0.0115643
0.00709096
0.00390669
0.00228472
0.0022719
0.001503
0.000159804
6.57267e-05
0.999998
0.999998
0.999998
0.999997
0.999995
0.999994
0.999993
0.999992
0.999991
0.999991
0.99999
0.99999
0.99999
0.99999
0.99999
0.99999
0.99999
0.99999
0.99999
0.99999
0.99999
0.99999
0.99999
0.99999
0.99999
0.99999
0.99999
0.99999
0.99999
0.99999
0.99999
0.99999
0.99999
0.99999
0.99999
0.99999
0.99999
0.99999
0.99999
0.99999
0.99999
0.99999
0.99999
0.99999
0.999989
0.999986
0.999984
0.999984
0.999955
0.999888
0.999874
0.99988
0.999882
0.999877
0.999867
0.999862
0.999863
0.999874
0.999893
0.783802
0.040274
0.0188244
0.0195036
0.0194477
0.0195787
0.0197132
0.0201253
0.0208197
0.0217742
0.0228324
0.0240653
0.0254647
0.0271627
0.0295365
0.0322861
0.0346144
0.0367931
0.0394806
0.0427464
0.0467151
0.0518624
0.0573864
0.0625011
0.0671386
0.0713581
0.07571
0.0812342
0.0885825
0.0976774
0.106735
0.115964
0.127824
0.144744
0.171847
0.227375
0.41402
0.999998
0.999998
0.999998
0.999997
0.999996
0.999994
0.999993
0.999992
0.999991
0.999991
0.99999
0.99999
0.99999
0.99999
0.99999
0.99999
0.99999
0.99999
0.99999
0.99999
0.99999
0.99999
0.99999
0.99999
0.99999
0.99999
0.99999
0.99999
0.99999
0.99999
0.99999
0.99999
0.99999
0.99999
0.99999
0.99999
0.99999
0.99999
0.99999
0.99999
0.99999
0.99999
0.99999
0.999989
0.999988
0.999985
0.99998
0.999978
0.999967
0.999912
0.999877
0.99988
0.999886
0.999886
0.999888
0.999877
0.999877
0.999868
0.999893
0.88105
0.0243624
0.00314927
0.002687
0.00206123
0.00187414
0.0012978
0.00113764
0.00108469
0.00112675
0.00115036
0.0012225
0.00131928
0.00146624
0.00167183
0.00195612
0.00234217
0.00284394
0.00349056
0.00415479
0.0049534
0.00605903
0.00753067
0.00945179
0.0116701
0.014228
0.0169061
0.0195017
0.0214211
0.0221662
0.0218286
0.0199039
0.0177665
0.0122387
0.00589632
0.00332632
0.0044285
0.999998
0.999998
0.999998
0.999998
0.999997
0.999995
0.999993
0.999992
0.999991
0.999991
0.99999
0.99999
0.99999
0.99999
0.99999
0.99999
0.99999
0.99999
0.99999
0.99999
0.99999
0.99999
0.99999
0.99999
0.99999
0.99999
0.99999
0.99999
0.99999
0.99999
0.99999
0.99999
0.99999
0.99999
0.99999
0.99999
0.99999
0.99999
0.99999
0.99999
0.99999
0.99999
0.99999
0.999989
0.999988
0.999985
0.999976
0.999967
0.999965
0.999936
0.999884
0.999879
0.999884
0.999886
0.999886
0.999878
0.999881
0.99987
0.999893
0.906478
0.0152809
0.000102002
0.000106449
6.69882e-05
6.35108e-05
5.09688e-05
5.7026e-05
5.86279e-05
5.88865e-05
5.72232e-05
5.93593e-05
6.35769e-05
6.98159e-05
7.81105e-05
9.04263e-05
0.000108093
0.000131031
0.000162943
0.000205634
0.000261332
0.000330688
0.000415286
0.000516014
0.000621665
0.00071054
0.000783053
0.000856237
0.000897185
0.000761139
0.000573493
0.000390979
0.000253672
8.63701e-05
7.51547e-06
3.89181e-07
3.89183e-07
0.999998
0.999999
0.999998
0.999998
0.999997
0.999996
0.999994
0.999992
0.999991
0.999991
0.99999
0.99999
0.99999
0.99999
0.99999
0.99999
0.99999
0.99999
0.99999
0.99999
0.99999
0.99999
0.99999
0.99999
0.99999
0.99999
0.99999
0.99999
0.99999
0.99999
0.99999
0.99999
0.99999
0.99999
0.99999
0.99999
0.99999
0.99999
0.99999
0.99999
0.99999
0.99999
0.99999
0.999989
0.999988
0.999985
0.999974
0.999955
0.999954
0.999943
0.999894
0.999878
0.999881
0.999883
0.999882
0.999875
0.999879
0.999864
0.999884
0.967116
0.0720992
6.02955e-07
3.15478e-06
8.64742e-07
1.34063e-06
8.61151e-07
2.85544e-06
3.36784e-06
1.80897e-06
1.19091e-06
1.07692e-06
1.0913e-06
1.25261e-06
1.38563e-06
1.52487e-06
1.7055e-06
1.9458e-06
2.3136e-06
2.86149e-06
3.58267e-06
4.31625e-06
5.11302e-06
5.96687e-06
6.60547e-06
6.70233e-06
5.91409e-06
4.894e-06
3.89094e-06
2.71261e-06
1.79782e-06
1.18144e-06
1.01747e-06
7.23052e-07
4.81866e-07
5.29184e-07
4.59812e-07
0.999998
0.999999
0.999999
0.999998
0.999998
0.999997
0.999995
0.999993
0.999991
0.999991
0.99999
0.99999
0.99999
0.99999
0.99999
0.99999
0.99999
0.99999
0.99999
0.99999
0.99999
0.99999
0.99999
0.99999
0.99999
0.99999
0.99999
0.99999
0.99999
0.99999
0.99999
0.99999
0.99999
0.99999
0.99999
0.99999
0.99999
0.99999
0.99999
0.99999
0.99999
0.99999
0.99999
0.99999
0.999988
0.999984
0.999971
0.999949
0.99994
0.999938
0.999908
0.999879
0.999877
0.999878
0.999876
0.999874
0.999878
0.999863
0.999836
0.986
0.0630067
6.02956e-07
8.13018e-07
7.39706e-07
9.56008e-07
6.85298e-07
7.67509e-07
6.88509e-07
6.55777e-07
6.48065e-07
6.27349e-07
6.26798e-07
6.2625e-07
6.15282e-07
6.1307e-07
6.1394e-07
6.1315e-07
6.13813e-07
6.13751e-07
6.11977e-07
6.01595e-07
5.90653e-07
5.98855e-07
6.12962e-07
6.26435e-07
6.27936e-07
6.17575e-07
6.12944e-07
5.71519e-07
5.84652e-07
6.15121e-07
5.34524e-07
5.27525e-07
5.41705e-07
5.52958e-07
4.69906e-07
0.999998
0.999999
0.999999
0.999999
0.999998
0.999998
0.999997
0.999994
0.999992
0.999991
0.99999
0.99999
0.99999
0.99999
0.99999
0.99999
0.99999
0.99999
0.99999
0.99999
0.99999
0.99999
0.99999
0.99999
0.99999
0.99999
0.99999
0.99999
0.99999
0.99999
0.99999
0.99999
0.99999
0.99999
0.99999
0.99999
0.99999
0.99999
0.99999
0.99999
0.99999
0.99999
0.99999
0.99999
0.999988
0.999982
0.999968
0.999946
0.99993
0.999929
0.999918
0.999887
0.999877
0.999873
0.999873
0.999875
0.999882
0.999862
0.999763
0.982927
0.0520398
2.3144e-05
6.02954e-07
6.82497e-07
6.96007e-07
6.79602e-07
6.57665e-07
6.53124e-07
6.53327e-07
6.81332e-07
6.9462e-07
6.83913e-07
6.58646e-07
6.34502e-07
6.18487e-07
6.15582e-07
6.16936e-07
6.16505e-07
6.15875e-07
6.1814e-07
6.1805e-07
6.0681e-07
5.7523e-07
5.54206e-07
5.4822e-07
5.74312e-07
5.88376e-07
5.87402e-07
5.76169e-07
5.41196e-07
5.20926e-07
5.25316e-07
5.39982e-07
5.55397e-07
5.56261e-07
4.73679e-07
0.999998
0.999998
0.999998
0.999998
0.999999
0.999999
0.999998
0.999996
0.999993
0.999991
0.99999
0.99999
0.99999
0.99999
0.99999
0.99999
0.99999
0.99999
0.99999
0.99999
0.99999
0.99999
0.99999
0.99999
0.99999
0.99999
0.99999
0.99999
0.99999
0.99999
0.99999
0.99999
0.99999
0.99999
0.99999
0.99999
0.99999
0.99999
0.99999
0.99999
0.99999
0.99999
0.99999
0.99999
0.999988
0.99998
0.999962
0.999942
0.999926
0.99992
0.999916
0.999898
0.99988
0.999877
0.999882
0.999884
0.999884
0.999832
0.999542
0.975796
0.0549136
9.75419e-07
9.83739e-07
6.38689e-07
6.38265e-07
6.80306e-07
6.80946e-07
6.70274e-07
6.65884e-07
6.79208e-07
6.8989e-07
6.87232e-07
6.73256e-07
6.45562e-07
6.19466e-07
6.10638e-07
6.08509e-07
6.10026e-07
6.1546e-07
6.19404e-07
6.18598e-07
6.15308e-07
6.01356e-07
5.68104e-07
5.43694e-07
5.75498e-07
5.88846e-07
5.8231e-07
5.71916e-07
5.56161e-07
5.39495e-07
5.40065e-07
5.49655e-07
5.6413e-07
5.65622e-07
4.84084e-07
0.999998
0.999998
0.999998
0.999998
0.999998
0.999999
0.999999
0.999998
0.999995
0.999991
0.99999
0.99999
0.99999
0.99999
0.99999
0.99999
0.99999
0.99999
0.99999
0.99999
0.99999
0.99999
0.99999
0.99999
0.99999
0.99999
0.99999
0.99999
0.99999
0.99999
0.99999
0.99999
0.99999
0.99999
0.99999
0.99999
0.99999
0.99999
0.99999
0.99999
0.99999
0.99999
0.99999
0.99999
0.999987
0.999977
0.999958
0.999937
0.999925
0.999918
0.999913
0.999902
0.99989
0.999892
0.999892
0.999889
0.999882
0.999789
0.999131
0.961374
0.0770718
0.000211324
1.99996e-06
6.02918e-07
6.02918e-07
6.21481e-07
6.46016e-07
6.62098e-07
6.66239e-07
6.67794e-07
6.66727e-07
6.57906e-07
6.42476e-07
6.2632e-07
6.08851e-07
6.02645e-07
6.02645e-07
6.02645e-07
6.04053e-07
6.127e-07
6.19075e-07
6.17578e-07
6.11566e-07
5.82322e-07
5.39446e-07
5.61106e-07
5.89419e-07
6.05634e-07
5.86326e-07
5.7514e-07
5.53972e-07
5.36897e-07
5.46195e-07
5.66758e-07
5.64453e-07
4.71107e-07
0.999998
0.999998
0.999998
0.999998
0.999998
0.999998
0.999999
0.999999
0.999996
0.999991
0.99999
0.99999
0.99999
0.99999
0.99999
0.99999
0.99999
0.99999
0.99999
0.99999
0.99999
0.99999
0.99999
0.99999
0.99999
0.99999
0.99999
0.99999
0.99999
0.99999
0.99999
0.99999
0.99999
0.99999
0.99999
0.99999
0.99999
0.99999
0.99999
0.99999
0.99999
0.99999
0.99999
0.99999
0.999987
0.999978
0.999957
0.999935
0.999926
0.999922
0.999917
0.999911
0.999906
0.999903
0.999896
0.999888
0.999889
0.999843
0.998491
0.940701
0.115852
0.00215605
9.14184e-06
6.02919e-07
6.02919e-07
6.03013e-07
6.04921e-07
6.10311e-07
6.14594e-07
6.16802e-07