/*--------------------------------*- C++ -*----------------------------------*\
| =========                 |                                                 |
| \\      /  F ield         | OpenFOAM: The Open Source CFD Toolbox           |
|  \\    /   O peration     | Version:  2.3.0                                 |
|   \\  /    A nd           | Web:      www.OpenFOAM.org                      |
|    \\/     M anipulation  |                                                 |
\*---------------------------------------------------------------------------*/
FoamFile
{
    version     2.0;
    format      ascii;
    class       volScalarField;
    location    "46";
    object      alpha.water;
}
// * * * * * * * * * * * * * * * * * * * * * * * * * * * * * * * * * * * * * //

dimensions      [0 0 0 0 0 0 0];

internalField   nonuniform List<scalar> 
6144
(
4.06842e-06
4.78179e-06
5.21374e-06
5.63637e-06
6.10845e-06
7.07667e-06
8.11317e-06
8.99818e-06
9.63985e-06
9.9217e-06
9.9703e-06
9.97839e-06
9.98146e-06
9.98585e-06
9.98767e-06
9.98932e-06
9.98864e-06
9.9892e-06
9.98871e-06
9.98885e-06
9.9887e-06
9.9884e-06
9.98782e-06
9.98731e-06
9.98677e-06
9.98642e-06
9.98603e-06
9.98557e-06
9.98504e-06
9.98454e-06
9.98395e-06
9.98339e-06
9.98272e-06
9.98202e-06
9.98115e-06
9.98037e-06
9.97962e-06
9.97897e-06
9.97815e-06
9.97706e-06
9.97671e-06
9.9821e-06
1.02514e-05
1.22459e-05
1.95653e-05
3.31961e-05
4.83125e-05
7.08565e-05
8.32927e-05
9.49583e-05
0.00010849
0.000111287
0.000110266
0.000109144
0.000106402
0.000102598
9.46855e-05
9.17808e-05
0.00198284
0.0827684
0.976851
0.999887
0.999999
1
1
1
1
1
1
1
1
1
1
1
1
1
1
1
1
1
0.999999
1
1
1
1
1
1
1
1
1
1
1
1
1
1
1
3.73783e-06
4.6481e-06
5.44632e-06
5.93665e-06
6.59641e-06
7.37612e-06
8.23177e-06
9.05647e-06
9.66451e-06
9.91213e-06
9.96535e-06
9.97675e-06
9.98206e-06
9.98986e-06
9.99448e-06
9.99715e-06
9.99691e-06
9.99716e-06
9.99629e-06
9.99627e-06
9.99603e-06
9.99553e-06
9.99496e-06
9.99451e-06
9.99415e-06
9.994e-06
9.99388e-06
9.99357e-06
9.99331e-06
9.9931e-06
9.99287e-06
9.99266e-06
9.99242e-06
9.99203e-06
9.9915e-06
9.99085e-06
9.99014e-06
9.98933e-06
9.98834e-06
9.98722e-06
9.98698e-06
9.99459e-06
1.03613e-05
1.31891e-05
2.36509e-05
4.50424e-05
6.07923e-05
6.89929e-05
7.75932e-05
0.000101462
0.000114846
0.000113324
0.000111286
0.000110613
0.000108469
0.000106483
9.71588e-05
0.000106111
0.000758561
0.0687491
0.979945
0.999975
1
1
1
1
0.999999
0.999999
0.999999
0.999999
1
1
1
1
1
1
1
1
1
0.999999
1
1
1
1
1
1
1
1
1
1
1
1
1
1
1
1
3.55981e-06
4.3756e-06
5.36185e-06
5.96727e-06
6.80224e-06
7.54835e-06
8.34099e-06
9.01253e-06
9.48582e-06
9.75683e-06
9.87619e-06
9.93176e-06
9.96276e-06
9.98023e-06
9.98914e-06
9.99487e-06
9.99619e-06
9.99675e-06
9.99644e-06
9.99646e-06
9.99614e-06
9.99581e-06
9.99536e-06
9.99494e-06
9.99452e-06
9.99421e-06
9.99393e-06
9.99365e-06
9.9934e-06
9.99318e-06
9.99285e-06
9.99236e-06
9.99155e-06
9.99064e-06
9.9896e-06
9.98858e-06
9.98748e-06
9.98644e-06
9.98573e-06
9.98627e-06
9.99001e-06
1.00135e-05
1.03639e-05
1.3259e-05
2.42443e-05
4.14713e-05
5.38096e-05
6.40381e-05
8.8208e-05
0.00011399
0.000115362
0.000111863
0.000110107
0.000110124
0.000110485
0.000111871
0.000102814
0.000111173
0.000586516
0.079352
0.976698
0.999999
1
1
1
1
1
0.999999
0.999999
0.999999
1
0.999999
0.999999
0.999999
0.999999
1
1
1
1
1
1
1
1
1
0.999999
0.999999
0.999999
0.999999
1
1
1
1
1
1
1
1
3.45068e-06
4.11627e-06
5.08263e-06
5.71339e-06
6.75272e-06
7.57209e-06
8.28853e-06
8.90425e-06
9.378e-06
9.67194e-06
9.82427e-06
9.90891e-06
9.95295e-06
9.97464e-06
9.98438e-06
9.9908e-06
9.99205e-06
9.9924e-06
9.99202e-06
9.99197e-06
9.99159e-06
9.99131e-06
9.9908e-06
9.99019e-06
9.98959e-06
9.98898e-06
9.98854e-06
9.98813e-06
9.98793e-06
9.98778e-06
9.98779e-06
9.98763e-06
9.98732e-06
9.98674e-06
9.98609e-06
9.98532e-06
9.9845e-06
9.98366e-06
9.98359e-06
9.98402e-06
9.98895e-06
1.00182e-05
1.03702e-05
1.30799e-05
2.13513e-05
3.34493e-05
4.68863e-05
6.56052e-05
9.4419e-05
0.000115994
0.000114585
0.000112544
0.000111825
0.000111666
0.000110342
0.000105556
0.000103371
0.000123328
0.000279913
0.120732
0.97274
0.999999
0.999998
0.999999
0.999999
1
0.999999
0.999999
0.999999
0.999999
0.999999
0.999999
0.999999
0.999999
0.999999
0.999999
0.999999
0.999999
0.999999
0.999999
0.999999
0.999999
0.999999
0.999999
0.999999
0.999999
0.999999
0.999999
0.999999
0.999999
1
1
1
1
1
1
3.32047e-06
3.90917e-06
4.80435e-06
5.40946e-06
6.43686e-06
7.26547e-06
8.18937e-06
8.81126e-06
9.27727e-06
9.59921e-06
9.78617e-06
9.89736e-06
9.95223e-06
9.97697e-06
9.98723e-06
9.99387e-06
9.99536e-06
9.99585e-06
9.9957e-06
9.99588e-06
9.99568e-06
9.99557e-06
9.99508e-06
9.99454e-06
9.99385e-06
9.99323e-06
9.99257e-06
9.99201e-06
9.99138e-06
9.99086e-06
9.99028e-06
9.98968e-06
9.98891e-06
9.98811e-06
9.98718e-06
9.9863e-06
9.98531e-06
9.98437e-06
9.984e-06
9.9847e-06
9.98993e-06
1.00269e-05
1.03972e-05
1.26593e-05
1.8658e-05
2.7347e-05
3.95362e-05
6.005e-05
9.27318e-05
0.000116377
0.000115352
0.000114233
0.000114178
0.000114501
0.000114775
0.000115418
0.000116575
0.000117013
0.00010726
0.202869
0.986128
0.999925
0.999942
0.99996
0.999967
0.999987
0.999993
0.999995
0.999996
0.999998
0.999999
0.999999
0.999999
0.999999
0.999999
0.999999
0.999999
0.999999
0.999999
0.999999
0.999999
0.999999
0.999999
0.999999
0.999999
0.999999
0.999999
0.999999
0.999999
0.999999
0.999999
0.999999
0.999999
0.999999
1
1
3.16514e-06
3.73823e-06
4.50383e-06
5.05795e-06
6.13199e-06
6.91418e-06
7.96508e-06
8.70497e-06
9.17261e-06
9.52962e-06
9.74917e-06
9.88438e-06
9.94758e-06
9.97282e-06
9.98216e-06
9.9881e-06
9.98933e-06
9.9896e-06
9.98946e-06
9.98957e-06
9.98953e-06
9.98958e-06
9.98938e-06
9.9891e-06
9.98867e-06
9.98824e-06
9.98783e-06
9.98737e-06
9.98693e-06
9.98644e-06
9.98596e-06
9.98538e-06
9.98472e-06
9.98399e-06
9.98325e-06
9.98248e-06
9.98178e-06
9.98133e-06
9.98133e-06
9.98186e-06
9.98773e-06
1.00356e-05
1.03888e-05
1.19887e-05
1.59048e-05
2.14385e-05
2.77257e-05
4.12233e-05
9.35861e-05
0.000117272
0.000115813
0.000113699
0.000112968
0.000114496
0.000116022
0.000116739
0.000115819
0.000120824
0.00010726
0.270417
0.996892
0.998368
0.998321
0.998437
0.998493
0.998723
0.998862
0.998968
0.999074
0.999193
0.999351
0.999498
0.999628
0.999721
0.999775
0.999817
0.999844
0.999876
0.999906
0.999924
0.999935
0.999939
0.999949
0.99996
0.99997
0.999979
0.999989
0.999996
0.999998
0.999999
0.999999
1
1
1
0.999999
1
2.98275e-06
3.565e-06
4.22866e-06
4.73164e-06
5.85913e-06
6.66182e-06
7.56017e-06
8.56997e-06
9.08848e-06
9.46187e-06
9.71043e-06
9.87371e-06
9.94705e-06
9.97537e-06
9.98548e-06
9.9924e-06
9.99369e-06
9.99399e-06
9.99373e-06
9.99386e-06
9.99364e-06
9.99301e-06
9.99225e-06
9.99169e-06
9.99101e-06
9.99036e-06
9.98967e-06
9.9891e-06
9.9886e-06
9.98811e-06
9.98758e-06
9.987e-06
9.98625e-06
9.98542e-06
9.98446e-06
9.98342e-06
9.98247e-06
9.98193e-06
9.98183e-06
9.98228e-06
9.98649e-06
1.00359e-05
1.03114e-05
1.11496e-05
1.29633e-05
1.58135e-05
1.79273e-05
2.31301e-05
0.000101913
0.000119186
0.000116325
0.00011391
0.000112627
0.00011501
0.000117543
0.000118714
0.000116839
0.000119834
0.00010726
0.333897
0.990149
0.992882
0.992439
0.992352
0.992613
0.992748
0.992881
0.992959
0.993108
0.993284
0.993463
0.993637
0.993786
0.993949
0.99413
0.994331
0.994561
0.994794
0.99499
0.99515
0.995304
0.995457
0.995671
0.995978
0.996359
0.996787
0.997488
0.998288
0.999049
0.999551
0.999719
0.999797
0.99983
0.999961
0.999998
1
2.7461e-06
3.37259e-06
4.00268e-06
4.48386e-06
5.60892e-06
6.50668e-06
7.26512e-06
8.39568e-06
8.99938e-06
9.42173e-06
9.6876e-06
9.86418e-06
9.94404e-06
9.97413e-06
9.98321e-06
9.99197e-06
9.99341e-06
9.99385e-06
9.99358e-06
9.99369e-06
9.99356e-06
9.99371e-06
9.9937e-06
9.99366e-06
9.99364e-06
9.99353e-06
9.99332e-06
9.99306e-06
9.99277e-06
9.99239e-06
9.99184e-06
9.99116e-06
9.99033e-06
9.98943e-06
9.98848e-06
9.98744e-06
9.98658e-06
9.98619e-06
9.98614e-06
9.98674e-06
9.99117e-06
1.00308e-05
1.02266e-05
1.06382e-05
1.11412e-05
1.19036e-05
1.24595e-05
1.5977e-05
8.35055e-05
0.000118496
0.000115705
0.000113515
0.000113442
0.000116625
0.0001185
0.000118233
0.000114614
0.000113394
0.00010726
0.234998
0.975916
0.990337
0.989577
0.989408
0.98945
0.989365
0.989109
0.988955
0.988897
0.988864
0.98888
0.988563
0.988234
0.987957
0.987742
0.987482
0.987163
0.986745
0.986202
0.985647
0.985135
0.984661
0.984156
0.983639
0.983009
0.982221
0.981436
0.980917
0.981493
0.982977
0.985267
0.987925
0.991707
0.996418
0.999667
0.998894
2.47208e-06
3.13769e-06
3.72273e-06
4.26331e-06
5.32549e-06
6.37854e-06
7.36634e-06
8.14802e-06
8.90423e-06
9.37497e-06
9.65393e-06
9.84535e-06
9.93381e-06
9.96683e-06
9.9758e-06
9.98611e-06
9.9873e-06
9.98811e-06
9.98777e-06
9.98785e-06
9.98784e-06
9.98835e-06
9.98857e-06
9.98871e-06
9.98881e-06
9.98882e-06
9.98868e-06
9.98847e-06
9.98822e-06
9.98791e-06
9.98748e-06
9.98693e-06
9.98621e-06
9.98545e-06
9.98467e-06
9.98401e-06
9.98387e-06
9.98387e-06
9.98387e-06
9.98387e-06
9.98725e-06
1.00156e-05
1.01292e-05
1.03628e-05
1.0637e-05
1.11423e-05
1.19454e-05
1.37431e-05
5.111e-05
0.000109426
0.00011771
0.000114214
0.000112404
0.000113351
0.000112414
0.000116388
0.000114363
0.000119126
0.00010726
0.149291
0.985211
0.997741
0.998282
0.99875
0.998757
0.998862
0.998795
0.998912
0.998942
0.998908
0.99888
0.998836
0.998789
0.998723
0.998638
0.998521
0.998388
0.998231
0.998065
0.997868
0.997652
0.997421
0.997187
0.996938
0.996691
0.996491
0.996336
0.996269
0.996478
0.996798
0.997478
0.998337
0.99926
0.999817
0.99998
1
2.24923e-06
2.75737e-06
3.27829e-06
3.84549e-06
4.95989e-06
6.19138e-06
7.49449e-06
8.01805e-06
8.84491e-06
9.38126e-06
9.65484e-06
9.83217e-06
9.92492e-06
9.96735e-06
9.97971e-06
9.9912e-06
9.99296e-06
9.99387e-06
9.99326e-06
9.99315e-06
9.99296e-06
9.99311e-06
9.99305e-06
9.99286e-06
9.99258e-06
9.99222e-06
9.99175e-06
9.99127e-06
9.99077e-06
9.99022e-06
9.98957e-06
9.98878e-06
9.98786e-06
9.98684e-06
9.9857e-06
9.9848e-06
9.98436e-06
9.98407e-06
9.98394e-06
9.98397e-06
9.9858e-06
1.0004e-05
1.00562e-05
1.02001e-05
1.06499e-05
1.21421e-05
1.32953e-05
1.40111e-05
3.16179e-05
8.26341e-05
0.000114215
0.000115979
0.000114278
0.000114421
0.000114469
0.000118663
0.000117266
0.000124039
0.00010726
0.0925419
0.988133
0.999941
0.999968
0.999978
0.999977
0.999982
0.999979
0.999981
0.999981
0.99998
0.999979
0.999979
0.999979
0.999976
0.999971
0.999963
0.999954
0.999942
0.99993
0.99992
0.99991
0.9999
0.999887
0.999876
0.99987
0.999868
0.999888
0.999907
0.999927
0.999942
0.999959
0.99998
0.999995
1
1
1
2.04782e-06
2.39144e-06
2.74602e-06
3.2826e-06
4.44801e-06
5.79086e-06
7.42102e-06
8.29604e-06
8.87516e-06
9.40413e-06
9.6722e-06
9.82501e-06
9.90634e-06
9.95612e-06
9.97255e-06
9.98553e-06
9.98773e-06
9.9894e-06
9.98939e-06
9.98983e-06
9.99015e-06
9.99059e-06
9.9909e-06
9.99107e-06
9.99116e-06
9.99113e-06
9.99095e-06
9.99066e-06
9.99029e-06
9.98987e-06
9.98935e-06
9.98862e-06
9.98778e-06
9.98688e-06
9.9862e-06
9.98565e-06
9.9853e-06
9.98501e-06
9.98484e-06
9.98505e-06
9.98665e-06
1.00013e-05
1.00326e-05
1.01514e-05
1.07567e-05
1.41931e-05
2.10041e-05
1.86952e-05
2.5539e-05
5.79425e-05
0.000101675
0.000118721
0.000118459
0.000118176
0.000118464
0.000122323
0.000121445
0.00012527
0.00010726
0.0276746
0.93653
0.999999
0.999999
0.999999
0.999999
0.999999
0.999999
0.999999
0.999999
0.999999
0.999999
0.999999
0.999999
0.999999
0.999999
0.999999
0.999999
0.999999
0.999999
0.999999
0.999999
0.999999
0.999999
0.999999
0.999999
0.999998
0.999999
0.999999
0.999999
0.999999
0.999999
0.999999
1
1
0.999999
1
1.95037e-06
2.128e-06
2.23577e-06
2.53255e-06
3.56817e-06
4.89986e-06
6.79796e-06
8.25565e-06
8.94913e-06
9.45119e-06
9.72471e-06
9.83727e-06
9.88788e-06
9.92809e-06
9.95183e-06
9.97608e-06
9.98716e-06
9.99017e-06
9.99003e-06
9.99046e-06
9.99076e-06
9.99116e-06
9.99144e-06
9.99163e-06
9.99173e-06
9.99176e-06
9.99162e-06
9.99138e-06
9.99102e-06
9.99079e-06
9.99064e-06
9.99018e-06
9.98955e-06
9.98893e-06
9.98876e-06
9.98866e-06
9.98861e-06
9.9884e-06
9.98814e-06
9.98814e-06
9.98949e-06
1.0001e-05
1.00337e-05
1.01787e-05
1.1098e-05
1.77354e-05
3.27072e-05
3.594e-05
3.17566e-05
4.73177e-05
8.66995e-05
0.000115237
0.000122708
0.000123292
0.000123858
0.000126194
0.000123726
0.000128497
0.00010726
0.0226129
0.941482
0.999991
0.999999
0.999999
0.999999
0.999999
0.999999
0.999999
0.999999
0.999999
0.999999
0.999999
0.999999
0.999999
0.999999
0.999999
0.999999
0.999999
0.999999
0.999999
0.999999
0.999999
0.999999
0.999999
0.999999
0.999999
0.999999
0.999999
0.999999
0.999999
0.999999
0.999999
0.999999
0.999999
0.999999
1
1.85948e-06
2.02495e-06
2.00199e-06
2.00417e-06
2.57232e-06
3.67402e-06
5.38906e-06
7.35966e-06
8.98888e-06
9.50948e-06
9.76823e-06
9.8611e-06
9.90309e-06
9.92821e-06
9.95313e-06
9.98346e-06
9.99347e-06
9.99568e-06
9.99485e-06
9.99475e-06
9.99474e-06
9.99491e-06
9.99504e-06
9.99506e-06
9.99501e-06
9.9948e-06
9.99446e-06
9.99407e-06
9.99363e-06
9.99333e-06
9.99298e-06
9.99231e-06
9.99146e-06
9.9906e-06
9.99018e-06
9.98988e-06
9.98966e-06
9.98949e-06
9.98934e-06
9.98987e-06
9.99211e-06
1.00024e-05
1.00437e-05
1.02617e-05
1.15206e-05
2.1561e-05
4.26882e-05
5.28069e-05
4.48049e-05
4.95449e-05
7.35742e-05
0.000105694
0.000119858
0.000125394
0.00012671
0.000126711
0.000122063
0.000133435
0.000209109
0.0208978
0.947011
0.99992
0.999999
0.999999
0.999999
0.999999
0.999999
0.999999
0.999999
0.999999
0.999999
0.999999
0.999999
0.999999
0.999999
0.999999
0.999999
0.999999
0.999999
0.999999
0.999999
0.999999
0.999999
0.999999
0.999999
0.999999
0.999999
0.999999
0.999999
0.999999
0.999999
0.999999
0.999999
0.999999
0.999999
1
1.85757e-06
2.05319e-06
1.96254e-06
1.94829e-06
1.9427e-06
2.65954e-06
3.92509e-06
5.94483e-06
8.48569e-06
9.55419e-06
9.77506e-06
9.85511e-06
9.89172e-06
9.91963e-06
9.94703e-06
9.98403e-06
1.00003e-05
1.00005e-05
9.99987e-06
9.99955e-06
9.99941e-06
9.9994e-06
9.99937e-06
9.99921e-06
9.9989e-06
9.9984e-06
9.99776e-06
9.99715e-06
9.99662e-06
9.99617e-06
9.99553e-06
9.99465e-06
9.99359e-06
9.99255e-06
9.99193e-06
9.99146e-06
9.99117e-06
9.99102e-06
9.99117e-06
9.99224e-06
9.99555e-06
1.00065e-05
1.00526e-05
1.03067e-05
1.19522e-05
2.47017e-05
4.84269e-05
5.87412e-05
5.94933e-05
5.77591e-05
6.75599e-05
9.2154e-05
0.000111548
0.000121526
0.000124183
0.000124629
0.000118065
0.000212299
0.000470348
0.0312512
0.951274
0.99999
0.999999
0.999999
0.999999
0.999999
0.999999
0.999999
0.999999
0.999999
0.999999
0.999999
0.999999
0.999999
0.999999
0.999999
0.999999
0.999999
0.999999
0.999999
0.999999
0.999999
0.999999
0.999999
0.999999
0.999999
0.999999
0.999999
0.999999
0.999999
0.999999
0.999999
0.999999
0.999999
0.999999
1
1.98883e-06
2.45033e-06
2.35652e-06
2.30896e-06
2.10907e-06
2.18842e-06
3.00623e-06
4.56607e-06
7.54434e-06
9.52786e-06
9.76182e-06
9.82816e-06
9.86561e-06
9.9006e-06
9.93382e-06
9.97899e-06
9.99816e-06
9.99909e-06
9.99829e-06
9.99804e-06
9.99794e-06
9.99787e-06
9.99773e-06
9.9975e-06
9.99714e-06
9.99663e-06
9.99602e-06
9.99547e-06
9.99503e-06
9.99462e-06
9.99403e-06
9.9932e-06
9.99232e-06
9.9916e-06
9.99107e-06
9.99068e-06
9.99041e-06
9.99029e-06
9.99052e-06
9.99161e-06
9.99478e-06
1.0006e-05
1.0057e-05
1.03496e-05
1.26854e-05
2.68355e-05
5.06333e-05
6.30845e-05
6.51249e-05
6.44361e-05
7.03344e-05
8.31509e-05
9.75698e-05
0.000109221
0.000115333
0.000113167
0.000139002
0.000380824
0.000967969
0.0333511
0.943988
0.999858
0.999998
0.999999
0.999999
0.999999
0.999999
0.999999
0.999999
0.999999
0.999999
0.999999
0.999999
0.999999
0.999999
0.999999
0.999999
0.999999
0.999999
0.999999
0.999999
0.999999
0.999999
0.999999
0.999999
0.999999
0.999999
0.999999
0.999999
0.999999
0.999999
0.999999
0.999999
0.999999
0.999999
1
1.63921e-06
2.08415e-06
2.10904e-06
2.6772e-06
2.68579e-06
2.59047e-06
2.87144e-06
4.10614e-06
6.84142e-06
9.4263e-06
9.71126e-06
9.78539e-06
9.83219e-06
9.87647e-06
9.9234e-06
9.98792e-06
1.00051e-05
1.00051e-05
1.00051e-05
1.00051e-05
1.0005e-05
1.00049e-05
1.00047e-05
1.00045e-05
1.00041e-05
1.00036e-05
1.0003e-05
1.00025e-05
1.00022e-05
1.00018e-05
1.00013e-05
1.00005e-05
9.99966e-06
9.99899e-06
9.99848e-06
9.99814e-06
9.99784e-06
9.99769e-06
9.99782e-06
9.99862e-06
1.00012e-05
1.00116e-05
1.00678e-05
1.04112e-05
1.26434e-05
2.3148e-05
4.61244e-05
6.63043e-05
7.24867e-05
7.46631e-05
7.90651e-05
8.74188e-05
9.52881e-05
9.85965e-05
9.90148e-05
9.93318e-05
0.000108131
0.000224944
0.00153258
0.0494364
0.911342
0.998611
0.999994
0.999999
0.999999
0.999999
0.999999
0.999999
0.999999
0.999999
0.999999
0.999999
0.999999
0.999999
0.999999
0.999999
0.999999
0.999999
0.999999
0.999999
0.999999
0.999999
0.999999
0.999999
0.999999
0.999999
0.999999
0.999999
0.999999
0.999999
0.999999
0.999999
0.999999
0.999999
0.999999
1
3.42981e-06
4.56109e-06
5.22319e-06
5.67858e-06
6.17932e-06
7.28193e-06
8.36454e-06
9.17828e-06
9.67703e-06
9.84131e-06
9.89959e-06
9.94155e-06
9.97353e-06
9.99396e-06
1.0006e-05
1.00094e-05
1.00094e-05
1.00094e-05
1.00094e-05
1.00094e-05
1.00086e-05
1.00078e-05
1.00068e-05
1.00062e-05
1.00059e-05
1.00059e-05
1.00059e-05
1.00059e-05
1.00059e-05
1.00059e-05
1.00056e-05
1.00053e-05
1.00048e-05
1.00043e-05
1.00037e-05
1.00032e-05
1.00027e-05
1.00021e-05
1.00015e-05
1.00013e-05
1.00031e-05
1.00142e-05
1.02595e-05
1.20282e-05
1.83325e-05
3.11421e-05
4.99832e-05
7.36216e-05
8.4428e-05
9.34457e-05
0.000103921
0.000108536
0.00010721
0.00010502
0.000101354
9.92907e-05
9.43529e-05
0.000105258
0.00118486
0.0708523
0.975778
0.999909
1
1
1
1
1
1
1
1
1
1
1
1
1
1
1
1
1
1
1
1
1
1
1
1
1
1
1
1
1
1
1
1
1
1
2.72131e-06
4.05958e-06
5.65317e-06
6.21513e-06
6.94252e-06
7.77474e-06
8.52104e-06
9.06419e-06
9.37659e-06
9.58501e-06
9.74754e-06
9.86622e-06
9.93793e-06
9.97245e-06
9.98894e-06
1.00032e-05
1.00059e-05
1.00066e-05
1.00062e-05
1.00063e-05
1.00062e-05
1.00065e-05
1.00067e-05
1.00063e-05
1.00058e-05
1.0005e-05
1.00044e-05
1.0004e-05
1.00036e-05
1.00032e-05
1.00028e-05
1.00021e-05
1.00012e-05
1.00002e-05
9.99918e-06
9.99823e-06
9.99727e-06
9.9967e-06
9.99672e-06
9.99936e-06
1.00091e-05
1.00522e-05
1.03533e-05
1.19274e-05
2.01457e-05
4.2339e-05
6.08912e-05
7.13168e-05
7.63059e-05
8.34778e-05
0.000110107
0.000116014
0.000115278
0.000113719
0.000109773
0.000106943
9.79694e-05
0.000118917
0.000625148
0.0965206
0.984343
0.999997
1
1
0.999999
0.999999
0.999999
0.999999
0.999999
0.999999
0.999999
0.999999
1
1
1
1
1
1
1
1
1
1
1
1
1
1
1
1
1
1
1
1
1
1
1
1
2.47764e-06
3.34094e-06
5.27522e-06
6.09118e-06
6.84286e-06
7.49702e-06
8.15274e-06
8.69534e-06
9.13667e-06
9.45146e-06
9.67468e-06
9.83472e-06
9.92465e-06
9.96571e-06
9.98222e-06
9.99925e-06
1.00027e-05
1.00034e-05
1.00031e-05
1.00032e-05
1.00031e-05
1.00031e-05
1.00027e-05
1.00022e-05
1.00017e-05
1.00013e-05
1.00008e-05
1.00004e-05
9.99995e-06
9.99958e-06
9.99911e-06
9.99842e-06
9.99752e-06
9.99654e-06
9.99561e-06
9.99478e-06
9.99402e-06
9.99366e-06
9.99393e-06
9.99731e-06
1.00093e-05
1.00518e-05
1.02141e-05
1.09839e-05
1.90817e-05
4.11553e-05
5.85234e-05
6.53549e-05
6.91761e-05
8.203e-05
0.000116605
0.000121845
0.000122022
0.000123285
0.000120639
0.000117611
0.000108314
0.000119711
0.000305591
0.105003
0.979512
0.999999
0.999999
0.999999
0.999999
0.999999
0.999999
0.999999
0.999999
0.999999
0.999999
0.999999
0.999999
0.999999
0.999999
0.999999
0.999999
1
1
1
1
1
1
1
1
1
1
0.999999
0.999999
0.999999
0.999999
0.999999
1
1
1
1
2.38849e-06
2.75502e-06
4.59244e-06
5.50681e-06
6.35212e-06
7.10907e-06
7.85703e-06
8.49277e-06
9.02231e-06
9.40341e-06
9.65052e-06
9.8237e-06
9.91941e-06
9.96242e-06
9.97792e-06
9.99626e-06
1e-05
1.00005e-05
1.00001e-05
1e-05
9.99978e-06
9.99965e-06
9.99923e-06
9.99875e-06
9.99825e-06
9.99778e-06
9.99733e-06
9.99692e-06
9.99655e-06
9.9962e-06
9.99576e-06
9.9951e-06
9.99424e-06
9.99332e-06
9.99244e-06
9.99171e-06
9.99111e-06
9.99074e-06
9.99067e-06
9.99258e-06
9.99956e-06
1.00234e-05
1.01296e-05
1.06564e-05
1.68479e-05
3.61075e-05
5.42949e-05
6.36456e-05
7.21427e-05
0.000104323
0.000123958
0.000129203
0.000131898
0.000140394
0.000138423
0.000130882
0.000124767
0.000127963
0.000226514
0.218081
0.998654
0.999914
0.999927
0.999956
0.999967
0.99998
0.999989
0.999994
0.999997
0.999999
0.999999
0.999999
0.999999
0.999999
0.999999
0.999999
0.999999
0.999999
0.999999
0.999999
0.999999
0.999999
0.999999
0.999999
0.999999
0.999999
0.999999
0.999999
0.999999
0.999999
0.999999
0.999999
0.999999
0.999999
1
1
2.3117e-06
2.36396e-06
3.96766e-06
5.00921e-06
5.97498e-06
6.81218e-06
7.65646e-06
8.37204e-06
8.95946e-06
9.38093e-06
9.63935e-06
9.81876e-06
9.91714e-06
9.96087e-06
9.97569e-06
9.99466e-06
9.9987e-06
9.99908e-06
9.99871e-06
9.99853e-06
9.99824e-06
9.99804e-06
9.99759e-06
9.99708e-06
9.99656e-06
9.9961e-06
9.99567e-06
9.99528e-06
9.99494e-06
9.9946e-06
9.99418e-06
9.99355e-06
9.9927e-06
9.99181e-06
9.99094e-06
9.99021e-06
9.98964e-06
9.98922e-06
9.989e-06
9.99029e-06
9.9961e-06
1.0016e-05
1.01111e-05
1.0522e-05
1.4382e-05
3.1194e-05
5.08388e-05
6.23349e-05
7.36151e-05
0.000114556
0.000130782
0.000136928
0.000141455
0.000143332
0.000136571
0.000144358
0.000156063
0.000166458
0.000165738
0.301797
0.9946
0.997354
0.997346
0.997801
0.998062
0.99844
0.998772
0.999057
0.999291
0.999489
0.999649
0.999773
0.999866
0.999929
0.999966
0.999986
0.999995
0.999998
0.999999
0.999999
0.999999
0.999999
0.999999
0.999998
0.999998
0.999999
0.999999
0.999999
0.999999
0.999999
0.999999
0.999999
0.999999
0.999999
0.999999
0.999999
2.20995e-06
2.07961e-06
3.33755e-06
4.46389e-06
5.59322e-06
6.54823e-06
7.49834e-06
8.28592e-06
8.92316e-06
9.37169e-06
9.63532e-06
9.81711e-06
9.91637e-06
9.95996e-06
9.97427e-06
9.99345e-06
9.99764e-06
9.99791e-06
9.9975e-06
9.99726e-06
9.99694e-06
9.99671e-06
9.99619e-06
9.99567e-06
9.99517e-06
9.99472e-06
9.99431e-06
9.99396e-06
9.99367e-06
9.99339e-06
9.99303e-06
9.99245e-06
9.99165e-06
9.99079e-06
9.98996e-06
9.98926e-06
9.98868e-06
9.98822e-06
9.98788e-06
9.98882e-06
9.99417e-06
1.00125e-05
1.0107e-05
1.04742e-05
1.22425e-05
2.19927e-05
3.99746e-05
5.4005e-05
5.73114e-05
0.00011554
0.000136557
0.000138695
0.000137669
0.000135493
0.000142974
0.000149662
0.000152791
0.000153143
0.00010726
0.451538
0.981807
0.98456
0.983644
0.983529
0.984225
0.984814
0.985481
0.98618
0.987055
0.98804
0.989067
0.990063
0.991042
0.992022
0.993047
0.994134
0.995213
0.996336
0.997289
0.998058
0.99867
0.999055
0.999271
0.999326
0.999337
0.999481
0.999664
0.999807
0.999915
0.99997
0.99999
0.999997
0.999999
0.999999
0.999999
0.999999
2.11187e-06
1.87609e-06
2.82299e-06
3.88194e-06
5.1944e-06
6.29334e-06
7.35998e-06
8.21661e-06
8.90185e-06
9.36826e-06
9.63389e-06
9.81654e-06
9.91631e-06
9.95961e-06
9.97362e-06
9.99285e-06
9.99714e-06
9.99735e-06
9.99696e-06
9.99671e-06
9.99645e-06
9.99623e-06
9.99571e-06
9.9952e-06
9.99472e-06
9.99429e-06
9.99392e-06
9.99358e-06
9.99331e-06
9.99307e-06
9.99275e-06
9.99219e-06
9.99141e-06
9.99056e-06
9.98976e-06
9.98906e-06
9.9885e-06
9.98806e-06
9.98769e-06
9.98851e-06
9.99368e-06
1.00108e-05
1.01063e-05
1.04587e-05
1.13574e-05
1.31091e-05
1.67472e-05
2.79264e-05
6.62584e-05
0.000121241
0.000133207
0.000132413
0.000131923
0.00013881
0.000150071
0.000157692
0.000159027
0.000156154
0.00010726
0.477261
0.970451
0.973206
0.971437
0.970735
0.970466
0.970287
0.969919
0.969593
0.969507
0.969434
0.969395
0.969116
0.968575
0.968048
0.967556
0.967249
0.967206
0.967843
0.968351
0.96848
0.968536
0.96885
0.969855
0.971448
0.973604
0.976185
0.979532
0.984036
0.988436
0.992909
0.996093
0.997715
0.997728
0.998497
0.99984
0.999934
2.01213e-06
1.74051e-06
2.42927e-06
3.28132e-06
4.68925e-06
6.00472e-06
7.21147e-06
8.14837e-06
8.88676e-06
9.36698e-06
9.63613e-06
9.8192e-06
9.91925e-06
9.96031e-06
9.97336e-06
9.99246e-06
9.99672e-06
9.99699e-06
9.99676e-06
9.99664e-06
9.99649e-06
9.99665e-06
9.9963e-06
9.99591e-06
9.99553e-06
9.99517e-06
9.99479e-06
9.99443e-06
9.99412e-06
9.99383e-06
9.99347e-06
9.99286e-06
9.99202e-06
9.99107e-06
9.99021e-06
9.98949e-06
9.98892e-06
9.98855e-06
9.98814e-06
9.98857e-06
9.99359e-06
1.00099e-05
1.01039e-05
1.04728e-05
1.14612e-05
1.35077e-05
1.61714e-05
1.63405e-05
4.48352e-05
0.000112204
0.000126469
0.000120248
0.000118237
0.000123093
0.00013285
0.000137582
0.000137171
0.000125846
0.00010726
0.216198
0.959726
0.981176
0.980496
0.980552
0.980421
0.980287
0.979875
0.97918
0.978226
0.977168
0.975935
0.974535
0.972837
0.970463
0.967714
0.965386
0.963207
0.960519
0.957254
0.953285
0.948138
0.942614
0.937499
0.932861
0.928642
0.92429
0.918766
0.911417
0.902323
0.893265
0.884036
0.872176
0.855256
0.828153
0.772625
0.58598
1.89027e-06
1.65248e-06
2.08778e-06
2.67668e-06
3.99737e-06
5.5362e-06
6.99503e-06
8.07054e-06
8.87316e-06
9.36988e-06
9.64155e-06
9.82415e-06
9.92352e-06
9.96223e-06
9.97505e-06
9.99438e-06
9.9985e-06
9.9985e-06
9.99824e-06
9.99803e-06
9.99786e-06
9.99783e-06
9.99753e-06
9.99718e-06
9.99683e-06
9.99649e-06
9.99614e-06
9.99582e-06
9.99556e-06
9.99532e-06
9.99501e-06
9.99444e-06
9.99365e-06
9.99276e-06
9.99191e-06
9.99124e-06
9.9907e-06
9.99033e-06
9.98999e-06
9.9907e-06
9.99516e-06
1.00116e-05
1.01082e-05
1.05266e-05
1.16817e-05
1.45052e-05
2.04876e-05
2.17738e-05
3.28159e-05
8.75961e-05
0.000122513
0.000119994
0.000114337
0.000113684
0.000112414
0.000122571
0.000122504
0.000131563
0.00010726
0.11895
0.975638
0.996851
0.997313
0.997939
0.998126
0.998702
0.998862
0.998915
0.998873
0.99885
0.998777
0.998681
0.998534
0.998328
0.998044
0.997658
0.997156
0.996509
0.995845
0.995047
0.993941
0.992469
0.990548
0.98833
0.985772
0.983094
0.980498
0.978579
0.977834
0.978171
0.980096
0.982233
0.987761
0.994104
0.996674
0.995571
1.77154e-06
1.56422e-06
1.79332e-06
2.19709e-06
3.19548e-06
4.88622e-06
6.6774e-06
7.96183e-06
8.85643e-06
9.37132e-06
9.64721e-06
9.83203e-06
9.92951e-06
9.96368e-06
9.97615e-06
9.99602e-06
1.00001e-05
1.00001e-05
9.99995e-06
9.99981e-06
9.99969e-06
9.99972e-06
9.99947e-06
9.99913e-06
9.99876e-06
9.99839e-06
9.99802e-06
9.99764e-06
9.99731e-06
9.99703e-06
9.9967e-06
9.99608e-06
9.99524e-06
9.99425e-06
9.99328e-06
9.99248e-06
9.99178e-06
9.99114e-06
9.99059e-06
9.99128e-06
9.99512e-06
1.00127e-05
1.01066e-05
1.0532e-05
1.17614e-05
1.45091e-05
2.35828e-05
3.2818e-05
3.46522e-05
6.42916e-05
0.000115785
0.000121162
0.000115989
0.000114255
0.000114356
0.00012176
0.000118702
0.000130076
0.00010726
0.0935216
0.984719
0.999898
0.999894
0.999933
0.999936
0.999949
0.999943
0.999941
0.999941
0.999943
0.999941
0.999936
0.99993
0.999922
0.99991
0.999892
0.999869
0.999837
0.999794
0.999739
0.999669
0.999585
0.999484
0.999378
0.999289
0.999217
0.999144
0.999103
0.999239
0.999427
0.999609
0.999746
0.999914
0.999992
1
1
1.67442e-06
1.49592e-06
1.57631e-06
1.8249e-06
2.53893e-06
4.09054e-06
6.11674e-06
7.71657e-06
8.80331e-06
9.36706e-06
9.65203e-06
9.84077e-06
9.93394e-06
9.96297e-06
9.97444e-06
9.99615e-06
1.00003e-05
1.00002e-05
1.00003e-05
1.00002e-05
1.00003e-05
1.00002e-05
1.00001e-05
9.99978e-06
9.99945e-06
9.99911e-06
9.99875e-06
9.99842e-06
9.99813e-06
9.99788e-06
9.99759e-06
9.99701e-06
9.99616e-06
9.99519e-06
9.99432e-06
9.99369e-06
9.99315e-06
9.99275e-06
9.9925e-06
9.99325e-06
9.99756e-06
1.0015e-05
1.01039e-05
1.05111e-05
1.17892e-05
1.48599e-05
2.63724e-05
4.46932e-05
4.63003e-05
5.68258e-05
0.000106017
0.000121825
0.000118974
0.000116526
0.000117788
0.00012453
0.000121362
0.000136428
0.000116338
0.0328838
0.927901
0.999999
0.999997
0.999999
0.999999
0.999999
0.999997
0.999997
0.999998
0.999999
0.999999
0.999999
0.999999
0.999999
0.999998
0.999998
0.999998
0.999998
0.999997
0.999996
0.999996
0.999995
0.999994
0.999993
0.999993
0.999994
0.999995
0.999996
0.999997
0.999998
0.999999
0.999999
0.999999
1
0.999999
1
1.61196e-06
1.43097e-06
1.42978e-06
1.56084e-06
2.14537e-06
3.29868e-06
5.21212e-06
7.29061e-06
8.76132e-06
9.38985e-06
9.67333e-06
9.85541e-06
9.93835e-06
9.96077e-06
9.97166e-06
9.99231e-06
1.00002e-05
1.00003e-05
1.00002e-05
1.00002e-05
1.00002e-05
1.00001e-05
9.99989e-06
9.99965e-06
9.99936e-06
9.99906e-06
9.99874e-06
9.99846e-06
9.99821e-06
9.99793e-06
9.99764e-06
9.99705e-06
9.99612e-06
9.99511e-06
9.99427e-06
9.99372e-06
9.99323e-06
9.99291e-06
9.99277e-06
9.99355e-06
9.99813e-06
1.00152e-05
1.01031e-05
1.04753e-05
1.17818e-05
1.60297e-05
2.86256e-05
5.07679e-05
6.00507e-05
6.20054e-05
9.21229e-05
0.000121495
0.000122724
0.000122091
0.000123621
0.000125901
0.000121566
0.000136504
0.000164413
0.0139999
0.936993
0.999999
0.999999
0.999999
0.999999
0.999999
0.999999
0.999999
0.999999
0.999999
0.999999
0.999999
0.999999
0.999999
0.999999
0.999999
0.999999
0.999999
0.999999
0.999999
0.999999
0.999999
0.999999
0.999999
0.999999
0.999999
0.999999
0.999999
0.999999
0.999999
0.999999
0.999999
0.999999
0.999999
0.999999
1
1.58304e-06
1.41402e-06
1.38477e-06
1.37433e-06
1.53176e-06
2.12869e-06
3.45347e-06
5.91136e-06
8.48592e-06
9.42863e-06
9.70008e-06
9.86536e-06
9.93921e-06
9.94986e-06
9.96341e-06
9.99077e-06
9.99888e-06
1.00002e-05
9.99988e-06
9.9999e-06
9.99974e-06
9.99991e-06
9.99991e-06
9.99973e-06
9.99947e-06
9.99918e-06
9.99887e-06
9.99855e-06
9.99825e-06
9.99793e-06
9.99741e-06
9.9965e-06
9.99542e-06
9.99426e-06
9.99303e-06
9.99224e-06
9.99167e-06
9.99137e-06
9.99175e-06
9.99324e-06
9.99804e-06
1.00139e-05
1.00923e-05
1.0446e-05
1.19875e-05
1.7657e-05
3.23531e-05
5.42242e-05
7.00769e-05
7.09186e-05
8.21864e-05
0.000113083
0.000123088
0.000127112
0.000126848
0.000124617
0.000117984
0.000138493
0.000236836
0.0170735
0.94796
0.999977
0.999999
0.999999
0.999999
0.999999
0.999999
0.999999
0.999999
0.999999
0.999999
0.999999
0.999999
0.999999
0.999999
0.999999
0.999999
0.999999
0.999999
0.999999
0.999999
0.999999
0.999999
0.999999
0.999999
0.999999
0.999999
0.999999
0.999999
0.999999
0.999999
0.999999
0.999999
0.999999
0.999999
1
1.68112e-06
1.73663e-06
1.54895e-06
1.56801e-06
1.25026e-06
1.40242e-06
1.75775e-06
3.52061e-06
7.20191e-06
9.47466e-06
9.75226e-06
9.87302e-06
9.91125e-06
9.92123e-06
9.94248e-06
9.98363e-06
9.9964e-06
9.99721e-06
9.99713e-06
9.99721e-06
9.99725e-06
9.99719e-06
9.99707e-06
9.99682e-06
9.99641e-06
9.99584e-06
9.99515e-06
9.99444e-06
9.99377e-06
9.99307e-06
9.99224e-06
9.9911e-06
9.98976e-06
9.98858e-06
9.98743e-06
9.98688e-06
9.98665e-06
9.98665e-06
9.98696e-06
9.98771e-06
9.99146e-06
1.00068e-05