/*--------------------------------*- C++ -*----------------------------------*\
| =========                 |                                                 |
| \\      /  F ield         | OpenFOAM: The Open Source CFD Toolbox           |
|  \\    /   O peration     | Version:  2.3.0                                 |
|   \\  /    A nd           | Web:      www.OpenFOAM.org                      |
|    \\/     M anipulation  |                                                 |
\*---------------------------------------------------------------------------*/
FoamFile
{
    version     2.0;
    format      ascii;
    class       surfaceScalarField;
    location    "46";
    object      phi.air;
}
// * * * * * * * * * * * * * * * * * * * * * * * * * * * * * * * * * * * * * //

dimensions      [0 3 -1 0 0 0 0];

internalField   nonuniform List<scalar> 
16448
(
-1.18871e-06
-2.5124e-06
4.68395e-07
7.79214e-07
-2.6424e-06
6.74475e-07
7.42242e-07
-1.06258e-06
1.09955e-06
6.23373e-07
-9.26662e-07
1.04553e-06
2.49912e-07
-5.17397e-07
8.90859e-07
1.08382e-07
-6.48735e-07
7.90264e-07
5.43167e-08
-6.32305e-07
6.86369e-07
1.03986e-08
-5.64447e-07
6.08364e-07
-9.59189e-08
-4.23234e-07
5.29553e-07
-2.8067e-07
-2.98519e-07
4.83274e-07
-4.72684e-07
-2.37212e-07
4.29232e-07
-5.6736e-07
-2.54924e-07
3.49606e-07
-5.60901e-07
-2.98536e-07
2.92081e-07
-4.64908e-07
-3.42518e-07
2.46525e-07
-3.47913e-07
-3.62423e-07
2.45431e-07
-2.16535e-07
-3.87179e-07
2.55802e-07
-1.00267e-07
-4.02635e-07
2.86375e-07
-3.1584e-09
-4.1753e-07
3.20427e-07
6.74394e-08
-4.29635e-07
3.59046e-07
1.10874e-07
-4.37891e-07
3.94462e-07
1.26958e-07
-4.41447e-07
4.25373e-07
1.23057e-07
-4.45837e-07
4.49745e-07
1.07734e-07
-4.45973e-07
4.61304e-07
8.7266e-08
-4.41442e-07
4.61916e-07
6.56364e-08
-4.32126e-07
4.53764e-07
4.66136e-08
-4.20024e-07
4.39053e-07
3.36348e-08
-4.08426e-07
4.21411e-07
2.84414e-08
-3.98809e-07
4.04007e-07
2.89084e-08
-3.88577e-07
3.88114e-07
3.13085e-08
-3.77342e-07
3.74945e-07
3.44048e-08
-3.66221e-07
3.63127e-07
3.93319e-08
-3.56137e-07
3.51212e-07
4.81999e-08
-3.47199e-07
3.38332e-07
6.46756e-08
-3.402e-07
3.23725e-07
9.48711e-08
-3.37135e-07
3.06937e-07
1.4744e-07
-3.4155e-07
2.8898e-07
2.28871e-07
-3.55784e-07
2.74348e-07
3.34281e-07
-3.80357e-07
2.74943e-07
4.49023e-07
-4.12709e-07
2.97959e-07
5.5017e-07
-4.48675e-07
3.47522e-07
6.12013e-07
-4.83014e-07
4.21159e-07
6.4064e-07
-5.16687e-07
4.88052e-07
7.31434e-07
-6.14453e-07
5.23643e-07
1.0184e-06
-9.1143e-07
6.24454e-07
1.59306e-06
-1.5469e-06
9.72221e-07
1.91398e-06
-1.64308e-06
1.32214e-06
7.28995e-07
2.54685e-07
9.30276e-07
-2.52687e-06
2.45375e-06
8.02104e-07
-5.64518e-06
1.60483e-06
1.51347e-06
-3.31897e-06
-5.67237e-06
3.34615e-06
2.66997e-06
-1.06142e-05
4.62527e-06
7.71349e-06
-8.74059e-06
3.69708e-06
1.06363e-05
-5.13859e-06
2.21576e-06
1.06306e-05
-7.13346e-07
7.1907e-07
7.7451e-06
4.00653e-06
-1.12108e-06
4.39127e-06
4.67286e-06
-1.31905e-06
-2.97651e-07
7.92717e-06
-3.2383e-06
8.54743e-06
-2.50562e-06
-6.34138e-06
-1.14579e-05
1.39275e-05
5.53809e-06
-3.40336e-05
-9.58393e-06
-1.46409e-06
-5.67492e-05
-2.48952e-05
7.86278e-06
-1.11751e-05
-3.50149e-06
9.35386e-06
3.12544e-05
-4.09376e-06
4.94321e-06
3.24357e-05
-3.45747e-06
2.25371e-06
3.2964e-05
-1.28632e-06
6.35885e-07
3.43011e-05
-3.81638e-08
-1.34877e-06
3.60248e-05
7.2768e-07
-2.50368e-06
3.76884e-05
1.03252e-06
-2.72901e-06
3.89393e-05
1.30454e-06
-2.59283e-06
3.97642e-05
1.46657e-06
-2.31295e-06
3.96192e-05
1.29522e-06
-1.12355e-06
4.02898e-05
-1.06625e-06
2.04298e-07
3.99898e-05
-2.12158e-06
2.33846e-06
3.83772e-05
-1.49049e-06
3.17238e-06
3.64234e-05
-1.25354e-06
3.22011e-06
3.38769e-05
-2.69346e-07
2.79615e-06
2.94782e-05
1.40864e-06
2.94632e-06
2.23973e-05
2.21214e-06
4.72888e-06
1.15599e-05
5.46009e-06
5.26062e-06
7.83544e-07
5.38248e-06
5.33376e-06
-6.14951e-06
2.94587e-06
3.92035e-06
-1.03018e-05
2.07921e-06
2.07951e-06
-1.24192e-05
2.13201e-06
1.07212e-07
-1.07247e-05
2.72295e-06
-4.3641e-06
-7.45787e-06
2.38014e-06
-5.66128e-06
-5.98782e-06
1.12974e-06
-2.56247e-06
-6.93947e-06
4.91075e-07
5.14435e-07
-8.87276e-06
-2.3151e-07
2.21672e-06
-1.06289e-05
-9.54436e-07
2.75405e-06
-1.19009e-05
-1.03145e-06
2.3581e-06
-1.22636e-05
-1.02505e-06
1.47086e-06
-1.13046e-05
-1.03834e-06
1.26833e-07
-9.25212e-06
-1.17262e-06
-8.44446e-07
-6.42667e-06
-1.3268e-06
-1.46351e-06
-3.58767e-06
-8.331e-07
-1.98326e-06
-7.76435e-07
-2.28993e-06
-1.76311e-06
-3.55825e-06
-2.66552e-07
-2.19228e-07
-3.91035e-06
-2.75934e-07
1.4814e-07
-2.03226e-06
6.02319e-07
4.39766e-07
-1.66552e-06
4.47229e-07
3.94936e-07
-7.46068e-07
2.73496e-07
2.39014e-07
-7.19015e-07
2.26194e-07
7.31031e-08
-5.82973e-07
1.1657e-07
-5.9522e-08
-5.01026e-07
6.9198e-08
-2.34896e-07
-3.12294e-07
6.44335e-08
-4.5326e-07
-1.7262e-07
9.24666e-08
-6.42878e-07
-1.14004e-07
6.6415e-08
-7.21434e-07
-1.7733e-07
9.62615e-10
-7.12275e-07
-2.51559e-07
-5.61376e-08
-6.19172e-07
-3.32798e-07
-1.02824e-07
-4.97479e-07
-3.70004e-07
-1.14112e-07
-3.57805e-07
-4.11324e-07
-1.15523e-07
-2.26775e-07
-4.34967e-07
-9.86911e-08
-1.12451e-07
-4.55019e-07
-7.68266e-08
-2.3902e-08
-4.68349e-07
-4.98263e-08
3.88073e-08
-4.75845e-07
-2.47462e-08
7.36137e-08
-4.75541e-07
-7.04981e-10
8.66628e-08
-4.70912e-07
1.20344e-08
8.53332e-08
-4.62193e-07
1.75566e-08
7.54711e-08
-4.48981e-07
1.74089e-08
6.10945e-08
-4.30883e-07
1.3139e-08
4.56642e-08
-4.10603e-07
6.0134e-09
3.21192e-08
-3.91312e-07
-3.56597e-09
2.40708e-08
-3.73681e-07
-1.70779e-08
2.06026e-08
-3.55937e-07
-2.91711e-08
1.97663e-08
-3.36751e-07
-3.97553e-08
2.12112e-08
-3.18053e-07
-4.96154e-08
2.60619e-08
-3.01754e-07
-5.92381e-08
3.5739e-08
-2.88225e-07
-6.86572e-08
5.24924e-08
-2.78956e-07
-7.80067e-08
7.99112e-08
-2.7736e-07
-8.72035e-08
1.22626e-07
-2.90033e-07
-9.42463e-08
1.84033e-07
-3.21613e-07
-9.55928e-08
2.61405e-07
-3.7114e-07
-8.66075e-08
3.44433e-07
-4.33844e-07
-6.19139e-08
4.20864e-07
-5.05632e-07
-1.94987e-08
4.99786e-07
-5.88465e-07
2.65036e-08
6.6554e-07
-7.33135e-07
5.06627e-08
1.05278e-06
-1.04841e-06
4.66931e-08
1.54751e-06
-1.60316e-06
1.96956e-07
1.22097e-06
-2.1685e-06
9.48102e-07
-1.3668e-06
-7.10342e-07
1.655e-06
-4.52857e-06
2.15991e-06
1.25652e-06
-6.09789e-06
2.81102e-06
1.21203e-06
-3.54125e-06
-2.97668e-06
2.02485e-06
1.38584e-06
-1.39486e-05
3.34914e-06
3.48737e-06
-1.80699e-05
5.35413e-06
5.08718e-06
-1.49704e-05
4.63e-06
6.58544e-06
-8.43507e-06
1.79821e-06
7.6102e-06
-2.18297e-06
4.44841e-07
9.25762e-06
3.49331e-06
-1.13424e-06
1.04336e-05
4.15126e-06
-6.54467e-07
1.02692e-05
1.09356e-05
-2.84411e-06
1.53406e-05
1.216e-06
-8.79289e-06
-2.87252e-06
2.52164e-05
6.44581e-06
-3.38657e-05
-1.0603e-05
-1.51345e-06
-7.53254e-05
-3.4622e-05
3.01468e-06
-3.51516e-05
-8.56015e-06
5.56699e-06
1.19747e-05
-1.28243e-05
-1.56941e-06
1.31461e-05
-3.96957e-07
-4.56393e-06
1.50474e-05
3.7037e-06
-6.68123e-06
1.80593e-05
6.12345e-06
-9.19726e-06
2.04801e-05
7.28216e-06
-9.04336e-06
2.18814e-05
7.66743e-06
-8.03497e-06
2.22741e-05
6.59466e-06
-5.60043e-06
1.99918e-05
6.38438e-06
-2.49878e-06
1.26049e-05
6.67669e-06
2.10186e-06
6.20261e-06
1.09606e-06
4.23681e-06
4.26405e-06
-2.56147e-06
2.48428e-06
3.76503e-06
-2.09901e-06
1.15056e-06
4.04245e-06
-1.39366e-06
-1.21607e-07
4.22015e-06
5.01127e-07
-8.55056e-07
4.45574e-06
2.01805e-06
-8.19755e-07
3.50115e-06
3.3973e-06
-8.2586e-08
1.45087e-06
5.92993e-06
1.71998e-06
-2.7886e-06
5.62344e-06
4.03528e-06
-7.75995e-06
3.79395e-06
4.09739e-06
-1.15441e-05
3.3202e-06
2.49308e-06
-1.31294e-05
4.12353e-06
-3.31719e-07
-1.12791e-05
5.95973e-06
-5.09161e-06
-8.39872e-06
5.70914e-06
-6.26017e-06
-7.69175e-06
3.81486e-06
-3.41091e-06
-9.14004e-06
1.76174e-06
2.32015e-07
-1.10536e-05
-6.59697e-07
2.4084e-06
-1.29684e-05
-2.20918e-06
3.19887e-06
-1.42433e-05
-3.14538e-06
3.42685e-06
-1.48478e-05
-3.34268e-06
3.03021e-06
-1.3766e-05
-3.59667e-06
1.58667e-06
-1.11796e-05
-3.99563e-06
3.43737e-07
-7.87983e-06
-3.83881e-06
-7.52368e-07
-4.46425e-06
-3.18617e-06
-1.0093e-06
-2.96015e-06
-1.71343e-06
-2.1686e-06
-3.82324e-06
-4.85994e-07
-9.62739e-07
-4.35438e-06
-7.61827e-07
-4.65229e-07
-2.63687e-06
1.07096e-07
-5.17298e-09
-2.14651e-06
2.09272e-08
1.71133e-07
-8.47258e-07
-7.51267e-08
5.41241e-08
-5.44372e-07
-5.76489e-08
-8.63686e-08
-2.8426e-07
-1.58233e-07
-2.3225e-07
-1.90606e-07
-1.64547e-07
-3.59278e-07
-1.21907e-08
-1.73076e-07
-4.71296e-07
8.64901e-08
-1.47089e-07
-5.76875e-07
1.35152e-07
-1.43571e-07
-6.28127e-07
5.93865e-08
-1.8546e-07
-6.40961e-07
-1.01052e-08
-2.28616e-07
-6.06237e-07
-9.93007e-08
-2.6822e-07
-5.45207e-07
-1.46591e-07
-2.84437e-07
-4.61724e-07
-1.96469e-07
-2.98331e-07
-3.69716e-07
-2.2563e-07
-3.01335e-07
-2.79567e-07
-2.46875e-07
-2.98283e-07
-2.01394e-07
-2.57044e-07
-2.89466e-07
-1.35336e-07
-2.61825e-07
-2.80068e-07
-8.21163e-08
-2.57095e-07
-2.71654e-07
-4.37178e-08
-2.43969e-07
-2.65332e-07
-1.8829e-08
-2.26359e-07
-2.60713e-07
-4.79849e-09
-2.05182e-07
-2.57822e-07
1.47716e-09
-1.81167e-07
-2.55984e-07
2.55687e-09
-1.56299e-07
-2.55377e-07
2.40696e-10
-1.32831e-07
-2.56159e-07
-4.03082e-09
-1.1103e-07
-2.58376e-07
-7.81095e-09
-9.0228e-08
-2.61926e-07
-9.27248e-09
-6.89351e-08
-2.66353e-07
-7.2317e-09
-4.90284e-08
-2.71065e-07
-1.16815e-09
-3.25938e-08
-2.75225e-07
8.57168e-09
-1.98474e-08
-2.78122e-07
2.04297e-08
-1.20271e-08
-2.78791e-07
3.14176e-08
-1.20481e-08
-2.76307e-07
3.67844e-08
-2.51714e-08
-2.70236e-07
3.26896e-08
-5.77285e-08
-2.59801e-07
1.92476e-08
-1.1128e-07
-2.4643e-07
-1.90228e-10
-1.82662e-07
-2.31761e-07
-1.18443e-08
-2.72964e-07
-2.21031e-07
1.24565e-08
-3.89796e-07
-2.22993e-07
1.20385e-07
-5.94289e-07
-2.46796e-07
2.51462e-07
-9.3596e-07
-2.4356e-07
-1.26404e-07
-1.28752e-06
6.2207e-08
-2.17557e-06
-1.27744e-06
1.15807e-06
-5.6943e-06
7.50688e-07
2.05768e-06
-7.7795e-06
2.70843e-06
1.53667e-06
-7.25027e-06
1.52251e-06
7.59257e-07
-3.20791e-06
-7.26591e-06
2.46846e-07
-3.46025e-06
-1.54133e-05
1.71706e-06
-1.00582e-05
-1.79653e-05
6.49333e-06
-1.35901e-05
-1.63196e-05
4.88108e-06
-1.32889e-05
-1.11035e-05
2.36729e-06
-1.04959e-05
-4.08186e-06
-8.94098e-07
6.81834e-07
-2.61433e-06
-5.07013e-06
6.48102e-06
-5.48042e-08
-1.59311e-06
1.22314e-05
8.57843e-06
-3.39321e-06
2.05765e-05
-2.51984e-07
-6.87693e-06
-3.97558e-06
4.21022e-05
7.03385e-06
-3.13696e-05
-1.13161e-05
-3.54749e-06
-3.61994e-05
-4.12088e-05
2.30405e-06
-7.83934e-06
-1.53026e-05
4.63677e-06
-2.6762e-06
-1.54771e-05
1.3136e-06
8.62169e-08
-3.63494e-06
2.73953e-07
9.89638e-06
-1.70632e-06
-4.64493e-06
1.59749e-05
2.92654e-06
-3.12816e-06
1.93489e-05
4.37683e-06
-6.1649e-07
2.08699e-05
4.64886e-06
1.34763e-06
2.05529e-05
3.8162e-06
3.01282e-06
1.7509e-05
3.67022e-06
5.70694e-06
1.24781e-05
3.4961e-06
8.0399e-06
6.97447e-06
-4.02876e-08
6.49017e-06
3.5562e-06
-1.7866e-06
2.56959e-06
2.62285e-06
-7.64623e-07
-4.1513e-07
2.1596e-06
4.96653e-07
-1.48422e-06
1.31263e-06
2.53067e-06
-1.23927e-06
-2.74631e-07
4.34812e-06
-8.33134e-07
-2.56132e-06
6.3729e-06
-8.08162e-07
-5.9098e-06
8.44818e-06
6.9673e-07
-9.57977e-06
5.84303e-06
3.38783e-06
-1.34826e-05
3.53376e-06
4.16645e-06
-1.60855e-05
3.16197e-06
2.84599e-06
-1.54164e-05
5.1545e-06
-1.65e-06
-1.19866e-05
7.54899e-06
-5.07178e-06
-8.62193e-06
7.55e-06
-5.32738e-06
-7.51753e-06
5.0417e-06
-2.37084e-06
-8.50252e-06
1.85778e-06
9.60678e-07
-1.08246e-05
-1.18771e-06
2.94633e-06
-1.32087e-05
-3.33927e-06
3.55165e-06
-1.49132e-05
-4.84193e-06
3.43887e-06
-1.58423e-05
-5.1612e-06
2.83149e-06
-1.47914e-05
-5.04257e-06
4.72957e-07
-1.18033e-05
-5.08509e-06
-1.84815e-06
-7.77015e-06
-5.20652e-06
-2.66925e-06
-4.38891e-06
-5.19512e-06
-1.32308e-06
-5.766e-06
-8.784e-07
-2.58269e-06
-3.86394e-06
-2.31482e-07
-1.44178e-06
-4.57928e-06
-9.16009e-07
-9.89854e-07
-3.10511e-06
1.63146e-08
-4.23967e-07
-2.735e-06
2.25915e-08
-1.00937e-07
-1.16218e-06
-8.13419e-09
-9.61152e-08
-5.08278e-07
-4.09359e-08
-1.35415e-07
-6.20175e-08
-1.82963e-07
-2.18826e-07
8.03854e-08
-1.87585e-07
-2.8514e-07
2.61661e-07
-2.07541e-07
-3.52645e-07
3.53435e-07
-1.99431e-07
-4.19925e-07
4.23473e-07
-2.21037e-07
-4.89616e-07
3.78888e-07
-2.498e-07
-5.48392e-07
3.27939e-07
-2.79265e-07
-5.61868e-07
2.26033e-07
-3.11847e-07
-5.43924e-07
1.64116e-07
-3.28645e-07
-4.98675e-07
1.06727e-07
-3.48431e-07
-4.33168e-07
7.36893e-08
-3.64817e-07
-3.60669e-07
5.93026e-08
-3.78661e-07
-2.91143e-07
5.92834e-08
-3.85842e-07
-2.26933e-07
6.35391e-08
-3.8956e-07
-1.70249e-07
7.53613e-08
-3.89129e-07
-1.20649e-07
9.28099e-08
-3.86365e-07
-8.09337e-08
1.14735e-07
-3.80798e-07
-5.24191e-08
1.40085e-07
-3.73769e-07
-3.47605e-08
1.67908e-07
-3.66724e-07
-2.60766e-08
1.9566e-07
-3.60633e-07
-2.36087e-08
2.20561e-07
-3.55851e-07
-2.43589e-08
2.42371e-07
-3.52644e-07
-2.6359e-08
2.63042e-07
-3.51264e-07
-2.8282e-08
2.84391e-07
-3.51399e-07
-2.96491e-08
3.04511e-07
-3.52169e-07
-3.00512e-08
3.20564e-07
-3.52755e-07
-2.99963e-08
3.31858e-07
-3.51758e-07
-3.23789e-08
3.38014e-07
-3.47662e-07
-4.30901e-08
3.37456e-07
-3.38794e-07
-7.06256e-08
3.26996e-07
-3.24639e-07
-1.21494e-07
3.0056e-07
-3.07424e-07
-1.93447e-07
2.53382e-07
-2.92722e-07
-2.74651e-07
1.85034e-07
-2.865e-07
-3.49318e-07
9.49857e-08
-2.93302e-07
-3.97996e-07
-2.76403e-08
-3.13491e-07
-4.16878e-07
-2.34044e-07
-3.41391e-07
-5.60517e-07
-4.93512e-07
-2.98827e-07
-1.33199e-06
-5.80202e-07
6.41211e-08
-3.66493e-06
-1.5512e-07
1.2106e-06
-6.81608e-06
1.8433e-06
2.0585e-06
-8.29386e-06
2.87335e-06
1.31285e-06
-7.09404e-06
5.25176e-07
-2.02521e-07
-6.56634e-06
-6.70105e-06
-1.09258e-06
-1.57943e-05
-9.62794e-06
3.44255e-06
-2.83722e-05
-1.28672e-05
7.47998e-06
-3.36525e-05
-1.66705e-05
5.63128e-06
-3.48852e-05
-1.31951e-05
3.32435e-06
-2.78982e-05
-8.56412e-06
-2.50467e-06
-2.09422e-05
-4.23802e-06
-5.33232e-06
-1.86682e-05
1.57397e-06
-3.90269e-06
3.42898e-06
2.48401e-06
-1.60029e-05
9.29924e-06
9.23738e-06
-1.53597e-05
-1.26988e-06
5.31624e-05
-1.82234e-06
-3.53767e-05
-1.30974e-05
-7.5646e-07
-4.70592e-05
-3.1221e-05
2.75224e-06
-5.20518e-05
-1.12621e-05
8.18079e-06
-5.64671e-05
-1.20227e-05
8.62818e-07
-2.3321e-05
-5.72107e-06
4.94167e-08
-1.78613e-05
-4.64253e-06
-1.3731e-06
-1.31573e-05
-1.41978e-06
6.17312e-07
-1.13098e-05
-4.59073e-07
2.81075e-06
-1.10995e-05
5.44866e-07
4.01759e-06
-1.25181e-05
4.82627e-07
4.58478e-06
-1.34556e-05
9.29806e-07
3.24662e-06
-1.24988e-05
6.23428e-07
1.40394e-06
-1.18117e-05
6.57019e-07
-1.22384e-06
-1.10363e-05
2.25638e-07
-2.87746e-06
-9.92837e-06
1.89508e-06
-3.66771e-06
-1.02057e-05
3.10228e-06
-2.32417e-06
-1.19482e-05
4.02278e-06
3.38134e-07
-1.42938e-05
4.76445e-06
2.04637e-06
-1.6331e-05
4.96393e-06
3.58778e-06
-1.69426e-05
4.15025e-06
4.93143e-06
-1.80565e-05
2.02477e-06
4.97264e-06
-1.93787e-05
1.47905e-06
3.41402e-06
-1.90152e-05
2.78845e-06
-3.84938e-08
-1.68894e-05
4.99114e-06
-2.04175e-06
-1.25213e-05
6.48417e-06
-3.44547e-06
-8.38287e-06
5.68013e-06
-2.36025e-06
-6.27948e-06
3.0152e-06
-5.16716e-08
-6.38474e-06
1.54278e-07
1.90718e-06
-8.19997e-06
-2.09627e-06
2.81433e-06
-1.00575e-05
-3.84892e-06
2.40985e-06
-1.15338e-05
-5.30603e-06
1.99089e-06
-1.21315e-05
-5.70146e-06
1.20252e-06
-1.19826e-05
-4.9551e-06
-4.16257e-08
-1.01288e-05
-3.39905e-06
-3.41116e-06
-6.58667e-06
-2.44688e-06
-6.25301e-06
-3.66315e-06
-3.46686e-06
-4.49072e-06
-6.03759e-06
-2.38523e-06
-3.0144e-06
-3.79456e-06
2.25556e-08
-1.93484e-06
-4.71972e-06
-9.39114e-07
-1.56338e-06
-3.45511e-06
-2.14666e-08
-8.34346e-07
-3.41458e-06
-4.9476e-08
-3.72792e-07
-1.79238e-06
1.6862e-07
-1.77395e-07
-7.68912e-07
6.52077e-08
-1.09163e-07
3.54335e-08
-1.65693e-07
-1.77112e-07
3.17532e-07
-1.69207e-07
-1.81426e-07
4.80976e-07
-2.14992e-07
-2.20608e-07
6.02444e-07
-2.09824e-07
-2.74742e-07
7.04108e-07
-2.26486e-07
-3.69904e-07
7.02662e-07
-2.28607e-07
-4.67657e-07
6.67547e-07
-2.4184e-07
-5.18774e-07
5.42897e-07
-2.65739e-07
-5.22608e-07
4.49175e-07
-2.81208e-07
-4.92283e-07
3.78739e-07
-3.02327e-07
-4.40877e-07
3.45828e-07
-3.23527e-07
-3.84264e-07
3.47292e-07
-3.4459e-07
-3.27466e-07
3.63981e-07
-3.61478e-07
-2.71241e-07
3.81897e-07
-3.7457e-07
-2.16165e-07
4.03373e-07
-3.8307e-07
-1.62799e-07
4.27135e-07
-3.87678e-07
-1.16241e-07
4.55028e-07
-3.86833e-07
-7.90677e-08
4.84844e-07
-3.8192e-07
-5.18387e-08
5.15232e-07
-3.74538e-07
-3.39427e-08
5.43317e-07
-3.65541e-07
-2.34531e-08
5.66506e-07
-3.56422e-07
-1.83187e-08
5.85501e-07
-3.48254e-07
-1.83262e-08
6.03857e-07
-3.40798e-07
-2.25322e-08
6.22679e-07
-3.34072e-07
-2.95717e-08
6.39549e-07
-3.27991e-07
-3.8494e-08
6.51611e-07
-3.22117e-07
-5.10187e-08
6.59725e-07
-3.15339e-07
-7.11894e-08
6.64423e-07
-3.06231e-07
-1.05656e-07
6.66424e-07
-2.94501e-07
-1.62544e-07
6.6554e-07
-2.81652e-07
-2.47512e-07
6.56694e-07
-2.71171e-07
-3.5953e-07
6.33438e-07
-2.68035e-07
-4.88155e-07
5.90535e-07
-2.76887e-07
-6.20382e-07
5.25112e-07
-2.979e-07
-7.50286e-07
4.24042e-07
-3.21796e-07
-9.32129e-07
2.73899e-07
-3.26106e-07
-1.32675e-06
1.29667e-07
-2.28583e-07
-2.17771e-06
1.25397e-07
1.45348e-07
-4.20917e-06
7.35761e-07
1.14055e-06
-6.72314e-06
2.80366e-06
1.5536e-06
-7.44269e-06
3.31558e-06
2.77299e-07
-5.64139e-06
8.28963e-07
-2.1051e-06
-6.9695e-06
-3.43827e-06
-1.93469e-06
-1.95101e-05
-1.40791e-06
4.32058e-06
-3.41e-05
-3.73803e-06
5.4608e-06
-4.40882e-05
-1.04339e-05
3.75166e-06
-5.15259e-05
-8.14649e-06
2.3892e-06
-5.38322e-05
-6.09973e-06
-1.58023e-07
-5.54304e-05
-6.02957e-06
3.38984e-06
-5.35772e-05
-1.85481e-06
1.57562e-06
-5.65325e-05
8.3248e-06
-2.88552e-06
-4.46429e-05
5.03132e-06
-7.68369e-06
1.09646e-06
1.12881e-05
-7.2237e-06
-5.43494e-05
-1.07922e-05
6.701e-07
-0.000137941
-1.51679e-05
4.08777e-06
-0.000143805
-3.57275e-06
7.6627e-06
-0.000148852
-6.29385e-06
2.93381e-06
-0.000153187
-2.64663e-06
1.41734e-06
-0.000153678
-2.77241e-06
-5.44971e-07
-0.000152548
-1.5799e-06
-1.89963e-07
-0.000151209
-1.33678e-06
1.15536e-06
-0.000149047
-6.54743e-07
1.42304e-06
-0.000142482
-7.74253e-07
1.67745e-06
-0.000121262
-4.47896e-07
1.27291e-06
-6.99011e-05
-7.30868e-07
1.11328e-06
-4.82944e-05
-1.17018e-06
3.64878e-07
-4.76135e-05
-6.33487e-07
1.3638e-06
-3.07429e-05
-4.96866e-07
2.23588e-06
-2.97846e-05
-4.13421e-07
3.23554e-06
-2.8947e-05
2.09013e-07
3.42036e-06
-2.77652e-05
3.92294e-07
3.11971e-06
-2.5841e-05
6.62076e-07
2.2152e-06
-2.39508e-05
9.28293e-07
1.22948e-06
-2.27524e-05
7.88054e-07
2.58683e-07
-2.20895e-05
1.39433e-06
-2.90919e-07
-2.04887e-05
2.07186e-06
-8.46201e-07
-1.74024e-05
2.99714e-06
-1.42011e-06
-1.32436e-05
2.83722e-06
-6.0748e-07
-9.85274e-06
1.88618e-06
1.22086e-07
-8.04102e-06
-8.55808e-08
1.43922e-06
-7.98826e-06
-1.62816e-06
1.97817e-06
-8.15303e-06
-2.58665e-06
9.64638e-07
-8.64168e-06
-3.22109e-06
6.79794e-08
-9.24112e-06
-4.15347e-06
-6.23015e-07
-9.1822e-06
-3.96861e-06
-1.89349e-06
-8.67535e-06
-2.17779e-06
-3.32585e-06
-7.52281e-06
6.07133e-07
-5.18073e-06
-5.11056e-06
2.70481e-06
-7.58181e-06
-2.17885e-06
3.09985e-07
-6.44888e-06
-3.37318e-06
-3.57143e-06
-3.46779e-06
-3.64188e-06
3.97597e-07
-2.51191e-06
-4.87797e-06
-7.97642e-07
-2.16446e-06
-3.71408e-06
-8.84957e-08
-1.21299e-06
-3.9015e-06
-4.64583e-07
-5.92737e-07
-2.58923e-06
1.76564e-07
-1.99685e-07
-1.28744e-06
1.25456e-07
-3.12864e-08
-1.84712e-08
-1.14508e-07
-1.01434e-07
4.94841e-07
-1.07152e-07
-6.49605e-08
6.39129e-07
-1.94626e-07
-9.96561e-08
8.02189e-07
-1.65031e-07
-1.52114e-07
9.39962e-07
-1.83391e-07
-2.82674e-07
1.01007e-06
-1.76826e-07
-4.2331e-07
9.94933e-07
-1.86741e-07
-4.93319e-07
8.24903e-07
-2.11977e-07
-4.87588e-07
6.84911e-07
-2.41457e-07
-4.44466e-07
6.07863e-07
-2.72225e-07
-3.88602e-07
5.89501e-07
-2.99524e-07
-3.42646e-07
6.22097e-07
-3.2074e-07
-3.06794e-07
6.66101e-07
-3.37956e-07
-2.74419e-07
7.01305e-07
-3.51761e-07
-2.41976e-07
7.31794e-07
-3.60846e-07
-2.06279e-07
7.57092e-07
-3.65632e-07
-1.7083e-07
7.83753e-07
-3.64158e-07
-1.38764e-07
8.10925e-07
-3.58127e-07
-1.14553e-07
8.39978e-07
-3.4894e-07
-9.73125e-08
8.6383e-07
-3.37735e-07
-8.47995e-08
8.79155e-07
-3.25146e-07
-7.59115e-08
8.89257e-07
-3.12628e-07
-7.14816e-08
8.99828e-07
-3.00384e-07
-7.32862e-08
9.13472e-07
-2.88974e-07
-8.24159e-08
9.27647e-07
-2.78952e-07
-9.87124e-08
9.38207e-07
-2.70288e-07
-1.23399e-07
9.46491e-07
-2.62063e-07
-1.59178e-07
9.53908e-07
-2.53697e-07
-2.11986e-07
9.64603e-07
-2.45354e-07
-2.88637e-07
9.80594e-07
-2.38397e-07
-3.91167e-07
9.9452e-07
-2.35278e-07
-5.16687e-07
9.97416e-07
-2.38457e-07
-6.61088e-07
9.83961e-07
-2.49009e-07
-8.31724e-07
9.57448e-07
-2.61703e-07
-1.07255e-06
9.22085e-07
-2.57202e-07
-1.47707e-06
8.84988e-07
-2.06587e-07
-2.13609e-06
8.37832e-07
-4.91391e-08
-2.95476e-06
7.33967e-07
2.10085e-07
-4.14981e-06
1.11663e-06
8.14191e-07
-5.68992e-06
3.29882e-06
1.04494e-06
-5.69741e-06
3.87726e-06
-5.54179e-07
-2.63907e-06
5.24684e-07
-2.75409e-06
-3.65611e-06
-1.34451e-06
-1.07673e-06
-1.259e-05
3.73703e-06
3.78895e-06
-2.275e-05
5.19184e-06
1.23016e-06
-3.43296e-05
2.75653e-06
-1.61073e-06
-4.24709e-05
-2.66196e-07
2.61099e-07
-4.5638e-05
-5.52922e-06
2.59668e-06
-4.51093e-05
-8.72035e-06
2.16219e-06
-3.6264e-05
-1.05394e-05
-1.60631e-07
-9.05325e-06
-1.36556e-05
-5.23054e-06
1.30218e-05
-1.53947e-05
-1.64927e-06
4.74712e-06
4.03752e-06
1.06787e-05
-6.8876e-05
8.68047e-07
1.05951e-06
-0.000149641
2.25305e-06
4.43408e-06
-0.000161083
7.65085e-06
8.91787e-06
-0.000169006
8.36596e-07
4.24216e-06
-0.000174301
1.00742e-06
1.59866e-06
-0.000176017
-9.97395e-07
-3.17233e-07
-0.000175998
-1.29988e-06
-6.16256e-07
-0.000175531
-1.4028e-06
-9.70461e-08
-0.000175111
-1.14404e-06
-3.68231e-08
-0.0001744
-1.18856e-06
-5.3507e-08
-0.000173185
-1.30441e-06
-4.82243e-07
-0.000171662
-1.49511e-06
-5.2686e-07
-0.000170149
-1.50947e-06
-6.68046e-07
-0.000168547
-1.61046e-06
-2.76389e-07
-0.000166995
-1.34345e-06
-1.73522e-08
-0.000165376
-1.56131e-06
2.26192e-07
-0.00016347
-1.18986e-06
2.2694e-07
-0.000161471
-1.32258e-06
4.4701e-08
-0.000159176
-1.06796e-06
-3.25963e-07
-0.000157094
-6.49716e-07
-5.79623e-07
-0.000155039
-4.84609e-07
-7.47276e-07
-0.000152773
3.06899e-07
-9.81658e-07
-0.00015003
7.33792e-07
-1.13281e-06
-0.000147043
1.01107e-06
-1.05738e-06
-0.000144091
2.80974e-07
-8.02446e-07
-0.000141458
-5.08942e-07
-8.44152e-07
-0.000138579
-2.08537e-06
-2.30015e-07
-0.000131851
-2.37619e-06
-9.39363e-07
-0.000110821
-1.71084e-06
-1.95467e-06
-5.18864e-05
-9.52637e-07
-2.69608e-06
-8.57755e-06
1.32788e-06
-4.23735e-06
-8.06847e-06
3.72442e-06
-5.71264e-06
-7.6631e-06
6.75437e-06
-7.1958e-06
-7.013e-06
9.37924e-06
-7.67667e-06
-5.16691e-06
9.45711e-06
-8.76744e-06
-1.88011e-06
3.20067e-06
-6.8919e-06
-2.1091e-07
-3.5648e-06
-3.85373e-06
-3.39117e-06
8.53162e-07
-3.05432e-06
-4.94674e-06
-7.30639e-07
-2.70946e-06
-3.77545e-06
-2.83515e-07
-1.50942e-06
-4.0111e-06
-1.09047e-06
-7.29335e-07
-3.123e-06
-2.46333e-07
-1.74069e-07
-1.79045e-06
-5.22746e-08
1.27155e-08
-4.4886e-08
-1.60365e-07
-9.01676e-08
6.90128e-07
-9.24043e-08
-1.07012e-08
7.77597e-07
-2.17916e-07
-4.67327e-08
9.95258e-07
-1.5703e-07
-9.37494e-08
1.15445e-06
-1.67449e-07
-2.20218e-07
1.25729e-06
-1.20739e-07
-3.49587e-07
1.25654e-06
-1.32213e-07
-4.02018e-07
1.05362e-06
-1.76275e-07
-3.84411e-07
9.00578e-07
-2.3325e-07
-3.43542e-07
8.39363e-07
-2.72354e-07
-3.00867e-07
8.46675e-07
-2.99825e-07
-2.77656e-07
9.1082e-07
-3.11917e-07
-2.7164e-07
9.78827e-07
-3.18717e-07
-2.72918e-07
1.02688e-06
-3.24276e-07
-2.75823e-07
1.06239e-06
-3.2767e-07
-2.74832e-07
1.08526e-06
-3.29135e-07
-2.69345e-07
1.10434e-06
-3.26051e-07
-2.61078e-07
1.12166e-06
-3.18975e-07
-2.55128e-07
1.14075e-06
-3.06702e-07
-2.51044e-07
1.15272e-06
-2.92954e-07
-2.44079e-07
1.15309e-06
-2.80874e-07
-2.34754e-07
1.15008e-06
-2.70121e-07
-2.26026e-07
1.15077e-06
-2.59645e-07
-2.23087e-07
1.16035e-06
-2.49794e-07
-2.30512e-07
1.17592e-06
-2.40827e-07
-2.49532e-07
1.19044e-06
-2.33185e-07
-2.81923e-07
1.2052e-06
-2.26296e-07
-3.28197e-07
1.22081e-06
-2.20602e-07
-3.89508e-07
1.24166e-06
-2.15728e-07
-4.69516e-07
1.27236e-06
-2.11731e-07
-5.66189e-07
1.30321e-06
-2.11998e-07
-6.73938e-07
1.32178e-06
-2.16584e-07
-7.93739e-07
1.32509e-06
-2.21307e-07
-9.5814e-07
1.3337e-06
-2.11821e-07
-1.25691e-06
1.38449e-06
-1.63618e-07
-1.81975e-06
1.50617e-06
-5.83175e-08
-2.65609e-06
1.55864e-06
1.15534e-07
-3.48241e-06
1.31349e-06
2.46817e-07
-3.88187e-06
1.16046e-06
3.55631e-07
-3.73699e-06
2.75504e-06
3.98937e-07
-2.00597e-06
2.84807e-06
-7.01813e-07
-9.67034e-07
1.50578e-06
-2.02001e-06
-6.6455e-06
3.38588e-06
9.48052e-07
-1.36996e-05
8.39925e-06
2.39192e-06
-1.97853e-05
1.19845e-05
-7.06846e-07
-2.87096e-05
1.46324e-05
-2.95151e-06
-3.89294e-05
1.06529e-05
-6.99202e-07
-4.40242e-05
-3.19516e-07
-1.14827e-07
-4.32213e-05
-7.51132e-06
-2.01189e-06
-3.40128e-05
-1.36681e-05
-6.07964e-06
-2.01464e-05
-2.0142e-05
-7.38022e-06
-7.6277e-06
-2.28585e-05
-5.0551e-06
3.36835e-06
-1.65945e-05
2.60759e-06
-7.6385e-05
1.32643e-05
3.82157e-06
-0.00016251
2.46882e-05
8.01284e-06
-0.000173833
1.2921e-05
1.01838e-05
-0.000182112
6.13525e-06
6.06565e-06
-0.000186635
1.53675e-06
3.29191e-06
-0.000188249
-3.85634e-07
9.9866e-07
-0.000189056
-1.60158e-06
4.99676e-07
-0.000189375
-1.77892e-06
8.34889e-07
-0.000189339
-2.08467e-06
1.00337e-06
-0.000189918
-2.40145e-06
9.38249e-07
-0.000190589
-2.5977e-06
9.25674e-07
-0.000190426
-3.08476e-06
1.02985e-06
-0.000189769
-3.16628e-06
1.00151e-06
-0.000189576
-3.39768e-06
1.13143e-06
-0.000189049
-3.6264e-06
1.34098e-06
-0.000187918
-3.84893e-06
1.51102e-06
-0.000186901
-3.98537e-06
1.64117e-06
-0.000185734
-4.2805e-06
1.67622e-06
-0.000184308
-4.29596e-06
1.7128e-06
-0.00018283
-4.03576e-06
1.79878e-06
-0.000181486
-3.83687e-06
1.96709e-06
-0.000180175
-3.28196e-06
2.19069e-06
-0.000178921
-2.85073e-06
2.41309e-06
-0.000177585
-2.88204e-06
2.53084e-06
-0.000175716
-3.91498e-06
2.54567e-06
-0.000173479
-4.5028e-06
2.32104e-06
-0.000170617
-5.57482e-06
1.31996e-06
-0.000166336
-5.57437e-06
-5.73419e-07
-0.000161901
-3.61871e-06
-2.187e-06
-0.000157756
-9.35504e-07
-3.75516e-06
-0.000154535
2.89821e-06
-4.98463e-06
-0.000151796
6.35881e-06
-5.47404e-06
-0.000148316
9.10742e-06
-5.53038e-06
-0.000140765
9.86375e-06
-5.04373e-06
-0.000116889
6.72951e-06
-3.8055e-06
-5.0316e-05
4.71297e-07
-1.14831e-06
-1.42053e-06
-2.9028e-07
-3.84596e-06
-3.05312e-06
1.49471e-06
-3.43104e-06
-4.6666e-06
-6.95067e-07
-3.33058e-06
-3.67949e-06
-1.96452e-07
-2.01712e-06
-3.96905e-06
-1.35553e-06
-1.01807e-06
-3.50833e-06
-6.13751e-07
-1.79463e-07
-2.31772e-06
-3.11338e-07
7.66702e-08
-1.4657e-07
-1.54454e-07
-1.45718e-08
7.93124e-07
-1.17376e-08
2.44859e-08
9.76443e-07
-2.37895e-07
-6.99948e-08
1.21016e-06
-1.20397e-07
-9.09684e-08
1.3268e-06
-1.51367e-07
-1.28766e-07
1.43285e-06
-1.37744e-07
-1.43849e-07
1.45891e-06
-1.87277e-07
-1.40777e-07
1.31637e-06
-2.6579e-07
-1.34234e-07
1.23319e-06
-3.3914e-07
-1.49032e-07
1.23872e-06
-3.84534e-07
-1.81361e-07
1.29719e-06
-4.18164e-07
-2.24283e-07
1.38996e-06
-4.36192e-07
-2.7163e-07
1.47572e-06
-4.49524e-07
-3.22433e-07
1.5391e-06
-4.61392e-07
-3.69566e-07
1.57968e-06
-4.70124e-07
-4.0215e-07
1.59437e-06
-4.76503e-07
-4.22081e-07
1.60384e-06
-4.79541e-07
-4.31664e-07
1.61087e-06
-4.79599e-07
-4.31272e-07
1.61777e-06
-4.77378e-07
-4.25244e-07
1.6204e-06
-4.73669e-07
-4.16258e-07
1.61496e-06
-4.70826e-07
-4.03743e-07
1.60651e-06
-4.68915e-07
-3.90238e-07
1.60355e-06
-4.66255e-07
-3.83477e-07
1.61567e-06
-4.62048e-07
-3.91675e-07
1.64102e-06
-4.56866e-07
-4.16173e-07
1.66711e-06
-4.52143e-07
-4.58794e-07
1.69535e-06
-4.47485e-07
-5.18399e-07
1.72494e-06
-4.44489e-07
-5.89498e-07
1.75856e-06
-4.45751e-07
-6.70064e-07
1.80204e-06
-4.49073e-07
-7.53893e-07
1.84356e-06
-4.56472e-07
-8.36173e-07
1.87032e-06
-4.66221e-07
-9.3198e-07
1.88936e-06
-4.6841e-07
-1.09412e-06
1.93965e-06
-4.43775e-07
-1.41891e-06
2.07741e-06
-3.6809e-07
-2.04861e-06
2.3523e-06
-2.16406e-07
-2.97204e-06
2.51303e-06
-3.09238e-08
-3.91663e-06
2.15181e-06
1.0629e-07
-3.63955e-06
1.11877e-06
-2.35338e-07
-1.14241e-06
1.199e-06
-9.41058e-07
1.62063e-06
1.54951e-06
-1.46442e-06
1.62713e-06
2.71863e-06
-1.21932e-06
-3.81195e-06
7.80441e-06
1.02057e-06
-1.15561e-05
1.31069e-05
3.03658e-06
-1.77067e-05
1.70501e-05
1.085e-06
-2.38643e-05
2.13505e-05
-5.60436e-07
-3.45202e-05
1.98053e-05
1.50366e-06
-4.29591e-05
8.89575e-06
-7.76287e-07
-4.55827e-05
3.69851e-06
-8.58611e-06
-4.04596e-05
-7.1281e-06
-1.16631e-05
-4.17907e-05
-6.7992e-06
-1.20118e-05
-3.91769e-05
-1.83558e-05
-7.11673e-06
4.13408e-06
-6.63107e-05
1.05857e-06
-6.89602e-05
1.93026e-05
2.79261e-06
-0.000176932
4.09988e-05
1.38711e-05
-0.000179631
1.17774e-05
9.56787e-06
-0.000184848
6.69833e-06
6.01365e-06
-0.000188266
-2.53175e-06
3.90421e-06
-0.000190679
-3.90872e-07
1.74991e-06
-0.000192469
-3.84782e-06
3.75412e-06
-0.000197506
-3.50302e-07
4.59732e-06
-0.000201814
-1.65473e-08
2.96902e-06
-0.000205789
-1.06001e-06
2.52641e-06
-0.000210585
-2.47566e-06
2.12321e-06
-0.00021334
-3.68389e-06
2.15635e-06
-0.000214161
-3.69837e-06
1.95356e-06
-0.00021537
-4.31394e-06
2.08954e-06
-0.00021739
-4.66638e-06
1.99162e-06
-0.000218202
-5.07472e-06
1.96434e-06
-0.000218229
-5.41696e-06
2.06308e-06
-0.00021882
-5.6697e-06
2.11334e-06
-0.000219396
-5.82328e-06
2.20592e-06
-0.000219863
-5.51609e-06
2.36672e-06
-0.000220484
-5.45789e-06
2.66729e-06
-0.000221078
-5.35924e-06
3.47561e-06
-0.000221849
-5.25391e-06
4.52078e-06
-0.000223668
-5.5214e-06
4.94389e-06
-0.000226041
-6.29971e-06
5.12589e-06
-0.000227295
-6.74527e-06
4.81092e-06
-0.000227976
-6.96708e-06
3.89536e-06
-0.000228252
-6.34404e-06
1.52e-06
-0.000226211
-3.9912e-06
-2.29057e-06
-0.000222361
-1.14713e-06
-4.00033e-06
-0.000216941
2.58367e-06
-5.93393e-06
-0.000210098
5.00076e-06
-6.33786e-06
-0.000202282
6.06763e-06
-6.50653e-06
-0.000191309
4.47325e-06
-5.23775e-06
-0.000167987
-2.28876e-06
-2.72523e-06
-0.000109041
-7.74168e-06
2.14185e-06
-7.13043e-06
5.53933e-06
-3.4331e-06
-1.98881e-06
2.47608e-06
-3.66372e-06
-4.32239e-06
-1.13598e-07
-4.03197e-06
-3.50516e-06
1.93901e-07
-2.78592e-06
-4.06574e-06
-1.14938e-06
-1.56068e-06
-3.90242e-06
-8.3116e-07
-2.79838e-07
-2.9534e-06
-6.45174e-07
1.20784e-07
-6.83745e-07
1.36561e-07
1.60545e-08
4.94569e-07
4.03294e-07
1.62494e-08
8.91087e-07
8.51809e-08
-9.42804e-08
1.09315e-06
2.27556e-07
-4.12094e-08