/*--------------------------------*- C++ -*----------------------------------*\
| =========                 |                                                 |
| \\      /  F ield         | OpenFOAM: The Open Source CFD Toolbox           |
|  \\    /   O peration     | Version:  2.3.0                                 |
|   \\  /    A nd           | Web:      www.OpenFOAM.org                      |
|    \\/     M anipulation  |                                                 |
\*---------------------------------------------------------------------------*/
FoamFile
{
    version     2.0;
    format      ascii;
    class       volVectorField;
    location    "46";
    object      U.air;
}
// * * * * * * * * * * * * * * * * * * * * * * * * * * * * * * * * * * * * * //

dimensions      [0 1 -1 0 0 0 0];

internalField   nonuniform List<vector> 
6144
(
(0.0112054 0.020502 0.000227929)
(0.0115514 -0.0042529 -0.0011166)
(0.00399798 -0.00542872 -0.00245748)
(0.00336639 -0.00451979 -0.00246332)
(0.00213445 -0.0029423 -0.00189208)
(0.00309084 -0.000463426 -0.00146651)
(0.00314618 -0.00077179 -0.00118827)
(0.00279658 -3.07234e-06 -0.000961771)
(0.00216161 -9.62479e-05 -0.000621859)
(0.00161458 0.00125135 -0.000122677)
(0.00125624 0.0024112 0.000355438)
(0.00124613 0.00350037 0.000965994)
(0.00135523 0.0037062 0.00131661)
(0.00146533 0.00333454 0.00176061)
(0.00153192 0.00257287 0.00179496)
(0.001637 0.00179558 0.00172548)
(0.00172254 0.000964783 0.00148665)
(0.00181045 0.000294537 0.00122656)
(0.00188828 -0.00025041 0.000955277)
(0.0019482 -0.000598188 0.000712956)
(0.00198719 -0.00078722 0.000501944)
(0.00202216 -0.000807886 0.00032504)
(0.00203512 -0.000737828 0.00023895)
(0.00202546 -0.000617523 0.000235523)
(0.00199397 -0.000480185 0.000301037)
(0.00194784 -0.000346792 0.000419205)
(0.00189927 -0.000241589 0.000558501)
(0.00185447 -0.000184429 0.00069557)
(0.00180665 -0.000175483 0.00082331)
(0.00175635 -0.0001891 0.000931016)
(0.00170644 -0.000205583 0.00102756)
(0.00165952 -0.000228435 0.00112397)
(0.00161533 -0.000268018 0.00122796)
(0.00157466 -0.000340545 0.00134658)
(0.00154232 -0.000476114 0.00148419)
(0.0015289 -0.000721282 0.00163414)
(0.00154536 -0.00114016 0.0017626)
(0.00160708 -0.00173927 0.00176574)
(0.00171534 -0.00246149 0.00156476)
(0.00185913 -0.00316786 0.00110842)
(0.0020043 -0.00373126 0.000427095)
(0.00209332 -0.00392911 -0.000183392)
(0.00231359 -0.00399353 -0.000465057)
(0.00358457 -0.00502748 -0.000720752)
(0.0071895 -0.00816712 -0.00223513)
(0.0103367 -0.0121282 -0.00358858)
(0.00612001 -0.0107978 -0.00193496)
(-0.0140187 0.0020076 0.00112134)
(-0.0224325 0.0325381 -0.00283506)
(-0.000603466 0.0367878 -0.0121891)
(0.0440708 0.00151957 -0.0172703)
(0.0328282 -0.0356169 -0.0145987)
(0.0191773 -0.0540002 -0.0101102)
(-0.014264 -0.077379 -0.0058376)
(-0.024181 -0.047519 0.00496522)
(-0.0327423 -0.0614038 0.00892173)
(-0.0490344 0.0231357 0.0193694)
(0.0315421 -0.0331259 0.0522024)
(-0.0507689 -0.039879 -0.0254472)
(0.0563804 0.165409 0.0144795)
(0.15552 0.282955 0.00707681)
(0.0557477 0.34645 -0.019991)
(0.0642232 -0.174937 -0.00366846)
(0.0607413 -0.209214 0.00754706)
(0.0571283 -0.202868 0.0151877)
(0.0552358 -0.20455 0.0221909)
(0.0496484 -0.212244 0.0240918)
(0.0488407 -0.223069 0.0252295)
(0.0419986 -0.233652 0.0215758)
(0.0368473 -0.239855 0.0190265)
(0.0407016 -0.24667 0.0109687)
(0.0392825 -0.243674 0.00060429)
(0.0332459 -0.237343 -0.00744709)
(0.0255407 -0.236027 -0.00866864)
(0.0254623 -0.22882 -0.00780449)
(0.0233444 -0.216892 0.000137828)
(0.0139156 -0.198235 0.00288408)
(0.0062854 -0.164335 -0.0133098)
(-0.0274183 -0.105766 -0.00630087)
(-0.0304109 -0.0318316 0.00167565)
(-0.0130228 0.0229889 0.0181305)
(-0.00847741 0.0558435 0.0335827)
(-0.00752914 0.0733826 0.0380326)
(-0.00563129 0.0682559 0.0334616)
(-0.00473863 0.0524555 0.0210801)
(-0.000111324 0.0394382 0.00516349)
(0.000993873 0.0362902 -0.00290479)
(-0.000532927 0.0486905 -0.00814794)
(0.00230338 0.0598063 -0.00574101)
(0.00165454 0.07019 -0.000466801)
(0.0020802 0.0739843 0.00440189)
(0.00230556 0.0710574 0.00960483)
(0.00396562 0.0609345 0.00809144)
(0.00581542 0.047414 0.00850181)
(0.00291397 0.0279375 0.00873176)
(0.00358227 0.0139957 0.00860741)
(0.0210815 0.0195495 0.00380881)
(0.0229171 0.00368586 0.00300983)
(0.010165 -0.000810567 -0.00105853)
(0.00887663 -0.00136582 -0.000296436)
(0.00459438 -0.00382936 0.00111438)
(0.00502594 -0.00148179 0.00158853)
(0.00465745 -0.00131046 0.00234098)
(0.00414363 0.000304947 0.00260372)
(0.00299568 0.000529889 0.00280794)
(0.0019844 0.00233298 0.00285641)
(0.00159244 0.00348088 0.00308976)
(0.00182892 0.00447684 0.00371466)
(0.00226372 0.00456495 0.00402368)
(0.00270202 0.00426094 0.00429781)
(0.00287904 0.00346782 0.00435027)
(0.00307724 0.00268665 0.00434465)
(0.00317911 0.00177657 0.00426487)
(0.00327298 0.00102742 0.00417675)
(0.00334204 0.00037764 0.00409291)
(0.00338078 -8.13205e-05 0.00403526)
(0.00338155 -0.000388981 0.00400413)
(0.00339371 -0.000517088 0.00393111)
(0.00337602 -0.000544028 0.00391526)
(0.00332422 -0.000502186 0.00395243)
(0.00323638 -0.000423482 0.00403408)
(0.00313012 -0.000326634 0.00414538)
(0.00303342 -0.000232472 0.00424976)
(0.00295635 -0.000163596 0.00432674)
(0.00287561 -0.000131818 0.00440713)
(0.00278531 -0.000120737 0.0044836)
(0.00269661 -0.000121221 0.00455449)
(0.00261845 -0.000138232 0.00462146)
(0.00255269 -0.000180078 0.00468547)
(0.00250843 -0.000256477 0.00474822)
(0.00250467 -0.000383408 0.00481101)
(0.00257493 -0.000587399 0.00487119)
(0.00273509 -0.000900795 0.00491209)
(0.00297424 -0.00132563 0.00490615)
(0.00326028 -0.00183541 0.00481718)
(0.00355513 -0.00232168 0.0046131)
(0.00384833 -0.0027709 0.00422915)
(0.00434468 -0.00329555 0.00375001)
(0.00567583 -0.00487988 0.00347731)
(0.00858784 -0.00812556 0.00255228)
(0.0134424 -0.0104716 -0.00132585)
(0.00975 -0.0024824 -0.00493058)
(-0.00998983 0.0214036 -0.00460492)
(-0.0171029 0.0314571 -0.00382256)
(0.00243532 0.0397603 -0.00725363)
(0.071328 0.000558821 -0.0126381)
(0.0919394 -0.0177975 -0.0212238)
(0.0799875 -0.0235709 -0.0158821)
(0.0502124 -0.0298991 -0.00646935)
(0.0261543 -0.0495259 -0.00590284)
(-0.0221355 -0.0351642 -0.00223764)
(-0.0193937 -0.0856768 -0.00356249)
(-0.03795 -0.0103642 0.0108709)
(0.00763593 -0.149213 0.0601696)
(-0.136028 0.0513801 -0.0470164)
(0.0598844 0.0301876 0.0206707)
(0.152523 0.365702 0.0449631)
(8.1662e-05 0.436299 -0.00837799)
(0.0012701 -0.0982724 0.00937572)
(-0.0221608 -0.0570348 0.0160156)
(-0.0418485 -0.0762782 0.0207689)
(-0.0537137 -0.0974571 0.0409752)
(-0.0551638 -0.110015 0.0458424)
(-0.0574899 -0.121679 0.037986)
(-0.0536887 -0.125799 0.0266706)
(-0.0514111 -0.129292 0.00331902)
(-0.0552583 -0.102258 -0.0264154)
(-0.0249326 -0.0406667 -0.0241034)
(-0.00362862 -0.0244673 0.00581634)
(-0.00492971 -0.0236554 0.0202812)
(-0.00819346 -0.0193383 0.0290242)
(-0.0181442 -0.0232582 0.0330068)
(-0.0257448 -0.0272188 0.0327924)
(-0.0259594 -0.0203644 0.0358524)
(-0.0283993 -0.0216749 0.0204337)
(-0.0302173 0.00235317 -0.00462942)
(-0.0196439 0.0312574 -0.00040195)
(-0.0147561 0.0598181 0.0157083)
(-0.0157542 0.0723553 0.0274665)
(-0.0254163 0.0654627 0.0319773)
(-0.0230098 0.052176 0.0221941)
(-0.0138036 0.0421425 0.0124644)
(-0.0075954 0.0465472 0.000531785)
(0.00230058 0.0556422 -0.00376438)
(0.00780789 0.0677634 -0.00296143)
(0.0104541 0.0767708 -0.00162371)
(0.0107604 0.0809205 0.000476054)
(0.0114479 0.0797933 0.00653749)
(0.0116083 0.0673946 0.008307)
(0.0115081 0.0508549 0.010767)
(0.00820595 0.0351713 0.00829847)
(0.00643039 0.0121421 0.00848833)
(0.0239333 0.0186007 0.00495603)
(0.0265673 0.00932727 0.00509601)
(0.0151921 0.00286193 0.00167298)
(0.0121473 0.00248448 0.00258838)
(0.00481762 -0.0023697 0.00384609)
(0.00391611 -3.95463e-05 0.00373174)
(0.00260938 -0.000515129 0.00433793)
(0.00211786 0.00149973 0.00420429)
(0.000975133 0.001553 0.00423299)
(0.000279541 0.00279623 0.00429475)
(-7.4177e-05 0.00316263 0.00435559)
(0.000450387 0.00389135 0.00464363)
(0.000921204 0.00389801 0.00488379)
(0.00147838 0.0039352 0.00507509)
(0.00174722 0.00351514 0.00509525)
(0.00204121 0.00312563 0.00507457)
(0.00220662 0.00251455 0.00501)
(0.00233541 0.00197239 0.00494916)
(0.00240801 0.00143297 0.00489486)
(0.00244472 0.00100529 0.0048726)
(0.00242827 0.000634751 0.00487716)
(0.00235408 0.000358416 0.00491324)
(0.00226257 0.000169046 0.004965)
(0.00215407 5.67814e-05 0.00502308)
(0.00202561 -1.16091e-07 0.00508444)
(0.00189053 -1.79509e-05 0.00514623)
(0.00175916 -1.29245e-05 0.00521107)
(0.00163093 9.16806e-06 0.00528204)
(0.00150548 3.58281e-05 0.00535717)
(0.00137327 5.27956e-05 0.00543357)
(0.0012458 5.22795e-05 0.0055056)
(0.00113674 2.8121e-05 0.00557206)
(0.00104777 -1.80764e-05 0.00563216)
(0.000987131 -8.40374e-05 0.00568454)
(0.00098009 -0.000156602 0.00572924)
(0.00106695 -0.000211226 0.00576203)
(0.00128294 -0.000218924 0.00577507)
(0.00161982 -0.000162687 0.00576544)
(0.00204179 -6.61765e-05 0.00573095)
(0.00254534 5.20244e-05 0.00570806)
(0.00314973 5.03697e-05 0.0057725)
(0.00422927 -0.000213677 0.00607216)
(0.00635327 -0.00122949 0.00649839)
(0.00941021 -0.00168868 0.00547864)
(0.0105483 0.00364794 -0.00091432)
(-0.0012995 0.0244374 -0.00693102)
(-0.0150001 0.0423581 -0.00466011)
(-0.0139689 0.0461339 -0.000996141)
(0.03359 0.0324119 0.00278309)
(0.088301 -0.000104141 -0.0105814)
(0.110263 0.0370013 -0.022392)
(0.0899428 0.078977 -0.010137)
(0.0444075 0.0775512 -0.00411379)
(-0.0037914 0.0635733 0.0121371)
(-0.013831 0.0599821 0.0281023)
(-0.0339096 -0.0726239 0.000836469)
(-0.102477 0.0221242 0.0107891)
(-0.019629 -0.197168 0.036966)
(-0.16515 0.0914819 -0.03213)
(0.0619041 0.0202826 0.0383504)
(0.243695 0.29883 0.0588575)
(0.0934589 0.176007 0.00134222)
(0.127572 -0.0297614 0.0332165)
(0.0273144 0.0475474 0.0102836)
(0.00620424 -0.042287 0.0177028)
(-0.0164187 -0.0730479 0.0256189)
(-0.0281193 -0.0965623 0.0213919)
(-0.0309901 -0.108803 0.0110869)
(-0.0235382 -0.111339 0.000246021)
(-0.0247538 -0.10811 -0.0192662)
(-0.0257352 -0.0820851 -0.0334587)
(0.00903847 -0.0487291 -0.0137417)
(0.028971 -0.0193604 0.0196231)
(0.0278891 -0.0166043 0.0318007)
(0.024003 -0.0125813 0.0252659)
(0.0130938 -0.0102005 0.013707)
(0.00187181 -0.00294347 0.0138348)
(-0.0138792 0.00529638 0.0267341)
(-0.0410088 0.0193776 0.0242472)
(-0.0341183 0.0402726 0.00024984)
(-0.0200054 0.0636286 -0.00795551)
(-0.0172868 0.0808176 -0.00395411)
(-0.0245979 0.0826797 0.0160623)
(-0.0362549 0.0670719 0.0210446)
(-0.0364977 0.0502879 0.0155091)
(-0.0250517 0.0393378 0.0036521)
(-0.0103939 0.0400138 -0.00638518)
(0.00514839 0.0485321 -0.00891909)
(0.0171059 0.0621533 -0.00492851)
(0.024955 0.0732742 0.00125739)
(0.0271198 0.0790908 0.00648607)
(0.0283473 0.0792346 0.0121333)
(0.0309893 0.0650043 0.01411)
(0.0295798 0.0489013 0.0141968)
(0.0256259 0.0297125 0.0085368)
(0.0252599 0.0148775 0.00302192)
(0.0246453 0.0182485 0.00508258)
(0.0283385 0.0135861 0.0050405)
(0.0180224 0.00543544 0.000873132)
(0.0148939 0.00615916 0.00124847)
(0.00596804 -0.000456195 0.00310606)
(0.0030857 0.00150293 0.0033937)
(0.00100872 -0.000132144 0.00441786)
(0.000353322 0.00166389 0.00430946)
(-0.000726324 0.00119573 0.00439517)
(-0.00124447 0.00220418 0.00445296)
(-0.00149217 0.00220253 0.00459595)
(-0.00102383 0.00288015 0.00495073)
(-0.00062931 0.00313029 0.00517288)
(-3.95447e-05 0.00347273 0.0053259)
(0.000293136 0.00332638 0.00531556)
(0.00062424 0.00319454 0.00530923)
(0.000819062 0.00277983 0.00527527)
(0.000947397 0.00237762 0.00525779)
(0.00099312 0.00192046 0.0052289)
(0.00100829 0.00152751 0.00521259)
(0.000962781 0.00115948 0.00520745)
(0.000873892 0.000843321 0.00521697)
(0.000753116 0.000574353 0.00524186)
(0.000610982 0.000372741 0.0052718)
(0.000458885 0.000238294 0.00530484)
(0.000306791 0.000164264 0.00534427)
(0.00016912 0.000135383 0.00538587)
(4.84969e-05 0.000133159 0.0054314)
(-6.16061e-05 0.000142997 0.00548531)
(-0.000169742 0.000154242 0.00554744)
(-0.000265736 0.000163466 0.00561011)
(-0.000339373 0.00016833 0.0056665)
(-0.000390295 0.000167093 0.00570972)
(-0.000412182 0.000167663 0.00573306)
(-0.000394256 0.000193948 0.00572994)
(-0.000315387 0.000285933 0.0056977)
(-0.000147961 0.000497201 0.0056394)
(0.000124937 0.000842898 0.00558297)
(0.00049847 0.0012736 0.00557484)
(0.000988935 0.00172099 0.00568896)
(0.00170119 0.00206639 0.00600924)
(0.00291612 0.00224801 0.0065915)
(0.00465907 0.00226981 0.00717314)
(0.00567802 0.00432012 0.00604847)
(0.00395846 0.0113036 -0.000684945)
(-0.00733638 0.0320536 -0.0061531)
(-0.0144955 0.0443876 -0.00240367)
(-0.00196626 0.0468261 0.00618508)
(0.0467437 0.026913 0.00436507)
(0.0740773 0.036812 -0.0150183)
(0.0827618 0.127891 -0.0184371)
(0.0892595 0.17117 -0.0254843)
(0.0803184 0.189275 -0.0287909)
(0.0580184 0.177447 0.0123541)
(0.0492891 0.111902 0.0487948)
(0.0398911 0.0812646 0.0671778)
(0.0479891 0.16019 0.106057)
(0.0351056 -0.205934 0.106471)
(-0.304741 0.274491 -0.0467232)
(0.0637424 -0.0575063 0.0444013)
(0.197185 0.370237 0.0645409)
(0.0657209 0.191191 -0.00763715)
(0.0633083 0.395837 0.012334)
(0.0195008 0.154251 0.0136019)
(0.0164344 0.107991 0.0123402)
(-0.00702422 0.0710705 0.00152466)
(-0.01262 0.057909 -0.0128432)
(-0.0157956 0.054834 -0.0203179)
(-0.0160863 0.0584198 -0.0227249)
(-0.015408 0.0626962 -0.0174931)
(-0.0127292 0.0656421 -0.00478888)
(-0.00876248 0.0616111 0.0078372)
(-0.00609598 0.0588326 0.0155179)
(-0.0155345 0.0497106 0.0184868)
(-0.0256957 0.0463719 0.00923805)
(-0.0342446 0.0534836 7.88653e-05)
(-0.0401845 0.0617701 0.00039873)
(-0.0436369 0.0736961 -0.00796248)
(-0.0376906 0.0795699 -0.0167196)
(-0.0216164 0.0868319 -0.0188603)
(-0.0153488 0.0916286 -0.0179899)
(-0.0173896 0.094373 -0.00427044)
(-0.0279514 0.0854045 0.00514454)
(-0.0382248 0.0686874 0.00638624)
(-0.0355088 0.0477569 0.00319179)
(-0.0232146 0.0330652 -0.00513103)
(-0.00916449 0.0275371 -0.0104889)
(0.00587338 0.0350486 -0.00976106)
(0.0170016 0.043177 -0.00210937)
(0.0257522 0.0522564 0.00976988)
(0.0281677 0.0564627 0.0211501)
(0.0273747 0.0585147 0.0265687)
(0.0251296 0.0492119 0.0292602)
(0.0245495 0.0393804 0.0269172)
(0.025915 0.0226538 0.014155)
(0.0301186 0.012544 0.00254555)
(0.0246129 0.0187665 0.00465733)
(0.0295223 0.0173584 0.00497784)
(0.0207695 0.00858172 0.00052315)
(0.0191732 0.00977696 6.31283e-05)
(0.00850631 0.00122685 0.000208937)
(0.00342401 0.00292974 0.00123458)
(-9.74774e-05 -0.000489709 0.00350249)
(-0.00118845 0.00168952 0.00364471)
(-0.00231254 0.000619788 0.00390087)
(-0.00287181 0.00149649 0.00421208)
(-0.00344654 0.00125192 0.00446795)
(-0.00334118 0.00202177 0.00490251)
(-0.00310556 0.0024779 0.0050768)
(-0.00244221 0.00306921 0.00521891)
(-0.00201637 0.00310344 0.00516426)
(-0.00165276 0.00306453 0.00517248)
(-0.00144537 0.00273174 0.00517586)
(-0.00139014 0.00242602 0.00520638)
(-0.00142565 0.0020632 0.00520091)
(-0.00148118 0.00173729 0.00517792)
(-0.00156549 0.00140312 0.00513877)
(-0.00166988 0.00108297 0.00509923)
(-0.00179135 0.000785835 0.00506559)
(-0.00192712 0.000542654 0.00504322)
(-0.00207767 0.000356878 0.00503067)
(-0.00222249 0.000229572 0.00502466)
(-0.00234294 0.000151848 0.00502878)
(-0.00243867 0.000108811 0.00504302)
(-0.00252586 9.48712e-05 0.00506072)
(-0.00261651 0.000107676 0.00508157)
(-0.00269996 0.000139914 0.00510186)
(-0.00276041 0.00018334 0.00511404)
(-0.00279945 0.000238353 0.00511232)
(-0.00281649 0.000319996 0.0050897)
(-0.0028035 0.000456748 0.00504431)
(-0.00275037 0.000689129 0.00497507)
(-0.0026227 0.00106171 0.0048834)
(-0.00237855 0.00159128 0.00481077)
(-0.0020017 0.00224399 0.00482972)
(-0.00149101 0.0029456 0.00503219)
(-0.000776973 0.00359745 0.0054644)
(0.000266982 0.00435965 0.00606698)
(0.00133993 0.00554673 0.00633544)
(0.00124733 0.00898425 0.00485836)
(-0.00218694 0.0147791 -0.000687326)
(-0.0118833 0.0317932 -0.00352112)
(-0.0150385 0.0407785 0.00145645)
(-0.00310549 0.0372334 0.0122277)
(0.0209009 0.0159085 0.0057497)
(0.0233857 0.0527046 -0.0138024)
(0.04476 0.14593 -0.00564782)
(0.0720946 0.197063 -0.0228364)
(0.0404936 0.250161 -0.024013)
(0.0187107 0.264183 -0.00338536)
(-0.00702846 0.271494 -0.0127596)
(-0.0495793 0.285158 -0.0211821)
(-0.0847016 0.267559 -0.00303545)
(-0.105312 0.213942 -0.000327696)
(-0.198699 0.462106 -0.0470055)
(0.0755393 -0.115607 0.0484584)
(0.120573 0.603534 0.0520716)
(0.0518823 0.70778 -0.00194325)
(0.0542048 0.696139 0.00250315)
(0.0278876 0.729634 0.00398534)
(0.0220609 0.732973 0.00494611)
(0.0103395 0.72758 -0.00180437)
(0.00675232 0.71849 -0.00564811)
(0.000473463 0.709476 -0.00929154)
(0.00130287 0.692912 -0.00971862)
(-0.00150104 0.642311 -0.00942742)
(0.000393675 0.469646 -0.00999238)
(0.00248347 0.199619 -0.00894393)
(0.00035511 0.251338 -0.00662524)
(-0.00287694 0.163848 -0.00626349)
(-0.00593869 0.139069 -0.00920166)
(-0.00760626 0.133455 -0.00724417)
(-0.00921963 0.127996 -0.00870059)
(-0.00788973 0.120951 -0.00631987)
(-0.0056935 0.111852 -0.00385319)
(-0.00133876 0.107058 -0.00214624)
(-0.00199323 0.100882 -0.00179602)
(-0.00835865 0.0965525 -0.000271225)
(-0.0164484 0.082938 0.00259641)
(-0.0186957 0.0677564 0.00158485)
(-0.0142344 0.048946 -0.00102932)
(-0.00415373 0.0375736 -0.00515704)
(0.0066173 0.0357259 -0.0054264)
(0.0138332 0.0364883 0.00387308)
(0.0178429 0.036452 0.00736376)
(0.0231879 0.0395397 0.0134929)
(0.025422 0.0403674 0.0213926)
(0.0198251 0.0396301 0.0284583)
(0.00989725 0.0335931 0.0350071)
(0.00280574 0.0273819 0.0370546)
(0.00795978 0.017002 0.0247653)
(0.0223438 0.00248367 0.00302005)
(0.023827 0.0188461 0.00396413)
(0.0306075 0.0218653 0.00558399)
(0.022791 0.0121189 0.00143861)
(0.023485 0.0131773 0.00138662)
(0.0135245 0.00266059 -0.00193575)
(0.00601813 0.00397063 -0.00152624)
(-0.000249488 -0.00123443 0.00148405)
(-0.00257295 0.00152012 0.00205791)
(-0.00335068 -0.000162263 0.00268303)
(-0.0041947 0.000867235 0.00330832)
(-0.00475357 0.000398593 0.00369073)
(-0.00473938 0.00136537 0.00428319)
(-0.00447426 0.00205885 0.00449276)
(-0.00358765 0.00287691 0.00479398)
(-0.00286024 0.00289542 0.00490764)
(-0.00235155 0.00276448 0.00510649)
(-0.0021308 0.00238246 0.00522719)
(-0.00215279 0.00209318 0.00531146)
(-0.00226021 0.00184165 0.00530916)
(-0.00236273 0.00165298 0.00525488)
(-0.00247949 0.00146112 0.00515136)
(-0.00260424 0.00126234 0.00501841)
(-0.00275895 0.00104952 0.00488116)
(-0.00291987 0.00085193 0.00475191)
(-0.0030693 0.0006893 0.00463635)
(-0.00319656 0.000573953 0.00453214)
(-0.00329182 0.000491259 0.00444)
(-0.00336377 0.00043108 0.00436571)
(-0.00343563 0.000391424 0.00431206)
(-0.00350665 0.000380659 0.00428205)
(-0.00356147 0.000408268 0.00426868)
(-0.00358731 0.00047402 0.00425688)
(-0.00359458 0.000578662 0.00423318)
(-0.00359189 0.000729547 0.00418916)
(-0.00359564 0.000949286 0.00411828)
(-0.0036141 0.00127448 0.00401428)
(-0.00362676 0.0017333 0.00387703)
(-0.00360191 0.00232362 0.00373746)
(-0.00349061 0.00301526 0.00367185)
(-0.00324811 0.00380217 0.00379026)
(-0.00280803 0.00473173 0.00412268)
(-0.00221666 0.00629024 0.00451685)
(-0.00181994 0.00889209 0.00424015)
(-0.00181604 0.0133196 0.00289692)
(-0.00498014 0.0168081 0.000347997)
(-0.0159693 0.0257342 0.00033132)
(-0.0173127 0.0325479 0.00584465)
(-0.00231325 0.0204553 0.012756)
(0.0174627 0.00183006 0.00550204)
(-0.00845408 0.0365082 -0.00506682)
(-0.00398902 0.0853599 0.0355891)
(0.0314347 0.132901 0.0442985)
(0.0420979 0.196822 0.0315245)
(0.0461682 0.215803 0.028968)
(0.0576998 0.214814 0.033362)
(0.058054 0.18543 0.0430935)
(0.0326985 0.213763 0.0662857)
(0.0868694 -0.162001 0.0711238)
(0.0508908 0.199577 -0.0148765)
(0.0375338 -0.0257491 0.0625874)
(0.0368093 0.625814 0.0546205)
(-0.0172585 0.7331 0.00281146)
(0.00866498 0.751356 0.0107514)
(0.000421895 0.784756 0.0145807)
(0.00797482 0.794875 0.0184934)
(0.00795505 0.795683 0.0191453)
(0.00879596 0.787052 0.0184322)
(0.00833977 0.782656 0.018478)
(0.00866313 0.775619 0.0185828)
(0.00845076 0.769286 0.0194059)
(0.00882602 0.759673 0.0185542)
(0.00858343 0.749014 0.0184428)
(0.0083293 0.740225 0.0162112)
(0.00625848 0.728546 0.0159965)
(0.00671064 0.719822 0.0149032)
(0.00336872 0.708002 0.0138938)
(0.00304033 0.696771 0.0127051)
(0.000729627 0.685456 0.0121985)
(-0.00162826 0.671754 0.0107831)
(-0.00259899 0.662111 0.0117152)
(-0.00597105 0.648454 0.0119575)
(-0.00743075 0.637205 0.0138281)
(-0.00925919 0.619535 0.0150144)
(-0.00686106 0.607045 0.0174397)
(-0.0029795 0.590194 0.016085)
(0.00455604 0.580953 0.0130366)
(0.00824767 0.562581 0.0139262)
(0.0113786 0.520823 0.0164468)
(0.0146302 0.364804 0.0191827)
(0.017667 0.0547505 0.0226785)
(0.0167239 0.0334384 0.0310683)
(0.00840043 0.0316266 0.0371886)
(-0.00542889 0.0280814 0.0440442)
(-0.0162651 0.0261827 0.0449401)
(-0.00372198 0.0149428 0.0330138)
(0.00665414 0.000518709 -0.00366601)
(0.022119 0.0179195 0.00380112)
(0.0314861 0.0264336 0.00761528)
(0.0237555 0.0151477 0.00396437)
(0.0246205 0.0161567 0.00427618)
(0.0180048 0.00363496 -0.00101586)
(0.00940354 0.00442119 -0.00273981)
(0.000458561 -0.0019812 -0.000306326)
(-0.00332184 0.00176327 0.000450629)
(-0.00441701 -0.00054549 0.0013696)
(-0.00538286 0.000633567 0.00229418)
(-0.00642521 -1.60344e-05 0.00267944)
(-0.00713016 0.00106152 0.00345987)
(-0.00715159 0.0015997 0.00390041)
(-0.00598461 0.00239479 0.00468696)
(-0.00501831 0.00225398 0.00522147)
(-0.00455151 0.00213354 0.00572265)
(-0.00448935 0.00179435 0.00597566)
(-0.00477779 0.0016147 0.00606278)
(-0.00511457 0.00151972 0.00600045)
(-0.00535371 0.00151491 0.00586993)
(-0.00552409 0.00152124 0.0056739)
(-0.00562535 0.00152254 0.00543806)
(-0.00571016 0.00149153 0.00519868)
(-0.00579137 0.00144096 0.00497989)
(-0.00590166 0.00138914 0.004798)
(-0.00597609 0.00135685 0.0046445)
(-0.00598865 0.00132166 0.00451517)
(-0.00596618 0.00127012 0.00443254)
(-0.00595057 0.00120805 0.00439485)
(-0.00596523 0.00116374 0.00439807)
(-0.00599636 0.00116681 0.00442761)
(-0.00601516 0.00122708 0.00446261)
(-0.00602656 0.0013513 0.00448786)
(-0.0060375 0.00154492 0.00449466)
(-0.00607895 0.00180532 0.00446341)
(-0.00616381 0.00215031 0.00438124)
(-0.00623791 0.00258944 0.0042441)
(-0.00624058 0.00309773 0.00406601)
(-0.00615952 0.00364808 0.00388947)
(-0.00607662 0.00428498 0.00372322)
(-0.00611056 0.00525101 0.00355857)
(-0.00632162 0.00721559 0.00336582)
(-0.00626906 0.0108479 0.00255107)
(-0.00536261 0.0156113 0.00185827)
(-0.00640898 0.0178898 0.00125343)
(-0.0169637 0.0185066 0.00407251)
(-0.0194454 0.017279 0.00932079)
(-0.00117116 -0.00195241 0.0101047)
(-0.00348255 0.0123184 0.00268738)
(-0.027499 0.0549582 0.0178495)
(-0.036297 0.0724003 0.0509695)
(-0.0476464 0.108584 0.048071)
(-0.0334166 0.160886 0.0454269)
(0.0104528 0.200178 0.045393)
(0.0409696 0.203233 0.0498719)
(0.0669887 0.169835 0.0653274)
(0.0946241 0.178884 0.0713297)
(0.0729855 -0.0442325 0.0742593)
(-0.0612163 0.278548 0.120969)
(-0.0363379 -0.0321689 0.0182907)
(-0.054598 0.665037 0.029661)
(-0.0521732 0.747181 -0.00662258)
(-0.0148653 0.773775 0.00854887)
(-0.00602291 0.803554 0.0134545)
(0.00587238 0.805871 0.0198239)
(0.00988637 0.807369 0.0225037)
(0.0103307 0.804474 0.0236912)
(0.00819237 0.805199 0.0256872)
(0.00798435 0.800277 0.0273371)
(0.00955049 0.796768 0.0298321)
(0.0109278 0.793497 0.030656)
(0.0116177 0.790564 0.0318082)
(0.0120992 0.786728 0.0311617)
(0.0121322 0.780833 0.0314172)
(0.0132629 0.769129 0.030012)
(0.0133772 0.764158 0.0301404)
(0.0145701 0.754815 0.029155)
(0.0144025 0.747061 0.0290837)
(0.0127094 0.736778 0.0270767)
(0.0120759 0.728433 0.0248109)
(0.00864909 0.719237 0.0213126)
(0.006603 0.711033 0.0178375)
(0.00606429 0.702054 0.0144075)
(0.00954334 0.694198 0.0093984)
(0.0113202 0.6814 0.00333328)
(0.0160653 0.670757 4.98543e-06)
(0.015319 0.653497 0.00176909)
(0.00809497 0.631644 0.00675359)
(-0.000347976 0.61331 0.0136947)
(-0.0133752 0.59351 0.0205997)
(-0.0263986 0.58302 0.0273601)
(-0.0386058 0.567867 0.0323261)
(-0.0442036 0.552029 0.0330854)
(-0.0379057 0.507071 0.0230416)
(-0.0106899 0.345398 0.00131279)
(-0.00940977 0.0229065 -0.0166724)
(0.0230375 0.0134502 0.00339082)
(0.031178 0.0292492 0.00915222)
(0.0238287 0.0179092 0.0048109)
(0.025145 0.02017 0.0050284)
(0.0205124 0.00596342 -6.26226e-05)
(0.0123274 0.0051788 -0.00263636)
(8.47133e-05 -0.00265954 -0.0014046)
(-0.00492609 0.00153366 -0.000740234)
(-0.00463947 -0.00128657 0.00119975)
(-0.00619567 0.000922284 0.00194658)
(-0.0068739 -3.22795e-06 0.00241222)
(-0.00732787 0.000943281 0.00355121)
(-0.00713019 0.000601298 0.00436868)
(-0.00567241 0.000961106 0.00560913)
(-0.00464089 0.000654839 0.00652247)
(-0.00422908 0.00079605 0.00739844)
(-0.00423154 0.000846759 0.00791068)
(-0.004546 0.00110121 0.00812582)
(-0.00486481 0.00131302 0.0081136)
(-0.00506474 0.00157715 0.00798869)
(-0.00520887 0.00182811 0.00776572)
(-0.00530241 0.00202624 0.00748147)
(-0.00538079 0.00213742 0.00718986)
(-0.00545136 0.0021938 0.00691248)
(-0.00552236 0.00219251 0.0066633)
(-0.00556282 0.00215424 0.00645515)
(-0.00554378 0.00210019 0.00630435)
(-0.00548779 0.00202879 0.00620567)
(-0.00544214 0.00194188 0.00615682)
(-0.0054423 0.00186297 0.00614802)
(-0.00547555 0.00184981 0.00616528)
(-0.00550777 0.00191147 0.00618312)
(-0.00555532 0.00205545 0.00618269)
(-0.00562473 0.00228208 0.00615447)
(-0.00573318 0.00257141 0.00610353)
(-0.00591038 0.00290761 0.00601446)
(-0.00610947 0.00327555 0.00587178)
(-0.00626423 0.00363577 0.00567346)
(-0.00635412 0.00399006 0.00540952)
(-0.00650254 0.00448847 0.00509981)
(-0.00696959 0.00537699 0.00476116)
(-0.00794509 0.00739568 0.00443092)
(-0.0086441 0.0108096 0.00351368)
(-0.00705081 0.0158772 0.00285452)
(-0.0046089 0.01791 0.0033265)
(-0.00894529 0.0129191 0.00727194)
(-0.00715982 -0.00402392 0.00800668)
(-0.0102294 -0.011007 0.00858713)
(-0.0288798 -0.00116084 0.00721228)
(-0.0470883 0.0370404 0.0200179)
(-0.0652371 0.0596007 0.0385646)
(-0.0798497 0.0803032 0.0279252)
(-0.055608 0.11936 0.0227846)
(0.002736 0.163281 0.0351533)
(0.0399643 0.185005 0.0685855)
(0.0772215 0.164002 0.0735077)
(0.0964942 0.184335 0.0766035)
(0.147147 0.0792693 0.0539066)
(0.262514 0.480067 0.0226186)
(-0.0771535 -0.138716 0.0217573)
(-0.154408 0.626472 -0.0187151)
(-0.0591629 0.692488 -0.0214453)
(-0.0320642 0.674666 -0.00676807)
(-0.000654007 0.695181 -0.00698904)
(0.00273685 0.702094 -0.00659268)
(0.00752307 0.699814 -0.00746163)
(0.00707693 0.705735 -0.00261147)
(0.0145145 0.726453 0.00723068)
(0.0204403 0.727642 0.0143209)
(0.0217286 0.740177 0.0186049)
(0.024229 0.751936 0.0207832)
(0.0237506 0.755726 0.0223754)
(0.0254894 0.74491 0.0242857)
(0.0278122 0.749619 0.0267584)
(0.0283496 0.750852 0.0277516)
(0.0295323 0.744251 0.0292066)
(0.0304145 0.740929 0.0310411)
(0.0306585 0.737641 0.0320792)
(0.0299141 0.73558 0.0322222)
(0.0284458 0.731225 0.0311354)
(0.0269846 0.728848 0.0300239)
(0.0248706 0.726516 0.0274265)
(0.0251911 0.721752 0.0244411)
(0.0279936 0.726655 0.0174644)
(0.0291185 0.733288 0.0160412)
(0.0309571 0.726678 0.0135327)
(0.0311945 0.721536 0.0146935)
(0.0244248 0.718504 0.0207802)
(0.0140424 0.701895 0.0250409)
(0.00130371 0.685271 0.0313707)
(-0.0085705 0.658966 0.0325677)
(-0.0139078 0.63369 0.0344702)
(-0.0128529 0.603806 0.0288279)
(0.00212536 0.561139 0.0117627)
(0.00945994 0.454937 -0.0230242)
(0.00431168 0.197541 -0.0488475)
(0.0164661 0.00923173 0.000602517)
(0.0285846 0.0300304 0.00882922)
(0.022622 0.021138 0.00300185)
(0.0252122 0.0256317 0.00337784)
(0.0231407 0.0104417 0.000230637)
(0.0162485 0.00720224 -0.00208752)
(0.0014431 -0.00331194 -0.00666686)
(-0.00475268 0.00152535 -0.00573199)
(-0.00680939 -0.00163169 -0.00284387)
(-0.00784526 0.00136358 -0.00164659)
(-0.00833669 -9.97371e-05 -0.00100954)
(-0.00875527 0.000506563 0.000372781)
(-0.00888031 -0.000515432 0.00135085)
(-0.00827534 -0.000280791 0.00248438)
(-0.00798908 -0.000424897 0.00333067)
(-0.0080882 1.48774e-05 0.00416587)
(-0.00840948 0.00035222 0.00483616)
(-0.00885095 0.000842442 0.00527501)
(-0.00925594 0.00120959 0.00548229)
(-0.0095594 0.00159313 0.00553786)
(-0.00969678 0.00192866 0.00545964)
(-0.0096233 0.00220553 0.00529854)
(-0.00951609 0.0023932 0.00512066)
(-0.00939487 0.00250704 0.00494983)
(-0.00927338 0.00254747 0.00479025)
(-0.00913879 0.0025323 0.00464765)
(-0.00897461 0.00248805 0.00453573)
(-0.00880481 0.0024315 0.00446023)
(-0.00867029 0.002373 0.00442074)
(-0.00863591 0.00231883 0.00441219)
(-0.00869749 0.00230976 0.0044239)
(-0.00876723 0.0023716 0.00443348)
(-0.00884575 0.00250435 0.00443148)
(-0.00891976 0.00271058 0.00440933)
(-0.00899586 0.00296461 0.00436222)
(-0.00910926 0.00324046 0.00428781)
(-0.00920231 0.00351834 0.00415793)
(-0.00922375 0.00377209 0.003966)
(-0.00926944 0.0040221 0.00370941)
(-0.00958055 0.00438316 0.00339732)
(-0.0104195 0.00499186 0.00305036)
(-0.0120262 0.00638058 0.002719)
(-0.0130208 0.00843907 0.00224611)
(-0.0113853 0.0119203 0.00173683)
(-0.00414588 0.0139354 0.00244474)
(-1.11773e-06 0.00693651 0.0051417)
(-0.00393769 -0.00964465 0.00494536)
(-0.0122821 -0.0162191 0.00252568)
(-0.0366752 -0.0125788 0.00474267)
(-0.0611186 -0.0154336 0.0147576)
(-0.0724163 -0.00161542 0.0310583)
(-0.0947526 0.0029135 0.0270646)
(-0.0988671 0.00798156 0.015579)
(-0.0577641 -0.0200827 0.0197464)
(-0.0266549 0.0250009 0.0423921)
(0.020016 -0.08693 0.0403476)
(0.0194721 0.0522714 0.0337151)
(0.0444709 -0.272801 0.0390204)
(0.285571 0.325726 0.00555492)
(-0.0819913 -0.127555 0.0111296)
(-0.194582 0.566319 -0.00694509)
(-0.0455732 0.627581 0.00541865)
(-0.0185404 0.565584 0.0190677)
(0.026932 0.589332 0.0250291)
(0.00837203 0.543267 0.0243218)
(0.0273885 0.520041 0.00786659)
(-0.00147986 0.490312 -0.00706352)
(-0.0115702 0.486792 -0.0169708)
(-0.0111711 0.504482 -0.0259945)
(-0.00158925 0.543047 -0.0272749)
(0.00783764 0.576267 -0.0226513)
(0.0125777 0.605714 -0.0144536)
(0.0184137 0.616281 -0.00840612)
(0.0215032 0.627638 -0.00243436)
(0.0256696 0.628287 0.00200257)
(0.0283132 0.627246 0.00436549)
(0.0309221 0.620847 0.00738588)
(0.0333265 0.613667 0.0108759)
(0.0327346 0.605397 0.0135396)
(0.0330796 0.598991 0.0135668)
(0.0329662 0.596096 0.0135577)
(0.0327695 0.588816 0.0133545)