/*--------------------------------*- C++ -*----------------------------------*\
| =========                 |                                                 |
| \\      /  F ield         | OpenFOAM: The Open Source CFD Toolbox           |
|  \\    /   O peration     | Version:  2.3.0                                 |
|   \\  /    A nd           | Web:      www.OpenFOAM.org                      |
|    \\/     M anipulation  |                                                 |
\*---------------------------------------------------------------------------*/
FoamFile
{
    version     2.0;
    format      ascii;
    class       volVectorField;
    location    "46";
    object      Ur;
}
// * * * * * * * * * * * * * * * * * * * * * * * * * * * * * * * * * * * * * //

dimensions      [0 1 -1 0 0 0 0];

internalField   nonuniform List<vector> 
6144
(
(-3.46987e-07 0.000345275 -1.00168e-08)
(-5.26191e-07 0.000377114 -6.33328e-08)
(-4.60367e-07 0.000409913 -6.58891e-08)
(-5.67799e-07 0.00043696 -8.49632e-08)
(-6.61601e-07 0.0004727 -1.01314e-07)
(-7.54608e-07 0.000525325 -1.52472e-07)
(-7.71131e-07 0.000583662 -1.68787e-07)
(-7.35792e-07 0.00063337 -1.58475e-07)
(-6.56992e-07 0.000668451 -1.346e-07)
(-5.63748e-07 0.000686749 -1.17473e-07)
(-4.76746e-07 0.000693265 -1.1624e-07)
(-4.02686e-07 0.000695728 -1.0683e-07)
(-3.3658e-07 0.000697505 -9.48124e-08)
(-2.75005e-07 0.000699005 -8.89308e-08)
(-2.18232e-07 0.000700216 -7.61215e-08)
(-1.6984e-07 0.000701141 -6.87086e-08)
(-1.29559e-07 0.000701824 -6.41477e-08)
(-9.60811e-08 0.000702333 -6.2292e-08)
(-6.64494e-08 0.0007027 -6.21842e-08)
(-4.42024e-08 0.000702949 -6.20508e-08)
(-2.41684e-08 0.000703101 -6.1793e-08)
(-9.47529e-09 0.00070316 -6.14547e-08)
(5.28562e-09 0.000703146 -6.00309e-08)
(1.4336e-08 0.000703077 -6.03828e-08)
(2.68959e-08 0.000702974 -5.94176e-08)
(3.24594e-08 0.000702846 -6.14964e-08)
(4.43932e-08 0.000702704 -6.14635e-08)
(4.81519e-08 0.000702549 -6.60603e-08)
(6.19719e-08 0.000702396 -6.7922e-08)
(6.595e-08 0.000702249 -7.59821e-08)
(8.40435e-08 0.000702122 -8.07922e-08)
(9.02812e-08 0.000702018 -9.38412e-08)
(1.15188e-07 0.000701951 -1.03088e-07)
(1.26634e-07 0.00070192 -1.22808e-07)
(1.62912e-07 0.000701942 -1.3731e-07)
(1.85661e-07 0.00070202 -1.64967e-07)
(2.42674e-07 0.000702171 -1.8809e-07)
(2.88578e-07 0.000702387 -2.26536e-07)
(3.79662e-07 0.000702665 -2.55775e-07)
(4.64739e-07 0.000702998 -2.94856e-07)
(5.95459e-07 0.000703304 -3.0154e-07)
(6.97065e-07 0.000705783 -2.78506e-07)
(7.31832e-07 0.000732323 -1.6294e-07)
(3.04138e-07 0.000858679 -1.54919e-08)
(-1.21058e-06 0.00117198 3.98898e-08)
(-1.2768e-06 0.00163113 -1.1331e-07)
(3.55748e-07 0.0021539 8.45812e-08)
(5.19121e-06 0.00267453 -1.58684e-06)
(1.30598e-05 0.00303973 -4.09827e-06)
(9.48564e-06 0.00332122 -2.16001e-05)
(-4.53142e-05 0.00355979 -1.08814e-05)
(-7.19602e-05 0.00362514 1.14964e-05)
(-8.75773e-05 0.00365732 1.72737e-05)
(-5.37269e-05 0.00370231 1.17507e-05)
(-2.41303e-05 0.00380117 1.88159e-05)
(-1.88098e-05 0.00370163 -1.0386e-05)
(-9.87431e-05 0.00371854 -1.40009e-05)
(3.40222e-05 0.00602238 3.4749e-05)
(-0.00157234 0.0229154 -0.000962618)
(0.0151085 0.164778 0.00132306)
(-0.0347638 0.596352 -0.0197881)
(-0.061175 0.479609 -0.0204908)
(-0.000813054 0.021005 -3.26348e-05)
(4.63203e-06 0.00568913 5.33387e-05)
(-2.78558e-05 0.00595931 3.76521e-05)
(-6.58024e-05 0.00594271 4.61455e-05)
(-7.16911e-05 0.0059276 1.17269e-05)
(-5.92203e-05 0.00592461 -1.38866e-05)
(-7.19361e-05 0.00594652 -3.51518e-05)
(-5.87032e-05 0.00596769 -3.70931e-05)
(1.61664e-06 0.00597586 -5.98406e-05)
(-1.80533e-05 0.00597401 -0.000100917)
(-6.46644e-05 0.0059017 -6.74279e-05)
(-4.74926e-05 0.00588885 -1.95007e-05)
(-1.88813e-05 0.00596068 -1.23257e-05)
(-3.34914e-05 0.00603595 2.86727e-05)
(-5.38045e-05 0.00608423 -3.3721e-06)
(-9.77788e-05 0.00613016 -9.03645e-05)
(-0.00010633 0.00618721 -7.35891e-05)
(-1.53479e-05 0.00618623 -4.84531e-05)
(-4.12891e-06 0.00608502 -5.53973e-05)
(-9.53666e-07 0.00580831 -5.26715e-05)
(1.13579e-05 0.00569254 -1.57212e-05)
(1.27101e-05 0.00571541 4.21472e-05)
(6.77187e-07 0.00561879 5.01273e-05)
(-4.52955e-06 0.0054655 4.34673e-05)
(-7.47173e-06 0.00533907 2.61655e-05)
(-7.39924e-06 0.00516735 1.4118e-05)
(-6.8854e-06 0.00494223 2.72656e-06)
(-6.35596e-06 0.00471326 -4.26488e-06)
(-6.44551e-06 0.00449691 -4.46161e-06)
(-8.44043e-06 0.00428555 5.75509e-07)
(-6.81818e-06 0.00404898 1.54351e-07)
(-1.64294e-06 0.00375256 -4.8097e-06)
(3.90339e-07 0.00343384 -6.57898e-06)
(1.47523e-06 0.00320139 -5.15597e-06)
(-5.42985e-07 0.000324834 5.00643e-08)
(-1.00682e-06 0.00037009 4.00427e-09)
(-1.19763e-06 0.00041978 -9.75572e-09)
(-1.587e-06 0.000457197 -8.56127e-08)
(-1.85474e-06 0.000496652 -1.0749e-07)
(-2.00934e-06 0.000542927 -1.14462e-07)
(-2.04674e-06 0.000591652 -1.36902e-07)
(-1.94677e-06 0.000636803 -1.30348e-07)
(-1.7478e-06 0.000669846 -1.12414e-07)
(-1.51045e-06 0.000686846 -9.20181e-08)
(-1.27898e-06 0.000693137 -8.06454e-08)
(-1.05991e-06 0.00069581 -6.8522e-08)
(-8.72948e-07 0.000697715 -4.66734e-08)
(-7.03681e-07 0.000699354 -2.59995e-08)
(-5.4788e-07 0.000700679 -1.31531e-08)
(-4.16976e-07 0.000701647 -8.85628e-09)
(-3.01654e-07 0.000702327 -8.60608e-09)
(-2.04819e-07 0.000702812 -1.09204e-08)
(-1.2307e-07 0.000703147 -1.74006e-08)
(-5.63838e-08 0.000703374 -2.03109e-08)
(-9.94442e-10 0.000703511 -2.63808e-08)
(3.92127e-08 0.000703556 -2.53783e-08)
(7.40091e-08 0.000703535 -2.77146e-08)
(1.008e-07 0.000703467 -2.41047e-08)
(1.27996e-07 0.000703367 -2.71184e-08)
(1.49915e-07 0.00070325 -2.30502e-08)
(1.74803e-07 0.000703118 -2.68548e-08)
(1.95129e-07 0.000702975 -2.1114e-08)
(2.24267e-07 0.000702833 -2.76365e-08)
(2.52407e-07 0.000702705 -2.3438e-08)
(2.95321e-07 0.000702597 -3.51203e-08)
(3.39635e-07 0.000702517 -3.29824e-08)
(4.06434e-07 0.000702473 -5.00164e-08)
(4.78357e-07 0.000702469 -5.011e-08)
(5.82828e-07 0.000702512 -7.30135e-08)
(7.04303e-07 0.000702613 -7.73204e-08)
(8.77419e-07 0.000702781 -1.10112e-07)
(1.08596e-06 0.000703017 -1.21794e-07)
(1.37467e-06 0.000703318 -1.66613e-07)
(1.73567e-06 0.000703685 -1.77807e-07)
(2.20246e-06 0.000703987 -1.93391e-07)
(2.75753e-06 0.000707074 -1.01801e-07)
(3.31208e-06 0.000743679 7.99558e-08)
(3.68206e-06 0.000915195 4.33255e-07)
(3.59166e-06 0.00135019 5.85257e-07)
(2.6107e-06 0.00195361 -1.13093e-07)
(6.69332e-06 0.00241709 -4.82437e-07)
(5.83396e-06 0.00268038 -1.26514e-06)
(1.8582e-05 0.00295709 -6.37817e-06)
(2.24909e-05 0.00338029 -2.18611e-05)
(-2.03317e-05 0.00366088 -1.21952e-05)
(-0.000102538 0.00367018 1.64402e-05)
(-0.000123715 0.00368994 2.89416e-05)
(-9.03304e-05 0.0037521 2.27636e-05)
(-5.17818e-05 0.00383877 2.43975e-05)
(-2.09841e-05 0.00365925 7.56605e-06)
(-0.000171694 0.00413485 -1.63945e-05)
(0.000137454 0.00560596 0.000153787)
(-0.0012218 0.0174705 -0.000220686)
(0.0245698 0.151822 0.00882132)
(-0.0704264 0.601149 -0.0250592)
(-0.0633679 0.321833 -0.00973852)
(-0.000466628 0.0209667 -5.41333e-05)
(-1.82716e-05 0.00600507 2.11037e-05)
(-8.92988e-05 0.00600765 4.1265e-05)
(-7.06717e-05 0.00622121 3.66089e-05)
(-7.19352e-05 0.00653263 8.00661e-06)
(-5.80727e-05 0.00675258 -3.72547e-05)
(-3.94269e-05 0.00675623 -8.31375e-05)
(-2.75793e-05 0.00656578 -0.000121619)
(-2.69347e-05 0.00628089 -0.000101061)
(-2.41468e-05 0.00604068 -5.07919e-05)
(-4.66581e-05 0.00594299 -1.76423e-05)
(-2.23978e-05 0.0059588 -1.31945e-05)
(5.18433e-06 0.00593036 3.82777e-06)
(2.80175e-06 0.00592622 2.42371e-05)
(-1.964e-05 0.0059626 1.10111e-05)
(-4.95924e-05 0.00603031 2.53566e-05)
(-4.8179e-05 0.00620032 4.29363e-05)
(-2.15413e-05 0.00628603 -5.36316e-06)
(-2.17791e-05 0.00609054 -6.15468e-05)
(-5.92641e-06 0.00582988 -9.18694e-05)
(2.32216e-05 0.00579232 -7.02859e-05)
(2.8763e-05 0.00587765 1.36854e-05)
(1.92305e-06 0.00589969 4.00852e-05)
(-2.23393e-05 0.00588765 4.69114e-05)
(-3.05835e-05 0.00575981 2.98746e-05)
(-3.32964e-05 0.00538951 1.13338e-05)
(-2.88435e-05 0.00494242 -2.49128e-06)
(-2.29274e-05 0.00455831 -1.08481e-05)
(-1.86891e-05 0.0042115 -1.41117e-05)
(-1.76931e-05 0.00388225 -1.25799e-05)
(-9.80686e-06 0.00357787 -9.3033e-06)
(2.66873e-06 0.00332541 -8.71696e-06)
(6.5221e-06 0.00317959 -6.57022e-06)
(4.18525e-06 0.00313586 -4.65981e-06)
(-6.54134e-07 0.000310048 1.38182e-07)
(-1.34103e-06 0.000355503 1.73786e-07)
(-1.99122e-06 0.000412334 4.31349e-08)
(-2.55669e-06 0.00045942 -5.12234e-08)
(-2.94032e-06 0.000505651 -7.15992e-08)
(-3.15863e-06 0.00055245 -1.08063e-07)
(-3.18878e-06 0.000596688 -9.22539e-08)
(-3.00399e-06 0.000634848 -8.09139e-08)
(-2.70894e-06 0.000662446 -5.58712e-08)
(-2.35777e-06 0.000679462 -4.37228e-08)
(-2.0024e-06 0.000688622 -3.1971e-08)
(-1.68549e-06 0.000693639 -1.66162e-08)
(-1.3993e-06 0.000696855 -2.42202e-09)
(-1.14589e-06 0.00069906 1.4208e-08)
(-9.23795e-07 0.0007006 2.3637e-08)
(-7.36154e-07 0.000701683 3.07276e-08)
(-5.72908e-07 0.000702417 3.46371e-08)
(-4.32015e-07 0.000702905 3.78535e-08)
(-3.16138e-07 0.000703236 3.87e-08)
(-2.17367e-07 0.000703449 4.07799e-08)
(-1.37317e-07 0.000703568 4.20985e-08)
(-7.31484e-08 0.000703605 4.38609e-08)
(-2.09995e-08 0.000703581 4.518e-08)
(1.96794e-08 0.000703508 4.67613e-08)
(5.7369e-08 0.000703404 4.77655e-08)
(8.85256e-08 0.000703278 4.83109e-08)
(1.25068e-07 0.000703142 4.83e-08)
(1.59492e-07 0.000703002 4.66428e-08)
(2.08187e-07 0.000702869 4.51e-08)
(2.59975e-07 0.000702748 4.17908e-08)
(3.35543e-07 0.000702648 3.79114e-08)
(4.19906e-07 0.000702569 3.11423e-08)
(5.40365e-07 0.000702521 2.30078e-08)
(6.79479e-07 0.000702515 1.131e-08)
(8.72437e-07 0.00070257 -1.90848e-09)
(1.10214e-06 0.000702695 -2.05677e-08)
(1.41588e-06 0.000702901 -4.1482e-08)
(1.79711e-06 0.000703196 -6.51298e-08)
(2.31177e-06 0.000703612 -7.95806e-08)
(2.94633e-06 0.000704165 -8.88648e-08)
(3.79275e-06 0.000704943 -5.64585e-08)
(4.83921e-06 0.000708451 2.10292e-08)
(6.19657e-06 0.000745201 2.42773e-07)
(8.13194e-06 0.000925637 4.09652e-07)
(1.18292e-05 0.00134204 5.84595e-08)
(1.24013e-05 0.00185703 -4.00593e-07)
(1.155e-05 0.00224934 -6.55369e-07)
(9.93813e-06 0.00260863 2.28582e-08)
(3.35048e-05 0.00314701 -1.52307e-05)
(6.78231e-05 0.00362697 -3.32623e-05)
(3.77012e-05 0.00370317 -3.01959e-05)
(-4.378e-05 0.00360612 -9.77115e-06)
(-6.6245e-05 0.00365576 1.38612e-06)
(-4.77766e-05 0.00371335 1.29774e-05)
(3.09243e-06 0.00383259 3.3183e-05)
(-1.3469e-05 0.0036919 -5.64216e-06)
(-0.000444299 0.00461788 -2.28575e-05)
(-4.39845e-05 0.00658709 7.40381e-05)
(-0.000714424 0.0162915 -0.000105207)
(0.0358379 0.159081 0.00597061)
(0.0323566 0.464077 0.00636566)
(0.000135404 0.0338733 -0.000446494)
(0.0015133 0.00644736 0.000955856)
(-5.76297e-05 0.00610595 1.62585e-05)
(-5.6833e-05 0.00619982 0.000615289)
(-5.99285e-05 0.00622214 3.03103e-05)
(-2.98018e-05 0.00623868 -3.9546e-05)
(1.4818e-05 0.00633222 -7.69069e-05)
(4.13331e-05 0.00636011 -8.70013e-05)
(2.35591e-05 0.00633194 -9.10016e-05)
(1.20039e-05 0.00634766 -8.22696e-05)
(1.72412e-05 0.00641311 -4.62683e-05)
(2.11989e-06 0.00648365 -1.81864e-05)
(6.73077e-06 0.00646238 -3.87785e-06)
(1.37958e-05 0.00635446 -5.24256e-06)
(2.27173e-05 0.00620589 -2.35832e-05)
(1.21338e-05 0.00611477 -2.79848e-05)
(4.90345e-06 0.00615841 -2.23526e-05)
(-4.99615e-06 0.00623633 4.14562e-06)
(-3.83697e-05 0.006138 9.01329e-06)
(-2.40452e-05 0.00590554 -1.88356e-05)
(2.02493e-05 0.00581467 -8.96205e-05)
(5.5953e-05 0.0059282 -8.11846e-05)
(4.24338e-05 0.00617017 -8.62724e-06)
(-7.7168e-06 0.00651193 3.02682e-05)
(-4.64307e-05 0.00682171 3.92957e-05)
(-5.08644e-05 0.00680659 2.51847e-05)
(-5.20109e-05 0.00640014 -1.08152e-06)
(-4.55227e-05 0.00591193 -2.23815e-05)
(-3.40679e-05 0.00548674 -3.64808e-05)
(-2.30052e-05 0.00508624 -3.87582e-05)
(-1.64246e-05 0.00471721 -2.21834e-05)
(-6.59396e-06 0.00434446 -2.21082e-05)
(1.18178e-05 0.00393639 -1.34257e-05)
(1.48769e-05 0.00357745 -4.85907e-06)
(1.21259e-05 0.00337229 -4.65657e-06)
(-9.03504e-07 0.000298831 2.00078e-07)
(-1.86788e-06 0.000339164 3.04467e-07)
(-2.88817e-06 0.000393888 1.3074e-07)
(-3.56093e-06 0.000445453 3.82156e-08)
(-4.01894e-06 0.000500406 -5.59631e-08)
(-4.23897e-06 0.000551864 -9.60914e-08)
(-4.26549e-06 0.000594235 -8.2929e-08)
(-4.00824e-06 0.000629954 -6.83087e-08)
(-3.61109e-06 0.000657393 -4.5598e-08)
(-3.15214e-06 0.000675614 -3.81971e-08)
(-2.69012e-06 0.000686369 -1.75335e-08)
(-2.27417e-06 0.00069273 -6.1419e-09)
(-1.88926e-06 0.000696653 1.11204e-08)
(-1.5644e-06 0.000699069 2.18538e-08)
(-1.27783e-06 0.00070063 3.36449e-08)
(-1.04846e-06 0.000701692 3.7146e-08)
(-8.52615e-07 0.00070239 4.57968e-08)
(-6.94414e-07 0.000702836 4.91964e-08)
(-5.60682e-07 0.000703131 5.44132e-08)
(-4.52284e-07 0.000703317 5.71383e-08)
(-3.62183e-07 0.000703412 5.95181e-08)
(-2.88787e-07 0.000703432 6.28682e-08)
(-2.29299e-07 0.00070339 6.29567e-08)
(-1.78406e-07 0.000703301 6.64656e-08)
(-1.36097e-07 0.000703178 6.26886e-08)
(-9.347e-08 0.00070304 6.6342e-08)
(-5.30643e-08 0.000702895 5.91793e-08)
(-3.00853e-09 0.000702757 6.30461e-08)
(5.14289e-08 0.000702633 5.19752e-08)
(1.26674e-07 0.000702536 5.5862e-08)
(2.14436e-07 0.000702468 3.99759e-08)
(3.36823e-07 0.000702436 4.29968e-08)
(4.82887e-07 0.00070244 2.06127e-08)
(6.82847e-07 0.000702497 2.14028e-08)
(9.25296e-07 0.000702619 -9.49497e-09)
(1.24883e-06 0.000702825 -1.37767e-08)
(1.64568e-06 0.000703121 -5.48593e-08)
(2.16784e-06 0.000703535 -5.70893e-08)
(2.81552e-06 0.000704085 -8.98149e-08)
(3.65522e-06 0.000704814 -6.06158e-08)
(4.72341e-06 0.000705887 -3.98087e-08)
(6.13232e-06 0.000709912 8.57172e-08)
(8.02016e-06 0.000746726 2.46694e-07)
(1.08704e-05 0.000901584 2.55859e-07)
(1.49062e-05 0.00122627 -6.74585e-07)
(1.8046e-05 0.00164325 -8.0541e-07)
(1.61915e-05 0.00208594 -3.93284e-07)
(1.56164e-05 0.00262826 6.08652e-07)
(2.75224e-05 0.00328185 -1.85107e-05)
(4.18665e-05 0.0037087 -2.71522e-05)
(6.04323e-05 0.00365516 -4.32981e-05)
(7.30874e-05 0.0035924 -4.70955e-05)
(8.49798e-05 0.00363156 -5.21602e-05)
(9.35324e-05 0.00368967 -6.23481e-05)
(9.42328e-05 0.0037254 -7.14524e-05)
(-8.87124e-07 0.0032981 3.24637e-06)
(0.000415108 0.0050168 0.000377879)
(0.000574516 0.00805354 0.000460454)
(-0.00142061 0.0145568 -7.68445e-05)
(0.0436105 0.192226 0.00984898)
(0.0328858 0.489073 -0.00490687)
(-7.6134e-05 0.0512109 -0.00158116)
(0.00740786 0.304952 0.00292632)
(0.000495023 0.0290469 0.000288548)
(0.000546963 0.0101229 0.00057197)
(0.000479099 0.00790314 0.000503713)
(0.000331582 0.00753895 6.78905e-05)
(0.000165881 0.00793198 -0.000353559)
(8.55621e-05 0.00802523 -0.000550891)
(-7.4744e-05 0.00818459 -0.0006556)
(-0.00027457 0.00827022 -8.924e-05)
(-5.57537e-05 0.00792941 -8.45054e-05)
(-4.29652e-05 0.00724876 -2.88781e-05)
(-2.12063e-06 0.00671989 -3.3978e-06)
(-5.33021e-07 0.00657429 -1.25733e-05)
(-5.37821e-06 0.00657482 -2.40661e-05)
(-3.32846e-06 0.00661839 -1.78131e-05)
(-7.98433e-06 0.00666584 -1.74772e-05)
(-2.42274e-05 0.00665315 -1.73846e-05)
(-2.55116e-05 0.00658798 -2.0946e-05)
(6.38031e-06 0.00659649 -6.4193e-05)
(5.31618e-05 0.00674968 -8.0995e-05)
(7.25025e-05 0.00703471 -4.29355e-05)
(4.21098e-05 0.0073812 -6.61404e-06)
(-1.00575e-05 0.00768673 1.30603e-05)
(-4.38002e-05 0.00776367 2.70878e-05)
(-5.01702e-05 0.0073958 8.31129e-06)
(-4.3975e-05 0.00682717 -2.1781e-05)
(-3.66754e-05 0.00646621 -4.89425e-05)
(-2.49277e-05 0.00630566 -6.21123e-05)
(-4.02463e-06 0.00618667 -5.03362e-05)
(1.66774e-05 0.00602099 -3.23032e-05)
(2.13457e-05 0.00579356 -2.10374e-05)
(2.75766e-05 0.00539434 -1.49978e-05)
(2.47779e-05 0.0047828 -1.82421e-06)
(1.56973e-05 0.00427811 -5.43418e-07)
(-1.25728e-06 0.000286503 1.2305e-07)
(-2.54843e-06 0.000323841 2.73813e-07)
(-3.88453e-06 0.000375281 7.16215e-08)
(-4.61196e-06 0.000425907 -1.13279e-08)
(-5.04794e-06 0.000481196 -6.45132e-08)
(-5.18172e-06 0.000536646 -1.27583e-07)
(-5.16243e-06 0.000586342 -1.24633e-07)
(-4.81312e-06 0.000625359 -9.42672e-08)
(-4.33662e-06 0.000653006 -7.04054e-08)
(-3.77269e-06 0.000672455 -5.0256e-08)
(-3.21588e-06 0.000684899 -3.36708e-08)
(-2.68637e-06 0.000692515 -1.28036e-08)
(-2.22266e-06 0.000697017 -5.92155e-09)
(-1.82804e-06 0.000699565 1.39089e-08)
(-1.49807e-06 0.000701103 1.90846e-08)
(-1.23271e-06 0.000702115 3.0385e-08)
(-1.02553e-06 0.000702771 3.52948e-08)
(-8.59937e-07 0.000703181 4.48805e-08)
(-7.30922e-07 0.000703453 4.86589e-08)
(-6.26513e-07 0.000703619 5.26658e-08)
(-5.43899e-07 0.000703702 5.39884e-08)
(-4.75817e-07 0.000703709 5.29705e-08)
(-4.18488e-07 0.000703658 5.37145e-08)
(-3.68552e-07 0.000703558 4.92596e-08)
(-3.20715e-07 0.000703431 5.08691e-08)
(-2.74726e-07 0.000703286 4.27725e-08)
(-2.22095e-07 0.000703139 4.47344e-08)
(-1.65697e-07 0.000702996 3.31312e-08)
(-9.25509e-08 0.00070287 3.60079e-08)
(-7.15674e-09 0.000702766 2.00267e-08)
(1.07952e-07 0.0007027 2.2555e-08)
(2.46624e-07 0.000702672 6.32597e-10)
(4.32572e-07 0.000702698 1.05009e-09)
(6.59587e-07 0.000702788 -2.96736e-08)
(9.58591e-07 0.000702965 -3.48659e-08)
(1.32471e-06 0.000703238 -7.73159e-08)
(1.79835e-06 0.000703628 -8.58179e-08)
(2.37881e-06 0.000704149 -1.31822e-07)
(3.1228e-06 0.000704842 -1.2909e-07)
(4.05295e-06 0.00070576 -1.50954e-07)
(5.27842e-06 0.000707172 -9.13127e-08)
(6.89849e-06 0.000712316 -1.76641e-08)
(9.18867e-06 0.000746748 1.59047e-07)
(1.24443e-05 0.000871693 4.50982e-08)
(1.65668e-05 0.00111952 -7.2937e-07)
(2.07601e-05 0.00145508 -1.83448e-06)
(2.08855e-05 0.00188438 -5.60734e-07)
(9.80973e-06 0.00250219 -1.29216e-07)
(-9.95035e-06 0.00324496 -1.75854e-05)
(-1.34828e-05 0.00370985 -2.61651e-05)
(4.81614e-05 0.00371452 -6.40307e-05)
(8.02565e-05 0.00367157 -6.7107e-05)
(0.000137453 0.00368656 -6.68413e-05)
(0.000167924 0.00374858 -0.000127758)
(0.000261092 0.00378647 -7.94373e-05)
(0.000492438 0.00406691 7.13067e-05)
(0.00113332 0.00645717 7.15643e-05)
(0.00201244 0.00817043 0.000527046)
(-0.000269179 0.0117709 0.00029867)
(0.0441125 0.24103 0.0140874)
(0.00125369 0.702849 -0.0163202)
(-0.00234948 0.546329 -0.00486749)
(-0.00511551 0.546707 -0.000924951)
(-0.00547202 0.538585 -0.00140348)
(-0.00655013 0.536116 -0.00232705)
(-0.00510589 0.539273 -0.0036829)
(-0.00404954 0.537571 -0.00280706)
(-0.00328057 0.536003 -0.00241536)
(-0.00241654 0.525716 -0.00144023)
(-0.00349509 0.480468 -0.002397)
(-0.0026156 0.314095 -0.00246209)
(-0.000256515 0.0528167 -0.0001881)
(-0.000700849 0.110934 -0.000804272)
(-7.11545e-05 0.0305733 -0.0001308)
(-2.08676e-05 0.00742941 -0.000211928)
(1.94019e-05 0.00665278 -0.000188759)
(1.74016e-05 0.00638538 -0.000168638)
(-5.14039e-05 0.00642091 -0.000158771)
(-9.07082e-05 0.00646257 -9.48148e-06)
(-5.68272e-05 0.00642655 -7.18606e-07)
(7.30662e-05 0.00641854 -4.53415e-06)
(0.000189077 0.00644684 -8.97592e-06)
(0.000226169 0.00653241 -0.000243094)
(0.000175325 0.00701111 -6.66041e-05)
(0.000111262 0.00785351 5.11599e-05)
(3.39267e-05 0.00809341 5.93597e-05)
(-3.34256e-05 0.00739612 1.3139e-06)
(-2.73804e-05 0.00672969 -3.26318e-05)
(-4.86183e-05 0.0065655 -5.78745e-05)
(-6.52059e-06 0.00661999 -6.75972e-05)
(5.19952e-06 0.00672742 -6.97983e-05)
(2.47705e-05 0.00674109 -5.0231e-05)
(3.31685e-05 0.00675391 -2.33363e-05)
(2.56814e-05 0.00663161 6.46541e-07)
(2.17131e-05 0.00598767 1.59876e-06)
(8.53538e-06 0.00505933 1.22336e-05)
(-1.68938e-06 0.000272549 -1.21033e-07)
(-3.36059e-06 0.000308545 1.06874e-07)
(-4.96323e-06 0.000355326 -7.17974e-08)
(-5.60509e-06 0.000404237 -1.30932e-07)
(-6.04946e-06 0.000460877 -1.4078e-07)
(-6.0052e-06 0.000518426 -1.61093e-07)
(-5.86059e-06 0.000573869 -1.8679e-07)
(-5.40739e-06 0.000618778 -1.56443e-07)
(-4.86965e-06 0.000648577 -1.11927e-07)
(-4.20184e-06 0.000669445 -9.27472e-08)
(-3.56788e-06 0.000683573 -6.15742e-08)
(-2.96135e-06 0.000692302 -4.93392e-08)
(-2.43287e-06 0.000697235 -2.59535e-08)
(-1.99444e-06 0.000699785 -8.68546e-09)
(-1.63784e-06 0.000701204 1.51324e-08)
(-1.36194e-06 0.000702111 2.32933e-08)
(-1.14559e-06 0.000702684 3.9504e-08)
(-9.79489e-07 0.000703035 4.44179e-08)
(-8.50007e-07 0.00070326 5.22806e-08)
(-7.51178e-07 0.000703396 5.23677e-08)
(-6.72119e-07 0.000703457 5.16528e-08)
(-6.08244e-07 0.000703458 4.84877e-08)
(-5.51826e-07 0.000703405 4.17666e-08)
(-4.99336e-07 0.000703314 3.87671e-08)
(-4.49375e-07 0.000703193 2.90765e-08)
(-3.95393e-07 0.000703064 2.79091e-08)
(-3.35691e-07 0.000702931 1.49848e-08)
(-2.63859e-07 0.000702809 1.55337e-08)
(-1.79582e-07 0.000702703 -4.42676e-10)
(-7.36991e-08 0.000702629 1.42144e-09)
(5.38881e-08 0.00070259 -1.91064e-08)
(2.17473e-07 0.000702605 -1.77954e-08)
(4.189e-07 0.000702678 -4.59339e-08)
(6.77281e-07 0.000702834 -4.87618e-08)
(9.98075e-07 0.000703084 -8.79011e-08)
(1.40689e-06 0.000703455 -9.54525e-08)
(1.91249e-06 0.00070396 -1.43196e-07)
(2.55164e-06 0.000704634 -1.49923e-07)
(3.34449e-06 0.000705498 -1.9258e-07)
(4.351e-06 0.000706633 -1.78117e-07)
(5.64975e-06 0.000708482 -1.86212e-07)
(7.39425e-06 0.000714668 -9.82967e-08)
(9.79549e-06 0.000743224 2.52196e-08)
(1.29913e-05 0.000832883 1.55448e-07)
(1.71812e-05 0.00100577 -4.03116e-07)
(2.26771e-05 0.00122955 -2.01061e-06)
(2.39171e-05 0.00149618 1.46737e-07)
(1.0033e-05 0.00210927 5.5907e-06)
(-3.48458e-05 0.00313797 7.96352e-08)
(-4.57566e-05 0.00372579 -7.21011e-06)
(-4.77168e-07 0.00376453 -4.95978e-05)
(3.88982e-05 0.00370821 -8.75978e-05)
(2.96445e-05 0.00370492 -7.18902e-05)
(3.59502e-05 0.00385295 -7.34542e-05)
(8.81522e-05 0.00401979 -0.000108453)
(0.000194776 0.00413473 -0.000200555)
(0.000119126 0.00612658 -5.87405e-05)
(0.00064951 0.00718356 0.000110356)
(-9.52152e-05 0.0115274 0.000303393)
(-0.00300014 0.297752 0.00921134)
(-0.0159166 0.685771 -0.0175942)
(0.00438005 0.543592 -0.00497325)
(0.00553123 0.541963 0.0017797)
(0.00037087 0.54191 -0.000605822)
(0.000990111 0.543858 0.000335646)
(-0.000428054 0.543925 -0.00016557)
(-0.001965 0.53919 0.000390403)
(-0.00206709 0.539443 -0.000250403)
(-0.003385 0.538244 -0.000327363)
(-0.00410753 0.538046 -0.00118669)
(-0.00442267 0.53833 -0.00141045)
(-0.00315871 0.538207 -0.00156061)
(-0.003489 0.539365 -0.000877672)
(-0.00197912 0.540415 -9.2114e-05)
(-0.00201723 0.539301 -0.000712408)
(-0.00203249 0.539458 -0.000744597)
(-0.00149413 0.538896 -0.000746036)
(-0.00263734 0.537558 -0.000868238)
(-0.00146699 0.537576 4.14693e-05)
(-0.00137929 0.536917 0.000252894)
(-0.000546678 0.53559 0.000363264)
(0.0011521 0.533691 0.00121178)
(0.0032088 0.532084 0.00207368)
(0.00504028 0.533109 0.00155379)
(0.00627942 0.535357 -0.000360026)
(0.00497967 0.536331 0.000682558)
(0.00216326 0.526555 0.002521)
(0.00151882 0.491728 0.00237361)
(0.00146458 0.336486 0.00152294)
(-5.96604e-05 0.0300402 -0.000383234)
(3.33209e-05 0.0075922 -0.000479345)
(5.45134e-05 0.00674588 -0.000476297)
(1.52257e-05 0.00618858 -1.2768e-05)
(-0.000133407 0.00648554 -1.81967e-05)
(-0.000113319 0.0061828 -1.70602e-06)
(-1.24686e-06 0.00501276 2.83177e-06)
(-2.28064e-06 0.000256054 -6.22305e-07)
(-4.30426e-06 0.000292504 -2.10463e-07)
(-6.08299e-06 0.000336286 -1.92062e-07)
(-6.5943e-06 0.000383934 -1.59944e-07)
(-6.99957e-06 0.00044333 -2.15208e-07)
(-6.77195e-06 0.000501246 -2.24286e-07)
(-6.47402e-06 0.000556766 -2.32507e-07)
(-5.86493e-06 0.000609116 -2.05684e-07)
(-5.28414e-06 0.000644658 -1.51339e-07)
(-4.50021e-06 0.000666825 -1.00884e-07)
(-3.7878e-06 0.000682302 -7.50159e-08)
(-3.05603e-06 0.000692243 -4.64127e-08)
(-2.48695e-06 0.000697742 -3.4295e-08)
(-2.04788e-06 0.000700385 -2.13568e-09)
(-1.72277e-06 0.000701773 1.92702e-08)
(-1.44647e-06 0.000702626 5.00068e-08)
(-1.22929e-06 0.000703144 6.48606e-08)
(-1.04493e-06 0.000703438 7.70586e-08)
(-9.02049e-07 0.000703618 7.34918e-08)
(-7.89786e-07 0.000703714 6.9397e-08)
(-7.02491e-07 0.000703737 5.9855e-08)
(-6.28684e-07 0.000703686 5.10554e-08)
(-5.65978e-07 0.000703593 4.27294e-08)
(-5.05233e-07 0.000703473 3.18088e-08)
(-4.44416e-07 0.000703339 2.64848e-08)
(-3.7928e-07 0.000703196 1.50115e-08)
(-3.12122e-07 0.000703061 1.13879e-08)
(-2.32484e-07 0.000702941 -2.46543e-09)
(-1.40331e-07 0.000702853 -4.12578e-09)
(-2.36363e-08 0.000702798 -2.06414e-08)
(1.1718e-07 0.000702794 -2.20075e-08)
(2.97786e-07 0.000702843 -4.41137e-08)
(5.19602e-07 0.000702965 -4.88634e-08)
(8.02607e-07 0.000703172 -8.13301e-08)
(1.15246e-06 0.000703491 -9.17293e-08)
(1.59521e-06 0.000703938 -1.31221e-07)
(2.13662e-06 0.000704551 -1.4343e-07)
(2.81168e-06 0.000705356 -1.86164e-07)
(3.63675e-06 0.0007064 -1.9953e-07)
(4.66957e-06 0.000707742 -2.46841e-07)
(5.97336e-06 0.000709927 -2.48486e-07)
(7.70482e-06 0.000716188 -2.61444e-07)
(1.00175e-05 0.000735895 -1.43248e-07)
(1.25656e-05 0.000784722 1.77488e-09)
(1.55402e-05 0.00087751 1.01371e-07)
(1.99742e-05 0.000997137 4.32769e-08)
(2.26254e-05 0.0010954 1.14974e-06)
(1.6312e-05 0.00172645 5.8304e-06)
(-1.82244e-05 0.00311777 7.84778e-06)
(-4.96661e-05 0.00378183 -8.49814e-06)
(-4.57028e-05 0.00376426 -3.50439e-05)
(-5.77768e-06 0.00371899 -3.71716e-05)
(-2.39894e-05 0.00372016 -2.5789e-05)
(-0.000108106 0.00380592 -6.24246e-06)
(-0.000266706 0.00396479 1.46491e-05)
(-0.000391186 0.00417884 5.99932e-06)
(-0.000397817 0.00645243 -5.11229e-05)
(-0.00109036 0.00765864 0.000331145)
(8.21105e-05 0.0117616 0.000539477)
(0.000237338 0.33145 -0.0150567)
(-0.00687558 0.65451 -0.00914706)
(0.00843423 0.544272 -0.00686254)
(0.0040734 0.539122 0.00410704)
(0.000477358 0.543882 0.000110571)
(-0.000501738 0.542339 0.00185854)
(-0.00117903 0.543247 0.00145732)
(-0.00193324 0.542 0.00166903)
(-0.00207414 0.544846 0.000771782)
(-0.00283585 0.542237 0.000563652)
(-0.00301206 0.540681 -4.42644e-05)
(-0.00292308 0.542217 0.000239799)
(-0.00205534 0.542873 -0.000572063)
(-0.00194874 0.545512 0.000163044)
(-0.000839511 0.544291 -0.00109393)
(-0.000870689 0.540544 -0.000243796)
(-0.000280923 0.541549 -0.000452123)
(-0.00024921 0.542183 -0.000628175)
(-0.000839973 0.541649 -0.00116584)
(-0.000103941 0.541334 -0.00236505)
(2.05686e-05 0.541736 -0.0029939)
(-0.000354729 0.541587 -0.00334419)
(0.00108354 0.542261 -0.00287414)
(0.00234806 0.542681 -0.00345671)
(0.00105597 0.54105 -0.00453512)
(-0.000218731 0.538979 -0.00335026)
(-0.00238153 0.535808 -0.000606645)
(-0.00718346 0.531001 0.00154089)
(-0.00927162 0.530524 0.00315985)
(-0.0108086 0.531981 0.0035897)
(-0.0119724 0.533074 0.00308457)
(-0.0118835 0.52995 0.00188873)
(-0.007652 0.52206 -0.000168391)
(0.000695898 0.509263 -0.00516918)
(0.0126583 0.474149 -0.0144553)
(0.0126542 0.33539 -0.0232492)
(-0.000329138 0.0265202 0.000128237)
(-2.47868e-06 0.000234881 -1.43725e-06)
(-5.38934e-06 0.000275094 -5.27223e-07)
(-7.24216e-06 0.000319637 -3.12225e-07)
(-7.63435e-06 0.000367353 -6.44752e-08)
(-7.77164e-06 0.00042904 -2.29279e-07)
(-7.45095e-06 0.000488979 -2.9712e-07)
(-6.87465e-06 0.000543912 -2.29758e-07)
(-6.09802e-06 0.000599606 -2.83734e-07)
(-5.5539e-06 0.000640378 -1.65696e-07)
(-4.65138e-06 0.000665268 -1.40043e-07)
(-3.8955e-06 0.000681921 -8.39208e-08)
(-3.14619e-06 0.000692415 -3.963e-08)
(-2.58921e-06 0.000698142 1.71614e-08)
(-2.17402e-06 0.000700773 6.16656e-08)
(-1.86228e-06 0.000702079 1.02976e-07)
(-1.59029e-06 0.000702903 1.225e-07)
(-1.37273e-06 0.00070338 1.4726e-07)
(-1.18371e-06 0.000703621 1.61274e-07)
(-1.03686e-06 0.000703752 1.75657e-07)
(-9.21387e-07 0.000703813 1.81805e-07)
(-8.3144e-07 0.000703818 1.82756e-07)
(-7.58056e-07 0.000703784 1.76423e-07)
(-6.95391e-07 0.000703712 1.66082e-07)
(-6.3791e-07 0.000703619 1.55703e-07)
(-5.79467e-07 0.00070351 1.40422e-07)
(-5.19746e-07 0.000703399 1.29401e-07)
(-4.52153e-07 0.000703292 1.13506e-07)
(-3.76292e-07 0.000703205 1.04134e-07)
(-2.77309e-07 0.000703145 8.67538e-08)
(-1.56427e-07 0.000703126 7.8606e-08)
(2.76328e-09 0.000703153 5.92278e-08)
(1.95936e-07 0.000703249 4.79723e-08)
(4.45193e-07 0.000703422 1.99599e-08)
(7.46539e-07 0.000703704 6.27328e-10)
(1.12826e-06 0.000704107 -4.0682e-08)
(1.58987e-06 0.000704666 -7.13152e-08)
(2.16827e-06 0.000705408 -1.2085e-07)
(2.85938e-06 0.000706375 -1.56339e-07)
(3.7053e-06 0.000707603 -2.19721e-07)
(4.70557e-06 0.000709187 -2.89257e-07)
(5.93934e-06 0.000711595 -4.0786e-07)
(7.44086e-06 0.000717319 -5.3947e-07)
(9.33913e-06 0.000730962 -6.96604e-07)
(1.1214e-05 0.000754804 -1.01206e-06)
(1.28767e-05 0.000787703 -1.65378e-06)
(1.49696e-05 0.000826455 -2.21003e-06)
(1.73598e-05 0.000863279 -1.52644e-06)
(1.93292e-05 0.00142459 6.73485e-06)
(-8.81292e-06 0.00280884 2.46403e-06)
(-6.79152e-05 0.00368351 -2.35503e-05)
(-6.95742e-05 0.00375555 -3.27381e-05)
(-4.32205e-05 0.00368919 -3.6827e-05)
(-7.35167e-05 0.00369607 -1.00447e-05)
(-0.000116913 0.00378284 3.68252e-05)
(-0.000352282 0.00389847 6.14386e-05)
(-0.00033456 0.00399846 8.14757e-05)
(-0.000893834 0.00631714 0.000283736)
(-0.00164921 0.00879967 0.000245703)
(0.00042376 0.0120565 4.94961e-05)
(-0.0670049 0.256814 -0.00863042)
(-0.0180851 0.654796 -0.0146899)
(0.0228579 0.532141 0.00168815)
(0.00285704 0.531423 0.000736246)
(0.00323543 0.541923 -0.00214414)
(0.000876225 0.548778 -5.08969e-05)
(-0.0016643 0.555226 -0.000313737)
(0.00093703 0.54947 0.00542451)
(0.00153405 0.549069 0.00323139)
(0.000149782 0.544265 0.00295387)
(-0.000276621 0.545487 0.00187469)
(-0.00146852 0.554915 0.00160814)
(-0.00143403 0.552347 0.000837112)
(-0.00236972 0.541905 0.000534339)
(-0.000842308 0.544873 0.00190538)
(-0.00154579 0.548864 0.000395616)
(-0.000953997 0.545907 0.00188873)
(-0.00154924 0.546168 0.000450433)
(-0.00170693 0.546784 0.000469887)
(-0.00122272 0.54759 -0.000278081)
(-0.00126306 0.546732 -6.03721e-05)
(-3.20751e-05 0.546699 -0.000232869)
(0.000460983 0.547106 -0.00104444)
(0.00135506 0.544507 -0.00149954)
(0.000878201 0.548903 -0.00390465)
(-0.00152059 0.554141 -0.00197729)
(-0.00240533 0.546276 -0.00152284)
(-0.00337365 0.539783 -0.000324114)
(-0.00549113 0.53733 0.00186675)
(-0.00579432 0.534381 0.00195571)
(-0.00482207 0.531298 0.000796359)
(-0.000758185 0.529877 -0.000415609)
(0.0044646 0.528686 -0.00295068)
(0.0124797 0.522552 -0.0118192)
(0.012667 0.506056 -0.0260534)
(-0.00534412 0.455719 -0.0329836)
(-0.00215975 0.195897 -0.00521492)
(-4.22631e-06 9.75673e-05 -4.26221e-06)
(-6.74526e-06 0.00025961 -1.32915e-06)
(-8.41317e-06 0.000300127 -7.73561e-07)
(-8.50373e-06 0.000350361 -3.2189e-07)
(-8.27363e-06 0.000414188 -4.47538e-07)